FOO
141312
    1MOL0     O    1   1.381   7.045   3.066  0.1493  0.6296  0.5137
    1MOL0     C    2   1.457   6.970   3.130 -0.6254  0.8170 -0.4694
    1MOL0     O    3   1.408   6.851   3.200 -0.5731 -0.4870 -0.0497
    1MOL0     C    4   1.290   6.855   3.271  0.4758  0.3799  0.3480
    1MOL0     C    5   1.261   6.740   3.338  0.0291  0.6974 -0.9443
    1MOL0     C    6   1.145   6.728   3.418  0.4484  0.2389 -0.4039
    1MOL0     C    7   1.059   6.843   3.436 -0.8082 -0.0617  0.2142
    1MOL0     O    8   0.941   6.852   3.518 -0.6448 -0.7197 -0.5553
    1MOL0     C    9   0.902   6.738   3.593  0.9032  0.4798 -1.1814
    1MOL0     C   10   0.815   6.798   3.703 -0.2240 -0.4633  0.4275
    1MOL0     C   11   0.789   6.702   3.822  0.5089  0.1448  0.4222
    1MOL0     C   12   0.725   6.564   3.779  0.2500 -0.4198  0.4718
    1MOL0     C   13   0.692   6.483   3.900  0.8928  0.2092  0.2055
    1MOL0     C   14   0.660   6.333   3.866 -1.5569 -0.6366 -0.7699
    1MOL0     C   15   0.515   6.309   3.826  0.4794 -0.3536  0.3409
    1MOL0     C   16   0.460   6.181   3.884  0.6659 -0.5306  0.5756
    1MOL0     N   17   0.535   6.061   3.838  0.3015 -0.1615 -0.3678
    1MOL0     C   18   0.590   6.036   3.717 -0.5487  0.2662  0.2400
    1MOL0     C   19   0.651   5.917   3.728  0.2867  0.4595 -0.3714
    1MOL0     C   20   0.704   5.821   3.630 -0.9740 -0.0349  0.7414
    1MOL0     C   21   0.792   5.902   3.527  0.4564 -0.5927 -0.2862
    1MOL0     C   22   0.834   5.809   3.418 -0.6405  0.1526 -0.4812
    1MOL0     C   23   0.951   5.705   3.449  0.5532 -0.0962  0.3766
    1MOL0     O   24   0.986   5.627   3.332  0.0334  0.4269  0.3532
    1MOL0     C   25   1.121   5.604   3.308  0.1231  0.1128 -0.1045
    1MOL0     C   26   1.151   5.534   3.192  0.3924 -0.8807 -1.0569
    1MOL0     C   27   1.278   5.481   3.156  0.2677  1.0013 -0.7659
    1MOL0     C   28   1.286   5.386   3.034  0.3615 -0.2532  0.9198
    1MOL0     C   29   1.382   5.498   3.253  0.3239  0.4338  0.2805
    1MOL0     C   30   1.513   5.441   3.232  0.0753  1.1764  0.1486
    1MOL0     O   31   1.609   5.528   3.246 -0.5942 -0.6997 -0.1351
    1MOL0     C   32   1.736   5.480   3.208 -0.4201  0.3200 -0.5579
    1MOL0     C   33   1.807   5.419   3.308 -0.4771 -0.7211 -0.3547
    1MOL0     C   34   1.930   5.367   3.279  0.2623 -0.1085  0.3173
    1MOL0     C   35   1.995   5.385   3.158 -0.0121 -0.1423  0.7124
    1MOL0     O   36   2.112   5.324   3.143 -0.1313 -0.2344  0.0915
    1MOL0     C   37   2.203   5.350   3.037 -0.3944  0.4445  0.9995
    1MOL0     C   38   2.332   5.276   3.071  0.4999 -0.4752  0.7414
    1MOL0     C   39   2.330   5.131   3.043 -0.5867 -0.1466  0.5438
    1MOL0     C   40   2.453   5.068   3.109  0.4525  0.0817  0.4110
    1MOL0     C   41   2.471   4.917   3.066  0.4186  0.4689 -0.1376
    1MOL0     C   42   2.506   4.903   2.925  0.1924  0.3937  0.0583
    1MOL0     C   43   2.533   4.756   2.891  0.1632 -0.0891  0.2732
    1MOL0     C   44   2.414   4.667   2.940 -1.0634  0.3614  0.6993
    1MOL0    Cl   45   2.435   4.505   2.867 -0.4062 -0.0189 -0.1485
    1MOL0     C   46   1.920   5.447   3.060 -0.3927  0.3789 -0.1297
    1MOL0     C   47   1.795   5.500   3.089 -0.0105 -0.2482 -0.3958
    1MOL0     O   48   1.529   5.321   3.214  0.4858 -0.2886  0.2095
    1MOL0     C   49   1.353   5.583   3.364 -0.5401 -1.2454 -0.5036
    1MOL0     C   50   1.227   5.632   3.392  0.4162  0.2274 -0.9255
    1MOL0     N   51   0.627   5.875   3.853  0.2537  0.1980 -0.2000
    1MOL0     N   52   0.561   5.959   3.923  0.2154  0.5232  0.1251
    1MOL0     C   53   1.086   6.959   3.361  0.7719  0.9065 -0.0815
    1MOL0     C   54   1.196   6.961   3.280 -0.3485 -0.6767 -0.6026
    1MOL0     C   55   1.615   6.969   3.129 -0.8509  0.1975  0.8115
    1MOL0     C   56   1.690   6.860   3.177 -0.5660  0.6469  1.6706
    1MOL0     C   57   1.827   6.867   3.179  0.8469  0.2221  0.0579
    1MOL0     C   58   1.901   6.976   3.127 -0.5516 -0.5250 -0.0014
    1MOL0     O   59   2.042   6.986   3.127 -0.2991  0.0733  0.5458
    1MOL0     C   60   2.119   6.867   3.160 -0.0667 -0.1572 -0.0575
    1MOL0     C   61   2.275   6.895   3.151 -0.8489  0.6279 -0.5143
    1MOL0     C   62   2.324   6.954   3.022 -0.7102  0.4475 -0.0459
    1MOL0     C   63   2.471   7.005   3.026 -0.3925  0.7556  0.3490
    1MOL0     C   64   2.578   6.913   3.075  0.4277  0.3387  0.8971
    1MOL0     C   65   2.670   6.837   3.098 -0.4298 -0.1244  0.3390
    1MOL0     C   66   1.827   7.085   3.084  0.6030 -0.4044 -0.9913
    1MOL0     C   67   1.685   7.083   3.088  0.1519 -0.2937  0.0291
    1MOL0     C   68   1.608   7.207   3.045  0.3428 -0.8514  0.0063
    1MOL0     H   69   1.331   6.657   3.331 -0.5719  0.0987 -0.0664
    1MOL0     H   70   1.126   6.635   3.471  1.2522  0.5741  0.4972
    1MOL0     H   71   0.993   6.691   3.631  0.1634  0.3370  0.4931
    1MOL0     H   72   0.844   6.666   3.535  3.0203 -1.4789 -1.0126
    1MOL0     H   73   0.873   6.880   3.745 -0.2328 -0.0711 -0.3054
    1MOL0     H   74   0.721   6.835   3.663 -0.1874  0.0033  0.7702
    1MOL0     H   75   0.887   6.681   3.866  1.8661  2.4848 -1.2602
    1MOL0     H   76   0.720   6.743   3.895  0.3929 -0.4653  0.6567
    1MOL0     H   77   0.629   6.594   3.736  0.6133  2.8286  1.7154
    1MOL0     H   78   0.776   6.508   3.700  1.3631  1.8204 -0.4545
    1MOL0     H   79   0.604   6.524   3.951 -0.3828  0.0054 -1.7328
    1MOL0     H   80   0.779   6.482   3.966  1.4712  1.9719 -0.4827
    1MOL0     H   81   0.727   6.307   3.784 -0.9471  0.6925 -0.7125
    1MOL0     H   82   0.685   6.274   3.955  0.1295  0.5378 -0.4341
    1MOL0     H   83   0.499   6.312   3.717 -0.7629 -0.7697  0.4969
    1MOL0     H   84   0.453   6.384   3.877  1.6732 -0.6552  2.3041
    1MOL0     H   85   0.473   6.185   3.992  0.0294  0.2220  0.6365
    1MOL0     H   86   0.355   6.177   3.852  1.3178 -0.6464 -1.7026
    1MOL0     H   87   0.590   6.101   3.630  3.1063 -1.3327 -1.1456
    1MOL0     H   88   0.633   5.756   3.579  0.8471 -2.8671  1.5223
    1MOL0     H   89   0.773   5.758   3.687  2.0672  2.7348  0.4563
    1MOL0     H   90   0.717   5.964   3.476 -0.8257 -2.4005 -0.6923
    1MOL0     H   91   0.880   5.953   3.568 -0.8298  1.1323  0.4955
    1MOL0     H   92   0.742   5.758   3.387 -0.8215  0.1154  0.0939
    1MOL0     H   93   0.871   5.874   3.338 -2.1727  2.3021  0.4306
    1MOL0     H   94   1.034   5.764   3.489 -0.5429  2.8748 -1.4151
    1MOL0     H   95   0.913   5.634   3.524  0.1621 -2.9876 -2.3741
    1MOL0     H   96   1.062   5.520   3.131  1.1755  0.2135 -2.5055
    1MOL0     H   97   1.374   5.321   3.029  0.6532  0.1770  0.3295
    1MOL0     H   98   1.274   5.440   2.940  0.1087  1.6689  2.0179
    1MOL0     H   99   1.195   5.324   3.036 -0.0666  0.2913 -0.3650
    1MOL0     H  100   1.758   5.405   3.404 -0.1308 -1.7954 -0.3204
    1MOL0     H  101   1.985   5.309   3.353 -0.7620 -0.8154  0.5440
    1MOL0     H  102   2.166   5.326   2.937  1.7996  2.9881 -0.5419
    1MOL0     H  103   2.220   5.457   3.031  0.1100  0.3212  0.1374
    1MOL0     H  104   2.415   5.334   3.029 -0.5707  1.4781  1.1780
    1MOL0     H  105   2.339   5.285   3.180 -0.4516 -1.5912  0.9129
    1MOL0     H  106   2.321   5.114   2.935 -3.6557 -1.3766  0.9092
    1MOL0     H  107   2.237   5.084   3.076  0.6653 -1.6310  2.1682
    1MOL0     H  108   2.445   5.089   3.216 -0.7336 -1.1577  0.6083
    1MOL0     H  109   2.541   5.120   3.073 -0.5504  0.1045 -2.2563
    1MOL0     H  110   2.558   4.875   3.119 -0.0167  2.2243  2.1237
    1MOL0     H  111   2.377   4.863   3.079  1.3595 -0.8424  1.7741
    1MOL0     H  112   2.592   4.966   2.900 -0.4654  0.5831 -1.9451
    1MOL0     H  113   2.425   4.929   2.856 -0.1745  0.1767  0.3997
    1MOL0     H  114   2.622   4.722   2.944 -0.0882 -2.8324 -0.9234
    1MOL0     H  115   2.551   4.749   2.783  1.7341  2.1841  0.3064
    1MOL0     H  116   2.316   4.707   2.915  0.0032  2.9977  0.3572
    1MOL0     H  117   2.413   4.648   3.047 -1.2621 -1.3403  0.4240
    1MOL0     H  118   1.942   5.441   2.954  0.0973  2.1738 -0.1649
    1MOL0     H  119   1.746   5.559   3.012  0.8784  2.5424  1.0528
    1MOL0     H  120   1.433   5.605   3.434 -1.4767  0.4434  0.1049
    1MOL0     H  121   1.209   5.683   3.486  1.4444  1.5109 -1.3939
    1MOL0     H  122   1.019   7.044   3.369  1.1439  1.0641  1.9245
    1MOL0     H  123   1.214   7.057   3.233  4.6358 -1.1866 -0.2327
    1MOL0     H  124   1.657   6.765   3.220  0.1570  0.8016  2.5960
    1MOL0     H  125   1.875   6.776   3.213  2.6196 -0.1967 -3.1678
    1MOL0     H  126   2.099   6.830   3.261 -1.3719 -0.5367 -0.4316
    1MOL0     H  127   2.101   6.782   3.094  0.1102 -1.2539  1.2506
    1MOL0     H  128   2.323   6.798   3.167 -1.5891  0.1936 -0.8464
    1MOL0     H  129   2.308   6.965   3.228 -4.3064  2.5914 -0.6246
    1MOL0     H  130   2.308   6.873   2.950 -0.9697 -2.5403  3.0895
    1MOL0     H  131   2.257   7.032   2.984  1.0305  1.5095 -1.1065
    1MOL0     H  132   2.477   7.090   3.094  0.5327 -1.1863  2.8630
    1MOL0     H  133   2.512   7.020   2.926  0.6733 -0.9765  0.4722
    1MOL0     H  134   2.749   6.769   3.124 -0.0429  0.8006  1.7182
    1MOL0     H  135   1.873   7.182   3.068 -1.8415  1.2219  0.9294
    1MOL0     H  136   1.677   7.290   3.023 -2.6195  1.8280  0.1305
    1MOL0     H  137   1.541   7.199   2.959  3.0312 -2.1777 -2.1308
    1MOL0     H  138   1.542   7.249   3.121  3.0863  2.1993  0.9506
    2MOL0     O  139   5.028   9.306   7.923 -0.3182 -0.2777  0.0363
    2MOL0     C  140   5.097   9.299   7.822 -0.6629 -0.4466  1.3777
    2MOL0     O  141   5.056   9.245   7.705 -0.2537 -0.2999  0.2008
    2MOL0     C  142   4.939   9.175   7.679 -0.5031 -0.5820 -0.9875
    2MOL0     C  143   4.827   9.240   7.618 -0.2926 -0.4196  0.3566
    2MOL0     C  144   4.703   9.168   7.597  0.2132  0.0763  0.1798
    2MOL0     C  145   4.688   9.038   7.647 -0.3342  0.8440  0.4686
    2MOL0     O  146   4.575   8.963   7.618  0.2378  0.3024  0.1884
    2MOL0     C  147   4.445   9.025   7.593  0.6084  0.3140  0.2328
    2MOL0     C  148   4.323   8.938   7.607 -0.4508  0.1852  0.2712
    2MOL0     C  149   4.306   8.855   7.492  0.4676  0.0922  1.3859
    2MOL0     C  150   4.208   8.917   7.379 -0.0766 -0.0842 -0.6685
    2MOL0     C  151   4.139   8.813   7.291  0.1729  0.6652  0.9218
    2MOL0     C  152   4.233   8.711   7.224  0.7847 -0.3445 -0.0675
    2MOL0     C  153   4.160   8.611   7.139 -0.0109  0.3556 -0.5600
    2MOL0     C  154   4.126   8.664   7.002  0.4696 -0.1010  0.5267
    2MOL0     N  155   4.061   8.550   6.925  0.2082 -0.4953 -0.1913
    2MOL0     C  156   3.929   8.545   6.896 -0.4167 -1.2853 -0.7898
    2MOL0     C  157   3.919   8.449   6.815 -0.6697  0.6287  0.3084
    2MOL0     C  158   3.805   8.385   6.762  0.4499  0.5547 -0.4039
    2MOL0     C  159   3.700   8.483   6.720  0.3855 -0.1130  0.1337
    2MOL0     C  160   3.746   8.579   6.612 -1.3606 -0.2763  0.9474
    2MOL0     C  161   3.634   8.620   6.510  0.0548  0.0125 -0.7514
    2MOL0     O  162   3.594   8.504   6.435 -0.4570  0.1856 -0.0119
    2MOL0     C  163   3.482   8.497   6.355 -0.6963 -0.2002  0.0627
    2MOL0     C  164   3.379   8.595   6.361  0.0633 -0.3856  0.0662
    2MOL0     C  165   3.278   8.598   6.267  0.3434 -0.1127 -0.3755
    2MOL0     C  166   3.179   8.712   6.260 -0.8779  0.0875 -0.0163
    2MOL0     C  167   3.263   8.492   6.170 -0.1108 -0.3151 -0.7563
    2MOL0     C  168   3.153   8.467   6.079 -0.2876 -0.0946  0.7099
    2MOL0     O  169   3.059   8.562   6.066 -0.2303  0.1362 -0.0234
    2MOL0     C  170   2.974   8.554   5.957  0.3160  1.0733 -0.4930
    2MOL0     C  171   3.017   8.546   5.821  0.7769 -0.3170 -0.7205
    2MOL0     C  172   2.923   8.547   5.713  0.6337 -0.4202  0.1055
    2MOL0     C  173   2.794   8.542   5.740  0.1181 -0.9030 -0.2768
    2MOL0     O  174   2.686   8.538   5.656 -0.1709 -0.4688  0.1291
    2MOL0     C  175   2.704   8.544   5.516  0.2907  0.1110 -0.3894
    2MOL0     C  176   2.741   8.407   5.465  0.7639  0.1352 -0.3822
    2MOL0     C  177   2.686   8.355   5.329  0.8200 -0.3082 -0.4378
    2MOL0     C  178   2.543   8.301   5.329  1.1712  0.2022  0.5742
    2MOL0     C  179   2.523   8.197   5.220  0.7375  0.3685 -0.1351
    2MOL0     C  180   2.384   8.132   5.228 -0.1090  0.1246 -0.0345
    2MOL0     C  181   2.357   8.003   5.150 -1.3688 -0.2583 -0.6404
    2MOL0     C  182   2.224   7.941   5.188 -1.0690 -0.1162 -0.5421
    2MOL0    Cl  183   2.105   8.073   5.145 -0.2199 -0.3474  0.3051
    2MOL0     C  184   2.748   8.554   5.873 -0.0276  0.2877  0.6371
    2MOL0     C  185   2.839   8.564   5.979  0.5560  0.5004  1.0522
    2MOL0     O  186   3.167   8.372   6.000  0.0393 -0.2313  0.4255
    2MOL0     C  187   3.370   8.396   6.174  0.0752  0.4314 -0.5684
    2MOL0     C  188   3.476   8.395   6.266  0.0011  0.5420  0.0209
    2MOL0     N  189   4.045   8.380   6.787  0.4231 -0.5015 -0.5868
    2MOL0     N  190   4.133   8.447   6.859 -0.3330 -0.4256 -0.0006
    2MOL0     C  191   4.799   8.979   7.708  0.5332 -0.0001 -0.3604
    2MOL0     C  192   4.924   9.041   7.720  0.2499 -0.7263  1.0779
    2MOL0     C  193   5.243   9.333   7.838  0.4287 -0.4435 -0.0630
    2MOL0     C  194   5.339   9.270   7.758  0.3326 -0.0948 -0.6789
    2MOL0     C  195   5.472   9.284   7.771 -0.3107  0.2426 -0.9191
    2MOL0     C  196   5.521   9.368   7.871  0.0767  0.7200  0.3338
    2MOL0     O  197   5.658   9.396   7.879  0.5701  0.3953  0.7694
    2MOL0     C  198   5.700   9.529   7.856 -0.2755  0.6491 -0.5766
    2MOL0     C  199   5.815   9.527   7.758 -0.2670  0.1696 -0.3210
    2MOL0     C  200   5.796   9.443   7.627 -0.7071 -0.6028 -0.1468
    2MOL0     C  201   5.715   9.499   7.513  1.0101 -0.2427 -0.5699
    2MOL0     C  202   5.788   9.610   7.453 -0.3470 -1.0112  0.3048
    2MOL0     C  203   5.858   9.697   7.397  0.5246  0.1922 -0.1488
    2MOL0     C  204   5.424   9.448   7.943 -0.3768  0.3034  0.2789
    2MOL0     C  205   5.286   9.433   7.919  0.1423  0.3864 -0.5978
    2MOL0     C  206   5.204   9.533   7.994  0.5036 -1.0160 -0.3563
    2MOL0     H  207   4.837   9.341   7.580 -0.1066 -0.7087 -0.3927
    2MOL0     H  208   4.622   9.226   7.554  2.0063  2.1327 -0.5904
    2MOL0     H  209   4.440   9.072   7.494 -0.9407 -2.1674 -0.9735
    2MOL0     H  210   4.440   9.105   7.668  1.4460 -0.6444  1.3388
    2MOL0     H  211   4.317   8.869   7.691 -0.9296  0.2091  0.2582
    2MOL0     H  212   4.236   9.002   7.625 -1.7463 -1.6086  0.5573
    2MOL0     H  213   4.400   8.818   7.451 -1.3024  1.2706 -4.6232
    2MOL0     H  214   4.254   8.770   7.536 -3.8926  1.9652  0.3076
    2MOL0     H  215   4.128   8.966   7.434 -1.0073 -1.1122 -1.0715
    2MOL0     H  216   4.263   8.975   7.305 -0.0730 -2.0896 -2.3109
    2MOL0     H  217   4.070   8.858   7.219 -0.3980 -0.3439  0.8165
    2MOL0     H  218   4.089   8.756   7.370 -1.9046  3.6521  1.9260
    2MOL0     H  219   4.300   8.751   7.147  0.4234 -0.2403 -0.3286
    2MOL0     H  220   4.294   8.661   7.300  1.7536 -2.3435 -2.0385
    2MOL0     H  221   4.068   8.581   7.190  1.2576 -1.1749  0.9163
    2MOL0     H  222   4.224   8.523   7.132  1.7774  1.6545 -1.4961
    2MOL0     H  223   4.058   8.749   7.010  1.1081  0.6527 -1.3745
    2MOL0     H  224   4.217   8.703   6.955  0.4839  1.5239  1.8134
    2MOL0     H  225   3.849   8.609   6.931  1.0604  0.5080 -0.5466
    2MOL0     H  226   3.756   8.332   6.844  2.9696 -0.6533  0.4095
    2MOL0     H  227   3.825   8.313   6.682  1.7055  1.3078 -0.8067
    2MOL0     H  228   3.616   8.424   6.682 -1.0502  1.4901  0.6815
    2MOL0     H  229   3.673   8.540   6.809  0.2461  1.4529 -0.8777
    2MOL0     H  230   3.789   8.664   6.665 -0.9089 -2.5089  4.5023
    2MOL0     H  231   3.828   8.533   6.556 -1.0264  0.7359  0.5825
    2MOL0     H  232   3.568   8.666   6.584  1.8215  0.2696  0.7438
    2MOL0     H  233   3.673   8.685   6.432  1.2758  1.3849  0.9396
    2MOL0     H  234   3.386   8.660   6.448  1.5266  0.2889 -0.5125
    2MOL0     H  235   3.224   8.779   6.334  2.1221 -2.1881  0.3896
    2MOL0     H  236   3.075   8.699   6.292 -1.0458  1.0797 -0.1109
    2MOL0     H  237   3.184   8.756   6.160 -0.7880 -2.4920 -1.2174
    2MOL0     H  238   3.124   8.533   5.803  0.7647 -3.2875  0.7351
    2MOL0     H  239   2.962   8.544   5.611  0.0697 -0.9995 -0.1027
    2MOL0     H  240   2.612   8.565   5.461 -0.0723 -1.5695 -0.4869
    2MOL0     H  241   2.786   8.615   5.505  1.5357 -1.3756 -1.2133
    2MOL0     H  242   2.846   8.414   5.435  1.2459  0.4168  1.2552
    2MOL0     H  243   2.747   8.341   5.552  1.2323  0.8350  0.1380
    2MOL0     H  244   2.758   8.288   5.284  2.7077  1.9034 -0.8826
    2MOL0     H  245   2.687   8.441   5.261  1.8543  1.4494  1.6669
    2MOL0     H  246   2.469   8.379   5.307 -1.3236 -1.1958  3.3481
    2MOL0     H  247   2.532   8.251   5.425 -1.1240 -1.0559 -0.2819
    2MOL0     H  248   2.534   8.241   5.120 -2.2814  0.2636 -0.6147
    2MOL0     H  249   2.590   8.113   5.238 -0.7847 -0.3762  2.5569
    2MOL0     H  250   2.313   8.204   5.186  0.6689  0.2802 -1.1263
    2MOL0     H  251   2.345   8.108   5.327 -3.4606 -0.2483 -1.3211
    2MOL0     H  252   2.431   7.925   5.171 -1.3769  0.2955  1.6112
    2MOL0     H  253   2.365   8.032   5.045 -1.0612 -1.4484 -0.9636
    2MOL0     H  254   2.213   7.927   5.296 -3.8294  0.0989 -0.7147
    2MOL0     H  255   2.186   7.856   5.131  1.2786  1.4906 -4.9228
    2MOL0     H  256   2.640   8.548   5.882 -0.2514 -0.6765 -1.8305
    2MOL0     H  257   2.805   8.577   6.081  3.4080  0.4438  2.1166
    2MOL0     H  258   3.361   8.312   6.106 -0.2745  1.5325 -1.9594
    2MOL0     H  259   3.549   8.316   6.257 -1.0676 -0.4757 -0.0111
    2MOL0     H  260   4.791   8.875   7.739  0.6199  0.3986  1.0530
    2MOL0     H  261   5.005   8.981   7.762  1.6800 -0.9807 -1.7942
    2MOL0     H  262   5.300   9.196   7.688 -1.4098  1.4541 -1.4373
    2MOL0     H  263   5.529   9.235   7.694 -1.3112  0.1687 -1.6351
    2MOL0     H  264   5.628   9.601   7.815 -0.8407 -0.0561 -0.8433
    2MOL0     H  265   5.748   9.570   7.945  1.4074 -0.4435 -0.9305
    2MOL0     H  266   5.896   9.482   7.817  0.6561  3.5685  1.2597
    2MOL0     H  267   5.852   9.628   7.737 -0.6021  0.3649  0.0162
    2MOL0     H  268   5.895   9.421   7.588 -0.9407 -0.9482 -0.5492
    2MOL0     H  269   5.749   9.346   7.650  1.7935 -2.0808 -0.8946
    2MOL0     H  270   5.625   9.548   7.552  1.6677  2.2853 -1.9866
    2MOL0     H  271   5.687   9.432   7.432 -2.1255  1.4676 -1.0582
    2MOL0     H  272   5.929   9.768   7.359  1.9833  0.3861  2.6588
    2MOL0     H  273   5.464   9.534   7.996  2.3995 -0.4223 -0.4359
    2MOL0     H  274   5.104   9.549   7.951  1.3286 -1.5104 -2.5873
    2MOL0     H  275   5.196   9.510   8.100 -0.2388  5.1997  1.3356
    2MOL0     H  276   5.243   9.634   7.980 -0.3950 -0.8657 -2.0521
    3MOL0     O  277   0.240   1.472   3.936 -0.6022  0.2353 -0.3442
    3MOL0     C  278   0.251   1.557   3.844  0.2840  0.9544  0.3611
    3MOL0     O  279   0.345   1.657   3.839  0.7830  0.5877 -0.8547
    3MOL0     C  280   0.466   1.655   3.910  0.0396  0.5080 -0.3356
    3MOL0     C  281   0.530   1.774   3.925  0.8079  0.0623 -0.2435
    3MOL0     C  282   0.659   1.782   3.982 -0.5780 -0.1215  0.6783
    3MOL0     C  283   0.728   1.663   4.016 -0.5429  0.9561 -0.1675
    3MOL0     O  284   0.848   1.672   4.081 -0.0922 -0.2356  0.5136
    3MOL0     C  285   0.927   1.556   4.090 -0.7133  0.7110  0.9980
    3MOL0     C  286   1.070   1.599   4.097 -0.1011  0.6847 -0.9900
    3MOL0     C  287   1.169   1.477   4.089  1.0961 -0.7207  0.6412
    3MOL0     C  288   1.320   1.520   4.096  1.2482  0.7117  0.3773
    3MOL0     C  289   1.369   1.623   3.992 -0.6111 -0.0528  0.7894
    3MOL0     C  290   1.516   1.665   4.018  0.5792  0.0329 -0.8430
    3MOL0     C  291   1.530   1.733   4.163 -0.3910  0.1509  0.4317
    3MOL0     C  292   1.411   1.828   4.184  0.1741 -0.0045  0.0383
    3MOL0     N  293   1.451   1.911   4.293 -0.3800 -0.3695 -0.3475
    3MOL0     C  294   1.434   1.885   4.432  0.1879  0.0788  0.2553
    3MOL0     C  295   1.451   2.006   4.487 -0.2174 -0.0131 -1.2991
    3MOL0     C  296   1.475   2.039   4.634 -0.5399 -0.1467  0.4279
    3MOL0     C  297   1.589   1.965   4.720  0.2159  0.1371  1.1868
    3MOL0     C  298   1.726   2.025   4.690 -1.0754  0.1725  0.0377
    3MOL0     C  299   1.760   2.001   4.538 -0.5991 -0.0302 -0.4440
    3MOL0     O  300   1.883   2.049   4.483  0.3996  0.4029  0.1699
    3MOL0     C  301   1.998   1.979   4.490  0.3980  0.4567  0.5097
    3MOL0     C  302   2.109   2.024   4.562 -1.1781  0.6022 -0.2158
    3MOL0     C  303   2.228   1.956   4.575 -0.1778 -0.7421 -0.0283
    3MOL0     C  304   2.334   2.022   4.664  0.0498 -0.4975  1.1382
    3MOL0     C  305   2.250   1.838   4.503 -0.3042  0.0653  0.4839
    3MOL0     C  306   2.378   1.775   4.474 -0.3175 -0.1447  0.2149
    3MOL0     O  307   2.485   1.862   4.458 -0.0812 -0.0854 -0.1839
    3MOL0     C  308   2.611   1.826   4.447 -0.4861  1.2187 -0.6629
    3MOL0     C  309   2.694   1.894   4.357  0.0030 -0.9699 -0.5097
    3MOL0     C  310   2.837   1.870   4.352 -0.4265  0.1669  0.6662
    3MOL0     C  311   2.894   1.768   4.427 -0.3313 -0.3245  0.4085
    3MOL0     O  312   3.027   1.748   4.442  0.4384 -1.0318 -0.0281
    3MOL0     C  313   3.118   1.815   4.359 -0.0301 -1.3973  0.1322
    3MOL0     C  314   3.251   1.738   4.353  0.0056 -0.7480 -1.2977
    3MOL0     C  315   3.362   1.805   4.268 -0.8317  0.0592 -0.5432
    3MOL0     C  316   3.462   1.697   4.226  0.5116  0.2251  0.8895
    3MOL0     C  317   3.521   1.621   4.330 -0.4663 -0.8701 -0.2666
    3MOL0     C  318   3.618   1.703   4.416  0.2520 -0.3558  0.4639
    3MOL0     C  319   3.638   1.655   4.564 -0.0811 -0.5886 -0.4470
    3MOL0     C  320   3.712   1.758   4.641  0.4837 -0.4039  0.4135
    3MOL0    Cl  321   3.741   1.697   4.807 -0.0965  0.0459 -0.3570
    3MOL0     C  322   2.812   1.703   4.520  0.0168  0.4710  0.0859
    3MOL0     C  323   2.674   1.736   4.532 -0.0587  0.2289 -0.2732
    3MOL0     O  324   2.378   1.654   4.449  0.3781  0.0730  0.0942
    3MOL0     C  325   2.145   1.790   4.425  0.1030  0.7987  0.0760
    3MOL0     C  326   2.014   1.854   4.422  0.3349 -0.2310 -0.2190
    3MOL0     N  327   1.455   2.104   4.391 -0.3641  0.4213 -0.8972
    3MOL0     N  328   1.460   2.049   4.282  0.6331  0.5164 -0.2838
    3MOL0     C  329   0.654   1.546   4.007 -0.7082  0.1009 -0.2800
    3MOL0     C  330   0.530   1.535   3.951  0.3428 -1.0599 -0.6198
    3MOL0     C  331   0.152   1.560   3.727  0.2827 -0.2403  0.0568
    3MOL0     C  332   0.145   1.676   3.648 -0.8310  0.6624  0.2322
    3MOL0     C  333   0.046   1.699   3.558  0.2109 -0.0599 -0.2794
    3MOL0     C  334  -0.066   1.612   3.554  0.4110 -0.0831 -0.4766
    3MOL0     O  335  -0.165   1.628   3.454 -0.2242 -0.5421  0.1461
    3MOL0     C  336  -0.293   1.693   3.503 -0.0845  0.1192  0.7508
    3MOL0     C  337  -0.273   1.841   3.544 -0.6790 -0.4681  0.0539
    3MOL0     C  338  -0.219   1.913   3.414  0.2375  0.2494  0.5682
    3MOL0     C  339  -0.190   2.062   3.441 -0.1200 -0.0760  0.4593
    3MOL0     C  340  -0.312   2.131   3.467  0.1389  0.1828  0.1084
    3MOL0     C  341  -0.422   2.174   3.488  0.0616 -0.3519 -0.8142
    3MOL0     C  342  -0.060   1.491   3.626 -0.6000 -0.3013 -0.5053
    3MOL0     C  343   0.035   1.469   3.724  0.0076  0.4603 -0.0586
    3MOL0     C  344   0.025   1.357   3.811 -0.1581 -0.2259 -0.0720
    3MOL0     H  345   0.464   1.854   3.891 -1.4152 -2.1755 -1.5091
    3MOL0     H  346   0.708   1.879   3.989  0.9041 -0.5688 -2.1343
    3MOL0     H  347   0.908   1.499   3.998  1.6570 -0.1272  0.9558
    3MOL0     H  348   0.910   1.482   4.169  1.4075 -1.7673 -0.6701
    3MOL0     H  349   1.088   1.661   4.008 -2.6944 -1.9135 -3.5226
    3MOL0     H  350   1.087   1.653   4.191 -0.4938  0.0801 -0.5661
    3MOL0     H  351   1.154   1.411   4.174 -2.0606  0.2494  0.9693
    3MOL0     H  352   1.161   1.421   3.995  1.0329  1.1884 -0.5511
    3MOL0     H  353   1.326   1.551   4.201 -0.4651 -0.7005  0.9333
    3MOL0     H  354   1.384   1.433   4.081  1.2826  0.7432  0.3410
    3MOL0     H  355   1.305   1.708   3.968  2.6846  1.7821 -2.4600
    3MOL0     H  356   1.366   1.568   3.898  1.0377 -0.3611  0.8820
    3MOL0     H  357   1.580   1.576   4.019  0.0185 -0.5498  3.5077
    3MOL0     H  358   1.557   1.728   3.939  0.1883  0.3854 -0.7665
    3MOL0     H  359   1.623   1.791   4.164 -1.1353  1.3751  0.7895
    3MOL0     H  360   1.517   1.666   4.249 -0.9839 -1.9658 -1.1972
    3MOL0     H  361   1.392   1.886   4.093  1.3654  1.3781  0.6336
    3MOL0     H  362   1.326   1.768   4.217 -0.4127  1.2848  0.9759
    3MOL0     H  363   1.417   1.785   4.472 -0.7526  0.0919 -0.0926
    3MOL0     H  364   1.380   2.019   4.684 -1.6724  3.9135  0.2128
    3MOL0     H  365   1.500   2.145   4.643  0.8574  0.0841 -3.9174
    3MOL0     H  366   1.564   1.973   4.827 -0.7872 -0.5523  1.0180
    3MOL0     H  367   1.600   1.859   4.696  3.3404  1.1764 -3.1304
    3MOL0     H  368   1.739   2.133   4.702  0.4848  0.0503 -0.2548
    3MOL0     H  369   1.793   1.964   4.751 -2.7107  0.5717  2.3734
    3MOL0     H  370   1.746   1.894   4.519 -1.2336  0.3534 -2.3171
    3MOL0     H  371   1.684   2.062   4.488  1.2007  2.7277 -0.0740
    3MOL0     H  372   2.085   2.120   4.607 -0.9671 -0.3460  2.0097
    3MOL0     H  373   2.288   2.087   4.739  1.5005  1.4610  0.4157
    3MOL0     H  374   2.404   2.089   4.613 -3.5527  3.4181  0.7777
    3MOL0     H  375   2.385   1.939   4.716  0.8634 -2.4477 -2.4242
    3MOL0     H  376   2.646   1.978   4.308  1.6053 -0.0199 -0.5299
    3MOL0     H  377   2.903   1.936   4.296 -0.0797 -0.2665  0.5568
    3MOL0     H  378   3.094   1.811   4.252  0.5797 -1.9609  0.0136
    3MOL0     H  379   3.131   1.919   4.391  1.0084 -2.6950  4.6284
    3MOL0     H  380   3.294   1.718   4.452  2.4266  2.4056 -1.5647
    3MOL0     H  381   3.225   1.639   4.314 -1.1842 -0.7318 -0.5817
    3MOL0     H  382   3.400   1.888   4.329 -1.8467  3.6328 -4.3476
    3MOL0     H  383   3.315   1.842   4.177 -1.0716  0.0526 -0.4248
    3MOL0     H  384   3.541   1.741   4.164 -0.1639 -0.1010 -0.2192
    3MOL0     H  385   3.407   1.627   4.163 -0.1957  1.0472  0.5813
    3MOL0     H  386   3.446   1.567   4.389 -1.2814  1.5650  1.0732
    3MOL0     H  387   3.579   1.543   4.280 -0.3991 -0.1239 -1.3979
    3MOL0     H  388   3.586   1.806   4.434 -2.1254 -1.1043  0.8638
    3MOL0     H  389   3.706   1.708   4.351 -1.0003 -2.7617 -1.5951
    3MOL0     H  390   3.714   1.578   4.551  0.5442 -0.0466 -0.0991
    3MOL0     H  391   3.552   1.611   4.615 -1.2025 -1.3196 -2.8378
    3MOL0     H  392   3.653   1.850   4.642  0.2782 -0.5347  0.3164
    3MOL0     H  393   3.813   1.773   4.601  0.1858 -0.2781 -0.2935
    3MOL0     H  394   2.849   1.629   4.591 -4.5860 -0.9834  1.3371
    3MOL0     H  395   2.612   1.694   4.611 -0.9084  0.0759 -1.0078
    3MOL0     H  396   2.153   1.703   4.361 -1.3155  1.3985 -0.9762
    3MOL0     H  397   1.935   1.811   4.362  0.7889 -1.9799  0.3544
    3MOL0     H  398   0.698   1.449   4.026  1.5324  0.2608 -3.6086
    3MOL0     H  399   0.483   1.438   3.938 -1.9801 -0.3630  1.8377
    3MOL0     H  400   0.217   1.757   3.652 -1.2878  1.4481 -3.5725
    3MOL0     H  401   0.047   1.791   3.499 -4.3753 -0.4979 -1.4535
    3MOL0     H  402  -0.364   1.685   3.421  0.8842 -2.3525  0.0529
    3MOL0     H  403  -0.343   1.634   3.580  2.2099 -1.4753  1.1133
    3MOL0     H  404  -0.203   1.854   3.627  0.4525  0.8060 -1.0456
    3MOL0     H  405  -0.364   1.887   3.582  0.5628  2.8556 -0.6734
    3MOL0     H  406  -0.121   1.874   3.386 -0.2284 -0.8549  0.4493
    3MOL0     H  407  -0.295   1.894   3.338  0.7658 -0.3047  0.1654
    3MOL0     H  408  -0.149   2.111   3.352 -1.0363  1.2669  0.7323
    3MOL0     H  409  -0.123   2.088   3.524  1.6951 -1.0665 -0.6297
    3MOL0     H  410  -0.522   2.210   3.503 -0.1258 -1.1552 -0.0986
    3MOL0     H  411  -0.145   1.428   3.603  0.2972 -0.8986 -2.3634
    3MOL0     H  412  -0.069   1.304   3.794 -1.3470  1.6415  0.3649
    3MOL0     H  413   0.112   1.291   3.807 -1.5212 -2.0653 -0.2965
    3MOL0     H  414   0.020   1.397   3.913  3.0620 -1.7060  0.8237
    4MOL0     O  415   7.707   4.461   5.680  0.2345 -0.5854 -0.0930
    4MOL0     C  416   7.794   4.385   5.703 -0.1809 -0.4239  0.9617
    4MOL0     O  417   7.826   4.272   5.629 -0.2834 -0.2395 -1.2996
    4MOL0     C  418   7.741   4.223   5.532 -0.1993 -0.3566 -0.4705
    4MOL0     C  419   7.769   4.090   5.511  0.2106  0.0093  0.8812
    4MOL0     C  420   7.705   4.012   5.405 -0.3011 -0.0443 -0.3830
    4MOL0     C  421   7.612   4.085   5.324  1.3893 -0.4601 -0.0647
    4MOL0     O  422   7.557   4.008   5.225  0.7985  0.0476  0.1442
    4MOL0     C  423   7.484   4.075   5.126 -0.4033 -0.1708  0.3476
    4MOL0     C  424   7.559   4.168   5.027  1.1639 -0.0782  0.1852
    4MOL0     C  425   7.654   4.095   4.935  0.5030  0.0438 -0.0091
    4MOL0     C  426   7.705   4.184   4.813  0.4504  0.4009 -0.2531
    4MOL0     C  427   7.840   4.143   4.755 -0.8248 -0.7325  0.0900
    4MOL0     C  428   7.860   4.207   4.619 -0.4687  0.0205  0.5461
    4MOL0     C  429   7.797   4.342   4.592  0.2971  1.0668 -0.3134
    4MOL0     C  430   7.846   4.429   4.474  0.3075 -0.6550 -0.3059
    4MOL0     N  431   7.980   4.488   4.480  0.3672  0.2585 -0.2362
    4MOL0     C  432   8.102   4.429   4.455 -0.0370  0.1289  0.5678
    4MOL0     C  433   8.183   4.532   4.478 -0.0107 -0.2943 -1.2287
    4MOL0     C  434   8.328   4.518   4.475 -0.4404  1.0803  0.2329
    4MOL0     C  435   8.403   4.439   4.586 -0.3150 -0.6210  0.5495
    4MOL0     C  436   8.395   4.486   4.730 -0.1810  1.2897  0.2088
    4MOL0     C  437   8.277   4.424   4.817  0.0509 -0.6089 -0.3698
    4MOL0     O  438   8.309   4.289   4.848 -0.6626  0.0975 -0.7985
    4MOL0     C  439   8.240   4.214   4.938  0.0075 -1.1882 -0.2911
    4MOL0     C  440   8.127   4.257   5.003 -0.1495  0.2609  0.1242
    4MOL0     C  441   8.056   4.168   5.091 -0.7738 -0.5976 -0.0356
    4MOL0     C  442   7.926   4.218   5.149 -0.2453 -0.3886  0.2102
    4MOL0     C  443   8.094   4.027   5.104  0.7729  0.7008 -0.8009
    4MOL0     C  444   8.029   3.923   5.196  0.5732 -0.2710 -0.0632
    4MOL0     O  445   8.008   3.798   5.149  0.5391 -0.1147  0.2858
    4MOL0     C  446   7.946   3.704   5.229  0.8790  0.0215 -0.0042
    4MOL0     C  447   8.013   3.605   5.308 -0.0637 -0.1345 -0.0927
    4MOL0     C  448   7.933   3.525   5.387  1.6047  0.3267  0.6892
    4MOL0     C  449   7.787   3.532   5.380 -0.0300  0.9598 -1.0951
    4MOL0     O  450   7.718   3.432   5.452 -0.1254  0.1461 -0.1772
    4MOL0     C  451   7.564   3.438   5.466 -0.1606  0.5006  0.7556
    4MOL0     C  452   7.507   3.351   5.576  0.3303 -0.0042 -0.7663
    4MOL0     C  453   7.555   3.386   5.717 -0.2058  0.4314 -0.2296
    4MOL0     C  454   7.435   3.371   5.816 -0.0088 -0.2718 -0.3658
    4MOL0     C  455   7.475   3.370   5.961 -0.3366 -0.1461  0.5449
    4MOL0     C  456   7.552   3.495   6.004 -0.4253 -0.8375  0.2774
    4MOL0     C  457   7.565   3.497   6.168 -0.2565 -0.2280 -0.0036
    4MOL0     C  458   7.666   3.391   6.221 -0.6511  0.6313 -0.3715
    4MOL0    Cl  459   7.833   3.417   6.152  0.0527  0.1048 -0.0340
    4MOL0     C  460   7.727   3.623   5.302  0.6069 -0.0976 -0.2250
    4MOL0     C  461   7.810   3.717   5.235 -0.4127  0.1461 -0.4695
    4MOL0     O  462   7.991   3.960   5.311 -0.3655  0.3317  0.1146
    4MOL0     C  463   8.199   3.985   5.013  1.0111  0.7287 -0.8061
    4MOL0     C  464   8.273   4.080   4.946 -0.8202 -0.1424  1.1032
    4MOL0     N  465   8.122   4.643   4.528  0.2653 -0.1426  0.9826
    4MOL0     N  466   7.995   4.618   4.524 -0.7169 -0.0071 -0.5563
    4MOL0     C  467   7.583   4.224   5.354  0.6609 -0.7755  0.2926
    4MOL0     C  468   7.650   4.292   5.453 -0.1184  0.1717 -0.7529
    4MOL0     C  469   7.882   4.428   5.807  1.3487  0.0477 -0.6997
    4MOL0     C  470   7.895   4.333   5.912 -0.5464 -1.4448 -0.7067
    4MOL0     C  471   7.978   4.361   6.025  0.7675 -0.0144  0.5663
    4MOL0     C  472   8.040   4.482   6.030  0.0075  0.1430 -0.6161
    4MOL0     O  473   8.114   4.494   6.143  0.3965  0.4185  0.7124
    4MOL0     C  474   8.053   4.589   6.237  0.2047 -0.2110 -0.1270
    4MOL0     C  475   7.959   4.508   6.322 -0.2345 -0.6947 -0.4043
    4MOL0     C  476   7.923   4.575   6.445  0.3509 -0.1031 -0.3893
    4MOL0     C  477   7.841   4.486   6.542 -1.0302 -0.2068  0.4913
    4MOL0     C  478   7.760   4.556   6.638  0.1142  0.0737 -0.3902
    4MOL0     C  479   7.709   4.626   6.722  0.7376  0.4563 -0.1269
    4MOL0     C  480   8.033   4.577   5.925  0.2276  0.6053  0.4208
    4MOL0     C  481   7.946   4.557   5.822  0.4156  0.2411 -0.1970
    4MOL0     C  482   7.921   4.666   5.720  0.1583  1.2988  0.3631
    4MOL0     H  483   7.841   4.038   5.574 -1.6273 -0.7289  2.4811
    4MOL0     H  484   7.738   3.909   5.396  2.8519  0.6259  1.8895
    4MOL0     H  485   7.411   4.135   5.181  0.2113 -0.3105  1.3477
    4MOL0     H  486   7.426   4.003   5.068 -0.5805  0.4242 -0.2317
    4MOL0     H  487   7.483   4.221   4.970 -0.5666  0.3759  2.7209
    4MOL0     H  488   7.608   4.248   5.083 -2.0236  0.1676  2.9190
    4MOL0     H  489   7.735   4.051   4.995  0.2908 -1.5762 -0.8514
    4MOL0     H  490   7.611   4.007   4.886  0.7820  0.5982 -1.2853
    4MOL0     H  491   7.625   4.198   4.739 -0.5346 -4.1902 -0.3618
    4MOL0     H  492   7.729   4.276   4.867  2.0633 -0.0598 -0.1150
    4MOL0     H  493   7.851   4.035   4.746  1.7591 -0.3967 -2.0964
    4MOL0     H  494   7.909   4.181   4.831 -3.9379  1.0261  2.3066
    4MOL0     H  495   7.969   4.204   4.616 -0.4748 -2.2915 -2.4873
    4MOL0     H  496   7.828   4.136   4.542 -0.8567 -0.5136  1.1739
    4MOL0     H  497   7.804   4.402   4.683  2.4658  0.1186  0.1984
    4MOL0     H  498   7.689   4.328   4.581  0.5424  0.0229 -1.8062
    4MOL0     H  499   7.828   4.376   4.380 -1.3073  0.8398 -0.8967
    4MOL0     H  500   7.782   4.518   4.474  1.4601  0.1877 -0.4289
    4MOL0     H  501   8.110   4.327   4.420 -1.4311 -0.6814  2.3922
    4MOL0     H  502   8.375   4.617   4.476 -1.1895  1.5820 -2.6682
    4MOL0     H  503   8.351   4.471   4.379  1.6695 -2.3645  2.2471
    4MOL0     H  504   8.360   4.339   4.586 -1.5571 -0.1313  1.8691
    4MOL0     H  505   8.504   4.440   4.544 -0.1541  0.3591  0.9196
    4MOL0     H  506   8.488   4.454   4.779  0.3950  1.9667 -0.4030
    4MOL0     H  507   8.395   4.595   4.740  1.6353  1.3255  0.1986
    4MOL0     H  508   8.265   4.483   4.909  0.8256  1.3662 -1.4836
    4MOL0     H  509   8.179   4.433   4.770 -1.6328  1.0392  3.0457
    4MOL0     H  510   8.085   4.357   4.994 -4.4154 -1.2686  0.7509
    4MOL0     H  511   7.845   4.146   5.164  0.0491 -0.8624 -0.4400
    4MOL0     H  512   7.869   4.286   5.085 -1.2904  0.1740  1.6895
    4MOL0     H  513   7.931   4.279   5.240 -3.9763  0.3683  0.0573
    4MOL0     H  514   8.121   3.603   5.318  0.4362  3.1536 -3.0114
    4MOL0     H  515   7.967   3.452   5.460 -2.0079 -1.0621  1.2050
    4MOL0     H  516   7.540   3.544   5.476 -0.4945  0.4535  0.4811
    4MOL0     H  517   7.522   3.409   5.369  0.4002  1.0225  0.3510
    4MOL0     H  518   7.399   3.341   5.571  0.0631  2.0965 -0.3330
    4MOL0     H  519   7.548   3.252   5.555  2.3120  0.6671 -0.3244
    4MOL0     H  520   7.591   3.489   5.715 -1.3452  0.8416 -0.2542
    4MOL0     H  521   7.643   3.328   5.747 -1.7862 -1.8645  0.2906
    4MOL0     H  522   7.386   3.273   5.805 -1.5447  0.2652  1.3271
    4MOL0     H  523   7.370   3.455   5.794 -0.0319  0.1363  1.1645
    4MOL0     H  524   7.391   3.354   6.029  0.5022 -0.5446  1.5245
    4MOL0     H  525   7.539   3.283   5.980 -1.5406 -0.7549  2.0521
    4MOL0     H  526   7.510   3.592   5.975  2.3192  0.1084 -0.8517
    4MOL0     H  527   7.645   3.478   5.949 -0.7077 -1.3998 -0.0390
    4MOL0     H  528   7.473   3.473   6.223  0.3550  1.3773  1.8618
    4MOL0     H  529   7.588   3.600   6.198 -0.6536  0.2203 -1.1791
    4MOL0     H  530   7.637   3.286   6.209  0.5760 -0.0429  1.9452
    4MOL0     H  531   7.677   3.387   6.329 -1.4618 -5.1995 -0.1809
    4MOL0     H  532   7.621   3.631   5.283  0.5784  0.3557  0.1165
    4MOL0     H  533   7.763   3.792   5.173  2.4003  0.4334 -2.4555
    4MOL0     H  534   8.229   3.881   5.013 -0.8555  0.0423  2.2854
    4MOL0     H  535   8.357   4.045   4.887 -0.6981 -0.3975  1.4251
    4MOL0     H  536   7.523   4.284   5.286  0.2444 -1.7853 -0.2557
    4MOL0     H  537   7.635   4.397   5.476  1.3339  0.0267  1.0694
    4MOL0     H  538   7.859   4.232   5.894  3.4764 -3.1597 -0.0675
    4MOL0     H  539   8.003   4.281   6.094 -0.1209 -1.5143 -0.7788
    4MOL0     H  540   8.132   4.623   6.305  2.1219 -3.6711 -0.3394
    4MOL0     H  541   8.017   4.678   6.185  2.1777 -1.1236 -3.3429
    4MOL0     H  542   8.002   4.412   6.354 -2.5001 -0.7800  2.8330
    4MOL0     H  543   7.868   4.479   6.269 -0.7378 -1.4457  0.8233
    4MOL0     H  544   8.009   4.616   6.499 -1.7765  4.0108  0.3785
    4MOL0     H  545   7.853   4.654   6.415 -0.9265 -1.2188 -0.4301
    4MOL0     H  546   7.905   4.418   6.600 -1.4826 -0.7049  0.4211
    4MOL0     H  547   7.773   4.427   6.480 -2.1705  3.3689 -1.9116
    4MOL0     H  548   7.648   4.675   6.794  0.3658  1.4439 -1.0943
    4MOL0     H  549   8.097   4.664   5.921  0.0386  0.7139 -2.1686
    4MOL0     H  550   7.986   4.751   5.745  0.4767  1.3546 -0.6011
    4MOL0     H  551   7.936   4.630   5.618  0.1937  0.4624  0.6611
    4MOL0     H  552   7.817   4.696   5.734  0.4145  2.7242 -0.5373
    5MOL0     O  553   8.058   4.322  10.361 -0.1746 -0.7553  0.0053
    5MOL0     C  554   8.159   4.398  10.361  0.5118 -0.1476  0.6650
    5MOL0     O  555   8.217   4.444  10.248  0.0475  0.4975 -0.0227
    5MOL0     C  556   8.168   4.421  10.123  0.0167 -0.3705  0.2402
    5MOL0     C  557   8.130   4.521  10.033  1.1564 -0.8962 -0.5530
    5MOL0     C  558   8.100   4.501   9.904  0.2350 -0.8045 -1.1297
    5MOL0     C  559   8.074   4.369   9.862  0.4796 -0.0364  0.6802
    5MOL0     O  560   8.024   4.328   9.740  0.1561 -0.2267 -0.2740
    5MOL0     C  561   8.080   4.404   9.629  0.9553  0.2704  0.9792
    5MOL0     C  562   8.050   4.334   9.497  0.1804  0.4237 -0.5102
    5MOL0     C  563   7.905   4.280   9.501  0.6267 -0.1396  0.0968
    5MOL0     C  564   7.869   4.199   9.366  0.1962 -0.4014  0.3424
    5MOL0     C  565   7.831   4.055   9.386 -0.2471 -0.6625 -0.6119
    5MOL0     C  566   7.699   4.017   9.453 -0.3423 -0.9083 -0.7150
    5MOL0     C  567   7.582   4.063   9.365 -0.0125 -0.1502  0.1586
    5MOL0     C  568   7.449   4.057   9.433  0.1285 -0.0387  0.4361
    5MOL0     N  569   7.338   4.111   9.345 -0.3108 -0.4144 -0.4365
    5MOL0     C  570   7.245   4.214   9.369  0.0239 -0.4157  0.3019
    5MOL0     C  571   7.145   4.186   9.281  0.8289  0.4066  0.6745
    5MOL0     C  572   7.011   4.259   9.268 -0.3192  0.4894  0.7017
    5MOL0     C  573   6.913   4.240   9.387 -0.8468  0.0803 -0.2473
    5MOL0     C  574   6.882   4.094   9.411 -0.0824  0.3870  0.1292
    5MOL0     C  575   6.788   4.076   9.537 -0.4183  0.0360  0.2753
    5MOL0     O  576   6.667   4.145   9.520  0.1145  0.0139 -0.2703
    5MOL0     C  577   6.569   4.082   9.449  0.0740  0.2177  0.3700
    5MOL0     C  578   6.461   4.162   9.401  0.2378  0.0780 -0.6971
    5MOL0     C  579   6.348   4.114   9.329  0.5788 -0.4667  0.2900
    5MOL0     C  580   6.243   4.217   9.284 -0.3235  0.9923 -0.2978
    5MOL0     C  581   6.338   3.976   9.307 -0.1734  0.1611  0.3330
    5MOL0     C  582   6.218   3.904   9.250  0.0261  0.2126  0.7562
    5MOL0     O  583   6.237   3.778   9.214  0.9441  0.5021  0.3772
    5MOL0     C  584   6.130   3.702   9.164  1.0359  0.4417 -0.1939
    5MOL0     C  585   6.159   3.612   9.070 -0.9618 -0.0808 -0.4621
    5MOL0     C  586   6.075   3.516   9.016  0.1995  0.4618 -0.2635
    5MOL0     C  587   5.940   3.508   9.064 -0.4529 -0.0980  0.0656
    5MOL0     O  588   5.859   3.411   9.010  0.6390 -0.4326 -0.1605
    5MOL0     C  589   5.789   3.316   9.098  0.2534  0.2342 -0.0277
    5MOL0     C  590   5.635   3.328   9.122  0.6813  0.1023 -0.7477
    5MOL0     C  591   5.588   3.184   9.160 -0.1648 -0.6344  0.3900
    5MOL0     C  592   5.438   3.165   9.179  0.5393 -1.3285 -0.0287
    5MOL0     C  593   5.395   3.043   9.262  0.1127 -1.1023  0.8364
    5MOL0     C  594   5.238   3.060   9.267  0.3596 -0.1511  0.4344
    5MOL0     C  595   5.162   2.928   9.312 -0.1645 -0.6098  0.4952
    5MOL0     C  596   5.090   2.862   9.194  0.3174 -0.7724  0.0222
    5MOL0    Cl  597   5.204   2.844   9.058 -0.1386  0.2322 -0.3742
    5MOL0     C  598   5.908   3.601   9.167 -0.1538 -0.0932 -0.0363
    5MOL0     C  599   5.998   3.682   9.230 -1.0275  0.3948  0.4273
    5MOL0     O  600   6.104   3.951   9.250  0.2748  0.0599  0.0438
    5MOL0     C  601   6.440   3.895   9.352  0.0251 -0.3874 -0.9815
    5MOL0     C  602   6.557   3.941   9.419  0.2484  0.2953 -0.5161
    5MOL0     N  603   7.173   4.071   9.204 -0.7392 -0.2602 -0.4535
    5MOL0     N  604   7.291   4.030   9.243  0.4372 -0.9521 -0.2633
    5MOL0     C  605   8.082   4.272   9.954  0.6098 -0.3034 -0.3531
    5MOL0     C  606   8.134   4.297  10.080 -0.5577 -0.0782 -0.5223
    5MOL0     C  607   8.219   4.429  10.493 -0.1436 -0.8893  0.0165
    5MOL0     C  608   8.300   4.550  10.499 -0.1310  0.0728  0.5927
    5MOL0     C  609   8.330   4.601  10.628 -0.5402  0.0781  0.8674
    5MOL0     C  610   8.298   4.549  10.744 -0.0918  0.3032  0.1792
    5MOL0     O  611   8.336   4.602  10.866 -0.1886  0.1451 -0.1262
    5MOL0     C  612   8.392   4.729  10.883 -0.1038 -0.3154 -0.5771
    5MOL0     C  613   8.446   4.733  11.033  0.6236  0.4183 -0.1892
    5MOL0     C  614   8.579   4.658  11.061 -0.3419 -0.0421  0.2750
    5MOL0     C  615   8.644   4.706  11.196  0.5391 -0.9066  0.9047
    5MOL0     C  616   8.593   4.639  11.315  0.4200  0.4520  0.4358
    5MOL0     C  617   8.573   4.585  11.424 -0.0951  0.3076  0.6528
    5MOL0     C  618   8.245   4.419  10.732  0.8643  0.4738 -0.5707
    5MOL0     C  619   8.198   4.362  10.611  0.6395  0.2012 -0.7610
    5MOL0     C  620   8.133   4.226  10.614 -0.0879 -0.1928 -0.2266
    5MOL0     H  621   8.150   4.618  10.078  1.7181 -1.1466 -0.2485
    5MOL0     H  622   8.094   4.579   9.829  1.1409 -0.3103 -0.6993
    5MOL0     H  623   8.186   4.408   9.656  0.4743 -0.1284  3.1671
    5MOL0     H  624   8.034   4.504   9.632  1.7465  0.6885 -0.2096
    5MOL0     H  625   8.055   4.409   9.418 -1.1276 -1.5484 -2.5677
    5MOL0     H  626   8.118   4.249   9.498  1.5840  1.5004 -1.2311
    5MOL0     H  627   7.894   4.214   9.587 -0.2657 -1.1938 -0.8007
    5MOL0     H  628   7.836   4.365   9.510  0.7431 -0.1224  0.9363
    5MOL0     H  629   7.793   4.264   9.322  0.4146  0.7242  1.5766
    5MOL0     H  630   7.957   4.200   9.301  0.3171  2.5468  0.4115
    5MOL0     H  631   7.913   4.005   9.438 -1.2343 -3.4833 -1.5657
    5MOL0     H  632   7.828   4.006   9.288 -3.8624  1.5253 -1.8173
    5MOL0     H  633   7.704   3.909   9.471  3.3694 -0.5333  1.2225
    5MOL0     H  634   7.693   4.065   9.551  2.9526 -3.2316  0.7938
    5MOL0     H  635   7.574   3.988   9.286 -3.2753  0.8406 -0.6199
    5MOL0     H  636   7.605   4.156   9.313 -0.3643 -0.2506 -0.1789
    5MOL0     H  637   7.425   3.958   9.472 -0.8487  0.4914  1.2548
    5MOL0     H  638   7.449   4.129   9.516  0.5190  1.8351 -1.1158
    5MOL0     H  639   7.239   4.306   9.426 -0.0062  0.5686 -1.2307
    5MOL0     H  640   6.966   4.207   9.183 -2.0959  0.5578  1.5446
    5MOL0     H  641   7.013   4.367   9.253 -1.7584  0.1313 -3.2665
    5MOL0     H  642   6.952   4.269   9.485 -0.8877 -0.9844  0.0985
    5MOL0     H  643   6.818   4.295   9.379  0.7107  3.0114 -0.1368
    5MOL0     H  644   6.827   4.053   9.326 -2.4801  0.9571  1.3250
    5MOL0     H  645   6.967   4.029   9.433  0.1463  1.5516  3.1030
    5MOL0     H  646   6.777   3.968   9.551  4.3423 -0.8298 -0.7505
    5MOL0     H  647   6.832   4.114   9.630  2.1062  0.5982 -1.0396
    5MOL0     H  648   6.481   4.267   9.422  1.2767 -0.7300  3.3175
    5MOL0     H  649   6.276   4.310   9.330  3.6198  0.0286 -0.7802
    5MOL0     H  650   6.146   4.196   9.329  1.2159  0.8546  3.3003
    5MOL0     H  651   6.237   4.224   9.175  0.9995 -0.6627 -0.5303
    5MOL0     H  652   6.264   3.611   9.042  0.1959 -0.3967  3.2765
    5MOL0     H  653   6.100   3.450   8.934  2.2145 -0.1785  0.7949
    5MOL0     H  654   5.807   3.220   9.051 -1.1662  0.3561 -0.8753
    5MOL0     H  655   5.832   3.338   9.197  0.4995  1.3409 -0.3623
    5MOL0     H  656   5.614   3.391   9.209  1.1501  0.3437 -0.8088
    5MOL0     H  657   5.578   3.370   9.038  0.1158 -0.4615 -0.6535
    5MOL0     H  658   5.639   3.162   9.254  1.1763  1.4125  0.2196
    5MOL0     H  659   5.615   3.107   9.087  0.3267 -1.3295  1.2967
    5MOL0     H  660   5.383   3.155   9.085  2.0360 -2.2880 -0.8410
    5MOL0     H  661   5.403   3.258   9.226 -0.4506 -0.9103 -1.5008
    5MOL0     H  662   5.427   2.948   9.218 -1.0425  0.5118 -4.1217
    5MOL0     H  663   5.441   3.046   9.361 -1.0209 -1.7328  1.4061
    5MOL0     H  664   5.201   3.102   9.173  2.2330  2.4115  0.7450
    5MOL0     H  665   5.239   3.132   9.349  2.7342  1.8476 -1.2271
    5MOL0     H  666   5.073   2.945   9.373 -1.0799 -3.3331  0.0840
    5MOL0     H  667   5.222   2.865   9.379 -1.1050 -1.5600  0.4555
    5MOL0     H  668   5.012   2.932   9.163  2.2328  1.3451 -0.3186
    5MOL0     H  669   5.050   2.765   9.222 -0.5778 -0.6234 -0.6937
    5MOL0     H  670   5.804   3.602   9.197 -1.0007  2.1020 -2.6520
    5MOL0     H  671   5.963   3.754   9.303 -1.8280 -0.4184  0.8733
    5MOL0     H  672   6.436   3.788   9.335 -0.6523 -0.3206 -1.3156
    5MOL0     H  673   6.633   3.870   9.451  1.2084 -0.2084 -3.6062
    5MOL0     H  674   8.052   4.169   9.935 -0.6017 -0.1306  0.5011
    5MOL0     H  675   8.154   4.220  10.154 -0.7037 -1.0785 -1.4911
    5MOL0     H  676   8.326   4.595  10.404 -0.2890 -2.3212 -0.6623
    5MOL0     H  677   8.388   4.692  10.619  0.0444 -0.4743 -1.8847
    5MOL0     H  678   8.470   4.763  10.814  1.9651  2.3274  2.7707
    5MOL0     H  679   8.309   4.800  10.875  0.6058  1.3934  4.1968
    5MOL0     H  680   8.370   4.694  11.102 -1.7636  5.2736  0.3204
    5MOL0     H  681   8.446   4.837  11.066 -0.6297  0.7793 -1.2158
    5MOL0     H  682   8.570   4.549  11.057  3.2947 -0.4265 -1.6225
    5MOL0     H  683   8.660   4.674  10.989 -1.2290  1.0821 -0.5137
    5MOL0     H  684   8.625   4.813  11.203 -0.4625 -1.0884  1.1162
    5MOL0     H  685   8.751   4.689  11.183  0.2639 -2.0443 -0.1368
    5MOL0     H  686   8.566   4.538  11.520  0.6311  1.8280  1.4933
    5MOL0     H  687   8.228   4.363  10.823 -0.4886 -0.3922 -1.3072
    5MOL0     H  688   8.118   4.200  10.719  1.6127  3.3205  1.0666
    5MOL0     H  689   8.036   4.213  10.565 -0.1779 -2.0838  0.3984
    5MOL0     H  690   8.215   4.171  10.568  1.4615  0.9176  1.0743
    6MOL0     O  691  11.028   3.220   3.743 -0.1342 -1.3578 -0.3309
    6MOL0     C  692  10.933   3.179   3.676 -0.1065  0.3325 -0.0552
    6MOL0     O  693  10.866   3.061   3.702  0.3186  0.1258 -1.2672
    6MOL0     C  694  10.915   2.978   3.802  0.8256 -0.2045  0.0052
    6MOL0     C  695  11.033   2.903   3.795  0.3174 -0.0050  0.1391
    6MOL0     C  696  11.054   2.806   3.893 -0.0526  0.0386  0.4587
    6MOL0     C  697  10.955   2.771   3.983  0.3371  0.2603  0.3261
    6MOL0     O  698  10.942   2.667   4.064 -0.3598  0.9035  0.1913
    6MOL0     C  699  11.053   2.621   4.130  0.1239  1.1087  0.2779
    6MOL0     C  700  11.038   2.483   4.191  0.2830 -0.1704  0.6827
    6MOL0     C  701  10.924   2.475   4.304  0.5318 -1.0489  1.2624
    6MOL0     C  702  10.907   2.335   4.353 -0.4150  0.0295  0.2794
    6MOL0     C  703  10.794   2.278   4.262 -0.1493  0.1991 -0.2978
    6MOL0     C  704  10.765   2.120   4.268 -0.2496  0.3224 -0.1123
    6MOL0     C  705  10.666   2.063   4.162 -0.6881 -0.4214  0.3531
    6MOL0     C  706  10.525   2.124   4.181 -0.7246 -0.8735 -0.8335
    6MOL0     N  707  10.427   2.064   4.093  0.4137 -0.0153 -0.4068
    6MOL0     C  708  10.375   2.134   3.988 -0.7143 -0.5712 -0.2221
    6MOL0     C  709  10.280   2.057   3.928  0.2152 -0.0915 -0.1799
    6MOL0     C  710  10.193   2.099   3.819  0.6507 -0.4744 -0.9888
    6MOL0     C  711  10.191   2.005   3.691 -0.4688  0.0356 -1.0208
    6MOL0     C  712  10.109   2.076   3.575 -0.3230  0.2087 -1.0123
    6MOL0     C  713  10.095   1.973   3.474 -0.9787 -0.8136 -0.8760
    6MOL0     O  714  10.215   1.915   3.414  0.0940 -0.4581  0.1324
    6MOL0     C  715  10.217   1.829   3.308  0.5397 -0.0637  0.8922
    6MOL0     C  716  10.340   1.777   3.259  0.0289 -0.4031  0.7957
    6MOL0     C  717  10.346   1.680   3.158  0.0760  0.3434  0.1785
    6MOL0     C  718  10.491   1.632   3.122 -0.4862 -0.1864  1.1560
    6MOL0     C  719  10.223   1.649   3.083 -0.1704  0.5236 -0.1432
    6MOL0     C  720  10.211   1.547   2.968 -0.5512 -0.3954 -0.5652
    6MOL0     O  721  10.113   1.563   2.871 -0.3371  0.9454  0.7014
    6MOL0     C  722  10.072   1.463   2.778  0.4565 -0.5327 -0.8561
    6MOL0     C  723   9.982   1.515   2.690 -0.0347  0.8602 -0.5304
    6MOL0     C  724   9.922   1.436   2.587 -0.1973  0.1375 -0.6285
    6MOL0     C  725   9.943   1.296   2.595 -0.0322  1.1627  0.3807
    6MOL0     O  726   9.877   1.221   2.505  0.5311 -0.2277 -0.6750
    6MOL0     C  727   9.941   1.095   2.470 -0.4426  0.5014  0.1991
    6MOL0     C  728   9.881   1.042   2.344 -0.5037 -0.4421  0.7972
    6MOL0     C  729   9.725   1.005   2.355  0.1466  0.9602  0.3902
    6MOL0     C  730   9.669   0.945   2.229  0.4310 -0.0775  0.5421
    6MOL0     C  731   9.560   0.842   2.257  0.3834 -1.1081 -0.4281
    6MOL0     C  732   9.514   0.809   2.119  0.8771 -0.7245  0.5878
    6MOL0     C  733   9.409   0.705   2.120 -0.3141 -1.6586 -0.2024
    6MOL0     C  734   9.359   0.670   1.978  0.5094 -0.5167  0.1118
    6MOL0    Cl  735   9.234   0.534   1.962 -0.0474  0.1818  0.3789
    6MOL0     C  736  10.034   1.241   2.681 -0.4553  0.5140 -0.8544
    6MOL0     C  737  10.102   1.325   2.776  0.1097  0.0499  0.1139
    6MOL0     O  738  10.306   1.461   2.967 -0.2712  0.0443 -0.2844
    6MOL0     C  739  10.100   1.701   3.134 -0.3966 -0.4249  1.5678
    6MOL0     C  740  10.097   1.781   3.246 -0.6745  1.5428  0.0408
    6MOL0     N  741  10.281   1.942   3.987 -0.2496  0.6727 -0.3736
    6MOL0     N  742  10.362   1.945   4.094 -0.8487 -0.0286  0.6189
    6MOL0     C  743  10.839   2.850   3.987  0.7331  0.6692 -0.1182
    6MOL0     C  744  10.818   2.955   3.897 -0.7570  0.1922  0.0028
    6MOL0     C  745  10.876   3.275   3.583  0.1248  1.1505  0.1005
    6MOL0     C  746  10.757   3.332   3.623  0.7372 -0.4242  0.0687
    6MOL0     C  747  10.707   3.445   3.548 -0.3015  0.8122  0.7463
    6MOL0     C  748  10.771   3.485   3.427 -0.0014 -0.0077 -0.0156
    6MOL0     O  749  10.706   3.558   3.336  0.8223 -0.5174  0.4435
    6MOL0     C  750  10.749   3.696   3.334 -0.0727 -0.6717 -0.5134
    6MOL0     C  751  10.739   3.757   3.184 -0.0624 -0.6550 -0.9675
    6MOL0     C  752  10.862   3.690   3.114 -0.1896 -0.3077  0.2515
    6MOL0     C  753  10.903   3.746   2.979  0.2355  0.1562 -0.0359
    6MOL0     C  754  10.792   3.755   2.883  1.0268 -0.6816  0.2947
    6MOL0     C  755  10.698   3.770   2.807  0.8313  0.5429  0.9439
    6MOL0     C  756  10.885   3.418   3.386 -0.5591 -0.9771  0.1674
    6MOL0     C  757  10.941   3.318   3.466 -0.8604 -0.4753  0.2063
    6MOL0     C  758  11.075   3.262   3.422 -0.0770  0.1010 -0.7987
    6MOL0     H  759  11.095   2.916   3.707 -2.2127 -0.3677 -1.8081
    6MOL0     H  760  11.144   2.746   3.882  1.2985  1.8488  0.9818
    6MOL0     H  761  11.082   2.689   4.211 -1.1647  0.7660  1.0518
    6MOL0     H  762  11.132   2.609   4.056  0.3806 -1.4362  0.8605
    6MOL0     H  763  11.033   2.406   4.114 -2.7307  1.3556 -0.8300
    6MOL0     H  764  11.129   2.461   4.248 -0.2332 -1.3326  1.0878
    6MOL0     H  765  10.968   2.523   4.391  1.1610 -0.3849  0.5987
    6MOL0     H  766  10.833   2.534   4.290  1.5741  2.0659  5.5527
    6MOL0     H  767  11.005   2.290   4.333  0.9493  2.1141  1.7801
    6MOL0     H  768  10.877   2.329   4.458 -0.0788 -0.7886  0.3426
    6MOL0     H  769  10.823   2.288   4.157  1.3902 -0.8873 -0.0195
    6MOL0     H  770  10.699   2.329   4.280 -1.5722 -1.9588 -1.2504
    6MOL0     H  771  10.859   2.069   4.247  0.0115  0.4472  0.7252
    6MOL0     H  772  10.730   2.085   4.365  1.4745  2.4572  1.3609
    6MOL0     H  773  10.659   1.954   4.161  1.3210 -0.7743  4.1708
    6MOL0     H  774  10.704   2.089   4.063 -0.1814 -3.5373 -0.3942
    6MOL0     H  775  10.501   2.120   4.288  1.7366 -0.5562 -0.2107
    6MOL0     H  776  10.543   2.230   4.161 -2.8693  0.1651  1.9650
    6MOL0     H  777  10.402   2.233   3.952  1.0589 -1.5376 -1.6579
    6MOL0     H  778  10.230   2.199   3.792  2.4332 -1.1178 -1.0670
    6MOL0     H  779  10.101   2.106   3.878 -0.0074  0.8982 -2.1066
    6MOL0     H  780  10.299   1.998   3.674 -0.7333 -0.2853 -2.7373
    6MOL0     H  781  10.158   1.907   3.726  0.1396 -0.2142 -1.1316
    6MOL0     H  782  10.012   2.121   3.598 -1.1206 -1.4805 -0.9319
    6MOL0     H  783  10.173   2.160   3.547  1.8489 -0.6335  1.0637
    6MOL0     H  784  10.043   1.890   3.524 -0.0226 -0.4053  0.8768
    6MOL0     H  785  10.033   2.015   3.394 -0.7843  1.3933  0.0828
    6MOL0     H  786  10.435   1.811   3.299  1.4184 -2.0654 -0.9250
    6MOL0     H  787  10.493   1.527   3.092 -3.1466 -0.2091  0.8600
    6MOL0     H  788  10.562   1.656   3.202 -0.9301  0.6544  1.3068
    6MOL0     H  789  10.517   1.698   3.038 -2.7839  0.1912  0.6865
    6MOL0     H  790   9.955   1.620   2.691 -1.7214  0.6099 -3.6788
    6MOL0     H  791   9.856   1.488   2.517 -0.7260  0.9875  0.4732
    6MOL0     H  792  10.047   1.115   2.448  0.1786 -2.2206  0.3559
    6MOL0     H  793   9.921   1.019   2.546 -1.2056 -0.5277 -0.9932
    6MOL0     H  794   9.892   1.113   2.261 -1.7742  0.9967  1.7881
    6MOL0     H  795   9.940   0.954   2.320  4.2045  2.1812  1.4841
    6MOL0     H  796   9.667   1.091   2.388 -0.2220  1.2595 -0.9713
    6MOL0     H  797   9.716   0.924   2.428  0.9013 -0.2494 -0.8124
    6MOL0     H  798   9.751   0.908   2.166  0.7187  2.5028 -0.7071
    6MOL0     H  799   9.635   1.025   2.164 -1.6143 -1.1923  0.1653
    6MOL0     H  800   9.603   0.754   2.305 -1.0202 -1.3766  0.3817
    6MOL0     H  801   9.487   0.882   2.328  0.7283 -2.5013  0.7661
    6MOL0     H  802   9.594   0.777   2.052  1.7470  2.3692  0.0067
    6MOL0     H  803   9.463   0.897   2.079 -1.0861 -0.0613  4.1816
    6MOL0     H  804   9.314   0.734   2.165 -0.9880 -3.4991 -0.3607
    6MOL0     H  805   9.461   0.616   2.157  0.6803 -2.1016 -2.4588
    6MOL0     H  806   9.441   0.632   1.916  0.0662  0.4784 -1.1377
    6MOL0     H  807   9.335   0.767   1.933 -2.2989 -2.3908 -2.8681
    6MOL0     H  808  10.056   1.134   2.677 -2.9624 -0.1583  0.5763
    6MOL0     H  809  10.169   1.277   2.846  0.5461 -3.1126 -2.2260
    6MOL0     H  810  10.003   1.672   3.093 -0.0200  0.6980 -0.2454
    6MOL0     H  811   9.996   1.802   3.277 -1.3508  0.0724 -1.0274
    6MOL0     H  812  10.757   2.826   4.055  1.7945 -2.0691  0.3274
    6MOL0     H  813  10.720   3.000   3.886  0.0403  1.5041 -2.6305
    6MOL0     H  814  10.698   3.305   3.710 -2.5660  3.9674 -0.4564
    6MOL0     H  815  10.611   3.489   3.573 -0.0949  0.2953  2.6333
    6MOL0     H  816  10.684   3.765   3.390  3.7600  4.3799 -1.5671
    6MOL0     H  817  10.850   3.717   3.370  0.3926  0.4393 -2.3598
    6MOL0     H  818  10.738   3.866   3.194  5.2794 -0.3953 -0.3805
    6MOL0     H  819  10.649   3.725   3.131 -1.9239  1.8115  0.4898
    6MOL0     H  820  10.949   3.698   3.180 -0.3344 -0.8878  0.5204
    6MOL0     H  821  10.854   3.582   3.095 -0.8720 -0.3111  0.5191
    6MOL0     H  822  10.986   3.684   2.943 -0.4130  1.1198 -3.5693
    6MOL0     H  823  10.944   3.846   3.000 -1.7986  0.6345  1.9740
    6MOL0     H  824  10.628   3.796   2.731  0.5183  1.7806  1.6236
    6MOL0     H  825  10.926   3.449   3.291  1.6136  0.9503  1.6557
    6MOL0     H  826  11.144   3.272   3.507  0.0291 -2.6012 -0.4793
    6MOL0     H  827  11.066   3.154   3.408 -1.5594 -0.2570  2.1291
    6MOL0     H  828  11.119   3.309   3.334 -0.2645  0.6242 -0.6124
    7MOL0     O  829   2.646   8.959   8.230 -0.1498  0.1192  0.0686
    7MOL0     C  830   2.644   9.072   8.195  1.0118  0.6047  0.1818
    7MOL0     O  831   2.749   9.152   8.184  0.5206  0.5941  0.2082
    7MOL0     C  832   2.881   9.112   8.182  0.0423 -0.0815  0.6874
    7MOL0     C  833   2.979   9.213   8.200 -0.7205 -0.8944 -0.6635
    7MOL0     C  834   3.110   9.181   8.184 -0.4531 -0.0807  0.3260
    7MOL0     C  835   3.150   9.056   8.138  0.4858 -0.3502  0.2533
    7MOL0     O  836   3.286   9.027   8.121  0.1662 -0.2274  0.3181
    7MOL0     C  837   3.375   9.130   8.086 -0.7163  0.2997 -0.4530
    7MOL0     C  838   3.514   9.062   8.060  0.0967  0.5366 -0.8947
    7MOL0     C  839   3.570   9.027   8.200  0.0406  0.8259  0.5793
    7MOL0     C  840   3.720   9.023   8.204 -0.3839  0.6580  0.5307
    7MOL0     C  841   3.774   8.982   8.345  0.2399  0.0675  0.7836
    7MOL0     C  842   3.921   8.930   8.336 -0.2442 -0.7122 -0.1558
    7MOL0     C  843   4.019   9.027   8.274  0.9078  0.5645  0.4436
    7MOL0     C  844   4.140   8.947   8.233  0.5887  0.4509  0.2536
    7MOL0     N  845   4.232   9.007   8.131  0.2268  0.1535 -0.2807
    7MOL0     C  846   4.261   9.144   8.126 -0.6131  0.6833 -0.7259
    7MOL0     C  847   4.350   9.147   8.023 -1.1163  0.5967  0.5657
    7MOL0     C  848   4.420   9.274   7.973 -0.3340  0.3258  0.3280
    7MOL0     C  849   4.516   9.335   8.071 -0.8638  0.5908  0.1932
    7MOL0     C  850   4.661   9.276   8.077  0.1500  0.0277  0.2161
    7MOL0     C  851   4.680   9.128   8.128  0.3758  0.0701  0.2318
    7MOL0     O  852   4.684   9.146   8.273  0.1211 -0.2545  0.2289
    7MOL0     C  853   4.799   9.128   8.340  0.0437 -0.0225 -0.2499
    7MOL0     C  854   4.921   9.135   8.278  0.5311 -0.5844  0.1369
    7MOL0     C  855   5.036   9.104   8.352 -0.0159 -0.4060 -0.5614
    7MOL0     C  856   5.172   9.130   8.285  0.9125  0.0040  0.7068
    7MOL0     C  857   5.026   9.066   8.485 -0.0928 -0.2242  0.3115
    7MOL0     C  858   5.142   9.026   8.556 -0.0521  0.3587 -0.0803
    7MOL0     O  859   5.185   8.902   8.511 -0.1813 -0.4735  0.4482
    7MOL0     C  860   5.255   8.819   8.592 -0.2693 -0.3679 -0.1825
    7MOL0     C  861   5.203   8.781   8.724  0.6936  0.4170  0.3266
    7MOL0     C  862   5.267   8.686   8.805 -0.6165  0.4039  0.8214
    7MOL0     C  863   5.388   8.632   8.749  0.0763 -0.2342 -0.5855
    7MOL0     O  864   5.448   8.527   8.812  0.4001 -0.5472 -0.6550
    7MOL0     C  865   5.412   8.490   8.946  0.4175 -0.3889  1.0064
    7MOL0     C  866   5.348   8.350   8.934  0.1370 -0.8366 -0.1896
    7MOL0     C  867   5.291   8.313   9.070  0.5914  0.3949  0.3447
    7MOL0     C  868   5.227   8.173   9.066 -0.0249  0.5135  0.2859
    7MOL0     C  869   5.215   8.134   9.216  0.3881  0.3816  0.0505
    7MOL0     C  870   5.182   7.986   9.232  0.3941  0.2100 -0.3344
    7MOL0     C  871   5.027   7.959   9.224  1.1149 -0.0653  1.2429
    7MOL0     C  872   5.009   7.802   9.227  0.6667  0.3686 -0.7063
    7MOL0    Cl  873   4.843   7.751   9.275 -0.3637  0.3262 -0.0900
    7MOL0     C  874   5.448   8.677   8.631  0.7143  0.2579  0.6992
    7MOL0     C  875   5.376   8.763   8.545 -0.3974 -0.0675  0.1508
    7MOL0     O  876   5.167   9.081   8.660  0.5253 -0.0068  0.2815
    7MOL0     C  877   4.903   9.053   8.542  0.2426  0.1416  0.9167
    7MOL0     C  878   4.785   9.085   8.474 -1.0768  0.1917  0.6913
    7MOL0     N  879   4.372   9.016   7.973 -0.3520  0.6227  0.5647
    7MOL0     N  880   4.300   8.933   8.040  0.8018 -0.7465 -1.1694
    7MOL0     C  881   3.053   8.954   8.110 -0.2725 -0.7524  0.0144
    7MOL0     C  882   2.917   8.990   8.127  0.4232 -0.8084 -1.4780
    7MOL0     C  883   2.504   9.120   8.159 -0.3188  0.4454 -0.8886
    7MOL0     C  884   2.398   9.074   8.237 -0.1971  0.2311  0.0819
    7MOL0     C  885   2.271   9.132   8.231  0.1615 -0.4106  0.6654
    7MOL0     C  886   2.241   9.225   8.138  0.2860  0.1302  0.1251
    7MOL0     O  887   2.117   9.275   8.114 -0.6945 -0.7176 -0.3388
    7MOL0     C  888   2.043   9.228   8.002  0.2856 -0.2054 -0.6883
    7MOL0     C  889   1.938   9.337   7.956  0.7456  0.9033  0.0774
    7MOL0     C  890   2.001   9.460   7.895 -0.1255 -0.7175  0.2008
    7MOL0     C  891   1.897   9.566   7.874  0.7090 -0.8212 -0.1524
    7MOL0     C  892   1.958   9.675   7.788 -0.0255  0.1903  0.1577
    7MOL0     C  893   2.011   9.749   7.708  0.5509 -0.2929  0.1293
    7MOL0     C  894   2.347   9.280   8.067  0.5703 -0.0662  0.0143
    7MOL0     C  895   2.476   9.231   8.075 -0.5835 -0.3054  0.2417
    7MOL0     C  896   2.570   9.295   7.971  0.0424 -1.0204  0.1689
    7MOL0     H  897   2.945   9.312   8.231  1.7174 -0.5734  1.2875
    7MOL0     H  898   3.185   9.255   8.212  0.2090 -0.3456 -0.6610
    7MOL0     H  899   3.375   9.196   8.173 -0.4587 -0.3052  0.0173
    7MOL0     H  900   3.348   9.184   7.995  0.2947  2.1245  0.2866
    7MOL0     H  901   3.491   8.982   7.990 -2.8649 -0.2143  0.7689
    7MOL0     H  902   3.577   9.135   8.007  0.3316 -0.0322 -1.4102
    7MOL0     H  903   3.527   9.083   8.283  0.1294 -2.9683  3.4201
    7MOL0     H  904   3.517   8.932   8.210 -1.9213  1.4168 -2.6041
    7MOL0     H  905   3.743   8.943   8.134  2.4690  0.2290  1.8028
    7MOL0     H  906   3.756   9.120   8.169  0.5490  0.6579  1.4465
    7MOL0     H  907   3.703   8.909   8.383 -0.0644 -0.1823 -0.2340
    7MOL0     H  908   3.769   9.065   8.416  0.3773 -1.9010  3.2295
    7MOL0     H  909   3.956   8.898   8.435 -0.2270 -1.8119 -0.4958
    7MOL0     H  910   3.923   8.840   8.273 -0.4382 -0.4499 -0.5419
    7MOL0     H  911   4.049   9.099   8.352  1.8631  0.4365  0.2028
    7MOL0     H  912   3.970   9.069   8.186 -3.6043  1.4921  3.1007
    7MOL0     H  913   4.196   8.924   8.324 -2.1520  0.5208  2.0864
    7MOL0     H  914   4.106   8.858   8.180  1.8234  1.3147 -2.1581
    7MOL0     H  915   4.225   9.233   8.177  0.1177 -0.9151  2.9665
    7MOL0     H  916   4.340   9.347   7.955 -0.3846  0.5610  1.4194
    7MOL0     H  917   4.474   9.261   7.879 -0.1839  0.6247  0.3726
    7MOL0     H  918   4.527   9.437   8.032  1.5853  0.2866 -0.0870
    7MOL0     H  919   4.473   9.341   8.171 -1.7707 -0.8153 -0.0918
    7MOL0     H  920   4.705   9.288   7.977 -0.1720  2.1391  0.2943
    7MOL0     H  921   4.723   9.338   8.142  2.7628 -2.1511  0.0223
    7MOL0     H  922   4.591   9.066   8.113 -0.5604  0.7828  2.4741
    7MOL0     H  923   4.773   9.082   8.093  0.7892  0.8541  0.2828
    7MOL0     H  924   4.934   9.186   8.183  1.7736 -2.2592 -0.6500
    7MOL0     H  925   5.145   9.206   8.211 -2.8948 -0.0299  1.8370
    7MOL0     H  926   5.211   9.042   8.234 -0.6702 -0.1063 -0.3765
    7MOL0     H  927   5.256   9.161   8.348  0.1640 -1.5824  2.5991
    7MOL0     H  928   5.122   8.835   8.771  0.0460 -1.8240  1.9427
    7MOL0     H  929   5.227   8.666   8.903  0.3709 -0.9177  0.9818
    7MOL0     H  930   5.494   8.484   9.019 -1.4938 -0.0020  3.3335
    7MOL0     H  931   5.338   8.549   9.002 -0.4626 -1.7474  1.3262
    7MOL0     H  932   5.258   8.363   8.873 -0.3024  1.5419  0.8546
    7MOL0     H  933   5.420   8.283   8.886 -1.3846 -2.2555 -0.6114
    7MOL0     H  934   5.211   8.383   9.095  1.9673  1.1527  2.9467
    7MOL0     H  935   5.377   8.318   9.138  0.8124  3.0948 -0.0188
    7MOL0     H  936   5.291   8.096   9.023 -0.8343 -0.3441  0.5691
    7MOL0     H  937   5.129   8.165   9.017 -1.7647  2.7075  3.0983
    7MOL0     H  938   5.313   8.150   9.263  1.7478  1.7021 -2.9778
    7MOL0     H  939   5.140   8.196   9.265  0.0800 -1.9539  2.8607
    7MOL0     H  940   5.229   7.956   9.326 -1.3153  3.7578  1.8948
    7MOL0     H  941   5.235   7.928   9.157  1.4067 -0.8423  1.1412
    7MOL0     H  942   4.985   8.009   9.137  2.0089 -1.3623  0.0113
    7MOL0     H  943   4.976   8.001   9.311  0.5233  1.8659  0.0255
    7MOL0     H  944   5.070   7.774   9.313 -2.3850  1.4414  2.0266
    7MOL0     H  945   5.050   7.746   9.142  0.6551  0.2437 -0.6307
    7MOL0     H  946   5.549   8.653   8.600 -0.2282 -1.4993 -1.2321
    7MOL0     H  947   5.405   8.808   8.451  2.0571 -0.4314  0.6635
    7MOL0     H  948   4.896   9.015   8.644  1.3890 -0.9488  0.6131
    7MOL0     H  949   4.690   9.109   8.520  0.2733  0.3377  3.6065
    7MOL0     H  950   3.098   8.861   8.077  1.1040  0.9811 -3.4752
    7MOL0     H  951   2.841   8.922   8.089 -0.1807 -1.7078  1.1116
    7MOL0     H  952   2.425   8.986   8.295 -1.6064  1.8681  3.4929
    7MOL0     H  953   2.192   9.102   8.300 -0.3733 -1.6520 -0.4586
    7MOL0     H  954   2.112   9.205   7.920 -1.6322 -3.9662 -1.4832
    7MOL0     H  955   2.001   9.128   8.017 -0.7099  0.2806 -0.1399
    7MOL0     H  956   1.874   9.354   8.043  0.4861  2.2916 -0.3651
    7MOL0     H  957   1.873   9.297   7.877  2.1156  1.4400 -1.3886
    7MOL0     H  958   2.071   9.510   7.963  0.1473  1.7438 -1.7548
    7MOL0     H  959   2.041   9.432   7.797 -3.7158  0.3441 -1.7544
    7MOL0     H  960   1.870   9.619   7.966 -1.6609  2.2742 -2.4231
    7MOL0     H  961   1.802   9.529   7.835 -0.1225 -0.0170  1.0294
    7MOL0     H  962   2.059   9.795   7.624 -0.3217 -1.0491 -0.8184
    7MOL0     H  963   2.327   9.368   8.006  0.3877  0.0949  0.3013
    7MOL0     H  964   2.517   9.360   7.901  1.6598 -0.7221 -0.8273
    7MOL0     H  965   2.635   9.364   8.025 -1.2127  0.0506  0.3463
    7MOL0     H  966   2.626   9.222   7.911  0.3263 -0.4089 -0.3112
    8MOL0     O  967   4.249  11.258   1.094 -0.1649 -0.1912 -0.7822
    8MOL0     C  968   4.223  11.206   0.983 -0.8942 -0.3757 -0.0864
    8MOL0     O  969   4.323  11.160   0.894 -0.3767  0.2186  0.1017
    8MOL0     C  970   4.430  11.097   0.956 -0.0823 -0.4426 -0.2368
    8MOL0     C  971   4.561  11.128   0.901  0.4132  0.6624 -0.5076
    8MOL0     C  972   4.670  11.058   0.933  0.1716  0.4483  0.9732
    8MOL0     C  973   4.655  10.940   1.018 -0.3375  0.2883 -0.2542
    8MOL0     O  974   4.759  10.847   1.052 -0.8109 -0.9575 -0.0321
    8MOL0     C  975   4.869  10.847   0.958  0.1788  0.5587 -0.0963
    8MOL0     C  976   4.981  10.755   1.002  0.1294  0.1702  0.1108
    8MOL0     C  977   5.085  10.712   0.900 -1.7861  0.4714  1.3455
    8MOL0     C  978   5.156  10.584   0.961  0.0862 -0.0254  0.1822
    8MOL0     C  979   5.295  10.546   0.900  0.1784  0.5778 -1.3368
    8MOL0     C  980   5.275  10.494   0.753 -0.1427  0.1103 -0.0144
    8MOL0     C  981   5.395  10.427   0.695 -0.1193  0.2583 -0.3049
    8MOL0     C  982   5.364  10.324   0.585  0.0538 -0.0809  0.7467
    8MOL0     N  983   5.261  10.371   0.493 -0.1793 -0.1230  0.6592
    8MOL0     C  984   5.140  10.307   0.475 -0.5754 -0.0493  0.2538
    8MOL0     C  985   5.088  10.383   0.375 -0.3745  0.7274  0.2261
    8MOL0     C  986   4.967  10.351   0.291  0.6078 -1.2261  0.8755
    8MOL0     C  987   4.844  10.433   0.351 -0.5725  0.3146  0.2197
    8MOL0     C  988   4.717  10.421   0.265  0.1463 -0.3275 -0.4298
    8MOL0     C  989   4.670  10.277   0.235  0.1268  0.2957  0.4498
    8MOL0     O  990   4.528  10.273   0.204 -0.0914  0.5261  0.3055
    8MOL0     C  991   4.465  10.149   0.228  0.3485  0.4892  0.0631
    8MOL0     C  992   4.530  10.026   0.225  0.0897  0.0043  0.6145
    8MOL0     C  993   4.462   9.899   0.229  0.6887 -0.8287 -0.2832
    8MOL0     C  994   4.546   9.757   0.228  0.5035 -0.2884 -0.3495
    8MOL0     C  995   4.315   9.900   0.227  0.2420  0.5162  0.0095
    8MOL0     C  996   4.218   9.777   0.217 -0.9999  0.4259 -0.0515
    8MOL0     O  997   4.092   9.792   0.262  0.4035  0.5716  0.3402
    8MOL0     C  998   4.023   9.666   0.269 -0.6558 -0.3787 -0.8554
    8MOL0     C  999   3.894   9.653   0.205 -0.2826  0.3080 -0.0196
    8MOL0     C 1000   3.824   9.534   0.195  0.3555  0.6521 -0.6553
    8MOL0     C 1001   3.870   9.433   0.274 -0.3090  0.7189 -0.7925
    8MOL0     O 1002   3.809   9.313   0.308 -0.2232 -0.0989  0.0579
    8MOL0     C 1003   3.672   9.320   0.307 -0.5014 -1.0200  0.9657
    8MOL0     C 1004   3.606   9.186   0.333  1.0542  0.3700  0.8859
    8MOL0     C 1005   3.490   9.210   0.426 -0.4510  0.2412  1.1897
    8MOL0     C 1006   3.356   9.248   0.359 -0.0805  0.3844 -0.4584
    8MOL0     C 1007   3.251   9.294   0.460  0.0670  0.3903 -0.1200
    8MOL0     C 1008   3.115   9.311   0.387 -0.5826  0.6121  0.0914
    8MOL0     C 1009   2.995   9.281   0.476  0.5414  0.3580  1.6208
    8MOL0     C 1010   2.981   9.379   0.590 -0.5375  0.5750 -0.2665
    8MOL0    Cl 1011   2.823   9.368   0.667  0.5504  0.0375 -0.7923
    8MOL0     C 1012   3.996   9.438   0.338 -0.0439  0.0511 -0.4137
    8MOL0     C 1013   4.076   9.561   0.336 -0.5705  0.3897 -0.6630
    8MOL0     O 1014   4.263   9.682   0.145  0.7505  0.3311 -0.5561
    8MOL0     C 1015   4.255  10.034   0.230  0.9641 -0.2683  0.4218
    8MOL0     C 1016   4.328  10.152   0.233  0.4054  0.2687  0.1233
    8MOL0     N 1017   5.173  10.483   0.337  0.3497 -0.4168  0.3984
    8MOL0     N 1018   5.279  10.475   0.415 -0.2057  0.0781 -1.0642
    8MOL0     C 1019   4.529  10.905   1.068 -0.3903  0.5547  0.2143
    8MOL0     C 1020   4.421  10.984   1.041 -0.1736 -0.2176  0.2945
    8MOL0     C 1021   4.082  11.166   0.942 -0.4099  0.1465 -0.4262
    8MOL0     C 1022   4.077  11.050   0.862  1.2159 -0.0214 -0.0513
    8MOL0     C 1023   3.948  11.003   0.813 -0.8168  0.1482  0.4836
    8MOL0     C 1024   3.828  11.073   0.853  0.2742  0.1327 -0.3987
    8MOL0     O 1025   3.702  11.027   0.821  0.5716 -0.1034 -1.0499
    8MOL0     C 1026   3.629  11.126   0.752  0.1449  0.5991  0.3604
    8MOL0     C 1027   3.578  11.056   0.621 -0.8484  0.3066  0.0074
    8MOL0     C 1028   3.492  10.930   0.635 -0.8972 -0.2580  0.1322
    8MOL0     C 1029   3.375  10.940   0.734 -0.4362 -0.3508 -0.5275
    8MOL0     C 1030   3.279  10.824   0.736  0.4388 -0.4580  0.3822
    8MOL0     C 1031   3.197  10.741   0.730  0.6576 -0.7523 -0.2561
    8MOL0     C 1032   3.843  11.189   0.925  0.2013  0.5588  0.0376
    8MOL0     C 1033   3.965  11.243   0.966 -0.2080  0.1335 -0.4623
    8MOL0     C 1034   3.968  11.379   1.036 -0.1241  0.1270  0.2309
    8MOL0     H 1035   4.572  11.208   0.829 -0.0257  1.6065  0.4591
    8MOL0     H 1036   4.762  11.080   0.881 -0.2841 -2.7649 -1.5380
    8MOL0     H 1037   4.911  10.948   0.954 -0.4457  0.7965 -1.2915
    8MOL0     H 1038   4.835  10.801   0.864  1.2463  1.5059 -0.9696
    8MOL0     H 1039   5.028  10.784   1.096  0.7588 -0.4365 -0.0165
    8MOL0     H 1040   4.929  10.664   1.033  3.3322 -1.4201  1.2740
    8MOL0     H 1041   5.052  10.688   0.799  1.5406 -1.5404  0.5852
    8MOL0     H 1042   5.156  10.794   0.884 -1.3344 -0.2403 -0.4681
    8MOL0     H 1043   5.169  10.603   1.068 -2.1895 -0.3414  0.5696
    8MOL0     H 1044   5.085  10.502   0.954 -1.0274  1.0302 -2.6423
    8MOL0     H 1045   5.322  10.465   0.969 -2.2595  1.3642  0.6862
    8MOL0     H 1046   5.376  10.621   0.902  1.5254 -0.7900 -2.2101
    8MOL0     H 1047   5.187  10.429   0.756  2.4921 -3.7707  1.0676
    8MOL0     H 1048   5.255  10.573   0.680 -0.7550 -1.5363 -1.7098
    8MOL0     H 1049   5.450  10.372   0.772  0.9912 -0.6098 -1.6863
    8MOL0     H 1050   5.456  10.504   0.649  0.0304 -1.4071 -3.0915
    8MOL0     H 1051   5.460  10.310   0.533 -0.2752  0.3974  0.0027
    8MOL0     H 1052   5.339  10.228   0.631  2.1671  0.6909  3.8174
    8MOL0     H 1053   5.106  10.209   0.509 -1.3781  0.3003  0.4855
    8MOL0     H 1054   4.941  10.245   0.293  0.2272 -1.1958 -0.8623
    8MOL0     H 1055   4.982  10.383   0.187  0.2302 -1.5271  0.7279
    8MOL0     H 1056   4.829  10.388   0.449 -1.9660  1.3272  0.4962
    8MOL0     H 1057   4.873  10.538   0.362 -1.2571  0.2264  3.9905
    8MOL0     H 1058   4.641  10.470   0.327  1.7284 -0.8418  2.0669
    8MOL0     H 1059   4.713  10.470   0.167 -0.1288 -0.1424 -0.3278
    8MOL0     H 1060   4.732  10.229   0.158 -1.8692  2.5454 -2.7864
    8MOL0     H 1061   4.688  10.207   0.318  1.1706 -0.6447 -0.5331
    8MOL0     H 1062   4.636  10.037   0.207 -0.3041  1.0713 -1.2979
    8MOL0     H 1063   4.640   9.761   0.284 -0.4064  1.0328  1.1888
    8MOL0     H 1064   4.564   9.729   0.124  2.1071 -1.7272  0.2598
    8MOL0     H 1065   4.498   9.667   0.267  1.2181 -0.4345  0.2258
    8MOL0     H 1066   3.854   9.737   0.148  0.8746  0.6886 -0.2933
    8MOL0     H 1067   3.731   9.538   0.140 -0.6201 -0.1071  0.8665
    8MOL0     H 1068   3.650   9.399   0.379  4.2716  4.3304 -2.4992
    8MOL0     H 1069   3.634   9.362   0.213 -0.4434  0.9602  1.7669
    8MOL0     H 1070   3.563   9.144   0.242  2.9912 -2.3967  1.1215
    8MOL0     H 1071   3.678   9.110   0.365 -1.9215 -2.5964  1.1623
    8MOL0     H 1072   3.520   9.287   0.498  2.3867  3.4208 -2.8769
    8MOL0     H 1073   3.471   9.115   0.476 -0.2079 -0.3900  0.1071
    8MOL0     H 1074   3.323   9.151   0.320 -0.3062 -0.8661  2.6008
    8MOL0     H 1075   3.367   9.327   0.285  2.1275  0.1576 -0.4627
    8MOL0     H 1076   3.238   9.214   0.534 -0.0326  2.0216  1.7190
    8MOL0     H 1077   3.287   9.384   0.510  1.1442 -0.5844  0.9265
    8MOL0     H 1078   3.116   9.241   0.303  1.0928  2.3221 -1.4099
    8MOL0     H 1079   3.113   9.412   0.346 -1.6118  0.6845  0.3035
    8MOL0     H 1080   2.999   9.176   0.506 -0.3249 -1.5830 -3.9304
    8MOL0     H 1081   2.907   9.275   0.411  1.7468  0.3776 -0.0599
    8MOL0     H 1082   2.996   9.484   0.564 -1.3507  1.8133  3.6094
    8MOL0     H 1083   3.065   9.352   0.655  0.2471  1.8275 -0.7375
    8MOL0     H 1084   4.031   9.355   0.398 -0.2530  0.7811  0.7401
    8MOL0     H 1085   4.171   9.573   0.388 -1.2017  0.0665  0.5995
    8MOL0     H 1086   4.147  10.030   0.224  0.9734 -0.4225  0.3536
    8MOL0     H 1087   4.267  10.242   0.230 -2.9013 -1.8099  0.0325
    8MOL0     H 1088   4.516  10.812   1.121 -0.2122 -1.3772 -2.9054
    8MOL0     H 1089   4.323  10.943   1.064  0.3888 -1.2033  0.9960
    8MOL0     H 1090   4.163  10.990   0.835  0.1443 -1.4302 -0.4561
    8MOL0     H 1091   3.939  10.917   0.748 -3.6415 -1.5666  2.8586
    8MOL0     H 1092   3.549  11.167   0.815 -0.8003  0.7757 -0.9202
    8MOL0     H 1093   3.687  11.209   0.710  0.3448 -1.0763 -2.9641
    8MOL0     H 1094   3.660  11.026   0.555 -1.2363 -0.7989 -0.0014
    8MOL0     H 1095   3.519  11.127   0.563  1.3811  2.6719  0.4591
    8MOL0     H 1096   3.469  10.904   0.532 -0.4142  1.6185 -0.4862
    8MOL0     H 1097   3.561  10.855   0.674 -0.1684  0.8147  0.9599
    8MOL0     H 1098   3.313  11.026   0.711 -0.2513 -0.1639 -0.3313
    8MOL0     H 1099   3.413  10.937   0.837  2.4465 -2.2185 -1.5304
    8MOL0     H 1100   3.113  10.676   0.724 -1.2629  1.5113  0.5950
    8MOL0     H 1101   3.757  11.245   0.960 -0.4739  0.2967 -1.1330
    8MOL0     H 1102   3.880  11.432   0.997 -0.4670 -0.6389 -0.0433
    8MOL0     H 1103   3.961  11.360   1.144 -0.7729 -2.4359 -0.2052
    8MOL0     H 1104   4.057  11.438   1.010  2.0921 -1.0250  4.2855
    9MOL0     O 1105   1.818   8.774   4.847  0.9633 -0.3908  0.1073
    9MOL0     C 1106   1.754   8.870   4.891  0.6834 -0.9202 -0.2849
    9MOL0     O 1107   1.784   8.942   4.996 -0.5241 -0.1878 -1.0368
    9MOL0     C 1108   1.902   8.914   5.068  0.8625  0.7491 -0.0411
    9MOL0     C 1109   2.029   8.884   5.009 -0.5966  0.1861 -0.1409
    9MOL0     C 1110   2.140   8.881   5.087  0.6792  0.3996  0.4496
    9MOL0     C 1111   2.126   8.885   5.228 -0.5121  0.7553  0.2340
    9MOL0     O 1112   2.221   8.898   5.312 -0.2862 -0.4258 -0.5753
    9MOL0     C 1113   2.357   8.927   5.266  0.3174 -0.5820 -0.1035
    9MOL0     C 1114   2.355   9.069   5.225  0.2355 -0.9111  0.7679
    9MOL0     C 1115   2.303   9.177   5.325  0.3431  0.1636  0.4097
    9MOL0     C 1116   2.367   9.175   5.467  0.7200 -0.5378  0.8292
    9MOL0     C 1117   2.357   9.317   5.541 -0.3680  0.3990  0.2657
    9MOL0     C 1118   2.489   9.355   5.601 -0.5927  0.1711  0.7150
    9MOL0     C 1119   2.475   9.499   5.657 -0.3614 -0.0633 -0.1591
    9MOL0     C 1120   2.501   9.599   5.538 -0.0365  0.9965  0.4400
    9MOL0     N 1121   2.487   9.727   5.602  0.2773  0.9412  0.6275
    9MOL0     C 1122   2.370   9.800   5.593 -0.8005  0.8337  0.4047
    9MOL0     C 1123   2.406   9.924   5.630 -0.5819 -0.6395  0.0546
    9MOL0     C 1124   2.314  10.044   5.623 -0.1680  0.0406  0.0769
    9MOL0     C 1125   2.336  10.131   5.740  0.7504 -0.3772 -0.3351
    9MOL0     C 1126   2.209  10.212   5.769 -0.0964 -0.0676  0.1853
    9MOL0     C 1127   2.104  10.130   5.855  0.3991 -0.0705  0.4603
    9MOL0     O 1128   2.023  10.224   5.931 -0.2032  0.1583  0.8636
    9MOL0     C 1129   1.894  10.237   5.893 -0.4024 -0.8857 -0.9964
    9MOL0     C 1130   1.816  10.172   5.798  0.1404  0.1443 -0.0167
    9MOL0     C 1131   1.686  10.198   5.776 -0.3362 -0.8580 -0.8060
    9MOL0     C 1132   1.604  10.115   5.691  0.2391  0.3150  0.4259
    9MOL0     C 1133   1.635  10.323   5.827  0.1234 -0.3572 -0.9130
    9MOL0     C 1134   1.488  10.365   5.810  0.2594  0.5490 -0.4718
    9MOL0     O 1135   1.428  10.414   5.930 -0.2208  0.1734 -0.1695
    9MOL0     C 1136   1.291  10.445   5.928  0.1543  0.0400 -0.0591
    9MOL0     C 1137   1.188  10.362   5.886  0.9539  0.0574  0.0087
    9MOL0     C 1138   1.057  10.412   5.892  0.6538 -0.2624 -0.5618
    9MOL0     C 1139   1.039  10.541   5.931 -0.4169  0.0340  0.4297
    9MOL0     O 1140   0.912  10.596   5.920  0.0428 -0.1839  0.4430
    9MOL0     C 1141   0.830  10.593   6.036  1.4281 -0.2191  0.1352
    9MOL0     C 1142   0.696  10.667   6.014 -1.1775 -0.4301 -0.8281
    9MOL0     C 1143   0.626  10.599   5.894  1.5079 -0.3536 -0.2033
    9MOL0     C 1144   0.477  10.623   5.880 -0.3883 -0.5011  0.2849
    9MOL0     C 1145   0.427  10.548   5.762 -0.4806  0.0919  0.1802
    9MOL0     C 1146   0.278  10.549   5.761  0.1316  0.2049 -1.4502
    9MOL0     C 1147   0.220  10.471   5.649 -0.4412  0.8664 -0.3911
    9MOL0     C 1148   0.069  10.486   5.642  0.5481  0.1213 -0.4442
    9MOL0    Cl 1149   0.015  10.640   5.563 -0.0646 -0.0850 -0.0804
    9MOL0     C 1150   1.141  10.614   5.983 -0.0230 -0.1939  0.2655
    9MOL0     C 1151   1.274  10.568   5.967  0.2549  0.5935 -0.2272
    9MOL0     O 1152   1.429  10.338   5.703 -0.1245 -1.3128 -0.6261
    9MOL0     C 1153   1.721  10.400   5.912 -0.0391  0.8598 -0.7678
    9MOL0     C 1154   1.853  10.354   5.954  0.3687  0.3035  0.4299
    9MOL0     N 1155   2.538   9.918   5.671 -0.0804  0.6000  0.8516
    9MOL0     N 1156   2.586   9.797   5.657 -0.0267 -0.8272  0.4974
    9MOL0     C 1157   2.005   8.913   5.292  0.1879 -0.5606  0.2325
    9MOL0     C 1158   1.889   8.928   5.203 -0.0436 -0.1416 -0.5564
    9MOL0     C 1159   1.640   8.923   4.805  0.4565  0.3792 -0.2957
    9MOL0     C 1160   1.570   9.037   4.853  0.3817 -0.5221  0.3993
    9MOL0     C 1161   1.470   9.097   4.770 -0.7070 -0.0090 -1.0249
    9MOL0     C 1162   1.435   9.039   4.649  0.0838 -0.5032 -0.0148
    9MOL0     O 1163   1.319   9.090   4.581  0.1337  0.0376  1.1304
    9MOL0     C 1164   1.318   9.067   4.441 -0.4352 -0.2803 -0.1942
    9MOL0     C 1165   1.204   9.150   4.384  1.0715 -0.2175 -0.0783
    9MOL0     C 1166   1.232   9.297   4.372 -0.2830 -1.1235  0.2142
    9MOL0     C 1167   1.094   9.383   4.382 -0.5757  1.0234 -0.0648
    9MOL0     C 1168   1.099   9.524   4.342 -1.1253 -0.7375  0.2386
    9MOL0     C 1169   1.121   9.628   4.285  0.0990  0.8924 -0.2718
    9MOL0     C 1170   1.504   8.935   4.599 -0.5266  0.2979 -0.5431
    9MOL0     C 1171   1.612   8.882   4.666  0.2060 -1.2438  0.1730
    9MOL0     C 1172   1.688   8.775   4.598 -0.3169  0.2146 -0.6288
    9MOL0     H 1173   2.034   8.869   4.901  0.5946 -0.0569 -0.0579
    9MOL0     H 1174   2.229   8.868   5.027 -0.2940  1.3315 -1.2674
    9MOL0     H 1175   2.391   8.866   5.181  2.1062  0.0999  0.0696
    9MOL0     H 1176   2.428   8.924   5.349 -1.3461  0.5169  1.4399
    9MOL0     H 1177   2.456   9.108   5.208  0.1283 -0.6639  0.6965
    9MOL0     H 1178   2.298   9.080   5.132  0.5934 -0.8343  0.5553
    9MOL0     H 1179   2.326   9.270   5.272 -0.9631 -0.6004 -1.5934
    9MOL0     H 1180   2.194   9.174   5.330  0.0092  5.2217  1.1649
    9MOL0     H 1181   2.312   9.096   5.519 -0.0664 -0.6056 -0.0574
    9MOL0     H 1182   2.469   9.141   5.447  2.2184  3.7816  0.1716
    9MOL0     H 1183   2.281   9.313   5.619  1.0713  1.9462  1.8254
    9MOL0     H 1184   2.333   9.385   5.458  1.8237 -1.7750 -2.3399
    9MOL0     H 1185   2.517   9.291   5.685  0.1399 -0.7852 -0.2262
    9MOL0     H 1186   2.573   9.351   5.532 -0.8998  0.0551  0.3430
    9MOL0     H 1187   2.546   9.507   5.740 -2.7265 -1.8453  2.2101
    9MOL0     H 1188   2.376   9.504   5.703  0.3733 -1.0307  1.6474
    9MOL0     H 1189   2.602   9.579   5.502  0.1904  2.1795  0.3962
    9MOL0     H 1190   2.431   9.588   5.455 -0.6122  2.1036  0.7572
    9MOL0     H 1191   2.286   9.768   5.532 -1.3163 -0.9766  1.9770
    9MOL0     H 1192   2.214  10.007   5.600  0.7582 -1.6042 -1.6577
    9MOL0     H 1193   2.350  10.103   5.538  1.3726 -0.2666  0.4773
    9MOL0     H 1194   2.356  10.075   5.832 -1.1381 -1.1306 -0.3359
    9MOL0     H 1195   2.424  10.194   5.721 -0.3295  0.9910 -0.9502
    9MOL0     H 1196   2.239  10.310   5.808 -2.4100  0.1757  1.5877
    9MOL0     H 1197   2.161  10.254   5.680 -1.8437  2.8198  2.2932
    9MOL0     H 1198   2.052  10.055   5.793 -2.1544 -0.9206  3.3966
    9MOL0     H 1199   2.163  10.077   5.930  1.1087  3.0211  2.2520
    9MOL0     H 1200   1.873  10.095   5.748 -0.5142 -1.1859  1.2172
    9MOL0     H 1201   1.591  10.180   5.604 -1.2529  1.9874  1.8308
    9MOL0     H 1202   1.509  10.096   5.741  0.0873 -3.7662 -1.0232
    9MOL0     H 1203   1.644  10.014   5.680  1.1494  0.5239  1.5807
    9MOL0     H 1204   1.198  10.271   5.829 -3.5549  0.2774 -1.5584
    9MOL0     H 1205   0.977  10.352   5.850 -0.9803  1.3511  0.1042
    9MOL0     H 1206   0.805  10.492   6.069 -1.2000  0.1474 -0.5201
    9MOL0     H 1207   0.879  10.645   6.118 -1.4024  3.2996 -0.1689
    9MOL0     H 1208   0.645  10.647   6.109 -0.1154 -0.0143 -0.1533
    9MOL0     H 1209   0.714  10.775   6.016 -1.5829 -0.3185  2.5837
    9MOL0     H 1210   0.647  10.492   5.897  1.4095 -0.3780 -0.3354
    9MOL0     H 1211   0.681  10.628   5.803  1.1225 -0.9320 -0.6243
    9MOL0     H 1212   0.462  10.729   5.857  0.4148 -0.6150 -0.9142
    9MOL0     H 1213   0.419  10.605   5.970 -2.1989  1.7231 -0.3387
    9MOL0     H 1214   0.465  10.579   5.665 -0.4398 -0.1443  0.1195
    9MOL0     H 1215   0.468  10.448   5.772  1.8439  0.7388 -1.9249
    9MOL0     H 1216   0.248  10.654   5.753 -0.1956  0.5949  2.7202
    9MOL0     H 1217   0.249  10.507   5.858  2.7481  0.7425 -0.3429
    9MOL0     H 1218   0.233  10.363   5.656 -2.7051  0.4951 -1.2386
    9MOL0     H 1219   0.257  10.496   5.549  1.7879 -0.1659  0.1051
    9MOL0     H 1220   0.038  10.486   5.747 -0.2147  0.5466 -0.6602
    9MOL0     H 1221   0.034  10.400   5.585  0.6003  0.2797 -0.7157
    9MOL0     H 1222   1.120  10.721   5.988 -0.6138 -0.2219 -1.1890
    9MOL0     H 1223   1.360  10.628   5.995  0.9710  0.0070 -1.1314
    9MOL0     H 1224   1.697  10.497   5.954 -0.8010  0.3080  0.1034
    9MOL0     H 1225   1.910  10.411   6.027 -0.7673 -0.1754  1.7290
    9MOL0     H 1226   2.003   8.916   5.400  0.1102  1.5589  0.2152
    9MOL0     H 1227   1.790   8.961   5.235  0.0873  0.2023 -0.5012
    9MOL0     H 1228   1.591   9.066   4.955  1.0717 -0.0454  0.1342
    9MOL0     H 1229   1.412   9.183   4.803 -0.2805 -0.1379  0.1270
    9MOL0     H 1230   1.415   9.101   4.402  2.2896  0.3197  6.0215
    9MOL0     H 1231   1.291   8.961   4.430  0.7393 -0.4863 -1.5318
    9MOL0     H 1232   1.110   9.134   4.437  0.7396  1.3233 -0.1575
    9MOL0     H 1233   1.186   9.118   4.281  2.9530  1.7720 -1.0993
    9MOL0     H 1234   1.295   9.338   4.451 -3.4708 -1.7591  3.3167
    9MOL0     H 1235   1.291   9.318   4.282  1.1328 -1.7373  0.9635
    9MOL0     H 1236   1.049   9.353   4.477  0.0206 -5.5558 -1.3477
    9MOL0     H 1237   1.026   9.336   4.310  1.1266  2.2597 -2.6166
    9MOL0     H 1238   1.136   9.720   4.233  2.6133  1.3244  1.0574
    9MOL0     H 1239   1.482   8.891   4.502  1.0832 -0.5540 -0.5444
    9MOL0     H 1240   1.659   8.679   4.642  1.2153 -0.4428 -0.9712
    9MOL0     H 1241   1.653   8.757   4.496 -1.5307 -1.9601  0.0959
    9MOL0     H 1242   1.798   8.782   4.600 -0.1678 -1.6779 -0.5490
   10MOL0     O 1243   7.765   8.416   4.136  0.3008  0.1644  0.2982
   10MOL0     C 1244   7.847   8.328   4.147  0.3411 -0.0880 -0.4775
   10MOL0     O 1245   7.867   8.264   4.263 -0.2738 -0.0156 -0.2669
   10MOL0     C 1246   7.806   8.289   4.383  0.0150 -0.1424  0.5460
   10MOL0     C 1247   7.875   8.256   4.502 -1.2363  0.2212  0.1056
   10MOL0     C 1248   7.813   8.270   4.624 -0.0599 -0.5024  0.5851
   10MOL0     C 1249   7.683   8.328   4.641  0.8807 -0.8853  0.6896
   10MOL0     O 1250   7.633   8.357   4.769  0.8633  0.2485 -0.0569
   10MOL0     C 1251   7.652   8.490   4.822  0.6598  0.1776 -0.2626
   10MOL0     C 1252   7.693   8.476   4.970 -0.3060 -0.5800 -0.0186
   10MOL0     C 1253   7.757   8.610   4.996  0.5537 -0.9676  0.4063
   10MOL0     C 1254   7.822   8.604   5.134  0.1436  0.1297 -0.0724
   10MOL0     C 1255   7.883   8.743   5.184 -0.0232 -0.1043 -0.0363
   10MOL0     C 1256   7.775   8.836   5.249 -0.6347 -0.0092 -0.1138
   10MOL0     C 1257   7.824   8.980   5.255  0.5548 -0.8990  0.6987
   10MOL0     C 1258   7.871   9.039   5.124 -0.2935 -0.7114 -0.5054
   10MOL0     N 1259   7.770   9.038   5.019  0.0832  0.0186 -0.1872
   10MOL0     C 1260   7.649   9.103   5.030 -0.0871  0.7404 -0.2661
   10MOL0     C 1261   7.576   9.048   4.928  0.4429 -0.8553  0.7168
   10MOL0     C 1262   7.437   9.077   4.886 -0.0296 -0.5760  0.3715
   10MOL0     C 1263   7.414   9.189   4.786  0.6158 -0.2551  0.2411
   10MOL0     C 1264   7.410   9.320   4.873  0.9678 -0.3043  0.7119
   10MOL0     C 1265   7.409   9.435   4.765 -0.3685 -0.3179 -0.8584
   10MOL0     O 1266   7.330   9.413   4.651 -1.1259 -0.6697 -0.2512
   10MOL0     C 1267   7.323   9.507   4.554  0.4906  0.4340  1.0108
   10MOL0     C 1268   7.301   9.465   4.427  0.3646  0.0341  0.5152
   10MOL0     C 1269   7.286   9.553   4.319  0.1526  0.2290 -1.0868
   10MOL0     C 1270   7.250   9.483   4.185 -0.1948 -1.1829 -0.8367
   10MOL0     C 1271   7.298   9.686   4.341  0.8172  0.0610 -0.7276
   10MOL0     C 1272   7.273   9.791   4.234  0.4044 -0.3272  0.7751
   10MOL0     O 1273   7.200   9.897   4.272 -0.8559 -0.3489  0.6472
   10MOL0     C 1274   7.196  10.010   4.189 -1.0846  0.0688 -0.4828
   10MOL0     C 1275   7.190  10.130   4.260  0.7737  0.1331  0.0004
   10MOL0     C 1276   7.200  10.246   4.189  0.2906 -0.2184  0.2583
   10MOL0     C 1277   7.214  10.248   4.043  0.1644  0.6278  0.4726
   10MOL0     O 1278   7.210  10.359   3.966  0.5888  0.0426 -0.1929
   10MOL0     C 1279   7.075  10.417   3.962 -0.3998  0.5172  0.0640
   10MOL0     C 1280   7.029  10.496   3.841  0.1974  0.6430 -0.4297
   10MOL0     C 1281   7.065  10.410   3.722  0.0684 -0.0727  0.7109
   10MOL0     C 1282   7.009  10.485   3.595 -0.0788  0.6609  0.3510
   10MOL0     C 1283   7.046  10.410   3.469  0.9791  0.4150 -0.1188
   10MOL0     C 1284   6.980  10.488   3.345 -0.4863 -0.2942 -0.3419
   10MOL0     C 1285   7.019  10.424   3.207  0.3478 -0.3152 -0.4400
   10MOL0     C 1286   6.967  10.509   3.092 -0.1632 -0.0472  0.2269
   10MOL0    Cl 1287   6.778  10.489   3.070  0.1862  0.4866 -0.3510
   10MOL0     C 1288   7.206  10.128   3.976  0.3317  0.2242 -0.2917
   10MOL0     C 1289   7.198  10.007   4.050  0.4108  0.1787  0.7719
   10MOL0     O 1290   7.346   9.777   4.135  0.5719 -0.1775  0.2843
   10MOL0     C 1291   7.306   9.733   4.475 -0.3878 -0.5788 -0.4044
   10MOL0     C 1292   7.323   9.645   4.583 -0.3497 -0.3465 -0.2032
   10MOL0     N 1293   7.663   8.964   4.854  0.3006  0.1829 -0.3866
   10MOL0     N 1294   7.775   8.965   4.908  0.5638  0.3853  0.0147
   10MOL0     C 1295   7.619   8.371   4.522  0.3647 -0.5856  0.6873
   10MOL0     C 1296   7.667   8.336   4.394 -0.3535  0.0697  0.1583
   10MOL0     C 1297   7.921   8.280   4.026 -0.5598 -0.0500 -0.0566
   10MOL0     C 1298   8.053   8.239   4.055 -0.2964  0.1576  0.2277
   10MOL0     C 1299   8.144   8.218   3.954  0.0100  0.3575 -0.9569
   10MOL0     C 1300   8.104   8.224   3.821 -1.0378  0.0465  0.5552
   10MOL0     O 1301   8.199   8.173   3.736 -0.3129  0.7023  0.3922
   10MOL0     C 1302   8.168   8.133   3.604 -0.5154  0.2407 -0.5253
   10MOL0     C 1303   8.290   8.086   3.517  0.2002  0.0314  0.5913
   10MOL0     C 1304   8.335   7.940   3.541 -0.5185  0.5446 -0.4789
   10MOL0     C 1305   8.464   7.913   3.473  0.7295  0.2004 -0.0895
   10MOL0     C 1306   8.535   7.805   3.544  0.3535 -0.0995 -0.3951
   10MOL0     C 1307   8.592   7.723   3.609 -0.0744 -0.1288 -0.1029
   10MOL0     C 1308   7.976   8.265   3.793  0.0978  0.6668  0.5903
   10MOL0     C 1309   7.881   8.294   3.887 -0.7728  0.4603 -0.9753
   10MOL0     C 1310   7.750   8.334   3.840  0.5503  0.3403 -0.1780
   10MOL0     H 1311   7.974   8.213   4.503 -2.7147 -3.5463  0.8612
   10MOL0     H 1312   7.875   8.260   4.712  1.9895 -0.5404 -0.7997
   10MOL0     H 1313   7.570   8.563   4.824  2.6992  2.6120  1.9291
   10MOL0     H 1314   7.733   8.537   4.767  0.4828  0.5077 -0.2464
   10MOL0     H 1315   7.607   8.460   5.036 -0.7206 -1.0941 -0.6682
   10MOL0     H 1316   7.765   8.395   4.982  0.2485  0.0140  0.7138
   10MOL0     H 1317   7.833   8.637   4.924 -0.7006  2.1937  0.1086
   10MOL0     H 1318   7.690   8.697   5.000  0.4450 -1.0982  2.4361
   10MOL0     H 1319   7.749   8.560   5.202 -1.7426  2.4419 -0.4996
   10MOL0     H 1320   7.908   8.539   5.114 -0.9768 -1.4170 -0.0212
   10MOL0     H 1321   7.938   8.793   5.103 -0.8505  0.3170 -0.3451
   10MOL0     H 1322   7.956   8.704   5.256 -0.8334 -1.9637 -0.1659
   10MOL0     H 1323   7.682   8.839   5.191 -0.4703  1.2733 -0.3524
   10MOL0     H 1324   7.752   8.792   5.346 -2.7114 -5.0999 -2.5711
   10MOL0     H 1325   7.898   8.989   5.335 -0.5858  1.2052  1.6082
   10MOL0     H 1326   7.740   9.034   5.299  0.7907  2.5079 -2.4629
   10MOL0     H 1327   7.885   9.147   5.135  0.4541 -0.9476  1.2310
   10MOL0     H 1328   7.968   8.996   5.097 -0.7503 -0.5986 -2.4774
   10MOL0     H 1329   7.612   9.167   5.109 -2.5267 -1.1645  0.2553
   10MOL0     H 1330   7.397   9.101   4.985 -0.0326 -0.3817  0.3251
   10MOL0     H 1331   7.391   8.988   4.843  1.5110 -1.2214  0.0019
   10MOL0     H 1332   7.500   9.184   4.717 -0.2317 -4.9090 -0.8568
   10MOL0     H 1333   7.315   9.185   4.739 -0.3647  1.3796  2.0571
   10MOL0     H 1334   7.318   9.343   4.928  1.0123  0.8932  0.3198
   10MOL0     H 1335   7.495   9.325   4.942  0.6831 -1.5327  1.1752
   10MOL0     H 1336   7.394   9.530   4.817  0.9353 -1.6714  2.2206
   10MOL0     H 1337   7.514   9.435   4.733 -0.1219 -2.5421 -0.2401
   10MOL0     H 1338   7.298   9.358   4.409  2.8792  0.1374 -0.9657
   10MOL0     H 1339   7.296   9.523   4.095  0.4897 -3.0215 -1.3618
   10MOL0     H 1340   7.145   9.506   4.165  0.1096  2.0415  0.6139
   10MOL0     H 1341   7.276   9.376   4.183  1.2172 -0.8392 -2.8976
   10MOL0     H 1342   7.181  10.134   4.368  3.1839  1.6678  0.2180
   10MOL0     H 1343   7.177  10.342   4.234  1.6381  0.5125 -0.5551
   10MOL0     H 1344   7.000  10.338   3.971  0.2833  0.0354  2.0091
   10MOL0     H 1345   7.058  10.478   4.052 -0.4866 -1.1372  1.2112
   10MOL0     H 1346   6.920  10.502   3.844  0.0919 -0.9544  0.7654
   10MOL0     H 1347   7.066  10.598   3.850 -2.3706  1.4594  4.1179
   10MOL0     H 1348   7.035  10.305   3.724 -1.0110  0.2165  3.1116
   10MOL0     H 1349   7.174  10.414   3.709 -0.0955 -2.2662 -2.8632
   10MOL0     H 1350   7.061  10.582   3.601 -0.4815  0.9437 -0.5366
   10MOL0     H 1351   6.900  10.500   3.596 -0.8089 -3.4658 -0.7151
   10MOL0     H 1352   7.154  10.396   3.464  1.3760  3.1082 -0.5783
   10MOL0     H 1353   7.007  10.310   3.489  1.8425  0.3720  1.5112
   10MOL0     H 1354   7.007  10.593   3.353  1.8038 -0.8442 -0.2209
   10MOL0     H 1355   6.876  10.467   3.370  0.0937 -2.3823  0.5421
   10MOL0     H 1356   6.970  10.326   3.206  0.1300 -0.2955  1.7598
   10MOL0     H 1357   7.127  10.416   3.198  0.1276 -1.2347 -2.7440
   10MOL0     H 1358   7.015  10.489   2.996 -2.3491 -0.3759 -0.8631
   10MOL0     H 1359   6.994  10.612   3.118  3.1031 -1.3773  2.7497
   10MOL0     H 1360   7.202  10.128   3.868 -1.1823 -2.0550 -0.3017
   10MOL0     H 1361   7.186   9.910   4.005 -2.1800 -0.0600  1.8192
   10MOL0     H 1362   7.303   9.841   4.489  0.0157 -0.6364  0.1652
   10MOL0     H 1363   7.316   9.697   4.678 -3.4161 -1.1985  0.1534
   10MOL0     H 1364   7.524   8.421   4.537  0.4294  0.4992 -2.0467
   10MOL0     H 1365   7.608   8.373   4.311  1.5143  2.0908 -0.3459
   10MOL0     H 1366   8.092   8.219   4.154  0.3085  1.3412  0.2493
   10MOL0     H 1367   8.241   8.180   3.984  0.7527 -0.2160 -3.7451
   10MOL0     H 1368   8.093   8.055   3.589  0.0437 -0.1522 -1.3156
   10MOL0     H 1369   8.142   8.223   3.548  1.1319  1.3599  0.4215
   10MOL0     H 1370   8.373   8.153   3.540  0.2573 -0.3058  1.4014
   10MOL0     H 1371   8.273   8.101   3.410  1.4785 -0.3229  0.3264
   10MOL0     H 1372   8.341   7.919   3.648 -2.3904 -2.2103 -0.8203
   10MOL0     H 1373   8.268   7.869   3.494 -0.3615 -1.6584  2.3630
   10MOL0     H 1374   8.531   7.998   3.489 -0.1201  0.7498  0.6734
   10MOL0     H 1375   8.454   7.900   3.365  0.7368  0.7749 -0.1606
   10MOL0     H 1376   8.637   7.650   3.674 -0.6455  0.9965  1.6409
   10MOL0     H 1377   7.954   8.263   3.687 -0.4142  3.2875  0.5941
   10MOL0     H 1378   7.713   8.428   3.883 -1.1320  0.9282 -2.6663
   10MOL0     H 1379   7.738   8.342   3.732 -0.0795  0.8421 -0.0804
   10MOL0     H 1380   7.680   8.257   3.873  1.2257  1.0119  3.1394
   11MOL0     O 1381   8.460   1.932   0.218 -0.3841 -0.3804 -0.8767
   11MOL0     C 1382   8.336   1.942   0.222 -0.4564 -0.4128  0.1446
   11MOL0     O 1383   8.263   1.900   0.328  0.6805  0.3589 -0.3813
   11MOL0     C 1384   8.340   1.875   0.438 -0.3433 -0.7313  0.2561
   11MOL0     C 1385   8.333   1.960   0.550 -0.0904  0.6778  0.2237
   11MOL0     C 1386   8.395   1.935   0.673  1.1098 -0.1428  0.1700
   11MOL0     C 1387   8.475   1.821   0.679 -1.0385  0.0443  0.1641
   11MOL0     O 1388   8.559   1.821   0.786 -0.1656  0.7316 -0.5714
   11MOL0     C 1389   8.638   1.700   0.822  0.3344  0.1350  0.0675
   11MOL0     C 1390   8.567   1.612   0.919 -1.3407  0.7647  0.6847
   11MOL0     C 1391   8.627   1.468   0.940 -0.5691  0.0434  1.0967
   11MOL0     C 1392   8.516   1.369   0.933 -0.6590  0.6781  0.3921
   11MOL0     C 1393   8.573   1.229   0.938  0.1684  0.4820 -0.8199
   11MOL0     C 1394   8.627   1.177   1.073  0.1228 -0.1292  1.0883
   11MOL0     C 1395   8.639   1.027   1.078 -0.6626 -0.6569  0.4161
   11MOL0     C 1396   8.734   0.972   0.968 -0.3734 -0.0401  1.0545
   11MOL0     N 1397   8.746   0.830   1.008  0.9107 -0.0732  0.6698
   11MOL0     C 1398   8.670   0.737   0.945  0.4865 -0.9877 -0.2283
   11MOL0     C 1399   8.734   0.625   0.991  0.3093 -0.0870  0.7907
   11MOL0     C 1400   8.679   0.478   0.973 -0.0042 -0.3859 -0.1016
   11MOL0     C 1401   8.548   0.436   1.040 -0.6006  0.2953 -0.1793
   11MOL0     C 1402   8.555   0.447   1.196  0.1412 -0.7418 -0.0724
   11MOL0     C 1403   8.418   0.419   1.258  0.4772  0.4509  0.0244
   11MOL0     O 1404   8.394   0.277   1.244  0.3749  0.0340  0.8383
   11MOL0     C 1405   8.272   0.208   1.249  0.6031 -0.9465  0.8174
   11MOL0     C 1406   8.144   0.269   1.267  0.3836 -0.3388 -0.2000
   11MOL0     C 1407   8.031   0.193   1.271 -0.6232  0.0395  1.2543
   11MOL0     C 1408   7.898   0.269   1.272  0.5188 -0.0595  0.0692
   11MOL0     C 1409   8.036   0.051   1.263 -0.3749  0.2497  0.1702
   11MOL0     C 1410   7.924  -0.036   1.230  0.1781  0.6997  0.1513
   11MOL0     O 1411   7.944  -0.166   1.252  1.0154 -0.1836  0.1658
   11MOL0     C 1412   7.854  -0.263   1.207  0.6228 -0.5931  0.2991
   11MOL0     C 1413   7.707  -0.246   1.184 -0.3399  0.5909 -0.6837
   11MOL0     C 1414   7.632  -0.348   1.127  0.1794  0.6750 -0.0257
   11MOL0     C 1415   7.688  -0.474   1.099  0.0306 -0.5596  0.4907
   11MOL0     O 1416   7.606  -0.566   1.045  0.1812 -0.0493  0.0311
   11MOL0     C 1417   7.644  -0.708   1.040 -0.8621  0.2497  0.7529
   11MOL0     C 1418   7.513  -0.791   1.047 -0.3234 -0.1544  0.9161
   11MOL0     C 1419   7.395  -0.714   1.124 -0.1070 -0.1482  0.9055
   11MOL0     C 1420   7.282  -0.811   1.182  1.4584 -0.1484  0.5578
   11MOL0     C 1421   7.149  -0.745   1.216 -0.0995 -0.4599  0.2792
   11MOL0     C 1422   7.058  -0.721   1.092  0.4259 -0.3353  0.0985
   11MOL0     C 1423   6.976  -0.589   1.105 -0.2787 -0.6425 -0.3680
   11MOL0     C 1424   6.873  -0.570   0.990  0.8975  0.0744 -0.6377
   11MOL0    Cl 1425   6.772  -0.711   0.963 -0.1403 -0.2088 -0.2562
   11MOL0     C 1426   7.824  -0.492   1.130 -0.4462 -0.3991  0.0518
   11MOL0     C 1427   7.903  -0.390   1.186 -0.5045  0.3172 -0.4124
   11MOL0     O 1428   7.833   0.007   1.160  0.2315  0.2559  1.0164
   11MOL0     C 1429   8.159  -0.006   1.265 -0.5730  0.5331  0.1344
   11MOL0     C 1430   8.278   0.069   1.246 -0.5824 -0.8060 -0.8949
   11MOL0     N 1431   8.841   0.660   1.068 -0.1185  0.5694  0.3515
   11MOL0     N 1432   8.849   0.777   1.076 -0.0214  0.1376 -0.8278
   11MOL0     C 1433   8.485   1.727   0.571  0.0813  0.2481 -0.0620
   11MOL0     C 1434   8.420   1.760   0.449  0.0665  0.0765  0.1909
   11MOL0     C 1435   8.274   2.001   0.098  0.0704  0.2344  0.5306
   11MOL0     C 1436   8.362   2.029  -0.006  0.4320  0.7480  0.0850
   11MOL0     C 1437   8.314   2.079  -0.128  0.7815  0.0342 -0.6101
   11MOL0     C 1438   8.173   2.104  -0.147 -1.3919  0.0149 -0.4302
   11MOL0     O 1439   8.153   2.164  -0.268 -0.6377  0.4780  0.0160
   11MOL0     C 1440   8.025   2.209  -0.300 -0.5167 -0.1833 -0.3551
   11MOL0     C 1441   8.029   2.368  -0.331 -0.5256  0.9836 -0.1628
   11MOL0     C 1442   8.095   2.453  -0.228 -0.7839  0.8523 -0.0899
   11MOL0     C 1443   8.074   2.595  -0.242 -0.8453 -0.4380 -1.0658
   11MOL0     C 1444   7.938   2.638  -0.211  0.4592  0.7148 -0.5140
   11MOL0     C 1445   7.823   2.666  -0.180 -0.2150  0.2452 -0.0346
   11MOL0     C 1446   8.087   2.069  -0.043 -0.1222 -0.0001  0.1333
   11MOL0     C 1447   8.138   2.020   0.077  0.7776  0.9429 -1.0112
   11MOL0     C 1448   8.033   1.973   0.183  0.6036 -0.2161  0.0924
   11MOL0     H 1449   8.265   2.044   0.540 -0.6625  0.1787 -0.1798
   11MOL0     H 1450   8.396   2.012   0.749 -1.3485  0.1835 -0.0623
   11MOL0     H 1451   8.738   1.727   0.857  1.0229 -0.4976 -1.3266
   11MOL0     H 1452   8.661   1.629   0.742  0.9605 -1.3928  1.5550
   11MOL0     H 1453   8.577   1.668   1.013  1.2789  1.0455  0.2897
   11MOL0     H 1454   8.461   1.597   0.895 -0.5998 -2.0116 -1.3084
   11MOL0     H 1455   8.710   1.448   0.872 -2.5413 -0.1849 -1.4230
   11MOL0     H 1456   8.682   1.471   1.034  2.4430  1.3689 -0.5548
   11MOL0     H 1457   8.441   1.383   1.011 -1.2495 -3.6053  0.8295
   11MOL0     H 1458   8.465   1.371   0.836  1.2314 -1.7422 -0.7611
   11MOL0     H 1459   8.647   1.219   0.858  0.7152 -0.0526 -0.2601
   11MOL0     H 1460   8.485   1.167   0.914 -0.8899  2.0222 -1.0236
   11MOL0     H 1461   8.724   1.224   1.093  0.9460 -1.8095  1.2159
   11MOL0     H 1462   8.565   1.208   1.157 -0.6321 -1.9824  1.2445
   11MOL0     H 1463   8.542   0.978   1.082 -0.4846 -1.0670 -0.1489
   11MOL0     H 1464   8.684   1.015   1.177 -1.0749 -0.0813  0.6772
   11MOL0     H 1465   8.687   0.980   0.869  0.7591 -3.5572  0.0969
   11MOL0     H 1466   8.834   1.015   0.968  0.5600 -2.0516  2.9479
   11MOL0     H 1467   8.588   0.754   0.876 -1.2071  1.0722  2.1037
   11MOL0     H 1468   8.756   0.412   1.015  1.4194 -0.5240 -2.7043
   11MOL0     H 1469   8.680   0.463   0.864  0.0284  0.0055 -0.1539
   11MOL0     H 1470   8.460   0.491   1.007 -1.2480  0.3262  1.5165
   11MOL0     H 1471   8.534   0.329   1.018  0.6063 -0.7837  3.5961
   11MOL0     H 1472   8.631   0.375   1.228  0.8687  0.2590  0.5132
   11MOL0     H 1473   8.595   0.537   1.244  0.2060 -0.8474  0.0738
   11MOL0     H 1474   8.423   0.436   1.366 -3.1076 -2.6479  0.8817
   11MOL0     H 1475   8.343   0.478   1.204  1.0513  0.8186 -0.3826
   11MOL0     H 1476   8.130   0.376   1.261  0.4271 -0.4000 -1.8934
   11MOL0     H 1477   7.889   0.333   1.360  3.0506  0.5568 -0.0171
   11MOL0     H 1478   7.806   0.211   1.261  1.1207 -0.6936 -1.9388
   11MOL0     H 1479   7.907   0.343   1.192  2.7601 -0.3751 -0.0348
   11MOL0     H 1480   7.656  -0.159   1.224  0.7802 -0.5599  3.7425
   11MOL0     H 1481   7.535  -0.320   1.087  0.8639 -0.3189 -2.5921
   11MOL0     H 1482   7.703  -0.723   0.950  3.2064  0.1915  3.1560
   11MOL0     H 1483   7.713  -0.733   1.122  1.5296  0.0110 -1.2184
   11MOL0     H 1484   7.478  -0.800   0.944  0.9438  1.5285  0.2971
   11MOL0     H 1485   7.530  -0.887   1.097  3.4137 -0.8646 -1.3622
   11MOL0     H 1486   7.350  -0.637   1.061  2.3646  1.2869  0.8067
   11MOL0     H 1487   7.436  -0.666   1.213  0.9564  2.2985 -0.8139
   11MOL0     H 1488   7.322  -0.860   1.271  4.2183  1.6918  0.4537
   11MOL0     H 1489   7.263  -0.884   1.102  0.9864  1.1295 -0.5274
   11MOL0     H 1490   7.092  -0.815   1.278 -2.3882  0.6159 -0.4730
   11MOL0     H 1491   7.167  -0.652   1.270  3.4225 -1.1492  0.5250
   11MOL0     H 1492   6.988  -0.804   1.079 -1.0538  1.2899 -4.1882
   11MOL0     H 1493   7.116  -0.717   0.999  0.3074 -0.2645  0.0279
   11MOL0     H 1494   7.055  -0.514   1.111 -0.4423 -0.5175  0.2676
   11MOL0     H 1495   6.920  -0.581   1.199  1.4605  2.4690  0.5623
   11MOL0     H 1496   6.918  -0.546   0.893  0.9039  1.0080 -0.4161
   11MOL0     H 1497   6.810  -0.487   1.024  1.1673 -0.4349  1.2223
   11MOL0     H 1498   7.872  -0.587   1.109 -1.7529 -1.3654  1.2342
   11MOL0     H 1499   8.009  -0.405   1.200 -0.5299 -3.4892 -2.8412
   11MOL0     H 1500   8.162  -0.114   1.260 -0.1504  0.3586  2.7275
   11MOL0     H 1501   8.380   0.032   1.246  0.4534  1.8646 -1.7446
   11MOL0     H 1502   8.554   1.643   0.560 -2.3251 -1.7266 -0.8960
   11MOL0     H 1503   8.435   1.697   0.362 -2.1651  0.9338 -0.8921
   11MOL0     H 1504   8.467   2.004  -0.001 -0.0003 -2.8924 -3.5306
   11MOL0     H 1505   8.386   2.109  -0.204  0.5425 -1.0911 -1.2980
   11MOL0     H 1506   7.985   2.166  -0.393  0.3589  0.7827 -1.2090
   11MOL0     H 1507   7.955   2.196  -0.217  2.0032  0.8028  2.0836
   11MOL0     H 1508   7.924   2.394  -0.343 -1.0556  0.4626  2.5650
   11MOL0     H 1509   8.095   2.368  -0.418  2.5759 -5.1330  1.6066
   11MOL0     H 1510   8.047   2.431  -0.132 -0.6367 -1.8307 -0.5430
   11MOL0     H 1511   8.199   2.419  -0.227 -1.1394 -0.2759 -0.3154
   11MOL0     H 1512   8.105   2.634  -0.340  0.2542 -2.0889 -1.4118
   11MOL0     H 1513   8.138   2.653  -0.174 -1.7116  1.0664 -1.4737
   11MOL0     H 1514   7.723   2.699  -0.162 -1.2592 -2.4061 -0.5627
   11MOL0     H 1515   7.980   2.071  -0.060 -0.0302 -0.0708 -0.4387
   11MOL0     H 1516   8.024   1.864   0.182  0.7356 -0.3159  2.8547
   11MOL0     H 1517   8.073   2.003   0.280 -0.1866  0.2702  0.2748
   11MOL0     H 1518   7.933   2.015   0.169  0.2145 -1.5610 -1.5742
   12MOL0     O 1519   4.465   6.661   0.058 -0.2173 -0.1583  0.3697
   12MOL0     C 1520   4.476   6.737  -0.034  0.1084  0.7712 -0.6697
   12MOL0     O 1521   4.405   6.853  -0.043 -0.6737 -0.4960 -0.1248
   12MOL0     C 1522   4.317   6.890   0.057  0.6774 -0.2019  0.5568
   12MOL0     C 1523   4.346   6.925   0.190 -0.3736  0.3006 -0.5059
   12MOL0     C 1524   4.240   6.982   0.272  0.4371  0.6000  0.6553
   12MOL0     C 1525   4.104   6.975   0.225 -0.5789 -0.3178 -0.0377
   12MOL0     O 1526   3.996   7.016   0.299  0.9190  0.3498  0.0417
   12MOL0     C 1527   3.999   7.005   0.439  0.4409  0.0774  0.0032
   12MOL0     C 1528   3.868   7.024   0.496 -0.2809  0.6042 -0.7458
   12MOL0     C 1529   3.863   7.079   0.645  0.4726  0.5656 -0.6120
   12MOL0     C 1530   3.936   7.014   0.760 -0.1690  0.9517 -0.5249
   12MOL0     C 1531   3.928   7.101   0.889 -0.1681  0.7536 -0.3383
   12MOL0     C 1532   3.991   7.038   1.018  0.0336 -0.1964  0.3314
   12MOL0     C 1533   3.967   7.135   1.132  0.2784  0.8896 -0.6109
   12MOL0     C 1534   4.037   7.088   1.271  0.3338  0.5239  0.1552
   12MOL0     N 1535   4.180   7.115   1.269 -0.4844  0.0605 -0.6453
   12MOL0     C 1536   4.254   7.200   1.346 -0.1484 -0.1438 -0.9365
   12MOL0     C 1537   4.374   7.216   1.287 -0.9663 -0.5908  0.3493
   12MOL0     C 1538   4.488   7.302   1.337 -0.7287 -0.8090  0.2838
   12MOL0     C 1539   4.498   7.433   1.247 -0.2450 -0.8102 -0.1719
   12MOL0     C 1540   4.374   7.520   1.226 -1.3258 -0.4995 -0.7524
   12MOL0     C 1541   4.401   7.616   1.111  0.5345  0.8789  0.1956
   12MOL0     O 1542   4.517   7.699   1.132 -0.3293 -0.0358  0.2753
   12MOL0     C 1543   4.530   7.805   1.041 -0.3684  0.3252 -0.1963
   12MOL0     C 1544   4.479   7.795   0.905 -0.8789  0.6122 -0.9821
   12MOL0     C 1545   4.499   7.901   0.816  0.4614 -0.7102 -0.4413
   12MOL0     C 1546   4.436   7.879   0.687  0.6099 -0.1536  1.0471
   12MOL0     C 1547   4.571   8.020   0.855  0.9093 -0.5594 -0.3549
   12MOL0     C 1548   4.590   8.142   0.767  0.2189 -0.0879 -0.6683
   12MOL0     O 1549   4.682   8.233   0.815  0.3408 -0.3144 -0.3935
   12MOL0     C 1550   4.697   8.351   0.737  0.0922 -0.0133  0.3400
   12MOL0     C 1551   4.808   8.358   0.650 -0.1282  0.5116  0.6787
   12MOL0     C 1552   4.831   8.474   0.566  0.2791 -0.1339  0.7784
   12MOL0     C 1553   4.731   8.575   0.578 -0.1580  1.2071  0.6431
   12MOL0     O 1554   4.745   8.682   0.495  0.3207 -0.8418 -0.2950
   12MOL0     C 1555   4.737   8.808   0.568 -0.3821 -0.2283  0.1088
   12MOL0     C 1556   4.877   8.865   0.617  0.1900 -0.4509  0.1958
   12MOL0     C 1557   4.907   8.823   0.760 -0.1264  0.0648 -0.8979
   12MOL0     C 1558   5.064   8.828   0.795  0.0350  0.0781  0.2669
   12MOL0     C 1559   5.123   8.965   0.778 -0.1227  0.5258 -0.4642
   12MOL0     C 1560   5.256   8.983   0.862  0.0703  0.3823 -0.1691
   12MOL0     C 1561   5.276   9.126   0.909  0.7744 -0.2000 -0.3741
   12MOL0     C 1562   5.410   9.165   0.989  0.3499 -0.1401 -0.7092
   12MOL0    Cl 1563   5.396   9.168   1.168  0.4404  0.0986 -0.0206
   12MOL0     C 1564   4.622   8.561   0.669  0.1755  0.1925  0.4922
   12MOL0     C 1565   4.606   8.456   0.754  0.0832  0.3495  0.0954
   12MOL0     O 1566   4.521   8.148   0.667 -0.8034  0.2055  0.8029
   12MOL0     C 1567   4.626   8.020   0.983  0.2496  0.7456 -0.0029
   12MOL0     C 1568   4.608   7.911   1.068  0.4973  0.0441 -0.0409
   12MOL0     N 1569   4.380   7.116   1.187  0.4714  0.1086  0.0570
   12MOL0     N 1570   4.265   7.055   1.185 -0.0428 -0.4750  0.0750
   12MOL0     C 1571   4.078   6.930   0.098  0.0246  1.3798 -1.2998
   12MOL0     C 1572   4.183   6.895   0.016  0.3413 -0.3427  0.1246
   12MOL0     C 1573   4.537   6.691  -0.158  0.3445  0.9112 -0.1440
   12MOL0     C 1574   4.456   6.700  -0.272 -0.8013  0.4167  0.1337
   12MOL0     C 1575   4.510   6.656  -0.392  1.2689  0.0703  0.1582
   12MOL0     C 1576   4.630   6.599  -0.408  0.1285 -0.3205 -0.6553
   12MOL0     O 1577   4.697   6.581  -0.525  0.1135  0.5111  0.3141
   12MOL0     C 1578   4.668   6.442  -0.573  0.4993  0.2118 -0.0703
   12MOL0     C 1579   4.654   6.439  -0.727 -0.6143  0.7677 -0.3401
   12MOL0     C 1580   4.537   6.534  -0.775  1.4495  0.0289 -1.6655
   12MOL0     C 1581   4.512   6.540  -0.919  0.7240 -0.1461  0.6351
   12MOL0     C 1582   4.390   6.611  -0.956 -0.7165 -0.9376  0.4236
   12MOL0     C 1583   4.295   6.674  -0.984  0.3419  0.9013  0.3809
   12MOL0     C 1584   4.706   6.585  -0.292 -0.2035 -0.0540 -0.0253
   12MOL0     C 1585   4.658   6.628  -0.166 -0.5733  0.5026  0.4490
   12MOL0     C 1586   4.752   6.634  -0.048  0.7808 -0.9817  0.1580
   12MOL0     H 1587   4.446   6.921   0.233 -0.1882  0.4063 -0.9228
   12MOL0     H 1588   4.247   7.024   0.372  0.1842 -4.1325  2.9246
   12MOL0     H 1589   4.070   7.080   0.478  0.9975 -0.2256 -0.4142
   12MOL0     H 1590   4.040   6.904   0.442 -0.4171 -0.5955 -4.3083
   12MOL0     H 1591   3.819   7.103   0.437  1.3823  0.3809 -2.5438
   12MOL0     H 1592   3.810   6.932   0.494  0.8497 -0.1133 -1.4891
   12MOL0     H 1593   3.886   7.186   0.655 -1.2039  0.8368  0.7670
   12MOL0     H 1594   3.757   7.088   0.672  1.3674  2.2714  3.0881
   12MOL0     H 1595   3.885   6.920   0.785  1.8181 -0.6178 -2.0953
   12MOL0     H 1596   4.040   6.984   0.744 -1.2244 -3.9358  0.0678
   12MOL0     H 1597   3.826   7.133   0.912 -0.1672  0.9487 -0.6074
   12MOL0     H 1598   3.974   7.195   0.859 -0.8392  1.8989  1.9615
   12MOL0     H 1599   3.952   6.938   1.041  1.6391 -0.8881  0.2118
   12MOL0     H 1600   4.098   7.035   0.996  0.5734  4.2366  1.4528
   12MOL0     H 1601   3.859   7.148   1.146  0.3202  0.9167 -0.3174
   12MOL0     H 1602   3.999   7.237   1.106  1.4981  0.6058 -0.2829
   12MOL0     H 1603   3.989   7.140   1.355 -1.5406 -0.7619 -0.0622
   12MOL0     H 1604   4.012   6.983   1.285  0.2242  0.8330  3.0207
   12MOL0     H 1605   4.233   7.231   1.448 -0.4032 -0.2039 -0.9696
   12MOL0     H 1606   4.586   7.254   1.326  0.5921  1.3729  1.8342
   12MOL0     H 1607   4.471   7.326   1.442  0.9352 -0.3898  0.4943
   12MOL0     H 1608   4.584   7.493   1.276  0.5043 -1.1359 -1.6323
   12MOL0     H 1609   4.527   7.394   1.149  0.0414 -0.4322 -0.2391
   12MOL0     H 1610   4.283   7.463   1.204 -2.1226 -0.7296  2.6678
   12MOL0     H 1611   4.349   7.571   1.319 -0.7887 -0.4195 -0.6525
   12MOL0     H 1612   4.407   7.554   1.021 -1.8358  1.2882 -0.3144
   12MOL0     H 1613   4.314   7.682   1.102  0.5941  1.1095  1.1961
   12MOL0     H 1614   4.410   7.718   0.870 -0.0376  0.0742 -1.4790
   12MOL0     H 1615   4.512   7.873   0.608  0.2425  1.9595  0.4691
   12MOL0     H 1616   4.355   7.950   0.666 -0.4006 -1.6199 -0.3228
   12MOL0     H 1617   4.399   7.776   0.683  0.5526 -0.1041  0.0287
   12MOL0     H 1618   4.882   8.279   0.641 -1.3670 -0.5575 -0.7070
   12MOL0     H 1619   4.923   8.469   0.510 -0.0375 -1.1370  0.3258
   12MOL0     H 1620   4.701   8.883   0.496  1.3851 -0.4248 -1.0638
   12MOL0     H 1621   4.666   8.819   0.650 -2.5490  1.3930 -1.8166
   12MOL0     H 1622   4.952   8.814   0.555  1.4609 -0.7250  1.8790
   12MOL0     H 1623   4.876   8.973   0.598 -2.0485 -0.5237 -0.3333
   12MOL0     H 1624   4.870   8.722   0.777 -0.4780  0.4010  0.4228
   12MOL0     H 1625   4.845   8.891   0.819 -2.7350  0.2944 -3.6515
   12MOL0     H 1626   5.120   8.756   0.735  0.7453  1.1053 -0.3459
   12MOL0     H 1627   5.077   8.806   0.901  1.4825  5.8804  1.6840
   12MOL0     H 1628   5.146   8.983   0.673  2.6173 -1.1002 -0.2301
   12MOL0     H 1629   5.053   9.036   0.823 -0.3431  0.0585 -0.0586
   12MOL0     H 1630   5.347   8.948   0.812 -0.3475  1.1539 -1.5302
   12MOL0     H 1631   5.241   8.921   0.951 -0.0911  1.0466  0.2720
   12MOL0     H 1632   5.193   9.155   0.974  0.0275  1.7950 -2.1204
   12MOL0     H 1633   5.264   9.186   0.818  1.2409 -0.2240 -0.4538
   12MOL0     H 1634   5.440   9.268   0.966 -0.0622 -0.4075 -2.5688
   12MOL0     H 1635   5.487   9.098   0.952  0.6476  0.0821 -0.5023
   12MOL0     H 1636   4.551   8.644   0.669  0.6303  0.6361 -1.4189
   12MOL0     H 1637   4.528   8.445   0.829 -0.7226 -3.3221 -1.0608
   12MOL0     H 1638   4.698   8.097   1.010  2.1906 -1.2738  0.9548
   12MOL0     H 1639   4.669   7.915   1.159  2.5020  3.0958 -1.3291
   12MOL0     H 1640   3.973   6.922   0.072 -1.0273  6.2639  0.4221
   12MOL0     H 1641   4.158   6.850  -0.079 -1.1510 -0.4365  0.5372
   12MOL0     H 1642   4.357   6.740  -0.252 -0.7242  0.5619  0.2304
   12MOL0     H 1643   4.445   6.667  -0.478  0.9863 -2.4688 -0.0573
   12MOL0     H 1644   4.748   6.379  -0.531 -1.9089 -0.9602  3.1572
   12MOL0     H 1645   4.573   6.415  -0.527  1.0078 -0.1208  0.8208
   12MOL0     H 1646   4.630   6.338  -0.760  2.1033 -0.7231  1.7343
   12MOL0     H 1647   4.745   6.474  -0.777 -0.6346 -1.8325 -2.3967
   12MOL0     H 1648   4.451   6.494  -0.720  1.1469  0.8490 -1.5224
   12MOL0     H 1649   4.556   6.638  -0.745 -2.5213  0.8855 -1.4931
   12MOL0     H 1650   4.518   6.440  -0.963 -0.3621 -0.0997  0.3461
   12MOL0     H 1651   4.583   6.604  -0.972 -0.5691  1.8949  1.2486
   12MOL0     H 1652   4.205   6.730  -1.002  0.0005  0.0014 -0.8884
   12MOL0     H 1653   4.803   6.537  -0.292 -0.8096 -1.3653  0.8492
   12MOL0     H 1654   4.738   6.547   0.016  0.4265  0.7511  2.5567
   12MOL0     H 1655   4.851   6.616  -0.090  0.1414  0.8541 -2.4565
   12MOL0     H 1656   4.759   6.727   0.010  1.7991 -1.2349  0.4511
   13MOL0     O 1657   5.020   4.623   6.797  0.0286 -0.4662  1.1416
   13MOL0     C 1658   4.901   4.660   6.782 -0.6034 -0.1234 -0.3492
   13MOL0     O 1659   4.829   4.720   6.885 -0.4651  0.1351 -0.0734
   13MOL0     C 1660   4.888   4.729   7.003 -0.3158 -0.1260 -0.4939
   13MOL0     C 1661   4.998   4.817   7.031 -0.2664  0.7423 -0.9130
   13MOL0     C 1662   5.074   4.802   7.149 -0.1717 -0.5022  0.5499
   13MOL0     C 1663   5.022   4.734   7.260 -0.2136  0.2572  0.3753
   13MOL0     O 1664   5.087   4.723   7.381 -0.0846  0.7550  0.0631
   13MOL0     C 1665   5.061   4.608   7.467 -0.7741  0.4101  0.3547
   13MOL0     C 1666   5.001   4.666   7.598  0.1054 -0.2699 -0.6838
   13MOL0     C 1667   5.095   4.713   7.718 -0.9559 -0.3932  0.5729
   13MOL0     C 1668   5.185   4.824   7.675 -0.0684  0.1269 -0.8189
   13MOL0     C 1669   5.261   4.889   7.785  0.3819 -0.6330 -0.0672
   13MOL0     C 1670   5.351   4.793   7.858  0.0083  0.5742  0.4438
   13MOL0     C 1671   5.450   4.847   7.966  0.1342 -0.0149  0.5688
   13MOL0     C 1672   5.382   4.956   8.053 -0.1641 -0.9824  0.1485
   13MOL0     N 1673   5.290   4.893   8.150  0.7474 -0.4139  0.1816
   13MOL0     C 1674   5.150   4.909   8.144  0.9894  0.3447 -0.3618
   13MOL0     C 1675   5.107   4.867   8.269  0.3705 -0.9065 -0.2422
   13MOL0     C 1676   4.967   4.865   8.318 -0.4689 -0.0671  0.3433
   13MOL0     C 1677   4.882   4.759   8.240 -1.0110 -0.4430 -0.7334
   13MOL0     C 1678   4.741   4.751   8.289  0.3227  0.1819 -0.5924
   13MOL0     C 1679   4.658   4.869   8.259  0.8587 -0.4765  0.8760
   13MOL0     O 1680   4.664   4.972   8.351 -0.3491  0.0833 -0.7177
   13MOL0     C 1681   4.603   5.089   8.320 -0.1242  0.5897  0.1593
   13MOL0     C 1682   4.493   5.093   8.236 -0.6038 -0.6801 -0.3100
   13MOL0     C 1683   4.435   5.213   8.205 -0.6473  1.1272  0.1385
   13MOL0     C 1684   4.306   5.201   8.126 -0.7306  0.6039  0.1610
   13MOL0     C 1685   4.476   5.336   8.257 -0.0181  0.3936  0.1122
   13MOL0     C 1686   4.406   5.464   8.269  0.0307  0.1474 -0.1611
   13MOL0     O 1687   4.285   5.479   8.186  0.0180 -1.1658  0.2641
   13MOL0     C 1688   4.224   5.595   8.185  0.1401 -0.6441  0.0188
   13MOL0     C 1689   4.181   5.664   8.306  0.4605 -0.1631 -0.0223
   13MOL0     C 1690   4.131   5.793   8.299 -0.1777 -0.1418  0.4606
   13MOL0     C 1691   4.096   5.843   8.177 -0.3712  0.6645 -0.5878
   13MOL0     O 1692   4.018   5.955   8.158  0.4322  0.1909 -1.2190
   13MOL0     C 1693   4.070   6.077   8.207  0.5259  0.2375  0.3619
   13MOL0     C 1694   3.975   6.195   8.205  0.4131 -0.1011 -0.3768
   13MOL0     C 1695   3.864   6.180   8.307  0.4675  0.3963 -0.3121
   13MOL0     C 1696   3.776   6.295   8.323 -0.5411 -0.1905  0.3806
   13MOL0     C 1697   3.634   6.267   8.385 -0.2229 -0.4861  0.4290
   13MOL0     C 1698   3.531   6.197   8.284  1.1000  0.4303 -0.2635
   13MOL0     C 1699   3.400   6.152   8.355  0.0405 -0.0217  0.6646
   13MOL0     C 1700   3.289   6.119   8.255  0.4877 -0.2143  0.2544
   13MOL0    Cl 1701   3.162   5.999   8.306  0.0105  0.4814  0.1905
   13MOL0     C 1702   4.122   5.773   8.057 -0.3553  0.1746  0.7674
   13MOL0     C 1703   4.198   5.656   8.058  0.5817  0.1032  0.1392
   13MOL0     O 1704   4.455   5.555   8.341 -0.1733  0.3000 -0.1349
   13MOL0     C 1705   4.593   5.327   8.331 -0.7835 -0.1533  0.7693
   13MOL0     C 1706   4.659   5.207   8.360 -0.2853 -0.3096 -0.3841
   13MOL0     N 1707   5.218   4.819   8.342 -0.3987 -0.3510 -0.2132
   13MOL0     N 1708   5.325   4.835   8.268 -0.3369 -0.1518  0.1511
   13MOL0     C 1709   4.892   4.682   7.241  0.6234 -0.1444 -0.0748
   13MOL0     C 1710   4.829   4.671   7.118  0.6817  0.0723 -0.1528
   13MOL0     C 1711   4.828   4.648   6.649  0.5020  0.2928 -0.9036
   13MOL0     C 1712   4.714   4.736   6.633 -0.4419 -0.4183  0.2489
   13MOL0     C 1713   4.633   4.719   6.515  0.3753  0.0497 -0.1126
   13MOL0     C 1714   4.669   4.609   6.422  0.6144 -0.3388 -0.3513
   13MOL0     O 1715   4.595   4.580   6.307  0.1909  0.0083  0.3893
   13MOL0     C 1716   4.462   4.575   6.322  0.4159 -0.4324 -1.0190
   13MOL0     C 1717   4.399   4.518   6.201  0.6018  0.3607 -0.7272
   13MOL0     C 1718   4.376   4.610   6.085 -0.2297 -0.7519  0.4322
   13MOL0     C 1719   4.301   4.538   5.976  0.8626 -0.2237  0.0993
   13MOL0     C 1720   4.160   4.531   6.013  0.2091  0.7803 -0.7539
   13MOL0     C 1721   4.040   4.534   6.031 -0.6591 -0.7632  0.2408
   13MOL0     C 1722   4.787   4.536   6.447 -0.0559  0.1320  1.0948
   13MOL0     C 1723   4.863   4.547   6.560 -0.4203 -0.1222  0.0140
   13MOL0     C 1724   4.966   4.441   6.579  0.5229  0.2759  0.5434
   13MOL0     H 1725   5.013   4.892   6.953 -2.9700 -0.3075 -2.6144
   13MOL0     H 1726   5.171   4.847   7.165  0.2974 -1.4674  0.4495
   13MOL0     H 1727   5.163   4.570   7.474 -1.6009 -1.5572  4.1582
   13MOL0     H 1728   4.995   4.531   7.425  0.8650 -2.6813  2.9631
   13MOL0     H 1729   4.948   4.758   7.574 -1.8239 -0.7580  1.3675
   13MOL0     H 1730   4.929   4.592   7.634 -0.8759  1.2211  0.5590
   13MOL0     H 1731   5.039   4.753   7.803 -1.7116  1.0550 -0.5556
   13MOL0     H 1732   5.151   4.625   7.750  4.4005  2.4128  0.0825
   13MOL0     H 1733   5.261   4.771   7.618  2.6021 -0.5147  2.9917
   13MOL0     H 1734   5.134   4.893   7.608  1.4116  0.5522 -1.5458
   13MOL0     H 1735   5.191   4.942   7.850 -0.3278  0.8130 -1.9265
   13MOL0     H 1736   5.316   4.964   7.727 -3.3195  0.9413 -1.8601
   13MOL0     H 1737   5.287   4.718   7.906  0.9898 -0.4862  0.1738
   13MOL0     H 1738   5.408   4.736   7.783  1.4370  1.1909  1.0144
   13MOL0     H 1739   5.536   4.889   7.913 -1.5529  2.9051 -0.0893
   13MOL0     H 1740   5.486   4.763   8.026  1.9047 -0.4513 -0.9966
   13MOL0     H 1741   5.454   5.002   8.122 -0.5943 -5.0000  3.7415
   13MOL0     H 1742   5.343   5.035   7.989  2.0346 -0.8070 -1.0635
   13MOL0     H 1743   5.089   4.943   8.062  3.0448 -0.6296 -2.4005
   13MOL0     H 1744   4.916   4.957   8.289 -3.2707 -1.3607  0.7647
   13MOL0     H 1745   4.967   4.857   8.427  1.8976  3.0839  0.7190
   13MOL0     H 1746   4.876   4.778   8.132 -1.4367 -0.5917 -0.7364
   13MOL0     H 1747   4.935   4.664   8.243 -2.2413 -1.1352  2.1901
   13MOL0     H 1748   4.693   4.667   8.239 -0.9965 -0.2135  1.2498
   13MOL0     H 1749   4.738   4.731   8.396 -1.2476 -4.0998 -1.2595
   13MOL0     H 1750   4.681   4.906   8.158 -1.4170 -0.5058  0.2911
   13MOL0     H 1751   4.554   4.836   8.258  0.8757 -0.5354  0.1343
   13MOL0     H 1752   4.422   5.016   8.209 -1.3443  0.1498 -0.7770
   13MOL0     H 1753   4.294   5.105   8.074  1.4124 -0.6439  1.7944
   13MOL0     H 1754   4.315   5.281   8.052  3.4470 -0.0646 -0.2927
   13MOL0     H 1755   4.228   5.224   8.199 -0.8806  2.0907 -0.4484
   13MOL0     H 1756   4.210   5.618   8.400  0.9140  0.4357  0.1348
   13MOL0     H 1757   4.108   5.843   8.392  1.1141 -0.4068  0.9448
   13MOL0     H 1758   4.091   6.053   8.312  0.2438 -1.3208  0.0861
   13MOL0     H 1759   4.151   6.113   8.144  1.0868 -0.3460  0.7426
   13MOL0     H 1760   4.024   6.292   8.221 -1.7310  1.2047 -1.3440
   13MOL0     H 1761   3.927   6.211   8.109 -2.4035 -1.2276  0.7558
   13MOL0     H 1762   3.911   6.158   8.403 -0.3850  1.3601  0.3533
   13MOL0     H 1763   3.800   6.099   8.270  1.0129  0.6867 -1.9625
   13MOL0     H 1764   3.747   6.333   8.224 -4.1496 -1.5898  0.7648
   13MOL0     H 1765   3.808   6.367   8.399 -0.3619 -1.3099  1.3934
   13MOL0     H 1766   3.665   6.196   8.461  0.9727 -0.0528  0.3553
   13MOL0     H 1767   3.590   6.360   8.423 -1.0978  1.3948 -4.4441
   13MOL0     H 1768   3.570   6.107   8.235  1.8669  0.7403 -0.2360
   13MOL0     H 1769   3.495   6.265   8.206 -1.1272 -0.2456  0.1072
   13MOL0     H 1770   3.365   6.232   8.421 -1.4624 -0.3109  0.2448
   13MOL0     H 1771   3.433   6.070   8.419  0.4304 -0.6476 -0.3084
   13MOL0     H 1772   3.323   6.082   8.158 -1.4524 -0.5939 -0.3380
   13MOL0     H 1773   3.249   6.216   8.224 -1.5849 -1.2122 -0.3715
   13MOL0     H 1774   4.100   5.807   7.957  0.8680 -2.8424 -0.6541
   13MOL0     H 1775   4.231   5.615   7.963 -1.7653  1.1444 -1.2373
   13MOL0     H 1776   4.645   5.414   8.372  2.3299 -1.2125 -0.5910
   13MOL0     H 1777   4.734   5.204   8.437 -2.1099  1.3295  1.5884
   13MOL0     H 1778   4.836   4.638   7.323  0.6274  1.7876  1.0373
   13MOL0     H 1779   4.740   4.610   7.107  2.3388 -2.4641 -0.1869
   13MOL0     H 1780   4.695   4.809   6.710  3.6084  1.6935 -0.4740
   13MOL0     H 1781   4.549   4.779   6.481 -0.6792 -1.2667  0.1133
   13MOL0     H 1782   4.441   4.520   6.414 -0.6579  2.7748  0.8182
   13MOL0     H 1783   4.434   4.678   6.346 -0.0580 -1.2512  2.5195
   13MOL0     H 1784   4.299   4.490   6.235  1.0997 -0.5367  0.0580
   13MOL0     H 1785   4.450   4.431   6.158  2.6278  1.3703 -0.5227
   13MOL0     H 1786   4.336   4.706   6.118  2.6968  0.6997  0.0634
   13MOL0     H 1787   4.474   4.635   6.043 -1.0704  0.5820 -0.8030
   13MOL0     H 1788   4.336   4.435   5.981 -1.9150 -1.1823  2.1023
   13MOL0     H 1789   4.312   4.576   5.874 -0.8555 -2.3554 -0.9409
   13MOL0     H 1790   3.936   4.549   6.054  0.2378  3.2936  2.6448
   13MOL0     H 1791   4.814   4.470   6.365  0.5369 -0.7399  1.9836
   13MOL0     H 1792   4.954   4.393   6.677 -2.3888  0.9926  0.6314
   13MOL0     H 1793   4.967   4.363   6.502  2.5970 -0.4130  1.1879
   13MOL0     H 1794   5.068   4.478   6.568  0.0878  1.7472  1.3252
   14MOL0     O 1795   3.315   4.933   6.227  0.6590  0.5009 -0.2947
   14MOL0     C 1796   3.212   4.971   6.276  0.1917 -0.3153 -0.5057
   14MOL0     O 1797   3.207   5.049   6.390  0.5363  0.3694  0.7142
   14MOL0     C 1798   3.328   5.089   6.433  0.0645  0.1230 -0.2228
   14MOL0     C 1799   3.414   5.012   6.518  0.0271  0.2827  0.7294
   14MOL0     C 1800   3.530   5.069   6.571 -0.6427 -0.3262 -0.1898
   14MOL0     C 1801   3.563   5.200   6.538 -0.1305  0.3739  0.1893
   14MOL0     O 1802   3.678   5.247   6.597  0.6398 -0.3651 -0.3950
   14MOL0     C 1803   3.777   5.313   6.516  0.7463  0.6091  0.8157
   14MOL0     C 1804   3.861   5.392   6.610 -0.1652 -0.8939  0.6553
   14MOL0     C 1805   3.946   5.312   6.702 -0.1021 -1.0340  0.3657
   14MOL0     C 1806   4.033   5.407   6.794 -0.4918 -0.5840  0.6431
   14MOL0     C 1807   4.156   5.313   6.837  0.2326  0.0769  0.5408
   14MOL0     C 1808   4.256   5.390   6.913  0.1860  0.0446  0.8892
   14MOL0     C 1809   4.338   5.293   7.010  0.5194 -0.4849 -0.5877
   14MOL0     C 1810   4.437   5.356   7.114 -0.0921 -0.2235  0.3365
   14MOL0     N 1811   4.554   5.428   7.058 -0.3151  0.2405 -0.3914
   14MOL0     C 1812   4.671   5.387   7.008 -0.1082  0.3854  0.4488
   14MOL0     C 1813   4.735   5.496   6.950 -0.0946 -0.0746  0.5368
   14MOL0     C 1814   4.870   5.491   6.902 -0.2175 -1.2848 -0.0524
   14MOL0     C 1815   4.969   5.588   6.971  0.0592  0.4519  0.9083
   14MOL0     C 1816   4.985   5.722   6.888 -0.1624  0.8121 -0.2423
   14MOL0     C 1817   5.061   5.709   6.759 -0.4584 -0.0022 -0.0005
   14MOL0     O 1818   5.054   5.822   6.666 -0.2281 -0.1203  0.7656
   14MOL0     C 1819   5.161   5.913   6.660  0.4693 -0.8432  0.5820
   14MOL0     C 1820   5.138   6.010   6.561 -0.6041 -0.2160 -0.7510
   14MOL0     C 1821   5.229   6.110   6.540 -0.6307 -0.3377  0.2799
   14MOL0     C 1822   5.184   6.213   6.438 -0.9398  0.0361  0.5055
   14MOL0     C 1823   5.359   6.111   6.610  0.6920  0.3598  0.7415
   14MOL0     C 1824   5.465   6.203   6.580 -0.2875  0.6066  0.2147
   14MOL0     O 1825   5.575   6.193   6.652  0.2668 -0.6574 -0.0868
   14MOL0     C 1826   5.678   6.282   6.627 -0.4272  0.3741  0.6442
   14MOL0     C 1827   5.810   6.243   6.630  0.6584 -0.1884 -0.1192
   14MOL0     C 1828   5.923   6.319   6.600  0.3206 -0.7051 -0.5300
   14MOL0     C 1829   5.895   6.455   6.563 -0.1732 -0.1040  0.3002
   14MOL0     O 1830   6.000   6.525   6.530 -0.6963 -0.3928 -0.2731
   14MOL0     C 1831   6.013   6.645   6.602 -0.0277 -0.8772 -0.7653
   14MOL0     C 1832   6.149   6.724   6.577 -0.2657 -0.1937  0.0311
   14MOL0     C 1833   6.273   6.638   6.600 -0.0146 -0.2211 -0.0695
   14MOL0     C 1834   6.304   6.543   6.477  0.3428 -0.8819 -0.4829
   14MOL0     C 1835   6.453   6.505   6.458  0.8546  0.0331 -1.1803
   14MOL0     C 1836   6.509   6.416   6.576 -0.0001 -0.9916  0.5142
   14MOL0     C 1837   6.658   6.368   6.546 -0.1620 -0.3594 -0.2835
   14MOL0     C 1838   6.703   6.303   6.681  0.7245  0.4268  0.1275
   14MOL0    Cl 1839   6.608   6.149   6.709 -0.2872  0.4073 -0.2461
   14MOL0     C 1840   5.765   6.496   6.575 -0.3999  0.7187  0.2212
   14MOL0     C 1841   5.655   6.416   6.614  0.3606  0.7413  0.1711
   14MOL0     O 1842   5.460   6.250   6.465  0.1225  0.1327  0.3099
   14MOL0     C 1843   5.385   6.008   6.697  0.5425  0.7608 -0.3933
   14MOL0     C 1844   5.290   5.907   6.723 -0.0906 -0.9818 -0.0146
   14MOL0     N 1845   4.655   5.604   6.959  0.5059  0.3612  0.1665
   14MOL0     N 1846   4.550   5.563   7.029  0.2000  0.0598  0.8379
   14MOL0     C 1847   3.491   5.274   6.445  0.2291  0.4549 -0.5546
   14MOL0     C 1848   3.377   5.212   6.387  0.1277 -0.0725  0.1894
   14MOL0     C 1849   3.093   4.923   6.212 -0.5650 -0.1245 -0.4544
   14MOL0     C 1850   2.992   5.011   6.190  0.1537 -0.2972  0.3456
   14MOL0     C 1851   2.875   4.970   6.127  0.6055 -0.1170 -0.0473
   14MOL0     C 1852   2.859   4.839   6.078  0.3792 -0.0290 -0.2506
   14MOL0     O 1853   2.754   4.786   6.014  0.4329  0.1982 -0.1182
   14MOL0     C 1854   2.683   4.886   5.937 -0.9139 -1.0803 -0.5703
   14MOL0     C 1855   2.606   4.807   5.832  0.2292 -0.1798  0.0484
   14MOL0     C 1856   2.499   4.905   5.777  0.5571 -1.0403 -0.6688
   14MOL0     C 1857   2.479   4.891   5.628 -0.5561 -0.6608 -0.1717
   14MOL0     C 1858   2.404   4.776   5.593 -0.7066 -0.1120  0.4117
   14MOL0     C 1859   2.310   4.626   5.519  0.0015  0.0050 -0.0889
   14MOL0     C 1860   2.960   4.742   6.108  0.3401  0.1506  0.3910
   14MOL0     C 1861   3.077   4.783   6.172 -1.0162 -0.9611 -1.1671
   14MOL0     C 1862   3.173   4.669   6.204 -0.7867  0.1765  0.1679
   14MOL0     H 1863   3.386   4.914   6.556  1.3378  0.0902  1.2416
   14MOL0     H 1864   3.580   5.009   6.647 -0.7070 -2.1558 -1.5031
   14MOL0     H 1865   3.746   5.384   6.439  2.3461  0.1646 -0.2826
   14MOL0     H 1866   3.829   5.234   6.460 -1.2470 -1.8301  2.1849
   14MOL0     H 1867   3.923   5.462   6.553 -1.1818 -1.5881 -1.3842
   14MOL0     H 1868   3.800   5.457   6.674 -0.9408 -0.3061 -0.6363
   14MOL0     H 1869   3.896   5.236   6.763 -0.9746 -1.0403 -0.3360
   14MOL0     H 1870   4.017   5.258   6.640  1.7064  2.3241 -0.7720
   14MOL0     H 1871   4.067   5.488   6.729 -3.4133  0.9521  0.8750
   14MOL0     H 1872   3.978   5.451   6.877 -1.3906  2.6246 -1.4671
   14MOL0     H 1873   4.211   5.255   6.762 -1.3242  1.5213 -1.8639
   14MOL0     H 1874   4.113   5.242   6.909 -2.3610  2.3291  1.3828
   14MOL0     H 1875   4.325   5.442   6.846 -0.4624 -1.4227 -1.0278
   14MOL0     H 1876   4.206   5.458   6.982 -2.8394  0.7140 -1.7326
   14MOL0     H 1877   4.410   5.241   6.946  2.6833  0.9834  0.5302
   14MOL0     H 1878   4.274   5.225   7.065  1.7841 -2.3842 -1.3638
   14MOL0     H 1879   4.373   5.414   7.181 -0.8079 -0.9304  0.2806
   14MOL0     H 1880   4.487   5.272   7.164  6.7026  1.0596 -3.0894
   14MOL0     H 1881   4.716   5.288   7.017  0.1247  0.6047  1.9469
   14MOL0     H 1882   4.863   5.513   6.795 -0.0224 -3.2464 -0.4998
   14MOL0     H 1883   4.915   5.392   6.909  0.4683 -0.8364  3.4569
   14MOL0     H 1884   4.923   5.615   7.067 -1.2148 -1.8862  1.0242
   14MOL0     H 1885   5.064   5.538   6.994 -0.5716  0.0787  2.8769
   14MOL0     H 1886   4.886   5.758   6.858 -1.3110  0.3604  2.6211
   14MOL0     H 1887   5.032   5.799   6.950  2.5139 -0.4489 -0.5454
   14MOL0     H 1888   5.167   5.687   6.776 -0.3730  1.0615  0.9661
   14MOL0     H 1889   5.021   5.627   6.699 -0.1696  1.1746 -1.8695
   14MOL0     H 1890   5.046   6.000   6.505 -0.8869 -2.6961  0.0751
   14MOL0     H 1891   5.255   6.192   6.356 -0.5593 -0.5648  0.9767
   14MOL0     H 1892   5.213   6.312   6.475  2.0182  0.1354 -1.6536
   14MOL0     H 1893   5.079   6.205   6.410 -0.8506  2.3650 -0.7201
   14MOL0     H 1894   5.838   6.143   6.662  3.7625  0.5284 -0.2548
   14MOL0     H 1895   6.020   6.271   6.603 -0.4013 -2.2093  0.0650
   14MOL0     H 1896   5.934   6.705   6.555 -2.4574 -3.7951 -0.7359
   14MOL0     H 1897   5.987   6.630   6.707  2.9158 -2.7186 -0.1875
   14MOL0     H 1898   6.159   6.761   6.475  0.0012  0.0869  0.1611
   14MOL0     H 1899   6.138   6.808   6.646  0.6708 -1.8621  2.3459
   14MOL0     H 1900   6.245   6.568   6.680 -2.0691  0.8239  0.1674
   14MOL0     H 1901   6.359   6.703   6.622 -0.3074  0.0669  0.2380
   14MOL0     H 1902   6.283   6.599   6.385  0.9383  1.4368  0.7272
   14MOL0     H 1903   6.251   6.447   6.478  1.1160 -1.3226 -0.4567
   14MOL0     H 1904   6.462   6.451   6.363 -2.7962 -3.1175  0.0093
   14MOL0     H 1905   6.504   6.602   6.456  1.3470 -0.2204 -1.1394
   14MOL0     H 1906   6.451   6.324   6.578  2.3298 -2.5255  1.0719
   14MOL0     H 1907   6.510   6.468   6.672  2.0537  1.1891 -0.5675
   14MOL0     H 1908   6.731   6.447   6.529 -1.6522  1.5570  1.5861
   14MOL0     H 1909   6.665   6.301   6.460  3.6391  1.1994 -1.3798
   14MOL0     H 1910   6.679   6.380   6.755 -0.2902  1.3943 -1.1660
   14MOL0     H 1911   6.811   6.287   6.689  0.9786  1.2438 -1.3214
   14MOL0     H 1912   5.750   6.599   6.542  0.5323  0.8220  0.0973
   14MOL0     H 1913   5.554   6.456   6.608  0.3480  0.4729 -2.1472
   14MOL0     H 1914   5.481   5.995   6.748 -0.2152 -1.1266  0.6829
   14MOL0     H 1915   5.325   5.821   6.778  0.4516 -0.4374  0.5136
   14MOL0     H 1916   3.515   5.380   6.443  0.2268  0.4471 -2.0978
   14MOL0     H 1917   3.322   5.260   6.306 -1.3347 -1.1810  0.4751
   14MOL0     H 1918   3.004   5.111   6.232 -2.9342 -0.7747  2.7146
   14MOL0     H 1919   2.804   5.051   6.120  0.8267  0.0013 -1.2783
   14MOL0     H 1920   2.610   4.931   6.005  0.6933 -0.0526  0.5451
   14MOL0     H 1921   2.749   4.953   5.883  0.4259 -1.0482  1.0381
   14MOL0     H 1922   2.558   4.719   5.877  1.6660  0.1856  2.5077
   14MOL0     H 1923   2.669   4.768   5.751  0.6261  1.9426 -0.7186
   14MOL0     H 1924   2.403   4.898   5.828  0.3810 -0.8858 -0.9747
   14MOL0     H 1925   2.538   5.004   5.800  2.1133 -1.9763  0.9361
   14MOL0     H 1926   2.574   4.868   5.579 -2.0652 -0.1262 -3.6481
   14MOL0     H 1927   2.428   4.982   5.594 -0.8602 -0.5640  0.5320
   14MOL0     H 1928   2.255   4.543   5.479 -2.3073  1.9058 -1.0715
   14MOL0     H 1929   2.941   4.637   6.087 -2.3895  0.8983 -1.4364
   14MOL0     H 1930   3.228   4.630   6.118 -1.8235 -1.8714  0.3802
   14MOL0     H 1931   3.249   4.693   6.279 -0.3547 -0.6039 -0.0108
   14MOL0     H 1932   3.108   4.589   6.239 -0.8917  1.1478  2.3924
   15MOL0     O 1933   2.560   9.845   3.854  0.1269 -0.7327  0.6848
   15MOL0     C 1934   2.587   9.837   3.733 -0.3807 -0.1042  0.2635
   15MOL0     O 1935   2.674   9.925   3.674 -0.0767  0.2302  0.1143
   15MOL0     C 1936   2.659  10.055   3.714 -0.7629  0.2722  0.4901
   15MOL0     C 1937   2.737  10.107   3.819  0.7240 -0.7540 -0.3310
   15MOL0     C 1938   2.735  10.239   3.855 -0.0187  0.1946 -0.2044
   15MOL0     C 1939   2.644  10.320   3.795  0.7517  0.2794 -0.7730
   15MOL0     O 1940   2.637  10.449   3.826  0.3749 -0.4257 -0.8590
   15MOL0     C 1941   2.520  10.481   3.906  0.1170 -0.6043  0.0361
   15MOL0     C 1942   2.482  10.629   3.892 -0.4776 -0.3364  0.6055
   15MOL0     C 1943   2.599  10.725   3.933 -0.9324 -0.2402 -0.1793
   15MOL0     C 1944   2.657  10.701   4.078  0.7705 -0.1651  0.1317
   15MOL0     C 1945   2.805  10.741   4.102 -0.5656 -0.7488 -0.9101
   15MOL0     C 1946   2.848  10.704   4.243 -0.5132 -0.1207  0.2517
   15MOL0     C 1947   3.001  10.711   4.257 -0.1207  0.2038 -0.5992
   15MOL0     C 1948   3.039  10.674   4.398 -0.8759 -0.5230 -0.4069
   15MOL0     N 1949   3.184  10.668   4.414 -0.3318  0.0868  0.7571
   15MOL0     C 1950   3.264  10.586   4.343 -0.1478 -0.3419  0.6224
   15MOL0     C 1951   3.389  10.643   4.347 -0.1214 -0.1360 -0.4677
   15MOL0     C 1952   3.512  10.595   4.280 -0.3233  0.3645 -0.6746
   15MOL0     C 1953   3.590  10.492   4.361 -0.5271  0.8006  0.2468
   15MOL0     C 1954   3.613  10.523   4.515  0.2908 -0.2793 -0.1902
   15MOL0     C 1955   3.713  10.445   4.587 -0.0514 -0.9133  0.4252
   15MOL0     O 1956   3.823  10.401   4.502 -0.3460 -1.0375 -0.5028
   15MOL0     C 1957   3.869  10.278   4.532  0.3392  0.0298  0.0256
   15MOL0     C 1958   3.898  10.203   4.425 -1.0516  0.6889  0.7492
   15MOL0     C 1959   3.943  10.068   4.436  0.5786  0.0116  0.5523
   15MOL0     C 1960   3.977   9.996   4.307  0.0589 -0.6967 -0.6525
   15MOL0     C 1961   3.969  10.019   4.570  0.5425  0.3320  0.2046
   15MOL0     C 1962   4.025   9.881   4.586 -0.3069  0.3476  0.3665
   15MOL0     O 1963   4.104   9.863   4.702 -0.2994  0.3052  0.2566
   15MOL0     C 1964   4.185   9.751   4.708  0.2092 -0.1891 -0.5106
   15MOL0     C 1965   4.325   9.763   4.697 -0.0202  0.1982  0.2168
   15MOL0     C 1966   4.397   9.648   4.723  0.0639 -0.9343 -0.4311
   15MOL0     C 1967   4.342   9.522   4.740  0.4816  0.5071 -0.2615
   15MOL0     O 1968   4.423   9.419   4.777  0.1583  0.2105  0.6398
   15MOL0     C 1969   4.521   9.388   4.671  0.4196  0.6388  0.0230
   15MOL0     C 1970   4.506   9.240   4.623 -0.5271  0.0564  0.0151
   15MOL0     C 1971   4.496   9.134   4.737  0.5920 -0.6801  0.0793
   15MOL0     C 1972   4.559   8.997   4.696  0.3449 -0.0833  0.9194
   15MOL0     C 1973   4.597   8.899   4.813 -0.3224  0.7636  0.2600
   15MOL0     C 1974   4.477   8.805   4.833 -0.1559 -0.9705 -0.4715
   15MOL0     C 1975   4.495   8.689   4.932  1.0398 -0.3062  0.3175
   15MOL0     C 1976   4.627   8.620   4.918  0.5717 -0.0554  0.1093
   15MOL0    Cl 1977   4.614   8.469   5.009  0.0589  0.0262  0.0952
   15MOL0     C 1978   4.203   9.506   4.735 -0.8734  0.1749  0.9561
   15MOL0     C 1979   4.128   9.626   4.718  0.8079  0.6163  0.9224
   15MOL0     O 1980   4.014   9.793   4.502 -0.3560 -0.5040 -0.0312
   15MOL0     C 1981   3.941  10.098   4.689  0.4586 -0.2472  0.4261
   15MOL0     C 1982   3.889  10.230   4.664  0.3552  0.1342 -0.4966
   15MOL0     N 1983   3.379  10.756   4.419  0.4327  0.2130  0.7235
   15MOL0     N 1984   3.264  10.772   4.468  0.4461 -0.3152 -0.3436
   15MOL0     C 1985   2.559  10.265   3.692  0.7950  0.2635  0.9301
   15MOL0     C 1986   2.565  10.132   3.648 -0.8906 -0.5888  0.1072
   15MOL0     C 1987   2.526   9.742   3.641 -1.0120 -0.7204  1.8470
   15MOL0     C 1988   2.515   9.774   3.505 -0.7070  0.2504 -0.5217
   15MOL0     C 1989   2.466   9.681   3.410  0.5745  0.5917 -0.2679
   15MOL0     C 1990   2.405   9.564   3.451 -0.0784  0.1225  0.7440
   15MOL0     O 1991   2.345   9.467   3.368 -0.0776  0.3202  0.5961
   15MOL0     C 1992   2.347   9.466   3.227  0.0424 -0.0113 -0.3908
   15MOL0     C 1993   2.484   9.430   3.159  0.3870  0.1168  0.0243
   15MOL0     C 1994   2.520   9.282   3.181 -0.6443 -1.3005 -0.5260
   15MOL0     C 1995   2.436   9.191   3.100 -0.4114  0.6852 -0.6870
   15MOL0     C 1996   2.477   9.200   2.960 -0.3014 -0.6693  0.5552
   15MOL0     C 1997   2.502   9.212   2.842 -0.0267 -0.2498 -1.1369
   15MOL0     C 1998   2.422   9.534   3.583  0.7574 -0.5243  0.3205
   15MOL0     C 1999   2.477   9.606   3.679  0.3084 -0.7505  0.0421
   15MOL0     C 2000   2.471   9.563   3.822  0.0333 -0.6124 -0.7486
   15MOL0     H 2001   2.811  10.049   3.873 -1.3956 -0.4417  3.1899
   15MOL0     H 2002   2.796  10.271   3.938 -0.1135 -2.9416  1.2058
   15MOL0     H 2003   2.529  10.443   4.008 -1.7038 -1.7025 -0.1692
   15MOL0     H 2004   2.434  10.430   3.862 -0.8674  2.1480 -1.5343
   15MOL0     H 2005   2.465  10.645   3.785  0.4484  2.2356  0.7787
   15MOL0     H 2006   2.398  10.664   3.953 -0.1488  0.2666  0.7101
   15MOL0     H 2007   2.678  10.729   3.858 -0.8122 -1.2602 -0.1115
   15MOL0     H 2008   2.554  10.824   3.921 -1.1582 -0.4173 -0.8433
   15MOL0     H 2009   2.593  10.759   4.145  1.2609 -1.3044  1.6438
   15MOL0     H 2010   2.637  10.600   4.114 -0.2870 -0.6014 -1.5711
   15MOL0     H 2011   2.820  10.843   4.067 -0.7179 -1.4285 -3.0891
   15MOL0     H 2012   2.880  10.690   4.041  1.3920  1.0540 -0.1341
   15MOL0     H 2013   2.806  10.767   4.323  1.4296  1.1721  0.3349
   15MOL0     H 2014   2.818  10.602   4.268 -3.2535  0.7395  0.8839
   15MOL0     H 2015   3.031  10.814   4.235 -0.3836 -0.2436 -3.5121
   15MOL0     H 2016   3.052  10.649   4.183  1.9864 -0.0945  1.0125
   15MOL0     H 2017   3.000  10.747   4.469  1.6669 -0.1947  0.7472
   15MOL0     H 2018   3.002  10.572   4.407  1.1646 -1.2355  0.6498
   15MOL0     H 2019   3.239  10.493   4.293  1.9587 -1.6484  1.8053
   15MOL0     H 2020   3.583  10.675   4.261  1.0049 -0.5663  0.2045
   15MOL0     H 2021   3.481  10.560   4.181 -0.8983  2.3270 -1.2226
   15MOL0     H 2022   3.547  10.392   4.349  1.1377  0.1497 -0.6762
   15MOL0     H 2023   3.683  10.480   4.304 -1.9848  1.0156 -2.3672
   15MOL0     H 2024   3.645  10.627   4.506 -1.6239  0.3042 -0.6526
   15MOL0     H 2025   3.513  10.505   4.555 -0.8328 -0.9432 -3.0538
   15MOL0     H 2026   3.749  10.506   4.670 -0.8449  2.3980 -1.4929
   15MOL0     H 2027   3.658  10.361   4.630 -1.0353 -0.8398 -0.6589
   15MOL0     H 2028   3.884  10.235   4.322  3.4520 -0.0359 -0.2852
   15MOL0     H 2029   4.086   9.996   4.304  0.1479 -1.1792  1.3198
   15MOL0     H 2030   3.932  10.050   4.222  0.3117  0.4808 -0.0528
   15MOL0     H 2031   3.927   9.899   4.307  0.2597 -0.8030 -0.8357
   15MOL0     H 2032   4.371   9.861   4.695  0.8678  0.0802  4.3484
   15MOL0     H 2033   4.502   9.665   4.748 -0.6695  2.6857  0.7817
   15MOL0     H 2034   4.512   9.441   4.575  1.5427 -0.2139 -0.5815
   15MOL0     H 2035   4.622   9.404   4.709 -0.6986  3.4658  2.1021
   15MOL0     H 2036   4.421   9.242   4.554  0.9285  0.0591 -1.8615
   15MOL0     H 2037   4.588   9.216   4.556 -0.4042  4.9296 -1.9486
   15MOL0     H 2038   4.393   9.124   4.770  0.0187 -0.2177 -1.4712
   15MOL0     H 2039   4.559   9.182   4.813  2.8965 -2.0057 -0.8880
   15MOL0     H 2040   4.651   9.028   4.645 -0.5343 -0.5970 -1.0422
   15MOL0     H 2041   4.501   8.937   4.626 -2.2736  2.1849  0.9783
   15MOL0     H 2042   4.686   8.838   4.795  1.6099  2.9837  1.6861
   15MOL0     H 2043   4.608   8.966   4.898 -5.4078  3.0777 -0.5353
   15MOL0     H 2044   4.440   8.763   4.739 -0.4678  1.1632 -1.3586
   15MOL0     H 2045   4.391   8.862   4.870  0.0159 -0.6336 -0.5828
   15MOL0     H 2046   4.410   8.622   4.917 -1.0256  1.7895  1.8665
   15MOL0     H 2047   4.481   8.721   5.036 -0.5621  1.7920 -0.4670
   15MOL0     H 2048   4.707   8.674   4.971  1.1074 -2.0016  1.3715
   15MOL0     H 2049   4.663   8.589   4.820  3.2210  3.0293 -0.1080
   15MOL0     H 2050   4.163   9.406   4.730 -2.3441  0.7880 -2.6785
   15MOL0     H 2051   4.020   9.612   4.722  1.1893 -3.3431  2.6714
   15MOL0     H 2052   3.953  10.072   4.794 -0.8885  2.5131  1.3649
   15MOL0     H 2053   3.875  10.298   4.747 -0.3005  0.1187 -0.5887
   15MOL0     H 2054   2.488  10.335   3.648 -0.5763 -1.2944  0.5932
   15MOL0     H 2055   2.503  10.094   3.567 -1.7386  1.6587 -0.3751
   15MOL0     H 2056   2.545   9.873   3.470 -3.3174  1.6994  1.0115
   15MOL0     H 2057   2.459   9.706   3.305  0.5754  2.9492  0.2434
   15MOL0     H 2058   2.268   9.395   3.199  0.9721 -1.1684 -0.1586
   15MOL0     H 2059   2.316   9.567   3.200  0.8561  1.8891  4.7278
   15MOL0     H 2060   2.558   9.496   3.205 -0.6515 -0.2521  2.3482
   15MOL0     H 2061   2.474   9.456   3.053  0.1223  0.6676  0.1778
   15MOL0     H 2062   2.625   9.268   3.156 -0.7384 -3.2914  0.0602
   15MOL0     H 2063   2.514   9.270   3.289 -2.1560 -2.7301 -0.7207
   15MOL0     H 2064   2.334   9.221   3.126 -0.2878 -0.4103  1.2086
   15MOL0     H 2065   2.439   9.094   3.150  1.0490  1.3643  0.6132
   15MOL0     H 2066   2.508   9.233   2.737  1.2875  2.0991 -0.6613
   15MOL0     H 2067   2.377   9.438   3.609  0.9840 -1.0973 -1.2704
   15MOL0     H 2068   2.454   9.458   3.847  1.8319 -0.1166  3.3277
   15MOL0     H 2069   2.564   9.594   3.871 -1.5840 -0.4532  2.4665
   15MOL0     H 2070   2.396   9.613   3.883  1.6210  1.5144 -0.4316
   16MOL0     O 2071   8.652   9.544   7.643  0.4252  0.6747 -0.9866
   16MOL0     C 2072   8.670   9.663   7.629  0.3496  0.8195  0.0884
   16MOL0     O 2073   8.575   9.747   7.588 -0.1314  0.5691 -0.1062
   16MOL0     C 2074   8.468   9.685   7.526 -0.2805 -1.4522 -0.1861
   16MOL0     C 2075   8.486   9.658   7.394 -0.6445  0.4007  0.6059
   16MOL0     C 2076   8.376   9.603   7.321 -0.4926  0.8016  0.1202
   16MOL0     C 2077   8.254   9.563   7.380 -0.4883 -0.2798 -0.0131
   16MOL0     O 2078   8.141   9.513   7.319 -0.6306 -0.8322 -0.1554
   16MOL0     C 2079   8.146   9.515   7.173  0.1433  0.7254  1.0199
   16MOL0     C 2080   8.037   9.432   7.111 -0.3612  0.2235 -0.3615
   16MOL0     C 2081   8.062   9.285   7.133  0.3448 -0.5777 -0.0861
   16MOL0     C 2082   7.934   9.222   7.085  0.3656  0.1523  1.4675
   16MOL0     C 2083   7.953   9.065   7.084  0.0228 -0.1724  0.0574
   16MOL0     C 2084   7.820   8.989   7.088  0.2365  0.2271 -0.3074
   16MOL0     C 2085   7.836   8.838   7.079  0.1418  0.8004 -0.0189
   16MOL0     C 2086   7.698   8.775   7.064  0.0721 -0.8664  0.3826
   16MOL0     N 2087   7.705   8.632   7.074 -0.5760  0.0516 -0.3767
   16MOL0     C 2088   7.779   8.545   6.995  0.1339  0.6648 -0.0006
   16MOL0     C 2089   7.770   8.423   7.053  0.0660  0.1812  0.6378
   16MOL0     C 2090   7.854   8.307   7.007  0.1340 -0.1909  0.0773
   16MOL0     C 2091   7.828   8.269   6.858  0.6194  0.5985  0.2552
   16MOL0     C 2092   7.678   8.256   6.835  0.1262  0.1579 -0.4033
   16MOL0     C 2093   7.617   8.117   6.885 -0.6618 -0.0944  0.2613
   16MOL0     O 2094   7.524   8.071   6.781  0.1109 -0.0829 -0.0524
   16MOL0     C 2095   7.446   7.964   6.806 -0.7106 -0.6033 -0.2673
   16MOL0     C 2096   7.334   7.982   6.881 -0.0716 -0.8917 -0.0834
   16MOL0     C 2097   7.243   7.884   6.908 -0.9317  0.0856  0.6918
   16MOL0     C 2098   7.134   7.915   7.009 -0.4769  0.6191 -0.4108
   16MOL0     C 2099   7.265   7.750   6.861  0.1203  0.0067 -0.1181
   16MOL0     C 2100   7.162   7.632   6.882 -0.0784  0.1740  0.2884
   16MOL0     O 2101   7.047   7.647   6.953  0.7358 -0.1376 -0.2579
   16MOL0     C 2102   6.992   7.540   7.007 -0.2681  0.9497 -0.0635
   16MOL0     C 2103   6.986   7.535   7.147 -0.3783  0.0974 -0.2254
   16MOL0     C 2104   6.930   7.416   7.205  0.2125  0.2198 -0.1016
   16MOL0     C 2105   6.895   7.307   7.125  0.0057  0.4205 -0.0058
   16MOL0     O 2106   6.856   7.200   7.207 -0.0845 -0.2041 -0.0367
   16MOL0     C 2107   6.777   7.099   7.148 -0.0274  0.0791 -0.1234
   16MOL0     C 2108   6.633   7.157   7.129  0.0588 -0.1548 -1.2301
   16MOL0     C 2109   6.576   7.220   7.263  0.0958  0.6234  0.1966
   16MOL0     C 2110   6.482   7.130   7.347  0.0751  0.2105 -0.4106
   16MOL0     C 2111   6.457   7.189   7.480  0.0830 -0.6000  0.5351
   16MOL0     C 2112   6.358   7.114   7.559 -0.5236 -0.8098  0.5187
   16MOL0     C 2113   6.358   7.147   7.702  0.4796 -0.2954 -0.6771
   16MOL0     C 2114   6.304   7.287   7.725 -0.6629 -0.3682  0.3589
   16MOL0    Cl 2115   6.244   7.291   7.891  0.1875  0.0375  0.3925
   16MOL0     C 2116   6.888   7.319   6.987 -0.3992  0.3314  0.3122
   16MOL0     C 2117   6.939   7.432   6.928  0.3903 -0.4404  0.1826
   16MOL0     O 2118   7.209   7.524   6.838  0.2519 -0.4156  0.4360
   16MOL0     C 2119   7.371   7.744   6.762  0.3779  0.7106  0.3623
   16MOL0     C 2120   7.458   7.851   6.742  0.1172  0.6490 -0.4573
   16MOL0     N 2121   7.677   8.437   7.150  0.4278  0.4295  0.7922
   16MOL0     N 2122   7.645   8.554   7.174 -0.6936  0.2356 -0.0470
   16MOL0     C 2123   8.241   9.584   7.522 -0.3712  0.1457 -0.3495
   16MOL0     C 2124   8.345   9.659   7.589  1.1820  0.9528  0.8693
   16MOL0     C 2125   8.803   9.736   7.654  0.3875 -0.5658  0.9691
   16MOL0     C 2126   8.805   9.874   7.609 -0.6233 -0.1571 -1.1734
   16MOL0     C 2127   8.919   9.948   7.627 -0.5498 -0.0276  0.4766
   16MOL0     C 2128   9.039   9.892   7.666  0.1853  0.9040 -0.3342
   16MOL0     O 2129   9.141   9.978   7.668 -0.1635  0.0140  0.3622
   16MOL0     C 2130   9.236   9.972   7.764 -0.2868  0.2014  0.4833
   16MOL0     C 2131   9.280  10.121   7.778 -0.0734  0.7602  0.3166
   16MOL0     C 2132   9.182  10.220   7.833 -0.3960  0.9373 -0.4336
   16MOL0     C 2133   9.234  10.364   7.830 -0.3086 -0.3959  0.1650
   16MOL0     C 2134   9.139  10.453   7.911 -0.0972 -0.1402  0.5334
   16MOL0     C 2135   9.048  10.515   7.960 -0.9601 -0.6262  0.0709
   16MOL0     C 2136   9.036   9.766   7.721  0.1472  1.1333 -0.5695
   16MOL0     C 2137   8.918   9.681   7.709 -0.5860 -0.2542  0.3554
   16MOL0     C 2138   8.941   9.544   7.751 -0.4467  0.1755 -0.4975
   16MOL0     H 2139   8.576   9.676   7.337  0.5767 -1.0940  1.9541
   16MOL0     H 2140   8.395   9.576   7.218 -1.6065  3.4121 -0.8606
   16MOL0     H 2141   8.238   9.475   7.130 -0.2689 -0.2978  1.0483
   16MOL0     H 2142   8.137   9.620   7.145 -4.0182  0.5987  1.2390
   16MOL0     H 2143   7.945   9.468   7.158 -0.1348  0.6015 -0.2030
   16MOL0     H 2144   8.035   9.456   7.004  3.3494  3.7176  0.1248
   16MOL0     H 2145   8.156   9.248   7.093  1.1639 -2.4653  3.2004
   16MOL0     H 2146   8.059   9.265   7.241 -1.2057 -0.9573 -0.1788
   16MOL0     H 2147   7.839   9.249   7.132 -0.3428 -0.4424  0.4371
   16MOL0     H 2148   7.921   9.244   6.978 -0.7045  0.4539  1.6488
   16MOL0     H 2149   8.003   9.037   7.177  1.2339 -1.8956 -1.0616
   16MOL0     H 2150   8.016   9.038   6.999  0.7389 -0.1885  0.5880
   16MOL0     H 2151   7.784   9.013   7.188  0.5587 -0.3798 -0.0406
   16MOL0     H 2152   7.753   9.026   7.010 -1.1657 -1.2090  0.1701
   16MOL0     H 2153   7.888   8.796   7.166  2.5614 -2.1147 -2.6335
   16MOL0     H 2154   7.901   8.806   6.997 -0.1705  0.9948 -0.3402
   16MOL0     H 2155   7.638   8.821   7.143  2.1153  3.1538 -0.1204
   16MOL0     H 2156   7.672   8.811   6.964  0.8808 -0.5453  0.2795
   16MOL0     H 2157   7.848   8.575   6.917  1.6887  1.9529  1.7643
   16MOL0     H 2158   7.829   8.225   7.076 -0.5206 -1.8033 -1.9862
   16MOL0     H 2159   7.959   8.337   7.014  0.5562 -1.8990  3.8930
   16MOL0     H 2160   7.867   8.343   6.788  1.1460 -0.5344 -0.6909
   16MOL0     H 2161   7.882   8.180   6.825  1.1003  1.4343 -1.3401
   16MOL0     H 2162   7.618   8.340   6.871 -1.4199 -1.2097  0.3136
   16MOL0     H 2163   7.659   8.247   6.727 -2.7618  0.5688  0.0059
   16MOL0     H 2164   7.699   8.047   6.903  1.7164  1.8520 -2.0840
   16MOL0     H 2165   7.560   8.139   6.975 -2.7497  0.4801 -1.1277
   16MOL0     H 2166   7.303   8.081   6.914 -1.6646 -0.3200 -3.0076
   16MOL0     H 2167   7.132   8.023   7.028 -0.8172  0.6350 -0.5317
   16MOL0     H 2168   7.150   7.855   7.099  0.6000 -0.5729 -1.3559
   16MOL0     H 2169   7.032   7.888   6.981  0.2637 -3.5119  0.2927
   16MOL0     H 2170   7.041   7.605   7.210  1.9851 -1.2713 -0.6682
   16MOL0     H 2171   6.924   7.402   7.312  1.2847  2.1752  0.2567
   16MOL0     H 2172   6.824   7.069   7.054  0.2137  1.5155 -0.4736
   16MOL0     H 2173   6.782   7.017   7.221 -1.8427  0.2068  0.1960
   16MOL0     H 2174   6.640   7.231   7.048  2.0120 -0.1145 -1.0699
   16MOL0     H 2175   6.558   7.086   7.092 -1.4396  0.4215  0.5533
   16MOL0     H 2176   6.511   7.297   7.223 -1.6720 -0.9998 -0.1809
   16MOL0     H 2177   6.656   7.261   7.325 -2.5081  0.5724  3.9137
   16MOL0     H 2178   6.523   7.030   7.361 -3.5275 -1.3761 -0.0605
   16MOL0     H 2179   6.390   7.113   7.289 -1.2279  1.2612  1.2621
   16MOL0     H 2180   6.553   7.200   7.532 -0.0443  3.0512  0.2972
   16MOL0     H 2181   6.430   7.294   7.462  0.1129 -1.0151 -2.2913
   16MOL0     H 2182   6.383   7.009   7.550 -0.0528 -0.9077  2.4447
   16MOL0     H 2183   6.262   7.143   7.514 -0.7161 -3.6780 -1.1838
   16MOL0     H 2184   6.461   7.144   7.739 -0.3864  1.9476  2.3570
   16MOL0     H 2185   6.302   7.075   7.763  1.8141  0.9231  2.1848
   16MOL0     H 2186   6.222   7.313   7.658  1.8668  3.1361 -1.7117
   16MOL0     H 2187   6.387   7.358   7.716 -0.5690 -0.6010 -0.8509
   16MOL0     H 2188   6.842   7.247   6.921 -0.5877 -0.6439  1.4588
   16MOL0     H 2189   6.938   7.444   6.820 -0.9693  1.2268  0.3371
   16MOL0     H 2190   7.375   7.654   6.702 -0.5932 -0.1566  1.5331
   16MOL0     H 2191   7.546   7.855   6.678  0.8917  1.3403  0.6153
   16MOL0     H 2192   8.150   9.555   7.574 -1.6165 -1.3499 -3.1750
   16MOL0     H 2193   8.328   9.686   7.693 -0.3397  1.1513  0.5912
   16MOL0     H 2194   8.718   9.928   7.573 -1.2776 -0.7987 -0.5846
   16MOL0     H 2195   8.918  10.054   7.606  0.8006  0.0978  0.9470
   16MOL0     H 2196   9.200   9.918   7.852 -0.4612 -0.8627 -0.2219
   16MOL0     H 2197   9.315   9.914   7.716  2.1969  0.7565  3.5484
   16MOL0     H 2198   9.314  10.156   7.680 -1.1802 -0.2508 -0.4579
   16MOL0     H 2199   9.366  10.122   7.845  0.3074  2.8424 -0.1342
   16MOL0     H 2200   9.089  10.219   7.775 -1.0550 -0.8740  0.5879
   16MOL0     H 2201   9.154  10.189   7.934  0.0410 -2.5865 -1.2526
   16MOL0     H 2202   9.239  10.397   7.725 -1.9241  1.7885  0.6986
   16MOL0     H 2203   9.339  10.362   7.859  0.7521  1.0739 -3.0646
   16MOL0     H 2204   8.974  10.554   8.026  0.2119  0.0370  1.0475
   16MOL0     H 2205   9.131   9.722   7.749 -1.0449 -1.2622 -0.0475
   16MOL0     H 2206   9.046   9.527   7.773 -0.2648  1.8854  0.1328
   16MOL0     H 2207   8.890   9.530   7.847  3.7679  1.4894  2.2161
   16MOL0     H 2208   8.911   9.472   7.675  4.6207 -0.7760 -1.9490
   17MOL0     O 2209   3.565   5.943   8.605  0.9766  0.6264  0.9783
   17MOL0     C 2210   3.552   5.832   8.654  0.3707  0.6659  0.0002
   17MOL0     O 2211   3.513   5.807   8.782  0.5429  0.7212 -0.4867
   17MOL0     C 2212   3.505   5.920   8.860 -0.4321  0.0743  0.1395
   17MOL0     C 2213   3.594   5.948   8.967 -0.4113 -0.6682  0.5399
   17MOL0     C 2214   3.588   6.073   9.033 -0.3125 -0.1084  0.7785
   17MOL0     C 2215   3.492   6.162   9.009 -0.2520  0.2902  0.0448
   17MOL0     O 2216   3.486   6.283   9.075  0.6057 -0.4964  0.8932
   17MOL0     C 2217   3.603   6.367   9.099  0.5261 -0.2917  0.6505
   17MOL0     C 2218   3.569   6.522   9.113 -0.0447 -0.3704  1.2556
   17MOL0     C 2219   3.444   6.562   9.196 -0.2152 -0.3426 -0.6082
   17MOL0     C 2220   3.467   6.519   9.337 -0.1924  0.3965  0.4015
   17MOL0     C 2221   3.358   6.545   9.436  0.3329 -0.1623 -0.3727
   17MOL0     C 2222   3.318   6.690   9.471 -0.1545 -1.1499  0.4468
   17MOL0     C 2223   3.206   6.718   9.562 -1.1732  0.6601  0.2979
   17MOL0     C 2224   3.175   6.866   9.560 -0.3353 -0.0575  0.2704
   17MOL0     N 2225   3.264   6.958   9.639  0.4337  0.0315  0.4943
   17MOL0     C 2226   3.252   6.989   9.772 -0.3998  0.5109  0.0497
   17MOL0     C 2227   3.356   7.060   9.815 -0.2335 -0.4770  0.5202
   17MOL0     C 2228   3.398   7.076   9.958 -0.9910  0.7923  0.2758
   17MOL0     C 2229   3.520   7.011   9.997 -1.3692  0.4606 -0.5159
   17MOL0     C 2230   3.576   7.054  10.130 -0.3282 -0.1200 -1.1580
   17MOL0     C 2231   3.497   6.995  10.244  1.0458 -0.1501 -0.2808
   17MOL0     O 2232   3.564   7.023  10.358 -0.0584 -0.4934  0.8758
   17MOL0     C 2233   3.492   7.100  10.454 -0.2622 -0.3054 -0.2682
   17MOL0     C 2234   3.512   7.236  10.451 -0.0307 -0.1949  0.1399
   17MOL0     C 2235   3.468   7.315  10.564  0.1220  0.4174  0.0262
   17MOL0     C 2236   3.507   7.462  10.563 -0.2297  0.6536  0.1714
   17MOL0     C 2237   3.377   7.252  10.656 -0.2844  0.1845  0.5716
   17MOL0     C 2238   3.310   7.329  10.761  0.6183 -0.1244 -0.5440
   17MOL0     O 2239   3.219   7.253  10.836 -0.0348  0.0186 -0.7678
   17MOL0     C 2240   3.103   7.313  10.901 -0.0145 -0.6329 -0.4195
   17MOL0     C 2241   3.051   7.439  10.868 -0.2557 -0.1611 -0.3862
   17MOL0     C 2242   2.950   7.497  10.949  0.2472 -0.7095  0.9162
   17MOL0     C 2243   2.879   7.417  11.033 -0.1071 -0.9818  0.0189
   17MOL0     O 2244   2.768   7.476  11.089  0.8768 -0.5229 -0.2026
   17MOL0     C 2245   2.664   7.400  11.158  0.1726  0.4752  0.2345
   17MOL0     C 2246   2.612   7.515  11.248  0.0109  0.5652  0.0538
   17MOL0     C 2247   2.540   7.624  11.171 -0.2294 -0.4569  1.1789
   17MOL0     C 2248   2.474   7.730  11.257 -0.2095 -0.4025  0.2972
   17MOL0     C 2249   2.579   7.815  11.330 -0.7298  0.1411  0.0155
   17MOL0     C 2250   2.524   7.927  11.428 -0.1672  0.7819 -0.0564
   17MOL0     C 2251   2.492   7.866  11.561  0.6430  0.2701 -0.1433
   17MOL0     C 2252   2.426   7.967  11.665  0.7739  0.7365  0.1537
   17MOL0    Cl 2253   2.546   8.099  11.697  0.2583 -0.3784  0.5608
   17MOL0     C 2254   2.925   7.291  11.061 -0.9293  0.2200 -1.0412
   17MOL0     C 2255   3.044   7.240  10.999  1.4305  1.0128 -0.0577
   17MOL0     O 2256   3.319   7.452  10.775  0.4287 -0.2615 -0.4192
   17MOL0     C 2257   3.341   7.113  10.634  0.3619  0.3209 -0.6859
   17MOL0     C 2258   3.405   7.037  10.540 -0.6934  0.4874 -0.2763
   17MOL0     N 2259   3.433   7.084   9.698 -0.3827  0.9065  0.3817
   17MOL0     N 2260   3.381   7.016   9.595 -0.4213 -0.0975  0.2217
   17MOL0     C 2261   3.395   6.131   8.918  0.1150 -0.1115 -0.9120
   17MOL0     C 2262   3.408   6.018   8.845 -0.4242  0.1748 -0.1318
   17MOL0     C 2263   3.587   5.716   8.565  0.2133  0.1681 -0.0679
   17MOL0     C 2264   3.527   5.593   8.604  0.3081 -0.5614  0.3472
   17MOL0     C 2265   3.530   5.483   8.527  0.2114 -0.0788 -0.4259
   17MOL0     C 2266   3.607   5.474   8.414  0.0007 -0.5763 -0.0978
   17MOL0     O 2267   3.611   5.364   8.339 -0.0903  0.0970  0.2649
   17MOL0     C 2268   3.487   5.343   8.258 -0.0029 -0.1559  1.0990
   17MOL0     C 2269   3.460   5.457   8.152  0.3313  0.3837 -0.4568
   17MOL0     C 2270   3.334   5.427   8.087  0.4230 -0.8047  0.4324
   17MOL0     C 2271   3.312   5.480   7.946  1.1173 -0.8069 -0.2200
   17MOL0     C 2272   3.394   5.407   7.851 -0.0306 -0.7982 -0.0597
   17MOL0     C 2273   3.444   5.341   7.771  0.1660 -0.2516  0.5752
   17MOL0     C 2274   3.685   5.591   8.382 -0.3922  0.3407 -1.0139
   17MOL0     C 2275   3.668   5.712   8.450 -0.3125 -0.2557  0.2452
   17MOL0     C 2276   3.756   5.825   8.396 -0.3532  0.0311  0.0652
   17MOL0     H 2277   3.675   5.880   8.994  0.9494  0.8798  0.5093
   17MOL0     H 2278   3.664   6.097   9.106  1.0859  1.1240 -0.9969
   17MOL0     H 2279   3.681   6.365   9.022  1.0772  2.9232  1.0006
   17MOL0     H 2280   3.649   6.346   9.196 -1.4145  2.5635  2.3083
   17MOL0     H 2281   3.651   6.578   9.158 -2.4350  3.1323  1.6753
   17MOL0     H 2282   3.558   6.559   9.010  1.4187 -1.6049  0.6312
   17MOL0     H 2283   3.422   6.669   9.193 -1.4914 -0.5907 -1.0053
   17MOL0     H 2284   3.356   6.508   9.160 -0.3107  0.1945 -1.1807
   17MOL0     H 2285   3.483   6.411   9.331 -2.4520  0.1115 -3.0528
   17MOL0     H 2286   3.560   6.561   9.376  1.7802 -0.9346 -2.5311
   17MOL0     H 2287   3.387   6.500   9.531  0.6382 -0.1196 -0.4457
   17MOL0     H 2288   3.269   6.495   9.396  0.0166 -0.8459  1.1179
   17MOL0     H 2289   3.406   6.739   9.514  0.5517 -1.8049 -0.2183
   17MOL0     H 2290   3.292   6.745   9.380 -3.2419  0.3832  2.0996
   17MOL0     H 2291   3.227   6.692   9.666  0.6161 -2.5337 -0.7267
   17MOL0     H 2292   3.122   6.655   9.531  0.6361 -1.9685  0.4304
   17MOL0     H 2293   3.171   6.901   9.456  0.1185  1.0528  0.6203
   17MOL0     H 2294   3.072   6.879   9.592 -0.8942 -3.1593  0.0472
   17MOL0     H 2295   3.181   6.935   9.835  0.9131 -4.9503 -2.5194
   17MOL0     H 2296   3.317   7.058  10.029  0.4740 -2.2449  1.3635
   17MOL0     H 2297   3.406   7.184   9.966 -2.4245  1.3811 -3.8268
   17MOL0     H 2298   3.523   6.901   9.993  0.7768  0.5125 -1.9578
   17MOL0     H 2299   3.600   7.038   9.928 -2.6029 -0.2548 -2.2898
   17MOL0     H 2300   3.678   7.018  10.147 -1.2347 -1.9199  1.0199
   17MOL0     H 2301   3.582   7.163  10.137 -0.0927 -0.2150  2.0747
   17MOL0     H 2302   3.396   7.037  10.244  1.5104  1.0833 -1.8203
   17MOL0     H 2303   3.474   6.889  10.232  0.2217 -0.2854  2.0396
   17MOL0     H 2304   3.581   7.277  10.378  2.7839 -3.7066  0.5465
   17MOL0     H 2305   3.584   7.484  10.489  2.5204 -1.7846  2.0696
   17MOL0     H 2306   3.550   7.482  10.662  1.8415  1.8897 -0.9164
   17MOL0     H 2307   3.418   7.526  10.562 -0.1387  0.7946  0.6647
   17MOL0     H 2308   3.091   7.506  10.792 -1.3960  1.6027  0.5045
   17MOL0     H 2309   2.918   7.601  10.953  0.0317 -0.7986  2.6580
   17MOL0     H 2310   2.597   7.356  11.084  1.7951  1.4752 -1.9313
   17MOL0     H 2311   2.703   7.320  11.222  2.4414  1.0888 -0.2820
   17MOL0     H 2312   2.550   7.489  11.334  1.7628  0.2253  1.2864
   17MOL0     H 2313   2.702   7.555  11.296 -1.4991  1.7018  2.1015
   17MOL0     H 2314   2.460   7.583  11.108  0.9977 -0.4838 -0.4126
   17MOL0     H 2315   2.599   7.685  11.102 -2.6923 -0.8605 -1.5180
   17MOL0     H 2316   2.413   7.680  11.333  0.0808 -1.3126 -0.0618
   17MOL0     H 2317   2.415   7.795  11.192 -2.2464  1.1299  3.4080
   17MOL0     H 2318   2.636   7.743  11.390 -0.8889  1.5619  1.9969
   17MOL0     H 2319   2.643   7.865  11.257  0.1183  0.0674  0.6816
   17MOL0     H 2320   2.445   7.992  11.387  0.0364  2.4272  1.9960
   17MOL0     H 2321   2.607   7.996  11.444  1.0319 -0.4761 -0.7236
   17MOL0     H 2322   2.582   7.825  11.608  0.8776 -0.2995 -1.0703
   17MOL0     H 2323   2.419   7.787  11.541 -1.6631  2.6136 -1.7413
   17MOL0     H 2324   2.406   7.911  11.756  0.4569  0.5588 -0.0241
   17MOL0     H 2325   2.326   8.002  11.637 -0.2790  0.5846  3.2844
   17MOL0     H 2326   2.871   7.227  11.131 -0.8463  1.2181 -0.0436
   17MOL0     H 2327   3.077   7.142  11.033 -2.9951 -0.3150  1.1524
   17MOL0     H 2328   3.290   7.051  10.707  1.3753 -0.5144 -0.6628
   17MOL0     H 2329   3.379   6.933  10.524 -0.5544  0.4100 -0.0038
   17MOL0     H 2330   3.322   6.205   8.888 -0.3163  0.4034  1.2948
   17MOL0     H 2331   3.334   5.995   8.769  1.0803 -0.1914 -1.5696
   17MOL0     H 2332   3.461   5.580   8.689 -0.5936  0.1003 -0.2370
   17MOL0     H 2333   3.474   5.392   8.550 -1.9191  0.4760 -2.9826
   17MOL0     H 2334   3.491   5.253   8.197 -1.2418  0.4060  0.1306
   17MOL0     H 2335   3.402   5.328   8.326 -0.0437  0.2687  1.1465
   17MOL0     H 2336   3.540   5.447   8.077  0.6373 -1.4823  0.0660
   17MOL0     H 2337   3.465   5.562   8.182 -0.5055  1.0682 -2.5309
   17MOL0     H 2338   3.305   5.322   8.083  0.1605 -0.6974 -2.5438
   17MOL0     H 2339   3.255   5.466   8.153  1.1932 -2.3627  2.3642
   17MOL0     H 2340   3.322   5.589   7.941 -2.2043 -0.1668  2.7811
   17MOL0     H 2341   3.208   5.452   7.926  0.9188 -0.3566  0.1480
   17MOL0     H 2342   3.479   5.277   7.693  1.1823 -2.0713  2.4352
   17MOL0     H 2343   3.766   5.573   8.312 -1.7004 -0.9405 -2.2460
   17MOL0     H 2344   3.687   5.897   8.352  1.7664  2.9703  1.2561
   17MOL0     H 2345   3.813   5.859   8.483  0.1229 -0.2080 -0.1460
   17MOL0     H 2346   3.828   5.778   8.327  1.5048  1.1865  1.1218
   18MOL0     O 2347   6.121  11.211   8.573  0.2942  0.3763  0.0079
   18MOL0     C 2348   6.078  11.102   8.614 -0.2316  0.0174  0.9324
   18MOL0     O 2349   5.984  11.020   8.559 -0.3278 -0.4029  0.3717
   18MOL0     C 2350   5.914  11.070   8.455 -1.4599 -0.1263  0.8029
   18MOL0     C 2351   5.804  11.150   8.468 -0.4195 -0.3793  1.0014
   18MOL0     C 2352   5.748  11.216   8.356  0.6560 -1.1786  0.2495
   18MOL0     C 2353   5.804  11.203   8.223  0.2552  0.0025  0.6135
   18MOL0     O 2354   5.761  11.267   8.117  0.0891 -0.3329  0.9676
   18MOL0     C 2355   5.832  11.282   7.995  0.1650  1.0536  0.0033
   18MOL0     C 2356   5.780  11.177   7.896 -0.0566 -0.9639 -0.5538
   18MOL0     C 2357   5.825  11.206   7.751  0.7063 -0.1192  0.3944
   18MOL0     C 2358   5.740  11.116   7.656  0.3374  0.3647 -0.5389
   18MOL0     C 2359   5.794  11.126   7.517 -0.1859  0.0706  0.3470
   18MOL0     C 2360   5.700  11.039   7.428  0.3190  0.6838  0.7786
   18MOL0     C 2361   5.753  11.021   7.283 -0.2867 -0.8834 -0.3119
   18MOL0     C 2362   5.673  10.927   7.191  0.0527  0.2798 -0.0562
   18MOL0     N 2363   5.687  10.972   7.053  0.1620  0.4158 -0.4997
   18MOL0     C 2364   5.788  10.927   6.969 -0.3096 -0.7114 -0.2297
   18MOL0     C 2365   5.788  11.011   6.864  0.4288  0.3530  0.1800
   18MOL0     C 2366   5.870  11.003   6.733 -0.8100  0.3152 -1.3165
   18MOL0     C 2367   6.014  10.952   6.752  0.3034  0.1838 -0.2049
   18MOL0     C 2368   6.123  11.059   6.786 -0.4681  1.0504 -0.9774
   18MOL0     C 2369   6.119  11.113   6.934  0.5775 -0.2880 -0.4167
   18MOL0     O 2370   6.143  11.000   7.017 -0.2511  0.3525  0.9782
   18MOL0     C 2371   6.141  11.004   7.154 -0.5404  0.1734  0.2419
   18MOL0     C 2372   6.123  10.887   7.225 -0.2634  0.1336  0.3802
   18MOL0     C 2373   6.138  10.888   7.366 -0.4447  0.1646 -0.1056
   18MOL0     C 2374   6.133  10.758   7.433 -0.3321  0.1781  0.4345
   18MOL0     C 2375   6.143  11.017   7.429  0.4133 -0.2799  0.8339
   18MOL0     C 2376   6.163  11.027   7.578 -0.1683  0.8030  0.1687
   18MOL0     O 2377   6.202  11.147   7.624 -0.1020 -0.1674 -0.7429
   18MOL0     C 2378   6.240  11.173   7.755  0.8846 -0.0242 -0.1857
   18MOL0     C 2379   6.344  11.259   7.774  0.1686  0.3436  0.5412
   18MOL0     C 2380   6.389  11.289   7.902 -0.5722 -0.2570 -0.0948
   18MOL0     C 2381   6.332  11.226   8.008  0.9022  0.4828  0.3316
   18MOL0     O 2382   6.385  11.254   8.132 -0.2276  1.1002  0.4863
   18MOL0     C 2383   6.381  11.146   8.230  0.1663 -0.4408 -0.7057
   18MOL0     C 2384   6.494  11.169   8.332 -0.0385 -0.0302  1.1986
   18MOL0     C 2385   6.446  11.229   8.465 -0.4000 -0.7713 -0.6200
   18MOL0     C 2386   6.555  11.239   8.574 -1.2608  0.2968  0.2352
   18MOL0     C 2387   6.500  11.276   8.711 -0.8959  0.0411 -0.2394
   18MOL0     C 2388   6.619  11.257   8.813  0.3067 -0.1343  0.0622
   18MOL0     C 2389   6.559  11.292   8.951  0.1180  0.1865  0.2422
   18MOL0     C 2390   6.640  11.253   9.071  0.6384 -0.0409 -0.3524
   18MOL0    Cl 2391   6.513  11.208   9.207  0.0731 -0.2476 -0.0525
   18MOL0     C 2392   6.218  11.151   7.993 -0.4456  0.1304  0.4869
   18MOL0     C 2393   6.171  11.122   7.866 -1.3564  0.0850 -0.9515
   18MOL0     O 2394   6.157  10.924   7.649 -0.0958 -0.2947  0.8821
   18MOL0     C 2395   6.131  11.135   7.360 -0.1102  0.3817  0.2570
   18MOL0     C 2396   6.140  11.129   7.223 -0.4959  0.7161  0.3695
   18MOL0     N 2397   5.691  11.103   6.891  0.0787  0.4046  0.3798
   18MOL0     N 2398   5.642  11.091   7.011 -0.0188 -0.5438 -0.7479
   18MOL0     C 2399   5.909  11.107   8.217 -0.2542  0.2073  0.1947
   18MOL0     C 2400   5.954  11.034   8.329  0.8529  0.4584  0.4906
   18MOL0     C 2401   6.166  11.043   8.722  1.1992  0.9464 -0.0102
   18MOL0     C 2402   6.206  10.916   8.691 -0.4087  0.7168 -0.0639
   18MOL0     C 2403   6.292  10.852   8.782 -0.5177  0.6885  0.2400
   18MOL0     C 2404   6.321  10.902   8.903 -0.3386 -0.8985  0.7290
   18MOL0     O 2405   6.407  10.826   8.981  0.0600 -0.4155 -0.1121
   18MOL0     C 2406   6.494  10.890   9.074 -0.4043 -0.4553  0.4040
   18MOL0     C 2407   6.635  10.835   9.084 -0.8917 -0.2927  0.7536
   18MOL0     C 2408   6.644  10.676   9.098  0.5273 -0.9316 -0.0637
   18MOL0     C 2409   6.738  10.612   9.188  0.0587  0.2372  0.1005
   18MOL0     C 2410   6.879  10.635   9.153  0.7561  0.2092  0.3467
   18MOL0     C 2411   6.998  10.650   9.152 -0.3774  0.0323  0.4163
   18MOL0     C 2412   6.270  11.032   8.931  0.1093 -0.1557  0.4248
   18MOL0     C 2413   6.185  11.101   8.840 -0.2668  0.3032 -0.1657
   18MOL0     C 2414   6.149  11.235   8.875 -0.3786  0.5061  0.2182
   18MOL0     H 2415   5.765  11.164   8.569 -1.6730 -0.0925  0.4986
   18MOL0     H 2416   5.664  11.284   8.371 -0.3926 -2.5860  1.0692
   18MOL0     H 2417   5.941  11.280   8.011 -0.0194  1.4320  1.3932
   18MOL0     H 2418   5.811  11.382   7.957  0.0405  1.5105  1.2328
   18MOL0     H 2419   5.809  11.079   7.935  0.1129  0.1724  2.4202
   18MOL0     H 2420   5.671  11.189   7.898  0.0709  0.2678 -0.4271
   18MOL0     H 2421   5.820  11.313   7.731 -0.8144  0.8743  4.9116
   18MOL0     H 2422   5.933  11.186   7.742  0.5244 -1.2400  0.5608
   18MOL0     H 2423   5.756  11.014   7.692  0.7634  0.0632 -1.5557
   18MOL0     H 2424   5.632  11.134   7.653  0.4030  0.5924 -2.4346
   18MOL0     H 2425   5.899  11.096   7.512 -0.2388 -0.0695  0.0979
   18MOL0     H 2426   5.794  11.230   7.483  1.8443 -0.3248 -1.0263
   18MOL0     H 2427   5.694  10.938   7.470 -0.5281  0.5503  0.3451
   18MOL0     H 2428   5.598  11.076   7.417 -1.0267 -1.5677  3.9582
   18MOL0     H 2429   5.858  10.992   7.287 -0.1528 -0.6466 -1.6028
   18MOL0     H 2430   5.746  11.126   7.253  0.2774 -0.1798  1.8076
   18MOL0     H 2431   5.688  10.819   7.194 -2.0820 -0.1224 -1.5402
   18MOL0     H 2432   5.567  10.936   7.218  0.0671 -0.4522  0.2776
   18MOL0     H 2433   5.862  10.851   6.996 -0.5015 -0.8181 -0.0007
   18MOL0     H 2434   5.869  11.100   6.683 -1.4066 -0.6751 -3.3108
   18MOL0     H 2435   5.813  10.939   6.665 -0.4519 -0.7465 -0.6394
   18MOL0     H 2436   6.017  10.873   6.827 -0.0172 -1.5201 -1.9357
   18MOL0     H 2437   6.027  10.913   6.651 -3.4799 -1.2726 -0.2831
   18MOL0     H 2438   6.215  10.999   6.782  0.9086  2.8154  1.3689
   18MOL0     H 2439   6.139  11.132   6.706  3.5464  0.5995 -0.7878
   18MOL0     H 2440   6.200  11.185   6.951  1.4098 -1.7430  2.6085
   18MOL0     H 2441   6.018  11.149   6.953  0.4936  0.3724 -1.9942
   18MOL0     H 2442   6.125  10.793   7.171 -0.5452  0.4861 -0.2481
   18MOL0     H 2443   6.053  10.759   7.506 -1.4091 -1.9543 -0.6203
   18MOL0     H 2444   6.229  10.746   7.484  0.4182 -0.4394 -1.0453
   18MOL0     H 2445   6.129  10.675   7.362  0.3358 -0.5125  1.1882
   18MOL0     H 2446   6.391  11.306   7.688  2.2949  5.8806  4.1933
   18MOL0     H 2447   6.488  11.334   7.909  0.4772 -2.5902  1.2469
   18MOL0     H 2448   6.286  11.158   8.283  1.2616 -0.4843  1.3863
   18MOL0     H 2449   6.388  11.043   8.192  0.3114 -2.2275  3.5980
   18MOL0     H 2450   6.545  11.074   8.351  1.4692  0.9444  2.3325
   18MOL0     H 2451   6.564  11.235   8.280  1.8389 -1.9484  1.1663
   18MOL0     H 2452   6.369  11.162   8.503 -1.1333 -0.0671 -0.8462
   18MOL0     H 2453   6.394  11.324   8.454  1.8927  1.3009  3.7952
   18MOL0     H 2454   6.630  11.316   8.552  1.0339 -0.7876  3.5483
   18MOL0     H 2455   6.608  11.144   8.579  0.6964  1.3283  0.0091
   18MOL0     H 2456   6.465  11.380   8.712 -0.5250  0.1664  0.4399
   18MOL0     H 2457   6.421  11.205   8.735  0.7149 -1.7226  0.0493
   18MOL0     H 2458   6.707  11.316   8.783  0.0369 -0.6343 -1.8551
   18MOL0     H 2459   6.652  11.153   8.800 -1.0494 -0.3429 -2.2154
   18MOL0     H 2460   6.467  11.234   8.965  0.2985 -0.1270  0.1365
   18MOL0     H 2461   6.545  11.400   8.942  4.9762  0.8699 -2.8064
   18MOL0     H 2462   6.706  11.338   9.093 -1.0370  1.5980 -1.2945
   18MOL0     H 2463   6.700  11.169   9.037  0.5001  0.7559 -2.7836
   18MOL0     H 2464   6.166  11.120   8.083  3.3877 -2.4426  2.0711
   18MOL0     H 2465   6.083  11.059   7.855 -0.9630 -0.6936  0.1331
   18MOL0     H 2466   6.129  11.232   7.408 -0.6730  0.1267  0.7564
   18MOL0     H 2467   6.138  11.221   7.164  1.1467 -0.2291 -1.2580
   18MOL0     H 2468   5.937  11.073   8.117 -1.3115  0.7277 -0.2982
   18MOL0     H 2469   6.013  10.945   8.308 -0.5929 -0.2074 -1.0400
   18MOL0     H 2470   6.172  10.873   8.597  2.6279  0.6915 -1.2616
   18MOL0     H 2471   6.344  10.764   8.745  1.7915  2.0310  0.1416
   18MOL0     H 2472   6.511  10.992   9.036  4.4511 -0.3997  2.0995
   18MOL0     H 2473   6.446  10.896   9.172  1.1500  0.5164  1.1528
   18MOL0     H 2474   6.692  10.876   9.168  0.4441  2.7341 -1.4488
   18MOL0     H 2475   6.676  10.873   8.990 -0.7353 -2.0868  0.0697
   18MOL0     H 2476   6.543  10.650   9.133  1.6692 -1.8280  2.9524
   18MOL0     H 2477   6.655  10.621   9.004 -0.2982 -2.2321  0.5722
   18MOL0     H 2478   6.722  10.504   9.180  2.3856 -0.0938 -1.1128
   18MOL0     H 2479   6.710  10.643   9.289 -4.4929 -0.7847 -0.6342
   18MOL0     H 2480   7.105  10.662   9.156 -0.1618 -1.0417 -1.2375
   18MOL0     H 2481   6.313  11.091   9.011 -0.1829 -0.2897  0.6805
   18MOL0     H 2482   6.176  11.307   8.797  3.8944 -2.0523 -1.0102
   18MOL0     H 2483   6.042  11.241   8.898 -0.7526 -2.5729 -0.3426
   18MOL0     H 2484   6.200  11.288   8.957  0.8378  1.2358 -0.9717
   19MOL0     O 2485   0.074   2.120   5.781 -0.0717 -0.5992  0.7726
   19MOL0     C 2486   0.105   2.103   5.898 -0.2338 -0.3079 -0.4679
   19MOL0     O 2487   0.018   2.066   5.993 -0.5889  0.8664  0.0638
   19MOL0     C 2488  -0.120   2.076   5.970 -0.1081 -0.7988  0.3550
   19MOL0     C 2489  -0.190   2.168   5.881  0.3180  0.7574  0.3750
   19MOL0     C 2490  -0.327   2.160   5.862 -0.7614 -0.2409  0.0697
   19MOL0     C 2491  -0.404   2.077   5.946 -1.2120 -0.6169 -0.0470
   19MOL0     O 2492  -0.542   2.076   5.945  0.0774 -0.7216 -0.2987
   19MOL0     C 2493  -0.588   2.204   5.981 -0.2956 -0.3520  0.4503
   19MOL0     C 2494  -0.748   2.195   6.002  0.0886 -0.9830 -0.1222
   19MOL0     C 2495  -0.824   2.182   5.876  0.4874  0.0254 -0.1244
   19MOL0     C 2496  -0.815   2.317   5.799  0.2743  0.0346  0.8309
   19MOL0     C 2497  -0.896   2.296   5.670  0.9336 -0.4543 -0.2668
   19MOL0     C 2498  -0.885   2.415   5.564  0.6085 -0.9711  0.5823
   19MOL0     C 2499  -0.768   2.392   5.472  0.1404 -0.2273 -0.0596
   19MOL0     C 2500  -0.749   2.513   5.374 -0.3748 -0.5142  0.0826
   19MOL0     N 2501  -0.633   2.496   5.288 -0.3205 -0.1018 -0.5420
   19MOL0     C 2502  -0.501   2.502   5.327 -0.7803  0.5752  0.2683
   19MOL0     C 2503  -0.436   2.492   5.210 -0.4776 -0.3916  0.7189
   19MOL0     C 2504  -0.288   2.482   5.183  0.0724  0.2158 -0.2768
   19MOL0     C 2505  -0.243   2.585   5.076  0.5774 -0.0987  0.5137
   19MOL0     C 2506  -0.104   2.555   5.019 -0.4791  0.0735 -0.3558
   19MOL0     C 2507  -0.074   2.656   4.907  0.1158  0.4433 -0.1194
   19MOL0     O 2508   0.013   2.752   4.967 -0.1270  0.8299 -0.7114
   19MOL0     C 2509   0.046   2.862   4.899 -0.4096 -0.1718 -0.3284
   19MOL0     C 2510  -0.003   2.890   4.769  1.4396  0.5067  0.0972
   19MOL0     C 2511   0.027   3.003   4.703  0.1852 -0.5254  0.1644
   19MOL0     C 2512  -0.015   3.000   4.553 -0.0560 -0.3556 -0.2471
   19MOL0     C 2513   0.115   3.101   4.760  0.4758 -0.3946 -0.3821
   19MOL0     C 2514   0.165   3.214   4.683  0.0394  1.1229  0.1205
   19MOL0     O 2515   0.278   3.270   4.738 -0.6421 -0.4175 -0.0421
   19MOL0     C 2516   0.340   3.383   4.688 -1.0461  0.0417 -0.3994
   19MOL0     C 2517   0.482   3.385   4.701  0.9972  0.6257  1.2326
   19MOL0     C 2518   0.554   3.495   4.678  0.3435 -0.0020  0.1419
   19MOL0     C 2519   0.505   3.609   4.621  0.6462  0.0635 -0.4869
   19MOL0     O 2520   0.584   3.716   4.591  0.1286 -0.5065 -0.2383
   19MOL0     C 2521   0.679   3.770   4.688  0.7324  0.7254 -0.0841
   19MOL0     C 2522   0.610   3.784   4.821  0.1690 -0.5232 -0.3884
   19MOL0     C 2523   0.699   3.863   4.921  0.2432  0.7017  0.2014
   19MOL0     C 2524   0.606   3.877   5.046  0.1338 -0.3858 -0.2363
   19MOL0     C 2525   0.648   3.980   5.148 -0.3225 -1.0638  0.7539
   19MOL0     C 2526   0.744   3.936   5.260 -0.1471 -0.0373 -0.2877
   19MOL0     C 2527   0.885   3.883   5.230  0.3377 -1.4885 -0.1749
   19MOL0     C 2528   0.983   3.901   5.353 -0.2892 -0.5810  0.4560
   19MOL0    Cl 2529   0.924   3.812   5.494  0.0959  0.0657 -0.1974
   19MOL0     C 2530   0.368   3.607   4.588  0.3241  0.2315  0.4907
   19MOL0     C 2531   0.289   3.490   4.625 -0.3338 -0.9782 -0.1121
   19MOL0     O 2532   0.114   3.247   4.574 -0.6006 -0.4103  0.5984
   19MOL0     C 2533   0.170   3.069   4.892  0.1441 -0.4723  0.1835
   19MOL0     C 2534   0.130   2.957   4.958 -0.2744  0.2526 -0.1975
   19MOL0     N 2535  -0.523   2.496   5.100  0.2242 -0.2260 -0.4369
   19MOL0     N 2536  -0.645   2.513   5.152 -0.5718  0.2846  0.5611
   19MOL0     C 2537  -0.335   1.991   6.037  0.1466  0.9616  0.1685
   19MOL0     C 2538  -0.197   2.002   6.048 -0.4492  0.5620 -0.2674
   19MOL0     C 2539   0.255   2.103   5.925 -0.8748 -0.5818 -0.0785
   19MOL0     C 2540   0.293   2.018   6.028 -0.0971  0.4940  0.2964
   19MOL0     C 2541   0.427   1.988   6.056 -0.7508 -0.0891 -0.5146
   19MOL0     C 2542   0.525   2.045   5.980 -0.1482 -0.4369  1.1141
   19MOL0     O 2543   0.652   2.020   6.020  0.6840  0.4137 -0.1904
   19MOL0     C 2544   0.752   2.108   5.983  0.4002 -0.2980  0.2588
   19MOL0     C 2545   0.886   2.067   6.041 -1.0951  0.1649  0.4152
   19MOL0     C 2546   0.904   1.913   6.009 -0.4757 -0.3238  0.6399
   19MOL0     C 2547   1.049   1.882   6.068  0.1470 -0.4320  0.7891
   19MOL0     C 2548   1.085   1.741   6.039 -0.2833  0.3781 -0.0909
   19MOL0     C 2549   1.138   1.635   6.008  1.5090  0.1813 -0.0647
   19MOL0     C 2550   0.489   2.137   5.878 -0.1902 -0.1178  0.1874
   19MOL0     C 2551   0.358   2.171   5.849 -0.1890  0.0812  0.1736
   19MOL0     C 2552   0.339   2.285   5.748  0.5742 -0.7795  0.0814
   19MOL0     H 2553  -0.136   2.239   5.818 -0.8078  2.0992  0.8712
   19MOL0     H 2554  -0.385   2.220   5.793 -1.5928  0.7605  1.5905
   19MOL0     H 2555  -0.562   2.279   5.906  2.3244 -1.7044 -0.1022
   19MOL0     H 2556  -0.537   2.236   6.072  0.1797  1.2502 -0.3468
   19MOL0     H 2557  -0.762   2.115   6.076  1.6231 -0.7842  0.4299
   19MOL0     H 2558  -0.781   2.283   6.057 -2.1343 -2.6089  1.3040
   19MOL0     H 2559  -0.780   2.108   5.808  3.2915  3.2486 -2.1181
   19MOL0     H 2560  -0.926   2.166   5.914  1.0125  0.6975  1.6490
   19MOL0     H 2561  -0.845   2.402   5.860  0.7944  0.2635  0.7804
   19MOL0     H 2562  -0.712   2.335   5.765 -0.1351  1.2274  0.1497
   19MOL0     H 2563  -1.003   2.281   5.688  0.7199 -0.2204 -1.3134
   19MOL0     H 2564  -0.860   2.203   5.625 -0.7757 -1.8688  1.1159
   19MOL0     H 2565  -0.975   2.407   5.502  0.3578  2.4741  0.2675
   19MOL0     H 2566  -0.875   2.515   5.608 -2.4206  0.8238 -2.3016
   19MOL0     H 2567  -0.783   2.300   5.414  0.3744 -1.7006  2.0940
   19MOL0     H 2568  -0.680   2.378   5.534 -0.1376 -3.3768 -0.1950
   19MOL0     H 2569  -0.840   2.517   5.314 -0.5526 -0.2420  0.3651
   19MOL0     H 2570  -0.738   2.609   5.426 -0.7008 -0.6810  0.4657
   19MOL0     H 2571  -0.475   2.509   5.432 -2.6909 -1.9785  1.0066
   19MOL0     H 2572  -0.277   2.381   5.143 -0.4740  0.1036 -0.1547
   19MOL0     H 2573  -0.225   2.493   5.271 -0.5930 -1.4212  0.4332
   19MOL0     H 2574  -0.314   2.586   4.993  3.3347  2.3189 -2.0598
   19MOL0     H 2575  -0.248   2.683   5.125 -0.1450  0.1675 -0.0768
   19MOL0     H 2576  -0.026   2.557   5.097  0.9949 -1.8615 -1.6951
   19MOL0     H 2577  -0.114   2.452   4.984  1.8124  0.2107 -1.6345
   19MOL0     H 2578  -0.040   2.603   4.818 -1.2033 -1.9679  0.7171
   19MOL0     H 2579  -0.173   2.680   4.868 -0.6069 -2.7055 -0.5067
   19MOL0     H 2580  -0.066   2.816   4.720  0.3699 -0.1176  2.2569
   19MOL0     H 2581   0.067   2.950   4.500  2.1788  0.8943  1.8340
   19MOL0     H 2582  -0.046   3.098   4.517  1.8752  0.3929  0.0150
   19MOL0     H 2583  -0.107   2.942   4.544 -0.0408 -0.5389  0.6763
   19MOL0     H 2584   0.527   3.311   4.766  1.4613 -0.0544  0.1662
   19MOL0     H 2585   0.655   3.493   4.717  1.3298  1.4831 -2.1048
   19MOL0     H 2586   0.775   3.720   4.703  0.8973  0.8335 -0.7638
   19MOL0     H 2587   0.695   3.868   4.643 -1.9474  2.8213  3.0589
   19MOL0     H 2588   0.513   3.828   4.800 -1.6783 -4.6230 -1.3244
   19MOL0     H 2589   0.599   3.684   4.864 -0.8181 -0.8757 -1.4397
   19MOL0     H 2590   0.740   3.958   4.885  0.0625  1.2989  1.5244
   19MOL0     H 2591   0.781   3.798   4.955 -1.8318 -0.8809  2.4713
   19MOL0     H 2592   0.578   3.788   5.103 -1.0043  0.0472 -0.1052
   19MOL0     H 2593   0.505   3.908   5.019 -0.2900 -0.2724  1.3486
   19MOL0     H 2594   0.699   4.055   5.086  0.2521 -1.9754  0.0974
   19MOL0     H 2595   0.560   4.033   5.187 -1.2805 -0.3749 -2.0972
   19MOL0     H 2596   0.693   3.867   5.327  1.4426  1.2898  2.4498
   19MOL0     H 2597   0.749   4.033   5.311 -2.0180  1.0205 -1.9789
   19MOL0     H 2598   0.925   3.944   5.149 -2.2173 -1.0290 -1.1779
   19MOL0     H 2599   0.878   3.778   5.197  1.8891 -2.1722  1.5062
   19MOL0     H 2600   0.994   4.006   5.382  1.9369 -1.2807  2.3874
   19MOL0     H 2601   1.083   3.864   5.329 -0.7831 -0.6276 -1.7870
   19MOL0     H 2602   0.326   3.695   4.540  1.1759  0.9918  1.0904
   19MOL0     H 2603   0.182   3.487   4.603 -0.4200  0.7046 -0.0439
   19MOL0     H 2604   0.252   3.129   4.931 -0.0993 -0.4134  0.6118
   19MOL0     H 2605   0.175   2.944   5.056 -2.2011  0.8694  0.8195
   19MOL0     H 2606  -0.377   1.919   6.106 -3.3582  1.7509 -0.9250
   19MOL0     H 2607  -0.148   1.949   6.129 -0.3735 -1.6578 -1.6856
   19MOL0     H 2608   0.215   1.961   6.077  0.3254  0.1684  0.5909
   19MOL0     H 2609   0.469   1.922   6.131  1.7831  1.8779 -0.0694
   19MOL0     H 2610   0.741   2.111   5.875  1.5022  1.3675  0.1527
   19MOL0     H 2611   0.712   2.203   6.020  0.2134 -0.5058  0.6031
   19MOL0     H 2612   0.899   2.077   6.149  0.6375  0.5930  0.1923
   19MOL0     H 2613   0.953   2.133   5.984 -1.9751  0.1652 -0.6513
   19MOL0     H 2614   0.827   1.849   6.055  0.1838 -0.0464  2.2080
   19MOL0     H 2615   0.909   1.902   5.901  1.6160 -0.0101  0.6694
   19MOL0     H 2616   1.040   1.897   6.176 -1.5142  1.4052  0.4526
   19MOL0     H 2617   1.114   1.952   6.015  0.8964  0.5346  2.8507
   19MOL0     H 2618   1.188   1.549   5.967 -1.7544 -0.8684 -2.1735
   19MOL0     H 2619   0.569   2.193   5.832  0.1996 -0.0015  0.9904
   19MOL0     H 2620   0.388   2.371   5.794 -0.0245 -0.1380 -0.4779
   19MOL0     H 2621   0.385   2.258   5.653 -3.2613 -0.1015 -2.1549
   19MOL0     H 2622   0.232   2.292   5.724  0.1740 -1.0690  1.6191
   20MOL0     O 2623   5.956   5.907   2.697 -0.3373  0.5821 -0.0372
   20MOL0     C 2624   5.973   5.818   2.781 -0.3416  0.2731  0.4412
   20MOL0     O 2625   6.084   5.799   2.866 -0.8427 -0.0729  0.6591
   20MOL0     C 2626   6.206   5.852   2.838 -0.2838  0.4647  0.7359
   20MOL0     C 2627   6.306   5.796   2.917  0.8034 -0.2755 -0.2792
   20MOL0     C 2628   6.436   5.846   2.901 -0.0807  0.3059 -0.8323
   20MOL0     C 2629   6.473   5.929   2.799 -0.6204 -0.1287 -0.4826
   20MOL0     O 2630   6.607   5.957   2.791 -0.1297 -1.1433 -0.5779
   20MOL0     C 2631   6.653   6.081   2.726  0.6359  0.2933 -0.3470
   20MOL0     C 2632   6.614   6.201   2.822 -0.4270 -0.4654  0.0531
   20MOL0     C 2633   6.663   6.332   2.756  0.4782  0.3185 -0.4436
   20MOL0     C 2634   6.645   6.455   2.846  0.0875  0.6938  0.0921
   20MOL0     C 2635   6.676   6.574   2.761 -0.3624  0.5384  0.0559
   20MOL0     C 2636   6.640   6.701   2.843  0.8598 -0.7854 -0.3963
   20MOL0     C 2637   6.725   6.813   2.784  0.0361  0.4462 -0.7606
   20MOL0     C 2638   6.720   6.940   2.872 -0.1356  0.4722 -0.3418
   20MOL0     N 2639   6.813   7.040   2.810  0.3037 -0.0123 -0.8923
   20MOL0     C 2640   6.939   7.067   2.863  0.1585 -0.6496 -0.0358
   20MOL0     C 2641   6.974   7.159   2.773 -0.0263 -0.0390 -0.7696
   20MOL0     C 2642   7.110   7.224   2.776 -0.1904 -1.4463  0.7746
   20MOL0     C 2643   7.126   7.337   2.883 -0.7169  0.9094 -0.2001
   20MOL0     C 2644   7.250   7.410   2.847  1.4279  0.1090 -0.2045
   20MOL0     C 2645   7.372   7.356   2.908 -0.2102  0.0562  0.2444
   20MOL0     O 2646   7.500   7.430   2.890 -0.4075  0.7007 -0.0427
   20MOL0     C 2647   7.572   7.422   2.774  0.1939 -0.3528 -0.3754
   20MOL0     C 2648   7.679   7.516   2.779  0.4398  0.5483  0.3555
   20MOL0     C 2649   7.770   7.539   2.669  0.0147 -0.7415 -0.3115
   20MOL0     C 2650   7.891   7.630   2.694  0.0806 -0.5651  0.4170
   20MOL0     C 2651   7.747   7.465   2.550 -0.6676 -0.3092 -0.0534
   20MOL0     C 2652   7.821   7.493   2.416  0.3150  0.1659 -0.4297
   20MOL0     O 2653   7.799   7.401   2.321 -0.2382 -0.4657 -0.0817
   20MOL0     C 2654   7.859   7.408   2.193 -0.3484  0.4665 -0.4510
   20MOL0     C 2655   7.786   7.476   2.087 -0.5360  0.2507  1.0345
   20MOL0     C 2656   7.857   7.507   1.970 -0.5523 -0.4440 -0.8389
   20MOL0     C 2657   7.989   7.479   1.954  0.2331  0.4986 -0.3504
   20MOL0     O 2658   8.046   7.534   1.836 -0.2113  0.0729  0.0730
   20MOL0     C 2659   8.179   7.574   1.837  0.2556 -0.4367  0.1495
   20MOL0     C 2660   8.185   7.720   1.783 -0.8011 -0.0806  0.2868
   20MOL0     C 2661   8.180   7.731   1.628  0.1075 -1.1855  0.7476
   20MOL0     C 2662   8.035   7.747   1.571  0.6084  0.9049  0.6344
   20MOL0     C 2663   8.015   7.733   1.416 -0.1006 -0.3285  0.6182
   20MOL0     C 2664   8.113   7.828   1.334  0.3854 -0.1013 -0.6622
   20MOL0     C 2665   8.070   7.822   1.187 -0.6013 -0.1549 -0.8401
   20MOL0     C 2666   8.154   7.897   1.090  0.4934 -0.4457 -0.7849
   20MOL0    Cl 2667   8.073   8.035   1.018 -0.1310  0.0763  0.4215
   20MOL0     C 2668   8.054   7.404   2.056 -0.3714 -0.0416 -0.0965
   20MOL0     C 2669   7.991   7.358   2.171  0.1318 -0.3023 -0.4909
   20MOL0     O 2670   7.893   7.592   2.400 -0.5751 -0.7253 -0.6346
   20MOL0     C 2671   7.645   7.365   2.549  1.7164 -0.6441 -0.5501
   20MOL0     C 2672   7.554   7.341   2.658 -0.7533  0.4021  1.2494
   20MOL0     N 2673   6.889   7.166   2.663  0.5471  0.0862 -0.3140
   20MOL0     N 2674   6.785   7.095   2.691 -0.8726 -0.1458  1.0512
   20MOL0     C 2675   6.369   5.975   2.713 -0.5609  0.4500  0.5899
   20MOL0     C 2676   6.243   5.930   2.729  0.8084  0.9013 -0.5034
   20MOL0     C 2677   5.849   5.739   2.798 -0.8478 -0.2749 -0.5391
   20MOL0     C 2678   5.814   5.702   2.935  0.0594 -0.4644  0.4758
   20MOL0     C 2679   5.697   5.641   2.967  0.4474  0.7579  0.1195
   20MOL0     C 2680   5.601   5.614   2.868  0.0969  0.8872 -1.2610
   20MOL0     O 2681   5.473   5.564   2.903 -0.5755 -0.1792 -0.2592
   20MOL0     C 2682   5.480   5.436   2.970 -0.2406 -0.8362 -1.1509
   20MOL0     C 2683   5.448   5.322   2.876 -0.4107  0.0426 -0.3246
   20MOL0     C 2684   5.325   5.345   2.787 -0.4195  0.2777  0.5858
   20MOL0     C 2685   5.294   5.210   2.714  0.2820  0.7948 -0.4715
   20MOL0     C 2686   5.245   5.098   2.804  0.7670  0.2215 -1.3054
   20MOL0     C 2687   5.193   5.018   2.872  0.9360 -0.0812 -0.2512
   20MOL0     C 2688   5.622   5.661   2.742  0.7829  0.2872  0.4298
   20MOL0     C 2689   5.748   5.721   2.698  1.0480  1.0768  0.1603
   20MOL0     C 2690   5.777   5.756   2.556  0.5999 -0.1943  0.2612
   20MOL0     H 2691   6.283   5.731   3.001  1.1559 -0.4472 -0.3143
   20MOL0     H 2692   6.512   5.804   2.967 -2.1334 -2.1944  0.1045
   20MOL0     H 2693   6.614   6.086   2.624 -2.8667 -1.3569  0.7523
   20MOL0     H 2694   6.762   6.078   2.728  0.6609  1.0385  1.2928
   20MOL0     H 2695   6.508   6.207   2.850 -0.5064  0.7117 -0.4176
   20MOL0     H 2696   6.653   6.189   2.924 -0.8731 -0.3994  0.2374
   20MOL0     H 2697   6.768   6.328   2.723  0.8089 -1.0372  0.7040
   20MOL0     H 2698   6.597   6.342   2.669 -0.2442  1.7980  0.2487
   20MOL0     H 2699   6.543   6.456   2.884 -0.5976  0.3136 -1.6557
   20MOL0     H 2700   6.721   6.457   2.925  3.4753  2.7191 -2.8819
   20MOL0     H 2701   6.612   6.569   2.672  0.4490 -1.7778 -0.4483
   20MOL0     H 2702   6.783   6.585   2.744 -0.0485  4.4495  2.9568
   20MOL0     H 2703   6.536   6.735   2.839  1.1609  0.1615 -0.3968
   20MOL0     H 2704   6.669   6.691   2.948 -0.1656  2.4617  0.3156
   20MOL0     H 2705   6.701   6.825   2.678 -0.8810  1.4182 -0.4651
   20MOL0     H 2706   6.830   6.782   2.783 -1.1156 -4.2513 -0.2662
   20MOL0     H 2707   6.616   6.975   2.876  0.2869  1.6862  0.7649
   20MOL0     H 2708   6.751   6.918   2.974 -0.7636  2.2792  0.2780
   20MOL0     H 2709   6.990   7.035   2.953  0.8904  0.7635  0.0851
   20MOL0     H 2710   7.131   7.271   2.680 -0.5265 -0.0018  1.3743
   20MOL0     H 2711   7.187   7.146   2.780  0.4085 -0.9219 -0.1331
   20MOL0     H 2712   7.038   7.403   2.888 -2.7164 -1.5152 -1.2261
   20MOL0     H 2713   7.125   7.291   2.982 -0.8481  0.2735 -0.4933
   20MOL0     H 2714   7.249   7.440   2.742 -0.2836  0.0462 -0.2389
   20MOL0     H 2715   7.234   7.507   2.896  1.1888  0.6103 -1.2433
   20MOL0     H 2716   7.350   7.349   3.015 -0.1037  1.6649  0.3993
   20MOL0     H 2717   7.382   7.256   2.866 -3.2650 -0.1534 -0.2359
   20MOL0     H 2718   7.696   7.569   2.873 -1.2668  1.3680  0.2236
   20MOL0     H 2719   7.886   7.674   2.794 -0.3253  0.0371  0.1321
   20MOL0     H 2720   7.882   7.711   2.622 -0.5315  0.8687  2.0438
   20MOL0     H 2721   7.992   7.588   2.686  1.4014  2.3639  0.3946
   20MOL0     H 2722   7.685   7.513   2.102 -1.3284 -1.4485  0.1240
   20MOL0     H 2723   7.819   7.570   1.891  0.6956  1.9163  0.3294
   20MOL0     H 2724   8.238   7.571   1.929  2.7285 -0.1196 -1.3314
   20MOL0     H 2725   8.239   7.505   1.778  2.5604  3.4862 -2.5344
   20MOL0     H 2726   8.116   7.791   1.830  0.7498  1.8011 -0.1497
   20MOL0     H 2727   8.286   7.759   1.795 -0.2883 -1.0475 -0.7125
   20MOL0     H 2728   8.226   7.644   1.580 -0.2096 -1.9439  1.7731
   20MOL0     H 2729   8.239   7.816   1.593  0.7720 -2.3555 -1.1021
   20MOL0     H 2730   8.000   7.848   1.594 -0.3355  0.5286  0.8635
   20MOL0     H 2731   7.968   7.672   1.613 -1.0208  2.2914  0.6019
   20MOL0     H 2732   8.026   7.630   1.380  2.9916 -0.3369  1.2500
   20MOL0     H 2733   7.914   7.763   1.391 -0.7599 -1.2786  1.9739
   20MOL0     H 2734   8.213   7.784   1.340  0.8982  1.1348  0.3591
   20MOL0     H 2735   8.112   7.933   1.366 -1.2520 -0.2539 -0.1547
   20MOL0     H 2736   7.967   7.858   1.184 -0.2252  1.4601  2.2397
   20MOL0     H 2737   8.070   7.718   1.154 -0.6625 -0.0003 -1.3394
   20MOL0     H 2738   8.198   7.832   1.014  2.9458  0.5582 -0.3024
   20MOL0     H 2739   8.237   7.940   1.146 -0.7455 -0.1155  0.8847
   20MOL0     H 2740   8.156   7.379   2.028 -0.2181  2.6235 -2.3746
   20MOL0     H 2741   8.041   7.297   2.246  2.3971  1.1572 -0.7334
   20MOL0     H 2742   7.633   7.317   2.453  0.7966  0.7995 -1.1930
   20MOL0     H 2743   7.481   7.261   2.663 -1.0758  0.5951  0.0034
   20MOL0     H 2744   6.390   6.046   2.634 -0.2937 -0.2082  0.0606
   20MOL0     H 2745   6.178   5.961   2.647  1.5042 -0.0739 -1.4503
   20MOL0     H 2746   5.888   5.715   3.014  2.0302 -4.4534 -0.4696
   20MOL0     H 2747   5.678   5.616   3.071  0.3931  2.2304  0.4817
   20MOL0     H 2748   5.572   5.407   3.021 -0.0477  0.6953 -0.5608
   20MOL0     H 2749   5.411   5.452   3.053 -0.5996  4.4340 -2.1238
   20MOL0     H 2750   5.434   5.225   2.925  2.3710 -1.3859 -2.1299
   20MOL0     H 2751   5.538   5.309   2.815 -1.7768  2.8787 -3.2535
   20MOL0     H 2752   5.243   5.394   2.841 -0.0479 -1.4335  2.8529
   20MOL0     H 2753   5.355   5.410   2.704 -0.9255 -1.2669 -0.8727
   20MOL0     H 2754   5.386   5.173   2.667  0.6370  1.9231 -0.6889
   20MOL0     H 2755   5.213   5.211   2.641 -1.5266 -1.7826  1.3014
   20MOL0     H 2756   5.166   4.937   2.937  4.6604 -1.0948  0.2758
   20MOL0     H 2757   5.535   5.651   2.678 -0.1978  1.1738  1.5665
   20MOL0     H 2758   5.780   5.862   2.528  0.2875 -0.6195 -1.4835
   20MOL0     H 2759   5.881   5.722   2.552  1.1363  0.9697  2.5636
   20MOL0     H 2760   5.705   5.694   2.502  0.2070 -0.0551  0.6237
   21MOL0     O 2761  10.167   7.810   0.218  0.5694  0.4604 -0.1581
   21MOL0     C 2762  10.234   7.736   0.290 -0.3635  1.0459 -0.0355
   21MOL0     O 2763  10.283   7.766   0.413  0.7395 -0.5863 -0.2897
   21MOL0     C 2764  10.274   7.895   0.445 -1.0847 -0.6362 -0.7749
   21MOL0     C 2765  10.156   7.960   0.488  0.4448  0.1527 -0.8021
   21MOL0     C 2766  10.154   8.104   0.508  0.6066 -0.5113  0.1971
   21MOL0     C 2767  10.262   8.179   0.499 -1.0274  0.1715 -0.2108
   21MOL0     O 2768  10.248   8.309   0.530  0.3648  0.0529 -0.5264
   21MOL0     C 2769  10.348   8.408   0.534  0.5234 -0.2049 -0.7621
   21MOL0     C 2770  10.450   8.389   0.647  0.5239  0.1432 -0.6513
   21MOL0     C 2771  10.384   8.418   0.785  0.4774 -0.4590  0.3662
   21MOL0     C 2772  10.411   8.565   0.828 -0.2032 -0.3717  0.2846
   21MOL0     C 2773  10.302   8.607   0.913  0.0260  0.1324  0.9376
   21MOL0     C 2774  10.276   8.524   1.031 -0.4202 -0.3290  0.2032
   21MOL0     C 2775  10.136   8.551   1.099 -0.8097 -0.6027  0.3996
   21MOL0     C 2776  10.100   8.696   1.105  0.2969 -0.4876 -0.1507
   21MOL0     N 2777  10.196   8.775   1.184  0.3705 -0.3815  0.1795
   21MOL0     C 2778  10.202   8.775   1.325  0.7556 -0.3264  0.0505
   21MOL0     C 2779  10.266   8.891   1.346 -0.5205  0.5290 -0.3561
   21MOL0     C 2780  10.305   8.962   1.473  0.4426 -0.0560 -0.5685
   21MOL0     C 2781  10.354   8.872   1.581 -0.0470  0.4851 -0.5642
   21MOL0     C 2782  10.488   8.815   1.557 -0.0722  0.4958  0.1486
   21MOL0     C 2783  10.500   8.700   1.457  0.6026  0.9927  0.2839
   21MOL0     O 2784  10.395   8.591   1.480 -0.0255 -0.3244 -0.5840
   21MOL0     C 2785  10.384   8.476   1.409 -0.6293 -0.0961 -0.2655
   21MOL0     C 2786  10.281   8.390   1.446  0.9583  0.6475 -0.8794
   21MOL0     C 2787  10.254   8.278   1.368  0.0707  0.4324  1.0716
   21MOL0     C 2788  10.114   8.223   1.389  0.2514  0.2362  0.2162
   21MOL0     C 2789  10.338   8.235   1.265  0.0139 -0.1850 -0.3913
   21MOL0     C 2790  10.314   8.106   1.185 -0.0712  0.5933  0.0237
   21MOL0     O 2791  10.391   8.080   1.076 -0.1724  0.1292 -0.4392
   21MOL0     C 2792  10.386   7.957   1.019 -0.3194 -0.4061  0.1059
   21MOL0     C 2793  10.359   7.950   0.879  0.4072  0.1636  0.1822
   21MOL0     C 2794  10.369   7.824   0.814 -0.0181 -0.2964  0.4758
   21MOL0     C 2795  10.417   7.705   0.886  0.3234 -0.1811 -0.4540
   21MOL0     O 2796  10.430   7.583   0.830  0.5111  0.5495 -0.7646
   21MOL0     C 2797  10.351   7.548   0.718  1.0557  0.5493  0.5446
   21MOL0     C 2798  10.332   7.400   0.704  0.2389  0.8348  0.8775
   21MOL0     C 2799  10.247   7.347   0.583  0.3253 -0.2150  0.6755
   21MOL0     C 2800  10.247   7.192   0.592  0.9319 -0.3110  0.5472
   21MOL0     C 2801  10.163   7.148   0.473 -0.6121 -0.3917  1.1480
   21MOL0     C 2802  10.149   6.991   0.482  0.2152  0.0163  0.1734
   21MOL0     C 2803  10.008   6.957   0.406  0.0472  0.1974  0.3281
   21MOL0     C 2804  10.038   6.882   0.274  0.5850  0.1164 -0.5500
   21MOL0    Cl 2805  10.087   6.998   0.155 -0.1813 -0.1014 -0.1272
   21MOL0     C 2806  10.457   7.719   1.015 -0.1338  0.3510  0.2892
   21MOL0     C 2807  10.435   7.836   1.088  0.4529  0.2423  0.1555
   21MOL0     O 2808  10.232   8.026   1.224 -0.3449 -0.7477 -1.1318
   21MOL0     C 2809  10.451   8.315   1.239 -0.2247  0.0240 -0.3165
   21MOL0     C 2810  10.470   8.437   1.309  0.3545  0.3336  0.2625
   21MOL0     N 2811  10.312   8.944   1.226  0.6308 -0.6960  0.0588
   21MOL0     N 2812  10.258   8.881   1.128 -0.5602 -0.5294  0.1440
   21MOL0     C 2813  10.382   8.119   0.452  0.1944 -0.0180  0.0047
   21MOL0     C 2814  10.385   7.983   0.420 -0.0851  0.0854 -0.5429
   21MOL0     C 2815  10.273   7.594   0.257  0.5052  0.2803  0.2161
   21MOL0     C 2816  10.405   7.544   0.295  0.1460 -0.1388  0.4044
   21MOL0     C 2817  10.429   7.408   0.264 -0.3390 -0.6355  0.3098
   21MOL0     C 2818  10.343   7.322   0.199  0.2102 -0.0802  0.2825
   21MOL0     O 2819  10.371   7.194   0.156 -0.2913 -0.3937  0.2845
   21MOL0     C 2820  10.469   7.127   0.226 -1.3364 -0.0502  0.5167
   21MOL0     C 2821  10.433   6.980   0.220 -1.1162 -0.8448  0.4490
   21MOL0     C 2822  10.432   6.923   0.080  0.1761  0.8055  0.6343
   21MOL0     C 2823  10.398   6.782   0.082  0.2484  1.0071 -1.0179
   21MOL0     C 2824  10.409   6.730  -0.050 -0.5311 -0.1134  0.1611
   21MOL0     C 2825  10.427   6.710  -0.166 -1.1397  0.6699  0.8637
   21MOL0     C 2826  10.214   7.369   0.170  0.4231 -0.2018 -0.1640
   21MOL0     C 2827  10.181   7.504   0.192  0.5201  0.6955 -0.8123
   21MOL0     C 2828  10.038   7.549   0.166  0.2335  0.7256 -0.0232
   21MOL0     H 2829  10.075   7.891   0.510  1.2889 -0.3556  0.8810
   21MOL0     H 2830  10.059   8.155   0.520  1.4965  1.6115 -1.2036
   21MOL0     H 2831  10.293   8.502   0.540 -0.6672 -0.9561  0.5857
   21MOL0     H 2832  10.417   8.396   0.449  3.3413 -1.7959  1.5849
   21MOL0     H 2833  10.485   8.285   0.650  0.5546  0.1666 -0.1003
   21MOL0     H 2834  10.528   8.464   0.628 -1.1037  2.2418  0.4459
   21MOL0     H 2835  10.277   8.417   0.762  0.6143 -0.7117 -0.2707
   21MOL0     H 2836  10.412   8.338   0.854  2.1073 -0.4046 -0.1821
   21MOL0     H 2837  10.507   8.573   0.879  0.1323 -2.1802 -0.0032
   21MOL0     H 2838  10.407   8.622   0.735  2.1198 -2.1859 -1.0601
   21MOL0     H 2839  10.220   8.608   0.840  0.5597  1.5942  0.3102
   21MOL0     H 2840  10.320   8.712   0.935  0.8194  0.1300  0.3494
   21MOL0     H 2841  10.282   8.417   1.009 -1.6230 -0.2771 -0.4755
   21MOL0     H 2842  10.351   8.561   1.101  0.6264  1.3463 -1.6797
   21MOL0     H 2843  10.142   8.518   1.203  2.9537  0.9480  0.8556
   21MOL0     H 2844  10.063   8.481   1.058  0.7395 -2.9271  1.3814
   21MOL0     H 2845  10.085   8.748   1.010 -3.0077  2.6373  1.8368
   21MOL0     H 2846  10.000   8.696   1.149  0.2744 -2.5614 -0.0907
   21MOL0     H 2847  10.154   8.712   1.399  0.2697 -0.6922 -0.5629
   21MOL0     H 2848  10.218   9.020   1.505  0.7789  1.0143 -1.5479
   21MOL0     H 2849  10.373   9.045   1.454  0.6579  0.1661  0.9813
   21MOL0     H 2850  10.358   8.932   1.672  0.7475 -0.4901  0.0703
   21MOL0     H 2851  10.293   8.782   1.593  1.7593 -0.5463  1.5524
   21MOL0     H 2852  10.559   8.885   1.513 -1.6355 -0.2941 -4.0806
   21MOL0     H 2853  10.524   8.757   1.642 -0.0422  1.1425  0.5805
   21MOL0     H 2854  10.479   8.722   1.352 -1.9754 -0.8566  0.3099
   21MOL0     H 2855  10.596   8.647   1.464  0.7029  0.9779 -1.0119
   21MOL0     H 2856  10.211   8.425   1.521 -0.1383  2.1691 -2.5278
   21MOL0     H 2857  10.062   8.295   1.453 -1.6045  0.6289 -1.6563
   21MOL0     H 2858  10.127   8.127   1.440 -1.2483  0.3031  0.7834
   21MOL0     H 2859  10.054   8.208   1.299 -1.6219 -1.6295  1.6825
   21MOL0     H 2860  10.342   8.046   0.830  1.1525  0.0804 -0.2569
   21MOL0     H 2861  10.339   7.818   0.710  1.1806 -2.6280  0.1931
   21MOL0     H 2862  10.252   7.595   0.717 -0.4649 -2.4084 -0.3321
   21MOL0     H 2863  10.394   7.581   0.624  2.3514 -2.5450 -0.0814
   21MOL0     H 2864  10.433   7.360   0.715 -0.0412  0.2642  1.4738
   21MOL0     H 2865  10.288   7.354   0.793  2.7065 -1.3184  1.0911
   21MOL0     H 2866  10.285   7.369   0.483 -3.0123 -1.6631 -1.0891
   21MOL0     H 2867  10.147   7.390   0.577 -0.3084 -1.4519  1.8110
   21MOL0     H 2868  10.196   7.155   0.681  1.8189 -1.7611  0.4721
   21MOL0     H 2869  10.350   7.155   0.590  0.0604 -2.9437 -1.8404
   21MOL0     H 2870  10.073   7.209   0.481  0.3132  1.4541 -1.2159
   21MOL0     H 2871  10.206   7.179   0.377 -1.8907  3.0060  1.5528
   21MOL0     H 2872  10.131   6.946   0.580  0.0683 -2.6522 -0.9739
   21MOL0     H 2873  10.228   6.927   0.441  0.2433 -1.0652  1.8101
   21MOL0     H 2874   9.947   7.047   0.414  0.6251  0.4473  2.9796
   21MOL0     H 2875   9.964   6.889   0.480  1.3008 -1.1902 -0.1407
   21MOL0     H 2876   9.957   6.819   0.238  1.2057 -0.9328 -0.1624
   21MOL0     H 2877  10.120   6.813   0.299 -2.0213 -2.8501  0.4848
   21MOL0     H 2878  10.505   7.635   1.066  1.6634  0.2335 -1.4632
   21MOL0     H 2879  10.464   7.847   1.192  0.4384  1.1459  0.0719
   21MOL0     H 2880  10.511   8.298   1.149  1.9108  1.7371  0.6874
   21MOL0     H 2881  10.553   8.495   1.272  3.1462 -1.5046  3.1172
   21MOL0     H 2882  10.481   8.156   0.431  0.8946 -2.8419 -2.4686
   21MOL0     H 2883  10.483   7.951   0.385  1.2853  1.4740  1.7771
   21MOL0     H 2884  10.480   7.595   0.354  0.2484 -0.5141  0.6045
   21MOL0     H 2885  10.526   7.371   0.294 -0.1746  0.3298  1.0108
   21MOL0     H 2886  10.570   7.136   0.185 -1.4461 -2.8197 -0.5809
   21MOL0     H 2887  10.476   7.146   0.333  0.8681 -2.1697  0.8124
   21MOL0     H 2888  10.338   6.965   0.273 -0.6594  1.5255  2.1267
   21MOL0     H 2889  10.498   6.919   0.283  0.9785  1.5705  0.7937
   21MOL0     H 2890  10.360   6.974   0.015 -2.1094  0.2905  2.6536
   21MOL0     H 2891  10.535   6.919   0.041  0.5362  1.6078  1.4753
   21MOL0     H 2892  10.296   6.760   0.116  1.0480 -3.1187 -0.7379
   21MOL0     H 2893  10.461   6.720   0.146 -1.1989 -0.4369 -0.9010
   21MOL0     H 2894  10.435   6.691  -0.272 -0.6102  3.1438  0.4100
   21MOL0     H 2895  10.156   7.295   0.115  0.6293  0.8141 -1.8169
   21MOL0     H 2896  10.029   7.597   0.068 -3.1432 -0.8080 -0.5878
   21MOL0     H 2897   9.974   7.462   0.154  0.3232  0.6412  0.1072
   21MOL0     H 2898  10.001   7.613   0.247  3.3599  2.1890  0.4062
   22MOL0     O 2899  10.505   5.485   2.144 -0.5868  0.0473  0.0244
   22MOL0     C 2900  10.611   5.440   2.101 -0.4759  0.0579  0.9097
   22MOL0     O 2901  10.737   5.497   2.125  0.6144 -0.5434 -1.0308
   22MOL0     C 2902  10.746   5.628   2.174  0.6691 -1.4321 -0.0961
   22MOL0     C 2903  10.839   5.674   2.269  0.0318 -0.3365 -0.2446
   22MOL0     C 2904  10.849   5.807   2.303 -0.9889 -0.1222  0.7456
   22MOL0     C 2905  10.776   5.908   2.242  1.1367  0.3552  0.1284
   22MOL0     O 2906  10.762   6.035   2.286 -0.3978 -0.0425  0.2203
   22MOL0     C 2907  10.782   6.066   2.423 -0.1836  0.4693 -0.2822
   22MOL0     C 2908  10.737   6.214   2.449  0.8569 -0.9103 -0.3388
   22MOL0     C 2909  10.586   6.223   2.456  0.8082 -0.1255 -0.4781
   22MOL0     C 2910  10.548   6.367   2.483  0.3034 -1.1903  0.0031
   22MOL0     C 2911  10.398   6.377   2.498  0.2392 -0.0316 -0.1731
   22MOL0     C 2912  10.335   6.507   2.479 -0.6337 -0.0798  0.2419
   22MOL0     C 2913  10.396   6.630   2.542  0.4553  0.2996 -0.3814
   22MOL0     C 2914  10.414   6.620   2.691  0.2050  0.2337  0.3516
   22MOL0     N 2915  10.287   6.606   2.770  0.7940  0.6555 -0.0258
   22MOL0     C 2916  10.179   6.692   2.775 -0.7714  0.7633  0.0882
   22MOL0     C 2917  10.093   6.636   2.865  0.0917  0.4633 -0.3510
   22MOL0     C 2918   9.971   6.699   2.929 -0.3397 -1.1409 -0.3142
   22MOL0     C 2919   9.841   6.630   2.885 -0.2051  0.5121 -0.8256
   22MOL0     C 2920   9.782   6.689   2.759  0.0206  0.4218 -0.2395
   22MOL0     C 2921   9.661   6.618   2.704  0.7551  0.3053  1.1085
   22MOL0     O 2922   9.686   6.482   2.677  0.7334 -0.4644  0.2059
   22MOL0     C 2923   9.767   6.453   2.566 -0.3786 -0.0246  0.8993
   22MOL0     C 2924   9.722   6.461   2.435 -0.0631 -0.7381  0.7198
   22MOL0     C 2925   9.789   6.422   2.323 -0.2744 -0.8405 -0.0435
   22MOL0     C 2926   9.730   6.444   2.188 -0.9917  0.0187 -0.2653
   22MOL0     C 2927   9.914   6.352   2.347  0.2348  0.1741  0.2930
   22MOL0     C 2928   9.989   6.296   2.233  0.0741  0.3362 -0.1890
   22MOL0     O 2929   9.916   6.233   2.135 -0.9146  0.0729  0.0520
   22MOL0     C 2930   9.989   6.206   2.019  0.0714  1.0674 -0.2738
   22MOL0     C 2931  10.056   6.307   1.947  0.1359  0.8564  0.9746
   22MOL0     C 2932  10.136   6.265   1.838 -0.6360 -0.2374 -1.2899
   22MOL0     C 2933  10.127   6.128   1.795  0.8914  0.2656  0.6048
   22MOL0     O 2934  10.182   6.074   1.685  0.0791 -0.2769 -0.1515
   22MOL0     C 2935  10.243   6.164   1.592 -0.0813  0.1892 -0.1264
   22MOL0     C 2936  10.290   6.079   1.478  0.4482  0.2737  0.2795
   22MOL0     C 2937  10.382   6.157   1.388  0.5206 -0.6590 -0.0466
   22MOL0     C 2938  10.393   6.099   1.253  0.6841  0.3849  0.3329
   22MOL0     C 2939  10.508   6.151   1.170 -0.7337 -0.0248  0.3319
   22MOL0     C 2940  10.503   6.111   1.019 -0.1112 -0.7503 -0.4535
   22MOL0     C 2941  10.639   6.160   0.951  0.2429  0.1957  1.4219
   22MOL0     C 2942  10.644   6.314   0.941 -0.6771  0.4988 -0.0068
   22MOL0    Cl 2943  10.785   6.346   0.824  0.4495 -0.2582  0.0624
   22MOL0     C 2944  10.047   6.035   1.861  0.0807  0.6006 -0.5161
   22MOL0     C 2945   9.983   6.075   1.970  0.1878 -0.4596  0.0297
   22MOL0     O 2946  10.112   6.282   2.251 -0.3508 -0.2876  0.1784
   22MOL0     C 2947   9.963   6.345   2.475 -0.2207  0.6389  0.2170
   22MOL0     C 2948   9.898   6.400   2.581 -0.4870 -0.6134  0.0166
   22MOL0     N 2949  10.140   6.516   2.900 -0.3778  0.2793  0.0354
   22MOL0     N 2950  10.258   6.502   2.848  0.4718  0.1516  0.0272
   22MOL0     C 2951  10.682   5.866   2.151  0.4374 -0.1758  0.8844
   22MOL0     C 2952  10.670   5.731   2.112  0.1460  0.1609  0.2506
   22MOL0     C 2953  10.609   5.316   2.019 -0.6509 -0.0592 -0.9199
   22MOL0     C 2954  10.724   5.240   2.019 -1.3775  0.6342 -0.2189
   22MOL0     C 2955  10.724   5.115   1.953 -0.5907  0.5247 -0.0536
   22MOL0     C 2956  10.621   5.073   1.870  0.3391  0.4106 -0.6630
   22MOL0     O 2957  10.630   4.956   1.797  0.5299  0.1223  0.4246
   22MOL0     C 2958  10.755   4.884   1.785  0.0128 -0.1954  0.9280
   22MOL0     C 2959  10.738   4.748   1.715 -0.8169 -0.6022 -0.3842
   22MOL0     C 2960  10.736   4.753   1.566  0.6802  0.5436 -0.4954
   22MOL0     C 2961  10.631   4.662   1.508 -0.4687  0.3846 -0.2506
   22MOL0     C 2962  10.496   4.701   1.542 -0.5800 -0.4308 -0.7812
   22MOL0     C 2963  10.380   4.738   1.573 -0.2785  0.0953 -0.1194
   22MOL0     C 2964  10.513   5.154   1.859  0.1022  0.1456  0.0830
   22MOL0     C 2965  10.509   5.280   1.924 -0.4798 -0.3491  0.0737
   22MOL0     C 2966  10.395   5.377   1.904 -0.0358 -0.5492 -0.5594
   22MOL0     H 2967  10.903   5.600   2.317  3.6741  1.9084 -1.2720
   22MOL0     H 2968  10.899   5.826   2.397 -1.3967 -0.9611  1.1484
   22MOL0     H 2969  10.886   6.050   2.453 -0.0955  1.4488 -0.0356
   22MOL0     H 2970  10.729   5.990   2.481  1.5912 -3.0024 -2.7886
   22MOL0     H 2971  10.762   6.250   2.549 -1.6547 -2.6579  1.0430
   22MOL0     H 2972  10.770   6.287   2.375 -0.5117 -0.9398 -1.0009
   22MOL0     H 2973  10.540   6.192   2.361  0.7385  3.7801 -1.9448
   22MOL0     H 2974  10.539   6.170   2.539  0.4338  0.5750 -0.2346
   22MOL0     H 2975  10.607   6.402   2.568  0.0270 -1.4207  0.2913
   22MOL0     H 2976  10.578   6.438   2.405  0.7639 -0.0948  1.1563
   22MOL0     H 2977  10.356   6.328   2.587 -5.9801 -1.0450 -3.0894
   22MOL0     H 2978  10.350   6.323   2.415 -0.5889  3.4361 -2.1470
   22MOL0     H 2979  10.320   6.526   2.372  1.6987  0.7972  0.0112
   22MOL0     H 2980  10.237   6.496   2.527  0.0291 -1.4332  1.3494
   22MOL0     H 2981  10.338   6.721   2.529 -2.2217 -1.5761 -2.7088
   22MOL0     H 2982  10.492   6.648   2.492 -0.6837  2.9789 -1.7964
   22MOL0     H 2983  10.475   6.531   2.709 -0.3913 -0.0300  1.1123
   22MOL0     H 2984  10.457   6.716   2.722 -2.3169  0.9413  1.8946
   22MOL0     H 2985  10.162   6.786   2.724  1.7847  2.1322  1.5561
   22MOL0     H 2986   9.967   6.808   2.925  2.2888 -1.0117 -2.6103
   22MOL0     H 2987   9.984   6.684   3.036  0.5813  0.6003 -0.1481
   22MOL0     H 2988   9.842   6.521   2.888  1.7199  0.4415  3.6024
   22MOL0     H 2989   9.777   6.653   2.971  1.3371 -0.3736  0.6224
   22MOL0     H 2990   9.767   6.793   2.788  2.7613  0.8056  0.1464
   22MOL0     H 2991   9.852   6.689   2.675 -1.7185 -1.2885 -1.7814
   22MOL0     H 2992   9.581   6.622   2.778  0.2038  2.6351  0.4772
   22MOL0     H 2993   9.631   6.678   2.618  1.8730  3.1643  2.5663
   22MOL0     H 2994   9.627   6.512   2.422  0.0347 -0.5445  0.7594
   22MOL0     H 2995   9.656   6.524   2.188  0.5723  1.5382 -0.6593
   22MOL0     H 2996   9.675   6.354   2.158 -1.7895  0.0777  0.9586
   22MOL0     H 2997   9.809   6.469   2.117  1.1468 -0.7261  1.7273
   22MOL0     H 2998  10.063   6.412   1.975  2.0448  0.9876  0.1216
   22MOL0     H 2999  10.191   6.336   1.778 -1.0150  0.5506 -0.7229
   22MOL0     H 3000  10.167   6.235   1.557  1.1258  0.7843 -1.6352
   22MOL0     H 3001  10.335   6.210   1.629  0.2212 -0.7518  0.3122
   22MOL0     H 3002  10.324   5.978   1.505 -0.0345 -0.2439 -0.9511
   22MOL0     H 3003  10.199   6.062   1.419  2.0418  0.3310 -2.3328
   22MOL0     H 3004  10.484   6.158   1.427  0.6562 -0.4244 -0.3968
   22MOL0     H 3005  10.369   6.265   1.385  0.9686 -0.5690  0.9058
   22MOL0     H 3006  10.290   6.107   1.216 -0.1181 -2.5919  1.6047
   22MOL0     H 3007  10.410   5.992   1.265 -0.0339  0.3261  0.9137
   22MOL0     H 3008  10.510   6.258   1.194  1.9496  0.1413 -0.3226
   22MOL0     H 3009  10.601   6.121   1.219 -1.4492  0.6851  2.2311
   22MOL0     H 3010  10.421   6.158   0.965  1.1657  1.2722 -0.7605
   22MOL0     H 3011  10.505   6.003   1.002 -0.4220 -0.5435 -1.9617
   22MOL0     H 3012  10.630   6.125   0.848 -1.5693  0.8006  1.3427
   22MOL0     H 3013  10.720   6.109   1.004 -1.0677 -2.7340  0.7581
   22MOL0     H 3014  10.673   6.352   1.039 -2.5096  0.7250  0.4813
   22MOL0     H 3015  10.546   6.359   0.922 -0.2360  1.8493  0.8481
   22MOL0     H 3016  10.039   5.932   1.827 -1.2961  1.1761 -2.1021
   22MOL0     H 3017   9.929   6.007   2.036  0.4187 -0.1790  0.5170
   22MOL0     H 3018  10.059   6.298   2.493 -1.1206 -1.3418  0.1762
   22MOL0     H 3019   9.953   6.393   2.674  1.2050  1.4720 -0.7384
   22MOL0     H 3020  10.610   5.937   2.112  0.1498 -1.0252 -0.1664
   22MOL0     H 3021  10.611   5.709   2.023 -2.2131  2.1834  1.1984
   22MOL0     H 3022  10.817   5.261   2.069 -1.4817 -0.0835  0.2881
   22MOL0     H 3023  10.809   5.048   1.951 -1.0103 -0.2554 -5.0396
   22MOL0     H 3024  10.828   4.945   1.732  0.1915  1.3150  2.7945
   22MOL0     H 3025  10.795   4.865   1.886 -1.1768  0.6787  1.5848
   22MOL0     H 3026  10.640   4.714   1.749 -0.8696  0.6029  0.7464
   22MOL0     H 3027  10.823   4.688   1.750  1.6890  3.8758  2.2378
   22MOL0     H 3028  10.721   4.859   1.547 -1.4113  0.7765  1.9252
   22MOL0     H 3029  10.835   4.722   1.531  0.1861 -1.8453  0.0618
   22MOL0     H 3030  10.649   4.560   1.541  1.3910 -0.3536 -3.1775
   22MOL0     H 3031  10.642   4.662   1.399 -2.3828 -1.9026 -0.5285
   22MOL0     H 3032  10.293   4.786   1.613 -0.0477 -0.6065  1.3033
   22MOL0     H 3033  10.439   5.131   1.783 -0.9480 -0.0843  1.1469
   22MOL0     H 3034  10.326   5.332   1.832 -0.8321  3.0359 -2.2923
   22MOL0     H 3035  10.343   5.401   1.997 -2.2173 -0.9096 -1.6266
   22MOL0     H 3036  10.416   5.477   1.864  0.3328 -1.1414 -1.9003
   23MOL0     O 3037   9.800  11.502   2.093  0.4024 -0.1317 -0.2157
   23MOL0     C 3038   9.785  11.389   2.139  0.3874 -0.6226 -0.2043
   23MOL0     O 3039   9.766  11.285   2.067  0.6439 -0.1644 -0.2080
   23MOL0     C 3040   9.797  11.287   1.933  0.4047  0.1862  0.2196
   23MOL0     C 3041   9.887  11.367   1.870 -1.0232  0.5608  0.4103
   23MOL0     C 3042   9.901  11.361   1.727  0.2004  0.5045 -0.7799
   23MOL0     C 3043   9.818  11.271   1.652  0.3742  0.0807  0.6861
   23MOL0     O 3044   9.841  11.254   1.519  0.3897 -0.1698 -0.0627
   23MOL0     C 3045   9.731  11.288   1.436 -0.2400 -1.2698  0.6688
   23MOL0     C 3046   9.767  11.258   1.290 -0.4884 -0.2460 -0.9198
   23MOL0     C 3047   9.873  11.346   1.236 -0.7290  0.2004 -0.2039
   23MOL0     C 3048   9.909  11.302   1.096 -0.3090  0.5972 -0.6570
   23MOL0     C 3049   9.982  11.411   1.019  1.0688  0.0911  0.0576
   23MOL0     C 3050   9.976  11.400   0.872 -0.4081 -0.1731  0.5243
   23MOL0     C 3051  10.094  11.331   0.824  0.3294  0.1462 -0.1438
   23MOL0     C 3052  10.098  11.317   0.668  0.7479  1.1177  0.2065
   23MOL0     N 3053  10.093  11.451   0.611  0.1899 -0.7993 -0.1259
   23MOL0     C 3054  10.190  11.537   0.619 -0.5661  0.0692 -0.7750
   23MOL0     C 3055  10.142  11.651   0.553 -0.5179 -0.4929  0.2120
   23MOL0     C 3056  10.191  11.791   0.552  0.7320  0.3576  0.0310
   23MOL0     C 3057  10.283  11.827   0.435 -0.2577  0.8174  0.0319
   23MOL0     C 3058  10.428  11.796   0.455  0.2536  0.3442  0.0463
   23MOL0     C 3059  10.498  11.897   0.537  0.4286 -0.0494  0.1741
   23MOL0     O 3060  10.626  11.833   0.588  1.0362 -0.0321  0.4503
   23MOL0     C 3061  10.637  11.782   0.712 -0.3679 -0.0615  0.2790
   23MOL0     C 3062  10.528  11.739   0.791  0.9480 -0.3248  0.0312
   23MOL0     C 3063  10.537  11.686   0.918  0.3753 -0.5335  1.0670
   23MOL0     C 3064  10.410  11.659   0.987 -0.1741 -0.0466  0.4568
   23MOL0     C 3065  10.665  11.674   0.976 -0.3492 -0.6397  0.1742
   23MOL0     C 3066  10.689  11.621   1.114 -0.1753  0.2885 -0.0729
   23MOL0     O 3067  10.790  11.526   1.136 -0.3069  0.0317 -0.3328
   23MOL0     C 3068  10.793  11.463   1.262  0.3278  0.2808  1.0994
   23MOL0     C 3069  10.697  11.367   1.302  0.4878  0.5610 -0.1517
   23MOL0     C 3070  10.710  11.313   1.432 -0.3887  0.1718 -1.4289
   23MOL0     C 3071  10.813  11.340   1.517 -0.3270  0.1787 -0.5621
   23MOL0     O 3072  10.824  11.270   1.636  0.0271  0.7745 -0.4352
   23MOL0     C 3073  10.768  11.144   1.651  0.0337  0.0247 -0.9759
   23MOL0     C 3074  10.822  11.094   1.775 -0.1010  0.0874  0.0796
   23MOL0     C 3075  10.776  10.948   1.799 -0.2358  0.4749 -0.5546
   23MOL0     C 3076  10.862  10.885   1.919 -1.0595 -0.2218 -0.2344
   23MOL0     C 3077  10.844  10.728   1.914  0.0488 -0.1708 -0.0976
   23MOL0     C 3078  10.889  10.670   2.053  0.3612 -0.5196  0.4496
   23MOL0     C 3079  10.850  10.518   2.059  0.6996  0.2829  0.0128
   23MOL0     C 3080  10.918  10.421   1.957 -0.5755 -1.0676 -0.3256
   23MOL0    Cl 3081  11.097  10.447   1.943  0.0806  0.0462  0.4015
   23MOL0     C 3082  10.909  11.439   1.475  0.0837 -0.0492 -1.0321
   23MOL0     C 3083  10.891  11.499   1.347 -0.1738  0.5498 -0.9700
   23MOL0     O 3084  10.619  11.665   1.205 -0.5987 -0.2293 -0.2881
   23MOL0     C 3085  10.775  11.706   0.895 -0.3507  0.1988  0.6618
   23MOL0     C 3086  10.764  11.770   0.767  0.5014 -0.2752 -0.3688
   23MOL0     N 3087  10.013  11.618   0.513  0.1020  0.2224 -0.3232
   23MOL0     N 3088   9.995  11.489   0.526 -0.0576  0.9166 -0.1492
   23MOL0     C 3089   9.724  11.188   1.720  0.7931 -0.8104  0.4344
   23MOL0     C 3090   9.712  11.199   1.859  0.4932 -0.1875 -0.2818
   23MOL0     C 3091   9.804  11.357   2.282 -0.3838 -0.5192  0.0992
   23MOL0     C 3092   9.837  11.227   2.328 -0.7762 -0.3375 -0.0643
   23MOL0     C 3093   9.839  11.199   2.462 -0.1106 -0.3306  0.0305
   23MOL0     C 3094   9.817  11.295   2.563 -0.1889 -0.4963 -0.5300
   23MOL0     O 3095   9.820  11.277   2.702 -0.2010  0.4093  0.3386
   23MOL0     C 3096   9.755  11.158   2.746 -0.6329  0.1994  1.0722
   23MOL0     C 3097   9.608  11.141   2.711  1.0586  1.2894  0.4162
   23MOL0     C 3098   9.515  11.253   2.741  0.7831 -0.1145 -0.8612
   23MOL0     C 3099   9.420  11.295   2.627  0.4172  0.4937 -0.1541
   23MOL0     C 3100   9.305  11.202   2.620  0.2546 -0.2393 -0.1244
   23MOL0     C 3101   9.228  11.112   2.598  0.0083  0.3915 -0.8444
   23MOL0     C 3102   9.790  11.421   2.517 -0.1595  0.0326 -0.5425
   23MOL0     C 3103   9.783  11.459   2.385  0.2767 -0.0427 -0.1681
   23MOL0     C 3104   9.744  11.605   2.358  0.4843  0.1665  0.4967
   23MOL0     H 3105   9.960  11.430   1.920 -0.7598  0.2901  0.3685
   23MOL0     H 3106   9.973  11.427   1.679 -0.2855  0.8847 -0.9962
   23MOL0     H 3107   9.712  11.396   1.443  1.6467 -0.9289  1.0387
   23MOL0     H 3108   9.641  11.234   1.468 -0.5315 -1.0556  0.2195
   23MOL0     H 3109   9.790  11.151   1.295 -1.6073 -0.4352  1.6663
   23MOL0     H 3110   9.670  11.269   1.242 -0.1213  1.5750 -1.3349
   23MOL0     H 3111   9.838  11.449   1.236  0.2647  0.5515  0.2529
   23MOL0     H 3112   9.966  11.353   1.293 -0.9516  2.1083  0.0000
   23MOL0     H 3113   9.975  11.218   1.118  1.2188  2.3625  2.2166
   23MOL0     H 3114   9.819  11.276   1.039  0.5720 -0.4229 -1.5974
   23MOL0     H 3115  10.086  11.420   1.052  0.8484  2.3575  0.2940
   23MOL0     H 3116   9.931  11.503   1.049 -0.8579 -0.6988 -0.6867
   23MOL0     H 3117   9.882  11.360   0.831 -1.4116  2.8348 -0.4157
   23MOL0     H 3118   9.980  11.499   0.826 -1.3075 -0.5166 -0.3353
   23MOL0     H 3119  10.094  11.228   0.860  0.4606 -0.2361 -1.2159
   23MOL0     H 3120  10.181  11.386   0.862 -0.4558  2.7515 -1.8119
   23MOL0     H 3121  10.189  11.262   0.642  0.8756  0.4974  1.8679
   23MOL0     H 3122  10.011  11.265   0.626 -0.4395  3.5285 -0.4638
   23MOL0     H 3123  10.284  11.526   0.672 -0.8422  3.5232  0.6996
   23MOL0     H 3124  10.234  11.814   0.650 -0.8673  0.5848  0.7055
   23MOL0     H 3125  10.108  11.863   0.554 -0.5273 -1.0364  1.9745
   23MOL0     H 3126  10.251  11.761   0.353 -3.9753  0.6062  1.4228
   23MOL0     H 3127  10.286  11.935   0.420 -0.5666  1.2151  2.3894
   23MOL0     H 3128  10.426  11.695   0.495 -1.0538  0.6903  0.9436
   23MOL0     H 3129  10.459  11.785   0.350 -0.4077 -1.0228 -0.0298
   23MOL0     H 3130  10.522  11.982   0.473 -1.5742 -0.0099 -0.5935
   23MOL0     H 3131  10.440  11.925   0.626  2.8802 -0.9419  2.1996
   23MOL0     H 3132  10.427  11.737   0.750  1.4553  0.2811 -1.3049
   23MOL0     H 3133  10.407  11.724   1.075 -0.0827  0.0823  0.3628
   23MOL0     H 3134  10.401  11.555   1.021 -4.7604  0.5900  1.9764
   23MOL0     H 3135  10.325  11.680   0.922 -0.2005 -2.6260 -0.4783
   23MOL0     H 3136  10.618  11.338   1.233  0.9908  2.2563 -1.5258
   23MOL0     H 3137  10.624  11.253   1.463 -0.5215  0.1524 -1.8295
   23MOL0     H 3138  10.659  11.145   1.663 -0.1071 -4.3881  0.1842
   23MOL0     H 3139  10.793  11.075   1.570  0.1626  0.0887 -0.9904
   23MOL0     H 3140  10.929  11.114   1.774  0.2465 -1.3394 -3.2572
   23MOL0     H 3141  10.781  11.161   1.851  0.9368  1.0309 -0.1645
   23MOL0     H 3142  10.789  10.898   1.702  0.8482  3.1713 -1.9122
   23MOL0     H 3143  10.672  10.942   1.833 -0.1350 -0.8828 -0.4534
   23MOL0     H 3144  10.849  10.925   2.020  0.1054 -1.8573  0.6101
   23MOL0     H 3145  10.968  10.910   1.912 -0.7682  0.0592  3.2394
   23MOL0     H 3146  10.746  10.688   1.888  1.1828 -1.8195 -2.1003
   23MOL0     H 3147  10.924  10.684   1.855  1.1565  0.2174  1.0601
   23MOL0     H 3148  10.831  10.719   2.132  0.2299 -0.2068  0.1601
   23MOL0     H 3149  10.997  10.680   2.067  0.5971  2.6780 -2.3784
   23MOL0     H 3150  10.746  10.488   2.045  0.9610 -0.6259 -0.0127
   23MOL0     H 3151  10.866  10.482   2.161 -2.2980  3.1812  1.7529
   23MOL0     H 3152  10.878  10.429   1.855  0.6485 -4.4835 -1.2141
   23MOL0     H 3153  10.904  10.315   1.978 -1.5451 -0.8893 -0.0259
   23MOL0     H 3154  10.995  11.464   1.535 -1.7882  1.9296  0.9945
   23MOL0     H 3155  10.964  11.577   1.330 -0.2035  0.5212 -1.2239
   23MOL0     H 3156  10.870  11.687   0.943 -1.4808 -0.2064  2.8876
   23MOL0     H 3157  10.855  11.796   0.713 -0.1837 -2.1925 -2.6453
   23MOL0     H 3158   9.661  11.120   1.663  3.2373 -1.2412 -2.0129
   23MOL0     H 3159   9.646  11.140   1.922  0.2132  0.5365  0.1093
   23MOL0     H 3160   9.877  11.152   2.261  1.2101  1.1158 -0.5959
   23MOL0     H 3161   9.884  11.105   2.491 -0.0222 -0.3204 -0.0699
   23MOL0     H 3162   9.800  11.070   2.698 -0.6572  0.5249  0.4414
   23MOL0     H 3163   9.771  11.143   2.853  3.2745 -0.3334  0.5681
   23MOL0     H 3164   9.565  11.052   2.758 -1.3612  1.1866 -1.7971
   23MOL0     H 3165   9.609  11.132   2.602  4.3769  6.3155 -0.2922
   23MOL0     H 3166   9.470  11.231   2.838 -0.2986 -0.3623 -1.4158
   23MOL0     H 3167   9.570  11.348   2.749 -1.3621  1.3488 -2.4506
   23MOL0     H 3168   9.479  11.302   2.535  2.2744 -2.1495  0.6924
   23MOL0     H 3169   9.380  11.391   2.661  1.9403  1.0189  0.2444
   23MOL0     H 3170   9.175  11.022   2.578  0.7460 -1.2958  3.6347
   23MOL0     H 3171   9.784  11.501   2.590  1.1466 -0.6633  0.3638
   23MOL0     H 3172   9.721  11.636   2.256  2.5893  1.2683  0.3057
   23MOL0     H 3173   9.653  11.627   2.415 -1.2211  2.9620 -2.9345
   23MOL0     H 3174   9.816  11.676   2.400 -0.3618  2.3104 -1.4837
   24MOL0     O 3175   8.586   2.870   9.516 -1.4850 -0.4117  0.1308
   24MOL0     C 3176   8.621   2.859   9.401 -0.6119 -0.0845  0.0277
   24MOL0     O 3177   8.687   2.757   9.349 -0.3519  0.3969 -0.7172
   24MOL0     C 3178   8.721   2.659   9.448 -0.0750 -0.1143 -0.4957
   24MOL0     C 3179   8.707   2.524   9.421  0.3344  0.1069  1.0557
   24MOL0     C 3180   8.768   2.423   9.505 -0.2778 -0.2308 -0.0804
   24MOL0     C 3181   8.849   2.464   9.615  0.0021  0.0701 -0.2778
   24MOL0     O 3182   8.918   2.371   9.685 -0.8497  0.4029 -0.6647
   24MOL0     C 3183   8.880   2.377   9.822 -0.4217  0.0747  0.1409
   24MOL0     C 3184   8.925   2.243   9.891 -0.7626 -0.5886  1.2644
   24MOL0     C 3185   8.836   2.207  10.015 -0.6053  0.4338 -0.0505
   24MOL0     C 3186   8.873   2.073  10.074  0.2922 -0.9758 -0.0272
   24MOL0     C 3187   8.799   2.061  10.207  0.6781  0.2232 -0.8825
   24MOL0     C 3188   8.650   2.033  10.194 -0.4142  0.3241  0.4415
   24MOL0     C 3189   8.595   1.923  10.285  0.4736  0.2301 -0.5869
   24MOL0     C 3190   8.521   1.805  10.219 -0.6306 -0.4038 -0.6300
   24MOL0     N 3191   8.614   1.706  10.158  0.4853 -0.4002 -0.0544
   24MOL0     C 3192   8.690   1.726  10.050  0.8317  0.3096  0.5685
   24MOL0     C 3193   8.764   1.612  10.030  0.9735  0.5512  0.6283
   24MOL0     C 3194   8.864   1.595   9.921  0.3029 -0.3531 -0.8286
   24MOL0     C 3195   9.009   1.608   9.966 -0.5076 -0.5877  0.1775
   24MOL0     C 3196   9.054   1.496  10.064 -0.3204 -0.2234 -0.6123
   24MOL0     C 3197   9.203   1.474  10.087 -0.4547  0.6047  0.0438
   24MOL0     O 3198   9.277   1.589  10.132  0.2926  0.6050 -0.5559
   24MOL0     C 3199   9.408   1.597  10.098 -0.0199 -0.6783  0.0728
   24MOL0     C 3200   9.494   1.498  10.137  0.8069 -0.5988 -0.4537
   24MOL0     C 3201   9.625   1.497  10.097  0.5911  1.3941  0.2346
   24MOL0     C 3202   9.708   1.388  10.141  0.4453  0.5204 -0.2236
   24MOL0     C 3203   9.673   1.597  10.009  0.2170  0.0441 -0.1072
   24MOL0     C 3204   9.800   1.593   9.939  0.4373 -0.0810  0.3649
   24MOL0     O 3205   9.874   1.712   9.941  0.0015 -0.0904 -0.3889
   24MOL0     C 3206  10.003   1.690   9.932  0.2629  0.6417 -0.5575
   24MOL0     C 3207  10.068   1.786   9.858 -0.6184  1.2445  1.2695
   24MOL0     C 3208  10.203   1.804   9.845 -0.5907 -0.3318  0.3150
   24MOL0     C 3209  10.288   1.719   9.914 -0.1026  0.0756 -1.4356
   24MOL0     O 3210  10.426   1.741   9.931  0.3703 -0.4807 -0.7488
   24MOL0     C 3211  10.496   1.804   9.822 -0.3541 -0.1207 -0.2399
   24MOL0     C 3212  10.639   1.833   9.859 -0.9325 -0.0332  0.2346
   24MOL0     C 3213  10.703   1.889   9.728  0.0263 -0.4039  0.0098
   24MOL0     C 3214  10.832   1.978   9.763  0.6478  0.9803  0.2949
   24MOL0     C 3215  10.877   2.044   9.632 -0.4134 -0.3395 -0.1258
   24MOL0     C 3216  10.998   2.128   9.659  1.0173  0.0138 -0.4707
   24MOL0     C 3217  11.043   2.196   9.528  0.4934  0.4067 -0.2720
   24MOL0     C 3218  11.191   2.224   9.534  0.0925  0.7402  0.7132
   24MOL0    Cl 3219  11.278   2.074   9.510 -0.2985 -0.2591  0.1863
   24MOL0     C 3220  10.225   1.634  10.007 -0.8277 -0.4681 -0.8616
   24MOL0     C 3221  10.085   1.620  10.016 -0.1654  0.1597  0.3171
   24MOL0     O 3222   9.832   1.494   9.880  0.0403 -0.5437 -0.8073
   24MOL0     C 3223   9.585   1.701   9.975 -0.2274 -0.4931  0.4690
   24MOL0     C 3224   9.455   1.698  10.015 -0.6052  0.4286  0.9348
   24MOL0     N 3225   8.720   1.520  10.127 -0.2646 -0.2101 -0.1233
   24MOL0     N 3226   8.617   1.575  10.194 -0.0632 -0.0518  0.0120
   24MOL0     C 3227   8.865   2.594   9.641  0.0628 -0.8932 -0.2733
   24MOL0     C 3228   8.808   2.690   9.553  0.4773  0.0432  0.2922
   24MOL0     C 3229   8.579   2.974   9.316  0.0410 -0.8788 -0.4518
   24MOL0     C 3230   8.480   3.075   9.349  1.3519 -0.1855  0.2938
   24MOL0     C 3231   8.451   3.183   9.269 -0.4372  0.6505 -0.8051
   24MOL0     C 3232   8.526   3.200   9.154  0.3223 -0.4927 -0.4980
   24MOL0     O 3233   8.490   3.312   9.081  0.1154 -0.1478 -1.3781
   24MOL0     C 3234   8.553   3.351   8.960 -0.2481 -0.2154 -0.2673
   24MOL0     C 3235   8.497   3.479   8.902  1.4241 -0.2737  0.8904
   24MOL0     C 3236   8.343   3.473   8.878 -0.4641 -0.1373 -0.4507
   24MOL0     C 3237   8.294   3.586   8.794  0.4669 -0.0326  0.7838
   24MOL0     C 3238   8.319   3.724   8.853 -0.2145 -0.0366  0.6504
   24MOL0     C 3239   8.339   3.824   8.928 -0.7951  0.3420 -0.7976
   24MOL0     C 3240   8.622   3.113   9.124  0.6118 -0.5153 -0.4907
   24MOL0     C 3241   8.646   3.001   9.199  0.3192 -0.3283  0.8119
   24MOL0     C 3242   8.760   2.919   9.144 -0.1388 -0.0145  1.3070
   24MOL0     H 3243   8.645   2.486   9.340  2.3587 -1.4627  0.1422
   24MOL0     H 3244   8.756   2.315   9.500 -1.1409 -0.1681  0.4308
   24MOL0     H 3245   8.771   2.389   9.823 -0.5092 -0.4939 -1.2117
   24MOL0     H 3246   8.915   2.466   9.876  0.4086  0.0863 -0.3921
   24MOL0     H 3247   8.916   2.164   9.816 -1.5711  1.7344 -1.2359
   24MOL0     H 3248   9.032   2.250   9.915 -0.7126  1.2135  0.6854
   24MOL0     H 3249   8.855   2.282  10.092  1.6706  0.7507 -0.8210
   24MOL0     H 3250   8.736   2.207   9.971 -0.4898 -0.2290 -0.3284
   24MOL0     H 3251   8.864   1.983  10.012 -1.1396 -3.5718  3.6210
   24MOL0     H 3252   8.974   2.096  10.108 -0.7785 -0.3638  3.0715
   24MOL0     H 3253   8.809   2.146  10.274 -0.6017 -0.9933  0.9605
   24MOL0     H 3254   8.837   1.972  10.258 -0.5092  0.5770  0.7172
   24MOL0     H 3255   8.598   2.127  10.210 -0.8901  0.5180 -1.9588
   24MOL0     H 3256   8.630   2.001  10.091  0.2201 -1.6864  0.8903
   24MOL0     H 3257   8.527   1.982  10.347 -2.6399 -1.7202 -1.9279
   24MOL0     H 3258   8.666   1.875  10.354  2.3967  0.0538 -2.5757
   24MOL0     H 3259   8.470   1.753  10.301 -3.4524  1.1411 -1.2537
   24MOL0     H 3260   8.445   1.841  10.150 -1.0673 -2.6361 -1.3893
   24MOL0     H 3261   8.700   1.820   9.997 -1.0264  1.2129  1.7397
   24MOL0     H 3262   8.845   1.676   9.850  0.6317 -0.2821 -0.8371
   24MOL0     H 3263   8.850   1.500   9.868  1.0901 -0.8720 -0.1530
   24MOL0     H 3264   9.088   1.616   9.891 -0.6173  3.3615  0.3008
   24MOL0     H 3265   9.016   1.706  10.014  0.7600 -1.3750  1.6620
   24MOL0     H 3266   9.012   1.505  10.165 -0.0528  0.2162 -0.5333
   24MOL0     H 3267   9.002   1.410  10.022 -3.0452  1.7837 -1.6493
   24MOL0     H 3268   9.224   1.402  10.167  1.2698 -0.4558 -1.2731
   24MOL0     H 3269   9.259   1.438  10.000  1.0615  2.3310  0.2617
   24MOL0     H 3270   9.461   1.414  10.198  2.1694 -1.5450 -0.9630
   24MOL0     H 3271   9.704   1.382  10.250  0.0878  1.8068 -0.1488
   24MOL0     H 3272   9.807   1.381  10.096 -0.8900 -0.0431 -3.3447
   24MOL0     H 3273   9.664   1.300  10.094  1.9247  0.5677 -1.7795
   24MOL0     H 3274  10.008   1.840   9.785 -2.1675 -0.4054  1.2407
   24MOL0     H 3275  10.239   1.884   9.782  0.0154 -0.8598 -0.0248
   24MOL0     H 3276  10.501   1.744   9.731 -1.1750  0.3955 -0.6406
   24MOL0     H 3277  10.440   1.896   9.803 -3.2594 -0.7465  3.7724
   24MOL0     H 3278  10.657   1.903   9.941  0.2579  1.5740 -1.3053
   24MOL0     H 3279  10.690   1.738   9.877 -0.0934 -0.0040 -1.7623
   24MOL0     H 3280  10.628   1.950   9.677 -0.8346 -1.0440  0.4780
   24MOL0     H 3281  10.736   1.802   9.670  2.1625  0.2102  0.2303
   24MOL0     H 3282  10.910   1.914   9.808  0.2775 -0.3015 -0.8199
   24MOL0     H 3283  10.804   2.055   9.835 -1.8386  2.4238 -2.0331
   24MOL0     H 3284  10.907   1.970   9.558  0.8748  2.1192 -2.2449
   24MOL0     H 3285  10.802   2.106   9.583 -0.1538 -1.0206 -1.4382
   24MOL0     H 3286  11.072   2.070   9.716  0.4723 -0.6003 -0.3599
   24MOL0     H 3287  10.967   2.205   9.730  3.5459  2.5434 -1.9438
   24MOL0     H 3288  10.981   2.285   9.515 -0.0553 -0.1366 -1.5323
   24MOL0     H 3289  11.019   2.125   9.449 -0.8414  1.1452 -0.5636
   24MOL0     H 3290  11.215   2.267   9.631 -0.5117 -0.3199  1.3451
   24MOL0     H 3291  11.223   2.292   9.455  1.9896 -1.8555 -0.9334
   24MOL0     H 3292  10.288   1.587  10.081  0.8724  2.7207 -0.0763
   24MOL0     H 3293  10.026   1.565  10.089  0.4517 -1.8025 -0.6158
   24MOL0     H 3294   9.611   1.777   9.901 -0.8183 -1.6377 -0.9763
   24MOL0     H 3295   9.389   1.771   9.971  2.1475  1.3173 -2.0583
   24MOL0     H 3296   8.930   2.623   9.724  0.8086  0.7959 -1.3998
   24MOL0     H 3297   8.836   2.793   9.572  0.4700  0.0223  0.4236
   24MOL0     H 3298   8.413   3.059   9.434 -2.9197  0.3497 -2.6264
   24MOL0     H 3299   8.374   3.256   9.291  1.3868  2.7018 -0.8261
   24MOL0     H 3300   8.661   3.365   8.962 -0.3687  0.7848 -0.1967
   24MOL0     H 3301   8.541   3.271   8.887  0.2474 -0.6413  0.1187
   24MOL0     H 3302   8.543   3.490   8.803  0.5134  2.1535  0.6715
   24MOL0     H 3303   8.519   3.563   8.968 -0.8522  3.2368 -2.3183
   24MOL0     H 3304   8.328   3.378   8.826 -1.6952 -0.3164  0.1941
   24MOL0     H 3305   8.296   3.461   8.976 -1.0522  1.1202 -0.5563
   24MOL0     H 3306   8.188   3.571   8.775  1.1940 -2.6780 -2.1582
   24MOL0     H 3307   8.326   3.571   8.690 -2.8019 -2.0456 -0.0677
   24MOL0     H 3308   8.356   3.907   8.994  1.4559 -1.0026  0.4500
   24MOL0     H 3309   8.681   3.125   9.034  2.2133  1.0890  0.6875
   24MOL0     H 3310   8.837   2.908   9.221 -0.7480 -0.1022  1.9067
   24MOL0     H 3311   8.715   2.821   9.126 -3.7004  1.2875  2.2994
   24MOL0     H 3312   8.798   2.958   9.048  0.8303  0.5764  1.9130
   25MOL0     O 3313   3.709   2.348   6.234  0.0445  0.2364  0.6794
   25MOL0     C 3314   3.640   2.323   6.327 -0.2941 -1.0390 -0.0741
   25MOL0     O 3315   3.681   2.262   6.445 -0.1106 -0.1631  0.4072
   25MOL0     C 3316   3.817   2.236   6.449 -0.0133  0.4755 -0.0772
   25MOL0     C 3317   3.922   2.323   6.480 -0.1644  0.0248 -0.0743
   25MOL0     C 3318   4.049   2.277   6.490 -0.3719 -1.2799  0.5253
   25MOL0     C 3319   4.091   2.153   6.454 -0.2405 -0.2062 -0.4901
   25MOL0     O 3320   4.225   2.126   6.446  0.0531  0.1362  0.1242
   25MOL0     C 3321   4.301   2.150   6.567  0.5269  0.3660 -0.7238
   25MOL0     C 3322   4.436   2.073   6.552  0.2800 -0.1854  0.7157
   25MOL0     C 3323   4.474   2.010   6.684 -0.5874 -0.2827 -0.1043
   25MOL0     C 3324   4.587   1.911   6.665 -1.0988 -0.7979 -0.2473
   25MOL0     C 3325   4.683   1.909   6.785  0.1216  0.3725 -0.6395
   25MOL0     C 3326   4.818   1.828   6.765  0.0891 -0.2771  0.4686
   25MOL0     C 3327   4.913   1.851   6.884  0.6880 -0.0707 -0.4337
   25MOL0     C 3328   4.869   1.777   7.009 -0.7750 -0.1738 -0.0384
   25MOL0     N 3329   4.930   1.803   7.138 -0.7856  0.5550  0.6615
   25MOL0     C 3330   5.045   1.865   7.168 -0.5494 -0.1895  0.0728
   25MOL0     C 3331   5.068   1.839   7.295 -0.2172  0.4643 -1.0526
   25MOL0     C 3332   5.178   1.881   7.388  0.2063 -0.1309 -0.1519
   25MOL0     C 3333   5.304   1.790   7.382  0.3572  0.3825 -0.9117
   25MOL0     C 3334   5.418   1.879   7.428  0.0235 -0.2711 -0.0495
   25MOL0     C 3335   5.487   1.944   7.315  0.4996 -0.0440 -0.0807
   25MOL0     O 3336   5.582   2.037   7.357 -0.4849  0.4765 -0.1507
   25MOL0     C 3337   5.648   2.108   7.258  0.5217  0.5684 -0.1698
   25MOL0     C 3338   5.760   2.179   7.293 -0.9768 -0.3097 -0.1694
   25MOL0     C 3339   5.852   2.222   7.195 -0.6054  0.6583  0.1827
   25MOL0     C 3340   5.991   2.269   7.248  0.7287  0.9680  0.5933
   25MOL0     C 3341   5.819   2.216   7.057 -0.1179 -0.6070 -0.8248
   25MOL0     C 3342   5.909   2.268   6.948 -0.2033 -0.7228 -0.5759
   25MOL0     O 3343   6.034   2.316   6.976 -0.0343  0.3099 -0.5153
   25MOL0     C 3344   6.093   2.376   6.864 -0.1587 -0.0889  0.3771
   25MOL0     C 3345   6.042   2.485   6.788 -0.0475 -0.0308 -0.2340
   25MOL0     C 3346   6.112   2.553   6.685 -0.8129 -0.0970 -0.4789
   25MOL0     C 3347   6.233   2.506   6.646 -0.1506  0.6611  0.5383
   25MOL0     O 3348   6.288   2.576   6.543  0.3507  0.4880  0.3053
   25MOL0     C 3349   6.382   2.502   6.459 -0.5086 -0.3749  1.0915
   25MOL0     C 3350   6.440   2.590   6.342  0.4748  0.3320  0.4827
   25MOL0     C 3351   6.545   2.505   6.257  0.6807  0.0485  0.5964
   25MOL0     C 3352   6.684   2.497   6.326  0.1811  0.9453 -0.2426
   25MOL0     C 3353   6.780   2.401   6.255  1.0444 -0.0715  0.9599
   25MOL0     C 3354   6.901   2.384   6.337  0.5045 -0.3876 -0.5223
   25MOL0     C 3355   7.020   2.322   6.268 -0.2782  0.5962  0.2644
   25MOL0     C 3356   6.982   2.196   6.187  0.8525  0.6185  0.0335
   25MOL0    Cl 3357   7.116   2.112   6.132  0.1946  0.4378 -0.2935
   25MOL0     C 3358   6.293   2.401   6.719 -0.0018 -0.2790 -0.8572
   25MOL0     C 3359   6.225   2.341   6.822 -0.0480  0.2258 -0.1622
   25MOL0     O 3360   5.858   2.272   6.837 -0.1332 -0.7727 -0.4703
   25MOL0     C 3361   5.691   2.159   7.017 -0.8481  0.2944 -0.1390
   25MOL0     C 3362   5.613   2.099   7.121 -0.2558 -0.1616  0.2893
   25MOL0     N 3363   4.970   1.757   7.345 -0.1044 -0.5648 -0.3811
   25MOL0     N 3364   4.889   1.732   7.245  0.1439 -0.1234 -0.1652
   25MOL0     C 3365   3.989   2.060   6.423  0.5572  0.8629  0.7120
   25MOL0     C 3366   3.856   2.101   6.422  0.1898 -0.6343  0.1469
   25MOL0     C 3367   3.499   2.367   6.323  0.7745  0.5076 -0.5058
   25MOL0     C 3368   3.433   2.344   6.445  0.6828 -0.4234 -1.3734
   25MOL0     C 3369   3.300   2.377   6.466 -0.5006 -0.2433 -0.1807
   25MOL0     C 3370   3.221   2.436   6.360 -0.6811  0.3770  1.1617
   25MOL0     O 3371   3.099   2.473   6.397  0.0160  0.0142  0.0146
   25MOL0     C 3372   3.030   2.598   6.353  0.3219 -0.0618  0.0410
   25MOL0     C 3373   2.897   2.552   6.293 -0.7482  0.0071  0.1282
   25MOL0     C 3374   2.916   2.483   6.161  0.5400 -0.0064  0.2210
   25MOL0     C 3375   2.915   2.587   6.050  0.3761  0.7653  0.4307
   25MOL0     C 3376   2.977   2.525   5.933 -0.1557 -0.5423 -0.0378
   25MOL0     C 3377   3.041   2.482   5.839 -0.5232 -0.2095  0.0910
   25MOL0     C 3378   3.288   2.461   6.238 -0.2911 -0.6818 -0.1070
   25MOL0     C 3379   3.423   2.427   6.217 -0.8699  0.3684  0.5836
   25MOL0     C 3380   3.495   2.467   6.083  0.1466 -0.1822 -0.2780
   25MOL0     H 3381   3.893   2.424   6.507  1.1336  0.2345  0.6078
   25MOL0     H 3382   4.120   2.356   6.512 -4.2593  4.0763 -3.3585
   25MOL0     H 3383   4.241   2.104   6.646  2.2703  0.9922  1.0358
   25MOL0     H 3384   4.318   2.254   6.595  0.3439  0.2045  0.0036
   25MOL0     H 3385   4.424   1.997   6.474  1.3119 -1.7348  1.9885
   25MOL0     H 3386   4.510   2.138   6.504  0.5163 -1.5357 -0.8055
   25MOL0     H 3387   4.515   2.086   6.751 -0.1402  0.5330 -1.2613
   25MOL0     H 3388   4.386   1.968   6.735 -0.0454  0.5714  1.5952
   25MOL0     H 3389   4.541   1.813   6.651 -5.0083  0.8634 -0.4668
   25MOL0     H 3390   4.646   1.944   6.579 -0.3310 -0.3176  0.4483
   25MOL0     H 3391   4.629   1.870   6.872  1.3320  0.4278  0.1734
   25MOL0     H 3392   4.714   2.011   6.809 -2.4065  0.5410  2.6980
   25MOL0     H 3393   4.785   1.725   6.778 -0.3792 -0.6577 -2.9345
   25MOL0     H 3394   4.878   1.835   6.674  2.5924  2.0850  2.1098
   25MOL0     H 3395   4.925   1.957   6.904  1.5181  0.0215 -1.3003
   25MOL0     H 3396   5.017   1.823   6.860  0.5692 -0.1196 -0.9062
   25MOL0     H 3397   4.761   1.792   7.009 -0.9790 -1.4701 -0.9137
   25MOL0     H 3398   4.878   1.668   6.999  0.6786 -0.0102 -0.6657
   25MOL0     H 3399   5.109   1.921   7.101  4.0168 -4.8528 -0.1309
   25MOL0     H 3400   5.139   1.873   7.490 -0.4970 -2.4000 -0.5438
   25MOL0     H 3401   5.204   1.985   7.364 -0.0912 -0.6766 -3.3626
   25MOL0     H 3402   5.286   1.706   7.450  1.8996 -2.7314 -4.0009
   25MOL0     H 3403   5.314   1.760   7.277 -7.7606  3.4951 -3.3191
   25MOL0     H 3404   5.380   1.954   7.497 -0.1887  0.6290 -1.1102
   25MOL0     H 3405   5.501   1.830   7.481  0.5564  2.6995  2.1300
   25MOL0     H 3406   5.520   1.872   7.240 -0.6741  0.2138 -0.8667
   25MOL0     H 3407   5.402   1.999   7.273  0.9109  0.3567 -0.3916
   25MOL0     H 3408   5.788   2.170   7.398  1.6377 -1.3922 -0.8959
   25MOL0     H 3409   5.986   2.282   7.357  2.9896 -2.4178  1.2600
   25MOL0     H 3410   6.016   2.366   7.205 -2.0825  2.3171  1.7478
   25MOL0     H 3411   6.067   2.195   7.219 -1.3057 -1.3010  0.6946
   25MOL0     H 3412   5.951   2.533   6.821 -0.1494 -0.7166  0.5221
   25MOL0     H 3413   6.053   2.632   6.640 -1.3811 -1.3014 -1.9382
   25MOL0     H 3414   6.467   2.460   6.513 -1.4540 -3.0346  0.6200
   25MOL0     H 3415   6.327   2.416   6.421  1.3571 -0.8790 -0.6703
   25MOL0     H 3416   6.353   2.622   6.282  1.0426  1.1909  0.1025
   25MOL0     H 3417   6.472   2.688   6.379 -0.3952 -0.2365  2.9560
   25MOL0     H 3418   6.561   2.539   6.154 -3.2137 -3.2437 -1.3677
   25MOL0     H 3419   6.501   2.407   6.238 -0.7774  0.5949  1.0040
   25MOL0     H 3420   6.670   2.461   6.428 -1.6453 -1.7300 -1.3190
   25MOL0     H 3421   6.726   2.598   6.336 -4.3382  3.0630 -0.3294
   25MOL0     H 3422   6.729   2.305   6.247  1.6381 -0.2766 -0.7035
   25MOL0     H 3423   6.807   2.438   6.156 -3.9432  1.4205 -0.1091
   25MOL0     H 3424   6.883   2.341   6.436  3.1680  2.2147  1.2895
   25MOL0     H 3425   6.934   2.484   6.367 -1.1137 -0.0807  0.2976
   25MOL0     H 3426   7.084   2.275   6.343  0.2419 -2.3705 -1.8494
   25MOL0     H 3427   7.071   2.389   6.198 -2.2071  2.5006  0.6109
   25MOL0     H 3428   6.928   2.228   6.098 -1.5484  0.1324  1.2275
   25MOL0     H 3429   6.913   2.133   6.245  1.2428  2.6723  2.9609
   25MOL0     H 3430   6.392   2.371   6.688  1.3766  0.9471  1.9093
   25MOL0     H 3431   6.266   2.251   6.868  1.3094 -0.7586 -3.0835
   25MOL0     H 3432   5.659   2.149   6.914 -2.0859 -1.7756  0.3935
   25MOL0     H 3433   5.522   2.049   7.089  0.3516 -1.3388  0.3547
   25MOL0     H 3434   4.012   1.961   6.385 -4.0803 -1.0419  2.1841
   25MOL0     H 3435   3.785   2.020   6.405  1.8075 -2.1473  0.3143
   25MOL0     H 3436   3.486   2.319   6.536  1.1669  0.1466 -1.4905
   25MOL0     H 3437   3.255   2.360   6.563 -0.8634 -1.4629 -0.5521
   25MOL0     H 3438   2.997   2.652   6.442 -1.9833 -2.3981  0.7185
   25MOL0     H 3439   3.093   2.659   6.287  0.4815  0.8183  0.9761
   25MOL0     H 3440   2.827   2.637   6.285 -2.1524 -0.7648  2.8400
   25MOL0     H 3441   2.855   2.488   6.371 -1.1363  0.7420  0.5439
   25MOL0     H 3442   3.013   2.431   6.159 -0.2832 -1.6043 -0.1471
   25MOL0     H 3443   2.835   2.410   6.161  0.5654 -0.0406  0.9477
   25MOL0     H 3444   2.986   2.665   6.078 -0.0085  0.0304  3.9330
   25MOL0     H 3445   2.816   2.630   6.031  1.1831  1.3178 -3.5068
   25MOL0     H 3446   3.102   2.435   5.764  0.3504 -1.8372  1.7270
   25MOL0     H 3447   3.227   2.522   6.174 -3.4515 -3.0213  0.4214
   25MOL0     H 3448   3.415   2.503   6.019  1.0296  2.7932  0.1349
   25MOL0     H 3449   3.565   2.550   6.095 -0.6999  0.1379  3.9673
   25MOL0     H 3450   3.544   2.382   6.034 -1.3436 -0.3544 -1.5066
   26MOL0     O 3451   9.199   6.664   3.611 -0.5502 -0.6298  0.6230
   26MOL0     C 3452   9.136   6.575   3.558  0.6001 -0.3017 -0.3598
   26MOL0     O 3453   9.178   6.478   3.476  0.2245  0.0715  0.3355
   26MOL0     C 3454   9.304   6.463   3.424 -0.1955 -0.3748 -0.0203
   26MOL0     C 3455   9.417   6.538   3.464  0.8002  0.5872 -0.4787
   26MOL0     C 3456   9.546   6.516   3.420 -1.1280  0.4800  0.1986
   26MOL0     C 3457   9.564   6.410   3.328  0.6601 -0.0964 -0.1598
   26MOL0     O 3458   9.694   6.380   3.295  0.7481  0.6758 -0.0282
   26MOL0     C 3459   9.727   6.363   3.151  0.9971 -0.0126  0.0765
   26MOL0     C 3460   9.874   6.339   3.111  0.7412  0.6345 -0.6163
   26MOL0     C 3461   9.924   6.203   3.160  0.3981  0.3817 -0.2636
   26MOL0     C 3462  10.063   6.153   3.121 -0.3526  0.0885  0.2560
   26MOL0     C 3463  10.080   6.077   2.990 -0.3313 -0.7081 -0.3700
   26MOL0     C 3464  10.007   6.139   2.856 -0.5035  0.4059 -0.5716
   26MOL0     C 3465  10.027   6.044   2.731 -0.5347  0.2500 -0.3028
   26MOL0     C 3466  10.157   6.048   2.663 -0.5387 -0.5680  1.0024
   26MOL0     N 3467  10.172   5.959   2.549  0.0790 -0.4554  0.4534
   26MOL0     C 3468  10.203   6.011   2.422 -0.1410  0.5378 -1.2683
   26MOL0     C 3469  10.185   5.901   2.338  0.1344  0.2498  0.2545
   26MOL0     C 3470  10.212   5.899   2.186 -0.4174  0.0979 -0.6243
   26MOL0     C 3471  10.260   5.763   2.132 -0.2973  0.0328 -0.4812
   26MOL0     C 3472  10.159   5.641   2.129  0.1285 -0.5533 -0.3053
   26MOL0     C 3473  10.030   5.667   2.045 -0.2434  0.2410  0.3473
   26MOL0     O 3474   9.957   5.547   2.016 -1.4261 -0.1425  0.3557
   26MOL0     C 3475   9.858   5.516   2.105 -0.1296  0.1491  0.8154
   26MOL0     C 3476   9.762   5.420   2.061  0.4448 -1.4433  0.9081
   26MOL0     C 3477   9.637   5.393   2.131 -0.3897  0.6129  0.6126
   26MOL0     C 3478   9.545   5.281   2.074 -1.0855  0.4781  0.2573
   26MOL0     C 3479   9.619   5.460   2.259  0.2665  0.3591  0.4925
   26MOL0     C 3480   9.494   5.448   2.335  0.9754 -0.7512  0.3630
   26MOL0     O 3481   9.488   5.524   2.445  0.8007  0.3043  0.0732
   26MOL0     C 3482   9.372   5.523   2.520  1.0210  0.0511  0.7094
   26MOL0     C 3483   9.352   5.427   2.615  0.5533 -0.4682 -0.1013
   26MOL0     C 3484   9.225   5.406   2.679 -0.1424  0.0708 -1.0365
   26MOL0     C 3485   9.124   5.496   2.653 -0.1427  0.7843  0.4820
   26MOL0     O 3486   9.001   5.478   2.720 -0.4165  0.4272 -0.5164
   26MOL0     C 3487   8.895   5.577   2.719 -0.9908  0.2059 -0.7314
   26MOL0     C 3488   8.788   5.536   2.623  0.0337 -0.7229 -0.1925
   26MOL0     C 3489   8.825   5.557   2.477  0.4612  0.7461  0.9593
   26MOL0     C 3490   8.820   5.705   2.439 -0.1501  0.3257 -0.9636
   26MOL0     C 3491   8.676   5.744   2.396  0.0379  0.1384  0.1503
   26MOL0     C 3492   8.653   5.896   2.389  0.0182  0.2375 -0.5836
   26MOL0     C 3493   8.690   5.966   2.255  0.2142 -0.6194  0.6709
   26MOL0     C 3494   8.611   6.099   2.223 -0.7149 -0.3904 -0.3162
   26MOL0    Cl 3495   8.670   6.182   2.079 -0.0975  0.1640 -0.0071
   26MOL0     C 3496   9.158   5.612   2.584 -0.0312 -0.9413  0.3154
   26MOL0     C 3497   9.279   5.624   2.508  0.9770 -0.0749  0.0787
   26MOL0     O 3498   9.395   5.382   2.296  0.0323  0.0094  0.4707
   26MOL0     C 3499   9.724   5.528   2.312 -0.6121  0.6023 -0.1257
   26MOL0     C 3500   9.839   5.553   2.233 -0.6015 -0.4481 -0.3169
   26MOL0     N 3501  10.146   5.797   2.417 -0.2608 -0.4421  0.0607
   26MOL0     N 3502  10.142   5.830   2.538 -0.1683 -0.2094 -0.1648
   26MOL0     C 3503   9.458   6.332   3.284  0.1309 -0.2932 -0.1236
   26MOL0     C 3504   9.333   6.367   3.331  0.0520  0.3486  0.9913
   26MOL0     C 3505   8.981   6.571   3.600  0.1062  0.9043  0.7936
   26MOL0     C 3506   8.926   6.688   3.644  0.7234 -0.1518 -0.1007
   26MOL0     C 3507   8.793   6.699   3.677  0.1978  0.1444  0.2613
   26MOL0     C 3508   8.713   6.587   3.659  0.5954  0.5794  0.4806
   26MOL0     O 3509   8.583   6.597   3.690  0.5368 -0.1940 -0.1253
   26MOL0     C 3510   8.534   6.515   3.793  0.4234 -0.1579  1.1961
   26MOL0     C 3511   8.397   6.559   3.851 -0.2224 -0.1204 -0.6666
   26MOL0     C 3512   8.420   6.707   3.907  0.3484  0.9259  0.1256
   26MOL0     C 3513   8.303   6.740   3.996  0.1022 -0.0055 -0.4790
   26MOL0     C 3514   8.320   6.864   4.067  0.0925  0.3837  0.3957
   26MOL0     C 3515   8.350   6.951   4.145  0.2964  0.2005  0.5384
   26MOL0     C 3516   8.767   6.457   3.622 -1.0245  0.6458  0.2871
   26MOL0     C 3517   8.904   6.446   3.583 -0.0950  0.0831  0.1796
   26MOL0     C 3518   8.969   6.312   3.570 -0.3457 -1.2051  0.5016
   26MOL0     H 3519   9.417   6.621   3.534 -4.7047 -0.4039  1.1857
   26MOL0     H 3520   9.632   6.573   3.453 -2.3943  1.5956  1.7579
   26MOL0     H 3521   9.690   6.458   3.112 -1.6173 -1.1521 -0.4088
   26MOL0     H 3522   9.657   6.286   3.116 -0.8827  0.5166  2.4481
   26MOL0     H 3523   9.886   6.344   3.002  2.5230 -1.3496 -0.5617
   26MOL0     H 3524   9.941   6.418   3.146  2.9093 -1.3629 -0.0253
   26MOL0     H 3525   9.905   6.194   3.268 -1.2798  1.7751 -0.3951
   26MOL0     H 3526   9.855   6.126   3.123  0.9924 -0.3904  0.2034
   26MOL0     H 3527  10.135   6.235   3.119  0.6710 -0.8014 -1.2626
   26MOL0     H 3528  10.102   6.097   3.207  2.1560  2.4558  0.7826
   26MOL0     H 3529  10.044   5.979   3.023  1.2316 -0.5194  2.1536
   26MOL0     H 3530  10.187   6.071   2.972 -0.1647  0.4065  0.1738
   26MOL0     H 3531   9.899   6.138   2.868 -0.4370 -0.6542  0.0675
   26MOL0     H 3532  10.044   6.241   2.837  0.0636 -0.0066 -1.7718
   26MOL0     H 3533   9.950   6.067   2.657 -1.0626  2.0145  0.7450
   26MOL0     H 3534  10.011   5.940   2.760  2.9052 -1.0416 -2.3650
   26MOL0     H 3535  10.165   6.154   2.637 -0.6799 -1.2352 -2.1611
   26MOL0     H 3536  10.232   6.021   2.738  2.4885  0.0319 -1.5667
   26MOL0     H 3537  10.231   6.113   2.400  0.9004  0.7711  0.9300
   26MOL0     H 3538  10.285   5.973   2.152  2.4120 -1.9919  0.4732
   26MOL0     H 3539  10.116   5.930   2.144  0.4590  4.0710 -0.1031
   26MOL0     H 3540  10.294   5.778   2.029  1.7061 -3.4799 -0.4898
   26MOL0     H 3541  10.350   5.733   2.186 -1.9942  1.7456  3.6267
   26MOL0     H 3542  10.211   5.556   2.083  0.0562 -0.7392 -0.0501
   26MOL0     H 3543  10.127   5.603   2.226 -1.5165  2.4758  0.4510
   26MOL0     H 3544   9.977   5.743   2.103  0.6068  0.8176  0.3893
   26MOL0     H 3545  10.063   5.691   1.944  1.7133 -2.1687  0.3187
   26MOL0     H 3546   9.776   5.375   1.963 -3.6215  0.2451 -0.6658
   26MOL0     H 3547   9.444   5.309   2.043 -2.3323 -2.5041  1.2747
   26MOL0     H 3548   9.513   5.204   2.145 -2.3731  0.4489 -0.3226
   26MOL0     H 3549   9.589   5.241   1.982 -1.9358  1.9148 -0.8146
   26MOL0     H 3550   9.437   5.361   2.619  0.7291 -0.5545 -3.0918
   26MOL0     H 3551   9.202   5.328   2.751  2.3304 -0.4318 -0.6986
   26MOL0     H 3552   8.859   5.572   2.822 -3.0342 -0.4838 -1.4372
   26MOL0     H 3553   8.917   5.684   2.714 -3.4351  1.2515  4.7278
   26MOL0     H 3554   8.768   5.430   2.640  0.0862 -0.8892 -1.1062
   26MOL0     H 3555   8.706   5.603   2.649  1.9460  1.7582 -0.1582
   26MOL0     H 3556   8.760   5.499   2.411 -2.0485  1.3261  2.7693
   26MOL0     H 3557   8.926   5.517   2.461  0.2982  0.2335  1.2145
   26MOL0     H 3558   8.888   5.702   2.354  3.3267 -1.0931  1.6521
   26MOL0     H 3559   8.860   5.770   2.518  0.2213  0.4325 -1.2386
   26MOL0     H 3560   8.645   5.701   2.301 -0.6825  3.3117 -1.1828
   26MOL0     H 3561   8.602   5.704   2.465 -0.0355 -0.6656 -0.3904
   26MOL0     H 3562   8.711   5.937   2.472  2.0578 -0.0926 -1.7969
   26MOL0     H 3563   8.548   5.917   2.412  0.9323  1.0048  3.7681
   26MOL0     H 3564   8.671   5.898   2.171 -0.5903  2.5088 -1.9047
   26MOL0     H 3565   8.798   5.981   2.266  0.2065 -0.9383  1.1845
   26MOL0     H 3566   8.632   6.167   2.306 -0.1662 -0.6290 -0.2584
   26MOL0     H 3567   8.505   6.072   2.217 -0.0422 -3.2293 -0.9038
   26MOL0     H 3568   9.087   5.694   2.592  1.9232  0.8172  0.5269
   26MOL0     H 3569   9.297   5.708   2.442 -0.4086  1.9477  2.1109
   26MOL0     H 3570   9.716   5.569   2.412  0.8754  0.0167  0.2533
   26MOL0     H 3571   9.923   5.601   2.284 -1.0416 -1.3157  1.3158
   26MOL0     H 3572   9.463   6.249   3.214 -0.4189 -0.6054  0.2025
   26MOL0     H 3573   9.252   6.299   3.308 -0.7678  1.5518  0.1673
   26MOL0     H 3574   8.970   6.788   3.646 -1.0532  0.8306 -3.3323
   26MOL0     H 3575   8.750   6.790   3.717  3.2875  1.1112  1.6590
   26MOL0     H 3576   8.517   6.415   3.753  2.4510 -0.2943  0.6078
   26MOL0     H 3577   8.612   6.505   3.869  1.0309  2.1937  0.9674
   26MOL0     H 3578   8.373   6.485   3.929  0.0116 -0.2763 -0.7400
   26MOL0     H 3579   8.328   6.552   3.768 -1.7223  1.5296  0.3792
   26MOL0     H 3580   8.514   6.724   3.960  0.8919  3.3987 -1.4343
   26MOL0     H 3581   8.419   6.779   3.824 -0.8911 -0.2989 -0.9543
   26MOL0     H 3582   8.290   6.658   4.068  0.8117  1.3624  1.2583
   26MOL0     H 3583   8.213   6.746   3.934 -1.7040  0.0490  2.0030
   26MOL0     H 3584   8.373   7.028   4.216  1.4779  0.0598  0.3296
   26MOL0     H 3585   8.712   6.364   3.630  1.2954 -0.6414  2.7191
   26MOL0     H 3586   9.020   6.309   3.474 -2.6518 -0.1434 -0.8302
   26MOL0     H 3587   9.035   6.292   3.656 -0.7853 -2.0857  0.6490
   26MOL0     H 3588   8.907   6.224   3.550 -0.9036  0.1710 -5.6795
   27MOL0     O 3589   2.002   3.651  10.370  0.7065 -0.0062  0.1019
   27MOL0     C 3590   1.946   3.762  10.388  0.0302  0.4114  0.3186
   27MOL0     O 3591   2.015   3.878  10.428  0.1792 -0.5025  0.9242
   27MOL0     C 3592   2.147   3.882  10.417  0.0702 -0.6263 -0.9286
   27MOL0     C 3593   2.224   3.848  10.309  0.2184 -0.0719  0.6794
   27MOL0     C 3594   2.360   3.895  10.313 -0.3130  0.3654 -0.4263
   27MOL0     C 3595   2.415   3.978  10.417 -1.1936  0.2551  0.0453
   27MOL0     O 3596   2.527   4.055  10.396  0.5089  0.4091  0.2313
   27MOL0     C 3597   2.610   4.050  10.510  0.1283 -0.4670  0.2651
   27MOL0     C 3598   2.742   4.122  10.467  1.0483  0.1330 -0.1094
   27MOL0     C 3599   2.730   4.256  10.395 -0.0048  0.2253  0.3144
   27MOL0     C 3600   2.866   4.322  10.405 -0.2382 -0.4219 -0.1933
   27MOL0     C 3601   2.864   4.475  10.364 -0.2899 -0.3586 -0.5630
   27MOL0     C 3602   2.778   4.563  10.455 -0.1048 -0.4120  0.2190
   27MOL0     C 3603   2.857   4.677  10.514 -0.2334 -0.7022  0.0618
   27MOL0     C 3604   2.762   4.751  10.609 -1.2102 -0.2098 -0.8618
   27MOL0     N 3605   2.818   4.883  10.637 -0.3294 -0.3615 -0.3162
   27MOL0     C 3606   2.939   4.907  10.687 -0.6922 -1.0001  0.1311
   27MOL0     C 3607   2.946   5.038  10.730 -0.0640  0.4662  0.1540
   27MOL0     C 3608   3.058   5.104  10.800  0.2683  0.0574  1.3019
   27MOL0     C 3609   3.205   5.037  10.791  0.4572 -0.0857  0.2968
   27MOL0     C 3610   3.217   4.923  10.893  0.5991 -0.1957  0.3454
   27MOL0     C 3611   3.361   4.864  10.914  1.0406  0.2629  0.5437
   27MOL0     O 3612   3.438   4.854  10.791 -0.3772 -0.2093 -0.5774
   27MOL0     C 3613   3.573   4.870  10.800 -0.7836 -0.2278  0.4584
   27MOL0     C 3614   3.645   4.866  10.918 -0.1275 -0.2418  0.2609
   27MOL0     C 3615   3.775   4.918  10.928 -0.1943  0.2835 -0.4274
   27MOL0     C 3616   3.848   4.885  11.057  0.4023 -0.4514 -0.3329
   27MOL0     C 3617   3.849   4.979  10.816  0.4542  0.4401  0.2543
   27MOL0     C 3618   3.983   5.039  10.822 -0.7874 -0.3511  0.5669
   27MOL0     O 3619   4.010   5.124  10.718  0.8202  0.8736 -0.6272
   27MOL0     C 3620   4.125   5.193  10.711 -0.4270 -0.1148 -0.0501
   27MOL0     C 3621   4.219   5.135  10.629  1.1657  0.3429 -0.4852
   27MOL0     C 3622   4.337   5.207  10.604 -0.2529  0.2861 -0.3419
   27MOL0     C 3623   4.372   5.315  10.680 -0.2053 -0.1367  1.2496
   27MOL0     O 3624   4.489   5.379  10.657  0.1372 -0.4025 -0.1674
   27MOL0     C 3625   4.515   5.510  10.711  0.0653  1.3804  0.6114
   27MOL0     C 3626   4.661   5.567  10.685  0.0314  1.2746  0.4406
   27MOL0     C 3627   4.685   5.591  10.539  0.3014 -0.5398  0.3136
   27MOL0     C 3628   4.811   5.668  10.506  0.2890  0.8416  0.2566
   27MOL0     C 3629   4.943   5.579  10.519 -0.6265  0.2673  0.0922
   27MOL0     C 3630   5.065   5.671  10.515  0.2422 -0.7193  0.4138
   27MOL0     C 3631   5.060   5.781  10.401 -0.3382  0.4668  0.0790
   27MOL0     C 3632   5.207   5.827  10.386  0.6304  0.7472 -0.5225
   27MOL0    Cl 3633   5.236   5.965  10.272 -0.0415  0.0350  0.4696
   27MOL0     C 3634   4.266   5.372  10.756 -0.3349  0.3916 -0.0823
   27MOL0     C 3635   4.141   5.317  10.767 -0.3802  0.4077  0.3314
   27MOL0     O 3636   4.063   5.024  10.918  0.4204 -0.5961 -0.5740
   27MOL0     C 3637   3.779   4.981  10.695  0.4215  0.0404  0.1214
   27MOL0     C 3638   3.646   4.919  10.686  0.0073 -1.0777  0.4232
   27MOL0     N 3639   2.825   5.095  10.686 -0.1087  0.2220 -0.2363
   27MOL0     N 3640   2.753   5.007  10.629 -0.3811  0.2967  0.0686
   27MOL0     C 3641   2.333   3.991  10.531 -0.0814  0.1354  0.7807
   27MOL0     C 3642   2.202   3.942  10.530 -0.3749 -0.0655  0.0229
   27MOL0     C 3643   1.804   3.756  10.405  0.6575  0.0965  0.4547
   27MOL0     C 3644   1.745   3.866  10.463  0.7861 -0.7804 -1.3587
   27MOL0     C 3645   1.605   3.862  10.491  0.2975 -0.2682  0.0937
   27MOL0     C 3646   1.521   3.756  10.465  0.1406  0.7217  0.4688
   27MOL0     O 3647   1.391   3.773  10.509  0.0583  0.5454  0.1437
   27MOL0     C 3648   1.315   3.658  10.527  0.7703 -0.1416 -0.6181
   27MOL0     C 3649   1.336   3.595  10.663 -0.0756 -0.0314 -0.2476
   27MOL0     C 3650   1.333   3.701  10.776 -0.7554  0.5620 -0.3376
   27MOL0     C 3651   1.197   3.779  10.773  0.4677 -0.0187  0.2511
   27MOL0     C 3652   1.193   3.863  10.891 -0.1487  0.0102  0.2104
   27MOL0     C 3653   1.208   3.943  10.985 -0.5054  0.3608  0.4980
   27MOL0     C 3654   1.587   3.644  10.402  0.2412 -0.0683  0.0366
   27MOL0     C 3655   1.719   3.643  10.364  0.9725  0.4330  0.8800
   27MOL0     C 3656   1.767   3.520  10.282  0.5444 -0.9953 -0.2968
   27MOL0     H 3657   2.190   3.791  10.223  2.4637  0.5291 -0.6827
   27MOL0     H 3658   2.440   3.896  10.239  1.6328  2.4891  1.5372
   27MOL0     H 3659   2.629   3.947  10.542 -0.3121 -0.8311 -0.6074
   27MOL0     H 3660   2.560   4.092  10.598 -3.6808  0.6787 -2.1861
   27MOL0     H 3661   2.798   4.145  10.558  1.2941 -0.0451 -0.2128
   27MOL0     H 3662   2.800   4.053  10.405 -3.4836 -3.4974 -0.8675
   27MOL0     H 3663   2.703   4.234  10.291 -1.0676  0.5877  0.5112
   27MOL0     H 3664   2.651   4.317  10.438  0.4254 -0.9330  2.9178
   27MOL0     H 3665   2.894   4.329  10.510 -1.3103 -0.1319  0.0856
   27MOL0     H 3666   2.943   4.271  10.346 -0.2055  0.1016 -0.6159
   27MOL0     H 3667   2.825   4.480  10.262  0.2883  3.2176 -0.7189
   27MOL0     H 3668   2.969   4.504  10.364 -0.1824 -0.7203 -1.3035
   27MOL0     H 3669   2.691   4.593  10.396  2.1643  1.4369 -2.4021
   27MOL0     H 3670   2.746   4.498  10.537 -0.4001  0.2832  0.6635
   27MOL0     H 3671   2.869   4.749  10.433 -2.1943  1.8178  1.8292
   27MOL0     H 3672   2.948   4.645  10.566  0.3992 -1.5422 -1.5088
   27MOL0     H 3673   2.663   4.765  10.565 -1.1062  0.8728 -0.7797
   27MOL0     H 3674   2.739   4.694  10.700  0.0403 -1.9081 -1.5643
   27MOL0     H 3675   3.011   4.829  10.705 -1.5368 -1.5752  1.1158
   27MOL0     H 3676   3.027   5.114  10.905 -0.1655 -0.3765  1.2191
   27MOL0     H 3677   3.062   5.202  10.752 -0.2120 -0.9404 -0.8722
   27MOL0     H 3678   3.229   4.994  10.693 -3.0208 -2.9849  0.4912
   27MOL0     H 3679   3.286   5.106  10.815  1.2502 -0.0131 -2.2974
   27MOL0     H 3680   3.172   4.947  10.989  3.0750  0.5016  1.4189
   27MOL0     H 3681   3.166   4.840  10.843 -2.8402  2.3713 -0.7830
   27MOL0     H 3682   3.406   4.934  10.985  1.7597 -0.2757  0.6335
   27MOL0     H 3683   3.355   4.767  10.965 -2.4401  0.5873  0.9538
   27MOL0     H 3684   3.605   4.825  11.010 -0.1861  0.3053  0.4834
   27MOL0     H 3685   3.923   4.816  11.018 -1.1994 -1.3548 -1.9593
   27MOL0     H 3686   3.794   4.830  11.134  1.6805 -1.2094  0.0624
   27MOL0     H 3687   3.881   4.971  11.116  0.4069  0.0450 -1.0470
   27MOL0     H 3688   4.192   5.045  10.574 -2.0409  1.1530 -0.4475
   27MOL0     H 3689   4.414   5.166  10.540  0.3747 -0.3699  0.7982
   27MOL0     H 3690   4.438   5.567  10.656 -0.4180 -1.5317 -2.0171
   27MOL0     H 3691   4.503   5.504  10.819  1.8377 -1.0557  0.7492
   27MOL0     H 3692   4.652   5.660  10.741  1.4173  2.1632 -0.7251
   27MOL0     H 3693   4.738   5.505  10.730 -0.5680  1.8846  2.3949
   27MOL0     H 3694   4.609   5.662  10.506 -0.6577 -1.4407  0.5319
   27MOL0     H 3695   4.678   5.508  10.467 -3.4544  0.6785 -0.9296
   27MOL0     H 3696   4.797   5.759  10.565 -0.1709  1.4250 -0.7184
   27MOL0     H 3697   4.808   5.691  10.399 -0.8583  1.9098  0.4908
   27MOL0     H 3698   4.927   5.518  10.609 -1.3155 -0.9355 -0.8100
   27MOL0     H 3699   4.952   5.502  10.441  1.1602 -1.4239  1.8483
   27MOL0     H 3700   5.154   5.611  10.494 -1.0766 -1.5819 -3.7599
   27MOL0     H 3701   5.082   5.736  10.601  3.9269 -0.5663 -0.2522
   27MOL0     H 3702   5.011   5.873  10.434  1.2277  1.5028 -0.3825
   27MOL0     H 3703   5.011   5.743  10.311  0.2366  2.1652 -0.9986
   27MOL0     H 3704   5.286   5.753  10.368  4.0765  3.8996  0.4187
   27MOL0     H 3705   5.249   5.851  10.484  0.6411 -1.9085  0.1878
   27MOL0     H 3706   4.271   5.468  10.805 -1.4161  1.2888 -1.6296
   27MOL0     H 3707   4.064   5.379  10.813 -2.0599  0.2840 -2.1251
   27MOL0     H 3708   3.829   5.019  10.606  0.1698 -0.8092 -0.3870
   27MOL0     H 3709   3.577   4.927  10.603  0.8046  1.2311 -0.0871
   27MOL0     H 3710   2.363   4.062  10.608 -0.0283 -0.6761  1.5318
   27MOL0     H 3711   2.137   3.962  10.615  0.3002  0.9915  0.3135
   27MOL0     H 3712   1.794   3.963  10.474 -3.0947  1.5338 -2.5926
   27MOL0     H 3713   1.555   3.946  10.537 -0.4285  0.2591 -1.5871
   27MOL0     H 3714   1.217   3.698  10.502  0.2162  0.9457  2.7828
   27MOL0     H 3715   1.322   3.583  10.447 -0.6587  0.3453 -1.2286
   27MOL0     H 3716   1.428   3.536  10.656  0.7348  0.7677  2.3317
   27MOL0     H 3717   1.255   3.526  10.687 -0.2728  0.5464  0.8626
   27MOL0     H 3718   1.345   3.652  10.873 -0.5993 -0.0470 -0.6569
   27MOL0     H 3719   1.419   3.766  10.759 -0.1467 -0.3294 -0.7812
   27MOL0     H 3720   1.114   3.709  10.782  0.5571 -0.0141  1.1765
   27MOL0     H 3721   1.174   3.837  10.683 -1.6496 -1.8943 -0.4962
   27MOL0     H 3722   1.247   4.002  11.064  1.7853  1.8085 -1.5838
   27MOL0     H 3723   1.522   3.558  10.391 -1.7692  1.2727  0.8333
   27MOL0     H 3724   1.827   3.457  10.349 -0.3205  1.3047  2.8377
   27MOL0     H 3725   1.684   3.458  10.249 -1.9457  1.3059  1.2699
   27MOL0     H 3726   1.822   3.559  10.195 -0.8335 -1.8732 -1.6199
   28MOL0     O 3727   8.276   2.723   5.249 -0.2609 -0.0675 -0.1363
   28MOL0     C 3728   8.210   2.804   5.324 -0.1164 -0.0863  0.5975
   28MOL0     O 3729   8.198   2.941   5.298  1.2481  0.3451 -0.1281
   28MOL0     C 3730   8.225   2.991   5.176  0.2748  0.0502 -0.1641
   28MOL0     C 3731   8.268   2.920   5.060  0.1300 -0.3268 -0.5041
   28MOL0     C 3732   8.323   2.988   4.952  0.2006  0.2967 -0.4400
   28MOL0     C 3733   8.352   3.127   4.959 -0.5813 -0.9862 -0.7864
   28MOL0     O 3734   8.417   3.207   4.867 -0.1484  0.2164 -0.3709
   28MOL0     C 3735   8.425   3.169   4.732  0.5577 -0.5987 -0.4413
   28MOL0     C 3736   8.293   3.238   4.678  0.6710  0.3767 -0.3052
   28MOL0     C 3737   8.294   3.268   4.529  0.2777  0.5872 -0.5399
   28MOL0     C 3738   8.154   3.327   4.480 -0.5075 -0.2372  0.6337
   28MOL0     C 3739   8.145   3.319   4.324  0.2027 -0.1431 -0.0378
   28MOL0     C 3740   8.262   3.385   4.255  0.1016 -0.4092  0.0457
   28MOL0     C 3741   8.249   3.415   4.105  0.0546  0.4891 -0.7260
   28MOL0     C 3742   8.229   3.283   4.024 -0.5654  0.4831 -0.6802
   28MOL0     N 3743   8.241   3.311   3.885 -0.3711  0.3449 -0.3974
   28MOL0     C 3744   8.141   3.299   3.797  0.1962 -0.4941 -0.3615
   28MOL0     C 3745   8.205   3.303   3.671  0.2585 -0.4216  0.2322
   28MOL0     C 3746   8.151   3.288   3.525  0.2607  0.0810 -0.5976
   28MOL0     C 3747   8.252   3.231   3.431 -0.4334 -0.5809  0.1043
   28MOL0     C 3748   8.191   3.196   3.294 -0.3101 -0.0084  0.6650
   28MOL0     C 3749   8.145   3.327   3.213  0.0860  0.1617 -0.0942
   28MOL0     O 3750   8.035   3.306   3.118  0.0639 -0.3066  0.2488
   28MOL0     C 3751   7.903   3.281   3.151  0.6048  0.4228 -0.2306
   28MOL0     C 3752   7.852   3.312   3.267 -0.5466  0.4636 -0.5543
   28MOL0     C 3753   7.716   3.309   3.297  0.1886  0.0211  0.5822
   28MOL0     C 3754   7.660   3.372   3.424  0.0068  0.2508  0.8382
   28MOL0     C 3755   7.627   3.253   3.195  0.3880 -0.1044 -0.7818
   28MOL0     C 3756   7.480   3.214   3.203  0.5533 -1.0049  0.4999
   28MOL0     O 3757   7.432   3.135   3.096  0.0092 -0.1877 -0.7393
   28MOL0     C 3758   7.296   3.132   3.068 -0.1598 -0.3561 -0.8929
   28MOL0     C 3759   7.232   3.259   3.036 -0.2894 -0.4701 -0.5657
   28MOL0     C 3760   7.106   3.258   2.996  0.8832 -0.3149  0.9196
   28MOL0     C 3761   7.028   3.144   2.976 -0.5155 -0.2090  0.2039
   28MOL0     O 3762   6.901   3.133   2.929  0.3561  0.1438  0.4995
   28MOL0     C 3763   6.831   3.255   2.897 -0.1782  0.2378 -0.6411
   28MOL0     C 3764   6.689   3.219   2.849 -0.1490  0.0506  0.6212
   28MOL0     C 3765   6.591   3.176   2.963  0.1878 -0.1094  0.3888
   28MOL0     C 3766   6.615   3.032   3.010  0.4862 -0.1737 -0.0466
   28MOL0     C 3767   6.567   2.937   2.908 -0.7389  1.5830 -0.4380
   28MOL0     C 3768   6.587   2.794   2.972 -0.0925 -0.1016  0.4650
   28MOL0     C 3769   6.544   2.680   2.880 -0.2323  0.0439  0.2380
   28MOL0     C 3770   6.652   2.648   2.773  0.9336  0.5843  0.8115
   28MOL0    Cl 3771   6.596   2.518   2.673  0.0435 -0.1936  0.5392
   28MOL0     C 3772   7.087   3.021   3.010 -1.0202 -0.4764  0.5279
   28MOL0     C 3773   7.216   3.015   3.066  0.6458 -0.1790 -0.5625
   28MOL0     O 3774   7.420   3.243   3.306 -0.1130  0.6434  0.8330
   28MOL0     C 3775   7.686   3.215   3.074 -1.0552  0.3232  0.2181
   28MOL0     C 3776   7.821   3.238   3.049 -0.7398 -0.4903  0.5022
   28MOL0     N 3777   8.341   3.313   3.696  0.3376  0.1763 -0.3121
   28MOL0     N 3778   8.361   3.312   3.822  0.3972  0.6287  0.3670
   28MOL0     C 3779   8.315   3.195   5.077 -0.4130  0.5084 -0.5544
   28MOL0     C 3780   8.248   3.129   5.181 -0.6489 -0.0268  1.0760
   28MOL0     C 3781   8.163   2.749   5.451  0.1932 -0.0976  0.7000
   28MOL0     C 3782   8.092   2.634   5.440  0.6117  0.1021 -0.0150
   28MOL0     C 3783   8.048   2.576   5.548 -0.5973  0.9796 -0.6423
   28MOL0     C 3784   8.081   2.625   5.679 -0.2894  1.0064  0.5994
   28MOL0     O 3785   8.060   2.541   5.788 -0.0850 -0.0174  0.3811
   28MOL0     C 3786   7.941   2.551   5.859 -0.1654 -0.7446  0.4499
   28MOL0     C 3787   7.953   2.472   5.989 -0.2162  0.3301  0.3771
   28MOL0     C 3788   7.944   2.321   5.984 -0.4576 -0.5814  0.4873
   28MOL0     C 3789   7.878   2.281   6.120 -0.6535 -0.1357  0.4562
   28MOL0     C 3790   7.903   2.138   6.149 -0.5506 -0.9083  0.0290
   28MOL0     C 3791   7.928   2.019   6.159  0.0833  0.2112  0.2092
   28MOL0     C 3792   8.154   2.736   5.691  0.5011 -0.3735 -0.2211
   28MOL0     C 3793   8.195   2.812   5.577 -0.3709  0.2201 -0.1178
   28MOL0     C 3794   8.280   2.931   5.586 -0.4530  0.0217  0.0715
   28MOL0     H 3795   8.251   2.813   5.051  0.3859 -0.2681 -1.8421
   28MOL0     H 3796   8.361   2.938   4.863  0.7038  1.0718 -0.6770
   28MOL0     H 3797   8.429   3.062   4.708  3.8487 -0.5030 -0.7425
   28MOL0     H 3798   8.517   3.207   4.686 -1.1127  1.5065 -2.2458
   28MOL0     H 3799   8.210   3.179   4.719 -1.6174  1.7775 -2.6147
   28MOL0     H 3800   8.289   3.329   4.740  1.7198 -0.6778  1.4070
   28MOL0     H 3801   8.373   3.340   4.508  1.3074  0.7122  3.1035
   28MOL0     H 3802   8.319   3.170   4.486  2.4727  0.6628  0.4433
   28MOL0     H 3803   8.081   3.257   4.521 -1.4060  0.0971 -0.3506
   28MOL0     H 3804   8.137   3.429   4.514  1.3444  0.2547  0.1896
   28MOL0     H 3805   8.052   3.369   4.295  0.0877 -1.6689 -2.5053
   28MOL0     H 3806   8.145   3.213   4.298  3.2460 -0.0710 -0.7303
   28MOL0     H 3807   8.275   3.480   4.307 -0.5276 -0.0983 -0.3474
   28MOL0     H 3808   8.354   3.327   4.271 -0.9729 -2.6761 -1.3604
   28MOL0     H 3809   8.340   3.465   4.071  0.6290  0.5680  0.8776
   28MOL0     H 3810   8.163   3.480   4.085 -1.5191 -1.8830 -2.2228
   28MOL0     H 3811   8.306   3.208   4.044  0.2968  1.4814 -0.1559
   28MOL0     H 3812   8.136   3.226   4.037 -2.0619  1.9043 -4.0022
   28MOL0     H 3813   8.038   3.272   3.818  0.7044 -3.2906 -0.9956
   28MOL0     H 3814   8.115   3.387   3.497  0.0735  0.0166 -0.5862
   28MOL0     H 3815   8.072   3.213   3.538 -1.3774  1.9355  0.6583
   28MOL0     H 3816   8.321   3.313   3.409 -0.4330 -1.4399 -3.8892
   28MOL0     H 3817   8.296   3.139   3.470 -1.7273 -0.9387  0.7862
   28MOL0     H 3818   8.265   3.149   3.228 -1.1619 -1.0395  0.4027
   28MOL0     H 3819   8.106   3.127   3.290  0.6969 -1.2348 -0.4066
   28MOL0     H 3820   8.118   3.403   3.287 -2.0465 -0.7958  0.1753
   28MOL0     H 3821   8.231   3.375   3.165  1.1667 -2.7523 -1.2940
   28MOL0     H 3822   7.921   3.346   3.343  0.2968 -0.5448 -0.8374
   28MOL0     H 3823   7.576   3.439   3.401 -0.0417 -0.3298 -0.7631
   28MOL0     H 3824   7.731   3.430   3.484  0.6213 -0.9756  1.3286
   28MOL0     H 3825   7.616   3.296   3.489 -3.1450  0.1862 -1.1796
   28MOL0     H 3826   7.276   3.358   3.045 -0.4052 -0.3192 -1.4806
   28MOL0     H 3827   7.068   3.358   2.977  2.7077  0.3671  0.6025
   28MOL0     H 3828   6.814   3.315   2.987  0.7933 -0.1451 -0.1844
   28MOL0     H 3829   6.880   3.324   2.829 -0.0154 -0.5714 -1.3660
   28MOL0     H 3830   6.641   3.312   2.818  0.3914  1.1076  2.8158
   28MOL0     H 3831   6.692   3.149   2.764  1.2490  2.9111 -1.8670
   28MOL0     H 3832   6.489   3.194   2.927  0.3362  2.6252  1.0848
   28MOL0     H 3833   6.614   3.237   3.051  1.8307 -0.3115  0.1355
   28MOL0     H 3834   6.567   3.016   3.107 -2.7046 -1.4275 -1.6742
   28MOL0     H 3835   6.722   3.021   3.031  0.3253  0.0352  0.9355
   28MOL0     H 3836   6.459   2.952   2.895 -1.1943 -0.4871  0.4634
   28MOL0     H 3837   6.621   2.938   2.813 -1.7757  0.8188 -1.0660
   28MOL0     H 3838   6.528   2.789   3.065  0.2949 -2.7297  0.6398
   28MOL0     H 3839   6.694   2.778   2.988 -0.5072 -3.0432  0.8033
   28MOL0     H 3840   6.447   2.713   2.839 -0.8622  1.7279  2.8556
   28MOL0     H 3841   6.535   2.587   2.937 -0.3437  0.4148  0.8322
   28MOL0     H 3842   6.743   2.627   2.829 -0.7348  1.6535  4.2445
   28MOL0     H 3843   6.658   2.739   2.713  2.6336  0.6672  1.0747
   28MOL0     H 3844   7.030   2.929   2.998 -3.4387  0.9096  0.7289
   28MOL0     H 3845   7.258   2.929   3.117 -1.3572 -1.3973 -0.8771
   28MOL0     H 3846   7.640   3.180   2.982  0.5886  0.5914 -0.7538
   28MOL0     H 3847   7.858   3.215   2.950 -1.5110 -2.8446  0.7029
   28MOL0     H 3848   8.341   3.300   5.080  0.5663  0.2896 -1.1939
   28MOL0     H 3849   8.216   3.185   5.268 -1.0767 -0.9410  1.5265
   28MOL0     H 3850   8.082   2.579   5.347  4.5398 -0.3306 -0.3372
   28MOL0     H 3851   7.989   2.484   5.546 -2.2881  2.0100 -0.1846
   28MOL0     H 3852   7.915   2.656   5.870 -1.9373 -1.0135 -0.7677
   28MOL0     H 3853   7.851   2.514   5.809 -1.5127 -1.0889  2.9499
   28MOL0     H 3854   7.871   2.508   6.052 -1.0268  0.4911 -0.7309
   28MOL0     H 3855   8.046   2.499   6.039 -0.6375 -1.0640  2.0017
   28MOL0     H 3856   7.878   2.279   5.908  5.0452 -1.2748 -4.7325
   28MOL0     H 3857   8.046   2.280   5.984  0.5224  1.4368 -2.8428
   28MOL0     H 3858   7.771   2.303   6.124 -0.8881 -1.0669 -0.4160
   28MOL0     H 3859   7.928   2.329   6.205  2.4548 -1.8764 -0.2152
   28MOL0     H 3860   7.956   1.918   6.181  1.1284  0.2954 -0.6834
   28MOL0     H 3861   8.188   2.766   5.790 -0.5032 -0.7464  0.2570
   28MOL0     H 3862   8.377   2.893   5.553 -1.3438 -3.2276  0.7847
   28MOL0     H 3863   8.226   3.008   5.530  1.1122  0.0480 -1.4732
   28MOL0     H 3864   8.296   2.965   5.689  2.2144 -0.0160 -0.2602
   29MOL0     O 3865   1.111   4.155   5.129 -0.2344  0.5096  1.2039
   29MOL0     C 3866   1.146   4.265   5.092 -0.4850 -0.0306  0.3480
   29MOL0     O 3867   1.145   4.317   4.969  0.1235 -0.0187  0.4391
   29MOL0     C 3868   1.132   4.226   4.871 -0.0302  0.7839  0.8658
   29MOL0     C 3869   1.246   4.158   4.817  0.4101 -0.1429 -1.2192
   29MOL0     C 3870   1.235   4.092   4.692  0.2948 -0.4571  0.6934
   29MOL0     C 3871   1.110   4.064   4.631 -0.8902  0.0560  0.4292
   29MOL0     O 3872   1.114   3.985   4.523  0.3244  0.9219 -0.3219
   29MOL0     C 3873   1.011   4.006   4.426  0.1614  0.5880  0.6951
   29MOL0     C 3874   1.021   3.899   4.316 -0.4076 -0.6007 -0.1804
   29MOL0     C 3875   1.004   3.757   4.361  0.0187 -1.1106 -1.1736
   29MOL0     C 3876   0.934   3.669   4.246 -0.1888 -0.1387 -0.3192
   29MOL0     C 3877   0.780   3.678   4.236  0.7210  0.5569 -0.5492
   29MOL0     C 3878   0.727   3.551   4.178 -0.5183 -0.1384 -0.6042
   29MOL0     C 3879   0.581   3.583   4.147 -0.5272 -0.0540 -0.4918
   29MOL0     C 3880   0.502   3.446   4.143  0.8391  0.7691 -0.5633
   29MOL0     N 3881   0.541   3.384   4.017  0.0724  0.2710  0.3328
   29MOL0     C 3882   0.498   3.418   3.896  0.4832 -0.3925 -0.8548
   29MOL0     C 3883   0.551   3.329   3.810  0.1990 -0.1890  0.7699
   29MOL0     C 3884   0.544   3.320   3.663  1.7290 -0.7123 -0.6571
   29MOL0     C 3885   0.611   3.438   3.597 -0.8775  0.6930 -0.0470
   29MOL0     C 3886   0.597   3.415   3.450 -0.2689  0.5330  0.1540
   29MOL0     C 3887   0.651   3.530   3.363 -1.0963  0.7674 -0.4594
   29MOL0     O 3888   0.577   3.647   3.395 -0.3418  0.4831 -0.8756
   29MOL0     C 3889   0.601   3.771   3.336 -0.1180  0.5995  0.2915
   29MOL0     C 3890   0.540   3.898   3.363  0.0522  0.6672 -0.3087
   29MOL0     C 3891   0.552   4.009   3.270  0.3578  0.0665 -0.2389
   29MOL0     C 3892   0.461   4.133   3.292  0.1937  0.0136  0.2214
   29MOL0     C 3893   0.641   4.005   3.164 -1.0168  0.8530 -1.1022
   29MOL0     C 3894   0.672   4.117   3.080 -0.3473 -0.6345 -0.4978
   29MOL0     O 3895   0.660   4.246   3.129  0.6412 -0.0175 -0.1722
   29MOL0     C 3896   0.627   4.355   3.037 -0.6218 -0.1818 -0.7145
   29MOL0     C 3897   0.715   4.387   2.938  0.4499  0.4280 -1.4553
   29MOL0     C 3898   0.700   4.495   2.859  0.6523 -0.1434 -0.6082
   29MOL0     C 3899   0.597   4.600   2.891 -0.7177 -0.4509  0.7364
   29MOL0     O 3900   0.570   4.708   2.816 -0.2629  0.0384 -0.5147
   29MOL0     C 3901   0.670   4.758   2.727 -0.5640 -0.4549 -0.0044
   29MOL0     C 3902   0.657   4.904   2.743 -0.3056 -0.2875 -0.2468
   29MOL0     C 3903   0.708   4.973   2.615  0.8563  0.3678  0.7750
   29MOL0     C 3904   0.856   4.951   2.578 -0.1513  0.9595 -0.1087
   29MOL0     C 3905   0.897   5.045   2.459 -0.2473  0.1985  0.3368
   29MOL0     C 3906   1.039   5.011   2.407  0.4717 -0.3565  0.5645
   29MOL0     C 3907   1.091   5.137   2.320  0.2130 -0.2349 -0.7003
   29MOL0     C 3908   1.225   5.119   2.253  0.2102  0.0382 -0.3968
   29MOL0    Cl 3909   1.337   5.100   2.392 -0.1511 -0.0409 -0.0239
   29MOL0     C 3910   0.504   4.561   2.988 -0.0666 -0.2590  0.1449
   29MOL0     C 3911   0.515   4.435   3.057 -0.4020  0.1909  0.4107
   29MOL0     O 3912   0.707   4.092   2.962  0.9485  0.7876 -0.1032
   29MOL0     C 3913   0.709   3.880   3.146 -0.2492  0.0808  0.5125
   29MOL0     C 3914   0.681   3.765   3.223  0.5550  0.2265 -0.1070
   29MOL0     N 3915   0.631   3.244   3.888 -0.2337 -0.5859  0.1917
   29MOL0     N 3916   0.632   3.288   4.011  0.1740 -0.7835 -0.7131
   29MOL0     C 3917   0.993   4.119   4.697  1.1441  0.5184  1.5119
   29MOL0     C 3918   1.007   4.200   4.816  1.1999 -0.0453 -0.2681
   29MOL0     C 3919   1.201   4.347   5.209 -0.2388 -0.3253  0.8233
   29MOL0     C 3920   1.326   4.414   5.210 -0.2641  0.6692 -0.0991
   29MOL0     C 3921   1.367   4.490   5.314 -0.8985 -0.9369 -0.0795
   29MOL0     C 3922   1.288   4.497   5.436 -0.0170 -0.0621  0.0437
   29MOL0     O 3923   1.331   4.579   5.529  0.1135  0.2741 -0.6892
   29MOL0     C 3924   1.293   4.555   5.659 -0.8351 -0.3878 -0.2144
   29MOL0     C 3925   1.382   4.641   5.746  0.7069  0.0972 -0.2578
   29MOL0     C 3926   1.526   4.600   5.742 -0.6188 -0.8120 -0.0703
   29MOL0     C 3927   1.636   4.677   5.814 -0.5256 -0.4278 -0.1244
   29MOL0     C 3928   1.654   4.808   5.755 -0.3321  0.4205  0.1503
   29MOL0     C 3929   1.674   4.907   5.687  0.6784  1.4104 -0.0023
   29MOL0     C 3930   1.165   4.429   5.433  0.6127 -0.0771 -0.6631
   29MOL0     C 3931   1.122   4.359   5.322  1.2997 -0.5604 -0.6959
   29MOL0     C 3932   0.975   4.322   5.322  0.3402 -0.3895  0.4931
   29MOL0     H 3933   1.347   4.177   4.852  0.3701 -2.0326  0.0833
   29MOL0     H 3934   1.323   4.055   4.641  0.2698  0.7605 -0.2719
   29MOL0     H 3935   1.033   4.105   4.386  0.6851  0.9069  1.7423
   29MOL0     H 3936   0.912   4.007   4.472 -0.4741  0.1771 -0.6037
   29MOL0     H 3937   0.942   3.927   4.245 -0.8349 -0.1019  0.4718
   29MOL0     H 3938   1.123   3.904   4.279 -1.2775  2.2909 -2.6677
   29MOL0     H 3939   1.095   3.716   4.405 -0.4226 -0.4939  0.3841
   29MOL0     H 3940   0.936   3.751   4.446  2.7545 -2.3007  1.0765
   29MOL0     H 3941   0.994   3.674   4.155 -0.6949 -3.9628 -1.0493
   29MOL0     H 3942   0.958   3.567   4.279  2.3007  0.3231 -0.5092
   29MOL0     H 3943   0.751   3.771   4.185 -2.5453  0.8700  1.5192
   29MOL0     H 3944   0.750   3.685   4.341 -0.1866 -2.0379 -0.5699
   29MOL0     H 3945   0.785   3.503   4.098 -0.1393 -0.7803  0.0467
   29MOL0     H 3946   0.730   3.485   4.265 -1.0645  0.0877 -0.4086
   29MOL0     H 3947   0.562   3.635   4.053  1.4061  1.5799 -0.0591
   29MOL0     H 3948   0.533   3.645   4.224 -1.1409 -1.3389  0.2056
   29MOL0     H 3949   0.526   3.370   4.218  0.2755  0.3545 -0.7995
   29MOL0     H 3950   0.399   3.482   4.156  1.0192  0.7109  1.4269
   29MOL0     H 3951   0.427   3.498   3.879 -0.8299 -1.3390 -0.1251
   29MOL0     H 3952   0.438   3.317   3.637  2.0785  1.7462 -2.6285
   29MOL0     H 3953   0.600   3.232   3.631  0.5418 -2.6753  2.1798
   29MOL0     H 3954   0.557   3.532   3.614 -0.9324  1.1101 -2.2601
   29MOL0     H 3955   0.719   3.440   3.618 -0.7601 -1.0085 -0.4045
   29MOL0     H 3956   0.658   3.327   3.426  3.3092  2.8883 -0.2226
   29MOL0     H 3957   0.493   3.400   3.422  0.1635  1.0044 -1.8179
   29MOL0     H 3958   0.755   3.555   3.387  0.1160 -2.9537 -1.0666
   29MOL0     H 3959   0.643   3.510   3.255 -1.7552  0.7226 -0.4028
   29MOL0     H 3960   0.475   3.898   3.449  2.3456 -2.3599  1.6568
   29MOL0     H 3961   0.377   4.101   3.354  0.2891 -0.4840  0.0975
   29MOL0     H 3962   0.417   4.170   3.199 -1.3338 -0.6734  0.6464
   29MOL0     H 3963   0.509   4.209   3.354  2.3940 -2.0192  1.1635
   29MOL0     H 3964   0.788   4.308   2.921 -0.7973 -1.3636  0.7944
   29MOL0     H 3965   0.748   4.514   2.763 -0.3301  1.1194 -0.8815
   29MOL0     H 3966   0.770   4.728   2.761 -0.1466  0.2457 -0.5994
   29MOL0     H 3967   0.657   4.727   2.623 -0.8905  1.4368 -0.5796
   29MOL0     H 3968   0.552   4.930   2.756 -0.3865 -1.3651  1.4779
   29MOL0     H 3969   0.710   4.937   2.833 -1.8700 -1.3386  1.1059
   29MOL0     H 3970   0.688   5.080   2.620 -1.5288  0.1515 -1.7493
   29MOL0     H 3971   0.641   4.930   2.540  2.1230 -2.6482  1.2087
   29MOL0     H 3972   0.869   4.850   2.539  1.8428  1.5528 -1.1330
   29MOL0     H 3973   0.923   4.963   2.664  1.1642  1.4175 -1.1568
   29MOL0     H 3974   0.828   5.049   2.374  0.5502  3.8320 -0.3216
   29MOL0     H 3975   0.897   5.151   2.487  1.5978 -0.5296  3.5086
   29MOL0     H 3976   1.028   4.915   2.355 -1.0152 -1.5107  2.8197
   29MOL0     H 3977   1.108   4.976   2.485  2.5904 -0.6689 -1.3468
   29MOL0     H 3978   1.102   5.227   2.381 -1.3373 -2.1355  2.6578
   29MOL0     H 3979   1.011   5.141   2.246 -1.2272  0.4711  0.8198
   29MOL0     H 3980   1.247   5.195   2.177  3.3088 -1.1457 -0.8373
   29MOL0     H 3981   1.232   5.026   2.196 -2.3116 -1.1637  1.1046
   29MOL0     H 3982   0.421   4.631   2.993  1.8661  2.2541 -0.6261
   29MOL0     H 3983   0.433   4.404   3.122 -1.4149  0.8601 -0.5122
   29MOL0     H 3984   0.776   3.877   3.060  0.0093  3.7260  0.4077
   29MOL0     H 3985   0.741   3.678   3.199  0.1871  0.5550 -2.4952
   29MOL0     H 3986   0.894   4.096   4.661  0.6594  2.6151  1.3924
   29MOL0     H 3987   0.925   4.246   4.870  0.9713  0.7507 -1.2665
   29MOL0     H 3988   1.391   4.406   5.124 -0.7359  0.7783 -0.4695
   29MOL0     H 3989   1.465   4.536   5.309 -2.1895  2.3413  1.6942
   29MOL0     H 3990   1.186   4.577   5.673 -0.6334 -0.9166  2.8543
   29MOL0     H 3991   1.306   4.449   5.682  1.0094  0.0625  1.0087
   29MOL0     H 3992   1.355   4.610   5.847 -2.7794  4.1675  0.3603
   29MOL0     H 3993   1.357   4.747   5.731 -1.5513 -0.2604  0.6895
   29MOL0     H 3994   1.522   4.499   5.782 -1.5434 -0.4263  0.8637
   29MOL0     H 3995   1.548   4.597   5.635 -2.7375  0.6056 -0.6168
   29MOL0     H 3996   1.727   4.617   5.804  0.5089  0.9941  0.4715
   29MOL0     H 3997   1.610   4.699   5.918 -1.8693 -3.3198  0.2518
   29MOL0     H 3998   1.678   5.000   5.635  0.7227  3.1079  2.8471
   29MOL0     H 3999   1.102   4.433   5.522 -0.4333 -1.8403 -1.2778
   29MOL0     H 4000   0.921   4.385   5.393  1.1314 -1.2556  1.9368
   29MOL0     H 4001   0.934   4.340   5.223  1.4863 -0.5339 -0.0210
   29MOL0     H 4002   0.966   4.215   5.344 -2.1347 -0.0891  1.1757
   30MOL0     O 4003   5.535   3.411   2.617  0.4801  0.0640  0.0097
   30MOL0     C 4004   5.432   3.451   2.558 -0.4058  0.0982  0.4300
   30MOL0     O 4005   5.412   3.574   2.504  0.1455 -0.4766 -0.3508
   30MOL0     C 4006   5.507   3.677   2.510  0.7128 -0.4620 -0.4950
   30MOL0     C 4007   5.641   3.659   2.523 -0.1642  0.5363 -0.3473
   30MOL0     C 4008   5.725   3.770   2.515  0.9019  0.4057 -0.4901
   30MOL0     C 4009   5.674   3.900   2.512  0.1798  0.4378  0.7032
   30MOL0     O 4010   5.757   4.010   2.516  0.0241  0.8527  0.5820
   30MOL0     C 4011   5.846   4.012   2.401 -0.3869 -0.2660 -0.1028
   30MOL0     C 4012   5.773   4.079   2.282 -0.4432 -0.2409  0.3784
   30MOL0     C 4013   5.877   4.136   2.183 -0.6573  0.1624  0.1655
   30MOL0     C 4014   5.820   4.221   2.066 -0.3344 -0.1083 -0.4047
   30MOL0     C 4015   5.825   4.147   1.930 -0.2726 -0.0193  0.1093
   30MOL0     C 4016   5.747   4.211   1.812  0.4404 -0.1875 -0.4174
   30MOL0     C 4017   5.796   4.350   1.764  0.3993 -0.8171 -0.8105
   30MOL0     C 4018   5.716   4.414   1.656 -0.4818 -0.1614  0.6322
   30MOL0     N 4019   5.750   4.359   1.525 -0.1294  0.1133 -0.4892
   30MOL0     C 4020   5.856   4.404   1.446 -0.7769  0.1688 -0.7059
   30MOL0     C 4021   5.851   4.324   1.343  0.3334  0.2211  0.2699
   30MOL0     C 4022   5.929   4.339   1.215  0.2816  0.3415  0.2920
   30MOL0     C 4023   6.070   4.286   1.237 -0.1070  0.7313 -0.0258
   30MOL0     C 4024   6.168   4.347   1.136  0.3352  0.2108  0.0838
   30MOL0     C 4025   6.228   4.486   1.172 -0.3661 -0.1087  0.2195
   30MOL0     O 4026   6.313   4.476   1.291  0.8544 -0.0273 -0.6648
   30MOL0     C 4027   6.365   4.593   1.334  0.3872  0.8968 -0.2440
   30MOL0     C 4028   6.464   4.588   1.432  1.1798  0.6926  0.4653
   30MOL0     C 4029   6.530   4.702   1.477 -0.4252  1.2718 -0.2801
   30MOL0     C 4030   6.634   4.679   1.593  0.4534 -0.5895  0.9860
   30MOL0     C 4031   6.501   4.828   1.420  0.0851  0.3422  1.0469
   30MOL0     C 4032   6.568   4.952   1.464  0.2338  0.3197  0.5887
   30MOL0     O 4033   6.478   5.054   1.495 -0.0832  0.2895  0.6698
   30MOL0     C 4034   6.508   5.182   1.516  0.1464 -0.5271  0.0725
   30MOL0     C 4035   6.618   5.224   1.604 -0.4317  0.0140  0.4343
   30MOL0     C 4036   6.627   5.361   1.637 -1.0362  1.1046  0.5735
   30MOL0     C 4037   6.550   5.454   1.572 -0.9888 -0.3141 -0.2912
   30MOL0     O 4038   6.569   5.587   1.617 -0.0039 -0.4093  0.4960
   30MOL0     C 4039   6.558   5.694   1.524  0.0771  0.4648 -1.1343
   30MOL0     C 4040   6.653   5.670   1.404 -1.0394 -0.6307 -0.4435
   30MOL0     C 4041   6.677   5.792   1.324 -0.2459 -0.2805  1.1029
   30MOL0     C 4042   6.550   5.831   1.245  0.5625  0.4399 -0.8797
   30MOL0     C 4043   6.577   5.957   1.163 -0.6726 -0.8455  0.4939
   30MOL0     C 4044   6.460   6.006   1.086 -0.9475 -0.3978  0.4187
   30MOL0     C 4045   6.490   6.130   1.008  0.4306  0.0959 -0.4711
   30MOL0     C 4046   6.369   6.207   0.962 -0.5022 -0.0565  0.8412
   30MOL0    Cl 4047   6.278   6.277   1.100 -0.0363 -0.4116  0.7397
   30MOL0     C 4048   6.440   5.415   1.483 -0.0983 -0.1214 -0.0944
   30MOL0     C 4049   6.414   5.279   1.457 -0.2157  0.2240 -0.8603
   30MOL0     O 4050   6.694   4.966   1.467  0.8680 -0.0581  0.5100
   30MOL0     C 4051   6.399   4.838   1.330 -0.3970  0.2596 -0.0693
   30MOL0     C 4052   6.326   4.727   1.292  0.5458  0.2430 -0.1354
   30MOL0     N 4053   5.768   4.222   1.365  0.6481  0.5804 -1.0567
   30MOL0     N 4054   5.708   4.234   1.481 -0.2094  0.7911  0.0810
   30MOL0     C 4055   5.535   3.909   2.507 -0.4026 -0.3164 -0.5245
   30MOL0     C 4056   5.448   3.803   2.492 -0.4845 -0.0850  1.1784
   30MOL0     C 4057   5.318   3.361   2.549 -0.2525 -0.3210  0.9234
   30MOL0     C 4058   5.263   3.302   2.665 -0.2330 -0.1004  0.4263
   30MOL0     C 4059   5.147   3.216   2.667 -0.2151 -0.8944 -0.4199
   30MOL0     C 4060   5.081   3.199   2.543  0.4413 -0.4710  0.3596
   30MOL0     O 4061   4.992   3.103   2.543  0.4855  0.5689  0.9203
   30MOL0     C 4062   5.013   2.988   2.464 -0.0842 -0.2496 -0.1348
   30MOL0     C 4063   4.900   2.968   2.377  0.1909 -0.7771 -0.5787
   30MOL0     C 4064   4.923   2.854   2.278 -0.6040 -0.0698 -0.0946
   30MOL0     C 4065   4.825   2.864   2.165  0.3795 -0.9761  0.1291
   30MOL0     C 4066   4.795   2.739   2.096  0.2131  0.0879  0.4440
   30MOL0     C 4067   4.737   2.643   2.048 -0.3080  0.2394  0.0969
   30MOL0     C 4068   5.122   3.273   2.431 -0.4391 -0.6809  0.1166
   30MOL0     C 4069   5.240   3.348   2.429 -0.7653  0.3350  0.2746
   30MOL0     C 4070   5.293   3.413   2.303 -0.2821 -0.5631 -0.2123
   30MOL0     H 4071   5.692   3.563   2.525  3.3471  2.2255  2.2128
   30MOL0     H 4072   5.833   3.759   2.515  1.1651  2.5476 -0.7073
   30MOL0     H 4073   5.909   3.927   2.374 -0.8579 -0.6640  0.0220
   30MOL0     H 4074   5.931   4.076   2.427 -1.0332  0.4154  0.3747
   30MOL0     H 4075   5.703   4.005   2.240 -0.4183  0.1151 -0.3029
   30MOL0     H 4076   5.722   4.169   2.318  1.4869  1.8830 -1.8674
   30MOL0     H 4077   5.953   4.194   2.236 -2.3761  0.7700  2.1059
   30MOL0     H 4078   5.931   4.045   2.157  0.7517  0.9846  0.1163
   30MOL0     H 4079   5.719   4.255   2.092  0.2993  1.3868  0.2631
   30MOL0     H 4080   5.879   4.313   2.063 -1.6168  0.7331 -0.9110
   30MOL0     H 4081   5.780   4.048   1.940 -1.4216  0.3310 -1.2056
   30MOL0     H 4082   5.927   4.133   1.892  1.2291  0.9278  3.4276
   30MOL0     H 4083   5.758   4.144   1.727  1.3008 -0.6012  0.0053
   30MOL0     H 4084   5.640   4.226   1.828 -0.1423  0.4919 -4.1534
   30MOL0     H 4085   5.890   4.335   1.709 -0.2053 -0.9973 -1.8180
   30MOL0     H 4086   5.803   4.419   1.849 -0.0546  0.6933 -1.9690
   30MOL0     H 4087   5.610   4.406   1.680 -0.1475 -2.0522  1.7280
   30MOL0     H 4088   5.758   4.514   1.643  2.5214 -1.4034 -0.2599
   30MOL0     H 4089   5.935   4.476   1.465  0.9131 -1.9878  1.0851
   30MOL0     H 4090   5.903   4.439   1.179  0.6253  1.4395  2.8746
   30MOL0     H 4091   5.885   4.267   1.145 -1.6278  2.4460 -0.8175
   30MOL0     H 4092   6.112   4.312   1.335  1.1691  1.7459 -0.7988
   30MOL0     H 4093   6.076   4.177   1.232  0.1647  0.8130 -3.3364
   30MOL0     H 4094   6.259   4.285   1.143 -0.8861 -1.7595 -0.5581
   30MOL0     H 4095   6.135   4.339   1.032  1.5843 -0.8116 -0.2697
   30MOL0     H 4096   6.287   4.503   1.082 -0.6506  0.7908  0.1936
   30MOL0     H 4097   6.141   4.553   1.177 -2.3263 -2.3707 -1.4319
   30MOL0     H 4098   6.493   4.490   1.467  0.8944 -0.1223 -1.4322
   30MOL0     H 4099   6.588   4.611   1.664  1.2171 -3.1034 -0.7900
   30MOL0     H 4100   6.656   4.778   1.634  0.4510  0.8286 -2.1221
   30MOL0     H 4101   6.725   4.631   1.554  1.4871  1.2478  0.9700
   30MOL0     H 4102   6.679   5.143   1.641 -0.7139 -1.2296 -1.6358
   30MOL0     H 4103   6.712   5.402   1.690 -2.3488  3.2361  1.1253
   30MOL0     H 4104   6.453   5.702   1.492  0.9376 -0.2049 -4.4878
   30MOL0     H 4105   6.599   5.775   1.585 -2.3323  0.6811  0.3414
   30MOL0     H 4106   6.750   5.654   1.453 -1.1252  3.1292  1.3424
   30MOL0     H 4107   6.616   5.588   1.341 -0.9378 -0.5460 -0.6129
   30MOL0     H 4108   6.756   5.790   1.249 -0.7006 -0.2015  0.6162
   30MOL0     H 4109   6.719   5.873   1.386  2.6562 -0.4763 -0.4588
   30MOL0     H 4110   6.458   5.842   1.303 -0.7153  1.5765 -2.9976
   30MOL0     H 4111   6.548   5.748   1.175 -1.2359 -1.0737  0.8539
   30MOL0     H 4112   6.606   6.040   1.229  1.7827 -1.5433  0.3793
   30MOL0     H 4113   6.652   5.929   1.089  0.1019  1.4980  0.3199
   30MOL0     H 4114   6.384   6.029   1.161  0.5964  2.4699  1.2583
   30MOL0     H 4115   6.429   5.930   1.014 -0.4521  1.9970 -2.5367
   30MOL0     H 4116   6.552   6.111   0.920 -1.7081 -1.6400 -1.7019
   30MOL0     H 4117   6.561   6.193   1.062  0.3603 -1.3290  1.3606
   30MOL0     H 4118   6.299   6.137   0.914 -2.0491  0.0565  2.8003
   30MOL0     H 4119   6.398   6.290   0.897 -0.1389  1.0663  2.3988
   30MOL0     H 4120   6.366   5.483   1.444  0.4865 -0.2138 -1.4264
   30MOL0     H 4121   6.329   5.243   1.400 -2.8471 -1.2858  3.5371
   30MOL0     H 4122   6.372   4.935   1.292  0.5796  1.2686  1.6603
   30MOL0     H 4123   6.237   4.735   1.229  0.4219  1.0485  0.1331
   30MOL0     H 4124   5.490   4.007   2.503  0.3569  0.2041  1.7623
   30MOL0     H 4125   5.345   3.833   2.474  0.2860  0.8517 -2.5025
   30MOL0     H 4126   5.317   3.317   2.758 -1.1623 -1.8150  1.2901
   30MOL0     H 4127   5.117   3.158   2.754  1.3020  0.1133  0.8307
   30MOL0     H 4128   5.112   2.998   2.419 -0.6948  1.3663 -1.2448
   30MOL0     H 4129   5.012   2.909   2.539 -4.8739 -2.5718 -2.2062
   30MOL0     H 4130   4.884   3.064   2.326 -3.9610 -2.1770 -2.3184
   30MOL0     H 4131   4.818   2.942   2.444  0.5233 -3.2895 -1.0446
   30MOL0     H 4132   5.023   2.871   2.239 -1.0232  2.7152 -0.1935
   30MOL0     H 4133   4.929   2.757   2.329  0.7595 -0.6284 -1.2713
   30MOL0     H 4134   4.864   2.936   2.093  0.1246 -0.6601  0.3048
   30MOL0     H 4135   4.731   2.899   2.208 -0.7899  0.9305 -3.5023
   30MOL0     H 4136   4.693   2.561   1.995  0.0983  0.2336 -0.2329
   30MOL0     H 4137   5.068   3.264   2.337 -1.6701  0.1971  0.7117
   30MOL0     H 4138   5.395   3.385   2.273  0.7410  1.6373  0.9244
   30MOL0     H 4139   5.215   3.387   2.231 -1.6458 -0.3491  1.1337
   30MOL0     H 4140   5.280   3.522   2.303 -2.5987 -0.7471 -2.1519
   31MOL0     O 4141   3.121   8.752   7.549 -0.3650  0.0208 -0.0826
   31MOL0     C 4142   3.211   8.672   7.525  0.9386 -0.6948 -0.0831
   31MOL0     O 4143   3.213   8.604   7.417 -0.3713  0.1926  0.8067
   31MOL0     C 4144   3.204   8.666   7.295  1.0059  0.2193  0.3596
   31MOL0     C 4145   3.299   8.753   7.262  0.6432  0.0479 -0.0203
   31MOL0     C 4146   3.303   8.816   7.134  0.5571 -0.2517  0.1421
   31MOL0     C 4147   3.220   8.770   7.031 -0.4514  0.4324 -0.1200
   31MOL0     O 4148   3.224   8.843   6.910  0.0837  0.2933  0.6532
   31MOL0     C 4149   3.174   8.790   6.785 -0.0953  0.4917  0.5793
   31MOL0     C 4150   3.237   8.651   6.742 -0.3383 -0.8825 -0.9127
   31MOL0     C 4151   3.160   8.593   6.617  0.1739 -0.0205 -0.2354
   31MOL0     C 4152   3.030   8.532   6.639 -0.0524  0.0594  0.6115
   31MOL0     C 4153   2.945   8.481   6.519  0.6306  0.1719  0.0314
   31MOL0     C 4154   3.005   8.356   6.457  0.5328 -1.0904 -0.5813
   31MOL0     C 4155   2.906   8.298   6.359 -0.1523  0.2583  0.8292
   31MOL0     C 4156   2.957   8.197   6.258  0.5322  0.0461 -0.9782
   31MOL0     N 4157   2.874   8.181   6.138  0.1019  0.1853 -0.6169
   31MOL0     C 4158   2.921   8.166   6.011 -0.9558  0.1038 -0.7285
   31MOL0     C 4159   2.813   8.151   5.928 -0.7338 -0.2738 -0.2933
   31MOL0     C 4160   2.823   8.158   5.781  0.3384 -0.4934  0.8189
   31MOL0     C 4161   2.851   8.024   5.709 -0.3787  0.4219 -0.6422
   31MOL0     C 4162   2.805   8.031   5.561  0.7779 -0.5618 -0.1373
   31MOL0     C 4163   2.829   7.890   5.507 -1.0055 -0.7561  0.6079
   31MOL0     O 4164   2.769   7.867   5.382 -0.7312 -0.0908  0.5270
   31MOL0     C 4165   2.648   7.805   5.374  0.4574  0.7736 -0.3142
   31MOL0     C 4166   2.641   7.722   5.259  0.3561  0.5328  0.9982
   31MOL0     C 4167   2.520   7.670   5.212 -0.6487  0.2280  0.6806
   31MOL0     C 4168   2.524   7.578   5.090  0.2034 -1.6117 -0.4029
   31MOL0     C 4169   2.400   7.686   5.298 -0.1585  0.4999 -0.5375
   31MOL0     C 4170   2.270   7.618   5.274 -1.1310  0.0163 -0.8027
   31MOL0     O 4171   2.165   7.653   5.356 -0.8422 -0.8901  0.5684
   31MOL0     C 4172   2.054   7.574   5.372 -0.4720  0.0522  0.0985
   31MOL0     C 4173   2.061   7.445   5.438  0.0118  0.1080 -0.5056
   31MOL0     C 4174   1.946   7.364   5.444 -0.7610 -0.0072  0.2864
   31MOL0     C 4175   1.827   7.401   5.383  0.1924 -0.3096  0.0692
   31MOL0     O 4176   1.709   7.330   5.388  0.3161  0.2411 -0.0171
   31MOL0     C 4177   1.711   7.201   5.444 -0.2781  0.2784  0.6017
   31MOL0     C 4178   1.573   7.137   5.432  0.4465 -0.4100  0.6615
   31MOL0     C 4179   1.552   7.052   5.293 -1.0846 -0.8332  0.5214
   31MOL0     C 4180   1.660   6.959   5.262 -0.0517  1.1277  1.1464
   31MOL0     C 4181   1.615   6.860   5.161  0.4539 -1.0801 -0.9017
   31MOL0     C 4182   1.731   6.776   5.101  0.0678  0.1538 -0.3613
   31MOL0     C 4183   1.683   6.682   4.992 -0.1011 -1.2615  0.7267
   31MOL0     C 4184   1.784   6.567   4.995  0.5025 -0.5124 -0.1423
   31MOL0    Cl 4185   1.778   6.480   4.849 -0.2048 -0.1749  0.1304
   31MOL0     C 4186   1.823   7.520   5.315 -0.7499  0.3965 -0.0336
   31MOL0     C 4187   1.934   7.600   5.306 -0.5538 -0.2058 -0.0945
   31MOL0     O 4188   2.262   7.529   5.197  0.2373 -0.2938  0.4044
   31MOL0     C 4189   2.409   7.769   5.416 -0.1406  0.1466  0.5648
   31MOL0     C 4190   2.535   7.826   5.455  0.1688  0.3219 -0.7711
   31MOL0     N 4191   2.703   8.141   6.006  0.4582  0.0620  0.5391
   31MOL0     N 4192   2.732   8.151   6.133  0.3299  0.8163 -0.0822
   31MOL0     C 4193   3.125   8.676   7.059 -1.0238  0.4299 -0.3289
   31MOL0     C 4194   3.120   8.621   7.189  0.0169  0.3014 -0.0107
   31MOL0     C 4195   3.307   8.632   7.638 -0.1803 -0.0078 -0.6400
   31MOL0     C 4196   3.386   8.515   7.626 -0.6850  0.8025 -0.1063
   31MOL0     C 4197   3.471   8.471   7.725  0.5796  0.1507 -0.9011
   31MOL0     C 4198   3.474   8.531   7.855 -0.3838 -0.1538 -0.3809
   31MOL0     O 4199   3.546   8.463   7.951  0.4353  0.3865 -0.1118
   31MOL0     C 4200   3.563   8.505   8.087 -0.0550 -0.2669  0.3656
   31MOL0     C 4201   3.714   8.543   8.114  0.3064 -0.1575  0.5381
   31MOL0     C 4202   3.741   8.608   8.251 -0.3480  0.3038 -0.4512
   31MOL0     C 4203   3.681   8.529   8.374 -0.8614 -0.2035  0.7989
   31MOL0     C 4204   3.744   8.402   8.352  0.1113  0.8367 -0.6725
   31MOL0     C 4205   3.800   8.292   8.343 -0.7685  0.1508  0.1911
   31MOL0     C 4206   3.404   8.652   7.866  0.6574 -0.3752 -0.3578
   31MOL0     C 4207   3.317   8.699   7.763  0.1440 -0.2806  0.7000
   31MOL0     C 4208   3.275   8.837   7.797 -0.4031 -0.2194  0.6336
   31MOL0     H 4209   3.376   8.779   7.333  1.8876  1.4784 -1.8066
   31MOL0     H 4210   3.381   8.891   7.127  3.7423 -3.2946  0.3763
   31MOL0     H 4211   3.206   8.869   6.717  0.5478 -1.4956 -1.5813
   31MOL0     H 4212   3.066   8.775   6.790 -0.4427  0.0276 -4.0199
   31MOL0     H 4213   3.341   8.678   6.724 -0.3779  1.3908  1.6486
   31MOL0     H 4214   3.245   8.578   6.823  1.1153 -1.1708 -1.2870
   31MOL0     H 4215   3.165   8.668   6.537  2.0091 -1.5688 -1.6998
   31MOL0     H 4216   3.216   8.505   6.581  0.9654  0.1427  0.5714
   31MOL0     H 4217   3.033   8.459   6.720 -0.3360  0.2246  0.7702
   31MOL0     H 4218   2.973   8.609   6.692  0.4626  0.2822  0.8494
   31MOL0     H 4219   2.929   8.560   6.444 -0.6128 -0.9313 -0.9243
   31MOL0     H 4220   2.842   8.458   6.549 -0.5056  5.0261  0.6588
   31MOL0     H 4221   3.095   8.370   6.397 -1.1749  0.3040 -3.0232
   31MOL0     H 4222   3.001   8.286   6.540  2.3381  1.1969  1.5630
   31MOL0     H 4223   2.857   8.378   6.303  2.5919  1.1965 -0.4205
   31MOL0     H 4224   2.816   8.251   6.400 -1.9569  1.8321 -1.1210
   31MOL0     H 4225   3.062   8.223   6.241  0.9992 -0.9545  0.2334
   31MOL0     H 4226   2.962   8.098   6.304  0.4583  1.0875  1.4340
   31MOL0     H 4227   3.026   8.172   5.984 -0.2442 -2.2434  1.1859
   31MOL0     H 4228   2.893   8.235   5.748  1.7634 -2.7825 -1.9120
   31MOL0     H 4229   2.723   8.194   5.753  0.1723 -0.8550  0.9469
   31MOL0     H 4230   2.953   7.991   5.733 -0.9521  0.8715  2.8967
   31MOL0     H 4231   2.783   7.949   5.751 -1.8837  2.4955  0.8599
   31MOL0     H 4232   2.697   8.050   5.557  0.3427 -2.2914  1.5466
   31MOL0     H 4233   2.856   8.097   5.491  1.2011 -1.1454 -0.3901
   31MOL0     H 4234   2.936   7.869   5.497 -1.4011 -1.6797 -3.2861
   31MOL0     H 4235   2.781   7.823   5.579 -2.8387  1.0456  1.1574
   31MOL0     H 4236   2.735   7.713   5.206  1.4379 -2.5588  3.1753
   31MOL0     H 4237   2.440   7.587   5.020  0.0069 -0.5945 -0.0608
   31MOL0     H 4238   2.516   7.475   5.125 -1.7661 -2.0282 -1.8861
   31MOL0     H 4239   2.620   7.595   5.042  0.6671 -0.5803  0.8218
   31MOL0     H 4240   2.151   7.415   5.490 -1.1769 -2.1055  0.4473
   31MOL0     H 4241   1.939   7.275   5.505 -1.5137 -1.5320 -1.9162
   31MOL0     H 4242   1.791   7.135   5.411  0.7899  0.5397  2.5536
   31MOL0     H 4243   1.719   7.216   5.552 -3.0905  1.1179  0.7772
   31MOL0     H 4244   1.544   7.074   5.516 -0.9942 -0.1324  0.4016
   31MOL0     H 4245   1.494   7.213   5.439  0.4924  0.1277 -2.8566
   31MOL0     H 4246   1.536   7.119   5.208  2.4677 -2.3368 -1.5604
   31MOL0     H 4247   1.457   6.998   5.298 -0.4175 -2.2036 -0.7658
   31MOL0     H 4248   1.698   6.914   5.354  2.1109  1.6954  0.5908
   31MOL0     H 4249   1.748   7.006   5.216 -0.6838  1.2518  0.0194
   31MOL0     H 4250   1.549   6.786   5.208 -0.1545  0.6358  1.0662
   31MOL0     H 4251   1.570   6.918   5.080  0.9477  1.6721  0.6743
   31MOL0     H 4252   1.776   6.714   5.179 -3.1610 -0.8349  0.8736
   31MOL0     H 4253   1.808   6.832   5.047  2.6497 -2.2724  0.5488
   31MOL0     H 4254   1.676   6.721   4.890 -0.7228 -1.3645  0.7259
   31MOL0     H 4255   1.584   6.652   5.029 -1.4648  0.6878 -1.1139
   31MOL0     H 4256   1.764   6.512   5.087 -4.5184  3.4960  1.6937
   31MOL0     H 4257   1.886   6.601   5.013  1.0291 -1.0272 -1.9730
   31MOL0     H 4258   1.730   7.540   5.263 -1.9944 -1.7155  1.2145
   31MOL0     H 4259   1.916   7.693   5.253 -0.3893 -0.3385 -0.3839
   31MOL0     H 4260   2.326   7.787   5.483  0.2834  0.0071  1.1385
   31MOL0     H 4261   2.529   7.885   5.546 -0.3029 -0.3064 -0.3779
   31MOL0     H 4262   3.060   8.638   6.980  3.0274 -3.4804 -2.2229
   31MOL0     H 4263   3.055   8.536   7.205 -3.2868  2.6951  0.0929
   31MOL0     H 4264   3.377   8.454   7.537 -1.5474  1.8157 -0.7328
   31MOL0     H 4265   3.510   8.371   7.710 -0.7587 -0.5973  0.3953
   31MOL0     H 4266   3.510   8.596   8.118 -0.1176 -1.2723  3.4665
   31MOL0     H 4267   3.541   8.424   8.155  0.2520  2.3332  3.8330
   31MOL0     H 4268   3.742   8.617   8.038 -3.6372  1.9330  0.8159
   31MOL0     H 4269   3.771   8.450   8.104 -0.1434 -0.3709 -0.2320
   31MOL0     H 4270   3.847   8.619   8.275  0.3460 -1.3369 -2.4245
   31MOL0     H 4271   3.684   8.701   8.253 -1.9746 -0.6433 -1.0468
   31MOL0     H 4272   3.572   8.519   8.375 -0.6760 -3.2910  0.2528
   31MOL0     H 4273   3.716   8.583   8.462 -0.9285 -1.0175  1.3249
   31MOL0     H 4274   3.865   8.207   8.337 -0.4651  0.3247  0.9272
   31MOL0     H 4275   3.419   8.723   7.947  2.5064  1.4916 -2.2160
   31MOL0     H 4276   3.259   8.902   7.710  2.4784 -0.1690  0.0475
   31MOL0     H 4277   3.174   8.821   7.837 -0.8233  0.7093  0.0037
   31MOL0     H 4278   3.348   8.880   7.865  0.7685 -0.4283 -0.4524
   32MOL0     O 4279   2.282   0.418   1.451 -0.4846  0.2580  0.6599
   32MOL0     C 4280   2.196   0.342   1.395 -0.5990 -1.0159  0.4777
   32MOL0     O 4281   2.065   0.328   1.425 -0.6190  0.8071  0.0821
   32MOL0     C 4282   1.999   0.389   1.532 -0.1114 -0.0020  0.7420
   32MOL0     C 4283   2.046   0.494   1.614  0.1129  0.1020  0.2092
   32MOL0     C 4284   1.957   0.557   1.705 -0.4880  0.4497 -0.3573
   32MOL0     C 4285   1.822   0.519   1.716 -0.8665 -0.0079  0.2283
   32MOL0     O 4286   1.738   0.565   1.815 -0.6739  0.2673  0.3808
   32MOL0     C 4287   1.751   0.706   1.857 -0.7696 -0.5758  0.1459
   32MOL0     C 4288   1.633   0.765   1.930  1.0477 -0.2048 -0.3288
   32MOL0     C 4289   1.518   0.789   1.826 -0.0301 -0.8190 -0.8953
   32MOL0     C 4290   1.412   0.854   1.906 -0.0960  0.3101  0.5496
   32MOL0     C 4291   1.285   0.875   1.820 -0.1346 -0.3093  0.2378
   32MOL0     C 4292   1.178   0.952   1.899 -0.2695  0.5205 -0.5722
   32MOL0     C 4293   1.172   0.928   2.052  0.1406 -0.3426 -0.5949
   32MOL0     C 4294   1.062   1.008   2.123  0.1620  0.5901  0.0791
   32MOL0     N 4295   1.104   1.150   2.117 -0.0098 -0.9147 -0.1987
   32MOL0     C 4296   1.081   1.236   2.014 -0.4504  0.4304  0.4796
   32MOL0     C 4297   1.119   1.360   2.058 -0.6884 -0.5192 -0.2812
   32MOL0     C 4298   1.109   1.493   1.991  0.4200  1.1300  0.0775
   32MOL0     C 4299   1.217   1.596   2.038  0.1382 -0.2953  0.3988
   32MOL0     C 4300   1.235   1.715   1.945  0.3519 -0.5895  0.1958
   32MOL0     C 4301   1.321   1.817   2.002  0.9098  0.0851 -0.5393
   32MOL0     O 4302   1.246   1.907   2.089  0.6609 -0.0933  0.1534
   32MOL0     C 4303   1.182   2.024   2.053 -0.1897 -0.0517  0.3763
   32MOL0     C 4304   1.116   2.091   2.156  0.8226 -0.5777  0.0421
   32MOL0     C 4305   1.044   2.201   2.127  0.3317 -0.4986  0.2743
   32MOL0     C 4306   0.975   2.266   2.237  0.7314 -0.5404  0.3874
   32MOL0     C 4307   1.031   2.248   1.998 -0.5508  0.1421 -0.9646
   32MOL0     C 4308   0.962   2.373   1.955 -0.0562  0.5154 -0.3211
   32MOL0     O 4309   0.965   2.480   2.035  0.2502  0.0775  0.7872
   32MOL0     C 4310   0.880   2.588   2.008  0.5851 -0.1538  0.3806
   32MOL0     C 4311   0.799   2.645   2.106  0.2440 -0.2028  0.6566
   32MOL0     C 4312   0.716   2.761   2.076 -0.6692 -0.0102  0.3641
   32MOL0     C 4313   0.713   2.822   1.947  0.5888  0.4008  0.5444
   32MOL0     O 4314   0.629   2.932   1.922 -0.5114 -0.4300 -0.1116
   32MOL0     C 4315   0.633   2.992   1.795  1.0017 -0.5780 -0.2051
   32MOL0     C 4316   0.529   3.099   1.788  0.5245 -0.9107  0.8437
   32MOL0     C 4317   0.556   3.213   1.882 -0.4675  0.5553  0.3126
   32MOL0     C 4318   0.466   3.334   1.849 -0.0691 -1.2607  1.1022
   32MOL0     C 4319   0.493   3.441   1.952 -0.4548 -0.2774  0.5004
   32MOL0     C 4320   0.386   3.552   1.922  0.2948  0.1891  0.0169
   32MOL0     C 4321   0.421   3.687   1.978  0.2514  0.0822 -0.1031
   32MOL0     C 4322   0.321   3.801   1.944 -0.5608  0.1491  0.0888
   32MOL0    Cl 4323   0.319   3.826   1.771 -0.3102 -0.4055  0.0687
   32MOL0     C 4324   0.804   2.770   1.852 -0.0407  0.0804 -0.3908
   32MOL0     C 4325   0.893   2.653   1.876  0.4598  1.0024 -0.4090
   32MOL0     O 4326   0.896   2.359   1.850 -0.5639  0.1365 -1.1171
   32MOL0     C 4327   1.110   2.199   1.898  0.1177  0.3377 -0.0757
   32MOL0     C 4328   1.183   2.075   1.923 -0.2434 -1.1691  0.9147
   32MOL0     N 4329   1.160   1.346   2.187 -1.2909  0.0401  0.2138
   32MOL0     N 4330   1.154   1.218   2.223 -0.4056 -0.4811  0.2236
   32MOL0     C 4331   1.783   0.414   1.629 -0.0358 -0.3617  0.2703
   32MOL0     C 4332   1.864   0.355   1.537  0.1161 -0.6455 -0.3826
   32MOL0     C 4333   2.235   0.254   1.282 -0.8112  0.3360  0.1195
   32MOL0     C 4334   2.159   0.137   1.250  0.5494 -0.2265  0.6433
   32MOL0     C 4335   2.206   0.056   1.142 -0.5191 -0.2460  0.5819
   32MOL0     C 4336   2.321   0.074   1.073 -0.6323  0.4540 -0.4353
   32MOL0     O 4337   2.370   0.003   0.963 -0.1652 -0.9241  0.0789
   32MOL0     C 4338   2.313  -0.121   0.913 -0.1170 -0.6689  0.0548
   32MOL0     C 4339   2.414  -0.204   0.834 -0.8796 -0.3463 -0.4838
   32MOL0     C 4340   2.454  -0.106   0.707 -0.5745 -1.2566 -0.5009
   32MOL0     C 4341   2.597  -0.154   0.647 -0.0475 -0.8659  0.0143
   32MOL0     C 4342   2.673  -0.046   0.578 -0.2567 -0.6425  0.2423
   32MOL0     C 4343   2.732   0.041   0.520  0.6243 -0.3716  0.2459
   32MOL0     C 4344   2.390   0.190   1.098 -0.3647 -0.3762 -0.3705
   32MOL0     C 4345   2.350   0.279   1.198  0.3420 -0.1108 -0.1768
   32MOL0     C 4346   2.426   0.408   1.213 -0.4964  0.4052  0.6338
   32MOL0     H 4347   2.148   0.530   1.614 -0.0603  0.6988  2.0186
   32MOL0     H 4348   2.002   0.633   1.768  4.6105 -1.6550 -0.9289
   32MOL0     H 4349   1.767   0.757   1.762  2.2823 -1.4421  0.0820
   32MOL0     H 4350   1.839   0.717   1.921 -2.4635 -1.2992  2.7955
   32MOL0     H 4351   1.601   0.696   2.008 -2.9493 -0.4383 -1.9215
   32MOL0     H 4352   1.663   0.860   1.974 -3.4588  0.6371  1.4058
   32MOL0     H 4353   1.541   0.853   1.740 -4.5644  0.4649 -1.4245
   32MOL0     H 4354   1.473   0.695   1.794 -2.3246 -0.6931  1.5766
   32MOL0     H 4355   1.399   0.793   1.995 -1.9856 -2.1477 -1.2884
   32MOL0     H 4356   1.449   0.950   1.944  2.6255  1.3791 -3.9903
   32MOL0     H 4357   1.246   0.778   1.789  4.2667 -2.0398 -0.6373
   32MOL0     H 4358   1.311   0.932   1.730 -1.8532 -1.9708 -1.3987
   32MOL0     H 4359   1.191   1.060   1.886 -0.6684  0.4857 -1.3062
   32MOL0     H 4360   1.082   0.917   1.861 -1.2438  0.7449  1.5363
   32MOL0     H 4361   1.264   0.959   2.104 -0.6611  0.4710  0.3931
   32MOL0     H 4362   1.164   0.823   2.080  1.4775 -0.2478  0.2484
   32MOL0     H 4363   0.970   0.987   2.068  1.3157 -1.6353 -1.1497
   32MOL0     H 4364   1.060   0.969   2.225 -1.7738  1.4758  0.4284
   32MOL0     H 4365   1.029   1.219   1.921 -1.9463 -1.2293  1.5554
   32MOL0     H 4366   1.006   1.523   2.009 -0.6339 -2.0144 -0.1635
   32MOL0     H 4367   1.136   1.465   1.889 -0.4334 -1.1966  0.4178
   32MOL0     H 4368   1.208   1.636   2.139 -0.1954  2.0426 -0.5063
   32MOL0     H 4369   1.316   1.550   2.052 -0.5973 -2.8753 -1.9864
   32MOL0     H 4370   1.270   1.678   1.848  0.7015  0.3782 -0.0597
   32MOL0     H 4371   1.137   1.753   1.917  2.3526  2.8338 -3.1286
   32MOL0     H 4372   1.404   1.771   2.056  1.0342  0.0796 -0.7326
   32MOL0     H 4373   1.360   1.876   1.918  1.3336  2.9170  1.5175
   32MOL0     H 4374   1.125   2.058   2.259 -1.8244  1.7710  1.1528
   32MOL0     H 4375   0.996   2.206   2.326 -0.9124 -3.1121 -0.8529
   32MOL0     H 4376   0.867   2.260   2.222  0.9705 -0.6427 -1.4624
   32MOL0     H 4377   1.008   2.369   2.253 -2.1233  0.3628  1.1147
   32MOL0     H 4378   0.800   2.603   2.206  4.3152  1.5761  1.5664
   32MOL0     H 4379   0.653   2.790   2.160 -3.0040 -3.5866  0.0654
   32MOL0     H 4380   0.727   3.044   1.774  0.8363  1.1851  2.7845
   32MOL0     H 4381   0.601   2.925   1.715  0.2091  0.0452 -0.4225
   32MOL0     H 4382   0.530   3.139   1.686  1.7936 -0.2332  1.0996
   32MOL0     H 4383   0.432   3.060   1.821  0.2088  0.9077  2.2094
   32MOL0     H 4384   0.656   3.258   1.881  1.7108 -3.4985  3.5145
   32MOL0     H 4385   0.551   3.178   1.986 -0.7716 -1.6178 -0.3828
   32MOL0     H 4386   0.360   3.312   1.837 -1.2174  1.6861  4.1129
   32MOL0     H 4387   0.507   3.377   1.757  0.2796  0.2340  1.9080
   32MOL0     H 4388   0.474   3.396   2.050 -0.2129 -0.7838  0.3197
   32MOL0     H 4389   0.595   3.476   1.937 -0.4215 -0.4745  0.2506
   32MOL0     H 4390   0.289   3.519   1.962  0.1264  1.9553  1.1870
   32MOL0     H 4391   0.373   3.562   1.814  0.5712  1.5969  0.0945
   32MOL0     H 4392   0.522   3.718   1.948 -0.5270  1.6460 -1.2048
   32MOL0     H 4393   0.437   3.677   2.086  1.2036  0.1719 -0.2275
   32MOL0     H 4394   0.338   3.888   2.008 -1.0273  0.0501  0.3514
   32MOL0     H 4395   0.219   3.776   1.973 -1.1355  0.9032 -1.2042
   32MOL0     H 4396   0.811   2.808   1.751  1.9266 -1.9658 -1.1001
   32MOL0     H 4397   0.967   2.614   1.808  0.3279  1.8524 -1.0624
   32MOL0     H 4398   1.116   2.243   1.798 -0.1886 -1.7004 -1.0341
   32MOL0     H 4399   1.242   2.028   1.845  0.9456  1.4846  0.1061
   32MOL0     H 4400   1.695   0.356   1.653 -0.2585 -1.3571 -2.5307
   32MOL0     H 4401   1.832   0.271   1.475  1.1875 -1.3436 -0.0330
   32MOL0     H 4402   2.075   0.096   1.304  1.4798 -2.4500  0.5223
   32MOL0     H 4403   2.155  -0.037   1.117  2.1141 -1.7543  0.4418
   32MOL0     H 4404   2.290  -0.180   1.002  2.0868  0.1102  1.2315
   32MOL0     H 4405   2.225  -0.104   0.851 -0.1094 -2.3108 -0.4473
   32MOL0     H 4406   2.358  -0.290   0.797 -0.5512 -1.1663  0.8333
   32MOL0     H 4407   2.508  -0.228   0.884 -0.6292  1.6007  0.0702
   32MOL0     H 4408   2.377  -0.094   0.631  0.1905 -1.3997 -1.3197
   32MOL0     H 4409   2.482  -0.011   0.754  0.6496 -2.2751  0.9760
   32MOL0     H 4410   2.576  -0.234   0.576 -0.0860  1.4418 -2.7307
   32MOL0     H 4411   2.659  -0.198   0.726 -0.5656 -2.7945 -0.5830
   32MOL0     H 4412   2.785   0.118   0.466 -1.3753 -0.4681 -2.0291
   32MOL0     H 4413   2.484   0.211   1.048 -0.7920  0.1186 -0.9879
   32MOL0     H 4414   2.513   0.427   1.151 -1.6044  1.6279 -0.6033
   32MOL0     H 4415   2.355   0.491   1.215 -2.7267 -1.3083 -1.2849
   32MOL0     H 4416   2.479   0.394   1.308  1.6535 -0.3819 -0.6114
   33MOL0     O 4417   6.604   1.730   0.316  0.2970 -0.3012  0.0091
   33MOL0     C 4418   6.575   1.667   0.217  0.2680 -0.0648 -0.7700
   33MOL0     O 4419   6.544   1.534   0.211 -0.5581  0.4305  0.1346
   33MOL0     C 4420   6.522   1.457   0.320 -0.7880  0.1159  0.4235
   33MOL0     C 4421   6.460   1.517   0.431 -0.6311  0.2882 -0.0093
   33MOL0     C 4422   6.450   1.433   0.544  0.1213  0.4233 -1.0889
   33MOL0     C 4423   6.506   1.299   0.556 -0.5896 -0.7245  0.6086
   33MOL0     O 4424   6.489   1.214   0.652 -0.2721 -0.2354  0.1855
   33MOL0     C 4425   6.484   1.269   0.784  1.0331 -0.1383 -0.6394
   33MOL0     C 4426   6.617   1.329   0.831  0.3384  0.0718 -0.3343
   33MOL0     C 4427   6.747   1.235   0.797  0.1983  0.7646  0.3917
   33MOL0     C 4428   6.867   1.261   0.894 -0.2429  0.3948 -0.5562
   33MOL0     C 4429   7.001   1.201   0.850  0.9099 -0.8574 -0.3505
   33MOL0     C 4430   7.116   1.197   0.954  0.6210  0.0518 -1.0901
   33MOL0     C 4431   7.204   1.326   0.969  1.3717  1.1064  0.1387
   33MOL0     C 4432   7.322   1.263   1.046 -0.0565 -0.7113  0.9590
   33MOL0     N 4433   7.412   1.367   1.116  0.0435 -0.5439 -0.5501
   33MOL0     C 4434   7.522   1.432   1.063  0.0831 -0.4097 -0.0267
   33MOL0     C 4435   7.590   1.495   1.166  0.3395  0.3477  0.8369
   33MOL0     C 4436   7.722   1.569   1.173  0.8940 -0.1684 -0.3558
   33MOL0     C 4437   7.718   1.698   1.246 -0.0263  0.3255  0.1792
   33MOL0     C 4438   7.823   1.802   1.198 -0.6797  1.1288 -0.3608
   33MOL0     C 4439   7.791   1.937   1.262  0.6711 -0.2979  0.0858
   33MOL0     O 4440   7.768   1.936   1.403 -0.5542  0.4268  0.0267
   33MOL0     C 4441   7.709   2.045   1.461  0.8243 -0.8730  0.8339
   33MOL0     C 4442   7.702   2.041   1.599  0.7094 -0.2943  0.2258
   33MOL0     C 4443   7.644   2.144   1.669  0.3774 -0.7017 -0.1716
   33MOL0     C 4444   7.638   2.133   1.816  0.0840 -0.4159 -0.9204
   33MOL0     C 4445   7.588   2.257   1.606 -0.1277 -0.1076 -0.0222
   33MOL0     C 4446   7.506   2.352   1.682  0.8809  0.2814  0.4724
   33MOL0     O 4447   7.423   2.416   1.589  0.0031 -0.0696 -0.1817
   33MOL0     C 4448   7.362   2.534   1.616  0.6120 -0.3423  0.9514
   33MOL0     C 4449   7.313   2.603   1.497 -0.3848  0.2857 -0.9706
   33MOL0     C 4450   7.241   2.717   1.506  0.3478 -0.1601 -0.5410
   33MOL0     C 4451   7.213   2.782   1.626 -0.3859  0.8913  0.7617
   33MOL0     O 4452   7.150   2.901   1.636 -0.1360  0.3951 -0.2317
   33MOL0     C 4453   7.164   2.992   1.522  0.2399 -0.4924  0.3708
   33MOL0     C 4454   7.125   3.134   1.552  0.7890  0.1816 -0.5373
   33MOL0     C 4455   6.989   3.149   1.625 -0.1275  0.2818  0.0631
   33MOL0     C 4456   6.954   3.298   1.654  0.9342  0.5465  0.1261
   33MOL0     C 4457   6.830   3.349   1.578 -0.8127 -0.6939 -0.0124
   33MOL0     C 4458   6.846   3.380   1.424  0.1562 -0.6458 -0.4543
   33MOL0     C 4459   6.968   3.471   1.405  0.1429 -0.1913  0.4611
   33MOL0     C 4460   6.981   3.518   1.257 -0.9191  0.5533 -0.2148
   33MOL0    Cl 4461   6.933   3.393   1.134 -0.1025 -0.1556 -0.0965
   33MOL0     C 4462   7.259   2.717   1.741 -0.1246  0.4616  0.3698
   33MOL0     C 4463   7.332   2.592   1.733  0.9181 -0.3237 -0.4401
   33MOL0     O 4464   7.519   2.380   1.797  0.0524  0.6881  0.5728
   33MOL0     C 4465   7.618   2.267   1.465  0.7837 -0.2388 -0.4953
   33MOL0     C 4466   7.671   2.164   1.394 -0.2034  0.4902  0.4368
   33MOL0     N 4467   7.522   1.466   1.283  0.2386 -0.2821 -0.2594
   33MOL0     N 4468   7.419   1.384   1.254  0.0599 -0.8619  0.4258
   33MOL0     C 4469   6.562   1.250   0.440 -0.2765 -0.1152  0.1835
   33MOL0     C 4470   6.566   1.324   0.327 -0.4544 -1.0802 -0.2589
   33MOL0     C 4471   6.597   1.736   0.091 -0.9161  0.0381 -0.2990
   33MOL0     C 4472   6.710   1.826   0.073 -0.0162  0.1803  0.2930
   33MOL0     C 4473   6.720   1.906  -0.043  0.5428 -0.0239  0.1754
   33MOL0     C 4474   6.624   1.901  -0.146 -0.8029 -0.7167  0.0240
   33MOL0     O 4475   6.650   1.992  -0.243  0.4021  0.4589  0.2150
   33MOL0     C 4476   6.557   2.021  -0.352 -0.4211  0.5752  0.0433
   33MOL0     C 4477   6.622   1.969  -0.479 -0.2223  0.3314  0.8312
   33MOL0     C 4478   6.619   1.811  -0.494 -0.0869  0.0689 -0.2415
   33MOL0     C 4479   6.588   1.755  -0.633 -1.0374 -0.1755 -0.1310
   33MOL0     C 4480   6.441   1.746  -0.659  0.2316  0.7138 -0.0627
   33MOL0     C 4481   6.317   1.759  -0.662 -0.5688  0.6164 -1.2111
   33MOL0     C 4482   6.522   1.801  -0.135 -0.1216 -0.1407  0.4393
   33MOL0     C 4483   6.506   1.723  -0.019  0.7685  0.3685 -0.3574
   33MOL0     C 4484   6.363   1.658  -0.012 -0.6515 -0.5967  0.8976
   33MOL0     H 4485   6.404   1.610   0.426 -3.5511 -1.2981  0.6312
   33MOL0     H 4486   6.381   1.466   0.620 -1.6008 -3.3999 -0.7623
   33MOL0     H 4487   6.455   1.182   0.845  0.2303 -1.4571 -2.7966
   33MOL0     H 4488   6.412   1.351   0.788  1.3733  0.1267  0.5104
   33MOL0     H 4489   6.621   1.430   0.789  0.2063 -0.2045 -1.0264
   33MOL0     H 4490   6.610   1.339   0.940 -0.2809 -0.0279 -0.3612
   33MOL0     H 4491   6.713   1.131   0.796  0.8676  0.5431 -0.2365
   33MOL0     H 4492   6.787   1.251   0.697 -0.6153 -1.4514 -0.3508
   33MOL0     H 4493   6.896   1.363   0.920  0.3714 -0.4595  2.5684
   33MOL0     H 4494   6.839   1.213   0.988  0.7211  0.6285 -0.1387
   33MOL0     H 4495   7.043   1.261   0.770  3.4659 -1.9828  0.0482
   33MOL0     H 4496   6.979   1.104   0.805 -0.8716 -0.5041 -0.3228
   33MOL0     H 4497   7.077   1.179   1.054 -1.1843  2.9298 -1.1706
   33MOL0     H 4498   7.175   1.109   0.929  0.2037 -0.6928  0.4203
   33MOL0     H 4499   7.154   1.408   1.021  0.4339 -0.1535  1.2876
   33MOL0     H 4500   7.243   1.365   0.874  0.7989  1.9581  0.2449
   33MOL0     H 4501   7.280   1.201   1.126  0.1674  0.5514  2.1017
   33MOL0     H 4502   7.377   1.204   0.972 -0.0141  0.6643 -0.1341
   33MOL0     H 4503   7.555   1.409   0.962 -1.4608 -2.1507 -0.1755
   33MOL0     H 4504   7.751   1.578   1.068  0.9295 -0.1497 -0.3443
   33MOL0     H 4505   7.793   1.507   1.227  0.3785  0.4471  1.0899
   33MOL0     H 4506   7.623   1.749   1.229  0.1192  0.4878 -0.1489
   33MOL0     H 4507   7.721   1.678   1.354 -0.6339 -0.9559 -0.0164
   33MOL0     H 4508   7.922   1.777   1.238 -1.0813 -0.0034 -0.0359
   33MOL0     H 4509   7.830   1.809   1.089  3.3283 -0.8130 -0.4387
   33MOL0     H 4510   7.879   1.999   1.246 -0.2333  0.4361 -2.5377
   33MOL0     H 4511   7.706   1.975   1.206 -0.0491  0.0410  1.3853
   33MOL0     H 4512   7.745   1.960   1.658  1.0881  0.6980  1.3474
   33MOL0     H 4513   7.685   2.219   1.866 -3.1398 -0.7902  3.3646
   33MOL0     H 4514   7.684   2.041   1.853  1.0169  0.2299 -0.4266
   33MOL0     H 4515   7.534   2.127   1.848 -0.1158  1.0899 -1.1788
   33MOL0     H 4516   7.339   2.567   1.398 -0.3172 -0.5872 -0.6466
   33MOL0     H 4517   7.206   2.757   1.412  0.4105 -1.3422 -1.0790
   33MOL0     H 4518   7.261   2.977   1.475 -0.0739 -1.6722  0.0747
   33MOL0     H 4519   7.088   2.955   1.452  1.4127 -1.3866 -0.4621
   33MOL0     H 4520   7.210   3.172   1.609  0.7894 -1.6594  0.7768
   33MOL0     H 4521   7.119   3.186   1.456 -2.1480  0.0012 -0.5287
   33MOL0     H 4522   7.007   3.095   1.719 -0.9522 -2.4921 -1.2775
   33MOL0     H 4523   6.914   3.096   1.566 -1.9498  1.4941  1.1975
   33MOL0     H 4524   7.034   3.367   1.626  0.3130  0.2110 -2.7197
   33MOL0     H 4525   6.937   3.299   1.763 -3.1338 -1.9368 -0.2643
   33MOL0     H 4526   6.754   3.273   1.596 -1.3209 -0.1639  0.0720
   33MOL0     H 4527   6.815   3.449   1.619  3.4129 -0.0770  0.4598
   33MOL0     H 4528   6.757   3.427   1.382  0.4539 -1.2606 -1.8132
   33MOL0     H 4529   6.858   3.285   1.371  2.2589 -2.4208  2.8098
   33MOL0     H 4530   7.061   3.418   1.426 -0.3932 -0.6008  1.9686
   33MOL0     H 4531   6.964   3.559   1.471 -1.4985  0.1018  0.0196
   33MOL0     H 4532   7.086   3.545   1.241 -0.5434 -0.0606  1.0750
   33MOL0     H 4533   6.920   3.607   1.242  0.2670  1.1620 -1.7455
   33MOL0     H 4534   7.237   2.767   1.835  2.7050  0.8468  0.9278
   33MOL0     H 4535   7.364   2.545   1.826  1.7196  0.0520 -0.5159
   33MOL0     H 4536   7.581   2.357   1.418 -0.1128  0.3816  1.3056
   33MOL0     H 4537   7.701   2.174   1.290  2.2489 -2.5523  0.7190
   33MOL0     H 4538   6.593   1.146   0.432  1.9842  0.4198  1.2684
   33MOL0     H 4539   6.609   1.274   0.241  0.9004 -1.8434  0.8208
   33MOL0     H 4540   6.784   1.830   0.153  0.4826 -2.7825  0.0798
   33MOL0     H 4541   6.803   1.966  -0.079  0.0459 -0.5912 -2.0729
   33MOL0     H 4542   6.456   1.982  -0.336 -1.2853  2.8924  0.5575
   33MOL0     H 4543   6.566   2.130  -0.354  0.2414  0.5617  1.2372
   33MOL0     H 4544   6.722   2.012  -0.490 -1.2121  2.2869 -1.5753
   33MOL0     H 4545   6.568   2.012  -0.564  0.3933  1.2740  0.9056
   33MOL0     H 4546   6.724   1.783  -0.476 -0.1259 -1.4289 -1.9856
   33MOL0     H 4547   6.546   1.769  -0.424  0.3004 -2.0477 -1.0067
   33MOL0     H 4548   6.624   1.652  -0.625 -0.7008  0.0972  3.9619
   33MOL0     H 4549   6.634   1.815  -0.712 -1.8899  1.5342  0.6123
   33MOL0     H 4550   6.211   1.774  -0.673 -0.6537 -0.2532 -1.7564
   33MOL0     H 4551   6.440   1.797  -0.207  0.1947  2.4079 -0.1505
   33MOL0     H 4552   6.353   1.568  -0.074  1.7096  0.0231 -0.5304
   33MOL0     H 4553   6.330   1.655   0.092 -0.1149 -0.0368  1.0905
   33MOL0     H 4554   6.296   1.733  -0.056 -1.2990 -1.9481 -0.5209
   34MOL0     O 4555   0.193   7.133   0.554 -0.0877 -0.0900  0.0596
   34MOL0     C 4556   0.087   7.142   0.493  0.9436  1.1602 -0.3389
   34MOL0     O 4557  -0.018   7.215   0.529 -0.3489  0.7763  0.3981
   34MOL0     C 4558  -0.036   7.299   0.633  0.6496  0.0995 -0.0238
   34MOL0     C 4559  -0.164   7.344   0.650 -0.9030  0.2728  0.5811
   34MOL0     C 4560  -0.196   7.428   0.747 -0.5307  0.2300 -0.5743
   34MOL0     C 4561  -0.104   7.465   0.848 -0.0715  0.3962  0.8230
   34MOL0     O 4562  -0.131   7.542   0.955 -0.1425  0.7486 -0.1400
   34MOL0     C 4563  -0.252   7.611   0.969 -0.8806 -0.0303  0.8464
   34MOL0     C 4564  -0.255   7.708   1.078 -0.2632  0.0730 -1.0777
   34MOL0     C 4565  -0.393   7.775   1.109 -0.9856 -0.4340 -0.5269
   34MOL0     C 4566  -0.510   7.679   1.145 -0.3627  0.0001  0.4583
   34MOL0     C 4567  -0.643   7.747   1.124 -0.2928  0.2708 -0.4493
   34MOL0     C 4568  -0.695   7.770   0.969  0.0482  0.2086  0.6741
   34MOL0     C 4569  -0.714   7.648   0.880 -0.2549 -0.4423  0.2098
   34MOL0     C 4570  -0.686   7.671   0.732 -0.6548  0.0232 -0.2036
   34MOL0     N 4571  -0.710   7.550   0.661  0.2822 -0.1067  0.0193
   34MOL0     C 4572  -0.639   7.439   0.653 -0.0965  0.2990 -0.5819
   34MOL0     C 4573  -0.731   7.351   0.605 -0.2813  0.7788  1.1982
   34MOL0     C 4574  -0.709   7.198   0.586  0.5424 -0.3554 -0.7595
   34MOL0     C 4575  -0.780   7.139   0.466 -0.5930 -0.1686  0.1570
   34MOL0     C 4576  -0.781   6.979   0.473  0.5010  0.3393  0.5458
   34MOL0     C 4577  -0.655   6.908   0.417 -0.5348  0.0427 -0.2388
   34MOL0     O 4578  -0.676   6.904   0.274  0.3981  0.8994 -0.3106
   34MOL0     C 4579  -0.656   6.787   0.200  1.3221  0.0576  0.9807
   34MOL0     C 4580  -0.721   6.770   0.077  0.2451  0.3260 -0.9351
   34MOL0     C 4581  -0.693   6.660  -0.002  0.1405 -0.3905  0.2310
   34MOL0     C 4582  -0.779   6.642  -0.128  0.8710 -0.0505 -0.6614
   34MOL0     C 4583  -0.587   6.576   0.040  0.0095 -1.0416 -1.2967
   34MOL0     C 4584  -0.551   6.447  -0.039 -0.2935  0.0267  0.3749
   34MOL0     O 4585  -0.598   6.418  -0.160  0.5194 -0.9461  0.1280
   34MOL0     C 4586  -0.557   6.307  -0.230 -0.2710  0.8733  0.2383
   34MOL0     C 4587  -0.652   6.255  -0.319 -0.3344 -0.8967 -0.1799
   34MOL0     C 4588  -0.615   6.139  -0.396  0.0030  0.7503 -0.6772
   34MOL0     C 4589  -0.495   6.070  -0.374  0.3156 -0.8982  0.7489
   34MOL0     O 4590  -0.464   5.947  -0.429 -0.4360 -0.5501  0.1191
   34MOL0     C 4591  -0.506   5.939  -0.562  0.1216 -0.1882  0.2051
   34MOL0     C 4592  -0.416   5.829  -0.626 -0.1638  0.0145  0.3875
   34MOL0     C 4593  -0.445   5.690  -0.569  0.0255  1.2710 -0.0920
   34MOL0     C 4594  -0.399   5.571  -0.653 -0.2526  0.0794 -0.0486
   34MOL0     C 4595  -0.441   5.429  -0.614 -1.2325 -0.1502 -1.1579
   34MOL0     C 4596  -0.415   5.400  -0.468  0.1434  0.6389 -0.1748
   34MOL0     C 4597  -0.428   5.242  -0.443  0.5385 -0.0684  0.8033
   34MOL0     C 4598  -0.417   5.215  -0.295  1.0062  0.2836 -0.5486
   34MOL0    Cl 4599  -0.282   5.292  -0.222 -0.0755 -0.4208  0.2072
   34MOL0     C 4600  -0.395   6.132  -0.298 -0.5413 -0.5136 -0.4258
   34MOL0     C 4601  -0.430   6.245  -0.223 -0.7376 -0.7009  0.3614
   34MOL0     O 4602  -0.490   6.370   0.034 -0.9561  0.2685 -0.2286
   34MOL0     C 4603  -0.517   6.598   0.159 -0.3712 -0.3229  0.8399
   34MOL0     C 4604  -0.549   6.710   0.235 -0.2906  0.3450  0.2300
   34MOL0     N 4605  -0.853   7.418   0.564 -0.4835 -0.7748  0.2695
   34MOL0     N 4606  -0.835   7.536   0.606  0.3015  0.4754  0.5597
   34MOL0     C 4607   0.026   7.418   0.841  0.7396  0.1726  0.7976
   34MOL0     C 4608   0.060   7.345   0.723  0.7041  0.1766  0.4448
   34MOL0     C 4609   0.058   7.031   0.392 -0.1499 -0.0205  0.1796
   34MOL0     C 4610  -0.078   7.002   0.370  1.2594  0.2862  0.4064
   34MOL0     C 4611  -0.116   6.894   0.279 -0.4519  0.1202  0.0314
   34MOL0     C 4612  -0.026   6.808   0.226 -0.0825 -0.1678 -0.2637
   34MOL0     O 4613  -0.076   6.713   0.139 -0.0307  0.5448 -0.4312
   34MOL0     C 4614  -0.003   6.593   0.129  0.4840 -0.2888  0.3253
   34MOL0     C 4615  -0.019   6.510   0.261  0.2007  0.0652 -0.1166
   34MOL0     C 4616   0.108   6.441   0.301  0.3207 -0.1026 -0.0448
   34MOL0     C 4617   0.087   6.355   0.414 -0.7951  0.7707 -0.6951
   34MOL0     C 4618   0.065   6.433   0.547 -0.7672  1.4058 -0.6155
   34MOL0     C 4619   0.054   6.488   0.654 -0.8158 -0.2973 -0.0980
   34MOL0     C 4620   0.110   6.837   0.259  0.4957 -1.2405  0.4557
   34MOL0     C 4621   0.153   6.947   0.331  0.2746 -0.0977  0.8803
   34MOL0     C 4622   0.309   6.973   0.334  0.3539  0.0493 -0.0006
   34MOL0     H 4623  -0.249   7.305   0.595  1.2921 -1.3837 -1.8924
   34MOL0     H 4624  -0.294   7.472   0.763 -0.2203  0.8813 -0.4489
   34MOL0     H 4625  -0.330   7.534   0.968  0.8723 -1.8545  0.1132
   34MOL0     H 4626  -0.267   7.667   0.876 -2.7743 -2.7721 -0.6723
   34MOL0     H 4627  -0.240   7.664   1.178  1.2275  1.0711 -0.8307
   34MOL0     H 4628  -0.182   7.789   1.067 -0.5500  0.4090 -0.5915
   34MOL0     H 4629  -0.365   7.837   1.195 -2.1220 -2.0532  1.0860
   34MOL0     H 4630  -0.424   7.843   1.030  2.1198  0.5409 -1.0373
   34MOL0     H 4631  -0.502   7.587   1.088 -1.3557  0.3221 -0.2182
   34MOL0     H 4632  -0.486   7.647   1.247  2.7551 -1.2771 -0.5471
   34MOL0     H 4633  -0.632   7.845   1.171  3.7749  1.0619 -2.5887
   34MOL0     H 4634  -0.724   7.691   1.172 -0.3814  0.8746  0.1141
   34MOL0     H 4635  -0.789   7.826   0.967 -0.4768 -0.6585 -1.1199
   34MOL0     H 4636  -0.619   7.827   0.915  0.9041 -1.2434  0.2764
   34MOL0     H 4637  -0.817   7.613   0.883 -0.9937  0.8064 -4.0214
   34MOL0     H 4638  -0.649   7.565   0.909 -1.2410 -0.4267  2.6672
   34MOL0     H 4639  -0.758   7.746   0.696 -4.0839 -1.2737  3.3068
   34MOL0     H 4640  -0.582   7.705   0.726 -1.5709  3.3336  0.6665
   34MOL0     H 4641  -0.545   7.416   0.702 -0.6050  1.5080  1.0534
   34MOL0     H 4642  -0.750   7.149   0.674 -0.8928  1.9803 -0.0231
   34MOL0     H 4643  -0.603   7.173   0.584  0.6861  0.1877 -3.0825
   34MOL0     H 4644  -0.884   7.172   0.465 -0.4012  0.7825 -3.4825
   34MOL0     H 4645  -0.736   7.169   0.371  0.8338 -0.5110  0.6838
   34MOL0     H 4646  -0.793   6.940   0.574 -0.4504  0.8347  0.6366
   34MOL0     H 4647  -0.878   6.948   0.432 -0.7660  1.2633  2.6665
   34MOL0     H 4648  -0.570   6.973   0.439 -2.4340  2.2389  1.1702
   34MOL0     H 4649  -0.639   6.808   0.459 -1.5547 -0.1425 -0.2517
   34MOL0     H 4650  -0.796   6.845   0.056  3.5475  4.5205  0.8073
   34MOL0     H 4651  -0.712   6.649  -0.214 -0.5811  1.0342 -1.7553
   34MOL0     H 4652  -0.835   6.735  -0.142 -1.1025 -0.9780  0.6018
   34MOL0     H 4653  -0.847   6.557  -0.131  1.5183 -0.7537  1.9590
   34MOL0     H 4654  -0.748   6.306  -0.322  0.9236  1.6639 -2.6714
   34MOL0     H 4655  -0.692   6.085  -0.450  0.3949 -0.1781 -0.3271
   34MOL0     H 4656  -0.611   5.910  -0.577 -0.6432  2.4553  0.0007
   34MOL0     H 4657  -0.504   6.031  -0.622  1.3905 -1.3761 -1.6755
   34MOL0     H 4658  -0.448   5.829  -0.730 -2.1338  2.1225  0.9091
   34MOL0     H 4659  -0.309   5.854  -0.620  0.0291 -0.3978 -1.0955
   34MOL0     H 4660  -0.550   5.678  -0.541 -0.1653  1.3080 -0.7729
   34MOL0     H 4661  -0.387   5.693  -0.477  0.0208  0.4552 -0.0551
   34MOL0     H 4662  -0.291   5.572  -0.672  0.3540 -3.1803  2.2268
   34MOL0     H 4663  -0.433   5.597  -0.753  0.5619  0.2019 -0.3024
   34MOL0     H 4664  -0.549   5.430  -0.632 -0.8453  0.3253 -3.9562
   34MOL0     H 4665  -0.409   5.346  -0.678  1.3911 -1.6688  1.8548
   34MOL0     H 4666  -0.486   5.456  -0.406 -0.7462  2.0839 -2.3887
   34MOL0     H 4667  -0.317   5.438  -0.440  0.3931 -0.5911  0.6940
   34MOL0     H 4668  -0.353   5.187  -0.500  0.3238  2.0030 -1.6795
   34MOL0     H 4669  -0.527   5.208  -0.477  0.5834  0.2416  0.3469
   34MOL0     H 4670  -0.404   5.108  -0.276 -0.3792  0.4538  1.7272
   34MOL0     H 4671  -0.516   5.237  -0.255  0.3571  2.0928 -2.9242
   34MOL0     H 4672  -0.292   6.098  -0.298  0.2463  1.6115 -2.1367
   34MOL0     H 4673  -0.363   6.286  -0.147  1.3946  1.3920 -2.4326
   34MOL0     H 4674  -0.434   6.546   0.206  1.4568  1.6917  0.0014
   34MOL0     H 4675  -0.498   6.724   0.330 -0.3419 -0.6621  0.4230
   34MOL0     H 4676   0.101   7.430   0.918 -2.2071 -2.8470  4.5018
   34MOL0     H 4677   0.163   7.311   0.716  0.3647 -0.6751 -0.6430
   34MOL0     H 4678  -0.167   7.046   0.413  2.2151  2.4235  0.3542
   34MOL0     H 4679  -0.220   6.879   0.251 -0.5629  2.5998 -1.1375
   34MOL0     H 4680  -0.028   6.537   0.039  0.0650  1.4431 -0.6869
   34MOL0     H 4681   0.101   6.623   0.115  0.1011  0.3930 -1.2826
   34MOL0     H 4682  -0.092   6.429   0.259 -0.0943  0.2684  1.2449
   34MOL0     H 4683  -0.038   6.570   0.350  2.0700 -1.6097  1.5161
   34MOL0     H 4684   0.154   6.380   0.223  0.7955  2.0083 -1.4856
   34MOL0     H 4685   0.178   6.520   0.332 -0.3760  1.2936 -1.8673
   34MOL0     H 4686   0.178   6.295   0.430 -0.2442  1.6539 -0.3985
   34MOL0     H 4687   0.004   6.286   0.401  0.5859 -0.8049 -1.4969
   34MOL0     H 4688   0.058   6.539   0.748  0.8934 -1.4830  0.5105
   34MOL0     H 4689   0.189   6.782   0.210  0.6636 -3.5511  3.0341
   34MOL0     H 4690   0.369   6.909   0.270  0.2714  1.0011 -1.0563
   34MOL0     H 4691   0.339   7.074   0.306 -1.7412  0.4646 -0.9351
   34MOL0     H 4692   0.327   6.957   0.441  0.1299  1.9189  0.3610
   35MOL0     O 4693   9.027   5.923   2.595 -0.2062 -0.2416 -0.5505
   35MOL0     C 4694   9.146   5.967   2.598 -0.0191  0.7999  0.1534
   35MOL0     O 4695   9.236   5.936   2.706 -0.0651 -0.2653  0.4120
   35MOL0     C 4696   9.191   5.854   2.807  0.3649  0.4944  1.4478
   35MOL0     C 4697   9.076   5.893   2.875 -0.7003  0.2525 -0.5407
   35MOL0     C 4698   9.017   5.815   2.964  0.6825 -0.2953 -0.0485
   35MOL0     C 4699   9.068   5.696   3.001 -0.1682 -0.3583  0.1077
   35MOL0     O 4700   8.992   5.630   3.094 -0.0350 -1.0701  0.5999
   35MOL0     C 4701   9.018   5.490   3.113  0.2585  0.9439 -0.4737
   35MOL0     C 4702   8.940   5.435   3.234 -1.0584  0.2385  0.3654
   35MOL0     C 4703   8.792   5.477   3.236 -0.4150 -0.7368  0.3958
   35MOL0     C 4704   8.721   5.427   3.096  0.1702  0.3884 -1.3023
   35MOL0     C 4705   8.574   5.427   3.120  0.3150  0.1865  0.4164
   35MOL0     C 4706   8.504   5.392   2.994  0.2952  1.0634 -0.7485
   35MOL0     C 4707   8.356   5.430   2.999  1.3421  0.0830 -0.0790
   35MOL0     C 4708   8.256   5.363   2.892  0.4506 -0.9548 -0.3800
   35MOL0     N 4709   8.313   5.385   2.756  0.4181  0.7950  0.3074
   35MOL0     C 4710   8.312   5.290   2.654  0.3439 -0.3152  0.0777
   35MOL0     C 4711   8.361   5.356   2.541  0.5299 -1.2506  0.0007
   35MOL0     C 4712   8.367   5.300   2.403  0.1767 -0.0544  0.9246
   35MOL0     C 4713   8.436   5.409   2.310  0.5038 -0.5708 -0.7546
   35MOL0     C 4714   8.464   5.351   2.174  0.7945  0.5801 -0.2196
   35MOL0     C 4715   8.349   5.357   2.084 -0.5028  0.3268  0.6712
   35MOL0     O 4716   8.394   5.338   1.953  0.1425 -0.3630 -0.5597
   35MOL0     C 4717   8.298   5.353   1.855 -0.0327  0.4803 -0.6387
   35MOL0     C 4718   8.352   5.353   1.728 -0.6857  0.3660 -0.5270
   35MOL0     C 4719   8.266   5.374   1.617 -0.7183  0.3998 -0.0497
   35MOL0     C 4720   8.328   5.342   1.482 -0.3101  0.2641  0.6235
   35MOL0     C 4721   8.124   5.398   1.637  0.1653  0.0794 -0.3881
   35MOL0     C 4722   8.027   5.409   1.525  0.4046 -0.0458  0.0210
   35MOL0     O 4723   7.951   5.514   1.513  0.8610  0.2575 -0.4674
   35MOL0     C 4724   7.883   5.525   1.397  0.2496 -0.2518  0.2112
   35MOL0     C 4725   7.755   5.590   1.390  0.0790 -0.3122  0.2382
   35MOL0     C 4726   7.685   5.607   1.276 -0.2382 -0.8220 -0.3346
   35MOL0     C 4727   7.740   5.555   1.155  1.1001  0.0444 -0.1251
   35MOL0     O 4728   7.664   5.559   1.042  0.1983 -0.2099 -0.4170
   35MOL0     C 4729   7.714   5.538   0.913  0.4691 -0.1132  0.2696
   35MOL0     C 4730   7.619   5.609   0.811 -0.2948 -0.4986  0.2436
   35MOL0     C 4731   7.668   5.605   0.664  0.2386 -1.1433 -0.7991
   35MOL0     C 4732   7.573   5.689   0.588  0.4287 -0.7952  0.3127
   35MOL0     C 4733   7.620   5.689   0.440 -0.1477  1.0035  0.6143
   35MOL0     C 4734   7.512   5.709   0.330  0.5195 -0.4481  0.8396
   35MOL0     C 4735   7.578   5.745   0.194  0.6371  0.2640  0.6498
   35MOL0     C 4736   7.626   5.617   0.112  0.5108  0.4848 -0.0622
   35MOL0    Cl 4737   7.654   5.661  -0.060  0.4642  0.0201  0.3440
   35MOL0     C 4738   7.868   5.504   1.159  0.1217  0.8865 -0.2438
   35MOL0     C 4739   7.943   5.506   1.273 -0.4712 -0.3283 -0.5839
   35MOL0     O 4740   8.025   5.307   1.457  0.0508  0.5179 -0.7061
   35MOL0     C 4741   8.072   5.403   1.770  0.5453  1.1080  0.5379
   35MOL0     C 4742   8.162   5.371   1.878  0.1303 -0.4293  0.2496
   35MOL0     N 4743   8.403   5.487   2.586  0.1953 -0.3281  0.4815
   35MOL0     N 4744   8.390   5.494   2.716  0.4896  0.3837 -0.4677
   35MOL0     C 4745   9.189   5.650   2.950  0.3595 -0.2507  0.8591
   35MOL0     C 4746   9.245   5.734   2.850  0.6143  0.5132  0.0404
   35MOL0     C 4747   9.198   6.073   2.499 -0.2111 -0.8991  0.4585
   35MOL0     C 4748   9.290   6.173   2.542 -0.0659 -0.0027 -0.0028
   35MOL0     C 4749   9.338   6.272   2.456 -0.3085 -0.0202  0.3961
   35MOL0     C 4750   9.286   6.283   2.329 -0.5816 -0.5510 -0.1714
   35MOL0     O 4751   9.337   6.382   2.249 -0.3169 -0.1889  0.5817
   35MOL0     C 4752   9.310   6.511   2.308  0.1745  0.3713  0.6801
   35MOL0     C 4753   9.313   6.610   2.198  0.3784 -0.0079  0.4745
   35MOL0     C 4754   9.296   6.759   2.236  0.3533  0.2396  0.8893
   35MOL0     C 4755   9.309   6.850   2.110  0.1468  0.5918 -0.1082
   35MOL0     C 4756   9.201   6.811   2.013 -0.0315 -1.2729 -0.7255
   35MOL0     C 4757   9.115   6.776   1.937 -0.1186 -0.5352  0.0990
   35MOL0     C 4758   9.200   6.182   2.284  0.5886  0.0200 -0.0966
   35MOL0     C 4759   9.156   6.070   2.366  0.1549 -0.5094 -0.2934
   35MOL0     C 4760   9.077   5.954   2.306  0.3905  0.0868  0.9857
   35MOL0     H 4761   9.022   5.985   2.853 -0.8376  1.0693  2.6391
   35MOL0     H 4762   8.920   5.850   2.998 -0.6916 -2.0863 -1.8616
   35MOL0     H 4763   9.123   5.464   3.132 -0.2994 -0.0614  1.3710
   35MOL0     H 4764   8.982   5.426   3.032 -0.3933 -1.1208  1.3672
   35MOL0     H 4765   8.951   5.326   3.231  1.8020  0.3927  1.3102
   35MOL0     H 4766   8.991   5.453   3.330 -1.2888 -1.0349  0.7422
   35MOL0     H 4767   8.741   5.447   3.328  0.4619 -1.7495  0.5642
   35MOL0     H 4768   8.795   5.586   3.236 -0.9782 -0.7071  1.6868
   35MOL0     H 4769   8.742   5.499   3.017 -0.0306 -0.2409 -1.9460
   35MOL0     H 4770   8.749   5.327   3.060 -3.1985 -1.4708  0.6892
   35MOL0     H 4771   8.541   5.528   3.146 -4.6184 -0.1477 -3.0315
   35MOL0     H 4772   8.554   5.348   3.194 -0.8423 -2.5015 -2.5192
   35MOL0     H 4773   8.556   5.435   2.908  1.2320  2.1332  0.3206
   35MOL0     H 4774   8.507   5.283   2.986 -3.0814  0.8251 -0.2224
   35MOL0     H 4775   8.347   5.537   2.979 -0.0206  0.4084  1.9554
   35MOL0     H 4776   8.318   5.401   3.098  3.4375 -1.7545  0.2548
   35MOL0     H 4777   8.252   5.259   2.927 -3.5917 -0.1115  2.4388
   35MOL0     H 4778   8.152   5.398   2.898  0.8315 -0.0238  1.5101
   35MOL0     H 4779   8.274   5.189   2.649 -2.4295  0.5489  1.7248
   35MOL0     H 4780   8.268   5.278   2.360 -0.6705  0.2569  2.6292
   35MOL0     H 4781   8.417   5.203   2.394 -1.2359 -0.6395 -3.8892
   35MOL0     H 4782   8.378   5.500   2.293  0.8144  0.0960  1.4033
   35MOL0     H 4783   8.535   5.438   2.347  0.9400 -0.3408 -2.0451
   35MOL0     H 4784   8.529   5.428   2.130 -0.0069  1.7671  0.6147
   35MOL0     H 4785   8.506   5.250   2.171  0.0064  0.2454 -2.3867
   35MOL0     H 4786   8.280   5.275   2.107 -1.5475  0.6935 -0.9537
   35MOL0     H 4787   8.305   5.457   2.095 -0.2907  1.0035 -3.1956
   35MOL0     H 4788   8.458   5.343   1.707  0.2643  2.9980  2.3202
   35MOL0     H 4789   8.378   5.245   1.484  0.3787  0.5246 -1.2809
   35MOL0     H 4790   8.413   5.407   1.460  1.2935 -1.6894  0.7320
   35MOL0     H 4791   8.258   5.334   1.398  1.3684  2.1329 -1.0469
   35MOL0     H 4792   7.709   5.631   1.479 -0.9014  0.3471 -0.5504
   35MOL0     H 4793   7.591   5.661   1.279 -0.8708 -1.9116 -0.1021
   35MOL0     H 4794   7.808   5.593   0.911  0.2859  0.3266  2.1109
   35MOL0     H 4795   7.730   5.430   0.899 -1.1190 -0.1192 -2.0023
   35MOL0     H 4796   7.527   5.551   0.819  0.6289 -1.7471  4.9605
   35MOL0     H 4797   7.597   5.712   0.840 -1.1983 -0.8936  1.0245
   35MOL0     H 4798   7.683   5.503   0.628 -0.3667 -1.6459  0.3185
   35MOL0     H 4799   7.770   5.645   0.663 -1.3803  3.4992 -1.6469
   35MOL0     H 4800   7.565   5.793   0.621 -0.6787 -0.2949 -1.3840
   35MOL0     H 4801   7.472   5.646   0.588  0.2614 -0.4045  0.4527
   35MOL0     H 4802   7.696   5.766   0.423  0.2467  0.3132 -0.9709
   35MOL0     H 4803   7.667   5.592   0.421 -1.4403  0.9496 -3.2370
   35MOL0     H 4804   7.441   5.784   0.366  0.1601  0.2026 -1.0850
   35MOL0     H 4805   7.446   5.623   0.320 -0.3636  0.1930  1.0279
   35MOL0     H 4806   7.661   5.814   0.213  1.7268 -1.4258  2.5596
   35MOL0     H 4807   7.515   5.812   0.136  1.5350  1.3423  0.8881
   35MOL0     H 4808   7.551   5.538   0.124  0.6371  0.2989 -0.5010
   35MOL0     H 4809   7.713   5.579   0.166  0.8072  1.1410 -0.0782
   35MOL0     H 4810   7.909   5.460   1.069 -0.8496  4.2594 -2.5311
   35MOL0     H 4811   8.048   5.481   1.282 -0.8145 -2.9534 -2.6185
   35MOL0     H 4812   7.965   5.414   1.785 -0.3078 -1.6785 -2.3961
   35MOL0     H 4813   8.124   5.383   1.979 -1.3280  3.5204 -0.5686
   35MOL0     H 4814   9.251   5.566   2.978  2.3214 -0.0902 -2.5199
   35MOL0     H 4815   9.346   5.712   2.818 -0.5133 -0.8597 -2.8990
   35MOL0     H 4816   9.327   6.161   2.643 -2.5958  2.0384  1.2820
   35MOL0     H 4817   9.419   6.332   2.496  1.2915 -1.9090  0.1607
   35MOL0     H 4818   9.208   6.519   2.347 -1.1836  0.4421 -2.5282
   35MOL0     H 4819   9.381   6.522   2.391 -0.3005 -0.4145  1.1974
   35MOL0     H 4820   9.230   6.581   2.133  1.2982 -0.0329 -0.7420
   35MOL0     H 4821   9.403   6.589   2.139 -1.4301 -0.0918 -2.4942
   35MOL0     H 4822   9.201   6.783   2.284  1.5285  1.2754  2.8533
   35MOL0     H 4823   9.378   6.782   2.305 -0.2246 -0.8873  1.9845
   35MOL0     H 4824   9.404   6.856   2.055 -0.3655  3.7905 -0.8429
   35MOL0     H 4825   9.309   6.955   2.139 -1.4481  0.7350 -0.5444
   35MOL0     H 4826   9.051   6.746   1.857  1.7971  1.2564 -2.2868
   35MOL0     H 4827   9.183   6.174   2.177  2.6898  0.6195 -0.5299
   35MOL0     H 4828   9.000   5.905   2.366 -1.5979  0.3525 -1.1975
   35MOL0     H 4829   9.021   6.005   2.228  1.6821 -0.7721 -0.5635
   35MOL0     H 4830   9.131   5.880   2.246 -2.1217 -1.1308  0.0655
   36MOL0     O 4831   0.289   0.956   6.788 -0.4829  0.5532 -0.5066
   36MOL0     C 4832   0.273   0.917   6.672 -0.3308  0.9271  0.2286
   36MOL0     O 4833   0.285   0.996   6.567  0.1742 -0.2129  0.1860
   36MOL0     C 4834   0.266   1.135   6.578 -0.6561  0.4196  0.6177
   36MOL0     C 4835   0.311   1.208   6.465 -0.0708  0.4897  0.1895
   36MOL0     C 4836   0.279   1.347   6.469  0.5718 -1.1315 -0.1503
   36MOL0     C 4837   0.210   1.412   6.580 -0.3796 -1.0057 -0.6122
   36MOL0     O 4838   0.179   1.549   6.588 -0.6159  0.2813  0.4430
   36MOL0     C 4839   0.265   1.641   6.523 -0.7709  0.0057  0.6079
   36MOL0     C 4840   0.252   1.761   6.603 -0.3090  0.8562  0.5572
   36MOL0     C 4841   0.324   1.747   6.743 -0.2378  0.3310  0.1199
   36MOL0     C 4842   0.340   1.866   6.827 -0.6971  1.1495  0.6892
   36MOL0     C 4843   0.452   1.871   6.935 -0.5469 -0.3418 -0.1065
   36MOL0     C 4844   0.589   1.886   6.869 -0.4023  0.7011  0.3154
   36MOL0     C 4845   0.714   1.886   6.960 -0.4045 -0.3746  0.3475
   36MOL0     C 4846   0.851   1.889   6.872  0.1669 -0.2881  0.3744
   36MOL0     N 4847   0.866   1.994   6.765  0.8240 -0.1239 -0.7075
   36MOL0     C 4848   0.871   1.975   6.629 -0.3459  0.4074 -0.5077
   36MOL0     C 4849   0.870   2.098   6.575  0.0287  0.7023 -0.4087
   36MOL0     C 4850   0.901   2.138   6.434  0.4019  0.0805 -0.3155
   36MOL0     C 4851   1.044   2.153   6.403  0.2088 -0.4542 -0.2783
   36MOL0     C 4852   1.085   2.304   6.423 -0.5710 -0.5671  0.3005
   36MOL0     C 4853   1.218   2.333   6.336  0.2195 -1.1484 -0.0626
   36MOL0     O 4854   1.190   2.411   6.214 -0.6549  0.0756 -0.0775
   36MOL0     C 4855   1.254   2.389   6.093  0.0882  0.2116 -0.2360
   36MOL0     C 4856   1.261   2.259   6.042 -0.0610 -0.3714  0.5887
   36MOL0     C 4857   1.296   2.248   5.907 -0.6964  1.2852  0.0780
   36MOL0     C 4858   1.269   2.109   5.849 -0.9052  0.1330 -0.1428
   36MOL0     C 4859   1.343   2.353   5.825  0.3381  0.1789  0.5319
   36MOL0     C 4860   1.384   2.344   5.686  0.4176 -0.2929  0.3567
   36MOL0     O 4861   1.345   2.448   5.601  0.2412  0.4035  0.0029
   36MOL0     C 4862   1.349   2.430   5.463 -0.1120 -0.3474 -0.3622
   36MOL0     C 4863   1.457   2.499   5.397  0.0062  0.3291  0.2898
   36MOL0     C 4864   1.463   2.497   5.250  0.5519  0.9447 -0.4931
   36MOL0     C 4865   1.360   2.442   5.180 -0.2574  0.3171  0.4127
   36MOL0     O 4866   1.361   2.429   5.047 -0.0526  0.4870 -0.2297
   36MOL0     C 4867   1.432   2.517   4.962 -0.4123  0.3134 -0.4279
   36MOL0     C 4868   1.443   2.443   4.820  0.1650 -0.2046 -0.2532
   36MOL0     C 4869   1.504   2.530   4.712 -0.2072  0.1987  0.0823
   36MOL0     C 4870   1.637   2.478   4.665  0.2429  0.2199 -0.5114
   36MOL0     C 4871   1.681   2.568   4.546  0.4093  0.5290 -0.3538
   36MOL0     C 4872   1.645   2.516   4.407 -0.2398 -0.5998  0.2663
   36MOL0     C 4873   1.714   2.394   4.367  0.1137 -0.6278 -0.9187
   36MOL0     C 4874   1.735   2.383   4.221 -1.0792  0.5449  0.1474
   36MOL0    Cl 4875   1.582   2.366   4.138 -0.2003  0.6588  0.2550
   36MOL0     C 4876   1.251   2.375   5.246 -0.3828  0.2192  0.1046
   36MOL0     C 4877   1.253   2.363   5.386  0.7469  0.4283  0.7136
   36MOL0     O 4878   1.461   2.254   5.660 -0.4711 -0.3533 -0.0701
   36MOL0     C 4879   1.341   2.480   5.889 -0.1432 -0.7389 -0.7863
   36MOL0     C 4880   1.296   2.495   6.019  0.8191 -0.7179 -0.6413
   36MOL0     N 4881   0.843   2.193   6.675  0.0187 -0.0650 -0.0396
   36MOL0     N 4882   0.845   2.129   6.785 -0.6608 -0.3512 -0.0592
   36MOL0     C 4883   0.172   1.327   6.687  0.5439 -0.8051  0.3853
   36MOL0     C 4884   0.199   1.188   6.686 -0.2222  0.3891 -0.3893
   36MOL0     C 4885   0.193   0.787   6.652 -0.1542 -0.3002 -0.1994
   36MOL0     C 4886   0.148   0.753   6.514  0.4483  0.5235 -0.8428
   36MOL0     C 4887   0.081   0.635   6.494 -0.6259  0.2649  0.6287
   36MOL0     C 4888   0.050   0.548   6.600 -0.1761 -0.6413 -0.1427
   36MOL0     O 4889  -0.025   0.438   6.560 -0.7536 -0.4982  0.3780
   36MOL0     C 4890  -0.085   0.355   6.659  0.6414  0.2912  0.4474
   36MOL0     C 4891  -0.148   0.223   6.614  0.8095 -0.8251 -0.4488
   36MOL0     C 4892  -0.048   0.141   6.531  0.1882 -0.0684  0.4692
   36MOL0     C 4893  -0.108   0.009   6.481 -1.0519  0.0305 -0.1330
   36MOL0     C 4894  -0.193   0.026   6.359  0.3249 -0.5940  0.1044
   36MOL0     C 4895  -0.267   0.051   6.270  1.1491 -0.2175 -0.0049
   36MOL0     C 4896   0.097   0.574   6.732  0.1160  0.6611  0.1996
   36MOL0     C 4897   0.165   0.691   6.756  0.3356  0.2661  0.6358
   36MOL0     C 4898   0.213   0.706   6.898 -0.8052  0.1908  0.2797
   36MOL0     H 4899   0.358   1.164   6.377  0.2299 -0.3321  0.7460
   36MOL0     H 4900   0.303   1.415   6.388  0.9872 -3.7066 -2.3298
   36MOL0     H 4901   0.233   1.653   6.419  1.7362 -0.8838 -0.3469
   36MOL0     H 4902   0.367   1.602   6.509 -0.2193  1.1609  1.2424
   36MOL0     H 4903   0.293   1.840   6.540  2.5836 -3.5303 -3.7519
   36MOL0     H 4904   0.146   1.768   6.630 -1.5088 -0.8735 -3.1607
   36MOL0     H 4905   0.272   1.674   6.805 -0.1957 -0.9129 -1.2388
   36MOL0     H 4906   0.418   1.694   6.724  0.6005  0.3642  3.6166
   36MOL0     H 4907   0.355   1.947   6.754 -1.8464 -0.8826 -1.9935
   36MOL0     H 4908   0.237   1.872   6.862 -1.2863  3.4001 -1.1192
   36MOL0     H 4909   0.436   1.793   7.010 -2.4079  1.7192  1.7865
   36MOL0     H 4910   0.429   1.960   6.994  1.6740  0.7881 -0.8037
   36MOL0     H 4911   0.589   1.806   6.794 -2.4715 -0.7456  1.7238
   36MOL0     H 4912   0.587   1.985   6.824 -1.0184 -0.2409 -1.9078
   36MOL0     H 4913   0.724   1.801   7.027  1.3714 -2.2175 -2.0327
   36MOL0     H 4914   0.714   1.976   7.022 -0.3509  0.4482 -0.7964
   36MOL0     H 4915   0.935   1.914   6.938 -1.1251  2.4563  1.1257
   36MOL0     H 4916   0.868   1.788   6.835 -0.8678 -0.3919  0.1365
   36MOL0     H 4917   0.884   1.878   6.583  0.0223  0.1767  0.0668
   36MOL0     H 4918   0.855   2.232   6.404  3.4569  1.6482 -0.5098
   36MOL0     H 4919   0.864   2.051   6.380  0.1752  0.3426 -0.5838
   36MOL0     H 4920   1.109   2.080   6.451 -0.4124  0.5933  2.3314
   36MOL0     H 4921   1.058   2.123   6.299  4.3017 -0.7825  0.2101
   36MOL0     H 4922   1.008   2.377   6.396  1.9768  1.8715 -0.8595
   36MOL0     H 4923   1.115   2.305   6.528  1.7298 -4.1632 -0.1431
   36MOL0     H 4924   1.273   2.395   6.408 -2.6101 -0.2024  1.4656
   36MOL0     H 4925   1.273   2.242   6.312  3.2815  0.4662  0.2545
   36MOL0     H 4926   1.218   2.173   6.092  0.7144 -0.1243  1.7268
   36MOL0     H 4927   1.278   2.098   5.740 -2.0765 -1.5847 -0.0902
   36MOL0     H 4928   1.166   2.079   5.867 -0.4945 -0.9986  0.4089
   36MOL0     H 4929   1.343   2.035   5.880  2.0655  1.4815 -3.3131
   36MOL0     H 4930   1.537   2.555   5.444  1.4669  0.5418 -2.2636
   36MOL0     H 4931   1.548   2.539   5.196  1.9514  0.3271  1.1075
   36MOL0     H 4932   1.377   2.612   4.957  0.4597  0.8370 -0.3308
   36MOL0     H 4933   1.534   2.543   4.992 -0.1482  2.9005 -3.1363
   36MOL0     H 4934   1.495   2.347   4.827 -0.9307 -0.9556 -1.9235
   36MOL0     H 4935   1.342   2.421   4.786  0.5952  0.6422 -2.1981
   36MOL0     H 4936   1.518   2.631   4.751 -0.6109 -0.7730  2.9590
   36MOL0     H 4937   1.438   2.535   4.624  1.0928 -1.6031 -1.0523
   36MOL0     H 4938   1.631   2.371   4.641  0.5151  0.6293 -2.6345
   36MOL0     H 4939   1.723   2.489   4.732 -0.6180 -2.1363  1.1030
   36MOL0     H 4940   1.643   2.670   4.555 -0.4891  0.1445  0.3708
   36MOL0     H 4941   1.787   2.588   4.562 -0.5582  3.1789  5.0185
   36MOL0     H 4942   1.686   2.597   4.346 -1.9993 -1.3885 -2.1065
   36MOL0     H 4943   1.538   2.497   4.408 -1.0702  2.7897 -2.6341
   36MOL0     H 4944   1.649   2.307   4.380  2.1470 -2.6093 -3.0385
   36MOL0     H 4945   1.809   2.383   4.421 -0.5888  0.0290  0.5327
   36MOL0     H 4946   1.804   2.300   4.205 -1.7471 -0.4416  2.1399
   36MOL0     H 4947   1.787   2.475   4.191 -2.4562  1.3578  0.1631
   36MOL0     H 4948   1.181   2.321   5.184 -0.4070 -1.8264  1.8021
   36MOL0     H 4949   1.175   2.305   5.435  0.1310  0.0168 -0.7116
   36MOL0     H 4950   1.384   2.566   5.840 -0.9474 -0.1957 -0.5556
   36MOL0     H 4951   1.284   2.595   6.059  3.3035 -1.0732  1.1957
   36MOL0     H 4952   0.113   1.356   6.773  0.7355 -1.1537  0.6363
   36MOL0     H 4953   0.150   1.131   6.765  2.0422  1.3728  1.8752
   36MOL0     H 4954   0.161   0.820   6.430 -0.7542  2.0209  0.1132
   36MOL0     H 4955   0.049   0.621   6.392  2.1098  3.4546 -0.8471
   36MOL0     H 4956  -0.007   0.329   6.732  1.5082  0.4274 -0.4127
   36MOL0     H 4957  -0.166   0.408   6.711  1.0490 -0.0155  1.4240
   36MOL0     H 4958  -0.244   0.241   6.563 -0.3679  0.2506  1.9747
   36MOL0     H 4959  -0.178   0.166   6.702  1.3490  1.6686  1.4734
   36MOL0     H 4960   0.000   0.203   6.455  1.1470 -0.0832  1.0521
   36MOL0     H 4961   0.023   0.097   6.601 -0.3990 -0.7762  0.6262
   36MOL0     H 4962  -0.164  -0.034   6.565 -0.0215 -1.2948 -0.0770
   36MOL0     H 4963  -0.034  -0.068   6.454 -0.6559  0.1686  0.5401
   36MOL0     H 4964  -0.348   0.060   6.200 -1.1535 -0.2076  2.4509
   36MOL0     H 4965   0.075   0.506   6.814  1.2169 -1.2058 -0.9814
   36MOL0     H 4966   0.321   0.723   6.896 -0.5543 -0.6920 -3.7808
   36MOL0     H 4967   0.155   0.782   6.951 -1.8267 -0.1375 -0.3318
   36MOL0     H 4968   0.203   0.617   6.960 -0.8369 -0.7996 -1.1024
   37MOL0     O 4969   9.902   0.716   5.136  0.4925  0.4799  0.1951
   37MOL0     C 4970   9.832   0.813   5.166 -0.1950 -0.4934 -0.2552
   37MOL0     O 4971   9.826   0.937   5.101  0.7479  0.5754 -0.1235
   37MOL0     C 4972   9.861   0.948   4.967 -0.8400  0.7607 -0.6763
   37MOL0     C 4973   9.894   1.082   4.926 -0.0979 -0.2550 -0.2719
   37MOL0     C 4974   9.924   1.111   4.793 -0.7081  0.0633  0.0882
   37MOL0     C 4975   9.934   1.003   4.702 -0.3408  0.3129  0.2848
   37MOL0     O 4976   9.979   0.999   4.571  0.0717 -0.6339  0.4197
   37MOL0     C 4977  10.014   1.118   4.490 -0.3266  0.1953  0.1333
   37MOL0     C 4978   9.886   1.169   4.435  0.3223 -0.9384  0.3402
   37MOL0     C 4979   9.912   1.290   4.331  0.7540  0.5617 -0.4488
   37MOL0     C 4980   9.987   1.399   4.388  0.5552 -0.0819 -0.3229
   37MOL0     C 4981   9.936   1.533   4.334 -0.7830  0.9971  0.1450
   37MOL0     C 4982   9.932   1.542   4.178 -0.1241  0.6395 -0.4635
   37MOL0     C 4983  10.074   1.537   4.118 -1.0331  0.6207  0.0301
   37MOL0     C 4984  10.069   1.514   3.967 -0.3064 -0.4053  0.0475
   37MOL0     N 4985   9.951   1.568   3.898  0.6630  0.2055 -0.1475
   37MOL0     C 4986   9.839   1.488   3.867  0.3980 -0.0268  0.2336
   37MOL0     C 4987   9.771   1.561   3.781 -0.1969  0.1669  0.7651
   37MOL0     C 4988   9.635   1.520   3.744 -0.3416 -0.8775  0.2801
   37MOL0     C 4989   9.609   1.465   3.601  0.6472 -1.0902 -0.2426
   37MOL0     C 4990   9.676   1.333   3.568 -0.6823 -0.4554  1.0507
   37MOL0     C 4991   9.594   1.215   3.620  0.4246  0.0010  0.5245
   37MOL0     O 4992   9.466   1.228   3.559 -0.0650  0.3491  1.2171
   37MOL0     C 4993   9.388   1.124   3.601  0.5250 -0.7210 -0.1386
   37MOL0     C 4994   9.393   0.997   3.524 -0.9940 -0.7288  1.1913
   37MOL0     C 4995   9.323   0.886   3.567  0.2669  0.0796  0.0394
   37MOL0     C 4996   9.335   0.760   3.473 -0.7677 -0.4633  0.5200
   37MOL0     C 4997   9.222   0.891   3.678  0.7478 -0.5521  0.2121
   37MOL0     C 4998   9.118   0.786   3.710  0.3844 -0.8794 -0.5719
   37MOL0     O 4999   9.022   0.820   3.811 -0.0940  0.2562 -0.3812
   37MOL0     C 5000   8.929   0.720   3.830  0.6815  0.6091  0.3644
   37MOL0     C 5001   8.795   0.756   3.828  0.4236 -0.3591  0.1634
   37MOL0     C 5002   8.698   0.663   3.833  0.4025 -0.2982 -0.8107
   37MOL0     C 5003   8.744   0.531   3.867  0.6234  0.1365 -0.2822
   37MOL0     O 5004   8.664   0.417   3.890  0.0766 -0.0846  0.5086
   37MOL0     C 5005   8.530   0.412   3.837  0.0893 -0.1837  0.3418
   37MOL0     C 5006   8.452   0.291   3.875  0.8830 -0.3655 -0.9092
   37MOL0     C 5007   8.503   0.167   3.808 -0.2783  0.4091  0.1407
   37MOL0     C 5008   8.395   0.057   3.834 -0.1437 -0.0999 -0.0777
   37MOL0     C 5009   8.467  -0.070   3.872 -0.0290  0.8410  0.2027
   37MOL0     C 5010   8.382  -0.188   3.828  0.0397 -0.9449  0.1021
   37MOL0     C 5011   8.472  -0.317   3.826  0.2563  0.3511 -0.1555
   37MOL0     C 5012   8.428  -0.416   3.724  0.0046  0.3144 -0.3439
   37MOL0    Cl 5013   8.537  -0.569   3.747 -0.1377  0.0249 -0.0553
   37MOL0     C 5014   8.877   0.503   3.872 -0.9485  1.0886  0.1449
   37MOL0     C 5015   8.972   0.598   3.865  0.2928  1.2619 -1.2290
   37MOL0     O 5016   9.110   0.686   3.636 -0.6496 -0.0862 -0.0314
   37MOL0     C 5017   9.213   1.020   3.746 -0.3078  0.0256  0.8436
   37MOL0     C 5018   9.292   1.130   3.714  0.8066 -0.1240 -0.2142
   37MOL0     N 5019   9.838   1.680   3.764  0.9523  0.3933  0.0786
   37MOL0     N 5020   9.947   1.680   3.827 -0.3449  0.4712  0.2755
   37MOL0     C 5021   9.900   0.878   4.743  0.0988 -0.4253  0.0175
   37MOL0     C 5022   9.866   0.845   4.868  0.1561  0.0788 -1.1624
   37MOL0     C 5023   9.740   0.800   5.284 -0.1698  0.2763  0.1013
   37MOL0     C 5024   9.645   0.903   5.286  0.2906 -0.0390 -0.6350
   37MOL0     C 5025   9.548   0.900   5.388 -0.1398  0.8959  0.2129
   37MOL0     C 5026   9.554   0.812   5.499 -0.5914 -0.0920  0.1654
   37MOL0     O 5027   9.465   0.838   5.594 -0.1292 -0.2448 -0.1000
   37MOL0     C 5028   9.482   0.775   5.728 -1.1923 -1.0284  0.5107
   37MOL0     C 5029   9.352   0.792   5.803 -0.8422  0.6574  0.8271
   37MOL0     C 5030   9.230   0.735   5.732 -0.2682  0.0666  0.4574
   37MOL0     C 5031   9.102   0.753   5.807  0.0178 -0.8122  0.0935
   37MOL0     C 5032   9.104   0.669   5.927 -0.3700 -1.2794 -0.1568
   37MOL0     C 5033   9.084   0.598   6.018  0.0241  0.3596  0.2237
   37MOL0     C 5034   9.655   0.713   5.499  0.3265  0.0379 -0.4082
   37MOL0     C 5035   9.740   0.699   5.385  0.5805 -0.2141 -0.6424
   37MOL0     C 5036   9.840   0.587   5.385  0.2108  0.0406  0.6879
   37MOL0     H 5037   9.892   1.161   5.000 -1.1282 -0.7056  0.2067
   37MOL0     H 5038   9.936   1.215   4.762  2.4293  0.5197  2.2967
   37MOL0     H 5039  10.076   1.069   4.415  0.5046 -0.1870  1.0530
   37MOL0     H 5040  10.067   1.196   4.545 -2.2565  1.0246  0.9299
   37MOL0     H 5041   9.836   1.080   4.394  1.4635 -1.6946  0.5424
   37MOL0     H 5042   9.841   1.213   4.524  2.0099 -1.8424  1.7040
   37MOL0     H 5043   9.965   1.245   4.247  1.5934 -1.1404  0.9327
   37MOL0     H 5044   9.811   1.323   4.304  1.2313  3.1171  0.6728
   37MOL0     H 5045   9.988   1.404   4.497  0.6524  3.6369 -0.3841
   37MOL0     H 5046  10.092   1.377   4.365  0.3111  0.5438 -2.2433
   37MOL0     H 5047  10.007   1.611   4.363  0.8805  0.2921 -1.8485
   37MOL0     H 5048   9.840   1.558   4.380  0.1196  0.2431  2.6530
   37MOL0     H 5049   9.875   1.464   4.127 -0.3743  2.4000 -3.0433
   37MOL0     H 5050   9.886   1.639   4.155 -1.4446  0.8023  2.4321
   37MOL0     H 5051  10.145   1.464   4.159  2.7759  3.1132 -1.5391
   37MOL0     H 5052  10.126   1.633   4.124  0.0713  0.2738 -2.4292
   37MOL0     H 5053  10.158   1.541   3.909  0.5373 -0.1088  1.4550
   37MOL0     H 5054  10.067   1.406   3.955 -0.8746 -0.6519  2.0335
   37MOL0     H 5055   9.809   1.392   3.907 -3.3364  1.6137  1.9032
   37MOL0     H 5056   9.586   1.617   3.737  0.5816 -0.3043  1.5084
   37MOL0     H 5057   9.588   1.458   3.821  2.5651 -0.3509  2.6338
   37MOL0     H 5058   9.501   1.458   3.584  0.7008  1.3655 -2.1555
   37MOL0     H 5059   9.648   1.544   3.536  0.2932  0.2326  1.0867
   37MOL0     H 5060   9.680   1.316   3.460 -3.6909 -3.3797  1.2547
   37MOL0     H 5061   9.781   1.339   3.599  0.0688  0.1511 -1.3902
   37MOL0     H 5062   9.642   1.118   3.602  1.0650  0.6048 -1.2776
   37MOL0     H 5063   9.605   1.226   3.728  2.1165 -0.1650  0.4007
   37MOL0     H 5064   9.464   0.996   3.442 -1.4106  4.3549  0.4317
   37MOL0     H 5065   9.421   0.761   3.404 -3.2254  2.0467 -2.8238
   37MOL0     H 5066   9.248   0.757   3.407 -1.0622  2.4845  0.6522
   37MOL0     H 5067   9.355   0.671   3.534  0.6980 -0.1558  0.5433
   37MOL0     H 5068   8.760   0.856   3.801 -1.5336 -1.5310 -1.9626
   37MOL0     H 5069   8.590   0.677   3.834  0.4305 -0.1227 -0.0954
   37MOL0     H 5070   8.470   0.498   3.867 -0.1587  0.6353 -2.2528
   37MOL0     H 5071   8.531   0.414   3.727 -0.5672 -1.5383  0.2887
   37MOL0     H 5072   8.447   0.289   3.984 -1.9501 -1.1141 -0.9785
   37MOL0     H 5073   8.347   0.286   3.845  0.2033 -2.0149  1.4324
   37MOL0     H 5074   8.599   0.138   3.851  0.8302  3.3194 -0.1466
   37MOL0     H 5075   8.515   0.172   3.699  0.2270  2.9352  0.2555
   37MOL0     H 5076   8.338   0.052   3.740 -0.8098  2.7075  0.0739
   37MOL0     H 5077   8.320   0.088   3.908 -0.0450 -1.2996  0.5481
   37MOL0     H 5078   8.569  -0.075   3.832 -0.4001 -0.1335 -0.6735
   37MOL0     H 5079   8.470  -0.081   3.981 -1.0238  1.3683  0.2891
   37MOL0     H 5080   8.348  -0.167   3.726 -0.3526 -2.6428 -0.1430
   37MOL0     H 5081   8.286  -0.197   3.880  0.0318  2.7839  1.0047
   37MOL0     H 5082   8.470  -0.367   3.924 -0.7319 -3.5273 -1.9334
   37MOL0     H 5083   8.579  -0.300   3.812  0.8660  0.4576  3.5253
   37MOL0     H 5084   8.429  -0.378   3.622 -2.4466  2.5241  0.3454
   37MOL0     H 5085   8.330  -0.460   3.746  1.8008 -2.3438  3.4813
   37MOL0     H 5086   8.899   0.396   3.877 -3.0258  0.5923 -0.6972
   37MOL0     H 5087   9.075   0.566   3.874 -0.3013 -0.5575 -0.2988
   37MOL0     H 5088   9.152   1.031   3.834  2.0359 -2.5445  2.9838
   37MOL0     H 5089   9.282   1.210   3.786  0.8297 -1.5888  1.4759
   37MOL0     H 5090   9.908   0.796   4.672  1.9840  0.2504 -0.5953
   37MOL0     H 5091   9.841   0.743   4.893  0.3438  0.5913  1.3497
   37MOL0     H 5092   9.649   0.982   5.213  3.5220  0.7078  0.2164
   37MOL0     H 5093   9.476   0.982   5.389 -1.4541 -0.2217  0.3550
   37MOL0     H 5094   9.497   0.668   5.712  1.7065 -0.6298  0.1535
   37MOL0     H 5095   9.568   0.819   5.779 -1.4805  1.2755 -0.8526
   37MOL0     H 5096   9.349   0.899   5.825 -0.6533  1.4111 -2.4225
   37MOL0     H 5097   9.372   0.737   5.896  0.1988  2.0781  1.4603
   37MOL0     H 5098   9.228   0.797   5.642 -1.0226  0.3581  0.6676
   37MOL0     H 5099   9.250   0.630   5.709  0.2535  0.0770  0.8584
   37MOL0     H 5100   9.017   0.711   5.752 -0.6280 -2.7960  2.4466
   37MOL0     H 5101   9.082   0.859   5.818 -0.8419 -1.0069  0.4916
   37MOL0     H 5102   9.070   0.513   6.082  0.6281  0.2132  0.1714
   37MOL0     H 5103   9.661   0.643   5.582 -1.4574 -0.4219 -0.6202
   37MOL0     H 5104   9.939   0.619   5.349  1.1060 -2.8745  0.3126
   37MOL0     H 5105   9.868   0.544   5.481 -0.2583  2.4515  1.9945
   37MOL0     H 5106   9.806   0.507   5.319  0.7131  0.0635  0.3977
   38MOL0     O 5107   0.541   4.126   5.683 -0.3272 -1.0227  0.1231
   38MOL0     C 5108   0.555   4.036   5.759 -0.0749  0.1749  0.1338
   38MOL0     O 5109   0.494   3.920   5.759  0.2834  0.5430 -0.9089
   38MOL0     C 5110   0.397   3.895   5.669  0.0061 -0.9932  0.8826
   38MOL0     C 5111   0.429   3.833   5.547  0.4713 -0.4136  0.5785
   38MOL0     C 5112   0.321   3.796   5.457 -0.5572  0.4404 -0.0949
   38MOL0     C 5113   0.189   3.832   5.479 -0.4422  0.5003  0.0303
   38MOL0     O 5114   0.088   3.780   5.395 -0.9316  0.8451  0.0725
   38MOL0     C 5115  -0.049   3.790   5.424  0.0279  0.5634 -0.5811
   38MOL0     C 5116  -0.129   3.710   5.312 -0.2127 -0.8198 -0.4341
   38MOL0     C 5117  -0.138   3.807   5.196 -0.8883  0.6674  0.1307
   38MOL0     C 5118  -0.245   3.749   5.101  0.3660  0.5280  0.9213
   38MOL0     C 5119  -0.250   3.813   4.966  0.5065  0.0783 -0.6896
   38MOL0     C 5120  -0.315   3.952   4.985 -0.4099 -1.2153 -0.6920
   38MOL0     C 5121  -0.341   4.001   4.839  0.3079  0.1135  0.9929
   38MOL0     C 5122  -0.391   4.155   4.843  0.7762  0.2947  0.4121
   38MOL0     N 5123  -0.438   4.204   4.708  0.0117  0.1347  0.5575
   38MOL0     C 5124  -0.358   4.175   4.599  1.0518 -0.3249  0.1187
   38MOL0     C 5125  -0.433   4.204   4.492 -0.2560  0.8197  0.1057
   38MOL0     C 5126  -0.405   4.186   4.343  0.2406  0.2730 -0.0895
   38MOL0     C 5127  -0.418   4.316   4.268  0.4437 -0.1523  1.1681
   38MOL0     C 5128  -0.443   4.282   4.117  0.4468 -0.0604  1.3172
   38MOL0     C 5129  -0.430   4.403   4.020 -0.3650 -1.1867 -0.1202
   38MOL0     O 5130  -0.299   4.465   4.028  0.4414  0.4556  0.1223
   38MOL0     C 5131  -0.293   4.598   4.039  0.2645  0.0834 -0.3437
   38MOL0     C 5132  -0.320   4.674   4.157 -0.7445  0.1027  0.7458
   38MOL0     C 5133  -0.306   4.816   4.157 -0.1211  0.2018 -0.1658
   38MOL0     C 5134  -0.325   4.885   4.296  0.0864  0.9535  0.3184
   38MOL0     C 5135  -0.260   4.890   4.046 -0.1058 -1.3661 -0.1166
   38MOL0     C 5136  -0.242   5.037   4.044  0.1490 -0.5209  0.7168
   38MOL0     O 5137  -0.294   5.116   4.138 -0.2093  0.6410  0.6979
   38MOL0     C 5138  -0.269   5.251   4.132  0.0105  0.3082  0.4201
   38MOL0     C 5139  -0.302   5.328   4.021 -0.1211  0.2506 -0.2467
   38MOL0     C 5140  -0.280   5.465   4.014  0.2912 -0.7317  0.6957
   38MOL0     C 5141  -0.224   5.537   4.116 -0.0264 -0.7210  0.3918
   38MOL0     O 5142  -0.188   5.668   4.083  0.3785  0.5817 -0.6653
   38MOL0     C 5143  -0.148   5.754   4.187  0.0887 -0.0108  0.0442
   38MOL0     C 5144  -0.170   5.900   4.144 -0.1613 -0.0789 -0.5209
   38MOL0     C 5145  -0.320   5.943   4.159 -0.4997 -0.0167  0.1431
   38MOL0     C 5146  -0.354   6.012   4.291  0.5725 -0.1258  0.3324
   38MOL0     C 5147  -0.274   6.145   4.320  0.1010  0.7043 -0.4350
   38MOL0     C 5148  -0.317   6.254   4.215 -0.4714 -0.4659 -1.1916
   38MOL0     C 5149  -0.206   6.369   4.206  0.5531  0.1263  0.1638
   38MOL0     C 5150  -0.277   6.502   4.212  0.2382 -0.1239 -0.4430
   38MOL0    Cl 5151  -0.350   6.553   4.067  0.0897 -0.2802 -0.0191
   38MOL0     C 5152  -0.198   5.467   4.237  0.4930  0.0547 -0.8683
   38MOL0     C 5153  -0.222   5.327   4.239 -0.1770  1.0703  0.2573
   38MOL0     O 5154  -0.183   5.072   3.940 -0.6318  0.5642 -0.6971
   38MOL0     C 5155  -0.243   4.815   3.934 -0.2216 -0.3134 -0.4950
   38MOL0     C 5156  -0.264   4.673   3.922 -0.9655 -0.1853 -0.5768
   38MOL0     N 5157  -0.558   4.248   4.533  0.6070 -0.1458  0.0152
   38MOL0     N 5158  -0.563   4.236   4.660 -1.1283 -0.5592  0.8251
   38MOL0     C 5159   0.158   3.889   5.603 -0.3711  0.3533 -0.2182
   38MOL0     C 5160   0.268   3.915   5.695  0.1636  1.4384 -0.3083
   38MOL0     C 5161   0.642   4.051   5.879 -0.0035  1.1832 -0.0393
   38MOL0     C 5162   0.625   3.961   5.983 -0.7413 -0.1062 -0.4530
   38MOL0     C 5163   0.685   3.986   6.107 -0.1599  0.0762  1.2234
   38MOL0     C 5164   0.763   4.089   6.136 -0.5981 -0.1728 -0.4380
   38MOL0     O 5165   0.825   4.077   6.258 -0.1293  0.4598 -0.5585
   38MOL0     C 5166   0.920   4.168   6.310  0.0172 -0.2565  0.8823
   38MOL0     C 5167   0.838   4.284   6.365 -0.2986  0.1938  0.4874
   38MOL0     C 5168   0.756   4.246   6.490 -0.3618  0.8574 -0.7802
   38MOL0     C 5169   0.684   4.364   6.559  1.0777 -0.3183 -0.9962
   38MOL0     C 5170   0.782   4.451   6.624 -0.0121  0.1493 -0.0404
   38MOL0     C 5171   0.846   4.531   6.680  0.1498  0.3625 -0.1150
   38MOL0     C 5172   0.781   4.174   6.031 -0.8564 -0.5959 -0.3755
   38MOL0     C 5173   0.730   4.168   5.909  0.3780 -0.4434  0.9248
   38MOL0     C 5174   0.749   4.287   5.815 -0.8087 -0.8422 -0.0094
   38MOL0     H 5175   0.532   3.818   5.517 -0.1405 -6.2648  0.1594
   38MOL0     H 5176   0.353   3.761   5.360  0.5651  1.3325 -0.0633
   38MOL0     H 5177  -0.071   3.897   5.421 -0.8315  0.5927  2.5155
   38MOL0     H 5178  -0.088   3.766   5.524  2.0851  0.2463  0.1985
   38MOL0     H 5179  -0.078   3.619   5.280  4.0282  0.5636  1.5620
   38MOL0     H 5180  -0.234   3.703   5.341 -0.6178  2.1439 -0.8563
   38MOL0     H 5181  -0.170   3.907   5.228  1.1027  0.9177  1.5053
   38MOL0     H 5182  -0.041   3.820   5.148  0.6667 -2.2394  2.2162
   38MOL0     H 5183  -0.215   3.645   5.091 -1.1320  0.2805 -2.6050
   38MOL0     H 5184  -0.343   3.764   5.148 -2.0158 -1.2569 -2.9595
   38MOL0     H 5185  -0.303   3.748   4.895 -0.4161 -0.5991  0.5827
   38MOL0     H 5186  -0.150   3.822   4.923  0.1872  0.0933 -1.4451
   38MOL0     H 5187  -0.406   3.948   5.046  0.0193 -0.6388 -0.0078
   38MOL0     H 5188  -0.240   4.016   5.033  0.0549 -0.7715 -1.9538
   38MOL0     H 5189  -0.420   3.935   4.802  1.1082  0.3894 -1.3780
   38MOL0     H 5190  -0.251   3.987   4.779 -0.3070  3.0609 -0.8221
   38MOL0     H 5191  -0.456   4.158   4.931  0.8932  1.1579  0.4806
   38MOL0     H 5192  -0.305   4.219   4.868  0.4685  1.1923 -0.7241
   38MOL0     H 5193  -0.258   4.134   4.594  2.4290  2.8614 -1.7917
   38MOL0     H 5194  -0.473   4.114   4.298  1.6150  0.6855 -3.1023
   38MOL0     H 5195  -0.303   4.147   4.331  0.3832  0.8272 -0.7546
   38MOL0     H 5196  -0.500   4.371   4.316  0.7402  1.1855  0.1908
   38MOL0     H 5197  -0.324   4.372   4.276  0.4621  0.4713 -2.1652
   38MOL0     H 5198  -0.370   4.205   4.091  1.5112  0.9899  1.0986
   38MOL0     H 5199  -0.545   4.248   4.098  0.2036  2.3603 -3.1949
   38MOL0     H 5200  -0.461   4.375   3.919 -0.2014  0.7542 -0.7428
   38MOL0     H 5201  -0.501   4.481   4.050 -0.1738 -1.4995  1.2057
   38MOL0     H 5202  -0.344   4.603   4.235  0.6667  0.1697  1.2682
   38MOL0     H 5203  -0.344   4.815   4.378 -2.2965  1.0715 -0.0683
   38MOL0     H 5204  -0.416   4.945   4.296 -1.1053 -0.7245 -1.0439
   38MOL0     H 5205  -0.229   4.935   4.311  1.5297 -1.7292  0.6758
   38MOL0     H 5206  -0.334   5.277   3.931 -2.4193 -2.3430  1.8724
   38MOL0     H 5207  -0.297   5.522   3.923  1.8837  2.2932  2.1436
   38MOL0     H 5208  -0.209   5.728   4.274  0.7858  0.2624  0.6239
   38MOL0     H 5209  -0.044   5.742   4.218 -0.3000 -0.9029  1.0983
   38MOL0     H 5210  -0.095   5.947   4.208  0.3875 -1.1604 -0.3545
   38MOL0     H 5211  -0.145   5.928   4.041 -0.8736  2.9389  0.0263
   38MOL0     H 5212  -0.381   5.855   4.138 -0.3453 -0.2110  0.4838
   38MOL0     H 5213  -0.338   6.004   4.070  2.2362 -2.8708 -2.6181
   38MOL0     H 5214  -0.342   5.944   4.376  0.5494  1.2371  1.4917
   38MOL0     H 5215  -0.462   6.031   4.301  0.0962 -2.1123 -0.5101
   38MOL0     H 5216  -0.296   6.176   4.422  3.7121 -1.2204  1.1139
   38MOL0     H 5217  -0.167   6.124   4.316 -0.4976 -2.8212 -1.4901
   38MOL0     H 5218  -0.415   6.297   4.238  0.1652  0.8541 -0.8655
   38MOL0     H 5219  -0.335   6.209   4.117 -1.8733 -1.1270 -0.6599
   38MOL0     H 5220  -0.165   6.348   4.107  1.6844 -2.9052  1.1557
   38MOL0     H 5221  -0.137   6.371   4.291  1.6777  1.7376 -0.7382
   38MOL0     H 5222  -0.194   6.566   4.241  1.2650 -1.2325 -0.8377
   38MOL0     H 5223  -0.354   6.499   4.290  0.2777 -1.3695 -0.4276
   38MOL0     H 5224  -0.154   5.508   4.326  1.0193  1.9118 -1.9264
   38MOL0     H 5225  -0.206   5.279   4.335 -0.5205 -0.1199 -0.2616
   38MOL0     H 5226  -0.222   4.863   3.839 -1.6007 -3.1104 -2.3668
   38MOL0     H 5227  -0.261   4.612   3.832  1.3593 -2.0250  0.6535
   38MOL0     H 5228   0.056   3.902   5.638  0.3621 -0.2047  2.3103
   38MOL0     H 5229   0.243   3.959   5.791  2.7902  0.7140  0.7947
   38MOL0     H 5230   0.558   3.876   5.973 -3.1325  1.4846  1.0158
   38MOL0     H 5231   0.654   3.920   6.187 -3.8338 -2.3814 -1.8790
   38MOL0     H 5232   0.981   4.119   6.386 -0.1995 -0.9418  0.6216
   38MOL0     H 5233   0.988   4.197   6.229  1.0275  0.5694  1.9967
   38MOL0     H 5234   0.768   4.319   6.289 -1.4933  0.5728  1.7180
   38MOL0     H 5235   0.906   4.361   6.402  0.8240  0.1525 -1.3720
   38MOL0     H 5236   0.681   4.172   6.460  0.4662  0.1302 -1.0974
   38MOL0     H 5237   0.829   4.193   6.551  0.4609  1.4455 -1.2349
   38MOL0     H 5238   0.615   4.325   6.634  0.2728 -1.2081 -2.1592
   38MOL0     H 5239   0.632   4.422   6.482 -2.9818 -0.8627  1.0533
   38MOL0     H 5240   0.905   4.594   6.742  1.9042 -2.4324  1.2230
   38MOL0     H 5241   0.845   4.255   6.063 -1.0865  0.3684 -2.1876
   38MOL0     H 5242   0.801   4.254   5.725  1.2534  0.5756  0.5919
   38MOL0     H 5243   0.652   4.327   5.783 -1.0948 -3.2454 -2.5083
   38MOL0     H 5244   0.803   4.375   5.852 -0.7785 -0.8899  0.0601
   39MOL0     O 5245   6.600   1.039   9.880  0.0458 -0.1540 -0.0751
   39MOL0     C 5246   6.602   1.146   9.818 -0.8147 -0.4735  0.0513
   39MOL0     O 5247   6.498   1.225   9.797  0.2746 -1.2238  0.3348
   39MOL0     C 5248   6.375   1.166   9.836 -0.3868 -0.6001  0.4900
   39MOL0     C 5249   6.320   1.065   9.755  0.4087 -0.1948 -0.0175
   39MOL0     C 5250   6.196   1.016   9.791  0.4246  0.1540 -1.2421
   39MOL0     C 5251   6.139   1.050   9.919 -0.7987  0.7406  0.0497
   39MOL0     O 5252   6.031   0.988   9.963  0.4379  0.1012  0.5895
   39MOL0     C 5253   5.912   1.004   9.878  0.5418  0.0018 -0.6484
   39MOL0     C 5254   5.798   0.918   9.941  0.3811 -0.0588 -0.2325
   39MOL0     C 5255   5.680   0.926   9.856  0.5973  0.1181  0.1197
   39MOL0     C 5256   5.678   0.913   9.699 -0.1190 -0.3825  0.3805
   39MOL0     C 5257   5.549   0.853   9.651  0.1177  0.2506  0.4393
   39MOL0     C 5258   5.526   0.702   9.668  0.5770 -0.0568 -0.5668
   39MOL0     C 5259   5.408   0.651   9.570 -0.1295 -0.6839  0.4788
   39MOL0     C 5260   5.343   0.524   9.622  0.4912  0.1772 -0.9626
   39MOL0     N 5261   5.253   0.428   9.543  0.1830 -0.2281  0.4870
   39MOL0     C 5262   5.216   0.473   9.420  0.3253  0.1208  0.7203
   39MOL0     C 5263   5.119   0.381   9.384 -0.2133  0.1755  0.9065
   39MOL0     C 5264   5.065   0.365   9.244 -0.6136  0.2867 -0.8821
   39MOL0     C 5265   5.140   0.246   9.187  0.0351  0.3273  0.8763
   39MOL0     C 5266   5.050   0.181   9.084 -0.4741  0.8009 -0.5625
   39MOL0     C 5267   5.133   0.110   8.972  1.2271  0.3170 -0.0885
   39MOL0     O 5268   5.208   0.200   8.896 -0.3683  0.3595 -0.1304
   39MOL0     C 5269   5.249   0.149   8.777 -0.1666 -0.0891 -0.0938
   39MOL0     C 5270   5.348   0.047   8.766 -0.6497 -0.1495 -0.3591
   39MOL0     C 5271   5.394  -0.010   8.648 -0.0014 -0.0072  0.0276
   39MOL0     C 5272   5.491  -0.128   8.656 -0.9773 -0.3585 -1.4933
   39MOL0     C 5273   5.335   0.041   8.525  0.1024  0.8485  0.4007
   39MOL0     C 5274   5.362  -0.012   8.394  0.2421 -0.7522 -0.5251
   39MOL0     O 5275   5.335   0.068   8.293  1.0010 -0.1516 -0.7464
   39MOL0     C 5276   5.366   0.057   8.161  0.2209  0.1537 -1.5164
   39MOL0     C 5277   5.293   0.127   8.065 -0.2363 -0.2603  0.5118
   39MOL0     C 5278   5.305   0.105   7.928  0.3774  0.6314  0.2021
   39MOL0     C 5279   5.396   0.019   7.872 -0.7435 -0.3048 -0.6522
   39MOL0     O 5280   5.384   0.017   7.738 -0.0894  0.0196 -0.2319
   39MOL0     C 5281   5.511   0.000   7.656  0.0003 -0.0225  0.3847
   39MOL0     C 5282   5.482   0.028   7.512 -0.2701 -0.0309  0.7563
   39MOL0     C 5283   5.461  -0.097   7.436 -0.3914  0.4779 -0.1719
   39MOL0     C 5284   5.391  -0.078   7.292 -0.4191 -0.3909  0.0167
   39MOL0     C 5285   5.420  -0.194   7.193 -0.4612 -0.0464  1.0150
   39MOL0     C 5286   5.362  -0.166   7.048 -0.4136 -0.1074 -0.3662
   39MOL0     C 5287   5.469  -0.093   6.956  0.4857 -0.4321  0.7910
   39MOL0     C 5288   5.398  -0.018   6.850  0.9220 -0.1313  1.0721
   39MOL0    Cl 5289   5.516   0.059   6.751 -0.5433 -0.1965 -0.0044
   39MOL0     C 5290   5.471  -0.058   7.964  0.3303  0.1908  0.2211
   39MOL0     C 5291   5.457  -0.035   8.101 -0.5634  0.2662  0.2685
   39MOL0     O 5292   5.413  -0.128   8.384  0.0485  1.3602 -0.6082
   39MOL0     C 5293   5.240   0.142   8.541 -0.5707 -0.6139  0.4848
   39MOL0     C 5294   5.192   0.191   8.661  0.3753 -0.5152 -0.3105
   39MOL0     N 5295   5.099   0.295   9.493  0.3730 -0.4438  0.1791
   39MOL0     N 5296   5.172   0.329   9.592  1.0355  0.5580 -1.1415
   39MOL0     C 5297   6.212   1.137  10.004  1.0716  0.9586 -0.6744
   39MOL0     C 5298   6.328   1.198   9.962  0.6920 -0.3788 -0.4346
   39MOL0     C 5299   6.744   1.204   9.789  0.2254 -0.5036 -0.4732
   39MOL0     C 5300   6.765   1.340   9.772 -0.5051 -0.6728 -0.2580
   39MOL0     C 5301   6.891   1.398   9.743  0.2283 -0.0467 -0.7870
   39MOL0     C 5302   6.998   1.317   9.738 -0.7175 -0.8567  0.5335
   39MOL0     O 5303   7.122   1.374   9.712 -0.3237  0.1295  0.3867
   39MOL0     C 5304   7.222   1.294   9.647 -0.6002 -0.6545 -0.5395
   39MOL0     C 5305   7.332   1.235   9.741  0.0102  0.3227 -0.0984
   39MOL0     C 5306   7.439   1.150   9.659  0.5084 -0.6209 -0.0345
   39MOL0     C 5307   7.419   1.003   9.685  0.1501 -0.2696  0.8994
   39MOL0     C 5308   7.302   0.938   9.626 -0.0518 -0.3335  0.0423
   39MOL0     C 5309   7.195   0.886   9.602  0.9330 -0.4136  0.0718
   39MOL0     C 5310   6.979   1.179   9.754 -0.4227  0.1969 -0.4231
   39MOL0     C 5311   6.856   1.124   9.776 -0.8241  0.0867 -0.7196
   39MOL0     C 5312   6.861   0.970   9.794  0.9635 -0.0763  0.4225
   39MOL0     H 5313   6.370   1.042   9.661 -1.1053 -1.4021 -0.5765
   39MOL0     H 5314   6.157   0.936   9.730 -0.9437  0.3898 -0.7011
   39MOL0     H 5315   5.930   0.962   9.778  1.0905 -2.8958  0.5582
   39MOL0     H 5316   5.873   1.105   9.867 -1.7377 -0.1545  3.8637
   39MOL0     H 5317   5.831   0.817   9.965 -0.3784 -0.3500 -0.4011
   39MOL0     H 5318   5.768   0.975  10.030 -0.1476  1.5805 -1.4075
   39MOL0     H 5319   5.618   0.844   9.893  1.1753 -0.8270 -0.9517
   39MOL0     H 5320   5.622   1.015   9.884  1.5915  0.5142  0.9906
   39MOL0     H 5321   5.702   1.009   9.654  0.1547 -0.7842 -0.3521
   39MOL0     H 5322   5.762   0.851   9.666  0.1395  0.0642  0.1898
   39MOL0     H 5323   5.551   0.868   9.543  2.8024  0.9349  0.5144
   39MOL0     H 5324   5.470   0.915   9.692  1.7990  3.1834 -0.4852
   39MOL0     H 5325   5.618   0.649   9.640 -1.0818 -3.0578 -0.7250
   39MOL0     H 5326   5.504   0.685   9.774  2.2306 -1.1103 -0.3660
   39MOL0     H 5327   5.440   0.630   9.468 -3.0575  1.6796 -1.0898
   39MOL0     H 5328   5.340   0.733   9.548 -0.4692 -0.4932  2.0630
   39MOL0     H 5329   5.429   0.460   9.645 -1.7158 -2.0074  2.0786
   39MOL0     H 5330   5.288   0.542   9.715 -1.1243  0.0589 -1.8740
   39MOL0     H 5331   5.271   0.547   9.362 -0.7180  0.0417 -0.4227
   39MOL0     H 5332   5.089   0.456   9.189  1.8476  1.7595  2.2903
   39MOL0     H 5333   4.959   0.344   9.264 -0.2640  0.8876  1.9810
   39MOL0     H 5334   5.221   0.302   9.139 -0.7517  2.4392  1.8758
   39MOL0     H 5335   5.172   0.162   9.249 -0.8535  0.6035  1.7361
   39MOL0     H 5336   4.978   0.113   9.130  1.3822 -0.1838  1.0624
   39MOL0     H 5337   5.000   0.270   9.045 -1.0634  1.8483  2.3515
   39MOL0     H 5338   5.193   0.025   9.008 -0.8816  0.0760  3.2405
   39MOL0     H 5339   5.057   0.074   8.901 -1.1694  2.1477  1.4195
   39MOL0     H 5340   5.401   0.017   8.856 -2.9467 -1.2685  0.6908
   39MOL0     H 5341   5.433  -0.220   8.659 -2.5543  0.5983  1.9170
   39MOL0     H 5342   5.564  -0.120   8.736  0.4411  0.7844 -2.8324
   39MOL0     H 5343   5.553  -0.127   8.565 -0.9227  0.8424 -1.4667
   39MOL0     H 5344   5.218   0.200   8.095  0.0903  0.2795  0.0307
   39MOL0     H 5345   5.235   0.152   7.860 -0.4210 -2.1659 -1.0127
   39MOL0     H 5346   5.583   0.067   7.704 -2.2666  1.0931  2.3842
   39MOL0     H 5347   5.549  -0.101   7.671  1.0847  0.2281 -0.4651
   39MOL0     H 5348   5.390   0.088   7.506 -1.1083 -1.1823  1.5910
   39MOL0     H 5349   5.556   0.096   7.470 -1.5686  0.9205 -0.0655
   39MOL0     H 5350   5.404  -0.165   7.498 -1.5690 -0.0066 -1.7268
   39MOL0     H 5351   5.561  -0.140   7.422 -0.5945 -0.7962  1.8825
   39MOL0     H 5352   5.449  -0.000   7.240 -1.2228 -0.6885 -1.3515
   39MOL0     H 5353   5.286  -0.048   7.299 -0.3494 -0.2813  0.7118
   39MOL0     H 5354   5.525  -0.217   7.173 -1.0689 -0.7635 -1.8454
   39MOL0     H 5355   5.370  -0.281   7.237  1.7188 -0.3962  3.0455
   39MOL0     H 5356   5.276  -0.100   7.059  1.6863  2.7283  0.4437
   39MOL0     H 5357   5.333  -0.261   7.003 -2.9584 -0.2236  1.3099
   39MOL0     H 5358   5.542  -0.165   6.919 -1.8320 -2.9369  0.8271
   39MOL0     H 5359   5.522  -0.017   7.014  0.2791  2.2945 -2.2570
   39MOL0     H 5360   5.328   0.060   6.880  0.1840  0.0342 -0.9286
   39MOL0     H 5361   5.342  -0.092   6.791 -0.0557  2.2334 -1.1331
   39MOL0     H 5362   5.541  -0.133   7.928 -0.7062 -0.1677 -1.1236
   39MOL0     H 5363   5.521  -0.086   8.172 -1.4126  0.4928  1.2289
   39MOL0     H 5364   5.180   0.161   8.453 -0.8800 -5.4761 -0.6557
   39MOL0     H 5365   5.127   0.279   8.661 -0.4290 -1.0863 -1.5266
   39MOL0     H 5366   6.164   1.160  10.099  1.1708 -3.0073  0.5240
   39MOL0     H 5367   6.394   1.270  10.009 -1.1083  0.2297  1.3239
   39MOL0     H 5368   6.676   1.397   9.797  0.3024  0.5278 -0.0489
   39MOL0     H 5369   6.909   1.502   9.717  3.6620 -0.3892 -0.1701
   39MOL0     H 5370   7.185   1.221   9.574 -1.5573  0.7913 -1.5702
   39MOL0     H 5371   7.262   1.365   9.574  0.9236 -2.1541 -1.2419
   39MOL0     H 5372   7.277   1.177   9.815 -0.5982 -0.6053 -1.2326
   39MOL0     H 5373   7.385   1.313   9.796  0.1345  0.8799 -0.9736
   39MOL0     H 5374   7.445   1.171   9.551  3.8029  0.9802  0.3443
   39MOL0     H 5375   7.535   1.173   9.704  0.0197 -0.4692  0.9599
   39MOL0     H 5376   7.409   1.001   9.794  2.2816  5.3352  1.5711
   39MOL0     H 5377   7.507   0.944   9.660 -1.8098 -2.1670 -2.1300
   39MOL0     H 5378   7.099   0.841   9.587  0.6899 -0.0933  0.6262
   39MOL0     H 5379   7.066   1.116   9.744  0.1349  0.9284 -0.2569
   39MOL0     H 5380   6.962   0.931   9.785  0.4826 -1.0471 -1.0646
   39MOL0     H 5381   6.817   0.949   9.893  0.9914  0.3983  0.5400
   39MOL0     H 5382   6.791   0.940   9.715  0.2916  1.4746  0.3932
   40MOL0     O 5383   2.908   7.357   5.182  0.4218  1.0695 -0.6209
   40MOL0     C 5384   2.964   7.295   5.270 -0.1627  0.4875 -0.2141
   40MOL0     O 5385   2.962   7.157   5.284  0.8660 -0.6016 -0.0447
   40MOL0     C 5386   2.888   7.082   5.200 -1.0093  0.5006  0.2393
   40MOL0     C 5387   2.952   7.050   5.078 -0.3446  0.0640 -0.1027
   40MOL0     C 5388   2.885   6.972   4.990 -0.7291 -0.0724 -0.3044
   40MOL0     C 5389   2.763   6.909   5.023 -0.0579 -0.0238  0.3084
   40MOL0     O 5390   2.695   6.831   4.930  0.2886  0.5847 -0.1210
   40MOL0     C 5391   2.696   6.857   4.784 -0.5048 -0.2313 -0.0503
   40MOL0     C 5392   2.553   6.832   4.723 -0.2718 -0.0186 -0.0171
   40MOL0     C 5393   2.451   6.926   4.786 -1.2646  0.1480  0.0142
   40MOL0     C 5394   2.313   6.931   4.730 -0.3080 -0.3982 -0.4689
   40MOL0     C 5395   2.224   6.809   4.759  0.2532 -0.3285  0.0817
   40MOL0     C 5396   2.075   6.813   4.713 -0.1852 -0.6225  0.2719
   40MOL0     C 5397   2.037   6.836   4.563  0.1216  0.4703 -0.6421
   40MOL0     C 5398   2.094   6.727   4.464  0.3696 -0.3870 -0.0943
   40MOL0     N 5399   2.087   6.590   4.518 -0.1092 -0.3085 -0.6412
   40MOL0     C 5400   1.974   6.518   4.559 -0.2805  0.0252  0.6176
   40MOL0     C 5401   2.008   6.390   4.561  0.2839 -0.3681 -0.4334
   40MOL0     C 5402   1.913   6.285   4.614  0.6649 -0.0518  0.5108
   40MOL0     C 5403   1.770   6.291   4.549  0.2332  0.0833  0.2086
   40MOL0     C 5404   1.687   6.157   4.575  0.0669  1.4873 -0.2830
   40MOL0     C 5405   1.752   6.037   4.516 -0.1061 -0.0671  0.6102
   40MOL0     O 5406   1.741   6.066   4.369 -0.3580  0.0860 -0.7808
   40MOL0     C 5407   1.841   6.013   4.289  0.7786 -0.0996  0.3419
   40MOL0     C 5408   1.952   5.939   4.335  0.0415 -0.3753  0.1774
   40MOL0     C 5409   2.043   5.876   4.240 -0.6766 -0.7654  0.0127
   40MOL0     C 5410   2.158   5.795   4.301  0.7067  0.3446 -0.5219
   40MOL0     C 5411   2.040   5.902   4.100  0.9821  0.2262 -0.7193
   40MOL0     C 5412   2.126   5.845   3.997  0.1643 -0.3616 -0.1831
   40MOL0     O 5413   2.231   5.766   4.037  0.3499  1.0528 -0.2228
   40MOL0     C 5414   2.320   5.711   3.949  0.3800  0.5078 -0.2219
   40MOL0     C 5415   2.371   5.775   3.835  0.3639  0.6390 -0.2237
   40MOL0     C 5416   2.471   5.716   3.756  0.5243  0.0950 -0.0089
   40MOL0     C 5417   2.512   5.585   3.781 -0.6798 -0.6701  0.2951
   40MOL0     O 5418   2.615   5.545   3.708 -0.3658  0.2341 -0.0451
   40MOL0     C 5419   2.582   5.432   3.620 -0.0550 -0.1515  0.0358
   40MOL0     C 5420   2.677   5.432   3.501 -0.3694  0.4978  0.3176
   40MOL0     C 5421   2.670   5.305   3.414 -1.2013  0.2139 -0.4409
   40MOL0     C 5422   2.782   5.206   3.465 -0.0894 -0.0526 -0.6276
   40MOL0     C 5423   2.773   5.073   3.388  0.5922 -0.6522  0.3644
   40MOL0     C 5424   2.811   5.086   3.241  0.4784 -0.4846  0.9657
   40MOL0     C 5425   2.833   4.945   3.191 -0.5700  0.4390 -0.3273
   40MOL0     C 5426   2.854   4.949   3.045  0.4003  1.0779  0.0416
   40MOL0    Cl 5427   3.040   4.961   3.034 -0.6459 -0.4030  0.1003
   40MOL0     C 5428   2.462   5.521   3.903 -0.1905  0.4148  0.4437
   40MOL0     C 5429   2.372   5.587   3.980  0.5441 -0.1005 -0.0953
   40MOL0     O 5430   2.093   5.862   3.886 -0.7294  0.3817  1.0177
   40MOL0     C 5431   1.930   5.984   4.065 -0.1141  0.2982  0.3690
   40MOL0     C 5432   1.835   6.036   4.150  1.0060  1.3388 -0.0245
   40MOL0     N 5433   2.145   6.383   4.540 -0.1344 -0.0492 -0.5122
   40MOL0     N 5434   2.181   6.504   4.506  0.4122  0.4109  0.4056
   40MOL0     C 5435   2.707   6.930   5.151  0.2171 -0.2502  0.3185
   40MOL0     C 5436   2.772   7.024   5.241 -0.1327 -0.0435  0.5003
   40MOL0     C 5437   3.056   7.373   5.361  1.0483 -1.0032  0.2963
   40MOL0     C 5438   3.127   7.303   5.456 -0.5599  0.1027  0.2128
   40MOL0     C 5439   3.215   7.365   5.545  0.3648 -0.6768  0.9759
   40MOL0     C 5440   3.230   7.505   5.540  0.2369 -0.1974 -0.5615
   40MOL0     O 5441   3.307   7.581   5.623 -0.3029  0.6809  0.0359
   40MOL0     C 5442   3.392   7.514   5.718 -0.1899 -0.6515  0.3854
   40MOL0     C 5443   3.442   7.620   5.817 -1.1653 -0.4861 -0.1130
   40MOL0     C 5444   3.554   7.704   5.761  0.1951  0.4417  0.4458
   40MOL0     C 5445   3.681   7.634   5.702 -0.3836  0.4601  0.3711
   40MOL0     C 5446   3.733   7.534   5.792  0.5234 -0.5159 -0.0440
   40MOL0     C 5447   3.758   7.444   5.869 -0.1861 -0.1394  0.8265
   40MOL0     C 5448   3.147   7.584   5.454 -0.5705  0.1131 -0.1704
   40MOL0     C 5449   3.068   7.520   5.353 -0.1156 -0.6097 -0.2750
   40MOL0     C 5450   3.010   7.613   5.250  0.2686 -0.0303 -0.7886
   40MOL0     H 5451   3.049   7.090   5.051  0.5308 -0.4940  1.9709
   40MOL0     H 5452   2.934   6.957   4.894  0.3217  1.2304 -0.0042
   40MOL0     H 5453   2.779   6.801   4.740  2.3464  0.7821  3.5456
   40MOL0     H 5454   2.717   6.965   4.780 -2.8841  0.4633  2.8798
   40MOL0     H 5455   2.564   6.841   4.614 -0.0270 -0.5771 -0.0430
   40MOL0     H 5456   2.521   6.729   4.737  0.3889 -0.3865 -1.0152
   40MOL0     H 5457   2.441   6.908   4.893  0.0302  1.2477  0.3482
   40MOL0     H 5458   2.497   7.024   4.771  0.8696 -1.2707 -4.1943
   40MOL0     H 5459   2.268   7.016   4.781 -0.0520 -1.2986  1.3337
   40MOL0     H 5460   2.320   6.937   4.621 -0.0055 -2.5692 -0.6067
   40MOL0     H 5461   2.221   6.800   4.868 -0.4132  0.9211  0.1860
   40MOL0     H 5462   2.275   6.723   4.714 -1.6816 -0.4792 -1.9941
   40MOL0     H 5463   2.034   6.716   4.743  0.2337 -2.0412 -3.2721
   40MOL0     H 5464   2.023   6.896   4.763  1.0569  0.3384  0.0316
   40MOL0     H 5465   2.085   6.931   4.536  2.0016 -0.4873 -0.8333
   40MOL0     H 5466   1.928   6.836   4.555  0.0590 -2.3780 -0.7648
   40MOL0     H 5467   2.025   6.729   4.380  0.5243  1.0781 -0.2085
   40MOL0     H 5468   2.195   6.749   4.429  0.3881  1.0703  0.7791
   40MOL0     H 5469   1.879   6.565   4.584 -0.3024 -0.6241  1.8786
   40MOL0     H 5470   1.916   6.294   4.723  1.2883 -0.2211  0.5076
   40MOL0     H 5471   1.967   6.190   4.608  0.1157 -0.5031  2.0569
   40MOL0     H 5472   1.718   6.382   4.583 -0.6979 -0.8679  1.4416
   40MOL0     H 5473   1.777   6.296   4.440 -0.4674 -1.0119  0.1005
   40MOL0     H 5474   1.675   6.134   4.681 -0.5431  0.3210 -0.5876
   40MOL0     H 5475   1.582   6.162   4.545 -0.9633  0.0469  2.6808
   40MOL0     H 5476   1.850   6.030   4.564 -1.8116 -1.9710  4.2237
   40MOL0     H 5477   1.707   5.939   4.536 -2.3868  0.5385 -1.2114
   40MOL0     H 5478   1.978   5.920   4.439  0.4603  0.2366  0.1856
   40MOL0     H 5479   2.164   5.823   4.406  1.1541 -1.0416 -0.1636
   40MOL0     H 5480   2.259   5.811   4.263  2.2145 -2.1837  2.0654
   40MOL0     H 5481   2.143   5.689   4.280  0.4314  0.4859 -1.0601
   40MOL0     H 5482   2.341   5.874   3.801  2.5110  1.5854  0.4943
   40MOL0     H 5483   2.521   5.774   3.679 -1.6186  2.3519  0.1730
   40MOL0     H 5484   2.603   5.343   3.680 -0.7376  0.2739  0.9364
   40MOL0     H 5485   2.484   5.441   3.574  1.2854  2.0917 -2.6495
   40MOL0     H 5486   2.660   5.518   3.435  2.5536 -0.0240 -1.2890
   40MOL0     H 5487   2.776   5.441   3.547 -0.6611  0.4700  0.9586
   40MOL0     H 5488   2.684   5.335   3.310 -0.3618 -0.3130 -0.4886
   40MOL0     H 5489   2.573   5.255   3.425 -1.8765  1.8422  1.8472
   40MOL0     H 5490   2.765   5.186   3.571 -1.1915  0.7391 -0.6323
   40MOL0     H 5491   2.878   5.251   3.438 -0.5676 -0.3047 -2.9272
   40MOL0     H 5492   2.856   5.022   3.439  1.0328  0.9969  1.3720
   40MOL0     H 5493   2.684   5.013   3.404  0.5598 -0.8098 -0.3958
   40MOL0     H 5494   2.901   5.140   3.213  0.7217 -0.8144  1.1125
   40MOL0     H 5495   2.724   5.132   3.193  1.3178  0.4275  0.2763
   40MOL0     H 5496   2.752   4.879   3.224  3.0906 -2.9588  2.8348
   40MOL0     H 5497   2.924   4.907   3.237 -0.7646  1.2358  0.7622
   40MOL0     H 5498   2.796   5.030   2.999 -4.0481 -1.4503  0.6064
   40MOL0     H 5499   2.813   4.858   2.999 -1.1357  2.1140 -0.7433
   40MOL0     H 5500   2.506   5.427   3.934  1.2284  0.5904 -0.9124
   40MOL0     H 5501   2.345   5.532   4.070  2.0377 -1.1793 -0.2663
   40MOL0     H 5502   1.908   5.996   3.960 -3.8870  1.1540  1.1162
   40MOL0     H 5503   1.747   6.081   4.103  0.1594 -0.9981 -0.8335
   40MOL0     H 5504   2.616   6.879   5.179 -1.7489  0.8336 -3.3792
   40MOL0     H 5505   2.729   7.057   5.334 -1.1332  0.0279  0.0252
   40MOL0     H 5506   3.112   7.196   5.457  0.1919 -0.1454 -3.1668
   40MOL0     H 5507   3.266   7.296   5.610  1.6115 -1.4189 -0.7028
   40MOL0     H 5508   3.324   7.445   5.769 -2.8173  1.9332  0.6352
   40MOL0     H 5509   3.474   7.464   5.667 -1.0928 -1.3038 -0.4803
   40MOL0     H 5510   3.489   7.572   5.903  0.5663  1.2542 -0.0179
   40MOL0     H 5511   3.368   7.694   5.850 -0.9003 -0.6656  0.9221
   40MOL0     H 5512   3.508   7.768   5.686 -0.3871 -0.1414  0.2907
   40MOL0     H 5513   3.591   7.770   5.840 -1.6216  1.9770  0.0635
   40MOL0     H 5514   3.754   7.713   5.683  0.4596 -0.0772  1.3514
   40MOL0     H 5515   3.649   7.592   5.606  2.8632 -0.1387 -0.5566
   40MOL0     H 5516   3.802   7.378   5.942 -1.1286  1.4396  2.9365
   40MOL0     H 5517   3.159   7.691   5.461  2.1151 -0.0802 -0.7771
   40MOL0     H 5518   3.067   7.611   5.157  5.4277  0.5922  1.9496
   40MOL0     H 5519   2.902   7.598   5.248 -0.0543  2.0216 -0.7494
   40MOL0     H 5520   3.019   7.715   5.288 -2.9305  0.7179 -1.7212
   41MOL0     O 5521   7.717   3.744  11.235 -0.4801 -0.1038 -0.1432
   41MOL0     C 5522   7.745   3.630  11.284 -0.2232 -0.4075  0.2208
   41MOL0     O 5523   7.864   3.596  11.340  0.5048 -0.1843 -0.0578
   41MOL0     C 5524   7.971   3.680  11.328  0.2537 -0.8543 -0.2131
   41MOL0     C 5525   8.010   3.787  11.420  0.7121  0.3723  0.7560
   41MOL0     C 5526   8.142   3.845  11.403 -0.0660  0.2860 -0.0904
   41MOL0     C 5527   8.233   3.787  11.307 -0.0100  0.1494 -0.1281
   41MOL0     O 5528   8.365   3.838  11.284  1.0717  0.0877  0.0702
   41MOL0     C 5529   8.453   3.834  11.402  0.9120 -0.0176  1.1248
   41MOL0     C 5530   8.574   3.745  11.373  0.4327  0.7259  0.0079
   41MOL0     C 5531   8.679   3.739  11.486  0.0880 -0.9765  0.3073
   41MOL0     C 5532   8.800   3.650  11.455 -0.5273  0.0124 -1.1163
   41MOL0     C 5533   8.903   3.635  11.578  0.5474 -0.8357  0.8087
   41MOL0     C 5534   8.929   3.773  11.643 -0.5249  0.6391  0.0041
   41MOL0     C 5535   9.028   3.769  11.763 -0.0119  0.6218  1.0053
   41MOL0     C 5536   9.181   3.787  11.740 -0.2395 -0.0705  0.9229
   41MOL0     N 5537   9.262   3.774  11.862  0.2686 -0.9285 -0.5670
   41MOL0     C 5538   9.345   3.667  11.897  0.0807 -0.3225 -0.0962
   41MOL0     C 5539   9.386   3.702  12.016  0.8410  0.3013  0.3345
   41MOL0     C 5540   9.470   3.628  12.121 -0.0106  0.5223  0.9302
   41MOL0     C 5541   9.591   3.698  12.181 -0.3552  1.7420  0.5213
   41MOL0     C 5542   9.683   3.743  12.059 -0.2288  0.3947 -0.0703
   41MOL0     C 5543   9.825   3.783  12.099  0.4111 -0.4841 -0.5660
   41MOL0     O 5544   9.917   3.670  12.107  0.2355  0.0076  0.0619
   41MOL0     C 5545   9.948   3.631  12.234 -1.1577 -0.1161  0.1579
   41MOL0     C 5546  10.043   3.686  12.322 -0.9140  0.4392  0.4481
   41MOL0     C 5547  10.077   3.642  12.447 -1.1272  1.1489 -0.1558
   41MOL0     C 5548  10.169   3.731  12.543  0.2740 -0.0157  0.8231
   41MOL0     C 5549  10.022   3.517  12.487  0.2422 -0.1081 -0.0077
   41MOL0     C 5550  10.048   3.454  12.623  1.2267 -0.7524 -0.1217
   41MOL0     O 5551  10.020   3.318  12.629  0.4652 -0.3257 -0.1193
   41MOL0     C 5552  10.069   3.249  12.742 -0.5781  0.3971 -0.1238
   41MOL0     C 5553  10.208   3.225  12.754  0.1255  0.6744  0.1754
   41MOL0     C 5554  10.256   3.141  12.856  0.5406  0.2273 -0.6379
   41MOL0     C 5555  10.175   3.085  12.956 -0.2611 -0.5698 -0.4909
   41MOL0     O 5556  10.229   3.000  13.046  0.2819  0.0049 -0.2171
   41MOL0     C 5557  10.147   2.891  13.093 -0.0225  0.3733  0.9556
   41MOL0     C 5558  10.239   2.777  13.141  0.5118 -0.3449 -0.3379
   41MOL0     C 5559  10.339   2.725  13.037  0.8504 -0.2092 -0.5184
   41MOL0     C 5560  10.424   2.610  13.093 -0.8940  0.2560 -0.8458
   41MOL0     C 5561  10.494   2.528  12.973 -0.2664  0.2799  0.7495
   41MOL0     C 5562  10.607   2.450  13.050  0.4643  0.0264 -0.3258
   41MOL0     C 5563  10.677   2.355  12.953 -0.8130 -0.1520  0.0235
   41MOL0     C 5564  10.716   2.223  13.020  0.7857 -0.2887  0.3690
   41MOL0    Cl 5565  10.576   2.140  13.082 -0.0350  0.2396 -0.3458
   41MOL0     C 5566  10.042   3.127  12.959  0.1357  0.7279  0.3801
   41MOL0     C 5567   9.993   3.208  12.857 -1.0213  0.0390 -0.4257
   41MOL0     O 5568  10.086   3.521  12.716 -0.3026 -0.6546 -0.6223
   41MOL0     C 5569   9.946   3.444  12.390  0.0352  0.3496  0.1405
   41MOL0     C 5570   9.895   3.505  12.274  0.2514 -1.1522 -0.1004
   41MOL0     N 5571   9.351   3.823  12.056  0.0266  0.1821  0.1080
   41MOL0     N 5572   9.268   3.866  11.966  0.7132  0.4583  0.0366
   41MOL0     C 5573   8.189   3.685  11.230  1.1392  0.9931  0.5241
   41MOL0     C 5574   8.057   3.638  11.233  0.5819  1.0621 -0.4212
   41MOL0     C 5575   7.640   3.531  11.270 -0.8628 -0.7223 -0.0055
   41MOL0     C 5576   7.674   3.398  11.298  0.3744  0.3203 -0.0749
   41MOL0     C 5577   7.581   3.295  11.288 -0.6746  0.3896 -0.7291
   41MOL0     C 5578   7.446   3.320  11.257  0.0755  0.4221 -0.1006
   41MOL0     O 5579   7.368   3.207  11.256  0.0556  0.6011 -0.0380
   41MOL0     C 5580   7.233   3.205  11.216  0.5513 -0.8211 -0.1809
   41MOL0     C 5581   7.166   3.069  11.245  0.1898 -0.3540 -0.1311
   41MOL0     C 5582   7.042   3.036  11.160  0.1888  0.8315  0.7735
   41MOL0     C 5583   6.983   2.913  11.222 -0.9576  0.4035 -0.5438
   41MOL0     C 5584   6.861   2.864  11.161 -0.2885 -0.1003 -0.3769
   41MOL0     C 5585   6.753   2.820  11.107  0.5034  0.5647 -0.5332
   41MOL0     C 5586   7.408   3.450  11.242  0.1933 -0.5985 -0.7139
   41MOL0     C 5587   7.501   3.557  11.246 -0.3115  0.4163  1.1115
   41MOL0     C 5588   7.438   3.688  11.206 -0.7517  0.7586 -0.6275
   41MOL0     H 5589   7.943   3.818  11.499  2.0452  3.2098  0.9193
   41MOL0     H 5590   8.185   3.921  11.468  0.8434  1.0652 -1.5522
   41MOL0     H 5591   8.380   3.798  11.475 -0.9190 -2.8514 -1.7914
   41MOL0     H 5592   8.493   3.929  11.438  0.3578  1.5417 -2.0219
   41MOL0     H 5593   8.534   3.645  11.356 -2.6871  1.6856  1.0974
   41MOL0     H 5594   8.619   3.776  11.278 -1.4983  1.5748 -0.6747
   41MOL0     H 5595   8.707   3.839  11.519 -0.5679 -1.0627  1.1702
   41MOL0     H 5596   8.631   3.696  11.574 -4.1609  1.4384 -0.5455
   41MOL0     H 5597   8.768   3.547  11.439 -0.7602 -0.1021  0.0173
   41MOL0     H 5598   8.856   3.687  11.368  1.5470  2.3683  1.0755
   41MOL0     H 5599   8.998   3.594  11.541  0.8825 -1.6027  2.4200
   41MOL0     H 5600   8.863   3.561  11.648  2.0332 -0.6018  1.9547
   41MOL0     H 5601   8.967   3.834  11.560  2.3070 -1.5342 -0.4736
   41MOL0     H 5602   8.839   3.813  11.690 -0.9593 -0.4153  0.0806
   41MOL0     H 5603   9.009   3.670  11.805  0.8838  0.9135  2.1548
   41MOL0     H 5604   8.999   3.851  11.830 -2.3476  1.3339 -0.6965
   41MOL0     H 5605   9.214   3.716  11.664 -1.7058  0.3056 -0.1195
   41MOL0     H 5606   9.195   3.893  11.716  4.1108 -0.9381 -1.2521
   41MOL0     H 5607   9.356   3.574  11.842 -2.7198 -3.4676  4.0372
   41MOL0     H 5608   9.504   3.533  12.077 -0.3060  1.3611 -1.2056
   41MOL0     H 5609   9.397   3.602  12.198 -0.2688 -2.1413 -0.0790
   41MOL0     H 5610   9.553   3.784  12.237 -3.2695 -0.4875  2.2692
   41MOL0     H 5611   9.650   3.623  12.235  1.5060  1.1071 -2.2348
   41MOL0     H 5612   9.695   3.666  11.982  1.0002 -0.0463  0.5520
   41MOL0     H 5613   9.638   3.831  12.011  1.1007  2.4583  2.2703
   41MOL0     H 5614   9.858   3.860  12.028 -0.0728  1.1100  0.8800
   41MOL0     H 5615   9.825   3.851  12.185  1.1844 -1.4955  0.2711
   41MOL0     H 5616  10.093   3.778  12.294 -1.9873  0.5526 -1.2157
   41MOL0     H 5617  10.114   3.767  12.631  0.9320 -1.5463  1.9046
   41MOL0     H 5618  10.214   3.817  12.492 -0.1004  0.0372  0.5778
   41MOL0     H 5619  10.257   3.678  12.579  1.1387  1.2429  0.6465
   41MOL0     H 5620  10.272   3.274  12.681  1.9423 -1.5302  0.1984
   41MOL0     H 5621  10.363   3.122  12.869  0.5506  2.1273  3.4227
   41MOL0     H 5622  10.087   2.917  13.181 -0.6641  2.3256 -0.0008
   41MOL0     H 5623  10.084   2.854  13.011  0.7661  5.1134 -2.1741
   41MOL0     H 5624  10.300   2.830  13.214  1.1552  0.4747 -1.4479
   41MOL0     H 5625  10.184   2.694  13.187 -2.1285 -0.1999 -2.9523
   41MOL0     H 5626  10.405   2.805  13.002  2.4969 -0.0277  2.6572
   41MOL0     H 5627  10.282   2.687  12.952  0.5264  2.5603 -1.6590
   41MOL0     H 5628  10.368   2.534  13.149 -0.6477 -2.7282 -4.2675
   41MOL0     H 5629  10.495   2.661  13.158 -2.4116  1.6801 -0.2283
   41MOL0     H 5630  10.422   2.463  12.922  0.0726  0.5739 -0.1190
   41MOL0     H 5631  10.539   2.592  12.897  0.5041 -2.0935 -0.9226
   41MOL0     H 5632  10.563   2.377  13.119 -0.6018 -0.2218 -1.2446
   41MOL0     H 5633  10.673   2.515  13.108 -0.9065  0.6539  0.5676
   41MOL0     H 5634  10.770   2.403  12.921 -0.7771 -0.5441 -0.4756
   41MOL0     H 5635  10.618   2.332  12.864 -2.7506  0.4323  1.0964
   41MOL0     H 5636  10.782   2.245  13.104 -1.1896  4.3168  1.0263
   41MOL0     H 5637  10.761   2.156  12.946  1.4578  1.0875 -0.5215
   41MOL0     H 5638   9.965   3.104  13.033 -1.0439  2.4923 -0.2549
   41MOL0     H 5639   9.890   3.239  12.867 -0.6690  0.2818  5.3018
   41MOL0     H 5640   9.908   3.344  12.409 -0.3741 -0.3492 -3.5953
   41MOL0     H 5641   9.836   3.454  12.198 -1.8643  0.1112  0.6132
   41MOL0     H 5642   8.260   3.640  11.161 -1.7821  0.7152 -2.5859
   41MOL0     H 5643   8.039   3.550  11.172  2.1236 -0.7140  1.5416
   41MOL0     H 5644   7.775   3.375  11.331 -0.3510 -2.0844  0.6972
   41MOL0     H 5645   7.622   3.196  11.306  4.8476  2.0645 -2.2010
   41MOL0     H 5646   7.186   3.284  11.275  1.6504 -1.8484  2.1617
   41MOL0     H 5647   7.218   3.217  11.108  0.0606 -2.3466 -0.3030
   41MOL0     H 5648   7.132   3.093  11.346 -1.2763  2.0853 -1.1090
   41MOL0     H 5649   7.245   2.995  11.228 -0.3986 -1.2791  1.0304
   41MOL0     H 5650   6.972   3.120  11.157 -2.3947 -1.2065  0.1917
   41MOL0     H 5651   7.082   3.015  11.061  1.1663 -0.0235  1.3289
   41MOL0     H 5652   6.972   2.944  11.326  2.5776 -1.5019  0.5517
   41MOL0     H 5653   7.052   2.829  11.228 -2.2903 -0.6693  0.5874
   41MOL0     H 5654   6.664   2.779  11.064  1.9441  0.4471 -3.7724
   41MOL0     H 5655   7.304   3.474  11.219 -0.0144 -1.1236 -0.3298
   41MOL0     H 5656   7.470   3.766  11.275 -1.4303 -0.6914  1.4344
   41MOL0     H 5657   7.454   3.709  11.100 -1.0336 -0.8308 -1.0195
   41MOL0     H 5658   7.334   3.676  11.236  0.9402 -0.5962  6.6591
   42MOL0     O 5659   5.697   7.654   4.500 -0.3463 -0.7592  0.8515
   42MOL0     C 5660   5.768   7.634   4.405  0.5970  0.0877 -1.2459
   42MOL0     O 5661   5.743   7.536   4.308 -0.7684 -0.3124  0.4200
   42MOL0     C 5662   5.641   7.447   4.327 -1.1877  0.4997 -0.4092
   42MOL0     C 5663   5.652   7.344   4.422 -0.1355 -0.7757  0.6568
   42MOL0     C 5664   5.555   7.251   4.441  0.0733  0.2139 -0.3274
   42MOL0     C 5665   5.447   7.243   4.358  1.2051 -0.1515 -1.0929
   42MOL0     O 5666   5.365   7.136   4.389  0.4396  0.5634  0.5867
   42MOL0     C 5667   5.245   7.121   4.307  0.2118  0.4798  0.2922
   42MOL0     C 5668   5.143   7.230   4.337  0.2605 -0.1016  0.2238
   42MOL0     C 5669   5.001   7.183   4.374  1.0213  0.1556 -1.2119
   42MOL0     C 5670   4.894   7.291   4.377  0.5172  0.3276  0.7683
   42MOL0     C 5671   4.757   7.226   4.412 -0.2603  0.9281 -0.6809
   42MOL0     C 5672   4.707   7.105   4.331  0.8870 -0.1254 -0.3017
   42MOL0     C 5673   4.581   7.044   4.399 -0.5094  0.5290 -1.0458
   42MOL0     C 5674   4.563   6.897   4.382  0.3441 -0.0092 -0.0321
   42MOL0     N 5675   4.437   6.853   4.443  0.0876 -0.0729  0.0581
   42MOL0     C 5676   4.407   6.840   4.575 -0.4046  0.6078 -1.0638
   42MOL0     C 5677   4.289   6.775   4.592  0.1112 -0.8752 -0.6515
   42MOL0     C 5678   4.220   6.771   4.722 -0.8755  0.5429  0.3898
   42MOL0     C 5679   4.144   6.643   4.750 -0.1578 -0.0354  0.1553
   42MOL0     C 5680   4.042   6.663   4.856 -0.4752  0.1841 -0.4840
   42MOL0     C 5681   4.100   6.731   4.983 -0.6686 -0.8525 -0.1399
   42MOL0     O 5682   4.085   6.876   4.972  0.9148 -0.4872  0.3492
   42MOL0     C 5683   4.171   6.966   5.036  0.8039  0.9124  1.2370
   42MOL0     C 5684   4.132   7.101   5.026  0.7648  0.3259 -0.4807
   42MOL0     C 5685   4.205   7.205   5.081 -0.9657  0.2368  1.3349
   42MOL0     C 5686   4.146   7.345   5.050 -0.6079  0.9720 -0.1868
   42MOL0     C 5687   4.334   7.178   5.138 -0.3427 -1.0581  0.7189
   42MOL0     C 5688   4.424   7.284   5.197  0.1002 -0.0187  0.0169
   42MOL0     O 5689   4.553   7.253   5.212 -0.1692  0.2278 -0.7175
   42MOL0     C 5690   4.641   7.321   5.292 -0.5098 -0.3558 -0.3547
   42MOL0     C 5691   4.777   7.324   5.258 -0.0743  0.0943  1.0377
   42MOL0     C 5692   4.871   7.391   5.333  0.6163 -1.1494 -1.0953
   42MOL0     C 5693   4.822   7.455   5.445 -0.5794  0.3619 -0.1856
   42MOL0     O 5694   4.893   7.549   5.511  0.1739 -0.2691 -0.8979
   42MOL0     C 5695   4.939   7.655   5.423 -0.3173 -0.0991  0.2437
   42MOL0     C 5696   4.962   7.777   5.511  0.4116  0.7198  0.0036
   42MOL0     C 5697   5.088   7.755   5.597  0.3085 -0.4394  0.1373
   42MOL0     C 5698   5.098   7.866   5.691 -0.0500  0.7197 -0.5734
   42MOL0     C 5699   5.128   8.003   5.653  0.5557 -0.2741  0.4239
   42MOL0     C 5700   5.117   8.110   5.761 -0.7038  0.2515  0.7700
   42MOL0     C 5701   5.168   8.244   5.716  0.0561 -0.0136  0.4095
   42MOL0     C 5702   5.087   8.308   5.605  0.0150 -0.3780 -0.7660
   42MOL0    Cl 5703   5.155   8.267   5.425 -0.4138  0.0691 -0.0537
   42MOL0     C 5704   4.695   7.442   5.487 -0.4025 -0.2573 -0.0864
   42MOL0     C 5705   4.598   7.377   5.409 -0.6311 -0.2594  0.0078
   42MOL0     O 5706   4.376   7.394   5.225 -0.5348 -0.4041  0.0757
   42MOL0     C 5707   4.368   7.047   5.160 -0.1103 -0.2160  0.7176
   42MOL0     C 5708   4.290   6.935   5.104 -0.8735 -0.6533 -0.6065
   42MOL0     N 5709   4.244   6.754   4.462  0.2633 -0.5592  0.0544
   42MOL0     N 5710   4.340   6.784   4.377  0.7295  0.1548 -0.1180
   42MOL0     C 5711   5.429   7.345   4.260  0.8349  0.2264  0.2123
   42MOL0     C 5712   5.523   7.445   4.248  0.9234 -0.3863 -0.2585
   42MOL0     C 5713   5.892   7.703   4.390 -0.8210 -0.2503 -0.7546
   42MOL0     C 5714   6.007   7.634   4.368  0.6088  0.3802  0.1190
   42MOL0     C 5715   6.131   7.694   4.362 -0.0849 -0.4076 -0.2532
   42MOL0     C 5716   6.142   7.838   4.362 -0.3603  0.1173  0.5083
   42MOL0     O 5717   6.260   7.912   4.345  0.2318  0.2498 -0.4046
   42MOL0     C 5718   6.366   7.854   4.272  0.6722  0.1934  0.2354
   42MOL0     C 5719   6.475   7.955   4.234 -0.2393  0.4660  0.4873
   42MOL0     C 5720   6.562   7.906   4.116  0.4147 -0.2848 -0.6862
   42MOL0     C 5721   6.649   8.027   4.063 -0.2075  0.5944  1.0416
   42MOL0     C 5722   6.747   7.995   3.953 -0.4802  0.1446 -0.1671
   42MOL0     C 5723   6.831   7.975   3.867 -0.0844  0.3661 -0.0217
   42MOL0     C 5724   6.027   7.907   4.389  0.4959 -0.0167  0.5465
   42MOL0     C 5725   5.906   7.845   4.409  0.0086 -0.7365  0.3954
   42MOL0     C 5726   5.795   7.939   4.451  0.1705 -0.1049 -0.2743
   42MOL0     H 5727   5.750   7.351   4.469  0.5688  0.3511 -0.8938
   42MOL0     H 5728   5.558   7.189   4.531  2.3633  1.3163  0.4480
   42MOL0     H 5729   5.210   7.019   4.323  1.4315  0.2283  1.5441
   42MOL0     H 5730   5.258   7.139   4.200 -0.9380 -1.7061 -0.2624
   42MOL0     H 5731   5.173   7.272   4.434 -0.7467 -0.9742  0.9389
   42MOL0     H 5732   5.145   7.304   4.257  2.7821  0.7758  1.0023
   42MOL0     H 5733   4.973   7.112   4.296 -0.7442  0.6425 -1.0564
   42MOL0     H 5734   5.009   7.132   4.471  3.8014 -2.6290 -2.7134
   42MOL0     H 5735   4.919   7.362   4.457 -0.3410  0.4399  0.9510
   42MOL0     H 5736   4.900   7.351   4.285  3.6100 -2.7088 -1.2122
   42MOL0     H 5737   4.676   7.299   4.403  1.2282  3.1433  2.2458
   42MOL0     H 5738   4.764   7.201   4.518 -0.4138  0.0878 -0.8540
   42MOL0     H 5739   4.671   7.146   4.236 -1.0871  2.2625  1.3497
   42MOL0     H 5740   4.784   7.029   4.317  1.3678  0.3490 -0.2455
   42MOL0     H 5741   4.490   7.093   4.364 -2.4351 -1.6511  0.5935
   42MOL0     H 5742   4.593   7.062   4.506 -1.2169 -3.6457 -0.0813
   42MOL0     H 5743   4.571   6.858   4.280  3.3825 -2.8546  1.1148
   42MOL0     H 5744   4.646   6.837   4.421  0.2239 -0.3830 -0.3430
   42MOL0     H 5745   4.473   6.867   4.657 -2.0339 -1.7548  1.2088
   42MOL0     H 5746   4.150   6.854   4.736 -1.1608  0.4572 -0.4796
   42MOL0     H 5747   4.299   6.784   4.796  0.8196  2.0565 -1.5635
   42MOL0     H 5748   4.097   6.610   4.657  0.3844 -1.5477  0.3824
   42MOL0     H 5749   4.214   6.565   4.782 -1.9016 -0.8360  2.2191
   42MOL0     H 5750   3.962   6.730   4.822 -0.4385  1.3447  1.5342
   42MOL0     H 5751   3.995   6.569   4.885  0.6196 -0.0782  0.5039
   42MOL0     H 5752   4.053   6.703   5.078 -1.8776 -0.0668 -0.4764
   42MOL0     H 5753   4.206   6.706   4.993 -0.3792  0.0077 -0.9435
   42MOL0     H 5754   4.038   7.121   4.974  0.6714 -0.4368 -0.6194
   42MOL0     H 5755   4.059   7.343   4.985 -0.1718  1.9748 -0.8323
   42MOL0     H 5756   4.222   7.407   5.001  0.4994  0.0273  0.2632
   42MOL0     H 5757   4.112   7.393   5.142  3.5688  3.4027  0.3545
   42MOL0     H 5758   4.803   7.262   5.173  0.9465  0.0085  1.4018
   42MOL0     H 5759   4.973   7.419   5.308  1.1363 -2.2583 -0.3059
   42MOL0     H 5760   5.033   7.630   5.372  2.0165  0.9852  3.6356
   42MOL0     H 5761   4.866   7.685   5.348  0.6331  1.9246  0.0522
   42MOL0     H 5762   4.985   7.862   5.446 -0.2772  0.6599 -0.3298
   42MOL0     H 5763   4.875   7.815   5.567  1.6476  1.7010  1.3410
   42MOL0     H 5764   5.170   7.760   5.525 -0.7541 -2.5837 -1.2953
   42MOL0     H 5765   5.085   7.659   5.650  0.2724  0.1342  1.2155
   42MOL0     H 5766   5.183   7.845   5.756 -0.7435  0.2520  0.2023
   42MOL0     H 5767   5.002   7.866   5.744 -0.9915 -2.4101 -2.0042
   42MOL0     H 5768   5.226   8.009   5.606 -0.4555  2.6970 -1.6208
   42MOL0     H 5769   5.057   8.031   5.575 -1.9155 -4.1283  0.9765
   42MOL0     H 5770   5.185   8.074   5.839  3.0875  0.4279 -2.1721
   42MOL0     H 5771   5.014   8.126   5.794 -1.0719  1.8453 -0.9672
   42MOL0     H 5772   5.268   8.248   5.672 -0.4279  0.2580 -0.6758
   42MOL0     H 5773   5.167   8.312   5.802  1.3363  0.5453  0.0082
   42MOL0     H 5774   5.092   8.417   5.615 -3.0740 -0.2228  0.1210
   42MOL0     H 5775   4.981   8.282   5.609 -1.1028  3.6828  1.3670
   42MOL0     H 5776   4.671   7.510   5.568  1.3120  2.2940 -1.5908
   42MOL0     H 5777   4.495   7.383   5.443 -0.4195 -3.9854  1.7372
   42MOL0     H 5778   4.468   7.033   5.200  0.0637  2.2934  1.3520
   42MOL0     H 5779   4.322   6.833   5.119 -0.4579 -0.3287  0.9245
   42MOL0     H 5780   5.340   7.338   4.198  0.0151 -3.3391  1.5387
   42MOL0     H 5781   5.503   7.513   4.165 -1.0110 -1.1624 -0.4802
   42MOL0     H 5782   6.003   7.526   4.378 -0.3023  0.4977  1.2158
   42MOL0     H 5783   6.221   7.635   4.345 -1.1032 -1.6391 -1.5368
   42MOL0     H 5784   6.410   7.776   4.335  2.5104  3.0972  2.8480
   42MOL0     H 5785   6.328   7.812   4.178 -2.9391  1.4016  0.9957
   42MOL0     H 5786   6.530   7.983   4.324 -0.2006 -0.3198  0.7196
   42MOL0     H 5787   6.414   8.039   4.201 -1.7681 -0.7990 -0.0366
   42MOL0     H 5788   6.625   7.820   4.144  0.9968  0.1298 -0.6978
   42MOL0     H 5789   6.501   7.865   4.035 -1.9593  0.7998  0.4661
   42MOL0     H 5790   6.698   8.076   4.148 -3.6323  1.4459  2.7237
   42MOL0     H 5791   6.578   8.098   4.020 -0.7119 -1.2830 -1.4793
   42MOL0     H 5792   6.909   7.960   3.794 -1.2764 -1.1864 -1.0500
   42MOL0     H 5793   6.042   8.013   4.409 -0.7406 -0.2853  3.3628
   42MOL0     H 5794   5.802   8.042   4.413  0.4383 -1.1450 -3.3857
   42MOL0     H 5795   5.697   7.913   4.410 -0.3009  1.0288  0.0834
   42MOL0     H 5796   5.781   7.932   4.559 -0.2746  1.1491 -0.2397
   43MOL0     O 5797   2.528   3.830   0.254 -0.0084  0.4712  0.6479
   43MOL0     C 5798   2.572   3.716   0.286  0.4285 -0.0425  0.6927
   43MOL0     O 5799   2.661   3.692   0.389 -0.4137  0.1342  0.1900
   43MOL0     C 5800   2.710   3.805   0.455  1.1256 -0.2154  0.1596
   43MOL0     C 5801   2.688   3.828   0.588  0.7799  0.0692 -0.6028
   43MOL0     C 5802   2.746   3.937   0.658 -0.3936  0.1519 -0.2059
   43MOL0     C 5803   2.809   4.041   0.593  0.0619  0.6603  1.3248
   43MOL0     O 5804   2.854   4.148   0.663  0.2681 -0.6157 -0.2912
   43MOL0     C 5805   2.775   4.236   0.742 -0.1134 -0.3682 -0.2966
   43MOL0     C 5806   2.818   4.382   0.718  0.0992 -0.6409  0.3853
   43MOL0     C 5807   2.781   4.459   0.850 -0.0163  0.3103 -0.8749
   43MOL0     C 5808   2.638   4.472   0.892 -1.0645 -0.0215 -0.3161
   43MOL0     C 5809   2.620   4.607   0.953 -0.0141 -1.0859  0.1624
   43MOL0     C 5810   2.481   4.606   1.030 -0.2160  0.1259 -0.2723
   43MOL0     C 5811   2.509   4.542   1.172  0.7779 -1.1919 -0.0637
   43MOL0     C 5812   2.377   4.518   1.254  0.0878  0.4398 -0.0315
   43MOL0     N 5813   2.383   4.450   1.385  0.3609 -1.4144 -0.2112
   43MOL0     C 5814   2.442   4.492   1.504  0.0384  0.3305  0.0597
   43MOL0     C 5815   2.393   4.418   1.606  0.6679  0.8756  0.6062
   43MOL0     C 5816   2.432   4.417   1.745 -0.3226  0.5081 -0.2303
   43MOL0     C 5817   2.309   4.424   1.843 -0.3412 -0.4921  0.3784
   43MOL0     C 5818   2.240   4.567   1.821 -1.1590  0.1252  0.4237
   43MOL0     C 5819   2.145   4.589   1.933 -0.0891  0.3308  0.3456
   43MOL0     O 5820   2.214   4.578   2.062  0.0006 -0.1895  0.8955
   43MOL0     C 5821   2.140   4.583   2.171  0.1500 -0.4008 -0.1579
   43MOL0     C 5822   2.136   4.479   2.262  0.1380  0.2057 -0.5475
   43MOL0     C 5823   2.051   4.482   2.378 -0.6984 -0.3522 -0.4077
   43MOL0     C 5824   2.066   4.367   2.469 -0.1564 -0.1015  0.9039
   43MOL0     C 5825   1.972   4.593   2.400 -0.8089 -0.8044  0.1059
   43MOL0     C 5826   1.902   4.623   2.526  0.7461 -0.0294  0.5650
   43MOL0     O 5827   1.797   4.719   2.525 -0.2815 -0.6210  0.3906
   43MOL0     C 5828   1.728   4.768   2.634  0.0625 -0.0175  0.5742
   43MOL0     C 5829   1.627   4.860   2.612  0.7391 -0.9285  0.4193
   43MOL0     C 5830   1.546   4.910   2.722  0.2373 -0.5068  0.6792
   43MOL0     C 5831   1.564   4.864   2.852 -0.8058 -0.1827  0.9942
   43MOL0     O 5832   1.475   4.915   2.951 -0.4094  0.6704  0.3296
   43MOL0     C 5833   1.517   4.893   3.085 -0.1749 -0.3734 -0.6755
   43MOL0     C 5834   1.440   4.979   3.189 -0.4007 -0.4390  0.2506
   43MOL0     C 5835   1.290   4.933   3.196 -0.3450  0.9364  0.7707
   43MOL0     C 5836   1.229   4.976   3.334  0.5837  0.4869 -0.3460
   43MOL0     C 5837   1.296   4.923   3.457  0.2177 -0.2989  0.7916
   43MOL0     C 5838   1.203   4.935   3.581 -0.6055 -0.1943 -0.2600
   43MOL0     C 5839   1.167   5.082   3.622  0.2306  0.1157 -0.0826
   43MOL0     C 5840   1.104   5.097   3.766 -0.5465 -0.7270  0.8030
   43MOL0    Cl 5841   0.938   5.019   3.777 -0.1891  0.5365 -0.1546
   43MOL0     C 5842   1.655   4.755   2.871  0.0345 -0.6732  1.0235
   43MOL0     C 5843   1.733   4.706   2.767 -1.0542  0.3615 -0.0263
   43MOL0     O 5844   1.952   4.583   2.631  0.0087  0.1122 -0.3791
   43MOL0     C 5845   1.966   4.695   2.299  0.2657  0.0472  0.2162
   43MOL0     C 5846   2.043   4.687   2.186 -0.7202  0.2505 -0.4155
   43MOL0     N 5847   2.309   4.328   1.540 -0.2663 -0.0705  0.5116
   43MOL0     N 5848   2.309   4.345   1.416  0.2297 -0.7230  0.0538
   43MOL0     C 5849   2.828   4.018   0.453  1.3160  0.7366 -0.1158
   43MOL0     C 5850   2.775   3.905   0.387  1.0877  0.3760 -0.1677
   43MOL0     C 5851   2.518   3.590   0.213 -0.5437 -0.0086 -0.7251
   43MOL0     C 5852   2.558   3.466   0.270  0.7677  0.4926 -1.1454
   43MOL0     C 5853   2.517   3.349   0.208  0.5263  0.6912 -0.1423
   43MOL0     C 5854   2.440   3.349   0.093  0.3774 -0.0174  0.7852
   43MOL0     O 5855   2.403   3.230   0.025  0.1507 -0.2775 -0.2981
   43MOL0     C 5856   2.442   3.216  -0.111  0.1398  0.1068 -0.7128
   43MOL0     C 5857   2.595   3.187  -0.123 -0.5810 -0.3885  0.1680
   43MOL0     C 5858   2.689   3.304  -0.165  1.2693  0.5216 -0.4490
   43MOL0     C 5859   2.814   3.263  -0.243  0.8788  0.0852 -0.3231
   43MOL0     C 5860   2.916   3.179  -0.182  0.8341 -0.2702  0.3795
   43MOL0     C 5861   3.007   3.109  -0.137  0.4375 -0.1414  1.0912
   43MOL0     C 5862   2.403   3.469   0.029  0.3355 -0.2150 -0.0643
   43MOL0     C 5863   2.440   3.588   0.093  0.1855  0.2256 -0.1482
   43MOL0     C 5864   2.382   3.716   0.032 -0.2262 -0.3244  0.3821
   43MOL0     H 5865   2.627   3.752   0.636  0.3925  0.4377 -0.5113
   43MOL0     H 5866   2.718   3.964   0.759  1.7591 -0.7118  0.6832
   43MOL0     H 5867   2.783   4.201   0.845  2.1484  0.0108 -0.2937
   43MOL0     H 5868   2.671   4.231   0.708 -0.2054  2.6790 -0.7525
   43MOL0     H 5869   2.926   4.392   0.704  0.0657  2.0382  1.5059
   43MOL0     H 5870   2.765   4.425   0.633 -0.1028 -0.7995  0.4285
   43MOL0     H 5871   2.831   4.428   0.943 -0.3750  1.9855 -0.0960
   43MOL0     H 5872   2.810   4.561   0.823 -0.8099  1.3404  1.8603
   43MOL0     H 5873   2.578   4.451   0.803  0.3894  0.5460 -1.4653
   43MOL0     H 5874   2.599   4.402   0.967  0.2783  0.3614  0.7957
   43MOL0     H 5875   2.614   4.681   0.872  3.0912  0.7811  1.4692
   43MOL0     H 5876   2.702   4.639   1.017  0.2475 -1.5427  0.0558
   43MOL0     H 5877   2.435   4.705   1.020 -0.9586 -0.2190 -0.3913
   43MOL0     H 5878   2.416   4.540   0.972  2.9857 -2.5788 -1.0732
   43MOL0     H 5879   2.572   4.611   1.228 -2.3674  2.9429 -1.1353
   43MOL0     H 5880   2.556   4.443   1.164  1.8256 -0.7108 -0.0757
   43MOL0     H 5881   2.304   4.599   1.265 -2.5100 -1.1658 -3.3491
   43MOL0     H 5882   2.320   4.454   1.185  0.1739 -0.3401  0.6014
   43MOL0     H 5883   2.513   4.574   1.513  1.9974 -1.4460  1.7984
   43MOL0     H 5884   2.488   4.511   1.755 -2.0954  1.5759  0.0562
   43MOL0     H 5885   2.489   4.325   1.757  0.3384  0.9068 -0.2188
   43MOL0     H 5886   2.234   4.352   1.808 -0.8287  0.5356 -0.8088
   43MOL0     H 5887   2.339   4.407   1.946  1.3257 -2.5160 -0.3754
   43MOL0     H 5888   2.307   4.652   1.833  1.7522 -1.4908 -2.5902
   43MOL0     H 5889   2.177   4.575   1.732 -1.3112  4.8558  0.7131
   43MOL0     H 5890   2.080   4.671   1.903  0.4481 -0.7607 -4.7774
   43MOL0     H 5891   2.079   4.502   1.931  0.1736  0.1402 -0.6281
   43MOL0     H 5892   2.196   4.389   2.247 -1.8962 -1.3572  0.2875
   43MOL0     H 5893   2.105   4.397   2.567 -1.6809  1.8802  0.9631
   43MOL0     H 5894   2.132   4.292   2.426 -0.9068  0.4643 -1.3843
   43MOL0     H 5895   1.968   4.322   2.488  0.0081  0.0034  2.0985
   43MOL0     H 5896   1.621   4.903   2.512  0.0307  0.0635  0.8753
   43MOL0     H 5897   1.460   4.972   2.701  0.7977  0.0855  0.0978
   43MOL0     H 5898   1.513   4.786   3.107  0.4587 -0.4198 -0.7847
   43MOL0     H 5899   1.620   4.927   3.092 -0.7726  1.5454 -0.6361
   43MOL0     H 5900   1.493   4.954   3.282  1.5761  0.1580 -0.6507
   43MOL0     H 5901   1.441   5.088   3.177  2.2447 -0.4439 -0.2089
   43MOL0     H 5902   1.278   4.828   3.172 -1.0163  1.5207 -1.6682
   43MOL0     H 5903   1.237   4.978   3.112 -3.4427  1.9961  3.0678
   43MOL0     H 5904   1.129   4.931   3.337  0.2147  1.3171  1.7653
   43MOL0     H 5905   1.225   5.085   3.339  1.1050  0.4506  1.2125
   43MOL0     H 5906   1.330   4.822   3.431 -0.2704 -0.1844 -0.3387
   43MOL0     H 5907   1.383   4.985   3.484 -0.4268  0.1439  1.9445
   43MOL0     H 5908   1.258   4.885   3.661 -1.9618 -0.5962  0.4484
   43MOL0     H 5909   1.109   4.880   3.570 -0.3329 -0.3345 -2.1073
   43MOL0     H 5910   1.097   5.127   3.551 -2.2260  0.4271  2.3452
   43MOL0     H 5911   1.260   5.140   3.621 -0.0752  0.6090 -1.1481
   43MOL0     H 5912   1.098   5.205   3.784  0.5043 -0.4014 -0.6574
   43MOL0     H 5913   1.156   5.047   3.849  1.3261  0.8597  0.6554
   43MOL0     H 5914   1.663   4.710   2.970  0.1825 -0.8456  0.9345
   43MOL0     H 5915   1.778   4.609   2.783 -3.2227 -1.0619 -1.9086
   43MOL0     H 5916   1.901   4.781   2.310 -1.5388 -1.1998 -0.2515
   43MOL0     H 5917   2.047   4.765   2.111 -0.0007 -0.7824 -1.4843
   43MOL0     H 5918   2.875   4.092   0.388  2.4840 -0.1323 -0.2915
   43MOL0     H 5919   2.790   3.901   0.280 -0.0649  0.4451 -0.3461
   43MOL0     H 5920   2.631   3.461   0.351 -1.1437 -0.5178  0.6014
   43MOL0     H 5921   2.547   3.254   0.251  0.1910 -0.6064 -2.5954
   43MOL0     H 5922   2.387   3.139  -0.167 -3.2010  2.0655 -0.3543
   43MOL0     H 5923   2.414   3.301  -0.173 -1.1802  0.2593  0.0596
   43MOL0     H 5924   2.604   3.104  -0.193 -2.0713  1.0619 -1.8859
   43MOL0     H 5925   2.621   3.152  -0.023 -0.6338 -2.9761 -0.6565
   43MOL0     H 5926   2.633   3.371  -0.230  1.0859 -0.3318 -1.1873
   43MOL0     H 5927   2.723   3.365  -0.081  0.0448  0.0907  0.3959
   43MOL0     H 5928   2.869   3.354  -0.267  0.5080  0.2981 -0.3654
   43MOL0     H 5929   2.775   3.223  -0.338  0.6142 -1.6671  0.4800
   43MOL0     H 5930   3.086   3.039  -0.119  1.2413 -0.3540 -2.3915
   43MOL0     H 5931   2.357   3.466  -0.069  2.6331  0.8506 -1.2578
   43MOL0     H 5932   2.348   3.785   0.110  2.1807  3.7128 -1.7881
   43MOL0     H 5933   2.461   3.754  -0.034 -0.4119 -0.8573 -0.1463
   43MOL0     H 5934   2.299   3.690  -0.033 -0.2721  2.6714 -0.9588
   44MOL0     O 5935   4.847   2.261   2.767  0.5485 -0.2582 -0.0048
   44MOL0     C 5936   4.739   2.259   2.830 -0.8462 -0.0365  1.1959
   44MOL0     O 5937   4.630   2.329   2.793  0.0528 -0.6782 -0.1689
   44MOL0     C 5938   4.625   2.405   2.680  0.4309 -0.1371  0.5491
   44MOL0     C 5939   4.619   2.346   2.553 -0.7368 -0.5351  0.0619
   44MOL0     C 5940   4.602   2.427   2.441  0.5855 -0.5958 -0.9445
   44MOL0     C 5941   4.594   2.563   2.453 -0.4210  0.7781 -0.4602
   44MOL0     O 5942   4.591   2.651   2.348 -0.0330  0.1539  0.9803
   44MOL0     C 5943   4.480   2.622   2.259 -0.0502 -0.8518  0.3312
   44MOL0     C 5944   4.434   2.758   2.201  0.3140  0.2583  0.7006
   44MOL0     C 5945   4.311   2.818   2.272  0.0731  0.0113  0.5149
   44MOL0     C 5946   4.346   2.852   2.423  0.6232  0.1919 -0.1912
   44MOL0     C 5947   4.229   2.940   2.494  0.9339 -0.0743  0.3876
   44MOL0     C 5948   4.227   2.937   2.646  0.1111 -0.4312 -0.1240
   44MOL0     C 5949   4.134   3.036   2.713  0.3657 -0.1589  0.2005
   44MOL0     C 5950   4.187   3.179   2.704  0.0879  0.7164  0.1173
   44MOL0     N 5951   4.116   3.264   2.796 -0.1328  0.9591  0.3835
   44MOL0     C 5952   4.157   3.288   2.933 -0.0936  0.7820  0.1705
   44MOL0     C 5953   4.047   3.340   2.991 -0.6369 -0.5029 -0.0653
   44MOL0     C 5954   4.039   3.366   3.146 -0.5550 -0.6000  0.9206
   44MOL0     C 5955   4.095   3.249   3.218 -0.3311  0.1464  0.4282
   44MOL0     C 5956   4.079   3.254   3.375  0.1490  0.1884 -0.1844
   44MOL0     C 5957   4.144   3.133   3.445 -0.6071  0.0890  0.7347
   44MOL0     O 5958   4.109   3.006   3.392 -0.1970 -0.2769 -0.4639
   44MOL0     C 5959   3.981   2.980   3.368  0.1247  0.7272  0.2739
   44MOL0     C 5960   3.881   2.996   3.460  0.2760  0.6444 -1.2424
   44MOL0     C 5961   3.741   2.987   3.430  0.2520  0.2802 -0.1010
   44MOL0     C 5962   3.642   3.034   3.543  0.0729  0.3170  0.7903
   44MOL0     C 5963   3.700   2.951   3.301 -0.6104  0.6031 -0.9812
   44MOL0     C 5964   3.559   2.931   3.257  0.3935  0.9559 -0.4225
   44MOL0     O 5965   3.546   2.863   3.134  0.5989 -0.7662  0.3482
   44MOL0     C 5966   3.415   2.853   3.087  0.0800  0.5702 -0.1083
   44MOL0     C 5967   3.349   2.956   3.011  0.2067 -0.3241  0.4936
   44MOL0     C 5968   3.215   2.948   2.978  0.1175 -0.2756 -0.1810
   44MOL0     C 5969   3.138   2.831   3.008 -1.1504 -0.2719  0.5346
   44MOL0     O 5970   3.010   2.823   2.956 -0.0376  0.0458  0.3198
   44MOL0     C 5971   2.929   2.707   2.973  0.4526  0.0342 -0.9151
   44MOL0     C 5972   2.801   2.763   3.029  0.7666 -0.1743  0.4263
   44MOL0     C 5973   2.702   2.661   3.067 -1.0428 -0.0203 -1.0045
   44MOL0     C 5974   2.586   2.732   3.130  0.7919 -0.0923  0.1346
   44MOL0     C 5975   2.474   2.627   3.174 -0.4096  0.0323 -0.2865
   44MOL0     C 5976   2.386   2.572   3.060 -0.3283 -0.2051  0.7167
   44MOL0     C 5977   2.299   2.449   3.103 -0.8570 -0.8585 -0.3570
   44MOL0     C 5978   2.188   2.496   3.202  0.1460  0.5085  0.7296
   44MOL0    Cl 5979   2.170   2.381   3.340  0.3808 -0.5589 -0.6851
   44MOL0     C 5980   3.204   2.724   3.064  0.8456 -0.1269 -1.0555
   44MOL0     C 5981   3.340   2.737   3.105 -0.7127  0.0003 -0.9467
   44MOL0     O 5982   3.463   2.954   3.329 -0.1492  0.4217 -0.1623
   44MOL0     C 5983   3.807   2.911   3.209  0.0715  0.2003  0.5153
   44MOL0     C 5984   3.944   2.921   3.248  0.9205  0.2685  0.1486
   44MOL0     N 5985   3.945   3.357   2.895 -0.4380  0.5532 -0.1067
   44MOL0     N 5986   3.994   3.319   2.779  0.2373 -0.0367 -0.1989
   44MOL0     C 5987   4.603   2.626   2.574  0.7555 -0.7812  0.1487
   44MOL0     C 5988   4.619   2.548   2.692  0.2390 -0.1211  0.0152
   44MOL0     C 5989   4.735   2.162   2.949  0.0011  0.0298  0.8001
   44MOL0     C 5990   4.858   2.138   3.013 -0.3924  0.4258  0.7748
   44MOL0     C 5991   4.870   2.055   3.122  0.4962  0.0911 -0.1668
   44MOL0     C 5992   4.756   1.991   3.170  0.7993 -0.4071 -0.3242
   44MOL0     O 5993   4.739   1.919   3.281  0.4205  0.3281 -0.0602
   44MOL0     C 5994   4.847   1.834   3.315 -0.8438  1.1171  0.5817
   44MOL0     C 5995   4.787   1.714   3.394  0.1874  1.6066  0.1628
   44MOL0     C 5996   4.708   1.605   3.307 -0.8740  0.1633 -0.5287
   44MOL0     C 5997   4.639   1.494   3.383 -0.6861 -0.5817  0.7922
   44MOL0     C 5998   4.610   1.374   3.309  0.5945  0.0572 -0.0412
   44MOL0     C 5999   4.589   1.283   3.227 -0.5583 -0.3082  0.2320
   44MOL0     C 6000   4.634   2.003   3.097 -0.2195  0.1191 -0.2829
   44MOL0     C 6001   4.625   2.086   2.987  0.1848  0.4361 -0.1616
   44MOL0     C 6002   4.491   2.094   2.928  0.5640 -0.7978  0.5551
   44MOL0     H 6003   4.626   2.238   2.545  0.3617 -0.6430  1.8555
   44MOL0     H 6004   4.585   2.393   2.340 -0.9273  0.6282 -1.1443
   44MOL0     H 6005   4.396   2.577   2.312 -1.5375 -3.0093 -3.4467
   44MOL0     H 6006   4.505   2.554   2.177  1.4818 -2.0965  1.7686
   44MOL0     H 6007   4.515   2.832   2.196  2.3766 -1.8326  1.1999
   44MOL0     H 6008   4.415   2.753   2.093  2.1358  5.5578 -0.1477
   44MOL0     H 6009   4.267   2.899   2.214  0.7568 -0.8057 -1.1962
   44MOL0     H 6010   4.244   2.732   2.266  2.0027 -1.4942 -0.9683
   44MOL0     H 6011   4.364   2.764   2.486 -0.9251  1.7420  2.6172
   44MOL0     H 6012   4.442   2.905   2.424  0.2734  0.8273  1.0629
   44MOL0     H 6013   4.136   2.903   2.451  0.5867  0.4802  0.6541
   44MOL0     H 6014   4.232   3.044   2.459  1.9993  0.0937  0.9355
   44MOL0     H 6015   4.195   2.840   2.684 -0.1616 -0.3758 -0.2091
   44MOL0     H 6016   4.328   2.940   2.688  0.1094 -0.4919 -0.1150
   44MOL0     H 6017   4.105   3.019   2.817 -1.0948  1.0446  0.0270
   44MOL0     H 6018   4.037   3.025   2.663 -0.9625  0.9457  2.3926
   44MOL0     H 6019   4.297   3.178   2.711  0.1929 -2.5298 -0.6115
   44MOL0     H 6020   4.179   3.221   2.603  2.1429 -0.8028 -0.7454
   44MOL0     H 6021   4.252   3.257   2.975 -0.3491 -5.0045 -2.6031
   44MOL0     H 6022   3.937   3.394   3.174  0.3516  1.4344  2.4583
   44MOL0     H 6023   4.098   3.456   3.169 -1.6170  0.2193  0.5382
   44MOL0     H 6024   4.037   3.165   3.177  1.2086 -0.7152 -0.0640
   44MOL0     H 6025   4.200   3.240   3.192  0.6824  3.2979  2.8774
   44MOL0     H 6026   4.135   3.340   3.414  1.6635  0.1687 -2.1589
   44MOL0     H 6027   3.976   3.272   3.408 -0.4638 -3.1791  0.1743
   44MOL0     H 6028   4.250   3.158   3.439 -0.4526 -0.8578 -1.1355
   44MOL0     H 6029   4.118   3.141   3.551  1.8996  4.1409  1.2444
   44MOL0     H 6030   3.910   3.035   3.557  3.7592  0.1520 -1.9710
   44MOL0     H 6031   3.701   3.091   3.616  1.8521 -0.6519  0.1575
   44MOL0     H 6032   3.583   2.952   3.584 -1.2853  1.7702  1.8449
   44MOL0     H 6033   3.567   3.099   3.497  0.9640  0.3284 -0.7023
   44MOL0     H 6034   3.406   3.044   2.984  0.7789 -1.0877 -0.9183
   44MOL0     H 6035   3.170   3.031   2.924 -1.9062 -0.6897  0.7507
   44MOL0     H 6036   2.896   2.661   2.879 -0.1024  1.0372 -1.2303
   44MOL0     H 6037   2.970   2.627   3.034 -0.4842  0.5879  0.4936
   44MOL0     H 6038   2.834   2.820   3.117 -2.3998  0.7940  1.1179
   44MOL0     H 6039   2.756   2.823   2.950 -1.3728 -0.8349  1.0758
   44MOL0     H 6040   2.742   2.597   3.146 -1.6111  0.4402 -0.3342
   44MOL0     H 6041   2.687   2.603   2.975 -0.5995 -3.0034  0.6692
   44MOL0     H 6042   2.554   2.808   3.058  0.5399 -1.3309 -1.1029
   44MOL0     H 6043   2.600   2.793   3.220 -2.4791 -0.0374  0.7346
   44MOL0     H 6044   2.524   2.543   3.224 -0.6492 -0.8479 -1.4727
   44MOL0     H 6045   2.419   2.671   3.257 -0.5923  1.6903 -1.2464
   44MOL0     H 6046   2.445   2.534   2.976 -1.1206 -0.5994  0.3281
   44MOL0     H 6047   2.313   2.640   3.018 -2.5444 -2.8528 -0.0216
   44MOL0     H 6048   2.368   2.373   3.139 -0.9836 -1.5871 -1.6091
   44MOL0     H 6049   2.245   2.410   3.016  2.0256 -2.1768 -1.6678
   44MOL0     H 6050   2.096   2.491   3.143 -1.1700 -0.0561  2.7133
   44MOL0     H 6051   2.197   2.595   3.247 -1.0079  2.2188 -2.4332
   44MOL0     H 6052   3.164   2.623   3.062 -0.3966  0.3422 -3.6808
   44MOL0     H 6053   3.395   2.656   3.152  0.8519  1.3088 -0.4024
   44MOL0     H 6054   3.794   2.878   3.107 -3.8677 -1.0737  1.2502
   44MOL0     H 6055   4.011   2.879   3.173 -1.3143 -1.5577 -0.9606
   44MOL0     H 6056   4.580   2.732   2.573  2.5032 -0.3649  0.3188
   44MOL0     H 6057   4.626   2.596   2.788  0.9067 -0.8047  0.3228
   44MOL0     H 6058   4.945   2.195   2.981 -1.7155  2.5621  0.7732
   44MOL0     H 6059   4.964   2.037   3.174  0.5558 -1.3179 -0.7377
   44MOL0     H 6060   4.914   1.811   3.232  0.3089  2.2383  1.1606
   44MOL0     H 6061   4.903   1.886   3.393 -1.9546 -0.5272  2.5659
   44MOL0     H 6062   4.719   1.735   3.477  0.5963  0.7725  0.7200
   44MOL0     H 6063   4.870   1.664   3.444 -1.1620  0.2480  1.1291
   44MOL0     H 6064   4.626   1.657   3.256 -2.5940 -0.4072  1.5131
   44MOL0     H 6065   4.771   1.561   3.230 -0.4874  3.3050 -2.1897
   44MOL0     H 6066   4.538   1.518   3.418  0.1723  0.8996  2.4212
   44MOL0     H 6067   4.704   1.459   3.463 -0.1545 -0.2400  0.5129
   44MOL0     H 6068   4.567   1.205   3.157 -3.3864  0.0549  0.5889
   44MOL0     H 6069   4.554   1.945   3.141 -0.4815  1.8434  1.7010
   44MOL0     H 6070   4.453   2.190   2.965 -0.3832 -1.0780  0.3302
   44MOL0     H 6071   4.512   2.105   2.821  0.8896 -0.7855  0.6203
   44MOL0     H 6072   4.421   2.013   2.950 -1.7639  0.7135 -0.8257
   45MOL0     O 6073   0.510   9.693   3.153  0.1077  0.0088 -0.1995
   45MOL0     C 6074   0.501   9.677   3.274 -0.2066  0.2609  1.0349
   45MOL0     O 6075   0.539   9.773   3.371 -0.6186  0.1621 -0.0078
   45MOL0     C 6076   0.639   9.869   3.356  0.2968  0.3654  0.1644
   45MOL0     C 6077   0.741   9.864   3.254  0.3721 -0.2401  0.3834
   45MOL0     C 6078   0.830   9.976   3.242 -0.7835 -0.1782 -0.2615
   45MOL0     C 6079   0.817  10.087   3.334  0.2917 -0.0408  0.3834
   45MOL0     O 6080   0.899  10.192   3.310 -0.1929 -0.4137 -0.1071
   45MOL0     C 6081   0.956  10.254   3.424  0.4406  0.5496 -0.7865
   45MOL0     C 6082   1.035  10.378   3.367 -0.4425  0.6711 -0.5721
   45MOL0     C 6083   0.954  10.480   3.281  0.3214  0.1582 -0.3753
   45MOL0     C 6084   0.838  10.552   3.362 -0.2350  0.3566 -0.8828
   45MOL0     C 6085   0.754  10.642   3.266  0.2506  0.0335  1.2545
   45MOL0     C 6086   0.835  10.760   3.196 -0.0353  0.1635  0.4304
   45MOL0     C 6087   0.918  10.847   3.288 -0.0341 -0.1395  0.1682
   45MOL0     C 6088   0.843  10.911   3.410  0.4192 -0.0969  0.4293
   45MOL0     N 6089   0.749  11.017   3.378  0.0221 -0.0664 -0.7338
   45MOL0     C 6090   0.773  11.150   3.408  0.3938  0.3112  0.3894
   45MOL0     C 6091   0.651  11.207   3.383  0.0870  0.4650 -0.0830
   45MOL0     C 6092   0.609  11.342   3.427 -0.1907  0.6060 -0.7052
   45MOL0     C 6093   0.633  11.445   3.323  0.8102  0.0032 -0.8986
   45MOL0     C 6094   0.571  11.580   3.354  0.0669  0.9587  0.0945
   45MOL0     C 6095   0.632  11.675   3.254 -0.5656 -0.2436  0.6334
   45MOL0     O 6096   0.579  11.809   3.283  0.9900 -0.0183  0.2252
   45MOL0     C 6097   0.665  11.902   3.317  0.3631  0.0970 -0.3294
   45MOL0     C 6098   0.649  12.037   3.283  0.3887  0.2361  0.4359
   45MOL0     C 6099   0.748  12.131   3.311 -1.4479 -0.7345  1.0469
   45MOL0     C 6100   0.720  12.266   3.265  0.9620 -0.4384 -0.4165
   45MOL0     C 6101   0.861  12.097   3.387 -0.4935  0.8357  0.5192
   45MOL0     C 6102   0.976  12.192   3.429 -0.6663 -0.1213  0.1850
   45MOL0     O 6103   0.946  12.320   3.453 -0.1738 -0.3312 -0.3380
   45MOL0     C 6104   1.030  12.414   3.397  0.3266  0.8415  1.0004
   45MOL0     C 6105   1.047  12.440   3.260 -0.1171  0.4470 -0.9358
   45MOL0     C 6106   1.138  12.541   3.215  1.0729  0.0060 -1.5398
   45MOL0     C 6107   1.189  12.626   3.308  0.0620  0.9336 -0.3429
   45MOL0     O 6108   1.274  12.719   3.245  0.6012  0.2108 -0.6411
   45MOL0     C 6109   1.350  12.810   3.329  0.3617  0.4754  0.4645
   45MOL0     C 6110   1.413  12.933   3.245 -0.7515  0.6711  0.4655
   45MOL0     C 6111   1.558  12.974   3.300 -0.7941  0.2735  0.7245
   45MOL0     C 6112   1.586  13.115   3.258 -0.0222 -0.8171 -0.8700
   45MOL0     C 6113   1.729  13.172   3.263 -0.0385 -0.2736  0.3784
   45MOL0     C 6114   1.747  13.317   3.215 -0.3644  0.5989 -0.5748
   45MOL0     C 6115   1.699  13.420   3.318 -0.3807  0.4091 -0.2934
   45MOL0     C 6116   1.745  13.566   3.298  0.2946  0.0649  0.4992
   45MOL0    Cl 6117   1.666  13.617   3.149 -0.4066 -0.1650  0.3137
   45MOL0     C 6118   1.175  12.593   3.450  0.1720  0.0386 -0.4232
   45MOL0     C 6119   1.104  12.485   3.498  0.8746  0.9024  0.4772
   45MOL0     O 6120   1.090  12.147   3.443 -0.7299  0.4830 -1.4973
   45MOL0     C 6121   0.883  11.964   3.423 -0.2786  0.1529  0.6403
   45MOL0     C 6122   0.771  11.878   3.396 -0.3021 -0.5729  1.0519
   45MOL0     N 6123   0.561  11.114   3.346 -0.1779 -0.2862  0.4721
   45MOL0     N 6124   0.622  11.002   3.331  0.0643 -0.2567 -1.1720
   45MOL0     C 6125   0.709  10.094   3.425 -0.8517  0.5522 -0.2271
   45MOL0     C 6126   0.622   9.983   3.440  0.0423 -0.0461  0.3714
   45MOL0     C 6127   0.436   9.547   3.320  0.9617 -0.6357  0.6026
   45MOL0     C 6128   0.434   9.521   3.458  0.6829  0.0767 -0.3101
   45MOL0     C 6129   0.386   9.404   3.513  0.7034  0.5982  0.6312
   45MOL0     C 6130   0.326   9.308   3.427  1.6221 -0.7385 -0.3703
   45MOL0     O 6131   0.238   9.209   3.468  0.4008  0.0147  0.3075
   45MOL0     C 6132   0.179   9.222   3.587  0.6091  0.1811 -0.4997
   45MOL0     C 6133   0.073   9.106   3.601 -0.0672  0.0530  0.4985
   45MOL0     C 6134   0.141   8.974   3.576  0.3247 -0.2547 -0.5591
   45MOL0     C 6135   0.128   8.945   3.426  0.0906 -0.0106  0.1892
   45MOL0     C 6136   0.147   8.803   3.416  0.1780 -0.6103  0.7964
   45MOL0     C 6137   0.151   8.687   3.415 -0.3584  0.5208 -0.4569
   45MOL0     C 6138   0.337   9.322   3.289  0.0335  0.3999  0.4083
   45MOL0     C 6139   0.387   9.440   3.229  0.3802 -0.5515 -0.2811
   45MOL0     C 6140   0.398   9.442   3.085 -0.0701  0.3048  0.6445
   45MOL0     H 6141   0.737   9.769   3.203  0.1514  0.2263 -0.4876
   45MOL0     H 6142   0.904   9.993   3.164 -0.4127  3.2117  0.6735
   45MOL0     H 6143   1.014  10.196   3.496 -2.1873  0.0416  1.0426
   45MOL0     H 6144   0.871  10.295   3.479 -0.4785 -1.9549 -0.2144
   45MOL0     H 6145   1.067  10.430   3.458 -1.4920 -2.1820  1.5880
   45MOL0     H 6146   1.120  10.337   3.312 -0.5207 -2.0203  1.1184
   45MOL0     H 6147   1.024  10.560   3.253  1.6786 -0.2353  1.6696
   45MOL0     H 6148   0.921  10.429   3.190  0.2386  1.7960 -1.2901
   45MOL0     H 6149   0.764  10.477   3.393 -0.7740 -0.2182 -3.3300
   45MOL0     H 6150   0.885  10.607   3.444  1.2112  0.1065 -1.5166
   45MOL0     H 6151   0.673  10.695   3.318  0.1935  0.3609  0.8490
   45MOL0     H 6152   0.701  10.585   3.188  2.1200 -0.5732  0.3825
   45MOL0     H 6153   0.894  10.715   3.116 -1.2297  0.7343 -0.8018
   45MOL0     H 6154   0.766  10.825   3.142  1.6338  0.3389 -1.6205
   45MOL0     H 6155   0.962  10.930   3.233  1.5610  1.9019  4.1220
   45MOL0     H 6156   1.001  10.788   3.329 -1.7096 -1.9303  1.1578
   45MOL0     H 6157   0.792  10.827   3.459  2.7567 -2.0702 -0.3211
   45MOL0     H 6158   0.921  10.950   3.476 -0.1771  1.9803 -0.0122
   45MOL0     H 6159   0.856  11.197   3.460  1.5565 -0.1988 -0.9409
   45MOL0     H 6160   0.657  11.368   3.522 -0.1233  3.1932 -1.3559
   45MOL0     H 6161   0.502  11.336   3.446  0.4334 -3.4866  2.9546
   45MOL0     H 6162   0.739  11.459   3.301  0.8946 -1.8776 -1.8771
   45MOL0     H 6163   0.584  11.401   3.235  0.4031 -2.3704  0.4322
   45MOL0     H 6164   0.465  11.575   3.330  0.9515  0.5374 -4.9834
   45MOL0     H 6165   0.584  11.608   3.459 -1.5655 -0.2085  0.6467
   45MOL0     H 6166   0.741  11.673   3.261 -0.3385  2.6887 -0.6450
   45MOL0     H 6167   0.606  11.645   3.152  3.2774 -1.1875 -0.2515
   45MOL0     H 6168   0.566  12.069   3.220 -0.8099 -1.7391  0.9262
   45MOL0     H 6169   0.803  12.309   3.209 -1.4830  3.4405 -1.4883
   45MOL0     H 6170   0.696  12.328   3.353 -1.7147 -5.7661  3.1446
   45MOL0     H 6171   0.634  12.285   3.199  1.5049 -0.0867 -1.0286
   45MOL0     H 6172   1.002  12.375   3.185  0.7272  0.5516 -1.5467
   45MOL0     H 6173   1.163  12.545   3.109 -0.0760 -0.2902 -1.8422
   45MOL0     H 6174   1.287  12.853   3.407 -3.5603 -1.6988 -1.2136
   45MOL0     H 6175   1.434  12.756   3.375  0.3735 -0.6204 -0.7559
   45MOL0     H 6176   1.438  12.895   3.146 -0.3477 -0.6888  1.0603
   45MOL0     H 6177   1.355  13.026   3.248  0.6450  1.5842  0.0844
   45MOL0     H 6178   1.638  12.913   3.257 -0.0170  0.7700  1.4507
   45MOL0     H 6179   1.555  12.962   3.408  0.9284 -1.2072  0.6571
   45MOL0     H 6180   1.524  13.186   3.314  2.8214  3.3963 -2.5281
   45MOL0     H 6181   1.559  13.127   3.152  0.9360 -0.9282 -1.1366
   45MOL0     H 6182   1.786  13.169   3.357  3.0364  0.7237 -1.3076
   45MOL0     H 6183   1.781  13.097   3.203 -1.0662 -1.8573  1.3689
   45MOL0     H 6184   1.695  13.325   3.119  0.9335 -2.3791 -1.6469
   45MOL0     H 6185   1.855  13.330   3.198 -0.3565 -0.0131 -1.0241
   45MOL0     H 6186   1.741  13.385   3.412  1.2191  0.8677 -0.8077
   45MOL0     H 6187   1.591  13.421   3.336 -0.4393  0.7896 -0.6580
   45MOL0     H 6188   1.854  13.573   3.295  0.3869 -1.3053 -0.3171
   45MOL0     H 6189   1.707  13.622   3.384  1.8475  1.1394  0.5196
   45MOL0     H 6190   1.214  12.649   3.534  0.4434 -2.9732  1.6311
   45MOL0     H 6191   1.090  12.462   3.603 -0.1875  0.9838  0.3622
   45MOL0     H 6192   0.962  11.920   3.483  0.0384 -0.4635 -0.2097
   45MOL0     H 6193   0.787  11.778   3.435 -4.3440 -0.9793  2.1778
   45MOL0     H 6194   0.685  10.183   3.483  1.6208 -0.5537  2.8084
   45MOL0     H 6195   0.545   9.969   3.516 -0.9817 -0.0690 -0.6378
   45MOL0     H 6196   0.474   9.598   3.523  0.4813  1.8095 -2.1240
   45MOL0     H 6197   0.381   9.394   3.621 -1.1025  2.6040  0.8066
   45MOL0     H 6198   0.242   9.225   3.676 -0.2647  2.4864  0.1033
   45MOL0     H 6199   0.139   9.324   3.591 -1.0165 -0.4513  0.6516
   45MOL0     H 6200  -0.006   9.120   3.527  0.7166 -0.5228 -0.4725
   45MOL0     H 6201   0.020   9.108   3.697 -1.1860 -3.8545  0.1398
   45MOL0     H 6202   0.245   8.975   3.607  0.3684  3.5324 -0.4209
   45MOL0     H 6203   0.081   8.904   3.635  0.0264  0.7982  0.4174
   45MOL0     H 6204   0.210   8.987   3.368 -0.3427  3.7912  2.0145
   45MOL0     H 6205   0.031   8.978   3.386 -0.3342  0.4873  1.5608
   45MOL0     H 6206   0.152   8.581   3.433  1.2145  0.7166  0.8301
   45MOL0     H 6207   0.306   9.244   3.220 -1.3574  1.7183 -0.5401
   45MOL0     H 6208   0.365   9.349   3.039 -2.0009  0.0237  2.4507
   45MOL0     H 6209   0.333   9.523   3.050  0.9970  0.9086 -0.0104
   45MOL0     H 6210   0.499   9.464   3.049 -0.8400  0.5024 -1.5399
   46MOL0     O 6211  10.311   7.544   5.777 -0.2496 -0.7039  0.8594
   46MOL0     C 6212  10.283   7.536   5.895 -0.5781  0.2960  0.4726
   46MOL0     O 6213  10.193   7.437   5.942  0.8096  0.3545  0.1285
   46MOL0     C 6214  10.128   7.360   5.839  0.5720 -0.4088  0.3503
   46MOL0     C 6215   9.997   7.384   5.800 -0.6915  0.2122  0.4276
   46MOL0     C 6216   9.945   7.313   5.686  0.3425 -0.0806 -0.1807
   46MOL0     C 6217  10.025   7.221   5.622  0.1661  0.4638  0.5917
   46MOL0     O 6218   9.963   7.161   5.517 -0.7470  0.4741  0.1200
   46MOL0     C 6219  10.042   7.068   5.431 -0.3719 -0.3534  0.4047
   46MOL0     C 6220   9.949   7.019   5.322  1.0417  0.2459 -0.3799
   46MOL0     C 6221   9.993   6.892   5.246  0.2449  0.5187 -0.8876
   46MOL0     C 6222   9.943   6.773   5.324  0.5949  0.3440  1.0369
   46MOL0     C 6223   9.974   6.642   5.250 -0.1825 -0.1062 -0.1375
   46MOL0     C 6224   9.948   6.524   5.349 -0.8771  0.7804 -1.1365
   46MOL0     C 6225  10.002   6.385   5.290 -0.1390 -0.3560 -0.1090
   46MOL0     C 6226   9.949   6.350   5.147  0.5703  0.6619 -0.0059
   46MOL0     N 6227   9.995   6.218   5.109  0.5677 -0.1874  1.0804
   46MOL0     C 6228   9.938   6.101   5.132  0.7746  0.8144 -0.3725
   46MOL0     C 6229   9.999   6.002   5.054 -0.3272 -1.1536 -0.2779
   46MOL0     C 6230   9.955   5.860   5.039 -0.3058 -0.4635  0.3916
   46MOL0     C 6231   9.864   5.841   4.914 -0.3012 -0.6259  0.3852
   46MOL0     C 6232   9.813   5.699   4.899  0.5298  0.1951  0.1511
   46MOL0     C 6233   9.709   5.665   4.999  0.8991  0.3356 -0.5458
   46MOL0     O 6234   9.594   5.744   4.985 -0.0377 -0.0731  0.7415
   46MOL0     C 6235   9.489   5.722   5.073 -0.2558  0.1888  0.2659
   46MOL0     C 6236   9.478   5.601   5.159  0.4797 -0.3605 -0.1315
   46MOL0     C 6237   9.359   5.573   5.226  0.0040  0.1932 -0.4382
   46MOL0     C 6238   9.352   5.440   5.297  0.5183 -0.0296 -0.4547
   46MOL0     C 6239   9.242   5.663   5.209  0.0423  0.7003 -0.5878
   46MOL0     C 6240   9.116   5.641   5.281  0.4000 -0.9266  0.4947
   46MOL0     O 6241   9.070   5.514   5.335 -0.2859 -0.7714  0.0929
   46MOL0     C 6242   8.955   5.512   5.410 -0.1708  0.7726 -0.2951
   46MOL0     C 6243   8.895   5.384   5.404  0.0299 -0.2321  0.4474
   46MOL0     C 6244   8.789   5.353   5.487 -0.5149 -0.4194  0.1878
   46MOL0     C 6245   8.739   5.437   5.581 -0.3985 -0.5332 -0.6858
   46MOL0     O 6246   8.630   5.396   5.661  0.6804 -0.9667  0.2237
   46MOL0     C 6247   8.604   5.461   5.791  0.3553 -0.5053  0.6019
   46MOL0     C 6248   8.575   5.352   5.896  0.3160  0.6026 -0.0898
   46MOL0     C 6249   8.443   5.281   5.872  0.7773 -0.2896 -0.4695
   46MOL0     C 6250   8.411   5.192   5.991 -0.3377 -0.6488 -0.3462
   46MOL0     C 6251   8.336   5.260   6.111  0.1042 -0.4694 -0.2256
   46MOL0     C 6252   8.204   5.318   6.063 -0.5555 -0.4629 -0.0693
   46MOL0     C 6253   8.120   5.370   6.188  0.2424 -0.2864 -0.7053
   46MOL0     C 6254   7.962   5.397   6.171 -0.2890 -0.3045 -0.2801
   46MOL0    Cl 6255   7.860   5.250   6.177  0.4165  0.1096 -0.2649
   46MOL0     C 6256   8.797   5.572   5.587  0.7620 -0.2574  0.5590
   46MOL0     C 6257   8.911   5.605   5.506  0.5486 -0.5159  0.6096
   46MOL0     O 6258   9.055   5.748   5.293  0.3908 -0.0768  1.1611
   46MOL0     C 6259   9.264   5.771   5.125  0.6721 -0.2457  0.4571
   46MOL0     C 6260   9.381   5.801   5.062  0.0235 -1.1815 -0.7530
   46MOL0     N 6261  10.110   6.064   5.002 -0.0110  0.4038  0.1995
   46MOL0     N 6262  10.102   6.192   5.032 -0.7952  0.2006  0.2468
   46MOL0     C 6263  10.155   7.201   5.659 -0.3080  0.2039 -0.0123
   46MOL0     C 6264  10.205   7.262   5.775  0.3541  0.2060  0.5457
   46MOL0     C 6265  10.335   7.618   6.000  0.5475 -0.1974 -0.0594
   46MOL0     C 6266  10.366   7.557   6.120  1.3994  0.0648 -1.0064
   46MOL0     C 6267  10.419   7.635   6.226  1.1050 -0.0376  0.1726
   46MOL0     C 6268  10.453   7.763   6.218  0.4316  0.0906  0.4034
   46MOL0     O 6269  10.497   7.833   6.323  0.3195 -0.0627 -0.4116
   46MOL0     C 6270  10.511   7.977   6.299  0.4103 -0.4004  0.0341
   46MOL0     C 6271  10.657   8.003   6.253 -0.0633  0.8201 -0.0549
   46MOL0     C 6272  10.683   8.151   6.221  0.3420 -0.1146  0.2309
   46MOL0     C 6273  10.830   8.193   6.231 -0.4686  0.0827  0.6155
   46MOL0     C 6274  10.919   8.132   6.129  0.5911  0.4408  0.1586
   46MOL0     C 6275  10.992   8.084   6.042  0.1052 -0.3578 -0.9278
   46MOL0     C 6276  10.454   7.805   6.082 -0.1388 -0.1940 -0.4609
   46MOL0     C 6277  10.386   7.746   5.982 -0.2242  1.1641 -0.7409
   46MOL0     C 6278  10.378   7.826   5.854 -0.0547 -0.4751  0.1486
   46MOL0     H 6279   9.944   7.464   5.850  0.3261  0.2379  1.5173
   46MOL0     H 6280   9.847   7.346   5.654 -0.4529  0.1511  2.2914
   46MOL0     H 6281  10.088   6.990   5.492 -2.0052 -0.5912  1.4142
   46MOL0     H 6282  10.125   7.111   5.376  0.0729 -0.3186  1.0906
   46MOL0     H 6283   9.857   6.988   5.373 -0.1266  0.9820 -1.9574
   46MOL0     H 6284   9.927   7.099   5.251 -1.6865 -0.3140 -0.2682
   46MOL0     H 6285   9.951   6.889   5.145 -2.0546  3.1788 -0.1461
   46MOL0     H 6286  10.101   6.883   5.238  0.1377 -3.0947 -0.0814
   46MOL0     H 6287   9.991   6.777   5.422  1.2415  0.3509  0.7224
   46MOL0     H 6288   9.834   6.780   5.327  0.3543 -1.3382 -1.1385
   46MOL0     H 6289  10.077   6.645   5.213 -0.4925  0.5082 -0.9823
   46MOL0     H 6290   9.910   6.632   5.162 -0.5491 -0.7334  0.1927
   46MOL0     H 6291   9.998   6.537   5.445 -0.8667  1.2837 -1.2088
   46MOL0     H 6292   9.841   6.506   5.364 -0.5213 -0.0796  0.5907
   46MOL0     H 6293   9.959   6.304   5.349  0.3428  1.0778  2.3488
   46MOL0     H 6294  10.111   6.385   5.285 -0.0748  2.3914 -0.5138
   46MOL0     H 6295   9.840   6.352   5.142  0.2441 -2.2480  2.8223
   46MOL0     H 6296   9.991   6.426   5.079  0.9873 -0.6833 -1.3100
   46MOL0     H 6297   9.843   6.078   5.179  0.8173 -0.2527 -0.7896
   46MOL0     H 6298   9.916   5.829   5.137 -1.2804 -0.6425 -0.0327
   46MOL0     H 6299  10.049   5.805   5.029  0.2357  0.4172  0.5821
   46MOL0     H 6300   9.792   5.923   4.912  3.8029  3.4148  1.2948
   46MOL0     H 6301   9.919   5.853   4.820  1.3009 -1.4354  1.1657
   46MOL0     H 6302   9.765   5.674   4.804 -1.3789 -2.8378  1.7869
   46MOL0     H 6303   9.896   5.629   4.913  0.3928  0.4584  2.7821
   46MOL0     H 6304   9.696   5.557   4.988  0.8664  0.3886 -1.0381
   46MOL0     H 6305   9.747   5.674   5.101 -1.0664 -2.1437  0.5205
   46MOL0     H 6306   9.563   5.534   5.147 -0.4383 -1.1170 -3.3578
   46MOL0     H 6307   9.316   5.444   5.400  1.8125 -1.3667  0.0692
   46MOL0     H 6308   9.451   5.395   5.307  1.0880  0.7921 -2.0295
   46MOL0     H 6309   9.278   5.377   5.248 -0.3338 -0.3959  1.2355
   46MOL0     H 6310   8.935   5.314   5.330 -2.0056 -1.3630  0.3591
   46MOL0     H 6311   8.755   5.250   5.482 -0.7053 -0.4613  1.8892
   46MOL0     H 6312   8.690   5.516   5.830  2.9987 -1.7918 -2.8135
   46MOL0     H 6313   8.525   5.537   5.794  0.3673 -0.1354 -3.0883
   46MOL0     H 6314   8.656   5.280   5.906 -0.9526 -0.9563 -0.6175
   46MOL0     H 6315   8.578   5.400   5.994  0.9574 -0.2163  0.3028
   46MOL0     H 6316   8.456   5.213   5.788 -1.1614 -0.4652 -0.6730
   46MOL0     H 6317   8.368   5.356   5.846  2.0663  1.3757  0.4000
   46MOL0     H 6318   8.506   5.151   6.026 -1.4385 -0.7877  2.8130
   46MOL0     H 6319   8.335   5.121   5.957 -2.9873  2.7761 -2.1626
   46MOL0     H 6320   8.317   5.185   6.189 -2.8968  1.5526  1.1975
   46MOL0     H 6321   8.400   5.336   6.158  2.0191 -4.2629  4.0727
   46MOL0     H 6322   8.146   5.239   6.015 -0.1846 -2.0414  1.9360
   46MOL0     H 6323   8.220   5.395   5.986  0.7265 -2.9757 -2.4991
   46MOL0     H 6324   8.165   5.460   6.230  0.0108 -0.6034  0.2631
   46MOL0     H 6325   8.136   5.296   6.267 -1.7181 -0.8947 -0.8196
   46MOL0     H 6326   7.949   5.452   6.078 -1.1016 -1.0397 -0.6159
   46MOL0     H 6327   7.931   5.468   6.249  1.0710  0.5500 -0.4862
   46MOL0     H 6328   8.746   5.645   5.650 -2.4107  1.3024 -3.3904
   46MOL0     H 6329   8.965   5.699   5.501 -2.6299  1.4357  0.3486
   46MOL0     H 6330   9.184   5.843   5.112  1.1926  0.3249  0.3807
   46MOL0     H 6331   9.394   5.890   5.002  0.3617 -0.3916  0.4478
   46MOL0     H 6332  10.224   7.139   5.604  0.9462  1.1066  0.4889
   46MOL0     H 6333  10.302   7.225   5.807  1.6890  0.4320 -2.8621
   46MOL0     H 6334  10.357   7.449   6.134  5.9038 -0.1972  2.4719
   46MOL0     H 6335  10.435   7.573   6.314  0.1603 -0.4995  0.0328
   46MOL0     H 6336  10.432   8.015   6.234  2.2307  0.3335 -1.8692
   46MOL0     H 6337  10.503   8.031   6.394  0.6966  0.0256 -0.1770
   46MOL0     H 6338  10.674   7.937   6.168 -1.3975  0.1405  0.1798
   46MOL0     H 6339  10.720   7.976   6.339 -0.2407 -0.2030 -0.2294
   46MOL0     H 6340  10.648   8.180   6.121  1.9811 -0.4996 -0.4757
   46MOL0     H 6341  10.612   8.203   6.286  0.6447  1.5245 -0.7073
   46MOL0     H 6342  10.867   8.178   6.332  4.5795 -0.5789 -1.0578
   46MOL0     H 6343  10.848   8.294   6.194 -0.7256 -0.5222 -1.2851
   46MOL0     H 6344  11.058   8.042   5.969 -0.4360 -3.9191  0.4070
   46MOL0     H 6345  10.489   7.904   6.055 -0.2723 -0.6652 -2.4995
   46MOL0     H 6346  10.368   7.932   5.879 -1.9284 -0.4097 -0.7300
   46MOL0     H 6347  10.469   7.813   5.795 -0.3349 -1.7422 -0.0434
   46MOL0     H 6348  10.295   7.800   5.787  0.3270  1.1554 -0.9987
   47MOL0     O 6349   2.096   7.619   7.233 -0.8391 -0.1048  0.5067
   47MOL0     C 6350   2.126   7.503   7.257  0.6410 -0.0863 -0.7506
   47MOL0     O 6351   2.081   7.393   7.189  0.1243  0.1073  0.0366
   47MOL0     C 6352   2.009   7.406   7.070 -0.3658 -0.2867  0.2402
   47MOL0     C 6353   1.904   7.327   7.058  1.0289 -0.3146  1.4520
   47MOL0     C 6354   1.812   7.350   6.955 -0.2029  0.3094 -0.8766
   47MOL0     C 6355   1.828   7.447   6.867  0.0098 -0.0355 -0.0116
   47MOL0     O 6356   1.736   7.499   6.782  0.2330 -0.1890  0.1507
   47MOL0     C 6357   1.631   7.417   6.734  0.4934 -0.6482 -0.1733
   47MOL0     C 6358   1.662   7.307   6.630 -0.4246 -0.1600  0.7105
   47MOL0     C 6359   1.588   7.176   6.652  0.4700  0.0162 -0.5264
   47MOL0     C 6360   1.571   7.099   6.526 -0.3103 -0.7023 -0.0633
   47MOL0     C 6361   1.689   7.008   6.499  0.3048 -1.1214  0.1908
   47MOL0     C 6362   1.651   6.918   6.379  0.2688 -0.2611  0.1851
   47MOL0     C 6363   1.729   6.788   6.344  0.1374  0.5762 -0.2012
   47MOL0     C 6364   1.880   6.816   6.339 -0.9062 -0.5838  0.0427
   47MOL0     N 6365   1.954   6.714   6.257  0.7377  0.0854 -0.0019
   47MOL0     C 6366   2.000   6.605   6.327  0.6697  0.4921 -0.0308
   47MOL0     C 6367   1.993   6.502   6.237  0.9112 -0.1136  1.0743
   47MOL0     C 6368   2.013   6.357   6.255 -0.2386 -0.2344  0.2453
   47MOL0     C 6369   1.873   6.290   6.253 -0.5368  0.4356  0.7715
   47MOL0     C 6370   1.848   6.216   6.117 -0.0875  0.1039  0.2851
   47MOL0     C 6371   1.874   6.281   5.989  0.7236  0.8745  1.0692
   47MOL0     O 6372   1.826   6.185   5.890  0.1840 -0.2341 -0.4252
   47MOL0     C 6373   1.857   6.222   5.757  0.4199  0.8245 -0.5694
   47MOL0     C 6374   1.790   6.137   5.657 -0.4403  1.0556 -1.4610
   47MOL0     C 6375   1.815   6.155   5.521 -0.1858  0.6301  0.0171
   47MOL0     C 6376   1.728   6.082   5.422 -0.4445 -0.6788 -1.3617
   47MOL0     C 6377   1.901   6.251   5.470  0.2082 -0.2152  0.9298
   47MOL0     C 6378   1.956   6.250   5.332  0.1540  0.5964 -0.0208
   47MOL0     O 6379   1.995   6.130   5.290 -0.2911  0.2377 -0.0656
   47MOL0     C 6380   2.038   6.118   5.156  0.0785  0.3438  0.5327
   47MOL0     C 6381   2.169   6.158   5.120  0.2414  0.7081  0.2463
   47MOL0     C 6382   2.215   6.137   4.993 -0.8024  0.6025 -0.3559
   47MOL0     C 6383   2.137   6.080   4.894  0.5767 -0.4106 -0.1432
   47MOL0     O 6384   2.167   6.064   4.756  1.0063  0.2264 -0.6125
   47MOL0     C 6385   2.291   6.124   4.714  0.7395 -0.4965 -0.5353
   47MOL0     C 6386   2.348   6.076   4.583 -0.4396 -0.6219 -0.8746
   47MOL0     C 6387   2.371   5.920   4.575 -0.2199  0.0752  0.0388
   47MOL0     C 6388   2.500   5.872   4.637 -0.4426  0.0141 -0.2404
   47MOL0     C 6389   2.510   5.717   4.663 -0.0390  0.1677  0.3042
   47MOL0     C 6390   2.514   5.645   4.536 -0.3329  0.3275 -0.0290
   47MOL0     C 6391   2.492   5.490   4.548  0.2858  1.1626  0.3572
   47MOL0     C 6392   2.529   5.421   4.416  0.1923  0.4828  0.3268
   47MOL0    Cl 6393   2.708   5.431   4.393  0.6022  0.6110 -0.3040
   47MOL0     C 6394   2.006   6.033   4.934  0.2634  0.5973 -0.5374
   47MOL0     C 6395   1.960   6.045   5.065 -0.2272 -0.4877 -0.2881
   47MOL0     O 6396   1.935   6.348   5.266 -0.5964  0.4502  0.1903
   47MOL0     C 6397   1.953   6.333   5.567 -0.2364  0.0901 -0.0391
   47MOL0     C 6398   1.944   6.314   5.706  0.1482 -0.6433 -0.2819
   47MOL0     N 6399   1.952   6.555   6.115 -0.7608  0.0606  0.1874
   47MOL0     N 6400   1.928   6.681   6.126 -0.0448 -0.7882 -0.6735
   47MOL0     C 6401   1.950   7.517   6.862 -1.2543 -0.3528 -0.1387
   47MOL0     C 6402   2.041   7.496   6.967  1.4195 -0.1749 -0.3591
   47MOL0     C 6403   2.174   7.483   7.394 -0.5276  0.6023  0.2290
   47MOL0     C 6404   2.127   7.377   7.480 -0.7260  0.0411 -0.1896
   47MOL0     C 6405   2.192   7.341   7.601 -0.2318  1.9095  1.2305
   47MOL0     C 6406   2.303   7.419   7.636 -1.3978  0.2488 -0.4605
   47MOL0     O 6407   2.385   7.392   7.750  0.0515 -0.4683 -0.8015
   47MOL0     C 6408   2.388   7.254   7.785  0.0450  0.3060 -0.3357
   47MOL0     C 6409   2.480   7.217   7.908 -1.0175 -0.1821 -0.0232
   47MOL0     C 6410   2.621   7.294   7.901  0.8111 -0.9045 -0.4821
   47MOL0     C 6411   2.727   7.214   7.980  0.5164  0.6997 -0.2917
   47MOL0     C 6412   2.721   7.236   8.126 -0.0351  0.0774 -0.1076
   47MOL0     C 6413   2.733   7.257   8.241 -0.0379 -0.0669  0.0006
   47MOL0     C 6414   2.346   7.526   7.565 -0.1392  0.0379  0.4468
   47MOL0     C 6415   2.282   7.561   7.443 -0.5754  0.1190  0.5518
   47MOL0     C 6416   2.355   7.676   7.362  0.0061 -1.0580  0.6831
   47MOL0     H 6417   1.887   7.250   7.132  1.8360 -0.4200  1.5344
   47MOL0     H 6418   1.737   7.274   6.938  1.9847 -2.4344  0.6868
   47MOL0     H 6419   1.571   7.495   6.687 -0.6346  0.2651  2.5828
   47MOL0     H 6420   1.579   7.376   6.821  1.4502 -0.3860  0.5372
   47MOL0     H 6421   1.648   7.341   6.527  0.7574 -0.7530  0.3368
   47MOL0     H 6422   1.762   7.264   6.642  0.1310  0.3642 -1.5736
   47MOL0     H 6423   1.619   7.118   6.739 -3.4054 -0.8599  0.4875
   47MOL0     H 6424   1.486   7.203   6.681  0.6171  1.6380 -1.4126
   47MOL0     H 6425   1.483   7.036   6.542  0.3942 -2.8978 -3.7811
   47MOL0     H 6426   1.546   7.163   6.441 -0.2209 -2.3111 -1.3504
   47MOL0     H 6427   1.715   6.944   6.583 -0.1781  1.8681  2.8255
   47MOL0     H 6428   1.775   7.071   6.476 -1.1013  0.4545 -1.0348
   47MOL0     H 6429   1.548   6.882   6.389  1.0957 -2.9229 -0.2350
   47MOL0     H 6430   1.662   6.977   6.287  3.2325 -1.3734 -0.2554
   47MOL0     H 6431   1.700   6.749   6.246  1.5976 -0.7499 -0.1461
   47MOL0     H 6432   1.718   6.713   6.424 -0.7441  2.1496  1.2213
   47MOL0     H 6433   1.891   6.912   6.288 -1.3877  0.3292  1.6007
   47MOL0     H 6434   1.920   6.836   6.439  2.8232 -1.9303 -0.9945
   47MOL0     H 6435   2.017   6.598   6.434  1.7268  0.9894 -0.1642
   47MOL0     H 6436   2.065   6.333   6.348 -2.2198  0.2997  1.5265
   47MOL0     H 6437   2.072   6.317   6.171 -0.3940 -0.3621  0.1963
   47MOL0     H 6438   1.871   6.213   6.330 -0.9926 -1.1530 -0.7495
   47MOL0     H 6439   1.789   6.359   6.264 -1.5850 -0.3229 -1.6697
   47MOL0     H 6440   1.915   6.131   6.126  4.1228  2.9663 -0.8388
   47MOL0     H 6441   1.743   6.186   6.112 -0.7550  1.2242  4.0710
   47MOL0     H 6442   1.819   6.375   5.978 -0.5285  0.1407  1.0032
   47MOL0     H 6443   1.983   6.289   5.990  0.7654  0.6112 -0.1638
   47MOL0     H 6444   1.712   6.069   5.688  1.3874 -0.8867 -0.8543
   47MOL0     H 6445   1.730   6.128   5.323  0.6559  1.0559 -0.5669
   47MOL0     H 6446   1.627   6.091   5.464  0.2735 -0.5228  0.3893
   47MOL0     H 6447   1.756   5.976   5.419  0.7002 -0.4771  0.8444
   47MOL0     H 6448   2.235   6.207   5.191  4.3876 -2.5919 -0.9374
   47MOL0     H 6449   2.318   6.164   4.976 -1.0427  1.7444 -0.0612
   47MOL0     H 6450   2.277   6.232   4.704 -0.2931 -0.5996 -0.2857
   47MOL0     H 6451   2.368   6.111   4.791 -2.2320 -1.1543  2.5765
   47MOL0     H 6452   2.272   6.104   4.509 -2.4386  3.4358  2.2806
   47MOL0     H 6453   2.445   6.123   4.566  0.1812  0.0959  3.5656
   47MOL0     H 6454   2.362   5.886   4.472 -1.2872 -2.5677  0.9092
   47MOL0     H 6455   2.289   5.862   4.618  0.3749 -0.7421  0.0910
   47MOL0     H 6456   2.517   5.912   4.737 -1.7130  0.0248 -0.0060
   47MOL0     H 6457   2.584   5.918   4.583  0.8349 -1.0741  0.7605
   47MOL0     H 6458   2.600   5.694   4.721  1.3776  1.5423 -1.2245
   47MOL0     H 6459   2.422   5.704   4.726 -1.3200 -0.2041 -1.4957
   47MOL0     H 6460   2.615   5.664   4.500 -0.0561 -1.9544 -0.6349
   47MOL0     H 6461   2.437   5.688   4.472  0.2790  3.2322  1.0476
   47MOL0     H 6462   2.388   5.470   4.577  0.2707  1.4139  0.4785
   47MOL0     H 6463   2.543   5.448   4.635 -2.2744 -1.0123  0.9633
   47MOL0     H 6464   2.482   5.471   4.331  0.2233 -0.1037 -0.0420
   47MOL0     H 6465   2.495   5.317   4.404  1.9802  0.1026 -2.1564
   47MOL0     H 6466   1.931   5.995   4.865 -1.5581  0.1464  1.5568
   47MOL0     H 6467   1.860   6.014   5.095 -1.0736  2.4280  0.1951
   47MOL0     H 6468   2.014   6.413   5.524 -2.1920  0.4585 -2.3148
   47MOL0     H 6469   1.998   6.374   5.779 -3.2969  1.8872  0.4625
   47MOL0     H 6470   1.971   7.593   6.787 -1.7519  0.5330  0.5953
   47MOL0     H 6471   2.122   7.568   6.975 -0.3878  1.8394  0.9061
   47MOL0     H 6472   2.040   7.317   7.458 -0.8899 -0.2235  1.0678
   47MOL0     H 6473   2.144   7.261   7.655 -2.2826  0.3975 -2.4336
   47MOL0     H 6474   2.289   7.217   7.816 -2.0371  3.4284 -2.6122
   47MOL0     H 6475   2.423   7.193   7.702  0.6356  1.2349 -0.7816
   47MOL0     H 6476   2.476   7.109   7.927  0.5336 -0.0078  1.5630
   47MOL0     H 6477   2.434   7.241   8.004 -0.4226 -1.6591  0.6683
   47MOL0     H 6478   2.658   7.293   7.798 -0.9967  1.3919 -1.2556
   47MOL0     H 6479   2.610   7.397   7.937 -4.5938 -1.6635  0.9086
   47MOL0     H 6480   2.827   7.251   7.957 -0.2370  3.3583  0.3220
   47MOL0     H 6481   2.720   7.109   7.953 -0.8556  1.0105 -1.2017
   47MOL0     H 6482   2.746   7.281   8.345 -1.2848 -1.7603  0.6066
   47MOL0     H 6483   2.439   7.571   7.597 -0.2179  1.1625 -0.8243
   47MOL0     H 6484   2.287   7.762   7.353 -0.9242 -1.7928  0.5537
   47MOL0     H 6485   2.445   7.723   7.402 -1.3924  1.3431  1.2268
   47MOL0     H 6486   2.380   7.640   7.262  2.3156 -2.6735  1.7719
   48MOL0     O 6487   5.970  11.155   2.442  0.4581 -0.5076 -0.0131
   48MOL0     C 6488   6.037  11.053   2.439 -0.3763 -0.1557  0.0883
   48MOL0     O 6489   6.171  11.050   2.416 -0.8381  0.5698  0.5283
   48MOL0     C 6490   6.243  11.144   2.347  0.6498  0.8064 -0.9979
   48MOL0     C 6491   6.187  11.245   2.265  0.2185 -0.7733 -0.5960
   48MOL0     C 6492   6.279  11.326   2.190 -0.2442 -0.6333  0.8325
   48MOL0     C 6493   6.421  11.290   2.180  0.0908 -0.0851  0.1884
   48MOL0     O 6494   6.518  11.338   2.100 -0.1366 -0.9492 -0.3046
   48MOL0     C 6495   6.480  11.445   2.010 -0.2662 -0.8516 -0.8201
   48MOL0     C 6496   6.608  11.490   1.949  0.1502  0.1130 -0.1954
   48MOL0     C 6497   6.674  11.385   1.866 -0.0779  0.4634  0.0621
   48MOL0     C 6498   6.605  11.336   1.741 -0.2440 -0.9250  0.5893
   48MOL0     C 6499   6.657  11.212   1.681  0.0099  0.6155  0.3736
   48MOL0     C 6500   6.813  11.197   1.663 -0.2572 -0.0518 -0.3206
   48MOL0     C 6501   6.867  11.056   1.625 -1.0530 -0.6184  0.3615
   48MOL0     C 6502   6.853  11.036   1.476 -0.0107  0.5465 -0.7091
   48MOL0     N 6503   6.908  11.155   1.401 -0.5855  0.2638  0.2021
   48MOL0     C 6504   7.046  11.182   1.387 -0.9413  0.1062  0.3566
   48MOL0     C 6505   7.060  11.269   1.288  0.4637  0.1347 -0.4243
   48MOL0     C 6506   7.180  11.306   1.221 -1.0347  0.2012 -0.5989
   48MOL0     C 6507   7.290  11.375   1.304  0.2096 -0.6311 -0.2200
   48MOL0     C 6508   7.230  11.508   1.361  1.0549  0.3845 -0.5970
   48MOL0     C 6509   7.331  11.613   1.393  1.2566  0.0972  0.9829
   48MOL0     O 6510   7.422  11.543   1.480  0.5431 -0.5514  0.5293
   48MOL0     C 6511   7.541  11.603   1.507  0.7045  0.0564  0.5651
   48MOL0     C 6512   7.654  11.528   1.540 -0.2102 -1.0541 -0.0371
   48MOL0     C 6513   7.777  11.583   1.582  0.6927  0.0983 -0.2511
   48MOL0     C 6514   7.888  11.481   1.602  0.6514  0.5300 -1.0864
   48MOL0     C 6515   7.789  11.729   1.580 -0.1021  1.0682  0.3268
   48MOL0     C 6516   7.917  11.803   1.629 -0.5993  0.6623 -0.3069
   48MOL0     O 6517   8.034  11.730   1.639  0.2647  0.1547  0.0003
   48MOL0     C 6518   8.150  11.794   1.638  0.3961  0.1813  0.4543
   48MOL0     C 6519   8.259  11.719   1.589  0.9401 -0.6343 -0.7552
   48MOL0     C 6520   8.383  11.778   1.569 -0.7759  0.5313 -0.6773
   48MOL0     C 6521   8.411  11.905   1.623  0.9835 -0.0749 -1.1174
   48MOL0     O 6522   8.542  11.940   1.600  0.7391 -0.9164 -0.9655
   48MOL0     C 6523   8.578  12.079   1.617  0.0949 -0.1428  0.1076
   48MOL0     C 6524   8.709  12.091   1.555 -0.8460 -0.0292  0.1628
   48MOL0     C 6525   8.760  12.233   1.588 -0.4825  0.0346  0.0069
   48MOL0     C 6526   8.907  12.251   1.562 -0.0356  0.2501  1.0449
   48MOL0     C 6527   8.959  12.384   1.604  0.1080 -0.5205 -0.1187
   48MOL0     C 6528   9.098  12.412   1.538 -0.2782  0.8111 -1.1901
   48MOL0     C 6529   9.081  12.522   1.441 -0.6212 -0.8276  0.2182
   48MOL0     C 6530   9.001  12.479   1.320 -0.0044 -0.0367 -0.2863
   48MOL0    Cl 6531   9.017  12.609   1.210  0.2297 -0.3429  0.0470
   48MOL0     C 6532   8.310  11.981   1.686  0.2059 -0.1374 -0.3640
   48MOL0     C 6533   8.181  11.926   1.685  0.1365 -0.2186  0.3534
   48MOL0     O 6534   7.904  11.917   1.665  0.2036  0.3169  0.0736
   48MOL0     C 6535   7.674  11.808   1.545 -0.7775  0.1272  0.0276
   48MOL0     C 6536   7.553  11.745   1.516  0.4398 -0.0864 -0.4251
   48MOL0     N 6537   6.931  11.291   1.229 -0.3150 -1.0045  0.1331
   48MOL0     N 6538   6.846  11.213   1.295 -0.0306  0.0038  0.5926
   48MOL0     C 6539   6.468  11.195   2.263  0.1463  0.5677 -0.3544
   48MOL0     C 6540   6.379  11.119   2.343 -0.4488 -0.2188 -0.4841
   48MOL0     C 6541   5.981  10.923   2.480  0.1848  0.0276  0.7483
   48MOL0     C 6542   6.074  10.812   2.479  0.1889  0.5700 -0.1312
   48MOL0     C 6543   6.038  10.681   2.523  0.0574  0.6417 -0.4607
   48MOL0     C 6544   5.905  10.662   2.560 -0.0561 -0.5413 -0.5968
   48MOL0     O 6545   5.856  10.538   2.591 -0.1282 -0.4449 -0.0620
   48MOL0     C 6546   5.948  10.421   2.581  0.1965 -0.4047  0.4381
   48MOL0     C 6547   5.873  10.294   2.641 -0.3080  0.5603 -0.2040
   48MOL0     C 6548   5.809  10.305   2.776 -0.5301 -0.5148  0.0547
   48MOL0     C 6549   5.908  10.316   2.893  0.3872 -0.1993  0.1502
   48MOL0     C 6550   5.838  10.332   3.022  0.2516 -0.8536  0.4692
   48MOL0     C 6551   5.791  10.331   3.136  0.3506  0.4664  0.4002
   48MOL0     C 6552   5.809  10.769   2.554 -0.6728  1.6388  0.0813
   48MOL0     C 6553   5.844  10.897   2.510  0.1585  0.0233 -0.4867
   48MOL0     C 6554   5.738  11.005   2.514 -0.8395 -0.2054  0.1039
   48MOL0     H 6555   6.080  11.260   2.249  0.2224  1.3677  1.0023
   48MOL0     H 6556   6.254  11.412   2.129 -1.0135 -1.0309  0.5749
   48MOL0     H 6557   6.448  11.530   2.070 -0.1719  0.6754 -2.8240
   48MOL0     H 6558   6.404  11.416   1.937 -2.6883 -3.0020  2.2869
   48MOL0     H 6559   6.584  11.579   1.891  1.4056  1.2235  0.8977
   48MOL0     H 6560   6.681  11.508   2.029  0.6092  1.3155 -0.8530
   48MOL0     H 6561   6.777  11.413   1.841  0.9833 -2.6109  0.4948
   48MOL0     H 6562   6.691  11.292   1.922  0.9197  0.7734  0.2942
   48MOL0     H 6563   6.498  11.319   1.758 -0.2028 -1.4414  0.3191
   48MOL0     H 6564   6.610  11.404   1.655 -2.7571 -3.5637 -1.8443
   48MOL0     H 6565   6.613  11.199   1.582  0.8612 -0.2584  0.0888
   48MOL0     H 6566   6.623  11.130   1.745 -0.4607 -1.1614 -2.0361
   48MOL0     H 6567   6.845  11.282   1.602 -0.3385 -0.1356 -0.4802
   48MOL0     H 6568   6.861  11.222   1.758  0.6264  1.5097 -1.1437
   48MOL0     H 6569   6.797  10.991   1.679 -1.0781 -0.4955  0.4758
   48MOL0     H 6570   6.968  11.033   1.658  0.0733  1.4602 -1.3766
   48MOL0     H 6571   6.907  10.950   1.435 -1.5682  0.3403 -2.4451
   48MOL0     H 6572   6.745  11.027   1.457 -0.2150  2.4419 -0.6253
   48MOL0     H 6573   7.125  11.136   1.445 -0.8523 -1.0522 -0.6378
   48MOL0     H 6574   7.156  11.379   1.143 -1.9504  0.3904 -0.1559
   48MOL0     H 6575   7.222  11.217   1.173 -0.3784 -0.3771  0.9811
   48MOL0     H 6576   7.313  11.337   1.404  0.9781  4.2250  1.7005
   48MOL0     H 6577   7.378  11.391   1.242 -0.4411  1.7810 -0.6185
   48MOL0     H 6578   7.158  11.544   1.286 -2.5445 -4.4451  0.0882
   48MOL0     H 6579   7.171  11.495   1.452 -1.9558  0.0511 -2.4362
   48MOL0     H 6580   7.382  11.628   1.298 -1.5469  0.5268 -0.5506
   48MOL0     H 6581   7.294  11.707   1.435  0.2094 -1.5076  3.9836
   48MOL0     H 6582   7.625  11.423   1.541  0.1261 -1.1996 -1.8030
   48MOL0     H 6583   7.980  11.516   1.555  0.3135  1.8226 -0.8267
   48MOL0     H 6584   7.860  11.387   1.553  3.3216 -1.0000  0.1190
   48MOL0     H 6585   7.905  11.479   1.710 -0.3448  1.8369 -0.8696
   48MOL0     H 6586   8.241  11.619   1.552 -0.3711 -0.2987 -1.0697
   48MOL0     H 6587   8.459  11.726   1.511 -0.3198  0.0690  0.3077
   48MOL0     H 6588   8.503  12.144   1.570  2.7922  1.2590 -2.5963
   48MOL0     H 6589   8.588  12.097   1.725  0.6400 -0.6793  0.1536
   48MOL0     H 6590   8.783  12.021   1.594 -0.0272  1.0891  0.6596
   48MOL0     H 6591   8.705  12.078   1.446  0.2825  2.6185 -0.2691
   48MOL0     H 6592   8.738  12.265   1.690 -0.2828  0.0100  0.0575
   48MOL0     H 6593   8.712  12.310   1.527 -0.0654  0.7789  0.6026
   48MOL0     H 6594   8.912  12.243   1.453 -1.6443  1.6894  0.8270
   48MOL0     H 6595   8.962  12.181   1.626  0.7455  1.7324  2.0681
   48MOL0     H 6596   8.890  12.466   1.582  2.7664  1.3277 -2.2135
   48MOL0     H 6597   8.973  12.383   1.713 -0.6313  0.7005  0.0071
   48MOL0     H 6598   9.143  12.332   1.479 -1.6606  0.0297 -1.2174
   48MOL0     H 6599   9.157  12.438   1.626 -0.3892 -0.8767 -0.5944
   48MOL0     H 6600   9.179  12.563   1.416 -0.5718 -1.6163 -0.9959
   48MOL0     H 6601   9.018  12.603   1.479 -2.8054 -2.1018 -0.4841
   48MOL0     H 6602   8.895  12.458   1.342  0.9463 -1.0688  4.6074
   48MOL0     H 6603   9.039  12.384   1.283  0.0493 -0.0290 -0.2502
   48MOL0     H 6604   8.332  12.075   1.735  2.1631 -1.3713  1.3635
   48MOL0     H 6605   8.106  11.990   1.730 -1.4152 -0.1768 -2.0593
   48MOL0     H 6606   7.685  11.916   1.546  2.2091 -0.0441 -1.7047
   48MOL0     H 6607   7.467  11.809   1.499  0.8931  0.5474 -0.3688
   48MOL0     H 6608   6.575  11.174   2.268 -0.0029 -1.1393 -2.6941
   48MOL0     H 6609   6.419  11.036   2.400 -0.1492  0.6829  0.6590
   48MOL0     H 6610   6.179  10.823   2.455  0.5429  1.3805  1.6491
   48MOL0     H 6611   6.110  10.601   2.537 -2.3563 -1.2291  2.4232
   48MOL0     H 6612   5.978  10.407   2.477  1.0734 -0.0692  0.6406
   48MOL0     H 6613   6.037  10.437   2.642  3.1966 -0.2956 -3.6103
   48MOL0     H 6614   5.961  10.230   2.656 -0.1843  1.0711  1.5288
   48MOL0     H 6615   5.806  10.235   2.578  1.8933 -2.2548 -0.1463
   48MOL0     H 6616   5.739  10.390   2.773  1.0546  0.8211 -3.0260
   48MOL0     H 6617   5.749  10.217   2.800 -0.0207 -0.7361  0.5228
   48MOL0     H 6618   5.984  10.394   2.886  1.2723 -1.1988 -3.0119
   48MOL0     H 6619   5.959  10.219   2.894 -3.3355 -2.3604 -0.8249
   48MOL0     H 6620   5.771  10.332   3.241  1.3684 -0.5682  0.6275
   48MOL0     H 6621   5.704  10.752   2.576 -0.7762 -1.8016 -2.2364
   48MOL0     H 6622   5.763  11.079   2.590  0.1999  0.3662 -0.7627
   48MOL0     H 6623   5.739  11.057   2.418  0.1552 -0.0667  0.1756
   48MOL0     H 6624   5.640  10.966   2.541 -1.6372  2.0842  0.7371
   49MOL0     O 6625   7.742   1.189   7.536 -0.0473  0.0029 -0.0307
   49MOL0     C 6626   7.649   1.125   7.497 -0.5247 -0.4702 -0.5207
   49MOL0     O 6627   7.525   1.179   7.483  0.0735  0.5529 -0.3179
   49MOL0     C 6628   7.493   1.306   7.530  0.4550  0.5227 -0.0812
   49MOL0     C 6629   7.463   1.330   7.660 -0.2946 -0.3597 -0.5917
   49MOL0     C 6630   7.424   1.461   7.698 -0.1650 -0.9320  0.3765
   49MOL0     C 6631   7.446   1.577   7.614  0.1148 -0.2102 -0.5450
   49MOL0     O 6632   7.407   1.705   7.667  0.2562  0.1208 -0.1259
   49MOL0     C 6633   7.438   1.830   7.590  0.6705 -0.1631  0.1606
   49MOL0     C 6634   7.584   1.883   7.597  1.3417 -0.0351  0.0451
   49MOL0     C 6635   7.602   2.013   7.682  0.1623  0.0247  0.4507
   49MOL0     C 6636   7.716   2.090   7.623  0.0969 -0.0899 -0.1141
   49MOL0     C 6637   7.706   2.224   7.685  0.3856 -0.9351  0.5259
   49MOL0     C 6638   7.839   2.292   7.681  0.3837 -1.2396 -0.6453
   49MOL0     C 6639   7.820   2.428   7.762  0.2394  0.8176 -0.1092
   49MOL0     C 6640   7.773   2.538   7.668  0.6289 -0.1172  0.2053
   49MOL0     N 6641   7.760   2.655   7.760  0.5018  0.0620  0.4316
   49MOL0     C 6642   7.848   2.763   7.756  0.4361 -0.6682 -0.5107
   49MOL0     C 6643   7.786   2.856   7.841  0.3037 -0.6755  0.7097
   49MOL0     C 6644   7.834   2.994   7.854  0.1352 -0.5334  0.8172
   49MOL0     C 6645   7.928   3.008   7.977  0.3185  0.1738 -0.0424
   49MOL0     C 6646   8.061   2.930   7.945 -0.1202 -0.0532 -0.3725
   49MOL0     C 6647   8.181   2.992   8.012 -0.2420 -0.3655 -0.3393
   49MOL0     O 6648   8.296   2.980   7.927  0.2468 -1.0453 -0.3656
   49MOL0     C 6649   8.413   2.944   7.989 -0.2598 -0.4521  0.5105
   49MOL0     C 6650   8.465   2.996   8.107 -0.5210  0.0133 -0.0036
   49MOL0     C 6651   8.581   2.954   8.170  0.2653  0.8078  0.2180
   49MOL0     C 6652   8.628   3.031   8.291 -0.2338 -0.0990  0.2766
   49MOL0     C 6653   8.643   2.835   8.115  0.7309  0.2665 -1.2427
   49MOL0     C 6654   8.755   2.767   8.175 -0.3101  0.2295  0.9772
   49MOL0     O 6655   8.788   2.641   8.125 -0.5282 -0.4335  0.3105
   49MOL0     C 6656   8.918   2.597   8.139  0.7069  0.2397 -0.5913
   49MOL0     C 6657   8.988   2.557   8.023  0.0910 -0.3900 -0.3850
   49MOL0     C 6658   9.125   2.534   8.023 -0.6439  0.9158  0.0566
   49MOL0     C 6659   9.191   2.507   8.147 -0.2422  0.5372  0.4669
   49MOL0     O 6660   9.323   2.468   8.133 -0.0188  1.0468  0.3166
   49MOL0     C 6661   9.392   2.450   8.255  0.7863  0.2760  0.1653
   49MOL0     C 6662   9.534   2.435   8.229  0.6505  0.7536  0.2782
   49MOL0     C 6663   9.557   2.293   8.168  0.3388 -0.4893 -0.8861
   49MOL0     C 6664   9.700   2.277   8.115  0.6692 -0.6459 -0.9388
   49MOL0     C 6665   9.735   2.157   8.027 -0.3165 -0.3824  0.7209
   49MOL0     C 6666   9.687   2.017   8.079  0.1362 -0.0903 -0.3843
   49MOL0     C 6667   9.755   1.973   8.209 -0.1469 -0.5362  0.2567
   49MOL0     C 6668   9.709   1.836   8.262 -0.5781 -0.3657  0.3677
   49MOL0    Cl 6669   9.699   1.710   8.138 -0.2081  0.1241 -0.6443
   49MOL0     C 6670   9.121   2.535   8.266  0.4110 -0.4636  0.1650
   49MOL0     C 6671   8.989   2.585   8.259  0.5027 -0.4506 -0.1733
   49MOL0     O 6672   8.811   2.821   8.269  0.4895 -0.2251 -0.0603
   49MOL0     C 6673   8.577   2.770   8.004 -0.5528 -0.2251 -1.5273
   49MOL0     C 6674   8.469   2.827   7.945 -0.3070  0.2545 -0.6129
   49MOL0     N 6675   7.683   2.801   7.904  0.3760 -0.1169  0.1464
   49MOL0     N 6676   7.669   2.685   7.858  0.7053 -0.3718 -0.0237
   49MOL0     C 6677   7.486   1.551   7.482  0.0390  1.1557  0.7148
   49MOL0     C 6678   7.515   1.417   7.447  0.2486  0.2869 -0.8302
   49MOL0     C 6679   7.656   0.973   7.477  0.2014  0.9061  0.0380
   49MOL0     C 6680   7.554   0.900   7.415  1.6599  0.0643  0.6592
   49MOL0     C 6681   7.556   0.764   7.384  0.2964 -0.0367  0.2540
   49MOL0     C 6682   7.679   0.693   7.395 -0.4810  0.5260 -0.8746
   49MOL0     O 6683   7.688   0.570   7.339  0.5338  0.0736  0.3897
   49MOL0     C 6684   7.827   0.535   7.309  0.3838 -0.4849 -0.6361
   49MOL0     C 6685   7.823   0.414   7.223 -0.5863 -0.1495  0.2281
   49MOL0     C 6686   7.733   0.302   7.293  0.5810 -0.4682 -0.9112
   49MOL0     C 6687   7.731   0.185   7.187 -0.4274  0.0957 -0.2100
   49MOL0     C 6688   7.651   0.232   7.070 -0.1474 -0.4364 -0.4450
   49MOL0     C 6689   7.580   0.282   6.987  0.2836 -1.0162 -0.0256
   49MOL0     C 6690   7.787   0.762   7.451  0.0083  0.1737  0.2833
   49MOL0     C 6691   7.777   0.895   7.497  0.5353  0.2788  0.2333
   49MOL0     C 6692   7.898   0.945   7.563 -0.6061 -0.0604 -0.0040
   49MOL0     H 6693   7.454   1.246   7.728  0.4170  0.1706  0.1690
   49MOL0     H 6694   7.416   1.496   7.800  0.2544  3.8834 -0.9887
   49MOL0     H 6695   7.371   1.902   7.638  0.4262 -1.8882  2.6218
   49MOL0     H 6696   7.413   1.821   7.484  4.4306  0.9406 -0.9773
   49MOL0     H 6697   7.652   1.808   7.639  2.3255  2.9900  4.5613
   49MOL0     H 6698   7.614   1.894   7.492  0.0262 -0.4471 -0.3985
   49MOL0     H 6699   7.507   2.067   7.697 -1.6137 -2.4469 -1.1516
   49MOL0     H 6700   7.623   1.997   7.788 -1.3794 -0.5661  0.6891
   49MOL0     H 6701   7.812   2.042   7.643 -0.4796 -1.4559 -0.5143
   49MOL0     H 6702   7.714   2.091   7.514  2.2464 -2.0943 -0.2367
   49MOL0     H 6703   7.662   2.225   7.785 -0.5859 -1.3721  0.1261
   49MOL0     H 6704   7.635   2.279   7.621  2.3113 -0.6555 -1.4976
   49MOL0     H 6705   7.916   2.228   7.724  0.1855  0.2215  2.1199
   49MOL0     H 6706   7.873   2.316   7.580  2.6076  1.5304  0.6030
   49MOL0     H 6707   7.916   2.459   7.806 -0.0472  1.7352 -0.1073
   49MOL0     H 6708   7.749   2.414   7.843 -0.9261 -1.0901 -1.3917
   49MOL0     H 6709   7.850   2.540   7.590  0.8916 -0.7606  0.4430
   49MOL0     H 6710   7.678   2.515   7.618 -0.4557  0.0330  2.1070
   49MOL0     H 6711   7.932   2.778   7.689 -0.1897  0.5612 -1.0527
   49MOL0     H 6712   7.754   3.069   7.859 -0.9497 -1.6524  0.6301
   49MOL0     H 6713   7.895   3.023   7.768  0.7848 -2.0871  0.7300
   49MOL0     H 6714   7.949   3.116   7.982  2.4352 -0.2309  0.9749
   49MOL0     H 6715   7.888   2.990   8.077  1.1290  1.9386  0.6486
   49MOL0     H 6716   8.047   2.825   7.972  2.4838 -0.3185  0.1804
   49MOL0     H 6717   8.079   2.941   7.838 -0.6691  0.2142 -0.4431
   49MOL0     H 6718   8.181   3.100   8.029 -0.7432 -0.5358  0.8845
   49MOL0     H 6719   8.199   2.939   8.106 -0.2408 -2.9921 -1.7359
   49MOL0     H 6720   8.403   3.080   8.138 -3.1495 -1.7302 -0.1566
   49MOL0     H 6721   8.737   3.042   8.288 -0.2442  0.2874  1.0525
   49MOL0     H 6722   8.616   2.983   8.388 -0.1100  1.0999  0.9091
   49MOL0     H 6723   8.573   3.126   8.295 -2.4220 -1.3344  1.0734
   49MOL0     H 6724   8.928   2.559   7.932  2.7785  0.1513 -2.2540
   49MOL0     H 6725   9.182   2.517   7.932  1.1754  0.2151  1.2760
   49MOL0     H 6726   9.367   2.540   8.311 -0.0457  1.9062 -2.5839
   49MOL0     H 6727   9.347   2.362   8.302  1.1748  0.1902  0.3797
   49MOL0     H 6728   9.562   2.518   8.164  2.6586  0.8993  1.2685
   49MOL0     H 6729   9.598   2.462   8.313  4.0377 -1.9215 -1.1841
   49MOL0     H 6730   9.497   2.274   8.078  0.3224  0.2819 -1.0396
   49MOL0     H 6731   9.545   2.217   8.246  0.6802 -0.5976 -0.9388
   49MOL0     H 6732   9.751   2.283   8.211 -0.3911  0.6583 -0.4173
   49MOL0     H 6733   9.730   2.363   8.054 -1.0591  1.9854  1.6194
   49MOL0     H 6734   9.701   2.174   7.924 -0.5375  0.0058  0.8567
   49MOL0     H 6735   9.844   2.145   8.021 -0.4558 -2.0420  1.0311
   49MOL0     H 6736   9.704   1.953   7.992  2.2047  0.0596 -0.1429
   49MOL0     H 6737   9.581   2.035   8.096  0.2439  1.0532 -0.7963
   49MOL0     H 6738   9.727   2.045   8.286 -0.6650  0.8449 -1.1839
   49MOL0     H 6739   9.865   1.972   8.209 -0.1260 -2.1306  1.5878
   49MOL0     H 6740   9.607   1.841   8.300 -1.7321 -3.7594 -1.8457
   49MOL0     H 6741   9.776   1.807   8.343  0.2007 -2.3976 -0.9336
   49MOL0     H 6742   9.157   2.532   8.369 -2.5392 -1.1262  1.3073
   49MOL0     H 6743   8.936   2.604   8.351  3.0359  1.2795  1.0410
   49MOL0     H 6744   8.629   2.683   7.963  0.4190  0.2802 -1.4030
   49MOL0     H 6745   8.408   2.785   7.867 -1.5616 -1.5172  1.2252
   49MOL0     H 6746   7.498   1.614   7.395 -0.1517 -0.5586 -0.6077
   49MOL0     H 6747   7.569   1.395   7.356  0.1573 -1.6965 -0.4696
   49MOL0     H 6748   7.467   0.951   7.373  2.4866 -0.6524 -2.1280
   49MOL0     H 6749   7.471   0.725   7.330  0.7520  0.2947 -0.7277
   49MOL0     H 6750   7.902   0.603   7.268  0.9354 -0.1359  0.8778
   49MOL0     H 6751   7.866   0.506   7.407  1.7451  1.1827 -0.6336
   49MOL0     H 6752   7.927   0.381   7.219 -1.2420 -2.2250 -0.9223
   49MOL0     H 6753   7.793   0.441   7.121  1.3300 -1.6253 -0.7876
   49MOL0     H 6754   7.775   0.261   7.385 -3.0669 -2.5417  0.0219
   49MOL0     H 6755   7.636   0.336   7.329  1.9090  0.5747  1.9937
   49MOL0     H 6756   7.688   0.100   7.240  1.1621  0.7222  2.2270
   49MOL0     H 6757   7.836   0.172   7.159 -0.1531 -1.7022  1.4563
   49MOL0     H 6758   7.520   0.340   6.920  0.7597  0.9374  1.1548
   49MOL0     H 6759   7.875   0.702   7.474 -0.6495 -0.7988  0.3251
   49MOL0     H 6760   7.968   0.862   7.573  1.1849  0.1764 -6.3483
   49MOL0     H 6761   7.946   1.029   7.512 -0.1858  0.4848  1.2468
   49MOL0     H 6762   7.865   0.983   7.660  0.2781 -2.1001  1.1478
   50MOL0     O 6763   2.301   6.571   9.464 -0.3480  0.2720  0.3919
   50MOL0     C 6764   2.289   6.491   9.378 -0.4599 -0.2431  0.4788
   50MOL0     O 6765   2.402   6.433   9.312 -0.0665 -0.5448 -0.8278
   50MOL0     C 6766   2.519   6.505   9.311 -0.4208  0.0935  0.9414
   50MOL0     C 6767   2.546   6.625   9.251 -0.1953  0.5765 -0.1573
   50MOL0     C 6768   2.674   6.677   9.234  0.7393  0.6845 -0.5577
   50MOL0     C 6769   2.786   6.610   9.305  0.0974  0.0459  0.1805
   50MOL0     O 6770   2.919   6.643   9.297 -0.8410  0.2220 -0.2013
   50MOL0     C 6771   2.938   6.788   9.278  0.5529 -0.7615  0.1552
   50MOL0     C 6772   2.986   6.815   9.142 -0.2403 -0.0847 -0.1554
   50MOL0     C 6773   3.138   6.819   9.122  0.6655 -0.4364  0.3696
   50MOL0     C 6774   3.208   6.943   9.159 -0.3497 -0.0704 -0.4810
   50MOL0     C 6775   3.369   6.943   9.152 -0.0748 -0.2765  0.5591
   50MOL0     C 6776   3.413   6.906   9.010 -0.7281 -0.3284  0.6225
   50MOL0     C 6777   3.564   6.916   8.990  0.0529 -0.7455  0.0060
   50MOL0     C 6778   3.612   6.859   8.856  0.8131  0.5383 -0.0689
   50MOL0     N 6779   3.764   6.879   8.856 -0.1202  0.1178 -0.3775
   50MOL0     C 6780   3.852   6.799   8.927 -0.7463 -1.7556  0.1976
   50MOL0     C 6781   3.967   6.862   8.903 -0.0465 -0.1819  0.8360
   50MOL0     C 6782   4.105   6.803   8.939  0.0596  1.6168 -1.1429
   50MOL0     C 6783   4.216   6.892   8.880 -0.2639  0.9090  0.2051
   50MOL0     C 6784   4.341   6.805   8.872  0.5478  0.0429  1.1002
   50MOL0     C 6785   4.476   6.881   8.873 -0.2132 -0.3724  0.4785
   50MOL0     O 6786   4.588   6.794   8.839 -1.3003 -0.4100  0.4192
   50MOL0     C 6787   4.718   6.855   8.860  0.2309  0.9182 -0.6866
   50MOL0     C 6788   4.741   6.989   8.912  0.2332 -0.8628  0.3738
   50MOL0     C 6789   4.869   7.047   8.917 -0.1731  0.4314 -0.1747
   50MOL0     C 6790   4.873   7.183   8.970  0.0352  0.4758 -0.3306
   50MOL0     C 6791   4.981   6.950   8.891  0.2393  0.2851 -0.9611
   50MOL0     C 6792   5.122   6.987   8.924 -0.0261  0.5045 -1.0043
   50MOL0     O 6793   5.222   6.914   8.863  0.6525 -0.4288 -0.4805
   50MOL0     C 6794   5.353   6.937   8.888  0.1435 -0.2352  0.2224
   50MOL0     C 6795   5.426   6.836   8.843  0.1948  0.5110  0.1671
   50MOL0     C 6796   5.562   6.830   8.873 -0.5933  0.2281  0.2671
   50MOL0     C 6797   5.633   6.926   8.941 -0.3314  1.4935  1.1876
   50MOL0     O 6798   5.766   6.908   8.976  0.8954  0.7530 -0.6171
   50MOL0     C 6799   5.792   6.911   9.115 -0.3396 -0.5412 -0.9389
   50MOL0     C 6800   5.743   6.787   9.180 -0.0225 -0.1955 -1.1427
   50MOL0     C 6801   5.818   6.652   9.162 -0.2948 -0.2304  0.0583
   50MOL0     C 6802   5.729   6.538   9.200 -0.1019 -0.1223  0.4223
   50MOL0     C 6803   5.798   6.402   9.169 -0.3932 -0.3031 -0.3629
   50MOL0     C 6804   5.835   6.372   9.027 -0.3179 -0.2952 -0.2412
   50MOL0     C 6805   5.869   6.220   9.007  0.4197 -0.2888 -0.5992
   50MOL0     C 6806   6.003   6.208   9.077 -0.6657  1.0194 -0.8070
   50MOL0    Cl 6807   6.062   6.035   9.060 -0.1551 -0.1415  0.4521
   50MOL0     C 6808   5.558   7.037   8.987 -0.1218 -0.3264 -0.1326
   50MOL0     C 6809   5.420   7.041   8.961 -0.2773  0.0893 -0.7038
   50MOL0     O 6810   5.136   7.060   9.019 -0.3785  0.6878  0.2085
   50MOL0     C 6811   4.952   6.820   8.846 -1.3469 -0.1577 -0.0971
   50MOL0     C 6812   4.822   6.774   8.833 -0.8319 -0.1791 -0.4572
   50MOL0     N 6813   3.940   6.976   8.827 -0.8615 -0.1441 -0.2983
   50MOL0     N 6814   3.818   6.998   8.817 -0.6251 -0.1123 -0.0361
   50MOL0     C 6815   2.755   6.487   9.374  0.4914  0.3974 -0.9356
   50MOL0     C 6816   2.626   6.441   9.366  0.3869  0.5989 -0.2453
   50MOL0     C 6817   2.155   6.447   9.331  0.1448 -0.2784  0.5276
   50MOL0     C 6818   2.141   6.368   9.214 -0.9539  0.0779  0.3532
   50MOL0     C 6819   2.024   6.319   9.162 -0.5653 -0.5452 -0.0095
   50MOL0     C 6820   1.898   6.357   9.218  0.2598 -0.7619 -1.4027
   50MOL0     O 6821   1.781   6.305   9.181 -0.2122  0.3300 -0.0483
   50MOL0     C 6822   1.774   6.193   9.096 -0.6410  0.3729 -0.0246
   50MOL0     C 6823   1.770   6.239   8.952 -0.1071 -0.2746 -0.1685
   50MOL0     C 6824   1.735   6.134   8.852  0.7198 -0.0706  0.0981
   50MOL0     C 6825   1.738   6.191   8.703  0.6887  0.4946 -0.3152
   50MOL0     C 6826   1.882   6.206   8.676  0.4284 -0.0801 -0.2318
   50MOL0     C 6827   2.000   6.194   8.650 -0.1030 -0.5251  0.6746
   50MOL0     C 6828   1.901   6.442   9.335 -0.6092  0.2658 -0.1499
   50MOL0     C 6829   2.030   6.477   9.397 -0.1642 -0.6079 -0.5340
   50MOL0     C 6830   2.021   6.535   9.535  0.3335  0.6863  0.4795
   50MOL0     H 6831   2.466   6.682   9.205 -2.3220  0.7022  3.4008
   50MOL0     H 6832   2.682   6.771   9.180  2.2639 -0.6279 -2.7605
   50MOL0     H 6833   3.014   6.822   9.349 -1.0908  1.0875  1.1401
   50MOL0     H 6834   2.857   6.853   9.313  0.2871 -1.6414  1.2239
   50MOL0     H 6835   2.929   6.747   9.078 -0.2237  2.9283 -3.6763
   50MOL0     H 6836   2.939   6.911   9.122 -3.7295 -1.7798 -0.8288
   50MOL0     H 6837   3.190   6.737   9.172  3.1655  0.1276 -1.0941
   50MOL0     H 6838   3.154   6.805   9.015 -1.9243 -2.5410  0.1446
   50MOL0     H 6839   3.178   7.009   9.078  0.0766 -2.2731 -2.5340
   50MOL0     H 6840   3.183   6.975   9.261 -0.5859  1.6099 -1.0474
   50MOL0     H 6841   3.404   6.874   9.229 -2.3314 -1.4683  0.6031
   50MOL0     H 6842   3.414   7.038   9.182 -0.4975 -0.2065  0.9715
   50MOL0     H 6843   3.382   6.803   8.988  0.3229 -0.4284 -0.5017
   50MOL0     H 6844   3.366   6.970   8.935  0.0262 -0.4436  0.0385
   50MOL0     H 6845   3.610   6.847   9.061  0.9726 -0.4637 -0.3001
   50MOL0     H 6846   3.591   7.022   8.999  2.4686 -1.2808 -0.2222
   50MOL0     H 6847   3.596   6.753   8.835  1.7504  0.7089 -1.7591
   50MOL0     H 6848   3.563   6.907   8.771 -3.5776 -0.3493  1.6855
   50MOL0     H 6849   3.833   6.704   8.977 -0.2868 -2.6905 -1.3264
   50MOL0     H 6850   4.114   6.702   8.898  2.5509  1.7569 -1.0879
   50MOL0     H 6851   4.104   6.792   9.048 -1.8795 -0.2752 -1.2696
   50MOL0     H 6852   4.189   6.925   8.779  1.2169  1.2846 -0.0982
   50MOL0     H 6853   4.223   6.974   8.951 -1.2393  0.7510  0.5028
   50MOL0     H 6854   4.355   6.748   8.964 -1.3026 -1.7152  0.3649
   50MOL0     H 6855   4.333   6.737   8.786  2.4910 -0.5826  1.3460
   50MOL0     H 6856   4.483   6.970   8.812 -1.9029 -2.1487 -2.5485
   50MOL0     H 6857   4.488   6.916   8.976 -0.2293  1.3023 -0.0687
   50MOL0     H 6858   4.665   7.065   8.929  2.2932  1.1085  1.1282
   50MOL0     H 6859   4.807   7.212   9.053  2.9450  4.5744  0.9215
   50MOL0     H 6860   4.844   7.251   8.889 -3.1622 -0.5423 -0.1709
   50MOL0     H 6861   4.971   7.206   9.013 -0.0882 -0.6319  0.5820
   50MOL0     H 6862   5.389   6.750   8.789  3.0184 -0.0011 -1.1713
   50MOL0     H 6863   5.622   6.749   8.834 -2.8505 -1.2762 -0.2910
   50MOL0     H 6864   5.898   6.911   9.142 -0.6714 -1.3786  0.4469
   50MOL0     H 6865   5.753   7.003   9.160  0.6423  0.7259 -2.5510
   50MOL0     H 6866   5.749   6.809   9.286 -0.4954 -2.4628 -0.5776
   50MOL0     H 6867   5.637   6.768   9.160  0.2575 -4.0033  0.0752
   50MOL0     H 6868   5.910   6.654   9.222  0.7031  4.0760 -1.2767
   50MOL0     H 6869   5.857   6.646   9.060  2.5027  1.3098  0.9093
   50MOL0     H 6870   5.645   6.544   9.130  0.8606 -2.2328 -1.0148
   50MOL0     H 6871   5.688   6.535   9.301 -0.7008 -2.2992  0.1650
   50MOL0     H 6872   5.895   6.388   9.217 -1.3362 -2.8373  1.0050
   50MOL0     H 6873   5.732   6.323   9.206  0.4961 -2.1091 -2.4144
   50MOL0     H 6874   5.918   6.435   8.994  0.5678 -1.4162 -0.2105
   50MOL0     H 6875   5.754   6.402   8.961 -3.2038  1.9641  3.8410
   50MOL0     H 6876   5.876   6.207   8.898 -0.8440 -2.7330 -0.4674
   50MOL0     H 6877   5.791   6.152   9.042  0.8469 -0.5650 -0.1714
   50MOL0     H 6878   5.992   6.230   9.183  0.0294  1.0846 -0.7422
   50MOL0     H 6879   6.077   6.278   9.037  4.2116 -2.5806  0.8544
   50MOL0     H 6880   5.593   7.126   9.037 -3.9626  1.0449  0.3895
   50MOL0     H 6881   5.362   7.120   9.006 -0.2925 -0.9451  1.1707
   50MOL0     H 6882   5.024   6.745   8.816 -1.6816 -1.0209  1.1898
   50MOL0     H 6883   4.798   6.675   8.796  0.3432 -0.2418 -1.0722
   50MOL0     H 6884   2.837   6.429   9.414 -1.1773 -1.9374 -0.6921
   50MOL0     H 6885   2.611   6.342   9.407  1.2725  0.5776  0.0397
   50MOL0     H 6886   2.225   6.341   9.151 -1.1285  1.0460 -0.3202
   50MOL0     H 6887   2.038   6.250   9.079 -2.0330 -1.4630  0.4707
   50MOL0     H 6888   1.864   6.134   9.116 -1.0555  0.4140  2.1893
   50MOL0     H 6889   1.681   6.149   9.134 -0.2107  0.5329  1.2468
   50MOL0     H 6890   1.870   6.274   8.924  0.6805 -2.9452 -0.9375
   50MOL0     H 6891   1.705   6.327   8.951  0.5306  0.2526  1.3958
   50MOL0     H 6892   1.814   6.059   8.851 -0.1328 -1.0004  1.0994
   50MOL0     H 6893   1.636   6.103   8.885  0.5741  0.4453  0.1580
   50MOL0     H 6894   1.689   6.287   8.718  1.5138  1.4204 -2.9394
   50MOL0     H 6895   1.683   6.131   8.630 -0.4082 -0.1980  1.0221
   50MOL0     H 6896   2.100   6.184   8.613 -0.1811 -0.0181  0.3247
   50MOL0     H 6897   1.815   6.469   9.396  0.9448  0.8858  1.8701
   50MOL0     H 6898   1.923   6.525   9.583  0.5862  1.8791  1.2786
   50MOL0     H 6899   2.089   6.484   9.603  0.1886  0.9919  0.8514
   50MOL0     H 6900   2.042   6.642   9.537 -1.9211  1.1771  1.5371
   51MOL0     O 6901  11.103   8.827   5.066 -0.2815 -0.6969  0.6655
   51MOL0     C 6902  11.089   8.852   4.947 -0.3613  0.0253 -0.5224
   51MOL0     O 6903  11.140   8.966   4.892  0.3813  0.2927 -0.1669
   51MOL0     C 6904  11.198   9.058   4.968  0.1580  0.6538 -0.0147
   51MOL0     C 6905  11.139   9.181   4.976  0.1326  0.0943 -1.0284
   51MOL0     C 6906  11.177   9.293   5.061  0.7959 -0.0752 -1.2025
   51MOL0     C 6907  11.300   9.279   5.127 -0.3018  0.2298 -0.2154
   51MOL0     O 6908  11.349   9.387   5.192  0.4920  0.1605 -0.2143
   51MOL0     C 6909  11.444   9.364   5.291  0.1133  0.0655 -0.5384
   51MOL0     C 6910  11.461   9.489   5.374 -0.1738  0.2573  0.5842
   51MOL0     C 6911  11.590   9.485   5.460 -0.0464 -0.9244 -0.1058
   51MOL0     C 6912  11.623   9.619   5.509  0.6186 -0.1308  0.0402
   51MOL0     C 6913  11.727   9.624   5.618 -0.6734  0.3311 -0.2826
   51MOL0     C 6914  11.862   9.602   5.570 -0.4066 -0.0786  0.2395
   51MOL0     C 6915  11.948   9.578   5.700  0.0272  0.4588  0.2661
   51MOL0     C 6916  12.019   9.713   5.751  0.2223  0.3953  0.4092
   51MOL0     N 6917  12.112   9.772   5.655 -0.7116 -0.0027 -0.1324
   51MOL0     C 6918  12.218   9.704   5.599 -0.2612 -0.0649  0.2755
   51MOL0     C 6919  12.293   9.790   5.524 -0.0870  0.7684  0.2115
   51MOL0     C 6920  12.413   9.758   5.435 -0.2647  0.3820 -0.1296
   51MOL0     C 6921  12.393   9.827   5.292 -0.4210 -1.1796 -0.2570
   51MOL0     C 6922  12.505   9.823   5.190  0.5949 -0.1011  0.3198
   51MOL0     C 6923  12.539   9.678   5.145 -0.6973 -0.8581  0.3220
   51MOL0     O 6924  12.657   9.675   5.062 -0.0470  0.0217 -0.0441
   51MOL0     C 6925  12.777   9.723   5.109  1.1689 -0.9237 -0.3049
   51MOL0     C 6926  12.868   9.762   5.012  0.5224 -0.0255  0.4359
   51MOL0     C 6927  12.991   9.813   5.041 -0.5304  0.6816 -0.4995
   51MOL0     C 6928  13.071   9.851   4.924 -0.6777  0.3895  0.2602
   51MOL0     C 6929  13.017   9.838   5.178  0.9729 -0.1507  0.1792
   51MOL0     C 6930  13.142   9.909   5.216  0.0355 -0.0067 -0.1599
   51MOL0     O 6931  13.237   9.837   5.283 -0.7907 -0.5802  0.5834
   51MOL0     C 6932  13.347   9.922   5.294 -0.0797  0.4970 -0.6063
   51MOL0     C 6933  13.453   9.923   5.196 -0.7937 -0.1879 -0.4072
   51MOL0     C 6934  13.559  10.010   5.218  0.3324 -0.3278  0.0886
   51MOL0     C 6935  13.565  10.111   5.333 -0.3045  0.4396 -0.8798
   51MOL0     O 6936  13.668  10.201   5.351 -0.1560 -0.1588 -0.2146
   51MOL0     C 6937  13.728  10.243   5.228  1.3608 -0.3163  0.0378
   51MOL0     C 6938  13.816  10.365   5.245 -0.2959  0.0589  1.3039
   51MOL0     C 6939  13.889  10.405   5.114 -0.3925  0.1124  0.2017
   51MOL0     C 6940  13.993  10.506   5.146 -0.8114  0.2264  0.2751
   51MOL0     C 6941  14.062  10.574   5.025 -0.1331 -0.4716 -0.2686
   51MOL0     C 6942  13.978  10.676   4.948  0.4446 -0.2112 -0.4233
   51MOL0     C 6943  13.938  10.634   4.804  0.2843  0.1953 -0.1606
   51MOL0     C 6944  14.050  10.612   4.712  0.0401 -0.9543  0.9840
   51MOL0    Cl 6945  14.181  10.715   4.753  0.1595 -0.0764 -0.1091
   51MOL0     C 6946  13.454  10.102   5.421  0.9455 -0.0776 -0.4188
   51MOL0     C 6947  13.357  10.008   5.404  0.3389  0.4706  1.5994
   51MOL0     O 6948  13.137  10.030   5.205  0.0442 -0.1946 -0.2666
   51MOL0     C 6949  12.930   9.803   5.281 -0.9745 -0.3087  0.1161
   51MOL0     C 6950  12.809   9.746   5.248 -0.3519 -0.4582 -1.0823
   51MOL0     N 6951  12.225   9.914   5.525  0.0610 -0.1983 -0.3984
   51MOL0     N 6952  12.119   9.899   5.610  0.5174 -0.3486 -0.3940
   51MOL0     C 6953  11.363   9.149   5.118  0.3547  0.2237 -0.5202
   51MOL0     C 6954  11.318   9.039   5.042  0.3008  0.1839  0.4920
   51MOL0     C 6955  11.017   8.756   4.856  1.2220  0.7917 -0.0556
   51MOL0     C 6956  10.957   8.803   4.741 -0.1805 -1.2608  0.3140
   51MOL0     C 6957  10.904   8.721   4.642 -0.1064  0.4870 -0.1899
   51MOL0     C 6958  10.897   8.585   4.670  0.0551 -0.4556 -0.6381
   51MOL0     O 6959  10.853   8.512   4.571 -0.7391 -0.0628  0.0992
   51MOL0     C 6960  10.930   8.499   4.447  0.1548 -0.8374 -0.5740
   51MOL0     C 6961  10.878   8.380   4.372 -0.7085 -0.6368 -0.0936
   51MOL0     C 6962  10.736   8.397   4.320 -0.4977 -0.2233  0.2980
   51MOL0     C 6963  10.725   8.361   4.175  0.0220  0.2800 -0.2452
   51MOL0     C 6964  10.584   8.341   4.145 -0.1581 -0.2969  0.6898
   51MOL0     C 6965  10.487   8.297   4.093 -0.8103 -0.7979 -0.2681
   51MOL0     C 6966  10.941   8.532   4.790  0.0770 -0.0062  0.5695
   51MOL0     C 6967  11.002   8.616   4.879  0.2461  0.2377 -0.4717
   51MOL0     C 6968  11.057   8.543   5.000  0.3113 -0.4867 -0.1206
   51MOL0     H 6969  11.042   9.195   4.929 -0.5243 -4.7563 -1.5850
   51MOL0     H 6970  11.112   9.379   5.075  0.0888 -0.4948 -1.8627
   51MOL0     H 6971  11.528   9.325   5.232 -2.0571 -0.8725 -3.2121
   51MOL0     H 6972  11.402   9.297   5.367  0.5321  3.6386  3.1606
   51MOL0     H 6973  11.467   9.578   5.310 -1.9564 -0.5948 -0.8588
   51MOL0     H 6974  11.383   9.508   5.448  0.5597  1.3538  1.1036
   51MOL0     H 6975  11.565   9.414   5.539 -0.9718 -0.2090  0.2657
   51MOL0     H 6976  11.674   9.445   5.403 -0.5992 -0.9589 -0.9172
   51MOL0     H 6977  11.664   9.680   5.429  1.3486  0.4783  0.8562
   51MOL0     H 6978  11.532   9.666   5.549  1.1968  1.5052 -0.4915
   51MOL0     H 6979  11.700   9.547   5.691 -1.2938  1.0655  0.2767
   51MOL0     H 6980  11.716   9.720   5.670 -0.7640 -0.1060  0.5323
   51MOL0     H 6981  11.879   9.522   5.498  0.9867 -0.8348  1.3362
   51MOL0     H 6982  11.895   9.692   5.516 -0.9114 -0.7427 -1.2082
   51MOL0     H 6983  12.030   9.509   5.678  0.0674  0.5059  0.2670
   51MOL0     H 6984  11.893   9.530   5.781  0.7856  2.1127  1.8269
   51MOL0     H 6985  11.949   9.792   5.781  0.3980  0.2494  1.2376
   51MOL0     H 6986  12.069   9.683   5.844  0.5478 -1.7551 -0.4007
   51MOL0     H 6987  12.241   9.601   5.625 -1.2050 -0.4368 -0.3293
   51MOL0     H 6988  12.414   9.649   5.422 -0.1505  0.6688 -3.0001
   51MOL0     H 6989  12.507   9.782   5.486 -0.5821 -3.7389  2.9429
   51MOL0     H 6990  12.300   9.803   5.240 -0.3322  1.3708 -1.7902
   51MOL0     H 6991  12.381   9.935   5.306 -3.5081 -1.4081 -0.4749
   51MOL0     H 6992  12.465   9.878   5.104  0.6413  0.3823  0.6066
   51MOL0     H 6993  12.594   9.863   5.240 -0.0056  1.2823  0.3376
   51MOL0     H 6994  12.564   9.615   5.231 -1.6364 -0.3904  0.9503
   51MOL0     H 6995  12.457   9.634   5.088 -1.5948  1.6507 -0.4397
   51MOL0     H 6996  12.824   9.752   4.913 -1.1218  0.3160  1.0940
   51MOL0     H 6997  13.050   9.779   4.844  0.3898 -1.3404  1.4671
   51MOL0     H 6998  13.178   9.857   4.946 -1.0966 -0.1701  2.7428
   51MOL0     H 6999  13.042   9.952   4.893  1.3976  0.7190 -0.7343
   51MOL0     H 7000  13.434   9.871   5.103  1.8859 -2.2296  0.0826
   51MOL0     H 7001  13.636   9.994   5.143 -1.6211 -2.3839 -1.6134
   51MOL0     H 7002  13.774  10.165   5.167 -1.7529 -2.8327  0.6479
   51MOL0     H 7003  13.643  10.288   5.174 -0.9459 -2.9602  1.2101
   51MOL0     H 7004  13.759  10.454   5.274  2.2633  1.8398  1.1301
   51MOL0     H 7005  13.885  10.345   5.327 -0.3949  0.0891  1.3951
   51MOL0     H 7006  13.818  10.458   5.051  1.5089  0.4030 -1.7859
   51MOL0     H 7007  13.929  10.325   5.052  2.8292  0.2973  1.8207
   51MOL0     H 7008  14.070  10.451   5.201 -2.0814 -3.9014 -1.6683
   51MOL0     H 7009  13.953  10.588   5.206  1.4927  1.5471  0.1607
   51MOL0     H 7010  14.147  10.631   5.064 -1.3196  0.4415  1.0463
   51MOL0     H 7011  14.081  10.505   4.942 -0.7506  1.4767 -2.0943
   51MOL0     H 7012  14.036  10.769   4.943  2.0647 -1.2206 -2.8820
   51MOL0     H 7013  13.885  10.702   4.999  0.7703  0.9132 -0.3714
   51MOL0     H 7014  13.879  10.716   4.761 -1.7630  0.2699  2.5128
   51MOL0     H 7015  13.876  10.544   4.810  0.1718  0.1786 -1.2999
   51MOL0     H 7016  14.018  10.622   4.608 -0.1525 -0.4848  1.0863
   51MOL0     H 7017  14.091  10.512   4.730  2.2949 -0.1800  0.5373
   51MOL0     H 7018  13.445  10.165   5.509  0.7812 -0.3645 -0.2326
   51MOL0     H 7019  13.273  10.016   5.473 -0.4198 -0.8115  0.8606
   51MOL0     H 7020  12.960   9.817   5.384 -0.5664 -2.8980  0.4104
   51MOL0     H 7021  12.742   9.721   5.331  1.5289 -0.9148  0.3660
   51MOL0     H 7022  11.447   9.123   5.180 -0.6713 -1.6356  0.1773
   51MOL0     H 7023  11.377   8.949   5.034  0.0670  0.2160 -4.4585
   51MOL0     H 7024  10.949   8.911   4.737 -3.0306 -1.4162 -0.2261
   51MOL0     H 7025  10.886   8.761   4.543  0.8992 -2.2459 -1.6069
   51MOL0     H 7026  10.915   8.591   4.391  0.9449  1.0854  2.1660
   51MOL0     H 7027  11.036   8.478   4.460  0.2828  0.6489  1.2063
   51MOL0     H 7028  10.893   8.289   4.432  1.1745 -0.3876 -0.1094
   51MOL0     H 7029  10.942   8.370   4.284  1.6593 -0.5594  1.5003
   51MOL0     H 7030  10.647   8.354   4.367 -0.2603 -1.1673 -0.0783
   51MOL0     H 7031  10.716   8.504   4.324 -1.1986 -0.3582  0.5784
   51MOL0     H 7032  10.782   8.270   4.154 -0.9200 -0.5143  0.4975
   51MOL0     H 7033  10.775   8.444   4.126 -0.7185 -0.2906 -2.0459
   51MOL0     H 7034  10.394   8.257   4.058 -0.0944 -1.0141 -1.9863
   51MOL0     H 7035  10.949   8.425   4.804  4.3045  0.1487  0.5329
   51MOL0     H 7036  11.098   8.452   4.956 -1.4717 -0.6930 -1.4711
   51MOL0     H 7037  11.142   8.594   5.047 -0.6065  1.2765 -0.2556
   51MOL0     H 7038  10.988   8.527   5.083  1.5008  0.0986  1.0238
   52MOL0     O 7039   3.987   2.695   2.203  0.3294  0.3837 -0.1756
   52MOL0     C 7040   3.873   2.740   2.182 -0.7152  0.1238  0.5805
   52MOL0     O 7041   3.811   2.828   2.266 -0.0320  0.1949  0.3001
   52MOL0     C 7042   3.878   2.953   2.274 -0.1435  0.4830 -0.2847
   52MOL0     C 7043   3.988   2.992   2.187  0.7990  1.0286 -0.0373
   52MOL0     C 7044   4.057   3.115   2.216  0.0047  0.1620  0.3566
   52MOL0     C 7045   4.002   3.204   2.306 -0.2022 -0.6365  0.5975
   52MOL0     O 7046   4.064   3.325   2.313  0.4077 -0.2193 -0.1838
   52MOL0     C 7047   3.997   3.450   2.272  0.1221 -0.0203 -0.5349
   52MOL0     C 7048   4.101   3.535   2.190 -0.3430 -0.4946 -0.3470
   52MOL0     C 7049   4.049   3.675   2.152  0.4929 -0.3958 -0.8526
   52MOL0     C 7050   4.032   3.767   2.268 -0.4656  0.0112 -1.1674
   52MOL0     C 7051   4.043   3.913   2.228  0.3530  1.3790  0.4080
   52MOL0     C 7052   4.055   4.005   2.345 -0.1283 -0.2558  0.2564
   52MOL0     C 7053   4.071   4.159   2.321  0.4413 -0.1713  0.9727
   52MOL0     C 7054   4.005   4.248   2.432 -0.8181  0.1903  0.3033
   52MOL0     N 7055   3.988   4.380   2.376 -0.1007  0.0348 -0.2733
   52MOL0     C 7056   3.888   4.412   2.295  0.1489 -0.3268  0.1477
   52MOL0     C 7057   3.907   4.542   2.272  0.1146  0.3332  0.8419
   52MOL0     C 7058   3.829   4.637   2.170 -0.2262  1.2386  0.5786
   52MOL0     C 7059   3.715   4.701   2.231  0.6792 -0.7773 -0.0392
   52MOL0     C 7060   3.614   4.753   2.120 -0.0620 -0.4699  0.2712
   52MOL0     C 7061   3.676   4.860   2.026 -0.4370  0.3900 -0.8028
   52MOL0     O 7062   3.744   4.950   2.100 -0.1945  0.2865  0.6174
   52MOL0     C 7063   3.674   5.061   2.136 -0.8768 -0.4146  0.0116
   52MOL0     C 7064   3.624   5.140   2.036  0.8395 -0.4000  0.2854
   52MOL0     C 7065   3.532   5.244   2.066  0.4100 -0.1816  0.4971
   52MOL0     C 7066   3.481   5.333   1.952  0.2341  0.3551 -0.4159
   52MOL0     C 7067   3.494   5.266   2.201 -0.4881  0.1390  0.4017
   52MOL0     C 7068   3.380   5.350   2.235 -0.5171 -0.6708 -0.2301
   52MOL0     O 7069   3.392   5.412   2.355 -0.3221  0.1592 -0.1162
   52MOL0     C 7070   3.277   5.474   2.406 -0.6630 -0.4461  0.7277
   52MOL0     C 7071   3.166   5.401   2.450 -0.2563 -0.2136 -0.1439
   52MOL0     C 7072   3.061   5.471   2.501  1.0181  0.9830 -0.3424
   52MOL0     C 7073   3.053   5.607   2.498 -0.1462 -0.8481 -0.0911
   52MOL0     O 7074   2.952   5.690   2.533  0.2280 -0.1537  0.0247
   52MOL0     C 7075   2.820   5.633   2.567  0.6314 -0.4641  0.5016
   52MOL0     C 7076   2.722   5.738   2.521  0.5045  0.6380  0.7600
   52MOL0     C 7077   2.713   5.861   2.616  0.0749  0.1115 -0.1197
   52MOL0     C 7078   2.592   5.956   2.598  0.4780 -0.6126  0.3611
   52MOL0     C 7079   2.600   6.063   2.704  0.3803 -0.2973 -0.0805
   52MOL0     C 7080   2.503   6.189   2.689 -0.3866  1.5519  0.0902
   52MOL0     C 7081   2.527   6.267   2.561 -0.2965 -0.5585  0.5764
   52MOL0     C 7082   2.654   6.342   2.561  0.1498  1.4453  0.5254
   52MOL0    Cl 7083   2.768   6.247   2.458  0.4701 -0.7847 -0.0842
   52MOL0     C 7084   3.170   5.684   2.461 -0.1346 -1.3639 -1.0772
   52MOL0     C 7085   3.276   5.611   2.405 -0.8417 -0.8306 -0.3256
   52MOL0     O 7086   3.287   5.364   2.163  0.0854 -1.2885 -0.3082
   52MOL0     C 7087   3.560   5.197   2.304 -0.4104 -0.9556  0.9236
   52MOL0     C 7088   3.657   5.100   2.272  0.4062  0.4601 -0.4759
   52MOL0     N 7089   4.004   4.595   2.354  0.2948  0.1718 -0.2404
   52MOL0     N 7090   4.060   4.491   2.420  0.1260 -0.1126  0.5009
   52MOL0     C 7091   3.891   3.170   2.382 -0.9085  0.0483  0.1851
   52MOL0     C 7092   3.833   3.043   2.370  0.3547 -0.0716  1.0237
   52MOL0     C 7093   3.792   2.674   2.080 -1.4287  0.5439  0.9266
   52MOL0     C 7094   3.658   2.710   2.067 -0.1674 -0.6759  1.1383
   52MOL0     C 7095   3.565   2.649   1.976 -0.0783 -0.6228  0.5539
   52MOL0     C 7096   3.600   2.544   1.897 -0.0771  0.0898 -0.3174
   52MOL0     O 7097   3.498   2.502   1.821 -0.2818 -0.4178  1.1810
   52MOL0     C 7098   3.529   2.402   1.718 -0.0868 -0.0614 -0.5507
   52MOL0     C 7099   3.413   2.359   1.622  1.0204  0.3221 -0.0871
   52MOL0     C 7100   3.416   2.218   1.576  0.0597 -0.3271 -0.0266
   52MOL0     C 7101   3.389   2.111   1.678 -1.3539  0.5064  0.1987
   52MOL0     C 7102   3.445   1.981   1.622  0.5102  0.2557  1.0441
   52MOL0     C 7103   3.479   1.872   1.589 -0.3521  0.5472  0.5052
   52MOL0     C 7104   3.732   2.504   1.914 -0.2802  0.2241 -0.3963
   52MOL0     C 7105   3.838   2.561   1.989  0.9446 -0.0729 -0.4156
   52MOL0     C 7106   3.982   2.508   1.979  0.0558  0.5388 -1.7792
   52MOL0     H 7107   4.032   2.928   2.110 -2.5625 -4.4966  2.0723
   52MOL0     H 7108   4.135   3.155   2.152  0.4898 -0.7100  0.3930
   52MOL0     H 7109   3.973   3.500   2.367  0.3791  1.7913 -1.3738
   52MOL0     H 7110   3.902   3.438   2.219 -1.8523 -0.9703  2.9202
   52MOL0     H 7111   4.193   3.550   2.247 -0.4666  0.6029 -0.4054
   52MOL0     H 7112   4.116   3.480   2.097 -2.4395 -0.5121 -0.7257
   52MOL0     H 7113   4.107   3.709   2.065  0.1351 -0.7090 -1.2209
   52MOL0     H 7114   3.949   3.665   2.109  1.1834 -2.0997 -2.1764
   52MOL0     H 7115   3.943   3.744   2.327  0.5007  0.2793  0.4867
   52MOL0     H 7116   4.117   3.745   2.334 -0.3448  0.9766 -0.9836
   52MOL0     H 7117   3.954   3.948   2.176 -0.5505 -1.1276  0.1062
   52MOL0     H 7118   4.131   3.941   2.169 -0.4923  0.9325 -1.1289
   52MOL0     H 7119   3.971   4.004   2.415  0.6555 -0.4464  1.2066
   52MOL0     H 7120   4.141   3.976   2.406 -0.4522 -3.4838 -0.6193
   52MOL0     H 7121   4.024   4.184   2.226  0.0204  0.0784  1.2478
   52MOL0     H 7122   4.178   4.177   2.309  0.4205 -1.6165 -2.5858
   52MOL0     H 7123   3.914   4.197   2.465 -1.3477 -1.3778 -3.0466
   52MOL0     H 7124   4.073   4.248   2.517 -0.1809  2.1042 -0.1593
   52MOL0     H 7125   3.810   4.348   2.254 -3.1326  1.7154  2.6830
   52MOL0     H 7126   3.800   4.575   2.085  1.1611  3.2127 -1.4713
   52MOL0     H 7127   3.894   4.714   2.125  1.2197 -1.3744 -2.1950
   52MOL0     H 7128   3.668   4.625   2.295  1.7458 -0.4871  1.1482
   52MOL0     H 7129   3.752   4.782   2.294  0.5571 -0.3978 -0.4530
   52MOL0     H 7130   3.571   4.669   2.064  0.5261 -2.2473  2.3202
   52MOL0     H 7131   3.524   4.799   2.163 -0.4914 -0.6171 -0.4561
   52MOL0     H 7132   3.751   4.805   1.969 -0.7654 -1.2723  0.3077
   52MOL0     H 7133   3.604   4.906   1.958  3.0293  1.5574 -4.0556
   52MOL0     H 7134   3.642   5.115   1.932  0.1155 -0.4275  0.1613
   52MOL0     H 7135   3.466   5.434   1.992 -2.4079 -0.7303  1.5832
   52MOL0     H 7136   3.387   5.296   1.911  0.3227  1.9849 -2.2441
   52MOL0     H 7137   3.558   5.330   1.874  1.2178 -1.3120  0.5690
   52MOL0     H 7138   3.177   5.295   2.470  0.8382  0.5363  4.3086
   52MOL0     H 7139   2.990   5.397   2.536  3.6654 -0.6996  1.9295
   52MOL0     H 7140   2.804   5.540   2.511  0.2480 -0.5146  0.6932
   52MOL0     H 7141   2.795   5.609   2.670 -0.5382 -3.3557 -0.3540
   52MOL0     H 7142   2.744   5.772   2.420  0.4440  1.0429  0.8824
   52MOL0     H 7143   2.627   5.684   2.513  2.1944 -2.4774  0.3333
   52MOL0     H 7144   2.807   5.916   2.616  0.3171 -0.2762  0.6051
   52MOL0     H 7145   2.696   5.815   2.714 -3.8952 -1.6838 -1.4330
   52MOL0     H 7146   2.496   5.903   2.589  1.9392 -3.1133 -2.2590
   52MOL0     H 7147   2.613   6.010   2.506  0.1348  0.6287  0.9863
   52MOL0     H 7148   2.565   6.015   2.795 -0.0705  0.8798  0.3780
   52MOL0     H 7149   2.699   6.104   2.724  0.1613 -0.0106  0.4165
   52MOL0     H 7150   2.508   6.251   2.779 -2.3796  1.2650  0.4311
   52MOL0     H 7151   2.403   6.145   2.695  0.2524 -0.8048 -3.3645
   52MOL0     H 7152   2.460   6.353   2.556  1.5268  0.9081 -3.2730
   52MOL0     H 7153   2.506   6.200   2.476 -0.0899 -2.3343  1.8617
   52MOL0     H 7154   2.683   6.348   2.666 -0.4506 -0.7237  0.8577
   52MOL0     H 7155   2.658   6.444   2.521  0.9744  1.2589  0.1287
   52MOL0     H 7156   3.182   5.791   2.475  1.4049 -1.2608 -2.7886
   52MOL0     H 7157   3.363   5.664   2.367 -2.7328  3.1171  0.2586
   52MOL0     H 7158   3.530   5.209   2.408 -0.2964 -0.7582  0.9338
   52MOL0     H 7159   3.709   5.042   2.347 -1.4337 -1.2286 -0.4269
   52MOL0     H 7160   3.844   3.249   2.440  1.4403  0.0474  2.2442
   52MOL0     H 7161   3.737   3.022   2.416 -0.5641  0.7982 -0.3993
   52MOL0     H 7162   3.624   2.795   2.125 -0.7291  0.2982 -0.5391
   52MOL0     H 7163   3.466   2.692   1.962  0.8294  2.0259  1.5360
   52MOL0     H 7164   3.610   2.447   1.659  0.7610 -2.5320 -1.3844
   52MOL0     H 7165   3.587   2.319   1.760 -0.4501 -0.9094 -1.6869
   52MOL0     H 7166   3.421   2.424   1.534  2.8107  1.6009  0.9614
   52MOL0     H 7167   3.314   2.381   1.662  1.5507  0.2522  1.2869
   52MOL0     H 7168   3.338   2.201   1.502 -2.1470  0.3967  2.0273
   52MOL0     H 7169   3.514   2.204   1.529 -0.9263 -0.2870 -2.2312
   52MOL0     H 7170   3.284   2.102   1.707 -0.8881 -0.3060  1.8012
   52MOL0     H 7171   3.440   2.141   1.770 -0.3468 -0.9657  0.1540
   52MOL0     H 7172   3.483   1.769   1.562  0.4463  0.5717  0.5154
   52MOL0     H 7173   3.769   2.418   1.859  1.8345  0.1476  1.0199
   52MOL0     H 7174   4.051   2.590   1.956  1.9206  0.2616  1.9635
   52MOL0     H 7175   4.021   2.480   2.077 -1.4363  3.8830 -0.0268
   52MOL0     H 7176   3.992   2.424   1.911  2.4415  0.5876 -1.5840
   53MOL0     O 7177   6.127   1.539   9.376 -0.1238 -0.5725  0.0192
   53MOL0     C 7178   6.115   1.502   9.496  1.1181 -0.1025  0.1410
   53MOL0     O 7179   6.206   1.509   9.597  0.4003 -0.1470 -0.7035
   53MOL0     C 7180   6.330   1.543   9.548 -0.2049  0.0961  0.1794
   53MOL0     C 7181   6.369   1.673   9.537  0.4014 -0.2985  0.4787
   53MOL0     C 7182   6.505   1.694   9.513  0.2233 -0.1184  0.2175
   53MOL0     C 7183   6.595   1.597   9.477 -0.1043 -0.9227 -0.2721
   53MOL0     O 7184   6.723   1.637   9.455 -0.0885 -0.2737  0.4959
   53MOL0     C 7185   6.818   1.539   9.420 -0.1511 -0.7999  0.2730
   53MOL0     C 7186   6.939   1.601   9.355 -0.6676 -0.2758  0.6649
   53MOL0     C 7187   7.060   1.499   9.344  0.7265 -0.5488  0.7081
   53MOL0     C 7188   7.182   1.577   9.287  0.4552 -0.2525  0.1180
   53MOL0     C 7189   7.286   1.475   9.254  0.6429 -0.1857 -0.8074
   53MOL0     C 7190   7.419   1.524   9.207 -0.1443 -0.2555  0.1936
   53MOL0     C 7191   7.523   1.403   9.220 -1.1923 -0.4999  0.4713
   53MOL0     C 7192   7.526   1.322   9.088  0.1837 -0.9669 -0.3632
   53MOL0     N 7193   7.617   1.214   9.120  0.2766  0.6564  0.0809
   53MOL0     C 7194   7.585   1.080   9.130 -0.3184 -0.0582  0.4447
   53MOL0     C 7195   7.703   1.018   9.167 -0.8556 -0.1253  0.5747
   53MOL0     C 7196   7.717   0.866   9.205 -0.5534  0.3218  0.2333
   53MOL0     C 7197   7.676   0.833   9.347 -0.4840 -0.0376 -0.0246
   53MOL0     C 7198   7.739   0.908   9.472  0.6056  0.5995  0.3075
   53MOL0     C 7199   7.891   0.896   9.490 -0.0711 -0.7579  1.1025
   53MOL0     O 7200   7.931   0.760   9.514 -0.3803  0.2082  0.5027
   53MOL0     C 7201   8.062   0.722   9.485  0.4035  0.4696  0.9308
   53MOL0     C 7202   8.066   0.589   9.451 -0.6971  0.6150  0.0954
   53MOL0     C 7203   8.183   0.526   9.411 -0.2692  0.3962  0.9862
   53MOL0     C 7204   8.183   0.375   9.379 -0.9187  0.1282  0.1730
   53MOL0     C 7205   8.296   0.615   9.402 -0.1734  0.2562  0.5796
   53MOL0     C 7206   8.436   0.569   9.365 -0.3629  0.7114  0.1268
   53MOL0     O 7207   8.449   0.442   9.317 -0.3048 -0.2358 -0.8026
   53MOL0     C 7208   8.576   0.386   9.301  0.2279 -0.2199 -0.2716
   53MOL0     C 7209   8.655   0.431   9.200 -0.3036 -0.5635  0.2324
   53MOL0     C 7210   8.790   0.404   9.191 -0.3512 -0.1281 -0.7019
   53MOL0     C 7211   8.855   0.323   9.284  0.1608 -0.1870  0.0869
   53MOL0     O 7212   8.997   0.307   9.283  0.2354  0.1392 -0.6463
   53MOL0     C 7213   9.071   0.364   9.182  0.0599 -0.0843  0.0958
   53MOL0     C 7214   9.213   0.320   9.188 -0.2394  0.2206 -0.4624
   53MOL0     C 7215   9.301   0.392   9.078  0.6893 -0.3813  0.7433
   53MOL0     C 7216   9.431   0.311   9.077 -0.5155  1.0476  0.3882
   53MOL0     C 7217   9.533   0.390   9.009 -0.0031  0.8625 -0.2901
   53MOL0     C 7218   9.680   0.324   9.016  0.3535 -0.3777  0.3527
   53MOL0     C 7219   9.734   0.339   9.166 -0.4110 -0.7051 -0.2789
   53MOL0     C 7220   9.871   0.268   9.180 -0.5650  0.1437  0.4223
   53MOL0    Cl 7221  10.015   0.371   9.234  0.2997  0.2688 -0.2358
   53MOL0     C 7222   8.781   0.264   9.385  0.5121 -0.1452  0.7131
   53MOL0     C 7223   8.638   0.304   9.395 -0.3875  0.7677 -0.2851
   53MOL0     O 7224   8.529   0.646   9.406 -0.3973  0.0823  0.0057
   53MOL0     C 7225   8.284   0.758   9.429 -1.9037 -0.7088 -0.0849
   53MOL0     C 7226   8.170   0.800   9.488 -0.0798 -0.3294 -0.0802
   53MOL0     N 7227   7.799   1.111   9.192 -0.7310 -0.4587 -0.1210
   53MOL0     N 7228   7.749   1.223   9.171 -0.1318  0.1948 -0.2681
   53MOL0     C 7229   6.559   1.460   9.496 -0.7513  0.5180 -0.5705
   53MOL0     C 7230   6.416   1.440   9.529 -0.1552  0.2302 -0.1030
   53MOL0     C 7231   5.978   1.473   9.537 -0.0817 -0.2933  0.1531
   53MOL0     C 7232   5.874   1.498   9.443 -0.4685 -0.3873  0.0309
   53MOL0     C 7233   5.738   1.485   9.478 -0.0932  0.7433  0.3452
   53MOL0     C 7234   5.697   1.433   9.599 -0.5429 -0.9677 -0.2349
   53MOL0     O 7235   5.563   1.412   9.621  0.0437 -0.3402 -0.7524
   53MOL0     C 7236   5.528   1.275   9.667 -0.5125  0.0988  0.4146
   53MOL0     C 7237   5.499   1.263   9.829 -0.1291 -0.1331  0.1134
   53MOL0     C 7238   5.441   1.399   9.904 -0.1712  0.1136  0.1089
   53MOL0     C 7239   5.295   1.441   9.859  0.0894 -0.2972 -0.9127
   53MOL0     C 7240   5.239   1.552   9.934  0.2060 -0.2072 -0.6918
   53MOL0     C 7241   5.195   1.639  10.006  0.2651  0.0443  0.4707
   53MOL0     C 7242   5.799   1.390   9.685 -0.0424  0.1881 -0.7159
   53MOL0     C 7243   5.935   1.417   9.667  0.5764 -0.5566  0.5147
   53MOL0     C 7244   6.018   1.379   9.778 -1.0152 -1.1673 -0.4770
   53MOL0     H 7245   6.298   1.754   9.550  1.0969  0.3147  0.4557
   53MOL0     H 7246   6.533   1.799   9.514  2.1193 -0.5308  3.1399
   53MOL0     H 7247   6.771   1.474   9.345  2.2348 -0.6729 -1.4678
   53MOL0     H 7248   6.843   1.472   9.503 -1.4271 -0.0554  1.2894
   53MOL0     H 7249   6.912   1.638   9.255 -0.3097 -5.2172 -1.5524
   53MOL0     H 7250   6.961   1.691   9.412 -1.8976  0.6439 -0.2482
   53MOL0     H 7251   7.079   1.457   9.444 -0.6355  0.5905  1.4717
   53MOL0     H 7252   7.042   1.421   9.270 -0.9919  0.0440  0.4567
   53MOL0     H 7253   7.146   1.627   9.197 -0.6551  2.4563  1.9186
   53MOL0     H 7254   7.230   1.642   9.361  1.6732  1.0002 -1.6760
   53MOL0     H 7255   7.252   1.402   9.180  0.1523 -0.2507 -0.5197
   53MOL0     H 7256   7.305   1.426   9.349  3.8505  0.3024 -1.0951
   53MOL0     H 7257   7.410   1.567   9.107  0.9961  3.6950  1.5912
   53MOL0     H 7258   7.453   1.607   9.271 -1.5956  0.7915 -0.3377
   53MOL0     H 7259   7.504   1.334   9.302 -4.7678  0.4692  0.6208
   53MOL0     H 7260   7.625   1.442   9.227 -1.3424 -0.2549  1.4341
   53MOL0     H 7261   7.425   1.291   9.061 -1.3129  0.6920  2.7494
   53MOL0     H 7262   7.579   1.375   9.009  3.7991 -0.8370  1.9275
   53MOL0     H 7263   7.487   1.035   9.116 -0.8372  0.7434  1.3630
   53MOL0     H 7264   7.821   0.841   9.181 -0.2156  0.5678  1.3682
   53MOL0     H 7265   7.643   0.817   9.141 -0.2889 -0.1259  0.2640
   53MOL0     H 7266   7.574   0.874   9.340 -0.1300  0.6432 -1.5278
   53MOL0     H 7267   7.681   0.726   9.368  1.7561  0.0476  0.0309
   53MOL0     H 7268   7.708   1.013   9.460 -1.9710 -0.1696 -0.3329
   53MOL0     H 7269   7.691   0.871   9.563 -1.1655 -2.4947 -1.7074
   53MOL0     H 7270   7.938   0.935   9.399  0.1115  0.6391  1.7736
   53MOL0     H 7271   7.919   0.956   9.576 -4.0569  1.0735  1.3578
   53MOL0     H 7272   7.970   0.540   9.449 -0.0873 -0.6494 -2.3822
   53MOL0     H 7273   8.193   0.356   9.272  0.2404  1.6894 -0.0246
   53MOL0     H 7274   8.095   0.324   9.420 -0.6734  0.4956  1.1901
   53MOL0     H 7275   8.271   0.329   9.426 -0.6540  0.7223  0.2728
   53MOL0     H 7276   8.601   0.496   9.133 -1.1423  0.0607  1.4772
   53MOL0     H 7277   8.854   0.460   9.123 -0.1248  1.4819  0.7473
   53MOL0     H 7278   9.043   0.328   9.082  3.2566 -0.3201 -0.8288
   53MOL0     H 7279   9.072   0.473   9.196  1.5765  0.0510 -0.7799
   53MOL0     H 7280   9.260   0.328   9.286  4.2808 -3.3718 -1.9196
   53MOL0     H 7281   9.221   0.216   9.155 -2.8358 -0.5153  0.9847
   53MOL0     H 7282   9.320   0.498   9.100 -1.9859  0.4984 -0.7157
   53MOL0     H 7283   9.257   0.391   8.978 -0.0855 -3.5965  1.0216
   53MOL0     H 7284   9.422   0.209   9.039 -0.2399  1.0415  0.3391
   53MOL0     H 7285   9.458   0.287   9.180  0.6675 -1.4963 -0.4272
   53MOL0     H 7286   9.504   0.405   8.904 -0.9019 -2.0125 -0.5364
   53MOL0     H 7287   9.548   0.484   9.064  0.8247  1.4737 -1.5104
   53MOL0     H 7288   9.749   0.370   8.945  0.3671  1.9574  1.7901
   53MOL0     H 7289   9.673   0.221   8.981  0.3709  0.5958 -2.8365
   53MOL0     H 7290   9.660   0.295   9.233 -1.7529  1.2662 -0.3922
   53MOL0     H 7291   9.747   0.445   9.189  6.0067 -0.9603 -0.9555
   53MOL0     H 7292   9.891   0.232   9.079 -0.4544  1.4684 -0.0452
   53MOL0     H 7293   9.879   0.177   9.239  0.1403  0.1511  0.3453
   53MOL0     H 7294   8.820   0.195   9.460  0.9188  0.4470  1.0551
   53MOL0     H 7295   8.579   0.269   9.478 -0.9695 -1.3957 -1.5447
   53MOL0     H 7296   8.372   0.821   9.436 -0.9692 -2.0808  1.2823
   53MOL0     H 7297   8.161   0.903   9.522  1.2129  0.6738 -2.5268
   53MOL0     H 7298   6.627   1.377   9.482 -1.3594 -0.7109  2.9339
   53MOL0     H 7299   6.385   1.337   9.542  2.0077 -0.2885  1.6062
   53MOL0     H 7300   5.900   1.541   9.347 -1.1308  0.4525  0.2102
   53MOL0     H 7301   5.669   1.518   9.401 -3.8910 -3.8851  1.2609
   53MOL0     H 7302   5.434   1.256   9.614  0.3995  2.2185 -2.1203
   53MOL0     H 7303   5.593   1.194   9.633  0.7460  1.6914 -1.1817
   53MOL0     H 7304   5.591   1.244   9.885 -0.6120 -3.3336 -0.0003
   53MOL0     H 7305   5.438   1.175   9.851 -1.8571  1.2668  1.1617
   53MOL0     H 7306   5.445   1.377  10.011  3.8767 -0.1137  0.0681
   53MOL0     H 7307   5.503   1.483   9.873 -1.4002  1.0732  0.1697
   53MOL0     H 7308   5.231   1.353   9.872  1.4056 -1.2244 -0.4930
   53MOL0     H 7309   5.290   1.472   9.754 -1.2743  3.0156  0.0231
   53MOL0     H 7310   5.169   1.722  10.068 -2.3404 -0.9932  0.9004
   53MOL0     H 7311   5.775   1.344   9.780 -1.4812  0.6880 -0.8188
   53MOL0     H 7312   6.099   1.324   9.729  0.2230 -0.2655  0.5024
   53MOL0     H 7313   6.054   1.467   9.832 -1.2462 -2.2483  1.5491
   53MOL0     H 7314   5.974   1.318   9.857  0.0193  0.7749  1.7097
   54MOL0     O 7315   6.973   3.311   0.649  0.7685 -1.0032 -0.0336
   54MOL0     C 7316   6.951   3.363   0.536  0.6401 -0.2113 -0.2636
   54MOL0     O 7317   7.048   3.411   0.446 -0.3912 -0.2225  0.1819
   54MOL0     C 7318   7.178   3.431   0.470 -0.1743  0.4664 -0.4539
   54MOL0     C 7319   7.234   3.553   0.432 -0.4904  0.5035  1.2906
   54MOL0     C 7320   7.366   3.587   0.467 -0.1099 -0.1312 -0.5559
   54MOL0     C 7321   7.449   3.491   0.532  0.1085 -1.1612 -0.2398
   54MOL0     O 7322   7.564   3.541   0.579  0.5197 -0.8269 -0.8587
   54MOL0     C 7323   7.650   3.462   0.653  0.7528 -0.4417 -1.1439
   54MOL0     C 7324   7.619   3.492   0.806 -0.1989 -0.2665  0.3446
   54MOL0     C 7325   7.672   3.385   0.906  0.0906 -0.0673  0.0455
   54MOL0     C 7326   7.821   3.373   0.911 -0.4648  0.6568  0.1774
   54MOL0     C 7327   7.867   3.248   0.996 -0.4046 -1.1315  0.0034
   54MOL0     C 7328   8.014   3.265   1.036 -0.6005 -0.0389 -0.1745
   54MOL0     C 7329   8.053   3.166   1.140  0.4080  0.1736  0.0123
   54MOL0     C 7330   8.110   3.036   1.076  0.3842 -0.7428 -0.1983
   54MOL0     N 7331   8.019   2.955   0.994 -0.4147  0.6089 -0.4165
   54MOL0     C 7332   7.908   2.882   1.031 -0.1788  0.5964 -0.8422
   54MOL0     C 7333   7.867   2.818   0.919 -0.6536  0.5388  0.4041
   54MOL0     C 7334   7.766   2.714   0.923  0.8791 -0.2363 -0.5580
   54MOL0     C 7335   7.637   2.761   0.851 -0.9510  0.6836 -0.2871
   54MOL0     C 7336   7.582   2.883   0.910  0.0966  0.2659 -0.1859
   54MOL0     C 7337   7.491   2.959   0.805  0.1716 -0.6801  0.4512
   54MOL0     O 7338   7.528   2.946   0.667  0.5966 -0.0751  0.1829
   54MOL0     C 7339   7.625   3.031   0.615 -0.3282  0.0151 -0.1841
   54MOL0     C 7340   7.606   3.078   0.486  0.1132 -0.2449  1.4342
   54MOL0     C 7341   7.696   3.152   0.403 -0.1774 -0.2754  0.1383
   54MOL0     C 7342   7.665   3.168   0.258  0.0053  0.8893  0.3276
   54MOL0     C 7343   7.818   3.196   0.480  0.3594  0.1750 -0.9388
   54MOL0     C 7344   7.930   3.277   0.421 -0.1820 -0.4584 -0.4395
   54MOL0     O 7345   7.897   3.391   0.353 -0.0924  0.2298  0.3336
   54MOL0     C 7346   8.002   3.481   0.329  0.1292 -0.3114  0.9236
   54MOL0     C 7347   8.029   3.605   0.395 -0.7541  0.3642 -1.0173
   54MOL0     C 7348   8.129   3.695   0.350 -0.3859 -0.1849  0.1844
   54MOL0     C 7349   8.216   3.658   0.250 -0.4215 -0.0552 -0.6688
   54MOL0     O 7350   8.317   3.732   0.187 -0.1215 -0.1104  0.2781
   54MOL0     C 7351   8.387   3.813   0.276  0.3979 -0.3308 -0.0695
   54MOL0     C 7352   8.442   3.733   0.396  0.4145  0.6889  0.3687
   54MOL0     C 7353   8.552   3.817   0.462  0.5297 -0.0044  0.0748
   54MOL0     C 7354   8.618   3.750   0.583 -0.4132 -0.5054  0.2811
   54MOL0     C 7355   8.715   3.844   0.667 -0.2710 -0.1443 -0.0778
   54MOL0     C 7356   8.794   3.933   0.573 -0.4605  0.1409  0.1827
   54MOL0     C 7357   8.928   3.971   0.638  0.0316  0.0242  0.6273
   54MOL0     C 7358   9.021   4.059   0.560  0.6522  0.3079  0.0780
   54MOL0    Cl 7359   8.981   4.232   0.562  0.0995  0.3523 -0.2103
   54MOL0     C 7360   8.200   3.527   0.196  0.0929 -0.4804  0.4758
   54MOL0     C 7361   8.091   3.444   0.229  0.0540  0.1535 -1.0767
   54MOL0     O 7362   8.041   3.242   0.450 -0.5741  0.2652  0.2194
   54MOL0     C 7363   7.834   3.144   0.609 -0.3641  0.9257 -0.5428
   54MOL0     C 7364   7.749   3.056   0.672  1.1950  1.1006 -0.5370
   54MOL0     N 7365   7.950   2.853   0.815  0.0085 -0.3358 -0.0295
   54MOL0     N 7366   8.040   2.938   0.855  0.0306  0.0014 -0.3413
   54MOL0     C 7367   7.393   3.360   0.558  0.0387 -0.4196  0.0358
   54MOL0     C 7368   7.260   3.328   0.526 -0.1067 -0.2103 -0.1695
   54MOL0     C 7369   6.811   3.360   0.494 -0.1993  0.3833  0.5867
   54MOL0     C 7370   6.756   3.229   0.488 -0.2985  0.1059 -0.5665
   54MOL0     C 7371   6.640   3.208   0.417 -0.2255 -0.4052  0.3642
   54MOL0     C 7372   6.579   3.313   0.343  0.0366 -0.0496 -1.3137
   54MOL0     O 7373   6.461   3.293   0.276  0.4716 -0.8447 -0.0965
   54MOL0     C 7374   6.458   3.321   0.132  0.5655  0.2808  0.3352
   54MOL0     C 7375   6.336   3.388   0.084  0.6790  0.0804 -0.3475
   54MOL0     C 7376   6.208   3.295   0.068  0.8346  0.1141 -0.7053
   54MOL0     C 7377   6.094   3.393   0.063  0.9029  0.8513 -0.4748
   54MOL0     C 7378   5.960   3.325   0.055  0.3728 -0.1610  0.1684
   54MOL0     C 7379   5.852   3.275   0.053 -0.5520  0.7864 -0.4303
   54MOL0     C 7380   6.620   3.445   0.367  0.0099 -0.0172  0.7836
   54MOL0     C 7381   6.733   3.470   0.434 -0.8510  0.2059 -0.2684
   54MOL0     C 7382   6.784   3.612   0.440  0.2559  0.2528  0.2652
   54MOL0     H 7383   7.170   3.617   0.374 -0.9481 -2.7710 -2.2070
   54MOL0     H 7384   7.408   3.685   0.446  0.8478 -1.5165 -7.6327
   54MOL0     H 7385   7.755   3.490   0.641  0.1236  3.5378  0.8235
   54MOL0     H 7386   7.659   3.354   0.634  2.4213 -1.0285  2.1933
   54MOL0     H 7387   7.656   3.591   0.834  1.7835  0.0120 -2.7525
   54MOL0     H 7388   7.511   3.502   0.817  0.1241  1.7644  2.2345
   54MOL0     H 7389   7.626   3.401   1.004  0.1356 -2.5922  0.5292
   54MOL0     H 7390   7.644   3.288   0.864 -2.5079  1.4372 -2.0218
   54MOL0     H 7391   7.876   3.368   0.816  2.2101 -1.3195  1.6937
   54MOL0     H 7392   7.853   3.463   0.964 -0.1783 -1.0645  3.0795
   54MOL0     H 7393   7.855   3.172   0.918 -0.7749  0.0997 -1.1791
   54MOL0     H 7394   7.802   3.220   1.080 -0.9560 -3.4317 -1.1300
   54MOL0     H 7395   8.080   3.258   0.949 -1.9361 -2.8814 -1.0796
   54MOL0     H 7396   8.023   3.358   1.094 -2.5024 -1.6055  2.8859
   54MOL0     H 7397   7.971   3.142   1.208  3.1253  1.3014  4.0443
   54MOL0     H 7398   8.134   3.212   1.197  0.9301 -1.1890  0.4254
   54MOL0     H 7399   8.194   3.062   1.011 -0.1945 -3.7964 -2.3782
   54MOL0     H 7400   8.140   2.980   1.165  0.8757  0.7553  0.6136
   54MOL0     H 7401   7.873   2.867   1.132 -0.3803 -2.0434 -1.2183
   54MOL0     H 7402   7.749   2.677   1.025  1.0660 -0.6570 -0.6751
   54MOL0     H 7403   7.793   2.620   0.874 -1.6892 -2.4787  1.9539
   54MOL0     H 7404   7.659   2.776   0.745 -1.2022 -2.5378 -0.8952
   54MOL0     H 7405   7.557   2.687   0.857  0.9692 -1.4086  1.2291
   54MOL0     H 7406   7.529   2.854   1.002 -0.3926 -0.9805 -0.8356
   54MOL0     H 7407   7.664   2.943   0.950  0.1517 -0.5283  0.9325
   54MOL0     H 7408   7.389   2.918   0.806 -1.1165  2.0528 -1.9293
   54MOL0     H 7409   7.491   3.063   0.839  0.5803 -0.2305 -0.8768
   54MOL0     H 7410   7.516   3.042   0.437  2.3404 -0.3687 -3.1079
   54MOL0     H 7411   7.764   3.182   0.213 -0.1071  3.2338  0.6955
   54MOL0     H 7412   7.606   3.259   0.242 -4.4051 -1.0981  3.4044
   54MOL0     H 7413   7.591   3.093   0.229 -2.4969  1.8235  3.6530
   54MOL0     H 7414   7.954   3.638   0.465  0.3722  2.0479 -0.5357
   54MOL0     H 7415   8.125   3.796   0.390 -3.1353  0.0220 -0.3873
   54MOL0     H 7416   8.476   3.858   0.231  0.0673 -0.3961 -0.7998
   54MOL0     H 7417   8.316   3.890   0.305 -1.5456 -0.9332 -2.8870
   54MOL0     H 7418   8.363   3.726   0.472  2.7071 -0.2795  2.8354
   54MOL0     H 7419   8.476   3.632   0.370 -0.9013  0.7963 -2.1202
   54MOL0     H 7420   8.508   3.913   0.491 -1.4268 -0.5513 -0.9242
   54MOL0     H 7421   8.631   3.832   0.388  1.1041 -1.6609  0.3036
   54MOL0     H 7422   8.676   3.663   0.552  1.7257  0.0527  2.4450
   54MOL0     H 7423   8.548   3.699   0.650  0.1716 -1.1963  0.3754
   54MOL0     H 7424   8.659   3.902   0.741  1.2682  1.0215  0.2216
   54MOL0     H 7425   8.782   3.774   0.718  0.0157 -1.3775 -2.0146
   54MOL0     H 7426   8.734   4.024   0.570 -0.0047  0.5980  2.8563
   54MOL0     H 7427   8.806   3.893   0.472 -0.7668  0.0759  0.1717
   54MOL0     H 7428   8.988   3.881   0.656 -2.8354 -2.7535 -2.3366
   54MOL0     H 7429   8.896   4.019   0.731 -1.0635 -2.6460  1.7242
   54MOL0     H 7430   9.022   4.027   0.455  1.9522 -2.0200  0.7365
   54MOL0     H 7431   9.120   4.044   0.604  0.9860 -0.5656 -0.9326
   54MOL0     H 7432   8.269   3.505   0.115 -1.6859  1.5402 -1.7531
   54MOL0     H 7433   8.082   3.343   0.188 -0.1369  0.3476 -1.5218
   54MOL0     H 7434   7.922   3.168   0.669 -0.4015 -0.5459  0.1262
   54MOL0     H 7435   7.767   3.026   0.775 -1.9227 -0.9764 -0.4828
   54MOL0     H 7436   7.455   3.294   0.619  2.0358  1.9218  0.6889
   54MOL0     H 7437   7.237   3.226   0.555 -2.4480 -0.0902 -1.3849
   54MOL0     H 7438   6.802   3.143   0.536 -0.4445 -0.1229 -0.8332
   54MOL0     H 7439   6.607   3.105   0.405  0.9896 -1.2476  3.4265
   54MOL0     H 7440   6.544   3.379   0.097  0.6479 -0.6646 -1.1359
   54MOL0     H 7441   6.478   3.228   0.078  0.8206  1.6861 -2.1531
   54MOL0     H 7442   6.349   3.437  -0.013 -0.8537  4.1630  1.3061
   54MOL0     H 7443   6.324   3.481   0.140  0.0954  1.1324 -2.1377
   54MOL0     H 7444   6.216   3.240  -0.026 -3.1374  0.1347 -1.2004
   54MOL0     H 7445   6.209   3.233   0.159 -2.8573  2.0353  0.8459
   54MOL0     H 7446   6.111   3.452  -0.028  1.8743  1.0435 -0.1847
   54MOL0     H 7447   6.103   3.455   0.153 -2.6001  0.5757  0.2016
   54MOL0     H 7448   5.753   3.238   0.065 -0.7421 -1.3962 -5.9227
   54MOL0     H 7449   6.578   3.526   0.309 -0.2715  0.1532  1.2273
   54MOL0     H 7450   6.712   3.679   0.487  2.0359  2.6173 -0.1826
   54MOL0     H 7451   6.869   3.616   0.509 -0.9999  1.6880  1.8027
   54MOL0     H 7452   6.801   3.653   0.340 -0.0846  2.3975  1.0373
   55MOL0     O 7453   2.091   2.000   1.465 -0.2000 -0.1742 -0.5216
   55MOL0     C 7454   1.981   1.946   1.452 -0.1873 -0.0531  0.5148
   55MOL0     O 7455   1.960   1.818   1.492 -0.0545 -0.2783 -0.0019
   55MOL0     C 7456   2.058   1.740   1.543 -0.0874  0.0426 -0.5211
   55MOL0     C 7457   2.175   1.710   1.466 -0.0893 -0.2958  0.3338
   55MOL0     C 7458   2.263   1.617   1.525 -0.8431 -0.7406 -0.8090
   55MOL0     C 7459   2.241   1.544   1.641 -0.7256 -0.1984 -0.0773
   55MOL0     O 7460   2.318   1.446   1.697  0.3802 -0.6998 -0.1894
   55MOL0     C 7461   2.414   1.374   1.621  1.0831 -0.0218  0.4598
   55MOL0     C 7462   2.435   1.230   1.668 -0.2326 -0.6009  0.2397
   55MOL0     C 7463   2.564   1.176   1.610  0.8193  0.0625  1.3635
   55MOL0     C 7464   2.553   1.144   1.448 -0.0677  0.4023  1.0174
   55MOL0     C 7465   2.669   1.072   1.384  1.0178  0.0838 -0.1416
   55MOL0     C 7466   2.808   1.115   1.444 -0.7429 -0.2343 -0.6070
   55MOL0     C 7467   2.928   1.036   1.378 -0.4370  0.1252  0.1059
   55MOL0     C 7468   2.987   1.125   1.278 -0.4082  0.6422  0.6473
   55MOL0     N 7469   3.083   1.049   1.200  0.2690  1.0954 -0.1153
   55MOL0     C 7470   3.218   1.034   1.219  0.5433  0.2445 -0.6182
   55MOL0     C 7471   3.257   0.942   1.127 -0.3518  0.2357 -0.5287
   55MOL0     C 7472   3.403   0.907   1.091 -0.3092  0.3299 -0.3788
   55MOL0     C 7473   3.437   0.932   0.937  0.3725  0.3198 -0.4693
   55MOL0     C 7474   3.553   0.840   0.895  0.0355 -1.5298 -0.4072
   55MOL0     C 7475   3.674   0.866   0.988 -0.1902 -0.2241 -0.9141
   55MOL0     O 7476   3.794   0.809   0.948 -0.2102 -0.1631  0.2228
   55MOL0     C 7477   3.815   0.674   0.940 -0.1976  0.4614  0.9374
   55MOL0     C 7478   3.937   0.647   0.878  1.1624  0.1568  1.2478
   55MOL0     C 7479   3.981   0.518   0.859 -0.8444 -0.1342 -0.8708
   55MOL0     C 7480   4.126   0.509   0.797 -0.4355  0.0432  0.1474
   55MOL0     C 7481   3.903   0.407   0.892 -0.2240 -0.4329 -0.0295
   55MOL0     C 7482   3.951   0.277   0.850  0.0480  0.1103 -0.3080
   55MOL0     O 7483   3.969   0.263   0.713 -0.4867  0.2021  0.3012
   55MOL0     C 7484   4.024   0.141   0.672  1.2608  0.8848  0.5999
   55MOL0     C 7485   4.118   0.058   0.737 -0.2325  0.5117 -0.4611
   55MOL0     C 7486   4.176  -0.054   0.680  0.8419  0.0429 -0.2394
   55MOL0     C 7487   4.134  -0.105   0.554  0.0589 -0.7490 -0.6665
   55MOL0     O 7488   4.159  -0.229   0.495  0.3399  0.0097 -0.0251
   55MOL0     C 7489   4.267  -0.302   0.561  0.6183 -0.1624  1.4559
   55MOL0     C 7490   4.259  -0.441   0.509 -0.3617  1.2057  0.7205
   55MOL0     C 7491   4.356  -0.534   0.586  0.0586  0.0839  0.0460
   55MOL0     C 7492   4.295  -0.678   0.590 -0.6746 -0.6570  0.2443
   55MOL0     C 7493   4.388  -0.761   0.684  0.0773 -1.1130  0.3433
   55MOL0     C 7494   4.542  -0.750   0.674 -0.7616 -0.2241  0.5225
   55MOL0     C 7495   4.586  -0.803   0.542  0.2352  0.3282  0.4641
   55MOL0     C 7496   4.713  -0.723   0.482 -1.0622 -0.1975 -0.3425
   55MOL0    Cl 7497   4.874  -0.744   0.561 -0.2450 -0.1775 -0.0303
   55MOL0     C 7498   4.039  -0.033   0.481  0.4179 -0.0581  0.5374
   55MOL0     C 7499   3.997   0.095   0.536  0.6592 -0.4652  0.5663
   55MOL0     O 7500   3.960   0.195   0.941 -0.5280 -0.1379 -0.2922
   55MOL0     C 7501   3.776   0.427   0.952 -0.1240 -0.1980 -0.1331
   55MOL0     C 7502   3.733   0.560   0.972  0.3220  0.1578 -0.5711
   55MOL0     N 7503   3.143   0.890   1.066 -0.0954 -0.0179  0.1243
   55MOL0     N 7504   3.045   0.970   1.100  0.6121 -0.3757  0.6403
   55MOL0     C 7505   2.122   1.574   1.713  0.6128 -0.1754  0.3472
   55MOL0     C 7506   2.030   1.670   1.665  0.6555 -0.1445  0.7500
   55MOL0     C 7507   1.868   2.012   1.375 -0.2308 -0.3326 -0.0224
   55MOL0     C 7508   1.738   1.959   1.396  0.1935  0.5847 -0.0595
   55MOL0     C 7509   1.626   2.009   1.335  0.3775 -0.1065 -0.0455
   55MOL0     C 7510   1.634   2.106   1.240 -0.4074  0.1745  0.4151
   55MOL0     O 7511   1.516   2.152   1.189 -0.7116 -1.2119 -0.6427
   55MOL0     C 7512   1.520   2.218   1.063 -0.5278 -0.0456  0.3243
   55MOL0     C 7513   1.414   2.154   0.973  0.3464  0.7220 -0.3446
   55MOL0     C 7514   1.273   2.167   1.019  0.3507  0.1057 -0.1016
   55MOL0     C 7515   1.230   2.312   1.049 -0.7232 -0.5139 -0.2525
   55MOL0     C 7516   1.219   2.390   0.924 -0.2206 -0.4936 -0.9825
   55MOL0     C 7517   1.208   2.452   0.827 -0.1628 -0.2944 -0.0981
   55MOL0     C 7518   1.756   2.167   1.215 -0.7827  0.7086 -0.1208
   55MOL0     C 7519   1.873   2.125   1.283  0.7241 -1.0452  0.6091
   55MOL0     C 7520   1.999   2.203   1.245 -0.2347  0.6974 -0.4289
   55MOL0     H 7521   2.200   1.747   1.367 -0.4506  0.6619  0.5901
   55MOL0     H 7522   2.360   1.598   1.480  0.1823  0.2286  0.8937
   55MOL0     H 7523   2.507   1.430   1.601  1.5459 -0.6309  0.8729
   55MOL0     H 7524   2.361   1.363   1.526  1.6104 -0.3304  0.1965
   55MOL0     H 7525   2.451   1.229   1.777  1.7002 -1.5842 -0.0078
   55MOL0     H 7526   2.366   1.151   1.639  3.4285 -3.0566 -2.6754
   55MOL0     H 7527   2.650   1.237   1.641  0.5442 -0.4714  3.3456
   55MOL0     H 7528   2.596   1.084   1.660  3.4993 -1.5865 -2.8227
   55MOL0     H 7529   2.468   1.078   1.431  1.1948 -0.8109 -1.0037
   55MOL0     H 7530   2.545   1.237   1.390  0.2137  1.1628  2.1458
   55MOL0     H 7531   2.662   1.091   1.277  1.8451  1.7735  0.0616
   55MOL0     H 7532   2.660   0.966   1.407  1.7954 -0.1082 -0.6921
   55MOL0     H 7533   2.828   1.221   1.428 -0.1783 -0.3691 -0.8507
   55MOL0     H 7534   2.805   1.108   1.553 -0.2944  1.0965 -0.4880
   55MOL0     H 7535   2.887   0.943   1.336 -0.8098  0.7326 -0.9228
   55MOL0     H 7536   3.009   1.001   1.442 -1.6131 -1.6998  0.6803
   55MOL0     H 7537   2.917   1.168   1.205  2.0244  1.3613 -1.4135
   55MOL0     H 7538   3.036   1.214   1.319  2.1153 -0.5815  0.4713
   55MOL0     H 7539   3.291   1.079   1.284  0.6302  0.3855 -0.8121
   55MOL0     H 7540   3.415   0.803   1.125  0.5536 -0.1359 -2.0322
   55MOL0     H 7541   3.478   0.963   1.147  0.0517  0.4317 -0.9572
   55MOL0     H 7542   3.353   0.901   0.873  0.7923 -2.7977  0.3307
   55MOL0     H 7543   3.452   1.039   0.927 -1.2631  0.3975 -3.0865
   55MOL0     H 7544   3.530   0.736   0.919  1.4407 -1.7178  0.2632
   55MOL0     H 7545   3.582   0.849   0.789 -0.9963 -0.2121 -0.6100
   55MOL0     H 7546   3.678   0.974   1.003 -2.1651 -0.4467  1.8025
   55MOL0     H 7547   3.656   0.815   1.083 -0.3791 -0.8494 -1.2758
   55MOL0     H 7548   4.001   0.730   0.850  0.3007  0.7924  1.1597
   55MOL0     H 7549   4.205   0.518   0.873  0.7097  0.0254 -1.0160
   55MOL0     H 7550   4.147   0.588   0.725  2.3968 -0.3121  0.4537
   55MOL0     H 7551   4.157   0.424   0.736  1.3399  1.0763 -0.4636
   55MOL0     H 7552   4.149   0.100   0.832 -0.1999  0.9508 -0.6598
   55MOL0     H 7553   4.248  -0.106   0.741  1.3138 -0.1528 -0.9514
   55MOL0     H 7554   4.367  -0.268   0.534  0.3203 -0.7520 -0.6271
   55MOL0     H 7555   4.249  -0.310   0.668 -4.0527 -3.2888  0.7775
   55MOL0     H 7556   4.160  -0.475   0.542 -0.6684  1.3767 -0.0193
   55MOL0     H 7557   4.268  -0.454   0.401  0.9601 -0.8570  1.0165
   55MOL0     H 7558   4.373  -0.502   0.689 -0.3446  2.2080 -0.4877
   55MOL0     H 7559   4.451  -0.539   0.532  1.6032  0.7030  2.5395
   55MOL0     H 7560   4.296  -0.722   0.490  2.3501 -2.0550  0.7782
   55MOL0     H 7561   4.192  -0.674   0.626  0.0552  2.1739  2.4009
   55MOL0     H 7562   4.356  -0.725   0.782 -3.5437 -0.8613 -0.7861
   55MOL0     H 7563   4.350  -0.863   0.680  0.7156 -1.3251 -2.5951
   55MOL0     H 7564   4.584  -0.813   0.753 -2.4384 -0.4994  1.2416
   55MOL0     H 7565   4.578  -0.647   0.678  0.8871 -0.7881  1.3811
   55MOL0     H 7566   4.504  -0.802   0.469  1.3970 -2.8902 -1.0870
   55MOL0     H 7567   4.613  -0.908   0.557  1.5364  0.7108  0.9334
   55MOL0     H 7568   4.682  -0.619   0.492 -1.3965 -0.2313 -0.9454
   55MOL0     H 7569   4.719  -0.749   0.375  0.1258  0.4458 -0.4415
   55MOL0     H 7570   4.005  -0.058   0.381 -0.7179  2.8885  0.0867
   55MOL0     H 7571   3.925   0.151   0.476  0.4666 -3.6294 -2.4400
   55MOL0     H 7572   3.701   0.353   0.975 -1.3441 -0.2829 -3.7421
   55MOL0     H 7573   3.629   0.580   0.999  0.1637  2.6603 -2.6531
   55MOL0     H 7574   2.098   1.518   1.803 -1.3082 -2.2932 -1.3236
   55MOL0     H 7575   1.937   1.705   1.707 -0.9549 -0.5438 -2.1687
   55MOL0     H 7576   1.731   1.882   1.471 -0.2207 -0.1427 -0.8302
   55MOL0     H 7577   1.533   1.959   1.361  0.6715 -0.1623  0.9522
   55MOL0     H 7578   1.495   2.324   1.067 -2.0567 -0.4085  1.9778
   55MOL0     H 7579   1.615   2.209   1.011  1.3222  2.3516  3.0087
   55MOL0     H 7580   1.439   2.047   0.973 -1.9176  0.1176 -2.1146
   55MOL0     H 7581   1.429   2.197   0.874 -0.0468  3.0175  0.5305
   55MOL0     H 7582   1.203   2.122   0.947  0.0995  0.7979 -0.2990
   55MOL0     H 7583   1.257   2.110   1.111 -0.4971  0.8745  0.2491
   55MOL0     H 7584   1.301   2.354   1.121 -0.4168 -0.0717 -0.7987
   55MOL0     H 7585   1.132   2.305   1.097 -0.9753  1.4788 -0.3758
   55MOL0     H 7586   1.198   2.517   0.742 -0.4820 -0.7414 -0.4066
   55MOL0     H 7587   1.766   2.254   1.152  2.2208  1.3284  1.0254
   55MOL0     H 7588   2.021   2.266   1.332 -0.7049  0.6941 -0.3047
   55MOL0     H 7589   2.084   2.134   1.240  0.1546  1.0857  0.5613
   55MOL0     H 7590   2.007   2.264   1.155 -0.1304  2.5346  0.7627
   56MOL0     O 7591   4.672   0.871  11.365  0.0885  0.3069  0.3973
   56MOL0     C 7592   4.575   0.809  11.394 -1.3005 -0.1108 -0.3688
   56MOL0     O 7593   4.561   0.676  11.374  0.5203 -0.4743 -0.2450
   56MOL0     C 7594   4.683   0.613  11.328 -0.0584 -0.3292  0.2268
   56MOL0     C 7595   4.746   0.533  11.420 -0.7238 -0.1511 -0.9475
   56MOL0     C 7596   4.868   0.469  11.391  0.2930 -0.1637  0.7284
   56MOL0     C 7597   4.930   0.491  11.267 -0.2338 -0.6121 -0.3107
   56MOL0     O 7598   5.040   0.422  11.226  0.8096  0.1201 -0.1636
   56MOL0     C 7599   5.076   0.300  11.285  0.0768 -0.4735 -0.9604
   56MOL0     C 7600   5.178   0.327  11.381 -0.6518 -0.0097  0.7213
   56MOL0     C 7601   5.312   0.370  11.304 -0.1408 -0.7349 -0.2233
   56MOL0     C 7602   5.423   0.420  11.402  0.2626  0.9432  0.7466
   56MOL0     C 7603   5.522   0.485  11.322 -0.2188  0.4558  1.2119
   56MOL0     C 7604   5.637   0.531  11.411 -0.1443  0.7688  0.7103
   56MOL0     C 7605   5.654   0.681  11.408 -1.4807 -1.4747 -0.2820
   56MOL0     C 7606   5.764   0.730  11.505  0.7358  0.1028  0.4145
   56MOL0     N 7607   5.883   0.657  11.481  0.0142 -0.4670  0.3666
   56MOL0     C 7608   5.989   0.702  11.393 -0.2165 -0.4116 -0.7841
   56MOL0     C 7609   6.092   0.621  11.436 -0.2250 -0.8677  0.0006
   56MOL0     C 7610   6.238   0.640  11.399 -0.1649  0.3821 -0.7146
   56MOL0     C 7611   6.261   0.712  11.272  0.3694 -0.6637 -0.1867
   56MOL0     C 7612   6.392   0.695  11.201 -0.1565  0.1886  0.0252
   56MOL0     C 7613   6.388   0.780  11.071  1.2029  0.0876 -0.1455
   56MOL0     O 7614   6.294   0.723  10.977 -0.2512  0.2201  0.3391
   56MOL0     C 7615   6.340   0.613  10.897  0.6629 -0.9021 -0.6593
   56MOL0     C 7616   6.246   0.551  10.818 -0.9847 -0.5813  0.0619
   56MOL0     C 7617   6.268   0.448  10.714 -0.3052 -0.4355 -1.4046
   56MOL0     C 7618   6.146   0.387  10.636 -0.1376 -0.5837 -0.2356
   56MOL0     C 7619   6.396   0.414  10.691 -0.6518 -0.6754  0.2402
   56MOL0     C 7620   6.444   0.306  10.591 -1.0591 -0.3520 -0.4839
   56MOL0     O 7621   6.565   0.318  10.532  0.3019 -0.0396 -0.3178
   56MOL0     C 7622   6.610   0.208  10.456 -0.8329 -0.6742  0.4102
   56MOL0     C 7623   6.573   0.187  10.323 -1.1891 -0.2300 -0.4971
   56MOL0     C 7624   6.606   0.063  10.260  0.5575 -0.1198 -0.6963
   56MOL0     C 7625   6.668  -0.042  10.326 -0.0535 -0.2874  0.2640
   56MOL0     O 7626   6.686  -0.163  10.258 -0.8501  0.0304  0.3108
   56MOL0     C 7627   6.735  -0.283  10.315 -0.0490  1.7955  0.3092
   56MOL0     C 7628   6.754  -0.409  10.227  0.4500 -0.7176 -0.5218
   56MOL0     C 7629   6.636  -0.451  10.138  0.2700  0.1458  0.1954
   56MOL0     C 7630   6.657  -0.595  10.089  0.4737  0.9847  0.7158
   56MOL0     C 7631   6.545  -0.631   9.985 -0.1218 -0.1123  0.5980
   56MOL0     C 7632   6.567  -0.548   9.851  0.6978  0.5215  0.7880
   56MOL0     C 7633   6.563  -0.642   9.725  0.1862 -0.2879 -0.5864
   56MOL0     C 7634   6.595  -0.565   9.594  0.4207 -0.2211  0.1008
   56MOL0    Cl 7635   6.570  -0.683   9.464 -0.1422 -0.2578  0.2344
   56MOL0     C 7636   6.716  -0.009  10.455 -0.7615 -0.5585 -0.7467
   56MOL0     C 7637   6.697   0.116  10.513  0.3448  0.7614  0.5616
   56MOL0     O 7638   6.382   0.204  10.594  0.3153 -0.6398 -0.3637
   56MOL0     C 7639   6.502   0.485  10.765  0.2631 -0.5801 -0.4079
   56MOL0     C 7640   6.476   0.580  10.866 -0.0915 -0.7399 -0.8557
   56MOL0     N 7641   6.052   0.531  11.530 -0.5323  0.0432 -0.1801
   56MOL0     N 7642   5.930   0.557  11.565 -0.4388 -0.1680 -0.6657
   56MOL0     C 7643   4.853   0.565  11.165 -0.5996  0.0734  1.5580
   56MOL0     C 7644   4.729   0.622  11.204 -0.5356 -0.8245 -0.1277
   56MOL0     C 7645   4.449   0.871  11.415 -1.6267 -1.0310 -0.5079
   56MOL0     C 7646   4.344   0.831  11.336  0.9188 -0.4739  0.6512
   56MOL0     C 7647   4.214   0.884  11.358 -0.7422  0.1176 -1.2570
   56MOL0     C 7648   4.199   0.984  11.452  1.0032 -0.3040 -1.0924
   56MOL0     O 7649   4.069   1.046  11.467 -0.0506 -0.2850  0.0943
   56MOL0     C 7650   4.025   1.136  11.581 -1.2218 -0.4960  0.3881
   56MOL0     C 7651   3.949   1.067  11.684 -0.5632  0.0243 -0.1777
   56MOL0     C 7652   3.818   1.034  11.636  0.8626  0.8377 -0.8692
   56MOL0     C 7653   3.726   0.958  11.728 -1.1798  0.5225  0.2366
   56MOL0     C 7654   3.589   0.997  11.715 -0.1706 -0.6066  1.4621
   56MOL0     C 7655   3.478   1.046  11.710  0.6313  0.7223 -0.7487
   56MOL0     C 7656   4.308   1.026  11.524  0.0040  0.0266 -0.1574
   56MOL0     C 7657   4.438   0.970  11.509  0.3918  0.4995 -0.8443
   56MOL0     C 7658   4.550   1.030  11.581  0.2619 -0.0978 -0.2180
   56MOL0     H 7659   4.709   0.524  11.522  0.9741 -0.7711 -0.3468
   56MOL0     H 7660   4.902   0.392  11.460  0.2794 -1.9272 -1.1315
   56MOL0     H 7661   5.107   0.237  11.202  0.0679 -2.2624  0.3276
   56MOL0     H 7662   4.985   0.255  11.326 -0.6649  1.4649 -0.3813
   56MOL0     H 7663   5.141   0.408  11.445  0.0653  2.0162 -1.2833
   56MOL0     H 7664   5.210   0.242  11.442  0.5909  1.0355  1.5910
   56MOL0     H 7665   5.350   0.284  11.248 -2.5848 -0.9249 -1.7616
   56MOL0     H 7666   5.292   0.433  11.216 -3.0277 -0.5781  0.4491
   56MOL0     H 7667   5.371   0.483  11.475  1.6414  1.4743  1.3024
   56MOL0     H 7668   5.469   0.335  11.453  0.1997 -0.0547 -0.7757
   56MOL0     H 7669   5.467   0.566  11.273  1.9059 -1.3920 -5.1868
   56MOL0     H 7670   5.558   0.420  11.243 -3.3751  2.7475 -2.4571
   56MOL0     H 7671   5.620   0.501  11.515 -1.7131  1.6235  0.7408
   56MOL0     H 7672   5.721   0.494  11.353 -0.6436  1.9158 -0.7910
   56MOL0     H 7673   5.565   0.739  11.434  0.4142  1.3704  0.3708
   56MOL0     H 7674   5.699   0.716  11.315  1.7949 -0.7852  1.3739
   56MOL0     H 7675   5.801   0.832  11.487 -0.1050  0.0979 -1.6115
   56MOL0     H 7676   5.731   0.725  11.609 -3.3586  4.5587 -0.3060
   56MOL0     H 7677   5.989   0.788  11.327  0.9019  2.9747  3.1913
   56MOL0     H 7678   6.272   0.536  11.400 -1.6738 -0.1372 -0.2895
   56MOL0     H 7679   6.293   0.687  11.481 -0.7700  0.0688 -0.1101
   56MOL0     H 7680   6.182   0.691  11.199 -1.6527  1.4186  1.2640
   56MOL0     H 7681   6.251   0.820  11.289 -0.6948 -0.7476 -0.1971
   56MOL0     H 7682   6.476   0.719  11.266  0.6340 -2.5230  0.1281
   56MOL0     H 7683   6.403   0.588  11.182  1.3809  0.7497 -2.8979
   56MOL0     H 7684   6.350   0.882  11.087 -1.4751 -0.9647  0.6021
   56MOL0     H 7685   6.486   0.784  11.023  0.4819 -0.4583 -1.7068
   56MOL0     H 7686   6.148   0.589  10.846 -1.8341 -2.8662  0.3772
   56MOL0     H 7687   6.048   0.418  10.671  1.5631 -0.1919  5.1620
   56MOL0     H 7688   6.166   0.280  10.642  3.1228 -0.0395  3.7150
   56MOL0     H 7689   6.146   0.412  10.530 -0.6053 -1.5971 -0.4887
   56MOL0     H 7690   6.512   0.266  10.279 -3.2438 -0.5184  1.6414
   56MOL0     H 7691   6.581   0.036  10.158  3.8260  0.3508 -1.7591
   56MOL0     H 7692   6.832  -0.246  10.351 -0.7606  3.5315  0.5552
   56MOL0     H 7693   6.668  -0.308  10.398 -1.2692  3.2001 -0.1941
   56MOL0     H 7694   6.828  -0.387  10.149 -1.4932 -1.9983 -2.8985
   56MOL0     H 7695   6.778  -0.488  10.298  2.5351 -2.0263 -2.5274
   56MOL0     H 7696   6.614  -0.387  10.052 -0.9501  0.4731  0.7232
   56MOL0     H 7697   6.548  -0.453  10.204 -0.9078 -0.2827 -1.3191
   56MOL0     H 7698   6.646  -0.660  10.177 -0.2677 -2.0148 -1.3987
   56MOL0     H 7699   6.750  -0.625  10.040  0.4680 -0.2530  1.3967
   56MOL0     H 7700   6.544  -0.740   9.973  1.2809 -0.2370  1.4776
   56MOL0     H 7701   6.444  -0.622  10.027 -1.4418 -3.2537 -1.4357
   56MOL0     H 7702   6.664  -0.498   9.861  0.9018  0.5581 -1.0327
   56MOL0     H 7703   6.487  -0.475   9.841 -1.6800 -2.2609 -3.8065
   56MOL0     H 7704   6.468  -0.696   9.718  0.7190 -1.2230 -0.7138
   56MOL0     H 7705   6.638  -0.719   9.747 -0.9809 -0.5791  3.1795
   56MOL0     H 7706   6.699  -0.533   9.582  0.5051 -1.0650 -1.9317
   56MOL0     H 7707   6.532  -0.476   9.588  1.2248  0.4520  1.1969
   56MOL0     H 7708   6.773  -0.088  10.504 -0.9742  0.8115  1.9345
   56MOL0     H 7709   6.739   0.137  10.611  0.6416 -1.2457  0.8986
   56MOL0     H 7710   6.607   0.468  10.746  1.3374  2.8162  1.5551
   56MOL0     H 7711   6.550   0.635  10.923 -1.7746 -1.1484  1.9018
   56MOL0     H 7712   4.900   0.566  11.067  1.2066  0.2055  2.3707
   56MOL0     H 7713   4.677   0.684  11.131 -0.4224  0.6274  0.9784
   56MOL0     H 7714   4.361   0.755  11.260  2.2521 -0.4984  0.9465
   56MOL0     H 7715   4.134   0.843  11.298  0.7782 -3.6432 -0.9649
   56MOL0     H 7716   4.119   1.165  11.628  2.1903  0.0906 -5.6869
   56MOL0     H 7717   3.965   1.223  11.553 -1.5560 -0.3621  1.5056
   56MOL0     H 7718   3.954   1.134  11.771  4.4060  0.0750 -0.2033
   56MOL0     H 7719   3.997   0.970  11.698  0.9933  0.9689  1.4962
   56MOL0     H 7720   3.774   1.133  11.615  3.0587  1.3127 -3.7831
   56MOL0     H 7721   3.827   0.988  11.538  1.5229  2.0015 -1.3791
   56MOL0     H 7722   3.758   0.964  11.833 -0.5382  4.5930 -0.0314
   56MOL0     H 7723   3.738   0.856  11.691 -1.3016  0.9004 -0.8699
   56MOL0     H 7724   3.390   1.103  11.731 -2.3733 -3.4140 -0.8675
   56MOL0     H 7725   4.292   1.097  11.605  1.1212 -0.0682  0.1690
   56MOL0     H 7726   4.607   1.103  11.523  0.4001  0.4432  0.5857
   56MOL0     H 7727   4.522   1.083  11.673  0.2902  1.5008 -1.1142
   56MOL0     H 7728   4.614   0.947  11.614  0.4450 -0.6401 -1.8741
   57MOL0     O 7729   9.662   4.844  11.295 -0.3591  1.3313  0.2923
   57MOL0     C 7730   9.727   4.739  11.310  0.5656  0.0366  0.0945
   57MOL0     O 7731   9.679   4.630  11.387 -0.3407  0.0039  0.3910
   57MOL0     C 7732   9.577   4.640  11.484  0.4044  0.6567 -1.1289
   57MOL0     C 7733   9.503   4.517  11.518  0.5886 -0.3366 -0.0588
   57MOL0     C 7734   9.413   4.510  11.625  1.4046  0.3749  0.3108
   57MOL0     C 7735   9.388   4.625  11.699 -0.8285  1.0951 -0.2745
   57MOL0     O 7736   9.306   4.624  11.809 -0.1197 -0.7813  0.4047
   57MOL0     C 7737   9.206   4.519  11.819 -0.2952 -0.5361 -0.5639
   57MOL0     C 7738   9.106   4.584  11.918 -0.0247 -0.8111  0.2523
   57MOL0     C 7739   9.022   4.693  11.856  0.4102 -0.8721 -0.1811
   57MOL0     C 7740   8.883   4.702  11.924  0.6401 -0.4229  0.7870
   57MOL0     C 7741   8.792   4.828  11.889 -0.3925  0.9974  0.4264
   57MOL0     C 7742   8.669   4.829  11.979  0.4141 -0.3850 -0.2107
   57MOL0     C 7743   8.566   4.923  11.921  0.9603 -1.2817  0.3859
   57MOL0     C 7744   8.582   5.074  11.950  0.4293  0.7361 -0.2136
   57MOL0     N 7745   8.708   5.137  11.888 -0.1328 -0.0068  0.4067
   57MOL0     C 7746   8.728   5.136  11.749 -0.2307  0.2617 -0.2708
   57MOL0     C 7747   8.850   5.198  11.732  0.6930  0.2595 -0.5135
   57MOL0     C 7748   8.931   5.222  11.604  0.1795 -0.6556 -0.2197
   57MOL0     C 7749   8.969   5.086  11.542 -0.4082 -0.4697 -0.0946
   57MOL0     C 7750   9.063   5.005  11.638 -0.0892 -0.1129 -0.8583
   57MOL0     C 7751   9.131   4.895  11.568  0.2928 -0.6907 -0.7733
   57MOL0     O 7752   9.044   4.831  11.472 -0.2478 -0.0184  0.6803
   57MOL0     C 7753   9.099   4.727  11.393 -0.2713  0.4853  0.0590
   57MOL0     C 7754   9.023   4.617  11.363 -1.1662  0.3424 -0.0069
   57MOL0     C 7755   9.074   4.523  11.270 -0.9496 -0.9916 -0.2277
   57MOL0     C 7756   8.963   4.433  11.234 -0.2079  0.2606 -0.7273
   57MOL0     C 7757   9.200   4.536  11.212  0.7487  0.5194  0.9447
   57MOL0     C 7758   9.256   4.438  11.113 -0.0857  0.8194  0.0247
   57MOL0     O 7759   9.372   4.458  11.057 -0.1773 -0.3523  0.0337
   57MOL0     C 7760   9.457   4.352  11.011  0.6801  0.2105  0.3756
   57MOL0     C 7761   9.566   4.310  11.084  0.2578 -0.3658 -0.8629
   57MOL0     C 7762   9.653   4.209  11.036  0.7993  0.2924  0.7613
   57MOL0     C 7763   9.640   4.157  10.904  0.0818  0.2066 -0.1300
   57MOL0     O 7764   9.713   4.047  10.865  0.6302 -0.6390  0.2203
   57MOL0     C 7765   9.840   4.073  10.801 -0.6579 -0.2536 -0.8392
   57MOL0     C 7766   9.912   3.942  10.749 -0.3660  0.7959  0.5340
   57MOL0     C 7767  10.068   3.942  10.744 -0.3700  0.0037  0.3516
   57MOL0     C 7768  10.122   3.835  10.651 -0.3345 -0.2232  0.4794
   57MOL0     C 7769  10.273   3.871  10.622  1.4237 -0.3894 -0.2814
   57MOL0     C 7770  10.343   3.775  10.524 -0.0090  0.6791  0.3392
   57MOL0     C 7771  10.462   3.838  10.460  0.1948 -0.1529  0.7501
   57MOL0     C 7772  10.531   3.747  10.354  0.0029  0.2669  1.0123
   57MOL0    Cl 7773  10.625   3.854  10.249  0.1567  0.5435  0.0046
   57MOL0     C 7774   9.540   4.209  10.830 -0.3768 -0.1625  0.4358
   57MOL0     C 7775   9.455   4.310  10.877 -0.2413 -0.2608 -0.7375
   57MOL0     O 7776   9.188   4.341  11.087 -0.8024  0.2532 -0.8339
   57MOL0     C 7777   9.277   4.646  11.253 -0.0207  0.7327 -0.2446
   57MOL0     C 7778   9.225   4.742  11.340  0.7267 -0.0380  0.0110
   57MOL0     N 7779   8.897   5.227  11.864 -0.0469 -0.1303  0.3532
   57MOL0     N 7780   8.811   5.198  11.951 -0.0138  0.2202 -0.2976
   57MOL0     C 7781   9.452   4.747  11.667 -0.3689  0.2690 -0.3275
   57MOL0     C 7782   9.543   4.753  11.561 -0.1035  0.1984  0.7651
   57MOL0     C 7783   9.862   4.712  11.241 -0.2193 -1.0240 -0.2722
   57MOL0     C 7784   9.926   4.592  11.239  0.5797 -0.0295  0.5845
   57MOL0     C 7785  10.047   4.576  11.169 -0.6781 -0.2810  0.2876
   57MOL0     C 7786  10.113   4.682  11.097  0.5378  0.1002 -0.1899
   57MOL0     O 7787  10.232   4.685  11.030 -0.5062 -0.1934  0.0976
   57MOL0     C 7788  10.304   4.561  11.033 -0.2596  0.9320  0.2411
   57MOL0     C 7789  10.433   4.560  10.953  0.7763 -0.7973 -0.7375
   57MOL0     C 7790  10.418   4.566  10.799  0.4260  0.1232 -0.3441
   57MOL0     C 7791  10.549   4.577  10.721  1.1208  0.0986  0.0979
   57MOL0     C 7792  10.523   4.553  10.578  0.6065  1.2511  0.8485
   57MOL0     C 7793  10.515   4.530  10.459 -0.0620 -0.3567 -0.5379
   57MOL0     C 7794  10.046   4.799  11.089 -0.3039 -0.2253 -0.5986
   57MOL0     C 7795   9.930   4.818  11.168  0.1747  0.2561 -0.0009
   57MOL0     C 7796   9.893   4.964  11.181  1.1157 -0.1284  0.1535
   57MOL0     H 7797   9.512   4.431  11.453 -1.8995  0.1896 -1.2103
   57MOL0     H 7798   9.353   4.420  11.633 -2.3185  2.5124 -0.9677
   57MOL0     H 7799   9.244   4.427  11.865  0.5441  0.8343  1.6170
   57MOL0     H 7800   9.150   4.503  11.726 -2.6322 -0.1547  0.7118
   57MOL0     H 7801   9.044   4.505  11.961 -2.5755  1.5422  1.2144
   57MOL0     H 7802   9.143   4.630  12.010 -2.9112  0.2309  1.0076
   57MOL0     H 7803   9.073   4.788  11.875  2.4141 -2.0691  0.6951
   57MOL0     H 7804   9.000   4.686  11.749 -0.5550 -0.7811  0.0003
   57MOL0     H 7805   8.833   4.607  11.902 -0.3678  0.2303  0.1606
   57MOL0     H 7806   8.886   4.708  12.034 -2.7316 -1.4376  1.0505
   57MOL0     H 7807   8.763   4.816  11.785  3.3338 -3.2720 -0.4651
   57MOL0     H 7808   8.855   4.917  11.891  0.7050  0.2264  1.6205
   57MOL0     H 7809   8.611   4.737  11.973 -0.9430  0.4644 -0.7369
   57MOL0     H 7810   8.699   4.853  12.081  1.1562 -1.0445 -0.2666
   57MOL0     H 7811   8.468   4.904  11.967  0.0872  1.1738 -0.2460
   57MOL0     H 7812   8.552   4.912  11.813  1.0263  1.5103  0.0012
   57MOL0     H 7813   8.493   5.124  11.911 -0.3923 -0.4059  0.1541
   57MOL0     H 7814   8.580   5.086  12.058  1.0260 -2.2106  0.2070
   57MOL0     H 7815   8.673   5.090  11.667 -3.8160  3.9895 -0.2464
   57MOL0     H 7816   9.022   5.279  11.623  0.8266 -1.3214 -1.2278
   57MOL0     H 7817   8.878   5.279  11.527  3.1808 -1.0541 -2.7985
   57MOL0     H 7818   8.887   5.017  11.518  0.1643 -1.0936 -0.2647
   57MOL0     H 7819   9.016   5.107  11.446 -2.5332  1.5953 -0.7939
   57MOL0     H 7820   9.139   5.071  11.682 -1.3690  0.4402  0.6455
   57MOL0     H 7821   8.998   4.960  11.713 -3.8378  1.9206 -2.6116
   57MOL0     H 7822   9.217   4.944  11.521 -0.6793  0.1053 -1.7547
   57MOL0     H 7823   9.153   4.827  11.651 -0.0983  0.0724 -0.0385
   57MOL0     H 7824   8.923   4.622  11.405 -1.0253  2.3202  0.1896
   57MOL0     H 7825   9.005   4.332  11.243 -0.1795  0.2309 -1.1921
   57MOL0     H 7826   8.937   4.448  11.129  0.4423  0.0286 -0.9288
   57MOL0     H 7827   8.873   4.440  11.296 -0.2007 -0.6402 -0.5879
   57MOL0     H 7828   9.589   4.345  11.185  2.6446  2.3577 -2.2139
   57MOL0     H 7829   9.731   4.181  11.106  1.7718  0.8463 -0.0735
   57MOL0     H 7830   9.818   4.142  10.719 -0.7081  1.0074  0.2047
   57MOL0     H 7831   9.909   4.129  10.865  1.6103 -3.6236 -0.0404
   57MOL0     H 7832   9.879   3.865  10.820 -1.6541  4.3424  4.1666
   57MOL0     H 7833   9.875   3.913  10.650 -1.1488  0.4074  0.9338
   57MOL0     H 7834  10.116   3.934  10.842 -1.0104  0.9771  0.7507
   57MOL0     H 7835  10.109   4.035  10.705  2.3903 -0.7755  1.1704
   57MOL0     H 7836  10.069   3.836  10.555 -0.1943 -0.4230  0.3978
   57MOL0     H 7837  10.119   3.733  10.690  0.3912 -1.3722 -2.2127
   57MOL0     H 7838  10.268   3.971  10.578  1.6707 -0.0028  0.5406
   57MOL0     H 7839  10.340   3.863  10.708  2.4850 -1.0845 -1.1411
   57MOL0     H 7840  10.270   3.737  10.452 -0.2613 -0.2427  1.0670
   57MOL0     H 7841  10.390   3.688  10.571 -1.2135 -1.4187 -2.0694
   57MOL0     H 7842  10.529   3.879  10.536  0.3507  1.4567 -0.2210
   57MOL0     H 7843  10.416   3.928  10.419  0.5417  0.1618  1.0485
   57MOL0     H 7844  10.448   3.697  10.302 -0.6892  1.6364  0.7325
   57MOL0     H 7845  10.591   3.669  10.401  0.5755 -1.8144 -2.7531
   57MOL0     H 7846   9.522   4.165  10.732 -0.0278 -1.0983  0.7911
   57MOL0     H 7847   9.382   4.350  10.807  0.7280  1.4891 -0.7962
   57MOL0     H 7848   9.369   4.658  11.198  0.3965 -3.3245 -0.7763
   57MOL0     H 7849   9.283   4.832  11.359  1.2377 -0.0935 -1.1787
   57MOL0     H 7850   9.428   4.833  11.728 -1.5535 -2.5890  3.6378
   57MOL0     H 7851   9.577   4.854  11.543 -2.7260  0.9766 -0.2818
   57MOL0     H 7852   9.880   4.507  11.289 -0.0945  1.5002  2.6949
   57MOL0     H 7853  10.105   4.488  11.192  2.0636  1.4913  0.6944
   57MOL0     H 7854  10.331   4.535  11.135  3.3443  0.7889 -0.6116
   57MOL0     H 7855  10.250   4.489  10.970  1.8611 -2.7916  2.3505
   57MOL0     H 7856  10.495   4.472  10.966  0.6568 -1.1807 -2.5096
   57MOL0     H 7857  10.484   4.656  10.967 -3.7206  2.1193 -2.2033
   57MOL0     H 7858  10.367   4.470  10.785  3.1661 -1.0818 -3.1701
   57MOL0     H 7859  10.360   4.656  10.774  1.1741  0.7466  0.1120
   57MOL0     H 7860  10.616   4.500  10.760  0.1756 -0.9370 -0.2742
   57MOL0     H 7861  10.593   4.677  10.734  0.7769  0.0839  1.5318
   57MOL0     H 7862  10.491   4.524  10.354  0.2191 -3.6622 -0.5233
   57MOL0     H 7863  10.088   4.880  11.030 -3.5608 -0.4858 -3.6452
   57MOL0     H 7864   9.851   4.995  11.278 -1.8880 -1.7931 -0.4895
   57MOL0     H 7865   9.980   5.027  11.161  1.3010 -0.4416 -0.0393
   57MOL0     H 7866   9.811   4.975  11.109 -1.5971  0.9485  3.1588
   58MOL0     O 7867  11.471   7.788  11.482 -0.0550  0.5435 -1.3174
   58MOL0     C 7868  11.386   7.814  11.396 -0.9652 -0.1884 -0.3185
   58MOL0     O 7869  11.302   7.915  11.401  0.1523  0.5043  0.1410
   58MOL0     C 7870  11.334   8.026  11.470 -0.0127  0.0904 -0.4438
   58MOL0     C 7871  11.278   8.049  11.601 -0.1934  0.0568  0.5244
   58MOL0     C 7872  11.316   8.164  11.667 -1.2816 -0.6360 -1.0942
   58MOL0     C 7873  11.409   8.252  11.622  0.3952 -0.3559 -0.1350
   58MOL0     O 7874  11.459   8.361  11.690 -0.2490  0.0962 -0.1708
   58MOL0     C 7875  11.375   8.412  11.794 -0.2730 -0.0711  0.5533
   58MOL0     C 7876  11.424   8.567  11.811 -0.0742 -0.9799 -0.2820
   58MOL0     C 7877  11.430   8.643  11.673  0.6318 -0.4145  0.5186
   58MOL0     C 7878  11.414   8.792  11.682 -0.6394  1.1328 -0.7497
   58MOL0     C 7879  11.391   8.872  11.560  1.0222 -0.6787  0.8075
   58MOL0     C 7880  11.275   8.819  11.487  0.2296  0.0874 -0.5702
   58MOL0     C 7881  11.248   8.917  11.369 -0.3777 -0.0199 -0.1759
   58MOL0     C 7882  11.115   8.896  11.298  0.1775 -0.1499  0.9619
   58MOL0     N 7883  11.124   8.783  11.204  0.2914 -0.2515 -0.6314
   58MOL0     C 7884  11.083   8.655  11.223 -0.3922  0.2112  1.0312
   58MOL0     C 7885  11.136   8.584  11.114 -0.2383 -0.1366 -0.1763
   58MOL0     C 7886  11.127   8.441  11.089  0.5536  0.6439  0.6512
   58MOL0     C 7887  11.181   8.347  11.197  0.1442  0.3945  0.2200
   58MOL0     C 7888  11.087   8.308  11.316  0.2195 -0.3738  0.8009
   58MOL0     C 7889  11.035   8.160  11.317  0.9967 -0.5959 -0.1478
   58MOL0     O 7890  10.956   8.126  11.201 -0.3052 -0.6511  0.7143
   58MOL0     C 7891  10.921   7.994  11.192 -0.1845 -0.4689 -0.4408
   58MOL0     C 7892  10.843   7.955  11.085  0.2975 -0.3665 -0.0840
   58MOL0     C 7893  10.803   7.820  11.050 -0.4625 -0.5647 -1.0589
   58MOL0     C 7894  10.711   7.803  10.925 -0.8752  0.1636 -0.0396
   58MOL0     C 7895  10.858   7.716  11.138 -0.0614 -0.4290 -0.5423
   58MOL0     C 7896  10.819   7.569  11.117  0.7928 -1.0747  0.2105
   58MOL0     O 7897  10.887   7.485  11.201 -0.6740  0.1109 -0.1948
   58MOL0     C 7898  10.847   7.352  11.198 -0.5410 -0.3252  0.6178
   58MOL0     C 7899  10.774   7.295  11.306  0.2792 -0.6389 -0.4088
   58MOL0     C 7900  10.718   7.161  11.297 -0.0913 -0.9319  0.2388
   58MOL0     C 7901  10.740   7.085  11.180  0.1069 -0.2398  0.8788
   58MOL0     O 7902  10.688   6.961  11.178 -0.5260  0.2089 -0.2151
   58MOL0     C 7903  10.623   6.928  11.056  0.9481 -0.3239 -0.0138
   58MOL0     C 7904  10.703   6.832  10.976 -0.3558 -0.1268 -0.4427
   58MOL0     C 7905  10.676   6.675  10.993  0.2229  0.2966 -0.0556
   58MOL0     C 7906  10.754   6.593  10.904  0.4291 -0.0620  0.6617
   58MOL0     C 7907  10.669   6.482  10.831 -0.4245 -0.4688 -0.2879
   58MOL0     C 7908  10.749   6.378  10.768 -0.7586 -0.4035  0.7572
   58MOL0     C 7909  10.832   6.444  10.658 -0.0830  1.2282  0.0262
   58MOL0     C 7910  10.906   6.342  10.559 -0.0838 -0.0009  0.2840
   58MOL0    Cl 7911  10.785   6.257  10.454 -0.0494  0.0139  0.2676
   58MOL0     C 7912  10.815   7.147  11.072  0.1854 -0.4883 -0.6849
   58MOL0     C 7913  10.867   7.278  11.083  0.7086  1.4101  0.0557
   58MOL0     O 7914  10.741   7.539  11.023  0.2791  0.1780 -0.0384
   58MOL0     C 7915  10.935   7.750  11.246 -0.6101  0.4202 -0.6132
   58MOL0     C 7916  10.954   7.889  11.284 -0.2537 -0.1072 -1.2655
   58MOL0     N 7917  11.194   8.672  11.030 -0.3493 -0.2891  1.1100
   58MOL0     N 7918  11.194   8.787  11.083 -0.2578 -0.3778  0.0587
   58MOL0     C 7919  11.453   8.229  11.487  0.0067 -0.1058 -0.2392
   58MOL0     C 7920  11.427   8.113  11.421 -0.6210  0.1548  0.3196
   58MOL0     C 7921  11.367   7.714  11.283  1.3895  0.4965 -0.1914
   58MOL0     C 7922  11.386   7.578  11.308 -0.6612  0.8153 -0.3513
   58MOL0     C 7923  11.352   7.481  11.205  0.8819 -0.5012 -0.7174
   58MOL0     C 7924  11.293   7.525  11.086 -0.2970  0.4058  0.5920
   58MOL0     O 7925  11.260   7.415  11.003 -0.6015 -0.0646 -0.4562
   58MOL0     C 7926  11.239   7.441  10.869 -0.2328  0.2973  0.4422
   58MOL0     C 7927  11.221   7.326  10.775 -0.0958 -0.2787 -0.7025
   58MOL0     C 7928  11.327   7.213  10.797  0.5252 -0.5972  0.5224
   58MOL0     C 7929  11.303   7.086  10.712  0.0511  0.6388 -0.9437
   58MOL0     C 7930  11.206   6.998  10.775  0.1364  0.0420  0.7284
   58MOL0     C 7931  11.112   6.931  10.829 -0.9952 -0.8621  0.8099
   58MOL0     C 7932  11.281   7.663  11.067  0.0889 -0.5022 -1.3159
   58MOL0     C 7933  11.318   7.757  11.158 -0.8711 -0.1031  0.0272
   58MOL0     C 7934  11.312   7.901  11.105  0.3134  0.1653  0.0091
   58MOL0     H 7935  11.194   7.985  11.629 -3.2756  0.1149 -6.4491
   58MOL0     H 7936  11.292   8.175  11.772 -1.5513 -0.7557 -1.1415
   58MOL0     H 7937  11.387   8.351  11.884 -2.1430 -3.1329 -1.0922
   58MOL0     H 7938  11.270   8.413  11.765 -0.6072 -1.7166  1.5898
   58MOL0     H 7939  11.352   8.617  11.876  0.0156  0.2824 -1.0975
   58MOL0     H 7940  11.523   8.587  11.852 -0.6118  2.1679 -0.2627
   58MOL0     H 7941  11.520   8.610  11.620  0.0583 -1.2168  0.0016
   58MOL0     H 7942  11.339   8.606  11.623  1.2126 -0.6083 -0.4272
   58MOL0     H 7943  11.342   8.803  11.764  1.1596 -0.8155  1.2326
   58MOL0     H 7944  11.512   8.806  11.728 -0.3058  0.8112 -1.3477
   58MOL0     H 7945  11.479   8.841  11.502  0.8263 -2.4463  1.3793
   58MOL0     H 7946  11.387   8.978  11.583  0.0518 -0.9425  1.9262
   58MOL0     H 7947  11.296   8.723  11.439 -1.5687 -0.8054  0.3305
   58MOL0     H 7948  11.187   8.806  11.551 -1.0977 -2.1329 -2.6770
   58MOL0     H 7949  11.330   8.889  11.302 -0.7377  0.8633 -0.9973
   58MOL0     H 7950  11.264   9.022  11.394 -0.9706  0.2105 -0.7438
   58MOL0     H 7951  11.039   8.864  11.369 -0.6029 -1.0731 -0.2496
   58MOL0     H 7952  11.075   8.986  11.251  1.4870 -0.3676 -0.6389
   58MOL0     H 7953  11.024   8.620  11.306 -2.3624  1.8075  0.3784
   58MOL0     H 7954  11.176   8.417  10.994  4.3226 -0.8139  2.7634
   58MOL0     H 7955  11.020   8.420  11.080  0.7890 -0.6712  0.7125
   58MOL0     H 7956  11.197   8.253  11.144  0.4721  0.5938 -0.0430
   58MOL0     H 7957  11.279   8.379  11.234 -0.0424  0.5955  0.5413
   58MOL0     H 7958  11.152   8.315  11.404 -1.0859  1.8347  1.6826
   58MOL0     H 7959  11.002   8.376  11.320 -2.4681 -3.3926 -0.1691
   58MOL0     H 7960  11.120   8.093  11.336  0.3948 -1.1024  0.8799
   58MOL0     H 7961  10.977   8.149  11.409 -0.4671 -0.8844 -1.0596
   58MOL0     H 7962  10.816   8.035  11.016  0.5081  0.7426  1.0890
   58MOL0     H 7963  10.697   7.900  10.874  0.2592 -0.3527 -1.3995
   58MOL0     H 7964  10.611   7.764  10.945 -1.0340  0.4655 -0.2294
   58MOL0     H 7965  10.764   7.737  10.855 -0.9195 -0.8017  0.8199
   58MOL0     H 7966  10.754   7.348  11.398  0.0192 -4.8452  2.2704
   58MOL0     H 7967  10.657   7.126  11.380  1.3752 -1.9485  0.9182
   58MOL0     H 7968  10.522   6.887  11.066 -0.4037  2.2174 -1.8996
   58MOL0     H 7969  10.609   7.010  10.985 -3.5437 -2.8011 -2.4229
   58MOL0     H 7970  10.674   6.852  10.873  0.7902  0.7810 -0.6111
   58MOL0     H 7971  10.811   6.844  10.982 -0.2343 -0.5817 -1.4979
   58MOL0     H 7972  10.569   6.661  10.975 -0.0574  1.3125  0.7047
   58MOL0     H 7973  10.696   6.649  11.097 -2.0645 -1.6556 -0.0170
   58MOL0     H 7974  10.833   6.538  10.955 -0.5739 -0.5131  1.7832
   58MOL0     H 7975  10.791   6.654  10.821 -0.1445  0.9926  1.1731
   58MOL0     H 7976  10.609   6.423  10.901  0.0129 -1.5495 -0.8071
   58MOL0     H 7977  10.606   6.530  10.756  2.5647  2.6741 -1.0110
   58MOL0     H 7978  10.675   6.302  10.739 -0.5865  0.3345 -1.8142
   58MOL0     H 7979  10.813   6.317  10.834 -1.2101 -2.5248 -0.6481
   58MOL0     H 7980  10.915   6.498  10.704 -0.0102  1.2838 -0.1640
   58MOL0     H 7981  10.769   6.515  10.603 -0.4947 -0.5718 -1.9873
   58MOL0     H 7982  10.964   6.266  10.613  1.1027  1.4154  1.0551
   58MOL0     H 7983  10.971   6.401  10.494  0.6079  2.5301  3.0654
   58MOL0     H 7984  10.831   7.109  10.972  2.6402  0.2334 -0.6401
   58MOL0     H 7985  10.924   7.316  10.999 -0.0152  2.2949 -0.0556
   58MOL0     H 7986  10.979   7.683  11.319 -0.7593  1.6793  0.6656
   58MOL0     H 7987  10.991   7.897  11.385 -1.1218  1.5135 -1.0573
   58MOL0     H 7988  11.528   8.296  11.446  1.1666 -1.3780 -0.2444
   58MOL0     H 7989  11.494   8.101  11.336  2.3109 -0.4367  2.5531
   58MOL0     H 7990  11.412   7.552  11.410 -2.0607  2.6619  0.5375
   58MOL0     H 7991  11.364   7.378  11.235 -0.0838  0.2924  2.8746
   58MOL0     H 7992  11.140   7.486  10.858 -1.1074 -1.1618  1.8833
   58MOL0     H 7993  11.325   7.498  10.833 -0.4521  0.3407 -0.0175
   58MOL0     H 7994  11.226   7.359  10.671 -0.5058 -1.1831 -1.0178
   58MOL0     H 7995  11.123   7.286  10.802  0.0018  2.3173  4.9083
   58MOL0     H 7996  11.422   7.259  10.770 -0.6742 -0.0388 -3.3578
   58MOL0     H 7997  11.347   7.191  10.903  3.2445  1.8555  0.6234
   58MOL0     H 7998  11.394   7.025  10.706  0.0273  0.5195 -0.1777
   58MOL0     H 7999  11.283   7.114  10.608  0.1939  0.3806 -1.0429
   58MOL0     H 8000  11.020   6.894  10.869 -1.3170  0.1230  1.0085
   58MOL0     H 8001  11.242   7.699  10.973 -0.8978 -1.6051 -1.3524
   58MOL0     H 8002  11.355   7.971  11.177  3.5695 -1.0243 -0.6087
   58MOL0     H 8003  11.370   7.893  11.013 -2.1212  1.4792 -1.7787
   58MOL0     H 8004  11.207   7.926  11.083 -0.7511 -3.2684  0.5797
   59MOL0     O 8005   2.383   5.500   7.672 -0.2890 -0.4911 -0.2345
   59MOL0     C 8006   2.308   5.581   7.727  0.3847  0.7193  0.4232
   59MOL0     O 8007   2.335   5.706   7.783  1.4608  0.4815  0.6434
   59MOL0     C 8008   2.462   5.751   7.790 -0.5738  0.9253 -0.2659
   59MOL0     C 8009   2.544   5.767   7.677  0.1420 -0.1301  0.1011
   59MOL0     C 8010   2.676   5.814   7.690  0.5868  0.0408 -0.6252
   59MOL0     C 8011   2.724   5.839   7.818  0.1269  0.0529 -0.0826
   59MOL0     O 8012   2.855   5.881   7.844  0.4385  0.1420  0.4062
   59MOL0     C 8013   2.969   5.838   7.769  0.4689  0.6942 -0.6602
   59MOL0     C 8014   3.087   5.891   7.838 -0.0032  0.0573  0.5367
   59MOL0     C 8015   3.224   5.850   7.773  0.5474 -0.0327 -0.7552
   59MOL0     C 8016   3.342   5.914   7.849 -0.3443 -0.4439  0.2483
   59MOL0     C 8017   3.464   5.912   7.756  0.1859  0.0573 -0.3310
   59MOL0     C 8018   3.539   5.772   7.771 -0.4689 -0.8437  0.4024
   59MOL0     C 8019   3.649   5.744   7.661  0.0285 -0.0617 -0.7832
   59MOL0     C 8020   3.758   5.641   7.711  0.1208  0.0745  0.0567
   59MOL0     N 8021   3.879   5.662   7.628 -0.3691 -0.7482 -0.0589
   59MOL0     C 8022   3.886   5.659   7.492  0.2005 -0.0956 -0.0031
   59MOL0     C 8023   4.007   5.704   7.453  0.6670  0.4202 -0.3903
   59MOL0     C 8024   4.040   5.754   7.315  0.4124  0.9647  0.0438
   59MOL0     C 8025   3.993   5.907   7.299 -0.2040  0.6990  0.3726
   59MOL0     C 8026   4.056   5.960   7.168  0.7477  0.3865 -0.1280
   59MOL0     C 8027   4.002   5.895   7.036  0.5685 -0.8127 -0.1071
   59MOL0     O 8028   3.858   5.884   7.050 -0.6907 -0.8773 -0.2637
   59MOL0     C 8029   3.779   5.843   6.948  0.0075  0.3167 -0.0695
   59MOL0     C 8030   3.825   5.811   6.817 -0.1271 -0.1168 -0.9456
   59MOL0     C 8031   3.733   5.793   6.714  0.3184  0.4299  0.5503
   59MOL0     C 8032   3.803   5.794   6.577 -0.1606 -0.0753 -0.8974
   59MOL0     C 8033   3.588   5.801   6.732  0.6061  1.2323  0.2380
   59MOL0     C 8034   3.499   5.782   6.615 -0.2832  0.5382 -0.8328
   59MOL0     O 8035   3.545   5.717   6.499 -1.0596 -0.4187 -0.1398
   59MOL0     C 8036   3.465   5.647   6.411  0.1072 -0.1578 -0.3801
   59MOL0     C 8037   3.325   5.655   6.394  0.5374  0.4312  0.5587
   59MOL0     C 8038   3.257   5.592   6.287 -0.6136  0.3073 -0.1764
   59MOL0     C 8039   3.331   5.521   6.198  0.5149  0.4611 -0.3640
   59MOL0     O 8040   3.282   5.433   6.098  0.1486  0.3243  0.5304
   59MOL0     C 8041   3.140   5.411   6.101  0.4103 -0.2571 -0.0880
   59MOL0     C 8042   3.099   5.320   5.983 -0.0977  0.2504 -0.8619
   59MOL0     C 8043   3.205   5.203   5.964  0.0274 -1.0586  0.5007
   59MOL0     C 8044   3.134   5.098   5.875 -0.8891 -0.2927  0.5110
   59MOL0     C 8045   3.217   4.964   5.856  0.2957 -0.4930  0.0141
   59MOL0     C 8046   3.127   4.874   5.780  0.4215 -0.6636 -0.0908
   59MOL0     C 8047   3.198   4.765   5.703 -0.0548  0.8961 -0.1383
   59MOL0     C 8048   3.277   4.669   5.793  0.0067  0.1014 -0.2371
   59MOL0    Cl 8049   3.440   4.731   5.823  0.0591  0.3690 -0.1426
   59MOL0     C 8050   3.467   5.516   6.210  0.5528  0.3691 -0.3704
   59MOL0     C 8051   3.534   5.585   6.310 -0.0722  0.0911  0.1559
   59MOL0     O 8052   3.384   5.810   6.637  0.3831 -0.6623  0.4820
   59MOL0     C 8053   3.547   5.825   6.861  0.9019 -0.2697 -0.0328
   59MOL0     C 8054   3.641   5.841   6.964  0.1747 -0.2094 -0.2375
   59MOL0     N 8055   4.084   5.715   7.569  0.1260 -0.2083 -0.3069
   59MOL0     N 8056   4.006   5.688   7.674  0.2661 -0.2571  0.3646
   59MOL0     C 8057   2.637   5.813   7.932 -0.4297 -0.5871  0.1806
   59MOL0     C 8058   2.510   5.777   7.914 -0.2330  0.4818 -0.0038
   59MOL0     C 8059   2.173   5.537   7.724 -0.6102  0.1867 -0.2578
   59MOL0     C 8060   2.107   5.550   7.847  0.4162  0.1284  1.1488
   59MOL0     C 8061   1.976   5.517   7.863  0.0586  0.0957  0.3726
   59MOL0     C 8062   1.903   5.468   7.752 -0.4033 -0.3341  0.2483
   59MOL0     O 8063   1.773   5.439   7.771  0.1884  0.2922  0.0344
   59MOL0     C 8064   1.686   5.391   7.668  0.4250 -0.2111  0.4213
   59MOL0     C 8065   1.546   5.355   7.707  0.8650 -0.2070  0.3141
   59MOL0     C 8066   1.440   5.472   7.694  0.3312  0.3201  0.2325
   59MOL0     C 8067   1.303   5.425   7.739  0.2547  0.2304  0.3012
   59MOL0     C 8068   1.225   5.357   7.641  0.1567  0.7727  0.2541
   59MOL0     C 8069   1.161   5.297   7.557 -0.0079 -0.0362  0.8489
   59MOL0     C 8070   1.971   5.444   7.627 -0.1764  0.0219  0.1020
   59MOL0     C 8071   2.107   5.474   7.614  0.1424 -0.4204 -0.2464
   59MOL0     C 8072   2.173   5.449   7.487 -0.3655  0.4833  0.9804
   59MOL0     H 8073   2.503   5.759   7.577  2.1944  2.3822 -1.0798
   59MOL0     H 8074   2.748   5.838   7.612  2.7826  1.5968  1.6946
   59MOL0     H 8075   2.966   5.880   7.668 -0.6055  1.8429 -0.1812
   59MOL0     H 8076   2.974   5.729   7.770 -0.5596  0.6359 -0.8306
   59MOL0     H 8077   3.096   6.000   7.843  2.5671 -0.1180  1.0738
   59MOL0     H 8078   3.092   5.854   7.941  0.4084 -0.9741  0.1611
   59MOL0     H 8079   3.243   5.742   7.782  3.1058  0.3958 -0.3054
   59MOL0     H 8080   3.219   5.883   7.669  1.1144  2.2779 -0.1113
   59MOL0     H 8081   3.306   6.015   7.866 -0.7605 -0.3339 -1.1692
   59MOL0     H 8082   3.370   5.863   7.942  0.1874  0.1225  0.4027
   59MOL0     H 8083   3.530   5.992   7.793  0.6070  1.1179 -3.1532
   59MOL0     H 8084   3.433   5.940   7.655 -0.0671  5.1756  0.8838
   59MOL0     H 8085   3.587   5.773   7.869  0.3036 -0.4838  0.0395
   59MOL0     H 8086   3.470   5.688   7.767 -0.7420 -0.6008 -0.2010
   59MOL0     H 8087   3.702   5.838   7.641  2.8138 -1.2208  0.6395
   59MOL0     H 8088   3.598   5.705   7.573 -0.9067 -0.8250  0.0788
   59MOL0     H 8089   3.788   5.667   7.813  1.6208  1.5190 -0.7075
   59MOL0     H 8090   3.723   5.538   7.697  2.0518 -0.7482  0.8053
   59MOL0     H 8091   3.796   5.628   7.438  0.8134  0.6958 -1.5607
   59MOL0     H 8092   3.997   5.683   7.244  3.3071 -0.4545 -0.4575
   59MOL0     H 8093   4.148   5.742   7.304  0.0541 -1.2400 -1.7190
   59MOL0     H 8094   3.884   5.913   7.302 -0.3958  0.4107 -2.4509
   59MOL0     H 8095   4.030   5.973   7.378 -0.9877  2.1000 -0.3896
   59MOL0     H 8096   4.035   6.068   7.168  1.1102  0.4692  1.1403
   59MOL0     H 8097   4.165   5.952   7.178  0.5281  0.3883  3.5588
   59MOL0     H 8098   4.020   5.973   6.962 -2.1044  0.6561  0.6663
   59MOL0     H 8099   4.043   5.798   7.006 -0.8166 -1.5737  0.3662
   59MOL0     H 8100   3.930   5.807   6.790  0.5886 -2.2165  1.7283
   59MOL0     H 8101   3.810   5.691   6.540  0.3044  0.6437 -2.9529
   59MOL0     H 8102   3.903   5.836   6.590 -0.3907  0.2117  0.0005
   59MOL0     H 8103   3.753   5.859   6.504 -0.2331  2.3388  1.1779
   59MOL0     H 8104   3.264   5.719   6.457 -1.6191 -0.0968 -0.8867
   59MOL0     H 8105   3.151   5.593   6.266 -0.5877 -1.5525 -0.5798
   59MOL0     H 8106   3.119   5.358   6.194  0.6762 -0.4507 -0.1361
   59MOL0     H 8107   3.083   5.502   6.085  1.9761  0.6916 -0.5365
   59MOL0     H 8108   2.996   5.284   5.994 -0.5835  2.0486  1.0424
   59MOL0     H 8109   3.090   5.383   5.895 -2.1695 -0.4444 -1.1969
   59MOL0     H 8110   3.238   5.158   6.058 -2.4882  3.2765  3.8214
   59MOL0     H 8111   3.290   5.251   5.916 -0.9772 -1.4911 -1.8538
   59MOL0     H 8112   3.131   5.158   5.783  0.4676  1.5513  1.5986
   59MOL0     H 8113   3.031   5.076   5.906 -0.2647 -4.8775  0.0347
   59MOL0     H 8114   3.303   4.993   5.794  0.7941 -0.3899  0.7446
   59MOL0     H 8115   3.254   4.921   5.949 -1.0085  0.8601  1.2209
   59MOL0     H 8116   3.067   4.926   5.704 -3.5687 -2.3459  1.6271
   59MOL0     H 8117   3.051   4.832   5.846 -0.2646  0.5963 -0.0425
   59MOL0     H 8118   3.265   4.802   5.626 -0.7439 -1.8598 -2.2350
   59MOL0     H 8119   3.123   4.709   5.646  1.8856 -0.7008 -1.2453
   59MOL0     H 8120   3.285   4.575   5.737 -2.2979 -0.5261  0.3662
   59MOL0     H 8121   3.220   4.638   5.881 -1.9722  1.6822 -0.8990
   59MOL0     H 8122   3.520   5.461   6.133 -1.4737 -1.2739 -0.6802
   59MOL0     H 8123   3.642   5.577   6.315  0.0157  1.1681  0.3837
   59MOL0     H 8124   3.439   5.831   6.868  0.8961  2.4749 -1.1793
   59MOL0     H 8125   3.598   5.862   7.062 -0.5618 -1.4853 -0.2776
   59MOL0     H 8126   2.676   5.812   8.033 -1.5891 -2.1912  0.6598
   59MOL0     H 8127   2.436   5.767   7.993  0.7497  0.4155  0.9278
   59MOL0     H 8128   2.149   5.601   7.933 -0.3179  2.5576  0.1515
   59MOL0     H 8129   1.924   5.526   7.958  2.5152  2.1717  1.6338
   59MOL0     H 8130   1.679   5.472   7.595 -1.4265 -0.8387 -0.1580
   59MOL0     H 8131   1.722   5.300   7.619  1.7639  1.8576 -2.7360
   59MOL0     H 8132   1.542   5.325   7.812  1.5440  0.2166  0.4692
   59MOL0     H 8133   1.518   5.274   7.638 -1.1186  1.1717 -0.5768
   59MOL0     H 8134   1.459   5.570   7.739 -0.1659 -1.1149  3.9367
   59MOL0     H 8135   1.415   5.493   7.589 -1.0873  0.7575  0.6334
   59MOL0     H 8136   1.260   5.521   7.771  3.9923  2.8624 -1.7770
   59MOL0     H 8137   1.306   5.365   7.830  1.9965 -0.2391 -0.0239
   59MOL0     H 8138   1.087   5.247   7.498  0.2495 -2.1540  2.1881
   59MOL0     H 8139   1.921   5.406   7.538 -0.1297 -0.5713  0.3287
   59MOL0     H 8140   2.236   5.534   7.461 -2.7779  2.5955  1.6004
   59MOL0     H 8141   2.232   5.359   7.506  1.0471  1.2089  0.1918
   59MOL0     H 8142   2.103   5.431   7.405  1.9047 -0.4209 -0.8638
   60MOL0     O 8143   9.025   7.845   3.740 -0.9943 -0.0425  0.6981
   60MOL0     C 8144   8.983   7.745   3.793 -0.0624  0.3253  1.1161
   60MOL0     O 8145   9.049   7.620   3.779 -0.1556  0.1638 -0.9626
   60MOL0     C 8146   9.173   7.614   3.711  0.3735  0.2774  0.5815
   60MOL0     C 8147   9.184   7.587   3.574  0.6235 -0.7046  0.6548
   60MOL0     C 8148   9.307   7.581   3.511 -0.6001  0.6636 -0.0323
   60MOL0     C 8149   9.427   7.577   3.588  0.4759  0.6210  0.2870
   60MOL0     O 8150   9.545   7.542   3.533 -0.0578 -0.4820 -0.4414
   60MOL0     C 8151   9.561   7.550   3.391  0.0938  0.5484 -1.0983
   60MOL0     C 8152   9.703   7.547   3.329  0.0697  1.3423  0.8052
   60MOL0     C 8153   9.773   7.409   3.378  0.4936  0.2726 -0.3794
   60MOL0     C 8154   9.748   7.303   3.275 -0.3525  0.5208  0.6590
   60MOL0     C 8155   9.809   7.171   3.335  0.6679  0.1297 -0.4208
   60MOL0     C 8156   9.776   7.045   3.257 -0.0226  0.1055  0.1482
   60MOL0     C 8157   9.636   6.984   3.257 -0.6926 -0.0349 -0.5793
   60MOL0     C 8158   9.638   6.852   3.173 -0.5115  0.8826  0.1860
   60MOL0     N 8159   9.504   6.811   3.133 -0.0993  0.1249  0.0526
   60MOL0     C 8160   9.395   6.817   3.216 -0.1085  0.4302 -0.7021
   60MOL0     C 8161   9.280   6.806   3.145  0.1949 -0.1548 -1.1083
   60MOL0     C 8162   9.141   6.818   3.204 -0.3325  0.1027  0.0684
   60MOL0     C 8163   9.085   6.966   3.237 -1.3458  0.1652  0.6299
   60MOL0     C 8164   9.110   7.072   3.121 -0.2126 -0.2616 -0.5222
   60MOL0     C 8165   9.034   7.198   3.156 -0.4206 -0.1632 -0.0789
   60MOL0     O 8166   9.115   7.295   3.214 -0.4156 -0.3356 -0.3194
   60MOL0     C 8167   9.131   7.277   3.350  0.2527  0.2196 -0.1739
   60MOL0     C 8168   9.242   7.232   3.416 -0.3181  0.2524  0.3006
   60MOL0     C 8169   9.235   7.204   3.555  0.4425 -0.2532 -0.0125
   60MOL0     C 8170   9.354   7.147   3.624  0.4521  0.6138 -0.4951
   60MOL0     C 8171   9.115   7.234   3.632 -0.5188 -0.6226  0.3636
   60MOL0     C 8172   9.092   7.203   3.778  0.1470 -0.0861 -0.8095
   60MOL0     O 8173   8.975   7.239   3.822  0.0361 -0.6673 -0.0514
   60MOL0     C 8174   8.910   7.192   3.935 -0.6033 -0.8154  0.1802
   60MOL0     C 8175   8.935   7.061   3.993 -0.4054 -0.1750 -0.5005
   60MOL0     C 8176   8.879   7.017   4.106  0.2506  0.8969  0.2750
   60MOL0     C 8177   8.779   7.099   4.166 -0.7172  0.2762  0.1663
   60MOL0     O 8178   8.726   7.059   4.292 -0.3838  0.4846  0.2045
   60MOL0     C 8179   8.723   6.919   4.323  0.0826 -0.5378 -1.2408
   60MOL0     C 8180   8.661   6.893   4.461 -0.2992  0.2686 -0.0526
   60MOL0     C 8181   8.574   6.765   4.446  0.1474  0.2922  0.2722
   60MOL0     C 8182   8.508   6.734   4.585 -0.3076  0.4976 -1.0001
   60MOL0     C 8183   8.427   6.609   4.579 -1.3563  0.0627 -0.3128
   60MOL0     C 8184   8.280   6.640   4.552 -1.0507 -1.0698 -0.2988
   60MOL0     C 8185   8.190   6.534   4.615 -0.6676 -0.3130  0.5507
   60MOL0     C 8186   8.100   6.602   4.721 -0.4592 -0.3027  0.5346
   60MOL0    Cl 8187   8.017   6.469   4.809 -0.1826  0.6021 -0.0152
   60MOL0     C 8188   8.737   7.214   4.114  0.4824 -0.9217  0.6034
   60MOL0     C 8189   8.800   7.256   3.993 -0.1547 -0.2754 -1.1659
   60MOL0     O 8190   9.181   7.145   3.840 -1.1587 -0.3090 -0.6266
   60MOL0     C 8191   9.015   7.294   3.561  0.7734  0.1376  0.0198
   60MOL0     C 8192   9.021   7.316   3.420 -0.7083  0.7641 -0.4764
   60MOL0     N 8193   9.330   6.790   3.015  0.5653 -0.1478  0.5419
   60MOL0     N 8194   9.456   6.789   3.008  0.0387 -0.5840  0.2526
   60MOL0     C 8195   9.414   7.586   3.727  0.2284  0.0501 -0.1154
   60MOL0     C 8196   9.290   7.619   3.790 -0.6618  0.4746 -0.7725
   60MOL0     C 8197   8.873   7.752   3.891 -0.0271 -0.3284 -0.0030
   60MOL0     C 8198   8.852   7.638   3.982 -0.5198  0.4021  0.6627
   60MOL0     C 8199   8.729   7.629   4.041  0.0768 -0.1058 -0.3621
   60MOL0     C 8200   8.631   7.732   4.038 -0.1270  0.7173 -1.1380
   60MOL0     O 8201   8.514   7.694   4.105  0.0172 -0.2728 -0.5758
   60MOL0     C 8202   8.413   7.796   4.086  0.0332 -0.3320  0.3306
   60MOL0     C 8203   8.288   7.770   4.174  0.0256 -0.0298 -0.7780
   60MOL0     C 8204   8.321   7.809   4.326 -0.7998 -0.0688 -1.1683
   60MOL0     C 8205   8.295   7.953   4.358  0.3268  0.0599 -0.1685
   60MOL0     C 8206   8.147   7.983   4.349  0.0616  0.0122  0.5656
   60MOL0     C 8207   8.030   7.980   4.337  0.8054  0.2619 -1.2497
   60MOL0     C 8208   8.655   7.839   3.958 -0.4158 -0.3330  1.0440
   60MOL0     C 8209   8.771   7.854   3.880  0.1747 -0.0189  0.5326
   60MOL0     C 8210   8.788   7.981   3.790 -0.0233 -1.3062 -0.3902
   60MOL0     H 8211   9.098   7.583   3.508  2.0069 -1.2587 -1.2012
   60MOL0     H 8212   9.313   7.553   3.406 -0.7857  0.8952 -0.1035
   60MOL0     H 8213   9.518   7.641   3.347 -0.7320  0.3254 -0.7723
   60MOL0     H 8214   9.505   7.467   3.348  1.6533 -0.4929 -1.1817
   60MOL0     H 8215   9.695   7.555   3.220  1.4812 -0.1384  0.5556
   60MOL0     H 8216   9.774   7.627   3.353  0.0108  1.9966 -1.0622
   60MOL0     H 8217   9.881   7.418   3.389  0.4289 -0.9683  1.9540
   60MOL0     H 8218   9.740   7.365   3.472  2.1239 -2.7299 -1.0929
   60MOL0     H 8219   9.642   7.294   3.251  0.2902  0.1915 -2.4541
   60MOL0     H 8220   9.794   7.328   3.179 -2.4913 -1.8508 -1.1202
   60MOL0     H 8221   9.760   7.154   3.431 -1.1763 -0.2254 -1.3756
   60MOL0     H 8222   9.918   7.179   3.336  0.6510  0.5742 -1.2449
   60MOL0     H 8223   9.807   7.063   3.154  0.2088 -0.4061  0.1273
   60MOL0     H 8224   9.827   6.963   3.309 -0.7418  1.0815  2.5477
   60MOL0     H 8225   9.565   7.058   3.218  1.1586  1.4796 -1.2589
   60MOL0     H 8226   9.594   6.963   3.356  3.1737  0.7114  1.4033
   60MOL0     H 8227   9.698   6.860   3.082  0.0233  0.7276  0.5177
   60MOL0     H 8228   9.681   6.772   3.235  2.2965  0.7116 -1.7935
   60MOL0     H 8229   9.393   6.820   3.325 -0.7881 -0.5884 -0.6749
   60MOL0     H 8230   9.123   6.775   3.303  0.2506  1.8492  0.9718
   60MOL0     H 8231   9.079   6.761   3.134  1.5226 -2.0996  0.1286
   60MOL0     H 8232   8.977   6.966   3.253 -1.3374  0.9673  0.6990
   60MOL0     H 8233   9.137   6.988   3.331 -1.6763  1.4208  0.5355
   60MOL0     H 8234   9.217   7.087   3.136 -0.8174  1.4793  3.4859
   60MOL0     H 8235   9.078   7.032   3.024 -0.0758  1.1530 -1.1784
   60MOL0     H 8236   9.011   7.242   3.059  4.0228  2.2789 -0.2608
   60MOL0     H 8237   8.947   7.178   3.219  0.0025 -0.5857  0.3862
   60MOL0     H 8238   9.329   7.213   3.353  0.8074  0.1427  1.8108
   60MOL0     H 8239   9.353   7.043   3.655 -1.7424  1.6382  3.6430
   60MOL0     H 8240   9.358   7.211   3.713  3.1612 -1.7506  1.2486
   60MOL0     H 8241   9.444   7.164   3.563 -0.9614  0.1286 -2.8611
   60MOL0     H 8242   9.005   6.999   3.937 -0.1762 -0.7030  0.3538
   60MOL0     H 8243   8.910   6.925   4.154  0.0437  1.0091  0.6277
   60MOL0     H 8244   8.664   6.878   4.240 -2.5778 -0.2846  0.4214
   60MOL0     H 8245   8.822   6.873   4.334  0.8864  1.0607 -1.5313
   60MOL0     H 8246   8.729   6.868   4.543 -1.0449  0.5615  0.6568
   60MOL0     H 8247   8.604   6.978   4.499  0.7734  1.3902 -0.8722
   60MOL0     H 8248   8.627   6.672   4.422 -1.8717 -1.0278  0.7035
   60MOL0     H 8249   8.499   6.781   4.368 -0.2148 -0.7629  0.3844
   60MOL0     H 8250   8.450   6.819   4.622 -1.8678 -1.8188  2.3532
   60MOL0     H 8251   8.584   6.724   4.662 -0.7890  1.8593 -0.3240
   60MOL0     H 8252   8.470   6.531   4.515 -0.1783 -1.3847  2.0667
   60MOL0     H 8253   8.445   6.572   4.681  0.5221 -0.3350 -0.7576
   60MOL0     H 8254   8.253   6.648   4.446  0.6862  0.8902 -0.6433
   60MOL0     H 8255   8.257   6.738   4.596  1.6894 -1.6363  2.7714
   60MOL0     H 8256   8.254   6.458   4.661 -0.5688  0.4314  1.7043
   60MOL0     H 8257   8.119   6.486   4.548 -1.3633 -2.3190  2.6274
   60MOL0     H 8258   8.040   6.671   4.661  2.9545  2.8028  0.3141
   60MOL0     H 8259   8.157   6.663   4.792 -2.3646 -0.3973  2.2364
   60MOL0     H 8260   8.662   7.266   4.173  0.5119 -4.4057  4.1167
   60MOL0     H 8261   8.753   7.349   3.963 -0.3270 -0.0926 -0.3394
   60MOL0     H 8262   8.922   7.319   3.611  1.3518 -1.1643  1.8213
   60MOL0     H 8263   8.936   7.356   3.366 -0.8343  0.1974 -0.7026
   60MOL0     H 8264   9.507   7.570   3.780 -1.1188 -2.0849  1.8276
   60MOL0     H 8265   9.294   7.631   3.898  1.6760  3.2933 -1.0557
   60MOL0     H 8266   8.908   7.547   3.967 -2.2583 -0.4279 -1.2387
   60MOL0     H 8267   8.714   7.543   4.106 -1.5914  1.3889  1.3717
   60MOL0     H 8268   8.455   7.895   4.104 -2.4652  1.1869 -1.6578
   60MOL0     H 8269   8.377   7.801   3.983 -1.0239  0.2137  0.7095
   60MOL0     H 8270   8.268   7.662   4.178 -2.0433  0.3357  0.4268
   60MOL0     H 8271   8.199   7.823   4.140 -1.6391 -2.4064 -0.4109
   60MOL0     H 8272   8.263   7.742   4.391 -0.5385  0.0118 -0.8503
   60MOL0     H 8273   8.424   7.793   4.358 -1.6645 -0.7741  1.5409
   60MOL0     H 8274   8.348   8.005   4.278 -0.0426 -2.1521 -1.9519
   60MOL0     H 8275   8.330   7.984   4.457 -4.1115 -2.2583  2.4276
   60MOL0     H 8276   7.923   7.968   4.339  0.8827 -0.3769 -0.7956
   60MOL0     H 8277   8.585   7.919   3.935  2.2692  1.2622 -2.6641
   60MOL0     H 8278   8.719   8.058   3.824  0.0617 -0.8250 -1.2965
   60MOL0     H 8279   8.885   8.032   3.787 -1.0476  0.6963 -2.2958
   60MOL0     H 8280   8.764   7.944   3.690  0.5203 -0.9668 -0.6440
   61MOL0     O 8281   1.990   3.497   6.142 -0.0423  0.1318 -0.2626
   61MOL0     C 8282   2.078   3.430   6.096  0.3343  0.8011 -0.8752
   61MOL0     O 8283   2.085   3.298   6.124 -0.0087  0.7155  0.2861
   61MOL0     C 8284   1.991   3.238   6.201  0.7411  0.8124  0.4364
   61MOL0     C 8285   1.961   3.275   6.335 -0.1373  0.1553  0.1609
   61MOL0     C 8286   1.847   3.223   6.404 -0.2763 -0.0757 -0.2833
   61MOL0     C 8287   1.764   3.129   6.338 -0.2664  0.2793 -0.1286
   61MOL0     O 8288   1.659   3.074   6.409  0.6677  0.4916  0.2401
   61MOL0     C 8289   1.542   3.037   6.338 -0.5301 -0.5495  1.2745
   61MOL0     C 8290   1.437   3.040   6.439 -0.0387  0.1550 -0.6880
   61MOL0     C 8291   1.354   3.169   6.444 -0.4013  0.2708  0.3877
   61MOL0     C 8292   1.244   3.169   6.543 -0.3384 -0.0170  0.5688
   61MOL0     C 8293   1.128   3.073   6.531  0.0357 -0.6289  0.1148
   61MOL0     C 8294   1.062   3.096   6.388  0.0170 -0.4379 -0.3865
   61MOL0     C 8295   0.942   3.008   6.378  0.1320  0.6549  0.0239
   61MOL0     C 8296   0.972   2.873   6.316 -0.8142  0.3084  0.1393
   61MOL0     N 8297   0.858   2.785   6.298  0.4780  0.4012 -0.8701
   61MOL0     C 8298   0.882   2.657   6.263  0.6395 -0.2533  1.0711
   61MOL0     C 8299   0.756   2.604   6.245  0.1401  0.2333 -0.5194
   61MOL0     C 8300   0.709   2.457   6.213  0.0068  0.6062 -0.4758
   61MOL0     C 8301   0.557   2.420   6.245  0.7507 -0.3211  0.6632
   61MOL0     C 8302   0.462   2.458   6.130 -0.1439  0.1085  0.0366
   61MOL0     C 8303   0.315   2.462   6.181 -0.8461 -0.0276  0.1281
   61MOL0     O 8304   0.272   2.326   6.210 -0.1781  0.1675 -0.0894
   61MOL0     C 8305   0.145   2.295   6.244 -0.3866  0.1090 -0.3488
   61MOL0     C 8306   0.131   2.168   6.299  0.2698  0.2737  0.5542
   61MOL0     C 8307   0.009   2.125   6.348 -0.0736  0.6136  0.1553
   61MOL0     C 8308  -0.006   1.981   6.394 -0.2649 -0.5452 -0.7503
   61MOL0     C 8309  -0.104   2.210   6.341 -0.0731 -0.7793 -0.0894
   61MOL0     C 8310  -0.247   2.180   6.376 -0.1932  0.2921 -0.8941
   61MOL0     O 8311  -0.342   2.284   6.380 -0.7824  0.8611  0.5635
   61MOL0     C 8312  -0.468   2.252   6.400 -0.3509 -0.1396  0.1170
   61MOL0     C 8313  -0.534   2.333   6.489 -0.0322  0.5164  0.0141
   61MOL0     C 8314  -0.675   2.312   6.517 -0.5583  0.0283  0.5565
   61MOL0     C 8315  -0.744   2.214   6.443 -0.4694  0.0619  0.0855
   61MOL0     O 8316  -0.878   2.208   6.481 -1.1451 -0.8731  0.1682
   61MOL0     C 8317  -0.973   2.225   6.382 -1.0629 -0.7351 -0.1329
   61MOL0     C 8318  -1.055   2.100   6.387 -0.7500  0.4367 -0.2152
   61MOL0     C 8319  -1.148   2.087   6.505  0.2282  0.0382 -0.3081
   61MOL0     C 8320  -1.266   2.175   6.504 -0.1359  0.5626  0.3668
   61MOL0     C 8321  -1.350   2.152   6.372  0.5750 -0.2242  0.1789
   61MOL0     C 8322  -1.488   2.225   6.381  0.1042  0.6990  0.7045
   61MOL0     C 8323  -1.575   2.193   6.258 -0.0006  0.5107  0.0221
   61MOL0     C 8324  -1.728   2.216   6.308  0.4686 -0.9574  0.6061
   61MOL0    Cl 8325  -1.786   2.381   6.342  0.3044  0.0370 -0.7091
   61MOL0     C 8326  -0.687   2.137   6.350 -0.3655  0.3869  0.0194
   61MOL0     C 8327  -0.542   2.156   6.327 -0.1437  0.0476 -0.2058
   61MOL0     O 8328  -0.272   2.063   6.408  0.0577 -0.3922 -0.5531
   61MOL0     C 8329  -0.079   2.339   6.296  0.2221 -0.5340 -0.5159
   61MOL0     C 8330   0.038   2.378   6.241 -0.9150 -0.4208 -0.3131
   61MOL0     N 8331   0.664   2.706   6.263 -0.2471 -0.3513 -0.6474
   61MOL0     N 8332   0.728   2.820   6.301  0.5299  0.3799  0.5353
   61MOL0     C 8333   1.808   3.084   6.206  0.4707 -0.8034 -0.3454
   61MOL0     C 8334   1.915   3.147   6.141 -0.0563 -0.5162 -0.0572
   61MOL0     C 8335   2.180   3.487   6.002 -0.1120 -0.6655 -0.2782
   61MOL0     C 8336   2.281   3.407   5.963 -1.3161  0.3060  0.0049
   61MOL0     C 8337   2.361   3.447   5.855 -0.0268  0.5270 -0.6395
   61MOL0     C 8338   2.345   3.569   5.795  1.4875  0.2323 -0.1529
   61MOL0     O 8339   2.426   3.601   5.689  0.7454  0.1195  0.1863
   61MOL0     C 8340   2.360   3.657   5.573 -0.4002 -0.4746  0.1677
   61MOL0     C 8341   2.243   3.566   5.515  0.0714 -1.0842  0.4331
   61MOL0     C 8342   2.167   3.617   5.393 -0.0292  0.4942 -0.0670
   61MOL0     C 8343   2.148   3.773   5.371 -0.4331 -0.0715 -0.2356
   61MOL0     C 8344   2.085   3.841   5.490 -0.0131  0.3237 -0.1836
   61MOL0     C 8345   2.021   3.882   5.581 -0.3534 -0.2131 -0.6128
   61MOL0     C 8346   2.247   3.651   5.846 -0.3169 -0.9644  0.2179
   61MOL0     C 8347   2.167   3.619   5.953 -0.0983 -0.2115  1.0553
   61MOL0     C 8348   2.070   3.727   5.983 -0.0464 -0.0726 -0.5144
   61MOL0     H 8349   2.022   3.348   6.388 -0.0594  1.4885 -1.6774
   61MOL0     H 8350   1.830   3.249   6.508  1.0372 -3.4448  0.9145
   61MOL0     H 8351   1.563   2.938   6.298  2.8583 -0.1201  1.6885
   61MOL0     H 8352   1.522   3.103   6.253 -0.1912 -2.1491 -0.0841
   61MOL0     H 8353   1.374   2.958   6.404 -0.7355  0.3117  0.1880
   61MOL0     H 8354   1.482   3.026   6.537 -0.8034 -2.7323 -0.6810
   61MOL0     H 8355   1.428   3.247   6.463  0.7637  0.5447 -4.1663
   61MOL0     H 8356   1.320   3.194   6.343  0.3281 -2.7057 -0.7123
   61MOL0     H 8357   1.283   3.151   6.644 -3.0283  1.7418  2.0629
   61MOL0     H 8358   1.212   3.273   6.554  1.5169  1.0674 -2.8895
   61MOL0     H 8359   1.053   3.099   6.605  0.4166  0.3241  0.1821
   61MOL0     H 8360   1.169   2.972   6.535  0.3848 -0.4455  2.2441
   61MOL0     H 8361   1.023   3.198   6.387  0.7361 -0.1546 -1.1274
   61MOL0     H 8362   1.144   3.077   6.317 -0.5472 -1.2543 -0.8382
   61MOL0     H 8363   0.867   3.056   6.315  1.6359  0.7101 -1.8034
   61MOL0     H 8364   0.899   2.975   6.473  0.0596  0.9144  0.0825
   61MOL0     H 8365   1.020   2.904   6.223 -1.3826  0.2374 -0.1829
   61MOL0     H 8366   1.050   2.818   6.370 -0.1291 -0.1613 -1.2752
   61MOL0     H 8367   0.977   2.606   6.273  0.2388 -1.3757 -0.4287
   61MOL0     H 8368   0.772   2.385   6.266  0.1682  0.2831 -1.0949
   61MOL0     H 8369   0.732   2.433   6.109 -4.8955  1.3204 -2.0045
   61MOL0     H 8370   0.566   2.311   6.250 -1.3656 -0.6545 -1.0852
   61MOL0     H 8371   0.514   2.457   6.338 -0.6319 -0.4405  0.0974
   61MOL0     H 8372   0.499   2.556   6.099 -0.8106 -0.0671 -1.3890
   61MOL0     H 8373   0.480   2.393   6.044  1.3513 -0.3535  0.6610
   61MOL0     H 8374   0.297   2.532   6.263  3.9854  1.1017  0.5508
   61MOL0     H 8375   0.253   2.497   6.098 -1.1931  1.2942  0.9077
   61MOL0     H 8376   0.215   2.102   6.310  0.0197  0.1116  1.5858
   61MOL0     H 8377   0.085   1.921   6.389  0.0463 -0.0283 -1.6021
   61MOL0     H 8378  -0.084   1.926   6.340  1.6176 -2.4488 -1.6899
   61MOL0     H 8379  -0.030   1.990   6.501 -0.9790  2.2250 -1.0764
   61MOL0     H 8380  -0.473   2.410   6.533  1.8443  0.8202 -2.8747
   61MOL0     H 8381  -0.735   2.373   6.583 -1.3112  0.3385 -0.3865
   61MOL0     H 8382  -1.030   2.314   6.408  0.4756 -0.1886  1.5672
   61MOL0     H 8383  -0.939   2.231   6.278 -1.9333 -0.8162 -0.4271
   61MOL0     H 8384  -1.114   2.088   6.295 -1.9143  0.5815  0.4932
   61MOL0     H 8385  -0.994   2.009   6.383 -1.2425  0.1077 -0.3984
   61MOL0     H 8386  -1.102   2.093   6.604 -0.8871  0.4260  0.2102
   61MOL0     H 8387  -1.189   1.985   6.504 -0.7496  0.4188 -0.8372
   61MOL0     H 8388  -1.244   2.282   6.504 -2.1580  1.0873  3.1215
   61MOL0     H 8389  -1.330   2.151   6.590  0.0537 -3.2121 -0.3772
   61MOL0     H 8390  -1.291   2.190   6.288  0.5952 -0.4526  0.0894
   61MOL0     H 8391  -1.365   2.046   6.350 -1.0561  0.0314 -0.0707
   61MOL0     H 8392  -1.479   2.334   6.389 -0.9461  0.8685 -0.1443
   61MOL0     H 8393  -1.544   2.200   6.472 -3.9495  4.6098 -0.3353
   61MOL0     H 8394  -1.565   2.092   6.217 -5.4999  1.0564 -3.8080
   61MOL0     H 8395  -1.553   2.259   6.173 -0.7087  0.7640  0.0271
   61MOL0     H 8396  -1.739   2.152   6.396 -2.3163 -2.7485 -0.8717
   61MOL0     H 8397  -1.804   2.170   6.243  0.3231  2.1744 -1.6650
   61MOL0     H 8398  -0.743   2.056   6.303  0.2664 -1.4970  2.2872
   61MOL0     H 8399  -0.491   2.107   6.245 -1.1974  0.0913 -0.9231
   61MOL0     H 8400  -0.154   2.418   6.297 -0.0235 -0.7639 -0.6032
   61MOL0     H 8401   0.039   2.471   6.184 -2.0447  0.3762  0.8937
   61MOL0     H 8402   1.750   3.016   6.144  0.5222 -1.3701  0.2169
   61MOL0     H 8403   1.935   3.112   6.040  0.1301 -0.0047 -0.1988
   61MOL0     H 8404   2.308   3.317   6.018  0.5544 -0.2078 -1.6304
   61MOL0     H 8405   2.444   3.389   5.816  0.1498 -0.2887  0.8636
   61MOL0     H 8406   2.324   3.757   5.598 -0.3465 -0.8815  2.0377
   61MOL0     H 8407   2.429   3.668   5.489 -0.7274 -0.7426 -0.1425
   61MOL0     H 8408   2.170   3.538   5.591 -2.5146 -0.8234 -1.7911
   61MOL0     H 8409   2.294   3.476   5.477  0.8460 -0.1941 -0.7016
   61MOL0     H 8410   2.216   3.585   5.300 -1.3240  0.4738 -0.7792
   61MOL0     H 8411   2.065   3.576   5.399 -0.0139  0.6207  1.2557
   61MOL0     H 8412   2.095   3.794   5.278 -2.3530 -2.0633  0.3278
   61MOL0     H 8413   2.249   3.814   5.363 -0.2941 -0.1871  0.8156
   61MOL0     H 8414   1.962   3.911   5.665  0.3057 -2.9605  0.9062
   61MOL0     H 8415   2.242   3.750   5.800  0.2802 -0.7874  0.5238
   61MOL0     H 8416   1.970   3.698   5.949 -0.9076 -0.6978  2.2665
   61MOL0     H 8417   2.069   3.748   6.090  1.4800  1.4899 -0.7691
   61MOL0     H 8418   2.098   3.826   5.945  0.8430  0.3679  1.2023
   62MOL0     O 8419  11.492   6.154   9.935 -0.1115  0.0913 -0.6999
   62MOL0     C 8420  11.514   6.191  10.050 -0.7829 -0.0047  1.1539
   62MOL0     O 8421  11.471   6.130  10.162 -0.2133  0.4333 -0.0888
   62MOL0     C 8422  11.396   6.017  10.144 -0.4948  0.5871 -0.4316
   62MOL0     C 8423  11.262   6.021  10.172  0.2760 -0.2202 -0.0963
   62MOL0     C 8424  11.193   5.902  10.140 -0.3958  0.1248  0.1369
   62MOL0     C 8425  11.251   5.793  10.090 -0.5141  0.8669  0.5570
   62MOL0     O 8426  11.187   5.675  10.050 -0.0402  0.5531  0.1271
   62MOL0     C 8427  11.067   5.626  10.106  0.4800  0.6573  0.5009
   62MOL0     C 8428  10.946   5.672  10.014 -0.2409  0.0159  0.2265
   62MOL0     C 8429  10.815   5.585  10.018 -0.7666 -0.1499 -0.7026
   62MOL0     C 8430  10.772   5.534  10.159  0.0532 -0.0012  0.8630
   62MOL0     C 8431  10.630   5.507  10.181 -0.7043  0.8733  0.3112
   62MOL0     C 8432  10.606   5.431  10.316  0.0973 -0.0026  0.2470
   62MOL0     C 8433  10.462   5.372  10.309  0.5484 -0.2980  0.0518
   62MOL0     C 8434  10.409   5.346  10.453 -0.7806  0.6232  0.1238
   62MOL0     N 8435  10.367   5.472  10.509  0.3947 -0.1974  0.3173
   62MOL0     C 8436  10.316   5.581  10.455  0.5141  0.4841 -0.1872
   62MOL0     C 8437  10.293   5.676  10.551 -0.4884  0.8690  0.1097
   62MOL0     C 8438  10.257   5.824  10.540  0.1427 -0.1102 -0.9342
   62MOL0     C 8439  10.175   5.863  10.666 -0.2963  0.1863 -0.0707
   62MOL0     C 8440  10.113   6.002  10.638 -0.1065  0.0829 -0.1126
   62MOL0     C 8441  10.029   6.059  10.752  0.9201  0.1180 -0.9532
   62MOL0     O 8442   9.969   6.194  10.723 -0.0069  0.3067 -0.6169
   62MOL0     C 8443   9.866   6.204  10.626  0.1670 -0.2173  0.0431
   62MOL0     C 8444   9.774   6.103  10.591  1.1297 -0.3899 -0.2498
   62MOL0     C 8445   9.670   6.117  10.500 -0.6021  0.5052  0.0013
   62MOL0     C 8446   9.576   5.995  10.477 -0.0189  0.1575  0.0531
   62MOL0     C 8447   9.650   6.239  10.429 -0.1264 -1.1268  0.4085
   62MOL0     C 8448   9.540   6.281  10.337  0.5521 -0.6395  0.2700
   62MOL0     O 8449   9.499   6.416  10.336 -0.3844  0.8338 -0.0479
   62MOL0     C 8450   9.445   6.467  10.217  0.2106 -0.4212 -0.2166
   62MOL0     C 8451   9.302   6.485  10.201  0.4358 -0.2695 -1.8734
   62MOL0     C 8452   9.257   6.563  10.096  0.9157 -0.5960 -0.9274
   62MOL0     C 8453   9.344   6.614  10.001  0.3238  0.0393  0.1199
   62MOL0     O 8454   9.297   6.669   9.889 -0.8860  0.1167 -0.2911
   62MOL0     C 8455   9.162   6.718   9.864 -0.6876 -0.2122 -0.1074
   62MOL0     C 8456   9.062   6.617   9.801  0.3408 -0.5693 -1.2181
   62MOL0     C 8457   9.106   6.559   9.663  0.3438 -0.5863  0.2198
   62MOL0     C 8458   9.153   6.413   9.681 -0.8144 -0.0679 -0.8478
   62MOL0     C 8459   9.231   6.347   9.561  0.3288 -0.3908  0.6892
   62MOL0     C 8460   9.182   6.392   9.422 -0.3005 -0.2069 -0.2734
   62MOL0     C 8461   9.268   6.329   9.306 -0.0933  0.3282  0.0752
   62MOL0     C 8462   9.413   6.378   9.292 -1.0079  0.4332  0.1914
   62MOL0    Cl 8463   9.402   6.525   9.191 -0.3720  0.0865 -0.4151
   62MOL0     C 8464   9.485   6.602  10.026 -0.2279 -0.3718 -0.6312
   62MOL0     C 8465   9.530   6.523  10.127  0.5051 -0.2907 -0.1197
   62MOL0     O 8466   9.491   6.194  10.263 -0.4185 -0.4353 -0.0649
   62MOL0     C 8467   9.750   6.340  10.463 -0.4840  0.4731  0.1719
   62MOL0     C 8468   9.849   6.331  10.561  0.0446 -0.7206  1.1788
   62MOL0     N 8469  10.314   5.615  10.667 -0.7502  0.0869 -0.0397
   62MOL0     N 8470  10.352   5.496  10.642  0.1898  0.4703  0.6871
   62MOL0     C 8471  11.385   5.786  10.074 -0.3695 -0.0689 -0.9355
   62MOL0     C 8472  11.464   5.895  10.113  0.8848 -0.7211  0.1771
   62MOL0     C 8473  11.600   6.320  10.072  0.2088  0.3377  0.0960
   62MOL0     C 8474  11.598   6.415   9.966 -0.0593  0.2137 -0.8199
   62MOL0     C 8475  11.644   6.546   9.994  0.3293 -0.2533 -0.4771
   62MOL0     C 8476  11.672   6.589  10.122  0.1045  0.1989  1.0961
   62MOL0     O 8477  11.673   6.723  10.152  0.0950 -0.1723  0.4107
   62MOL0     C 8478  11.678   6.774  10.279  0.6123  1.1429  0.7045
   62MOL0     C 8479  11.626   6.920  10.287  0.2664 -0.0874 -0.3954
   62MOL0     C 8480  11.586   6.946  10.432 -0.9763 -0.4275  0.0248
   62MOL0     C 8481  11.702   6.943  10.534 -0.1468  0.0573  1.0907
   62MOL0     C 8482  11.812   7.044  10.517  0.3992  0.2755 -0.6646
   62MOL0     C 8483  11.906   7.115  10.486 -0.4187 -0.4305  0.2304
   62MOL0     C 8484  11.685   6.489  10.220  0.1164 -1.0143  0.6171
   62MOL0     C 8485  11.664   6.355  10.195  0.6213  0.6018  0.9774
   62MOL0     C 8486  11.708   6.249  10.303  0.3345 -0.6417  0.5777
   62MOL0     H 8487  11.205   6.108  10.204 -0.6466 -1.6160  2.4125
   62MOL0     H 8488  11.085   5.901  10.155 -0.5847 -1.4037 -1.0322
   62MOL0     H 8489  11.046   5.650  10.210  0.0157  1.4772  0.2377
   62MOL0     H 8490  11.072   5.518  10.095  1.6181  0.8814 -1.9608
   62MOL0     H 8491  10.944   5.778  10.041  0.4656  0.1695 -0.3068
   62MOL0     H 8492  10.989   5.671   9.913  2.1127 -0.1675  1.1738
   62MOL0     H 8493  10.744   5.664   9.990  0.6863  1.9310  1.1912
   62MOL0     H 8494  10.807   5.506   9.943 -4.0081 -1.8118  1.1565
   62MOL0     H 8495  10.812   5.433  10.168  0.1159  0.1433  2.5309
   62MOL0     H 8496  10.802   5.605  10.237  2.3344  2.5907 -2.1183
   62MOL0     H 8497  10.596   5.438  10.103  1.8452 -2.3891  1.8163
   62MOL0     H 8498  10.570   5.598  10.181 -1.1223  0.5974  0.0347
   62MOL0     H 8499  10.677   5.348  10.313  1.4393  1.1298  0.2223
   62MOL0     H 8500  10.619   5.493  10.404 -0.6696 -0.3122  0.5894
   62MOL0     H 8501  10.463   5.277  10.254 -0.4023  0.9594 -2.3138
   62MOL0     H 8502  10.394   5.438  10.253  1.7878  0.3483 -0.7268
   62MOL0     H 8503  10.325   5.276  10.457 -0.8015  0.6441  0.0352
   62MOL0     H 8504  10.488   5.314  10.522 -1.7735 -0.7826  0.6576
   62MOL0     H 8505  10.302   5.597  10.349  3.1370 -0.3339 -0.7295
   62MOL0     H 8506  10.188   5.837  10.457 -1.7261  0.0581  0.5851
   62MOL0     H 8507  10.335   5.900  10.526 -1.0620  1.2134 -0.7271
   62MOL0     H 8508  10.103   5.783  10.683  0.6508 -1.2268 -2.2973
   62MOL0     H 8509  10.249   5.865  10.747  1.3257 -2.5590 -1.3566
   62MOL0     H 8510  10.191   6.078  10.631 -1.4467  1.5077 -0.3907
   62MOL0     H 8511  10.045   5.993  10.553 -1.0911  3.2368  0.2229
   62MOL0     H 8512   9.939   6.001  10.774  1.7396  0.1784  3.2749
   62MOL0     H 8513  10.083   6.059  10.847 -2.5484 -3.7442  1.3507
   62MOL0     H 8514   9.779   6.015  10.654 -0.8648  0.3179  1.0049
   62MOL0     H 8515   9.599   5.958  10.376  2.6007 -2.1452  1.3442
   62MOL0     H 8516   9.471   6.024  10.478 -0.5048 -1.4317  2.8383
   62MOL0     H 8517   9.589   5.909  10.543 -0.0359 -1.2931 -1.7302
   62MOL0     H 8518   9.231   6.446  10.274 -0.6182 -0.4608 -2.9756
   62MOL0     H 8519   9.151   6.586  10.096  1.2794  1.3231  0.6221
   62MOL0     H 8520   9.118   6.752   9.958  2.1192  1.4531  0.7019
   62MOL0     H 8521   9.178   6.797   9.790  1.4148 -2.2931 -2.0203
   62MOL0     H 8522   9.045   6.539   9.876  0.2774  0.8043  0.2524
   62MOL0     H 8523   8.963   6.661   9.793 -0.0991 -1.2429  0.1286
   62MOL0     H 8524   9.193   6.613   9.624  0.3357 -2.4070 -2.6458
   62MOL0     H 8525   9.016   6.580   9.605  1.9674  1.0117 -1.9177
   62MOL0     H 8526   9.056   6.368   9.703 -1.3760  1.5771  0.2249
   62MOL0     H 8527   9.207   6.412   9.776 -1.9488 -0.2070 -0.1880
   62MOL0     H 8528   9.337   6.364   9.586  0.0196  2.0421  0.5823
   62MOL0     H 8529   9.235   6.238   9.565 -1.1662 -0.4103  2.7454
   62MOL0     H 8530   9.199   6.500   9.418 -4.3689  0.5486 -1.7370
   62MOL0     H 8531   9.077   6.367   9.407 -0.0944 -2.0187  0.9509
   62MOL0     H 8532   9.213   6.353   9.215 -0.1597  1.8616  0.4850
   62MOL0     H 8533   9.280   6.221   9.318  1.0865  0.7068  3.5289
   62MOL0     H 8534   9.465   6.301   9.234 -1.3227  0.2407  0.1632
   62MOL0     H 8535   9.457   6.396   9.391 -1.2141 -0.3216  0.4226
   62MOL0     H 8536   9.558   6.660   9.970 -1.8047  1.5245 -0.8433
   62MOL0     H 8537   9.637   6.522  10.141  0.3952 -1.4425  0.7653
   62MOL0     H 8538   9.748   6.426  10.397  1.0321 -2.2792 -3.8508
   62MOL0     H 8539   9.916   6.415  10.547  0.0254 -0.9639 -0.5310
   62MOL0     H 8540  11.434   5.702  10.027  0.9048  0.6396 -0.9337
   62MOL0     H 8541  11.572   5.901  10.106  0.9389  1.5035  2.0757
   62MOL0     H 8542  11.565   6.397   9.864 -2.4328 -0.9777  0.0838
   62MOL0     H 8543  11.630   6.621   9.917 -2.3660 -0.1933 -0.0318
   62MOL0     H 8544  11.625   6.702  10.342 -0.4095  0.9525 -0.3351
   62MOL0     H 8545  11.783   6.781  10.306  0.4336 -0.7873  2.1250
   62MOL0     H 8546  11.538   6.928  10.221 -0.8396  0.5813  1.0961
   62MOL0     H 8547  11.699   6.991  10.248 -0.7640  0.2364 -1.8677
   62MOL0     H 8548  11.517   7.029  10.447 -1.0053 -0.5814  0.7452
   62MOL0     H 8549  11.527   6.856  10.453 -0.8158 -0.0016  2.5094
   62MOL0     H 8550  11.754   6.846  10.525  1.6527  1.0420  0.2496
   62MOL0     H 8551  11.665   6.956  10.635 -0.9151  2.7650  0.5334
   62MOL0     H 8552  11.997   7.169  10.468 -1.3737  1.3666  0.6278
   62MOL0     H 8553  11.738   6.523  10.308  0.6284  1.3239 -0.5270
   62MOL0     H 8554  11.617   6.226  10.359 -1.5501 -1.3660 -2.5450
   62MOL0     H 8555  11.742   6.155  10.260 -0.2629 -0.0690 -1.2458
   62MOL0     H 8556  11.784   6.279  10.376 -1.8924 -2.1019  3.7213
   63MOL0     O 8557   9.678   8.147   2.318  0.1530 -0.1732 -0.3322
   63MOL0     C 8558   9.565   8.170   2.275 -0.0524  0.1110 -0.1645
   63MOL0     O 8559   9.530   8.277   2.197  0.5774 -0.1167 -0.7307
   63MOL0     C 8560   9.633   8.343   2.139 -0.1004  0.8249  0.4227
   63MOL0     C 8561   9.754   8.295   2.082  0.5868 -0.9547 -0.1050
   63MOL0     C 8562   9.852   8.385   2.030 -0.4172 -0.2595  0.3949
   63MOL0     C 8563   9.827   8.523   2.035 -0.6139 -0.9187 -0.2205
   63MOL0     O 8564   9.942   8.599   2.029 -0.4264  0.6478  0.0470
   63MOL0     C 8565   9.930   8.737   2.040  0.0747 -0.9255  0.0964
   63MOL0     C 8566  10.059   8.797   2.091  0.1878 -0.5103 -0.1260
   63MOL0     C 8567  10.175   8.789   1.987  0.2187  0.6431 -1.3258
   63MOL0     C 8568  10.312   8.817   2.061 -0.1400  0.1316  0.0594
   63MOL0     C 8569  10.423   8.861   1.957  0.4842  0.2911  0.5164
   63MOL0     C 8570  10.558   8.852   2.015 -0.3703 -0.1384 -0.4373
   63MOL0     C 8571  10.654   8.948   1.946  0.6648 -0.8844 -0.1565
   63MOL0     C 8572  10.795   8.955   2.011  0.2556 -0.1494 -0.1340
   63MOL0     N 8573  10.876   9.085   1.999 -0.2125  1.1444  0.5297
   63MOL0     C 8574  10.984   9.103   1.914 -0.1787  0.6328  0.1961
   63MOL0     C 8575  11.038   9.219   1.961 -0.3819  0.3480  0.5505
   63MOL0     C 8576  11.153   9.277   1.881 -0.2441 -0.0145 -0.4372
   63MOL0     C 8577  11.278   9.332   1.969 -0.2892  0.0146 -0.2278
   63MOL0     C 8578  11.380   9.228   2.012 -1.0743  0.2379 -0.6138
   63MOL0     C 8579  11.485   9.196   1.890  0.4729 -0.2186 -0.0201
   63MOL0     O 8580  11.534   9.061   1.905  1.0457 -0.0843 -0.0530
   63MOL0     C 8581  11.625   9.029   2.011 -0.5522 -0.1960 -0.2263
   63MOL0     C 8582  11.716   9.114   2.059 -0.4940  0.0640 -0.3623
   63MOL0     C 8583  11.825   9.069   2.139 -0.2778 -0.6975  0.3995
   63MOL0     C 8584  11.917   9.181   2.179 -0.4592 -0.7465  0.5465
   63MOL0     C 8585  11.821   8.948   2.214  0.5235 -0.1876  0.1475
   63MOL0     C 8586  11.909   8.893   2.321  0.6051 -0.5249  1.2426
   63MOL0     O 8587  12.023   8.966   2.344 -0.2732 -0.4221 -0.3583
   63MOL0     C 8588  12.091   8.953   2.464  0.0817  0.0299 -0.6757
   63MOL0     C 8589  12.180   8.842   2.472  0.0851 -0.3643  0.3543
   63MOL0     C 8590  12.263   8.823   2.577  0.6058  0.3567  0.3394
   63MOL0     C 8591  12.257   8.908   2.691  0.1607 -0.4586 -0.2916
   63MOL0     O 8592  12.321   8.895   2.809  0.3038 -0.2541  0.1004
   63MOL0     C 8593  12.451   8.822   2.810  0.7118 -0.0331  0.4366
   63MOL0     C 8594  12.484   8.783   2.952  0.0076 -0.0091 -0.6721
   63MOL0     C 8595  12.616   8.700   2.937  0.1203 -0.2014  0.0605
   63MOL0     C 8596  12.657   8.658   3.082  0.8648  0.1205  0.2410
   63MOL0     C 8597  12.805   8.599   3.099 -0.1316  0.1444 -0.5602
   63MOL0     C 8598  12.839   8.553   3.244  0.2252 -0.6254 -0.1400
   63MOL0     C 8599  12.808   8.664   3.347 -0.1669 -1.0127  0.4942
   63MOL0     C 8600  12.863   8.623   3.480 -0.4640  0.7230 -0.6090
   63MOL0    Cl 8601  12.781   8.715   3.602  0.3624  0.4086 -0.2795
   63MOL0     C 8602  12.170   9.018   2.690 -1.0297 -0.1399 -0.3589
   63MOL0     C 8603  12.096   9.042   2.572 -0.2762 -0.2505  0.4854
   63MOL0     O 8604  11.872   8.789   2.384  0.1277  0.1286  0.3921
   63MOL0     C 8605  11.717   8.857   2.176 -0.0112  0.7860  0.9443
   63MOL0     C 8606  11.628   8.895   2.063 -1.0496 -0.4022 -0.2011
   63MOL0     N 8607  10.958   9.281   2.055 -0.3454  1.2580  0.6591
   63MOL0     N 8608  10.871   9.189   2.090 -0.0219  0.3842  0.2629
   63MOL0     C 8609   9.700   8.566   2.067 -0.0649  0.5943  0.1185
   63MOL0     C 8610   9.606   8.476   2.117  0.0354 -0.6486 -0.6246
   63MOL0     C 8611   9.456   8.085   2.315  0.8516 -0.1519  0.0404
   63MOL0     C 8612   9.379   8.116   2.424 -1.1685 -0.6434 -0.2397
   63MOL0     C 8613   9.272   8.045   2.467 -0.1102  0.3748 -0.3875
   63MOL0     C 8614   9.243   7.925   2.407  0.4926  0.4460  0.4952
   63MOL0     O 8615   9.127   7.859   2.453 -0.3681  0.3737  0.1025
   63MOL0     C 8616   9.088   7.732   2.412  0.4982 -0.0123 -0.8352
   63MOL0     C 8617   8.936   7.710   2.461 -0.1221  0.1722 -0.4241
   63MOL0     C 8618   8.899   7.564   2.430 -0.4212 -0.1608  0.0215
   63MOL0     C 8619   8.773   7.517   2.493 -0.4489  0.8900  0.1650
   63MOL0     C 8620   8.769   7.366   2.487  0.2912 -0.0993  0.6082
   63MOL0     C 8621   8.774   7.245   2.484 -0.6900 -0.0818 -0.0423
   63MOL0     C 8622   9.314   7.882   2.298 -0.4761  0.4162 -0.6751
   63MOL0     C 8623   9.418   7.962   2.252 -0.9666  0.5344 -0.4433
   63MOL0     C 8624   9.504   7.920   2.131  0.0829  0.7531 -0.9301
   63MOL0     H 8625   9.782   8.191   2.094  4.5693 -0.6723 -4.2054
   63MOL0     H 8626   9.950   8.360   1.990  0.9516  2.9581  1.4309
   63MOL0     H 8627   9.855   8.770   2.113 -0.4967 -1.4368 -0.2505
   63MOL0     H 8628   9.895   8.786   1.949  0.0424 -0.6951  0.2312
   63MOL0     H 8629  10.050   8.903   2.117 -1.7680 -0.3550 -1.2615
   63MOL0     H 8630  10.083   8.743   2.183  0.7715  1.4274  0.9235
   63MOL0     H 8631  10.175   8.691   1.937 -0.8857 -1.3056  2.1236
   63MOL0     H 8632  10.155   8.868   1.914  0.9781  1.1579 -0.9817
   63MOL0     H 8633  10.296   8.898   2.133 -0.4647 -3.2189  4.1728
   63MOL0     H 8634  10.340   8.737   2.130  0.6144 -0.1375 -0.5342
   63MOL0     H 8635  10.401   8.965   1.931  0.2120  0.4824  1.4625
   63MOL0     H 8636  10.417   8.801   1.865  1.2480  0.7990  0.1246
   63MOL0     H 8637  10.557   8.884   2.120  2.7693 -0.9853 -0.0611
   63MOL0     H 8638  10.598   8.750   2.008 -1.1532 -0.3703 -2.1460
   63MOL0     H 8639  10.612   9.049   1.950  0.9813 -0.7752  0.5107
   63MOL0     H 8640  10.673   8.926   1.840  1.0638 -1.7939  0.0939
   63MOL0     H 8641  10.793   8.952   2.121 -0.2286  2.4601  0.0028
   63MOL0     H 8642  10.860   8.877   1.971  0.5552  0.0167  0.0243
   63MOL0     H 8643  11.015   9.040   1.831 -0.9000 -0.1201  0.4859
   63MOL0     H 8644  11.094   9.359   1.838  0.3459  0.8208  0.3411
   63MOL0     H 8645  11.176   9.207   1.799 -1.3771 -1.7813  0.6689
   63MOL0     H 8646  11.323   9.409   1.905 -3.3344  1.9381 -0.2702
   63MOL0     H 8647  11.219   9.384   2.045 -1.0610  1.9113 -1.9886
   63MOL0     H 8648  11.443   9.276   2.087  0.9117 -0.0013 -2.0553
   63MOL0     H 8649  11.325   9.139   2.043  1.1480 -0.4283  1.7194
   63MOL0     H 8650  11.429   9.218   1.798  0.2198  1.0214  0.4041
   63MOL0     H 8651  11.568   9.267   1.901  2.7583 -3.0875  3.3640
   63MOL0     H 8652  11.716   9.218   2.025 -1.4500  0.9120  2.0461
   63MOL0     H 8653  11.891   9.210   2.281 -1.1462  0.2055  0.1054
   63MOL0     H 8654  11.900   9.265   2.112 -2.7089 -2.4500 -1.1893
   63MOL0     H 8655  12.022   9.150   2.189 -1.0101 -1.9318  3.7542
   63MOL0     H 8656  12.188   8.775   2.387  0.1360  1.0392 -0.7823
   63MOL0     H 8657  12.323   8.733   2.579 -0.9192 -0.7334 -0.5225
   63MOL0     H 8658  12.442   8.730   2.751  1.0243 -0.2035  0.6459
   63MOL0     H 8659  12.517   8.899   2.769  0.9217  0.6743  2.0458
   63MOL0     H 8660  12.484   8.871   3.017 -3.7023  0.1972 -0.7634
   63MOL0     H 8661  12.403   8.721   2.992 -0.1181 -0.8599 -2.1492
   63MOL0     H 8662  12.691   8.762   2.886 -0.8915 -1.6138 -3.4736
   63MOL0     H 8663  12.586   8.613   2.879 -1.5700 -0.5639  1.4155
   63MOL0     H 8664  12.577   8.587   3.106 -0.3612  0.8527 -1.4981
   63MOL0     H 8665  12.648   8.743   3.150  0.6349  0.2723  0.0217
   63MOL0     H 8666  12.824   8.515   3.031  2.1795  2.1943 -2.6774
   63MOL0     H 8667  12.883   8.673   3.078  1.8086 -1.7073 -0.2141
   63MOL0     H 8668  12.945   8.531   3.236  0.1445 -1.2411  0.3660
   63MOL0     H 8669  12.801   8.455   3.273  1.2069 -0.9982 -0.0826
   63MOL0     H 8670  12.700   8.682   3.346  0.1761  1.4910 -1.3655
   63MOL0     H 8671  12.856   8.753   3.306 -1.1281 -0.9463 -0.5325
   63MOL0     H 8672  12.973   8.629   3.477 -0.2305 -2.3906 -2.2196
   63MOL0     H 8673  12.845   8.516   3.493  1.7062  0.5004  1.3307
   63MOL0     H 8674  12.175   9.080   2.779  2.4897  0.6327 -0.9249
   63MOL0     H 8675  12.034   9.130   2.561  0.1472 -0.1451 -1.2442
   63MOL0     H 8676  11.709   8.761   2.226  0.6664  0.1089 -0.2155
   63MOL0     H 8677  11.560   8.822   2.021 -0.5657  0.6275 -3.0364
   63MOL0     H 8678   9.665   8.668   2.078 -1.2703  0.9246 -4.6783
   63MOL0     H 8679   9.506   8.511   2.144 -0.8612  1.6983 -5.7662
   63MOL0     H 8680   9.411   8.193   2.494 -0.8405 -1.1686  0.1963
   63MOL0     H 8681   9.211   8.064   2.554 -1.9736  0.8282 -1.7103
   63MOL0     H 8682   9.102   7.711   2.306  0.5275  3.4673 -1.6127
   63MOL0     H 8683   9.159   7.656   2.446  0.7947  0.7773  0.3726
   63MOL0     H 8684   8.864   7.777   2.414  0.1843  0.6831 -0.1762
   63MOL0     H 8685   8.939   7.727   2.569 -0.5694 -0.6322 -0.2846
   63MOL0     H 8686   8.884   7.551   2.322 -0.9558 -0.3745  0.1149
   63MOL0     H 8687   8.976   7.495   2.466 -2.7829 -2.2661  1.3713
   63MOL0     H 8688   8.681   7.554   2.445 -0.4404  0.7175  0.0129
   63MOL0     H 8689   8.773   7.553   2.596 -0.9457  1.9135 -0.1794
   63MOL0     H 8690   8.775   7.138   2.483  2.1616 -0.1295 -1.0134
   63MOL0     H 8691   9.297   7.780   2.266 -1.5672 -0.7515  3.0385
   63MOL0     H 8692   9.468   7.826   2.087  2.8124 -1.2277  0.7263
   63MOL0     H 8693   9.517   7.999   2.056  1.2928 -1.3026 -3.0222
   63MOL0     H 8694   9.604   7.899   2.170  0.4134  2.2481 -0.9280
   64MOL0     O 8695   9.368   6.738   8.276 -0.2584 -0.0415  0.3443
   64MOL0     C 8696   9.334   6.625   8.241  0.3993 -0.0815 -0.3953
   64MOL0     O 8697   9.393   6.540   8.152  0.0619 -0.7597 -0.2473
   64MOL0     C 8698   9.466   6.595   8.051  0.7503  0.2287 -0.2743
   64MOL0     C 8699   9.605   6.556   8.026 -0.0235 -0.3196 -0.6975
   64MOL0     C 8700   9.675   6.630   7.934 -0.1632 -0.2417 -0.1762
   64MOL0     C 8701   9.616   6.735   7.856  0.6551 -0.1375  0.9770
   64MOL0     O 8702   9.701   6.808   7.770  0.8291 -0.1198  0.0337
   64MOL0     C 8703   9.672   6.786   7.639 -0.4334 -0.0841  0.0526
   64MOL0     C 8704   9.783   6.827   7.545  0.5296 -0.0492  0.9147
   64MOL0     C 8705   9.903   6.736   7.550  1.0447  0.7522 -0.0081
   64MOL0     C 8706   9.878   6.607   7.482  0.8133  0.3039 -0.2977
   64MOL0     C 8707  10.005   6.513   7.482 -0.5710  0.5374  0.6866
   64MOL0     C 8708  10.039   6.463   7.626  0.0501  0.2472 -1.3421
   64MOL0     C 8709  10.149   6.359   7.612  1.1584 -0.3135  0.1429
   64MOL0     C 8710  10.202   6.308   7.745 -0.6950  0.3370 -0.5724
   64MOL0     N 8711  10.305   6.400   7.795 -0.2450 -0.0647 -0.3792
   64MOL0     C 8712  10.290   6.496   7.894  1.0118 -0.0230  0.0280
   64MOL0     C 8713  10.403   6.571   7.905  0.8002 -0.5378  0.0930
   64MOL0     C 8714  10.431   6.681   8.004 -0.5723 -0.5221  0.6809
   64MOL0     C 8715  10.493   6.616   8.122  0.4150  0.5775 -0.0418
   64MOL0     C 8716  10.481   6.714   8.236  0.7297 -0.0742 -0.5089
   64MOL0     C 8717  10.508   6.659   8.374 -1.0311  0.5483  0.4061
   64MOL0     O 8718  10.607   6.550   8.358  0.5883  0.3630  0.4893
   64MOL0     C 8719  10.689   6.533   8.461  0.0395  0.1194  0.3959
   64MOL0     C 8720  10.669   6.567   8.590  0.4866 -1.0786  0.7319
   64MOL0     C 8721  10.770   6.577   8.682  0.2226  0.0756  0.0579
   64MOL0     C 8722  10.737   6.642   8.806  0.1420 -0.9334 -0.2187
   64MOL0     C 8723  10.905   6.520   8.659  0.1198 -0.2946 -0.2570
   64MOL0     C 8724  11.016   6.514   8.750 -0.6652 -0.0368  0.1275
   64MOL0     O 8725  11.135   6.488   8.702  0.2307  0.4515  0.1675
   64MOL0     C 8726  11.248   6.502   8.775 -0.2941 -0.1705 -0.8219
   64MOL0     C 8727  11.358   6.421   8.749  0.4921  0.6087  0.1879
   64MOL0     C 8728  11.477   6.421   8.817 -0.3425  0.6243 -0.0415
   64MOL0     C 8729  11.484   6.506   8.926 -0.6741 -0.1191 -0.2369
   64MOL0     O 8730  11.589   6.495   9.015  0.6790  0.6143 -0.0406
   64MOL0     C 8731  11.563   6.452   9.152  1.0135  0.3025 -0.2383
   64MOL0     C 8732  11.657   6.341   9.194  0.6388  0.1892  0.5172
   64MOL0     C 8733  11.666   6.228   9.097 -0.1779  0.5284  0.5558
   64MOL0     C 8734  11.719   6.095   9.160  0.7908 -0.9928 -0.0446
   64MOL0     C 8735  11.758   6.003   9.043 -0.0473  0.1569 -0.4500
   64MOL0     C 8736  11.786   5.863   9.096  0.5603  1.6042 -0.1384
   64MOL0     C 8737  11.674   5.774   9.144 -0.7545  0.1630 -0.3219
   64MOL0     C 8738  11.724   5.670   9.252 -0.1457 -0.2007 -0.1505
   64MOL0    Cl 8739  11.792   5.743   9.409 -0.1856  0.2199  0.0905
   64MOL0     C 8740  11.385   6.602   8.948  0.6743  0.0634  0.1611
   64MOL0     C 8741  11.269   6.598   8.874  0.0118 -0.5298 -0.0924
   64MOL0     O 8742  10.991   6.532   8.869 -0.1775 -0.8639 -0.3278
   64MOL0     C 8743  10.914   6.465   8.526 -0.3830  0.0506 -0.0391
   64MOL0     C 8744  10.813   6.476   8.436  0.1213 -0.5640  1.5010
   64MOL0     N 8745  10.482   6.522   7.813  0.1787 -0.2122 -0.3572
   64MOL0     N 8746  10.432   6.423   7.739  0.0595  0.4755 -0.0489
   64MOL0     C 8747   9.481   6.765   7.873  0.1521  0.6923  0.6310
   64MOL0     C 8748   9.403   6.697   7.972 -0.4912  0.2241  0.5235
   64MOL0     C 8749   9.206   6.569   8.308 -0.5173  1.1331 -0.3184
   64MOL0     C 8750   9.200   6.432   8.331 -0.3468  0.4399 -0.0142
   64MOL0     C 8751   9.092   6.369   8.396 -0.1018 -0.2837 -1.1669
   64MOL0     C 8752   8.985   6.450   8.431 -1.2363  0.9014 -0.4076
   64MOL0     O 8753   8.870   6.397   8.472 -0.3825  0.3916  0.3519
   64MOL0     C 8754   8.871   6.333   8.601 -0.4052 -0.4268  0.2254
   64MOL0     C 8755   8.878   6.451   8.706 -0.1394  1.2555  0.2571
   64MOL0     C 8756   8.869   6.393   8.846  0.5790  0.2062  0.3753
   64MOL0     C 8757   8.987   6.299   8.878  0.0675  0.2272 -0.1751
   64MOL0     C 8758   8.976   6.247   9.015 -0.5787 -0.3220 -0.4528
   64MOL0     C 8759   8.979   6.212   9.129 -0.2437  0.4811 -0.5072
   64MOL0     C 8760   8.989   6.589   8.411 -1.4073  0.4850  0.0212
   64MOL0     C 8761   9.100   6.650   8.342 -0.0134 -0.1431 -0.3861
   64MOL0     C 8762   9.076   6.790   8.294  0.0312 -0.0094 -0.2939
   64MOL0     H 8763   9.661   6.492   8.093  1.6780  2.8935  1.1957
   64MOL0     H 8764   9.778   6.606   7.912 -0.3559 -3.7709  1.9105
   64MOL0     H 8765   9.585   6.851   7.623  1.8524  3.2129 -0.1371
   64MOL0     H 8766   9.639   6.683   7.623 -0.0785 -0.1522 -0.2782
   64MOL0     H 8767   9.745   6.836   7.443  1.1456 -1.6407  0.5144
   64MOL0     H 8768   9.810   6.930   7.567 -2.1013  2.1390 -4.4468
   64MOL0     H 8769   9.984   6.784   7.494  0.1719  1.4325 -0.7192
   64MOL0     H 8770   9.925   6.708   7.654 -2.3839  1.0302  0.8896
   64MOL0     H 8771   9.804   6.559   7.547  1.6704 -0.4573  0.1444
   64MOL0     H 8772   9.832   6.619   7.384 -0.6822 -1.0592  0.1798
   64MOL0     H 8773  10.084   6.576   7.440  0.7850 -1.1803  0.5709
   64MOL0     H 8774   9.990   6.426   7.417 -1.4384  1.3202 -0.1989
   64MOL0     H 8775  10.060   6.552   7.685 -2.2746 -0.9243  1.4840
   64MOL0     H 8776   9.957   6.407   7.671  2.4692 -2.1564  0.3454
   64MOL0     H 8777  10.230   6.410   7.558 -0.0884  1.2225 -0.3666
   64MOL0     H 8778  10.122   6.270   7.556 -0.8902 -0.5859  1.4754
   64MOL0     H 8779  10.126   6.302   7.823 -0.5642 -0.7652 -0.5233
   64MOL0     H 8780  10.257   6.217   7.720 -2.2810 -0.7881 -0.0632
   64MOL0     H 8781  10.194   6.498   7.946 -1.1772 -2.2375 -3.4559
   64MOL0     H 8782  10.346   6.745   8.026 -0.1669  0.0922  0.4988
   64MOL0     H 8783  10.508   6.749   7.965 -1.8222  0.7531  0.3825
   64MOL0     H 8784  10.427   6.536   8.154 -1.6573  1.5211 -1.6356
   64MOL0     H 8785  10.596   6.583   8.109  0.3679  0.2039  0.5065
   64MOL0     H 8786  10.546   6.798   8.209 -0.1751  0.8099 -0.0493
   64MOL0     H 8787  10.376   6.746   8.238  0.2481 -1.5686  1.3322
   64MOL0     H 8788  10.543   6.741   8.436 -0.3928  1.0666 -0.6059
   64MOL0     H 8789  10.417   6.625   8.425  1.2324 -1.7036  3.2704
   64MOL0     H 8790  10.572   6.600   8.626 -0.8938 -1.9105 -1.9616
   64MOL0     H 8791  10.638   6.687   8.814  0.0144 -0.9816 -1.4743
   64MOL0     H 8792  10.814   6.720   8.819  1.1691 -1.9019 -0.3047
   64MOL0     H 8793  10.743   6.571   8.889  1.6434  0.1950  0.7103
   64MOL0     H 8794  11.343   6.352   8.666  0.9367  0.5281  0.1708
   64MOL0     H 8795  11.561   6.361   8.783 -1.6237  0.1164 -2.5974
   64MOL0     H 8796  11.568   6.530   9.229 -2.8722 -0.3610  0.8923
   64MOL0     H 8797  11.460   6.417   9.165 -0.7711  4.0745 -2.5555
   64MOL0     H 8798  11.758   6.383   9.204  1.4052 -1.6971  1.0826
   64MOL0     H 8799  11.627   6.304   9.293  1.0305  0.7030  0.8371
   64MOL0     H 8800  11.736   6.261   9.020 -0.3270 -1.8313 -0.6863
   64MOL0     H 8801  11.574   6.204   9.043  1.0459 -4.0644  0.1362
   64MOL0     H 8802  11.644   6.053   9.228  1.4231 -3.2142 -0.6272
   64MOL0     H 8803  11.811   6.120   9.213  0.6997  0.9442 -0.7411
   64MOL0     H 8804  11.679   6.000   8.967  1.1719  4.1208 -2.1328
   64MOL0     H 8805  11.842   6.041   8.985  1.1874 -3.5612 -1.4117
   64MOL0     H 8806  11.862   5.870   9.173  0.2133  1.8193  0.1872
   64MOL0     H 8807  11.832   5.821   9.006 -1.2155  1.7719 -1.1864
   64MOL0     H 8808  11.652   5.723   9.049  1.4131 -1.7335  0.1055
   64MOL0     H 8809  11.590   5.838   9.171 -0.0117  1.3259 -0.6809
   64MOL0     H 8810  11.802   5.608   9.206  2.2273  0.1177  3.0887
   64MOL0     H 8811  11.638   5.603   9.262 -1.0062  0.9187  0.1301
   64MOL0     H 8812  11.399   6.667   9.033  1.2975 -1.7296  1.4810
   64MOL0     H 8813  11.191   6.662   8.912 -0.5993 -0.7616 -0.9322
   64MOL0     H 8814  11.008   6.428   8.489 -0.3754  0.1153 -0.0873
   64MOL0     H 8815  10.826   6.429   8.339 -0.6533 -0.1455  1.1784
   64MOL0     H 8816   9.444   6.840   7.805  2.8674  0.5684 -1.1188
   64MOL0     H 8817   9.299   6.723   7.989  0.2845  2.8387  1.7683
   64MOL0     H 8818   9.279   6.366   8.297 -1.3625 -1.4886  1.1314
   64MOL0     H 8819   9.091   6.261   8.412 -1.8730 -0.2264 -0.6617
   64MOL0     H 8820   8.780   6.272   8.605 -1.2829  0.8239  0.0950
   64MOL0     H 8821   8.954   6.263   8.615  0.1232  0.4425  1.6584
   64MOL0     H 8822   8.801   6.528   8.706 -0.4490  0.9471 -0.0076
   64MOL0     H 8823   8.968   6.513   8.698 -0.1133  1.2988  0.8490
   64MOL0     H 8824   8.864   6.475   8.917  0.6076  2.0931 -1.6890
   64MOL0     H 8825   8.770   6.351   8.865  0.8357  0.3950  2.3301
   64MOL0     H 8826   9.076   6.357   8.851 -0.8596  1.1765 -1.3037
   64MOL0     H 8827   8.997   6.210   8.816  1.4547 -1.3386  2.1279
   64MOL0     H 8828   8.960   6.183   9.231  0.1336 -2.0938 -1.0813
   64MOL0     H 8829   8.903   6.652   8.432 -1.1362  0.6801  0.5639
   64MOL0     H 8830   8.996   6.838   8.351  0.4464  0.6193 -0.2205
   64MOL0     H 8831   9.167   6.850   8.310  0.0263 -0.2121  0.5651
   64MOL0     H 8832   9.047   6.774   8.190 -0.0477 -1.5342 -0.0520
   65MOL0     O 8833   4.024   3.745   5.440  0.1365 -0.5095 -0.6263
   65MOL0     C 8834   4.018   3.860   5.486 -0.3808 -0.2233  0.3228
   65MOL0     O 8835   3.905   3.942   5.472 -0.5808 -0.5035 -0.6331
   65MOL0     C 8836   3.788   3.879   5.462 -0.7103  0.4859  0.4958
   65MOL0     C 8837   3.701   3.946   5.384  0.5446  0.6705  0.1667
   65MOL0     C 8838   3.567   3.906   5.380 -0.3378 -0.0839  0.3087
   65MOL0     C 8839   3.515   3.804   5.460 -0.6443 -0.0370  1.1219
   65MOL0     O 8840   3.387   3.765   5.473  0.2154 -0.4396  0.1851
   65MOL0     C 8841   3.284   3.839   5.407  1.0961  0.9897  0.0811
   65MOL0     C 8842   3.152   3.757   5.427  0.8457  0.3487 -0.3127
   65MOL0     C 8843   3.092   3.752   5.571 -0.1879 -0.8313 -1.0215
   65MOL0     C 8844   2.988   3.648   5.591 -0.5771 -0.0685  0.5951
   65MOL0     C 8845   2.934   3.641   5.739 -0.3539 -0.1258  0.0742
   65MOL0     C 8846   2.830   3.527   5.750 -0.6099 -0.0989 -0.3111
   65MOL0     C 8847   2.738   3.552   5.872  0.1337  0.1099 -1.2009
   65MOL0     C 8848   2.787   3.481   5.993  0.3057 -0.8229 -0.6615
   65MOL0     N 8849   2.685   3.457   6.096 -0.0507 -0.2463  0.7521
   65MOL0     C 8850   2.590   3.555   6.134 -0.8148 -0.6238 -0.2654
   65MOL0     C 8851   2.513   3.485   6.220 -0.8897  0.0922 -0.5092
   65MOL0     C 8852   2.402   3.542   6.300 -0.1018 -0.0416  0.2519
   65MOL0     C 8853   2.312   3.441   6.367  0.8379  0.0111 -0.1306
   65MOL0     C 8854   2.367   3.343   6.470 -0.4362 -0.0776 -0.0292
   65MOL0     C 8855   2.464   3.411   6.578 -0.1363 -0.6737 -0.7237
   65MOL0     O 8856   2.544   3.314   6.651 -0.0092  0.7834  0.5199
   65MOL0     C 8857   2.642   3.340   6.744 -1.3542  0.1356 -0.7210
   65MOL0     C 8858   2.664   3.456   6.803 -0.3814 -1.0442  0.2521
   65MOL0     C 8859   2.758   3.482   6.910 -0.3212 -0.5540 -0.8703
   65MOL0     C 8860   2.742   3.615   6.986  0.7355  0.3279  0.0584
   65MOL0     C 8861   2.857   3.382   6.933 -0.4065  0.3251 -0.5718
   65MOL0     C 8862   2.976   3.383   7.032 -0.0978 -0.6018 -0.2983
   65MOL0     O 8863   3.016   3.259   7.070 -0.8451  0.7245  0.7347
   65MOL0     C 8864   3.136   3.244   7.135 -1.0729  0.5117 -0.8395
   65MOL0     C 8865   3.139   3.234   7.279 -0.2589 -0.0467  0.2679
   65MOL0     C 8866   3.260   3.219   7.343  0.4473  0.3090 -0.6311
   65MOL0     C 8867   3.375   3.219   7.272  0.1671  0.8281  0.5463
   65MOL0     O 8868   3.490   3.184   7.335 -0.4054  0.6422 -0.8417
   65MOL0     C 8869   3.575   3.295   7.373  0.0809 -1.3247  0.0821
   65MOL0     C 8870   3.549   3.372   7.504  0.9092  0.1272  0.1759
   65MOL0     C 8871   3.547   3.284   7.630 -1.0267 -0.9340 -0.4321
   65MOL0     C 8872   3.689   3.285   7.684  0.5448  0.6664 -0.3807
   65MOL0     C 8873   3.703   3.214   7.820  0.4498 -0.5919  0.2087
   65MOL0     C 8874   3.818   3.115   7.825  0.4752  1.0261  0.0592
   65MOL0     C 8875   3.840   3.048   7.958 -0.6375 -0.0379 -0.5911
   65MOL0     C 8876   3.764   2.919   7.964  1.3888  1.0311  0.5175
   65MOL0    Cl 8877   3.751   2.850   8.134 -0.0236 -0.2613 -0.2012
   65MOL0     C 8878   3.379   3.235   7.132  0.3695 -0.8673  0.0983
   65MOL0     C 8879   3.255   3.247   7.060  0.0191  0.3184 -0.2811
   65MOL0     O 8880   3.030   3.488   7.068 -0.0674  0.0793  0.9395
   65MOL0     C 8881   2.838   3.267   6.862  0.5447  0.6441  0.0927
   65MOL0     C 8882   2.736   3.243   6.771  0.6001  0.4535  0.6647
   65MOL0     N 8883   2.569   3.359   6.231 -0.2919 -0.6292 -0.8359
   65MOL0     N 8884   2.672   3.337   6.158  0.7426  0.5353  1.5224
   65MOL0     C 8885   3.609   3.726   5.524  0.1118 -0.7799 -0.4030
   65MOL0     C 8886   3.745   3.764   5.535  0.9514 -0.1879 -0.1411
   65MOL0     C 8887   4.131   3.929   5.544  0.5066  0.2588 -0.1837
   65MOL0     C 8888   4.106   4.046   5.629  0.2937  0.7134  0.4846
   65MOL0     C 8889   4.207   4.122   5.682  0.4142  1.0103  0.6892
   65MOL0     C 8890   4.342   4.085   5.659  0.7579  0.0614  0.1531
   65MOL0     O 8891   4.432   4.146   5.736  0.4753 -0.0702 -0.3487
   65MOL0     C 8892   4.577   4.132   5.711  0.7149  0.3965  0.0308
   65MOL0     C 8893   4.657   4.201   5.819 -0.2570 -0.7897  0.3083
   65MOL0     C 8894   4.595   4.340   5.887 -0.0006  0.5321  1.3573
   65MOL0     C 8895   4.704   4.423   5.952  0.3810  0.4627  0.9638
   65MOL0     C 8896   4.768   4.354   6.053 -0.5702  0.3465  0.2111
   65MOL0     C 8897   4.821   4.280   6.132 -0.1696  1.0039  0.1245
   65MOL0     C 8898   4.374   3.981   5.573  0.9247  0.3909 -1.0345
   65MOL0     C 8899   4.271   3.901   5.521 -0.3669 -1.1105 -0.0084
   65MOL0     C 8900   4.307   3.820   5.400 -0.1114  0.1623  0.6711
   65MOL0     H 8901   3.746   4.023   5.321  3.5029 -2.4181 -1.9143
   65MOL0     H 8902   3.514   3.978   5.317  0.9102  0.8643  0.2963
   65MOL0     H 8903   3.304   3.837   5.300  0.9741  0.7825  0.0624
   65MOL0     H 8904   3.266   3.940   5.447 -0.8204  0.8887 -0.4317
   65MOL0     H 8905   3.070   3.792   5.363 -1.7557 -1.8700  1.5610
   65MOL0     H 8906   3.180   3.656   5.399 -0.6899 -0.0893 -0.3908
   65MOL0     H 8907   3.167   3.763   5.650 -0.7656 -2.1651 -0.2508
   65MOL0     H 8908   3.044   3.850   5.582 -1.6713 -1.3741 -2.2937
   65MOL0     H 8909   2.904   3.661   5.523  0.2265 -0.3867 -0.4818
   65MOL0     H 8910   3.029   3.548   5.576  1.1894  0.5586  1.0493
   65MOL0     H 8911   2.877   3.729   5.767 -3.0735 -0.8568 -2.5659
   65MOL0     H 8912   3.014   3.622   5.811 -0.2142 -1.7600 -0.4735
   65MOL0     H 8913   2.761   3.521   5.665 -0.6260 -1.2705 -0.2298
   65MOL0     H 8914   2.891   3.437   5.757  1.0641  0.9805 -0.4548
   65MOL0     H 8915   2.641   3.511   5.843 -0.7919  1.5893 -0.3265
   65MOL0     H 8916   2.727   3.660   5.885  0.6350 -0.1408  2.1911
   65MOL0     H 8917   2.821   3.383   5.957  0.3279  0.0686 -3.2730
   65MOL0     H 8918   2.859   3.551   6.036 -0.1986  0.7487 -2.2536
   65MOL0     H 8919   2.600   3.661   6.113 -0.0315 -0.9154 -1.4506
   65MOL0     H 8920   2.334   3.601   6.239 -4.1611 -3.2271  1.2749
   65MOL0     H 8921   2.435   3.615   6.374  1.9882  0.6026 -1.2078
   65MOL0     H 8922   2.242   3.501   6.426  0.7202 -0.8553  0.6188
   65MOL0     H 8923   2.262   3.392   6.283 -0.0163 -0.3662  0.5798
   65MOL0     H 8924   2.277   3.304   6.519  0.1627 -1.1955  0.2224
   65MOL0     H 8925   2.416   3.260   6.417  3.1239 -0.6204  3.6290
   65MOL0     H 8926   2.538   3.479   6.535  1.9089 -3.2214 -1.5122
   65MOL0     H 8927   2.410   3.476   6.647 -1.5620 -1.2259 -1.2728
   65MOL0     H 8928   2.604   3.543   6.780  1.7893  0.3277 -0.5325
   65MOL0     H 8929   2.831   3.679   6.986 -0.3280  1.8864 -1.1884
   65MOL0     H 8930   2.707   3.596   7.088 -2.2827 -0.4671 -1.0491
   65MOL0     H 8931   2.669   3.681   6.940  2.3477  2.0995 -0.1050
   65MOL0     H 8932   3.046   3.231   7.335 -0.4369  1.7550  0.1032
   65MOL0     H 8933   3.268   3.182   7.445  1.1686 -1.4671 -1.3030
   65MOL0     H 8934   3.677   3.257   7.383 -0.4290 -2.3652  1.9126
   65MOL0     H 8935   3.579   3.366   7.290  1.8277 -2.0568 -0.5186
   65MOL0     H 8936   3.626   3.449   7.514  2.7207 -1.2943 -2.0255
   65MOL0     H 8937   3.451   3.422   7.503  0.0191 -1.5618 -0.1821
   65MOL0     H 8938   3.518   3.182   7.604 -0.2578 -1.0299 -0.9191
   65MOL0     H 8939   3.473   3.324   7.701 -1.6772 -3.4886  0.4355
   65MOL0     H 8940   3.734   3.383   7.699  1.3767 -0.0032  1.9313
   65MOL0     H 8941   3.751   3.226   7.616 -0.3160  1.2854 -1.7479
   65MOL0     H 8942   3.711   3.295   7.894 -0.7516  1.1008 -1.4042
   65MOL0     H 8943   3.610   3.158   7.835 -0.0787  0.4027  0.7936
   65MOL0     H 8944   3.905   3.176   7.797  1.8820  0.0026  1.9697
   65MOL0     H 8945   3.809   3.034   7.752 -0.7598  1.3942 -0.2234
   65MOL0     H 8946   3.810   3.115   8.039  5.2538  4.5651 -1.5452
   65MOL0     H 8947   3.944   3.022   7.981 -0.2369  2.5919  0.9667
   65MOL0     H 8948   3.798   2.842   7.893 -3.4769  1.5363 -2.8815
   65MOL0     H 8949   3.664   2.933   7.923  2.4377  1.4485 -2.0974
   65MOL0     H 8950   3.476   3.220   7.087  0.9195  1.7265  0.2442
   65MOL0     H 8951   3.242   3.246   6.952  0.5148 -2.9233 -0.4309
   65MOL0     H 8952   2.900   3.180   6.881  2.8653  1.8940 -1.2870
   65MOL0     H 8953   2.729   3.146   6.724 -1.6359  0.8386  0.1021
   65MOL0     H 8954   3.568   3.637   5.570 -1.3612 -0.1739 -0.4857
   65MOL0     H 8955   3.804   3.700   5.601 -3.9868 -3.1954  1.9152
   65MOL0     H 8956   4.003   4.070   5.654  0.4800  1.3319  0.6785
   65MOL0     H 8957   4.185   4.207   5.745  1.4643 -0.4529  3.2045
   65MOL0     H 8958   4.602   4.025   5.704 -3.2332 -0.8393  1.5027
   65MOL0     H 8959   4.585   4.173   5.611 -1.1369 -2.7228 -1.5566
   65MOL0     H 8960   4.754   4.219   5.771 -0.9328 -2.3290 -1.7655
   65MOL0     H 8961   4.661   4.136   5.906 -2.6245 -0.3193  0.8346
   65MOL0     H 8962   4.538   4.391   5.808 -0.5856  0.0197  1.4447
   65MOL0     H 8963   4.529   4.308   5.969  3.0701 -2.7812  2.7839
   65MOL0     H 8964   4.664   4.513   5.999  0.8707  0.4953  1.3305
   65MOL0     H 8965   4.777   4.470   5.886  1.9002 -1.0582  1.4589
   65MOL0     H 8966   4.886   4.212   6.182  0.4674 -1.2015 -3.3855
   65MOL0     H 8967   4.471   3.945   5.539  0.1187 -1.8859 -1.0631
   65MOL0     H 8968   4.249   3.848   5.312 -1.3408 -0.5607  1.2311
   65MOL0     H 8969   4.411   3.823   5.366 -0.4479  2.9115 -0.3685
   65MOL0     H 8970   4.273   3.717   5.418 -2.6340  0.7445 -0.3910
   66MOL0     O 8971  10.957  10.428   6.732  1.2037 -0.1698 -0.2580
   66MOL0     C 8972  10.906  10.485   6.830 -0.0233 -0.9229  0.5212
   66MOL0     O 8973  10.797  10.571   6.819  0.8130 -0.2143  0.4868
   66MOL0     C 8974  10.715  10.565   6.710 -0.4200  0.1536  0.1299
   66MOL0     C 8975  10.742  10.644   6.598 -0.3850  0.9600  0.4685
   66MOL0     C 8976  10.646  10.659   6.505  0.3429  0.5847  0.0775
   66MOL0     C 8977  10.529  10.579   6.512 -0.5405 -0.3744 -0.4942
   66MOL0     O 8978  10.460  10.577   6.399 -0.3568  0.9468  0.0513
   66MOL0     C 8979  10.318  10.567   6.403 -0.0544  0.3148 -0.5613
   66MOL0     C 8980  10.260  10.424   6.386  1.1986  0.9100 -0.3812
   66MOL0     C 8981  10.120  10.424   6.439 -0.0258 -0.8817  0.3824
   66MOL0     C 8982  10.115  10.425   6.598 -0.0993 -0.3981  1.6063
   66MOL0     C 8983   9.976  10.385   6.627  0.3364  0.5587 -1.1590
   66MOL0     C 8984   9.930  10.373   6.774 -0.2949 -0.2618  0.1965
   66MOL0     C 8985  10.006  10.478   6.864  0.8145  0.1279  0.8593
   66MOL0     C 8986   9.950  10.489   7.005 -0.3714  1.0933  0.5421
   66MOL0     N 8987   9.966  10.371   7.087 -0.0089 -0.0823  0.8606
   66MOL0     C 8988  10.080  10.296   7.092 -0.1194 -0.6122 -0.6643
   66MOL0     C 8989  10.040  10.186   7.166  0.9555 -0.7425  0.2545
   66MOL0     C 8990  10.109  10.060   7.201  0.7275  0.4606  0.2524
   66MOL0     C 8991  10.157  10.065   7.346 -0.3995  0.1666 -0.3278
   66MOL0     C 8992  10.182   9.923   7.407 -0.0889  0.1713  0.8618
   66MOL0     C 8993  10.265   9.833   7.311  0.2502 -0.1280  0.1060
   66MOL0     O 8994  10.296   9.707   7.374  0.2860  0.5546 -0.3606
   66MOL0     C 8995  10.202   9.610   7.390 -0.3182 -0.0556  0.2973
   66MOL0     C 8996  10.230   9.503   7.481 -0.9803 -0.3974 -0.6571
   66MOL0     C 8997  10.132   9.408   7.520 -0.0174 -1.1034 -0.2365
   66MOL0     C 8998  10.195   9.307   7.600 -0.6145 -0.1604 -0.3449
   66MOL0     C 8999  10.002   9.416   7.468 -0.3020  0.4125  0.2610
   66MOL0     C 9000   9.888   9.336   7.517 -0.1521 -0.0875 -0.3916
   66MOL0     O 9001   9.776   9.311   7.430 -0.5625 -0.7616 -0.0141
   66MOL0     C 9002   9.657   9.272   7.481 -0.7228 -0.4621 -0.1857
   66MOL0     C 9003   9.594   9.322   7.600 -0.2806 -0.0550  1.1414
   66MOL0     C 9004   9.481   9.274   7.661 -0.6156 -0.6295  0.6212
   66MOL0     C 9005   9.415   9.165   7.601 -0.1682  0.7392 -1.0894
   66MOL0     O 9006   9.295   9.108   7.643  0.3552  0.9214 -0.5593
   66MOL0     C 9007   9.208   9.169   7.741 -0.1031  0.2601 -0.0226
   66MOL0     C 9008   9.093   9.082   7.750  1.2153  0.8626 -0.1061
   66MOL0     C 9009   8.999   9.095   7.631  0.5392  0.3569 -0.1146
   66MOL0     C 9010   8.872   9.016   7.650 -0.6094 -0.2341  0.1458
   66MOL0     C 9011   8.771   9.012   7.530 -0.0111 -0.5120 -1.5690
   66MOL0     C 9012   8.672   8.897   7.552 -0.6978 -0.0868 -0.0696
   66MOL0     C 9013   8.555   8.928   7.651 -0.8669  0.4110 -0.3889
   66MOL0     C 9014   8.459   8.811   7.650  0.1097  0.9513  0.2637
   66MOL0    Cl 9015   8.531   8.645   7.690  0.0727  0.1387  0.2113
   66MOL0     C 9016   9.465   9.121   7.475 -0.5529 -0.3959  0.3503
   66MOL0     C 9017   9.590   9.170   7.416  0.5947  0.1532 -0.0036
   66MOL0     O 9018   9.882   9.312   7.642 -0.2623  1.0361  0.3503
   66MOL0     C 9019   9.980   9.518   7.375  0.4523 -0.1539 -0.0777
   66MOL0     C 9020  10.078   9.610   7.331  0.1994  0.1551  0.6318
   66MOL0     N 9021   9.919  10.211   7.224 -0.3923 -0.8395  0.6055
   66MOL0     N 9022   9.870  10.318   7.165  0.2865  0.2122 -0.6471
   66MOL0     C 9023  10.493  10.502   6.627 -0.2417  0.1706 -0.3121
   66MOL0     C 9024  10.595  10.490   6.721  0.5434  0.9454 -0.6594
   66MOL0     C 9025  10.982  10.477   6.955  0.2975 -1.2233 -0.8994
   66MOL0     C 9026  11.086  10.385   6.962 -0.6256 -0.0889 -0.5522
   66MOL0     C 9027  11.175  10.376   7.067 -0.6007 -0.1174  0.3332
   66MOL0     C 9028  11.155  10.457   7.183  0.0100 -0.1645  0.6772
   66MOL0     O 9029  11.242  10.468   7.285 -0.3047  0.9575  0.3830
   66MOL0     C 9030  11.354  10.373   7.294  0.2767 -0.4770 -0.0223
   66MOL0     C 9031  11.422  10.423   7.416 -0.1108 -0.2564 -0.3372
   66MOL0     C 9032  11.339  10.393   7.551  0.1680 -0.4188  0.4521
   66MOL0     C 9033  11.320  10.250   7.592  0.1656 -0.6379  0.3832
   66MOL0     C 9034  11.439  10.177   7.580 -0.1396 -0.0138 -0.0823
   66MOL0     C 9035  11.527  10.090   7.563  0.5371 -0.3846  0.1054
   66MOL0     C 9036  11.045  10.546   7.183 -0.0232 -0.0286  0.0991
   66MOL0     C 9037  10.957  10.556   7.065 -0.6403  0.4505 -0.9002
   66MOL0     C 9038  10.835  10.646   7.091 -0.0265  0.4367  0.7711
   66MOL0     H 9039  10.838  10.686   6.572 -0.3327  2.3956  2.7261
   66MOL0     H 9040  10.672  10.705   6.410  0.2444 -0.0780 -0.2678
   66MOL0     H 9041  10.279  10.635   6.327 -2.5165 -1.1926 -0.7416
   66MOL0     H 9042  10.285  10.618   6.495  0.1717 -1.2835  0.4473
   66MOL0     H 9043  10.256  10.395   6.280  0.4968 -2.1001  0.3863
   66MOL0     H 9044  10.315  10.344   6.436 -0.0346 -1.7163 -2.9277
   66MOL0     H 9045  10.061  10.510   6.406 -0.2420 -0.6730  1.2753
   66MOL0     H 9046  10.067  10.338   6.397  0.6660  0.1001 -2.7308
   66MOL0     H 9047  10.191  10.360   6.643  1.3283  0.3452  0.3124
   66MOL0     H 9048  10.124  10.528   6.634  0.0112 -0.1197  0.8022
   66MOL0     H 9049   9.965  10.286   6.582 -0.9591 -0.1402  0.5910
   66MOL0     H 9050   9.910  10.457   6.578  0.6127 -0.5757 -3.3127
   66MOL0     H 9051   9.821  10.381   6.778 -0.4633 -0.5509 -2.1732
   66MOL0     H 9052   9.957  10.270   6.800 -0.2820 -0.4867 -0.6674
   66MOL0     H 9053  10.004  10.579   6.822 -2.2335 -0.7211 -1.4250
   66MOL0     H 9054  10.111  10.446   6.871  0.5735 -0.9193  0.0039
   66MOL0     H 9055   9.999  10.572   7.056  1.6339  0.2596  0.0345
   66MOL0     H 9056   9.842  10.507   7.002 -0.3039  1.4178 -0.7195
   66MOL0     H 9057  10.173  10.308   7.037 -0.1728  0.4494 -0.5279
   66MOL0     H 9058  10.199  10.050   7.139 -0.0838  1.3365 -1.1290
   66MOL0     H 9059  10.051   9.969   7.189  2.4868 -0.6080 -0.6308
   66MOL0     H 9060  10.251  10.121   7.341 -0.8515  1.0676  0.9200
   66MOL0     H 9061  10.085  10.117   7.410 -0.7261 -0.0248 -0.5435
   66MOL0     H 9062  10.230   9.922   7.505  2.2220 -1.9292 -0.1481
   66MOL0     H 9063  10.084   9.877   7.423 -1.1784  2.6454  1.8316
   66MOL0     H 9064  10.195   9.821   7.228 -0.0315 -0.8914  0.4338
   66MOL0     H 9065  10.358   9.881   7.282  0.2304  0.5682  1.1292
   66MOL0     H 9066  10.330   9.498   7.522 -1.4395  1.0107  0.7444
   66MOL0     H 9067  10.250   9.241   7.532 -1.7219 -0.0314 -1.3946
   66MOL0     H 9068  10.126   9.246   7.658  1.4346 -2.8799 -0.5738
   66MOL0     H 9069  10.262   9.354   7.673 -0.0526 -0.1867 -0.8358
   66MOL0     H 9070   9.637   9.412   7.644  0.6148 -1.0671  2.3858
   66MOL0     H 9071   9.454   9.324   7.753 -2.2379 -0.7533  0.2342
   66MOL0     H 9072   9.263   9.190   7.833  2.4133  1.3507 -1.6832
   66MOL0     H 9073   9.197   9.272   7.707  3.5317  0.8971  0.3763
   66MOL0     H 9074   9.113   8.977   7.772  1.1757  0.6236 -1.1522
   66MOL0     H 9075   9.031   9.111   7.835  2.2419 -0.6882  1.2344
   66MOL0     H 9076   9.046   9.063   7.537  0.6382  0.0697  0.0293
   66MOL0     H 9077   8.985   9.202   7.618 -0.1010  0.2247 -0.5588
   66MOL0     H 9078   8.822   9.051   7.740 -2.4213  0.6665 -1.1376
   66MOL0     H 9079   8.907   8.917   7.682 -1.1933  0.7604  4.3693
   66MOL0     H 9080   8.729   9.113   7.536  0.9352 -0.1444 -0.9301
   66MOL0     H 9081   8.821   9.000   7.433  2.8220 -0.9394 -0.1640
   66MOL0     H 9082   8.732   8.809   7.577 -1.7304 -0.4170  1.3653
   66MOL0     H 9083   8.636   8.873   7.451 -0.8259  0.8486 -0.2549
   66MOL0     H 9084   8.495   9.015   7.624 -2.2240  0.1826  1.7048
   66MOL0     H 9085   8.601   8.933   7.750  1.3144 -1.7696 -1.1661
   66MOL0     H 9086   8.395   8.791   7.563 -0.9945  0.0724  1.2361
   66MOL0     H 9087   8.386   8.821   7.732 -0.9896  1.5205 -0.7536
   66MOL0     H 9088   9.411   9.053   7.410  0.4072 -0.2078 -0.6962
   66MOL0     H 9089   9.639   9.113   7.337  0.6106  1.5992 -1.0630
   66MOL0     H 9090   9.885   9.518   7.325  0.3578  0.7803  0.0894
   66MOL0     H 9091  10.054   9.677   7.249  1.6257  0.3118  0.3176
   66MOL0     H 9092  10.402  10.443   6.630 -0.1196 -0.1250 -1.8319
   66MOL0     H 9093  10.586  10.427   6.809 -1.1738 -2.6990 -3.1692
   66MOL0     H 9094  11.109  10.314   6.884 -2.9168 -2.1498  0.5189
   66MOL0     H 9095  11.255  10.303   7.066 -0.9350 -0.6134 -3.1883
   66MOL0     H 9096  11.334  10.266   7.300  3.0284 -1.1429 -1.1710
   66MOL0     H 9097  11.410  10.389   7.202 -1.9229  1.0047 -1.1983
   66MOL0     H 9098  11.443  10.530   7.404  1.5178 -0.7381 -2.2521
   66MOL0     H 9099  11.519  10.373   7.421  0.1453  0.2964  0.4493
   66MOL0     H 9100  11.382  10.450   7.635  5.6075 -0.6124 -1.7785
   66MOL0     H 9101  11.241  10.437   7.534  1.4151  1.6893 -2.0483
   66MOL0     H 9102  11.240  10.207   7.530  0.2038 -0.3251  0.1093
   66MOL0     H 9103  11.288  10.256   7.696 -1.1099 -0.8499  0.0275
   66MOL0     H 9104  11.600  10.013   7.546  1.0081 -0.0806  0.7119
   66MOL0     H 9105  11.042  10.603   7.275 -2.0089  0.6185 -0.3196
   66MOL0     H 9106  10.826  10.674   7.196  1.3894  1.6515  0.6091
   66MOL0     H 9107  10.843  10.741   7.038 -4.2270 -0.8501 -2.7116
   66MOL0     H 9108  10.740  10.599   7.065 -1.1812  3.3283 -0.6711
   67MOL0     O 9109   5.724   4.951   7.136 -0.5255  0.1407 -0.6197
   67MOL0     C 9110   5.604   4.946   7.112 -0.3243 -0.5501 -0.1259
   67MOL0     O 9111   5.506   5.000   7.193 -0.3658  0.6347  0.1844
   67MOL0     C 9112   5.566   5.040   7.314  0.2195 -0.2130 -0.4021
   67MOL0     C 9113   5.611   5.173   7.321  1.1305 -0.3168  0.6915
   67MOL0     C 9114   5.674   5.227   7.431  1.2128 -0.1156 -0.0761
   67MOL0     C 9115   5.677   5.149   7.540  0.6306 -0.8198 -0.7394
   67MOL0     O 9116   5.708   5.209   7.661  0.0005 -0.5331 -0.3351
   67MOL0     C 9117   5.606   5.192   7.769  1.0129  0.4563 -0.1031
   67MOL0     C 9118   5.675   5.232   7.896  0.2291 -0.3756 -0.3369
   67MOL0     C 9119   5.805   5.151   7.919  0.3244 -0.0999 -0.2374
   67MOL0     C 9120   5.828   5.112   8.068 -0.2100 -0.7120  0.0425
   67MOL0     C 9121   5.963   5.037   8.105 -0.2640  1.3110 -0.1653
   67MOL0     C 9122   6.092   5.082   8.023 -0.0975  0.9151 -0.9022
   67MOL0     C 9123   6.229   5.030   8.073  0.4596  0.2209  0.6161
   67MOL0     C 9124   6.228   4.876   8.092  0.2059  0.4228 -0.2797
   67MOL0     N 9125   6.356   4.821   8.148 -0.6989 -1.0059 -0.4134
   67MOL0     C 9126   6.471   4.799   8.076 -0.4727  0.1340 -0.2197
   67MOL0     C 9127   6.569   4.799   8.169  0.8914 -0.8011  0.1290
   67MOL0     C 9128   6.717   4.765   8.154  0.7516 -0.9370  1.0792
   67MOL0     C 9129   6.758   4.756   8.003  0.7867  0.8930  0.4759
   67MOL0     C 9130   6.908   4.741   7.985  0.0054 -0.7937  0.7522
   67MOL0     C 9131   6.984   4.865   8.027  0.6425  0.8974 -0.2021
   67MOL0     O 9132   6.951   4.982   7.949 -0.1091 -0.7845 -0.6518
   67MOL0     C 9133   6.995   4.996   7.816 -0.4047 -0.6438  0.2836
   67MOL0     C 9134   7.095   4.929   7.755 -1.0839  0.6351  0.1650
   67MOL0     C 9135   7.136   4.945   7.621 -1.0918 -0.0755  0.1317
   67MOL0     C 9136   7.256   4.862   7.577 -0.9229  1.2380 -0.6376
   67MOL0     C 9137   7.068   5.041   7.534 -0.6079 -0.2578 -0.4480
   67MOL0     C 9138   7.120   5.087   7.402  0.8159  0.2491  0.6409
   67MOL0     O 9139   7.116   5.217   7.372 -0.0705 -0.4581  0.0145
   67MOL0     C 9140   7.126   5.251   7.243  0.5681  0.1098 -0.7708
   67MOL0     C 9141   7.039   5.219   7.144 -0.5068 -0.4613 -0.6752
   67MOL0     C 9142   7.053   5.269   7.016 -1.0674 -0.0369 -0.1494
   67MOL0     C 9143   7.145   5.361   6.986  0.1250 -1.1411 -0.3158
   67MOL0     O 9144   7.169   5.416   6.862  0.1473 -0.2632  1.0017
   67MOL0     C 9145   7.061   5.405   6.772 -0.2365 -0.2793 -0.6104
   67MOL0     C 9146   7.086   5.479   6.636 -0.6459 -0.0906 -0.7423
   67MOL0     C 9147   7.209   5.402   6.581 -0.7798  0.3940 -0.0387
   67MOL0     C 9148   7.240   5.426   6.431  0.5426  0.3420 -0.8541
   67MOL0     C 9149   7.289   5.569   6.414 -0.1996 -0.3168 -0.3541
   67MOL0     C 9150   7.304   5.594   6.265 -0.7180 -0.4790  1.0661
   67MOL0     C 9151   7.435   5.549   6.200 -0.7791  0.6950  0.2841
   67MOL0     C 9152   7.572   5.582   6.266  0.3199 -0.3579  0.8578
   67MOL0    Cl 9153   7.699   5.582   6.139  0.1584 -0.1159  0.0106
   67MOL0     C 9154   7.234   5.390   7.088 -1.3554  0.0228  0.3607
   67MOL0     C 9155   7.223   5.340   7.218  0.2621  0.5943  0.2606
   67MOL0     O 9156   7.137   4.998   7.320  0.7986 -0.2426  0.4469
   67MOL0     C 9157   6.971   5.116   7.597 -0.6231  0.1092  0.0838
   67MOL0     C 9158   6.934   5.091   7.727  0.1975  0.3273 -0.0688
   67MOL0     N 9159   6.514   4.837   8.291 -0.1709  0.2745  0.7718
   67MOL0     N 9160   6.389   4.844   8.281  0.5403 -1.1398  0.3993
   67MOL0     C 9161   5.643   5.014   7.531 -0.6821 -0.7102  0.3143
   67MOL0     C 9162   5.585   4.953   7.419  0.8887  0.0092  0.5314
   67MOL0     C 9163   5.563   4.872   6.989 -1.1051 -0.5372 -0.9500
   67MOL0     C 9164   5.424   4.846   6.977  0.7385 -0.2380 -0.0244
   67MOL0     C 9165   5.362   4.773   6.874  1.1288  0.0837  0.2091
   67MOL0     C 9166   5.441   4.719   6.774 -0.9890 -0.7202  0.0287
   67MOL0     O 9167   5.389   4.635   6.680 -0.0646 -1.6333  0.6202
   67MOL0     C 9168   5.467   4.550   6.604 -0.8584 -0.1363 -0.9948
   67MOL0     C 9169   5.526   4.436   6.696  0.2193  0.7691  0.0825
   67MOL0     C 9170   5.426   4.391   6.802 -0.5575 -0.9327 -0.2096
   67MOL0     C 9171   5.486   4.264   6.878  1.5623  0.1971  0.6687
   67MOL0     C 9172   5.607   4.275   6.966 -0.7600 -0.6247 -0.6440
   67MOL0     C 9173   5.694   4.303   7.046 -0.9277  0.7537 -0.0885
   67MOL0     C 9174   5.582   4.746   6.770 -0.1951  0.1186  0.2096
   67MOL0     C 9175   5.644   4.813   6.881 -0.3042 -0.6971  0.7780
   67MOL0     C 9176   5.788   4.837   6.861 -0.1088  0.6468  0.5506
   67MOL0     H 9177   5.586   5.219   7.226  3.2801  0.7869  0.6046
   67MOL0     H 9178   5.701   5.332   7.437  4.1349 -0.7875  0.0784
   67MOL0     H 9179   5.580   5.087   7.787  0.4811  0.8388  1.5332
   67MOL0     H 9180   5.522   5.262   7.763 -1.4477 -1.8216  3.6810
   67MOL0     H 9181   5.698   5.339   7.895 -2.3611  0.3245 -3.7672
   67MOL0     H 9182   5.605   5.221   7.979 -1.9265  3.5966 -1.3942
   67MOL0     H 9183   5.816   5.061   7.857  2.4761 -1.2089  1.5906
   67MOL0     H 9184   5.888   5.217   7.894 -1.3056  0.9475 -3.5079
   67MOL0     H 9185   5.827   5.201   8.133 -2.3867 -0.1989 -0.5858
   67MOL0     H 9186   5.746   5.051   8.108 -1.4294 -0.9888 -2.6637
   67MOL0     H 9187   5.951   4.930   8.082 -0.7535  1.1636  0.7531
   67MOL0     H 9188   5.975   5.041   8.213 -0.0469  3.4592 -0.2313
   67MOL0     H 9189   6.085   5.043   7.921  0.3620  2.0275 -1.3695
   67MOL0     H 9190   6.090   5.191   8.024  0.2304  0.9477  1.1623
   67MOL0     H 9191   6.271   5.084   8.158  1.8799  0.7097 -0.3527
   67MOL0     H 9192   6.305   5.061   8.000  0.8955 -1.8539  0.1218
   67MOL0     H 9193   6.158   4.859   8.175  0.9003  1.4240  0.5439
   67MOL0     H 9194   6.215   4.826   7.996 -0.9016  0.8716 -0.3780
   67MOL0     H 9195   6.481   4.773   7.971 -0.3756 -1.2357  0.1045
   67MOL0     H 9196   6.731   4.661   8.185 -1.4828 -1.1970  1.3712
   67MOL0     H 9197   6.780   4.830   8.215  0.7015  0.3371 -0.1866
   67MOL0     H 9198   6.712   4.667   7.958 -1.1661  2.3562 -0.6139
   67MOL0     H 9199   6.709   4.838   7.949  2.5190  1.0186 -1.0025
   67MOL0     H 9200   6.957   4.651   8.024  2.1551 -0.0208  0.0007
   67MOL0     H 9201   6.921   4.739   7.877 -0.1041 -0.8289  0.7397
   67MOL0     H 9202   6.957   4.892   8.130  3.2826  0.6993  0.6010
   67MOL0     H 9203   7.092   4.848   8.023  0.4680 -0.0845 -2.0484
   67MOL0     H 9204   7.146   4.850   7.809 -0.5562  0.3103 -0.7811
   67MOL0     H 9205   7.249   4.836   7.471  1.2995  3.0492 -1.2989
   67MOL0     H 9206   7.274   4.769   7.631  0.3684 -0.3470 -3.5949
   67MOL0     H 9207   7.346   4.918   7.602 -2.1407  2.0353  2.4500
   67MOL0     H 9208   6.955   5.152   7.163 -0.2264 -1.8659 -3.7748
   67MOL0     H 9209   6.974   5.231   6.952 -1.7735 -4.4798  2.9009
   67MOL0     H 9210   7.046   5.299   6.749 -0.8224 -0.1403 -0.8679
   67MOL0     H 9211   6.971   5.451   6.813 -0.2194  0.3981 -1.3107
   67MOL0     H 9212   6.996   5.486   6.574 -0.1036  0.2441 -1.5102
   67MOL0     H 9213   7.121   5.581   6.655  1.3958 -1.0565  0.9757
   67MOL0     H 9214   7.179   5.297   6.572 -0.2685  0.2383  0.0710
   67MOL0     H 9215   7.306   5.411   6.630 -0.1189  1.2800 -1.4467
   67MOL0     H 9216   7.143   5.413   6.382  1.6485  0.8931 -3.3398
   67MOL0     H 9217   7.318   5.362   6.390 -1.4738 -1.8708 -1.5090
   67MOL0     H 9218   7.212   5.641   6.444  1.7582  1.3509  0.9545
   67MOL0     H 9219   7.381   5.587   6.471 -0.5849  1.0638 -0.1444
   67MOL0     H 9220   7.313   5.703   6.259  0.8651 -0.6335 -0.2521
   67MOL0     H 9221   7.220   5.572   6.198 -1.3020  3.0398  0.4332
   67MOL0     H 9222   7.439   5.597   6.101 -2.0616 -1.1774 -0.7488
   67MOL0     H 9223   7.440   5.443   6.174  1.4049  1.3914 -2.8065
   67MOL0     H 9224   7.581   5.490   6.325  2.8197 -1.8631 -1.6484
   67MOL0     H 9225   7.559   5.676   6.321  0.5306 -0.4860  1.1298
   67MOL0     H 9226   7.317   5.455   7.065 -1.2229 -0.6049 -1.0182
   67MOL0     H 9227   7.293   5.362   7.297  0.8051  0.1249 -0.0739
   67MOL0     H 9228   6.923   5.194   7.540 -2.2759 -0.1441  1.0784
   67MOL0     H 9229   6.854   5.160   7.753 -0.1290 -0.0359 -0.0925
   67MOL0     H 9230   5.666   4.967   7.626  0.8089 -1.3065 -0.3179
   67MOL0     H 9231   5.563   4.846   7.422  1.7613 -0.1727  0.8636
   67MOL0     H 9232   5.356   4.893   7.047 -1.2379  1.3685 -2.8296
   67MOL0     H 9233   5.257   4.748   6.883  1.1254  0.6575  2.3559
   67MOL0     H 9234   5.389   4.509   6.539 -0.9337 -3.8605  1.1384
   67MOL0     H 9235   5.546   4.603   6.551  0.9866 -2.3704 -0.6394
   67MOL0     H 9236   5.615   4.474   6.746  1.9289  0.1436 -2.3177
   67MOL0     H 9237   5.554   4.356   6.627 -3.0109  0.7590 -1.4012
   67MOL0     H 9238   5.431   4.466   6.882  0.1227 -1.9124  0.6899
   67MOL0     H 9239   5.324   4.371   6.768 -0.7162  0.7997 -0.8455
   67MOL0     H 9240   5.522   4.189   6.807  2.8113  0.7790  0.6709
   67MOL0     H 9241   5.406   4.212   6.932 -0.0750 -0.5340 -2.2486
   67MOL0     H 9242   5.766   4.320   7.124  0.6088  0.6669 -1.4114
   67MOL0     H 9243   5.648   4.713   6.690 -0.0693  0.6827  0.0809
   67MOL0     H 9244   5.841   4.756   6.810 -0.5580 -0.0251  1.1337
   67MOL0     H 9245   5.805   4.931   6.808 -1.0289  1.2003  1.2132
   67MOL0     H 9246   5.835   4.862   6.956  2.0835  1.5052 -0.6698
   68MOL0     O 9247   6.113   2.948   3.363 -1.3842  0.7785  0.3510
   68MOL0     C 9248   6.224   2.883   3.354  0.8559  0.5062  0.8781
   68MOL0     O 9249   6.295   2.864   3.241 -0.0746 -0.1687  0.2824
   68MOL0     C 9250   6.256   2.932   3.132  0.3555 -0.0440 -0.5214
   68MOL0     C 9251   6.273   3.065   3.131 -0.4246  0.4146  0.7460
   68MOL0     C 9252   6.223   3.138   3.017  0.7221 -0.9065  0.0076
   68MOL0     C 9253   6.162   3.080   2.911 -0.1234  0.4053 -0.0013
   68MOL0     O 9254   6.104   3.142   2.810  0.3074 -0.7191  0.2831
   68MOL0     C 9255   6.174   3.254   2.762  0.7417 -0.2436  0.4424
   68MOL0     C 9256   6.143   3.307   2.629 -0.6336 -0.2674 -0.0408
   68MOL0     C 9257   6.245   3.418   2.591 -0.0905  0.3609 -0.5113
   68MOL0     C 9258   6.383   3.367   2.557  0.1930  0.9855 -0.0288
   68MOL0     C 9259   6.467   3.474   2.495  0.4311 -0.4591 -0.2834
   68MOL0     C 9260   6.595   3.440   2.424  0.1598 -0.1047 -0.0122
   68MOL0     C 9261   6.724   3.412   2.508  0.2013 -0.3478  1.1109
   68MOL0     C 9262   6.837   3.381   2.410 -0.0206 -0.5266 -0.0014
   68MOL0     N 9263   6.959   3.328   2.472 -0.1056 -0.5815  0.3261
   68MOL0     C 9264   6.965   3.212   2.545  0.4289  0.5939 -0.0830
   68MOL0     C 9265   7.087   3.192   2.583 -0.6805 -0.3449  0.3288
   68MOL0     C 9266   7.146   3.062   2.642  0.3841  0.3499  0.1910
   68MOL0     C 9267   7.298   3.078   2.682  0.7194 -0.1275  0.3943
   68MOL0     C 9268   7.392   3.010   2.592 -0.5424 -0.5624 -0.2665
   68MOL0     C 9269   7.537   3.042   2.647 -0.4981  0.0887  0.4742
   68MOL0     O 9270   7.550   2.999   2.779  0.5953  0.3025  0.1676
   68MOL0     C 9271   7.677   2.967   2.822 -0.4686 -0.7697 -0.8921
   68MOL0     C 9272   7.682   2.930   2.957 -0.7950  0.0593  0.6606
   68MOL0     C 9273   7.804   2.890   3.029 -0.1169  0.0656 -0.8796
   68MOL0     C 9274   7.802   2.832   3.173  0.4861 -0.2729 -1.3140
   68MOL0     C 9275   7.928   2.909   2.966 -0.1572  0.0925  0.7535
   68MOL0     C 9276   8.055   2.869   3.020  0.5399  0.1671  0.6391
   68MOL0     O 9277   8.160   2.949   2.995  0.6531  0.0001  0.6072
   68MOL0     C 9278   8.284   2.919   3.035  0.4293  0.5943 -0.3831
   68MOL0     C 9279   8.387   2.925   2.938 -0.0544 -0.3264  0.1222
   68MOL0     C 9280   8.522   2.903   2.977  0.8586  0.3829  0.4161
   68MOL0     C 9281   8.550   2.904   3.115  0.0046  0.3597 -0.6931
   68MOL0     O 9282   8.679   2.898   3.168 -0.2434  0.3029 -0.2565
   68MOL0     C 9283   8.792   2.927   3.084  0.3775  0.6617  0.0212
   68MOL0     C 9284   8.920   2.902   3.165 -0.2073 -0.4659 -0.8616
   68MOL0     C 9285   9.053   2.885   3.087  0.0972 -0.4655  0.7383
   68MOL0     C 9286   9.180   2.888   3.173 -0.2448  0.4832  0.3270
   68MOL0     C 9287   9.304   2.858   3.095  0.2980  0.2448  0.6372
   68MOL0     C 9288   9.426   2.877   3.168 -0.4973  0.3278  0.0707
   68MOL0     C 9289   9.534   2.869   3.065  0.3192 -0.0697 -0.5239
   68MOL0     C 9290   9.606   2.732   3.063 -0.6710 -0.3028  0.2673
   68MOL0    Cl 9291   9.716   2.727   3.204 -0.5178  0.1346  0.6227
   68MOL0     C 9292   8.450   2.895   3.205 -0.2645  0.5079 -0.6959
   68MOL0     C 9293   8.319   2.899   3.169 -0.4732  1.0726  0.9683
   68MOL0     O 9294   8.071   2.754   3.061  0.0062  0.3485 -0.1125
   68MOL0     C 9295   7.922   2.956   2.832  1.0196 -0.0847  0.2552
   68MOL0     C 9296   7.800   2.978   2.759  0.1027  0.3161 -0.5840
   68MOL0     N 9297   7.165   3.302   2.546  0.2575  0.4803 -0.6440
   68MOL0     N 9298   7.093   3.378   2.473 -0.0867 -0.2407  0.1072
   68MOL0     C 9299   6.142   2.934   2.918 -0.2758 -0.5931 -0.1357
   68MOL0     C 9300   6.183   2.869   3.034  0.4015 -0.5368  0.2911
   68MOL0     C 9301   6.304   2.847   3.478 -0.6581 -0.3733  0.0139
   68MOL0     C 9302   6.450   2.865   3.470  0.8474  0.4695  0.1970
   68MOL0     C 9303   6.521   2.831   3.588  0.1741 -0.5717 -0.1607
   68MOL0     C 9304   6.453   2.787   3.699  0.0586  0.0541  0.0762
   68MOL0     O 9305   6.524   2.759   3.804 -0.6348 -0.4725  1.2960
   68MOL0     C 9306   6.529   2.872   3.897 -0.4396  0.0199 -0.7729
   68MOL0     C 9307   6.665   2.861   3.971  0.1901  0.5765  0.1115
   68MOL0     C 9308   6.702   2.966   4.075  0.6807  0.4954  0.1824
   68MOL0     C 9309   6.781   2.889   4.187  0.2990 -0.6621  0.2230
   68MOL0     C 9310   6.805   2.961   4.306 -0.1140 -1.0195 -0.7292
   68MOL0     C 9311   6.832   3.017   4.418  0.2174 -0.5095 -0.3044
   68MOL0     C 9312   6.315   2.768   3.693 -0.6651 -0.3422  0.2473
   68MOL0     C 9313   6.240   2.809   3.591 -0.3139  0.3133  0.4782
   68MOL0     C 9314   6.092   2.793   3.596 -0.4947  0.7038  0.7669
   68MOL0     H 9315   6.312   3.112   3.221 -1.3179 -1.4129  2.1568
   68MOL0     H 9316   6.230   3.246   3.019 -2.0539 -0.6580  0.6704
   68MOL0     H 9317   6.273   3.208   2.753  2.1932  2.7295  0.1511
   68MOL0     H 9318   6.165   3.336   2.833  0.8519  0.6989 -0.6040
   68MOL0     H 9319   6.137   3.221   2.562 -1.0464 -1.4016  1.3929
   68MOL0     H 9320   6.041   3.348   2.632  0.3210  2.2788  0.4743
   68MOL0     H 9321   6.215   3.463   2.495 -1.7863 -2.3459 -1.3632
   68MOL0     H 9322   6.240   3.494   2.669 -3.0515 -2.2801  2.1460
   68MOL0     H 9323   6.438   3.324   2.641  0.8743 -0.2439 -1.0856
   68MOL0     H 9324   6.373   3.294   2.476  0.1625 -0.1155  0.9385
   68MOL0     H 9325   6.490   3.564   2.554 -1.8315  0.4693 -0.7124
   68MOL0     H 9326   6.410   3.508   2.408  0.6560 -0.7032 -0.5296
   68MOL0     H 9327   6.573   3.347   2.370 -2.0490  0.4567 -0.1993
   68MOL0     H 9328   6.621   3.516   2.351  2.5486  0.5705  1.4361
   68MOL0     H 9329   6.725   3.328   2.579  2.0577  0.7050  2.4302
   68MOL0     H 9330   6.745   3.497   2.574  2.2773 -0.6327  0.9100
   68MOL0     H 9331   6.815   3.308   2.332 -1.3740 -0.8543  0.6620
   68MOL0     H 9332   6.879   3.471   2.362  3.2039 -1.2471  1.1945
   68MOL0     H 9333   6.886   3.140   2.564  1.2251 -0.8940 -2.0080
   68MOL0     H 9334   7.145   2.985   2.565 -1.5103  0.9362 -0.4171
   68MOL0     H 9335   7.075   3.028   2.718 -3.7844 -1.1922 -3.9504
   68MOL0     H 9336   7.325   3.184   2.685 -1.3511  0.4390  1.4782
   68MOL0     H 9337   7.303   3.039   2.784 -0.4478  2.5245  1.5502
   68MOL0     H 9338   7.387   2.901   2.601  0.4017 -0.7345 -1.5170
   68MOL0     H 9339   7.386   3.050   2.490  4.8525  0.9714 -0.2898
   68MOL0     H 9340   7.607   2.998   2.575 -0.1648  0.7466  0.3848
   68MOL0     H 9341   7.553   3.150   2.648 -0.4995  0.1339 -1.0722
   68MOL0     H 9342   7.593   2.927   3.019  2.0707  2.2936  5.4486
   68MOL0     H 9343   7.813   2.724   3.166  1.9015 -0.2494 -0.1022
   68MOL0     H 9344   7.713   2.865   3.228  3.5045  4.2867  1.5192
   68MOL0     H 9345   7.884   2.868   3.236 -2.3541  1.2924  1.8958
   68MOL0     H 9346   8.362   2.952   2.836  2.2047  0.4695 -0.2884
   68MOL0     H 9347   8.600   2.898   2.901 -1.9230 -1.5429 -2.6109
   68MOL0     H 9348   8.790   2.855   3.002 -1.1815  1.6647 -0.8650
   68MOL0     H 9349   8.793   3.027   3.039  0.5359 -1.0852 -4.3557
   68MOL0     H 9350   8.921   2.997   3.219  1.7604 -1.2356  0.6084
   68MOL0     H 9351   8.900   2.822   3.237 -1.0580  1.7098  1.4606
   68MOL0     H 9352   9.062   2.972   3.020 -2.9390 -0.1265  0.6582
   68MOL0     H 9353   9.052   2.794   3.027 -0.7546  0.5174 -0.8005
   68MOL0     H 9354   9.162   2.821   3.258  3.7729 -0.3664  0.7050
   68MOL0     H 9355   9.191   2.986   3.219  0.2197  1.6274 -2.0347
   68MOL0     H 9356   9.296   2.760   3.049  0.1463 -0.0292  1.2393
   68MOL0     H 9357   9.297   2.933   3.015  2.2904  1.5479  1.5843
   68MOL0     H 9358   9.437   2.787   3.230 -1.4834  0.1881  0.0490
   68MOL0     H 9359   9.415   2.968   3.228 -2.7224 -0.9775  1.8063
   68MOL0     H 9360   9.607   2.943   3.100 -0.4538 -0.0755  1.1935
   68MOL0     H 9361   9.500   2.910   2.970 -0.4280  1.5579  0.4015
   68MOL0     H 9362   9.656   2.727   2.966 -3.7678 -0.1737 -1.4821
   68MOL0     H 9363   9.539   2.645   3.058 -0.1572 -0.7421  0.8483
   68MOL0     H 9364   8.480   2.883   3.309  0.2570  0.1704 -0.8783
   68MOL0     H 9365   8.249   2.879   3.251 -1.9721 -0.8372 -0.6706
   68MOL0     H 9366   8.011   2.957   2.770  0.0236  0.4241 -1.2229
   68MOL0     H 9367   7.801   2.999   2.652  0.9254 -0.4816 -0.7461
   68MOL0     H 9368   6.084   2.882   2.842 -2.0329  0.7557  0.2271
   68MOL0     H 9369   6.159   2.766   3.059  1.5005 -0.6702  0.8666
   68MOL0     H 9370   6.494   2.898   3.376  0.2792  1.2720  0.1961
   68MOL0     H 9371   6.628   2.848   3.589 -0.0784  1.1217 -0.1008
   68MOL0     H 9372   6.507   2.974   3.863 -2.7110  0.2627  1.2078
   68MOL0     H 9373   6.457   2.857   3.977 -1.1283  1.8905 -0.9990
   68MOL0     H 9374   6.744   2.850   3.897 -2.1412 -1.3268 -2.2682
   68MOL0     H 9375   6.665   2.761   4.014  0.1583 -0.4371 -2.1305
   68MOL0     H 9376   6.767   3.044   4.035  1.0077 -0.2889 -0.8919
   68MOL0     H 9377   6.607   2.996   4.120 -0.3916  0.2019 -1.7342
   68MOL0     H 9378   6.879   2.852   4.154  0.2093  0.3936 -1.3311
   68MOL0     H 9379   6.720   2.803   4.218  2.0665 -2.1919 -0.3356
   68MOL0     H 9380   6.842   3.078   4.506 -1.6026 -0.4982 -0.0613
   68MOL0     H 9381   6.264   2.734   3.783 -4.3905  0.4072 -1.3979
   68MOL0     H 9382   6.042   2.890   3.587  0.2059  0.9112 -1.6873
   68MOL0     H 9383   6.058   2.744   3.504  1.0485  0.4948  0.2900
   68MOL0     H 9384   6.059   2.741   3.687 -1.8064 -0.5032 -0.3468
   69MOL0     O 9385  10.590  11.037   4.747  0.3135  0.0881  0.7038
   69MOL0     C 9386  10.488  10.972   4.772  0.5094  0.3313  0.0270
   69MOL0     O 9387  10.434  10.955   4.889 -0.5817  0.5263  0.1156
   69MOL0     C 9388  10.515  10.996   4.993  0.1026 -0.2000 -0.0914
   69MOL0     C 9389  10.448  11.076   5.081  0.3101 -0.5775 -0.5080
   69MOL0     C 9390  10.513  11.102   5.201 -0.0224  0.1058 -0.1690
   69MOL0     C 9391  10.645  11.059   5.231  0.6807  0.3546 -0.4684
   69MOL0     O 9392  10.713  11.078   5.353  0.3998  0.1103 -0.5653
   69MOL0     C 9393  10.642  11.079   5.473  0.3366  0.3364 -0.8077
   69MOL0     C 9394  10.717  11.004   5.577  0.2510  0.3644 -0.4994
   69MOL0     C 9395  10.732  10.857   5.533  0.3514 -0.9070  0.0089
   69MOL0     C 9396  10.802  10.758   5.628  0.5066 -0.0961  0.6367
   69MOL0     C 9397  10.747  10.618   5.597  0.8522  0.1168  0.1715
   69MOL0     C 9398  10.783  10.584   5.454 -0.1032  0.3712  0.1436
   69MOL0     C 9399  10.772  10.429   5.420  0.0866 -0.0906  0.4463
   69MOL0     C 9400  10.630  10.387   5.427  0.0005 -0.3902  0.5047
   69MOL0     N 9401  10.604  10.261   5.353 -0.7060  0.5462 -0.6980
   69MOL0     C 9402  10.648  10.134   5.379  0.8334 -1.2596  0.1695
   69MOL0     C 9403  10.642  10.070   5.262 -0.2082  0.3989  1.0407
   69MOL0     C 9404  10.694   9.931   5.239 -0.1304  0.4643  0.7447
   69MOL0     C 9405  10.571   9.853   5.179  0.2614  0.0706 -0.3450
   69MOL0     C 9406  10.613   9.742   5.085  0.3302 -0.4994 -0.8687
   69MOL0     C 9407  10.718   9.780   4.978  0.4735 -0.1013 -0.2551
   69MOL0     O 9408  10.664   9.896   4.903  0.1134  0.3118 -0.6373
   69MOL0     C 9409  10.740  10.000   4.867  0.3968 -0.1717 -0.3665
   69MOL0     C 9410  10.856   9.984   4.792 -0.3819  0.0196 -0.0343
   69MOL0     C 9411  10.937  10.085   4.753  0.3664 -0.5023  0.2091
   69MOL0     C 9412  11.070  10.043   4.698  0.1917  0.5328  0.1747
   69MOL0     C 9413  10.887  10.216   4.759 -0.8320  0.0981  0.4886
   69MOL0     C 9414  10.961  10.329   4.688 -0.0886 -0.3978 -0.3181
   69MOL0     O 9415  10.898  10.452   4.709 -0.5107  0.7651 -0.1399
   69MOL0     C 9416  10.977  10.552   4.668  0.1477  0.1160  0.0373
   69MOL0     C 9417  11.075  10.610   4.742 -0.3425  0.5154  0.1043
   69MOL0     C 9418  11.145  10.725   4.697  0.2664  0.0482 -0.3922
   69MOL0     C 9419  11.121  10.774   4.579 -0.6756 -0.1252 -0.2001
   69MOL0     O 9420  11.184  10.887   4.525  0.7430 -1.2713 -0.3097
   69MOL0     C 9421  11.305  10.940   4.587  0.1113 -0.0010 -0.2189
   69MOL0     C 9422  11.395  11.019   4.481 -0.8579  0.0276  0.8578
   69MOL0     C 9423  11.529  11.054   4.543 -0.8548 -0.0237 -0.1412
   69MOL0     C 9424  11.642  10.953   4.520 -0.8396  0.0458 -0.4640
   69MOL0     C 9425  11.688  10.928   4.376 -0.9434 -0.2901  0.3861
   69MOL0     C 9426  11.802  11.029   4.339  0.7850  0.1910 -0.7721
   69MOL0     C 9427  11.857  10.985   4.200  0.0685 -0.6588  1.0692
   69MOL0     C 9428  11.886  11.112   4.117 -0.2530 -0.0958 -0.4952
   69MOL0    Cl 9429  11.732  11.179   4.043  0.0126 -0.3827 -0.4469
   69MOL0     C 9430  11.029  10.720   4.494  0.7526  1.2796 -0.0206
   69MOL0     C 9431  10.953  10.602   4.542  0.9962  1.4557 -0.3474
   69MOL0     O 9432  11.027  10.300   4.588 -0.4563  0.6545 -0.3982
   69MOL0     C 9433  10.765  10.241   4.822  1.2185 -0.3459 -0.1674
   69MOL0     C 9434  10.695  10.134   4.886 -0.8851 -0.8371  0.1710
   69MOL0     N 9435  10.597  10.156   5.164 -0.9266  0.2872  0.5486
   69MOL0     N 9436  10.568  10.268   5.225 -0.2015 -0.1638  0.8701
   69MOL0     C 9437  10.714  10.990   5.128  0.1896  0.3696 -0.9878
   69MOL0     C 9438  10.651  10.955   5.009  0.5972 -0.4086  0.3059
   69MOL0     C 9439  10.408  10.920   4.664 -0.3251 -0.7387  0.0060
   69MOL0     C 9440  10.273  10.888   4.696 -0.6952  1.0311  0.7128
   69MOL0     C 9441  10.184  10.835   4.596 -0.0255 -0.4396  0.4708
   69MOL0     C 9442  10.230  10.801   4.467 -0.3580  0.8911  0.8565
   69MOL0     O 9443  10.162  10.733   4.367  0.3378  0.2469 -0.8539
   69MOL0     C 9444  10.023  10.758   4.358 -0.3001  0.2983 -0.2523
   69MOL0     C 9445  10.001  10.889   4.280 -0.6063 -0.0093  0.7270
   69MOL0     C 9446   9.849  10.903   4.236  0.0256 -0.0361  0.0041
   69MOL0     C 9447   9.826  11.027   4.148 -0.6785 -0.2027 -0.2575
   69MOL0     C 9448   9.839  11.157   4.223  0.1846 -0.4392  0.0598
   69MOL0     C 9449   9.827  11.258   4.293 -0.4363 -1.1047 -0.4305
   69MOL0     C 9450  10.369  10.827   4.439 -0.5002  0.2529  0.5184
   69MOL0     C 9451  10.458  10.894   4.531  0.0312  0.4113  0.6982
   69MOL0     C 9452  10.600  10.903   4.488 -0.2242  0.3874  0.3779
   69MOL0     H 9453  10.346  11.103   5.056  0.1837 -0.6879 -0.1245
   69MOL0     H 9454  10.449  11.149   5.275  0.5193 -0.8930  0.9613
   69MOL0     H 9455  10.556  11.012   5.460 -0.5500  1.3633 -0.4438
   69MOL0     H 9456  10.612  11.183   5.493  1.2332  0.7895 -1.7098
   69MOL0     H 9457  10.818  11.043   5.593  0.1940  0.5119 -0.4995
   69MOL0     H 9458  10.664  11.007   5.673 -0.1834  0.5094 -0.7462
   69MOL0     H 9459  10.628  10.828   5.518  0.0482  0.7355 -1.4096
   69MOL0     H 9460  10.793  10.870   5.443 -1.6318  0.2583 -1.2564
   69MOL0     H 9461  10.910  10.760   5.611  0.7130 -1.4972  1.6167
   69MOL0     H 9462  10.781  10.776   5.734 -0.1222 -1.3992  0.7455
   69MOL0     H 9463  10.639  10.607   5.605  0.9278 -1.5283 -0.6160
   69MOL0     H 9464  10.798  10.546   5.663  1.5757  0.3904 -0.0794
   69MOL0     H 9465  10.728  10.645   5.382  3.3365  2.5290 -0.9086
   69MOL0     H 9466  10.888  10.610   5.437 -0.5256  1.6643 -0.5897
   69MOL0     H 9467  10.828  10.361   5.485 -3.1517 -0.3333  3.2899
   69MOL0     H 9468  10.816  10.421   5.321  0.8521  2.3730  0.5091
   69MOL0     H 9469  10.594  10.376   5.530  2.9228  0.7229  1.7460
   69MOL0     H 9470  10.562  10.462   5.386  1.6942  0.8679 -0.0900
   69MOL0     H 9471  10.679  10.100   5.477 -0.4388  2.3149  1.9777
   69MOL0     H 9472  10.737   9.886   5.329 -1.5419  0.3578  1.4016
   69MOL0     H 9473  10.768   9.942   5.160 -1.5036 -2.2412 -1.0789
   69MOL0     H 9474  10.516   9.812   5.264 -0.1087  1.0655 -0.0954
   69MOL0     H 9475  10.504   9.919   5.122  0.9505 -1.0667 -2.6047
   69MOL0     H 9476  10.665   9.670   5.150  0.4332  1.8157  1.7958
   69MOL0     H 9477  10.533   9.692   5.029 -1.8610  2.0147 -0.1887
   69MOL0     H 9478  10.822   9.791   5.012  1.3772  0.1696 -2.8226
   69MOL0     H 9479  10.729   9.698   4.906  0.1685 -0.7590  0.4324
   69MOL0     H 9480  10.878   9.882   4.763  1.1312 -0.6374  3.0364
   69MOL0     H 9481  11.160  10.074   4.751  0.6742  1.0137 -0.9096
   69MOL0     H 9482  11.080  10.080   4.596 -0.4350 -0.6099 -0.3312
   69MOL0     H 9483  11.072   9.934   4.686  0.6092  0.6101 -0.5170
   69MOL0     H 9484  11.084  10.558   4.837  1.1481 -0.3655 -0.4909
   69MOL0     H 9485  11.220  10.772   4.760 -0.2424  1.4367 -0.7987
   69MOL0     H 9486  11.282  11.001   4.675  3.0538  0.1113  0.5789
   69MOL0     H 9487  11.360  10.857   4.633  2.8657  2.1622  0.6471
   69MOL0     H 9488  11.412  10.957   4.393  0.3526  0.7623  0.5612
   69MOL0     H 9489  11.341  11.109   4.450 -1.7325 -1.1443 -1.1789
   69MOL0     H 9490  11.517  11.055   4.651  0.9047  0.6126  0.0858
   69MOL0     H 9491  11.550  11.157   4.513 -3.1438 -0.1526 -2.5543
   69MOL0     H 9492  11.602  10.863   4.568  1.5957 -0.8652 -0.0318
   69MOL0     H 9493  11.728  10.987   4.579 -0.3650 -0.2080 -1.0035
   69MOL0     H 9494  11.736  10.830   4.373  0.3005  0.3296 -2.0898
   69MOL0     H 9495  11.602  10.947   4.311 -0.0116  1.5650 -0.3634
   69MOL0     H 9496  11.884  11.024   4.411  1.2192  0.6970 -1.2237
   69MOL0     H 9497  11.764  11.131   4.333  0.1773  0.0720  0.5629
   69MOL0     H 9498  11.789  10.914   4.153  0.5634 -1.3891  1.4308
   69MOL0     H 9499  11.952  10.932   4.205  1.1265  1.0453  0.1734
   69MOL0     H 9500  11.955  11.091   4.035 -0.2404  3.7563 -1.6977
   69MOL0     H 9501  11.933  11.189   4.178 -1.6218  1.5925 -1.4636
   69MOL0     H 9502  11.007  10.761   4.396 -0.0329 -1.9446 -1.3161
   69MOL0     H 9503  10.866  10.561   4.490  1.9128 -1.7905  0.4501
   69MOL0     H 9504  10.720  10.340   4.827 -1.0748 -1.0109 -4.0439
   69MOL0     H 9505  10.597  10.153   4.927  0.1088  1.5793  1.6506
   69MOL0     H 9506  10.815  10.961   5.155 -0.3584 -0.7122  0.0128
   69MOL0     H 9507  10.702  10.890   4.939 -2.4712 -1.9584 -0.6708
   69MOL0     H 9508  10.238  10.905   4.797 -0.2387  0.2304  1.0090
   69MOL0     H 9509  10.086  10.806   4.631  0.0749 -0.3727  0.8129
   69MOL0     H 9510   9.982  10.671   4.305  0.5480  0.0567 -0.5226
   69MOL0     H 9511   9.977  10.766   4.457 -0.4113 -0.6268 -0.2148
   69MOL0     H 9512  10.054  10.883   4.184 -2.8005  2.1220 -0.7538
   69MOL0     H 9513  10.030  10.978   4.337 -1.9568 -0.7381  2.6711
   69MOL0     H 9514   9.824  10.810   4.182  1.5189 -0.4595  0.0032
   69MOL0     H 9515   9.782  10.904   4.323  1.2774  2.4079  1.0126
   69MOL0     H 9516   9.722  11.011   4.117 -1.4319 -1.8550  2.7230
   69MOL0     H 9517   9.896  11.032   4.064  1.0357 -0.8215  1.0947
   69MOL0     H 9518   9.807  11.346   4.351 -1.3820 -0.7845 -1.2083
   69MOL0     H 9519  10.416  10.800   4.345  2.0191  3.4920  0.6592
   69MOL0     H 9520  10.628  11.009   4.491 -1.5398  0.7561 -0.0749
   69MOL0     H 9521  10.655  10.854   4.569 -2.9192  0.8756  2.6573
   69MOL0     H 9522  10.624  10.851   4.395  1.5053  1.5959  0.0795
   70MOL0     O 9523  11.269   8.789   3.336  0.4747  0.4377  0.4560
   70MOL0     C 9524  11.308   8.724   3.431  0.6842  0.2081  0.4148
   70MOL0     O 9525  11.307   8.765   3.557  0.4891  0.6302  0.4577
   70MOL0     C 9526  11.247   8.881   3.605 -0.9167  0.0833 -0.0725
   70MOL0     C 9527  11.306   8.943   3.720  0.1094 -0.2630  0.0203
   70MOL0     C 9528  11.259   9.067   3.764  0.7685  0.1906  0.0029
   70MOL0     C 9529  11.142   9.126   3.716 -0.6277 -0.2264 -0.0574
   70MOL0     O 9530  11.093   9.239   3.780 -0.1711 -0.2540 -0.0368
   70MOL0     C 9531  11.044   9.346   3.706 -0.3495  0.5685  0.3508
   70MOL0     C 9532  11.047   9.460   3.800  0.6611  0.1726 -0.4101
   70MOL0     C 9533  10.903   9.490   3.854 -0.1446 -0.4573  0.3541
   70MOL0     C 9534  10.920   9.600   3.962  0.1933 -0.1396 -0.0811
   70MOL0     C 9535  10.785   9.639   4.027  0.2211  0.8024  1.0610
   70MOL0     C 9536  10.810   9.733   4.141 -0.5922 -0.2682 -0.7332
   70MOL0     C 9537  10.857   9.661   4.267 -0.2704 -0.7160  0.2597
   70MOL0     C 9538  10.822   9.754   4.390  0.9173  0.4493  0.4853
   70MOL0     N 9539  10.848   9.690   4.517  0.2082  0.6542  0.5544
   70MOL0     C 9540  10.970   9.691   4.580  0.4939 -1.7665 -0.0041
   70MOL0     C 9541  10.953   9.605   4.685 -0.2100  0.0812  0.0603
   70MOL0     C 9542  11.059   9.567   4.782  0.3006  0.6444 -0.6742
   70MOL0     C 9543  11.065   9.667   4.908 -0.3421  0.5320 -0.4349
   70MOL0     C 9544  11.210   9.668   4.957 -0.2053 -0.6099  0.8973
   70MOL0     C 9545  11.219   9.695   5.113  0.1321 -0.2322  0.1284
   70MOL0     O 9546  11.141   9.817   5.146  0.1786  0.9495  0.1140
   70MOL0     C 9547  11.197   9.936   5.104  0.4619  0.3823  0.7437
   70MOL0     C 9548  11.103  10.039   5.141  0.0428  0.2622 -0.1469
   70MOL0     C 9549  11.132  10.171   5.129 -0.2502 -0.4337 -0.0536
   70MOL0     C 9550  11.038  10.278   5.177 -0.5764  1.0689  1.1706
   70MOL0     C 9551  11.261  10.209   5.079 -0.8047 -0.0026 -0.7515
   70MOL0     C 9552  11.304  10.346   5.040  0.1105  0.3237  0.2280
   70MOL0     O 9553  11.433  10.359   4.984  0.2344  0.3175  0.8318
   70MOL0     C 9554  11.472  10.487   4.952  0.9085 -1.2969  1.0982
   70MOL0     C 9555  11.472  10.589   5.051  0.0763 -1.3445  1.0419
   70MOL0     C 9556  11.530  10.715   5.016 -0.0556  0.8173 -0.4349
   70MOL0     C 9557  11.570  10.744   4.888 -0.6852  0.1010 -0.9841
   70MOL0     O 9558  11.623  10.866   4.854  0.0587 -0.6926  0.1733
   70MOL0     C 9559  11.767  10.885   4.855  0.6685  0.3607  0.4152
   70MOL0     C 9560  11.783  11.032   4.885 -1.0315  0.4482  0.2348
   70MOL0     C 9561  11.931  11.079   4.890  0.2359 -0.1215  0.0618
   70MOL0     C 9562  11.982  11.108   4.755  0.3375 -0.4313  0.5753
   70MOL0     C 9563  12.122  11.148   4.765 -0.3782 -0.7482 -1.0678
   70MOL0     C 9564  12.188  11.180   4.634  0.3232 -0.2277  0.0913
   70MOL0     C 9565  12.289  11.078   4.589  0.1500 -0.9421  0.8810
   70MOL0     C 9566  12.323  11.078   4.437  0.9644 -0.3484 -0.3069
   70MOL0    Cl 9567  12.174  11.060   4.337 -0.3468 -0.3047 -0.2166
   70MOL0     C 9568  11.570  10.648   4.796  0.9829  0.5115  0.8923
   70MOL0     C 9569  11.517  10.521   4.822  0.3292 -0.0978 -0.3355
   70MOL0     O 9570  11.225  10.443   5.057  0.3329  0.2529  0.6762
   70MOL0     C 9571  11.356  10.107   5.035  0.0560 -0.8421  0.5258
   70MOL0     C 9572  11.326   9.974   5.052 -0.8039  0.0504  0.6034
   70MOL0     N 9573  10.822   9.565   4.687 -0.5572  0.1212  0.3769
   70MOL0     N 9574  10.764   9.607   4.582  0.6377 -0.1876  0.5174
   70MOL0     C 9575  11.083   9.070   3.604  0.2181 -0.8975 -0.3079
   70MOL0     C 9576  11.130   8.945   3.543 -0.8145  0.5151 -0.7585
   70MOL0     C 9577  11.342   8.581   3.403 -0.2418 -0.2868 -0.3142
   70MOL0     C 9578  11.343   8.542   3.268  0.2919  0.2837 -0.7418
   70MOL0     C 9579  11.383   8.419   3.217 -0.0016  0.1175  0.6873
   70MOL0     C 9580  11.430   8.322   3.306  0.1933  0.4920 -0.2951
   70MOL0     O 9581  11.470   8.191   3.266  0.4080  0.0686  0.1175
   70MOL0     C 9582  11.440   8.082   3.349 -0.0930  0.0040 -0.5669
   70MOL0     C 9583  11.362   7.980   3.277  0.7113  0.2346  1.1963
   70MOL0     C 9584  11.408   7.839   3.316 -0.4576 -0.2329  0.6018
   70MOL0     C 9585  11.316   7.729   3.270  0.6138 -0.4962  0.6716
   70MOL0     C 9586  11.377   7.637   3.173  0.9329  0.1989 -0.5341
   70MOL0     C 9587  11.415   7.557   3.095 -0.0122 -0.4879  0.6829
   70MOL0     C 9588  11.438   8.365   3.442  0.2471  0.4566 -0.9265
   70MOL0     C 9589  11.392   8.481   3.492 -0.1235 -0.0652  0.3057
   70MOL0     C 9590  11.371   8.488   3.642  0.4866 -0.7332 -0.0940
   70MOL0     H 9591  11.389   8.900   3.774  2.6211  0.1132 -3.2571
   70MOL0     H 9592  11.305   9.120   3.847 -1.3505  0.4648  1.0617
   70MOL0     H 9593  10.944   9.313   3.676  0.6073 -0.1274 -2.3053
   70MOL0     H 9594  11.098   9.373   3.615  0.1937 -0.9106  0.2144
   70MOL0     H 9595  11.117   9.445   3.882 -2.5697  2.6325  3.1336
   70MOL0     H 9596  11.091   9.548   3.752  2.7310 -1.0263 -0.8136
   70MOL0     H 9597  10.832   9.511   3.773 -0.8788  1.2867  1.3784
   70MOL0     H 9598  10.861   9.405   3.909  0.8994 -0.9491  0.4142
   70MOL0     H 9599  10.995   9.576   4.038 -0.5346  2.3255  1.5420
   70MOL0     H 9600  10.961   9.690   3.916 -2.0175 -0.2414 -2.5253
   70MOL0     H 9601  10.720   9.552   4.043  0.1438  0.9521  1.5993
   70MOL0     H 9602  10.726   9.704   3.962 -1.2208  0.2070  1.7385
   70MOL0     H 9603  10.888   9.807   4.120 -0.9100  0.2100 -0.2525
   70MOL0     H 9604  10.723   9.792   4.171 -0.1572  0.9018 -1.6940
   70MOL0     H 9605  10.964   9.637   4.271  0.5910  2.2225 -1.5937
   70MOL0     H 9606  10.797   9.571   4.283 -2.6386  0.1030 -2.8606
   70MOL0     H 9607  10.871   9.851   4.381 -0.7295  1.1874 -1.3818
   70MOL0     H 9608  10.714   9.772   4.391  0.6110 -1.1283 -0.2745
   70MOL0     H 9609  11.062   9.742   4.551 -1.5750  1.6431 -1.2067
   70MOL0     H 9610  11.156   9.574   4.732 -0.3523  0.9080 -1.9452
   70MOL0     H 9611  11.042   9.466   4.821  0.6563  0.7454 -0.2467
   70MOL0     H 9612  11.045   9.770   4.877 -1.7978 -0.0324 -1.4846
   70MOL0     H 9613  11.004   9.623   4.987 -0.5501  1.9180  0.1999
   70MOL0     H 9614  11.269   9.578   4.937  1.9902  1.0728 -0.6805
   70MOL0     H 9615  11.258   9.754   4.909 -1.4489 -0.7850 -0.7438
   70MOL0     H 9616  11.177   9.610   5.167 -3.6010  0.1935 -1.7564
   70MOL0     H 9617  11.324   9.700   5.143 -0.4845 -0.6257  2.5251
   70MOL0     H 9618  10.998  10.020   5.163 -0.6589  0.6923 -2.8269
   70MOL0     H 9619  10.951  10.228   5.221 -0.5757 -0.4329 -0.4238
   70MOL0     H 9620  10.991  10.331   5.093  3.2335  0.7280 -1.4261
   70MOL0     H 9621  11.075  10.343   5.257  0.7174 -0.1919  1.6321
   70MOL0     H 9622  11.432  10.564   5.149  0.7565 -2.5178  1.0340
   70MOL0     H 9623  11.531  10.793   5.090  3.3316  1.7805 -1.3463
   70MOL0     H 9624  11.820  10.817   4.922 -1.2675 -1.7462 -0.0392
   70MOL0     H 9625  11.802  10.864   4.754 -0.0606 -4.3186  0.9227
   70MOL0     H 9626  11.725  11.076   4.803 -1.1195 -0.9640 -0.4985
   70MOL0     H 9627  11.738  11.048   4.983 -1.6451 -0.8540  0.1831
   70MOL0     H 9628  11.980  10.996   4.942  0.1109  1.0163  2.1000
   70MOL0     H 9629  11.928  11.174   4.945 -2.8079  1.2350 -2.1465
   70MOL0     H 9630  11.924  11.183   4.699  0.8715 -0.3994  0.0490
   70MOL0     H 9631  11.979  11.012   4.703  1.0772 -0.5646  0.7777
   70MOL0     H 9632  12.127  11.234   4.833  3.2176 -0.8238 -1.0312
   70MOL0     H 9633  12.182  11.078   4.824  3.3962  3.2586  0.4102
   70MOL0     H 9634  12.251  11.269   4.634  0.4481 -0.3076 -0.9181
   70MOL0     H 9635  12.118  11.195   4.552  3.9743 -1.4484 -3.5781
   70MOL0     H 9636  12.261  10.975   4.613 -0.6759 -1.3420 -1.5884
   70MOL0     H 9637  12.384  11.083   4.643 -1.6916 -1.9824  4.5585
   70MOL0     H 9638  12.402  11.011   4.402  1.2212 -0.8941  1.2311
   70MOL0     H 9639  12.359  11.178   4.410  0.5694 -0.7535 -2.5951
   70MOL0     H 9640  11.611  10.652   4.695  2.4444  0.4529  1.4701
   70MOL0     H 9641  11.489  10.448   4.746 -3.9939  1.6752 -0.7245
   70MOL0     H 9642  11.452  10.116   4.986  0.1866 -1.6443  0.6150
   70MOL0     H 9643  11.400   9.896   5.032 -0.1922 -0.3089  3.6936
   70MOL0     H 9644  11.002   9.117   3.549  0.1879 -0.6436 -0.0544
   70MOL0     H 9645  11.093   8.909   3.448  2.1509  3.0626 -3.1190
   70MOL0     H 9646  11.301   8.612   3.196  0.4327  3.5927  2.1356
   70MOL0     H 9647  11.382   8.404   3.110  2.0958  2.3708  0.2459
   70MOL0     H 9648  11.536   8.043   3.383 -0.2534 -0.2022 -0.3392
   70MOL0     H 9649  11.380   8.114   3.435  3.7536  0.8478  2.0439
   70MOL0     H 9650  11.374   7.993   3.169 -1.7796  0.0219  0.8192
   70MOL0     H 9651  11.255   8.000   3.291  0.8054  2.7564 -0.8878
   70MOL0     H 9652  11.511   7.829   3.281 -0.0145  1.4824  1.3372
   70MOL0     H 9653  11.420   7.837   3.425 -1.4945  4.0868  0.9751
   70MOL0     H 9654  11.223   7.774   3.233  2.1710 -0.4152 -3.6909
   70MOL0     H 9655  11.287   7.666   3.355  1.6511 -1.2078  0.5173
   70MOL0     H 9656  11.470   7.491   3.031 -1.6556 -0.9719 -0.2946
   70MOL0     H 9657  11.493   8.296   3.506 -0.5281  0.1544 -0.5668
   70MOL0     H 9658  11.266   8.478   3.671  0.9377 -1.6213  1.2950
   70MOL0     H 9659  11.428   8.408   3.691  1.9630  0.3309 -0.0260
   70MOL0     H 9660  11.406   8.587   3.673  0.6537 -0.4134 -1.2263
   71MOL0     O 9661   8.420   0.585  11.145 -0.4965 -0.9329 -0.5500
   71MOL0     C 9662   8.389   0.698  11.177 -0.0402  0.9846  0.8037
   71MOL0     O 9663   8.476   0.805  11.184 -0.0273  0.3474 -0.1026
   71MOL0     C 9664   8.590   0.804  11.108 -0.2293  0.1934 -0.5591
   71MOL0     C 9665   8.703   0.867  11.168 -0.2519 -0.4778  0.0915
   71MOL0     C 9666   8.818   0.893  11.088 -0.3844  0.4227 -0.4800
   71MOL0     C 9667   8.838   0.830  10.972  0.6461  0.3102  0.2114
   71MOL0     O 9668   8.953   0.860  10.908  0.6939  0.4925  1.1113
   71MOL0     C 9669   8.955   0.828  10.759  0.7381  0.5263  1.0318
   71MOL0     C 9670   9.084   0.884  10.703 -0.5863  0.2523 -0.0278
   71MOL0     C 9671   9.087   0.911  10.552  0.4369  0.4921  0.1973
   71MOL0     C 9672   9.008   1.041  10.508 -0.2690 -0.8127 -0.6111
   71MOL0     C 9673   8.982   1.050  10.360  0.5151 -0.3159  0.6082
   71MOL0     C 9674   8.895   1.171  10.342  0.0770 -0.0485 -0.0703
   71MOL0     C 9675   8.843   1.187  10.200  0.1196 -1.3694  0.3598
   71MOL0     C 9676   8.736   1.091  10.156 -0.3230  0.3559  0.7409
   71MOL0     N 9677   8.606   1.104  10.228  0.1340  0.4077 -0.2472
   71MOL0     C 9678   8.538   1.228  10.258 -0.8477 -0.5473  0.1000
   71MOL0     C 9679   8.410   1.191  10.297  1.2058 -0.6711 -0.1397
   71MOL0     C 9680   8.296   1.293  10.344  0.5798 -0.3269 -0.2389
   71MOL0     C 9681   8.261   1.276  10.494  0.1039 -1.6066 -0.6759
   71MOL0     C 9682   8.118   1.291  10.534 -0.6466 -0.2351 -0.7139
   71MOL0     C 9683   8.098   1.267  10.692  0.7624 -0.3832  0.1429
   71MOL0     O 9684   7.956   1.272  10.733  0.2438  0.5093  0.0774
   71MOL0     C 9685   7.937   1.322  10.857  0.6609  0.1461 -0.3961
   71MOL0     C 9686   7.929   1.230  10.964  0.2739 -0.3967 -0.3425
   71MOL0     C 9687   7.911   1.279  11.101  0.5240 -1.0320 -0.6506
   71MOL0     C 9688   7.910   1.179  11.217 -1.0341 -0.2053  0.4356
   71MOL0     C 9689   7.904   1.420  11.120  0.1282  0.3133 -0.2785
   71MOL0     C 9690   7.885   1.479  11.257 -0.9596 -0.0792 -0.8860
   71MOL0     O 9691   7.886   1.617  11.262  0.6737  0.1230 -0.1856
   71MOL0     C 9692   7.791   1.687  11.339 -1.1359  0.3972  0.0392
   71MOL0     C 9693   7.663   1.650  11.312  1.1711 -0.4245 -0.2889
   71MOL0     C 9694   7.557   1.735  11.370 -0.7572  0.5085  1.7299
   71MOL0     C 9695   7.597   1.825  11.469 -0.2891  0.4135  0.3026
   71MOL0     O 9696   7.509   1.914  11.519  0.2176  0.0348  0.5815
   71MOL0     C 9697   7.365   1.870  11.513  0.1720 -0.4877 -0.3580
   71MOL0     C 9698   7.279   1.954  11.605  1.0684  0.3658 -0.7304
   71MOL0     C 9699   7.125   1.917  11.612 -0.6998 -0.2412 -0.1952
   71MOL0     C 9700   7.067   2.003  11.727 -0.3263  0.0464  0.1915
   71MOL0     C 9701   7.097   1.942  11.866 -0.3376  0.5685  1.3393
   71MOL0     C 9702   7.021   1.995  11.978 -0.4637  0.6473 -0.5531
   71MOL0     C 9703   7.088   1.977  12.118  0.2687 -0.6941 -0.2811
   71MOL0     C 9704   7.205   2.059  12.149 -0.8435 -0.4962 -0.8343
   71MOL0    Cl 9705   7.161   2.231  12.178  0.3376  0.3011 -0.3463
   71MOL0     C 9706   7.731   1.847  11.508  0.4856  0.0894 -0.5601
   71MOL0     C 9707   7.826   1.787  11.428 -0.5669 -0.0429 -1.3738
   71MOL0     O 9708   7.871   1.411  11.356 -0.1690 -0.3877 -0.2795
   71MOL0     C 9709   7.916   1.506  11.010 -1.0664 -0.7208 -0.1769
   71MOL0     C 9710   7.938   1.456  10.883 -0.1123 -0.0827 -0.2519
   71MOL0     N 9711   8.412   1.050  10.295  0.2879 -0.5725 -0.6334
   71MOL0     N 9712   8.523   0.999  10.254  0.7694  0.0927  0.1334
   71MOL0     C 9713   8.738   0.747  10.926  0.4261 -0.4761  0.6059
   71MOL0     C 9714   8.618   0.737  10.989 -0.2864  0.9499  0.4025
   71MOL0     C 9715   8.256   0.706  11.224  0.3921  0.4954  0.2581
   71MOL0     C 9716   8.170   0.597  11.213  0.1960 -0.4477 -0.3414
   71MOL0     C 9717   8.048   0.597  11.275  0.2442 -0.2006 -0.4508
   71MOL0     C 9718   7.997   0.714  11.340 -0.7107  1.0223 -0.1712
   71MOL0     O 9719   7.877   0.719  11.386 -0.7491  0.3272  0.2597
   71MOL0     C 9720   7.829   0.617  11.474  1.1181 -0.2223 -0.4627
   71MOL0     C 9721   7.692   0.645  11.539  0.3481  0.5684 -0.8888
   71MOL0     C 9722   7.669   0.802  11.553 -0.7747 -0.0489 -0.8794
   71MOL0     C 9723   7.776   0.865  11.638  0.3909  0.6097  0.5721
   71MOL0     C 9724   7.759   1.009  11.634 -0.1531 -0.6987  1.0021
   71MOL0     C 9725   7.735   1.130  11.619 -0.6924 -0.4779 -0.4318
   71MOL0     C 9726   8.076   0.827  11.349 -1.1313 -1.0531 -0.1466
   71MOL0     C 9727   8.208   0.827  11.296  0.4066  0.2627  0.6942
   71MOL0     C 9728   8.287   0.959  11.309 -0.3376  0.3281 -0.4822
   71MOL0     H 9729   8.698   0.917  11.264  0.8916 -0.5398  0.2003
   71MOL0     H 9730   8.888   0.970  11.117  0.6421 -0.9331  0.7332
   71MOL0     H 9731   8.878   0.879  10.700  0.7328 -1.3545 -0.7095
   71MOL0     H 9732   8.946   0.723  10.732  2.6111  0.2795  1.2687
   71MOL0     H 9733   9.095   0.981  10.752 -0.8751 -0.3068  1.1996
   71MOL0     H 9734   9.166   0.817  10.732  0.3532  1.7939  1.0288
   71MOL0     H 9735   9.188   0.937  10.518 -0.6575  0.7223 -3.1990
   71MOL0     H 9736   9.051   0.822  10.499  3.4199  1.2685 -3.5031
   71MOL0     H 9737   8.916   1.031  10.566 -0.0630 -3.0345 -0.5749
   71MOL0     H 9738   9.074   1.122  10.540 -1.8047  0.1896  0.1443
   71MOL0     H 9739   8.927   0.962  10.327 -1.3896  1.3690 -0.9250
   71MOL0     H 9740   9.071   1.054  10.297  0.5534  0.8577  0.7121
   71MOL0     H 9741   8.811   1.173  10.412  0.8541  1.5524  0.8579
   71MOL0     H 9742   8.959   1.254  10.372  0.3975  0.5300 -2.1831
   71MOL0     H 9743   8.920   1.186  10.122 -0.6257 -2.3435 -0.4027
   71MOL0     H 9744   8.799   1.287  10.190  3.5142  0.1899 -0.3335
   71MOL0     H 9745   8.721   1.109  10.050  0.6638 -2.7071 -0.0277
   71MOL0     H 9746   8.775   0.992  10.182 -1.7533 -0.2331  0.7706
   71MOL0     H 9747   8.587   1.325  10.264 -0.9989 -0.4939  0.5384
   71MOL0     H 9748   8.203   1.269  10.291 -0.2495 -0.1793  1.1163
   71MOL0     H 9749   8.321   1.395  10.314  0.5739 -0.1120  0.4671
   71MOL0     H 9750   8.298   1.175  10.515  2.7234 -0.7761 -0.9878
   71MOL0     H 9751   8.325   1.330  10.564  0.3509 -2.9249  0.1588
   71MOL0     H 9752   8.098   1.398  10.522  3.2839  0.8516  0.7855
   71MOL0     H 9753   8.048   1.243  10.466 -3.1698  3.3907 -1.0102
   71MOL0     H 9754   8.140   1.171  10.722 -1.4027 -1.6136 -0.4965
   71MOL0     H 9755   8.157   1.345  10.740  0.0642  0.8967 -1.0018
   71MOL0     H 9756   7.938   1.123  10.944 -0.8197 -1.0693  2.3954
   71MOL0     H 9757   7.835   1.188  11.296 -2.2035 -4.7893  0.1376
   71MOL0     H 9758   8.012   1.173  11.259 -1.0742 -0.9660  0.4373
   71MOL0     H 9759   7.890   1.080  11.176  1.3951 -0.5290 -0.1316
   71MOL0     H 9760   7.631   1.570  11.246 -0.6311 -0.2062  0.2502
   71MOL0     H 9761   7.462   1.717  11.320  0.8230 -0.9377 -1.0406
   71MOL0     H 9762   7.330   1.877  11.409  0.1638  1.8011 -0.2482
   71MOL0     H 9763   7.354   1.767  11.548  0.1470 -0.6951 -0.9503
   71MOL0     H 9764   7.329   1.958  11.703  0.8691  2.8585 -0.6654
   71MOL0     H 9765   7.279   2.063  11.591  0.5236  0.1700 -2.4868
   71MOL0     H 9766   7.117   1.810  11.632 -0.6435 -0.4780 -1.3888
   71MOL0     H 9767   7.078   1.938  11.515 -1.0861 -0.2567 -0.0147
   71MOL0     H 9768   6.958   2.006  11.710 -1.0946 -1.7142  3.8407
   71MOL0     H 9769   7.102   2.106  11.727  0.3542 -0.1410 -1.4873
   71MOL0     H 9770   7.089   1.833  11.866  4.9137 -0.0506  0.7045
   71MOL0     H 9771   7.201   1.967  11.888  0.2200  0.3452 -0.8693
   71MOL0     H 9772   6.924   1.945  11.977  0.2244 -0.7247 -0.5319
   71MOL0     H 9773   7.004   2.102  11.965 -0.0584  0.5980 -1.5457
   71MOL0     H 9774   7.123   1.874  12.124  1.3188 -0.5019 -2.3028
   71MOL0     H 9775   7.007   2.008  12.185 -0.8408  0.4975 -2.0633
   71MOL0     H 9776   7.290   2.052  12.080 -0.5172  1.1463 -0.6425
   71MOL0     H 9777   7.254   2.021  12.239 -0.7302  1.3960 -0.0309
   71MOL0     H 9778   7.750   1.929  11.577  0.7089  0.6659 -1.2922
   71MOL0     H 9779   7.929   1.812  11.450 -1.2974  0.6122  1.7084
   71MOL0     H 9780   7.901   1.612  11.023  2.3101 -0.2188  0.4025
   71MOL0     H 9781   7.942   1.528  10.802  1.2653 -0.7538 -0.8218
   71MOL0     H 9782   8.741   0.686  10.837 -3.3142 -1.9987  1.3438
   71MOL0     H 9783   8.556   0.663  10.941  0.4471  1.8843 -2.1262
   71MOL0     H 9784   8.193   0.506  11.159 -1.0883 -0.2130 -1.3282
   71MOL0     H 9785   7.995   0.503  11.276  3.0532 -1.8661 -0.1729
   71MOL0     H 9786   7.812   0.524  11.419 -1.2261  1.5504 -3.0159
   71MOL0     H 9787   7.895   0.596  11.559 -1.8534 -0.5054  2.0084
   71MOL0     H 9788   7.669   0.587  11.629  0.3803  1.9514  0.0530
   71MOL0     H 9789   7.622   0.606  11.465  1.5653 -1.8562 -0.8625
   71MOL0     H 9790   7.674   0.850  11.455 -1.7666  2.3988  0.2044
   71MOL0     H 9791   7.570   0.825  11.593  0.4271  3.2917  0.5102
   71MOL0     H 9792   7.879   0.855  11.603  0.0894 -0.0088 -0.1864
   71MOL0     H 9793   7.780   0.822  11.738  0.9443 -1.2727 -0.2190
   71MOL0     H 9794   7.731   1.237  11.626 -1.7764 -0.5019 -0.3727
   71MOL0     H 9795   8.050   0.911  11.412  1.2468 -0.1582 -0.2703
   71MOL0     H 9796   8.379   0.942  11.366 -0.7509  0.3119  0.1827
   71MOL0     H 9797   8.305   0.985  11.204  1.2851  0.8110 -0.1124
   71MOL0     H 9798   8.229   1.040  11.354 -0.2854  0.7594 -1.1759
   72MOL0     O 9799   2.965   7.196   6.291 -0.1369 -0.1494 -0.4768
   72MOL0     C 9800   2.900   7.217   6.395  0.1584  0.1748  0.0929
   72MOL0     O 9801   2.780   7.285   6.400  0.0443 -0.0759 -0.0015
   72MOL0     C 9802   2.742   7.360   6.293 -0.1326  0.6323 -0.0672
   72MOL0     C 9803   2.722   7.306   6.165  1.1480 -0.3975  0.1068
   72MOL0     C 9804   2.689   7.395   6.056  0.7422  0.4371 -0.2516
   72MOL0     C 9805   2.682   7.533   6.081  0.7424 -0.6710  1.0256
   72MOL0     O 9806   2.661   7.613   5.972  1.1530  0.1051 -0.1598
   72MOL0     C 9807   2.610   7.747   5.986 -0.2699 -0.2792 -1.8450
   72MOL0     C 9808   2.516   7.770   5.870  0.0271  0.6455 -0.0984
   72MOL0     C 9809   2.453   7.652   5.800 -1.1054 -0.9444  0.9198
   72MOL0     C 9810   2.554   7.588   5.697  0.2410 -0.0444 -0.4754
   72MOL0     C 9811   2.481   7.486   5.610 -0.4010 -0.8920  0.2231
   72MOL0     C 9812   2.565   7.386   5.534 -0.4318  0.0802 -0.1034
   72MOL0     C 9813   2.486   7.316   5.421  0.0458  0.4600  0.8262
   72MOL0     C 9814   2.396   7.213   5.494 -0.4300 -1.2843  0.1962
   72MOL0     N 9815   2.353   7.111   5.410  1.0816  0.5403  0.1082
   72MOL0     C 9816   2.224   7.087   5.390  0.2754 -0.3340  0.9287
   72MOL0     C 9817   2.217   7.006   5.280 -0.2016 -0.6725 -0.0928
   72MOL0     C 9818   2.102   6.971   5.195 -0.7648 -1.0295  0.1380
   72MOL0     C 9819   2.082   7.054   5.070 -0.3538  0.0169  0.4043
   72MOL0     C 9820   2.045   7.196   5.105  0.3738 -0.5215  0.2268
   72MOL0     C 9821   2.036   7.284   4.977 -0.1142  0.1578 -0.5645
   72MOL0     O 9822   1.941   7.256   4.883  0.0759  0.1480  0.1084
   72MOL0     C 9823   1.812   7.302   4.904  0.3114 -0.3328  1.0542
   72MOL0     C 9824   1.724   7.244   4.818 -0.0738  0.9885  0.5235
   72MOL0     C 9825   1.587   7.264   4.827  0.1101  0.7802  0.9395
   72MOL0     C 9826   1.491   7.194   4.726 -0.1638  0.1556 -0.4958
   72MOL0     C 9827   1.528   7.341   4.926  0.2456  0.5549 -0.5365
   72MOL0     C 9828   1.385   7.360   4.948 -0.1388 -0.1615  0.3710
   72MOL0     O 9829   1.290   7.254   4.922 -0.0011  0.2932  0.2615
   72MOL0     C 9830   1.162   7.271   4.945  0.3081 -0.7686  0.0699
   72MOL0     C 9831   1.087   7.150   4.989  0.2606  0.5210  1.1998
   72MOL0     C 9832   0.945   7.153   4.981  0.1019  0.5387  0.1430
   72MOL0     C 9833   0.869   7.267   4.936 -0.0727  0.3306 -1.0551
   72MOL0     O 9834   0.731   7.273   4.924  0.3793 -0.1181 -0.5813
   72MOL0     C 9835   0.645   7.164   4.956  0.4368 -0.1377 -0.1800
   72MOL0     C 9836   0.500   7.187   4.908 -0.3710 -0.0895  1.1139
   72MOL0     C 9837   0.472   7.208   4.753  0.1353 -1.5020  0.7157
   72MOL0     C 9838   0.325   7.165   4.712 -0.6755 -0.3362 -0.3448
   72MOL0     C 9839   0.213   7.265   4.746 -1.4752 -0.2184  0.1529
   72MOL0     C 9840   0.086   7.224   4.671 -0.6940  0.0595 -0.6623
   72MOL0     C 9841  -0.032   7.298   4.731 -0.0699  0.7503  0.2497
   72MOL0     C 9842  -0.036   7.440   4.677  0.6404  0.0857  0.4450
   72MOL0    Cl 9843  -0.085   7.450   4.507 -0.3731  0.4675  0.0113
   72MOL0     C 9844   0.945   7.373   4.897  0.7759 -0.1038 -0.5220
   72MOL0     C 9845   1.081   7.377   4.896  0.2720 -0.9211 -0.1998
   72MOL0     O 9846   1.351   7.465   4.999 -0.2068 -0.4278  0.5504
   72MOL0     C 9847   1.623   7.411   5.007 -0.4231 -0.3773 -0.1470
   72MOL0     C 9848   1.760   7.387   4.998  0.6932  0.1545  0.5166
   72MOL0     N 9849   2.349   6.969   5.238  1.2046  0.2333  0.2728
   72MOL0     N 9850   2.428   7.031   5.323 -0.5880 -0.0254 -0.0549
   72MOL0     C 9851   2.696   7.581   6.211 -0.2099 -0.8498  0.1658
   72MOL0     C 9852   2.717   7.499   6.319 -0.6630  0.1897 -0.1249
   72MOL0     C 9853   2.943   7.156   6.522  0.4908  0.2231 -0.0749
   72MOL0     C 9854   2.844   7.140   6.625  0.2580 -0.2943  0.4756
   72MOL0     C 9855   2.866   7.054   6.740 -0.6031 -0.0411  0.1343
   72MOL0     C 9856   2.992   7.011   6.770  0.0725 -0.1508 -1.0749
   72MOL0     O 9857   3.003   6.940   6.883 -0.0074  0.8766 -0.3748
   72MOL0     C 9858   3.138   6.964   6.948 -0.1571 -0.0733  0.8362
   72MOL0     C 9859   3.133   6.926   7.098 -0.2380  0.1686 -0.0723
   72MOL0     C 9860   3.154   6.777   7.127 -0.1828 -0.5561 -0.1906
   72MOL0     C 9861   3.133   6.726   7.276 -0.0192 -0.1169  0.5815
   72MOL0     C 9862   3.192   6.814   7.377 -0.6992  0.2318 -0.2505
   72MOL0     C 9863   3.252   6.878   7.461 -0.0906 -0.3872  0.2807
   72MOL0     C 9864   3.097   7.044   6.684 -1.1115 -0.3120  0.5689
   72MOL0     C 9865   3.075   7.108   6.557  0.3218  0.0741 -0.4448
   72MOL0     C 9866   3.192   7.131   6.470 -0.3283  0.6392  0.0112
   72MOL0     H 9867   2.744   7.202   6.144  2.9415 -0.3787  1.6397
   72MOL0     H 9868   2.677   7.372   5.951 -3.5257 -0.4597  0.2674
   72MOL0     H 9869   2.687   7.824   5.991  1.8940 -2.3966  0.4184
   72MOL0     H 9870   2.552   7.759   6.078  0.5270 -0.5521 -1.3096
   72MOL0     H 9871   2.427   7.818   5.911 -0.9029 -0.9326 -0.1805
   72MOL0     H 9872   2.545   7.839   5.790 -0.5626  0.7156 -0.2618
   72MOL0     H 9873   2.415   7.571   5.863 -1.1894 -2.2440 -0.7083
   72MOL0     H 9874   2.368   7.695   5.745 -1.0973 -1.6753  0.3187
   72MOL0     H 9875   2.593   7.662   5.625  1.4003 -0.9122 -0.7690
   72MOL0     H 9876   2.634   7.540   5.753 -0.6817  0.0527  0.9680
   72MOL0     H 9877   2.434   7.550   5.535 -0.1112  0.7505  1.3755
   72MOL0     H 9878   2.408   7.425   5.666  0.4372 -1.2624  0.9406
   72MOL0     H 9879   2.656   7.433   5.496  1.1050 -1.4071  1.5063
   72MOL0     H 9880   2.607   7.316   5.606  0.0197 -0.0148 -0.4574
   72MOL0     H 9881   2.552   7.256   5.357 -1.5163 -0.4591  0.0060
   72MOL0     H 9882   2.438   7.377   5.344 -1.3883 -0.1729  1.1760
   72MOL0     H 9883   2.442   7.163   5.579 -0.6830 -3.6153 -0.9524
   72MOL0     H 9884   2.309   7.262   5.538 -0.0566  0.2664 -0.7045
   72MOL0     H 9885   2.146   7.140   5.444  1.8919  2.6183  0.6134
   72MOL0     H 9886   2.017   6.991   5.261 -0.7508  0.2249 -0.2018
   72MOL0     H 9887   2.098   6.864   5.171 -0.4662 -0.4759 -2.7935
   72MOL0     H 9888   2.171   7.046   5.006  0.5162 -2.9785  1.8105
   72MOL0     H 9889   1.996   7.018   5.013 -0.1674 -0.2588  0.2909
   72MOL0     H 9890   1.950   7.205   5.157 -0.3354  2.7676 -1.4356
   72MOL0     H 9891   2.130   7.226   5.166 -0.3315 -0.0044  0.9651
   72MOL0     H 9892   2.031   7.390   5.000 -1.4895  0.4713 -2.0902
   72MOL0     H 9893   2.136   7.281   4.933 -0.1893 -1.0571 -0.7139
   72MOL0     H 9894   1.756   7.168   4.747  0.0666  0.4377  1.1753
   72MOL0     H 9895   1.547   7.186   4.632  1.1538  0.8827  0.1864
   72MOL0     H 9896   1.410   7.264   4.709 -1.0041 -0.6033  0.3009
   72MOL0     H 9897   1.455   7.101   4.771 -1.5297  1.2641  0.7640
   72MOL0     H 9898   1.133   7.061   5.031 -1.3822 -0.4122  1.1159
   72MOL0     H 9899   0.890   7.063   5.005  0.0377  1.0198  1.9618
   72MOL0     H 9900   0.677   7.069   4.912 -2.0736 -0.4976 -1.4424
   72MOL0     H 9901   0.648   7.157   5.065 -0.6515  1.1942 -0.0322
   72MOL0     H 9902   0.452   7.093   4.937 -1.8042  0.9785  2.4215
   72MOL0     H 9903   0.457   7.272   4.963 -0.6813  1.6866 -1.6865
   72MOL0     H 9904   0.542   7.139   4.705 -1.1233 -3.5880  1.7230
   72MOL0     H 9905   0.491   7.312   4.726 -1.6893 -2.2945 -5.1685
   72MOL0     H 9906   0.293   7.076   4.768 -1.9117  0.7077  0.6665
   72MOL0     H 9907   0.330   7.148   4.604  0.5539  0.7210 -0.4838
   72MOL0     H 9908   0.196   7.259   4.854 -2.1271  1.0380  0.1315
   72MOL0     H 9909   0.243   7.368   4.723  2.8911 -0.9200  1.7147
   72MOL0     H 9910   0.068   7.116   4.680  1.1074 -0.2350 -0.1799
   72MOL0     H 9911   0.094   7.251   4.565 -3.5235  1.4290 -0.6216
   72MOL0     H 9912  -0.030   7.308   4.840 -1.4551 -1.2558  0.5296
   72MOL0     H 9913  -0.121   7.241   4.702 -0.3029  1.0641  0.3414
   72MOL0     H 9914   0.062   7.489   4.685  0.4117  0.9868 -1.5331
   72MOL0     H 9915  -0.109   7.493   4.739 -0.1525 -1.8487  1.2430
   72MOL0     H 9916   0.878   7.454   4.868 -1.4473 -1.3320  0.9339
   72MOL0     H 9917   1.142   7.463   4.867  0.1314 -1.7828 -3.3742
   72MOL0     H 9918   1.588   7.481   5.083 -1.3315 -0.6561 -0.2900
   72MOL0     H 9919   1.825   7.445   5.063  1.4469  0.8835 -0.8196
   72MOL0     H 9920   2.681   7.688   6.223 -1.3569 -0.9708 -0.1128
   72MOL0     H 9921   2.732   7.540   6.419 -2.6014  1.9470 -0.4848
   72MOL0     H 9922   2.747   7.183   6.601 -1.2133 -1.4119  3.7576
   72MOL0     H 9923   2.796   7.032   6.819 -1.3713 -0.9011 -0.7575
   72MOL0     H 9924   3.210   6.898   6.899 -0.5481  0.4664 -0.5026
   72MOL0     H 9925   3.172   7.066   6.930  0.0787 -0.1348  0.9338
   72MOL0     H 9926   3.032   6.948   7.135 -0.5975 -2.7473  0.9987
   72MOL0     H 9927   3.209   6.978   7.156 -1.9134  1.9547  0.6247
   72MOL0     H 9928   3.089   6.718   7.061 -1.5528  2.1652 -1.4353
   72MOL0     H 9929   3.257   6.751   7.099 -0.5765 -1.2337 -1.0429
   72MOL0     H 9930   3.165   6.621   7.277  0.4089  0.0161  0.8723
   72MOL0     H 9931   3.025   6.728   7.292  0.1989  1.4903  2.1457
   72MOL0     H 9932   3.305   6.934   7.536  0.1431 -0.6622  0.3226
   72MOL0     H 9933   3.199   7.017   6.709 -2.1688 -1.1641  4.6066
   72MOL0     H 9934   3.196   7.049   6.398  0.9946 -0.1177  0.9105
   72MOL0     H 9935   3.187   7.226   6.416 -0.1928  1.2549  1.0520
   72MOL0     H 9936   3.288   7.130   6.522 -0.4967  3.5131  0.5475
   73MOL0     O 9937  11.435   6.091  10.674  0.6464 -0.3145  0.4038
   73MOL0     C 9938  11.429   5.980  10.732 -0.1012 -0.1086  0.1920
   73MOL0     O 9939  11.420   5.970  10.868  0.5749 -0.5936  0.9196
   73MOL0     C 9940  11.422   6.081  10.945 -0.0675 -0.6606 -0.6805
   73MOL0     C 9941  11.524   6.102  11.034 -0.1672  0.3873  0.3188
   73MOL0     C 9942  11.509   6.207  11.132 -1.7458 -0.1747 -0.0292
   73MOL0     C 9943  11.403   6.300  11.127  0.3885 -0.0904  0.3034
   73MOL0     O 9944  11.388   6.396  11.232  0.5803 -0.0610 -0.4478
   73MOL0     C 9945  11.303   6.510  11.196 -0.6254 -0.0600  0.5899
   73MOL0     C 9946  11.309   6.603  11.315 -1.1394 -0.2590 -0.3602
   73MOL0     C 9947  11.275   6.745  11.287  0.7364 -0.1963 -0.3365
   73MOL0     C 9948  11.236   6.822  11.406 -0.6284 -0.5829 -0.2173
   73MOL0     C 9949  11.130   6.931  11.376 -0.1675  0.5726  0.3708
   73MOL0     C 9950  11.101   7.005  11.500  0.2321  0.3940 -0.7654
   73MOL0     C 9951  11.007   7.126  11.478 -0.9806  0.8385  0.7285
   73MOL0     C 9952  10.966   7.209  11.602  0.6336  0.4395  0.5204
   73MOL0     N 9953  11.076   7.265  11.680 -0.3822  0.4913 -0.1738
   73MOL0     C 9954  11.188   7.330  11.633  0.2540 -0.3675 -0.2964
   73MOL0     C 9955  11.244   7.380  11.749 -0.2804 -0.6163  1.3417
   73MOL0     C 9956  11.352   7.484  11.762 -0.1811  0.4777  0.5905
   73MOL0     C 9957  11.291   7.627  11.779  0.6661  0.3795  0.5139
   73MOL0     C 9958  11.251   7.648  11.927 -0.1441  0.2754 -0.3344
   73MOL0     C 9959  11.369   7.707  12.011 -0.7717  0.7767 -0.4484
   73MOL0     O 9960  11.309   7.785  12.115 -0.1640 -0.2309  0.3402
   73MOL0     C 9961  11.387   7.857  12.196 -0.0195  0.2936  0.3323
   73MOL0     C 9962  11.328   7.924  12.307 -0.8181  1.0436  0.3224
   73MOL0     C 9963  11.398   7.997  12.403 -0.3715  0.4421  0.0175
   73MOL0     C 9964  11.323   8.064  12.507  0.3376  0.6867  0.1380
   73MOL0     C 9965  11.540   8.001  12.397 -1.5297  0.1231 -0.5554
   73MOL0     C 9966  11.632   8.064  12.496  0.9011  0.5501  0.5953
   73MOL0     O 9967  11.762   8.022  12.502  0.1563  0.4738 -1.2134
   73MOL0     C 9968  11.842   8.082  12.595  0.7071 -0.0791 -0.5910
   73MOL0     C 9969  11.831   8.045  12.730 -0.9993  0.5505  0.3061
   73MOL0     C 9970  11.923   8.088  12.821  0.0967  0.4442  0.1331
   73MOL0     C 9971  12.010   8.184  12.782  0.7914 -0.1097  0.5222
   73MOL0     O 9972  12.100   8.230  12.866  0.2459  0.3041 -0.1773
   73MOL0     C 9973  12.073   8.240  13.010  0.5172  0.2150  0.0239
   73MOL0     C 9974  12.142   8.364  13.055 -0.1311  0.2057 -1.0049
   73MOL0     C 9975  12.109   8.373  13.211  0.2016  0.2931  0.0375
   73MOL0     C 9976  12.211   8.284  13.294  0.5724 -0.5458 -1.1271
   73MOL0     C 9977  12.176   8.289  13.441  1.3958 -0.2106 -0.2232
   73MOL0     C 9978  12.257   8.202  13.536 -0.1646 -0.8979 -0.2276
   73MOL0     C 9979  12.257   8.051  13.504  0.0327 -0.1062 -0.8889
   73MOL0     C 9980  12.268   7.959  13.629 -0.8928 -0.6697  0.1989
   73MOL0    Cl 9981  12.131   7.970  13.749  0.0574  0.1121  0.0180
   73MOL0     C 9982  12.025   8.222  12.647 -0.6940  0.0416  0.6149
   73MOL0     C 9983  11.940   8.166  12.547  0.7286 -0.5608 -0.6874
   73MOL0     O 9984  11.578   8.143  12.564  0.7536 -0.2016  0.0836
   73MOL0     C 9985  11.607   7.944  12.285  0.1368  1.3799  0.2430
   73MOL0     C 9986  11.528   7.865  12.191 -0.1489 -0.2073 -0.5351
   73MOL0     N 9987  11.182   7.331  11.857  0.4208  0.7757  0.4755
   73MOL0     N 9988  11.088   7.251  11.818 -0.0119 -0.7844 -0.1543
   73MOL0     C 9989  11.314   6.273  11.017 -0.8391 -0.3456 -0.5143
   73MOL0     C 9990  11.325   6.171  10.929  1.1101 -0.3416 -0.5852
   73MOL0     C 9991  11.424   5.847  10.667  0.1403 -0.2881 -0.7140
   73MOL0     C 9992  11.495   5.739  10.732 -0.0735  0.3011  0.2614
   73MOL0     C 9993  11.473   5.613  10.675 -0.0040 -0.7231 -0.6042
   73MOL0     C 9994  11.395   5.597  10.559 -0.0025  0.4544  1.7182
   73MOL0     O 9995  11.388   5.474  10.507  0.2465 -0.3387 -0.2413
   73MOL0     C 9996  11.447   5.474  10.374  0.3252 -0.1646 -0.3098
   73MOL0     C 9997  11.509   5.340  10.338 -0.1123 -0.0133 -0.6188
   73MOL0     C 9998  11.571   5.344  10.203  0.1029  0.6763 -0.9233
   73MOL0     C 9999  11.474   5.382  10.084 -0.2439 -0.0319  0.3202
   73MOL0     C10000  11.501   5.309   9.958 -0.1283  0.4211 -0.2367
   73MOL0     C10001  11.535   5.242   9.861  0.7863  0.1292 -0.1829
   73MOL0     C10002  11.330   5.708  10.498 -0.2602  0.4927  0.8026
   73MOL0     C10003  11.335   5.834  10.557  0.0198  0.4755  0.2126
   73MOL0     C10004  11.242   5.938  10.492  0.3302 -0.4703 -0.3672
   73MOL0     H10005  11.606   6.032  11.022 -0.5023  0.2866 -1.6719
   73MOL0     H10006  11.584   6.219  11.209 -0.2255 -0.1746 -1.4474
   73MOL0     H10007  11.200   6.484  11.171  0.1451 -1.8653 -0.9758
   73MOL0     H10008  11.345   6.558  11.107  2.3132 -1.5827  1.0103
   73MOL0     H10009  11.246   6.561  11.394  0.3608 -0.6744  0.6496
   73MOL0     H10010  11.409   6.604  11.358 -1.4794 -0.8432  0.4712
   73MOL0     H10011  11.356   6.792  11.230  2.2845 -2.4150 -0.1422
   73MOL0     H10012  11.189   6.749  11.220  0.0128  1.9913  0.6679
   73MOL0     H10013  11.183   6.765  11.483 -0.7086  1.7167  1.5533
   73MOL0     H10014  11.320   6.856  11.468 -0.7777 -4.3224  2.4000
   73MOL0     H10015  11.042   6.875  11.344  0.0209  1.1564 -1.2765
   73MOL0     H10016  11.166   7.004  11.303  1.5138  2.0042  2.4984
   73MOL0     H10017  11.059   6.931  11.568  0.4673  0.8066 -0.1581
   73MOL0     H10018  11.192   7.045  11.547 -1.2050  2.1687  0.6776
   73MOL0     H10019  10.915   7.083  11.438 -2.3547  2.9973  1.4394
   73MOL0     H10020  11.057   7.192  11.406 -1.4340  2.1369  1.5740
   73MOL0     H10021  10.901   7.290  11.566  0.1746 -0.7249 -1.4101
   73MOL0     H10022  10.904   7.151  11.671  2.5747 -0.1358  1.8696
   73MOL0     H10023  11.199   7.355  11.528  0.0414 -1.2306 -0.5329
   73MOL0     H10024  11.406   7.491  11.667 -0.3579  4.2325  0.6338
   73MOL0     H10025  11.421   7.463  11.844  3.0648 -0.1326 -2.0994
   73MOL0     H10026  11.360   7.703  11.742 -0.9860  1.9963  0.6474
   73MOL0     H10027  11.200   7.620  11.718 -0.7472  0.4152  2.5310
   73MOL0     H10028  11.168   7.718  11.919 -2.2990 -2.0964 -0.2944
   73MOL0     H10029  11.199   7.565  11.976 -1.2154  0.2156 -1.5164
   73MOL0     H10030  11.422   7.622  12.055  0.3905  1.8901  0.3538
   73MOL0     H10031  11.433   7.768  11.946  1.7071 -1.8639 -0.7376
   73MOL0     H10032  11.219   7.928  12.315 -0.6960  1.2925  4.2437
   73MOL0     H10033  11.361   8.011  12.594  2.6203 -2.8214 -2.7247
   73MOL0     H10034  11.216   8.040  12.500  0.3168  0.8553 -0.1744
   73MOL0     H10035  11.338   8.173  12.506  0.9729  0.6000  0.2360
   73MOL0     H10036  11.757   7.974  12.766  1.3989 -2.1398  0.2179
   73MOL0     H10037  11.917   8.062  12.926 -1.5154 -1.1126 -0.2846
   73MOL0     H10038  11.969   8.261  13.034  1.0412  0.1408  2.6342
   73MOL0     H10039  12.116   8.158  13.067  2.4139  1.8758  1.1341
   73MOL0     H10040  12.250   8.377  13.044 -0.0995  3.7707  1.8090
   73MOL0     H10041  12.107   8.455  13.005 -0.0974 -0.6009 -2.5642
   73MOL0     H10042  12.007   8.339  13.232 -0.3239 -0.4788 -3.2389
   73MOL0     H10043  12.123   8.481  13.228  1.3527  0.7444 -3.0906
   73MOL0     H10044  12.317   8.309  13.282  0.4629  2.2767  2.0209
   73MOL0     H10045  12.212   8.178  13.268  6.2940 -0.7158 -1.5730
   73MOL0     H10046  12.190   8.394  13.471 -4.2621  0.4112  1.3655
   73MOL0     H10047  12.074   8.255  13.455  1.8540 -1.4816  0.1186
   73MOL0     H10048  12.223   8.217  13.639 -0.4153  1.2103 -0.5849
   73MOL0     H10049  12.357   8.245  13.549 -0.0342 -1.5471  1.1711
   73MOL0     H10050  12.333   8.023  13.431  0.7674  1.1688 -0.6363
   73MOL0     H10051  12.159   8.024  13.462  0.8855 -2.3596 -1.5828
   73MOL0     H10052  12.357   7.995  13.681 -0.7436 -0.6794 -0.0470
   73MOL0     H10053  12.278   7.855  13.596 -0.4101 -0.7433  0.5731
   73MOL0     H10054  12.109   8.282  12.615  1.6128 -3.1474  0.2248
   73MOL0     H10055  11.942   8.188  12.440  2.8645 -0.9156 -0.7549
   73MOL0     H10056  11.713   7.957  12.266  0.0685 -0.3235 -1.7371
   73MOL0     H10057  11.588   7.821  12.112 -2.3243  1.3386 -3.2336
   73MOL0     H10058  11.232   6.340  10.993 -0.4664  1.4261  2.5828
   73MOL0     H10059  11.262   6.170  10.841  2.2033 -0.7702 -1.3934
   73MOL0     H10060  11.557   5.747  10.821 -0.1023 -1.0191  0.4221
   73MOL0     H10061  11.507   5.519  10.717 -2.9539 -0.5736  2.5644
   73MOL0     H10062  11.378   5.504  10.295  0.2130  2.0700  0.5880
   73MOL0     H10063  11.526   5.549  10.365  1.0910 -0.9974 -0.7193
   73MOL0     H10064  11.436   5.258  10.335  1.3609 -1.3425 -2.2293
   73MOL0     H10065  11.582   5.308  10.412 -1.9712  0.1797  1.4196
   73MOL0     H10066  11.651   5.419  10.204  0.8891 -0.1423 -1.1311
   73MOL0     H10067  11.620   5.248  10.191 -1.9615 -0.9943  2.4823
   73MOL0     H10068  11.478   5.491  10.072 -2.6194  0.2405  1.4601
   73MOL0     H10069  11.373   5.360  10.120 -0.1310  0.0969  0.7175
   73MOL0     H10070  11.585   5.182   9.787  0.1644  0.3266 -0.7858
   73MOL0     H10071  11.270   5.703  10.408 -2.0641 -0.2272  1.9850
   73MOL0     H10072  11.196   6.002  10.568  0.7099 -0.7225  0.0801
   73MOL0     H10073  11.302   5.994  10.420 -0.1591  0.9517  0.2899
   73MOL0     H10074  11.153   5.900  10.442  0.2409  1.3067 -1.6700
   74MOL0     O10075   6.650   0.575   3.012 -0.9007  0.1622 -0.0926
   74MOL0     C10076   6.651   0.513   3.115  0.5349  0.1867  0.6269
   74MOL0     O10077   6.632   0.565   3.236  0.4456 -0.6062 -0.2838
   74MOL0     C10078   6.647   0.698   3.280 -0.2474 -0.0420  0.7449
   74MOL0     C10079   6.597   0.718   3.414 -0.3716  0.4766 -0.8237
   74MOL0     C10080   6.612   0.845   3.471  0.3667  0.1308 -0.5211
   74MOL0     C10081   6.671   0.948   3.404 -0.4667  0.6060 -0.2307
   74MOL0     O10082   6.694   1.072   3.458  0.1946 -0.5245 -0.4162
   74MOL0     C10083   6.639   1.097   3.589 -0.7908  0.5841  0.0762
   74MOL0     C10084   6.633   1.246   3.626  0.3970  0.4386  0.3003
   74MOL0     C10085   6.594   1.249   3.773  0.6638  0.8925 -0.3836
   74MOL0     C10086   6.570   1.395   3.806 -0.0404  0.8281 -0.0164
   74MOL0     C10087   6.500   1.413   3.942  0.5003 -0.0665  0.2329
   74MOL0     C10088   6.498   1.565   3.972  0.2520  0.3360  0.4470
   74MOL0     C10089   6.460   1.595   4.118 -1.0444 -0.1643  0.0555
   74MOL0     C10090   6.522   1.726   4.168  0.3478  0.9705  0.1440
   74MOL0     N10091   6.515   1.736   4.315 -0.9862  0.1790 -0.2559
   74MOL0     C10092   6.429   1.800   4.404  0.1641  0.4587 -0.5201
   74MOL0     C10093   6.462   1.757   4.525 -0.3426 -0.7023  0.0776
   74MOL0     C10094   6.400   1.801   4.661  0.4073 -0.4634  0.1542
   74MOL0     C10095   6.487   1.892   4.743  0.0923  0.4465 -1.3487
   74MOL0     C10096   6.470   2.048   4.716  0.2118  0.9112 -0.9486
   74MOL0     C10097   6.506   2.094   4.578  0.2534 -0.0591 -0.7727
   74MOL0     O10098   6.637   2.059   4.549 -0.5834  0.5518 -0.3663
   74MOL0     C10099   6.701   2.108   4.435  0.1702 -0.1739 -0.2969
   74MOL0     C10100   6.653   2.203   4.358 -0.6586 -1.4069 -0.5119
   74MOL0     C10101   6.729   2.263   4.255  0.0857 -0.9957  0.4042
   74MOL0     C10102   6.678   2.388   4.192  1.0087 -0.4081 -0.0573
   74MOL0     C10103   6.861   2.208   4.229  0.1188 -0.3548 -0.9886
   74MOL0     C10104   6.950   2.268   4.133  0.3660 -0.6289 -0.5372
   74MOL0     O10105   7.000   2.203   4.019  0.3808  1.5308  0.4801
   74MOL0     C10106   6.933   2.087   3.969 -0.1256  0.3003 -0.4276
   74MOL0     C10107   6.800   2.066   3.947 -0.3370 -0.2986  0.3378
   74MOL0     C10108   6.759   1.945   3.906  0.0379  0.6653  0.5148
   74MOL0     C10109   6.847   1.841   3.861 -0.2559 -0.2566 -0.2132
   74MOL0     O10110   6.795   1.724   3.806 -0.6621 -0.2266 -0.4479
   74MOL0     C10111   6.737   1.752   3.678  0.0567 -0.0708  1.0266
   74MOL0     C10112   6.838   1.703   3.581  1.0044 -0.7362  0.2376
   74MOL0     C10113   6.844   1.550   3.572 -0.3337  0.4330  0.2024
   74MOL0     C10114   6.912   1.499   3.445 -0.3261  0.0117 -0.1637
   74MOL0     C10115   6.921   1.348   3.412  0.3865  0.3216 -0.1301
   74MOL0     C10116   7.004   1.332   3.288  0.2394 -0.6366 -0.7425
   74MOL0     C10117   7.066   1.194   3.256  0.6154  0.9320  0.3896
   74MOL0     C10118   7.192   1.191   3.170  0.0683 -0.9350  0.6427
   74MOL0    Cl10119   7.290   1.053   3.220 -0.1562 -0.1934  0.2099
   74MOL0     C10120   6.988   1.871   3.873  1.2719 -0.3491  0.2873
   74MOL0     C10121   7.030   1.991   3.931  0.1293  0.5980 -0.6477
   74MOL0     O10122   6.969   2.389   4.150  0.0684  0.5510  0.2667
   74MOL0     C10123   6.904   2.109   4.311  0.4223  0.4306 -0.4289
   74MOL0     C10124   6.826   2.053   4.409 -0.3775 -0.5453 -0.1293
   74MOL0     N10125   6.570   1.670   4.511 -1.5048  0.1489 -1.1532
   74MOL0     N10126   6.602   1.658   4.389  0.0582 -0.1328  0.2887
   74MOL0     C10127   6.712   0.922   3.274  0.5783 -0.3869 -0.1021
   74MOL0     C10128   6.706   0.798   3.205  0.1360 -0.9128 -0.5006
   74MOL0     C10129   6.646   0.361   3.102 -0.0718 -0.3694 -0.5832
   74MOL0     C10130   6.629   0.283   3.228 -0.4373  1.0235  0.1496
   74MOL0     C10131   6.628   0.144   3.222 -0.8401 -0.3780  0.4428
   74MOL0     C10132   6.647   0.068   3.108  0.7436 -0.4512  0.2329
   74MOL0     O10133   6.630  -0.067   3.125 -0.0787  0.5474 -0.1668
   74MOL0     C10134   6.520  -0.128   3.049 -0.4181 -0.1661 -0.0131
   74MOL0     C10135   6.578  -0.186   2.916  0.2714 -1.2965  0.1798
   74MOL0     C10136   6.702  -0.275   2.937 -0.1682 -0.3739 -0.7374
   74MOL0     C10137   6.731  -0.364   2.813  0.1049 -0.8246 -0.3134
   74MOL0     C10138   6.879  -0.382   2.787 -0.2644  0.5038  0.1415
   74MOL0     C10139   6.995  -0.387   2.761 -0.8930  0.9367 -0.0257
   74MOL0     C10140   6.641   0.143   2.988 -0.1921 -0.5796  0.9630
   74MOL0     C10141   6.647   0.284   2.983 -0.4448 -0.0514  0.5188
   74MOL0     C10142   6.667   0.350   2.844  0.8816  0.6544 -0.2465
   74MOL0     H10143   6.562   0.633   3.472 -0.4304  0.9570 -0.1566
   74MOL0     H10144   6.581   0.861   3.573  2.0638  1.9529 -0.2287
   74MOL0     H10145   6.704   1.050   3.664 -1.7717 -1.7689 -0.4564
   74MOL0     H10146   6.540   1.054   3.601 -0.6075  0.7147  2.5118
   74MOL0     H10147   6.731   1.293   3.621 -0.5534  2.6198  0.9236
   74MOL0     H10148   6.566   1.291   3.553 -0.6185  0.8273  1.4333
   74MOL0     H10149   6.504   1.192   3.797  1.4948 -0.6685 -0.8466
   74MOL0     H10150   6.670   1.210   3.841  2.0377  1.7248 -1.3855
   74MOL0     H10151   6.672   1.435   3.799  0.6320 -0.8321 -0.3680
   74MOL0     H10152   6.511   1.448   3.731  0.1672  1.0752 -0.0081
   74MOL0     H10153   6.557   1.373   4.026  1.4268  1.9697  0.6336
   74MOL0     H10154   6.402   1.365   3.942 -0.7837  2.3552  0.8496
   74MOL0     H10155   6.605   1.587   3.961  0.1997  0.6699  0.5871
   74MOL0     H10156   6.443   1.631   3.904  0.3970 -1.0620 -1.0977
   74MOL0     H10157   6.487   1.512   4.184 -1.5525 -2.7178 -2.7209
   74MOL0     H10158   6.351   1.593   4.112 -0.9926 -1.9691 -3.4754
   74MOL0     H10159   6.627   1.731   4.138  0.6064 -1.5878  0.3963
   74MOL0     H10160   6.463   1.801   4.114 -0.7430 -1.3564 -2.1750
   74MOL0     H10161   6.343   1.863   4.383 -1.0057 -0.1274  2.1621
   74MOL0     H10162   6.389   1.720   4.734  1.8265  1.8767  3.1830
   74MOL0     H10163   6.310   1.860   4.640  0.4192 -0.3658  0.3743
   74MOL0     H10164   6.469   1.890   4.851  0.3322 -0.5236 -1.3181
   74MOL0     H10165   6.592   1.859   4.751 -0.4596 -0.9414  2.3193
   74MOL0     H10166   6.369   2.076   4.745  0.8596  2.3492  0.0506
   74MOL0     H10167   6.538   2.094   4.788 -2.4239  1.2322  1.4765
   74MOL0     H10168   6.436   2.052   4.505 -2.2957  1.7810  0.4330
   74MOL0     H10169   6.489   2.201   4.564 -0.2846 -0.0157  0.1094
   74MOL0     H10170   6.561   2.254   4.384 -0.2541 -2.1660  2.8996
   74MOL0     H10171   6.680   2.377   4.083 -1.9188  0.7381 -0.3122
   74MOL0     H10172   6.723   2.482   4.225 -0.0453 -0.4973  1.8020
   74MOL0     H10173   6.571   2.395   4.213  0.6368 -0.8493 -1.6569
   74MOL0     H10174   6.718   2.137   3.957 -3.8017 -3.2909 -3.2978
   74MOL0     H10175   6.653   1.929   3.891  0.4020 -0.0479 -1.5626
   74MOL0     H10176   6.643   1.698   3.665  0.8715 -0.8868 -2.1640
   74MOL0     H10177   6.728   1.859   3.659  2.2494 -0.1400 -0.8897
   74MOL0     H10178   6.819   1.742   3.481 -3.1385 -1.1355  0.7138
   74MOL0     H10179   6.937   1.735   3.613  0.3463  0.0164  1.5969
   74MOL0     H10180   6.746   1.504   3.561 -0.6915  1.6337 -2.5674
   74MOL0     H10181   6.891   1.510   3.662 -2.7776  0.0047  1.3726
   74MOL0     H10182   7.017   1.526   3.457  0.2716 -2.0162 -0.3728
   74MOL0     H10183   6.873   1.551   3.358  1.7534  1.4099 -0.3415
   74MOL0     H10184   6.954   1.285   3.495 -1.2912  1.0982  1.1916
   74MOL0     H10185   6.818   1.313   3.398 -0.2123  2.0337 -0.2454
   74MOL0     H10186   7.093   1.395   3.293 -0.6080  0.4888  0.8232
   74MOL0     H10187   6.948   1.378   3.206 -0.7389  1.2452  0.9142
   74MOL0     H10188   6.988   1.134   3.209  1.2228 -2.4831  3.3327
   74MOL0     H10189   7.086   1.138   3.348 -0.3769 -1.0173 -0.5226
   74MOL0     H10190   7.251   1.282   3.160 -0.6752 -0.6774 -6.8347
   74MOL0     H10191   7.154   1.177   3.068  1.5240  0.6391 -0.1565
   74MOL0     H10192   7.049   1.794   3.827 -0.6481 -0.8279 -1.6189
   74MOL0     H10193   7.138   1.993   3.948 -0.1884 -1.4188  2.3328
   74MOL0     H10194   7.001   2.062   4.300 -0.5768 -1.5748 -1.0520
   74MOL0     H10195   6.871   1.983   4.480  3.7936  1.5975 -0.3403
   74MOL0     H10196   6.754   1.008   3.222 -0.0928  1.8328  2.7632
   74MOL0     H10197   6.735   0.789   3.101 -0.9766  0.0883 -0.9269
   74MOL0     H10198   6.615   0.340   3.320 -1.8745 -0.7796  1.0907
   74MOL0     H10199   6.619   0.086   3.314 -0.0390  0.5529  1.1285
   74MOL0     H10200   6.488  -0.219   3.099  1.5757 -1.5994 -1.1984
   74MOL0     H10201   6.438  -0.058   3.028 -0.7321 -1.1730 -2.5932
   74MOL0     H10202   6.609  -0.102   2.853  3.5100 -1.0048  1.9027
   74MOL0     H10203   6.496  -0.240   2.869 -0.0515 -1.1397  0.5573
   74MOL0     H10204   6.785  -0.211   2.967 -1.4350  0.9489  0.0625
   74MOL0     H10205   6.679  -0.328   3.029 -3.0133  0.7355 -0.6943
   74MOL0     H10206   6.698  -0.328   2.716  2.7797 -0.5521 -1.2215
   74MOL0     H10207   6.680  -0.460   2.818  0.3905 -0.9679 -0.0151
   74MOL0     H10208   7.099  -0.376   2.738 -0.7007  1.2029  0.9500
   74MOL0     H10209   6.658   0.089   2.895  1.8899 -0.7117  1.3736
   74MOL0     H10210   6.674   0.278   2.762 -2.5541 -1.0210  0.7528
   74MOL0     H10211   6.587   0.423   2.827 -0.5726  0.2454  3.8307
   74MOL0     H10212   6.761   0.406   2.849  1.7927 -0.9182  0.9069
   75MOL0     O10213   8.774   1.367   4.503  0.5004 -0.6783  0.2743
   75MOL0     C10214   8.679   1.434   4.467  0.2486 -0.2056  0.1453
   75MOL0     O10215   8.680   1.538   4.377 -0.0500 -0.2114  0.5852
   75MOL0     C10216   8.800   1.597   4.333 -0.1360  0.0408 -0.4423
   75MOL0     C10217   8.918   1.524   4.307 -0.8186 -1.2695  0.3640
   75MOL0     C10218   9.033   1.595   4.289 -0.4262 -0.0912 -0.1019
   75MOL0     C10219   9.043   1.733   4.285 -0.5847 -0.3857  0.5991
   75MOL0     O10220   9.168   1.800   4.273 -0.0919  0.0290  0.3963
   75MOL0     C10221   9.196   1.909   4.364  0.0378  0.0651 -0.8511
   75MOL0     C10222   9.326   1.865   4.443  0.5634  0.9242 -0.6808
   75MOL0     C10223   9.424   1.794   4.344  0.0120  0.2807 -0.0866
   75MOL0     C10224   9.483   1.881   4.247  0.3916 -0.0454  0.8737
   75MOL0     C10225   9.592   1.800   4.170  0.0854  0.3702 -0.3402
   75MOL0     C10226   9.657   1.870   4.046  1.0540 -0.9933  1.1884
   75MOL0     C10227   9.757   1.973   4.083  0.3980 -0.5423  0.1272
   75MOL0     C10228   9.841   2.016   3.965  0.3557 -0.2173  0.7502
   75MOL0     N10229   9.764   2.056   3.847 -0.1119  0.0919 -0.2573
   75MOL0     C10230   9.785   2.003   3.724 -0.6390 -0.2090 -0.1447
   75MOL0     C10231   9.693   2.058   3.641  0.3744  0.3520  0.7415
   75MOL0     C10232   9.678   2.036   3.495  0.1944 -0.1216 -0.0477
   75MOL0     C10233   9.654   1.889   3.465 -0.1481  0.3188  0.2527
   75MOL0     C10234   9.634   1.854   3.315  0.0242 -0.2559  0.3238
   75MOL0     C10235   9.584   1.708   3.285  0.3921 -0.2927 -0.0822
   75MOL0     O10236   9.458   1.681   3.350  0.1384 -0.6117 -0.6453
   75MOL0     C10237   9.393   1.561   3.316  0.4731 -0.3777 -0.3690
   75MOL0     C10238   9.458   1.457   3.256 -0.1826 -0.5884 -0.3668
   75MOL0     C10239   9.411   1.336   3.231  0.4137 -0.1023 -0.2916
   75MOL0     C10240   9.501   1.239   3.157  0.6841 -0.4456  0.5675
   75MOL0     C10241   9.277   1.304   3.272  0.0845  0.3323 -0.0609
   75MOL0     C10242   9.209   1.171   3.255 -0.2087  0.6544 -0.4663
   75MOL0     O10243   9.077   1.162   3.297 -0.2031  0.2470 -0.8647
   75MOL0     C10244   9.019   1.045   3.299  0.0317 -0.2194  0.0301
   75MOL0     C10245   8.912   1.046   3.213 -0.7231  0.0964 -0.6433
   75MOL0     C10246   8.820   0.946   3.213 -0.7464  0.2956 -0.3522
   75MOL0     C10247   8.842   0.836   3.296  0.6814  0.5879 -1.0190
   75MOL0     O10248   8.742   0.739   3.289 -0.5890  0.4907  0.0970
   75MOL0     C10249   8.686   0.684   3.406  0.1984  0.4533  0.6997
   75MOL0     C10250   8.570   0.590   3.351  0.4798 -0.3840  0.5973
   75MOL0     C10251   8.479   0.569   3.474 -0.2385  0.7458  0.6593
   75MOL0     C10252   8.347   0.502   3.442  0.5644 -0.2340  0.0621
   75MOL0     C10253   8.248   0.493   3.555  0.3767  0.5808 -0.0956
   75MOL0     C10254   8.110   0.448   3.526 -0.0690  0.5294  0.7829
   75MOL0     C10255   8.087   0.295   3.521 -0.2660 -0.2979 -0.0056
   75MOL0     C10256   7.961   0.249   3.442 -0.1379  0.3314  0.6329
   75MOL0    Cl10257   7.820   0.255   3.535 -0.1810  0.0081 -0.3414
   75MOL0     C10258   8.934   0.847   3.402 -0.6859  0.3092  0.6193
   75MOL0     C10259   9.027   0.952   3.400  1.6165 -0.3237 -0.3492
   75MOL0     O10260   9.273   1.080   3.214  0.5932 -0.0283 -0.0224
   75MOL0     C10261   9.201   1.417   3.321  0.1418  0.0746  0.1805
   75MOL0     C10262   9.261   1.540   3.346 -0.0009 -0.6373  0.0034
   75MOL0     N10263   9.617   2.139   3.713 -0.0422 -0.2334  0.1749
   75MOL0     N10264   9.658   2.139   3.837 -0.0088 -0.0823  0.1248
   75MOL0     C10265   8.926   1.814   4.295  0.2818  0.3964 -1.0524
   75MOL0     C10266   8.806   1.745   4.321 -0.1154  0.1307  0.3226
   75MOL0     C10267   8.547   1.389   4.513  1.1548  0.2749  0.9267
   75MOL0     C10268   8.440   1.388   4.422  0.3209 -1.1722  0.2429
   75MOL0     C10269   8.312   1.337   4.453 -0.5787 -0.1143  0.4845
   75MOL0     C10270   8.288   1.299   4.582  0.0768 -0.4655  0.2362
   75MOL0     O10271   8.153   1.264   4.608  0.4471 -0.1623 -0.1204
   75MOL0     C10272   8.106   1.262   4.743 -0.6042 -0.1332  0.8646
   75MOL0     C10273   7.956   1.272   4.735  0.3618 -0.4285  0.1248
   75MOL0     C10274   7.903   1.417   4.713 -1.0797  0.0816 -0.0645
   75MOL0     C10275   7.821   1.448   4.591 -0.3920  0.1494 -0.3372
   75MOL0     C10276   7.789   1.587   4.575  0.2238  0.5375 -1.7051
   75MOL0     C10277   7.750   1.697   4.567 -0.2851 -1.3927  0.8440
   75MOL0     C10278   8.390   1.296   4.675 -0.5516 -0.4968  0.2477
   75MOL0     C10279   8.513   1.336   4.638  0.0867 -0.2051  0.4487
   75MOL0     C10280   8.622   1.330   4.732  0.1865 -0.1698 -0.3506
   75MOL0     H10281   8.926   1.416   4.319  1.2348 -0.9383  2.7583
   75MOL0     H10282   9.120   1.533   4.274  0.1884 -0.6254  4.4426
   75MOL0     H10283   9.121   1.929   4.442  0.6047 -2.0750  0.3403
   75MOL0     H10284   9.213   2.002   4.310 -1.4562  0.0103 -1.4752
   75MOL0     H10285   9.372   1.946   4.500 -4.2326  1.3318  3.3369
   75MOL0     H10286   9.302   1.798   4.527 -0.3194  1.2427 -0.6673
   75MOL0     H10287   9.514   1.765   4.399  0.2529 -2.6376 -1.7981
   75MOL0     H10288   9.373   1.710   4.296 -1.5458  1.2321 -0.1510
   75MOL0     H10289   9.398   1.903   4.182  1.2523 -0.7354 -0.5343
   75MOL0     H10290   9.532   1.966   4.295 -0.0800  1.6883 -1.4845
   75MOL0     H10291   9.548   1.708   4.130 -2.1061  1.3765 -0.4221
   75MOL0     H10292   9.672   1.769   4.239  1.2744  0.6709 -1.5480
   75MOL0     H10293   9.709   1.795   3.985  1.2699 -0.2156  0.4088
   75MOL0     H10294   9.578   1.919   3.989  2.4498 -1.6298 -1.4523
   75MOL0     H10295   9.831   1.927   4.150  0.3271 -1.7519 -0.6045
   75MOL0     H10296   9.707   2.060   4.128  0.1361 -2.2761  3.5409
   75MOL0     H10297   9.900   2.102   3.999 -0.6529  0.4954  0.7421
   75MOL0     H10298   9.920   1.949   3.931  1.6420  1.0957  1.0483
   75MOL0     H10299   9.860   1.928   3.703 -0.6248 -0.5524  1.0899
   75MOL0     H10300   9.774   2.064   3.450 -0.3647  2.8415  0.4013
   75MOL0     H10301   9.598   2.089   3.442 -0.5983 -1.5717 -0.3820
   75MOL0     H10302   9.734   1.829   3.509 -1.3988 -0.3919  1.6141
   75MOL0     H10303   9.561   1.866   3.518 -0.4323  0.4958 -0.1606
   75MOL0     H10304   9.558   1.927   3.285 -0.1660  0.5093  2.4564
   75MOL0     H10305   9.734   1.874   3.276 -0.7168  0.6795 -1.1755
   75MOL0     H10306   9.571   1.696   3.178  0.2861 -0.0714 -0.0944
   75MOL0     H10307   9.652   1.631   3.322 -0.8607 -1.1398  0.5363
   75MOL0     H10308   9.558   1.479   3.219 -0.1824 -1.7915 -1.1200
   75MOL0     H10309   9.598   1.282   3.133 -0.5734  1.0726 -2.2308
   75MOL0     H10310   9.456   1.220   3.059  0.6461 -3.1884  1.0369
   75MOL0     H10311   9.509   1.145   3.214 -3.6563 -1.7149 -0.5486
   75MOL0     H10312   8.896   1.123   3.138  0.1824  1.5016  0.5499
   75MOL0     H10313   8.721   0.963   3.172 -1.7992  0.6936  2.1282
   75MOL0     H10314   8.760   0.635   3.470 -0.0497 -2.1089 -0.8453
   75MOL0     H10315   8.633   0.771   3.447  1.6334  1.6729  0.0658
   75MOL0     H10316   8.523   0.644   3.269  2.4929  1.4964  0.5828
   75MOL0     H10317   8.604   0.492   3.315 -3.1502 -1.3989 -0.4494
   75MOL0     H10318   8.436   0.666   3.503 -2.3921  0.5847 -1.6486
   75MOL0     H10319   8.533   0.518   3.554 -1.9390 -3.4609 -0.5985
   75MOL0     H10320   8.355   0.403   3.395  0.8364  0.7143 -1.9812
   75MOL0     H10321   8.296   0.554   3.360 -0.2822 -0.5713  0.3630
   75MOL0     H10322   8.302   0.444   3.636  0.1651 -1.0681 -0.9119
   75MOL0     H10323   8.230   0.587   3.607  2.2847 -0.2121  2.1636
   75MOL0     H10324   8.079   0.487   3.429  1.4653  0.9426  0.4321
   75MOL0     H10325   8.039   0.488   3.599  0.2178  2.5051  0.0354
   75MOL0     H10326   8.076   0.263   3.625  0.3094 -1.7724 -0.3751
   75MOL0     H10327   8.174   0.241   3.483 -0.0270  0.6312 -0.8173
   75MOL0     H10328   7.971   0.146   3.407  0.8045 -1.3352  5.1379
   75MOL0     H10329   7.952   0.311   3.352 -2.9312  1.0155  1.2751
   75MOL0     H10330   8.945   0.776   3.484  2.5756  0.1793  0.2264
   75MOL0     H10331   9.112   0.965   3.466  1.6583 -1.9359 -0.0471
   75MOL0     H10332   9.104   1.416   3.369 -0.5746  3.4472 -0.9105
   75MOL0     H10333   9.205   1.621   3.393  0.1051  0.5703 -1.8204
   75MOL0     H10334   8.940   1.922   4.295  0.0875  0.4275 -0.3007
   75MOL0     H10335   8.712   1.797   4.334 -1.6434 -2.4686  0.1918
   75MOL0     H10336   8.457   1.425   4.322  3.7086 -0.6961  0.8490
   75MOL0     H10337   8.224   1.337   4.389  0.0042 -0.5022 -0.3539
   75MOL0     H10338   8.141   1.170   4.790  4.7277  1.3707  0.5209
   75MOL0     H10339   8.158   1.345   4.790  1.7871 -1.0203 -0.0349
   75MOL0     H10340   7.905   1.235   4.824 -3.2849  0.8750 -1.2239
   75MOL0     H10341   7.918   1.221   4.645 -0.8585  0.4291  0.1179
   75MOL0     H10342   7.841   1.442   4.800  1.6130 -1.1205  2.3766
   75MOL0     H10343   7.993   1.479   4.705  0.9426 -2.7309 -0.6053
   75MOL0     H10344   7.727   1.392   4.593 -0.3585  0.0637  2.2200
   75MOL0     H10345   7.875   1.440   4.496  0.5878  1.5852  0.0615
   75MOL0     H10346   7.704   1.794   4.559 -0.6781 -1.5242  1.4543
   75MOL0     H10347   8.372   1.259   4.775  1.2560  0.5866  1.0226
   75MOL0     H10348   8.584   1.293   4.827  0.1545  1.1864  0.1771
   75MOL0     H10349   8.708   1.269   4.701 -0.2075 -0.6152 -0.5724
   75MOL0     H10350   8.670   1.427   4.747 -1.7226  0.9002 -0.9025
   76MOL0     O10351   2.017   8.961   0.206  0.2300  0.7466  0.2919
   76MOL0     C10352   2.118   9.027   0.197  0.5182  0.6590  0.3754
   76MOL0     O10353   2.240   8.976   0.203  0.3415  0.1063 -0.3573
   76MOL0     C10354   2.255   8.850   0.266  0.5847 -0.9777  0.8343
   76MOL0     C10355   2.312   8.742   0.194  0.0314 -1.0579  0.1316
   76MOL0     C10356   2.326   8.619   0.258 -0.5934 -0.0534 -0.2857
   76MOL0     C10357   2.289   8.604   0.388 -0.2994 -0.3434  0.3154
   76MOL0     O10358   2.319   8.486   0.444  0.0889  0.1938 -0.9468
   76MOL0     C10359   2.204   8.419   0.496  0.4038 -0.0417 -0.3974
   76MOL0     C10360   2.242   8.303   0.589 -0.1443 -1.0006  0.1299
   76MOL0     C10361   2.306   8.362   0.713 -0.1502  0.8373  0.2292
   76MOL0     C10362   2.395   8.260   0.790 -0.0934  0.2778 -0.0742
   76MOL0     C10363   2.444   8.332   0.914  0.5575  0.2749 -0.8887
   76MOL0     C10364   2.557   8.253   0.975  0.3000 -0.5413  0.0060
   76MOL0     C10365   2.564   8.283   1.129 -0.5215 -0.4930 -0.0127
   76MOL0     C10366   2.643   8.412   1.166  0.0177  0.3102  0.4852
   76MOL0     N10367   2.627   8.428   1.307 -0.5376 -0.6285  0.6248
   76MOL0     C10368   2.710   8.363   1.392 -0.4835 -0.0471 -0.7912
   76MOL0     C10369   2.666   8.398   1.517  0.4909  0.1126  0.1879
   76MOL0     C10370   2.739   8.383   1.646 -0.0877  0.6619 -0.5088
   76MOL0     C10371   2.628   8.357   1.752 -0.7336 -0.2388 -0.4747
   76MOL0     C10372   2.544   8.233   1.713  0.5799  0.1724  0.8146
   76MOL0     C10373   2.420   8.229   1.796  0.4679  0.2412  0.7921
   76MOL0     O10374   2.470   8.247   1.925  0.6273 -0.5442 -0.0651
   76MOL0     C10375   2.407   8.191   2.034  0.2184  0.0178  1.0207
   76MOL0     C10376   2.496   8.152   2.135  0.3292  0.6138  0.5785
   76MOL0     C10377   2.446   8.090   2.254  0.3355 -0.0133 -0.2675
   76MOL0     C10378   2.549   8.035   2.352 -0.2033 -0.6409  0.1216
   76MOL0     C10379   2.306   8.066   2.267 -0.3550  0.8506 -0.0568
   76MOL0     C10380   2.239   7.989   2.383 -0.3530  0.1011 -0.1612
   76MOL0     O10381   2.103   7.958   2.370  0.2412 -0.8811 -0.0779
   76MOL0     C10382   2.043   7.901   2.479  0.7059  0.6397  0.3669
   76MOL0     C10383   2.090   7.786   2.547  0.3519 -0.0353  0.0753
   76MOL0     C10384   2.014   7.721   2.646  0.0913  0.1349 -0.1870
   76MOL0     C10385   1.895   7.780   2.686  0.0122  0.3096  0.8104
   76MOL0     O10386   1.817   7.700   2.768  0.3158 -0.5790 -0.5969
   76MOL0     C10387   1.799   7.752   2.898 -0.6940 -0.5312  0.3371
   76MOL0     C10388   1.699   7.667   2.972  0.3487  0.4496 -0.0333
   76MOL0     C10389   1.557   7.688   2.906  0.9972  0.1316 -0.9282
   76MOL0     C10390   1.452   7.647   3.014 -0.2136  0.0923  0.3753
   76MOL0     C10391   1.306   7.664   2.950 -0.4211  0.0501 -0.2518
   76MOL0     C10392   1.273   7.571   2.829  0.2356  0.7442  0.0827
   76MOL0     C10393   1.161   7.471   2.849  0.4585  0.3999  0.0326
   76MOL0     C10394   1.174   7.347   2.758  0.0440 -0.1782  0.3755
   76MOL0    Cl10395   1.173   7.404   2.577  0.2663  0.0149  0.2506
   76MOL0     C10396   1.846   7.889   2.620 -0.1865 -1.6352  0.5135
   76MOL0     C10397   1.924   7.951   2.520  1.0773  0.3288 -0.3974
   76MOL0     O10398   2.309   7.971   2.485  0.5638  0.2267  0.6285
   76MOL0     C10399   2.229   8.118   2.166 -0.5183  0.7003 -0.0348
   76MOL0     C10400   2.271   8.180   2.058 -0.6801  0.0557 -0.1560
   76MOL0     N10401   2.546   8.471   1.496  0.5526 -0.0652 -0.4135
   76MOL0     N10402   2.515   8.482   1.369  0.4863  0.2250 -0.7577
   76MOL0     C10403   2.248   8.707   0.467  0.3701 -0.7745  0.1974
   76MOL0     C10404   2.235   8.837   0.400  0.6832  0.5887 -0.1274
   76MOL0     C10405   2.114   9.175   0.155  0.2034  0.5561 -0.0291
   76MOL0     C10406   2.234   9.238   0.124 -0.7231 -0.7443 -0.4018
   76MOL0     C10407   2.236   9.376   0.083  1.0356 -0.0709  0.7275
   76MOL0     C10408   2.117   9.451   0.079 -0.2635  0.8458  0.4029
   76MOL0     O10409   2.122   9.585   0.052  0.3154 -0.4876  0.5710
   76MOL0     C10410   2.019   9.671   0.108 -0.6181  0.2991  0.4420
   76MOL0     C10411   2.055   9.746   0.238  0.0238 -0.3840  0.0724
   76MOL0     C10412   1.926   9.827   0.282 -0.0958 -0.0546 -0.6531
   76MOL0     C10413   1.966   9.923   0.400  0.0484  0.5981  0.5361
   76MOL0     C10414   2.019  10.057   0.364  0.3684 -0.9886 -0.4823
   76MOL0     C10415   2.053  10.176   0.362  0.1262  0.4574  0.6050
   76MOL0     C10416   1.998   9.378   0.091 -1.0001 -0.8868 -0.1258
   76MOL0     C10417   1.993   9.244   0.126  0.2118 -0.6132  0.0470
   76MOL0     C10418   1.851   9.176   0.126 -0.2308 -0.2226 -0.4492
   76MOL0     H10419   2.350   8.747   0.092 -0.2466  0.8512  0.0857
   76MOL0     H10420   2.373   8.541   0.198  0.1131 -1.3690  1.8711
   76MOL0     H10421   2.137   8.374   0.422 -1.9240 -0.0192  1.5724
   76MOL0     H10422   2.138   8.480   0.558  1.2319  0.6988 -0.2219
   76MOL0     H10423   2.160   8.240   0.625  2.5833 -3.3258  2.8523
   76MOL0     H10424   2.316   8.239   0.539 -1.4673 -2.3849 -0.1562
   76MOL0     H10425   2.376   8.440   0.680  0.2754 -0.6298 -2.6387
   76MOL0     H10426   2.237   8.398   0.790 -1.2110 -1.5871  0.4775
   76MOL0     H10427   2.329   8.177   0.815 -0.9307  0.8924 -0.1779
   76MOL0     H10428   2.484   8.244   0.728  1.7038  4.9090  0.8988
   76MOL0     H10429   2.367   8.355   0.988  1.3923 -1.7666  0.7152
   76MOL0     H10430   2.470   8.436   0.896 -1.3788  1.4222  2.1087
   76MOL0     H10431   2.542   8.146   0.958 -1.4564 -0.3853  0.3809
   76MOL0     H10432   2.648   8.287   0.925  0.0425  3.7898  2.0344
   76MOL0     H10433   2.618   8.198   1.170  0.0939  0.7359  1.8798
   76MOL0     H10434   2.467   8.289   1.179 -0.8651 -0.5030 -0.6729
   76MOL0     H10435   2.747   8.389   1.141 -0.4554 -0.9238 -0.4368
   76MOL0     H10436   2.604   8.491   1.100  2.3657  0.9589 -0.2069
   76MOL0     H10437   2.798   8.308   1.362  0.0744  1.0190 -1.1515
   76MOL0     H10438   2.809   8.466   1.663  0.4131 -0.3384  3.1754
   76MOL0     H10439   2.809   8.299   1.649 -1.5686 -0.6135 -0.4453
   76MOL0     H10440   2.689   8.328   1.838  0.9836 -1.9698 -2.1850
   76MOL0     H10441   2.569   8.447   1.772  0.2280  0.2736  0.1424
   76MOL0     H10442   2.516   8.216   1.609 -1.3829 -0.4384  1.3936
   76MOL0     H10443   2.603   8.146   1.744 -1.6681 -1.7242  0.0803
   76MOL0     H10444   2.350   8.306   1.762 -1.2109 -2.1347 -1.5404
   76MOL0     H10445   2.379   8.128   1.789  2.6226 -0.6032 -0.7256
   76MOL0     H10446   2.603   8.165   2.129  0.6732 -2.2073 -1.8598
   76MOL0     H10447   2.650   8.060   2.319 -1.1665  3.4011 -0.2459
   76MOL0     H10448   2.526   7.928   2.350 -0.0423 -0.6715 -1.6120
   76MOL0     H10449   2.533   8.072   2.454  1.9722 -2.8678  1.3706
   76MOL0     H10450   2.191   7.750   2.529  0.7277  0.3709  1.2643
   76MOL0     H10451   2.038   7.626   2.693 -0.1048  1.3698  2.6217
   76MOL0     H10452   1.889   7.730   2.955  1.2202 -1.6403 -2.8591
   76MOL0     H10453   1.754   7.852   2.894 -1.0143 -0.6411  1.0405
   76MOL0     H10454   1.717   7.560   2.977 -2.9755 -0.1962  0.9340
   76MOL0     H10455   1.696   7.699   3.076  0.1752  1.7300 -0.4071
   76MOL0     H10456   1.542   7.639   2.810  0.7560 -0.1450 -0.7540
   76MOL0     H10457   1.541   7.794   2.883 -0.8071 -0.0043 -0.4766
   76MOL0     H10458   1.475   7.712   3.099  2.6665  0.5922 -0.6534
   76MOL0     H10459   1.462   7.540   3.037 -2.8442 -0.4607 -0.7412
   76MOL0     H10460   1.225   7.658   3.023  1.8281 -1.9175  2.3020
   76MOL0     H10461   1.319   7.763   2.906  2.1068 -0.6405 -1.2633
   76MOL0     H10462   1.359   7.506   2.811  0.7089  0.7205  2.1578
   76MOL0     H10463   1.262   7.637   2.743  0.8677  2.2961  1.1359
   76MOL0     H10464   1.063   7.517   2.829 -0.7182 -2.0185 -0.0708
   76MOL0     H10465   1.163   7.454   2.957  0.8776  1.9677  0.3017
   76MOL0     H10466   1.085   7.283   2.753  0.3259 -0.7499  2.1332
   76MOL0     H10467   1.261   7.287   2.786 -0.1136 -1.2587 -1.2564
   76MOL0     H10468   1.744   7.913   2.648 -0.4128 -0.2149 -1.3054
   76MOL0     H10469   1.878   8.042   2.484 -0.2949  0.1467  0.7999
   76MOL0     H10470   2.121   8.113   2.179 -0.3650  0.6152  1.2559
   76MOL0     H10471   2.201   8.233   1.993  1.0005 -0.8082 -2.8583
   76MOL0     H10472   2.222   8.709   0.573  0.2788 -1.2873  0.1875
   76MOL0     H10473   2.193   8.914   0.463  0.4732  0.2276  0.1771
   76MOL0     H10474   2.322   9.174   0.130 -1.6339 -1.8956  1.5183
   76MOL0     H10475   2.328   9.427   0.055  1.8906 -0.7003  2.2027
   76MOL0     H10476   2.002   9.744   0.029 -0.8675 -0.2424 -0.0141
   76MOL0     H10477   1.923   9.620   0.113 -0.3217 -0.4197 -0.7478
   76MOL0     H10478   2.138   9.815   0.220  0.5290 -0.7443  0.9847
   76MOL0     H10479   2.089   9.672   0.311  2.2997  0.6936  0.1969
   76MOL0     H10480   1.892   9.895   0.203  1.4040  3.5817  1.5400
   76MOL0     H10481   1.856   9.749   0.314 -1.5273  0.6646 -1.9244
   76MOL0     H10482   2.053   9.879   0.450  0.0595  0.6265  0.5419
   76MOL0     H10483   1.888   9.941   0.475 -0.7045  1.2612 -0.3916
   76MOL0     H10484   2.079  10.280   0.362 -0.6737  0.6973 -1.2542
   76MOL0     H10485   1.906   9.428   0.061  0.7992  2.6614 -0.2694
   76MOL0     H10486   1.834   9.150   0.231 -1.0772  2.6243  0.2092
   76MOL0     H10487   1.778   9.253   0.101  0.2902  0.5190  0.2481
   76MOL0     H10488   1.828   9.091   0.061  0.1061 -1.1178  0.5763
   77MOL0     O10489   1.787   8.647   0.832  0.1062  0.5819  0.2482
   77MOL0     C10490   1.833   8.600   0.727  0.4652 -0.1596  1.8042
   77MOL0     O10491   1.866   8.670   0.615 -0.9662 -0.4648  0.5449
   77MOL0     C10492   1.898   8.803   0.614  0.7886 -0.4247 -0.2234
   77MOL0     C10493   1.964   8.854   0.723  0.8686  0.1613  0.6008
   77MOL0     C10494   2.012   8.985   0.712  0.1526  0.9871  0.1213
   77MOL0     C10495   1.981   9.066   0.603  0.1437 -0.6696 -0.6027
   77MOL0     O10496   2.033   9.191   0.608 -0.1636 -0.0960  0.4022
   77MOL0     C10497   2.018   9.283   0.497 -0.1186 -0.6816  0.5304
   77MOL0     C10498   2.078   9.418   0.530 -0.8619 -0.5794  0.2146
   77MOL0     C10499   2.203   9.398   0.610 -0.6075  0.8068  0.7524
   77MOL0     C10500   2.278   9.528   0.625  0.1252  0.6199  0.1131
   77MOL0     C10501   2.417   9.516   0.674  0.0765  0.6812 -0.3768
   77MOL0     C10502   2.463   9.631   0.758 -0.2679 -0.1689 -0.7496
   77MOL0     C10503   2.434   9.778   0.715 -0.0819  0.0593  0.1575
   77MOL0     C10504   2.482   9.795   0.566 -0.1151  0.8510 -1.2365
   77MOL0     N10505   2.587   9.896   0.552 -0.2834 -0.3376 -0.2209
   77MOL0     C10506   2.578  10.014   0.496  0.4498  0.2339  0.0946
   77MOL0     C10507   2.704  10.073   0.516  0.0986  0.5880  0.7514
   77MOL0     C10508   2.757  10.204   0.455  0.4334 -0.4752 -0.3378
   77MOL0     C10509   2.833  10.199   0.326 -0.0887  0.1765 -0.0124
   77MOL0     C10510   2.881  10.336   0.284 -0.1720 -0.7285  0.2709
   77MOL0     C10511   3.009  10.368   0.359  1.0959 -0.4908 -0.3837
   77MOL0     O10512   3.067  10.484   0.304  0.0646 -0.0975  0.0527
   77MOL0     C10513   3.190  10.516   0.348 -0.0336 -0.7392 -0.5236
   77MOL0     C10514   3.281  10.593   0.279  0.2549  0.0874 -0.4499
   77MOL0     C10515   3.411  10.630   0.329 -0.2163  0.3012  0.2406
   77MOL0     C10516   3.500  10.718   0.248  0.2097  0.4757 -0.2254
   77MOL0     C10517   3.452  10.592   0.458 -0.3070  0.2122 -0.8455
   77MOL0     C10518   3.591  10.612   0.516  0.4534 -0.4947  0.3493
   77MOL0     O10519   3.601  10.555   0.636 -0.1228 -0.1741  0.1851
   77MOL0     C10520   3.721  10.569   0.709 -0.5355  0.2132  0.0606
   77MOL0     C10521   3.726  10.655   0.818  0.0319  0.5187  0.0380
   77MOL0     C10522   3.848  10.683   0.881  0.1769  0.5211 -0.8969
   77MOL0     C10523   3.958  10.617   0.842 -0.5203 -0.1819  0.0197
   77MOL0     O10524   4.080  10.624   0.911 -0.2016 -0.0229 -0.2316
   77MOL0     C10525   4.073  10.628   1.056  0.1327 -0.0622  0.4633
   77MOL0     C10526   4.225  10.621   1.112  0.5841 -0.2934 -0.1469
   77MOL0     C10527   4.218  10.579   1.263 -0.3583 -0.5587  0.1201
   77MOL0     C10528   4.363  10.579   1.324 -0.0827 -0.2670  0.2995
   77MOL0     C10529   4.386  10.511   1.461 -0.8879  0.2946 -0.2883
   77MOL0     C10530   4.493  10.591   1.531 -0.1849 -0.6320 -0.5032
   77MOL0     C10531   4.538  10.516   1.658  0.0483 -0.1607  0.5387
   77MOL0     C10532   4.592  10.621   1.750  0.2823 -0.3361  0.2214
   77MOL0    Cl10533   4.740  10.698   1.688  0.1001 -0.2787 -0.2302
   77MOL0     C10534   3.958  10.526   0.741  0.4980 -0.1744  0.1162
   77MOL0     C10535   3.838  10.508   0.671  0.4668  0.5667  0.0503
   77MOL0     O10536   3.674  10.674   0.455 -0.3239  0.1530  0.5686
   77MOL0     C10537   3.353  10.525   0.542 -0.7356  0.7257  0.5403
   77MOL0     C10538   3.233  10.484   0.483  0.2849 -0.8321  0.1872
   77MOL0     N10539   2.783   9.988   0.586 -0.7242  0.0853  0.6420
   77MOL0     N10540   2.711   9.889   0.610  0.2856 -0.2957  0.0900
   77MOL0     C10541   1.915   9.005   0.491 -0.8761 -1.0670  0.0987
   77MOL0     C10542   1.884   8.868   0.494 -0.5470 -0.6795  0.1468
   77MOL0     C10543   1.811   8.459   0.701 -0.2050  0.1735  0.3277
   77MOL0     C10544   1.769   8.426   0.567  0.8093  0.6636  0.2396
   77MOL0     C10545   1.761   8.293   0.534 -0.1743 -0.0274 -1.3016
   77MOL0     C10546   1.750   8.198   0.629  0.7154  0.0806 -0.6666
   77MOL0     O10547   1.704   8.077   0.583  0.0667  0.5108 -0.2655
   77MOL0     C10548   1.720   7.959   0.675  0.3116 -0.4960  0.4104
   77MOL0     C10549   1.668   7.842   0.597  0.5999  0.1175 -0.0498
   77MOL0     C10550   1.645   7.722   0.686 -0.2316  0.4512 -0.8250
   77MOL0     C10551   1.584   7.600   0.615 -0.1899 -0.0282  0.3646
   77MOL0     C10552   1.694   7.507   0.584  0.4430 -0.9189 -0.0942
   77MOL0     C10553   1.796   7.448   0.559 -0.2188 -0.4501 -0.4549
   77MOL0     C10554   1.803   8.227   0.755  0.0669 -0.6616  0.1747
   77MOL0     C10555   1.830   8.359   0.795  0.2250 -0.0959  0.6037
   77MOL0     C10556   1.873   8.380   0.935  0.8221 -0.5466  0.9755
   77MOL0     H10557   1.982   8.801   0.816 -1.0078 -0.9063  0.4248
   77MOL0     H10558   2.068   9.022   0.798 -1.2941  2.5343  0.4412
   77MOL0     H10559   1.915   9.303   0.468  0.8629  1.1424 -2.1139
   77MOL0     H10560   2.067   9.240   0.409 -0.1778  0.2291  0.0400
   77MOL0     H10561   2.096   9.467   0.434 -0.4050 -2.6526 -0.8092
   77MOL0     H10562   2.009   9.478   0.590  0.4777  0.4375  0.7939
   77MOL0     H10563   2.171   9.365   0.710  3.5919 -0.3509  1.8988
   77MOL0     H10564   2.267   9.323   0.562  3.0932  4.1444 -0.0012
   77MOL0     H10565   2.286   9.562   0.521 -1.7547  0.0366 -0.2532
   77MOL0     H10566   2.206   9.593   0.675 -1.9438 -0.9981 -0.6266
   77MOL0     H10567   2.473   9.482   0.587  1.2210 -2.8820  1.5129
   77MOL0     H10568   2.437   9.431   0.741 -1.9899 -0.5952 -1.2909
   77MOL0     H10569   2.417   9.625   0.857 -4.2284 -1.3937 -2.4700
   77MOL0     H10570   2.572   9.631   0.771  0.3040  1.2113 -4.3440
   77MOL0     H10571   2.478   9.848   0.787 -1.5887 -1.2269  2.4902
   77MOL0     H10572   2.325   9.782   0.729 -0.5754 -0.4444 -2.9373
   77MOL0     H10573   2.519   9.700   0.528  3.1980  0.8478  1.5708
   77MOL0     H10574   2.398   9.832   0.506 -0.4998  3.2256  0.6119
   77MOL0     H10575   2.503  10.063   0.434 -1.0587 -1.0400  0.8592
   77MOL0     H10576   2.811  10.254   0.536 -0.5038  1.2595 -0.7511
   77MOL0     H10577   2.669  10.265   0.437 -1.1160 -2.4816  0.0248
   77MOL0     H10578   2.919  10.132   0.338 -2.1795 -2.5130  0.7236
   77MOL0     H10579   2.769  10.160   0.246  0.9369  1.2816 -1.4202
   77MOL0     H10580   2.902  10.327   0.177  2.1405 -1.8414  0.7563
   77MOL0     H10581   2.798  10.407   0.288  0.9139  0.5467  0.9392
   77MOL0     H10582   2.972  10.375   0.462 -0.5064  0.0341 -0.9710
   77MOL0     H10583   3.084  10.289   0.346  0.7287 -0.7300 -1.0660
   77MOL0     H10584   3.257  10.620   0.176 -0.0579  2.0410  0.0996
   77MOL0     H10585   3.590  10.666   0.212  0.4138 -0.2969  1.3376
   77MOL0     H10586   3.533  10.810   0.297  3.0509 -1.3163  1.4942
   77MOL0     H10587   3.443  10.755   0.162 -1.1531  0.3985  0.6135
   77MOL0     H10588   3.636  10.709   0.845  0.0180  1.1648 -1.2444
   77MOL0     H10589   3.851  10.763   0.953  1.8892  1.3973 -1.8821
   77MOL0     H10590   4.024  10.721   1.086 -1.0736  0.4271 -2.6518
   77MOL0     H10591   4.020  10.542   1.098  0.6335 -0.2665  0.6889
   77MOL0     H10592   4.283  10.560   1.043 -0.3222  0.2485 -1.4214
   77MOL0     H10593   4.272  10.719   1.108  1.5687 -0.7963 -1.3972
   77MOL0     H10594   4.180  10.478   1.279  1.0740 -1.1436 -0.0359
   77MOL0     H10595   4.164  10.651   1.325 -1.5443 -1.8801  0.6822
   77MOL0     H10596   4.388  10.685   1.334 -0.1777 -0.3931  2.1723
   77MOL0     H10597   4.425  10.546   1.240 -1.7845  0.8104 -1.4887
   77MOL0     H10598   4.291  10.508   1.515 -0.0192 -1.9572  1.2799
   77MOL0     H10599   4.426  10.411   1.442 -0.3486  0.5483 -0.5070
   77MOL0     H10600   4.445  10.687   1.553  0.3526 -0.6823  1.0220
   77MOL0     H10601   4.577  10.624   1.469 -0.8920 -0.1368 -1.2359
   77MOL0     H10602   4.613  10.441   1.632  2.7361  2.6531 -0.2850
   77MOL0     H10603   4.443  10.482   1.701 -0.8137 -0.1369 -1.2586
   77MOL0     H10604   4.627  10.578   1.845 -1.4878  1.6283  1.8636
   77MOL0     H10605   4.515  10.698   1.762  0.3588  0.4507 -3.2574
   77MOL0     H10606   4.038  10.472   0.692  2.3560  2.3392  0.1954
   77MOL0     H10607   3.839  10.442   0.585  1.5145  1.3139 -0.5215
   77MOL0     H10608   3.377  10.499   0.645 -2.0427  3.5755  1.6940
   77MOL0     H10609   3.175  10.411   0.539  2.9588 -3.3237 -0.0291
   77MOL0     H10610   1.904   9.064   0.400 -1.6144  0.5564  1.2014
   77MOL0     H10611   1.842   8.822   0.405 -1.9844 -0.2334  0.5831
   77MOL0     H10612   1.754   8.487   0.479 -1.8542 -0.7006 -0.3676
   77MOL0     H10613   1.727   8.279   0.432 -0.3073  0.1916 -1.2878
   77MOL0     H10614   1.827   7.949   0.694  0.2963 -0.5804  0.4509
   77MOL0     H10615   1.655   7.975   0.762 -3.8803  0.7482 -2.5947
   77MOL0     H10616   1.740   7.810   0.522  1.4350  2.1977 -0.2028
   77MOL0     H10617   1.571   7.872   0.556  0.0785  2.1010  2.3563
   77MOL0     H10618   1.744   7.693   0.722  0.1336 -0.2928 -2.3436
   77MOL0     H10619   1.593   7.739   0.781  2.6470 -2.2810  1.4936
   77MOL0     H10620   1.543   7.619   0.516 -0.3832 -0.4124  0.3704
   77MOL0     H10621   1.511   7.546   0.676  1.8879 -0.8436  2.2855
   77MOL0     H10622   1.875   7.378   0.540 -1.1954 -2.6236  2.6522
   77MOL0     H10623   1.805   8.151   0.832 -0.2947  0.6684  1.5396
   77MOL0     H10624   1.981   8.396   0.940  0.9301 -1.2737  1.0241
   77MOL0     H10625   1.833   8.460   0.998  1.9965  0.9706 -0.1162
   77MOL0     H10626   1.850   8.288   0.989 -0.6059 -0.8779 -0.1506
   78MOL0     O10627  10.062   7.448   4.335  0.4191  0.5754  0.7186
   78MOL0     C10628  10.137   7.478   4.247 -0.1985 -0.5221  0.1882
   78MOL0     O10629  10.130   7.594   4.179 -0.4754 -1.0531  0.2720
   78MOL0     C10630  10.012   7.667   4.184  0.0545  0.5754 -0.4315
   78MOL0     C10631   9.938   7.684   4.063  0.5889 -0.3604 -0.4379
   78MOL0     C10632   9.816   7.735   4.058  0.9230 -0.1096  0.2485
   78MOL0     C10633   9.753   7.776   4.178  0.2329 -0.1010  0.2060
   78MOL0     O10634   9.628   7.821   4.184 -0.2138  0.1960 -0.5431
   78MOL0     C10635   9.546   7.832   4.062 -0.1615 -0.6290  0.3402
   78MOL0     C10636   9.420   7.911   4.113  0.5657  0.5198  1.1221
   78MOL0     C10637   9.321   7.915   3.993 -0.0006 -0.0545  0.2873
   78MOL0     C10638   9.213   8.013   4.032 -1.0308 -0.5775  0.4207
   78MOL0     C10639   9.106   7.973   4.135  0.5734 -0.0992  1.1166
   78MOL0     C10640   8.991   8.076   4.145  0.1293  0.2483 -0.7307
   78MOL0     C10641   8.885   8.025   4.249  0.3791 -0.4051 -0.3685
   78MOL0     C10642   8.800   8.131   4.293  0.5676  0.0079 -0.9842
   78MOL0     N10643   8.699   8.171   4.197  1.1935 -0.0661 -0.2951
   78MOL0     C10644   8.710   8.282   4.117  0.7600  0.8476 -0.1515
   78MOL0     C10645   8.597   8.292   4.051 -0.2061 -0.3177 -0.6156
   78MOL0     C10646   8.547   8.377   3.945 -0.0440 -0.5209 -0.3669
   78MOL0     C10647   8.418   8.457   3.978 -0.2767  0.1363 -0.6055
   78MOL0     C10648   8.371   8.552   3.864  0.2824 -0.5531  0.5448
   78MOL0     C10649   8.227   8.589   3.890  0.5079 -0.2563  0.0441
   78MOL0     O10650   8.173   8.663   3.782 -1.0230 -0.4186  0.7124
   78MOL0     C10651   8.037   8.674   3.798 -0.0401  0.2105 -0.6838
   78MOL0     C10652   7.990   8.739   3.918 -0.0955 -0.9359  0.2645
   78MOL0     C10653   7.843   8.747   3.925 -0.9502  0.2040 -0.3537
   78MOL0     C10654   7.795   8.814   4.056 -0.5519  0.6952  0.2441
   78MOL0     C10655   7.760   8.698   3.821 -0.4954 -0.1564  0.9478
   78MOL0     C10656   7.607   8.696   3.821  0.4155  0.3784  1.1403
   78MOL0     O10657   7.539   8.747   3.924 -0.1535  0.3086 -0.6066
   78MOL0     C10658   7.405   8.755   3.915  0.6497 -0.2027  0.5718
   78MOL0     C10659   7.324   8.649   3.947  0.3719  0.1643  0.1041
   78MOL0     C10660   7.185   8.669   3.936 -0.5132  0.4509 -0.4795
   78MOL0     C10661   7.136   8.795   3.927 -0.4403 -0.3013  1.1160
   78MOL0     O10662   6.999   8.806   3.897  0.5664 -0.7266  0.3980
   78MOL0     C10663   6.915   8.845   4.001 -0.0400 -0.0920 -0.5690
   78MOL0     C10664   6.783   8.879   3.945  1.0542  0.5720 -0.3627
   78MOL0     C10665   6.692   8.965   4.045 -0.0995  0.2195  0.8566
   78MOL0     C10666   6.542   8.954   4.015 -0.0387  0.1159  0.1091
   78MOL0     C10667   6.453   9.057   4.080  0.4371 -0.1863 -0.9675
   78MOL0     C10668   6.435   9.188   3.996 -1.3793 -0.1069  0.2407
   78MOL0     C10669   6.358   9.301   4.076  0.3038 -0.8082 -0.2941
   78MOL0     C10670   6.220   9.260   4.116  0.1443 -0.1200 -0.3366
   78MOL0    Cl10671   6.101   9.235   3.980  0.1732  0.4004 -0.3816
   78MOL0     C10672   7.219   8.906   3.906  0.6122 -0.3656 -0.2981
   78MOL0     C10673   7.353   8.889   3.897 -0.1897  0.1896  1.0560
   78MOL0     O10674   7.557   8.653   3.716 -0.0268 -0.4386 -0.3536
   78MOL0     C10675   7.819   8.652   3.700 -0.2853  0.0024  0.1046
   78MOL0     C10676   7.955   8.645   3.698  0.2576  0.2052  0.1000
   78MOL0     N10677   8.514   8.192   4.110 -1.5006  0.0227  0.1387
   78MOL0     N10678   8.572   8.116   4.195 -0.3412  0.5508 -0.5437
   78MOL0     C10679   9.826   7.772   4.303 -0.6156 -0.9911 -0.0196
   78MOL0     C10680   9.951   7.707   4.306  0.0992 -0.4498 -0.2236
   78MOL0     C10681  10.262   7.411   4.224 -0.1539 -0.4141  0.2495
   78MOL0     C10682  10.336   7.450   4.108 -0.5041  0.9001 -0.5682
   78MOL0     C10683  10.458   7.382   4.089 -0.8166 -0.1384 -0.1201
   78MOL0     C10684  10.502   7.276   4.171 -0.2724  0.8320 -0.1031
   78MOL0     O10685  10.622   7.219   4.134 -0.3418 -0.3176 -0.8095
   78MOL0     C10686  10.643   7.082   4.189 -0.0333 -0.3987  1.0595
   78MOL0     C10687  10.747   7.017   4.095 -0.2191  1.0970 -0.4776
   78MOL0     C10688  10.810   6.894   4.163 -1.0271 -0.2532  0.1241
   78MOL0     C10689  10.929   6.839   4.087 -0.6816  0.4763  1.1958
   78MOL0     C10690  11.050   6.918   4.093  0.9922 -0.4032 -0.5314
   78MOL0     C10691  11.154   6.978   4.106 -0.0282  0.2680 -0.2410
   78MOL0     C10692  10.424   7.238   4.281 -0.3379  0.1047 -0.6824
   78MOL0     C10693  10.304   7.305   4.308 -0.2410 -0.5954  1.2921
   78MOL0     C10694  10.238   7.263   4.433 -0.2090  0.4883 -0.4654
   78MOL0     H10695   9.989   7.672   3.968  2.2445 -1.0212  0.4934
   78MOL0     H10696   9.762   7.749   3.965 -0.4046 -1.7255  0.7180
   78MOL0     H10697   9.522   7.736   4.016  1.2929  0.0558 -2.0179
   78MOL0     H10698   9.585   7.897   3.982 -0.9945  0.8733  1.0980
   78MOL0     H10699   9.365   7.862   4.194 -2.0918  1.0737 -0.2158
   78MOL0     H10700   9.457   8.009   4.144 -0.7693  1.3119  0.3420
   78MOL0     H10701   9.371   7.955   3.905 -1.1815 -0.0778 -0.4043
   78MOL0     H10702   9.287   7.815   3.964  0.0128  0.9732 -3.7507
   78MOL0     H10703   9.261   8.109   4.055 -0.6676 -0.5212 -0.5135
   78MOL0     H10704   9.161   8.017   3.936  0.2788 -0.7267 -0.3183
   78MOL0     H10705   9.149   7.965   4.236  1.1447 -3.1858  0.7255
   78MOL0     H10706   9.065   7.877   4.101 -1.1316  0.0688  2.5473
   78MOL0     H10707   9.036   8.166   4.190  1.0239 -1.0881  1.1914
   78MOL0     H10708   8.939   8.098   4.051  0.1608 -2.0497 -1.3375
   78MOL0     H10709   8.940   7.968   4.325  0.9290  0.7278  0.1137
   78MOL0     H10710   8.819   7.947   4.210 -0.7033 -0.5590  1.6540
   78MOL0     H10711   8.749   8.091   4.382  1.6719  1.2367  0.2521
   78MOL0     H10712   8.867   8.212   4.321  0.9532 -0.3654 -0.8114
   78MOL0     H10713   8.794   8.349   4.098 -1.1484  3.5137  0.2320
   78MOL0     H10714   8.528   8.311   3.859  1.8859  0.1418 -1.3661
   78MOL0     H10715   8.625   8.449   3.918 -2.7826  2.6321 -0.5437
   78MOL0     H10716   8.343   8.384   4.011 -0.8988  1.3861  0.8487
   78MOL0     H10717   8.428   8.522   4.065 -0.4875 -1.5421  0.7405
   78MOL0     H10718   8.434   8.641   3.875 -1.1525  0.2999  2.3343
   78MOL0     H10719   8.382   8.503   3.767  1.2362  1.1092 -0.2318
   78MOL0     H10720   8.166   8.499   3.902 -1.9370  1.0276 -1.9266
   78MOL0     H10721   8.218   8.645   3.983  0.3335  0.2890 -0.2939
   78MOL0     H10722   8.055   8.762   4.002  0.2954 -0.3321 -0.2001
   78MOL0     H10723   7.876   8.863   4.111 -1.1632 -0.8213  2.6766
   78MOL0     H10724   7.749   8.731   4.110 -1.4179  0.5646 -0.6681
   78MOL0     H10725   7.713   8.884   4.041  0.0378  1.2470 -0.5031
   78MOL0     H10726   7.360   8.548   3.963 -1.5236 -0.6495 -0.4564
   78MOL0     H10727   7.119   8.583   3.943  1.2292 -0.7795  2.4109
   78MOL0     H10728   6.896   8.760   4.067 -3.7712  0.1987 -1.0361
   78MOL0     H10729   6.960   8.928   4.056  0.6462 -0.9243  0.1516
   78MOL0     H10730   6.816   8.949   3.867  2.0046 -0.0081 -0.4874
   78MOL0     H10731   6.723   8.805   3.892 -2.7756  3.1491 -0.0366
   78MOL0     H10732   6.721   9.070   4.029  0.1581 -0.0283 -0.4278
   78MOL0     H10733   6.698   8.932   4.149  3.2018  1.7650  1.3001
   78MOL0     H10734   6.503   8.853   4.031 -2.9932  0.8436 -1.6406
   78MOL0     H10735   6.528   8.968   3.907  1.1276 -1.1925 -0.2432
   78MOL0     H10736   6.353   9.013   4.080  0.2944  0.0453  0.8092
   78MOL0     H10737   6.475   9.083   4.184 -0.2981  1.7902 -1.2574
   78MOL0     H10738   6.394   9.170   3.897 -1.1747  2.7997 -0.4830
   78MOL0     H10739   6.534   9.224   3.966 -1.6835  0.3839 -0.1913
   78MOL0     H10740   6.350   9.388   4.011 -3.4656 -2.5843 -2.5386
   78MOL0     H10741   6.405   9.335   4.169  0.5157 -2.0457  0.0731
   78MOL0     H10742   6.189   9.349   4.171  0.7576  0.4635 -0.9095
   78MOL0     H10743   6.238   9.186   4.195  0.1084  0.0882 -0.1329
   78MOL0     H10744   7.185   9.006   3.882 -0.8916 -1.0344 -1.1284
   78MOL0     H10745   7.436   8.954   3.870  0.2539  0.2128  2.3837
   78MOL0     H10746   7.773   8.594   3.621  1.4619 -0.4871 -0.6143
   78MOL0     H10747   7.991   8.592   3.610 -0.1615  0.7326 -0.4022
   78MOL0     H10748   9.785   7.797   4.400 -0.5085 -4.1091  0.9417
   78MOL0     H10749  10.011   7.697   4.397 -0.3074 -3.6241 -0.1977
   78MOL0     H10750  10.313   7.536   4.045  1.1938  0.6759 -1.5699
   78MOL0     H10751  10.520   7.429   4.013 -1.0284 -0.2737 -0.3772
   78MOL0     H10752  10.677   7.090   4.292 -0.5850  3.2393  1.0870
   78MOL0     H10753  10.561   7.010   4.201 -0.6138 -0.0390 -0.4016
   78MOL0     H10754  10.825   7.093   4.083  0.3878  0.7628  1.0518
   78MOL0     H10755  10.708   6.984   3.998  0.4669 -2.8480  0.3984
   78MOL0     H10756  10.843   6.915   4.266  2.3121 -0.4426 -0.7974
   78MOL0     H10757  10.737   6.813   4.168 -0.9265 -0.7859 -3.9979
   78MOL0     H10758  10.889   6.827   3.985 -1.6151  1.5390  1.4137
   78MOL0     H10759  10.945   6.736   4.122 -2.3007 -0.1209  0.3390
   78MOL0     H10760  11.251   7.021   4.092  1.2636 -2.8104 -1.6559
   78MOL0     H10761  10.443   7.144   4.331  0.3085 -1.6169 -3.8437
   78MOL0     H10762  10.237   7.335   4.515  0.1319 -0.4222  0.3568
   78MOL0     H10763  10.139   7.224   4.406 -1.6284 -0.8001  5.2499
   78MOL0     H10764  10.285   7.173   4.472 -1.3568  0.3587  0.6857
   79MOL0     O10765   4.496   1.560   3.894  0.1140  0.8244 -1.0139
   79MOL0     C10766   4.572   1.478   3.939 -0.4183 -0.8184 -0.4990
   79MOL0     O10767   4.610   1.467   4.069  0.1108  0.7775 -0.3701
   79MOL0     C10768   4.602   1.561   4.168  0.2256  0.8184  0.5089
   79MOL0     C10769   4.601   1.695   4.141  0.4042 -0.0659 -0.5413
   79MOL0     C10770   4.600   1.782   4.251 -0.2998 -0.1633  0.0603
   79MOL0     C10771   4.600   1.738   4.386 -0.4596  1.2866 -0.3453
   79MOL0     O10772   4.614   1.823   4.490 -0.1347 -0.3183 -0.6528
   79MOL0     C10773   4.738   1.904   4.500 -0.7605 -0.2091 -0.6081
   79MOL0     C10774   4.843   1.826   4.583  0.4549  0.5173 -0.7651
   79MOL0     C10775   4.767   1.772   4.711 -0.2984 -0.4166  0.0089
   79MOL0     C10776   4.858   1.742   4.840  0.8228  0.2600  0.3665
   79MOL0     C10777   4.845   1.859   4.940  0.2461  0.0285  0.4559
   79MOL0     C10778   4.932   1.845   5.067 -0.1172  0.3307  0.5479
   79MOL0     C10779   5.064   1.921   5.055  0.9744 -0.2953 -0.4029
   79MOL0     C10780   5.052   2.069   5.096 -1.0228 -0.9589  0.5396
   79MOL0     N10781   5.086   2.075   5.245  0.2324  0.0310 -0.0676
   79MOL0     C10782   5.019   2.012   5.349  0.2640  0.2320  0.0075
   79MOL0     C10783   5.015   2.098   5.448 -0.2523 -0.0744  0.1066
   79MOL0     C10784   4.945   2.086   5.577  0.2549 -0.4097 -0.2978
   79MOL0     C10785   4.830   2.173   5.591 -0.4252  0.5742  0.1559
   79MOL0     C10786   4.701   2.112   5.529 -0.8565 -0.3045  0.5319
   79MOL0     C10787   4.671   2.169   5.398 -0.6368 -0.6088  0.4971
   79MOL0     O10788   4.551   2.121   5.342 -0.0763  0.9818 -0.4766
   79MOL0     C10789   4.430   2.180   5.395 -0.0128  0.5322 -0.1683
   79MOL0     C10790   4.323   2.096   5.383  0.7340 -0.3778  0.1801
   79MOL0     C10791   4.196   2.136   5.437  0.9112  0.7551  1.3730
   79MOL0     C10792   4.096   2.030   5.407  0.1056 -0.1705  0.2424
   79MOL0     C10793   4.180   2.266   5.494  0.0710 -0.4342  1.0675
   79MOL0     C10794   4.058   2.315   5.562 -0.6591 -0.5997  0.6946
   79MOL0     O10795   4.072   2.422   5.634  0.3359 -0.9429  0.2569
   79MOL0     C10796   3.957   2.488   5.677  0.9605 -0.4414 -0.6178
   79MOL0     C10797   3.831   2.496   5.615 -0.6374 -0.0722  0.1756
   79MOL0     C10798   3.739   2.589   5.655  0.4037 -0.5353 -0.4154
   79MOL0     C10799   3.769   2.688   5.747 -0.5810 -0.2530 -1.4831
   79MOL0     O10800   3.679   2.792   5.776  0.0101  0.2904  0.9561
   79MOL0     C10801   3.730   2.906   5.846  0.8224  0.2879 -0.3403
   79MOL0     C10802   3.642   3.021   5.829 -0.2040  0.6884  0.8235
   79MOL0     C10803   3.686   3.137   5.896  0.0014 -0.0634  0.2330
   79MOL0     C10804   3.753   3.236   5.801  0.1183  1.1282 -0.6199
   79MOL0     C10805   3.796   3.363   5.873 -0.3745 -0.4359 -0.4091
   79MOL0     C10806   3.821   3.467   5.772  0.3389 -0.6581 -0.2884
   79MOL0     C10807   3.959   3.448   5.701 -0.0802  0.6738 -1.0705
   79MOL0     C10808   4.053   3.560   5.752 -0.6741 -0.3342 -0.0011
   79MOL0    Cl10809   4.176   3.552   5.623 -0.1367  0.1278  0.1189
   79MOL0     C10810   3.889   2.677   5.816 -0.1215 -0.3290  0.5432
   79MOL0     C10811   3.987   2.576   5.781 -0.3611 -0.5497 -0.0629
   79MOL0     O10812   3.960   2.245   5.568 -0.0877  0.4676 -0.2769
   79MOL0     C10813   4.291   2.348   5.491 -0.5828 -0.9659  0.0286
   79MOL0     C10814   4.415   2.308   5.442 -0.1752 -0.6809 -0.3437
   79MOL0     N10815   5.087   2.207   5.412 -0.6914  0.1697 -0.5152
   79MOL0     N10816   5.142   2.189   5.297  0.3119  0.7018  0.4920
   79MOL0     C10817   4.588   1.601   4.411  0.3344 -0.4390 -0.5114
   79MOL0     C10818   4.592   1.513   4.301 -0.9650  0.4114 -0.3105
   79MOL0     C10819   4.608   1.372   3.844 -0.4146 -0.1510  0.5244
   79MOL0     C10820   4.523   1.330   3.740  0.2705 -0.7417 -0.3328
   79MOL0     C10821   4.556   1.236   3.647  0.0134 -0.0111 -0.2070
   79MOL0     C10822   4.674   1.168   3.656 -1.3406  0.9590  0.7974
   79MOL0     O10823   4.720   1.067   3.575 -0.1688  0.6247 -0.0923
   79MOL0     C10824   4.624   0.989   3.503  0.5588 -0.7336  0.4333
   79MOL0     C10825   4.691   0.878   3.434  0.0074 -0.0655 -0.2441
   79MOL0     C10826   4.743   0.924   3.302  0.1673 -0.5829 -0.7443
   79MOL0     C10827   4.659   0.902   3.184  0.4445 -0.3282  0.5580
   79MOL0     C10828   4.701   0.775   3.122  0.2617 -0.7997 -0.6240
   79MOL0     C10829   4.728   0.673   3.060  0.6905  0.1436  0.4013
   79MOL0     C10830   4.762   1.202   3.757  1.1166  0.2004 -0.1741
   79MOL0     C10831   4.731   1.295   3.845 -0.1707 -0.9208 -0.2613
   79MOL0     C10832   4.842   1.320   3.951  0.3030 -0.2225  0.1945
   79MOL0     H10833   4.612   1.747   4.047  3.5928 -1.3658 -1.0334
   79MOL0     H10834   4.612   1.889   4.241  1.7475 -0.3001  0.5884
   79MOL0     H10835   4.704   1.999   4.542 -1.6837 -2.3638  4.1363
   79MOL0     H10836   4.776   1.917   4.398  1.1004  0.4797  0.1324
   79MOL0     H10837   4.869   1.738   4.523  0.4491  1.7125 -2.6129
   79MOL0     H10838   4.926   1.895   4.601  0.9480  0.0694 -1.2744
   79MOL0     H10839   4.693   1.850   4.733 -0.7947 -0.2467 -2.0561
   79MOL0     H10840   4.703   1.687   4.688  0.0712 -1.6604  3.0891
   79MOL0     H10841   4.826   1.649   4.888 -1.7338  1.1911  0.6122
   79MOL0     H10842   4.962   1.722   4.812  0.7312 -0.1757  0.3319
   79MOL0     H10843   4.743   1.860   4.978  0.3149 -3.3221  1.0088
   79MOL0     H10844   4.865   1.950   4.882  1.8990  0.9325  2.3283
   79MOL0     H10845   4.878   1.866   5.160  1.0007 -3.1310  2.1598
   79MOL0     H10846   4.958   1.741   5.088 -1.9945 -1.0257 -2.9392
   79MOL0     H10847   5.101   1.912   4.952  2.5207 -2.1368  0.2537
   79MOL0     H10848   5.152   1.885   5.109 -0.4194  1.2050  3.1693
   79MOL0     H10849   5.135   2.120   5.045 -1.1161  0.1852  1.4785
   79MOL0     H10850   4.956   2.113   5.069  0.3451  0.9320 -1.6091
   79MOL0     H10851   4.974   1.914   5.359  1.3521 -0.0748  3.4441
   79MOL0     H10852   5.017   2.112   5.656  1.8112 -1.1269 -1.4375
   79MOL0     H10853   4.923   1.981   5.601 -0.3101  0.3506  3.0986
   79MOL0     H10854   4.807   2.181   5.698  0.6129 -0.1894  0.4505
   79MOL0     H10855   4.850   2.270   5.544 -2.3339  0.2137 -1.5426
   79MOL0     H10856   4.698   2.003   5.528 -1.0841 -0.3453  2.0589
   79MOL0     H10857   4.624   2.142   5.600  1.1251  1.9933  1.8789
   79MOL0     H10858   4.672   2.278   5.398 -2.4376 -0.5518 -0.9093
   79MOL0     H10859   4.753   2.142   5.331  1.2112  2.3201  1.4278
   79MOL0     H10860   4.318   2.005   5.325 -1.7153  0.8628 -1.7764
   79MOL0     H10861   4.130   1.927   5.396 -1.2733 -0.5823 -0.3504
   79MOL0     H10862   4.042   2.045   5.313 -0.8734 -3.3855  0.1601
   79MOL0     H10863   4.027   2.031   5.492  0.2785 -2.8991  0.4920
   79MOL0     H10864   3.807   2.444   5.523 -1.0827  1.2896 -0.5002
   79MOL0     H10865   3.647   2.598   5.597  0.4235  2.0366 -0.2047
   79MOL0     H10866   3.741   2.886   5.953 -1.4360  2.2090  0.3427
   79MOL0     H10867   3.824   2.941   5.804  0.8504  1.1108  0.3747
   79MOL0     H10868   3.631   3.050   5.724  0.0638  2.5803  1.2755
   79MOL0     H10869   3.541   3.003   5.867  0.5196  1.6676  3.4170
   79MOL0     H10870   3.753   3.111   5.978  0.1921  0.2576  0.1809
   79MOL0     H10871   3.598   3.183   5.940 -0.6237  0.7629 -1.7709
   79MOL0     H10872   3.670   3.256   5.733 -1.6350  1.3177  1.4715
   79MOL0     H10873   3.833   3.184   5.748  3.3068 -0.0351  4.5604
   79MOL0     H10874   3.717   3.398   5.940 -0.4126  3.0285 -2.0383
   79MOL0     H10875   3.893   3.340   5.918 -0.8655 -3.3960 -0.7230
   79MOL0     H10876   3.806   3.566   5.816  3.2197 -0.4923  0.5479
   79MOL0     H10877   3.741   3.470   5.698  1.5666 -2.1560 -1.7433
   79MOL0     H10878   3.932   3.465   5.596  0.7664  0.4261 -1.3346
   79MOL0     H10879   4.005   3.349   5.711  1.3191  1.4010  0.1985
   79MOL0     H10880   4.103   3.540   5.847 -0.5192  4.1256  1.0875
   79MOL0     H10881   4.000   3.653   5.774 -1.3872 -0.4521 -1.1349
   79MOL0     H10882   3.911   2.741   5.901  1.0877 -1.8607  1.4676
   79MOL0     H10883   4.080   2.556   5.834 -0.2326 -1.1854 -0.5231
   79MOL0     H10884   4.291   2.443   5.542  3.7468  0.5633 -2.2845
   79MOL0     H10885   4.504   2.370   5.449 -0.1817 -0.4874 -1.7829
   79MOL0     H10886   4.577   1.566   4.513 -1.9318 -1.2398 -0.9781
   79MOL0     H10887   4.577   1.407   4.318  0.3482 -0.3185 -3.1582
   79MOL0     H10888   4.427   1.381   3.740  0.7126  0.1836  1.7637
   79MOL0     H10889   4.481   1.227   3.570  0.6710  1.2850 -1.0355
   79MOL0     H10890   4.553   0.965   3.582  1.6638 -1.4219  1.2351
   79MOL0     H10891   4.572   1.056   3.434 -0.4961  0.9690  2.7532
   79MOL0     H10892   4.627   0.790   3.431 -1.2097  0.8322 -1.7539
   79MOL0     H10893   4.777   0.855   3.498 -0.0689  1.0029  0.2719
   79MOL0     H10894   4.777   1.027   3.312 -1.3857 -0.2030  1.4224
   79MOL0     H10895   4.838   0.874   3.282  0.2926 -0.2503 -0.9945
   79MOL0     H10896   4.671   0.985   3.113  0.3961 -1.2154 -0.5118
   79MOL0     H10897   4.550   0.893   3.197  0.1776 -2.4911 -2.2250
   79MOL0     H10898   4.754   0.581   3.013  1.1516  0.8330 -0.7380
   79MOL0     H10899   4.853   1.143   3.765 -0.1235 -2.0778 -1.5841
   79MOL0     H10900   4.799   1.314   4.052  0.9537 -0.2180  0.4731
   79MOL0     H10901   4.931   1.261   3.930 -0.0904  0.3067 -3.7169
   79MOL0     H10902   4.870   1.425   3.934 -1.3127  0.1622 -0.3044
   80MOL0     O10903   5.029  11.403   6.887  0.6253  1.0124 -0.2695
   80MOL0     C10904   4.987  11.517   6.921  0.0247 -0.2241 -0.0022
   80MOL0     O10905   4.940  11.552   7.041  0.1847  0.0221  0.0338
   80MOL0     C10906   4.900  11.455   7.127 -0.2523 -0.3320  0.0036
   80MOL0     C10907   4.988  11.395   7.228  0.4761  0.0015  0.2734
   80MOL0     C10908   4.938  11.280   7.298 -0.0279 -0.1054  0.0370
   80MOL0     C10909   4.804  11.236   7.288 -0.1750 -0.0097  0.5487
   80MOL0     O10910   4.741  11.131   7.353 -0.2182  0.3079 -0.0931
   80MOL0     C10911   4.796  11.064   7.467  0.4964  0.7180  0.5076
   80MOL0     C10912   4.692  10.958   7.508 -0.7120 -0.7638  0.8665
   80MOL0     C10913   4.701  10.901   7.644 -0.5482  0.9899  0.4796
   80MOL0     C10914   4.846  10.887   7.704 -0.9409  0.3310 -0.8520
   80MOL0     C10915   4.833  10.853   7.861 -0.5098  0.0825  0.6418
   80MOL0     C10916   4.971  10.833   7.933  0.2038 -0.3453  0.1411
   80MOL0     C10917   4.951  10.809   8.083 -0.8415 -0.0559 -0.1203
   80MOL0     C10918   4.835  10.890   8.148 -0.4934  0.2225  0.5629
   80MOL0     N10919   4.828  10.875   8.294  0.6305  0.2632 -0.5664
   80MOL0     C10920   4.812  10.754   8.357 -0.4861  1.3410 -0.1021
   80MOL0     C10921   4.793  10.789   8.480 -0.1755  0.6451 -0.3806
   80MOL0     C10922   4.754  10.695   8.594 -0.1093  0.2865  0.7187
   80MOL0     C10923   4.866  10.664   8.686  0.7120  0.6459 -0.3823
   80MOL0     C10924   4.987  10.593   8.611  1.1313  0.0850  0.4136
   80MOL0     C10925   5.113  10.603   8.698 -0.0812 -0.3747 -0.1434
   80MOL0     O10926   5.095  10.517   8.805 -0.0754 -0.5267 -0.5042
   80MOL0     C10927   5.206  10.480   8.874  0.6542 -0.6209 -0.1522
   80MOL0     C10928   5.220  10.347   8.927  0.1335  0.0594  0.2947
   80MOL0     C10929   5.328  10.309   9.004 -1.1709  0.0352 -0.8113
   80MOL0     C10930   5.320  10.170   9.067 -0.5873  0.8099  0.7575
   80MOL0     C10931   5.433  10.403   9.024 -0.0081  0.6185 -0.2803
   80MOL0     C10932   5.561  10.357   9.081  0.2548  1.3667 -0.7415
   80MOL0     O10933   5.614  10.239   9.031  0.1664 -0.0407 -0.0445
   80MOL0     C10934   5.738  10.204   9.067 -0.1436  0.6615 -0.3925
   80MOL0     C10935   5.784  10.198   9.194  0.5443 -0.3754 -0.6378
   80MOL0     C10936   5.915  10.157   9.223  0.2520  0.0415 -0.7376
   80MOL0     C10937   6.007  10.124   9.123  0.3991 -1.0516  0.1978
   80MOL0     O10938   6.133  10.084   9.158 -0.0568  0.0809  0.3432
   80MOL0     C10939   6.243  10.126   9.067  0.6528 -0.0860 -0.0495
   80MOL0     C10940   6.380  10.108   9.129  0.1366 -0.0052  0.7894
   80MOL0     C10941   6.392  10.184   9.262  0.7046  0.3039  1.0338
   80MOL0     C10942   6.491  10.118   9.351 -0.2943 -0.0159 -0.5902
   80MOL0     C10943   6.538  10.187   9.485  0.7729  0.5648  0.1003
   80MOL0     C10944   6.606  10.317   9.463  0.5856 -0.0425  1.0443
   80MOL0     C10945   6.690  10.353   9.584  0.4817 -0.4737 -0.2845
   80MOL0     C10946   6.744  10.493   9.587  0.2494 -0.2632 -0.2047
   80MOL0    Cl10947   6.870  10.524   9.468 -0.0792 -0.0421  0.0665
   80MOL0     C10948   5.960  10.130   8.993 -0.4341  0.3932 -0.4968
   80MOL0     C10949   5.827  10.164   8.969  0.2597 -0.9957 -0.5769
   80MOL0     O10950   5.611  10.425   9.169  0.0039 -0.7397 -0.0769
   80MOL0     C10951   5.416  10.537   8.975  0.0509  0.0266 -0.4196
   80MOL0     C10952   5.304  10.572   8.907  0.2722 -0.3683 -0.0357
   80MOL0     N10953   4.796  10.924   8.503 -0.2754  0.4481 -0.0707
   80MOL0     N10954   4.822  10.980   8.383  0.4680  0.1031  0.3303
   80MOL0     C10955   4.720  11.303   7.203  0.3437  0.1559  0.1558
   80MOL0     C10956   4.770  11.410   7.123  0.1129  0.0147  0.4447
   80MOL0     C10957   5.010  11.614   6.812  0.3664  0.2028  0.3665
   80MOL0     C10958   5.083  11.730   6.839 -0.6257  0.8987 -0.0592
   80MOL0     C10959   5.101  11.832   6.748  0.1801  0.7061 -0.1134
   80MOL0     C10960   5.040  11.817   6.623  0.1957 -0.0210  0.0278
   80MOL0     O10961   5.060  11.901   6.522 -0.4484  0.2224  0.0307
   80MOL0     C10962   5.151  12.013   6.537 -0.5016 -0.0122 -1.1256
   80MOL0     C10963   5.161  12.090   6.395 -0.4968 -0.6489 -0.3688
   80MOL0     C10964   5.025  12.132   6.336 -0.0961  0.2870 -0.7038
   80MOL0     C10965   5.038  12.157   6.188  0.0243  0.3046 -0.1944
   80MOL0     C10966   4.915  12.216   6.137 -1.0629  0.3156  0.4482
   80MOL0     C10967   4.834  12.285   6.088  0.1025  0.2804 -0.2825
   80MOL0     C10968   4.954  11.708   6.605  0.4352  0.3929  0.2147
   80MOL0     C10969   4.935  11.603   6.697  0.0116  0.0007 -0.2846
   80MOL0     C10970   4.830  11.487   6.665 -0.1682  0.0486  0.5422
   80MOL0     H10971   5.094  11.420   7.226  0.6629 -0.5582 -3.1456
   80MOL0     H10972   5.010  11.226   7.358 -0.3994  1.0942  1.6461
   80MOL0     H10973   4.821  11.134   7.547  3.0730 -1.0839  1.4427
   80MOL0     H10974   4.887  11.006   7.446 -1.5045 -1.4499 -3.5096
   80MOL0     H10975   4.593  11.004   7.502  0.1018  1.4153  2.7503
   80MOL0     H10976   4.698  10.870   7.443  1.3627  1.0922 -1.6812
   80MOL0     H10977   4.645  10.974   7.703 -2.3134  0.6517 -0.6899
   80MOL0     H10978   4.634  10.814   7.651 -1.3404  1.6148  0.7377
   80MOL0     H10979   4.914  10.816   7.655  2.1664  2.2680  0.3438
   80MOL0     H10980   4.899  10.982   7.688 -0.5441  0.7010  2.1223
   80MOL0     H10981   4.767  10.767   7.872 -0.2381 -0.0316  1.3540
   80MOL0     H10982   4.784  10.941   7.903  1.9913  1.6952  0.3908
   80MOL0     H10983   5.019  10.746   7.888 -1.2872 -1.4434  0.5969
   80MOL0     H10984   5.032  10.922   7.915 -0.0912 -0.4887 -1.6940
   80MOL0     H10985   5.050  10.839   8.118 -0.5297  0.4131 -1.3348
   80MOL0     H10986   4.941  10.709   8.126  1.0847  0.0783  0.7433
   80MOL0     H10987   4.850  10.998   8.135  0.5925  0.0617  0.4570
   80MOL0     H10988   4.736  10.862   8.109 -0.4916  1.8035 -0.6886
   80MOL0     H10989   4.820  10.650   8.326  2.2224  1.6167 -0.5747
   80MOL0     H10990   4.721  10.604   8.542 -0.7639  0.3513  1.0075
   80MOL0     H10991   4.670  10.742   8.645 -0.9551 -0.7678  0.3468
   80MOL0     H10992   4.900  10.750   8.745  0.7572 -1.1647  2.4478
   80MOL0     H10993   4.833  10.591   8.761  2.5103  0.0490 -0.1200
   80MOL0     H10994   4.959  10.497   8.566  2.4330  0.2944 -0.9371
   80MOL0     H10995   5.021  10.656   8.528  2.2433 -0.2879  0.5807
   80MOL0     H10996   5.197  10.572   8.635 -1.3218 -0.3077 -1.9057
   80MOL0     H10997   5.137  10.703   8.735 -0.0092 -0.4961  0.1452
   80MOL0     H10998   5.130  10.291   8.903  1.2156 -1.1377 -1.1188
   80MOL0     H10999   5.223  10.120   9.063 -0.1860 -0.1348  2.1801
   80MOL0     H11000   5.347  10.179   9.173  1.0292  3.0494  0.2328
   80MOL0     H11001   5.389  10.098   9.021 -1.5730  1.3112 -1.6640
   80MOL0     H11002   5.727  10.233   9.280 -0.8932 -4.6006  0.3994
   80MOL0     H11003   5.939  10.153   9.329  0.6119 -0.5994 -0.8388
   80MOL0     H11004   6.239  10.085   8.966  0.9162  0.1426 -0.1539
   80MOL0     H11005   6.231  10.234   9.052 -0.5735 -0.0373  1.0377
   80MOL0     H11006   6.397  10.001   9.147  0.2860 -0.2233 -0.5411
   80MOL0     H11007   6.464  10.140   9.067 -1.0467 -0.2279 -1.0075
   80MOL0     H11008   6.293  10.184   9.310 -0.1973  0.1270 -0.7361
   80MOL0     H11009   6.429  10.284   9.240 -0.8678  0.7191  0.0351
   80MOL0     H11010   6.583  10.119   9.292 -1.7794  4.0463 -3.2843
   80MOL0     H11011   6.456  10.019   9.380  1.3297  0.4596  3.9277
   80MOL0     H11012   6.454  10.199   9.554  0.2126 -4.4843  0.6821
   80MOL0     H11013   6.600  10.108   9.530 -2.1311 -1.0347  1.5944
   80MOL0     H11014   6.533  10.394   9.438  1.2670  0.6400  1.1261
   80MOL0     H11015   6.676  10.302   9.380 -0.4741 -0.1000  0.1242
   80MOL0     H11016   6.767  10.278   9.600 -0.8077 -1.9388 -0.6413
   80MOL0     H11017   6.626  10.351   9.673 -0.1587  3.5766 -0.4655
   80MOL0     H11018   6.781  10.509   9.689 -2.0688 -2.2524  1.0598
   80MOL0     H11019   6.656  10.554   9.567 -0.3876 -0.8544  0.7317
   80MOL0     H11020   6.030  10.108   8.914 -0.5842  0.5072 -0.6630
   80MOL0     H11021   5.797  10.172   8.865  0.5627 -1.1328 -0.6762
   80MOL0     H11022   5.493  10.611   8.993  2.3848 -2.5793  1.1958
   80MOL0     H11023   5.297  10.677   8.880 -0.0539 -0.3755  0.0118
   80MOL0     H11024   4.623  11.262   7.180  0.4059  2.2756 -5.4665
   80MOL0     H11025   4.708  11.463   7.051 -0.2200  1.3047  1.6290
   80MOL0     H11026   5.107  11.747   6.943 -0.8651 -0.9350  0.3322
   80MOL0     H11027   5.162  11.919   6.774 -0.6257  0.5575  2.4833
   80MOL0     H11028   5.110  12.075   6.618 -0.0638 -0.4612 -0.5514
   80MOL0     H11029   5.254  11.987   6.561  0.0622  1.3231 -2.0169
   80MOL0     H11030   5.222  12.036   6.323 -2.1137  1.2345 -3.3219
   80MOL0     H11031   5.206  12.189   6.400 -0.1563 -0.7418 -1.4518
   80MOL0     H11032   4.954  12.050   6.349  2.6376 -2.2491 -0.4734
   80MOL0     H11033   4.984  12.219   6.386 -0.9932 -1.3531  1.5691
   80MOL0     H11034   5.063  12.061   6.141  2.5908  1.0913 -0.6129
   80MOL0     H11035   5.119  12.229   6.172  2.0755 -1.5117  1.2698
   80MOL0     H11036   4.764  12.353   6.043  0.4253 -2.2566 -5.3304
   80MOL0     H11037   4.894  11.697   6.515  0.0079  2.3556  0.2006
   80MOL0     H11038   4.772  11.458   6.752 -1.7847 -3.4031 -1.4794
   80MOL0     H11039   4.754  11.511   6.590  1.8516 -0.8243 -1.9205
   80MOL0     H11040   4.883  11.404   6.619 -2.6400 -0.4186 -1.7019
   81MOL0     O11041   5.354   9.914  10.322  0.5403  0.0633  0.4665
   81MOL0     C11042   5.366   9.906  10.198 -0.5718  0.2235 -0.2901
   81MOL0     O11043   5.411   9.795  10.128  0.5159  0.3494  0.5032
   81MOL0     C11044   5.458   9.686  10.195  0.2035 -1.1774 -1.2862
   81MOL0     C11045   5.368   9.589  10.248  0.3342 -0.2003  0.4758
   81MOL0     C11046   5.428   9.480  10.318  0.0036 -0.5807 -0.3100
   81MOL0     C11047   5.572   9.464  10.336 -0.7064  0.9423 -0.4095
   81MOL0     O11048   5.632   9.357  10.405 -0.4729 -0.4094  0.0637
   81MOL0     C11049   5.546   9.254  10.461  0.5685 -0.6578  0.0018
   81MOL0     C11050   5.616   9.123  10.485 -0.1568 -0.3488  0.5134
   81MOL0     C11051   5.727   9.135  10.594  0.1125 -0.3021  0.2265
   81MOL0     C11052   5.757   9.007  10.668  0.4216 -0.1360  0.1092
   81MOL0     C11053   5.864   8.929  10.592 -0.2370 -0.1700 -1.0373
   81MOL0     C11054   5.917   8.809  10.668 -0.7211  0.2188  0.5196
   81MOL0     C11055   5.800   8.710  10.693 -0.7621  0.5358  0.5087
   81MOL0     C11056   5.848   8.591  10.778 -1.3588  0.8737  0.3554
   81MOL0     N11057   5.739   8.504  10.826 -0.2821  0.2340  0.3821
   81MOL0     C11058   5.643   8.547  10.912 -0.5373  0.1464 -0.1991
   81MOL0     C11059   5.566   8.436  10.932  0.8436 -0.2205 -0.8676
   81MOL0     C11060   5.463   8.414  11.038  0.6180 -1.5456 -0.2594
   81MOL0     C11061   5.326   8.485  10.999  0.3355  0.4691  0.7554
   81MOL0     C11062   5.214   8.457  11.106 -0.6964 -0.0231 -0.4424
   81MOL0     C11063   5.245   8.479  11.250  0.3445 -0.3664  0.1521
   81MOL0     O11064   5.325   8.595  11.263 -0.0156  0.3199 -0.3389
   81MOL0     C11065   5.273   8.689  11.339 -1.0779 -0.2874  0.1657
   81MOL0     C11066   5.250   8.816  11.276 -0.2876  0.8221  0.4677
   81MOL0     C11067   5.213   8.932  11.347  0.1545  0.7016  0.2350
   81MOL0     C11068   5.164   9.055  11.267  0.0607  0.6064 -0.0939
   81MOL0     C11069   5.198   8.925  11.484  0.8779  0.3028 -0.7682
   81MOL0     C11070   5.150   9.037  11.575  0.4187 -0.3175  0.4836
   81MOL0     O11071   5.131   9.003  11.705  0.7586 -0.1688  0.5726
   81MOL0     C11072   5.101   9.101  11.796 -1.0160 -0.3235 -0.0984
   81MOL0     C11073   5.198   9.174  11.854 -0.4524  0.0695 -0.2939
   81MOL0     C11074   5.172   9.263  11.954  0.7803 -1.1468  1.2855
   81MOL0     C11075   5.041   9.283  11.998  1.0837  0.5391 -0.0012
   81MOL0     O11076   5.004   9.390  12.081  0.0203  0.7519  0.9616
   81MOL0     C11077   5.025   9.354  12.218  0.5384  1.1910 -0.2164
   81MOL0     C11078   4.982   9.470  12.323 -0.2435  0.5680  0.0554
   81MOL0     C11079   4.988   9.419  12.473  1.1000  0.1171  0.2790
   81MOL0     C11080   4.971   9.535  12.564  1.4990 -0.5120 -0.1899
   81MOL0     C11081   4.968   9.471  12.702  0.3814  0.2756  0.5517
   81MOL0     C11082   4.931   9.564  12.813  0.0839 -0.4597  0.0026
   81MOL0     C11083   5.003   9.699  12.806  1.0439  0.4106 -0.3544
   81MOL0     C11084   4.985   9.792  12.929 -0.5450 -0.6829 -0.1165
   81MOL0    Cl11085   4.839   9.890  12.900 -0.2745  0.1110  0.1338
   81MOL0     C11086   4.936   9.217  11.936 -0.6436  0.4575 -0.6409
   81MOL0     C11087   4.966   9.119  11.834  0.2151  0.0776 -0.1200
   81MOL0     O11088   5.128   9.150  11.530 -0.5245  0.9510 -0.1838
   81MOL0     C11089   5.230   8.801  11.549  1.4042 -0.0996  0.8006
   81MOL0     C11090   5.282   8.693  11.479 -0.3246 -0.0619  0.1075
   81MOL0     N11091   5.613   8.340  10.846 -0.0350  0.3267 -0.1688
   81MOL0     N11092   5.717   8.376  10.789  0.2172  0.4009  1.0071
   81MOL0     C11093   5.648   9.557  10.275 -0.5467 -0.6747  0.5103
   81MOL0     C11094   5.591   9.666  10.206 -0.2771  0.0033  0.0801
   81MOL0     C11095   5.358  10.027  10.118 -0.5755  0.0869 -0.1607
   81MOL0     C11096   5.431  10.142  10.154 -0.3373 -0.0380  0.1815
   81MOL0     C11097   5.426  10.260  10.076 -0.3004  0.8596 -1.1487
   81MOL0     C11098   5.360  10.254   9.951 -0.2466  0.1561 -0.0905
   81MOL0     O11099   5.368  10.351   9.857  0.1194 -0.1768  1.2768
   81MOL0     C11100   5.434  10.468   9.884  1.0585  0.6057  0.5021
   81MOL0     C11101   5.582  10.443   9.870 -0.4707 -0.3462  0.7526
   81MOL0     C11102   5.657  10.564   9.804 -1.2359 -0.0973 -0.2266
   81MOL0     C11103   5.654  10.555   9.646 -0.7004 -0.4206  0.2254
   81MOL0     C11104   5.702  10.674   9.575  0.2760 -0.2271 -1.7981
   81MOL0     C11105   5.749  10.770   9.508  0.1745  0.7266  0.7001
   81MOL0     C11106   5.287  10.144   9.916  0.6579  0.3562 -0.0113
   81MOL0     C11107   5.283  10.030   9.995 -0.0057  0.0742 -0.0974
   81MOL0     C11108   5.216   9.906   9.943 -0.1250  0.6640 -0.3335
   81MOL0     H11109   5.262   9.608  10.237  0.4929  0.3147 -0.2570
   81MOL0     H11110   5.367   9.411  10.375 -0.3840  1.2063  1.5899
   81MOL0     H11111   5.456   9.223  10.407 -0.0293 -3.9337  2.5245
   81MOL0     H11112   5.513   9.289  10.560  0.5885 -0.7343  0.0353
   81MOL0     H11113   5.545   9.053  10.529 -1.2877  0.2234 -0.3550
   81MOL0     H11114   5.651   9.075  10.393  0.5223  1.9503 -0.4941
   81MOL0     H11115   5.817   9.177  10.547  0.0429 -1.3360 -0.8565
   81MOL0     H11116   5.683   9.200  10.670 -2.8724  0.7195 -2.1921
   81MOL0     H11117   5.798   9.031  10.767 -0.4067  0.9597  0.2093
   81MOL0     H11118   5.662   8.956  10.688  0.7155 -1.5291 -1.7998
   81MOL0     H11119   5.950   8.989  10.564  0.2784 -1.1209 -1.5524
   81MOL0     H11120   5.818   8.895  10.499  0.8832 -1.6519 -1.0902
   81MOL0     H11121   6.000   8.762  10.615 -0.2621 -0.6152  1.9320
   81MOL0     H11122   5.951   8.845  10.765 -0.7467  4.8324 -0.9544
   81MOL0     H11123   5.773   8.685  10.590 -0.3742 -2.1880  1.0037
   81MOL0     H11124   5.711   8.760  10.732 -0.8945  1.3948 -0.8199
   81MOL0     H11125   5.923   8.540  10.718 -0.8648 -0.5188  2.0626
   81MOL0     H11126   5.903   8.630  10.865  3.0118  0.6235 -2.0103
   81MOL0     H11127   5.621   8.639  10.966 -2.7836 -1.7052  2.3357
   81MOL0     H11128   5.499   8.455  11.132 -0.2510  0.2766 -0.6866
   81MOL0     H11129   5.452   8.305  11.038  2.9868 -1.8821  1.6467
   81MOL0     H11130   5.331   8.593  10.987  0.2101  0.5137  1.1042
   81MOL0     H11131   5.285   8.446  10.905  0.5864  2.9869 -0.4749
   81MOL0     H11132   5.128   8.517  11.073  0.6699  0.5886 -3.1870
   81MOL0     H11133   5.188   8.351  11.094 -1.2552  0.3209 -2.6518
   81MOL0     H11134   5.154   8.484  11.310  0.5806  2.0538  0.4278
   81MOL0     H11135   5.310   8.406  11.298  3.7126  3.3328  1.8206
   81MOL0     H11136   5.259   8.819  11.168 -0.5501  0.8609  0.4474
   81MOL0     H11137   5.056   9.057  11.285 -0.2404  0.5885 -1.7433
   81MOL0     H11138   5.180   9.047  11.159  0.1498 -1.7990  0.0214
   81MOL0     H11139   5.208   9.147  11.306  1.2898 -0.9833  2.6346
   81MOL0     H11140   5.299   9.167  11.817 -0.8592  2.9348 -2.2906
   81MOL0     H11141   5.246   9.318  12.010 -0.4773  0.3870  1.4887
   81MOL0     H11142   4.963   9.268  12.244 -0.5221  2.0949  0.3606
   81MOL0     H11143   5.131   9.334  12.238  0.3093  1.5912  1.5661
   81MOL0     H11144   5.054   9.550  12.301 -0.0027  0.3149 -0.0857
   81MOL0     H11145   4.879   9.506  12.320 -0.4153  0.4615  2.8776
   81MOL0     H11146   5.081   9.364  12.493  0.5968 -0.9697 -0.2965
   81MOL0     H11147   4.910   9.343  12.483 -0.1507  1.2920 -0.3617
   81MOL0     H11148   4.879   9.591  12.549  2.5206  1.5138  0.5839
   81MOL0     H11149   5.059   9.600  12.557  1.1638  0.0147  0.3568
   81MOL0     H11150   4.891   9.395  12.691  0.8916 -0.2334  0.4166
   81MOL0     H11151   5.064   9.429  12.733 -0.4181 -2.5857 -0.5297
   81MOL0     H11152   4.953   9.527  12.914  0.1949  0.4838  0.3368
   81MOL0     H11153   4.822   9.577  12.811  0.3621  2.6737 -0.4941
   81MOL0     H11154   4.961   9.756  12.723  0.5633  3.1755  1.6350
   81MOL0     H11155   5.111   9.682  12.795  0.6441 -1.8011 -1.4648
   81MOL0     H11156   5.074   9.851  12.953 -0.9348  0.5760 -1.5673
   81MOL0     H11157   4.955   9.734  13.016  0.0536  1.3068  1.5059
   81MOL0     H11158   4.830   9.232  11.958 -1.3614 -1.1087 -2.7288
   81MOL0     H11159   4.893   9.054  11.788  0.4229 -0.0864 -0.2148
   81MOL0     H11160   5.223   8.779  11.655  3.0130  1.5182  1.2918
   81MOL0     H11161   5.314   8.595  11.513  3.2417 -0.3183 -3.2471
   81MOL0     H11162   5.757   9.560  10.274 -0.5157 -0.5323  1.8355
   81MOL0     H11163   5.658   9.742  10.166  0.7292 -1.7110 -1.6788
   81MOL0     H11164   5.474  10.132  10.254 -2.4511 -5.5939  0.9090
   81MOL0     H11165   5.461  10.356  10.110 -0.4074  0.6071 -0.3205
   81MOL0     H11166   5.403  10.539   9.806  3.1924  3.8086  2.3236
   81MOL0     H11167   5.402  10.513   9.979  0.2440  0.8905  0.1050
   81MOL0     H11168   5.600  10.350   9.816  3.0363  0.4968  0.2180
   81MOL0     H11169   5.627  10.438   9.970 -3.8792  1.6601  2.6058
   81MOL0     H11170   5.615  10.660   9.836  1.5122  1.2699 -0.4478
   81MOL0     H11171   5.759  10.570   9.843 -1.1349  1.2688 -0.6627
   81MOL0     H11172   5.550  10.547   9.615 -0.9652  0.9687  0.6583
   81MOL0     H11173   5.701  10.464   9.608 -1.1016  0.5876 -2.9628
   81MOL0     H11174   5.796  10.854   9.460  0.7252  1.7254  2.8698
   81MOL0     H11175   5.241  10.162   9.819 -0.2214  1.3854  0.5684
   81MOL0     H11176   5.286   9.848   9.882  1.4900  1.2350  0.9030
   81MOL0     H11177   5.188   9.843  10.028  1.7867  2.8157  2.0530
   81MOL0     H11178   5.126   9.931   9.886 -0.3010 -0.0630 -0.3861
   82MOL0     O11179   5.021   6.013   4.599 -0.0117  0.9908 -0.3603
   82MOL0     C11180   4.920   6.058   4.549 -0.2888  0.2286 -0.0286
   82MOL0     O11181   4.874   6.185   4.564  0.1981  0.2009 -0.1541
   82MOL0     C11182   4.918   6.237   4.685 -0.3347 -0.2111  0.0683
   82MOL0     C11183   5.009   6.335   4.687 -0.2609 -0.2984 -0.2941
   82MOL0     C11184   5.042   6.397   4.801 -0.3764 -0.3262 -0.3564
   82MOL0     C11185   4.990   6.368   4.928 -0.3425  0.0740 -0.3313
   82MOL0     O11186   5.027   6.445   5.033 -0.7457 -0.2983  0.8371
   82MOL0     C11187   4.959   6.436   5.155 -0.2835  0.7421 -0.3664
   82MOL0     C11188   5.001   6.536   5.255 -0.7283  0.3190  0.8465
   82MOL0     C11189   5.135   6.502   5.321  0.3553 -0.4899 -0.2351
   82MOL0     C11190   5.155   6.568   5.460  0.2366 -0.5017  0.0142
   82MOL0     C11191   5.293   6.546   5.511 -0.0037 -0.2411 -0.4141
   82MOL0     C11192   5.348   6.632   5.627 -0.0676 -0.1030 -0.5879
   82MOL0     C11193   5.387   6.776   5.578 -0.3216  0.5885  0.7283
   82MOL0     C11194   5.463   6.862   5.683  0.0501 -0.0091 -0.4202
   82MOL0     N11195   5.374   6.904   5.796  0.0225 -0.0681 -0.2583
   82MOL0     C11196   5.283   7.013   5.791 -0.2021  0.3428 -0.0686
   82MOL0     C11197   5.235   7.029   5.915 -0.3852  1.1656  0.0502
   82MOL0     C11198   5.131   7.125   5.962  0.0767 -0.4969  0.9715
   82MOL0     C11199   5.172   7.191   6.087  0.8890  0.0580  0.7110
   82MOL0     C11200   5.109   7.126   6.223 -0.2952  0.1623  0.0709
   82MOL0     C11201   5.130   7.209   6.346  0.5443 -1.0819  0.0181
   82MOL0     O11202   5.016   7.291   6.351 -0.4345  0.0848  0.0535
   82MOL0     C11203   5.018   7.421   6.393  0.4481 -0.4614 -0.5388
   82MOL0     C11204   4.915   7.468   6.474  0.1100 -0.6396  0.7385
   82MOL0     C11205   4.914   7.593   6.533 -0.3845  0.3918 -0.2233
   82MOL0     C11206   4.822   7.624   6.647  0.3103 -0.4636  0.1380
   82MOL0     C11207   5.021   7.678   6.493 -0.0040 -0.8505 -1.1669
   82MOL0     C11208   5.033   7.814   6.545  0.3115  1.3781 -1.0475
   82MOL0     O11209   4.994   7.902   6.451  0.0689  0.0482 -0.5111
   82MOL0     C11210   4.989   8.031   6.491 -0.1650  0.6314  0.2669
   82MOL0     C11211   5.107   8.103   6.528  0.3042  0.5195 -0.3984
   82MOL0     C11212   5.096   8.234   6.570  0.2849 -0.3522  0.4253
   82MOL0     C11213   4.974   8.294   6.594  0.0380 -1.3681  1.4447
   82MOL0     O11214   4.976   8.420   6.644  0.0062  0.7154  0.4421
   82MOL0     C11215   4.891   8.463   6.750  0.2267  0.4339  0.4811
   82MOL0     C11216   4.942   8.391   6.879  0.7518 -0.0496  0.6557
   82MOL0     C11217   4.921   8.476   7.008  0.5169 -0.0798  0.4494
   82MOL0     C11218   4.995   8.405   7.120 -0.0984  0.3129 -0.0940
   82MOL0     C11219   4.913   8.281   7.179 -0.2833  0.8163  0.6138
   82MOL0     C11220   4.967   8.234   7.323  0.4248  0.5159 -0.5480
   82MOL0     C11221   4.872   8.129   7.386  0.6451 -0.1946  0.9290
   82MOL0     C11222   4.721   8.170   7.408  0.1770  0.3248  0.4556
   82MOL0    Cl11223   4.711   8.311   7.526 -0.2298  0.1815  0.0200
   82MOL0     C11224   4.857   8.224   6.565 -0.0088  0.5939 -0.3448
   82MOL0     C11225   4.863   8.091   6.517  0.2823 -0.7329  0.1115
   82MOL0     O11226   5.065   7.837   6.659  0.3673 -0.0904  0.4165
   82MOL0     C11227   5.124   7.635   6.403 -0.0811 -0.5682 -0.5459
   82MOL0     C11228   5.119   7.511   6.348  0.0071 -0.3657  0.2780
   82MOL0     N11229   5.296   6.936   5.994  0.2346 -0.0293  0.5137
   82MOL0     N11230   5.374   6.864   5.925 -0.1885 -0.7992  0.0452
   82MOL0     C11231   4.894   6.266   4.930 -0.6033  0.5911 -0.4281
   82MOL0     C11232   4.865   6.205   4.807  1.2585  0.0456 -0.0535
   82MOL0     C11233   4.853   5.957   4.465 -0.4207 -0.0833 -0.4765
   82MOL0     C11234   4.918   5.840   4.423 -0.0194 -0.4348 -0.5864
   82MOL0     C11235   4.866   5.753   4.333 -0.6160 -0.8865  0.6711
   82MOL0     C11236   4.740   5.764   4.282  0.3477 -0.0048  0.2845
   82MOL0     O11237   4.685   5.658   4.216  0.1842 -0.4575 -0.2273
   82MOL0     C11238   4.570   5.662   4.139 -0.0544  1.1861  1.0082
   82MOL0     C11239   4.591   5.559   4.015  0.4770 -0.4948  1.1159
   82MOL0     C11240   4.696   5.594   3.915  0.0833  0.3367  0.7451
   82MOL0     C11241   4.847   5.543   3.949 -0.1307  0.3072  0.3097
   82MOL0     C11242   4.931   5.656   3.978 -0.2440  0.4679  0.0790
   82MOL0     C11243   5.022   5.733   3.992 -0.2576  0.2967  0.5546
   82MOL0     C11244   4.671   5.880   4.314 -0.5907 -0.7040  0.5616
   82MOL0     C11245   4.721   5.975   4.412 -0.2802 -0.1519 -0.3154
   82MOL0     C11246   4.627   6.078   4.464 -0.1301  0.7548  0.4021
   82MOL0     H11247   5.039   6.371   4.588 -2.1358 -0.4055 -0.9524
   82MOL0     H11248   5.122   6.468   4.781 -1.0626 -0.2193 -3.0351
   82MOL0     H11249   4.971   6.338   5.203  1.8044  1.1401  0.0072
   82MOL0     H11250   4.853   6.455   5.135  0.4754  3.4787 -2.3175
   82MOL0     H11251   5.024   6.627   5.199 -2.0660  0.8221  1.0817
   82MOL0     H11252   4.920   6.536   5.329 -0.2427 -0.7004  1.4024
   82MOL0     H11253   5.165   6.397   5.321  1.2991 -0.2521  1.4005
   82MOL0     H11254   5.211   6.548   5.258  0.9120 -1.3823 -0.2375
   82MOL0     H11255   5.141   6.676   5.452  0.1956 -0.6652 -3.8393
   82MOL0     H11256   5.097   6.538   5.548  2.0899 -1.5468  0.9295
   82MOL0     H11257   5.366   6.552   5.430 -0.9528 -0.4891 -1.3107
   82MOL0     H11258   5.292   6.444   5.550 -4.2390  0.8188  3.0562
   82MOL0     H11259   5.261   6.648   5.691  0.8252  2.8546  0.0593
   82MOL0     H11260   5.437   6.587   5.673  0.2361  2.2326  1.2912
   82MOL0     H11261   5.294   6.828   5.552 -0.5588 -0.9997 -2.0007
   82MOL0     H11262   5.445   6.764   5.485 -2.2236 -1.4348 -0.2879
   82MOL0     H11263   5.556   6.810   5.708  1.2453  1.0454 -2.4320
   82MOL0     H11264   5.496   6.958   5.642 -2.3795  1.2033  0.2537
   82MOL0     H11265   5.257   7.067   5.700  0.4220  0.4210 -0.2007
   82MOL0     H11266   5.028   7.087   5.956  0.6249 -1.8738 -0.2290
   82MOL0     H11267   5.136   7.202   5.885 -0.5783 -2.1019 -0.7450
   82MOL0     H11268   5.281   7.195   6.095  1.1921 -3.2017 -0.3340
   82MOL0     H11269   5.135   7.293   6.072  0.8260  0.0839  1.0368
   82MOL0     H11270   5.006   7.092   6.216 -0.7855  1.6974 -0.8026
   82MOL0     H11271   5.171   7.036   6.229  0.4403  0.1194 -4.4923
   82MOL0     H11272   5.125   7.151   6.438  0.7339  0.3650  0.9691
   82MOL0     H11273   5.224   7.264   6.356  0.2394 -0.5424 -0.0733
   82MOL0     H11274   4.848   7.391   6.510  2.8747 -4.0511 -0.7217
   82MOL0     H11275   4.883   7.650   6.734  0.7812  4.7521 -1.4234
   82MOL0     H11276   4.750   7.544   6.666  1.3269 -1.6735 -0.9334
   82MOL0     H11277   4.767   7.715   6.622 -1.7421 -0.4791  3.9583
   82MOL0     H11278   5.194   8.037   6.535 -1.5066 -1.9438  0.3709
   82MOL0     H11279   5.184   8.286   6.605 -0.4501  0.0661  1.7534
   82MOL0     H11280   4.925   8.566   6.759  1.4766  0.1927 -0.9658
   82MOL0     H11281   4.785   8.462   6.722  0.5894  1.0127 -1.0338
   82MOL0     H11282   4.890   8.295   6.889  1.1782 -0.6407 -2.0046
   82MOL0     H11283   5.050   8.375   6.873  0.5235 -1.5600 -0.2387
   82MOL0     H11284   4.815   8.489   7.032  1.4426  4.6404  3.0092
   82MOL0     H11285   4.962   8.577   6.998 -1.1945  1.5140  6.1079
   82MOL0     H11286   5.004   8.470   7.208 -2.5392 -2.3348  2.3135
   82MOL0     H11287   5.096   8.383   7.085  0.5788  2.3880  0.4304
   82MOL0     H11288   4.806   8.300   7.173 -0.4089 -0.1700 -1.5445
   82MOL0     H11289   4.905   8.185   7.125 -3.2046 -0.2062  2.6452
   82MOL0     H11290   4.979   8.322   7.388 -0.5859  0.2215  0.0543
   82MOL0     H11291   5.067   8.193   7.310 -0.1987 -1.2783  0.0746
   82MOL0     H11292   4.913   8.116   7.487 -1.4319 -2.9581  1.5659
   82MOL0     H11293   4.887   8.035   7.331  0.8886  1.5561 -2.2219
   82MOL0     H11294   4.670   8.084   7.452 -0.9668  1.0857  0.6777
   82MOL0     H11295   4.669   8.202   7.317  2.5778 -1.0099 -1.4841
   82MOL0     H11296   4.766   8.283   6.565 -0.7466 -0.5029 -0.4467
   82MOL0     H11297   4.774   8.032   6.497 -0.4004 -0.8129  3.0277
   82MOL0     H11298   5.214   7.687   6.372 -0.1477 -0.1758 -0.1106
   82MOL0     H11299   5.195   7.469   6.282 -0.0052  0.1457 -0.0626
   82MOL0     H11300   4.842   6.228   5.018 -0.7423  2.2876  0.2488
   82MOL0     H11301   4.801   6.117   4.806 -0.0779  0.9764 -2.3574
   82MOL0     H11302   5.023   5.831   4.451 -0.0312  1.0396 -0.0087
   82MOL0     H11303   4.921   5.670   4.290 -1.6781  0.2991 -3.4567
   82MOL0     H11304   4.479   5.635   4.194  0.0258 -1.2163  0.0917
   82MOL0     H11305   4.560   5.765   4.106 -1.5091  1.3912  2.0157
   82MOL0     H11306   4.500   5.576   3.957  0.4826  0.4407  1.3679
   82MOL0     H11307   4.606   5.456   4.048  1.9421 -0.7394 -0.1563
   82MOL0     H11308   4.674   5.552   3.816  2.9461 -3.0836  1.3741
   82MOL0     H11309   4.694   5.702   3.901  1.8865  0.1108 -1.8472
   82MOL0     H11310   4.883   5.483   3.865 -0.7499 -1.1934  1.0683
   82MOL0     H11311   4.846   5.480   4.038 -2.3863 -0.6625 -0.3306
   82MOL0     H11312   5.104   5.798   4.011 -2.4237  3.3919  0.0654
   82MOL0     H11313   4.576   5.903   4.268 -0.5767 -0.1476  0.8042
   82MOL0     H11314   4.523   6.046   4.454  0.6769 -1.8172 -0.8039
   82MOL0     H11315   4.636   6.091   4.572 -2.1673  0.2685  0.6639
   82MOL0     H11316   4.650   6.172   4.414 -0.4488  0.7089  0.1657
   83MOL0     O11317   8.101   1.230   2.110 -1.0250  0.6681  0.4381
   83MOL0     C11318   8.051   1.240   2.222 -0.1084  0.8226  0.7449
   83MOL0     O11319   8.045   1.352   2.296 -0.4221 -0.1477 -0.2209
   83MOL0     C11320   8.049   1.473   2.226  1.1589  0.3618 -0.0413
   83MOL0     C11321   7.937   1.542   2.186 -0.9207  0.1056 -0.2435
   83MOL0     C11322   7.961   1.656   2.117  0.0507  0.2116  0.2498
   83MOL0     C11323   8.093   1.709   2.097 -0.4957  0.2757  0.2420
   83MOL0     O11324   8.126   1.833   2.042 -0.0790 -0.0734  0.3193
   83MOL0     C11325   8.045   1.928   2.103 -0.4692  1.1418  1.0522
   83MOL0     C11326   8.103   2.068   2.068  0.5289  0.1442 -0.8413
   83MOL0     C11327   8.113   2.083   1.921  0.4638  1.1263  1.0252
   83MOL0     C11328   8.015   2.193   1.853 -0.7089  0.6155 -1.6077
   83MOL0     C11329   8.072   2.263   1.727  0.0711  0.3741  0.0076
   83MOL0     C11330   7.979   2.359   1.653  0.0403  1.0539  0.5524
   83MOL0     C11331   8.038   2.404   1.518  0.7818  1.0613 -0.4028
   83MOL0     C11332   7.929   2.481   1.429  0.8199 -0.2483  0.0154
   83MOL0     N11333   7.999   2.540   1.310 -0.2291 -0.4529 -0.2847
   83MOL0     C11334   8.031   2.474   1.195  0.3463 -0.2055 -0.1262
   83MOL0     C11335   8.083   2.569   1.117 -1.2899 -0.1044  0.0765
   83MOL0     C11336   8.143   2.552   0.983 -0.1257  0.3423  1.7638
   83MOL0     C11337   8.066   2.451   0.889  0.0176 -0.4906  0.6093
   83MOL0     C11338   8.136   2.457   0.742 -0.7226  0.0481  0.3206
   83MOL0     C11339   8.043   2.402   0.624 -0.7927 -0.3230 -0.9142
   83MOL0     O11340   8.016   2.262   0.660 -0.0682 -0.4141 -0.3757
   83MOL0     C11341   7.926   2.182   0.588 -0.1545 -0.0484 -0.5215
   83MOL0     C11342   7.811   2.229   0.524 -0.3352 -0.1019  0.4232
   83MOL0     C11343   7.725   2.131   0.458  0.3382  0.2353  0.3103
   83MOL0     C11344   7.603   2.198   0.399  1.3071  0.0542 -0.5134
   83MOL0     C11345   7.749   1.990   0.468 -0.5131  0.6205  0.3128
   83MOL0     C11346   7.659   1.877   0.425  0.1155 -0.8387  0.3808
   83MOL0     O11347   7.709   1.749   0.415  0.2022  0.2896 -0.2622
   83MOL0     C11348   7.656   1.664   0.316 -0.4033  0.1663 -0.6547
   83MOL0     C11349   7.528   1.615   0.326  0.4606 -0.5504 -0.0151
   83MOL0     C11350   7.477   1.526   0.238  0.5652  1.3083  0.6465
   83MOL0     C11351   7.546   1.476   0.137  0.3585 -0.5918  0.4056
   83MOL0     O11352   7.499   1.372   0.064 -0.4545 -0.3653  0.7664
   83MOL0     C11353   7.369   1.316   0.068  0.0873  0.0194  0.6707
   83MOL0     C11354   7.371   1.174   0.013 -0.2988 -0.2139  1.0991
   83MOL0     C11355   7.228   1.108   0.035  0.2955 -0.0742  0.1476
   83MOL0     C11356   7.207   0.977  -0.047 -0.2210  0.8662  0.0498
   83MOL0     C11357   7.308   0.864  -0.007 -0.3023  0.1004  0.6643
   83MOL0     C11358   7.248   0.725  -0.033  0.4308  0.3139 -0.2160
   83MOL0     C11359   7.225   0.715  -0.182 -0.9751  0.5397 -0.8747
   83MOL0     C11360   7.188   0.573  -0.219 -1.1173 -0.2361  0.3230
   83MOL0    Cl11361   7.331   0.473  -0.189 -0.0350 -0.3813 -0.3365
   83MOL0     C11362   7.675   1.515   0.121 -0.0759 -0.2364 -0.4034
   83MOL0     C11363   7.735   1.609   0.213  0.4261 -0.4541  0.6809
   83MOL0     O11364   7.537   1.899   0.428 -0.0601 -0.0264 -0.1737
   83MOL0     C11365   7.868   1.958   0.531  0.3003  0.0187 -0.3445
   83MOL0     C11366   7.956   2.046   0.593 -0.4330  0.0755  0.1006
   83MOL0     N11367   8.084   2.694   1.178 -0.7901  0.9083  0.3961
   83MOL0     N11368   8.025   2.676   1.293  0.5188  0.2760  0.3372
   83MOL0     C11369   8.194   1.637   2.148 -0.7627 -0.2492 -1.0483
   83MOL0     C11370   8.177   1.518   2.213  0.4790 -0.1215 -0.0526
   83MOL0     C11371   8.014   1.106   2.286 -0.4990  0.1393 -0.9632
   83MOL0     C11372   7.993   1.093   2.430  0.1223 -0.5912 -0.6595
   83MOL0     C11373   7.969   0.974   2.497  0.3696 -0.1423  0.4163
   83MOL0     C11374   7.937   0.856   2.430  0.2867 -0.3445  1.2237
   83MOL0     O11375   7.900   0.746   2.499  0.4371  0.7554 -0.5296
   83MOL0     C11376   7.862   0.620   2.438 -0.3042  1.0320  0.0428
   83MOL0     C11377   7.890   0.512   2.550 -0.5480 -0.9319 -0.8721
   83MOL0     C11378   7.885   0.373   2.505 -0.3093  0.7376  0.1743
   83MOL0     C11379   7.749   0.327   2.458 -0.3522  0.7030  0.5315
   83MOL0     C11380   7.636   0.329   2.559  1.2813  0.1220  0.8570
   83MOL0     C11381   7.542   0.320   2.640 -0.8057  0.5268 -0.3631
   83MOL0     C11382   7.947   0.864   2.292  0.3601  0.0621 -0.2415
   83MOL0     C11383   7.995   0.985   2.223  0.0645  0.2656  0.5434
   83MOL0     C11384   7.988   0.971   2.068 -0.1463  0.3178 -0.4971
   83MOL0     H11385   7.839   1.503   2.214 -2.5184  1.7659 -3.0844
   83MOL0     H11386   7.877   1.702   2.066 -0.1193 -0.6725 -0.2806
   83MOL0     H11387   8.040   1.923   2.212 -1.3836  0.1022  0.9823
   83MOL0     H11388   7.938   1.917   2.082 -0.3067  1.3189  0.0488
   83MOL0     H11389   8.048   2.150   2.117  0.6986  0.4689 -1.1851
   83MOL0     H11390   8.200   2.063   2.118 -0.7032 -4.3801  1.6340
   83MOL0     H11391   8.212   2.126   1.904 -1.1577  4.1431 -2.2907
   83MOL0     H11392   8.128   1.992   1.862  3.2641  1.9900  0.2333
   83MOL0     H11393   7.923   2.143   1.820 -0.7910 -0.9575  0.7106
   83MOL0     H11394   7.980   2.260   1.932  2.2024 -1.4032  1.7259
   83MOL0     H11395   8.107   2.182   1.663 -0.6431 -2.0857  2.5359
   83MOL0     H11396   8.155   2.326   1.759 -0.9787  2.7216 -1.5719
   83MOL0     H11397   7.889   2.301   1.629  0.5003  0.5870 -0.0896
   83MOL0     H11398   7.957   2.450   1.710 -5.1060  1.0813 -1.0312
   83MOL0     H11399   8.075   2.318   1.462  3.1719  0.6482  1.6263
   83MOL0     H11400   8.121   2.474   1.533  0.3527  1.2688  1.1373
   83MOL0     H11401   7.842   2.419   1.405 -1.6970  1.9903  2.4710
   83MOL0     H11402   7.881   2.547   1.503  1.9588 -0.4869  0.9976
   83MOL0     H11403   8.034   2.373   1.157  1.4266  0.3544 -1.6362
   83MOL0     H11404   8.244   2.512   1.000 -0.6247 -0.2917  3.4196
   83MOL0     H11405   8.174   2.642   0.929 -1.7675  0.5976  1.1997
   83MOL0     H11406   8.046   2.353   0.934  1.3354 -0.3180  1.6569
   83MOL0     H11407   7.967   2.493   0.871  0.8110  1.0106 -0.5403
   83MOL0     H11408   8.164   2.556   0.705 -2.2799 -0.2211 -1.7930
   83MOL0     H11409   8.224   2.393   0.749 -1.1265 -0.5773 -0.2285
   83MOL0     H11410   7.955   2.467   0.631  1.9206  3.8255 -1.5040
   83MOL0     H11411   8.084   2.415   0.523  1.1544  1.5928  0.0476
   83MOL0     H11412   7.794   2.336   0.520 -2.7509 -0.4579 -2.6097
   83MOL0     H11413   7.518   2.183   0.467  0.1292  0.2476 -1.9098
   83MOL0     H11414   7.575   2.154   0.303  2.1983  0.9438 -1.1934
   83MOL0     H11415   7.610   2.305   0.376  4.4569 -0.4089 -2.2910
   83MOL0     H11416   7.469   1.641   0.413 -0.7255 -1.7872 -0.4028
   83MOL0     H11417   7.377   1.485   0.246  1.0533 -0.9901 -2.8288
   83MOL0     H11418   7.329   1.308   0.169 -0.6169  0.0531  0.4024
   83MOL0     H11419   7.297   1.371   0.007  0.3651 -0.6360 -0.2657
   83MOL0     H11420   7.395   1.176  -0.093 -1.7778 -0.6626  0.7305
   83MOL0     H11421   7.447   1.107   0.054  1.0839  0.1725 -0.7063
   83MOL0     H11422   7.148   1.179   0.014  1.3083  2.8265  4.5891
   83MOL0     H11423   7.212   1.078   0.139 -1.1791  0.5875  0.1295
   83MOL0     H11424   7.215   0.998  -0.154 -1.1206 -0.1463 -0.2381
   83MOL0     H11425   7.109   0.936  -0.020 -0.0725  1.6695  2.0546
   83MOL0     H11426   7.400   0.869  -0.067 -1.2048 -0.5566 -0.8196
   83MOL0     H11427   7.344   0.867   0.097 -0.9465 -0.8940  0.9281
   83MOL0     H11428   7.149   0.726   0.014  0.5458  0.7427  0.0293
   83MOL0     H11429   7.317   0.651   0.009  1.0481 -0.2206 -2.0689
   83MOL0     H11430   7.322   0.733  -0.230 -0.2947  0.4355  0.3927
   83MOL0     H11431   7.148   0.783  -0.217 -2.4232 -0.7913 -0.3690
   83MOL0     H11432   7.157   0.570  -0.324 -0.0149 -1.8450 -0.0113
   83MOL0     H11433   7.103   0.547  -0.155 -0.9509 -3.1089 -0.4728
   83MOL0     H11434   7.729   1.479   0.034 -0.4726 -0.6504 -0.4790
   83MOL0     H11435   7.839   1.632   0.193  0.4718 -1.2486 -0.0565
   83MOL0     H11436   7.895   1.853   0.541  0.4828  0.2082  1.6285
   83MOL0     H11437   8.048   2.009   0.637 -1.8991 -2.0757  1.5336
   83MOL0     H11438   8.297   1.671   2.140 -0.5568  0.8276  3.3326
   83MOL0     H11439   8.256   1.452   2.248 -0.3049 -1.8662 -1.4346
   83MOL0     H11440   8.005   1.181   2.492 -3.2076  1.0645 -2.1209
   83MOL0     H11441   7.978   0.967   2.605  0.1695 -0.0495  0.4396
   83MOL0     H11442   7.755   0.614   2.417 -1.0716 -3.1255  3.6588
   83MOL0     H11443   7.923   0.598   2.350 -1.0849 -0.7539 -0.0884
   83MOL0     H11444   7.826   0.527   2.638  0.9615 -0.7259  0.2228
   83MOL0     H11445   7.989   0.532   2.592 -0.5106 -1.1536 -0.8489
   83MOL0     H11446   7.950   0.370   2.417  0.2548 -0.0408  0.6090
   83MOL0     H11447   7.928   0.306   2.580  1.2128  1.0355 -0.4017
   83MOL0     H11448   7.750   0.218   2.444 -0.3669  0.7170  0.4166
   83MOL0     H11449   7.726   0.379   2.364 -1.7115  1.6079  1.3351
   83MOL0     H11450   7.483   0.286   2.723  1.1074 -0.7338  0.5541
   83MOL0     H11451   7.916   0.781   2.229 -0.6741 -0.0479  0.3905
   83MOL0     H11452   8.090   0.986   2.032  1.0909 -2.1607  1.6227
   83MOL0     H11453   7.948   0.872   2.044  1.7539 -1.3021  2.3784
   83MOL0     H11454   7.914   1.046   2.038 -2.8309  0.3190  4.7879
   84MOL0     O11455   9.970   2.623   2.352  0.2091 -0.1360 -0.6196
   84MOL0     C11456   9.897   2.712   2.399  0.0364  0.0382 -0.1250
   84MOL0     O11457   9.802   2.784   2.325 -0.4303  0.4937 -0.5364
   84MOL0     C11458   9.791   2.773   2.194  0.7431  0.4932  0.3580
   84MOL0     C11459   9.698   2.678   2.132  1.0065 -0.5417 -0.7396
   84MOL0     C11460   9.696   2.671   1.995  0.1715  0.3491  0.4560
   84MOL0     C11461   9.783   2.744   1.913  1.2023 -0.3960  0.1723
   84MOL0     O11462   9.805   2.726   1.777 -0.8579  0.5323  0.5008
   84MOL0     C11463   9.682   2.709   1.696  0.5273  0.6213  0.2290
   84MOL0     C11464   9.688   2.812   1.585 -0.1792  1.5561  0.0757
   84MOL0     C11465   9.643   2.950   1.629  0.5479  0.8354  0.0093
   84MOL0     C11466   9.593   3.046   1.520  0.0734 -0.2943 -0.4002
   84MOL0     C11467   9.447   3.037   1.503 -0.0811 -1.4239 -0.1193
   84MOL0     C11468   9.415   3.140   1.396  0.5468 -0.0715 -0.6230
   84MOL0     C11469   9.265   3.142   1.376 -0.4090  0.1736  0.5882
   84MOL0     C11470   9.194   3.256   1.431 -0.2440  0.0514 -0.7147
   84MOL0     N11471   9.179   3.368   1.333 -0.3850 -0.1668 -0.1883
   84MOL0     C11472   9.070   3.364   1.245 -0.7057 -0.6501  0.2436
   84MOL0     C11473   9.077   3.473   1.170  0.0666 -0.1956 -0.2328
   84MOL0     C11474   8.984   3.511   1.062  0.3643  0.5806 -0.7206
   84MOL0     C11475   9.001   3.660   1.052  0.2246  0.5672 -0.3490
   84MOL0     C11476   8.879   3.731   0.986 -0.2751  0.2769  0.9227
   84MOL0     C11477   8.740   3.734   1.055  0.1118 -0.2702  0.2737
   84MOL0     O11478   8.635   3.769   0.964 -0.1665 -0.5082  0.7138
   84MOL0     C11479   8.506   3.764   1.011  0.0196  0.0032  0.0028
   84MOL0     C11480   8.406   3.796   0.920  0.6186  0.5795 -0.3483
   84MOL0     C11481   8.273   3.806   0.958 -0.5424  0.0072  0.2997
   84MOL0     C11482   8.179   3.834   0.853  0.1729  0.1620  0.5563
   84MOL0     C11483   8.236   3.781   1.088 -1.3412 -0.1424  0.5213
   84MOL0     C11484   8.094   3.776   1.131 -0.2489  0.3676 -0.2540
   84MOL0     O11485   8.058   3.847   1.248 -0.2320 -0.1121  0.5583
   84MOL0     C11486   7.966   3.787   1.329 -0.1615 -0.4921 -0.0047
   84MOL0     C11487   7.861   3.868   1.370  0.1689 -0.2226  0.0214
   84MOL0     C11488   7.750   3.823   1.452 -0.7282  0.8653 -0.0314
   84MOL0     C11489   7.755   3.682   1.487 -0.6242  0.8387 -0.1337
   84MOL0     O11490   7.655   3.616   1.557  0.4076  0.3578  0.2774
   84MOL0     C11491   7.525   3.616   1.494 -0.1808 -0.6906  0.3217
   84MOL0     C11492   7.432   3.544   1.590  1.0290 -0.1168  0.6551
   84MOL0     C11493   7.365   3.644   1.680  0.3532 -0.3576  0.6280
   84MOL0     C11494   7.238   3.580   1.742 -0.2683 -0.6159  0.9147
   84MOL0     C11495   7.173   3.667   1.849  0.7856  0.5454  0.4228
   84MOL0     C11496   7.034   3.608   1.885 -0.1692 -0.4013 -0.0069
   84MOL0     C11497   6.990   3.631   2.028 -0.3741  0.2749 -0.1549
   84MOL0     C11498   6.858   3.551   2.054  0.2215  0.0613  0.1282
   84MOL0    Cl11499   6.906   3.378   2.071  0.0112 -0.3397 -0.3569
   84MOL0     C11500   7.869   3.604   1.456 -0.2726 -1.0888 -0.6428
   84MOL0     C11501   7.972   3.663   1.381 -0.5435 -0.3128 -0.2728
   84MOL0     O11502   8.016   3.698   1.079 -0.2362 -0.3279  0.0655
   84MOL0     C11503   8.336   3.752   1.185 -0.0803  0.7149  0.4969
   84MOL0     C11504   8.465   3.732   1.141 -0.2597  0.2079 -0.3511
   84MOL0     N11505   9.194   3.542   1.216 -0.1192  0.1073  0.5068
   84MOL0     N11506   9.257   3.476   1.313  0.0486 -0.3026 -0.6593
   84MOL0     C11507   9.868   2.834   1.973  0.5976 -1.0696 -1.1426
   84MOL0     C11508   9.877   2.851   2.111 -0.3663  0.3363  0.3248
   84MOL0     C11509   9.921   2.763   2.541  0.4188  0.3233  0.0764
   84MOL0     C11510   9.861   2.880   2.583 -0.1712 -0.5163 -0.6810
   84MOL0     C11511   9.876   2.933   2.717 -0.2384  0.0025 -0.2339
   84MOL0     C11512   9.959   2.863   2.807  0.3045  0.2146  0.4742
   84MOL0     O11513   9.980   2.892   2.939  0.0995 -0.4730  0.4134
   84MOL0     C11514   9.921   3.016   3.000 -0.6902 -0.1497  0.0800
   84MOL0     C11515   9.947   3.002   3.161  0.2769 -0.7157  0.8038
   84MOL0     C11516   9.882   3.119   3.234 -0.4111  0.0910 -0.0266
   84MOL0     C11517   9.963   3.141   3.366  0.4359 -0.0271  0.5265
   84MOL0     C11518  10.009   3.018   3.428 -0.4146  0.4639 -0.8706
   84MOL0     C11519  10.033   2.923   3.496 -0.0314  1.2214 -0.0196
   84MOL0     C11520  10.009   2.750   2.766  0.0852  0.7534  0.3334
   84MOL0     C11521  10.000   2.698   2.636 -0.8485 -0.6998  0.1164
   84MOL0     C11522  10.071   2.568   2.613 -0.1361 -0.3746 -0.4218
   84MOL0     H11523   9.630   2.622   2.195  0.2508  1.2181  0.1025
   84MOL0     H11524   9.632   2.595   1.951  2.1191 -0.8475 -0.4892
   84MOL0     H11525   9.595   2.724   1.760 -0.8389  1.1761 -1.6484
   84MOL0     H11526   9.681   2.609   1.651 -0.2691  0.8029 -0.1887
   84MOL0     H11527   9.788   2.812   1.542  2.4202 -2.1324  5.0664
   84MOL0     H11528   9.622   2.762   1.513 -1.1117  0.0139  1.8997
   84MOL0     H11529   9.570   2.947   1.711  1.1664  0.6338  0.5558
   84MOL0     H11530   9.727   3.001   1.677 -0.1290  1.2222  0.8106
   84MOL0     H11531   9.619   3.143   1.562  1.4862 -1.9142  2.9111
   84MOL0     H11532   9.659   3.023   1.436  0.7405  0.9696 -0.2343
   84MOL0     H11533   9.385   3.062   1.589 -0.6701  0.5261 -1.0717
   84MOL0     H11534   9.422   2.941   1.457  2.7279 -1.8889 -0.8811
   84MOL0     H11535   9.441   3.235   1.443  1.4922 -1.7588  2.6024
   84MOL0     H11536   9.465   3.124   1.300 -0.8715  1.1001 -1.5957
   84MOL0     H11537   9.224   3.043   1.399  2.4918 -0.6808  2.5284
   84MOL0     H11538   9.254   3.164   1.269  1.2989  1.8626  0.7038
   84MOL0     H11539   9.092   3.228   1.460  0.0665 -0.6831 -0.3217
   84MOL0     H11540   9.234   3.299   1.523 -4.4507  2.2689  0.3740
   84MOL0     H11541   8.994   3.287   1.239  0.8720 -2.1889 -1.5190
   84MOL0     H11542   8.884   3.484   1.097  0.9856 -0.8801 -0.0073
   84MOL0     H11543   9.005   3.463   0.966 -0.2242 -0.0884 -0.5189
   84MOL0     H11544   9.017   3.707   1.150 -1.7238 -1.3978  1.0451
   84MOL0     H11545   9.088   3.689   0.994 -0.6431  3.1215 -0.5221
   84MOL0     H11546   8.904   3.831   0.950  0.5836 -0.8603 -1.8709
   84MOL0     H11547   8.873   3.676   0.892 -1.2608  1.8362  0.0364
   84MOL0     H11548   8.712   3.632   1.084  2.3849 -1.8215 -2.4911
   84MOL0     H11549   8.749   3.799   1.143 -4.3883 -2.3538  2.6481
   84MOL0     H11550   8.433   3.812   0.816  0.5102 -1.1016 -0.6624
   84MOL0     H11551   8.111   3.749   0.841  1.2061 -0.5568 -0.5249
   84MOL0     H11552   8.236   3.843   0.760  0.5708 -0.9951  0.6635
   84MOL0     H11553   8.119   3.924   0.860 -0.0790  0.1948 -1.4771
   84MOL0     H11554   7.852   3.971   1.338 -1.3454 -0.4948 -0.5207
   84MOL0     H11555   7.668   3.893   1.467 -1.7663 -0.4831  0.8664
   84MOL0     H11556   7.493   3.719   1.473  1.6716 -0.3598 -1.0665
   84MOL0     H11557   7.523   3.561   1.399  1.3026  0.0508 -0.1687
   84MOL0     H11558   7.366   3.470   1.544  1.9191 -0.5110 -0.0259
   84MOL0     H11559   7.493   3.479   1.654 -1.8794 -4.2403 -0.3280
   84MOL0     H11560   7.332   3.736   1.632  0.7349  0.8224  2.4951
   84MOL0     H11561   7.445   3.669   1.751  0.8951 -0.5478  0.0963
   84MOL0     H11562   7.279   3.483   1.770  1.4110 -0.7033 -1.5601
   84MOL0     H11563   7.160   3.574   1.665 -3.0766  1.8823  3.3006
   84MOL0     H11564   7.243   3.669   1.933  0.1237  1.0203  0.9773
   84MOL0     H11565   7.156   3.772   1.824  2.1685  0.8400  0.6174
   84MOL0     H11566   7.030   3.500   1.865  1.2354 -0.8826  1.9556
   84MOL0     H11567   6.972   3.664   1.814  2.6248  1.4281 -1.1957
   84MOL0     H11568   6.968   3.737   2.040 -0.1273  0.3045  0.0357
   84MOL0     H11569   7.070   3.606   2.099 -0.3703  1.3867  0.2522
   84MOL0     H11570   6.782   3.561   1.977 -0.4161 -1.7371  0.4747
   84MOL0     H11571   6.820   3.576   2.154  2.2363  1.4288  0.6187
   84MOL0     H11572   7.871   3.499   1.482  1.7696 -0.8424  0.4258
   84MOL0     H11573   8.057   3.597   1.363 -0.8322 -0.6677 -0.3395
   84MOL0     H11574   8.315   3.748   1.292 -3.8138 -1.3132 -0.1334
   84MOL0     H11575   8.549   3.706   1.206 -0.9000 -4.8759 -1.0955
   84MOL0     H11576   9.935   2.891   1.910  3.7563 -1.0049  1.9234
   84MOL0     H11577   9.948   2.924   2.147  2.5456 -0.6975 -2.7972
   84MOL0     H11578   9.808   2.936   2.507  1.2586 -1.3581 -2.3651
   84MOL0     H11579   9.856   3.035   2.750 -1.6582 -0.6264  1.0053
   84MOL0     H11580   9.980   3.104   2.974 -0.2510  0.1588  1.9643
   84MOL0     H11581   9.817   3.028   2.969 -0.4281 -0.9264 -1.2029
   84MOL0     H11582  10.053   2.994   3.186  0.7854 -0.2108 -0.9741
   84MOL0     H11583   9.898   2.913   3.200 -2.9218  0.0711 -1.0952
   84MOL0     H11584   9.867   3.212   3.179  0.2939  0.5526  0.5447
   84MOL0     H11585   9.781   3.080   3.250 -0.9820  0.9955 -1.2448
   84MOL0     H11586   9.893   3.178   3.440  0.4777 -2.8324  2.1115
   84MOL0     H11587  10.051   3.205   3.352  0.8732 -0.7554 -0.2249
   84MOL0     H11588  10.058   2.844   3.564  1.4083  2.6846  1.2296
   84MOL0     H11589  10.056   2.694   2.845 -0.8222  0.4534  0.6732
   84MOL0     H11590  10.078   2.510   2.706  1.1381 -1.9984 -1.4784
   84MOL0     H11591  10.024   2.498   2.543 -1.3863 -2.0341  1.9453
   84MOL0     H11592  10.172   2.601   2.585  1.0828 -0.9382  2.8856
   85MOL0     O11593   5.656   3.656   8.078  0.2062  0.2262 -0.8576
   85MOL0     C11594   5.773   3.635   8.115  0.3432  0.4144  0.2111
   85MOL0     O11595   5.815   3.512   8.171  0.1849  0.0213  0.3874
   85MOL0     C11596   5.739   3.429   8.250  1.0809 -0.2373  0.3533
   85MOL0     C11597   5.787   3.301   8.283  0.0638  0.5858  0.0217
   85MOL0     C11598   5.704   3.219   8.369  0.9125 -0.1038  0.9379
   85MOL0     C11599   5.583   3.263   8.427  0.8214  0.1268  0.7172
   85MOL0     O11600   5.503   3.188   8.504  0.5303  0.5536 -0.1851
   85MOL0     C11601   5.373   3.149   8.458 -0.6597  0.1728  0.6247
   85MOL0     C11602   5.351   3.006   8.487  0.2892 -0.4217 -0.2132
   85MOL0     C11603   5.426   2.903   8.404  0.7181  0.3432  0.3248
   85MOL0     C11604   5.352   2.865   8.267 -0.4410 -0.4821 -0.0671
   85MOL0     C11605   5.458   2.814   8.166 -1.2438  0.3392  1.2486
   85MOL0     C11606   5.404   2.740   8.041  0.5711 -0.2021  0.0293
   85MOL0     C11607   5.507   2.674   7.954 -0.0597  0.5650 -0.7009
   85MOL0     C11608   5.611   2.769   7.897 -0.7284  1.2419  0.4307
   85MOL0     N11609   5.704   2.696   7.801 -0.0172  0.3177 -0.6612
   85MOL0     C11610   5.817   2.639   7.846  0.2277  0.0440  0.1243
   85MOL0     C11611   5.860   2.563   7.742 -0.6668  0.4001  0.0631
   85MOL0     C11612   5.974   2.473   7.726 -0.8026  0.0339 -0.2083
   85MOL0     C11613   6.023   2.481   7.581  0.3144  0.6797 -0.4519
   85MOL0     C11614   6.098   2.605   7.547 -0.9284 -0.0414 -0.0948
   85MOL0     C11615   6.139   2.612   7.408  0.0303  0.5477  0.7404
   85MOL0     O11616   6.230   2.503   7.366 -0.4336  0.4050  0.2152
   85MOL0     C11617   6.299   2.511   7.249  0.6865  0.0451 -0.6697
   85MOL0     C11618   6.353   2.388   7.200 -0.5286 -1.2665  0.1531
   85MOL0     C11619   6.433   2.379   7.080  0.0878 -0.7219 -0.2158
   85MOL0     C11620   6.483   2.238   7.034 -0.3813 -0.8736 -0.9480
   85MOL0     C11621   6.454   2.494   7.007 -0.0689 -0.1238 -0.9326
   85MOL0     C11622   6.554   2.515   6.889  1.0865  0.0164  0.6395
   85MOL0     O11623   6.567   2.643   6.843  0.4901  0.4016  0.0080
   85MOL0     C11624   6.650   2.670   6.734 -0.1665 -0.0143 -0.1017
   85MOL0     C11625   6.786   2.631   6.739 -1.5078  0.4743  0.5864
   85MOL0     C11626   6.877   2.678   6.635 -0.8501 -0.1030 -0.6900
   85MOL0     C11627   6.845   2.771   6.542  0.7157 -0.2055 -0.1343
   85MOL0     O11628   6.939   2.816   6.465 -0.1971 -0.5148 -0.1742
   85MOL0     C11629   7.001   2.939   6.484 -0.8314  0.1052 -0.3183
   85MOL0     C11630   7.050   2.987   6.353  0.3216 -0.7626  0.2867
   85MOL0     C11631   7.056   3.137   6.343  0.3001 -0.9830  0.6380
   85MOL0     C11632   7.183   3.200   6.277 -0.1807  0.0050 -0.1869
   85MOL0     C11633   7.177   3.356   6.262 -0.0466  0.4724 -0.6992
   85MOL0     C11634   7.196   3.430   6.396 -0.8482  0.0160  0.3142
   85MOL0     C11635   7.112   3.556   6.397  0.6859 -0.3904  0.5089
   85MOL0     C11636   7.171   3.664   6.487 -0.9342  0.1836 -0.2002
   85MOL0    Cl11637   7.329   3.727   6.427 -0.1685  0.0427  0.2649
   85MOL0     C11638   6.703   2.816   6.540  0.5439 -0.4043 -2.0882
   85MOL0     C11639   6.614   2.764   6.635 -0.6787 -0.2637  0.0294
   85MOL0     O11640   6.613   2.419   6.839  0.3032  0.4403  0.9710
   85MOL0     C11641   6.390   2.616   7.051 -0.2956  0.0587 -0.3526
   85MOL0     C11642   6.310   2.622   7.166 -1.6121  0.4670 -0.1881
   85MOL0     N11643   5.772   2.582   7.638 -0.1240  0.1631 -0.0067
   85MOL0     N11644   5.678   2.664   7.676  0.2766 -0.3709  0.6272
   85MOL0     C11645   5.535   3.384   8.391 -0.8460  0.1598  0.3303
   85MOL0     C11646   5.615   3.462   8.306  0.2270 -0.8131 -0.0967
   85MOL0     C11647   5.872   3.729   8.075 -0.9970 -0.0635 -0.1608
   85MOL0     C11648   5.844   3.838   7.987 -0.4290  0.5834  0.2154
   85MOL0     C11649   5.950   3.906   7.930  0.2856  0.5996 -0.6547
   85MOL0     C11650   6.080   3.892   7.975  0.1230  0.1747 -1.1713
   85MOL0     O11651   6.192   3.955   7.925 -0.5212  0.2233  0.1126
   85MOL0     C11652   6.181   4.010   7.791 -0.9448  1.1102  0.7190
   85MOL0     C11653   6.173   3.894   7.680 -0.4854  0.3031 -0.2098
   85MOL0     C11654   6.295   3.803   7.671 -0.8895  0.2727  0.1730
   85MOL0     C11655   6.428   3.867   7.646 -1.8111 -0.6037 -0.6274
   85MOL0     C11656   6.441   3.930   7.513  0.0786  0.7162 -0.5661
   85MOL0     C11657   6.451   3.991   7.406  0.2717  0.1152 -0.2951
   85MOL0     C11658   6.110   3.793   8.068  0.3094 -0.2971  0.0268
   85MOL0     C11659   6.012   3.712   8.117  0.1627 -0.0434  0.0250
   85MOL0     C11660   6.053   3.633   8.231 -0.7040  0.1988  0.6064
   85MOL0     H11661   5.876   3.263   8.235  0.4041  0.2480  0.9015
   85MOL0     H11662   5.738   3.117   8.384 -1.1089 -0.5916  2.7701
   85MOL0     H11663   5.367   3.175   8.352  4.6770 -2.2712 -0.5781
   85MOL0     H11664   5.292   3.196   8.515 -2.3362 -1.4721 -0.2775
   85MOL0     H11665   5.386   2.994   8.590 -0.8526  3.6050  0.8498
   85MOL0     H11666   5.244   2.986   8.488  0.3788 -1.4955  3.8896
   85MOL0     H11667   5.525   2.946   8.386  0.3837  0.6281 -0.9401
   85MOL0     H11668   5.454   2.819   8.467  0.0074 -0.3443 -0.2484
   85MOL0     H11669   5.279   2.785   8.280 -0.7390 -0.7119 -2.6678
   85MOL0     H11670   5.284   2.944   8.233 -0.3283 -1.5970 -3.2327
   85MOL0     H11671   5.513   2.738   8.223 -1.6279 -0.7760  0.1812
   85MOL0     H11672   5.525   2.893   8.131 -2.9325  0.4330 -2.1848
   85MOL0     H11673   5.335   2.665   8.081  0.9900  0.2102  1.6038
   85MOL0     H11674   5.345   2.818   7.993  0.2229  0.2742  1.2045
   85MOL0     H11675   5.450   2.636   7.869 -0.1937  0.0172 -0.3709
   85MOL0     H11676   5.553   2.590   8.007 -0.7145  0.9349  0.4829
   85MOL0     H11677   5.561   2.844   7.835  0.1220  2.0966  0.7624
   85MOL0     H11678   5.667   2.820   7.976  0.2686  3.0976 -1.3770
   85MOL0     H11679   5.861   2.654   7.944 -1.4568  2.7630  0.5813
   85MOL0     H11680   5.952   2.374   7.768 -0.0160  0.5994  1.6332
   85MOL0     H11681   6.059   2.514   7.781  1.4397 -0.3911 -3.1363
   85MOL0     H11682   6.100   2.402   7.580 -1.8601 -1.6446  1.8115
   85MOL0     H11683   5.941   2.464   7.511 -2.6632  0.3963  2.8575
   85MOL0     H11684   6.040   2.692   7.578 -2.6752 -0.4780 -1.8807
   85MOL0     H11685   6.190   2.588   7.602 -1.7614  0.7854  1.6175
   85MOL0     H11686   6.048   2.616   7.348 -1.1942  2.5110  2.5906
   85MOL0     H11687   6.179   2.713   7.394  2.3907 -0.6083 -1.9206
   85MOL0     H11688   6.332   2.307   7.269 -0.8866 -0.2625  1.2684
   85MOL0     H11689   6.405   2.166   7.059  0.9824 -2.0064  0.2284
   85MOL0     H11690   6.571   2.208   7.091 -1.0169 -3.4913 -1.2230
   85MOL0     H11691   6.507   2.229   6.927  1.8313 -0.9216 -0.5004
   85MOL0     H11692   6.836   2.565   6.810 -1.5594 -1.7030 -1.3103
   85MOL0     H11693   6.975   2.633   6.629 -1.2694 -0.8123 -3.4738
   85MOL0     H11694   6.929   3.014   6.518 -0.3077  0.3615  0.2473
   85MOL0     H11695   7.075   2.926   6.564 -0.9857 -2.4728 -0.4872
   85MOL0     H11696   7.138   2.925   6.333 -1.6366 -4.3381  1.8205
   85MOL0     H11697   6.979   2.955   6.276  2.7277 -0.8554 -2.0369
   85MOL0     H11698   7.047   3.179   6.444  0.5324  0.7894 -0.0455
   85MOL0     H11699   6.977   3.177   6.280 -0.5020 -0.3628  1.9824
   85MOL0     H11700   7.188   3.157   6.177 -0.8924 -1.2545  0.2835
   85MOL0     H11701   7.279   3.175   6.323  0.3490  1.7764 -0.2607
   85MOL0     H11702   7.254   3.388   6.191  0.7476  0.6422  0.2221
   85MOL0     H11703   7.078   3.380   6.222  0.2517  0.6608 -1.3323
   85MOL0     H11704   7.301   3.457   6.394 -0.8603  0.1994  1.5302
   85MOL0     H11705   7.177   3.370   6.485  0.9693  2.1311  2.2536
   85MOL0     H11706   7.014   3.529   6.436 -0.6681  1.9649 -0.9643
   85MOL0     H11707   7.089   3.598   6.298 -1.3148  1.8183  1.8156
   85MOL0     H11708   7.169   3.609   6.582 -3.7434  0.0952 -0.2214
   85MOL0     H11709   7.097   3.742   6.505 -2.4243 -0.6826 -2.1486
   85MOL0     H11710   6.665   2.906   6.492 -1.3862 -1.5536 -2.8222
   85MOL0     H11711   6.516   2.809   6.636 -0.3560  0.4432  0.0842
   85MOL0     H11712   6.403   2.704   6.989  2.6044 -0.4230 -0.5610
   85MOL0     H11713   6.242   2.705   7.185 -4.4901 -1.4896 -1.2336
   85MOL0     H11714   5.437   3.422   8.417 -0.4152  2.7248 -1.4721
   85MOL0     H11715   5.568   3.554   8.272 -0.6485 -0.7309  1.2832
   85MOL0     H11716   5.743   3.856   7.951 -0.6815 -0.6990  0.2320
   85MOL0     H11717   5.908   3.973   7.855 -3.1434  2.3900  2.5253
   85MOL0     H11718   6.100   4.083   7.781  0.9007  3.1531 -0.3088
   85MOL0     H11719   6.268   4.074   7.775 -1.8731  2.1466 -0.4099
   85MOL0     H11720   6.156   3.943   7.583 -1.6225  0.8954  0.2759
   85MOL0     H11721   6.091   3.827   7.704 -1.3619  1.1239 -0.8345
   85MOL0     H11722   6.308   3.736   7.757  1.6582  0.8936  0.3316
   85MOL0     H11723   6.263   3.734   7.592 -0.1815  0.7779 -0.5705
   85MOL0     H11724   6.506   3.791   7.654  0.7302  1.6882 -2.0636
   85MOL0     H11725   6.441   3.946   7.720 -1.2775 -1.5439  0.3164
   85MOL0     H11726   6.440   4.022   7.304 -2.9378 -0.8209 -0.3218
   85MOL0     H11727   6.214   3.788   8.098  0.6331  0.4022 -0.9313
   85MOL0     H11728   6.055   3.526   8.212 -0.2806  0.5144 -1.3184
   85MOL0     H11729   6.156   3.660   8.257  0.0597 -0.1911 -1.7479
   85MOL0     H11730   5.988   3.638   8.319  2.7045 -4.1544  3.8136
   86MOL0     O11731   8.845   5.586   0.162  0.2655  0.3288 -0.5957
   86MOL0     C11732   8.859   5.583   0.042  0.6318 -0.2625 -0.9156
   86MOL0     O11733   8.755   5.551  -0.044 -0.4282 -0.1531  0.2663
   86MOL0     C11734   8.633   5.510   0.005  0.2253 -0.1397  0.1020
   86MOL0     C11735   8.569   5.407  -0.056  0.2213  0.8191 -0.9498
   86MOL0     C11736   8.444   5.360  -0.005  0.4657 -0.1345  0.9012
   86MOL0     C11737   8.363   5.417   0.094 -0.2130 -0.2057 -0.0130
   86MOL0     O11738   8.240   5.382   0.134 -0.5381 -0.1513  0.1991
   86MOL0     C11739   8.163   5.312   0.040  0.5148 -0.3300  0.3655
   86MOL0     C11740   8.012   5.340   0.083 -0.6457 -0.0663 -0.4150
   86MOL0     C11741   7.918   5.291  -0.026 -0.4758  0.4424  1.0030
   86MOL0     C11742   7.774   5.307   0.007  0.8930 -0.4111  0.4331
   86MOL0     C11743   7.684   5.255  -0.107 -0.1300 -0.4149 -0.1572
   86MOL0     C11744   7.675   5.358  -0.214 -0.4214 -0.6747 -0.5231
   86MOL0     C11745   7.588   5.320  -0.331 -0.3010  0.1732 -0.4599
   86MOL0     C11746   7.584   5.444  -0.418 -0.0976  0.1828 -0.5078
   86MOL0     N11747   7.504   5.405  -0.530 -0.0054  0.1106 -0.2784
   86MOL0     C11748   7.548   5.341  -0.639 -0.2550  0.1943 -0.5936
   86MOL0     C11749   7.434   5.319  -0.710 -0.6708  0.1802  0.3983
   86MOL0     C11750   7.417   5.222  -0.830  0.1962  0.0731  0.9231
   86MOL0     C11751   7.449   5.288  -0.958  0.7268 -0.4353  0.0487
   86MOL0     C11752   7.426   5.188  -1.082 -0.3613  0.8426  0.0121
   86MOL0     C11753   7.412   5.258  -1.219 -0.2251  0.1157 -0.1199
   86MOL0     O11754   7.287   5.331  -1.217 -0.3998  0.2491  0.2095
   86MOL0     C11755   7.291   5.414  -1.318 -0.4645 -0.4632 -0.2738
   86MOL0     C11756   7.264   5.369  -1.447 -0.4208 -0.3001 -0.4067
   86MOL0     C11757   7.262   5.455  -1.556 -1.0201  0.2623  1.4000
   86MOL0     C11758   7.229   5.398  -1.686 -0.2058  0.7423 -0.0546
   86MOL0     C11759   7.308   5.587  -1.538  0.3877 -0.8473 -0.1002
   86MOL0     C11760   7.301   5.696  -1.641 -0.2796  0.4748 -1.0654
   86MOL0     O11761   7.341   5.820  -1.589  0.0503 -0.0549 -0.1026
   86MOL0     C11762   7.341   5.921  -1.678  0.6576 -0.0907  0.9016
   86MOL0     C11763   7.224   6.001  -1.685  0.5736  0.6968  0.1744
   86MOL0     C11764   7.218   6.105  -1.777 -0.1612 -0.3984 -0.5868
   86MOL0     C11765   7.325   6.144  -1.854 -0.8627 -0.2490  0.6771
   86MOL0     O11766   7.335   6.253  -1.935  0.0214  0.0023 -0.0695
   86MOL0     C11767   7.246   6.247  -2.048  0.2999 -0.3832 -0.8610
   86MOL0     C11768   7.263   6.369  -2.135  0.0113 -0.6633 -0.0418
   86MOL0     C11769   7.231   6.501  -2.069 -0.0010 -1.0440  0.3751
   86MOL0     C11770   7.258   6.640  -2.150 -0.8434  0.9571 -0.8667
   86MOL0     C11771   7.204   6.756  -2.062  0.9098 -0.0767 -0.4892
   86MOL0     C11772   7.251   6.895  -2.111 -0.6888 -0.3705 -1.3363
   86MOL0     C11773   7.160   7.007  -2.060 -0.3840  0.0288 -0.0971
   86MOL0     C11774   7.186   7.063  -1.922 -0.0950 -0.1782 -0.2715
   86MOL0    Cl11775   7.171   6.970  -1.778  0.4361 -0.0938  0.1820
   86MOL0     C11776   7.441   6.069  -1.845  1.1458 -0.9059  0.5578
   86MOL0     C11777   7.450   5.962  -1.762  0.1072 -0.7017  0.1179
   86MOL0     O11778   7.287   5.666  -1.757 -0.3182  0.4910  0.0450
   86MOL0     C11779   7.348   5.629  -1.410 -0.1635 -0.4168  0.8237
   86MOL0     C11780   7.342   5.545  -1.300 -0.1908  0.6861 -0.1683
   86MOL0     N11781   7.335   5.399  -0.657 -0.4060 -1.1021  0.5214
   86MOL0     N11782   7.376   5.438  -0.544 -0.0566  0.2644 -0.5555
   86MOL0     C11783   8.424   5.535   0.142 -0.5986 -0.3924 -1.1025
   86MOL0     C11784   8.550   5.582   0.102 -0.9313  0.0850  0.1450
   86MOL0     C11785   8.977   5.639  -0.015 -0.1488  0.3668  0.2129
   86MOL0     C11786   8.972   5.670  -0.149 -0.9098  0.3329 -1.0601
   86MOL0     C11787   9.078   5.704  -0.219 -0.0780  0.0378  0.5191
   86MOL0     C11788   9.199   5.721  -0.154 -0.5571 -0.3674 -0.1753
   86MOL0     O11789   9.303   5.762  -0.228 -0.5422  0.7051 -0.3704
   86MOL0     C11790   9.436   5.743  -0.174 -0.8406  0.2113 -0.7484
   86MOL0     C11791   9.531   5.794  -0.283 -0.1567  0.2911  0.7554
   86MOL0     C11792   9.501   5.941  -0.320 -0.4333 -0.8059 -0.1963
   86MOL0     C11793   9.540   6.045  -0.213 -0.2208  0.1755 -0.3317
   86MOL0     C11794   9.454   6.164  -0.211  0.1949  0.1130 -0.0400
   86MOL0     C11795   9.394   6.269  -0.178  0.9772 -0.3964 -0.2068
   86MOL0     C11796   9.200   5.702  -0.015  0.0266 -0.8374  0.9239
   86MOL0     C11797   9.095   5.654   0.054 -0.3180 -0.7287  0.4664
   86MOL0     C11798   9.124   5.614   0.195 -0.8749  0.5946  0.2604
   86MOL0     H11799   8.619   5.349  -0.133 -0.5216 -2.5304  0.8935
   86MOL0     H11800   8.397   5.276  -0.054 -0.3993  0.5899  0.4607
   86MOL0     H11801   8.198   5.208   0.040  0.8827 -0.2109  0.5355
   86MOL0     H11802   8.183   5.348  -0.062 -1.1986 -1.8748 -0.5773
   86MOL0     H11803   8.002   5.301   0.184 -1.1233  2.7334  0.7009
   86MOL0     H11804   7.995   5.447   0.095 -2.7151 -0.2673 -1.0968
   86MOL0     H11805   7.946   5.348  -0.115 -1.7504 -1.2741 -0.5659
   86MOL0     H11806   7.937   5.186  -0.049  0.4420  0.7265  0.3598
   86MOL0     H11807   7.756   5.241   0.092  0.7169 -2.1209 -0.8761
   86MOL0     H11808   7.758   5.411   0.037  4.9894  0.5236 -0.0794
   86MOL0     H11809   7.581   5.235  -0.077  0.1629 -2.3544 -0.2844
   86MOL0     H11810   7.722   5.156  -0.135  3.1197 -0.1739  2.7188
   86MOL0     H11811   7.634   5.446  -0.163 -0.1339 -0.0017 -1.4144
   86MOL0     H11812   7.776   5.390  -0.240 -0.9879  2.8620  0.9842
   86MOL0     H11813   7.486   5.295  -0.299 -0.0440  0.1517  0.3619
   86MOL0     H11814   7.625   5.230  -0.381  0.0184  0.9208 -1.6064
   86MOL0     H11815   7.530   5.523  -0.365  0.9091  1.2172 -0.9905
   86MOL0     H11816   7.684   5.476  -0.449  0.0436 -0.6104 -0.8905
   86MOL0     H11817   7.641   5.287  -0.650 -1.7420 -2.4494 -1.2160
   86MOL0     H11818   7.310   5.195  -0.828  0.4315 -0.9839  0.0826
   86MOL0     H11819   7.478   5.132  -0.817 -1.1401 -0.8372  1.1513
   86MOL0     H11820   7.389   5.375  -0.984 -3.8388 -3.9262 -2.4524
   86MOL0     H11821   7.556   5.311  -0.949  0.9914 -2.2137  2.8490
   86MOL0     H11822   7.512   5.122  -1.089 -0.1751  0.9993  0.7151
   86MOL0     H11823   7.343   5.120  -1.060  1.4314 -1.5198 -0.1753
   86MOL0     H11824   7.493   5.331  -1.227 -0.4638  0.8463  2.9536
   86MOL0     H11825   7.415   5.184  -1.299 -1.6009 -0.8145  0.6521
   86MOL0     H11826   7.229   5.267  -1.463  0.4285 -0.2720 -2.7947
   86MOL0     H11827   7.157   5.460  -1.740 -0.6749 -2.0806 -2.9976
   86MOL0     H11828   7.187   5.298  -1.673  2.1703 -0.1827  1.0075
   86MOL0     H11829   7.315   5.384  -1.753 -1.6130 -1.8443 -1.4833
   86MOL0     H11830   7.129   5.973  -1.641 -0.8968  0.4017 -2.8984
   86MOL0     H11831   7.120   6.153  -1.777  0.4966  0.9833 -1.1547
   86MOL0     H11832   7.240   6.157  -2.111  0.2925 -0.7815 -0.2978
   86MOL0     H11833   7.150   6.244  -1.996  0.4294  2.1295 -0.3670
   86MOL0     H11834   7.366   6.379  -2.170  0.2360 -0.5679  0.6411
   86MOL0     H11835   7.205   6.354  -2.227  0.5267  2.3505 -0.9832
   86MOL0     H11836   7.283   6.515  -1.974 -0.5618 -0.6348  0.6200
   86MOL0     H11837   7.124   6.501  -2.049 -0.5765 -1.3736 -2.2674
   86MOL0     H11838   7.207   6.630  -2.247  2.7929  0.5068 -2.9259
   86MOL0     H11839   7.363   6.662  -2.172 -0.1802  0.0621  1.1810
   86MOL0     H11840   7.095   6.749  -2.065  0.9222 -0.8163  0.3939
   86MOL0     H11841   7.208   6.744  -1.953 -3.3144  0.5363 -0.1083
   86MOL0     H11842   7.248   6.895  -2.220 -3.3328 -1.0360 -1.3253
   86MOL0     H11843   7.357   6.908  -2.090 -0.2109 -3.5411 -1.2854
   86MOL0     H11844   7.054   6.977  -2.059  0.3242 -2.8452 -1.2905
   86MOL0     H11845   7.184   7.088  -2.128 -1.1044  0.1687 -0.1997
   86MOL0     H11846   7.137   7.159  -1.902  1.0460  0.5558 -0.8838
   86MOL0     H11847   7.290   7.098  -1.927 -0.2131  0.6806  1.8218
   86MOL0     H11848   7.537   6.089  -1.892  0.3283  0.7116 -0.5368
   86MOL0     H11849   7.544   5.907  -1.754  1.8103  1.8380 -1.0728
   86MOL0     H11850   7.391   5.724  -1.379  2.4304 -1.4543  0.6877
   86MOL0     H11851   7.370   5.580  -1.202 -3.1334  1.2868  0.5491
   86MOL0     H11852   8.383   5.589   0.227  0.1834 -1.6372  0.1072
   86MOL0     H11853   8.589   5.662   0.164  1.5459  2.1658 -3.6837
   86MOL0     H11854   8.881   5.641  -0.202 -1.3198 -0.5832  0.1108
   86MOL0     H11855   9.077   5.716  -0.327  2.4020  1.0596  0.5329
   86MOL0     H11856   9.451   5.820  -0.098 -2.1722  1.7571 -1.9842
   86MOL0     H11857   9.469   5.644  -0.142 -2.2038 -0.4499 -1.3133
   86MOL0     H11858   9.532   5.734  -0.375 -0.3133  1.2614  0.1105
   86MOL0     H11859   9.630   5.792  -0.237  0.8526  2.8758 -1.0533
   86MOL0     H11860   9.544   5.962  -0.418  1.4652 -0.0764  0.7464
   86MOL0     H11861   9.394   5.960  -0.331 -0.6530 -0.6673  1.8638
   86MOL0     H11862   9.636   6.090  -0.239 -0.4062 -1.2735 -4.0254
   86MOL0     H11863   9.554   6.000  -0.114  1.5423  1.0957 -0.1249
   86MOL0     H11864   9.333   6.351  -0.148 -0.8073 -1.6512 -0.2520
   86MOL0     H11865   9.298   5.724   0.026  0.0106  1.7138 -0.1928
   86MOL0     H11866   9.231   5.596   0.212 -0.8646  0.5603  0.1577
   86MOL0     H11867   9.095   5.697   0.260 -1.6243  1.1905 -0.8068
   86MOL0     H11868   9.076   5.519   0.218 -1.3993  0.2293 -2.1172
   87MOL0     O11869   0.613   4.848   0.481  0.2036 -0.4573 -0.3075
   87MOL0     C11870   0.554   4.902   0.393  0.6515 -0.2175 -0.1438
   87MOL0     O11871   0.596   5.018   0.331  0.6474 -0.1722 -0.3645
   87MOL0     C11872   0.722   5.067   0.328 -0.7095 -0.7116 -0.0621
   87MOL0     C11873   0.742   5.203   0.319 -0.2781  0.5019 -0.2982
   87MOL0     C11874   0.866   5.249   0.294  0.1022 -0.6150 -0.1807
   87MOL0     C11875   0.978   5.171   0.278 -0.0660 -0.3678  0.1516
   87MOL0     O11876   1.102   5.208   0.246  0.0287 -0.4166  0.0325
   87MOL0     C11877   1.137   5.347   0.264  0.9548  1.0089  0.1394
   87MOL0     C11878   1.286   5.373   0.233  0.2412 -1.2858 -0.6453
   87MOL0     C11879   1.361   5.287   0.342  0.2099  0.4828 -0.3184
   87MOL0     C11880   1.495   5.338   0.412  0.7535  0.3602  0.1401
   87MOL0     C11881   1.506   5.264   0.547  1.1616 -0.3491 -0.1503
   87MOL0     C11882   1.643   5.303   0.604 -0.1611 -0.4420  0.0729
   87MOL0     C11883   1.683   5.224   0.728  0.5675  1.4086  0.2217
   87MOL0     C11884   1.803   5.272   0.797  0.2125  0.2669 -0.3407
   87MOL0     N11885   1.775   5.402   0.863  0.3411  0.0740 -0.2924
   87MOL0     C11886   1.677   5.424   0.959 -0.2098  0.4067  0.6602
   87MOL0     C11887   1.692   5.550   1.009 -0.2326  0.2461  0.0065
   87MOL0     C11888   1.610   5.603   1.122  0.5798  0.7960 -0.2976
   87MOL0     C11889   1.458   5.607   1.078 -0.4463  0.2576 -0.4796
   87MOL0     C11890   1.428   5.707   0.962  0.8178 -0.8800 -0.2764
   87MOL0     C11891   1.280   5.728   0.924 -0.1258 -0.2958  0.6861
   87MOL0     O11892   1.222   5.605   0.878  0.4497 -0.5914  0.1099
   87MOL0     C11893   1.151   5.619   0.762  0.2818  0.3276 -0.2420
   87MOL0     C11894   1.010   5.618   0.746 -0.5564 -0.5338 -0.1261
   87MOL0     C11895   0.949   5.628   0.623 -0.1583  0.8152  0.4818
   87MOL0     C11896   0.800   5.631   0.628  0.3890 -0.7005  0.0640
   87MOL0     C11897   1.035   5.620   0.501  1.1043  0.8791 -0.2559
   87MOL0     C11898   0.987   5.656   0.375 -0.5768  0.6873  0.1225
   87MOL0     O11899   0.849   5.670   0.363 -0.2483  0.5102  0.5858
   87MOL0     C11900   0.797   5.718   0.247 -0.5793  0.2478 -0.1290
   87MOL0     C11901   0.763   5.617   0.150  0.1021 -0.4500  0.3887
   87MOL0     C11902   0.733   5.663   0.020  0.1599 -0.5764  0.0328
   87MOL0     C11903   0.731   5.805  -0.005 -0.1451  0.3033  0.3640
   87MOL0     O11904   0.710   5.837  -0.137  0.3312 -0.4326  0.1901
   87MOL0     C11905   0.666   5.971  -0.181  0.9984 -0.0146  0.1842
   87MOL0     C11906   0.792   6.063  -0.198  1.1069 -0.1731 -0.2708
   87MOL0     C11907   0.873   6.032  -0.330  0.2684  0.3951 -0.7519
   87MOL0     C11908   0.822   6.112  -0.445  0.2387  0.4309  0.2747
   87MOL0     C11909   0.894   6.081  -0.577 -0.2086  0.8253  0.3645
   87MOL0     C11910   0.929   6.208  -0.652 -0.3895  1.0237  0.8070
   87MOL0     C11911   0.807   6.291  -0.703 -0.0628 -0.0001 -0.1449
   87MOL0     C11912   0.796   6.298  -0.856 -0.7763  0.7567 -0.4710
   87MOL0    Cl11913   0.942   6.386  -0.918 -0.0505  0.0055 -0.0328
   87MOL0     C11914   0.769   5.892   0.092 -0.7007  0.9688  0.0141
   87MOL0     C11915   0.805   5.851   0.214  0.6181  0.0280 -0.0282
   87MOL0     O11916   1.072   5.676   0.287  0.2738 -0.3345  0.0268
   87MOL0     C11917   1.172   5.610   0.522 -0.9824  0.5648 -0.2143
   87MOL0     C11918   1.230   5.600   0.650 -0.0880  0.5800  1.2881
   87MOL0     N11919   1.793   5.612   0.926  0.2191  0.1431  0.0257
   87MOL0     N11920   1.849   5.515   0.860  0.3569 -0.2220 -0.0927
   87MOL0     C11921   0.956   5.036   0.280  0.3198 -0.4968  0.3903
   87MOL0     C11922   0.828   4.986   0.298  0.2664  0.0331  0.1867
   87MOL0     C11923   0.429   4.851   0.342  0.5140  0.4598  0.0494
   87MOL0     C11924   0.343   4.944   0.274 -0.6936  1.4401 -0.4646
   87MOL0     C11925   0.233   4.907   0.193  0.2339 -0.2982 -0.6040
   87MOL0     C11926   0.195   4.773   0.198  0.0479  0.3479  0.2588
   87MOL0     O11927   0.094   4.721   0.123  0.5899 -0.8483 -0.2727
   87MOL0     C11928   0.122   4.699  -0.015 -0.6380  0.8005  0.2319
   87MOL0     C11929   0.058   4.818  -0.101 -0.2240  0.7713 -0.4117
   87MOL0     C11930  -0.096   4.801  -0.113 -0.0437  0.9173  0.9315
   87MOL0     C11931  -0.165   4.907  -0.194 -0.7967  0.6271  0.4290
   87MOL0     C11932  -0.153   4.907  -0.342 -1.2779  0.3342  0.5026
   87MOL0     C11933  -0.148   4.895  -0.461 -0.3656 -1.0004  0.2761
   87MOL0     C11934   0.263   4.685   0.283 -0.3731 -0.3475  0.0313
   87MOL0     C11935   0.383   4.719   0.340  0.2494  1.0835 -0.8957
   87MOL0     C11936   0.466   4.608   0.405 -0.1212  1.1785  0.4267
   87MOL0     H11937   0.662   5.276   0.322  1.6398  2.9609  5.4471
   87MOL0     H11938   0.885   5.356   0.290 -0.0824 -0.6067 -0.8694
   87MOL0     H11939   1.124   5.387   0.364  2.0441  1.9776 -0.0829
   87MOL0     H11940   1.071   5.413   0.208  0.3097  0.2995  0.0566
   87MOL0     H11941   1.304   5.335   0.132 -2.3978 -4.2947 -0.1386
   87MOL0     H11942   1.321   5.476   0.245 -1.3000 -0.2055 -4.0322
   87MOL0     H11943   1.295   5.280   0.429  0.3610  1.1767 -0.1431
   87MOL0     H11944   1.383   5.188   0.301  2.0197  0.3098  0.9959
   87MOL0     H11945   1.578   5.306   0.350  0.7079 -0.6442  0.5883
   87MOL0     H11946   1.477   5.444   0.435 -2.9979  0.0285 -0.5479
   87MOL0     H11947   1.513   5.156   0.526  5.4233 -0.1122 -0.7298
   87MOL0     H11948   1.422   5.289   0.612  2.3760  0.7721  1.0449
   87MOL0     H11949   1.722   5.281   0.531 -0.7589 -1.6731 -0.2285
   87MOL0     H11950   1.644   5.411   0.621  2.3034 -0.1632 -1.3390
   87MOL0     H11951   1.695   5.116   0.711 -0.5075  1.3998 -0.5835
   87MOL0     H11952   1.596   5.224   0.794 -1.0207 -2.7243 -1.5449
   87MOL0     H11953   1.839   5.200   0.871  3.0075 -0.6711 -2.4213
   87MOL0     H11954   1.889   5.270   0.728 -0.2674 -0.6055 -0.9201
   87MOL0     H11955   1.603   5.352   0.994 -0.9776 -0.2811 -2.1098
   87MOL0     H11956   1.643   5.704   1.149 -0.7601  1.3422 -0.6254
   87MOL0     H11957   1.632   5.544   1.212  0.1615  1.6639  0.3844
   87MOL0     H11958   1.427   5.506   1.048  0.1257 -0.4813  1.2588
   87MOL0     H11959   1.408   5.642   1.169  0.8046 -1.4190  0.9478
   87MOL0     H11960   1.469   5.805   0.986 -1.0500  0.0302 -0.6350
   87MOL0     H11961   1.494   5.685   0.878  2.7180 -0.6035  1.0754
   87MOL0     H11962   1.231   5.773   1.010  1.4190  2.0884  0.4390
   87MOL0     H11963   1.277   5.801   0.842  0.6629 -0.3595  0.5871
   87MOL0     H11964   0.962   5.607   0.843  1.1196  0.2124  0.8347
   87MOL0     H11965   0.773   5.728   0.585  1.2126  1.2877  3.6584
   87MOL0     H11966   0.747   5.627   0.723 -1.4597  1.7385 -0.7918
   87MOL0     H11967   0.771   5.549   0.562  1.5680 -1.4470  0.4345
   87MOL0     H11968   0.779   5.510   0.159  2.9124 -0.3020 -1.5965
   87MOL0     H11969   0.722   5.594  -0.062 -0.9248  1.3101 -1.4800
   87MOL0     H11970   0.609   5.965  -0.274 -0.7454  1.1103  1.1422
   87MOL0     H11971   0.590   6.020  -0.121  1.8725  1.7220 -0.0755
   87MOL0     H11972   0.750   6.163  -0.188  3.8658  0.8220  3.5062
   87MOL0     H11973   0.852   6.050  -0.108  0.6698  0.0491  0.0578
   87MOL0     H11974   0.868   5.924  -0.347  0.2566 -0.0924  1.9149
   87MOL0     H11975   0.977   6.064  -0.313 -0.1230  1.4305 -0.2268
   87MOL0     H11976   0.819   6.218  -0.417  0.1016  0.9335 -1.5083
   87MOL0     H11977   0.716   6.094  -0.465  0.5893  1.0322 -2.6350
   87MOL0     H11978   0.985   6.027  -0.550  0.4974  1.8854  0.1616
   87MOL0     H11979   0.828   6.007  -0.623  2.9070 -2.3724  0.6388
   87MOL0     H11980   0.981   6.180  -0.745 -0.2798  0.3888  1.0603
   87MOL0     H11981   0.998   6.256  -0.582 -0.7888 -1.6446  3.2007
   87MOL0     H11982   0.806   6.392  -0.663 -0.0698  1.4614 -3.5241
   87MOL0     H11983   0.719   6.254  -0.649 -0.9310 -0.6332 -1.8858
   87MOL0     H11984   0.704   6.352  -0.881 -3.2133 -1.7169  2.2869
   87MOL0     H11985   0.780   6.198  -0.898 -2.5257  1.2248 -1.0097
   87MOL0     H11986   0.765   5.998   0.070 -0.9086  0.7022 -1.3451
   87MOL0     H11987   0.841   5.926   0.283  0.4454  0.4098 -0.3507
   87MOL0     H11988   1.239   5.584   0.441  0.5914  1.8109  0.6193
   87MOL0     H11989   1.331   5.562   0.654 -0.4956 -0.8416 -0.4954
   87MOL0     H11990   1.034   4.963   0.262  1.3792  1.1142 -2.0499
   87MOL0     H11991   0.803   4.881   0.286  0.7821 -0.2507  1.4616
   87MOL0     H11992   0.372   5.049   0.275  0.6458  1.1088  0.8994
   87MOL0     H11993   0.168   4.974   0.137 -0.3104  0.0282  0.3966
   87MOL0     H11994   0.228   4.681  -0.037 -0.6293 -0.2943  1.0727
   87MOL0     H11995   0.073   4.605  -0.042  0.8355  0.7805 -2.7780
   87MOL0     H11996   0.113   4.812  -0.196  1.7666 -2.4365  0.8100
   87MOL0     H11997   0.072   4.920  -0.064 -1.7991  0.5217  1.0090
   87MOL0     H11998  -0.113   4.699  -0.150 -1.5027  1.8646 -1.2528
   87MOL0     H11999  -0.122   4.808  -0.007 -1.5788 -1.8547  0.8279
   87MOL0     H12000  -0.127   5.002  -0.156  1.9742 -0.9539  1.9115
   87MOL0     H12001  -0.268   4.913  -0.156 -0.6628  4.3204  0.5746
   87MOL0     H12002  -0.145   4.902  -0.568  1.3253  1.0473  0.3939
   87MOL0     H12003   0.230   4.584   0.304  1.9567 -1.4271 -1.0867
   87MOL0     H12004   0.570   4.623   0.376 -0.1196  0.4042  0.0257
   87MOL0     H12005   0.452   4.615   0.514  1.3655 -2.1784  0.9372
   87MOL0     H12006   0.432   4.509   0.374 -1.1796  1.2541  1.2678
   88MOL0     O12007   0.379   9.297   7.780  0.2696  0.2765  0.4963
   88MOL0     C12008   0.262   9.253   7.802 -0.1251  1.2580  0.7913
   88MOL0     O12009   0.191   9.169   7.719 -0.0482  1.1549  0.0210
   88MOL0     C12010   0.257   9.137   7.605 -0.3293 -0.3306  0.4352
   88MOL0     C12011   0.245   9.221   7.497 -0.0417 -0.2902 -0.7383
   88MOL0     C12012   0.315   9.180   7.389 -0.0854 -0.4858  0.4834
   88MOL0     C12013   0.367   9.049   7.371 -0.4232 -0.1593  0.1745
   88MOL0     O12014   0.449   9.028   7.267  0.2780  0.2755 -0.2052
   88MOL0     C12015   0.581   9.056   7.284 -0.2180  0.7908  0.6118
   88MOL0     C12016   0.640   9.164   7.180  0.1620  0.7063 -0.8441
   88MOL0     C12017   0.679   9.098   7.046  0.6935 -0.2550 -0.6817
   88MOL0     C12018   0.555   9.024   6.980 -1.3663 -1.4913  0.1010
   88MOL0     C12019   0.545   9.040   6.828 -0.1583  0.8476  1.0340
   88MOL0     C12020   0.668   8.992   6.757  0.4193 -0.0655 -1.0751
   88MOL0     C12021   0.713   8.844   6.768  0.4405 -0.5273 -1.5061
   88MOL0     C12022   0.674   8.757   6.655  0.0319  0.4591  0.1863
   88MOL0     N12023   0.534   8.750   6.614  0.5060 -0.3764 -0.4114
   88MOL0     C12024   0.429   8.713   6.695 -0.4286  0.5009 -0.0618
   88MOL0     C12025   0.319   8.733   6.622 -0.4072 -0.6070  0.2403
   88MOL0     C12026   0.176   8.743   6.662  0.0290 -0.9839 -0.3301
   88MOL0     C12027   0.149   8.880   6.723 -0.4288  0.2270  0.5461
   88MOL0     C12028  -0.006   8.897   6.738  0.4963 -0.1051  0.1101
   88MOL0     C12029  -0.041   9.012   6.832 -1.1313 -0.3333  0.4027
   88MOL0     O12030   0.043   9.012   6.949  0.2639 -0.1403  0.3509
   88MOL0     C12031  -0.028   9.026   7.065  0.7441  0.0063  0.7914
   88MOL0     C12032  -0.131   8.955   7.109  0.2841 -0.1261  0.4601
   88MOL0     C12033  -0.191   8.968   7.233 -0.7303  0.0011  0.5996
   88MOL0     C12034  -0.319   8.894   7.254  0.5903 -0.0337 -0.3360
   88MOL0     C12035  -0.138   9.071   7.324 -0.1410 -0.4507 -1.0205
   88MOL0     C12036  -0.193   9.096   7.452  1.2096  0.3219 -0.2783
   88MOL0     O12037  -0.159   9.201   7.518  0.1136 -0.1940 -0.4400
   88MOL0     C12038  -0.222   9.248   7.631 -0.5105  0.4242 -0.3030
   88MOL0     C12039  -0.154   9.260   7.756  0.0491 -0.5094 -0.7539
   88MOL0     C12040  -0.216   9.317   7.871 -0.3493  0.0769  0.1200
   88MOL0     C12041  -0.351   9.364   7.861  0.1847  0.3414  0.2387
   88MOL0     O12042  -0.417   9.417   7.967 -0.0852 -0.0433  0.6917
   88MOL0     C12043  -0.353   9.395   8.093  0.4894  0.2922 -0.4075
   88MOL0     C12044  -0.439   9.432   8.209 -0.4347 -0.2881 -0.6043
   88MOL0     C12045  -0.551   9.327   8.249  0.6818  0.1672 -0.0203
   88MOL0     C12046  -0.678   9.332   8.168  0.5483 -0.6330  0.7068
   88MOL0     C12047  -0.770   9.218   8.214 -0.4384  0.5505  0.0887
   88MOL0     C12048  -0.910   9.235   8.154  0.7399  0.2962  0.2066
   88MOL0     C12049  -0.895   9.215   7.998  1.1939  0.3133 -0.2553
   88MOL0     C12050  -1.019   9.269   7.930 -0.1471  0.5989  0.1798
   88MOL0    Cl12051  -1.014   9.210   7.747  0.1259 -0.3863 -0.3186
   88MOL0     C12052  -0.423   9.344   7.743  0.2995 -0.2188 -0.0075
   88MOL0     C12053  -0.355   9.289   7.633  0.2720 -0.1807 -0.1650
   88MOL0     O12054  -0.281   9.017   7.491  1.2256 -0.6994 -0.1248
   88MOL0     C12055  -0.023   9.135   7.278  0.3289  0.7162 -0.2432
   88MOL0     C12056   0.036   9.114   7.155 -0.6209  0.3861  0.4702
   88MOL0     N12057   0.351   8.781   6.500 -0.2356  0.9029 -0.5680
   88MOL0     N12058   0.479   8.787   6.494 -0.6175 -0.5112  0.2366
   88MOL0     C12059   0.365   8.963   7.483  0.0913  0.7693 -0.1728
   88MOL0     C12060   0.328   9.019   7.599  0.2352  0.6290 -0.5996
   88MOL0     C12061   0.199   9.278   7.936 -0.2675  0.0356 -0.8632
   88MOL0     C12062   0.198   9.178   8.028 -0.7508 -0.3789  0.3821
   88MOL0     C12063   0.131   9.183   8.155 -0.7353 -0.0729  0.3046
   88MOL0     C12064   0.050   9.300   8.172 -0.5727 -0.2471 -0.2140
   88MOL0     O12065  -0.020   9.326   8.288 -0.8105 -0.1033 -0.1448
   88MOL0     C12066  -0.029   9.214   8.384 -0.5132  0.8706  0.6648
   88MOL0     C12067  -0.153   9.231   8.465 -0.0331  1.1451 -0.4294
   88MOL0     C12068  -0.135   9.349   8.560  1.0159  0.2684  0.7676
   88MOL0     C12069  -0.266   9.402   8.605 -0.0664  0.7734 -0.0047
   88MOL0     C12070  -0.307   9.378   8.742 -0.1508  0.0496 -0.4696
   88MOL0     C12071  -0.334   9.338   8.855  0.4860 -0.7528 -0.5915
   88MOL0     C12072   0.046   9.399   8.071  0.7289  0.6528  0.4088
   88MOL0     C12073   0.129   9.387   7.961  0.1018  0.4218 -0.4470
   88MOL0     C12074   0.127   9.495   7.866  0.0495  0.2170 -0.6863
   88MOL0     H12075   0.174   9.303   7.495 -0.4742 -0.6543 -0.5988
   88MOL0     H12076   0.328   9.250   7.307 -1.5090  0.0738  0.7084
   88MOL0     H12077   0.624   8.958   7.258  0.1198  1.3726 -1.1712
   88MOL0     H12078   0.607   9.095   7.383  0.3584  0.6705  0.5086
   88MOL0     H12079   0.568   9.246   7.172  1.2727  1.7862 -0.1450
   88MOL0     H12080   0.731   9.199   7.231 -0.7864 -0.3157  1.7608
   88MOL0     H12081   0.714   9.172   6.974 -0.8009 -0.5344 -1.7250
   88MOL0     H12082   0.758   9.023   7.058  0.5759 -0.5680 -1.7693
   88MOL0     H12083   0.559   8.919   7.008  1.3708 -1.2710  0.7811
   88MOL0     H12084   0.460   9.058   7.023 -1.1421 -1.2387  0.4077
   88MOL0     H12085   0.519   9.141   6.794 -2.6655 -0.3993 -1.1092
   88MOL0     H12086   0.458   8.982   6.796 -0.8972  2.0647  0.7419
   88MOL0     H12087   0.649   9.021   6.654 -2.6068  1.3128 -0.2440
   88MOL0     H12088   0.752   9.053   6.792 -0.5311  0.6343  0.0773
   88MOL0     H12089   0.668   8.797   6.856  2.2608 -2.6525 -1.6437
   88MOL0     H12090   0.821   8.843   6.788  0.0620  0.9346  1.1628
   88MOL0     H12091   0.732   8.783   6.566  0.0880 -5.4211 -1.9256
   88MOL0     H12092   0.707   8.655   6.677 -0.9218 -0.0918 -0.7858
   88MOL0     H12093   0.435   8.678   6.797  0.9635 -1.1268 -0.6351
   88MOL0     H12094   0.153   8.657   6.727  1.5190 -0.0280  1.5678
   88MOL0     H12095   0.111   8.735   6.574 -0.7798  3.0083 -0.2658
   88MOL0     H12096   0.211   8.883   6.813  1.5413 -3.9960 -0.4386
   88MOL0     H12097   0.180   8.953   6.647  1.6439 -1.3229 -0.2014
   88MOL0     H12098  -0.047   8.919   6.639  0.2060 -2.5856 -0.3941
   88MOL0     H12099  -0.050   8.804   6.775  0.2598  0.3895  1.1166
   88MOL0     H12100  -0.030   9.109   6.783  1.4872 -0.6684  0.1445
   88MOL0     H12101  -0.145   9.006   6.863 -1.4510  2.4230  0.0940
   88MOL0     H12102  -0.162   8.873   7.044 -3.8602  1.1332  0.5347
   88MOL0     H12103  -0.349   8.836   7.167 -0.5723 -0.1730  0.1294
   88MOL0     H12104  -0.398   8.967   7.273  1.3127  0.5580  0.4875
   88MOL0     H12105  -0.293   8.822   7.332  2.7927  0.3746 -0.6368
   88MOL0     H12106  -0.059   9.213   7.781 -1.5674 -2.0506  3.5174
   88MOL0     H12107  -0.159   9.321   7.963 -0.7003 -1.6555  0.4359
   88MOL0     H12108  -0.336   9.289   8.117 -2.8966 -0.6950 -1.8086
   88MOL0     H12109  -0.261   9.454   8.098  1.0424 -0.4975 -0.9384
   88MOL0     H12110  -0.366   9.438   8.291 -0.2088 -1.4809 -0.6919
   88MOL0     H12111  -0.473   9.533   8.187  1.0886  0.8116  1.6844
   88MOL0     H12112  -0.579   9.339   8.354  0.8137  1.1018 -0.0907
   88MOL0     H12113  -0.515   9.226   8.227 -3.1142 -1.3544  0.0757
   88MOL0     H12114  -0.650   9.304   8.066 -0.7143  1.5853 -0.3326
   88MOL0     H12115  -0.718   9.432   8.189  0.2175 -0.5825 -0.1485
   88MOL0     H12116  -0.731   9.116   8.207 -2.9395 -0.9258  4.0736
   88MOL0     H12117  -0.796   9.246   8.316  1.8025 -0.8301  1.1105
   88MOL0     H12118  -0.949   9.335   8.171  1.7409  0.8153 -0.5007
   88MOL0     H12119  -0.978   9.159   8.195 -0.2534 -0.4659 -2.6332
   88MOL0     H12120  -0.888   9.107   7.981 -2.0436 -1.1335  4.9947
   88MOL0     H12121  -0.805   9.246   7.944  2.2288  0.2693  1.3658
   88MOL0     H12122  -1.026   9.378   7.934  0.7607  0.7754 -1.7112
   88MOL0     H12123  -1.106   9.230   7.984  1.2253 -1.2438  1.1730
   88MOL0     H12124  -0.528   9.365   7.728  0.2381  0.1944  0.8974
   88MOL0     H12125  -0.408   9.273   7.539 -2.7464 -0.2667  1.4133
   88MOL0     H12126   0.023   9.211   7.340  1.4792  1.4059 -1.8669
   88MOL0     H12127   0.129   9.156   7.118 -2.8195  3.2813 -2.3613
   88MOL0     H12128   0.405   8.862   7.489  0.3127  0.8923  0.5384
   88MOL0     H12129   0.324   8.950   7.683  0.7593 -1.4668 -2.2137
   88MOL0     H12130   0.253   9.089   7.999  0.0550  0.3882 -0.4988
   88MOL0     H12131   0.143   9.096   8.219  2.2709 -1.9586 -2.4831
   88MOL0     H12132  -0.035   9.115   8.338  0.3310  0.4551  1.4271
   88MOL0     H12133   0.060   9.218   8.447  0.5445 -1.2247 -0.5769
   88MOL0     H12134  -0.178   9.139   8.518 -0.9747 -0.2817 -3.1504
   88MOL0     H12135  -0.233   9.231   8.390  0.3199 -2.6101 -0.9671
   88MOL0     H12136  -0.085   9.321   8.653  0.9047 -1.4804  0.3265
   88MOL0     H12137  -0.088   9.437   8.516 -2.4707  2.0708  0.3381
   88MOL0     H12138  -0.343   9.363   8.537 -0.3922 -1.9270  1.7269
   88MOL0     H12139  -0.249   9.509   8.598  0.7845  0.6128 -0.5550
   88MOL0     H12140  -0.371   9.303   8.950 -0.2774 -0.0103 -0.5975
   88MOL0     H12141  -0.023   9.483   8.079  1.1996  1.4933 -2.7992
   88MOL0     H12142   0.222   9.547   7.855  0.2054 -0.1145 -0.9077
   88MOL0     H12143   0.109   9.459   7.764 -1.1981  1.5974 -0.9891
   88MOL0     H12144   0.062   9.576   7.899  1.4656  0.7430  0.9545
   89MOL0     O12145   9.755   9.238   8.785 -0.0393  0.0219  0.2035
   89MOL0     C12146   9.855   9.271   8.851  0.4900  0.5711  0.4994
   89MOL0     O12147   9.854   9.286   8.981 -0.6938 -0.0716  0.3743
   89MOL0     C12148   9.733   9.319   9.044 -0.7849  0.1533 -0.0799
   89MOL0     C12149   9.653   9.219   9.099  0.1582 -0.2875  0.2746
   89MOL0     C12150   9.526   9.256   9.137 -0.7947  0.4264 -0.8494
   89MOL0     C12151   9.474   9.386   9.126 -0.1715  0.6564  0.1359
   89MOL0     O12152   9.348   9.417   9.177 -0.2504 -0.2172  0.3220
   89MOL0     C12153   9.262   9.308   9.211  0.8417 -0.1185  0.4060
   89MOL0     C12154   9.135   9.367   9.266 -0.1188 -0.1445  0.4891
   89MOL0     C12155   9.050   9.449   9.159 -1.0132 -0.0367 -0.4915
   89MOL0     C12156   8.903   9.437   9.179 -0.0617  0.2136  0.6607
   89MOL0     C12157   8.823   9.536   9.089 -0.7521 -0.5727  0.2814
   89MOL0     C12158   8.853   9.524   8.936  0.0037  0.0858 -0.3275
   89MOL0     C12159   8.777   9.641   8.864  0.1665 -0.1699  0.3106
   89MOL0     C12160   8.823   9.642   8.713  0.2265 -1.0510 -0.7744
   89MOL0     N12161   8.785   9.527   8.635  1.0965 -0.5615 -1.3910
   89MOL0     C12162   8.855   9.397   8.623  0.5276 -0.1203  0.4237
   89MOL0     C12163   8.779   9.330   8.518 -1.2371  0.7048 -0.1675
   89MOL0     C12164   8.798   9.194   8.467 -0.7154  0.1469 -0.0958
   89MOL0     C12165   8.939   9.191   8.392  0.7033  1.0603 -0.4304
   89MOL0     C12166   8.949   9.260   8.254  0.9736 -0.0544 -0.7346
   89MOL0     C12167   8.947   9.416   8.254  1.4095  0.2539  0.0154
   89MOL0     O12168   9.065   9.459   8.310  0.0846 -0.2513 -0.1651
   89MOL0     C12169   9.062   9.573   8.383  0.2374  0.6445 -0.2249
   89MOL0     C12170   9.170   9.589   8.463  0.8384 -0.0926  0.0758
   89MOL0     C12171   9.183   9.700   8.552 -0.1884  0.6625  0.4233
   89MOL0     C12172   9.296   9.700   8.654 -0.7306  0.3684  0.7831
   89MOL0     C12173   9.087   9.800   8.549 -0.6144 -0.1981 -0.1772
   89MOL0     C12174   9.090   9.920   8.639  0.6913 -0.0742  1.3626
   89MOL0     O12175   9.071  10.036   8.576  0.2689 -1.3942  0.1791
   89MOL0     C12176   9.017  10.143   8.650  0.4788  0.2149  0.1530
   89MOL0     C12177   8.882  10.150   8.683  0.0683  1.0206  0.1345
   89MOL0     C12178   8.836  10.270   8.739 -0.4365 -0.1368 -0.0790
   89MOL0     C12179   8.920  10.375   8.764  0.0040  0.5299 -0.0899
   89MOL0     O12180   8.890  10.494   8.819  0.4496  0.5785  0.6967
   89MOL0     C12181   8.754  10.543   8.817  0.7083 -0.2104  0.3336
   89MOL0     C12182   8.763  10.691   8.856 -0.5659  0.0671  1.3134
   89MOL0     C12183   8.865  10.763   8.777  0.1364 -1.0846 -1.0142
   89MOL0     C12184   8.841  10.911   8.729  0.8989  0.3397  0.2228
   89MOL0     C12185   8.977  10.969   8.679  0.4786 -0.4537 -0.9462
   89MOL0     C12186   8.950  11.112   8.634  0.4631  0.4445 -1.0669
   89MOL0     C12187   9.075  11.165   8.556 -0.1017  0.1412  0.1278
   89MOL0     C12188   9.045  11.308   8.513  0.8847 -1.4113 -0.5967
   89MOL0    Cl12189   8.867  11.351   8.478  0.6084 -0.5540 -0.1687
   89MOL0     C12190   9.056  10.366   8.752 -0.8509  0.3488  0.0537
   89MOL0     C12191   9.104  10.250   8.696  0.7132 -0.4254 -0.4008
   89MOL0     O12192   9.120   9.909   8.757 -0.2677 -0.5438  0.6668
   89MOL0     C12193   8.984   9.792   8.460  0.5301  0.2639  0.4350
   89MOL0     C12194   8.975   9.677   8.383  0.5960  0.9242 -0.0937
   89MOL0     N12195   8.684   9.420   8.476  0.8553  0.1816 -0.1372
   89MOL0     N12196   8.685   9.531   8.543  0.4713 -0.0339 -0.4173
   89MOL0     C12197   9.562   9.485   9.074  0.1740 -0.3296  0.5747
   89MOL0     C12198   9.690   9.451   9.031 -0.7496 -0.0265  0.8410
   89MOL0     C12199   9.982   9.295   8.776 -0.2526 -0.6181  1.0182
   89MOL0     C12200   9.967   9.279   8.629 -0.0285  0.0132 -0.4755
   89MOL0     C12201  10.066   9.310   8.548  0.3440  0.7153  0.3716
   89MOL0     C12202  10.188   9.357   8.597 -0.1946 -0.2130  0.7472
   89MOL0     O12203  10.295   9.369   8.514 -1.1272  0.8262  1.0421
   89MOL0     C12204  10.271   9.372   8.365 -0.7354 -0.0327 -1.3111
   89MOL0     C12205  10.372   9.481   8.299  0.1288 -0.9247  0.1490
   89MOL0     C12206  10.312   9.624   8.295 -0.7529 -0.3247  0.3135
   89MOL0     C12207  10.320   9.690   8.429 -0.0552  0.1418 -0.5505
   89MOL0     C12208  10.433   9.774   8.442  0.1426  0.2394 -0.3851
   89MOL0     C12209  10.507   9.865   8.475 -0.2664  0.8026  0.1011
   89MOL0     C12210  10.207   9.370   8.731 -0.8211 -0.1437 -0.0267
   89MOL0     C12211  10.108   9.345   8.823  0.6651  0.5085 -1.4027
   89MOL0     C12212  10.143   9.359   8.967  0.9441 -0.6794 -0.5316
   89MOL0     H12213   9.679   9.114   9.091 -1.8056 -0.9656  1.9535
   89MOL0     H12214   9.456   9.185   9.180 -1.8265  2.1526  0.4485
   89MOL0     H12215   9.303   9.247   9.292  0.7179 -0.1229  0.4660
   89MOL0     H12216   9.223   9.247   9.128 -1.7765  2.2515 -0.2521
   89MOL0     H12217   9.071   9.284   9.295 -1.2701  0.2349 -0.8835
   89MOL0     H12218   9.158   9.429   9.354  4.9052 -1.5998  0.5410
   89MOL0     H12219   9.100   9.546   9.158  0.1612 -0.6196 -1.2018
   89MOL0     H12220   9.077   9.407   9.061 -3.6714 -0.5627 -1.0854
   89MOL0     H12221   8.869   9.342   9.136 -2.4127  1.0482  0.4786
   89MOL0     H12222   8.876   9.441   9.285 -0.6363  1.8075  0.4767
   89MOL0     H12223   8.855   9.632   9.130 -0.5317 -0.7125  0.4387
   89MOL0     H12224   8.715   9.529   9.103 -0.9941  0.3927 -0.9135
   89MOL0     H12225   8.960   9.544   8.924 -0.0369  1.0119  0.5995
   89MOL0     H12226   8.830   9.426   8.895  2.7083 -0.3602 -0.9554
   89MOL0     H12227   8.796   9.735   8.917 -0.6234 -0.7745  1.7220
   89MOL0     H12228   8.673   9.608   8.862  0.3258 -0.6799 -0.1102
   89MOL0     H12229   8.795   9.730   8.655  3.0085 -0.0419 -0.7371
   89MOL0     H12230   8.933   9.640   8.712  0.4148  2.5119  0.4149
   89MOL0     H12231   8.942   9.359   8.676 -0.4097 -2.7349  0.2169
   89MOL0     H12232   8.714   9.170   8.402  0.9430  0.5832 -2.5349
   89MOL0     H12233   8.799   9.111   8.538 -0.2887 -0.1183 -0.4036
   89MOL0     H12234   8.998   9.240   8.471 -0.7879 -0.5558  1.8229
   89MOL0     H12235   8.972   9.087   8.385 -3.1648 -0.2854 -1.1921
   89MOL0     H12236   9.044   9.229   8.210  1.3017  0.6059 -0.5101
   89MOL0     H12237   8.867   9.213   8.198 -1.6938 -0.0551  2.8270
   89MOL0     H12238   8.952   9.445   8.149  2.0759  2.3926  0.5841
   89MOL0     H12239   8.853   9.461   8.287  1.2679 -0.9873  1.3837
   89MOL0     H12240   9.243   9.509   8.454  0.4966 -0.6080  1.5905
   89MOL0     H12241   9.263   9.701   8.758  0.9696  1.3251  1.3573
   89MOL0     H12242   9.373   9.775   8.634  0.1654 -0.7255 -0.0966
   89MOL0     H12243   9.358   9.610   8.645 -0.1748  0.7581  0.6436
   89MOL0     H12244   8.817  10.066   8.660 -0.5347  1.5453 -0.0881
   89MOL0     H12245   8.736  10.290   8.775 -0.6756 -3.8659  1.8469
   89MOL0     H12246   8.714  10.544   8.716 -0.2100  1.0637  0.6818
   89MOL0     H12247   8.683  10.495   8.885  2.1486  1.4557  3.1835
   89MOL0     H12248   8.667  10.730   8.822 -0.5302 -2.1404 -1.6751
   89MOL0     H12249   8.781  10.699   8.964 -2.8346  0.3341  1.7238
   89MOL0     H12250   8.876  10.700   8.688 -5.0110 -0.9083 -2.0751
   89MOL0     H12251   8.956  10.767   8.838 -0.5620  1.8792  0.0161
   89MOL0     H12252   8.801  10.969   8.812 -1.5257  1.9517 -1.9025
   89MOL0     H12253   8.766  10.922   8.650 -0.7359  2.4466  1.9498
   89MOL0     H12254   9.036  10.957   8.770  1.0243 -0.1636 -1.2619
   89MOL0     H12255   9.014  10.904   8.599 -1.4768 -1.2458 -1.2690
   89MOL0     H12256   8.939  11.170   8.726  1.4020 -0.5875 -0.2705
   89MOL0     H12257   8.861  11.106   8.571 -1.4023  1.4061  1.3001
   89MOL0     H12258   9.093  11.106   8.466 -1.3600 -1.6161  0.9779
   89MOL0     H12259   9.166  11.158   8.617  0.4522  1.1790 -0.5443
   89MOL0     H12260   9.109  11.337   8.429 -0.8326 -0.6330 -1.7090
   89MOL0     H12261   9.070  11.369   8.600 -0.5916 -1.9111  0.2202
   89MOL0     H12262   9.129  10.438   8.789 -1.3035  0.7952  0.0963
   89MOL0     H12263   9.208  10.219   8.688 -0.6023 -5.2960 -2.3846
   89MOL0     H12264   8.906   9.867   8.462 -0.3204 -0.6145  0.8302
   89MOL0     H12265   8.879   9.656   8.338  0.2170 -0.1975  1.1788
   89MOL0     H12266   9.533   9.587   9.050  0.4519  0.4390  3.1225
   89MOL0     H12267   9.764   9.518   8.988 -1.2642 -0.8692 -1.4800
   89MOL0     H12268   9.876   9.256   8.575  0.1750  0.1358 -0.8766
   89MOL0     H12269  10.055   9.276   8.446 -1.7905 -3.2434  1.6857
   89MOL0     H12270  10.296   9.268   8.342  2.2098  0.2271  0.0869
   89MOL0     H12271  10.172   9.402   8.330 -1.1922 -1.3330 -1.1818
   89MOL0     H12272  10.383   9.449   8.194 -0.0749 -0.2114 -0.0907
   89MOL0     H12273  10.460   9.485   8.363 -0.4676  0.3633  0.9078
   89MOL0     H12274  10.367   9.690   8.228  0.6986  3.1686  4.4721
   89MOL0     H12275  10.211   9.630   8.254 -0.4252 -1.1596 -0.6415
   89MOL0     H12276  10.331   9.617   8.510 -0.7188 -0.4071 -0.9420
   89MOL0     H12277  10.227   9.742   8.452  0.6901  0.5378  1.8327
   89MOL0     H12278  10.581   9.940   8.493 -0.4434  1.0199 -0.0705
   89MOL0     H12279  10.313   9.383   8.750 -0.5286 -2.7833  0.6269
   89MOL0     H12280  10.237   9.415   8.966 -1.0164  2.9072  0.5455
   89MOL0     H12281  10.063   9.421   9.008  2.3403 -0.9302  2.8632
   89MOL0     H12282  10.157   9.265   9.021 -0.6110 -0.5426  0.1672
   90MOL0     O12283   6.521  10.149   4.156 -0.2434  0.1045 -0.0541
   90MOL0     C12284   6.558  10.082   4.055 -0.2366 -0.0512 -0.6530
   90MOL0     O12285   6.557  10.119   3.924 -0.2537 -0.0309  0.0143
   90MOL0     C12286   6.489  10.239   3.907 -0.9582 -0.4194  0.2768
   90MOL0     C12287   6.537  10.361   3.962 -0.0951  0.2289  0.3242
   90MOL0     C12288   6.466  10.474   3.953  0.0265 -0.2551  0.6763
   90MOL0     C12289   6.343  10.474   3.890 -0.4719 -0.1258  0.0218
   90MOL0     O12290   6.250  10.578   3.880  0.0064 -0.9688  0.3553
   90MOL0     C12291   6.303  10.711   3.899 -1.4174  0.4401  0.4787
   90MOL0     C12292   6.322  10.746   4.050 -1.0736 -0.4540  0.8298
   90MOL0     C12293   6.427  10.857   4.082  0.4090  0.2096 -0.0944
   90MOL0     C12294   6.578  10.822   4.091 -0.3594  0.8608 -0.5800
   90MOL0     C12295   6.670  10.939   4.132  0.1900  0.5730  0.6123
   90MOL0     C12296   6.652  10.990   4.282  0.3596  0.3748 -0.0373
   90MOL0     C12297   6.742  11.108   4.316 -0.3985 -0.0685  0.4967
   90MOL0     C12298   6.764  11.140   4.464 -0.0443  0.7191  0.0953
   90MOL0     N12299   6.867  11.241   4.483 -0.3799 -0.3539 -0.2228
   90MOL0     C12300   6.859  11.377   4.464  0.9353 -0.5660 -1.0282
   90MOL0     C12301   6.984  11.423   4.457  0.3641 -0.0222 -0.1543
   90MOL0     C12302   7.016  11.559   4.435  0.7746 -0.4992  0.5841
   90MOL0     C12303   7.058  11.592   4.292 -0.6137 -1.0331  0.2464
   90MOL0     C12304   7.154  11.708   4.284 -0.4104 -0.5748  0.2991
   90MOL0     C12305   7.297  11.661   4.319 -0.9741 -0.1645  0.2578
   90MOL0     O12306   7.394  11.774   4.316  0.5953  0.1027  0.4988
   90MOL0     C12307   7.424  11.840   4.433  1.2033 -1.0986 -0.9156
   90MOL0     C12308   7.414  11.980   4.423  0.3490  0.0612  0.4107
   90MOL0     C12309   7.438  12.063   4.532  0.5318 -0.5477 -0.7481
   90MOL0     C12310   7.440  12.205   4.501  0.7501 -0.9717  0.7979
   90MOL0     C12311   7.455  12.015   4.663 -0.5159 -0.0361 -0.0094
   90MOL0     C12312   7.477  12.091   4.789  0.1963 -0.0292  0.2187
   90MOL0     O12313   7.525  12.015   4.900  0.2763 -0.2841 -0.5542
   90MOL0     C12314   7.552  12.078   5.019  0.5486 -0.6161  0.0740
   90MOL0     C12315   7.443  12.089   5.107  0.1182  0.0993 -0.8743
   90MOL0     C12316   7.467  12.154   5.228  0.1932 -0.1531  0.0961
   90MOL0     C12317   7.593  12.192   5.276 -0.9502 -0.3534  0.0018
   90MOL0     O12318   7.609  12.256   5.403 -0.1012 -0.3347  0.1078
   90MOL0     C12319   7.522  12.228   5.508  0.0423  0.7492  0.5352
   90MOL0     C12320   7.580  12.285   5.633  0.0637  0.9824  1.0410
   90MOL0     C12321   7.693  12.200   5.679  0.9892  0.8346  0.1447
   90MOL0     C12322   7.778  12.267   5.781  0.2458 -0.4592 -0.6764
   90MOL0     C12323   7.883  12.161   5.835  0.1319  0.2687  0.0175
   90MOL0     C12324   7.893  12.160   5.986  0.1086  0.9473  0.3892
   90MOL0     C12325   7.929  12.019   6.035 -0.3242  0.4047 -0.4348
   90MOL0     C12326   7.875  12.013   6.187  0.0924 -0.5605  0.7565
   90MOL0    Cl12327   7.941  12.151   6.281  0.3936 -0.1135  0.1901
   90MOL0     C12328   7.696  12.180   5.181 -0.3269  0.6867 -0.5989
   90MOL0     C12329   7.676  12.114   5.056  1.0977 -0.1361 -0.3083
   90MOL0     O12330   7.452  12.213   4.790 -0.8404  0.3314  0.1958
   90MOL0     C12331   7.456  11.873   4.670  0.9544 -0.4849 -0.1462
   90MOL0     C12332   7.447  11.789   4.564  0.1884  0.3138 -0.3181
   90MOL0     N12333   7.068  11.318   4.480 -0.3893  0.3717 -0.2112
   90MOL0     N12334   6.997  11.215   4.483 -0.6791  0.3164  0.8602
   90MOL0     C12335   6.294  10.352   3.842  0.9153 -0.3036 -0.5630
   90MOL0     C12336   6.365  10.232   3.853 -0.5034 -0.6921 -0.2379
   90MOL0     C12337   6.615   9.945   4.079  0.2792 -0.5838  0.2392
   90MOL0     C12338   6.567   9.861   4.181 -0.0322 -0.0618 -0.5626
   90MOL0     C12339   6.627   9.745   4.219  0.6736  0.5436 -0.6007
   90MOL0     C12340   6.737   9.704   4.154  0.8270  1.0191 -0.6804
   90MOL0     O12341   6.802   9.590   4.194 -0.1498 -0.6347  0.1435
   90MOL0     C12342   6.764   9.465   4.149  0.2489 -0.3351 -0.6539
   90MOL0     C12343   6.794   9.438   4.001  0.9491 -0.5000 -0.8673
   90MOL0     C12344   6.937   9.426   3.984  0.3048 -0.0606 -0.0002
   90MOL0     C12345   6.992   9.386   3.847  0.1029  0.7025 -0.4532
   90MOL0     C12346   7.139   9.334   3.853  0.0737 -0.7968  0.4464
   90MOL0     C12347   7.255   9.285   3.858 -0.3821 -0.6339  0.3711
   90MOL0     C12348   6.795   9.788   4.055  0.4715 -0.1906 -0.3906
   90MOL0     C12349   6.740   9.905   4.017 -0.9091  0.9648  0.5377
   90MOL0     C12350   6.820   9.992   3.930  0.0829  0.0501  0.1789
   90MOL0     H12351   6.622  10.369   4.029 -0.4475 -0.5991  0.8851
   90MOL0     H12352   6.510  10.558   4.006  0.7840 -0.5220  0.4858
   90MOL0     H12353   6.235  10.783   3.853  0.4265  0.0653 -3.2002
   90MOL0     H12354   6.399  10.725   3.849 -2.1704  2.5112 -0.4695
   90MOL0     H12355   6.226  10.772   4.095 -2.7000 -5.4405  0.8596
   90MOL0     H12356   6.350  10.667   4.121  2.0970  0.7852  1.1317
   90MOL0     H12357   6.411  10.946   4.020  0.2378  1.9812  2.3745
   90MOL0     H12358   6.398  10.892   4.181 -2.2956  0.8831 -1.0557
   90MOL0     H12359   6.592  10.730   4.148  0.6836  0.2598 -1.7627
   90MOL0     H12360   6.606  10.798   3.988 -0.6207 -0.5699 -0.3423
   90MOL0     H12361   6.655  11.023   4.063  1.1334  0.3804  0.1497
   90MOL0     H12362   6.776  10.917   4.114  0.6370  2.6199  0.4536
   90MOL0     H12363   6.547  11.010   4.306 -0.4631 -4.5636  1.5442
   90MOL0     H12364   6.672  10.907   4.350  3.6009  1.0473  0.0025
   90MOL0     H12365   6.719  11.201   4.262 -1.2651 -1.3665 -1.5073
   90MOL0     H12366   6.837  11.070   4.279 -0.8791  0.7755 -1.7531
   90MOL0     H12367   6.669  11.175   4.507 -0.9171 -1.2057 -0.1745
   90MOL0     H12368   6.789  11.046   4.514  0.4021  1.8015  2.0142
   90MOL0     H12369   6.767  11.436   4.462  1.4307  0.2204 -0.8972
   90MOL0     H12370   7.096  11.579   4.507 -0.4949  0.8022  1.6875
   90MOL0     H12371   6.935  11.622   4.473  0.9136 -1.5325  2.7493
   90MOL0     H12372   7.095  11.503   4.239  0.7355  0.3671 -1.2588
   90MOL0     H12373   6.973  11.625   4.231  1.2714  0.2374 -1.8286
   90MOL0     H12374   7.165  11.747   4.182  1.1621  2.8104  1.6207
   90MOL0     H12375   7.116  11.795   4.338  2.3055  2.7571 -2.6398
   90MOL0     H12376   7.298  11.603   4.412  0.3646 -0.1724  0.2559
   90MOL0     H12377   7.315  11.581   4.247  0.0793  0.0767  0.2318
   90MOL0     H12378   7.391  12.014   4.323 -1.7390 -2.6525 -0.1470
   90MOL0     H12379   7.525  12.219   4.434  0.9577  2.7102  1.6320
   90MOL0     H12380   7.463  12.281   4.576  1.4626  0.7250 -1.0662
   90MOL0     H12381   7.349  12.232   4.448  1.2846  0.5219  0.6024
   90MOL0     H12382   7.363  12.024   5.073  0.4185  1.4030 -4.6091
   90MOL0     H12383   7.383  12.169   5.297  0.7914  1.8057  0.4768
   90MOL0     H12384   7.427  12.282   5.497 -0.4433  0.3816  2.5666
   90MOL0     H12385   7.511  12.119   5.517  0.7358  0.2845 -2.8667
   90MOL0     H12386   7.613  12.383   5.597  2.4779 -0.6805 -1.7203
   90MOL0     H12387   7.499  12.279   5.706  1.0817 -0.3343  2.1052
   90MOL0     H12388   7.755  12.158   5.599  0.9054 -2.0086  1.4431
   90MOL0     H12389   7.647  12.114   5.728 -1.0813  0.7352 -1.8407
   90MOL0     H12390   7.711  12.289   5.865 -2.1246 -0.4471 -2.4639
   90MOL0     H12391   7.830  12.354   5.741  0.2572 -0.8027 -1.4123
   90MOL0     H12392   7.840  12.064   5.807 -2.5580  1.6418 -1.0053
   90MOL0     H12393   7.976  12.181   5.781 -0.2340 -1.1602 -1.2184
   90MOL0     H12394   7.798  12.188   6.032 -2.2891 -2.4305 -1.9581
   90MOL0     H12395   7.972  12.225   6.025 -1.9209  2.5686  2.0077
   90MOL0     H12396   8.039  12.017   6.035 -0.2700  0.8035  1.7519
   90MOL0     H12397   7.898  11.937   5.970  0.2298 -0.4924  0.4046
   90MOL0     H12398   7.885  11.916   6.238 -2.5843 -1.0960  0.4173
   90MOL0     H12399   7.770  12.043   6.185  0.8902  2.4532 -0.1233
   90MOL0     H12400   7.801  12.203   5.198  0.0376 -0.2263 -1.5076
   90MOL0     H12401   7.757  12.085   4.991  1.6482 -0.5227  0.5462
   90MOL0     H12402   7.468  11.819   4.764 -0.0408 -1.3845 -0.5136
   90MOL0     H12403   7.446  11.684   4.591 -0.0098  0.7139  1.3641
   90MOL0     H12404   6.199  10.355   3.789  0.5294 -2.6143 -0.1273
   90MOL0     H12405   6.327  10.141   3.810 -3.1763  1.3621 -2.5699
   90MOL0     H12406   6.471   9.885   4.225  2.0226  1.3462  3.6784
   90MOL0     H12407   6.578   9.686   4.296 -0.6024 -0.7794 -2.3455
   90MOL0     H12408   6.813   9.390   4.212 -0.4944 -0.6218 -0.4019
   90MOL0     H12409   6.655   9.457   4.160 -0.0630  0.2489 -2.7983
   90MOL0     H12410   6.755   9.523   3.944 -0.0496 -0.1049  0.3868
   90MOL0     H12411   6.745   9.343   3.980  3.3566 -2.8614  3.1040
   90MOL0     H12412   6.987   9.519   4.013  1.7982 -0.7662 -0.1666
   90MOL0     H12413   6.971   9.354   4.060  0.3232 -1.2925 -1.1267
   90MOL0     H12414   6.985   9.477   3.786 -4.3416 -0.1941 -1.6853
   90MOL0     H12415   6.930   9.315   3.792  0.7693  0.8763 -1.4507
   90MOL0     H12416   7.356   9.254   3.840 -0.2779  0.5996 -1.5082
   90MOL0     H12417   6.893   9.764   4.017  0.6348 -1.7202  0.8773
   90MOL0     H12418   6.927   9.974   3.937  0.2251 -1.1428 -3.2781
   90MOL0     H12419   6.797   9.997   3.823  2.8048  0.2506 -0.4695
   90MOL0     H12420   6.810  10.091   3.975 -0.6589 -0.2891  0.7993
   91MOL0     O12421   9.883   7.659   5.686 -0.3088  0.3077 -0.4016
   91MOL0     C12422   9.826   7.700   5.589 -0.5011  0.6075 -0.1607
   91MOL0     O12423   9.894   7.741   5.474 -0.3182 -0.2193 -0.3598
   91MOL0     C12424  10.032   7.731   5.480 -0.2872  0.1509  0.4483
   91MOL0     C12425  10.103   7.850   5.492 -0.0554 -0.5753 -0.2076
   91MOL0     C12426  10.243   7.850   5.485 -0.2514  0.4883 -0.3504
   91MOL0     C12427  10.306   7.728   5.477  0.2014  0.0764 -0.5427
   91MOL0     O12428  10.447   7.736   5.487  0.2677 -0.1638 -1.0736
   91MOL0     C12429  10.523   7.627   5.434  0.6526  0.1355  0.1453
   91MOL0     C12430  10.665   7.667   5.437  0.2099  0.0706 -0.5734
   91MOL0     C12431  10.772   7.580   5.375  0.4631 -0.7542 -0.1127
   91MOL0     C12432  10.765   7.444   5.440  0.5648  1.3150  0.2396
   91MOL0     C12433  10.891   7.363   5.416  0.4732 -0.4240  0.1298
   91MOL0     C12434  10.901   7.328   5.274 -0.4078 -0.0713 -0.3683
   91MOL0     C12435  10.994   7.208   5.262  0.4511  0.5791 -0.3470
   91MOL0     C12436  11.018   7.146   5.125  0.4876 -1.3717  0.0527
   91MOL0     N12437  11.076   7.233   5.026 -0.0600  0.7223 -0.4179
   91MOL0     C12438  11.028   7.227   4.896  0.4018 -0.1960  0.2581
   91MOL0     C12439  11.122   7.301   4.829  0.7882  0.1983  0.0996
   91MOL0     C12440  11.110   7.317   4.680 -0.2513 -0.2458 -1.1426
   91MOL0     C12441  10.985   7.394   4.635  0.1811 -0.2582 -0.5745
   91MOL0     C12442  10.987   7.422   4.484 -0.2774  0.0254  0.6564
   91MOL0     C12443  10.884   7.527   4.455 -0.0891 -0.3473  0.2953
   91MOL0     O12444  10.758   7.502   4.514 -0.3880 -0.5905 -0.0069
   91MOL0     C12445  10.653   7.587   4.491 -0.6932  0.2233 -0.3171
   91MOL0     C12446  10.640   7.678   4.377 -0.0703  1.0464 -0.0342
   91MOL0     C12447  10.528   7.761   4.353 -0.5135  0.5959  0.0377
   91MOL0     C12448  10.545   7.868   4.248 -0.3917  0.6567  0.3258
   91MOL0     C12449  10.419   7.738   4.445 -0.4668 -0.0554 -1.7680
   91MOL0     C12450  10.287   7.810   4.435 -0.9852  0.2222  0.1790
   91MOL0     O12451  10.226   7.821   4.555  0.2114  0.5060  0.2763
   91MOL0     C12452  10.101   7.876   4.579 -0.4285 -0.0176  0.2248
   91MOL0     C12453  10.029   7.823   4.687  0.1231  0.6354 -0.2838
   91MOL0     C12454   9.914   7.891   4.739  0.0435  0.6295 -0.0882
   91MOL0     C12455   9.864   8.001   4.666  0.7037 -0.3632  0.0938
   91MOL0     O12456   9.736   8.050   4.684  0.9003 -0.3297  0.0083
   91MOL0     C12457   9.670   8.022   4.813  0.3503 -0.5254  0.6707
   91MOL0     C12458   9.547   8.111   4.828 -0.5585  0.2558  0.3514
   91MOL0     C12459   9.592   8.254   4.854 -0.2541  0.4411 -0.1789
   91MOL0     C12460   9.653   8.269   4.994  0.1110 -0.8025 -0.0042
   91MOL0     C12461   9.655   8.414   5.037 -0.4073  0.3818  0.4100
   91MOL0     C12462   9.728   8.511   4.942 -0.2044  0.1981 -1.0361
   91MOL0     C12463   9.757   8.654   5.000 -0.2338  0.4581 -1.0414
   91MOL0     C12464   9.653   8.762   4.977  0.0400 -0.3581 -0.6552
   91MOL0    Cl12465   9.500   8.705   5.056  0.0809 -0.5212  0.0715
   91MOL0     C12466   9.936   8.047   4.557 -0.3070 -0.3467  0.8091
   91MOL0     C12467  10.058   7.993   4.522 -0.3010 -0.2982  0.2974
   91MOL0     O12468  10.256   7.857   4.328 -0.0991  0.1920 -0.5254
   91MOL0     C12469  10.445   7.674   4.573  0.7537 -0.4491  0.3670
   91MOL0     C12470  10.556   7.598   4.589  0.6772  0.0415  0.6368
   91MOL0     N12471  11.210   7.353   4.917 -0.2186  0.5050  0.6232
   91MOL0     N12472  11.195   7.301   5.031 -0.4225  0.5537  0.2830
   91MOL0     C12473  10.228   7.611   5.451 -0.1687  0.6294 -0.9821
   91MOL0     C12474  10.094   7.610   5.457 -0.2296 -0.4811  0.0414
   91MOL0     C12475   9.675   7.701   5.591 -0.3727  0.8821  0.2924
   91MOL0     C12476   9.613   7.627   5.696  0.2687  0.2800  0.1982
   91MOL0     C12477   9.478   7.622   5.706 -0.4964  0.1360 -0.1548
   91MOL0     C12478   9.395   7.679   5.613  0.1480  0.7640  0.2624
   91MOL0     O12479   9.264   7.673   5.634  0.1759 -0.3673 -0.6791
   91MOL0     C12480   9.195   7.622   5.522  0.4148 -0.2047 -0.4534
   91MOL0     C12481   9.043   7.637   5.555 -0.2562  0.2100 -0.3171
   91MOL0     C12482   9.008   7.521   5.653 -0.9008  0.8614  0.2602
   91MOL0     C12483   9.018   7.379   5.615  0.1675 -0.7743  0.0154
   91MOL0     C12484   8.954   7.369   5.479 -0.1289  0.9335 -0.4286
   91MOL0     C12485   8.913   7.361   5.368 -0.7128 -0.8148 -0.0011
   91MOL0     C12486   9.451   7.754   5.512 -0.7838  0.0224  0.9541
   91MOL0     C12487   9.591   7.780   5.511  0.4685  0.4529  0.8239
   91MOL0     C12488   9.656   7.869   5.404  0.5255 -0.4520 -0.3079
   91MOL0     H12489  10.039   7.938   5.498  0.4590 -0.1779 -0.5660
   91MOL0     H12490  10.300   7.939   5.511  1.4013 -0.7296  0.3724
   91MOL0     H12491  10.479   7.602   5.337 -0.7394  1.4248  0.4117
   91MOL0     H12492  10.503   7.539   5.496 -1.9933  1.3435  1.1507
   91MOL0     H12493  10.669   7.764   5.385 -0.6635  0.1754 -0.4635
   91MOL0     H12494  10.697   7.696   5.538 -3.3415 -0.9237  0.9919
   91MOL0     H12495  10.753   7.566   5.268 -1.6502  0.3741  0.0600
   91MOL0     H12496  10.861   7.643   5.386 -0.6775  1.6125 -2.9803
   91MOL0     H12497  10.766   7.452   5.549  0.6262 -2.7630  0.6628
   91MOL0     H12498  10.678   7.385   5.410  0.4523  2.3468 -1.6128
   91MOL0     H12499  10.860   7.278   5.476 -1.1312  0.0464  0.0131
   91MOL0     H12500  10.971   7.431   5.448 -0.9934  3.1725 -3.0078
   91MOL0     H12501  10.806   7.287   5.238 -2.6670 -1.1834  5.5566
   91MOL0     H12502  10.938   7.409   5.211 -0.5925 -0.9349 -1.6231
   91MOL0     H12503  10.951   7.134   5.331 -1.4427  1.4091 -0.5559
   91MOL0     H12504  11.092   7.231   5.304  0.0880  0.7324  0.4405
   91MOL0     H12505  11.083   7.059   5.140 -1.1950 -2.6503  0.2514
   91MOL0     H12506  10.927   7.099   5.087  1.1867 -1.3841 -1.7196
   91MOL0     H12507  10.938   7.185   4.853  0.7380 -1.9908  1.2144
   91MOL0     H12508  11.110   7.216   4.640 -0.9710 -1.9400  2.6927
   91MOL0     H12509  11.194   7.377   4.643  0.4917  0.2318  1.1597
   91MOL0     H12510  10.900   7.334   4.670  0.7365 -0.9276 -0.3588
   91MOL0     H12511  10.975   7.494   4.677  0.9597  0.8799 -2.9455
   91MOL0     H12512  11.085   7.453   4.446  0.9433 -1.3823  2.5036
   91MOL0     H12513  10.977   7.330   4.426  1.4620  2.6080 -4.2882
   91MOL0     H12514  10.919   7.631   4.464  2.9720 -0.9360 -2.6120
   91MOL0     H12515  10.876   7.515   4.346  3.5337 -0.1354 -0.1099
   91MOL0     H12516  10.727   7.677   4.312  0.3280  0.0398  0.5134
   91MOL0     H12517  10.648   7.900   4.266  0.5138 -0.5850 -2.1218
   91MOL0     H12518  10.485   7.957   4.273 -0.0506  1.2134 -0.7491
   91MOL0     H12519  10.547   7.824   4.148  1.3461  3.3685 -0.9392
   91MOL0     H12520  10.062   7.738   4.746  2.7220  1.3345 -0.6361
   91MOL0     H12521   9.855   7.838   4.813  0.8445 -1.6632 -1.0041
   91MOL0     H12522   9.627   7.921   4.813 -0.9425 -0.0278  2.0989
   91MOL0     H12523   9.731   8.022   4.903 -1.3779  0.9615  1.9038
   91MOL0     H12524   9.495   8.116   4.732  0.7687 -1.5980 -0.5419
   91MOL0     H12525   9.473   8.072   4.897 -1.4403  2.9010  1.0075
   91MOL0     H12526   9.505   8.320   4.846  1.9502  3.4317 -1.8168
   91MOL0     H12527   9.666   8.276   4.776  1.1650  2.8687  1.6983
   91MOL0     H12528   9.759   8.243   5.001  0.6302  1.5150  2.2094
   91MOL0     H12529   9.592   8.205   5.060 -0.1974 -1.8108 -1.2245
   91MOL0     H12530   9.555   8.457   5.048  0.4712  2.8483 -0.6455
   91MOL0     H12531   9.709   8.420   5.133  0.4129  2.5142 -0.1347
   91MOL0     H12532   9.674   8.513   4.846 -0.9166  0.4438 -0.6342
   91MOL0     H12533   9.828   8.473   4.918  1.3836  1.9229  2.2240
   91MOL0     H12534   9.846   8.693   4.948 -1.1396  2.9445 -0.8518
   91MOL0     H12535   9.783   8.641   5.105  0.5797  0.5919 -1.2143
   91MOL0     H12536   9.638   8.783   4.871  2.1923  1.2087 -0.7202
   91MOL0     H12537   9.688   8.852   5.028  0.4756 -1.1570  0.4938
   91MOL0     H12538   9.892   8.125   4.497 -0.3219 -2.8997 -2.7884
   91MOL0     H12539  10.124   8.041   4.451  0.4128  0.2351  1.3133
   91MOL0     H12540  10.367   7.667   4.649  1.1905  1.0263  0.9992
   91MOL0     H12541  10.581   7.531   4.670 -0.4274  2.4528  3.1531
   91MOL0     H12542  10.281   7.516   5.444  2.6741  2.1752 -2.1359
   91MOL0     H12543  10.040   7.517   5.439  1.3312 -1.3063 -0.5171
   91MOL0     H12544   9.668   7.561   5.763  1.3288  2.3633  1.5000
   91MOL0     H12545   9.426   7.557   5.775 -1.0660  0.8142  0.0713
   91MOL0     H12546   9.213   7.686   5.435  0.7187  1.6134  0.8926
   91MOL0     H12547   9.227   7.519   5.503  0.3392 -0.2271 -0.4598
   91MOL0     H12548   8.979   7.641   5.466 -1.0693 -0.3642  0.2365
   91MOL0     H12549   9.026   7.733   5.605 -0.0830 -0.7913  1.7425
   91MOL0     H12550   9.062   7.525   5.748 -1.6111 -1.7490  0.8563
   91MOL0     H12551   8.904   7.542   5.680 -1.7762 -3.3685  0.8998
   91MOL0     H12552   8.975   7.316   5.693  1.3785 -0.3267  1.0905
   91MOL0     H12553   9.122   7.347   5.603  1.2439  2.7090 -1.2136
   91MOL0     H12554   8.889   7.341   5.265 -2.6770 -0.7786  0.4011
   91MOL0     H12555   9.388   7.801   5.437 -0.4058 -3.3624 -1.7545
   91MOL0     H12556   9.672   7.809   5.314 -3.9088  0.0266 -1.6884
   91MOL0     H12557   9.586   7.953   5.395 -1.9950 -1.9252  3.2741
   91MOL0     H12558   9.752   7.910   5.436  0.7042 -1.4309  0.4467
   92MOL0     O12559   4.700   4.959   2.048 -0.6234  0.2223 -0.1306
   92MOL0     C12560   4.587   4.909   2.074  0.6366  0.0500  0.9119
   92MOL0     O12561   4.477   4.975   2.102  0.1062  0.5834  0.7644
   92MOL0     C12562   4.487   5.101   2.141  0.1787 -1.0832 -0.1280
   92MOL0     C12563   4.434   5.120   2.275 -0.4596 -0.2932  0.5377
   92MOL0     C12564   4.450   5.243   2.334  0.5854  0.0920 -0.1912
   92MOL0     C12565   4.489   5.358   2.266  0.3521 -0.9273 -0.0074
   92MOL0     O12566   4.495   5.486   2.320  0.6509  0.9373  0.4410
   92MOL0     C12567   4.383   5.519   2.402  0.3562  0.8511 -0.0477
   92MOL0     C12568   4.380   5.667   2.439  0.1712  0.2367  0.3651
   92MOL0     C12569   4.464   5.686   2.565  0.6355  0.4752 -0.9264
   92MOL0     C12570   4.519   5.834   2.585  0.4374  0.6212 -0.0618
   92MOL0     C12571   4.417   5.945   2.558  0.2550  1.3172 -0.8043
   92MOL0     C12572   4.480   6.077   2.557 -0.9962 -0.2277 -0.5014
   92MOL0     C12573   4.367   6.184   2.537 -0.0604  0.0137 -0.4462
   92MOL0     C12574   4.421   6.323   2.565 -0.6901 -0.6124 -0.0584
   92MOL0     N12575   4.335   6.430   2.509 -0.9708  0.0185  0.6875
   92MOL0     C12576   4.222   6.470   2.576 -0.2386  0.4421  0.8148
   92MOL0     C12577   4.163   6.541   2.480 -0.7205 -0.3618  0.1444
   92MOL0     C12578   4.010   6.580   2.488 -0.4333  0.8589  0.0889
   92MOL0     C12579   3.953   6.548   2.348  0.3337 -0.9553 -0.0913
   92MOL0     C12580   3.798   6.576   2.332  0.3026  0.3884 -0.2981
   92MOL0     C12581   3.776   6.700   2.251 -0.2763  0.7006  0.1804
   92MOL0     O12582   3.861   6.812   2.298  0.1517 -0.1657 -0.4316
   92MOL0     C12583   3.831   6.939   2.287  0.0047 -0.0063 -1.0638
   92MOL0     C12584   3.719   6.982   2.218  0.3418 -0.2445 -0.4636
   92MOL0     C12585   3.684   7.122   2.213  0.4208  0.8785 -1.0640
   92MOL0     C12586   3.560   7.158   2.133 -0.2824 -0.9841  0.2890
   92MOL0     C12587   3.781   7.224   2.259  1.1652  1.0845  0.0599
   92MOL0     C12588   3.770   7.371   2.256 -0.0175 -0.2666 -0.5634
   92MOL0     O12589   3.893   7.433   2.249 -1.1085  0.5252  0.1846
   92MOL0     C12590   3.908   7.569   2.257 -0.2649 -0.2673  0.6361
   92MOL0     C12591   3.977   7.620   2.370 -0.3252 -1.1588  0.2763
   92MOL0     C12592   4.014   7.759   2.383  0.3154 -0.4991 -0.3290
   92MOL0     C12593   3.964   7.844   2.286  0.6163  0.1282 -0.1512
   92MOL0     O12594   3.996   7.977   2.292  1.1904  0.5282 -0.2369
   92MOL0     C12595   4.098   8.027   2.375  0.3487  0.1903  0.2315
   92MOL0     C12596   4.102   8.177   2.333  0.5590  0.5217 -0.4905
   92MOL0     C12597   4.141   8.216   2.194 -0.1604 -0.3461 -0.9419
   92MOL0     C12598   4.142   8.370   2.201  0.0756 -0.9197 -0.7374
   92MOL0     C12599   4.206   8.421   2.072 -0.1741 -0.1984  0.2057
   92MOL0     C12600   4.242   8.567   2.081 -0.2399  0.2609  0.7080
   92MOL0     C12601   4.238   8.621   1.937  0.1434 -0.6127  0.8931
   92MOL0     C12602   4.258   8.772   1.926 -1.1521 -0.0578  0.8876
   92MOL0    Cl12603   4.193   8.821   1.764  0.1604  0.3308  0.3453
   92MOL0     C12604   3.896   7.797   2.171  0.3014 -0.0507  0.3648
   92MOL0     C12605   3.870   7.657   2.156 -0.7142  0.3408 -0.2540
   92MOL0     O12606   3.665   7.426   2.241  0.1718  0.1248 -0.1041
   92MOL0     C12607   3.879   7.175   2.348 -0.6079  0.0321 -0.3519
   92MOL0     C12608   3.907   7.032   2.357 -0.8054 -0.8536 -0.1841
   92MOL0     N12609   4.240   6.539   2.362  0.2489  0.0952 -0.0174
   92MOL0     N12610   4.344   6.466   2.375  0.9013  1.1506  0.7174
   92MOL0     C12611   4.531   5.338   2.132 -0.1350 -0.4762 -0.4751
   92MOL0     C12612   4.533   5.214   2.072  0.0313  0.5742 -0.5542
   92MOL0     C12613   4.570   4.759   2.040  0.5937  0.1218 -0.0117
   92MOL0     C12614   4.441   4.705   2.065 -0.2807  0.6212 -0.2923
   92MOL0     C12615   4.420   4.565   2.042 -0.4915  0.3220 -0.3816
   92MOL0     C12616   4.523   4.472   2.000  0.3324  1.4494  0.6097
   92MOL0     O12617   4.502   4.340   1.980  0.2969  0.4233  0.2814
   92MOL0     C12618   4.393   4.266   2.036  0.3766  0.2765 -0.4005
   92MOL0     C12619   4.428   4.119   2.070 -0.8286 -1.0576 -0.4207
   92MOL0     C12620   4.505   4.112   2.203  0.2824 -0.0766  0.6526
   92MOL0     C12621   4.557   3.977   2.233  0.1652  0.8010  0.2481
   92MOL0     C12622   4.462   3.893   2.316  0.2865 -0.2155  0.2921
   92MOL0     C12623   4.371   3.842   2.386  0.4021  0.3794 -0.0741
   92MOL0     C12624   4.642   4.531   1.966 -0.4139  0.4409  0.0382
   92MOL0     C12625   4.674   4.669   1.992 -1.3812 -0.5989 -0.4620
   92MOL0     C12626   4.818   4.711   1.977  0.4772 -0.8702  0.2500
   92MOL0     H12627   4.384   5.034   2.317 -1.5512  0.0558 -0.0101
   92MOL0     H12628   4.443   5.251   2.442  1.5757  1.6187 -0.2168
   92MOL0     H12629   4.380   5.458   2.493  0.9722 -0.5989 -0.9531
   92MOL0     H12630   4.290   5.501   2.349 -0.4741 -2.8849  2.3339
   92MOL0     H12631   4.411   5.732   2.357 -1.1301 -1.0378 -1.1922
   92MOL0     H12632   4.277   5.696   2.463  0.3097 -0.4103  1.8100
   92MOL0     H12633   4.402   5.659   2.651 -1.1110 -0.1960 -2.3176
   92MOL0     H12634   4.550   5.618   2.569  1.0966  1.1050  0.2163
   92MOL0     H12635   4.569   5.845   2.682  1.5064  2.7061 -0.7672
   92MOL0     H12636   4.599   5.828   2.511  0.0269  0.6141 -0.5106
   92MOL0     H12637   4.340   5.939   2.636  1.8037  0.7656  0.7468
   92MOL0     H12638   4.365   5.919   2.466  1.4767  0.7145 -1.3521
   92MOL0     H12639   4.536   6.095   2.649 -1.4222  1.1815 -0.5016
   92MOL0     H12640   4.561   6.091   2.485  0.9776 -0.8940  1.4714
   92MOL0     H12641   4.279   6.178   2.601  1.7233 -5.2443  2.1008
   92MOL0     H12642   4.332   6.172   2.434 -5.1859 -1.9375  1.2069
   92MOL0     H12643   4.460   6.333   2.667  0.2010 -2.7025 -0.1348
   92MOL0     H12644   4.516   6.316   2.511 -1.9314 -2.7503 -2.2010
   92MOL0     H12645   4.187   6.428   2.670  1.1233 -2.0839  0.2764
   92MOL0     H12646   4.001   6.684   2.523  1.5454  0.4971  1.8699
   92MOL0     H12647   3.963   6.520   2.566  0.8029 -1.2042 -0.6964
   92MOL0     H12648   4.012   6.587   2.265 -1.6637  3.1635  0.1965
   92MOL0     H12649   3.969   6.442   2.327  1.2725 -0.3462 -2.8843
   92MOL0     H12650   3.762   6.489   2.275 -0.3380 -0.3787  1.2303
   92MOL0     H12651   3.757   6.570   2.433  2.4430  0.6142  0.6449
   92MOL0     H12652   3.808   6.673   2.150  0.0798  0.8037  0.2647
   92MOL0     H12653   3.670   6.725   2.261 -0.7453 -1.4001  1.1153
   92MOL0     H12654   3.644   6.920   2.170 -0.3893  3.2498 -4.2934
   92MOL0     H12655   3.474   7.099   2.168  0.0319 -0.4126  2.1609
   92MOL0     H12656   3.585   7.136   2.029  2.0875 -0.5791  0.7290
   92MOL0     H12657   3.537   7.264   2.138 -2.6513 -1.3119 -1.7776
   92MOL0     H12658   4.009   7.550   2.446  4.8336  0.7751  0.3223
   92MOL0     H12659   4.080   7.794   2.461 -1.7494  1.8189  0.4873
   92MOL0     H12660   4.073   8.017   2.480  2.4742  0.4332  0.8113
   92MOL0     H12661   4.198   7.986   2.355 -0.4295 -1.0952 -1.2631
   92MOL0     H12662   3.998   8.211   2.347  0.5631  0.3253  0.0297
   92MOL0     H12663   4.149   8.232   2.415 -1.4331  0.4644  0.7708
   92MOL0     H12664   4.065   8.190   2.120 -2.4153 -1.6746  1.6645
   92MOL0     H12665   4.236   8.171   2.165 -1.6134 -3.8209 -0.7757
   92MOL0     H12666   4.222   8.383   2.275  2.0090 -2.0499 -2.5346
   92MOL0     H12667   4.045   8.414   2.224 -0.2816 -2.2139  0.4031
   92MOL0     H12668   4.300   8.378   2.038  0.2619  0.4859  0.5310
   92MOL0     H12669   4.130   8.398   1.996  0.3790  0.3917 -0.5376
   92MOL0     H12670   4.336   8.583   2.133 -0.6231  0.5016  1.3349
   92MOL0     H12671   4.166   8.620   2.139  0.0288  0.3616  0.9676
   92MOL0     H12672   4.144   8.581   1.898 -1.4941  0.8174  3.1337
   92MOL0     H12673   4.315   8.576   1.873 -2.7853  0.8375 -4.2562
   92MOL0     H12674   4.365   8.792   1.936 -0.7286 -2.4578  1.5166
   92MOL0     H12675   4.209   8.829   2.006 -1.6669 -1.2796  1.4606
   92MOL0     H12676   3.851   7.865   2.100  0.3558 -2.7239 -2.4137
   92MOL0     H12677   3.814   7.634   2.067 -0.4751 -1.5644  0.0477
   92MOL0     H12678   3.953   7.237   2.398  0.4444 -1.2926 -0.2145
   92MOL0     H12679   3.984   6.997   2.425  1.8672  5.3409  0.6323
   92MOL0     H12680   4.562   5.421   2.069  1.6136 -1.5445 -1.0945
   92MOL0     H12681   4.570   5.192   1.972 -3.8330 -0.6859 -1.9252
   92MOL0     H12682   4.352   4.756   2.103  0.6921  1.9025  0.3668
   92MOL0     H12683   4.318   4.533   2.059 -0.2826 -0.0399  0.2101
   92MOL0     H12684   4.361   4.318   2.127  4.1108  1.0761  0.6500
   92MOL0     H12685   4.306   4.265   1.970 -1.3678  0.7742  1.7592
   92MOL0     H12686   4.494   4.077   1.993  0.0621 -0.1327 -0.1775
   92MOL0     H12687   4.348   4.044   2.062  0.9988 -2.9911 -1.8424
   92MOL0     H12688   4.577   4.194   2.209 -1.5534  1.7482 -0.8416
   92MOL0     H12689   4.428   4.151   2.270  1.7911  2.4665  1.0480
   92MOL0     H12690   4.654   3.984   2.283 -0.9142  1.8065  2.3167
   92MOL0     H12691   4.577   3.924   2.139  1.2278 -2.5464  2.1878
   92MOL0     H12692   4.296   3.804   2.454  1.3610  1.5361  1.7144
   92MOL0     H12693   4.724   4.478   1.917  1.4727  3.4443 -0.2778
   92MOL0     H12694   4.818   4.788   1.899 -0.6231 -1.0577  0.0601
   92MOL0     H12695   4.857   4.747   2.073 -0.3364 -1.6035  0.8725
   92MOL0     H12696   4.880   4.627   1.946  0.9397 -0.9155  1.2553
   93MOL0     O12697  11.452   0.685  10.336 -0.2327  0.5713  0.4171
   93MOL0     C12698  11.457   0.806  10.315  0.3431 -0.4842  0.5047
   93MOL0     O12699  11.557   0.884  10.351  0.8695  0.2941 -0.5042
   93MOL0     C12700  11.660   0.848  10.445  0.1189  0.0680 -0.1270
   93MOL0     C12701  11.783   0.896  10.421 -0.1372 -1.3990 -0.3767
   93MOL0     C12702  11.897   0.867  10.508  0.1976 -0.0906 -0.3248
   93MOL0     C12703  11.874   0.813  10.636  0.2674  0.6941  0.4147
   93MOL0     O12704  11.968   0.809  10.737  0.6949  0.3622 -0.3873
   93MOL0     C12705  12.110   0.833  10.708 -0.4245  0.6559 -0.0036
   93MOL0     C12706  12.180   0.850  10.853 -0.7488 -0.3670  0.6012
   93MOL0     C12707  12.253   0.727  10.894  0.1000  1.2276 -0.0750
   93MOL0     C12708  12.276   0.729  11.047 -0.5848  0.1438  0.1919
   93MOL0     C12709  12.354   0.605  11.100  0.9082  0.4861 -0.2818
   93MOL0     C12710  12.272   0.482  11.127 -0.2487  1.3640  0.2638
   93MOL0     C12711  12.362   0.349  11.153 -0.0856  0.3370 -0.8604
   93MOL0     C12712  12.253   0.232  11.179 -0.0248 -0.5011  0.1922
   93MOL0     N12713  12.319   0.103  11.226 -0.1263 -0.3317  0.4036
   93MOL0     C12714  12.379   0.010  11.142  0.0449  0.4556 -0.3738
   93MOL0     C12715  12.422  -0.083  11.222  0.3347  0.1027 -0.4842
   93MOL0     C12716  12.507  -0.211  11.188 -0.6793 -0.4729  0.5435
   93MOL0     C12717  12.661  -0.210  11.225  0.2046  0.3597  0.3988
   93MOL0     C12718  12.730  -0.325  11.154  0.0711 -0.5833 -0.2997
   93MOL0     C12719  12.753  -0.311  11.004  1.2014  0.9315 -0.0425
   93MOL0     O12720  12.792  -0.176  10.971 -0.5521  0.8954 -0.3775
   93MOL0     C12721  12.870  -0.166  10.858 -0.8429  0.6655  0.0410
   93MOL0     C12722  12.974  -0.255  10.819 -0.2269  0.2863 -0.5246
   93MOL0     C12723  13.060  -0.230  10.711  0.4753  0.2541  0.6150
   93MOL0     C12724  13.162  -0.332  10.682  0.3962  0.8305  0.1526
   93MOL0     C12725  13.040  -0.114  10.633  0.1055  0.7042  0.4173
   93MOL0     C12726  13.116  -0.072  10.503 -0.1159  0.2019 -0.1453
   93MOL0     O12727  13.233  -0.137  10.469  0.0712  0.1593 -0.1852
   93MOL0     C12728  13.288  -0.134  10.343 -0.4756  0.9673 -0.7511
   93MOL0     C12729  13.223  -0.093  10.233 -0.2877 -0.4968  0.2957
   93MOL0     C12730  13.298  -0.089  10.113  0.0031  0.4992 -1.2194
   93MOL0     C12731  13.424  -0.151  10.101 -0.2562 -0.1251  0.0839
   93MOL0     O12732  13.495  -0.172   9.985 -0.3673  0.3533  0.9407
   93MOL0     C12733  13.439  -0.119   9.859 -0.9076  0.2691 -0.3231
   93MOL0     C12734  13.531  -0.178   9.745 -0.6255  0.4700 -0.1148
   93MOL0     C12735  13.448  -0.191   9.621 -0.5886 -1.0421 -1.2226
   93MOL0     C12736  13.532  -0.249   9.510  0.8536 -1.0083  0.6855
   93MOL0     C12737  13.462  -0.206   9.376  0.7129  0.1212 -0.9364
   93MOL0     C12738  13.521  -0.292   9.262 -0.3372  0.0957 -0.6303
   93MOL0     C12739  13.471  -0.439   9.253 -1.4616 -0.0829 -0.7765
   93MOL0     C12740  13.324  -0.449   9.243 -1.3550 -0.0812  0.0440
   93MOL0    Cl12741  13.277  -0.370   9.088  0.3364 -0.1703 -0.0919
   93MOL0     C12742  13.483  -0.209  10.220  0.2985  0.0870  0.0640
   93MOL0     C12743  13.407  -0.202  10.339  0.5944 -0.0980  0.8185
   93MOL0     O12744  13.065   0.022  10.441  1.1159 -0.5387  0.2145
   93MOL0     C12745  12.928  -0.024  10.665 -0.1609  0.8249  0.4974
   93MOL0     C12746  12.849  -0.050  10.782 -1.3703  0.0971 -0.1223
   93MOL0     N12747  12.363  -0.066  11.347  0.6537 -0.4900 -0.3643
   93MOL0     N12748  12.302   0.050  11.351 -0.0692 -0.0449  0.4889
   93MOL0     C12749  11.739   0.769  10.665 -0.0814  0.3145 -0.2436
   93MOL0     C12750  11.639   0.783  10.567 -0.5345 -0.1065 -0.7523
   93MOL0     C12751  11.349   0.860  10.222 -0.7872 -0.2624  0.3738
   93MOL0     C12752  11.235   0.785  10.203 -0.5008  0.1723  0.7099
   93MOL0     C12753  11.148   0.816  10.108 -0.4362  0.5474 -1.1896
   93MOL0     C12754  11.158   0.927  10.028 -0.0180  0.7173 -0.5761
   93MOL0     O12755  11.083   0.962   9.916  0.7421 -0.2495  0.1193
   93MOL0     C12756  10.958   0.903   9.892 -1.0750  1.3052 -0.3231
   93MOL0     C12757  10.886   0.980   9.790 -0.6759 -0.1644  0.0305
   93MOL0     C12758  10.736   0.940   9.797  0.4425  0.8717  0.4905
   93MOL0     C12759  10.640   1.030   9.737 -0.2105  0.1827 -0.6083
   93MOL0     C12760  10.500   0.986   9.735 -0.8035  0.1576 -0.5113
   93MOL0     C12761  10.384   0.958   9.742 -0.5481  0.5182 -0.1340
   93MOL0     C12762  11.271   1.008  10.059  0.0012  0.0871 -0.1174
   93MOL0     C12763  11.363   0.981  10.149 -0.1122  0.1221 -0.6419
   93MOL0     C12764  11.482   1.067  10.152 -0.1457 -0.0019  0.8027
   93MOL0     H12765  11.809   0.960  10.337  2.5867  0.3451  1.6105
   93MOL0     H12766  11.993   0.908  10.479  0.9194 -1.4074  0.0990
   93MOL0     H12767  12.133   0.929  10.660  3.2752  0.2432  0.7111
   93MOL0     H12768  12.158   0.750  10.655  3.5073  0.8460  2.8549
   93MOL0     H12769  12.260   0.925  10.852  1.9337 -3.0457  1.2131
   93MOL0     H12770  12.109   0.878  10.931 -1.3564  0.7106 -0.3045
   93MOL0     H12771  12.198   0.637  10.863  0.8904  1.3461 -1.9216
   93MOL0     H12772  12.348   0.701  10.847 -0.8055 -1.2577 -0.7192
   93MOL0     H12773  12.352   0.805  11.062  0.6558 -0.7108 -1.4236
   93MOL0     H12774  12.184   0.743  11.104 -0.8392  3.7053 -0.8700
   93MOL0     H12775  12.394   0.635  11.198  0.2639 -2.3042  0.9449
   93MOL0     H12776  12.436   0.575  11.035 -0.5917 -1.0200 -1.5617
   93MOL0     H12777  12.201   0.496  11.208 -1.5534 -0.7121 -0.4595
   93MOL0     H12778  12.228   0.469  11.028  0.1152  0.4020  0.2201
   93MOL0     H12779  12.422   0.359  11.244 -1.8922  1.9638  0.2247
   93MOL0     H12780  12.429   0.328  11.069 -1.6536  0.7912 -2.2805
   93MOL0     H12781  12.178   0.271  11.249 -0.7748  1.9069 -1.7950
   93MOL0     H12782  12.199   0.226  11.084 -0.0806  1.1545  0.0887
   93MOL0     H12783  12.414   0.035  11.043 -1.9888  0.9744 -1.0067
   93MOL0     H12784  12.487  -0.221  11.081 -2.9778 -1.7303  1.0072
   93MOL0     H12785  12.455  -0.286  11.249  0.1982 -0.7291  1.0007
   93MOL0     H12786  12.694  -0.115  11.184  0.5022  0.2698  0.4311
   93MOL0     H12787  12.689  -0.221  11.330  0.7685 -1.1218  0.1255
   93MOL0     H12788  12.831  -0.337  11.195  0.1698 -0.9692 -0.6466
   93MOL0     H12789  12.684  -0.420  11.185  3.0546 -1.4301  2.1326
   93MOL0     H12790  12.823  -0.391  10.980  2.5139  0.7220  3.7338
   93MOL0     H12791  12.662  -0.337  10.950  2.2000  2.0116 -2.3600
   93MOL0     H12792  12.991  -0.330  10.896 -0.3411  1.4998  0.7390
   93MOL0     H12793  13.132  -0.362  10.582  3.5255  1.7245 -1.1824
   93MOL0     H12794  13.155  -0.417  10.751  1.7135  1.4913  1.1488
   93MOL0     H12795  13.258  -0.280  10.681  1.1813 -0.5629 -0.8556
   93MOL0     H12796  13.123  -0.051  10.240 -0.4302 -0.9903  1.4586
   93MOL0     H12797  13.251  -0.039  10.030 -0.7132 -1.4523 -2.0521
   93MOL0     H12798  13.337  -0.157   9.846 -2.1814  4.1038 -3.3998
   93MOL0     H12799  13.436  -0.010   9.853 -0.2068  0.4458  1.8232
   93MOL0     H12800  13.616  -0.114   9.719  0.0880 -1.1717 -1.9940
   93MOL0     H12801  13.581  -0.265   9.788  0.8772  1.3924  0.0796
   93MOL0     H12802  13.417  -0.091   9.591 -0.3087 -0.8916 -1.0178
   93MOL0     H12803  13.360  -0.252   9.644 -2.2717  0.8672 -2.2937
   93MOL0     H12804  13.543  -0.357   9.521 -2.9043 -1.4894  1.2257
   93MOL0     H12805  13.633  -0.206   9.510  0.4658 -0.0316  1.7381
   93MOL0     H12806  13.353  -0.213   9.384  0.8229 -1.6455 -0.3906
   93MOL0     H12807  13.476  -0.102   9.346 -0.8373  1.0913  1.3739
   93MOL0     H12808  13.630  -0.304   9.261 -0.2738  0.3240  1.1082
   93MOL0     H12809  13.491  -0.240   9.171 -5.1187 -1.2099 -0.0523
   93MOL0     H12810  13.517  -0.500   9.331 -1.2388  0.6906 -0.2988
   93MOL0     H12811  13.503  -0.488   9.160  0.0103  0.9083 -0.8246
   93MOL0     H12812  13.272  -0.409   9.330 -0.2249  0.8175  0.3344
   93MOL0     H12813  13.309  -0.555   9.224 -4.3425 -0.2455  2.6243
   93MOL0     H12814  13.577  -0.262  10.213  1.2728  1.7284  0.2226
   93MOL0     H12815  13.449  -0.247  10.429  1.9056 -0.5581  0.0039
   93MOL0     H12816  12.900   0.064  10.609 -1.4160 -0.0774 -0.3514
   93MOL0     H12817  12.773   0.019  10.817  0.0172  1.3306  0.5242
   93MOL0     H12818  11.722   0.718  10.759 -2.0904 -0.5168 -0.9919
   93MOL0     H12819  11.541   0.742  10.591  0.1543 -1.0639  0.5664
   93MOL0     H12820  11.227   0.689  10.254 -2.1300 -0.6526 -0.9623
   93MOL0     H12821  11.064   0.749  10.093 -1.3089  1.9907 -3.0828
   93MOL0     H12822  10.963   0.796   9.868 -3.4510  1.2413 -0.8200
   93MOL0     H12823  10.903   0.922   9.985 -0.2039  1.0929  0.2498
   93MOL0     H12824  10.924   0.982   9.688 -2.5439  1.5186 -0.6868
   93MOL0     H12825  10.904   1.081   9.826  3.2126  0.2983 -2.6335
   93MOL0     H12826  10.741   0.846   9.741  1.9081  2.2055 -1.7689
   93MOL0     H12827  10.700   0.919   9.898 -4.8321 -0.3198 -1.3459
   93MOL0     H12828  10.665   1.075   9.641 -1.4500  3.4415  0.4505
   93MOL0     H12829  10.651   1.122   9.795  1.0445  0.5528 -1.3887
   93MOL0     H12830  10.283   0.933   9.766 -0.1059  1.5171  3.3018
   93MOL0     H12831  11.287   1.100  10.003  3.1381 -0.6879 -0.6814
   93MOL0     H12832  11.472   1.139  10.071 -0.3683 -3.6996 -2.8218
   93MOL0     H12833  11.472   1.114  10.250 -0.5036 -0.5921  1.0597
   93MOL0     H12834  11.582   1.022  10.147  0.3911  1.1294  1.1256
   94MOL0     O12835   5.040   2.718   6.153 -0.0766 -0.0030 -0.1166
   94MOL0     C12836   5.020   2.789   6.256  0.0087  0.4058 -0.1497
   94MOL0     O12837   5.091   2.779   6.376  0.0583  0.4493 -0.1465
   94MOL0     C12838   5.213   2.716   6.366 -0.0212  0.4551 -0.3143
   94MOL0     C12839   5.228   2.585   6.408  0.1775 -0.2748  0.5471
   94MOL0     C12840   5.349   2.505   6.406 -0.2287  0.3601  0.0867
   94MOL0     C12841   5.460   2.563   6.345 -0.5797 -0.0299 -0.3237
   94MOL0     O12842   5.580   2.499   6.348  0.6542 -0.1211 -0.6098
   94MOL0     C12843   5.664   2.536   6.461 -0.5630 -0.1008  0.4600
   94MOL0     C12844   5.809   2.472   6.443 -0.2625 -0.2766 -0.2617
   94MOL0     C12845   5.880   2.523   6.314 -0.0034 -0.2279 -0.4208
   94MOL0     C12846   5.972   2.424   6.253 -0.2281  0.4793  0.7979
   94MOL0     C12847   5.992   2.429   6.107  0.2797  0.0832  0.0653
   94MOL0     C12848   6.094   2.535   6.070  0.0973  0.2753 -0.3865
   94MOL0     C12849   6.136   2.512   5.930  0.3690  0.2994  1.2290
   94MOL0     C12850   6.031   2.548   5.833 -0.3703 -1.1817  0.7107
   94MOL0     N12851   6.088   2.548   5.697 -0.4990  0.5555  0.0992
   94MOL0     C12852   6.146   2.648   5.636 -0.2511 -0.4813 -0.2154
   94MOL0     C12853   6.194   2.598   5.516 -0.2694 -0.4951  0.4501
   94MOL0     C12854   6.258   2.683   5.409 -0.0352  0.1427 -0.1150
   94MOL0     C12855   6.369   2.772   5.469  0.3402 -0.1941  0.3969
   94MOL0     C12856   6.510   2.718   5.485 -0.5177 -0.0858 -0.0434
   94MOL0     C12857   6.612   2.831   5.533 -0.1054 -0.2769 -0.6155
   94MOL0     O12858   6.541   2.950   5.586  0.0194  1.4809 -0.5629
   94MOL0     C12859   6.604   3.067   5.566 -0.0246  0.1240  0.7457
   94MOL0     C12860   6.742   3.086   5.561  0.1549  0.7220  0.1167
   94MOL0     C12861   6.798   3.209   5.556  0.1004 -0.8170  0.3488
   94MOL0     C12862   6.950   3.221   5.537 -0.4605  0.5587  0.2409
   94MOL0     C12863   6.709   3.327   5.550 -0.3102 -0.0199 -0.2074
   94MOL0     C12864   6.750   3.468   5.529  0.1644  0.1262 -0.7807
   94MOL0     O12865   6.884   3.508   5.547 -0.0565  0.2229  0.0555
   94MOL0     C12866   6.907   3.634   5.495 -0.1885 -0.6350 -0.6741
   94MOL0     C12867   6.918   3.751   5.581  0.5042  0.7465 -0.6972
   94MOL0     C12868   6.946   3.871   5.523  1.3281 -0.6982 -0.2188
   94MOL0     C12869   6.958   3.884   5.379 -0.7428  0.3051  0.3473
   94MOL0     O12870   6.987   4.007   5.321 -0.4410 -0.0954  0.2986
   94MOL0     C12871   7.097   4.007   5.215 -0.5219  0.1979  0.3659
   94MOL0     C12872   7.075   4.105   5.097  1.0095  0.3146  0.2514
   94MOL0     C12873   7.057   4.242   5.168 -0.3308 -0.7815  0.2589
   94MOL0     C12874   7.080   4.367   5.072 -0.3705 -0.2811  0.3071
   94MOL0     C12875   7.124   4.490   5.149  0.0196 -0.2636  0.6102
   94MOL0     C12876   7.008   4.557   5.228  0.2835 -0.6215  0.0951
   94MOL0     C12877   7.039   4.697   5.262 -0.2020  0.2457 -0.0274
   94MOL0     C12878   6.938   4.751   5.358 -0.4827  0.1524  0.6901
   94MOL0    Cl12879   6.979   4.928   5.371  0.1709 -0.1271  0.2513
   94MOL0     C12880   6.961   3.767   5.298  0.0377 -0.4019  0.3863
   94MOL0     C12881   6.931   3.648   5.363  0.1421 -0.0140 -0.0123
   94MOL0     O12882   6.661   3.542   5.488  0.4505  0.3775  0.1099
   94MOL0     C12883   6.570   3.300   5.562 -0.2009 -0.0367 -0.7210
   94MOL0     C12884   6.521   3.171   5.565 -0.2819 -0.7468 -0.1002
   94MOL0     N12885   6.164   2.469   5.517 -0.2024  0.2426  1.0901
   94MOL0     N12886   6.104   2.432   5.622 -0.5308  0.5560  0.6044
   94MOL0     C12887   5.451   2.697   6.300  0.6096 -0.5198 -0.5150
   94MOL0     C12888   5.326   2.766   6.319  0.1908  0.2237 -0.3843
   94MOL0     C12889   4.885   2.850   6.273 -0.0463  0.6557  0.4727
   94MOL0     C12890   4.831   2.849   6.402  0.5017  0.2348 -1.0261
   94MOL0     C12891   4.699   2.888   6.420  0.0302 -0.0590  0.5495
   94MOL0     C12892   4.622   2.930   6.309  0.0832  0.0957 -0.6877
   94MOL0     O12893   4.489   2.969   6.315 -0.6508  0.6717  0.3766
   94MOL0     C12894   4.413   2.952   6.436 -0.4548  0.0060  0.7498
   94MOL0     C12895   4.433   3.056   6.539  0.5764  0.9805 -0.2267
   94MOL0     C12896   4.396   3.193   6.477  0.4555 -0.0096  0.5163
   94MOL0     C12897   4.438   3.306   6.578  0.0171  0.4081 -0.5528
   94MOL0     C12898   4.336   3.341   6.678  0.4062  0.7938  0.8590
   94MOL0     C12899   4.256   3.359   6.768  0.2365 -0.6359  0.2713
   94MOL0     C12900   4.671   2.934   6.177 -0.4470 -0.5627 -0.5789
   94MOL0     C12901   4.801   2.887   6.161  0.2205  0.3703 -0.8188
   94MOL0     C12902   4.860   2.909   6.027 -0.7055  0.3520 -0.0014
   94MOL0     H12903   5.134   2.543   6.444 -0.4620 -0.2158 -0.9887
   94MOL0     H12904   5.365   2.410   6.457 -1.0349  0.3952  0.4121
   94MOL0     H12905   5.619   2.488   6.548 -1.4254 -0.7222 -0.3122
   94MOL0     H12906   5.679   2.644   6.474  0.5447 -0.0136 -1.2200
   94MOL0     H12907   5.874   2.499   6.527  2.2286  0.3831 -2.2782
   94MOL0     H12908   5.791   2.365   6.429  1.4775 -0.8320  1.3000
   94MOL0     H12909   5.810   2.565   6.242 -2.8776 -0.2427  2.1337
   94MOL0     H12910   5.943   2.607   6.344  1.4475 -1.2679 -0.4143
   94MOL0     H12911   6.060   2.425   6.317  0.9364 -0.3261 -0.7409
   94MOL0     H12912   5.923   2.326   6.260  0.5993 -0.0475 -0.5227
   94MOL0     H12913   5.897   2.446   6.056  0.6289  2.8219  0.1953
   94MOL0     H12914   6.037   2.337   6.070 -2.0168  0.1693 -3.3171
   94MOL0     H12915   6.059   2.637   6.084 -1.3809 -0.1832 -0.5906
   94MOL0     H12916   6.182   2.516   6.133 -1.6106 -1.3259  1.6554
   94MOL0     H12917   6.156   2.405   5.917 -1.4822  0.1257 -0.8114
   94MOL0     H12918   6.226   2.571   5.911  0.3928  1.1920  3.7480
   94MOL0     H12919   5.944   2.482   5.837 -1.6976  0.3059 -1.6248
   94MOL0     H12920   5.987   2.646   5.853 -2.0542 -1.6718 -0.3016
   94MOL0     H12921   6.147   2.752   5.668 -0.3863 -0.1678 -1.2030
   94MOL0     H12922   6.188   2.743   5.350  0.3319 -0.4329 -1.1618
   94MOL0     H12923   6.299   2.621   5.329  2.5417  2.9141 -1.1530
   94MOL0     H12924   6.357   2.859   5.403 -0.4089 -0.6633 -0.1042
   94MOL0     H12925   6.335   2.805   5.568 -0.3897 -0.5988  0.2918
   94MOL0     H12926   6.509   2.650   5.571  0.4016  1.4913  1.2788
   94MOL0     H12927   6.546   2.675   5.391 -0.3014 -0.7814  0.3531
   94MOL0     H12928   6.676   2.796   5.614  0.9650  1.8512 -0.4731
   94MOL0     H12929   6.684   2.852   5.453  0.3578 -0.6075 -0.2872
   94MOL0     H12930   6.798   2.993   5.561  0.8277  1.1215  0.3418
   94MOL0     H12931   6.974   3.268   5.441 -1.5794 -0.5321 -0.6107
   94MOL0     H12932   6.996   3.121   5.547 -2.7417 -0.6222 -0.4468
   94MOL0     H12933   6.987   3.286   5.616  1.6462 -0.4291  0.1532
   94MOL0     H12934   6.915   3.738   5.689  1.0873  0.9381 -0.6573
   94MOL0     H12935   6.957   3.959   5.587  0.9453 -0.2784 -0.7196
   94MOL0     H12936   7.192   4.043   5.258  1.3193 -1.4932 -2.0412
   94MOL0     H12937   7.126   3.908   5.180 -2.1481 -0.1228 -0.1131
   94MOL0     H12938   7.153   4.091   5.021  0.4498 -1.2612 -0.0738
   94MOL0     H12939   6.986   4.086   5.037  0.7747  4.3627 -0.9957
   94MOL0     H12940   7.133   4.248   5.246 -1.1749  3.9790  1.0212
   94MOL0     H12941   6.954   4.236   5.206 -0.9077  2.2068 -0.5416
   94MOL0     H12942   6.990   4.393   5.015  0.4928  1.8675 -0.1505
   94MOL0     H12943   7.157   4.342   4.999  0.4653  2.0256  0.3496
   94MOL0     H12944   7.196   4.451   5.222 -0.1665 -2.5550 -0.3700
   94MOL0     H12945   7.164   4.567   5.082  1.6107 -0.6684  1.0455
   94MOL0     H12946   6.976   4.499   5.315 -2.6975  1.8335  0.8176
   94MOL0     H12947   6.916   4.558   5.169  1.1837 -0.8590 -1.3732
   94MOL0     H12948   7.047   4.763   5.175  3.0648  1.9486  1.4036
   94MOL0     H12949   7.133   4.697   5.317 -0.2376 -1.6776  0.0804
   94MOL0     H12950   6.953   4.686   5.445  0.5050  0.5258  0.8141
   94MOL0     H12951   6.838   4.749   5.313 -1.0134 -0.3805  1.8519
   94MOL0     H12952   6.982   3.767   5.191  0.4050  2.2585  0.3827
   94MOL0     H12953   6.932   3.553   5.310 -1.0155 -0.2400  0.3463
   94MOL0     H12954   6.504   3.385   5.579  0.0112 -0.1984  1.0836
   94MOL0     H12955   6.417   3.141   5.579 -0.3047 -0.6535 -0.0667
   94MOL0     H12956   5.533   2.752   6.255  0.6231  0.5479  0.7178
   94MOL0     H12957   5.328   2.867   6.281 -0.6362 -0.3763 -2.1093
   94MOL0     H12958   4.888   2.818   6.489 -1.2611  0.1705  0.1554
   94MOL0     H12959   4.655   2.914   6.516  0.5400  1.7192  0.3401
   94MOL0     H12960   4.314   2.956   6.390  0.4786  0.4344 -1.3587
   94MOL0     H12961   4.421   2.854   6.484 -1.6182  0.1722  1.3236
   94MOL0     H12962   4.536   3.065   6.573  0.2908  0.3140  0.8684
   94MOL0     H12963   4.367   3.027   6.621 -2.1075 -0.0914 -2.5719
   94MOL0     H12964   4.439   3.207   6.378  2.2799  1.4933  1.4562
   94MOL0     H12965   4.288   3.191   6.461  0.7876  0.6470 -2.3543
   94MOL0     H12966   4.469   3.395   6.523  2.9204  0.0368  0.3148
   94MOL0     H12967   4.525   3.265   6.629 -1.7871  0.6508  3.0265
   94MOL0     H12968   4.186   3.376   6.848  1.0773  0.5843  0.7904
   94MOL0     H12969   4.605   2.978   6.103  0.8425 -0.8369 -1.9259
   94MOL0     H12970   4.906   2.821   5.981 -2.0809 -2.1043  2.9365
   94MOL0     H12971   4.778   2.949   5.967 -2.6656  0.5720  2.6539
   94MOL0     H12972   4.941   2.981   6.041  0.3842 -0.4471 -1.7176
   95MOL0     O12973   8.797   0.137   0.398 -0.1875  0.6955 -0.3005
   95MOL0     C12974   8.867   0.059   0.457 -1.1625  1.0157 -0.5504
   95MOL0     O12975   8.815  -0.033   0.555 -0.0589 -0.4476 -0.0511
   95MOL0     C12976   8.683  -0.013   0.594  0.7066 -0.2906 -0.0067
   95MOL0     C12977   8.620  -0.130   0.625 -1.3333  0.3553 -0.4936
   95MOL0     C12978   8.491  -0.132   0.682  0.1689  0.6514  0.0866
   95MOL0     C12979   8.442  -0.011   0.734 -0.0423  0.1102  0.0314
   95MOL0     O12980   8.327  -0.028   0.801 -0.3032 -0.2321  0.1286
   95MOL0     C12981   8.258   0.083   0.842  0.7597  0.5366  0.2273
   95MOL0     C12982   8.124   0.028   0.897  1.0224 -0.7347  0.6515
   95MOL0     C12983   8.022  -0.009   0.789 -0.1416 -0.7919 -0.0641
   95MOL0     C12984   7.937  -0.127   0.827  0.4160  1.0586  1.0163
   95MOL0     C12985   7.847  -0.167   0.709 -0.2075  0.2067 -0.0292
   95MOL0     C12986   7.737  -0.258   0.754 -0.6867  0.3979 -0.0377
   95MOL0     C12987   7.777  -0.402   0.793  0.3749 -0.6617 -0.2325
   95MOL0     C12988   7.886  -0.471   0.714  1.0606  0.3152 -0.3653
   95MOL0     N12989   7.888  -0.615   0.717 -0.7339  0.4286  0.1999
   95MOL0     C12990   7.797  -0.707   0.675 -0.1212 -0.3019 -0.8586
   95MOL0     C12991   7.860  -0.828   0.672  0.1084 -0.0355 -0.3097
   95MOL0     C12992   7.822  -0.959   0.612  0.6531  0.0989  0.4692
   95MOL0     C12993   7.674  -0.996   0.652 -0.3508  0.5216 -0.2118
   95MOL0     C12994   7.671  -1.076   0.784 -0.2055 -0.6505 -0.7652
   95MOL0     C12995   7.534  -1.103   0.841  0.4555 -0.6250  0.1342
   95MOL0     O12996   7.462  -1.196   0.759  0.0920 -0.0976 -0.4737
   95MOL0     C12997   7.327  -1.217   0.792  0.8335 -0.7036  0.2363
   95MOL0     C12998   7.251  -1.167   0.897  0.1235 -0.8786 -1.0522
   95MOL0     C12999   7.126  -1.213   0.922  0.1883  0.6378  0.0302
   95MOL0     C13000   7.051  -1.156   1.044  0.3157  0.8616 -0.1684
   95MOL0     C13001   7.072  -1.323   0.852 -0.1862  0.0321 -0.3422
   95MOL0     C13002   6.947  -1.398   0.876  0.0126 -1.1021 -0.2314
   95MOL0     O13003   6.858  -1.423   0.773 -0.5553 -0.0465 -0.3480
   95MOL0     C13004   6.750  -1.504   0.790 -0.3543  0.1191  0.4828
   95MOL0     C13005   6.755  -1.634   0.745 -0.3455 -0.6204 -0.1176
   95MOL0     C13006   6.640  -1.713   0.752  0.3583  0.4310  0.7104
   95MOL0     C13007   6.528  -1.659   0.821 -0.1373 -1.0333 -0.4062
   95MOL0     O13008   6.411  -1.723   0.829 -0.6127  0.4221 -0.3423
   95MOL0     C13009   6.405  -1.868   0.802 -0.1753  0.0773 -0.6289
   95MOL0     C13010   6.275  -1.928   0.841  0.3126  0.0001 -0.1495
   95MOL0     C13011   6.265  -1.931   0.989  0.1526  1.0101  0.3741
   95MOL0     C13012   6.253  -1.791   1.048 -0.0633 -0.4318 -0.4217
   95MOL0     C13013   6.191  -1.784   1.195 -0.5222 -0.7469  0.2836
   95MOL0     C13014   6.032  -1.775   1.186 -0.4513 -0.1006 -0.6112
   95MOL0     C13015   5.964  -1.788   1.319 -0.1364 -0.0425 -0.8020
   95MOL0     C13016   5.978  -1.927   1.384 -0.3675  0.3851 -0.4537
   95MOL0    Cl13017   5.946  -2.060   1.270 -0.2522  0.6434 -0.1321
   95MOL0     C13018   6.530  -1.527   0.870  0.5711 -0.0897 -0.2504
   95MOL0     C13019   6.641  -1.455   0.865  0.2616 -0.4544  1.3061
   95MOL0     O13020   6.941  -1.456   0.984 -0.6332  1.2531  0.0991
   95MOL0     C13021   7.138  -1.353   0.739  0.4916  1.0286 -0.3638
   95MOL0     C13022   7.260  -1.300   0.705  0.7011 -0.8956 -0.0723
   95MOL0     N13023   7.988  -0.803   0.726  0.0920  0.4770  0.4431
   95MOL0     N13024   8.007  -0.677   0.744  0.3895  0.8346  0.5975
   95MOL0     C13025   8.502   0.108   0.705 -0.2992  0.7520 -0.7836
   95MOL0     C13026   8.623   0.107   0.635 -0.1374 -0.5095 -0.2424
   95MOL0     C13027   9.014   0.072   0.430  0.8981  0.1732 -0.1103
   95MOL0     C13028   9.064   0.192   0.382 -0.5003 -0.5636 -0.2002
   95MOL0     C13029   9.198   0.211   0.341  0.4764  0.7640  0.3339
   95MOL0     C13030   9.283   0.106   0.354 -0.1896 -0.6038 -0.1904
   95MOL0     O13031   9.410   0.109   0.329  0.1696 -0.0041  0.3991
   95MOL0     C13032   9.491   0.215   0.294 -0.7737 -0.2253  0.6551
   95MOL0     C13033   9.637   0.195   0.323 -0.2808  0.4183  0.0568
   95MOL0     C13034   9.722   0.291   0.244 -0.4532 -0.7543  0.1116
   95MOL0     C13035   9.752   0.422   0.323  0.3702 -0.3052 -0.0615
   95MOL0     C13036   9.640   0.513   0.308  0.1417  0.2132 -0.5357
   95MOL0     C13037   9.537   0.580   0.328  0.8116  0.0028 -0.3366
   95MOL0     C13038   9.241  -0.014   0.413  0.5215 -0.1285  0.5563
   95MOL0     C13039   9.105  -0.028   0.462  0.0500  0.2657  0.0262
   95MOL0     C13040   9.076  -0.158   0.535  0.3103  0.0136 -0.1679
   95MOL0     H13041   8.678  -0.219   0.601  0.8238  1.6836 -0.4446
   95MOL0     H13042   8.433  -0.221   0.704  0.6169  0.5334  0.8159
   95MOL0     H13043   8.242   0.157   0.762 -0.5087  0.6468  0.5612
   95MOL0     H13044   8.322   0.128   0.918 -0.9169 -0.5373  2.3643
   95MOL0     H13045   8.129  -0.061   0.960  0.1147 -0.4662  1.1153
   95MOL0     H13046   8.092   0.107   0.965 -0.0760  1.5040 -2.2347
   95MOL0     H13047   7.951   0.075   0.783 -2.1223 -2.3867 -0.0030
   95MOL0     H13048   8.067  -0.022   0.690 -0.7667  5.0064 -1.4823
   95MOL0     H13049   7.991  -0.215   0.862 -1.9301 -0.3011  1.4454
   95MOL0     H13050   7.876  -0.094   0.912 -2.2559 -1.0199  0.0634
   95MOL0     H13051   7.911  -0.194   0.625  3.2699 -0.9644  2.7089
   95MOL0     H13052   7.802  -0.075   0.673 -1.2501 -0.4683 -0.5043
   95MOL0     H13053   7.682  -0.216   0.839 -0.7007 -2.0134  1.2235
   95MOL0     H13054   7.671  -0.272   0.668  0.2257 -4.1731 -0.2431
   95MOL0     H13055   7.683  -0.458   0.790  0.2543 -0.4971 -3.5922
   95MOL0     H13056   7.815  -0.394   0.895 -0.2580  0.1518 -0.0578
   95MOL0     H13057   7.871  -0.443   0.609  0.8761  1.4189 -0.0537
   95MOL0     H13058   7.986  -0.434   0.740  2.3334 -1.2587 -2.6510
   95MOL0     H13059   7.694  -0.694   0.642 -0.8714 -1.7307  0.7377
   95MOL0     H13060   7.886  -1.046   0.630 -1.4210 -1.6001  0.0679
   95MOL0     H13061   7.825  -0.939   0.505  3.6978  2.6449  0.8910
   95MOL0     H13062   7.614  -0.904   0.653  0.6180  1.1722  0.9088
   95MOL0     H13063   7.644  -1.076   0.584 -0.7354 -2.0567  2.7759
   95MOL0     H13064   7.731  -1.168   0.782  0.0212 -0.5040 -2.2480
   95MOL0     H13065   7.731  -1.015   0.852  0.7289 -0.8359 -1.3962
   95MOL0     H13066   7.540  -1.130   0.947  1.2400  0.0602  0.2719
   95MOL0     H13067   7.484  -1.007   0.825 -0.7846 -1.4353 -1.0822
   95MOL0     H13068   7.296  -1.104   0.974 -0.8414 -1.3670 -0.0505
   95MOL0     H13069   7.105  -1.080   1.102 -2.2585  1.9148  1.0301
   95MOL0     H13070   7.041  -1.248   1.104  0.1887 -0.0090 -1.4970
   95MOL0     H13071   6.954  -1.113   1.017 -1.2601 -3.7096 -2.8452
   95MOL0     H13072   6.842  -1.665   0.687  1.2867 -1.4863  2.5891
   95MOL0     H13073   6.637  -1.809   0.701  5.5132  1.5708 -2.4483
   95MOL0     H13074   6.417  -1.875   0.693  0.6061 -1.5310 -0.4668
   95MOL0     H13075   6.494  -1.911   0.848  0.4681  0.5214 -1.4305
   95MOL0     H13076   6.191  -1.880   0.790  0.7961 -2.0062 -3.1006
   95MOL0     H13077   6.261  -2.030   0.804 -1.1521 -0.1425  0.7084
   95MOL0     H13078   6.346  -1.993   1.028  0.1456  0.5593 -0.3046
   95MOL0     H13079   6.178  -1.990   1.019 -0.5306  1.6463 -0.3077
   95MOL0     H13080   6.190  -1.734   0.979  1.8841  1.0661 -1.0665
   95MOL0     H13081   6.351  -1.746   1.067  0.5289 -1.8823  0.1068
   95MOL0     H13082   6.233  -1.865   1.255 -0.0401  0.0128  1.0000
   95MOL0     H13083   6.231  -1.693   1.242  0.3696  0.1117 -2.0019
   95MOL0     H13084   5.986  -1.861   1.136 -2.3246  0.2024  0.4707
   95MOL0     H13085   5.995  -1.693   1.124 -0.2890 -2.2189 -3.7527
   95MOL0     H13086   5.858  -1.776   1.295 -0.3532 -1.3977 -0.6095
   95MOL0     H13087   5.999  -1.713   1.391  0.6316 -2.6937  1.7566
   95MOL0     H13088   5.903  -1.933   1.463 -0.9604  1.0336 -0.9499
   95MOL0     H13089   6.077  -1.947   1.427 -0.5643 -2.9560 -1.3310
   95MOL0     H13090   6.438  -1.484   0.909  0.1109 -1.1723 -0.0893
   95MOL0     H13091   6.648  -1.353   0.902  1.1610 -0.1840  0.4328
   95MOL0     H13092   7.092  -1.426   0.673 -1.7624  1.5975  0.5033
   95MOL0     H13093   7.313  -1.337   0.618  2.0518  2.4550 -0.8317
   95MOL0     H13094   8.471   0.202   0.751  1.9665  0.4961  1.4924
   95MOL0     H13095   8.671   0.204   0.622  0.3696 -0.3946  2.0886
   95MOL0     H13096   8.988   0.258   0.341 -0.1669  0.0997  0.2339
   95MOL0     H13097   9.218   0.309   0.298 -1.0319  0.8971 -0.1123
   95MOL0     H13098   9.480   0.241   0.189 -1.5135  1.9534  1.2285
   95MOL0     H13099   9.460   0.307   0.344 -1.8039  0.5580 -1.3656
   95MOL0     H13100   9.669   0.096   0.290  1.1385  1.0485 -0.5305
   95MOL0     H13101   9.665   0.192   0.428 -0.5092 -0.5441  0.1021
   95MOL0     H13102   9.813   0.231   0.236 -1.0065 -1.4966 -0.8876
   95MOL0     H13103   9.690   0.316   0.142 -4.0906  2.2957  1.7325
   95MOL0     H13104   9.839   0.459   0.268 -1.0653 -0.3627 -2.4986
   95MOL0     H13105   9.776   0.404   0.428 -3.0440 -0.5499  0.7868
   95MOL0     H13106   9.442   0.622   0.351  1.6190  1.0981  1.1864
   95MOL0     H13107   9.309  -0.099   0.409 -0.0997 -0.6307  0.5694
   95MOL0     H13108   8.974  -0.191   0.511 -1.1698  2.8254  1.6679
   95MOL0     H13109   9.147  -0.232   0.496  1.7788  0.2418  1.9247
   95MOL0     H13110   9.088  -0.140   0.642 -0.6910  3.7771 -0.5260
   96MOL0     O13111  10.073   9.279  10.914  0.1065 -0.3769 -0.4263
   96MOL0     C13112  10.095   9.328  11.028 -0.5876  0.8616 -0.7834
   96MOL0     O13113  10.099   9.466  11.054 -0.5456  0.7569  0.2830
   96MOL0     C13114  10.063   9.552  10.951 -0.4746  0.2495 -0.0038
   96MOL0     C13115  10.121   9.681  10.948 -0.5344  0.1199 -0.9406
   96MOL0     C13116  10.100   9.770  10.844  0.4504  0.0498  0.0532
   96MOL0     C13117  10.019   9.735  10.736  0.9032  0.4045 -0.4540
   96MOL0     O13118  10.005   9.814  10.621 -0.2452 -0.5498 -0.9822
   96MOL0     C13119   9.906   9.798  10.518 -0.7300  0.2856 -0.1515
   96MOL0     C13120   9.919   9.900  10.408  0.6409  0.5779  0.8131
   96MOL0     C13121  10.048   9.857  10.331 -0.2690  1.0161  0.1392
   96MOL0     C13122  10.080   9.941  10.208 -1.1890 -0.9394  1.1167
   96MOL0     C13123  10.015   9.896  10.077  0.0148  0.0779 -1.2342
   96MOL0     C13124  10.077   9.964   9.957  1.2183 -0.4289 -0.6166
   96MOL0     C13125   9.999   9.921   9.840 -0.2346 -0.5355  0.0245
   96MOL0     C13126  10.058   9.980   9.712 -0.2939  0.1426  0.2299
   96MOL0     N13127  10.069  10.131   9.703 -0.0424 -0.8940  0.8731
   96MOL0     C13128   9.960  10.212   9.710 -0.9342 -0.2019  0.4394
   96MOL0     C13129  10.021  10.332   9.724  0.2536 -0.1865 -0.0309
   96MOL0     C13130   9.962  10.467   9.697  0.6049  0.7435 -0.2458
   96MOL0     C13131   9.841  10.515   9.788 -0.0532 -0.7101 -0.4497
   96MOL0     C13132   9.851  10.466   9.933 -0.2783  0.1211 -0.5021
   96MOL0     C13133   9.731  10.516  10.025  0.7009  0.5607 -0.1894
   96MOL0     O13134   9.743  10.655  10.058 -0.0797 -0.1770 -0.9213
   96MOL0     C13135   9.628  10.738  10.046  0.3958  0.7551 -0.7338
   96MOL0     C13136   9.624  10.841   9.969  0.4618  0.1015  0.3793
   96MOL0     C13137   9.507  10.920   9.943 -0.2242  0.2320 -0.5683
   96MOL0     C13138   9.525  11.045   9.851  0.1754 -0.2125 -0.3486
   96MOL0     C13139   9.387  10.889  10.020  0.7447 -0.7549  0.1536
   96MOL0     C13140   9.260  10.971  10.012 -0.0828  1.0056  0.2844
   96MOL0     O13141   9.155  10.912  10.066 -0.0392  0.1760 -1.1225
   96MOL0     C13142   9.045  10.988  10.088 -0.8162 -1.1345  0.1136
   96MOL0     C13143   8.941  10.985   9.993  0.3001 -0.3194  0.5103
   96MOL0     C13144   8.835  11.073  10.014  0.4279  0.9061  0.2337
   96MOL0     C13145   8.819  11.152  10.126  0.9180  0.8394  1.1090
   96MOL0     O13146   8.704  11.218  10.168 -0.5010  0.5470  0.0562
   96MOL0     C13147   8.602  11.231  10.079  0.3892 -0.2506  0.1383
   96MOL0     C13148   8.637  11.352   9.977  1.3519 -0.2028 -0.1154
   96MOL0     C13149   8.728  11.466  10.028  0.0541 -0.6669  0.2855
   96MOL0     C13150   8.660  11.539  10.145  0.3358 -0.4470  0.0688
   96MOL0     C13151   8.756  11.641  10.210  0.2041  0.5786 -0.1414
   96MOL0     C13152   8.773  11.770  10.140  0.0838  0.0735  0.0671
   96MOL0     C13153   8.660  11.881  10.173  0.4725  0.8593 -0.3209
   96MOL0     C13154   8.624  11.971  10.058 -1.1536 -0.9016  0.3465
   96MOL0    Cl13155   8.489  12.083  10.103  0.1527 -0.2647  0.2363
   96MOL0     C13156   8.920  11.148  10.215  0.7535 -0.4331  0.5672
   96MOL0     C13157   9.031  11.071  10.196  0.7727  0.1770  0.0435
   96MOL0     O13158   9.263  11.082   9.961 -0.1110 -0.5603 -0.1158
   96MOL0     C13159   9.403  10.787  10.109 -1.3001 -0.0737  0.2570
   96MOL0     C13160   9.517  10.706  10.117 -0.2417  1.2355  0.3757
   96MOL0     N13161  10.158  10.324   9.740 -0.5088  0.2532  0.2930
   96MOL0     N13162  10.185  10.198   9.739  0.3561 -0.4131  0.1860
   96MOL0     C13163   9.954   9.613  10.743  0.1905  0.3132 -0.3857
   96MOL0     C13164   9.969   9.519  10.850  0.1433  0.2122  1.4178
   96MOL0     C13165  10.128   9.234  11.141 -0.2535 -0.1368  0.2464
   96MOL0     C13166  10.184   9.286  11.255 -0.2761 -0.9603  0.4314
   96MOL0     C13167  10.214   9.218  11.368  0.4386 -0.7584 -0.3450
   96MOL0     C13168  10.189   9.082  11.375  0.1300  0.0065 -0.3244
   96MOL0     O13169  10.211   9.003  11.488 -0.0241 -0.3687 -0.4179
   96MOL0     C13170  10.186   9.067  11.618 -0.6289  0.0909  0.4276
   96MOL0     C13171  10.094   8.961  11.675 -0.4647  0.4096  0.4632
   96MOL0     C13172  10.077   8.973  11.818 -0.4188 -0.1704 -0.3881
   96MOL0     C13173   9.979   8.869  11.872  0.8043 -1.0854 -0.6427
   96MOL0     C13174  10.026   8.732  11.883  0.5598 -0.1769  0.0737
   96MOL0     C13175  10.056   8.622  11.879 -0.1473  0.8518  0.0629
   96MOL0     C13176  10.136   9.017  11.262  0.6068 -0.0749 -0.1244
   96MOL0     C13177  10.106   9.095  11.142 -0.3372 -0.8106 -0.3838
   96MOL0     C13178  10.034   9.027  11.027 -0.2120  0.6721 -0.9222
   96MOL0     H13179  10.174   9.712  11.037 -1.4327 -0.5757 -0.1427
   96MOL0     H13180  10.147   9.867  10.838  0.3715 -0.0148 -2.0661
   96MOL0     H13181   9.812   9.830  10.563  1.5893  3.3331  2.9865
   96MOL0     H13182   9.908   9.692  10.488 -2.0796  0.8323 -2.3584
   96MOL0     H13183   9.831   9.903  10.344 -0.6095 -3.0390  2.1417
   96MOL0     H13184   9.919   9.998  10.457  0.8476  0.6052  0.7595
   96MOL0     H13185  10.132   9.863  10.401 -1.3625  0.7666  1.5116
   96MOL0     H13186  10.030   9.753  10.300  0.0303  0.9288  0.2472
   96MOL0     H13187  10.061  10.048  10.220  0.0008 -0.5180 -0.4259
   96MOL0     H13188  10.188   9.937  10.192 -1.3081 -0.9555  0.2444
   96MOL0     H13189   9.906   9.908  10.079 -0.6093 -3.9300  0.7002
   96MOL0     H13190  10.053   9.794  10.067  1.8872  0.5336  0.5640
   96MOL0     H13191  10.065  10.072   9.966 -0.2674 -0.7200  1.7433
   96MOL0     H13192  10.181   9.939   9.932  0.8638  1.1138 -4.2365
   96MOL0     H13193   9.893   9.944   9.851 -0.4310 -1.8327  0.9787
   96MOL0     H13194  10.011   9.813   9.827 -0.5283 -0.2350 -4.1538
   96MOL0     H13195  10.153   9.928   9.696 -0.6995 -0.4430 -0.3250
   96MOL0     H13196   9.994   9.948   9.630 -0.9480  0.1416  0.7352
   96MOL0     H13197   9.854  10.191   9.694 -0.5822 -2.3523  0.6113
   96MOL0     H13198   9.932  10.459   9.593  1.2798 -0.6149 -0.3594
   96MOL0     H13199  10.044  10.540   9.701  4.4584 -2.9796 -2.1894
   96MOL0     H13200   9.838  10.625   9.786 -2.1425 -0.7123 -0.2450
   96MOL0     H13201   9.749  10.483   9.739 -0.6113  0.9000 -0.5231
   96MOL0     H13202   9.848  10.356   9.933 -1.6207  0.1397  0.1219
   96MOL0     H13203   9.938  10.502   9.989 -0.0447 -1.7431  0.4120
   96MOL0     H13204   9.641  10.485   9.972  0.5716 -1.8933  1.3117
   96MOL0     H13205   9.734  10.463  10.121  1.8513  2.0194  0.6179
   96MOL0     H13206   9.716  10.883   9.929 -1.0067  2.7340 -0.4843
   96MOL0     H13207   9.505  11.140   9.902 -1.6337 -0.6550 -0.1694
   96MOL0     H13208   9.460  11.032   9.764  0.0323 -1.5155 -0.0639
   96MOL0     H13209   9.628  11.050   9.814  0.2984  2.5801  0.1200
   96MOL0     H13210   8.940  10.919   9.907 -3.4782  0.0828  0.0972
   96MOL0     H13211   8.762  11.074   9.933 -0.1269  0.6255  0.7235
   96MOL0     H13212   8.568  11.139  10.030 -0.0394 -0.0665  0.0879
   96MOL0     H13213   8.523  11.281  10.135  1.7776  1.7145  0.4485
   96MOL0     H13214   8.677  11.312   9.883 -0.9141  0.2479 -1.3528
   96MOL0     H13215   8.551  11.407   9.938 -0.2077 -2.3781  0.0369
   96MOL0     H13216   8.737  11.533   9.942  0.4079 -3.4394 -2.0269
   96MOL0     H13217   8.832  11.438  10.050  1.3130  3.4898  0.4592
   96MOL0     H13218   8.639  11.470  10.227 -0.8288 -1.2328 -0.8672
   96MOL0     H13219   8.564  11.587  10.124 -0.3811 -2.2096 -0.8807
   96MOL0     H13220   8.720  11.672  10.308  0.5184 -0.7787  0.4343
   96MOL0     H13221   8.848  11.585  10.232  0.9532  0.1060 -3.7134
   96MOL0     H13222   8.780  11.753  10.032  0.4008 -0.3198  0.1467
   96MOL0     H13223   8.867  11.820  10.164  0.0615  1.3376 -2.1677
   96MOL0     H13224   8.696  11.930  10.264  2.4068 -0.9933  0.0053
   96MOL0     H13225   8.567  11.829  10.198  1.8377 -1.1374  1.0348
   96MOL0     H13226   8.593  11.912   9.972 -0.6251  0.8234 -1.1011
   96MOL0     H13227   8.707  12.036  10.028 -2.0636  0.3260  0.4229
   96MOL0     H13228   8.912  11.212  10.303 -0.6913  2.1859 -1.3333
   96MOL0     H13229   9.111  11.061  10.269  0.4843 -0.5922  0.2622
   96MOL0     H13230   9.314  10.765  10.167 -2.8996  1.5777 -1.4420
   96MOL0     H13231   9.513  10.614  10.175 -2.8269  0.5191 -0.8175
   96MOL0     H13232   9.886   9.591  10.660 -0.8776  0.1367  0.5118
   96MOL0     H13233   9.910   9.428  10.849  3.7936 -2.4312  2.7923
   96MOL0     H13234  10.210   9.391  11.256 -0.8458 -0.7901  2.3690
   96MOL0     H13235  10.247   9.283  11.448  0.7657 -1.5390  0.1721
   96MOL0     H13236  10.282   9.067  11.670  0.5164 -2.0845 -1.4844
   96MOL0     H13237  10.154   9.170  11.601  0.0263  0.4608  1.3458
   96MOL0     H13238  10.125   8.858  11.654 -3.0639 -0.1527 -1.0907
   96MOL0     H13239   9.996   8.959  11.626 -0.4796 -2.1122  0.4186
   96MOL0     H13240  10.180   8.969  11.854 -1.1463 -2.2243  1.7037
   96MOL0     H13241  10.043   9.074  11.842  1.9038  0.2313  1.5561
   96MOL0     H13242   9.882   8.874  11.822  0.4484  0.2054  0.1430
   96MOL0     H13243   9.967   8.913  11.971  4.2552  1.3440 -1.1412
   96MOL0     H13244  10.085   8.519  11.874  2.0795  1.3678  1.0873
   96MOL0     H13245  10.128   8.909  11.257  0.9200 -0.0811 -0.6262
   96MOL0     H13246   9.939   9.068  10.989 -0.9763 -1.6172 -1.6373
   96MOL0     H13247  10.106   9.027  10.945  1.2081  2.0873  0.2506
   96MOL0     H13248  10.012   8.923  11.055 -0.6108  1.0922  0.4207
   97MOL0     O13249   9.838  10.576   5.918 -0.3021 -0.4509  0.1457
   97MOL0     C13250   9.934  10.513   5.885 -0.3948  0.3652 -0.1547
   97MOL0     O13251  10.015  10.539   5.786 -0.6567  0.0272  0.0093
   97MOL0     C13252   9.978  10.645   5.694 -0.5152 -0.4290  0.0428
   97MOL0     C13253   9.983  10.621   5.555 -1.4192  0.6223  0.6062
   97MOL0     C13254   9.949  10.719   5.463 -0.3573  0.6428  0.3709
   97MOL0     C13255   9.912  10.844   5.503 -0.2540  0.2861  0.2931
   97MOL0     O13256   9.869  10.929   5.411 -0.0664 -0.7205  0.4731
   97MOL0     C13257   9.729  10.938   5.423 -0.8338 -0.5184  0.3158
   97MOL0     C13258   9.680  11.043   5.318  0.5082  0.0589  0.3493
   97MOL0     C13259   9.529  11.072   5.335 -0.0735  0.2251 -1.0100
   97MOL0     C13260   9.475  11.142   5.211  0.9717 -0.0938 -0.1778
   97MOL0     C13261   9.326  11.143   5.200  0.6680 -0.5184 -0.1252
   97MOL0     C13262   9.296  11.254   5.103 -0.0833 -0.6370  0.2895
   97MOL0     C13263   9.340  11.229   4.959  0.4210  0.1973  0.0808
   97MOL0     C13264   9.251  11.293   4.843  0.8379  0.0432 -0.2050
   97MOL0     N13265   9.247  11.437   4.869  0.2038 -0.8457  0.0571
   97MOL0     C13266   9.352  11.520   4.903 -0.2921  0.5133 -0.3171
   97MOL0     C13267   9.285  11.627   4.937 -0.1432 -0.2594 -0.9238
   97MOL0     C13268   9.360  11.750   4.980  0.0681  0.1202  0.0011
   97MOL0     C13269   9.447  11.836   4.886  0.0472 -0.3729 -0.1372
   97MOL0     C13270   9.519  11.775   4.763  0.7132  0.3764 -0.3618
   97MOL0     C13271   9.600  11.868   4.665  0.5113  0.1603 -0.2422
   97MOL0     O13272   9.672  11.967   4.734  0.5944  0.1546 -0.5564
   97MOL0     C13273   9.608  12.088   4.768  0.1812 -0.2025 -0.0982
   97MOL0     C13274   9.533  12.163   4.671  0.5351  0.3380  0.7559
   97MOL0     C13275   9.477  12.288   4.707  0.2448 -0.2304 -0.2050
   97MOL0     C13276   9.425  12.369   4.594 -0.3122 -0.8432 -0.5118
   97MOL0     C13277   9.474  12.335   4.844 -0.3425 -0.0889 -0.0601
   97MOL0     C13278   9.414  12.463   4.905  0.0359  1.0623  0.6206
   97MOL0     O13279   9.477  12.508   5.023 -0.2090  0.8307  0.0537
   97MOL0     C13280   9.407  12.605   5.093  1.1421 -1.0232 -0.7130
   97MOL0     C13281   9.299  12.562   5.179 -0.4651  0.4537  0.1773
   97MOL0     C13282   9.249  12.648   5.266  0.1620 -0.0095  0.3357
   97MOL0     C13283   9.302  12.778   5.290 -1.0218 -0.0765  0.6239
   97MOL0     O13284   9.256  12.844   5.403  0.2360  0.2967  0.4119
   97MOL0     C13285   9.298  12.979   5.433  0.6042 -0.7858  0.1074
   97MOL0     C13286   9.195  13.052   5.532 -0.3037 -0.2400 -0.1189
   97MOL0     C13287   9.061  13.096   5.475 -0.5514 -0.4186 -1.0454
   97MOL0     C13288   8.966  12.971   5.467  0.7709  0.9706  0.0514
   97MOL0     C13289   8.833  13.022   5.414  0.6428 -1.0781 -0.0162
   97MOL0     C13290   8.738  12.903   5.411  0.8980  0.3898  0.1693
   97MOL0     C13291   8.587  12.938   5.398 -0.7656  0.1386 -0.0812
   97MOL0     C13292   8.515  12.809   5.399  0.1044  0.3326  0.7844
   97MOL0    Cl13293   8.443  12.748   5.542 -0.0971  0.2371 -0.1458
   97MOL0     C13294   9.407  12.821   5.205 -0.5934  0.0316  1.1163
   97MOL0     C13295   9.456  12.731   5.099 -0.2849  0.3500 -0.7587
   97MOL0     O13296   9.318  12.514   4.856 -0.6701 -0.1723 -0.1953
   97MOL0     C13297   9.544  12.251   4.939 -0.2080  0.4522 -0.2596
   97MOL0     C13298   9.624  12.142   4.901  0.4494  0.4001  0.5410
   97MOL0     N13299   9.153  11.615   4.948  0.1280  0.0479 -0.0681
   97MOL0     N13300   9.134  11.501   4.900 -0.6973  0.6995 -0.0809
   97MOL0     C13301   9.901  10.872   5.645 -0.4410  0.3356  0.1941
   97MOL0     C13302   9.953  10.775   5.737  0.8135  0.6685  0.2479
   97MOL0     C13303   9.948  10.391   5.964  0.8686  0.2053 -0.8070
   97MOL0     C13304   9.913  10.393   6.108 -0.1375  0.5012 -0.2605
   97MOL0     C13305   9.925  10.270   6.182 -0.0626 -0.2282 -0.0619
   97MOL0     C13306   9.984  10.159   6.127  0.2475 -0.1682 -0.3067
   97MOL0     O13307  10.007  10.038   6.196  0.1196  0.3959  0.8082
   97MOL0     C13308   9.969  10.028   6.332  0.0892 -0.5782 -0.8457
   97MOL0     C13309   9.991   9.887   6.375 -0.1222 -0.5644  0.7244
   97MOL0     C13310   9.896   9.797   6.294 -0.1891 -0.1538  0.2727
   97MOL0     C13311   9.895   9.652   6.337  0.4544  0.6043 -0.1144
   97MOL0     C13312   9.821   9.663   6.469 -0.9550 -0.1707 -0.4620
   97MOL0     C13313   9.760   9.685   6.573  0.6312 -0.1156 -0.2354
   97MOL0     C13314  10.004  10.156   5.994  0.2111 -0.4066  0.6120
   97MOL0     C13315   9.983  10.268   5.915 -0.0626  0.1886  0.0383
   97MOL0     C13316  10.016  10.239   5.765  0.6404 -0.9280  0.1839
   97MOL0     H13317  10.018  10.522   5.528 -2.3053  1.1856 -3.3482
   97MOL0     H13318   9.961  10.694   5.358 -2.8548  0.2277  0.1329
   97MOL0     H13319   9.694  10.973   5.520 -0.0155  1.5813 -0.0843
   97MOL0     H13320   9.685  10.838   5.415 -3.0315  0.3356  0.9102
   97MOL0     H13321   9.733  11.139   5.312 -2.5741  1.8557 -0.7613
   97MOL0     H13322   9.698  10.997   5.220 -0.5355 -1.8616  1.0155
   97MOL0     H13323   9.478  10.975   5.335 -0.7161  0.5530 -1.7298
   97MOL0     H13324   9.512  11.130   5.426  4.8933  1.6034 -0.6849
   97MOL0     H13325   9.511  11.245   5.218 -1.8421  0.9827 -0.0035
   97MOL0     H13326   9.502  11.086   5.121 -0.9851 -4.1976  1.4896
   97MOL0     H13327   9.278  11.177   5.293  0.0412  0.1655 -0.6855
   97MOL0     H13328   9.281  11.050   5.166 -0.6537  0.1911 -0.4198
   97MOL0     H13329   9.188  11.264   5.115 -0.0375  0.0899  0.2055
   97MOL0     H13330   9.338  11.354   5.120 -0.2702 -0.6608  0.9131
   97MOL0     H13331   9.343  11.123   4.933  2.8588  0.0319  0.8081
   97MOL0     H13332   9.441  11.268   4.945  1.2746 -0.8634  2.5797
   97MOL0     H13333   9.310  11.282   4.752  1.6363  0.1587  0.2848
   97MOL0     H13334   9.150  11.253   4.834  1.1355 -0.5282 -1.0547
   97MOL0     H13335   9.458  11.500   4.898 -0.5956 -1.1269 -0.6664
   97MOL0     H13336   9.419  11.715   5.066  1.3689  3.5961  0.6623
   97MOL0     H13337   9.299  11.831   5.018  0.7326  0.8102 -0.3765
   97MOL0     H13338   9.384  11.917   4.847 -0.9655 -0.3719  1.4321
   97MOL0     H13339   9.536  11.867   4.940 -0.4734 -2.8343  2.3427
   97MOL0     H13340   9.586  11.695   4.797 -2.0130 -1.6938  0.5000
   97MOL0     H13341   9.439  11.719   4.715 -1.7951  1.4257  2.2569
   97MOL0     H13342   9.662  11.798   4.608 -0.7950 -0.8401 -0.4558
   97MOL0     H13343   9.530  11.909   4.591  0.8295 -1.7233 -1.6726
   97MOL0     H13344   9.518  12.124   4.571  4.8124  1.6132 -0.5879
   97MOL0     H13345   9.370  12.302   4.528 -3.9754 -1.9879  3.2479
   97MOL0     H13346   9.511  12.407   4.537  1.6402 -2.6191  1.0505
   97MOL0     H13347   9.366  12.454   4.629  0.3427  0.1515 -1.7363
   97MOL0     H13348   9.272  12.457   5.176  0.3415  0.1936 -3.5292
   97MOL0     H13349   9.162  12.625   5.327 -0.9350 -0.8939 -1.4731
   97MOL0     H13350   9.394  12.976   5.484  0.3378 -0.2707  0.6494
   97MOL0     H13351   9.308  13.044   5.345  0.0873  2.5703  2.3826
   97MOL0     H13352   9.189  12.971   5.606 -2.0893 -0.8097 -0.8472
   97MOL0     H13353   9.249  13.133   5.582 -1.1510  0.0032  0.4223
   97MOL0     H13354   9.061  13.143   5.376 -2.0634  1.7799 -0.0835
   97MOL0     H13355   9.019  13.176   5.536 -2.2646 -1.3838 -0.8740
   97MOL0     H13356   8.958  12.918   5.563 -0.2727  0.8211 -0.1047
   97MOL0     H13357   9.009  12.904   5.392 -0.8571  4.8190 -4.8428
   97MOL0     H13358   8.805  13.097   5.489  1.6812 -0.4237 -0.2665
   97MOL0     H13359   8.831  13.063   5.313  0.0709 -4.1850 -1.3697
   97MOL0     H13360   8.739  12.846   5.504 -0.5173 -2.0117 -1.1901
   97MOL0     H13361   8.771  12.835   5.333 -1.7179 -0.9187  0.0972
   97MOL0     H13362   8.578  12.989   5.302  2.6105  2.7688  0.7890
   97MOL0     H13363   8.551  13.004   5.477  1.1152  1.3337 -0.1643
   97MOL0     H13364   8.568  12.721   5.364 -0.3504 -0.5265  2.1686
   97MOL0     H13365   8.438  12.828   5.324 -2.4004  0.7390  3.2969
   97MOL0     H13366   9.462  12.914   5.206  3.2014 -1.9924 -0.6611
   97MOL0     H13367   9.533  12.760   5.028  0.6180  3.0574  1.1672
   97MOL0     H13368   9.551  12.285   5.042 -0.0821 -0.3572  0.0003
   97MOL0     H13369   9.679  12.083   4.973  1.6208  0.3363 -0.3713
   97MOL0     H13370   9.883  10.970   5.689 -2.2938 -0.1449  0.5963
   97MOL0     H13371   9.956  10.800   5.842 -1.2980  0.9120  0.2894
   97MOL0     H13372   9.872  10.483   6.152  0.7301 -0.0557  1.7842
   97MOL0     H13373   9.896  10.280   6.286  1.2067 -1.9853  0.5096
   97MOL0     H13374  10.025  10.101   6.392  1.1691 -0.6201 -1.7665
   97MOL0     H13375   9.864  10.057   6.341  0.4362  0.4316  0.3680
   97MOL0     H13376   9.982   9.877   6.483  2.1769 -0.4325  0.9598
   97MOL0     H13377  10.096   9.868   6.352 -0.5597 -0.4259 -1.7433
   97MOL0     H13378   9.796   9.840   6.291 -0.1993 -0.2238 -1.3339
   97MOL0     H13379   9.915   9.786   6.187 -4.7634 -0.7205 -0.7051
   97MOL0     H13380   9.995   9.608   6.342 -0.1474 -0.7311  0.7429
   97MOL0     H13381   9.836   9.579   6.281 -0.1916  0.2245  1.0211
   97MOL0     H13382   9.710   9.711   6.664  0.0451 -1.0673 -0.2783
   97MOL0     H13383  10.038  10.065   5.945  0.7643 -0.4803  1.1245
   97MOL0     H13384   9.950  10.294   5.698  0.3793 -0.7889  0.5478
   97MOL0     H13385  10.120  10.269   5.746  0.1395 -0.9624 -3.1752
   97MOL0     H13386   9.998  10.134   5.742 -1.7564 -0.1191 -2.0928
   98MOL0     O13387   5.755   1.153   6.968  0.1678 -0.9597  0.1033
   98MOL0     C13388   5.694   1.248   6.912 -0.3718  0.5791 -0.3647
   98MOL0     O13389   5.572   1.289   6.942 -0.3321  0.3641 -0.4794
   98MOL0     C13390   5.504   1.257   7.049  0.7608 -0.7750  0.4561
   98MOL0     C13391   5.515   1.335   7.162  0.1274  0.7970  0.5003
   98MOL0     C13392   5.419   1.322   7.264  0.0114 -0.8407 -0.0623
   98MOL0     C13393   5.324   1.217   7.258  0.5625  0.5050 -0.3993
   98MOL0     O13394   5.231   1.195   7.354 -0.0841 -0.5002 -0.4066
   98MOL0     C13395   5.209   1.069   7.412  0.0502  0.2183 -0.7837
   98MOL0     C13396   5.332   0.991   7.447  0.3778 -0.5181 -1.3868
   98MOL0     C13397   5.416   1.071   7.561 -0.1779  0.5063  0.1424
   98MOL0     C13398   5.544   0.992   7.614  0.1404 -0.0762 -0.7173
   98MOL0     C13399   5.650   0.942   7.507 -0.1302 -0.2126  0.6860
   98MOL0     C13400   5.772   0.856   7.542 -0.2138 -0.5725  0.3850
   98MOL0     C13401   5.727   0.716   7.571 -0.5618  0.1357 -0.5852
   98MOL0     C13402   5.835   0.611   7.612 -0.2360  1.2293  0.7339
   98MOL0     N13403   5.783   0.485   7.652  0.5059 -0.0527 -0.6906
   98MOL0     C13404   5.775   0.452   7.786 -0.4945  1.1611 -0.4907
   98MOL0     C13405   5.721   0.328   7.788  1.3198 -0.1990 -0.1770
   98MOL0     C13406   5.689   0.249   7.914 -0.2930  0.7533  0.2001
   98MOL0     C13407   5.793   0.236   8.018  0.2146  0.3545 -0.5086
   98MOL0     C13408   5.749   0.137   8.121  0.1759 -0.3592 -1.2048
   98MOL0     C13409   5.835   0.159   8.233 -0.0501 -0.2440 -0.2329
   98MOL0     O13410   5.823   0.047   8.326 -0.4097  0.0594 -0.2847
   98MOL0     C13411   5.811   0.076   8.460 -0.1651  0.9291 -0.0296
   98MOL0     C13412   5.712   0.149   8.521 -0.5145 -0.6450  0.0974
   98MOL0     C13413   5.705   0.153   8.664  0.4069 -1.3764  0.3607
   98MOL0     C13414   5.613   0.252   8.734  0.3186 -0.4905 -0.3900
   98MOL0     C13415   5.798   0.075   8.742  0.5987 -0.8092  0.1471
   98MOL0     C13416   5.782   0.058   8.891 -0.2318  0.0780  0.7795
   98MOL0     O13417   5.900   0.068   8.957 -0.0867  0.2924  0.3938
   98MOL0     C13418   5.897   0.061   9.095  0.3423  0.3495  0.1274
   98MOL0     C13419   5.863   0.180   9.165  0.1084 -0.6267 -0.5607
   98MOL0     C13420   5.863   0.164   9.308  0.9413 -0.9969  0.7711
   98MOL0     C13421   5.866   0.039   9.374 -0.0801 -1.0358  0.4805
   98MOL0     O13422   5.868   0.012   9.508 -0.1813 -0.8152 -0.2630
   98MOL0     C13423   5.920   0.123   9.589  0.9169  0.8619 -0.0910
   98MOL0     C13424   5.947   0.080   9.735 -0.1351 -0.3116 -0.7086
   98MOL0     C13425   5.804   0.052   9.792  0.6349  0.4029 -0.5109
   98MOL0     C13426   5.821   0.004   9.939 -0.1586 -0.4374  0.3789
   98MOL0     C13427   5.707  -0.075   9.995 -0.1702 -0.3956  0.0153
   98MOL0     C13428   5.729  -0.099  10.141 -0.4216 -0.4450  1.0508
   98MOL0     C13429   5.683  -0.237  10.190  1.1346  0.2161  0.2722
   98MOL0     C13430   5.680  -0.229  10.346 -0.5928  0.3553 -0.5325
   98MOL0    Cl13431   5.543  -0.138  10.405  0.0774 -0.5340 -0.5559
   98MOL0     C13432   5.885  -0.075   9.300 -0.3236  0.3263 -0.1802
   98MOL0     C13433   5.916  -0.061   9.164 -0.7224 -0.6094 -0.1462
   98MOL0     O13434   5.679   0.018   8.938  0.1035  0.1318  0.5165
   98MOL0     C13435   5.896  -0.002   8.680 -0.2783  0.3338 -0.1011
   98MOL0     C13436   5.912   0.010   8.538  0.5671 -1.0406 -0.3039
   98MOL0     N13437   5.713   0.281   7.662 -0.7636  1.3543  0.9675
   98MOL0     N13438   5.746   0.377   7.579 -0.3289  0.7184  0.8152
   98MOL0     C13439   5.326   1.131   7.143 -0.2225 -0.1487 -0.2176
   98MOL0     C13440   5.406   1.151   7.038  0.2027 -0.4459  0.0154
   98MOL0     C13441   5.760   1.298   6.796 -0.9418  0.2000 -0.2790
   98MOL0     C13442   5.897   1.325   6.811  0.6236 -0.5153 -0.1438
   98MOL0     C13443   5.973   1.385   6.712  0.2130 -0.5795 -0.1034
   98MOL0     C13444   5.916   1.420   6.591  0.0735 -0.5981 -0.1799
   98MOL0     O13445   5.990   1.471   6.491 -0.2326 -0.5532  0.3257
   98MOL0     C13446   5.923   1.507   6.371  0.0002  0.2728 -0.6725
   98MOL0     C13447   6.020   1.582   6.279  0.9186  0.7684  0.2563
   98MOL0     C13448   5.975   1.608   6.134  0.2336  0.2849  0.1573
   98MOL0     C13449   5.971   1.483   6.045 -0.5576  0.4246 -0.0446
   98MOL0     C13450   5.987   1.502   5.899  0.8683  0.0194 -0.4498
   98MOL0     C13451   6.000   1.503   5.780  0.1718  0.0198 -0.2468
   98MOL0     C13452   5.776   1.389   6.581  0.6843  0.4296 -0.1489
   98MOL0     C13453   5.694   1.333   6.678 -0.0762 -0.2425  0.1505
   98MOL0     C13454   5.549   1.315   6.660  0.3017 -0.0934 -0.1801
   98MOL0     H13455   5.582   1.421   7.162  0.1897  0.8111  2.8479
   98MOL0     H13456   5.422   1.385   7.352  1.6417 -2.3598  1.0473
   98MOL0     H13457   5.141   1.009   7.351 -0.9183 -2.2295  2.4518
   98MOL0     H13458   5.142   1.078   7.497  1.6498 -0.3449  0.5790
   98MOL0     H13459   5.312   0.894   7.494  0.0600  0.5138  0.7294
   98MOL0     H13460   5.387   0.977   7.354  2.1539 -0.5574 -0.3796
   98MOL0     H13461   5.454   1.163   7.516 -2.1171  2.3095  1.9427
   98MOL0     H13462   5.349   1.087   7.646  0.1262  1.9797  0.1337
   98MOL0     H13463   5.609   1.043   7.686  3.3868 -2.3550 -1.7977
   98MOL0     H13464   5.509   0.898   7.657  0.6399  0.0570 -0.0054
   98MOL0     H13465   5.690   1.028   7.452  1.4131  0.4483  2.7416
   98MOL0     H13466   5.587   0.897   7.430  1.3710 -0.9558 -0.1323
   98MOL0     H13467   5.847   0.868   7.463 -0.2451  1.7617  0.6292
   98MOL0     H13468   5.819   0.890   7.635 -3.1343 -0.4905  1.9579
   98MOL0     H13469   5.683   0.688   7.475  0.9705 -0.6602 -1.1005
   98MOL0     H13470   5.649   0.711   7.648  1.3317 -3.6781  1.3922
   98MOL0     H13471   5.888   0.588   7.519  1.1430 -3.6183  2.4001
   98MOL0     H13472   5.896   0.647   7.694  0.9589  0.0377  0.3936
   98MOL0     H13473   5.800   0.513   7.872  0.5286 -0.3760  0.3600
   98MOL0     H13474   5.664   0.148   7.881 -0.0196  1.2609 -1.6776
   98MOL0     H13475   5.599   0.289   7.963 -0.7193 -1.7920  1.6575
   98MOL0     H13476   5.882   0.207   7.961  0.8611  4.9914 -2.2987
   98MOL0     H13477   5.818   0.334   8.059  3.1564 -0.7800  0.6774
   98MOL0     H13478   5.645   0.160   8.146  0.5215 -1.3783  1.4475
   98MOL0     H13479   5.753   0.033   8.085  0.9114  0.1214 -2.6090
   98MOL0     H13480   5.936   0.167   8.194 -0.4900  0.5158 -1.2433
   98MOL0     H13481   5.796   0.246   8.286  2.2117  0.0066  1.1493
   98MOL0     H13482   5.643   0.209   8.463  1.4803 -0.0198 -1.7583
   98MOL0     H13483   5.516   0.269   8.687  0.2131 -2.8709 -1.1637
   98MOL0     H13484   5.663   0.350   8.733 -3.6099  1.7066 -1.1263
   98MOL0     H13485   5.590   0.226   8.838  0.7921 -3.4763 -0.9466
   98MOL0     H13486   5.860   0.271   9.106  6.1326  2.6177  3.1159
   98MOL0     H13487   5.849   0.253   9.369 -1.4621  0.5462 -1.7874
   98MOL0     H13488   6.018   0.145   9.546  0.7836 -2.2643 -2.3732
   98MOL0     H13489   5.844   0.202   9.578 -2.6086 -2.3084 -0.4752
   98MOL0     H13490   6.018  -0.003   9.744 -2.2998 -2.0976  1.5150
   98MOL0     H13491   5.999   0.155   9.794  1.2822 -1.4283 -0.4820
   98MOL0     H13492   5.752  -0.035   9.750  0.5720 -0.2173  0.8083
   98MOL0     H13493   5.738   0.139   9.791  0.7082  0.5021  0.8783
   98MOL0     H13494   5.837   0.090  10.004  3.4868 -0.7628  0.1509
   98MOL0     H13495   5.898  -0.071   9.959  0.3238  0.6991  3.1377
   98MOL0     H13496   5.618  -0.011   9.990 -0.3724 -0.6716  0.0266
   98MOL0     H13497   5.698  -0.165   9.934 -1.9423  0.0097 -0.3961
   98MOL0     H13498   5.683  -0.012  10.188 -1.9400  1.7399 -3.9162
   98MOL0     H13499   5.835  -0.092  10.167 -1.1913  0.0369  4.6476
   98MOL0     H13500   5.752  -0.315  10.156 -1.0044 -1.9281  0.5063
   98MOL0     H13501   5.580  -0.250  10.154  0.2864  2.2968  1.7767
   98MOL0     H13502   5.775  -0.183  10.374  0.2648 -0.4757 -1.9747
   98MOL0     H13503   5.684  -0.326  10.397 -0.2281  1.4512  1.6513
   98MOL0     H13504   5.901  -0.160   9.365 -0.0408  0.9462  0.5816
   98MOL0     H13505   5.950  -0.150   9.113 -1.5292 -0.3966 -1.0825
   98MOL0     H13506   5.968  -0.061   8.737 -2.5304 -1.2814  1.2611
   98MOL0     H13507   5.987  -0.048   8.484  1.4261 -1.5713  1.3792
   98MOL0     H13508   5.252   1.052   7.129 -2.1703  1.7558 -1.2051
   98MOL0     H13509   5.398   1.092   6.948 -1.3102  0.5803 -0.5574
   98MOL0     H13510   5.951   1.302   6.903 -1.4838  4.6342  2.7772
   98MOL0     H13511   6.077   1.415   6.719 -0.8239  3.8901 -0.4335
   98MOL0     H13512   5.883   1.417   6.324 -1.3656  0.2271  0.5030
   98MOL0     H13513   5.843   1.579   6.393  0.8378  1.4739 -1.4638
   98MOL0     H13514   6.119   1.538   6.291  0.7934 -0.0977 -1.5615
   98MOL0     H13515   6.021   1.682   6.325 -3.7879  2.4267 -2.4687
   98MOL0     H13516   5.879   1.660   6.128 -1.8769 -3.1903  1.0679
   98MOL0     H13517   6.036   1.690   6.093 -1.1994  0.9509 -0.7314
   98MOL0     H13518   5.873   1.435   6.054 -0.5241  0.7017  2.4705
   98MOL0     H13519   6.049   1.412   6.072 -1.8577 -1.0679 -0.0275
   98MOL0     H13520   6.001   1.527   5.675  2.5690 -1.1180 -0.5474
   98MOL0     H13521   5.726   1.411   6.487  0.9458  1.0113 -0.1610
   98MOL0     H13522   5.495   1.399   6.707  0.8028 -0.9227  2.0125
   98MOL0     H13523   5.538   1.327   6.552  2.5055 -1.6268 -0.6427
   98MOL0     H13524   5.510   1.223   6.705  2.7766 -0.2091  1.9709
   99MOL0     O13525   7.760  11.131   2.978  0.5513  0.2798 -0.7173
   99MOL0     C13526   7.721  11.039   2.904  0.5876 -0.3773 -0.8953
   99MOL0     O13527   7.587  11.006   2.891  0.3899 -0.2620  0.2529
   99MOL0     C13528   7.490  11.021   2.989 -0.4346 -0.0413  1.0719
   99MOL0     C13529   7.357  11.029   2.941  0.4142  0.1110 -0.1603
   99MOL0     C13530   7.253  11.045   3.033 -0.6463 -0.2951 -0.4093
   99MOL0     C13531   7.277  11.066   3.167 -0.2544  0.3962 -0.2675
   99MOL0     O13532   7.176  11.091   3.257 -0.4998  0.1525 -0.2351
   99MOL0     C13533   7.064  11.170   3.222 -0.5538  0.7347  1.0762
   99MOL0     C13534   6.943  11.078   3.179  0.0052  0.1226  1.0150
   99MOL0     C13535   6.959  10.938   3.227  0.6359  0.1379 -1.3144
   99MOL0     C13536   6.816  10.898   3.248  0.1068 -0.0241 -0.6949
   99MOL0     C13537   6.745  10.851   3.113 -0.7542 -0.6541 -1.2528
   99MOL0     C13538   6.604  10.786   3.125 -0.6406  0.4714 -0.3752
   99MOL0     C13539   6.549  10.732   2.988  0.9785 -0.1030  0.0613
   99MOL0     C13540   6.409  10.660   3.013 -0.2838  0.3625  1.0588
   99MOL0     N13541   6.372  10.572   2.899 -0.8218  0.4178  0.3886
   99MOL0     C13542   6.468  10.485   2.849  0.3293  0.7177  0.5114
   99MOL0     C13543   6.406  10.417   2.745  0.3836 -0.8232  0.5506
   99MOL0     C13544   6.469  10.323   2.645 -0.3619 -0.0320 -0.3641
   99MOL0     C13545   6.428  10.327   2.506  1.4290 -0.2132  0.7824
   99MOL0     C13546   6.317  10.223   2.466 -1.0910 -0.6562 -0.5883
   99MOL0     C13547   6.258  10.268   2.332 -0.4924 -0.3537  0.3805
   99MOL0     O13548   6.161  10.171   2.295  0.7846  0.0948 -0.9660
   99MOL0     C13549   6.092  10.188   2.183  0.1733 -0.6743 -0.6011
   99MOL0     C13550   6.148  10.221   2.059  0.0914 -0.3196 -0.3367
   99MOL0     C13551   6.075  10.244   1.944  1.0895  1.1077 -0.5504
   99MOL0     C13552   6.147  10.270   1.822 -0.2003  0.1300  0.0010
   99MOL0     C13553   5.940  10.249   1.954  0.7362 -0.3545  0.3105
   99MOL0     C13554   5.848  10.284   1.838 -1.0547  0.4380 -0.0604
   99MOL0     O13555   5.890  10.366   1.734  1.0394  0.5350 -0.9526
   99MOL0     C13556   5.818  10.405   1.627 -0.1391 -1.0220  0.7183
   99MOL0     C13557   5.806  10.546   1.597 -0.3757  0.4031  1.1706
   99MOL0     C13558   5.713  10.588   1.491  0.7563  0.6477 -0.2246
   99MOL0     C13559   5.640  10.493   1.430  1.1743 -0.1235 -0.9471
   99MOL0     O13560   5.568  10.541   1.326  0.1476  0.2924  1.3305
   99MOL0     C13561   5.442  10.596   1.365 -0.4644 -0.3145  1.0091
   99MOL0     C13562   5.338  10.489   1.406 -0.0597  0.7121  0.1417
   99MOL0     C13563   5.219  10.575   1.450  0.2925 -0.5380  0.3086
   99MOL0     C13564   5.110  10.479   1.507 -0.5292  0.2396 -0.6834
   99MOL0     C13565   4.983  10.563   1.512  0.2610 -0.1423  0.1416
   99MOL0     C13566   4.920  10.600   1.371  0.4791 -0.9803  0.0506
   99MOL0     C13567   4.873  10.501   1.273  0.0239 -0.5272  0.3188
   99MOL0     C13568   4.790  10.400   1.346 -0.5479  0.4323 -0.0921
   99MOL0    Cl13569   4.701  10.306   1.231  0.3203 -0.2032  0.0113
   99MOL0     C13570   5.650  10.354   1.464 -0.6247 -0.6211  0.3180
   99MOL0     C13571   5.741  10.311   1.559 -0.6365  0.2557 -0.6643
   99MOL0     O13572   5.736  10.231   1.851  0.2553 -0.0771 -0.2243
   99MOL0     C13573   5.875  10.228   2.077 -0.0424  1.2372  0.2511
   99MOL0     C13574   5.954  10.191   2.194  0.2282 -0.1704  0.5505
   99MOL0     N13575   6.277  10.477   2.735  0.6158  0.0059  1.0099
   99MOL0     N13576   6.257  10.572   2.822 -0.1385 -0.6389  0.1892
   99MOL0     C13577   7.410  11.053   3.213  0.1344  0.0009  0.0902
   99MOL0     C13578   7.520  11.037   3.127  0.7675  0.1835 -0.6033
   99MOL0     C13579   7.829  10.964   2.820  0.3943  0.0098  0.0703
   99MOL0     C13580   7.964  11.020   2.822 -0.2633 -0.8283 -0.4460
   99MOL0     C13581   8.061  10.971   2.739  0.8271 -0.7018  0.8348
   99MOL0     C13582   8.040  10.864   2.649 -0.9399 -0.5263 -0.3990
   99MOL0     O13583   8.151  10.834   2.579 -0.5037 -0.1915  0.0003
   99MOL0     C13584   8.154  10.709   2.511 -0.1287  0.4019  0.7964
   99MOL0     C13585   8.260  10.707   2.396 -0.1121 -0.1874  0.3110
   99MOL0     C13586   8.408  10.726   2.434 -0.7550 -0.4686  0.8576
   99MOL0     C13587   8.467  10.663   2.555 -0.3274  0.2434 -0.1856
   99MOL0     C13588   8.478  10.512   2.544  0.0187 -0.2800  0.2653
   99MOL0     C13589   8.469  10.393   2.524 -1.0671 -0.3986  0.2637
   99MOL0     C13590   7.914  10.800   2.658 -0.1407 -1.1917  0.3036
   99MOL0     C13591   7.811  10.858   2.742  0.2611  1.0133  0.2468
   99MOL0     C13592   7.677  10.799   2.725 -0.0101  0.0830 -0.0559
   99MOL0     H13593   7.326  11.018   2.838  1.4780 -0.0957 -0.4725
   99MOL0     H13594   7.150  11.031   3.004 -1.1370 -2.2214  1.9239
   99MOL0     H13595   7.093  11.237   3.141  3.4576 -1.0647  0.8040
   99MOL0     H13596   7.043  11.223   3.316 -0.4384  0.1046  1.4651
   99MOL0     H13597   6.853  11.128   3.215  0.1580  2.1921 -1.2308
   99MOL0     H13598   6.942  11.067   3.070  3.5790 -0.2048  0.8997
   99MOL0     H13599   7.003  10.875   3.149  0.3143 -1.3578 -0.3176
   99MOL0     H13600   7.022  10.946   3.316 -0.0184 -0.0044 -0.8283
   99MOL0     H13601   6.812  10.814   3.319  0.4551  0.8004  0.3227
   99MOL0     H13602   6.755  10.974   3.297 -0.5241 -1.7772  1.4103
   99MOL0     H13603   6.811  10.780   3.063  1.7199  1.7128 -1.5732
   99MOL0     H13604   6.750  10.941   3.052 -2.1416  0.3270 -0.0148
   99MOL0     H13605   6.611  10.690   3.178 -0.5218 -1.3886 -3.4448
   99MOL0     H13606   6.533  10.858   3.166  0.5847  0.9570  0.9797
   99MOL0     H13607   6.626  10.661   2.957  3.0902  1.5990  1.1102
   99MOL0     H13608   6.535  10.812   2.915  1.2737 -1.4596 -1.5242
   99MOL0     H13609   6.419  10.593   3.098  0.3541 -2.8103 -1.3273
   99MOL0     H13610   6.340  10.740   3.041  1.2533  1.6466  1.3189
   99MOL0     H13611   6.568  10.465   2.884 -0.2432 -2.3324  0.7006
   99MOL0     H13612   6.456  10.221   2.680  3.7007 -1.9931 -3.6398
   99MOL0     H13613   6.576  10.348   2.644 -0.9537  3.0849 -3.1503
   99MOL0     H13614   6.371  10.419   2.493  2.1035 -0.0362 -1.2996
   99MOL0     H13615   6.508  10.322   2.432  0.3186  2.2519 -0.7036
   99MOL0     H13616   6.368  10.126   2.460  0.6429 -0.0294  1.9425
   99MOL0     H13617   6.234  10.219   2.537  0.9416 -2.0895  1.9029
   99MOL0     H13618   6.218  10.369   2.347  2.4502  0.5648  3.0548
   99MOL0     H13619   6.343  10.275   2.264 -0.3934  1.1752  0.6327
   99MOL0     H13620   6.254  10.217   2.036 -0.0678  1.1105 -1.4325
   99MOL0     H13621   6.251  10.237   1.830 -0.3754 -0.9659 -1.8317
   99MOL0     H13622   6.150  10.375   1.790 -0.1287  0.8295  2.1021
   99MOL0     H13623   6.106  10.219   1.735 -2.1935 -0.8255  1.4018
   99MOL0     H13624   5.849  10.621   1.662 -2.6025  3.4005 -0.5297
   99MOL0     H13625   5.698  10.695   1.477  3.4155  1.3398  1.4391
   99MOL0     H13626   5.451  10.683   1.431  1.6530  0.4390 -0.1761
   99MOL0     H13627   5.412  10.633   1.266  0.0529  2.2522  1.7207
   99MOL0     H13628   5.313  10.430   1.317  3.3386  1.5226 -1.5202
   99MOL0     H13629   5.373  10.419   1.483  3.4606  1.5059 -0.5681
   99MOL0     H13630   5.197  10.639   1.365  0.8633 -2.6799 -1.5420
   99MOL0     H13631   5.251  10.641   1.532 -0.9205 -0.0662  0.4213
   99MOL0     H13632   5.143  10.438   1.603 -1.2756  0.8469 -0.1515
   99MOL0     H13633   5.097  10.400   1.432 -1.3630  1.0637 -1.4253
   99MOL0     H13634   4.909  10.502   1.563  0.2548 -0.8232 -0.6623
   99MOL0     H13635   5.004  10.655   1.568  2.9785  0.9813 -2.4144
   99MOL0     H13636   4.991  10.661   1.315  1.6417 -1.0838  1.3671
   99MOL0     H13637   4.833  10.665   1.386 -2.4660 -3.9133 -2.6804
   99MOL0     H13638   4.944  10.449   1.208 -2.9860 -1.4689 -2.4911
   99MOL0     H13639   4.806  10.568   1.218 -0.0776 -0.0405  1.0172
   99MOL0     H13640   4.711  10.433   1.414 -1.2541 -4.9475  2.2075
   99MOL0     H13641   4.841  10.330   1.414 -0.7094  1.2870  0.9459
   99MOL0     H13642   5.576  10.291   1.416 -2.0021  0.6095  0.7183
   99MOL0     H13643   5.748  10.205   1.580  1.7675 -0.2358 -3.3264
   99MOL0     H13644   5.768  10.240   2.081 -0.3631 -1.2935  1.3769
   99MOL0     H13645   5.904  10.176   2.289 -3.4184  0.2834 -1.1273
   99MOL0     H13646   7.434  11.061   3.319 -2.3498 -2.6498  1.0088
   99MOL0     H13647   7.626  11.030   3.149  0.7275  1.9936  0.3295
   99MOL0     H13648   7.977  11.113   2.876 -1.0304 -1.7200  1.3693
   99MOL0     H13649   8.162  11.012   2.737  0.2334  0.7883  0.2432
   99MOL0     H13650   8.187  10.632   2.582 -0.0581 -0.9140 -0.5988
   99MOL0     H13651   8.058  10.679   2.467  0.0628 -0.4327  0.9406
   99MOL0     H13652   8.237  10.787   2.325  3.3817 -0.1678 -1.0136
   99MOL0     H13653   8.241  10.609   2.352 -3.1394  0.6698 -0.5014
   99MOL0     H13654   8.457  10.688   2.344 -1.5182 -2.3066  1.1884
   99MOL0     H13655   8.424  10.835   2.439 -0.1837 -0.5243  0.4037
   99MOL0     H13656   8.409  10.692   2.642  1.1120  0.4142  0.7614
   99MOL0     H13657   8.574  10.687   2.563  0.1548 -0.7912 -2.5619
   99MOL0     H13658   8.469  10.288   2.503  3.2041 -1.2166  3.1470
   99MOL0     H13659   7.885  10.716   2.597  0.6346 -1.3139  0.0862
   99MOL0     H13660   7.622  10.783   2.818 -0.7282 -5.0312 -1.0981
   99MOL0     H13661   7.626  10.861   2.649  1.9367  0.3426 -1.2248
   99MOL0     H13662   7.694  10.698   2.688 -0.4390  0.0407 -0.1468
  100MOL0     O13663  11.060   2.320   8.890  0.3614 -0.3553 -0.5020
  100MOL0     C13664  11.000   2.266   8.800  0.0748 -0.7740  0.1085
  100MOL0     O13665  11.017   2.143   8.751  0.0904  0.1588  0.1905
  100MOL0     C13666  11.103   2.057   8.811  0.1351 -0.0693  0.1006
  100MOL0     C13667  11.225   2.040   8.744 -0.5460 -0.4957 -0.7486
  100MOL0     C13668  11.326   1.963   8.804  0.7811 -0.4224 -1.0318
  100MOL0     C13669  11.314   1.903   8.928  0.4141  0.2057  0.3895
  100MOL0     O13670  11.414   1.845   8.997 -0.0716 -0.1981  0.1145
  100MOL0     C13671  11.422   1.853   9.140 -0.1617  0.6123  0.3571
  100MOL0     C13672  11.555   1.792   9.190 -0.1745  0.2844  0.0090
  100MOL0     C13673  11.576   1.834   9.344  0.0063 -0.5417 -0.4808
  100MOL0     C13674  11.698   1.773   9.403  0.6709  0.2152 -0.0137
  100MOL0     C13675  11.711   1.832   9.546 -0.4680  0.7115 -0.0197
  100MOL0     C13676  11.844   1.787   9.602 -0.4547 -0.5987 -0.5553
  100MOL0     C13677  11.872   1.854   9.739 -0.0173 -0.4693  0.2536
  100MOL0     C13678  11.811   1.775   9.850  0.0788  0.7744  0.0111
  100MOL0     N13679  11.843   1.824   9.984 -0.1890  0.7201  0.1392
  100MOL0     C13680  11.826   1.953  10.025  0.4239  0.1092  0.2845
  100MOL0     C13681  11.876   1.960  10.156  0.2068  0.2867  0.4691
  100MOL0     C13682  11.889   2.086  10.243  0.1717  0.4123  0.1693
  100MOL0     C13683  11.801   2.067  10.370 -0.8169 -0.3738 -0.4891
  100MOL0     C13684  11.804   2.189  10.473 -0.1542  0.2074  0.4033
  100MOL0     C13685  11.664   2.263  10.462 -0.3551  0.2655 -0.5989
  100MOL0     O13686  11.642   2.315  10.331  0.3119  0.1046  0.7910
  100MOL0     C13687  11.709   2.429  10.280 -0.1289  0.4576  0.6125
  100MOL0     C13688  11.800   2.504  10.355 -0.2180  0.4692  0.2228
  100MOL0     C13689  11.863   2.619  10.309  0.2603 -0.1864  0.6678
  100MOL0     C13690  11.965   2.672  10.407  0.2205 -0.6008  0.2602
  100MOL0     C13691  11.828   2.664  10.179 -0.0708 -1.4711 -0.3370
  100MOL0     C13692  11.877   2.793  10.126  0.1028  0.1451  0.0936
  100MOL0     O13693  11.834   2.836  10.014 -0.5961  0.8953 -0.3473
  100MOL0     C13694  11.872   2.960   9.968  0.1565  0.3295 -0.2873
  100MOL0     C13695  11.991   2.995   9.904 -0.1262 -0.3687 -1.1856
  100MOL0     C13696  12.020   3.122   9.870 -0.9858 -0.3210 -0.2680
  100MOL0     C13697  11.934   3.232   9.899  0.8728 -0.1460  0.2272
  100MOL0     O13698  11.980   3.356   9.863 -0.6560  0.3591 -0.3337
  100MOL0     C13699  11.882   3.458   9.887  0.5160  0.6916  0.7719
  100MOL0     C13700  11.925   3.604   9.865 -0.0071 -1.1479  1.0750
  100MOL0     C13701  11.797   3.681   9.836 -0.0473 -0.5357 -0.2615
  100MOL0     C13702  11.823   3.821   9.799 -0.3524 -0.1150  0.6338
  100MOL0     C13703  11.688   3.893   9.761 -0.5973  0.4694 -0.2482
  100MOL0     C13704  11.715   4.017   9.673 -0.1397  0.6495  0.0835
  100MOL0     C13705  11.594   4.108   9.648  0.9651  0.4216 -0.5358
  100MOL0     C13706  11.596   4.203   9.530 -0.7532 -0.1988 -0.0756
  100MOL0    Cl13707  11.755   4.303   9.545 -0.1827  0.0147  0.0103
  100MOL0     C13708  11.810   3.192   9.957  0.1936  0.6619  0.1318
  100MOL0     C13709  11.784   3.060  10.003 -0.6715  0.2438 -0.3009
  100MOL0     O13710  11.969   2.844  10.187 -0.6024 -0.7332 -0.0883
  100MOL0     C13711  11.733   2.592  10.102  0.0030 -0.2331 -0.6337
  100MOL0     C13712  11.677   2.474  10.153  0.8300  1.0410 -1.4014
  100MOL0     N13713  11.915   1.828  10.184 -0.0457 -0.0937 -0.1653
  100MOL0     N13714  11.884   1.750  10.091  0.0909  0.1229 -0.1489
  100MOL0     C13715  11.181   1.917   8.990 -0.6345 -0.6258 -0.0185
  100MOL0     C13716  11.068   1.984   8.925 -0.4341 -0.1362 -0.6233
  100MOL0     C13717  10.906   2.347   8.740  0.0555  0.5926 -0.6627
  100MOL0     C13718  10.847   2.454   8.809  0.2957 -0.0941  0.0726
  100MOL0     C13719  10.752   2.539   8.752 -0.0848  0.2106  0.1713
  100MOL0     C13720  10.722   2.532   8.621  0.1295  0.1777 -0.1638
  100MOL0     O13721  10.620   2.611   8.570  0.0822 -0.4860 -0.1115
  100MOL0     C13722  10.589   2.612   8.431 -0.2405 -0.7732  0.2612
  100MOL0     C13723  10.476   2.510   8.395 -0.4896  0.0908 -0.4224
  100MOL0     C13724  10.446   2.499   8.241 -0.3680 -0.0927 -0.4168
  100MOL0     C13725  10.562   2.472   8.153  0.3045  0.3233  1.0275
  100MOL0     C13726  10.624   2.342   8.174 -0.0231  0.8807 -0.1946
  100MOL0     C13727  10.665   2.230   8.208 -0.0480  0.0570 -0.2608
  100MOL0     C13728  10.791   2.431   8.546 -0.0225 -0.0154  0.0972
  100MOL0     C13729  10.872   2.331   8.606  0.3068  0.3567 -0.2123
  100MOL0     C13730  10.920   2.228   8.507  0.4177  0.0434 -0.2621
  100MOL0     H13731  11.240   2.086   8.647  2.6133 -0.3712 -0.3022
  100MOL0     H13732  11.427   1.956   8.766  2.0263 -0.0824  1.9327
  100MOL0     H13733  11.345   1.784   9.177 -0.9865  1.2410 -0.1708
  100MOL0     H13734  11.405   1.957   9.169 -0.3486  1.1523 -1.5527
  100MOL0     H13735  11.560   1.684   9.173  3.3496  0.2654  0.3886
  100MOL0     H13736  11.633   1.834   9.126 -1.0057 -0.1214 -1.3008
  100MOL0     H13737  11.585   1.943   9.347 -0.0724 -0.5390 -0.3668
  100MOL0     H13738  11.486   1.820   9.405  0.3903 -1.3466 -0.0859
  100MOL0     H13739  11.674   1.666   9.400 -3.0783  0.9601 -1.5091
  100MOL0     H13740  11.783   1.800   9.339  3.3861 -0.7893  2.8917
  100MOL0     H13741  11.627   1.797   9.607  1.6015 -0.4552  2.3008
  100MOL0     H13742  11.704   1.941   9.547  2.1490  0.9443  1.2478
  100MOL0     H13743  11.873   1.682   9.601  0.8496 -0.3309 -3.4890
  100MOL0     H13744  11.927   1.825   9.541  1.5066  0.2242  2.4005
  100MOL0     H13745  11.846   1.961   9.741 -0.6667 -0.6269  2.0610
  100MOL0     H13746  11.980   1.839   9.747 -0.1002 -2.7954 -1.8111
  100MOL0     H13747  11.702   1.777   9.846  0.0772  0.2117 -0.2626
  100MOL0     H13748  11.846   1.672   9.843 -1.3372  0.2719  0.1355
  100MOL0     H13749  11.791   2.036   9.966  0.4402  0.5983  0.9518
  100MOL0     H13750  11.854   2.178  10.196  1.9322  1.0490  0.0556
  100MOL0     H13751  11.996   2.104  10.256  0.5308 -2.1927  1.5442
  100MOL0     H13752  11.697   2.039  10.351 -0.4680 -2.7710  0.7945
  100MOL0     H13753  11.832   1.977  10.422 -0.9363  0.0077  0.2622
  100MOL0     H13754  11.817   2.154  10.576  0.4237 -0.9064 -0.0280
  100MOL0     H13755  11.888   2.255  10.452  0.4873  0.2499  2.7873
  100MOL0     H13756  11.585   2.189  10.480  0.1319 -1.0930 -3.4130
  100MOL0     H13757  11.656   2.342  10.537 -2.3817 -0.9112  0.4942
  100MOL0     H13758  11.828   2.463  10.452  1.4580  0.6188 -0.1678
  100MOL0     H13759  11.961   2.622  10.504 -0.5498 -3.2572 -1.0490
  100MOL0     H13760  11.967   2.780  10.424  0.3075 -0.4613 -0.6043
  100MOL0     H13761  12.065   2.644  10.371 -0.3959 -3.4198  0.5369
  100MOL0     H13762  12.067   2.917   9.894  0.8962 -0.1176  2.7578
  100MOL0     H13763  12.119   3.142   9.829 -0.3298  0.9048  1.7670
  100MOL0     H13764  11.800   3.442   9.817  0.8102  3.1452 -0.2274
  100MOL0     H13765  11.838   3.457   9.987 -0.9164 -0.6253  0.1689
  100MOL0     H13766  11.982   3.651   9.946 -2.7324  0.3793  2.2238
  100MOL0     H13767  11.979   3.605   9.770 -2.5318  0.0941 -0.4438
  100MOL0     H13768  11.732   3.679   9.925 -2.7905  0.3714 -2.1238
  100MOL0     H13769  11.740   3.641   9.752 -1.2174  2.7791 -1.1858
  100MOL0     H13770  11.883   3.827   9.708 -0.1494 -0.3637  0.7502
  100MOL0     H13771  11.872   3.883   9.874 -0.8451  3.0646 -1.4763
  100MOL0     H13772  11.634   3.828   9.691 -2.2554  1.7306 -0.1840
  100MOL0     H13773  11.632   3.926   9.848 -0.3119  0.8090 -0.1890
  100MOL0     H13774  11.759   3.994   9.576 -0.8746  1.1405 -0.3709
  100MOL0     H13775  11.785   4.080   9.728  0.9944 -1.4245  1.1682
  100MOL0     H13776  11.578   4.159   9.744  0.4262 -1.1471  0.2362
  100MOL0     H13777  11.502   4.051   9.639 -0.0880  1.6024  1.7649
  100MOL0     H13778  11.509   4.268   9.527  0.5776  1.8968  2.5801
  100MOL0     H13779  11.590   4.159   9.430 -2.5152 -3.0029  1.1579
  100MOL0     H13780  11.727   3.255   9.986  2.2725  1.6220  5.1692
  100MOL0     H13781  11.692   3.036  10.055 -0.5618  1.6473  0.6168
  100MOL0     H13782  11.709   2.620  10.000 -2.6433 -2.9918 -0.9303
  100MOL0     H13783  11.611   2.415  10.090  0.2318 -0.3635  0.4711
  100MOL0     H13784  11.158   1.862   9.081 -0.9366  1.6387  1.3516
  100MOL0     H13785  10.976   1.987   8.984 -0.9097  0.1074 -1.3573
  100MOL0     H13786  10.860   2.463   8.917 -0.8667 -1.3599  0.3364
  100MOL0     H13787  10.709   2.615   8.817 -1.3338 -1.1833  1.0575
  100MOL0     H13788  10.542   2.707   8.403 -0.1062 -1.1286 -1.2825
  100MOL0     H13789  10.680   2.597   8.371  0.1895 -0.1738  0.7471
  100MOL0     H13790  10.384   2.548   8.441  0.7321  3.8527 -0.7071
  100MOL0     H13791  10.490   2.412   8.442  0.6117  0.4551  0.0454
  100MOL0     H13792  10.365   2.428   8.222 -0.8966 -0.7901  3.5363
  100MOL0     H13793  10.399   2.594   8.213 -0.5883  0.1381  0.6812
  100MOL0     H13794  10.637   2.551   8.153 -0.8011  1.4075  0.6002
  100MOL0     H13795  10.523   2.466   8.051  3.2567 -0.2177 -0.1608
  100MOL0     H13796  10.695   2.133   8.242 -0.0664  0.1664  0.0685
  100MOL0     H13797  10.763   2.423   8.441  2.1943  0.4821 -0.6059
  100MOL0     H13798  11.025   2.202   8.525  0.9926  2.2477 -0.2007
  100MOL0     H13799  10.861   2.136   8.493  1.9586 -0.9340 -0.5213
  100MOL0     H13800  10.914   2.273   8.408  2.4247 -1.3348 -1.0683
  101MOL0     O13801   3.535   9.850   7.359 -0.4285 -0.0062  0.3647
  101MOL0     C13802   3.487   9.772   7.281 -0.0428 -0.5782  0.3752
  101MOL0     O13803   3.541   9.743   7.170 -0.5296 -0.1826 -0.6500
  101MOL0     C13804   3.663   9.810   7.134  0.5333 -0.8561  0.7595
  101MOL0     C13805   3.789   9.748   7.157  0.4267  0.0106  0.5606
  101MOL0     C13806   3.904   9.808   7.113  0.2702  0.1103 -0.1828
  101MOL0     C13807   3.900   9.926   7.038  0.1425 -0.3482 -0.6739
  101MOL0     O13808   4.021   9.978   7.003 -0.3271 -0.1084 -0.1126
  101MOL0     C13809   4.016  10.085   6.900  0.4611  0.1705 -0.0271
  101MOL0     C13810   4.163  10.083   6.856  0.1077  0.2964  0.1056
  101MOL0     C13811   4.186  10.179   6.740  0.2522  0.1730 -0.4220
  101MOL0     C13812   4.337  10.195   6.717 -0.9785  0.5279  0.2177
  101MOL0     C13813   4.375  10.280   6.587 -0.1755  0.4631  0.4370
  101MOL0     C13814   4.320  10.217   6.460  0.1908  0.6443  0.7682
  101MOL0     C13815   4.375  10.289   6.326  0.4271  0.4484  0.2315
  101MOL0     C13816   4.320  10.225   6.197  0.1249 -0.1006  0.5890
  101MOL0     N13817   4.390  10.285   6.087 -0.0550 -0.9969  0.6565
  101MOL0     C13818   4.513  10.238   6.044  0.6076  0.3147 -0.3846
  101MOL0     C13819   4.575  10.340   5.967  0.4961 -0.4229 -0.9121
  101MOL0     C13820   4.715  10.336   5.919 -0.0851 -0.0168 -0.2279
  101MOL0     C13821   4.729  10.261   5.783  0.6781  0.6416 -0.0177
  101MOL0     C13822   4.874  10.241   5.739 -0.2921 -1.8705  0.1125
  101MOL0     C13823   4.933  10.367   5.674 -0.6327 -0.3684  0.7815
  101MOL0     O13824   4.844  10.420   5.573 -0.0975  0.1519 -0.0255
  101MOL0     C13825   4.870  10.552   5.545 -0.3013 -0.1798 -0.4960
  101MOL0     C13826   4.761  10.620   5.499  1.0660  0.2860  0.3629
  101MOL0     C13827   4.775  10.755   5.456 -0.4724  0.2434 -0.4012
  101MOL0     C13828   4.652  10.832   5.405 -0.2597 -0.7335 -0.0912
  101MOL0     C13829   4.902  10.822   5.458  0.1043  1.1511  0.8340
  101MOL0     C13830   4.923  10.960   5.407 -1.1946 -0.2315  0.1652
  101MOL0     O13831   4.834  11.028   5.341  0.4441 -0.0404 -0.4555
  101MOL0     C13832   4.825  11.164   5.350  1.0528  1.3446 -0.3236
  101MOL0     C13833   4.738  11.223   5.261 -0.2168 -0.0007 -1.2120
  101MOL0     C13834   4.710  11.360   5.269 -0.9574  0.4742 -0.0448
  101MOL0     C13835   4.779  11.443   5.355 -0.7036 -0.5741 -0.6257
  101MOL0     O13836   4.770  11.578   5.348  0.1377 -0.3561 -0.0124
  101MOL0     C13837   4.905  11.636   5.347 -0.3130 -0.2122  0.2030
  101MOL0     C13838   4.884  11.787   5.318  0.3141 -0.1048  0.2695
  101MOL0     C13839   4.776  11.856   5.406 -0.2778  0.4204 -0.5280
  101MOL0     C13840   4.638  11.853   5.328 -0.3271 -0.3864 -1.5004
  101MOL0     C13841   4.537  11.948   5.385  0.5363 -0.0777 -0.0458
  101MOL0     C13842   4.399  11.938   5.325 -0.4473 -0.8838 -0.0691
  101MOL0     C13843   4.406  11.983   5.172  0.0943 -0.6196 -0.2707
  101MOL0     C13844   4.264  11.998   5.102 -1.1643 -0.4569 -0.6417
  101MOL0    Cl13845   4.278  12.009   4.933 -0.0399  0.1172 -0.1449
  101MOL0     C13846   4.867  11.379   5.452  0.1416 -1.0958 -0.2058
  101MOL0     C13847   4.884  11.239   5.447 -0.2563 -0.1190  0.1347
  101MOL0     O13848   5.052  10.983   5.409 -0.0202 -0.2357  0.4866
  101MOL0     C13849   5.003  10.735   5.507 -0.9041 -0.1236  0.1072
  101MOL0     C13850   4.995  10.614   5.554  0.8477 -0.1552 -0.8993
  101MOL0     N13851   4.479  10.448   5.973 -0.1547  0.6154  0.4656
  101MOL0     N13852   4.373  10.412   6.030 -0.2143 -0.0777  0.1709
  101MOL0     C13853   3.779   9.985   7.004 -0.1434 -0.3057 -0.3274
  101MOL0     C13854   3.662   9.925   7.053 -0.6384  0.3129  0.1748
  101MOL0     C13855   3.354   9.718   7.310 -0.5216 -0.6733  0.4369
  101MOL0     C13856   3.280   9.660   7.199 -0.3037  0.3108 -0.4465
  101MOL0     C13857   3.150   9.613   7.208 -0.0930  0.8832 -0.4107
  101MOL0     C13858   3.078   9.615   7.330  0.9862 -0.6255  1.2945
  101MOL0     O13859   2.953   9.553   7.355 -0.2611  0.3839  0.4818
  101MOL0     C13860   2.838   9.585   7.269 -0.5747 -0.1202  0.6064
  101MOL0     C13861   2.709   9.537   7.335 -0.2917  0.5632 -0.6629
  101MOL0     C13862   2.701   9.377   7.360  1.2224  0.0158 -0.8753
  101MOL0     C13863   2.598   9.352   7.470 -0.8551 -0.1357  0.2588
  101MOL0     C13864   2.643   9.398   7.600  0.9160  0.7924  0.9181
  101MOL0     C13865   2.692   9.446   7.695 -0.1683 -1.0958 -0.6247
  101MOL0     C13866   3.153   9.658   7.442 -0.0024  0.4394 -1.0678
  101MOL0     C13867   3.285   9.712   7.439  0.7548 -0.7263  0.0097
  101MOL0     C13868   3.356   9.747   7.565 -0.0479  0.1833 -0.4945
  101MOL0     H13869   3.788   9.654   7.211 -1.9621 -0.4795 -0.2403
  101MOL0     H13870   4.002   9.764   7.128  0.5545 -0.1463 -2.3641
  101MOL0     H13871   3.983  10.185   6.930  3.0846  1.5565 -1.3621
  101MOL0     H13872   3.953  10.058   6.815  0.9977 -0.9026 -0.1081
  101MOL0     H13873   4.224  10.120   6.939 -0.0378  0.8559 -0.0310
  101MOL0     H13874   4.203   9.984   6.834  0.1943  0.4200 -0.2953
  101MOL0     H13875   4.140  10.138   6.649 -1.0121 -2.0279  1.1087
  101MOL0     H13876   4.135  10.276   6.749  0.9968  0.6937 -1.6067
  101MOL0     H13877   4.388  10.231   6.806  0.9126  0.2896 -0.7230
  101MOL0     H13878   4.386  10.099   6.701 -1.2718  0.4459 -0.2122
  101MOL0     H13879   4.483  10.278   6.573 -0.3958 -2.3168 -1.7756
  101MOL0     H13880   4.355  10.385   6.612  0.9424  0.3327  2.0244
  101MOL0     H13881   4.361  10.116   6.469  0.0105  0.7143  2.8853
  101MOL0     H13882   4.211  10.218   6.454  0.2362 -0.8365 -1.6764
  101MOL0     H13883   4.484  10.297   6.324  0.4002  0.8109 -0.6943
  101MOL0     H13884   4.342  10.393   6.318  1.4853  0.7450 -0.5737
  101MOL0     H13885   4.325  10.116   6.198 -0.4359 -0.1524  2.2293
  101MOL0     H13886   4.214  10.254   6.186  0.3961  1.9208  2.5205
  101MOL0     H13887   4.554  10.141   6.070 -1.2250  0.3206  3.1998
  101MOL0     H13888   4.776  10.275   5.988 -1.0066  0.1044  0.7132
  101MOL0     H13889   4.756  10.436   5.903 -0.0985 -0.0705 -0.5958
  101MOL0     H13890   4.694  10.158   5.795 -0.8865  0.9342 -1.7036
  101MOL0     H13891   4.668  10.307   5.705 -2.3797 -0.3315  1.6699
  101MOL0     H13892   4.938  10.200   5.818  1.5665 -0.2926 -0.5060
  101MOL0     H13893   4.878  10.163   5.664 -1.0715  0.0605 -2.0544
  101MOL0     H13894   4.968  10.436   5.751  1.9234 -2.0685  1.2363
  101MOL0     H13895   5.023  10.339   5.618 -1.3651  1.5789 -1.5753
  101MOL0     H13896   4.666  10.568   5.494  1.5302 -0.4430 -2.7446
  101MOL0     H13897   4.672  10.869   5.304 -1.1544  0.3277  0.0854
  101MOL0     H13898   4.634  10.920   5.469  1.7503 -1.0087  0.9227
  101MOL0     H13899   4.560  10.772   5.407  0.0140 -1.1459  0.4963
  101MOL0     H13900   4.684  11.169   5.183  0.6077 -1.9183 -0.4981
  101MOL0     H13901   4.652  11.419   5.198 -1.7862  0.4070  0.5612
  101MOL0     H13902   4.955  11.632   5.444  2.5809 -2.6390 -1.2435
  101MOL0     H13903   4.964  11.598   5.264 -2.7090 -0.4684 -1.4705
  101MOL0     H13904   4.983  11.834   5.316  1.2650 -2.0363 -1.2022
  101MOL0     H13905   4.859  11.804   5.213  0.8877  0.4345  0.2135
  101MOL0     H13906   4.801  11.960   5.430  1.3465 -0.3886  1.6138
  101MOL0     H13907   4.764  11.807   5.503  1.5992  1.4700  0.2924
  101MOL0     H13908   4.601  11.752   5.346 -1.3384  0.2070 -0.0080
  101MOL0     H13909   4.656  11.871   5.222  0.0888  1.0302 -1.2098
  101MOL0     H13910   4.531  11.940   5.494 -1.2477  0.5598 -0.0589
  101MOL0     H13911   4.576  12.049   5.372  0.5574  0.1249  1.3671
  101MOL0     H13912   4.330  11.996   5.388 -0.5155 -3.6219  2.6194
  101MOL0     H13913   4.365  11.836   5.343 -1.0113 -0.8379 -0.8238
  101MOL0     H13914   4.459  11.902   5.121  0.1796 -1.7163  1.4835
  101MOL0     H13915   4.455  12.080   5.166 -0.8445 -0.2450 -3.3419
  101MOL0     H13916   4.221  12.088   5.146 -0.6079 -2.0209  3.5875
  101MOL0     H13917   4.195  11.917   5.128 -1.0406  0.0157  1.2758
  101MOL0     H13918   4.926  11.445   5.516  1.2335 -0.5366 -1.7167
  101MOL0     H13919   4.957  11.207   5.521  0.0111  3.1407  1.4491
  101MOL0     H13920   5.098  10.784   5.522 -0.2588 -1.1564 -0.4854
  101MOL0     H13921   5.086  10.568   5.591  1.3655  2.3252  1.1371
  101MOL0     H13922   3.770  10.079   6.951  1.1520  0.2587  0.4288
  101MOL0     H13923   3.570   9.982   7.038  0.1626  1.4395 -0.6665
  101MOL0     H13924   3.313   9.662   7.096 -1.5940  1.2975 -0.8625
  101MOL0     H13925   3.106   9.561   7.124 -0.4386 -4.6925  2.7334
  101MOL0     H13926   2.834   9.690   7.240 -2.2452 -0.8382 -2.1121
  101MOL0     H13927   2.852   9.541   7.170 -0.2449  0.3604  0.4424
  101MOL0     H13928   2.637   9.568   7.259 -1.1078  0.9429  0.2489
  101MOL0     H13929   2.686   9.592   7.427  1.0156  1.3233 -0.7626
  101MOL0     H13930   2.674   9.329   7.266  2.2419 -2.7794  0.1530
  101MOL0     H13931   2.799   9.331   7.378  1.3405 -2.1249 -5.5036
  101MOL0     H13932   2.567   9.247   7.473 -0.0575 -0.3697  0.7567
  101MOL0     H13933   2.510   9.409   7.437 -2.8951 -1.2343  3.2795
  101MOL0     H13934   2.726   9.499   7.781 -0.0221  0.5255 -1.6455
  101MOL0     H13935   3.105   9.650   7.539  2.3621 -1.5923  0.0363
  101MOL0     H13936   3.290   9.725   7.650 -0.4835  0.1444 -0.8416
  101MOL0     H13937   3.446   9.689   7.588 -1.2878 -0.9008  2.0699
  101MOL0     H13938   3.391   9.851   7.559  0.2549  0.1021 -0.2174
  102MOL0     O13939   1.889  11.092  10.885  0.0822  0.1276  0.0242
  102MOL0     C13940   1.935  11.207  10.875  1.0594  0.4490 -0.6878
  102MOL0     O13941   1.901  11.314  10.959  0.6726 -0.7715 -0.4977
  102MOL0     C13942   1.827  11.295  11.081  0.7838  0.6617  0.3231
  102MOL0     C13943   1.867  11.349  11.199 -0.2988 -0.1784 -0.3784
  102MOL0     C13944   1.797  11.336  11.323 -0.4491  0.2297  0.5244
  102MOL0     C13945   1.685  11.257  11.317 -0.2953  0.3110  0.0160
  102MOL0     O13946   1.620  11.250  11.435  0.2699  0.9703 -0.1410
  102MOL0     C13947   1.472  11.235  11.435 -0.1632  0.3390 -0.4926
  102MOL0     C13948   1.397  11.259  11.569  0.0605 -0.6615  0.1329
  102MOL0     C13949   1.419  11.399  11.618 -1.3053  0.8376 -0.0716
  102MOL0     C13950   1.316  11.444  11.724 -0.6995  0.1986  0.9104
  102MOL0     C13951   1.175  11.455  11.673 -0.0578  0.6897  0.1025
  102MOL0     C13952   1.065  11.497  11.775 -0.5030  0.5043  0.4994
  102MOL0     C13953   0.940  11.507  11.684  0.6481 -0.4567  0.1368
  102MOL0     C13954   0.879  11.648  11.708  0.4424 -0.1247  0.2542
  102MOL0     N13955   0.962  11.760  11.667  0.1116 -0.5756  0.6304
  102MOL0     C13956   1.019  11.763  11.541  1.9378  0.4638  0.8950
  102MOL0     C13957   1.124  11.839  11.554  0.2442 -0.3815  1.1492
  102MOL0     C13958   1.218  11.880  11.453  0.6491 -0.0796 -0.3725
  102MOL0     C13959   1.183  12.020  11.393  0.6350 -0.6129 -0.0681
  102MOL0     C13960   1.260  12.048  11.261  0.1498 -1.0335 -0.1898
  102MOL0     C13961   1.216  12.185  11.192  0.0736  0.9378  0.0884
  102MOL0     O13962   1.308  12.209  11.083 -0.3314 -0.6923 -0.2211
  102MOL0     C13963   1.262  12.295  10.983  0.0520  0.0909  0.3647
  102MOL0     C13964   1.345  12.304  10.864  0.8607  0.8299  0.0194
  102MOL0     C13965   1.308  12.383  10.757  0.2312 -1.0815  0.6044
  102MOL0     C13966   1.403  12.377  10.638  0.2773 -0.7542  0.3724
  102MOL0     C13967   1.200  12.469  10.756 -0.4576 -0.1825  0.6759
  102MOL0     C13968   1.160  12.560  10.643 -0.3603 -0.1658 -0.2343
  102MOL0     O13969   1.030  12.592  10.653 -0.0538  0.3183 -0.1113
  102MOL0     C13970   0.978  12.684  10.568  0.8134 -0.1498 -0.1640
  102MOL0     C13971   1.043  12.805  10.536  0.2977 -0.1809  0.3008
  102MOL0     C13972   0.983  12.899  10.446  0.0726  0.2793 -0.2458
  102MOL0     C13973   0.862  12.870  10.383 -0.1526  1.0750 -0.2264
  102MOL0     O13974   0.821  12.957  10.284  0.3118 -0.2501 -0.4500
  102MOL0     C13975   0.685  13.017  10.298 -0.4708  0.3633 -0.3591
  102MOL0     C13976   0.661  13.095  10.428 -0.1495 -0.1921 -0.1422
  102MOL0     C13977   0.754  13.216  10.453 -0.1243  0.0869  0.3303
  102MOL0     C13978   0.680  13.345  10.500 -0.3557  0.2708 -0.3180
  102MOL0     C13979   0.784  13.455  10.490  0.2690  0.6438 -0.2053
  102MOL0     C13980   0.738  13.592  10.535 -0.4449 -0.5560  0.3409
  102MOL0     C13981   0.847  13.692  10.517  0.3179 -0.4194 -0.0994
  102MOL0     C13982   0.799  13.839  10.538 -0.4997 -0.1996 -1.2837
  102MOL0    Cl13983   0.651  13.896  10.451  0.5424 -0.0241 -0.0854
  102MOL0     C13984   0.785  12.766  10.434 -0.1444 -0.0969  0.3550
  102MOL0     C13985   0.845  12.666  10.517  0.5695 -0.4557 -1.0089
  102MOL0     O13986   1.244  12.608  10.567 -0.4658 -0.0521  0.1379
  102MOL0     C13987   1.125  12.468  10.874  0.5735 -1.8107 -0.6542
  102MOL0     C13988   1.154  12.377  10.981  1.1345  0.0915  0.2694
  102MOL0     N13989   1.138  11.889  11.683 -0.9255 -1.5113  0.5716
  102MOL0     N13990   1.047  11.834  11.747  0.5541  0.3982 -0.0258
  102MOL0     C13991   1.634  11.204  11.198  0.5850 -0.7188  1.1005
  102MOL0     C13992   1.711  11.215  11.083 -0.0593 -0.3765  1.1532
  102MOL0     C13993   2.036  11.242  10.766 -0.1953  0.4617  0.0583
  102MOL0     C13994   2.083  11.374  10.757  0.6031  1.0031 -0.3611
  102MOL0     C13995   2.175  11.412  10.658  0.6692  0.3749  0.1224
  102MOL0     C13996   2.210  11.325  10.555 -0.0850 -0.5887 -0.7117
  102MOL0     O13997   2.271  11.348  10.427 -0.0812  0.0769 -0.1527
  102MOL0     C13998   2.313  11.489  10.410  0.2113  0.2373  0.7417
  102MOL0     C13999   2.391  11.514  10.283  0.4103 -0.1141 -0.3413
  102MOL0     C14000   2.300  11.484  10.173  0.2143  0.6652  0.8278
  102MOL0     C14001   2.356  11.401  10.055 -0.2993  0.5680 -0.2067
  102MOL0     C14002   2.324  11.441   9.915 -0.1380 -1.0856 -0.4008
  102MOL0     C14003   2.303  11.494   9.811 -0.6399  0.2787  0.5669
  102MOL0     C14004   2.157  11.199  10.559 -0.1651 -0.4909  0.4523
  102MOL0     C14005   2.076  11.156  10.660  0.5006  0.2846  1.0490
  102MOL0     C14006   2.035  11.009  10.650 -0.0540 -0.4364 -0.5602
  102MOL0     H14007   1.948  11.417  11.176 -0.7989  0.3440 -0.5899
  102MOL0     H14008   1.813  11.396  11.412  0.0389  3.8749 -1.8292
  102MOL0     H14009   1.449  11.132  11.406  2.1750 -0.6074  0.7221
  102MOL0     H14010   1.425  11.303  11.363 -1.5632 -2.3948 -2.3372
  102MOL0     H14011   1.291  11.237  11.553  0.1887 -3.2033  2.2004
  102MOL0     H14012   1.424  11.181  11.640  0.7947 -0.5771 -0.0523
  102MOL0     H14013   1.518  11.395  11.666 -1.3785 -1.8421  0.0144
  102MOL0     H14014   1.425  11.471  11.537 -1.0106  0.0389 -0.7776
  102MOL0     H14015   1.317  11.370  11.805  0.9000 -3.0651 -1.8125
  102MOL0     H14016   1.349  11.543  11.756  0.0864  0.6501 -1.1982
  102MOL0     H14017   1.148  11.355  11.639  3.4739 -0.0206 -1.0281
  102MOL0     H14018   1.185  11.524  11.588  2.6449 -0.1126 -0.3266
  102MOL0     H14019   1.057  11.415  11.847 -0.0963 -0.5236 -0.5842
  102MOL0     H14020   1.094  11.589  11.826  0.3024 -0.1490  1.2624
  102MOL0     H14021   0.870  11.434  11.726  0.3819 -1.2106 -1.5330
  102MOL0     H14022   0.948  11.471  11.581 -1.3602  1.8817 -0.9522
  102MOL0     H14023   0.782  11.645  11.658 -1.9838  3.0912  4.1424
  102MOL0     H14024   0.852  11.642  11.814 -1.0737  1.0846 -0.0358
  102MOL0     H14025   0.991  11.704  11.455  0.6000  1.4462  0.6114
  102MOL0     H14026   1.222  11.808  11.370 -2.0332 -0.8261  0.0454
  102MOL0     H14027   1.320  11.889  11.490  0.1671  2.8944  0.4867
  102MOL0     H14028   1.075  12.035  11.389  0.2801 -1.7438  2.7128
  102MOL0     H14029   1.211  12.093  11.469  0.4499 -2.0794  1.4943
  102MOL0     H14030   1.365  12.056  11.290 -0.2616 -0.6843  1.2846
  102MOL0     H14031   1.237  11.973  11.184  0.8009  0.3898 -1.8433
  102MOL0     H14032   1.112  12.182  11.159 -0.1160  1.6916  0.5949
  102MOL0     H14033   1.230  12.266  11.264  1.4609  1.0333 -0.2546
  102MOL0     H14034   1.436  12.246  10.859  0.5988  0.4403 -0.3999
  102MOL0     H14035   1.342  12.348  10.552 -1.1080 -1.3311  1.5004
  102MOL0     H14036   1.480  12.305  10.668  0.0409 -0.8046  0.8700
  102MOL0     H14037   1.459  12.468  10.616 -0.9355  0.3284  1.5886
  102MOL0     H14038   1.136  12.832  10.584  0.7850  0.6631 -1.0374
  102MOL0     H14039   1.033  12.990  10.415 -2.7235  1.5497 -1.4055
  102MOL0     H14040   0.674  13.078  10.208  2.7434 -2.5072 -3.0088
  102MOL0     H14041   0.611  12.938  10.287 -0.6932  0.4211  0.6644
  102MOL0     H14042   0.558  13.131  10.423 -0.6129 -1.5717 -1.2238
  102MOL0     H14043   0.669  13.027  10.513 -0.5065 -3.0068 -2.2230
  102MOL0     H14044   0.802  13.243  10.359 -0.3446  0.0272  0.1995
  102MOL0     H14045   0.832  13.191  10.525  1.0548 -0.2803 -1.0357
  102MOL0     H14046   0.647  13.337  10.604  0.9099  2.8267  0.3793
  102MOL0     H14047   0.604  13.365  10.425  0.7162 -0.2206 -1.5830
  102MOL0     H14048   0.858  13.423  10.564  0.8089  3.2621  0.5107
  102MOL0     H14049   0.826  13.466  10.390  2.3913  0.2578  0.5925
  102MOL0     H14050   0.709  13.604  10.640 -0.1657 -2.8834  0.7393
  102MOL0     H14051   0.654  13.620  10.470 -0.3018  1.5635  0.9839
  102MOL0     H14052   0.891  13.680  10.417  0.2754  2.8663 -0.6408
  102MOL0     H14053   0.926  13.665  10.587 -0.4053 -0.8568  0.5667
  102MOL0     H14054   0.880  13.908  10.516  0.1701 -0.9496 -1.2233
  102MOL0     H14055   0.772  13.850  10.643 -0.8792 -2.9471 -1.0185
  102MOL0     H14056   0.687  12.737  10.398  0.5125 -0.5398 -1.1553
  102MOL0     H14057   0.790  12.577  10.543  0.6261 -0.0132  0.7180
  102MOL0     H14058   1.044  12.538  10.892  3.2689  1.5843 -0.6723
  102MOL0     H14059   1.081  12.382  11.061  0.5511 -5.1402  0.3694
  102MOL0     H14060   1.544  11.145  11.187 -0.2265  0.5143  0.9719
  102MOL0     H14061   1.674  11.168  10.992 -2.1274  2.3355  0.4328
  102MOL0     H14062   2.052  11.446  10.832 -0.4528 -0.0536  0.2359
  102MOL0     H14063   2.208  11.514  10.674 -0.9140  0.7936  0.9029
  102MOL0     H14064   2.224  11.553  10.409  0.6619  0.9050 -1.7470
  102MOL0     H14065   2.366  11.525  10.499  1.7635 -2.6914  1.1254
  102MOL0     H14066   2.481  11.457  10.258  0.5754  0.5367 -1.3164
  102MOL0     H14067   2.422  11.619  10.291 -0.2222  0.0635 -0.1875
  102MOL0     H14068   2.217  11.423  10.209  0.2069 -0.0550 -0.3568
  102MOL0     H14069   2.250  11.578  10.145  0.6625  0.2590 -1.5697
  102MOL0     H14070   2.316  11.300  10.063  0.8834  0.1758  1.1427
  102MOL0     H14071   2.465  11.388  10.060 -0.1522  1.3031 -1.2589
  102MOL0     H14072   2.289  11.528   9.710  2.6753 -1.5415 -0.6664
  102MOL0     H14073   2.180  11.127  10.481  1.5075 -0.7004  1.1049
  102MOL0     H14074   2.072  10.961  10.559  1.6874  1.5508 -0.9902
  102MOL0     H14075   2.063  10.954  10.740  0.5758 -1.8898 -1.5930
  102MOL0     H14076   1.926  11.009  10.641  0.0013  1.4164 -1.6667
  103MOL0     O14077   4.680   7.944   5.684 -0.1645  0.2731 -0.2888
  103MOL0     C14078   4.596   7.911   5.766  0.3213  0.6125  1.3711
  103MOL0     O14079   4.585   7.957   5.887 -0.1851 -0.0860  0.1772
  103MOL0     C14080   4.655   8.073   5.934  0.1608  0.6162 -0.1517
  103MOL0     C14081   4.694   8.086   6.066  0.2351 -0.8428 -0.3206
  103MOL0     C14082   4.752   8.205   6.117  1.3288 -1.0459  0.1015
  103MOL0     C14083   4.775   8.313   6.038 -0.6526 -0.2594 -0.3104
  103MOL0     O14084   4.864   8.410   6.080 -0.2221 -0.4256 -0.4084
  103MOL0     C14085   4.911   8.515   5.994  0.8619  0.4526 -0.1012
  103MOL0     C14086   4.987   8.613   6.066 -0.2540 -0.0215 -0.5535
  103MOL0     C14087   5.104   8.550   6.150  0.4892 -0.1379 -0.0976
  103MOL0     C14088   5.211   8.476   6.061 -0.7202  0.1257 -0.4289
  103MOL0     C14089   5.314   8.391   6.142  0.4027 -0.0712  0.5477
  103MOL0     C14090   5.239   8.261   6.200  0.1853  0.1214 -0.1204
  103MOL0     C14091   5.237   8.145   6.111  0.4416 -0.1946  0.3124
  103MOL0     C14092   5.194   8.025   6.193  0.2555 -0.0497 -0.0362
  103MOL0     N14093   5.193   7.891   6.134  0.1110  0.2717  0.3135
  103MOL0     C14094   5.081   7.847   6.072 -0.7417  0.3386  1.1823
  103MOL0     C14095   5.110   7.722   6.029 -0.2417 -0.0771 -0.6925
  103MOL0     C14096   5.015   7.626   5.957 -0.3184  1.0130 -0.0674
  103MOL0     C14097   4.922   7.558   6.053  0.4382  0.0454 -0.1967
  103MOL0     C14098   4.790   7.508   5.986 -0.1027  0.0671  0.4414
  103MOL0     C14099   4.711   7.439   6.091  0.0868  0.1797  0.2668
  103MOL0     O14100   4.664   7.537   6.190 -0.3872 -0.1369  0.5040
  103MOL0     C14101   4.604   7.490   6.311 -0.0966  0.0014 -0.0804
  103MOL0     C14102   4.574   7.360   6.340 -0.1158 -0.1763  0.3403
  103MOL0     C14103   4.508   7.323   6.462  0.1236  0.5902  0.2749
  103MOL0     C14104   4.500   7.179   6.497 -0.3497  0.4075  0.2575
  103MOL0     C14105   4.461   7.422   6.554  0.8057  0.3029  0.3016
  103MOL0     C14106   4.396   7.407   6.686  0.2860 -0.2070 -0.3655
  103MOL0     O14107   4.427   7.504   6.775 -0.7704 -0.5957  1.1847
  103MOL0     C14108   4.343   7.531   6.882  0.3871  0.6649 -0.0578
  103MOL0     C14109   4.263   7.647   6.874  0.7112  0.0805  0.0450
  103MOL0     C14110   4.180   7.688   6.987 -0.4053 -0.4537 -0.2138
  103MOL0     C14111   4.160   7.591   7.091 -0.3607 -0.0874 -0.1151
  103MOL0     O14112   4.065   7.625   7.186 -0.0317 -0.0797  0.2298
  103MOL0     C14113   3.956   7.531   7.210 -0.0451 -0.2821  0.5478
  103MOL0     C14114   3.833   7.592   7.157  0.4322 -0.1108  0.0956
  103MOL0     C14115   3.715   7.494   7.150 -0.5052 -1.0660 -0.0831
  103MOL0     C14116   3.585   7.567   7.174 -0.1706 -0.1682 -0.6937
  103MOL0     C14117   3.540   7.676   7.070 -0.3211  0.6646 -0.5569
  103MOL0     C14118   3.554   7.609   6.928 -0.5127 -0.5095 -0.5645
  103MOL0     C14119   3.458   7.698   6.832  0.4667 -0.5493 -0.1525
  103MOL0     C14120   3.466   7.640   6.697 -0.2465 -0.5900  0.4777
  103MOL0    Cl14121   3.373   7.481   6.692 -0.3626  0.1209  0.2688
  103MOL0     C14122   4.235   7.479   7.089 -0.4634  1.2433 -0.8372
  103MOL0     C14123   4.336   7.450   6.997 -0.3858  0.2493 -0.0846
  103MOL0     O14124   4.329   7.300   6.704 -0.0490 -0.0594 -0.2273
  103MOL0     C14125   4.491   7.554   6.522 -0.3420 -0.7327 -0.3355
  103MOL0     C14126   4.554   7.590   6.403 -0.2246  0.1841  0.3663
  103MOL0     N14127   5.244   7.695   6.064  0.6961 -0.2920 -0.1204
  103MOL0     N14128   5.291   7.799   6.130 -0.1667  0.7379  1.0365
  103MOL0     C14129   4.736   8.303   5.904  0.4748  0.2947  0.9839
  103MOL0     C14130   4.665   8.188   5.857 -0.3573 -0.2027  0.0338
  103MOL0     C14131   4.492   7.802   5.734  0.3550 -0.2935  0.2551
  103MOL0     C14132   4.434   7.727   5.842 -0.0260 -0.2948  0.6089
  103MOL0     C14133   4.356   7.619   5.813  0.3133 -1.1555 -0.7851
  103MOL0     C14134   4.314   7.585   5.693 -0.7338 -0.3638  1.2003
  103MOL0     O14135   4.240   7.471   5.689  0.3751  0.5424 -0.0308
  103MOL0     C14136   4.175   7.442   5.567  0.9306 -0.5666 -1.0789
  103MOL0     C14137   4.082   7.560   5.517 -0.3063  0.5996 -0.5450
  103MOL0     C14138   4.069   7.582   5.365  0.3598  0.1791  0.4578
  103MOL0     C14139   3.964   7.695   5.331 -0.0086 -1.2296  0.4981
  103MOL0     C14140   3.947   7.685   5.187  1.1027 -0.3737  0.4600
  103MOL0     C14141   3.961   7.684   5.068  0.4868  0.9142  1.0624
  103MOL0     C14142   4.369   7.656   5.579  0.2956  0.7520 -0.9252
  103MOL0     C14143   4.458   7.766   5.602  0.0012 -1.0105  0.8386
  103MOL0     C14144   4.497   7.845   5.478  0.4094  0.1744  0.2844
  103MOL0     H14145   4.689   8.004   6.137 -1.6818 -2.2205 -1.9679
  103MOL0     H14146   4.782   8.208   6.221 -4.9545 -2.0035  2.3503
  103MOL0     H14147   4.829   8.562   5.939  1.2328 -0.9188 -1.9130
  103MOL0     H14148   4.975   8.468   5.919  5.1987  0.3327  3.2997
  103MOL0     H14149   5.027   8.687   5.997  1.8093 -0.7038 -0.1572
  103MOL0     H14150   4.915   8.663   6.132  1.8226  1.7363  0.4892
  103MOL0     H14151   5.166   8.629   6.196 -0.3979 -0.4906  1.8057
  103MOL0     H14152   5.059   8.483   6.223  1.3154 -0.6737 -0.0683
  103MOL0     H14153   5.156   8.420   5.985 -1.7156  1.7606 -0.9654
  103MOL0     H14154   5.261   8.558   6.009 -2.1089  1.9833  1.0172
  103MOL0     H14155   5.365   8.443   6.223  1.6381  0.2883 -0.4315
  103MOL0     H14156   5.394   8.349   6.081  1.1737  0.4070  1.2182
  103MOL0     H14157   5.279   8.234   6.298 -1.1557  2.0984  1.0273
  103MOL0     H14158   5.134   8.287   6.217  0.6156  1.4456  0.6821
  103MOL0     H14159   5.341   8.137   6.078  0.6469  5.3524 -1.4750
  103MOL0     H14160   5.167   8.153   6.028 -1.8305 -2.2580  1.8861
  103MOL0     H14161   5.258   8.022   6.282  0.4355 -4.2509 -0.1180
  103MOL0     H14162   5.097   8.048   6.238  0.6897  1.6816  0.0614
  103MOL0     H14163   4.988   7.899   6.050 -0.5418  0.3123  0.2311
  103MOL0     H14164   5.074   7.552   5.902 -3.0892 -0.2200 -1.5620
  103MOL0     H14165   4.957   7.680   5.883 -1.3344  1.4652  1.0410
  103MOL0     H14166   4.968   7.469   6.096 -0.2815  0.1164  0.7631
  103MOL0     H14167   4.898   7.630   6.133 -1.2498  0.4136 -0.9726
  103MOL0     H14168   4.729   7.585   5.938 -0.6619 -0.5146  0.2013
  103MOL0     H14169   4.822   7.433   5.912  2.1899  2.4283 -1.1061
  103MOL0     H14170   4.621   7.384   6.060 -0.9696  0.2147  3.0311
  103MOL0     H14171   4.771   7.364   6.144  1.0076  1.2784  0.8079
  103MOL0     H14172   4.605   7.277   6.278  1.5082  0.2290  0.5677
  103MOL0     H14173   4.543   7.156   6.596  1.2325 -0.9544 -0.6951
  103MOL0     H14174   4.558   7.115   6.430 -0.7089  1.5966 -1.2241
  103MOL0     H14175   4.398   7.146   6.479  0.2821 -1.3341 -0.3348
  103MOL0     H14176   4.259   7.702   6.780  0.9310 -1.0426 -0.6406
  103MOL0     H14177   4.134   7.785   7.000 -1.7965 -1.3068  1.5814
  103MOL0     H14178   3.959   7.435   7.157 -0.0112 -0.0863  0.1872
  103MOL0     H14179   3.953   7.517   7.318  0.2888 -0.4369  0.5386
  103MOL0     H14180   3.808   7.682   7.214 -0.8663 -1.6860  2.1795
  103MOL0     H14181   3.860   7.612   7.053  1.0292 -1.6133 -0.0642
  103MOL0     H14182   3.722   7.415   7.226 -1.6475  0.6963  1.9665
  103MOL0     H14183   3.701   7.444   7.054 -2.6844  0.9645 -0.9281
  103MOL0     H14184   3.593   7.624   7.267  2.6891 -0.2227 -0.8250
  103MOL0     H14185   3.506   7.493   7.182 -1.7479  1.4188 -0.9419
  103MOL0     H14186   3.436   7.703   7.090 -0.4824  0.2129 -0.7476
  103MOL0     H14187   3.585   7.775   7.069 -2.4610  1.7031 -1.1039
  103MOL0     H14188   3.527   7.503   6.920  0.5235 -0.9734  1.4041
  103MOL0     H14189   3.660   7.619   6.902 -0.8169  0.2194 -1.6055
  103MOL0     H14190   3.486   7.804   6.826 -0.5067 -0.2051  1.0242
  103MOL0     H14191   3.359   7.678   6.874  0.9448 -0.4998  1.0521
  103MOL0     H14192   3.570   7.615   6.674  0.2323  2.0398 -0.5029
  103MOL0     H14193   3.426   7.710   6.623  0.9107 -0.1902  0.2180
  103MOL0     H14194   4.207   7.397   7.155  1.8284  0.2257 -1.0565
  103MOL0     H14195   4.397   7.360   7.005 -0.3499  0.3000  0.2278
  103MOL0     H14196   4.461   7.633   6.590  0.7193 -0.3457 -0.3018
  103MOL0     H14197   4.577   7.690   6.367  0.1769 -0.0218  0.0516
  103MOL0     H14198   4.749   8.381   5.829  0.8658  0.7990  1.5641
  103MOL0     H14199   4.640   8.188   5.751  0.7314 -0.2634 -0.2330
  103MOL0     H14200   4.461   7.737   5.947  1.2678 -1.6641  0.4314
  103MOL0     H14201   4.311   7.557   5.890 -1.1377  0.0157 -0.6404
  103MOL0     H14202   4.248   7.422   5.489  0.7898 -1.5736 -0.9743
  103MOL0     H14203   4.124   7.348   5.591  3.2157 -1.2978  1.3238
  103MOL0     H14204   4.109   7.651   5.572 -0.3322 -0.4510  1.2791
  103MOL0     H14205   3.983   7.538   5.557  0.8963 -1.7210  1.4302
  103MOL0     H14206   4.171   7.607   5.335  0.3784  1.6558  1.6497
  103MOL0     H14207   4.048   7.483   5.322  1.2602 -0.2730  1.0259
  103MOL0     H14208   4.012   7.787   5.367  0.6557 -2.0630  1.8056
  103MOL0     H14209   3.867   7.681   5.379 -1.0191 -0.5305 -1.2703
  103MOL0     H14210   3.963   7.692   4.961  0.0883  0.9011  1.0500
  103MOL0     H14211   4.347   7.617   5.480 -5.0949 -0.6763  0.5137
  103MOL0     H14212   4.431   7.932   5.480 -0.6685 -0.6134  0.2091
  103MOL0     H14213   4.605   7.865   5.472  0.1632  1.2970 -0.6451
  103MOL0     H14214   4.463   7.794   5.387  2.1242 -1.1081  0.3059
  104MOL0     O14215   5.036   2.184   3.545  0.0622  1.0530 -0.6101
  104MOL0     C14216   5.013   2.300   3.562  0.9619 -0.6354  0.1611
  104MOL0     O14217   5.056   2.408   3.482  0.7182  0.3936 -0.3297
  104MOL0     C14218   5.143   2.389   3.389  0.0715  0.3864  0.2948
  104MOL0     C14219   5.278   2.424   3.406  0.0466 -0.0416  0.7127
  104MOL0     C14220   5.373   2.402   3.299  0.2738  0.0439 -0.0798
  104MOL0     C14221   5.330   2.320   3.190 -0.2960 -0.0744 -0.6678
  104MOL0     O14222   5.414   2.268   3.087  0.1206 -0.0639 -0.6416
  104MOL0     C14223   5.551   2.260   3.110 -0.3512 -0.5893  0.0403
  104MOL0     C14224   5.594   2.157   3.013 -0.6577 -0.3964  0.1902
  104MOL0     C14225   5.749   2.119   3.022  1.4148 -0.0707 -0.4449
  104MOL0     C14226   5.782   2.014   2.914 -0.5952 -0.3655  0.4414
  104MOL0     C14227   5.933   1.994   2.901 -0.3122  0.3380 -0.0984
  104MOL0     C14228   5.993   1.871   2.829  0.8177 -0.0449  0.3733
  104MOL0     C14229   5.952   1.861   2.678 -0.6259 -0.4472  1.1771
  104MOL0     C14230   6.064   1.794   2.593 -0.1006 -0.0166  0.1870
  104MOL0     N14231   6.033   1.788   2.455  0.1704  0.4798  0.3024
  104MOL0     C14232   5.916   1.736   2.406  0.3150  0.1926  0.0755
  104MOL0     C14233   5.929   1.728   2.273 -0.5291  0.4734 -0.3156
  104MOL0     C14234   5.828   1.673   2.181  0.1982 -0.6321 -0.8823
  104MOL0     C14235   5.706   1.771   2.151  0.0555  0.1712 -0.2140
  104MOL0     C14236   5.745   1.898   2.078 -0.3089  0.4352 -0.2863
  104MOL0     C14237   5.792   1.884   1.938  0.4971  0.1994 -0.1842
  104MOL0     O14238   5.826   2.013   1.884 -0.4807  0.9615 -0.0454
  104MOL0     C14239   5.888   2.012   1.763 -0.6232 -0.2204 -0.3301
  104MOL0     C14240   5.917   2.137   1.718 -0.5932 -0.8270 -0.0236
  104MOL0     C14241   6.010   2.165   1.614 -1.1191 -0.2172  0.9342
  104MOL0     C14242   6.052   2.307   1.586  0.1456 -0.3599 -0.1379
  104MOL0     C14243   6.046   2.053   1.530  0.2806 -0.5255 -0.9678
  104MOL0     C14244   6.110   2.070   1.401 -0.2638  0.2401 -0.4770
  104MOL0     O14245   6.120   1.957   1.328 -0.7497  0.3902  0.3478
  104MOL0     C14246   6.153   1.952   1.197  0.8420 -0.5760 -0.8160
  104MOL0     C14247   6.062   1.942   1.092  0.5336  0.1159 -0.3661
  104MOL0     C14248   6.107   1.950   0.961  0.9571  0.6224  0.5480
  104MOL0     C14249   6.251   1.957   0.934  0.2853 -1.1863  0.2331
  104MOL0     O14250   6.286   1.946   0.803 -0.6317 -0.0209  0.2726
  104MOL0     C14251   6.290   2.072   0.746 -0.1348  0.1195 -0.4547
  104MOL0     C14252   6.364   2.072   0.615  0.1274 -0.6554 -0.0140
  104MOL0     C14253   6.305   1.961   0.528  0.5770 -0.3091 -0.0418
  104MOL0     C14254   6.320   1.992   0.376 -0.2815  0.2537 -0.8339
  104MOL0     C14255   6.253   1.883   0.299 -1.3853 -0.0919  0.1753
  104MOL0     C14256   6.101   1.897   0.278 -0.3423  0.0555 -0.4411
  104MOL0     C14257   6.044   1.768   0.226 -1.4611  0.5840 -0.2509
  104MOL0     C14258   5.899   1.747   0.222 -0.4131  0.0135 -1.0032
  104MOL0    Cl14259   5.837   1.662   0.372 -0.2477 -0.2171 -0.2027
  104MOL0     C14260   6.344   1.966   1.039  0.0989 -0.0755 -0.6331
  104MOL0     C14261   6.289   1.966   1.173  0.3057  1.0191 -0.1102
  104MOL0     O14262   6.145   2.184   1.360  0.2002 -0.2097  0.0716
  104MOL0     C14263   6.011   1.919   1.579 -0.3805 -1.0219  0.8059
  104MOL0     C14264   5.942   1.901   1.697 -0.3665  0.2701  0.2497
  104MOL0     N14265   6.053   1.781   2.242  0.4670  0.0531 -0.4849
  104MOL0     N14266   6.116   1.816   2.350 -0.2785 -0.0918  0.0432
  104MOL0     C14267   5.199   2.289   3.174  0.1199  0.0990  0.6985
  104MOL0     C14268   5.109   2.314   3.271 -0.2568  0.2068 -0.2999
  104MOL0     C14269   4.930   2.347   3.676 -0.4309  0.1298 -0.9575
  104MOL0     C14270   4.787   2.342   3.683 -0.5913 -0.6454  0.0795
  104MOL0     C14271   4.715   2.402   3.785  0.0439  0.0291  0.0815
  104MOL0     C14272   4.774   2.458   3.895  0.9293 -0.3438 -0.9884
  104MOL0     O14273   4.693   2.502   3.999 -0.2451  0.1829 -0.6111
  104MOL0     C14274   4.747   2.516   4.134  0.1411  0.4871 -0.1824
  104MOL0     C14275   4.821   2.647   4.149  0.6505  0.0699 -0.8354
  104MOL0     C14276   4.743   2.769   4.110  0.4558  0.4163 -0.3718
  104MOL0     C14277   4.810   2.895   4.167  0.1080 -0.6020 -0.4155
  104MOL0     C14278   4.780   2.905   4.311 -0.0244 -0.5388  0.2186
  104MOL0     C14279   4.749   2.926   4.432  1.1178 -0.4972 -0.1421
  104MOL0     C14280   4.918   2.464   3.892 -0.4949 -0.1442 -0.5126
  104MOL0     C14281   4.993   2.415   3.784 -0.6258  0.2007 -0.2722
  104MOL0     C14282   5.146   2.436   3.795  0.8830  0.2067 -0.1649
  104MOL0     H14283   5.326   2.463   3.495 -0.0251  0.0500  0.7115
  104MOL0     H14284   5.474   2.441   3.298  0.3684 -0.2059 -0.7078
  104MOL0     H14285   5.572   2.233   3.214 -1.3526 -0.2671  0.3355
  104MOL0     H14286   5.603   2.350   3.079 -1.2375  0.0621  0.4096
  104MOL0     H14287   5.542   2.061   3.028 -1.2660 -0.5305 -2.2078
  104MOL0     H14288   5.570   2.195   2.913  3.7959 -0.4192 -1.1049
  104MOL0     H14289   5.809   2.209   3.019  0.0858  1.1090  2.9174
  104MOL0     H14290   5.758   2.072   3.121  1.4642  2.3713  0.7899
  104MOL0     H14291   5.730   1.919   2.928 -1.3693  0.0717  0.5658
  104MOL0     H14292   5.752   2.054   2.817 -0.1915  0.0989  0.5054
  104MOL0     H14293   5.982   2.003   2.999  0.8113 -0.7182 -0.5360
  104MOL0     H14294   5.975   2.083   2.855  1.5994  0.9937  2.6335
  104MOL0     H14295   6.101   1.882   2.836  0.5814  3.7799 -0.0781
  104MOL0     H14296   5.954   1.783   2.883  0.7213  0.0881  0.5227
  104MOL0     H14297   5.935   1.961   2.637  1.7218 -0.4622 -0.0336
  104MOL0     H14298   5.850   1.822   2.667 -1.4462  1.6103  1.0244
  104MOL0     H14299   6.162   1.840   2.609 -0.0980 -0.7992  2.8455
  104MOL0     H14300   6.077   1.689   2.620  2.2538 -0.7501 -3.2275
  104MOL0     H14301   5.826   1.702   2.456  0.3974  2.8057  2.2675
  104MOL0     H14302   5.792   1.579   2.223 -1.3001 -0.0130 -0.7174
  104MOL0     H14303   5.867   1.640   2.084  4.1886 -4.0346  1.5590
  104MOL0     H14304   5.627   1.713   2.103 -0.5144  1.9343 -1.5139
  104MOL0     H14305   5.657   1.799   2.245  2.3302  2.5745  0.3440
  104MOL0     H14306   5.660   1.967   2.072  0.9071  1.9221 -0.9903
  104MOL0     H14307   5.815   1.960   2.135 -0.1809 -0.3263  0.4165
  104MOL0     H14308   5.882   1.821   1.933  2.4880  2.9401 -0.9797
  104MOL0     H14309   5.716   1.831   1.879  1.7836  0.5539 -2.2813
  104MOL0     H14310   5.877   2.223   1.771  2.9980  0.7028  0.4615
  104MOL0     H14311   6.011   2.374   1.662  2.2279  1.6601 -0.6830
  104MOL0     H14312   6.012   2.336   1.488 -1.2050  0.3752  0.6033
  104MOL0     H14313   6.161   2.318   1.592  0.1850  1.0097 -2.2103
  104MOL0     H14314   5.954   1.941   1.102  0.2782 -3.1162 -1.9099
  104MOL0     H14315   6.033   1.932   0.884  1.8112  1.2656 -0.4288
  104MOL0     H14316   6.187   2.109   0.738 -0.9451 -1.5167  1.7481
  104MOL0     H14317   6.342   2.145   0.809 -2.9874 -0.8571  3.3243
  104MOL0     H14318   6.353   2.166   0.560  0.2408 -1.0157 -0.6605
  104MOL0     H14319   6.472   2.055   0.622  0.2258 -0.0148  0.1110
  104MOL0     H14320   6.198   1.945   0.541  0.7587 -1.8116 -0.2279
  104MOL0     H14321   6.361   1.873   0.560  3.3612  1.7708  1.2640
  104MOL0     H14322   6.426   1.992   0.350  0.5263  0.9430  2.0789
  104MOL0     H14323   6.268   2.082   0.344 -1.7741  0.1988  1.2167
  104MOL0     H14324   6.310   1.876   0.206 -1.5409  2.6472 -0.1992
  104MOL0     H14325   6.280   1.792   0.353 -2.1728 -1.2737 -1.3454
  104MOL0     H14326   6.073   1.982   0.215 -2.3563  0.4833  0.9203
  104MOL0     H14327   6.044   1.914   0.370  1.1318 -0.0137  0.5136
  104MOL0     H14328   6.094   1.690   0.284 -1.4226  1.1094  0.4372
  104MOL0     H14329   6.086   1.752   0.126  3.6965 -0.3097  1.7315
  104MOL0     H14330   5.876   1.677   0.141 -0.8115 -0.6170 -0.3573
  104MOL0     H14331   5.854   1.845   0.206  0.9806  1.0194  0.9075
  104MOL0     H14332   6.451   1.983   1.028  0.0098  0.7422 -0.3441
  104MOL0     H14333   6.355   1.964   1.259  1.3147  0.8031 -0.8758
  104MOL0     H14334   6.029   1.831   1.518  3.1010  1.8262 -2.7969
  104MOL0     H14335   5.923   1.796   1.714 -0.5501  0.5292  1.7868
  104MOL0     H14336   5.169   2.232   3.086 -1.3792  1.6591  0.1344
  104MOL0     H14337   5.018   2.256   3.261  0.3185 -0.9663  0.8952
  104MOL0     H14338   4.738   2.287   3.603  2.4254 -0.9454 -1.7118
  104MOL0     H14339   4.608   2.382   3.790 -0.1131  0.7211 -0.4677
  104MOL0     H14340   4.671   2.528   4.211  2.0158  1.6312  1.5997
  104MOL0     H14341   4.809   2.428   4.155 -0.3156  0.0889 -0.4818
  104MOL0     H14342   4.917   2.644   4.098 -0.0868 -1.1469 -2.2405
  104MOL0     H14343   4.852   2.649   4.254  0.5796  1.0532 -0.8232
  104MOL0     H14344   4.729   2.787   4.003  2.2193  0.2901 -0.6601
  104MOL0     H14345   4.640   2.757   4.142  0.2298 -2.5500 -1.9384
  104MOL0     H14346   4.765   2.977   4.110 -2.0146 -1.0722  0.5078
  104MOL0     H14347   4.916   2.909   4.146 -0.0004  0.7527 -0.1661
  104MOL0     H14348   4.711   2.941   4.531 -3.7277 -0.8465 -1.7053
  104MOL0     H14349   4.965   2.518   3.974 -1.5413 -0.5203  0.3511
  104MOL0     H14350   5.208   2.352   3.828  0.0905 -1.9750 -3.6312
  104MOL0     H14351   5.176   2.488   3.703 -0.7225 -0.9903 -1.4424
  104MOL0     H14352   5.164   2.507   3.875  0.9884  2.0687 -1.7626
  105MOL0     O14353   8.565   3.228   2.000 -0.4197  0.1966 -0.0260
  105MOL0     C14354   8.472   3.150   2.019 -0.3413 -0.6458 -0.1866
  105MOL0     O14355   8.382   3.178   2.119  0.4332 -0.4450 -0.5474
  105MOL0     C14356   8.391   3.276   2.216  0.0843  0.4682 -0.3464
  105MOL0     C14357   8.268   3.305   2.266  0.6442 -0.0341 -0.3856
  105MOL0     C14358   8.254   3.418   2.359 -0.4168  0.0002 -0.2037
  105MOL0     C14359   8.371   3.487   2.418  0.4291  0.9963  0.5031
  105MOL0     O14360   8.369   3.578   2.517  0.2333  0.1495  0.4887
  105MOL0     C14361   8.240   3.624   2.560 -0.4674 -0.6686 -0.8805
  105MOL0     C14362   8.260   3.733   2.673  0.3920 -0.6874  0.6518
  105MOL0     C14363   8.195   3.689   2.805 -0.5797  0.3323 -0.0440
  105MOL0     C14364   8.046   3.707   2.806 -1.0242  0.3341  0.4308
  105MOL0     C14365   7.994   3.643   2.929 -0.2158  0.6207  0.8767
  105MOL0     C14366   7.856   3.679   2.963  0.4322  0.3455 -0.1043
  105MOL0     C14367   7.813   3.592   3.090  0.8599 -0.1020 -0.4301
  105MOL0     C14368   7.696   3.646   3.165 -0.6570 -0.2037 -0.2813
  105MOL0     N14369   7.575   3.651   3.095 -0.0408  0.1724  0.0582
  105MOL0     C14370   7.530   3.751   3.002  0.1575 -0.4761 -0.1777
  105MOL0     C14371   7.411   3.704   2.949  0.1416 -0.2519  1.0789
  105MOL0     C14372   7.325   3.783   2.843 -0.5906 -0.3221 -0.1083
  105MOL0     C14373   7.176   3.744   2.840  1.3894  0.6728 -0.9756
  105MOL0     C14374   7.136   3.655   2.718 -0.2276 -1.0755  0.4994
  105MOL0     C14375   6.988   3.616   2.733 -0.3802  0.1127 -0.0239
  105MOL0     O14376   6.912   3.740   2.711  0.9710  0.0749 -0.1305
  105MOL0     C14377   6.784   3.744   2.747  1.0007 -0.4796  0.2235
  105MOL0     C14378   6.706   3.660   2.827 -0.6262 -0.4314 -0.4181
  105MOL0     C14379   6.573   3.679   2.847  0.7872  0.1210  0.9657
  105MOL0     C14380   6.509   3.583   2.942 -0.4752  0.1285 -0.3675
  105MOL0     C14381   6.497   3.782   2.784 -0.5165 -1.0705  0.4599
  105MOL0     C14382   6.349   3.809   2.802 -0.5446  0.4542 -0.6602
  105MOL0     O14383   6.311   3.936   2.762  0.0027 -0.4009 -0.6085
  105MOL0     C14384   6.176   3.968   2.779  0.2888  0.2233  1.3527
  105MOL0     C14385   6.148   4.096   2.822 -0.7322  0.7690 -0.3746
  105MOL0     C14386   6.013   4.128   2.835  0.3708 -0.4985  0.1300
  105MOL0     C14387   5.912   4.038   2.808 -0.3226 -0.4893 -0.5343
  105MOL0     O14388   5.780   4.076   2.834 -0.4169 -0.6994  0.4196
  105MOL0     C14389   5.692   3.983   2.885 -0.8820 -0.0085  0.8635
  105MOL0     C14390   5.570   4.062   2.917  0.8449 -0.6126  0.4587
  105MOL0     C14391   5.468   3.977   2.995  0.0837 -0.0869  0.5533
  105MOL0     C14392   5.346   4.049   3.052  0.7915 -0.2992 -0.4733
  105MOL0     C14393   5.305   4.001   3.193 -0.8234 -0.1532  0.5626
  105MOL0     C14394   5.400   4.044   3.308 -0.1159  0.0560 -0.3444
  105MOL0     C14395   5.427   4.191   3.321  0.1439  0.1710  1.1731
  105MOL0     C14396   5.472   4.215   3.459 -0.1115 -0.1703 -0.5276
  105MOL0    Cl14397   5.559   4.372   3.453 -0.2606 -0.2709 -0.1308
  105MOL0     C14398   5.938   3.912   2.766 -0.0733  0.3582  0.1492
  105MOL0     C14399   6.068   3.874   2.743  0.2600  0.4474 -0.2176
  105MOL0     O14400   6.279   3.720   2.846 -0.9460  0.2805 -1.3366
  105MOL0     C14401   6.573   3.869   2.705  1.1280  0.2568 -0.5000
  105MOL0     C14402   6.706   3.842   2.682 -0.7791 -0.5528  0.1468
  105MOL0     N14403   7.385   3.579   3.006  0.4572  0.6429 -0.6897
  105MOL0     N14404   7.484   3.548   3.086  0.4512 -0.2776  0.9825
  105MOL0     C14405   8.490   3.445   2.366  0.1495  0.0620  0.3504
  105MOL0     C14406   8.500   3.342   2.265 -0.4337  0.5350  0.2801
  105MOL0     C14407   8.468   3.049   1.920  0.6021 -0.0075  0.1086
  105MOL0     C14408   8.340   3.013   1.865 -0.2492  0.4997 -0.1685
  105MOL0     C14409   8.334   2.913   1.772 -0.1269 -0.4371  0.1446
  105MOL0     C14410   8.440   2.831   1.744 -0.7391  0.8295 -0.0543
  105MOL0     O14411   8.409   2.735   1.649 -0.1889  0.2926  0.3953
  105MOL0     C14412   8.510   2.656   1.585 -0.4972  0.3424 -0.8101
  105MOL0     C14413   8.469   2.602   1.447 -0.4639  0.1616  0.3164
  105MOL0     C14414   8.412   2.701   1.343  0.0429 -0.1798 -0.7398
  105MOL0     C14415   8.521   2.750   1.247 -0.1099  0.4575 -0.1258
  105MOL0     C14416   8.469   2.823   1.132  0.3177  0.0075  0.2778
  105MOL0     C14417   8.437   2.887   1.037  0.3856 -0.6774  0.6715
  105MOL0     C14418   8.567   2.861   1.811 -0.1930  0.6336  0.2708
  105MOL0     C14419   8.578   2.967   1.890  0.7245 -0.5340 -0.4630
  105MOL0     C14420   8.709   2.968   1.971  0.1945 -0.1162  0.6291
  105MOL0     H14421   8.183   3.248   2.231  0.9666 -1.0475  0.4420
  105MOL0     H14422   8.158   3.454   2.395 -0.8132 -3.3705  2.7297
  105MOL0     H14423   8.188   3.541   2.610  0.1059 -0.1839  0.5916
  105MOL0     H14424   8.183   3.663   2.475 -3.7371 -2.6799  0.1790
  105MOL0     H14425   8.364   3.757   2.698 -0.1262  0.3095  2.0555
  105MOL0     H14426   8.215   3.827   2.640  0.1568 -0.9001  0.3655
  105MOL0     H14427   8.225   3.590   2.839  2.6162  0.5782 -1.7820
  105MOL0     H14428   8.233   3.752   2.885  1.5193 -2.7363  1.5874
  105MOL0     H14429   8.023   3.812   2.787  0.6025  0.4713 -1.0075
  105MOL0     H14430   8.003   3.649   2.724  1.3672  1.1930 -1.5798
  105MOL0     H14431   8.065   3.674   3.007 -2.3677  0.7004  2.9075
  105MOL0     H14432   8.004   3.534   2.922 -0.3594  0.6847 -0.5780
  105MOL0     H14433   7.844   3.786   2.980 -0.6039  0.0652  1.0857
  105MOL0     H14434   7.795   3.653   2.875 -0.3703  0.1564  0.5024
  105MOL0     H14435   7.898   3.584   3.158  0.1089 -1.2181  0.3974
  105MOL0     H14436   7.780   3.493   3.059  1.8786 -0.8549  0.7830
  105MOL0     H14437   7.681   3.588   3.257 -3.9934  0.1049 -0.4913
  105MOL0     H14438   7.724   3.748   3.192  3.4651 -1.3576  0.4677
  105MOL0     H14439   7.560   3.854   2.989 -0.7482 -0.4967 -3.4396
  105MOL0     H14440   7.367   3.759   2.745 -1.4411 -2.4482 -0.0050
  105MOL0     H14441   7.322   3.892   2.859 -1.3981  0.3469 -3.9883
  105MOL0     H14442   7.151   3.705   2.939  3.0738 -1.5657 -1.3318
  105MOL0     H14443   7.125   3.840   2.829 -0.9000 -0.5744 -1.9570
  105MOL0     H14444   7.151   3.712   2.626  0.2623  0.9114  1.7478
  105MOL0     H14445   7.193   3.562   2.710  0.3995 -0.5801 -1.2661
  105MOL0     H14446   6.955   3.542   2.660 -2.6076 -2.5431  3.3764
  105MOL0     H14447   6.966   3.579   2.833  1.8278 -1.3321 -0.0018
  105MOL0     H14448   6.749   3.572   2.874 -0.4734 -0.7757 -1.1906
  105MOL0     H14449   6.468   3.496   2.889  3.3424 -0.5462 -2.6131
  105MOL0     H14450   6.436   3.637   3.002  2.6889  2.3290  1.8741
  105MOL0     H14451   6.583   3.542   3.012 -0.4099 -0.7597 -0.9422
  105MOL0     H14452   6.229   4.165   2.847 -0.0569 -0.3735  0.7280
  105MOL0     H14453   5.968   4.220   2.869  2.0008  0.6922 -0.8024
  105MOL0     H14454   5.658   3.903   2.818 -3.7953  0.9281  1.0863
  105MOL0     H14455   5.736   3.930   2.969 -2.2269 -2.2140  0.2660
  105MOL0     H14456   5.606   4.143   2.981 -2.3271  1.1098  0.3219
  105MOL0     H14457   5.524   4.118   2.834  2.4599  3.4658  2.0893
  105MOL0     H14458   5.523   3.912   3.065  0.3883  1.2332  1.5887
  105MOL0     H14459   5.426   3.901   2.928 -2.1315  0.4468  1.2597
  105MOL0     H14460   5.266   4.050   2.977  2.4512 -0.2217 -2.3055
  105MOL0     H14461   5.370   4.154   3.068  0.9236 -0.7361  3.0676
  105MOL0     H14462   5.214   4.054   3.224 -1.8232 -2.0275  0.9610
  105MOL0     H14463   5.278   3.896   3.198 -2.7581  0.3325  1.1204
  105MOL0     H14464   5.491   3.983   3.306 -1.3545 -1.8782 -0.7128
  105MOL0     H14465   5.354   4.015   3.403 -0.1767  2.3696  0.3819
  105MOL0     H14466   5.338   4.247   3.291 -0.8210 -0.6932  2.3123
  105MOL0     H14467   5.511   4.224   3.260 -2.1442  2.5150 -0.9998
  105MOL0     H14468   5.540   4.135   3.488 -1.2673 -0.7019  0.8671
  105MOL0     H14469   5.383   4.220   3.523 -0.1309 -2.5070 -0.2871
  105MOL0     H14470   5.855   3.848   2.738 -0.9668  1.6988 -0.3461
  105MOL0     H14471   6.080   3.768   2.723  2.4665  0.9783 -2.1690
  105MOL0     H14472   6.526   3.942   2.639 -3.4349 -2.3460 -0.6064
  105MOL0     H14473   6.762   3.912   2.621 -1.2601  0.3719  0.7529
  105MOL0     H14474   8.581   3.497   2.394 -0.1888  1.6920 -1.3717
  105MOL0     H14475   8.594   3.327   2.213  0.0315  0.4423  1.1214
  105MOL0     H14476   8.246   3.066   1.876 -0.3764  0.1201  0.6776
  105MOL0     H14477   8.246   2.906   1.709  0.0222  1.1266 -0.2834
  105MOL0     H14478   8.603   2.712   1.572 -0.7723  1.0571  0.1384
  105MOL0     H14479   8.552   2.582   1.653  0.0996  0.7690 -0.7021
  105MOL0     H14480   8.399   2.520   1.462  0.1395 -0.2888  0.7083
  105MOL0     H14481   8.558   2.560   1.400  0.6799 -0.1073  2.5877
  105MOL0     H14482   8.342   2.642   1.283  0.2866  0.2602 -1.4639
  105MOL0     H14483   8.371   2.790   1.392  2.2026  0.8437 -0.6579
  105MOL0     H14484   8.578   2.665   1.208 -1.8133  0.1238 -2.0425
  105MOL0     H14485   8.590   2.815   1.302 -0.2547 -0.2091  0.8632
  105MOL0     H14486   8.401   2.934   0.948 -0.0103 -1.0034  0.6553
  105MOL0     H14487   8.653   2.799   1.787 -0.2316  0.5100  0.4480
  105MOL0     H14488   8.757   3.061   1.939  0.5873 -0.5828 -0.1819
  105MOL0     H14489   8.694   2.969   2.079  3.1520  5.0827  1.3015
  105MOL0     H14490   8.780   2.886   1.958  1.3480  0.6179  2.0070
  106MOL0     O14491   7.978   8.189   8.488  0.2533 -0.1835 -0.0290
  106MOL0     C14492   8.021   8.073   8.503 -0.5555 -0.0753  0.0746
  106MOL0     O14493   7.947   7.962   8.539 -0.4170 -1.1216  0.0563
  106MOL0     C14494   7.812   7.987   8.546 -0.3076  0.3980 -0.1671
  106MOL0     C14495   7.723   7.905   8.473 -0.2031 -0.2504 -0.0800
  106MOL0     C14496   7.583   7.914   8.493 -1.5107 -0.3975 -0.8870
  106MOL0     C14497   7.534   8.013   8.578 -0.1745  0.3944 -0.0393
  106MOL0     O14498   7.403   8.051   8.598 -0.1655 -0.3105 -0.1888
  106MOL0     C14499   7.319   7.978   8.513  0.4709 -0.2685 -0.5599
  106MOL0     C14500   7.181   8.050   8.504 -0.3564  1.0401  0.4288
  106MOL0     C14501   7.202   8.184   8.427  0.0351  0.9753 -1.0741
  106MOL0     C14502   7.073   8.248   8.377 -1.1874 -0.2221 -0.6736
  106MOL0     C14503   7.108   8.373   8.291 -0.1139 -0.1941  0.8523
  106MOL0     C14504   7.157   8.486   8.377 -0.0950  0.9782  0.3595
  106MOL0     C14505   7.203   8.613   8.311 -0.3967  0.0494 -0.4776
  106MOL0     C14506   7.308   8.689   8.407 -0.0182 -0.4360 -0.1423
  106MOL0     N14507   7.357   8.795   8.322  0.1184  0.5078  0.3663
  106MOL0     C14508   7.294   8.907   8.285 -0.0134 -0.3121  0.5380
  106MOL0     C14509   7.394   8.984   8.229 -0.8918 -0.5466  0.3880
  106MOL0     C14510   7.363   9.116   8.167  0.3596 -0.4931  0.2202
  106MOL0     C14511   7.475   9.205   8.112  0.1579 -0.6592 -0.5337
  106MOL0     C14512   7.495   9.194   7.963  0.2487 -0.1171 -0.1718
  106MOL0     C14513   7.632   9.254   7.916  0.2763  0.4194 -0.4679
  106MOL0     O14514   7.646   9.257   7.774  0.1723  0.2180 -0.2805
  106MOL0     C14515   7.684   9.379   7.718  0.1348 -0.8689  0.2948
  106MOL0     C14516   7.631   9.504   7.759 -0.5885  0.5722 -0.3100
  106MOL0     C14517   7.682   9.620   7.694  0.1149 -0.6319  0.2873
  106MOL0     C14518   7.621   9.750   7.752  0.2399 -1.0774  0.2786
  106MOL0     C14519   7.770   9.616   7.588  0.0456  1.1462  0.4204
  106MOL0     C14520   7.812   9.740   7.513  0.3604 -0.4927 -0.0535
  106MOL0     O14521   7.872   9.723   7.394  0.1280 -0.1297  0.2804
  106MOL0     C14522   7.889   9.832   7.317 -0.6083 -0.3679  0.0146
  106MOL0     C14523   8.012   9.890   7.275  0.9037  1.1798 -0.5566
  106MOL0     C14524   8.012  10.014   7.199 -0.4837  0.7019  0.2362
  106MOL0     C14525   7.895  10.067   7.150 -1.1866  0.1747  0.0217
  106MOL0     O14526   7.886  10.178   7.074 -0.2648 -0.5891 -0.3349
  106MOL0     C14527   8.002  10.249   7.027  0.0250  0.5996  0.2194
  106MOL0     C14528   7.988  10.313   6.888  0.1799 -1.0031 -0.1984
  106MOL0     C14529   7.958  10.220   6.774 -0.1105  0.7729 -0.0567
  106MOL0     C14530   7.936  10.304   6.645 -0.2747  0.0603 -0.2920
  106MOL0     C14531   8.070  10.352   6.579  0.2211 -0.6194 -0.5771
  106MOL0     C14532   8.038  10.425   6.444  0.3433 -0.3299 -0.2943
  106MOL0     C14533   8.171  10.471   6.380  0.5501 -0.4350 -0.1671
  106MOL0     C14534   8.138  10.524   6.238 -1.2226 -0.3067  0.4038
  106MOL0    Cl14535   8.076  10.415   6.111  0.0948 -0.0777  0.1956
  106MOL0     C14536   7.776  10.000   7.183  0.6152 -1.4880 -0.7203
  106MOL0     C14537   7.771   9.890   7.261  0.2769  0.0833  0.3875
  106MOL0     O14538   7.806   9.848   7.574 -1.1860 -0.0941  0.3388
  106MOL0     C14539   7.823   9.495   7.553  1.1987  0.8990  0.3355
  106MOL0     C14540   7.784   9.380   7.625  0.5054  0.2589  0.7947
  106MOL0     N14541   7.510   8.910   8.222  0.6663 -0.2352 -0.0486
  106MOL0     N14542   7.489   8.800   8.275 -0.2175  1.1338  0.4007
  106MOL0     C14543   7.621   8.097   8.650 -0.7674  0.0294  0.1518
  106MOL0     C14544   7.762   8.078   8.640  1.3306  0.4171  0.5175
  106MOL0     C14545   8.174   8.055   8.491  0.1898  0.3409  0.4985
  106MOL0     C14546   8.236   8.109   8.377  0.0254 -0.2340 -0.1022
  106MOL0     C14547   8.372   8.097   8.342  0.5469  0.4752 -0.7760
  106MOL0     C14548   8.449   8.021   8.437  0.3242 -0.1306  0.7332
  106MOL0     O14549   8.577   7.983   8.427 -0.4719 -0.2735 -0.2210
  106MOL0     C14550   8.667   8.069   8.355  0.3291 -0.2414 -0.7350
  106MOL0     C14551   8.773   7.972   8.288  0.6931  0.2460  0.0248
  106MOL0     C14552   8.855   7.891   8.394  0.0284  0.3256  0.2865
  106MOL0     C14553   8.990   7.858   8.329 -0.2910 -0.9004 -0.6426
  106MOL0     C14554   9.096   7.962   8.340  0.1824  0.8402  0.5059
  106MOL0     C14555   9.201   8.027   8.344 -0.9717  0.3112 -0.0160
  106MOL0     C14556   8.395   7.986   8.563  0.1089 -0.2060  0.5596
  106MOL0     C14557   8.253   7.994   8.585  0.3055  0.0729 -0.2021
  106MOL0     C14558   8.193   7.930   8.717 -0.1187  0.0711  0.7507
  106MOL0     H14559   7.778   7.828   8.419  2.2684  0.4358  1.3112
  106MOL0     H14560   7.512   7.848   8.444 -3.4548  0.4035  0.7185
  106MOL0     H14561   7.298   7.881   8.561 -1.4717  0.1823 -0.4313
  106MOL0     H14562   7.355   7.972   8.410  4.2167  0.1908  0.5802
  106MOL0     H14563   7.103   7.995   8.451  1.3722 -0.6208 -0.5208
  106MOL0     H14564   7.140   8.067   8.604 -1.5621  1.0992 -0.0689
  106MOL0     H14565   7.259   8.255   8.487  1.5325 -1.1337  0.1246
  106MOL0     H14566   7.262   8.163   8.338  1.0938 -2.8686  0.3418
  106MOL0     H14567   7.031   8.174   8.310  1.7915  0.2031 -3.2385
  106MOL0     H14568   7.007   8.261   8.463  0.2220  0.2233  0.3993
  106MOL0     H14569   7.024   8.409   8.230  2.1245  0.7337 -1.8601
  106MOL0     H14570   7.183   8.356   8.214 -0.3886  2.5078 -0.0901
  106MOL0     H14571   7.080   8.504   8.453 -0.4224 -3.2228  1.3011
  106MOL0     H14572   7.242   8.447   8.434 -1.8967 -0.6142  2.1440
  106MOL0     H14573   7.111   8.670   8.296  0.6246  1.8231 -0.2261
  106MOL0     H14574   7.239   8.576   8.215 -2.2438 -1.5765 -0.6018
  106MOL0     H14575   7.252   8.721   8.496  0.3843  0.5197 -0.2232
  106MOL0     H14576   7.385   8.618   8.437  0.2035 -0.0346  0.2410
  106MOL0     H14577   7.189   8.932   8.295 -0.1524  1.1214 -2.9983
  106MOL0     H14578   7.304   9.168   8.242 -0.9466 -1.0024 -0.4262
  106MOL0     H14579   7.281   9.112   8.094  0.8919 -0.5172 -0.3926
  106MOL0     H14580   7.437   9.306   8.125 -0.1265 -0.9634  1.1978
  106MOL0     H14581   7.556   9.182   8.181 -0.8634 -0.5503  0.7421
  106MOL0     H14582   7.486   9.088   7.938  2.5267 -0.5628  0.6370
  106MOL0     H14583   7.423   9.252   7.904  1.5205  1.4728 -0.2111
  106MOL0     H14584   7.645   9.347   7.970 -0.2955 -0.6821  1.6631
  106MOL0     H14585   7.701   9.180   7.957 -1.9232 -1.1278  0.6222
  106MOL0     H14586   7.561   9.519   7.840  0.4701 -1.7114  1.1528
  106MOL0     H14587   7.570   9.812   7.678  1.4827 -0.8234 -0.3803
  106MOL0     H14588   7.699   9.810   7.799  1.3870 -2.6997  0.5411
  106MOL0     H14589   7.554   9.727   7.836 -1.7832  1.9010 -0.3362
  106MOL0     H14590   8.109   9.851   7.303  0.0276 -0.2790  0.5880
  106MOL0     H14591   8.105  10.059   7.168 -0.0988  0.6769  1.3204
  106MOL0     H14592   8.027  10.323   7.104  0.6924 -0.1188  0.7113
  106MOL0     H14593   8.090  10.185   7.015 -1.1506 -1.2314  0.9027
  106MOL0     H14594   7.907  10.386   6.898  0.6111 -0.7175  1.6746
  106MOL0     H14595   8.075  10.370   6.853 -0.5104 -0.7991 -1.6502
  106MOL0     H14596   7.873  10.154   6.793  0.7424 -0.0139  1.1563
  106MOL0     H14597   8.043  10.153   6.758  0.5701  1.1531  1.7338
  106MOL0     H14598   7.870  10.391   6.656  1.7545  1.7309 -0.6945
  106MOL0     H14599   7.896  10.235   6.571  0.6322  1.7347 -2.4584
  106MOL0     H14600   8.122  10.421   6.646  0.7797 -1.7584  0.2165
  106MOL0     H14601   8.133  10.263   6.565  2.3182  0.5096  1.1820
  106MOL0     H14602   7.964  10.505   6.455  0.0170 -0.7437  0.6176
  106MOL0     H14603   7.991  10.347   6.383 -3.6902  2.7275 -1.5926
  106MOL0     H14604   8.241  10.386   6.374  0.1438 -0.9849  1.9146
  106MOL0     H14605   8.210  10.556   6.437  1.9391 -1.0160 -0.2132
  106MOL0     H14606   8.233  10.569   6.207 -1.1717 -1.0597 -0.5896
  106MOL0     H14607   8.070  10.610   6.244 -0.0435  0.5316  3.7917
  106MOL0     H14608   7.682  10.045   7.153  0.3915 -1.6113 -0.2064
  106MOL0     H14609   7.669   9.854   7.277  0.4162  0.0637  1.3021
  106MOL0     H14610   7.907   9.493   7.484  0.7469  0.0696 -0.2148
  106MOL0     H14611   7.830   9.283   7.607  0.2750  0.5676 -1.8567
  106MOL0     H14612   7.567   8.170   8.709  0.7499 -0.0510  1.7384
  106MOL0     H14613   7.830   8.133   8.705 -0.4869  3.0024  0.4115
  106MOL0     H14614   8.178   8.176   8.315 -2.1103  0.2997  2.2860
  106MOL0     H14615   8.393   8.126   8.239 -1.1814 -0.7275 -1.5228
  106MOL0     H14616   8.614   8.118   8.273 -1.2280  0.2752  0.5110
  106MOL0     H14617   8.715   8.138   8.426 -1.1649 -1.0344  1.1604
  106MOL0     H14618   8.834   8.038   8.226 -1.1138  1.0725 -0.9418
  106MOL0     H14619   8.724   7.900   8.222 -3.0328 -0.4536  3.1703
  106MOL0     H14620   8.874   7.948   8.485 -0.4083 -0.3649  0.8278
  106MOL0     H14621   8.806   7.794   8.409  2.2100 -0.9599 -0.3938
  106MOL0     H14622   8.983   7.827   8.224 -2.0576  1.0205 -1.1560
  106MOL0     H14623   9.027   7.768   8.379 -0.4816 -1.8782 -2.1931
  106MOL0     H14624   9.289   8.088   8.341 -0.9547  0.5844  3.0207
  106MOL0     H14625   8.453   7.933   8.638 -0.9934 -2.7294 -0.2642
  106MOL0     H14626   8.265   7.931   8.798  5.1864  1.8649 -3.3910
  106MOL0     H14627   8.095   7.976   8.736  0.0288  1.4297 -1.4571
  106MOL0     H14628   8.180   7.823   8.696 -0.8936  0.0879  1.1191
  107MOL0     O14629   4.608  10.452   4.635 -0.5257 -0.0027  0.1828
  107MOL0     C14630   4.531  10.361   4.603  0.4008  0.1135  0.0443
  107MOL0     O14631   4.396  10.374   4.567 -0.4914  1.0874 -0.0086
  107MOL0     C14632   4.335  10.494   4.558  0.7836 -0.3385  0.0085
  107MOL0     C14633   4.222  10.503   4.468  0.3024 -0.4980  1.1382
  107MOL0     C14634   4.150  10.623   4.451 -0.6202  1.1656 -0.2602
  107MOL0     C14635   4.179  10.734   4.533 -0.3572 -0.0195 -0.4003
  107MOL0     O14636   4.116  10.851   4.534  0.7247  0.1317 -0.2870
  107MOL0     C14637   3.982  10.851   4.484 -0.3247 -0.2592  0.4554
  107MOL0     C14638   3.940  10.991   4.520  0.3236  0.2335 -0.0631
  107MOL0     C14639   3.786  11.004   4.492  0.4181 -1.0208  0.0176
  107MOL0     C14640   3.753  11.013   4.340 -0.7668  0.2020 -0.5667
  107MOL0     C14641   3.607  11.018   4.308  0.1938 -0.1995 -0.2544
  107MOL0     C14642   3.585  10.999   4.156  0.3459 -0.5101  0.1101
  107MOL0     C14643   3.430  10.990   4.116  0.3654  0.1766  0.2725
  107MOL0     C14644   3.413  10.956   3.968  0.2280  0.0397 -0.7127
  107MOL0     N14645   3.281  11.003   3.928 -0.7699  0.2307 -0.1536
  107MOL0     C14646   3.254  11.137   3.904  0.4290 -0.1041 -0.0007
  107MOL0     C14647   3.126  11.136   3.864  0.2884  0.5335 -0.3860
  107MOL0     C14648   3.050  11.262   3.817 -0.2015  0.6170 -0.2817
  107MOL0     C14649   2.899  11.264   3.859  0.3434 -0.5174 -0.0946
  107MOL0     C14650   2.833  11.400   3.825 -0.0678  0.2774  0.1561
  107MOL0     C14651   2.685  11.393   3.869 -0.3734  0.1431 -0.2376
  107MOL0     O14652   2.599  11.498   3.811  0.0996 -0.1123  0.3403
  107MOL0     C14653   2.580  11.608   3.894  0.0094  0.1550 -0.1413
  107MOL0     C14654   2.660  11.646   3.996 -0.2837  0.1679 -0.6556
  107MOL0     C14655   2.646  11.767   4.051 -0.6009 -0.4528  0.2383
  107MOL0     C14656   2.752  11.799   4.146  0.2856 -0.4047 -0.1823
  107MOL0     C14657   2.530  11.841   4.031  0.8384 -0.6967  0.2229
  107MOL0     C14658   2.485  11.955   4.114 -0.9103 -0.0320  0.8064
  107MOL0     O14659   2.521  11.966   4.240  0.1085 -0.3777 -0.3436
  107MOL0     C14660   2.456  12.059   4.321 -0.3368 -0.6782  0.3238
  107MOL0     C14661   2.324  12.040   4.363 -0.2527  0.2172  0.7603
  107MOL0     C14662   2.266  12.123   4.458 -0.2118 -0.2645 -0.7545
  107MOL0     C14663   2.320  12.257   4.480  0.6663  0.3054  0.2415
  107MOL0     O14664   2.263  12.362   4.551 -0.4291  0.1512  0.5669
  107MOL0     C14665   2.128  12.382   4.533  0.4512 -0.3592  0.2353
  107MOL0     C14666   2.077  12.491   4.620 -0.3245 -0.0208 -0.2132
  107MOL0     C14667   1.973  12.579   4.555  0.2148  0.6426  0.4361
  107MOL0     C14668   2.041  12.669   4.447  0.5536  0.6107  0.6487
  107MOL0     C14669   1.953  12.768   4.378 -0.1186  0.3038  0.4883
  107MOL0     C14670   1.876  12.692   4.261 -0.6428 -0.5538  0.1342
  107MOL0     C14671   1.814  12.799   4.170  0.3921 -0.3305  0.2945
  107MOL0     C14672   1.742  12.714   4.054  0.4442  0.0370 -1.2047
  107MOL0    Cl14673   1.597  12.646   4.127  0.1155 -0.1545 -0.2663
  107MOL0     C14674   2.447  12.282   4.439  0.6399 -0.1654  0.3029
  107MOL0     C14675   2.515  12.177   4.363  0.5610  0.9187 -0.0603
  107MOL0     O14676   2.394  12.020   4.070 -0.6669  0.2162 -0.4911
  107MOL0     C14677   2.451  11.802   3.923  0.9359 -1.1508 -0.0700
  107MOL0     C14678   2.475  11.689   3.853 -0.1406  0.1046  0.1060
  107MOL0     N14679   3.082  11.007   3.873  0.4835  1.1434  0.1949
  107MOL0     N14680   3.173  10.929   3.913 -0.0042  0.0367  0.1173
  107MOL0     C14681   4.284  10.728   4.629 -0.0390  0.4803 -0.0696
  107MOL0     C14682   4.355  10.609   4.637  0.0142 -1.4310 -0.2239
  107MOL0     C14683   4.574  10.222   4.618 -0.4200  0.3479 -0.2789
  107MOL0     C14684   4.659  10.192   4.722 -0.1395  0.2467  0.0513
  107MOL0     C14685   4.712  10.061   4.747  0.9279  0.0227  0.9698
  107MOL0     C14686   4.681   9.960   4.653 -0.0980  0.8402 -0.2426
  107MOL0     O14687   4.711   9.828   4.665  0.7374  0.1270 -0.1992
  107MOL0     C14688   4.786   9.786   4.781 -0.3532  0.4633 -0.1923
  107MOL0     C14689   4.848   9.644   4.765  0.8589 -0.0115 -0.1817
  107MOL0     C14690   4.892   9.614   4.623 -0.6168  1.2300  0.2766
  107MOL0     C14691   4.985   9.492   4.633 -0.0770  0.4415  0.2656
  107MOL0     C14692   4.913   9.370   4.681 -0.4362 -0.6260 -0.8061
  107MOL0     C14693   4.861   9.275   4.730 -0.3570  1.4670 -0.0771
  107MOL0     C14694   4.600   9.994   4.545  0.4740 -0.0187  0.4830
  107MOL0     C14695   4.537  10.113   4.529  0.4437 -0.9034  0.0436
  107MOL0     C14696   4.468  10.142   4.403  0.3127  0.2464  0.2263
  107MOL0     H14697   4.199  10.417   4.406 -2.3436  1.6936 -1.2017
  107MOL0     H14698   4.064  10.625   4.384 -0.6192  0.0578 -0.3067
  107MOL0     H14699   3.912  10.780   4.530  0.2312 -0.9707  0.2198
  107MOL0     H14700   3.988  10.843   4.375  0.6037 -0.5428  0.5189
  107MOL0     H14701   3.952  11.014   4.626 -3.5991 -1.8426  1.0457
  107MOL0     H14702   4.001  11.063   4.465  1.5124 -0.1272  0.7622
  107MOL0     H14703   3.725  10.930   4.544 -1.4716  1.4105  1.4574
  107MOL0     H14704   3.753  11.099   4.535 -0.0186 -1.2984  0.3055
  107MOL0     H14705   3.804  11.100   4.297  2.5236 -1.7407 -0.9323
  107MOL0     H14706   3.801  10.925   4.297 -0.6793 -0.0367  0.0133
  107MOL0     H14707   3.561  11.109   4.347  0.9853 -0.2105  0.7383
  107MOL0     H14708   3.564  10.930   4.358  0.6732  1.2059  2.8151
  107MOL0     H14709   3.633  11.084   4.107  1.5178 -0.1704  1.7629
  107MOL0     H14710   3.617  10.901   4.122  1.3579 -0.8679  1.9999
  107MOL0     H14711   3.382  11.083   4.149  2.6681  1.6821 -0.3630
  107MOL0     H14712   3.398  10.912   4.185  1.8799  1.0025  2.0373
  107MOL0     H14713   3.488  11.014   3.913  1.5061 -1.2583 -0.4241
  107MOL0     H14714   3.426  10.850   3.944  5.0919  0.3747 -0.5697
  107MOL0     H14715   3.318  11.225   3.914  1.4551 -0.9469  1.1747
  107MOL0     H14716   3.055  11.277   3.709  0.0180  1.0738 -0.2099
  107MOL0     H14717   3.099  11.348   3.863 -1.2994  0.8671  0.4707
  107MOL0     H14718   2.848  11.192   3.795  0.9728  0.3485 -1.6233
  107MOL0     H14719   2.882  11.240   3.965 -0.9113 -0.5278 -0.2838
  107MOL0     H14720   2.893  11.476   3.876 -0.4987  1.8971 -1.5846
  107MOL0     H14721   2.836  11.407   3.715 -1.5945 -0.2915  0.0655
  107MOL0     H14722   2.642  11.302   3.825  2.0134 -1.8731  1.2822
  107MOL0     H14723   2.678  11.386   3.978 -0.2557 -1.3071 -0.2949
  107MOL0     H14724   2.753  11.590   4.008 -0.8380 -1.1065 -1.9905
  107MOL0     H14725   2.849  11.751   4.130 -0.5482 -2.2336 -0.0085
  107MOL0     H14726   2.709  11.775   4.244 -2.5362 -0.1565 -1.2432
  107MOL0     H14727   2.782  11.904   4.151 -2.5136  0.4288  1.5914
  107MOL0     H14728   2.263  11.957   4.327  3.9772 -2.9446  0.1851
  107MOL0     H14729   2.169  12.097   4.498 -0.0507 -1.3116 -0.9977
  107MOL0     H14730   2.094  12.399   4.430 -0.1324 -2.3027  0.0719
  107MOL0     H14731   2.076  12.292   4.566 -1.6201  0.9337  0.6759
  107MOL0     H14732   2.019  12.460   4.708 -1.2568 -0.9919 -1.1485
  107MOL0     H14733   2.166  12.548   4.647 -0.5547 -0.4764  1.6447
  107MOL0     H14734   1.931  12.644   4.633 -2.6060 -3.1395  2.4267
  107MOL0     H14735   1.886  12.522   4.524  1.9728 -1.8230 -0.2071
  107MOL0     H14736   2.090  12.616   4.364 -2.0871 -1.9417  0.5504
  107MOL0     H14737   2.123  12.716   4.502 -0.3053  0.2421  2.2955
  107MOL0     H14738   1.885  12.828   4.438 -1.0003  0.0313 -0.2214
  107MOL0     H14739   2.018  12.845   4.336  1.0608 -1.0380 -0.2510
  107MOL0     H14740   1.803  12.629   4.315 -0.8619 -1.0187 -0.6889
  107MOL0     H14741   1.931  12.626   4.194  0.4953 -0.4479  0.9449
  107MOL0     H14742   1.889  12.860   4.118 -1.4447  1.2907 -0.5778
  107MOL0     H14743   1.737  12.860   4.219 -1.1435 -2.9576  1.3471
  107MOL0     H14744   1.806  12.636   4.013  1.0030  1.6177 -3.5765
  107MOL0     H14745   1.703  12.786   3.981 -4.4926 -1.4703 -0.4041
  107MOL0     H14746   2.500  12.376   4.447  5.0327 -2.4263  1.0909
  107MOL0     H14747   2.614  12.179   4.317  0.2737 -1.8918 -0.9864
  107MOL0     H14748   2.360  11.856   3.900 -0.1753 -2.4216  1.1734
  107MOL0     H14749   2.414  11.662   3.768  0.2693 -3.3400  0.7833
  107MOL0     H14750   4.299  10.818   4.687  0.4539  0.0287  0.5208
  107MOL0     H14751   4.424  10.616   4.721  0.2666  0.7979 -0.5481
  107MOL0     H14752   4.689  10.259   4.803 -0.3129  0.5979 -0.1706
  107MOL0     H14753   4.762  10.022   4.835  0.3132 -0.0002  1.3158
  107MOL0     H14754   4.866   9.859   4.796  1.1491 -1.4980  2.2305
  107MOL0     H14755   4.724   9.785   4.871 -0.7294 -0.5094 -0.4453
  107MOL0     H14756   4.773   9.571   4.795  3.6494 -3.8858 -1.7418
  107MOL0     H14757   4.929   9.639   4.838  2.3259 -1.6297 -1.7957
  107MOL0     H14758   4.800   9.588   4.569  1.1213 -1.1959 -1.7264
  107MOL0     H14759   4.940   9.697   4.570 -0.3176  1.0753  0.3058
  107MOL0     H14760   5.072   9.518   4.694  0.2660 -2.3390  1.1172
  107MOL0     H14761   5.021   9.463   4.534  2.5312 -3.7218  2.1373
  107MOL0     H14762   4.812   9.190   4.771  3.7689  0.2452  3.0052
  107MOL0     H14763   4.593   9.908   4.478  2.5850  0.4519 -0.4087
  107MOL0     H14764   4.367  10.178   4.423 -0.0300 -1.0806  0.9978
  107MOL0     H14765   4.520  10.217   4.342 -0.5201  2.4537  2.0834
  107MOL0     H14766   4.458  10.049   4.347  1.2013  0.3460 -0.1203
  108MOL0     O14767   7.410   0.236   5.641  0.3166 -0.5799  0.0704
  108MOL0     C14768   7.529   0.228   5.678 -0.8598  0.5868  0.6037
  108MOL0     O14769   7.572   0.175   5.802 -0.5677  0.4907  0.3003
  108MOL0     C14770   7.488   0.195   5.906 -0.6833 -0.8583 -0.4258
  108MOL0     C14771   7.442   0.323   5.932 -1.1373  0.2703 -0.0015
  108MOL0     C14772   7.326   0.347   6.013 -0.9211  0.2713  0.8126
  108MOL0     C14773   7.261   0.236   6.062  0.6333 -0.2755  0.4606
  108MOL0     O14774   7.156   0.262   6.142 -0.9756  0.0939 -0.3312
  108MOL0     C14775   7.055   0.332   6.063  0.1032  0.0684 -0.0191
  108MOL0     C14776   6.930   0.341   6.151 -0.2047 -0.4760  0.2627
  108MOL0     C14777   6.812   0.413   6.081  0.6565  0.3630 -0.1893
  108MOL0     C14778   6.704   0.448   6.186  1.2972 -0.1413 -0.3525
  108MOL0     C14779   6.600   0.339   6.221 -0.1146 -0.2910 -0.3054
  108MOL0     C14780   6.647   0.235   6.320  0.3170 -0.5857 -0.8054
  108MOL0     C14781   6.526   0.153   6.373 -0.8047  0.6831  0.3679
  108MOL0     C14782   6.569   0.014   6.429  0.1936  0.3433  0.9016
  108MOL0     N14783   6.674   0.010   6.522  0.3504 -0.9078 -0.0338
  108MOL0     C14784   6.792  -0.059   6.511 -0.8396  0.3365 -0.3461
  108MOL0     C14785   6.855  -0.046   6.632 -0.1918 -0.1156 -0.1976
  108MOL0     C14786   6.994  -0.094   6.677  0.3059 -0.0929  0.0302
  108MOL0     C14787   6.996  -0.181   6.803 -0.0296 -0.2098 -0.1460
  108MOL0     C14788   7.138  -0.229   6.838 -0.1009 -0.3140  0.2727
  108MOL0     C14789   7.193  -0.341   6.747 -0.1016 -0.0582 -0.4063
  108MOL0     O14790   7.132  -0.461   6.759  0.5710 -0.0750  0.8128
  108MOL0     C14791   7.110  -0.531   6.639 -0.4227  0.6625 -0.7177
  108MOL0     C14792   7.204  -0.525   6.537 -0.4871 -0.0289  0.0397
  108MOL0     C14793   7.181  -0.606   6.425  0.3430  0.9361 -0.6011
  108MOL0     C14794   7.287  -0.601   6.326 -1.0771 -0.2764  1.5099
  108MOL0     C14795   7.068  -0.691   6.414 -0.2254 -0.1077 -0.1568
  108MOL0     C14796   7.041  -0.763   6.289  0.4609  0.3021 -0.4678
  108MOL0     O14797   7.150  -0.811   6.217 -0.3748  0.2072  0.5294
  108MOL0     C14798   7.107  -0.879   6.103 -0.4963  0.1026 -1.4735
  108MOL0     C14799   7.107  -1.017   6.104  0.3812  0.1178  0.2696
  108MOL0     C14800   7.071  -1.090   5.983  0.1536 -0.3039 -0.2925
  108MOL0     C14801   7.031  -1.025   5.869 -0.2804  0.5526  0.6941
  108MOL0     O14802   6.983  -1.093   5.761  0.6710 -0.4349 -0.0694
  108MOL0     C14803   6.985  -1.235   5.754  0.8968 -0.6205 -0.3868
  108MOL0     C14804   6.960  -1.279   5.605  0.0170  0.2396  0.3461
  108MOL0     C14805   6.984  -1.427   5.570 -0.2907  0.3890 -0.5694
  108MOL0     C14806   7.026  -1.467   5.427 -0.8595  0.1305  0.8488
  108MOL0     C14807   7.054  -1.616   5.402  0.3587 -0.3666  0.2447
  108MOL0     C14808   7.152  -1.637   5.275 -0.4687  0.1235 -0.2041
  108MOL0     C14809   7.082  -1.596   5.156 -0.0865 -0.3772  0.2506
  108MOL0     C14810   7.153  -1.606   5.023 -0.1490 -0.3881  0.4118
  108MOL0    Cl14811   7.235  -1.764   4.992 -0.3377 -0.4350 -0.1730
  108MOL0     C14812   7.033  -0.884   5.871 -0.0892  0.1099  0.0105
  108MOL0     C14813   7.070  -0.811   5.988  0.5792 -0.7824  0.7355
  108MOL0     O14814   6.923  -0.782   6.262  0.5228 -0.2001  0.1292
  108MOL0     C14815   6.973  -0.689   6.516  0.3531  0.2378 -0.1162
  108MOL0     C14816   7.000  -0.616   6.633  0.2880 -0.0543  0.1596
  108MOL0     N14817   6.780   0.045   6.702 -0.4412  0.2077 -0.1137
  108MOL0     N14818   6.677   0.080   6.636  1.3714  0.5223  0.4488
  108MOL0     C14819   7.302   0.107   6.037 -0.6896  0.3793  0.1963
  108MOL0     C14820   7.412   0.082   5.955  0.3142  0.9962  0.5352
  108MOL0     C14821   7.636   0.270   5.586 -0.0485  0.2852 -0.2354
  108MOL0     C14822   7.763   0.288   5.638  0.1282  0.0359  0.0140
  108MOL0     C14823   7.865   0.352   5.564 -0.0400 -0.0097  0.1226
  108MOL0     C14824   7.842   0.383   5.431 -0.0064 -0.1871  0.8863
  108MOL0     O14825   7.931   0.445   5.353 -0.1356 -0.3381 -0.6068
  108MOL0     C14826   8.057   0.487   5.408 -0.0592  0.1334 -0.0309
  108MOL0     C14827   8.140   0.546   5.286  0.8516  0.1661 -0.5868
  108MOL0     C14828   8.177   0.431   5.193 -0.6473  0.0043  0.7810
  108MOL0     C14829   8.092   0.407   5.075  0.2063 -0.2330 -0.6873
  108MOL0     C14830   8.094   0.509   4.971  0.8958 -0.0723 -0.6123
  108MOL0     C14831   8.078   0.596   4.884 -0.1319 -0.2671  1.0615
  108MOL0     C14832   7.715   0.359   5.378  1.4009  0.2825  0.3375
  108MOL0     C14833   7.612   0.313   5.453  0.0541 -0.0340 -1.0913
  108MOL0     C14834   7.477   0.311   5.381  0.1723 -0.2806  1.1146
  108MOL0     H14835   7.499   0.406   5.892  2.4128 -1.9852 -0.0286
  108MOL0     H14836   7.295   0.451   6.019  0.8429  0.9099 -0.2428
  108MOL0     H14837   7.031   0.293   5.964 -0.2875 -0.9034  0.4474
  108MOL0     H14838   7.094   0.433   6.046 -0.2725  0.4229  1.1675
  108MOL0     H14839   6.904   0.246   6.198  1.6611  0.4258  3.3636
  108MOL0     H14840   6.961   0.404   6.235  1.4641  1.0483 -1.4202
  108MOL0     H14841   6.846   0.499   6.022  0.9655  1.1608  1.1119
  108MOL0     H14842   6.764   0.344   6.010 -0.3225  1.5854 -0.7603
  108MOL0     H14843   6.746   0.476   6.283 -0.5746  1.0317  0.1727
  108MOL0     H14844   6.652   0.537   6.150  0.1432 -1.1438 -1.2290
  108MOL0     H14845   6.566   0.292   6.129  2.1504 -1.6033 -0.5408
  108MOL0     H14846   6.515   0.390   6.267  0.1012  1.4880 -1.7858
  108MOL0     H14847   6.728   0.173   6.279  0.5709 -0.1572 -0.9540
  108MOL0     H14848   6.690   0.287   6.406  0.6267 -0.2537 -1.1590
  108MOL0     H14849   6.460   0.133   6.288  0.3275 -1.4993 -0.0645
  108MOL0     H14850   6.467   0.210   6.446 -0.9287  1.9861 -0.7158
  108MOL0     H14851   6.482  -0.017   6.489  0.3890  1.5862  1.8807
  108MOL0     H14852   6.571  -0.064   6.353  1.2637 -1.2539  2.4717
  108MOL0     H14853   6.826  -0.114   6.423  0.4421 -1.4823  1.2188
  108MOL0     H14854   7.046  -0.000   6.700 -0.8224  0.9068 -1.2817
  108MOL0     H14855   7.058  -0.135   6.598  1.8250  0.0018  1.1621
  108MOL0     H14856   6.946  -0.118   6.877 -0.0858  1.5423 -1.6051
  108MOL0     H14857   6.933  -0.268   6.785 -1.9848  0.9696  0.7603
  108MOL0     H14858   7.200  -0.138   6.842  2.1323 -1.7904  1.5529
  108MOL0     H14859   7.137  -0.274   6.937 -1.3866 -0.8830  0.0217
  108MOL0     H14860   7.171  -0.300   6.648  0.4088  1.3332  0.0332
  108MOL0     H14861   7.301  -0.348   6.765  0.3137 -1.9282 -3.0866
  108MOL0     H14862   7.285  -0.453   6.531  0.3161 -0.5655  2.8889
  108MOL0     H14863   7.229  -0.577   6.236 -0.4875 -4.2045 -0.1534
  108MOL0     H14864   7.336  -0.699   6.324  1.2308  0.7412 -2.4976
  108MOL0     H14865   7.368  -0.531   6.348 -1.2151  0.5498 -0.4458
  108MOL0     H14866   7.136  -1.064   6.198 -0.8414 -0.3052  0.4513
  108MOL0     H14867   7.071  -1.196   6.006 -1.2370 -0.2407  0.0659
  108MOL0     H14868   7.075  -1.283   5.793  0.2901 -0.4042  1.3562
  108MOL0     H14869   6.909  -1.268   5.826  1.4803  1.0549  1.0550
  108MOL0     H14870   6.866  -1.252   5.556  1.5419 -0.2547 -3.1731
  108MOL0     H14871   7.026  -1.222   5.538  1.3359 -2.6576 -0.9842
  108MOL0     H14872   6.883  -1.466   5.588  0.6126 -1.2330  1.5631
  108MOL0     H14873   7.051  -1.475   5.643 -1.5657  2.1717  1.9473
  108MOL0     H14874   7.118  -1.415   5.400  1.1077 -3.4130  0.0475
  108MOL0     H14875   6.951  -1.447   5.350  1.5758  0.4061 -1.6046
  108MOL0     H14876   7.115  -1.650   5.487 -2.7360 -2.7227  1.7002
  108MOL0     H14877   6.961  -1.672   5.407 -0.5059  1.0911  1.5688
  108MOL0     H14878   7.173  -1.744   5.274 -0.4797  0.0440  2.3918
  108MOL0     H14879   7.243  -1.579   5.293 -0.6427  0.1056  0.7597
  108MOL0     H14880   7.058  -1.490   5.167 -0.0480 -0.5743  2.9359
  108MOL0     H14881   6.992  -1.658   5.149  0.4296 -1.1673  0.4122
  108MOL0     H14882   7.229  -1.527   5.025  0.6927 -1.1869  1.0429
  108MOL0     H14883   7.080  -1.575   4.948 -2.6319  0.3121  2.9491
  108MOL0     H14884   6.998  -0.831   5.783 -5.2782  1.0448  2.2523
  108MOL0     H14885   7.076  -0.702   5.990  0.5725 -0.7922  2.0874
  108MOL0     H14886   6.879  -0.740   6.496  0.0231  1.1761 -1.0844
  108MOL0     H14887   6.934  -0.632   6.718  0.1763 -0.3627  0.0176
  108MOL0     H14888   7.234   0.037   6.085 -2.0562  0.5754 -1.3852
  108MOL0     H14889   7.434  -0.017   5.915  1.5680  1.2867  0.4876
  108MOL0     H14890   7.773   0.261   5.743  2.5952 -0.7964 -0.3952
  108MOL0     H14891   7.961   0.363   5.613  0.3235 -2.3891  0.0537
  108MOL0     H14892   8.035   0.567   5.479 -0.9395  2.5749 -2.8720
  108MOL0     H14893   8.105   0.401   5.458 -1.3006  0.6768  2.2680
  108MOL0     H14894   8.223   0.603   5.329 -0.9749  1.7646  0.9894
  108MOL0     H14895   8.082   0.619   5.229 -0.9850  0.1945  1.2313
  108MOL0     H14896   8.281   0.442   5.161 -1.0001 -0.0921 -0.4433
  108MOL0     H14897   8.181   0.337   5.248  3.0216 -1.1054 -1.0520
  108MOL0     H14898   7.992   0.389   5.115  1.2348 -2.4731  1.0888
  108MOL0     H14899   8.110   0.306   5.039 -2.9224 -1.8930  1.8730
  108MOL0     H14900   8.052   0.659   4.801  3.7993 -2.3710 -2.1426
  108MOL0     H14901   7.707   0.394   5.275 -1.0938 -2.3634 -0.4991
  108MOL0     H14902   7.423   0.399   5.416 -1.3464 -0.2518 -1.0968
  108MOL0     H14903   7.504   0.326   5.275  2.2931  0.8872  1.7555
  108MOL0     H14904   7.423   0.220   5.406 -2.1704  0.4160 -1.0070
  109MOL0     O14905   3.588   1.382   5.920 -1.6654 -0.5011 -0.1819
  109MOL0     C14906   3.692   1.459   5.898 -0.2236 -0.2902 -1.3623
  109MOL0     O14907   3.723   1.576   5.976 -0.5805 -0.7710  1.2129
  109MOL0     C14908   3.637   1.633   6.070 -0.3852 -0.0071  0.9092
  109MOL0     C14909   3.703   1.746   6.126 -0.5423 -0.1631  0.4819
  109MOL0     C14910   3.640   1.833   6.213  0.1379 -0.1234 -0.5896
  109MOL0     C14911   3.510   1.803   6.255  0.4344 -0.1751 -0.1561
  109MOL0     O14912   3.458   1.891   6.349 -0.4218 -0.5314  0.1453
  109MOL0     C14913   3.345   1.843   6.415  1.2115  0.3127 -0.2316
  109MOL0     C14914   3.317   1.937   6.534  0.7845 -0.4983 -0.8644
  109MOL0     C14915   3.442   1.980   6.612 -0.1205 -0.1556 -0.1103
  109MOL0     C14916   3.405   2.066   6.737  0.2380  0.4569 -0.4170
  109MOL0     C14917   3.535   2.115   6.808 -0.5040 -0.1534  0.0541
  109MOL0     C14918   3.498   2.182   6.939 -1.0590  0.3132 -0.1470
  109MOL0     C14919   3.424   2.106   7.050  0.4048  0.2034 -0.4328
  109MOL0     C14920   3.474   2.125   7.189  0.3193 -0.3886 -0.3833
  109MOL0     N14921   3.423   2.255   7.227 -1.7718 -0.0320  0.4233
  109MOL0     C14922   3.496   2.365   7.275  0.2896 -0.3455  0.9784
  109MOL0     C14923   3.410   2.469   7.266  0.2803 -0.3632 -1.1041
  109MOL0     C14924   3.442   2.608   7.314  0.0653  0.1845 -0.4578
  109MOL0     C14925   3.513   2.673   7.198 -0.2586 -0.6313 -0.1442
  109MOL0     C14926   3.577   2.817   7.230 -1.3220  0.1368  0.0260
  109MOL0     C14927   3.705   2.845   7.148  0.1253 -0.3797  0.3185
  109MOL0     O14928   3.670   2.884   7.017 -0.0833  0.0150  0.2823
  109MOL0     C14929   3.755   2.932   6.917 -0.5028 -0.1267 -0.1166
  109MOL0     C14930   3.898   2.932   6.922  0.8698 -0.5658 -0.3780
  109MOL0     C14931   3.977   2.989   6.816 -0.6170 -0.0186 -0.1012
  109MOL0     C14932   4.128   3.011   6.842  0.3615 -0.2229  0.1163
  109MOL0     C14933   3.911   3.030   6.700  0.3306 -0.3072  0.8588
  109MOL0     C14934   3.985   3.077   6.578  0.7581 -0.0739 -0.4309
  109MOL0     O14935   3.917   3.157   6.495 -0.2306 -0.2409 -0.4414
  109MOL0     C14936   3.982   3.195   6.380 -0.3277  0.3759 -0.4321
  109MOL0     C14937   4.063   3.309   6.379 -0.5753 -0.7254  0.4482
  109MOL0     C14938   4.117   3.342   6.259 -0.0249  0.8822  0.3026
  109MOL0     C14939   4.104   3.265   6.143  0.0594 -0.6740  0.4509
  109MOL0     O14940   4.162   3.311   6.026 -0.1707  0.6214  0.5053
  109MOL0     C14941   4.193   3.215   5.918  0.0637  0.1455  0.2275
  109MOL0     C14942   4.310   3.264   5.840  0.1133 -0.4512  0.1149
  109MOL0     C14943   4.435   3.259   5.931  0.6307  0.1861  0.0970
  109MOL0     C14944   4.548   3.304   5.850  0.2225 -0.8619  1.2579
  109MOL0     C14945   4.678   3.292   5.924  0.1621 -0.1275 -0.2861
  109MOL0     C14946   4.769   3.405   5.868  0.2178  0.1512  0.2461
  109MOL0     C14947   4.905   3.402   5.926 -0.2810  1.0246 -0.5452
  109MOL0     C14948   5.003   3.503   5.862  0.1103  0.3226 -0.0402
  109MOL0    Cl14949   5.036   3.436   5.702  0.2313 -0.4482 -0.4016
  109MOL0     C14950   4.038   3.140   6.151  0.5869 -0.2334  0.4093
  109MOL0     C14951   3.981   3.105   6.273 -0.3624 -0.1246 -0.5759
  109MOL0     O14952   4.102   3.046   6.558  0.6791  0.1280 -0.4687
  109MOL0     C14953   3.771   3.028   6.703 -0.4390  0.3877  0.2124
  109MOL0     C14954   3.688   2.976   6.807 -0.4489  0.3275 -0.3707
  109MOL0     N14955   3.294   2.424   7.209 -0.4908 -0.8709 -0.1863
  109MOL0     N14956   3.302   2.298   7.190 -0.2442  0.2484 -0.3311
  109MOL0     C14957   3.439   1.696   6.195  0.7264  0.6281  0.4422
  109MOL0     C14958   3.509   1.602   6.111  0.1118 -0.0271 -0.3043
  109MOL0     C14959   3.791   1.422   5.794 -0.4066 -0.7521 -0.3955
  109MOL0     C14960   3.812   1.284   5.771 -0.0517 -1.0684  0.0395
  109MOL0     C14961   3.894   1.240   5.668  0.1194 -0.1546  0.8633
  109MOL0     C14962   3.949   1.335   5.571  0.8604  0.3878 -0.5577
  109MOL0     O14963   4.039   1.292   5.474  0.4630 -0.2686  0.2363
  109MOL0     C14964   3.960   1.229   5.375 -0.4408 -0.8202  0.8811
  109MOL0     C14965   3.942   1.317   5.244  0.5777 -0.3606 -0.0851
  109MOL0     C14966   3.870   1.454   5.272 -0.1774  0.3803  1.2118
  109MOL0     C14967   3.839   1.536   5.143  0.0222  0.6979  0.2929
  109MOL0     C14968   3.776   1.671   5.176  0.5232  0.4837 -0.3167
  109MOL0     C14969   3.747   1.784   5.213  0.1931 -0.0442  0.3706
  109MOL0     C14970   3.942   1.472   5.609  0.5656  0.3388  0.2801
  109MOL0     C14971   3.859   1.518   5.711  0.1777  0.2333  0.0257
  109MOL0     C14972   3.837   1.666   5.717  0.2610  0.5028  0.1197
  109MOL0     H14973   3.800   1.774   6.086 -0.4657 -1.2158 -0.1238
  109MOL0     H14974   3.700   1.919   6.237  1.3537 -0.2797 -2.8280
  109MOL0     H14975   3.363   1.745   6.462  1.0078 -0.3905 -1.5597
  109MOL0     H14976   3.252   1.838   6.358  1.8677  0.3834 -1.3366
  109MOL0     H14977   3.270   2.024   6.488 -1.7988 -2.6538 -2.6231
  109MOL0     H14978   3.246   1.885   6.599  0.9811  1.4494  1.0315
  109MOL0     H14979   3.504   1.895   6.641  4.3630  2.7253 -0.3845
  109MOL0     H14980   3.495   2.039   6.536 -0.9214 -1.6473 -1.9013
  109MOL0     H14981   3.345   2.151   6.703  0.2345  0.3880 -0.5873
  109MOL0     H14982   3.343   2.009   6.807  1.8867  2.6989  3.1314
  109MOL0     H14983   3.585   2.185   6.741 -0.7024 -0.3288 -0.2783
  109MOL0     H14984   3.607   2.035   6.832 -1.0874 -0.4389  0.9155
  109MOL0     H14985   3.582   2.230   6.991 -0.7761 -0.5974  0.2430
  109MOL0     H14986   3.431   2.263   6.911 -0.5385  1.4931  1.7747
  109MOL0     H14987   3.452   2.001   7.040 -1.7443 -0.5713  0.9425
  109MOL0     H14988   3.316   2.119   7.036  0.3937  0.2592 -0.2953
  109MOL0     H14989   3.427   2.052   7.256  0.3081  0.3732  0.4571
  109MOL0     H14990   3.582   2.107   7.190  0.1362 -1.9475  2.0194
  109MOL0     H14991   3.600   2.381   7.299  0.8354 -1.9362 -0.1332
  109MOL0     H14992   3.495   2.613   7.410 -1.2825  0.9981  0.2915
  109MOL0     H14993   3.344   2.656   7.329 -0.5112 -1.4832  1.6477
  109MOL0     H14994   3.590   2.608   7.155  0.0374  0.5362 -1.4657
  109MOL0     H14995   3.446   2.683   7.112 -0.8053 -1.1783  0.2152
  109MOL0     H14996   3.509   2.901   7.215  1.0291  2.1063 -0.3661
  109MOL0     H14997   3.616   2.824   7.332  2.9648  0.0965 -1.3945
  109MOL0     H14998   3.759   2.923   7.202  0.6223  0.5904 -1.4950
  109MOL0     H14999   3.765   2.754   7.147 -0.5026 -0.8154 -1.5151
  109MOL0     H15000   3.934   2.905   7.021 -1.6240 -4.2574 -0.2905
  109MOL0     H15001   4.170   3.094   6.785 -0.2810  0.1732  0.2098
  109MOL0     H15002   4.194   2.926   6.820  1.2278  0.8635 -1.7657
  109MOL0     H15003   4.141   3.027   6.949  0.8001 -0.3982  0.0916
  109MOL0     H15004   4.086   3.359   6.473 -1.4649 -1.7997  1.2645
  109MOL0     H15005   4.182   3.429   6.253  0.3576  0.6111  0.5105
  109MOL0     H15006   4.226   3.125   5.970  0.2125  1.4787  2.5512
  109MOL0     H15007   4.104   3.205   5.855  0.4413  1.3929 -0.5581
  109MOL0     H15008   4.334   3.202   5.752 -0.1884 -0.7086  0.2136
  109MOL0     H15009   4.290   3.366   5.806 -3.2533 -0.6511  1.1927
  109MOL0     H15010   4.445   3.152   5.953 -2.1929 -0.3894 -0.9506
  109MOL0     H15011   4.422   3.317   6.022 -3.3131 -0.8772  0.3853
  109MOL0     H15012   4.523   3.405   5.816 -2.5639 -2.6004 -2.6212
  109MOL0     H15013   4.552   3.239   5.763 -1.7977 -0.2936  0.6909
  109MOL0     H15014   4.659   3.308   6.030  0.0471 -1.2423 -0.1254
  109MOL0     H15015   4.717   3.193   5.896 -1.8298 -1.3443  0.9748
  109MOL0     H15016   4.710   3.493   5.898 -0.1452  0.2929 -0.8550
  109MOL0     H15017   4.771   3.389   5.760 -1.6223  0.2698  0.1537
  109MOL0     H15018   4.952   3.303   5.929  0.1349  1.2434  1.0712
  109MOL0     H15019   4.889   3.444   6.026 -4.3327 -0.2422 -0.4838
  109MOL0     H15020   5.085   3.505   5.934  1.0273  0.6258 -1.0679
  109MOL0     H15021   4.957   3.603   5.858  0.9902  0.7307 -0.1101
  109MOL0     H15022   4.043   3.080   6.061 -0.7281  2.4402 -1.5865
  109MOL0     H15023   3.940   3.005   6.275  0.7478 -0.5978  1.0478
  109MOL0     H15024   3.715   3.060   6.615 -1.0757  0.5799  0.6828
  109MOL0     H15025   3.580   2.966   6.803 -0.4199 -2.2521  2.0047
  109MOL0     H15026   3.340   1.663   6.226  1.5629  0.4383  3.0769
  109MOL0     H15027   3.467   1.506   6.083  0.0175  0.2608 -1.1990
  109MOL0     H15028   3.760   1.206   5.826 -1.1431 -0.5811 -0.2613
  109MOL0     H15029   3.911   1.135   5.647  4.1730  0.7311 -1.1679
  109MOL0     H15030   4.012   1.140   5.338  0.0681 -0.2191  0.1095
  109MOL0     H15031   3.862   1.193   5.409 -2.8404  1.3559 -3.0093
  109MOL0     H15032   3.871   1.274   5.172 -1.1996 -0.7832  1.8193
  109MOL0     H15033   4.038   1.322   5.192  0.8439 -3.4563 -0.0903
  109MOL0     H15034   3.792   1.447   5.349  0.3346  0.0708  1.7122
  109MOL0     H15035   3.947   1.522   5.310  1.7942 -0.0426 -1.7573
  109MOL0     H15036   3.770   1.474   5.084 -1.0186  0.6228  1.5285
  109MOL0     H15037   3.931   1.555   5.087  0.7467 -0.7619  0.9341
  109MOL0     H15038   3.731   1.882   5.254  0.4961 -0.0512  0.5139
  109MOL0     H15039   3.996   1.552   5.559  1.0893 -1.2279 -1.8077
  109MOL0     H15040   3.824   1.722   5.810 -2.6363  0.8147 -0.3906
  109MOL0     H15041   3.915   1.720   5.662 -1.1750  0.9560 -1.5496
  109MOL0     H15042   3.747   1.689   5.660  0.7978 -1.3605 -1.6222
  110MOL0     O15043   1.457   2.124   0.494  0.2884 -0.1771  0.3013
  110MOL0     C15044   1.542   2.159   0.411 -0.1023  0.0497 -0.5840
  110MOL0     O15045   1.618   2.275   0.413  0.3217 -0.3593 -1.1230
  110MOL0     C15046   1.626   2.331   0.539 -0.9562 -0.2329 -0.9814
  110MOL0     C15047   1.522   2.401   0.611  0.7592 -0.0259 -0.0370
  110MOL0     C15048   1.541   2.459   0.739  0.4570 -0.0768  0.2032
  110MOL0     C15049   1.661   2.447   0.798 -0.3358  1.1175  0.6303
  110MOL0     O15050   1.683   2.487   0.923 -0.6523  0.0117  0.3915
  110MOL0     C15051   1.816   2.530   0.973  0.2227  0.0830 -0.7456
  110MOL0     C15052   1.806   2.603   1.108  0.0365 -0.3851 -0.0033
  110MOL0     C15053   1.756   2.511   1.221  0.9021  0.5260 -0.5931
  110MOL0     C15054   1.740   2.592   1.346 -0.4692  1.1128 -0.0034
  110MOL0     C15055   1.724   2.500   1.468  0.1355  0.1141 -0.3449
  110MOL0     C15056   1.579   2.453   1.484 -0.1192 -0.1630  0.1857
  110MOL0     C15057   1.562   2.334   1.591  0.8460 -0.0643 -0.1878
  110MOL0     C15058   1.417   2.294   1.587 -0.6960  0.6063 -0.7957
  110MOL0     N15059   1.323   2.401   1.603  0.1722  0.0020  0.2178
  110MOL0     C15060   1.253   2.447   1.499  0.0270 -0.1104  0.4212
  110MOL0     C15061   1.165   2.539   1.553 -0.2093  0.3018  0.1920
  110MOL0     C15062   1.055   2.619   1.495  0.7134  0.5307 -0.9039
  110MOL0     C15063   0.935   2.518   1.517 -0.3826 -0.2177  0.0831
  110MOL0     C15064   0.805   2.586   1.481  0.2465  0.2241 -1.2410
  110MOL0     C15065   0.693   2.477   1.507  0.9694  0.2382 -0.2594
  110MOL0     O15066   0.566   2.531   1.451  0.4548  0.4311  0.3600
  110MOL0     C15067   0.485   2.620   1.518  0.2397  0.2176 -0.0085
  110MOL0     C15068   0.460   2.618   1.659 -0.4518  0.5870 -0.4145
  110MOL0     C15069   0.365   2.706   1.721  0.1182 -0.9223  0.4301
  110MOL0     C15070   0.364   2.721   1.867  0.4851 -0.5045  0.1986
  110MOL0     C15071   0.280   2.775   1.640  0.7229 -0.4813  0.6165
  110MOL0     C15072   0.158   2.854   1.683 -1.2322 -0.8416  0.4174
  110MOL0     O15073   0.132   2.962   1.604  0.5532 -0.0140  0.0282
  110MOL0     C15074   0.011   3.027   1.627  0.7411 -0.9415 -0.4030
  110MOL0     C15075   0.017   3.158   1.667 -0.2267  0.8271 -0.3312
  110MOL0     C15076  -0.093   3.232   1.710  0.1452  0.6102  0.3656
  110MOL0     C15077  -0.219   3.168   1.716 -0.5558  0.6276 -0.1783
  110MOL0     O15078  -0.319   3.244   1.760  0.2897  0.0668  0.3795
  110MOL0     C15079  -0.452   3.204   1.716 -0.8299  0.3966 -0.0467
  110MOL0     C15080  -0.537   3.326   1.747 -0.0864  0.0204  0.2981
  110MOL0     C15081  -0.483   3.449   1.676 -0.0656  0.4623  1.2229
  110MOL0     C15082  -0.573   3.509   1.560 -0.1903 -0.1344  0.0024
  110MOL0     C15083  -0.695   3.575   1.621  0.0336  0.2196 -0.6556
  110MOL0     C15084  -0.775   3.641   1.511  0.0035 -0.5737  0.2401
  110MOL0     C15085  -0.915   3.687   1.544 -0.4758 -0.4865 -0.4327
  110MOL0     C15086  -0.977   3.777   1.440  0.4574 -0.1735 -0.5224
  110MOL0    Cl15087  -0.950   3.697   1.279  0.0922 -0.1318  0.0491
  110MOL0     C15088  -0.229   3.035   1.671  0.1393  0.8369 -0.4693
  110MOL0     C15089  -0.113   2.972   1.617 -0.3388  0.3480 -0.1900
  110MOL0     O15090   0.094   2.825   1.779  0.2497 -0.1220 -0.3526
  110MOL0     C15091   0.307   2.781   1.500  0.1076 -0.3230 -0.9698
  110MOL0     C15092   0.406   2.706   1.448 -0.7499  0.4032  0.3953
  110MOL0     N15093   1.199   2.560   1.686 -0.1433  0.0522  0.2156
  110MOL0     N15094   1.283   2.473   1.713 -0.5328  0.4268 -0.9626
  110MOL0     C15095   1.764   2.385   0.726 -0.8436 -0.1142  0.4610
  110MOL0     C15096   1.750   2.331   0.592  0.5879 -0.1612 -0.0281
  110MOL0     C15097   1.565   2.076   0.289  0.3988  0.1892  0.3534
  110MOL0     C15098   1.682   2.110   0.216 -0.7271  0.0412 -0.5267
  110MOL0     C15099   1.710   2.033   0.105 -0.2986 -0.6682 -0.0195
  110MOL0     C15100   1.626   1.937   0.048 -0.2610 -0.2149  0.2422
  110MOL0     O15101   1.653   1.853  -0.064 -0.1037  0.8112 -0.3229
  110MOL0     C15102   1.776   1.870  -0.125 -0.8346 -0.9079 -0.0940
  110MOL0     C15103   1.765   1.774  -0.237 -0.1388  0.0122  0.4658
  110MOL0     C15104   1.909   1.749  -0.292  0.7657  0.3154  0.1645
  110MOL0     C15105   1.913   1.673  -0.427 -0.1672 -0.2446 -0.2719
  110MOL0     C15106   1.855   1.541  -0.429 -0.1414  0.3660  0.1248
  110MOL0     C15107   1.798   1.434  -0.434 -0.2742 -0.9135  1.0814
  110MOL0     C15108   1.513   1.912   0.121  1.7540  0.8666  0.3139
  110MOL0     C15109   1.478   1.969   0.244  0.0100 -1.2138  0.0602
  110MOL0     C15110   1.348   1.928   0.316  0.8769 -0.4925 -0.6107
  110MOL0     H15111   1.430   2.424   0.557  0.7640 -1.7639 -0.8707
  110MOL0     H15112   1.461   2.517   0.785  0.1713 -0.8021  0.6252
  110MOL0     H15113   1.874   2.590   0.901  3.5780 -1.3109  0.5963
  110MOL0     H15114   1.872   2.437   0.978 -1.0828 -0.8897 -2.6600
  110MOL0     H15115   1.906   2.640   1.132 -0.0990  1.7720 -2.3653
  110MOL0     H15116   1.736   2.685   1.088 -2.4480 -1.6977  2.6321
  110MOL0     H15117   1.655   2.478   1.193  2.0526 -0.6345 -3.8769
  110MOL0     H15118   1.828   2.433   1.246  0.8536  1.1103  1.5323
  110MOL0     H15119   1.833   2.646   1.363  0.0198  0.1659  0.3750
  110MOL0     H15120   1.662   2.669   1.342  1.2863  2.9100 -2.1989
  110MOL0     H15121   1.749   2.542   1.566  0.3856 -1.1836  0.1765
  110MOL0     H15122   1.794   2.416   1.461  1.5701  0.9245  2.4843
  110MOL0     H15123   1.521   2.540   1.517  0.4253  1.2238 -2.2486
  110MOL0     H15124   1.534   2.429   1.387  0.4887 -1.3875  0.1956
  110MOL0     H15125   1.592   2.359   1.693  4.1375 -1.5390 -0.6503
  110MOL0     H15126   1.626   2.248   1.567 -1.8894 -2.5797  0.8830
  110MOL0     H15127   1.401   2.243   1.491  0.1320 -0.2887 -0.4732
  110MOL0     H15128   1.395   2.215   1.660 -2.1278  0.1456 -1.6809
  110MOL0     H15129   1.255   2.402   1.401 -0.0089 -2.0570  1.2653
  110MOL0     H15130   1.079   2.632   1.389  0.9337 -0.8968 -1.0608
  110MOL0     H15131   1.047   2.716   1.543  0.6833  1.2877 -2.3788
  110MOL0     H15132   0.945   2.430   1.453 -1.9578 -1.3702  1.3667
  110MOL0     H15133   0.931   2.490   1.622  0.6078 -0.0523  0.1705
  110MOL0     H15134   0.784   2.683   1.528 -0.3453 -0.4489 -0.0719
  110MOL0     H15135   0.804   2.604   1.373 -0.0162  2.6219 -0.9037
  110MOL0     H15136   0.724   2.383   1.459 -0.2897  0.7897 -2.3041
  110MOL0     H15137   0.672   2.467   1.614 -1.7341 -4.0547 -0.9379
  110MOL0     H15138   0.522   2.557   1.723  0.5829  1.9239 -0.1094
  110MOL0     H15139   0.293   2.659   1.922 -4.0618  1.9829 -2.3327
  110MOL0     H15140   0.343   2.822   1.905  2.4498  1.0712 -2.5637
  110MOL0     H15141   0.464   2.694   1.904  1.7920  2.6812 -0.6300
  110MOL0     H15142   0.119   3.196   1.675 -0.0637  0.0805  1.6303
  110MOL0     H15143  -0.090   3.331   1.753  1.4890  0.4310  0.7426
  110MOL0     H15144  -0.455   3.197   1.607 -1.1512  1.7834 -0.1427
  110MOL0     H15145  -0.490   3.117   1.771 -2.5404  0.6362 -0.7723
  110MOL0     H15146  -0.644   3.310   1.731  0.4419 -2.4091 -1.4700
  110MOL0     H15147  -0.523   3.347   1.853 -1.5851  3.1893 -0.0236
  110MOL0     H15148  -0.391   3.420   1.625  0.3278  0.2640  2.0318
  110MOL0     H15149  -0.438   3.517   1.750  1.6900  1.6157 -0.7793
  110MOL0     H15150  -0.611   3.433   1.491 -0.9921  1.2382 -1.1239
  110MOL0     H15151  -0.504   3.573   1.503  2.0885 -2.7605 -0.3848
  110MOL0     H15152  -0.749   3.495   1.674  2.8996 -2.0220 -0.8717
  110MOL0     H15153  -0.674   3.661   1.686 -5.3428  0.7146  0.9505
  110MOL0     H15154  -0.789   3.559   1.440 -3.2459 -0.1175  0.2079
  110MOL0     H15155  -0.723   3.728   1.471 -0.4459 -0.3558  0.1290
  110MOL0     H15156  -0.903   3.749   1.634  2.5351  1.9210 -2.2872
  110MOL0     H15157  -0.976   3.605   1.583  0.7037 -1.0629  0.2705
  110MOL0     H15158  -0.917   3.869   1.444  0.1728  0.1403 -2.6769
  110MOL0     H15159  -1.084   3.791   1.454  0.1089 -0.2668 -2.7720
  110MOL0     H15160  -0.322   2.979   1.667  1.4635 -1.8160  2.1526
  110MOL0     H15161  -0.125   2.867   1.595  0.1880 -0.2157  2.0345
  110MOL0     H15162   0.242   2.830   1.428  0.8214  0.8615 -0.8340
  110MOL0     H15163   0.424   2.696   1.341 -1.0605 -0.8383  0.4334
  110MOL0     H15164   1.868   2.375   0.756 -1.0382 -0.7304  0.9468
  110MOL0     H15165   1.836   2.284   0.547  0.6636 -1.3523  1.2729
  110MOL0     H15166   1.754   2.187   0.241  0.8332 -1.9437  1.5405
  110MOL0     H15167   1.793   2.062   0.042  0.0617 -2.5106 -0.4586
  110MOL0     H15168   1.783   1.971  -0.168 -0.1160 -1.7326 -2.0207
  110MOL0     H15169   1.854   1.841  -0.054  0.4413 -0.7104 -1.3530
  110MOL0     H15170   1.711   1.821  -0.320 -0.2988  0.1406  0.6432
  110MOL0     H15171   1.716   1.681  -0.208 -0.3414 -0.8133 -2.2138
  110MOL0     H15172   1.977   1.834  -0.281 -0.2246  1.0252  0.9968
  110MOL0     H15173   1.948   1.670  -0.227 -0.3604  0.3312  0.8943
  110MOL0     H15174   2.019   1.669  -0.452  0.1732  1.1774  0.8426
  110MOL0     H15175   1.871   1.729  -0.511  3.2797 -0.6024 -2.4374
  110MOL0     H15176   1.758   1.336  -0.451  0.3457 -0.7151 -2.1115
  110MOL0     H15177   1.443   1.838   0.082  0.9013  0.9966  1.5458
  110MOL0     H15178   1.267   2.001   0.304 -0.2416 -1.0991  2.3671
  110MOL0     H15179   1.312   1.832   0.277 -0.4255 -0.2327 -0.0929
  110MOL0     H15180   1.351   1.912   0.424 -2.3087  1.6470 -0.0530
  111MOL0     O15181   0.199   3.946   8.601 -0.7233 -0.5367  0.3252
  111MOL0     C15182   0.172   4.068   8.596  0.4823  0.5172 -0.4826
  111MOL0     O15183   0.058   4.124   8.559  0.2464  0.0401 -0.4481
  111MOL0     C15184  -0.024   4.058   8.473  0.1466  0.4912 -0.3282
  111MOL0     C15185  -0.100   3.940   8.515  0.7899  0.1318 -0.3293
  111MOL0     C15186  -0.177   3.877   8.415 -0.8661  0.0243 -0.0351
  111MOL0     C15187  -0.188   3.919   8.287 -0.6571  0.5620  0.7269
  111MOL0     O15188  -0.271   3.852   8.195 -0.4669  0.3550 -0.2667
  111MOL0     C15189  -0.279   3.905   8.064 -0.5336  0.1650 -0.6788
  111MOL0     C15190  -0.378   3.823   7.978  0.3428  0.2340 -0.2226
  111MOL0     C15191  -0.530   3.829   8.032 -0.1419  0.5307 -0.6036
  111MOL0     C15192  -0.587   3.968   8.048 -0.4572  0.3133  0.1787
  111MOL0     C15193  -0.726   3.957   8.113 -0.6418 -0.6923  0.5990
  111MOL0     C15194  -0.745   3.911   8.257 -0.4857  0.4129  0.1474
  111MOL0     C15195  -0.649   3.973   8.360  0.4919  0.2423  0.4030
  111MOL0     C15196  -0.685   3.966   8.510 -0.6805 -0.9761 -0.7509
  111MOL0     N15197  -0.798   4.050   8.542 -0.2996 -0.4711 -0.6676
  111MOL0     C15198  -0.798   4.180   8.562  0.7464  0.3729  0.2659
  111MOL0     C15199  -0.931   4.214   8.560 -0.2237 -1.1070  1.3136
  111MOL0     C15200  -0.976   4.360   8.571 -0.3306 -0.2900 -1.3636
  111MOL0     C15201  -1.117   4.364   8.636 -0.5480  0.4241 -0.3565
  111MOL0     C15202  -1.210   4.489   8.594  0.0079 -0.3365 -0.1639
  111MOL0     C15203  -1.250   4.499   8.445  0.0282 -0.2448  1.2282
  111MOL0     O15204  -1.362   4.583   8.410 -0.0584 -0.7895 -0.3856
  111MOL0     C15205  -1.351   4.723   8.426  0.2519  0.4949  1.0055
  111MOL0     C15206  -1.457   4.803   8.373  0.0513  0.6040 -0.3843
  111MOL0     C15207  -1.454   4.941   8.372 -0.2176  0.6134  0.0871
  111MOL0     C15208  -1.572   5.002   8.304  0.5293  0.6584 -0.7108
  111MOL0     C15209  -1.343   5.006   8.419  0.5344  0.0794  0.0858
  111MOL0     C15210  -1.323   5.153   8.415  0.2224 -0.2544 -0.7368
  111MOL0     O15211  -1.199   5.200   8.462  0.5526  0.2038  0.0332
  111MOL0     C15212  -1.168   5.341   8.470 -0.0334  0.4885 -1.2605
  111MOL0     C15213  -1.052   5.371   8.548 -0.6110  0.1232  0.5483
  111MOL0     C15214  -1.000   5.509   8.547  0.4497  0.5350 -0.7937
  111MOL0     C15215  -1.070   5.608   8.485  0.3275 -0.4066  0.3455
  111MOL0     O15216  -1.007   5.727   8.482  0.2021  0.5697  0.0946
  111MOL0     C15217  -1.096   5.836   8.503 -0.7341  0.6029  0.1986
  111MOL0     C15218  -1.185   5.830   8.624  0.2533 -0.3523 -0.6743
  111MOL0     C15219  -1.278   5.956   8.647 -0.2794 -0.7847  0.8243
  111MOL0     C15220  -1.417   5.955   8.578  0.1538 -0.2000  0.3553
  111MOL0     C15221  -1.496   6.080   8.626 -0.2939  0.0392 -0.0676
  111MOL0     C15222  -1.645   6.071   8.586  0.4363 -0.1765  1.0437
  111MOL0     C15223  -1.713   5.990   8.694  0.7166  0.2821 -0.0351
  111MOL0     C15224  -1.855   5.946   8.647  0.4620  0.0122  0.8506
  111MOL0    Cl15225  -1.931   5.861   8.781 -0.3234 -0.2306  0.0700
  111MOL0     C15226  -1.186   5.579   8.413 -0.6828 -0.2139  0.1445
  111MOL0     C15227  -1.230   5.449   8.405  0.1476 -0.1337  0.6885
  111MOL0     O15228  -1.423   5.219   8.390 -0.1580 -0.2767  0.0596
  111MOL0     C15229  -1.230   4.923   8.450  0.3498 -0.4841  0.3972
  111MOL0     C15230  -1.238   4.787   8.453  1.2310  0.2774 -0.2619
  111MOL0     N15231  -1.003   4.095   8.538 -0.0497  0.8980  0.0704
  111MOL0     N15232  -0.924   3.996   8.521 -0.8266  1.3097 -0.4168
  111MOL0     C15233  -0.120   4.035   8.259 -0.6051 -0.1338  0.4651
  111MOL0     C15234  -0.039   4.109   8.344  0.8074  0.5591  0.0421
  111MOL0     C15235   0.276   4.168   8.633 -0.0064  0.7509 -0.3861
  111MOL0     C15236   0.253   4.306   8.606  0.4308  0.1553 -0.1183
  111MOL0     C15237   0.337   4.409   8.629  0.0067 -0.8637 -0.1257
  111MOL0     C15238   0.454   4.384   8.689 -0.8864 -0.6638 -0.1575
  111MOL0     O15239   0.564   4.462   8.711 -0.1772  0.3085 -0.0823
  111MOL0     C15240   0.556   4.595   8.648  0.4250  0.0411  0.2930
  111MOL0     C15241   0.701   4.643   8.657 -0.1813  0.1505 -0.0260
  111MOL0     C15242   0.719   4.794   8.673  0.2778  1.0361  0.3187
  111MOL0     C15243   0.689   4.885   8.555 -0.5738 -0.0322  0.3923
  111MOL0     C15244   0.689   5.021   8.594 -0.4322  0.1293 -0.7864
  111MOL0     C15245   0.685   5.141   8.612  0.3587  0.8291  0.1601
  111MOL0     C15246   0.479   4.252   8.733 -0.4151 -0.6517  1.1985
  111MOL0     C15247   0.395   4.148   8.698 -0.1847 -0.0425  0.1176
  111MOL0     C15248   0.434   4.010   8.733 -0.1650  0.8451 -0.0780
  111MOL0     H15249  -0.085   3.908   8.618 -1.2815 -1.0985 -0.3565
  111MOL0     H15250  -0.228   3.782   8.420  1.5679 -1.6431 -3.4365
  111MOL0     H15251  -0.182   3.909   8.015 -1.2924  3.6735 -2.1801
  111MOL0     H15252  -0.298   4.011   8.080 -1.4253  0.2611 -2.1921
  111MOL0     H15253  -0.375   3.874   7.881  2.1706  0.4495 -0.0962
  111MOL0     H15254  -0.351   3.717   7.978  0.0928  0.1650  0.5364
  111MOL0     H15255  -0.598   3.775   7.965  0.5651 -1.7525  0.4061
  111MOL0     H15256  -0.536   3.770   8.124 -1.2941  1.2896 -0.1710
  111MOL0     H15257  -0.521   4.032   8.108 -1.4580  0.7610  0.8416
  111MOL0     H15258  -0.583   4.022   7.953  2.6140  0.2116  0.1388
  111MOL0     H15259  -0.803   3.910   8.051  0.2386  2.4310 -3.3432
  111MOL0     H15260  -0.756   4.063   8.109  1.9355  0.0912 -0.0706
  111MOL0     H15261  -0.850   3.940   8.273 -0.6663  0.9775 -1.8305
  111MOL0     H15262  -0.743   3.802   8.263 -1.0724  0.3509 -0.6099
  111MOL0     H15263  -0.636   4.079   8.337  0.7692  0.0423 -0.3989
  111MOL0     H15264  -0.550   3.932   8.336 -0.3808 -1.5292 -0.3386
  111MOL0     H15265  -0.703   3.863   8.543 -0.2142 -0.4304  1.3709
  111MOL0     H15266  -0.596   4.008   8.557 -2.4437  0.5184  1.5322
  111MOL0     H15267  -0.722   4.258   8.560 -0.4697  1.5880 -0.2262
  111MOL0     H15268  -0.985   4.414   8.476 -1.9437  1.0269 -0.5123
  111MOL0     H15269  -0.906   4.414   8.635 -1.3978  0.6444 -0.9495
  111MOL0     H15270  -1.167   4.273   8.603  1.4995 -0.3612 -1.4441
  111MOL0     H15271  -1.102   4.377   8.744  2.2683 -0.2971 -0.5971
  111MOL0     H15272  -1.301   4.475   8.653  1.4707 -2.5876  1.7061
  111MOL0     H15273  -1.161   4.582   8.624  1.8077 -0.9923 -0.9593
  111MOL0     H15274  -1.165   4.531   8.385 -0.3470  1.9747  1.8124
  111MOL0     H15275  -1.288   4.402   8.410 -2.2380  0.7107  0.8033
  111MOL0     H15276  -1.546   4.760   8.328  0.3790 -1.2518  0.6469
  111MOL0     H15277  -1.547   5.057   8.213 -1.2727  5.6395  1.4290
  111MOL0     H15278  -1.619   5.072   8.374 -2.7830 -3.3847  1.5811
  111MOL0     H15279  -1.644   4.929   8.265  2.0823 -0.5816 -1.3672
  111MOL0     H15280  -1.010   5.299   8.618 -2.9504 -1.9894 -0.0474
  111MOL0     H15281  -0.909   5.514   8.606 -0.1896  1.6543  0.1161
  111MOL0     H15282  -1.030   5.923   8.506  0.8222 -0.4922 -0.8463
  111MOL0     H15283  -1.157   5.847   8.412  2.1168 -1.1068 -2.0928
  111MOL0     H15284  -1.253   5.745   8.632  1.4121 -1.3662 -1.2366
  111MOL0     H15285  -1.124   5.825   8.715 -0.3632 -2.8016 -0.3326
  111MOL0     H15286  -1.225   6.051   8.635  0.2635 -1.0671  0.9480
  111MOL0     H15287  -1.298   5.965   8.755 -3.0979 -1.9840  0.4876
  111MOL0     H15288  -1.475   5.866   8.604  0.6191 -0.4961  0.3965
  111MOL0     H15289  -1.412   5.961   8.469 -1.6163  0.3749  0.2797
  111MOL0     H15290  -1.472   6.105   8.729 -0.1130 -1.8783  0.4064
  111MOL0     H15291  -1.473   6.164   8.561 -0.6789 -0.4331 -0.8344
  111MOL0     H15292  -1.668   6.034   8.486 -0.6344  1.4399  0.6510
  111MOL0     H15293  -1.696   6.168   8.588 -2.8155 -1.7520  2.3777
  111MOL0     H15294  -1.722   6.047   8.787 -1.0637  0.5340 -0.3422
  111MOL0     H15295  -1.658   5.896   8.706  0.1128 -0.0019  0.5317
  111MOL0     H15296  -1.854   5.878   8.562 -0.7271 -0.5196  1.2385
  111MOL0     H15297  -1.903   6.038   8.612 -1.6142 -1.7846 -1.4017
  111MOL0     H15298  -1.237   5.659   8.361 -1.6230 -0.5676  0.5078
  111MOL0     H15299  -1.318   5.433   8.343  0.1361  2.8515 -0.2392
  111MOL0     H15300  -1.132   4.964   8.476  0.3461  1.7389 -2.5482
  111MOL0     H15301  -1.156   4.720   8.478  0.2545 -1.1398 -0.7483
  111MOL0     H15302  -0.112   4.065   8.155  0.3859  0.5030  0.7017
  111MOL0     H15303   0.011   4.198   8.308  1.9360 -0.7867 -1.9344
  111MOL0     H15304   0.156   4.339   8.569  0.3143  5.1581  3.6287
  111MOL0     H15305   0.309   4.512   8.607  0.6905 -0.2719  1.6128
  111MOL0     H15306   0.520   4.587   8.546  0.8426 -2.1193  0.2700
  111MOL0     H15307   0.487   4.651   8.711 -3.6621 -2.0953 -1.8484
  111MOL0     H15308   0.757   4.608   8.570  0.6341  2.3291 -0.4293
  111MOL0     H15309   0.745   4.588   8.741 -1.3903 -0.2174  0.3861
  111MOL0     H15310   0.662   4.833   8.758  0.5284 -0.8004  1.3655
  111MOL0     H15311   0.824   4.810   8.698  0.8801  0.7515 -1.7991
  111MOL0     H15312   0.595   4.850   8.511 -1.3755  1.9521  0.4110
  111MOL0     H15313   0.762   4.862   8.476 -0.1059 -2.0525  1.3460
  111MOL0     H15314   0.678   5.246   8.634 -0.9742  0.7535  0.1968
  111MOL0     H15315   0.578   4.249   8.779  1.1571 -0.9810 -1.9019
  111MOL0     H15316   0.456   3.940   8.651  1.0850 -1.7732  2.3010
  111MOL0     H15317   0.522   4.012   8.797 -0.5105  0.1862  0.4332
  111MOL0     H15318   0.364   3.951   8.793 -0.6364  1.3471 -0.1246
  112MOL0     O15319   4.056   8.036  10.127 -0.6456 -0.2846 -0.2594
  112MOL0     C15320   4.126   8.094  10.043  0.0620  0.0013 -0.2138
  112MOL0     O15321   4.234   8.178  10.059  0.2281 -0.3655 -0.1660
  112MOL0     C15322   4.295   8.206  10.180 -1.3868 -0.2638 -0.3807
  112MOL0     C15323   4.308   8.119  10.289  0.1468  0.6246  0.3032
  112MOL0     C15324   4.376   8.155  10.405 -0.3964  0.4647 -1.4058
  112MOL0     C15325   4.445   8.285  10.420 -0.5378  0.6069  0.8814
  112MOL0     O15326   4.524   8.326  10.523 -0.2274  0.3882  0.3204
  112MOL0     C15327   4.488   8.291  10.662  0.3110 -0.2012 -0.3804
  112MOL0     C15328   4.363   8.368  10.707 -0.4685  0.2470  0.5629
  112MOL0     C15329   4.243   8.272  10.742 -0.8841  0.2693 -0.4277
  112MOL0     C15330   4.105   8.341  10.753  0.5382 -0.1767 -0.2968
  112MOL0     C15331   3.994   8.235  10.737  0.3060 -0.6274  0.4303
  112MOL0     C15332   3.862   8.309  10.790 -0.0326 -0.1706 -0.5436
  112MOL0     C15333   3.744   8.232  10.748 -0.3249 -0.5464 -0.7784
  112MOL0     C15334   3.717   8.120  10.841 -0.3831 -0.6391 -0.0501
  112MOL0     N15335   3.623   8.158  10.940 -0.1278 -0.3604  0.2795
  112MOL0     C15336   3.493   8.207  10.915  0.6473  0.7932 -0.4593
  112MOL0     C15337   3.424   8.210  11.032  0.1215  0.1821  0.1427
  112MOL0     C15338   3.289   8.269  11.044  0.2288 -0.1030  0.2192
  112MOL0     C15339   3.190   8.161  10.999  0.2881 -0.0574 -0.0178
  112MOL0     C15340   3.205   8.017  11.052  0.9687  0.3729 -0.6442
  112MOL0     C15341   3.226   8.012  11.205  0.0187 -0.2693  0.6457
  112MOL0     O15342   3.111   8.080  11.263 -0.4156 -0.2819 -0.8023
  112MOL0     C15343   3.086   8.050  11.395  0.1966 -0.4060  0.8540
  112MOL0     C15344   3.169   8.004  11.496 -0.6270  0.1805 -0.1499
  112MOL0     C15345   3.122   7.970  11.623 -0.0647 -0.4150  0.3933
  112MOL0     C15346   3.231   7.922  11.715  0.6416  0.2456 -0.4757
  112MOL0     C15347   2.985   7.984  11.660 -0.0974 -0.5936  0.1398
  112MOL0     C15348   2.929   7.942  11.794 -0.2309 -0.1182 -0.4106
  112MOL0     O15349   2.795   7.945  11.807  0.5738  0.4105 -0.2734
  112MOL0     C15350   2.732   7.904  11.917  0.3944 -0.0320  0.0930
  112MOL0     C15351   2.637   7.987  11.980 -0.6870  0.2403  0.4909
  112MOL0     C15352   2.574   7.951  12.103  0.8457 -0.1028  0.4755
  112MOL0     C15353   2.613   7.831  12.163 -0.2376  0.1235 -0.3735
  112MOL0     O15354   2.552   7.803  12.286 -0.3915 -0.5579 -0.6918
  112MOL0     C15355   2.620   7.723  12.382 -1.1747 -0.4467  0.5124
  112MOL0     C15356   2.511   7.702  12.487  0.2107  0.4134 -0.0205
  112MOL0     C15357   2.489   7.833  12.567 -0.2295 -0.6177  0.1400
  112MOL0     C15358   2.396   7.826  12.693  0.2063 -0.2259  0.0392
  112MOL0     C15359   2.348   7.958  12.770 -0.7059  0.4385  0.5535
  112MOL0     C15360   2.287   8.066  12.683  0.5090 -0.3223 -0.3999
  112MOL0     C15361   2.140   8.047  12.635  0.0062  0.3068  0.0904
  112MOL0     C15362   2.128   7.970  12.502 -0.7047  0.2345  0.1911
  112MOL0    Cl15363   1.958   7.987  12.432 -0.1557  0.1228  0.3899
  112MOL0     C15364   2.704   7.745  12.107 -0.0919 -0.2712 -0.1707
  112MOL0     C15365   2.766   7.780  11.984 -0.0750 -0.2335  0.3442
  112MOL0     O15366   3.004   7.913  11.882 -0.0885 -0.1262 -0.0153
  112MOL0     C15367   2.903   8.057  11.570 -0.8326  0.1055  0.5723
  112MOL0     C15368   2.957   8.088  11.437  0.3049 -0.5657 -0.5414
  112MOL0     N15369   3.516   8.183  11.132  0.1378  0.7623  0.2977
  112MOL0     N15370   3.629   8.154  11.074 -0.7382  0.2021 -0.5464
  112MOL0     C15371   4.429   8.369  10.308  1.2016  0.3512  1.0909
  112MOL0     C15372   4.354   8.331  10.189 -0.3136  0.4552  0.0464
  112MOL0     C15373   4.085   8.069   9.900 -0.3176 -0.1373 -0.1951
  112MOL0     C15374   4.087   8.173   9.810 -0.0940  0.2308 -0.0849
  112MOL0     C15375   4.052   8.159   9.680  0.4766  0.8187  0.3205
  112MOL0     C15376   4.007   8.033   9.625 -0.1010 -0.5015  0.5885
  112MOL0     O15377   3.964   8.045   9.490  0.2036  0.2406  0.6857
  112MOL0     C15378   3.865   7.960   9.438 -0.0694 -0.9400 -0.1613
  112MOL0     C15379   3.924   7.890   9.311 -0.6310  0.5835  0.0349
  112MOL0     C15380   3.826   7.791   9.267  0.3830  0.2115  0.0114
  112MOL0     C15381   3.718   7.850   9.182  0.5680  0.9361  0.5728
  112MOL0     C15382   3.626   7.744   9.129 -0.0805 -0.6548 -0.2788
  112MOL0     C15383   3.547   7.661   9.084 -0.1573 -0.2604 -1.1847
  112MOL0     C15384   3.997   7.926   9.718 -0.1669  0.1753  0.6897
  112MOL0     C15385   4.035   7.944   9.852  0.3869  0.0498 -0.1286
  112MOL0     C15386   4.015   7.827   9.952  0.1258  0.2352 -0.5194
  112MOL0     H15387   4.254   8.025  10.282 -1.5285  1.2064  3.4436
  112MOL0     H15388   4.394   8.083  10.485 -3.3068  0.0567 -1.0235
  112MOL0     H15389   4.575   8.317  10.723 -0.9202  3.1406  0.1784
  112MOL0     H15390   4.470   8.184  10.665 -0.4867 -0.0537  0.6314
  112MOL0     H15391   4.393   8.417  10.800  2.4980  1.2995 -0.8328
  112MOL0     H15392   4.344   8.443  10.630  0.5746  1.7918  1.7494
  112MOL0     H15393   4.234   8.199  10.661 -1.6778 -1.6490  1.2972
  112MOL0     H15394   4.270   8.205  10.824 -0.4203  0.5723 -0.3305
  112MOL0     H15395   4.097   8.377  10.856  1.0881 -2.6192  0.6658
  112MOL0     H15396   4.090   8.426  10.685 -1.0490  0.0197  0.2511
  112MOL0     H15397   4.002   8.138  10.788 -0.1553  0.7693  3.3609
  112MOL0     H15398   3.984   8.209  10.631 -1.5679  2.9654 -0.4389
  112MOL0     H15399   3.862   8.320  10.899  1.9339  0.3029 -0.5552
  112MOL0     H15400   3.854   8.411  10.751  1.0408  0.3374  0.4876
  112MOL0     H15401   3.767   8.189  10.650 -1.8055 -0.1821 -1.3261
  112MOL0     H15402   3.655   8.292  10.727  1.7420  2.3521 -1.9956
  112MOL0     H15403   3.678   8.035  10.784  2.1883 -1.0203 -1.3549
  112MOL0     H15404   3.808   8.090  10.893 -1.3949 -0.7054  1.7774
  112MOL0     H15405   3.444   8.217  10.818 -1.3686 -0.5848  0.3565
  112MOL0     H15406   3.292   8.361  10.985  0.0102  1.5155  2.5877
  112MOL0     H15407   3.262   8.300  11.146 -1.0825  0.6418 -0.3255
  112MOL0     H15408   3.091   8.193  11.032  0.7891  0.3501  1.1288
  112MOL0     H15409   3.199   8.151  10.890  0.4991  0.2226 -0.0259
  112MOL0     H15410   3.110   7.973  11.021  1.6420 -0.6334 -1.3396
  112MOL0     H15411   3.291   7.962  11.014  0.9008  0.2373 -0.6035
  112MOL0     H15412   3.237   7.905  11.225  0.8896 -0.2391  0.3837
  112MOL0     H15413   3.315   8.066  11.241 -0.9973  2.9422 -1.2279
  112MOL0     H15414   3.270   7.983  11.463 -1.0221 -1.1520 -0.5340
  112MOL0     H15415   3.231   7.983  11.805 -1.1433  3.0963 -2.2630
  112MOL0     H15416   3.332   7.925  11.671  1.1245  1.4047  0.6626
  112MOL0     H15417   3.220   7.815  11.736  2.8411  0.3472  1.6613
  112MOL0     H15418   2.629   8.089  11.945  1.6992  0.5018  0.5676
  112MOL0     H15419   2.505   8.019  12.152  0.5489 -0.5273  0.6539
  112MOL0     H15420   2.641   7.628  12.332  1.8575  0.5805 -0.3851
  112MOL0     H15421   2.715   7.765  12.418 -1.0007 -1.3060  1.0933
  112MOL0     H15422   2.422   7.667  12.434  0.9412 -1.9154  0.1707
  112MOL0     H15423   2.546   7.627  12.559 -1.2150  1.1617  1.5280
  112MOL0     H15424   2.452   7.915  12.504  2.5178  2.7217  2.4886
  112MOL0     H15425   2.589   7.863  12.598 -0.1602 -1.0551  0.3452
  112MOL0     H15426   2.454   7.779  12.773 -0.3642  1.2176  1.3617
  112MOL0     H15427   2.308   7.764  12.671 -0.6539 -0.2171  3.0467
  112MOL0     H15428   2.275   7.917  12.841 -0.9790 -0.0282  0.0037
  112MOL0     H15429   2.441   8.000  12.810  0.5330  0.9703 -2.6270
  112MOL0     H15430   2.357   8.085  12.601 -1.5364 -0.6958 -2.3083
  112MOL0     H15431   2.280   8.158  12.740  2.9740  1.9734 -3.4590
  112MOL0     H15432   2.100   8.147  12.616 -3.4915 -1.2849 -1.8986
  112MOL0     H15433   2.079   8.000  12.714 -1.2822  1.6871 -0.0472
  112MOL0     H15434   2.165   7.867  12.511  0.5302  0.8396  4.3112
  112MOL0     H15435   2.198   8.020  12.434  1.0215 -1.2308  0.8029
  112MOL0     H15436   2.727   7.651  12.156  1.6847 -0.7672 -1.8006
  112MOL0     H15437   2.835   7.717  11.929  1.5858  2.6567 -1.1416
  112MOL0     H15438   2.805   8.091  11.600 -0.0100  2.7144  0.5680
  112MOL0     H15439   2.891   8.129  11.362  0.5469 -3.0380 -2.2099
  112MOL0     H15440   4.476   8.466  10.314  0.3798  0.6661  2.9564
  112MOL0     H15441   4.367   8.388  10.098 -0.5507  1.2112  0.4787
  112MOL0     H15442   4.119   8.272   9.841 -0.2158  1.4797 -3.4981
  112MOL0     H15443   4.057   8.245   9.614 -0.7130  0.2423 -0.5492
  112MOL0     H15444   3.823   7.894   9.515 -0.4924 -0.1344  0.3185
  112MOL0     H15445   3.784   8.029   9.413  1.9379  1.5520 -0.1530
  112MOL0     H15446   4.012   7.837   9.348  0.3976  0.3565 -2.5359
  112MOL0     H15447   3.945   7.964   9.233 -2.7881  0.2979 -0.8983
  112MOL0     H15448   3.879   7.711   9.214  1.6213 -0.4007  2.0675
  112MOL0     H15449   3.782   7.756   9.361  1.7668  2.5331  1.6446
  112MOL0     H15450   3.771   7.876   9.090  1.4469  0.1655  0.8421
  112MOL0     H15451   3.673   7.939   9.226 -1.8905  0.7925 -1.4585
  112MOL0     H15452   3.478   7.587   9.048  0.0785 -0.4517 -1.2450
  112MOL0     H15453   3.962   7.833   9.674  2.9086 -0.5701 -0.4567
  112MOL0     H15454   3.977   7.741   9.896 -0.0100  1.0903 -1.7762
  112MOL0     H15455   4.112   7.813  10.002  0.1893  3.6036  0.5688
  112MOL0     H15456   3.947   7.853  10.033  1.6274  1.5478  0.3813
  113MOL0     O15457   8.683  10.527   4.260  0.1365 -0.9370 -0.1674
  113MOL0     C15458   8.594  10.467   4.203  0.5918 -0.0925  0.1664
  113MOL0     O15459   8.499  10.389   4.257 -0.2232  0.2070  0.0460
  113MOL0     C15460   8.550  10.317   4.367  0.4468 -0.1577  0.2155
  113MOL0     C15461   8.507  10.364   4.488 -0.1819  0.5875  0.0357
  113MOL0     C15462   8.535  10.297   4.606  1.1674  1.0489 -0.4316
  113MOL0     C15463   8.603  10.173   4.599  0.1129  0.0432  0.6402
  113MOL0     O15464   8.616  10.095   4.704  0.2143 -0.6208  0.1593
  113MOL0     C15465   8.749  10.091   4.753 -0.1748 -0.3769 -0.6742
  113MOL0     C15466   8.742  10.007   4.887 -0.3764 -0.8014  0.0259
  113MOL0     C15467   8.668   9.870   4.852 -0.1756  0.7002  0.3961
  113MOL0     C15468   8.747   9.783   4.756  0.0697  0.4889  0.5836
  113MOL0     C15469   8.655   9.689   4.664 -0.0313  0.8253 -0.6519
  113MOL0     C15470   8.565   9.766   4.564  0.4434 -0.7501 -0.3205
  113MOL0     C15471   8.490   9.662   4.474 -1.4201  0.2837  0.5553
  113MOL0     C15472   8.394   9.729   4.375 -0.7951 -0.2289  0.2004
  113MOL0     N15473   8.469   9.817   4.280 -0.8762 -0.6391 -0.4316
  113MOL0     C15474   8.412   9.923   4.214  0.5839  0.1360  0.1124
  113MOL0     C15475   8.503   9.965   4.124  0.0525  0.5804  0.5587
  113MOL0     C15476   8.491  10.097   4.051  0.4305 -0.3100  0.3400
  113MOL0     C15477   8.421  10.093   3.912 -0.6615 -0.0591 -0.8568
  113MOL0     C15478   8.272  10.115   3.917 -0.6364 -0.5158  0.5247
  113MOL0     C15479   8.218  10.128   3.779  0.9530  0.8825  1.7057
  113MOL0     O15480   8.275  10.226   3.695 -0.1300  0.6678 -0.3205
  113MOL0     C15481   8.277  10.200   3.562  0.3634  0.3127  0.1628
  113MOL0     C15482   8.402  10.195   3.497  0.3831 -0.8225 -0.2611
  113MOL0     C15483   8.399  10.176   3.357  0.2707 -0.0166  0.0220
  113MOL0     C15484   8.528  10.192   3.282 -0.3013 -0.3212 -0.2808
  113MOL0     C15485   8.276  10.161   3.287 -0.0522  0.5211  0.3518
  113MOL0     C15486   8.275  10.132   3.143  0.3048 -0.7704 -0.0251
  113MOL0     O15487   8.182  10.203   3.078  0.0671  0.0300  0.2836
  113MOL0     C15488   8.167  10.176   2.946  0.2130 -0.1261  0.1204
  113MOL0     C15489   8.267  10.212   2.855  0.1747  0.7869  0.0715
  113MOL0     C15490   8.263  10.173   2.718 -0.4588 -0.2053  0.0624
  113MOL0     C15491   8.152  10.110   2.671  0.1835 -0.1419  0.1045
  113MOL0     O15492   8.153  10.063   2.546  0.2748  0.0470 -0.3617
  113MOL0     C15493   8.159  10.164   2.444 -0.4791  0.2292  0.8718
  113MOL0     C15494   8.044  10.257   2.431  0.3321 -0.1476  0.3334
  113MOL0     C15495   8.065  10.356   2.322 -0.5610  0.1812  0.4723
  113MOL0     C15496   8.048  10.297   2.178 -0.1949  0.6376  0.1962
  113MOL0     C15497   8.084  10.409   2.075  0.1720  0.0622 -0.0652
  113MOL0     C15498   8.049  10.353   1.934 -0.3594  0.1556  0.2321
  113MOL0     C15499   8.080  10.473   1.832  0.7195 -0.0528  0.1887
  113MOL0     C15500   8.030  10.422   1.696 -0.3074 -0.5386  0.2936
  113MOL0    Cl15501   7.847  10.397   1.675 -0.1934 -0.0590  0.3178
  113MOL0     C15502   8.047  10.077   2.757  0.0258  0.4194  0.3438
  113MOL0     C15503   8.050  10.117   2.890 -0.5336 -0.4396 -0.8251
  113MOL0     O15504   8.354  10.046   3.093  0.0326  0.2398 -0.8235
  113MOL0     C15505   8.153  10.163   3.357  0.0114  0.4143 -0.7004
  113MOL0     C15506   8.156  10.174   3.494  0.6688 -0.4992 -0.1984
  113MOL0     N15507   8.611   9.881   4.125  0.2585 -0.0945  0.7269
  113MOL0     N15508   8.587   9.795   4.216  0.3026  0.0653 -0.2319
  113MOL0     C15509   8.665  10.139   4.476  0.8334  0.3995 -0.8617
  113MOL0     C15510   8.630  10.204   4.360 -0.5607 -0.2780  0.3795
  113MOL0     C15511   8.550  10.503   4.062  0.3335  0.0028 -0.2894
  113MOL0     C15512   8.418  10.455   4.006  0.6232  0.1941 -1.0662
  113MOL0     C15513   8.361  10.489   3.885 -0.1156 -0.2447  0.5705
  113MOL0     C15514   8.445  10.564   3.793  1.8818 -1.0394 -0.3707
  113MOL0     O15515   8.386  10.590   3.671  0.5025  0.4150  1.5449
  113MOL0     C15516   8.477  10.594   3.566  0.0961 -0.2726  0.4503
  113MOL0     C15517   8.408  10.558   3.439 -1.0159 -0.2452 -0.6863
  113MOL0     C15518   8.492  10.576   3.315  0.0296  0.3882  0.8580
  113MOL0     C15519   8.407  10.529   3.197  0.1289 -0.4312 -0.1212
  113MOL0     C15520   8.490  10.548   3.073 -0.3843 -0.6948 -0.0933
  113MOL0     C15521   8.577  10.571   2.989  0.4193 -0.2078  0.1424
  113MOL0     C15522   8.572  10.608   3.843  0.5213  0.1981  1.0212
  113MOL0     C15523   8.622  10.585   3.965 -0.4755  1.1826 -0.6300
  113MOL0     C15524   8.749  10.652   4.006  0.2634 -1.0059 -0.5762
  113MOL0     H15525   8.441  10.449   4.501 -1.1816 -0.4794  2.6938
  113MOL0     H15526   8.472  10.323   4.690  2.2278 -0.8224  1.0182
  113MOL0     H15527   8.789  10.189   4.779  1.1641 -0.9481 -0.5214
  113MOL0     H15528   8.814  10.039   4.682  1.4579  0.4015  0.1895
  113MOL0     H15529   8.846  10.000   4.921  0.9008 -2.1099 -3.6346
  113MOL0     H15530   8.685  10.065   4.960 -3.1967 -3.3544  0.0274
  113MOL0     H15531   8.655   9.813   4.944  3.2333 -0.9766 -0.0283
  113MOL0     H15532   8.572   9.899   4.809 -1.3639 -0.7787  1.9110
  113MOL0     H15533   8.801   9.837   4.677 -1.1629 -2.9814 -2.9219
  113MOL0     H15534   8.816   9.719   4.811 -0.6771  1.2357  2.4664
  113MOL0     H15535   8.601   9.628   4.737  1.9403 -1.2298 -0.7914
  113MOL0     H15536   8.711   9.610   4.613  0.6508 -0.1158  1.4262
  113MOL0     H15537   8.486   9.817   4.620 -0.6720  2.0809 -4.1065
  113MOL0     H15538   8.621   9.839   4.506  0.3236 -1.0099 -0.7710
  113MOL0     H15539   8.436   9.593   4.540  1.5517 -0.6011  2.2290
  113MOL0     H15540   8.562   9.608   4.410 -1.8523  1.3565 -0.8975
  113MOL0     H15541   8.351   9.650   4.314 -2.0840  0.5683  0.0490
  113MOL0     H15542   8.316   9.785   4.427 -2.7538  0.1995 -2.9511
  113MOL0     H15543   8.328   9.981   4.249 -0.7770 -1.1846 -0.7999
  113MOL0     H15544   8.588  10.145   4.040  1.4765 -2.7425 -2.4837
  113MOL0     H15545   8.422  10.151   4.117 -2.6406 -0.1223 -2.7676
  113MOL0     H15546   8.461  10.167   3.842 -2.3608  0.3828 -1.4091
  113MOL0     H15547   8.437  10.000   3.857 -0.0575 -0.4408 -0.0470
  113MOL0     H15548   8.232  10.021   3.956 -0.5628 -1.4087 -1.4163
  113MOL0     H15549   8.232  10.193   3.982 -0.5653 -2.4384  3.0183
  113MOL0     H15550   8.234  10.030   3.734 -1.8954  1.3385 -0.5971
  113MOL0     H15551   8.110  10.144   3.786 -0.0627 -4.3907  2.1321
  113MOL0     H15552   8.494  10.204   3.553  0.6384 -0.9893 -0.6449
  113MOL0     H15553   8.579  10.262   3.349 -2.0237  0.3348  0.3942
  113MOL0     H15554   8.517  10.238   3.184  0.2930 -0.5588 -0.4623
  113MOL0     H15555   8.585  10.099   3.286 -0.9850 -0.7031  2.1284
  113MOL0     H15556   8.353  10.270   2.888 -0.4353  3.4958 -2.5921
  113MOL0     H15557   8.353  10.200   2.663 -1.5842 -0.8582 -2.1932
  113MOL0     H15558   8.251  10.221   2.450  0.0854 -0.4575 -0.6923
  113MOL0     H15559   8.178  10.108   2.352  1.0937  1.8586  0.1567
  113MOL0     H15560   7.955  10.200   2.403  0.5161 -0.1301 -0.2997
  113MOL0     H15561   8.027  10.312   2.524 -0.0204 -0.1083  0.2486
  113MOL0     H15562   8.168  10.388   2.337 -0.4223 -0.4921  1.0468
  113MOL0     H15563   8.000  10.443   2.331  0.3096  0.7222  1.8146
  113MOL0     H15564   7.941  10.273   2.175 -0.9776  3.8181 -0.5663
  113MOL0     H15565   8.101  10.206   2.147 -0.3900  0.8834 -0.9124
  113MOL0     H15566   8.009  10.487   2.092  0.3798  0.2179  0.1494
  113MOL0     H15567   8.186  10.448   2.087  0.2369 -0.2071  0.2947
  113MOL0     H15568   7.941  10.338   1.927 -0.6880  2.3012  0.2501
  113MOL0     H15569   8.103  10.262   1.905  0.2512  0.8665 -0.9427
  113MOL0     H15570   8.187  10.495   1.829  0.7935 -0.4871 -1.0741
  113MOL0     H15571   8.013  10.555   1.858  0.4336 -0.1393 -0.2623
  113MOL0     H15572   8.070  10.323   1.674  0.2063  0.1900 -2.4179
  113MOL0     H15573   8.058  10.495   1.620  0.2520 -0.8680  0.1837
  113MOL0     H15574   7.969  10.018   2.710  0.0446  1.1410 -0.6177
  113MOL0     H15575   7.966  10.118   2.958 -0.6827  1.6231 -1.0008
  113MOL0     H15576   8.054  10.159   3.313 -1.2782 -1.0307  2.0960
  113MOL0     H15577   8.065  10.171   3.552  0.4437  0.3661 -0.4996
  113MOL0     H15578   8.725  10.049   4.465  0.2717 -0.8076  3.8035
  113MOL0     H15579   8.653  10.160   4.263 -3.2479 -1.4025  0.1665
  113MOL0     H15580   8.356  10.391   4.068  1.2375  0.5317 -0.0767
  113MOL0     H15581   8.265  10.448   3.855 -1.6051  2.5741  1.1567
  113MOL0     H15582   8.528  10.691   3.559  2.8641 -1.6337  0.4205
  113MOL0     H15583   8.548  10.512   3.579 -3.2369 -4.5666 -4.5985
  113MOL0     H15584   8.319  10.621   3.433  0.1346  2.5984  4.9549
  113MOL0     H15585   8.377  10.454   3.451  0.4593 -0.6706 -0.4479
  113MOL0     H15586   8.507  10.685   3.309 -3.7886  1.4505  4.9883
  113MOL0     H15587   8.586  10.521   3.321 -0.6414 -0.6779  2.3497
  113MOL0     H15588   8.311  10.582   3.199 -0.9665 -2.3238 -0.5248
  113MOL0     H15589   8.391  10.422   3.208 -0.3091 -1.1930 -5.3477
  113MOL0     H15590   8.654  10.593   2.918  1.3097  2.0695  1.7050
  113MOL0     H15591   8.637  10.664   3.777  0.2040 -1.5897 -0.9188
  113MOL0     H15592   8.790  10.713   3.924 -2.4241 -1.9301 -2.7569
  113MOL0     H15593   8.729  10.729   4.081  1.6981 -2.5596  1.5393
  113MOL0     H15594   8.823  10.579   4.039  1.0968 -0.5741 -1.4500
  114MOL0     O15595   0.687   9.337   5.479 -0.1028 -0.0752  0.1115
  114MOL0     C15596   0.781   9.259   5.466 -0.1070  0.0146 -0.3582
  114MOL0     O15597   0.780   9.127   5.424 -0.8242 -1.0863  0.0208
  114MOL0     C15598   0.656   9.069   5.404 -0.4213 -0.9064  0.1656
  114MOL0     C15599   0.548   9.138   5.334 -0.6883 -0.9052  0.3010
  114MOL0     C15600   0.428   9.071   5.302 -1.5943 -0.6623  0.0757
  114MOL0     C15601   0.408   8.931   5.332 -0.2104 -0.5088  0.1973
  114MOL0     O15602   0.305   8.866   5.280  0.0939 -0.1096 -0.7312
  114MOL0     C15603   0.265   8.748   5.349 -0.1400  0.2028 -0.3308
  114MOL0     C15604   0.127   8.722   5.296  0.6218  0.2504  0.2289
  114MOL0     C15605   0.066   8.585   5.348  0.6399 -0.6476  0.3876
  114MOL0     C15606  -0.071   8.565   5.286  0.2139  0.7658 -0.8689
  114MOL0     C15607  -0.121   8.414   5.292  0.1178  0.0082  0.5535
  114MOL0     C15608  -0.174   8.389   5.432 -0.0845 -0.2504 -0.4324
  114MOL0     C15609  -0.294   8.290   5.433 -0.1699  0.0274 -0.6796
  114MOL0     C15610  -0.354   8.307   5.578  0.8759  1.1931 -0.0639
  114MOL0     N15611  -0.467   8.218   5.621 -0.5849 -0.5420 -0.3075
  114MOL0     C15612  -0.581   8.216   5.545  1.1741 -0.4338  0.5989
  114MOL0     C15613  -0.660   8.130   5.614  0.1613 -1.0955  0.2657
  114MOL0     C15614  -0.783   8.052   5.573  0.7472 -0.4927  0.7227
  114MOL0     C15615  -0.836   8.115   5.436  0.1360 -0.1300 -0.2740
  114MOL0     C15616  -0.984   8.076   5.413 -0.3254 -0.0641 -0.2421
  114MOL0     C15617  -1.033   8.122   5.271 -0.5214 -0.2989 -0.7981
  114MOL0     O15618  -1.076   8.257   5.286 -0.1753 -0.3229  0.1166
  114MOL0     C15619  -1.147   8.320   5.188  0.8190 -0.0210 -0.4789
  114MOL0     C15620  -1.217   8.242   5.083 -0.4480 -0.2554  0.7521
  114MOL0     C15621  -1.284   8.302   4.974  0.5824  0.6585 -0.5120
  114MOL0     C15622  -1.333   8.217   4.866 -0.0898 -0.3655  0.9222
  114MOL0     C15623  -1.308   8.441   4.979  0.2484  0.6357 -0.0778
  114MOL0     C15624  -1.382   8.520   4.881 -0.3982  0.3737  0.6381
  114MOL0     O15625  -1.404   8.475   4.755 -0.6698 -0.5259 -0.0159
  114MOL0     C15626  -1.474   8.557   4.682  0.3054  0.9231  0.1476
  114MOL0     C15627  -1.432   8.680   4.636 -0.2740  0.6351  0.4729
  114MOL0     C15628  -1.508   8.761   4.552  0.5398  0.4686  0.1123
  114MOL0     C15629  -1.642   8.724   4.528 -0.4480  0.4144 -0.1346
  114MOL0     O15630  -1.720   8.792   4.443 -0.5784  0.0971 -0.6744
  114MOL0     C15631  -1.655   8.862   4.346  0.1651  0.4216 -0.3841
  114MOL0     C15632  -1.745   8.899   4.226 -0.4023 -1.1163  0.6576
  114MOL0     C15633  -1.783   8.788   4.128 -0.0351 -0.1055  0.7318
  114MOL0     C15634  -1.918   8.813   4.058 -0.4202 -0.0314 -0.5873
  114MOL0     C15635  -1.945   8.719   3.938 -0.3463 -0.3427  0.1383
  114MOL0     C15636  -2.093   8.730   3.890  0.1542  0.6651 -0.3084
  114MOL0     C15637  -2.124   8.643   3.765 -0.3859  0.6803  0.1116
  114MOL0     C15638  -2.096   8.708   3.638 -0.3578 -0.6509  0.2803
  114MOL0    Cl15639  -2.186   8.869   3.610 -0.4308 -0.3542  0.4979
  114MOL0     C15640  -1.690   8.608   4.573 -0.4761 -0.5988 -0.5535
  114MOL0     C15641  -1.606   8.525   4.647  0.4702  0.8906  0.7320
  114MOL0     O15642  -1.426   8.624   4.927 -0.0539  0.5206  0.4371
  114MOL0     C15643  -1.253   8.510   5.086  0.3160 -0.6292 -0.4042
  114MOL0     C15644  -1.173   8.452   5.202 -0.2277  0.2144  0.2085
  114MOL0     N15645  -0.594   8.090   5.726  0.6559  0.7111 -1.4486
  114MOL0     N15646  -0.476   8.140   5.733 -1.0838  0.5054  0.8065
  114MOL0     C15647   0.516   8.869   5.402  0.8164 -0.8310 -0.3852
  114MOL0     C15648   0.636   8.936   5.443  0.4347 -0.6430  0.1406
  114MOL0     C15649   0.912   9.325   5.468 -0.8270 -0.4834 -0.2206
  114MOL0     C15650   0.944   9.405   5.575  0.1543  0.1025 -0.1569
  114MOL0     C15651   1.073   9.457   5.599  0.5498  0.0126 -0.4424
  114MOL0     C15652   1.169   9.438   5.505  1.0460  0.8659 -0.2824
  114MOL0     O15653   1.290   9.493   5.533 -0.2514 -0.1371  0.1922
  114MOL0     C15654   1.411   9.416   5.517  0.1230  0.2431  0.3165
  114MOL0     C15655   1.537   9.464   5.580  0.1054  0.2722  1.6418
  114MOL0     C15656   1.587   9.597   5.517  0.4193 -0.4471  0.5089
  114MOL0     C15657   1.727   9.642   5.564  0.3901  0.0150  0.3205
  114MOL0     C15658   1.839   9.541   5.552  1.2788 -0.9167  0.0284
  114MOL0     C15659   1.933   9.473   5.529 -0.6786 -0.0803  0.3795
  114MOL0     C15660   1.138   9.365   5.390 -1.9818  0.4158 -0.2279
  114MOL0     C15661   1.013   9.307   5.371  0.2059  0.4585 -0.1310
  114MOL0     C15662   0.984   9.213   5.256 -0.5544 -0.0535  0.6171
  114MOL0     H15663   0.560   9.243   5.310 -4.0616 -0.2619  0.9819
  114MOL0     H15664   0.350   9.107   5.236  0.3491  1.4328 -1.2042
  114MOL0     H15665   0.251   8.753   5.458  0.8143  0.8823 -0.2285
  114MOL0     H15666   0.330   8.666   5.318  1.3781  1.6450 -1.1207
  114MOL0     H15667   0.059   8.806   5.313  1.5662  1.2357 -0.7074
  114MOL0     H15668   0.127   8.709   5.187 -1.9054  0.5067  0.1401
  114MOL0     H15669   0.126   8.505   5.303 -1.8857 -1.0867 -2.5473
  114MOL0     H15670   0.060   8.574   5.456 -1.5433 -1.0502  0.2659
  114MOL0     H15671  -0.149   8.625   5.334  0.6729  1.0752 -0.5153
  114MOL0     H15672  -0.061   8.605   5.185 -0.7932  2.1262 -0.4472
  114MOL0     H15673  -0.045   8.340   5.267 -1.3865 -2.1409  2.0451
  114MOL0     H15674  -0.201   8.387   5.223  1.6434 -2.7325 -0.2875
  114MOL0     H15675  -0.102   8.354   5.506  0.1150 -0.3563 -0.6748
  114MOL0     H15676  -0.202   8.487   5.473  1.7478 -0.0587  0.4809
  114MOL0     H15677  -0.264   8.185   5.426  0.3025  0.1632 -0.7285
  114MOL0     H15678  -0.369   8.313   5.357  1.5928  0.8785 -2.2410
  114MOL0     H15679  -0.275   8.308   5.653  1.0744 -1.7244 -0.1134
  114MOL0     H15680  -0.408   8.402   5.581 -0.2190  0.5956  2.6794
  114MOL0     H15681  -0.594   8.264   5.449  4.2954  1.9997  1.1955
  114MOL0     H15682  -0.868   8.058   5.642 -0.6367 -3.3933 -0.5276
  114MOL0     H15683  -0.752   7.949   5.556  3.0090  0.0050  1.4847
  114MOL0     H15684  -0.834   8.224   5.441 -1.9353 -0.1216  1.6768
  114MOL0     H15685  -0.771   8.070   5.360 -0.6807 -2.0615  0.1249
  114MOL0     H15686  -0.975   7.968   5.399 -1.7267 -0.2023 -0.2322
  114MOL0     H15687  -1.053   8.111   5.490  0.6118 -1.2717  1.2019
  114MOL0     H15688  -0.958   8.107   5.193  0.5172  0.4241  0.0447
  114MOL0     H15689  -1.121   8.060   5.249 -0.0428 -1.4568  0.4219
  114MOL0     H15690  -1.202   8.135   5.071 -1.3210 -0.5077  1.8350
  114MOL0     H15691  -1.321   8.112   4.894 -0.1265 -0.7204 -0.3548
  114MOL0     H15692  -1.286   8.228   4.768  0.5960  0.8515  1.3614
  114MOL0     H15693  -1.440   8.240   4.865 -0.5929 -2.5458 -0.5504
  114MOL0     H15694  -1.330   8.707   4.660  0.0973 -1.8390  2.0864
  114MOL0     H15695  -1.470   8.856   4.515  1.4338 -0.1447 -0.5848
  114MOL0     H15696  -1.596   8.949   4.375  1.5961  0.0379 -1.9962
  114MOL0     H15697  -1.578   8.793   4.311  0.3801  0.1922  0.5008
  114MOL0     H15698  -1.829   8.948   4.276  0.4004 -1.4677  2.4216
  114MOL0     H15699  -1.698   8.978   4.166 -0.5083 -2.8426 -1.8082
  114MOL0     H15700  -1.778   8.694   4.184 -0.0024 -0.8071 -0.4225
  114MOL0     H15701  -1.706   8.780   4.051  0.7002 -0.4861  1.4946
  114MOL0     H15702  -1.915   8.920   4.038  1.1205  0.2776  1.0814
  114MOL0     H15703  -2.001   8.798   4.128 -1.1337  0.8504 -1.2246
  114MOL0     H15704  -1.880   8.739   3.852  1.2133 -1.5277  0.9820
  114MOL0     H15705  -1.922   8.619   3.975  1.0194 -0.8852 -1.9438
  114MOL0     H15706  -2.129   8.830   3.867 -0.2721  0.8997  1.2904
  114MOL0     H15707  -2.151   8.694   3.975  0.1704  0.1078 -0.5292
  114MOL0     H15708  -2.228   8.610   3.756 -1.0470  3.1577 -3.6231
  114MOL0     H15709  -2.065   8.552   3.778 -2.3628 -0.8028 -0.7270
  114MOL0     H15710  -2.134   8.642   3.560 -0.0673  1.6277 -1.8865
  114MOL0     H15711  -1.990   8.731   3.627 -0.3592  0.1238  1.5875
  114MOL0     H15712  -1.791   8.589   4.539 -0.5452 -1.0934 -0.0824
  114MOL0     H15713  -1.658   8.433   4.671  2.8170 -0.4916  0.7763
  114MOL0     H15714  -1.260   8.618   5.090  1.7350 -0.3686 -2.9485
  114MOL0     H15715  -1.118   8.510   5.276 -1.1662  0.8185  0.4530
  114MOL0     H15716   0.505   8.768   5.441 -3.1412 -0.1923  0.6150
  114MOL0     H15717   0.710   8.875   5.494  0.8581 -0.5152 -0.3053
  114MOL0     H15718   0.869   9.431   5.649  0.8785  0.1280  0.5830
  114MOL0     H15719   1.095   9.533   5.674 -2.5862  3.1589 -2.3389
  114MOL0     H15720   1.398   9.310   5.539 -0.1582  0.5982  1.9591
  114MOL0     H15721   1.423   9.416   5.408 -0.5484 -0.0840  0.2333
  114MOL0     H15722   1.616   9.394   5.554 -0.0093  0.6991  0.0720
  114MOL0     H15723   1.534   9.479   5.688  0.4057  1.1381  1.5361
  114MOL0     H15724   1.580   9.592   5.408  1.8221 -0.7611  0.4106
  114MOL0     H15725   1.506   9.662   5.551 -5.2849 -4.4597 -3.6403
  114MOL0     H15726   1.714   9.678   5.666  1.1171  0.7686  0.1578
  114MOL0     H15727   1.770   9.725   5.507  0.3672 -0.2776 -0.1326
  114MOL0     H15728   2.009   9.399   5.513  0.0810  0.5323  1.0663
  114MOL0     H15729   1.214   9.357   5.313  0.8588  1.2337  2.2857
  114MOL0     H15730   0.902   9.264   5.204  1.4669  4.3976  1.3607
  114MOL0     H15731   1.062   9.208   5.180 -2.7731 -2.5343 -1.7537
  114MOL0     H15732   0.952   9.112   5.285  1.4034 -0.8893  0.0226
  115MOL0     O15733   8.510   0.703   0.659 -0.1895  0.4482  0.0757
  115MOL0     C15734   8.584   0.630   0.591 -0.2970  0.3475 -0.7050
  115MOL0     O15735   8.720   0.642   0.589 -0.6009  0.5437  0.9260
  115MOL0     C15736   8.778   0.767   0.608  0.9801 -1.0071  0.3346
  115MOL0     C15737   8.724   0.883   0.552 -0.2273 -0.0091  0.5364
  115MOL0     C15738   8.780   1.009   0.583  1.1753  0.1129 -0.0095
  115MOL0     C15739   8.892   1.023   0.666  0.8885  0.5800 -0.6356
  115MOL0     O15740   8.936   1.154   0.688 -1.6992 -0.1012 -0.3470
  115MOL0     C15741   9.035   1.169   0.796 -0.7105  0.2933  0.5664
  115MOL0     C15742   9.088   1.321   0.805  0.4168  0.5858 -0.2626
  115MOL0     C15743   9.227   1.324   0.851 -0.4216  0.9733  0.5094
  115MOL0     C15744   9.243   1.291   1.005 -0.1674  0.2697  0.4156
  115MOL0     C15745   9.375   1.333   1.063 -0.5289 -0.3028  0.3060
  115MOL0     C15746   9.364   1.328   1.218 -0.0530  0.4685  0.5603
  115MOL0     C15747   9.487   1.389   1.282  0.0328  0.2039 -0.3697
  115MOL0     C15748   9.465   1.532   1.321 -0.0546 -0.2468 -0.6732
  115MOL0     N15749   9.472   1.629   1.207 -0.5724  0.2905 -0.6186
  115MOL0     C15750   9.364   1.674   1.139  0.3231 -0.1003 -0.4890
  115MOL0     C15751   9.417   1.763   1.047  0.4092  0.6356  0.3927
  115MOL0     C15752   9.335   1.842   0.936 -0.3467 -0.5611 -0.2704
  115MOL0     C15753   9.296   1.768   0.802  0.7910 -0.4065 -0.7465
  115MOL0     C15754   9.144   1.765   0.784  0.7832 -0.8539 -0.4947
  115MOL0     C15755   9.097   1.724   0.644 -0.4912  0.2497 -0.3575
  115MOL0     O15756   8.955   1.710   0.666 -0.2160  0.0458 -0.9208
  115MOL0     C15757   8.892   1.649   0.568 -0.9023 -0.0745  0.8457
  115MOL0     C15758   8.839   1.723   0.459  0.2357  0.4125 -0.4726
  115MOL0     C15759   8.752   1.661   0.362 -0.6487  0.4339  1.0310
  115MOL0     C15760   8.709   1.757   0.258  0.6908 -0.4248 -0.1269
  115MOL0     C15761   8.718   1.521   0.372 -0.1647 -0.0305 -0.2872
  115MOL0     C15762   8.623   1.446   0.284 -0.5149 -0.5988 -0.3832
  115MOL0     O15763   8.560   1.339   0.346 -0.4768  0.7506 -0.8071
  115MOL0     C15764   8.560   1.221   0.283  0.9120 -0.2646  0.4446
  115MOL0     C15765   8.449   1.136   0.299  0.2082 -0.5926  0.4047
  115MOL0     C15766   8.444   1.012   0.240 -0.4404 -0.5743 -0.7508
  115MOL0     C15767   8.561   0.967   0.170 -0.0582  1.0674  0.2799
  115MOL0     O15768   8.559   0.837   0.147 -0.2530  0.4740  0.1927
  115MOL0     C15769   8.614   0.783   0.018  0.4339 -0.2411  0.0641
  115MOL0     C15770   8.678   0.639   0.026  0.1881  0.1910  0.6932
  115MOL0     C15771   8.575   0.520   0.044 -0.1077  0.2678 -0.1435
  115MOL0     C15772   8.452   0.528  -0.048 -0.7465  0.7649 -0.0558
  115MOL0     C15773   8.343   0.420  -0.020 -0.1382  0.4802  0.4842
  115MOL0     C15774   8.370   0.282  -0.100 -0.2632 -0.6577 -0.1499
  115MOL0     C15775   8.250   0.183  -0.099 -1.1046 -0.2535 -0.4891
  115MOL0     C15776   8.286   0.034  -0.133  0.0990 -0.2637 -0.2500
  115MOL0    Cl15777   8.373   0.023  -0.299 -0.5363 -0.2539  0.4916
  115MOL0     C15778   8.672   1.050   0.148 -0.7216  0.7843  0.0944
  115MOL0     C15779   8.673   1.177   0.206 -0.0851 -0.2256 -0.2809
  115MOL0     O15780   8.597   1.490   0.170 -0.1959  1.0064  0.3559
  115MOL0     C15781   8.767   1.454   0.492  0.3218  0.3313 -0.8628
  115MOL0     C15782   8.855   1.516   0.587  0.0693 -0.5064  0.3145
  115MOL0     N15783   9.556   1.763   1.053 -0.3121  0.3115 -1.2017
  115MOL0     N15784   9.588   1.685   1.149  0.8237 -0.2116  0.2360
  115MOL0     C15785   8.947   0.904   0.711 -0.4315  0.7640 -0.8309
  115MOL0     C15786   8.886   0.776   0.689  0.2677 -0.2585  0.6019
  115MOL0     C15787   8.528   0.501   0.536 -0.0699 -0.8813 -0.5233
  115MOL0     C15788   8.588   0.448   0.418 -0.3471 -0.3037  0.1347
  115MOL0     C15789   8.531   0.341   0.352 -0.0745  1.1736 -0.6947
  115MOL0     C15790   8.420   0.269   0.401  0.0335 -0.0049 -0.1630
  115MOL0     O15791   8.363   0.164   0.334 -0.1555 -0.4650  1.0469
  115MOL0     C15792   8.428   0.034   0.347 -0.6595  0.2158  1.6067
  115MOL0     C15793   8.320  -0.077   0.369  0.2990  0.1937 -0.0861
  115MOL0     C15794   8.237  -0.119   0.244  0.0334  0.0976  0.0148
  115MOL0     C15795   8.115  -0.211   0.288 -0.0327 -0.0634  0.4162
  115MOL0     C15796   8.138  -0.302   0.407 -0.3239  0.2748  0.1664
  115MOL0     C15797   8.153  -0.382   0.498 -0.6471 -1.0900 -0.2189
  115MOL0     C15798   8.361   0.327   0.512  0.0909 -1.3907  1.2517
  115MOL0     C15799   8.408   0.439   0.586  0.6694 -0.1170  0.2197
  115MOL0     C15800   8.348   0.494   0.708  0.6570 -0.1515 -0.5299
  115MOL0     H15801   8.645   0.877   0.478  0.5963  0.1171 -0.3722
  115MOL0     H15802   8.740   1.098   0.537  0.5519  0.7995  1.7994
  115MOL0     H15803   9.110   1.092   0.778 -2.9430 -1.5679 -1.6109
  115MOL0     H15804   8.985   1.135   0.887 -0.4276 -0.5095  0.4239
  115MOL0     H15805   9.093   1.372   0.708 -0.4138  2.9832  0.8781
  115MOL0     H15806   9.025   1.387   0.865  0.0000  1.0710 -1.2139
  115MOL0     H15807   9.269   1.251   0.782 -0.0333  0.1205  1.6223
  115MOL0     H15808   9.281   1.417   0.827  1.3009  0.2469  1.3657
  115MOL0     H15809   9.166   1.346   1.061 -0.4093 -0.9436  1.3242
  115MOL0     H15810   9.232   1.185   1.027  0.5203 -0.0703 -0.7978
  115MOL0     H15811   9.405   1.428   1.019  1.3839 -1.3181 -0.6994
  115MOL0     H15812   9.453   1.261   1.038  2.0411  2.5546 -0.6087
  115MOL0     H15813   9.269   1.379   1.239  0.0250  1.2038 -0.7381
  115MOL0     H15814   9.349   1.224   1.247  1.8402  0.1740  0.5572
  115MOL0     H15815   9.572   1.383   1.213 -0.6961 -1.0371 -1.1926
  115MOL0     H15816   9.522   1.324   1.362 -0.3802 -0.2762 -0.5746
  115MOL0     H15817   9.372   1.557   1.372 -0.1006 -0.1697 -0.7929
  115MOL0     H15818   9.551   1.565   1.380  2.0295 -0.9496 -3.1277
  115MOL0     H15819   9.258   1.657   1.155  0.8020 -1.0813  2.2042
  115MOL0     H15820   9.399   1.926   0.907 -0.3509 -0.4078  0.1534
  115MOL0     H15821   9.248   1.870   0.996  0.1056 -1.5913  0.9137
  115MOL0     H15822   9.358   1.798   0.717  1.7900 -0.4869 -0.0546
  115MOL0     H15823   9.331   1.666   0.821  3.3010  0.7200  1.0744
  115MOL0     H15824   9.097   1.694   0.852  3.1016  0.0782  2.2700
  115MOL0     H15825   9.106   1.864   0.810  3.2179  0.0009  0.0767
  115MOL0     H15826   9.098   1.809   0.575 -1.2203  0.7170  0.1849
  115MOL0     H15827   9.144   1.631   0.613  2.0978  1.7809 -1.3913
  115MOL0     H15828   8.853   1.831   0.455  1.2786  0.3295  0.2377
  115MOL0     H15829   8.616   1.736   0.205  1.0124  2.4712 -2.0666
  115MOL0     H15830   8.792   1.759   0.187  3.1317  0.8225  2.5250
  115MOL0     H15831   8.695   1.852   0.310 -2.8877 -1.4789  1.1278
  115MOL0     H15832   8.364   1.176   0.353  0.2024 -0.4834  0.3138
  115MOL0     H15833   8.372   0.934   0.265 -0.1162 -0.2537  1.2935
  115MOL0     H15834   8.533   0.786  -0.056  1.5567  0.1579 -1.1909
  115MOL0     H15835   8.686   0.851  -0.029 -1.6593  1.7190 -0.4697
  115MOL0     H15836   8.734   0.605  -0.062  1.5001  2.0850  0.7531
  115MOL0     H15837   8.748   0.637   0.109  2.6550  2.2524 -1.1699
  115MOL0     H15838   8.538   0.509   0.146 -0.7525 -2.5067 -0.5890
  115MOL0     H15839   8.624   0.422   0.033  4.0654  2.0171  0.8569
  115MOL0     H15840   8.478   0.491  -0.147 -1.8226 -2.7087  0.8286
  115MOL0     H15841   8.405   0.626  -0.035  0.7548  1.1255  5.1313
  115MOL0     H15842   8.349   0.415   0.089  0.3514  1.5162  0.5123
  115MOL0     H15843   8.255   0.474  -0.057  3.5416  3.4780 -5.3303
  115MOL0     H15844   8.450   0.227  -0.051 -0.5510 -1.2946 -0.3920
  115MOL0     H15845   8.415   0.287  -0.200  1.7449 -0.2518  0.7320
  115MOL0     H15846   8.181   0.216  -0.176 -0.1458 -1.2813 -1.8395
  115MOL0     H15847   8.196   0.185  -0.004 -1.7219  0.9657 -0.8497
  115MOL0     H15848   8.195  -0.025  -0.122  1.3372 -1.9651  1.5327
  115MOL0     H15849   8.352  -0.003  -0.054 -0.3334  1.4310  0.9511
  115MOL0     H15850   8.764   1.020   0.099 -1.5307 -0.0938 -0.9503
  115MOL0     H15851   8.761   1.239   0.192 -0.4694 -0.0413 -2.2760
  115MOL0     H15852   8.745   1.355   0.530  0.5806  1.1415  1.5851
  115MOL0     H15853   8.874   1.452   0.672  4.7595  1.2502  0.8757
  115MOL0     H15854   9.043   0.900   0.763 -0.4482  0.5309 -0.8176
  115MOL0     H15855   8.932   0.689   0.735 -0.8864  0.6696  3.7130
  115MOL0     H15856   8.678   0.493   0.377 -0.1189  3.2646  3.8165
  115MOL0     H15857   8.572   0.297   0.261 -0.4331 -1.6326  0.4248
  115MOL0     H15858   8.493   0.007   0.263 -1.4462 -1.5514  1.5191
  115MOL0     H15859   8.493   0.028   0.435  1.1422  0.1433  0.3474
  115MOL0     H15860   8.258  -0.046   0.454 -1.3111  1.2704 -1.5720
  115MOL0     H15861   8.378  -0.162   0.405 -0.1274 -0.0629  0.0071
  115MOL0     H15862   8.201  -0.032   0.189 -0.9714 -0.4091 -0.1456
  115MOL0     H15863   8.300  -0.178   0.177 -0.7522 -1.4561  0.5901
  115MOL0     H15864   8.077  -0.271   0.205  0.0331  1.1786 -0.5475
  115MOL0     H15865   8.030  -0.145   0.312 -1.2754 -1.6896  0.6198
  115MOL0     H15866   8.177  -0.448   0.579 -1.1345 -0.6198  0.3261
  115MOL0     H15867   8.270   0.283   0.550 -0.3434 -1.8961 -0.2997
  115MOL0     H15868   8.317   0.597   0.728  0.1007 -0.5180  0.5492
  115MOL0     H15869   8.256   0.436   0.721  0.0489  1.4532  4.3806
  115MOL0     H15870   8.417   0.479   0.791 -1.4783  0.3700  1.4597
  116MOL0     O15871   1.583   0.049   3.901  0.7760 -0.0814  0.5404
  116MOL0     C15872   1.517  -0.055   3.925  0.0216 -0.2408 -0.4982
  116MOL0     O15873   1.468  -0.144   3.831  0.0228  0.0421  0.8680
  116MOL0     C15874   1.481  -0.122   3.696 -0.7470 -0.0723  0.8164
  116MOL0     C15875   1.372  -0.157   3.608  1.1635  0.3051  0.9888
  116MOL0     C15876   1.370  -0.126   3.475 -0.2474 -0.3672  0.5406
  116MOL0     C15877   1.488  -0.068   3.413 -0.3315 -0.2063 -0.4375
  116MOL0     O15878   1.500  -0.058   3.281 -0.0841  1.2215 -0.6989
  116MOL0     C15879   1.579   0.051   3.237  0.4106 -0.4426  0.2432
  116MOL0     C15880   1.548   0.088   3.098  0.2547  0.2188 -0.7505
  116MOL0     C15881   1.621   0.215   3.076  0.5184  0.0975  1.3464
  116MOL0     C15882   1.626   0.279   2.930 -0.3028  0.1867  0.1315
  116MOL0     C15883   1.737   0.378   2.908 -0.4012  0.1710  1.0934
  116MOL0     C15884   1.750   0.436   2.764  0.5098 -0.0703  0.3150
  116MOL0     C15885   1.804   0.579   2.755 -0.4964 -0.1365  0.1527
  116MOL0     C15886   1.815   0.640   2.614  0.8613 -0.5593 -0.3739
  116MOL0     N15887   1.867   0.773   2.598 -1.1035  0.2832 -0.2664
  116MOL0     C15888   1.793   0.892   2.615 -0.1584  0.1886  0.0730
  116MOL0     C15889   1.864   0.992   2.558 -0.6467  0.8775 -0.5166
  116MOL0     C15890   1.841   1.138   2.567  0.5650 -0.1126  0.4790
  116MOL0     C15891   1.953   1.221   2.624 -0.4543  0.1008 -0.3264
  116MOL0     C15892   1.890   1.359   2.662  0.2863  0.1776  0.7225
  116MOL0     C15893   2.004   1.454   2.703  0.1101  0.0648 -1.1373
  116MOL0     O15894   2.078   1.493   2.586  0.2852  0.3648 -0.6549
  116MOL0     C15895   2.194   1.554   2.607  0.2588  0.5764 -0.6175
  116MOL0     C15896   2.280   1.553   2.501 -0.2689 -0.7626  0.7006
  116MOL0     C15897   2.410   1.614   2.499 -0.2249 -0.3541  0.6052
  116MOL0     C15898   2.483   1.605   2.372  0.4276 -0.3591 -0.0561
  116MOL0     C15899   2.445   1.687   2.615  0.1835 -0.2555  0.7387
  116MOL0     C15900   2.573   1.757   2.630 -0.4125 -0.0419 -1.3118
  116MOL0     O15901   2.664   1.749   2.528  0.9290  0.6914  0.0669
  116MOL0     C15902   2.791   1.791   2.548 -0.2840 -0.0131 -0.4366
  116MOL0     C15903   2.876   1.720   2.635  0.0884 -0.1231 -0.3027
  116MOL0     C15904   3.006   1.770   2.658  0.1441  0.3884  0.3975
  116MOL0     C15905   3.057   1.889   2.602  0.5810 -1.0873  0.2499
  116MOL0     O15906   3.178   1.940   2.634 -0.5972  0.4481 -0.1238
  116MOL0     C15907   3.240   2.018   2.539 -0.6176 -0.2473 -0.1610
  116MOL0     C15908   3.400   2.033   2.540  0.0796  0.3355  0.3744
  116MOL0     C15909   3.467   1.897   2.510  0.4925 -0.1429 -0.1305
  116MOL0     C15910   3.463   1.800   2.630  0.8612 -0.9872  0.3821
  116MOL0     C15911   3.580   1.715   2.629  0.3724 -0.4133 -0.8384
  116MOL0     C15912   3.576   1.613   2.744  0.2803 -0.4696 -0.2154
  116MOL0     C15913   3.664   1.492   2.710 -0.6165 -0.2986  0.9722
  116MOL0     C15914   3.601   1.388   2.604  0.4070 -0.0320 -0.4667
  116MOL0    Cl15915   3.682   1.223   2.591  0.0799 -0.1317 -0.0149
  116MOL0     C15916   2.965   1.965   2.525  0.7064  0.4265  0.5945
  116MOL0     C15917   2.834   1.915   2.495  0.6249  1.4846 -0.0613
  116MOL0     O15918   2.588   1.821   2.736 -1.0842  0.2230 -0.1500
  116MOL0     C15919   2.356   1.691   2.722  0.3117  0.4596 -0.1378
  116MOL0     C15920   2.233   1.630   2.717  0.2707  0.2679  0.1831
  116MOL0     N15921   1.971   0.924   2.490  0.4636 -0.4394 -0.1249
  116MOL0     N15922   1.973   0.795   2.522  0.3721 -0.1762  0.3243
  116MOL0     C15923   1.603  -0.037   3.496  0.1392  0.8627  0.1542
  116MOL0     C15924   1.587  -0.051   3.638  0.8182 -0.4945  0.1766
  116MOL0     C15925   1.507  -0.090   4.072  0.1000  0.0000 -0.2210
  116MOL0     C15926   1.480   0.015   4.155  1.2131 -1.0859  0.0150
  116MOL0     C15927   1.455  -0.009   4.288 -0.7935  0.9363  0.3116
  116MOL0     C15928   1.469  -0.139   4.346  0.0958 -0.2919  0.0874
  116MOL0     O15929   1.447  -0.163   4.488  0.5727 -0.1817  0.0599
  116MOL0     C15930   1.465  -0.063   4.587  0.2081 -0.2138 -0.7021
  116MOL0     C15931   1.620  -0.021   4.602  0.0982 -0.4899  0.6023
  116MOL0     C15932   1.628   0.129   4.650  0.3634  0.4556 -1.2843
  116MOL0     C15933   1.546   0.175   4.776 -0.5738 -0.5413  0.6054
  116MOL0     C15934   1.604   0.291   4.842 -0.3381 -0.5424  0.1659
  116MOL0     C15935   1.665   0.383   4.891 -0.4768  0.0961 -0.5177
  116MOL0     C15936   1.498  -0.247   4.260 -0.4155 -0.3114  0.2697
  116MOL0     C15937   1.512  -0.224   4.127  0.4272  0.2256  0.0367
  116MOL0     C15938   1.546  -0.349   4.044 -0.5402  0.7090  0.2603
  116MOL0     H15939   1.290  -0.218   3.644  0.7493 -0.8799 -1.7577
  116MOL0     H15940   1.285  -0.136   3.409  0.7683  2.0647 -1.2805
  116MOL0     H15941   1.687   0.039   3.254 -0.0200 -0.6330  3.4214
  116MOL0     H15942   1.554   0.135   3.301  0.7249  1.4893 -2.0077
  116MOL0     H15943   1.593   0.015   3.031 -0.6423  0.8437 -2.0683
  116MOL0     H15944   1.440   0.097   3.081  0.0777 -0.9711 -0.3599
  116MOL0     H15945   1.585   0.301   3.134  2.0881 -0.2996  2.9834
  116MOL0     H15946   1.724   0.205   3.111 -0.1752 -2.7268  2.8433
  116MOL0     H15947   1.642   0.201   2.854  0.1483  0.8696 -0.4940
  116MOL0     H15948   1.530   0.324   2.903  0.2229  0.2425 -1.8876
  116MOL0     H15949   1.834   0.332   2.930 -0.7894 -1.1208  0.2684
  116MOL0     H15950   1.741   0.467   2.971  1.0671  0.3352  0.8046
  116MOL0     H15951   1.824   0.375   2.711  0.8947 -1.2506  2.1135
  116MOL0     H15952   1.649   0.431   2.724  1.7396 -1.6892 -2.9747
  116MOL0     H15953   1.906   0.597   2.788 -0.3029  1.0730 -1.0167
  116MOL0     H15954   1.732   0.636   2.815 -0.0001  1.7085 -0.9330
  116MOL0     H15955   1.877   0.569   2.558  1.6105 -0.6979  0.5892
  116MOL0     H15956   1.715   0.634   2.570  0.2907 -2.3922  1.0205
  116MOL0     H15957   1.701   0.892   2.672  0.6917 -0.2354  1.5011
  116MOL0     H15958   1.750   1.146   2.627  0.7747 -2.8899  1.3037
  116MOL0     H15959   1.818   1.170   2.465  1.6075  2.2970  0.9402
  116MOL0     H15960   1.996   1.176   2.714 -1.4650  0.9515  0.6074
  116MOL0     H15961   2.031   1.240   2.550  0.3989 -2.2505 -0.0962
  116MOL0     H15962   1.843   1.409   2.577  0.7246 -3.0276 -1.6008
  116MOL0     H15963   1.824   1.343   2.747 -0.6149 -1.8788 -0.2874
  116MOL0     H15964   1.955   1.536   2.757 -1.3612 -2.3185  1.4204
  116MOL0     H15965   2.063   1.394   2.773  0.9961  1.1795 -0.9018
  116MOL0     H15966   2.254   1.480   2.425  1.7448  1.3814 -2.2797
  116MOL0     H15967   2.439   1.530   2.305  0.4304 -0.6588  0.2760
  116MOL0     H15968   2.582   1.565   2.397 -0.2076 -2.5967 -0.8989
  116MOL0     H15969   2.490   1.705   2.329  2.8635  0.8104  2.7085
  116MOL0     H15970   2.844   1.629   2.685  5.2122 -1.4699  1.0421
  116MOL0     H15971   3.072   1.715   2.725  1.1232  2.4261  1.1968
  116MOL0     H15972   3.217   1.973   2.442 -1.2253 -1.1373  0.3867
  116MOL0     H15973   3.200   2.120   2.542 -0.5423 -0.2043 -0.4935
  116MOL0     H15974   3.443   2.109   2.475  1.6844  1.2107  2.3528
  116MOL0     H15975   3.427   2.072   2.638  2.4232  0.2067 -0.1698
  116MOL0     H15976   3.569   1.937   2.503  0.1704  0.3541 -4.6677
  116MOL0     H15977   3.434   1.845   2.419 -1.9673  1.8747 -0.4846
  116MOL0     H15978   3.367   1.748   2.637  0.8859 -0.8251  3.2080
  116MOL0     H15979   3.463   1.857   2.724  0.3402  0.8784 -0.6869
  116MOL0     H15980   3.590   1.657   2.537 -0.0579  0.0365 -1.1706
  116MOL0     H15981   3.674   1.772   2.629 -0.2090  0.6521  0.9924
  116MOL0     H15982   3.473   1.583   2.766  0.8158 -1.5893  0.8791
  116MOL0     H15983   3.612   1.668   2.831 -0.1635  1.4515 -1.2002
  116MOL0     H15984   3.696   1.449   2.805  1.4553 -0.0356  0.4289
  116MOL0     H15985   3.759   1.517   2.664 -1.6301  0.4525 -0.7972
  116MOL0     H15986   3.610   1.432   2.504 -1.1239 -0.0337 -0.6145
  116MOL0     H15987   3.496   1.373   2.628 -0.0575 -0.6874 -2.6725
  116MOL0     H15988   2.993   2.063   2.487  1.4806  1.3390  3.2936
  116MOL0     H15989   2.776   1.973   2.425 -1.4237 -2.3140 -1.8042
  116MOL0     H15990   2.381   1.731   2.819  1.7434  0.7913 -0.6174
  116MOL0     H15991   2.168   1.648   2.802 -1.7359 -2.0814 -0.7322
  116MOL0     H15992   1.692   0.012   3.457 -0.3933  1.6267 -0.1232
  116MOL0     H15993   1.667  -0.017   3.703  0.4896  0.0612  0.2977
  116MOL0     H15994   1.476   0.118   4.121  1.3367 -1.0475  0.1151
  116MOL0     H15995   1.417   0.073   4.347  0.6389  0.0568  2.5777
  116MOL0     H15996   1.407   0.027   4.566 -1.4545 -0.6914  1.3688
  116MOL0     H15997   1.411  -0.103   4.674  1.7800 -2.8205 -0.8197
  116MOL0     H15998   1.664  -0.023   4.502 -5.4065 -1.1611 -2.1770
  116MOL0     H15999   1.675  -0.091   4.667 -0.4440  0.6759  2.4004
  116MOL0     H16000   1.733   0.159   4.651  0.1639  1.3646 -2.9152
  116MOL0     H16001   1.582   0.181   4.565  0.0034 -0.3241 -1.5693
  116MOL0     H16002   1.540   0.092   4.847 -0.3819  0.1234  1.4208
  116MOL0     H16003   1.444   0.204   4.749 -0.0853 -1.8215 -3.1323
  116MOL0     H16004   1.705   0.460   4.954 -0.7133  1.1101 -1.5795
  116MOL0     H16005   1.500  -0.343   4.311  2.0294  1.0892  3.0733
  116MOL0     H16006   1.460  -0.392   3.990  0.6296  0.6225 -1.6490
  116MOL0     H16007   1.619  -0.315   3.970  0.5648  0.1629  1.0720
  116MOL0     H16008   1.585  -0.432   4.104 -3.2322  0.3242  1.6454
  117MOL0     O16009  10.254   3.179   7.701  0.0147 -0.0531 -0.0176
  117MOL0     C16010  10.369   3.155   7.667 -0.0816  1.7187  0.5494
  117MOL0     O16011  10.404   3.107   7.544  0.2092 -0.7252 -0.8200
  117MOL0     C16012  10.306   3.088   7.453 -0.0566 -0.6671 -0.5001
  117MOL0     C16013  10.210   2.993   7.468 -0.3910 -0.0068  0.6391
  117MOL0     C16014  10.118   2.975   7.360 -0.1167  0.2959 -0.2671
  117MOL0     C16015  10.122   3.050   7.246 -0.7076 -0.5274  0.4644
  117MOL0     O16016  10.035   3.041   7.135  0.0766  0.0841 -0.4666
  117MOL0     C16017   9.933   2.938   7.136 -0.2132  0.0396  0.1397
  117MOL0     C16018   9.875   2.937   6.995  0.4061  0.1612  0.3582
  117MOL0     C16019   9.748   2.849   6.997 -0.2370  0.4723 -0.2165
  117MOL0     C16020   9.652   2.890   6.881  0.3968 -0.1196 -0.5253
  117MOL0     C16021   9.569   3.012   6.940  0.3320  0.6705  0.7552
  117MOL0     C16022   9.486   3.083   6.831  0.0801 -0.3193  0.3037
  117MOL0     C16023   9.460   3.232   6.887  0.8030  0.1988  0.0960
  117MOL0     C16024   9.333   3.302   6.828  0.5948  0.1220  1.5999
  117MOL0     N16025   9.209   3.246   6.868 -0.8140  1.0061 -0.9503
  117MOL0     C16026   9.114   3.302   6.950  0.6484  1.2960 -0.2310
  117MOL0     C16027   9.013   3.211   6.960 -0.0110  0.3449 -0.3635
  117MOL0     C16028   8.889   3.230   7.030  0.5312  0.5505  0.1095
  117MOL0     C16029   8.827   3.362   6.983 -0.7610  0.1332  0.3510
  117MOL0     C16030   8.687   3.363   7.055  0.2506 -0.2169 -0.1699
  117MOL0     C16031   8.615   3.494   7.028  0.6783  0.0681  0.3304
  117MOL0     O16032   8.640   3.590   7.121  0.1772  0.5431 -0.5679
  117MOL0     C16033   8.568   3.710   7.117 -1.1100 -0.2836 -0.0290
  117MOL0     C16034   8.612   3.809   7.212  0.1252 -0.5469  0.1557
  117MOL0     C16035   8.555   3.940   7.213 -0.0551 -1.0341 -0.2647
  117MOL0     C16036   8.606   4.021   7.318  0.4978 -0.6430 -0.2943
  117MOL0     C16037   8.456   3.982   7.122 -0.3364  0.0441 -0.1978
  117MOL0     C16038   8.399   4.115   7.107  0.4197  0.0921  0.4003
  117MOL0     O16039   8.336   4.136   6.981  0.3830 -0.0749 -1.2400
  117MOL0     C16040   8.274   4.253   6.966 -0.6490 -0.2619  0.2336
  117MOL0     C16041   8.136   4.240   6.976 -0.5256 -0.0086  0.2373
  117MOL0     C16042   8.050   4.350   6.959 -0.1912 -0.9397 -0.2022
  117MOL0     C16043   8.112   4.471   6.916  0.2732 -0.4133 -0.3202
  117MOL0     O16044   8.049   4.594   6.895 -0.0718  0.3552  0.1428
  117MOL0     C16045   7.934   4.638   6.972  1.0069  0.6379 -0.5583
  117MOL0     C16046   7.984   4.679   7.109 -0.4489  0.4707 -0.4566
  117MOL0     C16047   8.012   4.829   7.119 -1.0842 -0.4075  0.3533
  117MOL0     C16048   8.073   4.858   7.248 -0.5766 -0.0768 -0.2171
  117MOL0     C16049   8.217   4.810   7.274 -0.5667 -0.2308  0.0718
  117MOL0     C16050   8.265   4.824   7.421 -0.1800  0.0659 -0.4962
  117MOL0     C16051   8.183   4.753   7.534  0.0167  0.0636  1.2991
  117MOL0     C16052   8.178   4.602   7.501 -0.0323  0.0897 -0.5907
  117MOL0    Cl16053   8.054   4.537   7.611  0.2048 -0.1647 -0.0866
  117MOL0     C16054   8.254   4.482   6.905  1.4900  0.5769  0.2616
  117MOL0     C16055   8.334   4.378   6.938  0.3991 -0.4462 -0.1698
  117MOL0     O16056   8.406   4.197   7.196 -0.6095  0.3504 -0.1053
  117MOL0     C16057   8.407   3.877   7.039  0.5640  0.9495 -0.1859
  117MOL0     C16058   8.462   3.744   7.030 -1.3994  0.0524  0.5441
  117MOL0     N16059   9.039   3.106   6.879  0.6407 -0.2023 -0.7031
  117MOL0     N16060   9.161   3.110   6.845 -0.1528 -1.5806  0.3340
  117MOL0     C16061  10.208   3.154   7.241  0.8473  0.0690 -0.2416
  117MOL0     C16062  10.292   3.178   7.352 -0.8628 -0.2717  0.3627
  117MOL0     C16063  10.484   3.170   7.762 -0.0693  0.0313  0.4316
  117MOL0     C16064  10.458   3.219   7.888  0.2311  0.2387  0.5104
  117MOL0     C16065  10.557   3.256   7.977  0.4345 -0.1930 -0.3739
  117MOL0     C16066  10.692   3.246   7.941  0.5405  0.1751 -0.3099
  117MOL0     O16067  10.798   3.273   8.025  0.6360 -0.4178 -0.2920
  117MOL0     C16068  10.854   3.399   7.998  0.1812 -0.7898 -0.2336
  117MOL0     C16069  10.945   3.436   8.122 -0.3204  0.4358  0.4371
  117MOL0     C16070  10.860   3.454   8.243 -0.3412  0.1485 -0.5785
  117MOL0     C16071  10.955   3.476   8.369  0.0256  0.6726 -0.2113
  117MOL0     C16072  10.869   3.519   8.481 -0.4288 -0.2203  0.9750
  117MOL0     C16073  10.796   3.543   8.576  0.1798  0.5174  0.0824
  117MOL0     C16074  10.717   3.201   7.816 -0.6236 -0.7018 -0.7363
  117MOL0     C16075  10.623   3.162   7.720 -1.1244  0.4913 -0.3145
  117MOL0     C16076  10.674   3.112   7.590  0.1226  0.6620  1.1114
  117MOL0     H16077  10.216   2.933   7.559  0.6923 -1.2670 -0.2216
  117MOL0     H16078  10.038   2.903   7.368  0.1298  0.0619  0.1212
  117MOL0     H16079   9.860   2.956   7.216 -1.9986  2.1538 -1.8100
  117MOL0     H16080   9.980   2.840   7.144  1.2138  0.3995 -2.5741
  117MOL0     H16081   9.855   3.038   6.957  2.3744  0.4450 -0.0614
  117MOL0     H16082   9.953   2.894   6.931  0.7170  0.1637  0.7314
  117MOL0     H16083   9.771   2.744   6.980 -2.6833 -0.4658  1.6506
  117MOL0     H16084   9.702   2.857   7.096 -0.4869  2.6023 -0.4574
  117MOL0     H16085   9.694   2.911   6.782  1.7213  2.3932  0.4919
  117MOL0     H16086   9.577   2.811   6.869 -2.6040  2.3366  0.8844
  117MOL0     H16087   9.630   3.092   6.982 -1.4370  1.7063  1.4489
  117MOL0     H16088   9.505   2.977   7.021 -2.0600 -0.5243 -1.5096
  117MOL0     H16089   9.551   3.083   6.743  0.4639 -2.8594  0.5020
  117MOL0     H16090   9.397   3.026   6.804 -0.7018 -0.2353  2.4636
  117MOL0     H16091   9.543   3.295   6.854 -2.1641  3.2070 -2.2639
  117MOL0     H16092   9.448   3.229   6.996 -0.9357  0.0424 -0.0724
  117MOL0     H16093   9.346   3.411   6.836  0.1491  0.3315 -0.0160
  117MOL0     H16094   9.335   3.283   6.720 -2.0410  0.2961  1.4580
  117MOL0     H16095   9.141   3.392   7.006  3.0429 -0.9448  2.5510
  117MOL0     H16096   8.895   3.227   7.139 -0.6885 -3.0246  0.2185
  117MOL0     H16097   8.825   3.144   7.005  0.9520 -0.3067  1.8355
  117MOL0     H16098   8.882   3.442   7.033  1.1562  0.3371 -1.9026
  117MOL0     H16099   8.813   3.380   6.876  3.2964  1.7175 -0.0949
  117MOL0     H16100   8.620   3.288   7.012 -0.3001 -0.9191  1.8076
  117MOL0     H16101   8.697   3.360   7.164 -0.9785  3.9017  0.2198
  117MOL0     H16102   8.649   3.541   6.935  2.0892  1.6349  1.5940
  117MOL0     H16103   8.508   3.473   7.018  0.0956  1.6889  2.5768
  117MOL0     H16104   8.699   3.772   7.266 -0.7466 -3.1517 -0.0843
  117MOL0     H16105   8.519   4.051   7.378  0.2342  0.5016 -1.2034
  117MOL0     H16106   8.669   4.097   7.271 -0.2980  0.6928  0.7094
  117MOL0     H16107   8.677   3.967   7.381  1.5308  1.9132  0.8492
  117MOL0     H16108   8.102   4.142   7.008 -0.0170 -0.5761 -0.8861
  117MOL0     H16109   7.943   4.346   6.974 -0.1287 -2.9120  0.0090
  117MOL0     H16110   7.884   4.728   6.934 -1.3031  0.5654  1.9972
  117MOL0     H16111   7.856   4.562   6.979  2.2063 -0.6845 -1.1270
  117MOL0     H16112   7.909   4.665   7.187  0.2230  1.6330  0.4394
  117MOL0     H16113   8.069   4.613   7.129  0.0782  0.0196 -3.6762
  117MOL0     H16114   7.914   4.877   7.116 -0.5094  0.7591 -0.2542
  117MOL0     H16115   8.070   4.857   7.031 -3.2039 -0.4845 -1.1204
  117MOL0     H16116   8.012   4.816   7.329 -1.4217  0.0683 -0.7667
  117MOL0     H16117   8.068   4.966   7.264 -2.5914 -0.5651  3.6441
  117MOL0     H16118   8.235   4.705   7.253 -3.2544 -0.7354 -0.0791
  117MOL0     H16119   8.275   4.874   7.206  0.2803 -1.7331 -0.6618
  117MOL0     H16120   8.268   4.928   7.456 -3.4051 -0.1366  0.7082
  117MOL0     H16121   8.368   4.787   7.426 -0.0956  0.4335  1.7016
  117MOL0     H16122   8.078   4.783   7.538  0.3814  1.5179  0.5349
  117MOL0     H16123   8.241   4.758   7.627  0.4558  1.5292  0.9740
  117MOL0     H16124   8.275   4.555   7.519 -0.1401 -0.4685 -1.4061
  117MOL0     H16125   8.152   4.584   7.396 -1.9474  0.4182 -0.2094
  117MOL0     H16126   8.292   4.581   6.882  0.8766  0.4934 -1.2561
  117MOL0     H16127   8.441   4.395   6.948  0.2958  0.0865  0.0463
  117MOL0     H16128   8.315   3.897   6.986  1.0945  1.1125 -1.0804
  117MOL0     H16129   8.435   3.667   6.960  0.7405 -0.2425 -0.0447
  117MOL0     H16130  10.211   3.226   7.159  3.3235 -0.2273 -0.4951
  117MOL0     H16131  10.368   3.256   7.352 -0.9018 -0.1975  1.9574
  117MOL0     H16132  10.356   3.223   7.926  0.9374  3.0254  2.4182
  117MOL0     H16133  10.529   3.286   8.077  1.6690 -2.0682  0.5939
  117MOL0     H16134  10.922   3.403   7.912  1.1881 -2.7907  0.4129
  117MOL0     H16135  10.774   3.473   7.985  1.9787  1.5076  0.9358
  117MOL0     H16136  11.010   3.520   8.098  0.5132 -0.4744 -0.6176
  117MOL0     H16137  11.013   3.353   8.144 -0.2434  0.2974 -0.3041
  117MOL0     H16138  10.789   3.536   8.226 -2.2142 -1.4310 -0.7472
  117MOL0     H16139  10.801   3.362   8.255 -0.9647  0.8021  1.8003
  117MOL0     H16140  11.038   3.545   8.351  0.7697 -0.8053 -3.2211
  117MOL0     H16141  11.000   3.379   8.391 -1.4773  0.4114  2.0457
  117MOL0     H16142  10.742   3.565   8.666 -1.3430  1.3079 -0.9717
  117MOL0     H16143  10.820   3.195   7.783 -0.0886  1.3484  0.4007
  117MOL0     H16144  10.636   3.012   7.565  0.8861  0.2637  1.5219
  117MOL0     H16145  10.627   3.178   7.517  0.3892 -1.6808 -1.3474
  117MOL0     H16146  10.782   3.118   7.578  0.0882 -1.6506 -1.2841
  118MOL0     O16147   4.091   4.777  11.422 -0.9256 -0.7471  0.0079
  118MOL0     C16148   4.112   4.877  11.494  0.3263 -0.5019 -0.8119
  118MOL0     O16149   4.135   4.877  11.630 -0.1511 -0.7723 -0.0237
  118MOL0     C16150   4.152   4.756  11.699  0.2233 -0.1127 -0.4726
  118MOL0     C16151   4.046   4.701  11.764  0.4371  0.5310 -0.5978
  118MOL0     C16152   4.065   4.602  11.858 -0.4088 -0.5248  0.0717
  118MOL0     C16153   4.190   4.536  11.864  0.7520 -0.6139 -0.0752
  118MOL0     O16154   4.211   4.426  11.935 -0.1393  0.3066  0.2561
  118MOL0     C16155   4.116   4.379  12.040 -0.4844  0.3507 -0.0960
  118MOL0     C16156   4.189   4.270  12.125 -0.0884 -0.3370  0.0731
  118MOL0     C16157   4.098   4.241  12.241 -0.1820 -0.4229  0.2771
  118MOL0     C16158   3.980   4.150  12.204 -0.3734  0.1005  0.5039
  118MOL0     C16159   3.919   4.077  12.323  0.2810  0.1560 -0.2744
  118MOL0     C16160   3.786   4.004  12.297 -1.0433  0.9342 -0.0998
  118MOL0     C16161   3.736   3.933  12.419 -0.1950  0.5652  0.6487
  118MOL0     C16162   3.823   3.813  12.453  0.5459 -0.4207  0.4245
  118MOL0     N16163   3.773   3.728  12.558 -0.0314 -0.4967 -0.0589
  118MOL0     C16164   3.655   3.664  12.565 -0.2120 -0.1898 -0.4077
  118MOL0     C16165   3.635   3.618  12.692  0.7656  0.4247  0.4259
  118MOL0     C16166   3.529   3.524  12.745 -0.7924  0.3231  0.2209
  118MOL0     C16167   3.557   3.499  12.896  0.3544 -0.3464 -0.7495
  118MOL0     C16168   3.436   3.431  12.972  0.2369  0.1213 -0.1130
  118MOL0     C16169   3.357   3.317  12.892  0.1230  0.0639  0.4721
  118MOL0     O16170   3.408   3.192  12.945 -0.6881 -0.0306 -0.6626
  118MOL0     C16171   3.364   3.068  12.902 -0.0714  0.3492  0.4867
  118MOL0     C16172   3.439   2.957  12.947  0.3110  0.4914  0.7512
  118MOL0     C16173   3.406   2.828  12.908 -0.6918 -0.3736 -0.6488
  118MOL0     C16174   3.500   2.720  12.950 -0.0302 -0.0589  0.2028
  118MOL0     C16175   3.286   2.801  12.834  0.9336 -0.0048 -1.0650
  118MOL0     C16176   3.235   2.670  12.807 -0.3291  0.1392 -0.0241
  118MOL0     O16177   3.270   2.570  12.889  0.2494 -0.4455 -0.0008
  118MOL0     C16178   3.257   2.442  12.830  0.5867 -0.1742 -0.5088
  118MOL0     C16179   3.142   2.374  12.813  0.9929 -0.3460 -0.0701
  118MOL0     C16180   3.135   2.251  12.758 -1.2316 -0.3560 -0.2743
  118MOL0     C16181   3.246   2.184  12.714 -0.8916  0.0976  0.1804
  118MOL0     O16182   3.240   2.058  12.658  0.7462 -0.5676  0.6736
  118MOL0     C16183   3.251   1.958  12.749  0.4218 -0.2422 -0.5758
  118MOL0     C16184   3.207   1.823  12.699 -0.1796  0.7073  0.0917
  118MOL0     C16185   3.276   1.781  12.570  0.7122 -0.9554  0.3511
  118MOL0     C16186   3.271   1.633  12.546 -1.3195  0.1556 -0.5561
  118MOL0     C16187   3.364   1.585  12.434 -0.1167 -0.6523 -0.2599
  118MOL0     C16188   3.357   1.431  12.414  1.4379  0.0102  0.7121
  118MOL0     C16189   3.405   1.344  12.536  0.5957  0.0069  0.1339
  118MOL0     C16190   3.536   1.393  12.589  0.3725  0.7294 -0.3904
  118MOL0    Cl16191   3.606   1.272  12.710 -0.1042  0.3604  0.3938
  118MOL0     C16192   3.367   2.252  12.718 -0.4318 -0.2434 -0.3259
  118MOL0     C16193   3.372   2.379  12.779  0.5533 -0.3030 -1.0700
  118MOL0     O16194   3.147   2.658  12.716 -0.7146  0.2123  0.1984
  118MOL0     C16195   3.211   2.916  12.798 -0.1324 -0.5136 -0.1116
  118MOL0     C16196   3.252   3.048  12.829 -0.7787  0.0870  0.1228
  118MOL0     N16197   3.749   3.661  12.762 -0.3852 -0.4533  0.5231
  118MOL0     N16198   3.826   3.725  12.682 -0.0275 -0.8031  0.9172
  118MOL0     C16199   4.291   4.587  11.777 -0.0728  0.9207  0.5056
  118MOL0     C16200   4.276   4.691  11.691 -0.2202 -0.2763  0.2577
  118MOL0     C16201   4.085   5.005  11.432  0.7374  0.3559  0.1828
  118MOL0     C16202   4.014   5.098  11.504 -0.1894 -0.2506  0.6775
  118MOL0     C16203   4.001   5.230  11.454  0.3492  0.5756  0.6364
  118MOL0     C16204   4.035   5.260  11.326  0.2788 -0.3867  0.3989
  118MOL0     O16205   4.002   5.384  11.276 -0.1113 -0.2859  0.2637
  118MOL0     C16206   3.918   5.404  11.156  0.2296 -0.1796  0.2051
  118MOL0     C16207   3.784   5.347  11.190 -0.0713  0.3513  0.2550
  118MOL0     C16208   3.693   5.364  11.065  0.9017  0.1644 -0.8233
  118MOL0     C16209   3.669   5.511  11.032 -0.3342 -0.0115 -0.1523
  118MOL0     C16210   3.740   5.544  10.902 -0.8756  0.1028  0.1205
  118MOL0     C16211   3.763   5.574  10.787 -0.0483  0.1413 -0.2824
  118MOL0     C16212   4.100   5.164  11.244  0.5931  1.0237  1.4588
  118MOL0     C16213   4.125   5.031  11.294  0.1115  0.2725  1.0107
  118MOL0     C16214   4.189   4.932  11.203  0.2707 -0.2672 -0.1838
  118MOL0     H16215   3.948   4.743  11.744 -0.5799 -1.0823  0.7818
  118MOL0     H16216   3.985   4.561  11.919 -0.1762 -2.0635 -0.5956
  118MOL0     H16217   4.030   4.340  11.984  0.0614 -2.6530  0.9875
  118MOL0     H16218   4.083   4.459  12.107  0.4605  1.3425 -0.7769
  118MOL0     H16219   4.205   4.184  12.059  0.0610 -0.6826  0.5585
  118MOL0     H16220   4.282   4.310  12.167 -0.1392 -1.5535  1.3961
  118MOL0     H16221   4.157   4.184  12.312 -0.4410 -0.8274  0.1694
  118MOL0     H16222   4.070   4.332  12.295 -0.0673 -2.2677  3.6728
  118MOL0     H16223   3.904   4.215  12.159 -1.7951 -2.3899 -0.9415
  118MOL0     H16224   4.007   4.076  12.127  0.9464 -2.5429  3.3002
  118MOL0     H16225   3.913   4.152  12.402  0.9132  2.6543 -2.4475
  118MOL0     H16226   3.994   4.002  12.351 -1.0876 -0.8284  0.8928
  118MOL0     H16227   3.724   4.083  12.254  0.9535  0.8722 -3.5002
  118MOL0     H16228   3.804   3.927  12.221 -0.4449  1.6398 -0.6806
  118MOL0     H16229   3.635   3.895  12.400  0.2575 -0.2836 -0.1205
  118MOL0     H16230   3.723   4.004  12.502 -1.8523  0.8796  0.1528
  118MOL0     H16231   3.834   3.744  12.370  0.7575 -2.3188  1.9552
  118MOL0     H16232   3.921   3.851  12.485  0.3039  1.9136 -1.3487
  118MOL0     H16233   3.586   3.664  12.481  1.1736  2.7539 -1.6859
  118MOL0     H16234   3.537   3.430  12.689 -2.6985  1.4307 -2.0848
  118MOL0     H16235   3.431   3.563  12.715 -1.0076  0.2883  0.8714
  118MOL0     H16236   3.640   3.428  12.903 -1.0132 -1.8992  0.6398
  118MOL0     H16237   3.590   3.587  12.951  0.7020 -2.2260  2.2715
  118MOL0     H16238   3.470   3.397  13.070 -0.2848 -0.2651 -0.0648
  118MOL0     H16239   3.369   3.514  12.996  1.1177  1.7124 -2.6947
  118MOL0     H16240   3.250   3.297  12.904  0.5371 -1.7993  1.5650
  118MOL0     H16241   3.373   3.323  12.784 -2.5605  0.8366  0.0431
  118MOL0     H16242   3.533   2.985  12.992  0.9284  0.9508 -0.7687
  118MOL0     H16243   3.593   2.763  12.987 -1.0931  1.2173  1.5226
  118MOL0     H16244   3.509   2.653  12.863 -0.4637  2.0607 -1.5714
  118MOL0     H16245   3.445   2.680  13.035 -0.7955 -0.4150 -0.4450
  118MOL0     H16246   3.047   2.413  12.847  0.0504  1.1535 -3.8889
  118MOL0     H16247   3.038   2.204  12.756 -1.4482  0.0870 -2.0250
  118MOL0     H16248   3.355   1.948  12.782  0.7748 -1.8973 -2.0423
  118MOL0     H16249   3.197   1.969  12.843 -0.0179 -2.6138 -0.4950
  118MOL0     H16250   3.225   1.756  12.784 -3.9251 -1.8480 -0.8577
  118MOL0     H16251   3.100   1.804  12.687 -0.0575  0.1995 -0.2686
  118MOL0     H16252   3.382   1.808  12.568  0.3680  0.8548  2.2516
  118MOL0     H16253   3.223   1.834  12.491  0.1061 -3.0682 -0.7181
  118MOL0     H16254   3.173   1.597  12.514  0.0988 -3.1571 -1.6477
  118MOL0     H16255   3.299   1.584  12.640  1.1947  0.9711 -0.8046
  118MOL0     H16256   3.336   1.640  12.345 -2.0413 -2.5551 -0.9163
  118MOL0     H16257   3.470   1.609  12.453 -0.4152  2.4563 -1.8941
  118MOL0     H16258   3.430   1.405  12.336  0.7465 -1.2792  0.4653
  118MOL0     H16259   3.259   1.392  12.386  2.6189 -1.5008 -1.7702
  118MOL0     H16260   3.418   1.238  12.511 -1.6245 -0.5284  1.0436
  118MOL0     H16261   3.330   1.344  12.616  1.0492  0.9258  0.5698
  118MOL0     H16262   3.517   1.487  12.640  0.3192 -0.0184  1.0137
  118MOL0     H16263   3.610   1.412  12.510  0.7581 -0.9053 -0.4683
  118MOL0     H16264   3.462   2.209  12.688  0.2019  1.9746 -1.7332
  118MOL0     H16265   3.463   2.436  12.795  1.3464 -1.6480 -0.6405
  118MOL0     H16266   3.114   2.895  12.754 -0.3084 -2.7717  1.2263
  118MOL0     H16267   3.182   3.126  12.801 -0.6508  0.2389  0.2177
  118MOL0     H16268   4.389   4.541  11.789 -0.1571  0.6665  0.2348
  118MOL0     H16269   4.353   4.745  11.637  2.3071 -3.0091  0.8545
  118MOL0     H16270   3.971   5.075  11.601  2.2839 -0.2816  1.8381
  118MOL0     H16271   3.964   5.298  11.530 -0.5840 -0.7683  1.4374
  118MOL0     H16272   3.917   5.509  11.127 -3.0193 -0.2656 -0.3001
  118MOL0     H16273   3.963   5.350  11.072  1.1564 -1.1042  1.2433
  118MOL0     H16274   3.747   5.395  11.282  1.4104  0.5019  0.8013
  118MOL0     H16275   3.803   5.241  11.205 -2.0529 -0.0157  0.3759
  118MOL0     H16276   3.726   5.306  10.979 -0.4820 -2.3029  0.2125
  118MOL0     H16277   3.599   5.312  11.084  1.6610  0.2500  5.3189
  118MOL0     H16278   3.704   5.587  11.101 -0.6064  0.7208 -0.8026
  118MOL0     H16279   3.563   5.534  11.017 -0.4994 -0.7432 -0.1821
  118MOL0     H16280   3.787   5.591  10.684  1.3098  1.5119  0.2285
  118MOL0     H16281   4.117   5.185  11.139 -1.5870 -1.0647  0.6056
  118MOL0     H16282   4.221   4.980  11.110  1.5236 -0.9530 -0.1175
  118MOL0     H16283   4.277   4.886  11.248  1.4032  0.0050 -2.0071
  118MOL0     H16284   4.121   4.852  11.172 -2.3996  1.8353 -0.1393
  119MOL0     O16285  10.303   7.350   9.436 -0.5266 -1.0790  1.0511
  119MOL0     C16286  10.364   7.443   9.380 -0.1997  0.4740  0.2911
  119MOL0     O16287  10.324   7.505   9.256  0.0837  0.2999 -0.2898
  119MOL0     C16288  10.223   7.447   9.180  0.3661  0.3767  1.1010
  119MOL0     C16289  10.252   7.353   9.082 -0.3033  0.1607 -0.4601
  119MOL0     C16290  10.160   7.308   8.982 -0.3064 -0.2083 -1.2108
  119MOL0     C16291  10.026   7.357   8.981  0.0192 -0.9975 -0.4024
  119MOL0     O16292   9.926   7.341   8.885 -0.5221 -0.3112 -0.0223
  119MOL0     C16293   9.963   7.225   8.799  0.0691 -0.4728  0.0461
  119MOL0     C16294   9.843   7.185   8.710  0.5879 -0.9560 -0.0600
  119MOL0     C16295   9.889   7.085   8.610 -0.1684  0.5004  0.9287
  119MOL0     C16296   9.786   7.006   8.544  0.5922 -0.7580  0.5265
  119MOL0     C16297   9.850   6.909   8.448 -0.1914  0.4782  0.3889
  119MOL0     C16298   9.735   6.809   8.423  0.6278 -0.5727  0.2481
  119MOL0     C16299   9.763   6.694   8.327 -0.3386  0.2342 -0.0724
  119MOL0     C16300   9.881   6.605   8.354 -0.4059 -0.2248 -0.0340
  119MOL0     N16301   9.888   6.495   8.257 -0.4520  0.2553  0.4670
  119MOL0     C16302   9.829   6.374   8.273  0.7487 -0.0669  0.2889
  119MOL0     C16303   9.887   6.294   8.174  0.3675 -0.4463 -0.4316
  119MOL0     C16304   9.846   6.151   8.147  0.2115 -0.4228  0.2894
  119MOL0     C16305   9.694   6.112   8.186  0.0688  0.3959  0.8971
  119MOL0     C16306   9.585   6.160   8.096 -0.1535  0.0909 -0.4992
  119MOL0     C16307   9.445   6.114   8.142  0.1177  0.5321 -0.2618
  119MOL0     O16308   9.429   6.147   8.279  0.3495 -0.3408 -0.0969
  119MOL0     C16309   9.325   6.074   8.338 -0.5739 -0.2421  0.2279
  119MOL0     C16310   9.331   6.068   8.475  0.2876 -0.5573  0.5139
  119MOL0     C16311   9.231   6.001   8.550  0.5721 -0.5583  0.1268
  119MOL0     C16312   9.238   6.012   8.702  0.0989  0.5180 -0.2524
  119MOL0     C16313   9.119   5.941   8.489 -0.8714  0.5834 -0.1630
  119MOL0     C16314   9.012   5.881   8.571  0.0869 -0.1324  0.4747
  119MOL0     O16315   9.024   5.742   8.604 -0.4212 -0.7055  0.8184
  119MOL0     C16316   8.952   5.679   8.704 -0.1046  0.0371 -0.5364
  119MOL0     C16317   8.959   5.539   8.703 -0.3525  0.9400 -0.1138
  119MOL0     C16318   8.909   5.468   8.808 -0.4385 -0.0953 -0.3476
  119MOL0     C16319   8.845   5.529   8.911  0.8196 -0.9248 -0.7646
  119MOL0     O16320   8.790   5.441   8.999 -0.3181  0.5388  0.6932
  119MOL0     C16321   8.658   5.472   9.042 -0.2443 -0.0773  0.7419
  119MOL0     C16322   8.594   5.349   9.095 -0.1641 -0.5671 -0.6972
  119MOL0     C16323   8.572   5.233   8.999 -0.6958  0.1697 -0.0259
  119MOL0     C16324   8.498   5.121   9.062  0.1966 -0.1780  0.7795
  119MOL0     C16325   8.518   4.988   8.987 -0.5389 -0.1915 -0.7282
  119MOL0     C16326   8.391   4.905   9.007 -0.8702 -0.4190 -0.0730
  119MOL0     C16327   8.403   4.781   8.933 -0.4259  0.0942  0.0875
  119MOL0     C16328   8.273   4.704   8.937  0.2451 -0.0445  0.3799
  119MOL0    Cl16329   8.228   4.658   9.103  0.0810  0.6297 -0.1950
  119MOL0     C16330   8.829   5.671   8.920  0.5223  0.6160 -0.3726
  119MOL0     C16331   8.897   5.745   8.820  0.4325 -0.5335 -0.2188
  119MOL0     O16332   8.925   5.965   8.607  0.4851  0.8636  0.9977
  119MOL0     C16333   9.120   5.936   8.355 -0.8048  0.8297  0.4097
  119MOL0     C16334   9.220   5.999   8.275  0.5785  0.5381 -0.0186
  119MOL0     N16335   9.980   6.368   8.104 -0.3619 -0.7093  0.3464
  119MOL0     N16336   9.981   6.482   8.159 -0.3242 -0.3552 -0.4212
  119MOL0     C16337  10.001   7.443   9.090  0.2658 -0.1339  0.0160
  119MOL0     C16338  10.087   7.487   9.185  0.3891 -0.8181 -0.1313
  119MOL0     C16339  10.495   7.487   9.429 -0.9983  1.7130  0.5426
  119MOL0     C16340  10.602   7.385   9.429  0.8493 -0.3084  0.5154
  119MOL0     C16341  10.730   7.414   9.461  0.7709 -0.7420  0.7601
  119MOL0     C16342  10.764   7.541   9.501 -0.0129 -1.7529 -0.0296
  119MOL0     O16343  10.888   7.577   9.557  0.0331  0.7405  0.2299
  119MOL0     C16344  10.920   7.695   9.640  0.5549  0.3438 -0.3574
  119MOL0     C16345  10.837   7.711   9.768 -0.2544 -0.1009 -0.1548
  119MOL0     C16346  10.877   7.608   9.859 -0.3948  0.0603 -0.0790
  119MOL0     C16347  10.811   7.642   9.993  0.0509 -0.5771 -0.0628
  119MOL0     C16348  10.862   7.565  10.110 -1.4077 -0.2319  0.0669
  119MOL0     C16349  10.906   7.506  10.210  0.7763  0.4176 -0.6520
  119MOL0     C16350  10.665   7.641   9.484  0.5994  0.1305 -0.7962
  119MOL0     C16351  10.538   7.618   9.442  0.2683  0.1079  0.1426
  119MOL0     C16352  10.444   7.731   9.429  0.4299 -0.0506  0.0918
  119MOL0     H16353  10.356   7.322   9.086 -0.7446 -1.3817 -0.2179
  119MOL0     H16354  10.201   7.245   8.904  0.6446  0.2019 -1.0490
  119MOL0     H16355   9.990   7.141   8.863 -0.4161  0.5582  1.6543
  119MOL0     H16356  10.057   7.251   8.749  0.5443  0.0694  1.1952
  119MOL0     H16357   9.759   7.152   8.770  2.6338 -2.4189  2.1902
  119MOL0     H16358   9.800   7.268   8.654  6.5277  1.3860 -1.9855
  119MOL0     H16359   9.951   7.142   8.540  1.8141  0.7922  2.8135
  119MOL0     H16360   9.959   7.016   8.657  1.4361  1.7939  0.5228
  119MOL0     H16361   9.735   6.967   8.632 -0.0619 -0.5959  0.2232
  119MOL0     H16362   9.716   7.076   8.498  1.0218  1.2161  2.6493
  119MOL0     H16363   9.933   6.855   8.493 -0.4050 -0.3423 -0.1768
  119MOL0     H16364   9.880   6.964   8.358 -1.9331  0.3662 -0.3129
  119MOL0     H16365   9.706   6.779   8.524 -1.3312  1.1098  0.2501
  119MOL0     H16366   9.648   6.859   8.379  1.2417  0.5371  0.2764
  119MOL0     H16367   9.766   6.726   8.222 -0.2055  2.3545  0.5466
  119MOL0     H16368   9.671   6.634   8.322 -1.2869  1.7495 -3.3084
  119MOL0     H16369   9.965   6.675   8.357 -0.1554 -0.4001 -1.8101
  119MOL0     H16370   9.865   6.560   8.452 -0.6433  0.6866  0.3551
  119MOL0     H16371   9.757   6.349   8.350 -0.4540 -2.2626 -1.4503
  119MOL0     H16372   9.907   6.083   8.207 -0.6606 -1.1591  0.3682
  119MOL0     H16373   9.846   6.120   8.042  1.0639  1.0984 -0.1885
  119MOL0     H16374   9.691   6.004   8.197 -0.5235  0.3370  0.2557
  119MOL0     H16375   9.687   6.159   8.284 -0.3989  0.2983  0.9098
  119MOL0     H16376   9.577   6.269   8.091 -0.9497  0.0387 -0.5131
  119MOL0     H16377   9.609   6.137   7.992  3.1683  0.1953  0.1280
  119MOL0     H16378   9.373   6.147   8.067 -0.4917 -2.6897 -1.2863
  119MOL0     H16379   9.432   6.007   8.125 -3.0171  0.7733  0.0965
  119MOL0     H16380   9.406   6.121   8.533  0.2446  0.9199 -0.7162
  119MOL0     H16381   9.198   6.106   8.741  1.0035  0.8807 -0.1692
  119MOL0     H16382   9.348   6.016   8.708  0.1727 -0.9051 -0.2505
  119MOL0     H16383   9.194   5.931   8.761  0.3965 -0.5670 -1.4810
  119MOL0     H16384   9.000   5.485   8.618 -1.1403  1.6006 -0.9403
  119MOL0     H16385   8.923   5.360   8.807  0.6245  0.0179  0.5891
  119MOL0     H16386   8.662   5.554   9.114  1.8830  2.7043 -2.2300
  119MOL0     H16387   8.600   5.497   8.952  1.5286 -3.0391 -1.4008
  119MOL0     H16388   8.634   5.313   9.190 -3.4815  2.5835  2.2203
  119MOL0     H16389   8.493   5.368   9.131 -0.9037 -2.5512 -1.5688
  119MOL0     H16390   8.675   5.208   8.970  0.4507  0.9185  3.0298
  119MOL0     H16391   8.516   5.279   8.918  0.6878  1.5568 -0.2307
  119MOL0     H16392   8.392   5.148   9.059  0.0778 -0.4435  2.1221
  119MOL0     H16393   8.522   5.093   9.165  3.4897 -1.6367 -0.2318
  119MOL0     H16394   8.530   5.001   8.879 -3.5129 -2.0856 -1.4072
  119MOL0     H16395   8.601   4.929   9.028 -0.3751  2.4154  3.3050
  119MOL0     H16396   8.302   4.960   8.973 -0.6907  1.3911  2.1933
  119MOL0     H16397   8.375   4.891   9.114 -0.2974  0.1868  0.0956
  119MOL0     H16398   8.501   4.734   8.947  1.8786  3.7352 -2.3142
  119MOL0     H16399   8.412   4.798   8.826 -2.6065 -5.3116 -1.2865
  119MOL0     H16400   8.283   4.607   8.889 -3.1727 -0.9024  1.1298
  119MOL0     H16401   8.196   4.766   8.889  2.7786  3.6737  0.6363
  119MOL0     H16402   8.766   5.719   8.995 -1.0206 -0.8861 -0.6266
  119MOL0     H16403   8.915   5.852   8.830 -0.6422 -0.1968 -1.6045
  119MOL0     H16404   9.043   5.895   8.290  2.1213  1.0178 -3.6075
  119MOL0     H16405   9.209   5.986   8.167  3.4351  0.9025 -0.4431
  119MOL0     H16406   9.900   7.484   9.098 -0.3819 -1.7616  0.6889
  119MOL0     H16407  10.053   7.566   9.251  1.4399 -1.2235  0.9320
  119MOL0     H16408  10.574   7.282   9.409  0.5360 -0.2751  0.7661
  119MOL0     H16409  10.814   7.346   9.471  1.8808  0.8115  3.2103
  119MOL0     H16410  11.027   7.697   9.661  0.1821 -0.0724  1.7712
  119MOL0     H16411  10.887   7.781   9.580 -1.3579  1.1109  1.6478
  119MOL0     H16412  10.735   7.690   9.735 -1.5954 -0.2050  3.5612
  119MOL0     H16413  10.856   7.811   9.809  3.7290  0.7249 -3.3477
  119MOL0     H16414  10.848   7.506   9.830  3.2072 -0.4887 -2.4004
  119MOL0     H16415  10.986   7.601   9.869 -0.5442 -0.2602  1.5901
  119MOL0     H16416  10.703   7.632   9.989  0.1867 -3.1533  0.5624
  119MOL0     H16417  10.836   7.747  10.012  0.8720 -1.0570  1.7492
  119MOL0     H16418  10.954   7.444  10.284  1.2593 -0.4135 -1.6331
  119MOL0     H16419  10.696   7.743   9.501  2.3054 -0.6829  1.3332
  119MOL0     H16420  10.341   7.709   9.459  1.2088 -1.0928  2.2486
  119MOL0     H16421  10.473   7.813   9.496 -0.1556 -1.3036  1.9703
  119MOL0     H16422  10.434   7.758   9.324 -0.5711  2.9217  0.8541
  120MOL0     O16423   6.034   1.142  10.476  0.3285  0.0893  0.2401
  120MOL0     C16424   5.930   1.191  10.435 -0.4433  0.1679 -0.4528
  120MOL0     O16425   5.831   1.118  10.368  0.5968  0.0767 -0.9054
  120MOL0     C16426   5.832   0.982  10.377  0.6820 -0.0064 -0.7252
  120MOL0     C16427   5.745   0.932  10.470  0.3764 -0.1446 -0.6035
  120MOL0     C16428   5.701   0.806  10.459  0.0965  0.3440 -0.0796
  120MOL0     C16429   5.771   0.711  10.372 -0.4149 -0.0462  0.5251
  120MOL0     O16430   5.737   0.577  10.366 -0.4441 -0.0491 -0.2005
  120MOL0     C16431   5.627   0.521  10.439  0.5910 -0.0316 -0.6556
  120MOL0     C16432   5.632   0.368  10.419 -0.0349 -0.5635 -0.1462
  120MOL0     C16433   5.763   0.299  10.467 -0.3093 -0.2831  0.8522
  120MOL0     C16434   5.797   0.154  10.421 -0.9967 -0.6020  0.2334
  120MOL0     C16435   5.935   0.103  10.480 -0.0085 -0.0935 -0.0747
  120MOL0     C16436   5.910   0.071  10.633  1.0368 -0.2289  0.5268
  120MOL0     C16437   6.028  -0.014  10.679 -0.8135 -0.1188 -0.2377
  120MOL0     C16438   6.019  -0.011  10.829 -0.2714  0.3004  0.8093
  120MOL0     N16439   5.908  -0.094  10.874  0.3003  0.6597 -0.3066
  120MOL0     C16440   5.900  -0.233  10.868  0.2492  0.3718 -0.2743
  120MOL0     C16441   5.777  -0.246  10.939 -0.7826 -0.4392  0.0247
  120MOL0     C16442   5.703  -0.380  10.944  0.1856 -0.3759  0.0863
  120MOL0     C16443   5.628  -0.432  10.825 -0.0253  0.7210 -0.4478
  120MOL0     C16444   5.517  -0.338  10.798 -0.0082 -0.4846  0.2600
  120MOL0     C16445   5.416  -0.411  10.717 -0.0532  0.6352  0.2667
  120MOL0     O16446   5.495  -0.496  10.620  0.1036  1.1991  0.2217
  120MOL0     C16447   5.414  -0.560  10.522 -0.7740 -0.1028  0.8292
  120MOL0     C16448   5.280  -0.576  10.541  0.0623  0.4914  0.1976
  120MOL0     C16449   5.209  -0.648  10.443 -0.4073 -0.2844 -0.4008
  120MOL0     C16450   5.071  -0.689  10.480  0.7911  1.1675  0.4355
  120MOL0     C16451   5.275  -0.699  10.331 -0.1491  0.2434 -0.6046
  120MOL0     C16452   5.217  -0.795  10.231  0.5406  0.0363  0.2905
  120MOL0     O16453   5.087  -0.803  10.210  0.1560  0.1724  0.2438
  120MOL0     C16454   5.043  -0.882  10.103  0.0353  0.1612 -0.3911
  120MOL0     C16455   4.924  -0.953  10.133 -0.4754 -0.6487 -0.1747
  120MOL0     C16456   4.879  -1.050  10.038  0.0545  0.2431 -0.6053
  120MOL0     C16457   4.952  -1.076   9.922  0.1615 -0.1087 -0.1827
  120MOL0     O16458   4.892  -1.166   9.832  0.6310  0.4873 -0.8719
  120MOL0     C16459   4.986  -1.256   9.762 -0.5338 -0.3586 -0.5574
  120MOL0     C16460   4.905  -1.354   9.676 -0.0496  0.5908 -0.4048
  120MOL0     C16461   4.880  -1.304   9.540 -0.7455 -0.5719  0.1589
  120MOL0     C16462   4.801  -1.400   9.444  0.2093  0.4991 -0.2006
  120MOL0     C16463   4.742  -1.325   9.314  0.1942 -0.3549 -0.8194
  120MOL0     C16464   4.841  -1.248   9.225  0.8424  1.1027  0.0166
  120MOL0     C16465   4.766  -1.226   9.086 -0.8923 -0.4229 -0.7323
  120MOL0     C16466   4.853  -1.139   9.000 -0.1696 -0.1344 -0.3136
  120MOL0    Cl16467   4.856  -0.965   9.069 -0.2067  0.2398  0.2352
  120MOL0     C16468   5.070  -1.009   9.897  0.0980 -0.2381 -0.4776
  120MOL0     C16469   5.104  -0.903   9.976 -0.4242 -0.0349 -0.1255
  120MOL0     O16470   5.308  -0.856  10.173  0.0114 -0.7165  0.6345
  120MOL0     C16471   5.414  -0.681  10.321  0.1198  0.3974  0.2185
  120MOL0     C16472   5.482  -0.613  10.414 -0.6219 -0.5660  0.3168
  120MOL0     N16473   5.724  -0.132  10.992  0.7182  0.0480  1.1343
  120MOL0     N16474   5.810  -0.042  10.949 -0.6698  0.6842  0.1200
  120MOL0     C16475   5.867   0.757  10.285  0.5373 -0.0364 -0.6891
  120MOL0     C16476   5.894   0.891  10.292 -0.4168 -0.2179 -0.2546
  120MOL0     C16477   5.894   1.330  10.459 -0.4460  0.0134 -0.4484
  120MOL0     C16478   5.776   1.385  10.406  0.3215  0.7388  0.5307
  120MOL0     C16479   5.744   1.515  10.412  0.6200  0.1475 -0.6028
  120MOL0     C16480   5.824   1.611  10.478 -0.2122 -1.0162 -0.4404
  120MOL0     O16481   5.799   1.756  10.468  0.1802 -0.7703  0.6086
  120MOL0     C16482   5.670   1.802  10.427  0.4435 -0.6344  0.1351
  120MOL0     C16483   5.651   1.945  10.457 -0.4614 -1.2290 -0.1251
  120MOL0     C16484   5.509   1.997  10.454 -0.3253 -0.4072 -0.6259
  120MOL0     C16485   5.476   2.122  10.542  0.2929  1.1676  0.0146
  120MOL0     C16486   5.536   2.234  10.472  0.9499 -0.0707 -0.5986
  120MOL0     C16487   5.559   2.336  10.401  0.3170 -0.8410  0.0585
  120MOL0     C16488   5.942   1.557  10.528 -0.1068  0.2145  0.5758
  120MOL0     C16489   5.973   1.424  10.528  0.6912  0.4153  1.3942
  120MOL0     C16490   6.097   1.388  10.606  0.8662  0.9242  0.3222
  120MOL0     H16491   5.695   1.003  10.535 -0.1191 -0.9290 -0.1153
  120MOL0     H16492   5.632   0.772  10.537  0.2847 -1.7646 -0.7663
  120MOL0     H16493   5.533   0.558  10.397 -0.4989  0.7641  2.2375
  120MOL0     H16494   5.631   0.545  10.545  2.2947  1.4377 -1.0048
  120MOL0     H16495   5.538   0.325  10.455 -1.2880  1.2447 -1.1244
  120MOL0     H16496   5.632   0.351  10.311 -0.4927 -0.9653 -0.0846
  120MOL0     H16497   5.847   0.359  10.432 -2.3666  0.7735 -2.6938
  120MOL0     H16498   5.761   0.290  10.576  1.5961 -0.5866  0.8889
  120MOL0     H16499   5.719   0.083  10.449 -1.0106 -1.8271 -2.5607
  120MOL0     H16500   5.809   0.152  10.312 -1.7205  0.5313  0.1210
  120MOL0     H16501   6.018   0.175  10.480 -0.3197  0.2754  0.7259
  120MOL0     H16502   5.956   0.005  10.436  1.2005 -0.4019  1.1164
  120MOL0     H16503   5.899   0.162  10.692  0.2064 -1.3539  2.1943
  120MOL0     H16504   5.818   0.013  10.642  0.1792  0.8692 -0.7624
  120MOL0     H16505   6.120   0.037  10.649  0.4434 -3.6159 -2.9272
  120MOL0     H16506   6.043  -0.114  10.638 -3.4053 -0.7420  0.1314
  120MOL0     H16507   6.109  -0.061  10.867  0.8053  1.3267 -0.3205
  120MOL0     H16508   6.024   0.089  10.872 -0.7878  0.3003  0.8781
  120MOL0     H16509   5.957  -0.307  10.813  0.6403 -0.3554  1.0585
  120MOL0     H16510   5.624  -0.366  11.018 -1.3439  0.9430 -1.6644
  120MOL0     H16511   5.773  -0.461  10.966  0.1015 -0.5616 -0.3152
  120MOL0     H16512   5.704  -0.457  10.750  0.0650 -1.0085  0.1680
  120MOL0     H16513   5.583  -0.528  10.852  0.7368  0.7005  0.8321
  120MOL0     H16514   5.462  -0.304  10.886  0.8355  1.3200  0.1418
  120MOL0     H16515   5.572  -0.252  10.758  1.7087 -1.3246  0.7056
  120MOL0     H16516   5.365  -0.483  10.781  1.2058 -0.0920  0.4951
  120MOL0     H16517   5.340  -0.348  10.668 -0.9714 -1.5041 -1.1884
  120MOL0     H16518   5.223  -0.558  10.632  0.9421  2.2436  0.4468
  120MOL0     H16519   5.001  -0.664  10.400 -0.3324 -0.6188  0.7911
  120MOL0     H16520   5.038  -0.642  10.573  0.6545 -0.3244  1.1794
  120MOL0     H16521   5.082  -0.797  10.494  2.1487  1.1450 -0.5902
  120MOL0     H16522   4.871  -0.941  10.227  0.4887 -0.8687  0.4099
  120MOL0     H16523   4.789  -1.105  10.062  0.4239  0.5421  1.6842
  120MOL0     H16524   5.062  -1.200   9.707 -0.0919  1.7416  1.9647
  120MOL0     H16525   5.033  -1.321   9.836  0.4473 -0.3511 -1.1639
  120MOL0     H16526   4.945  -1.455   9.662 -2.2760 -0.4268  0.1280
  120MOL0     H16527   4.809  -1.376   9.725  0.0286  0.6544 -0.2238
  120MOL0     H16528   4.983  -1.296   9.502  0.6623 -4.1475  2.7241
  120MOL0     H16529   4.830  -1.208   9.559  0.4621 -0.3063  2.3175
  120MOL0     H16530   4.718  -1.448   9.497 -0.2890  3.1302  1.6374
  120MOL0     H16531   4.874  -1.466   9.396  2.4449  0.9950  2.2408
  120MOL0     H16532   4.693  -1.408   9.260 -1.4420  0.2438 -0.3127
  120MOL0     H16533   4.661  -1.255   9.338  0.5725 -0.3159  0.3705
  120MOL0     H16534   4.933  -1.302   9.201 -0.8063 -1.7580 -0.3941
  120MOL0     H16535   4.872  -1.154   9.272  3.1393 -0.4913  1.9773
  120MOL0     H16536   4.668  -1.179   9.094 -0.8257 -0.2843 -0.7344
  120MOL0     H16537   4.756  -1.322   9.034 -1.7292 -1.8415  1.8724
  120MOL0     H16538   4.816  -1.124   8.898 -0.8927 -0.4359 -0.1032
  120MOL0     H16539   4.956  -1.176   8.993  1.0416  1.7753  3.8988
  120MOL0     H16540   5.130  -1.039   9.812  2.6773  0.0615  1.1269
  120MOL0     H16541   5.197  -0.851   9.957  0.1872 -1.1898 -0.4111
  120MOL0     H16542   5.470  -0.709  10.232  0.6079  1.8053  0.0575
  120MOL0     H16543   5.589  -0.602  10.399 -0.4055 -2.4245  0.2012
  120MOL0     H16544   5.931   0.698  10.220  2.1033  0.3408  0.4305
  120MOL0     H16545   5.958   0.937  10.217 -0.7001  3.5495  1.5799
  120MOL0     H16546   5.709   1.317  10.353  0.1002  0.6283  0.9503
  120MOL0     H16547   5.655   1.554  10.363  0.7598  1.5497  0.1906
  120MOL0     H16548   5.653   1.774  10.323 -1.9683 -0.2521  0.3871
  120MOL0     H16549   5.593   1.744  10.478 -0.4185  0.5431  0.2130
  120MOL0     H16550   5.706   2.007  10.385  0.3467 -0.9261  0.7326
  120MOL0     H16551   5.706   1.974  10.547  0.5296  1.1558 -1.3979
  120MOL0     H16552   5.481   2.011  10.349 -1.0944  3.3739 -0.0543
  120MOL0     H16553   5.444   1.919  10.497 -0.1448  0.9481  2.2879
  120MOL0     H16554   5.511   2.098  10.642  1.0820 -0.2729 -0.5844
  120MOL0     H16555   5.368   2.140  10.545  0.5478  3.4921 -1.5851
  120MOL0     H16556   5.571   2.430  10.351  0.4226 -0.2712  1.1259
  120MOL0     H16557   6.009   1.631  10.572  1.9359 -0.7392 -0.7817
  120MOL0     H16558   6.174   1.353  10.537  0.5946  1.2120 -0.1285
  120MOL0     H16559   6.133   1.473  10.664  0.1622  0.8813  0.8244
  120MOL0     H16560   6.065   1.306  10.671 -3.6328  1.2731 -1.1254
  121MOL0     O16561   2.475   3.196   2.888 -0.3046  0.1040 -0.1581
  121MOL0     C16562   2.591   3.238   2.901  0.5901 -0.3276  0.6640
  121MOL0     O16563   2.668   3.285   2.803  0.0861  0.0996  0.7727
  121MOL0     C16564   2.598   3.324   2.691 -0.7814 -0.0996 -0.4332
  121MOL0     C16565   2.554   3.235   2.592  0.5151  0.5521  0.2755
  121MOL0     C16566   2.501   3.289   2.481 -0.8202 -0.0471  0.4759
  121MOL0     C16567   2.483   3.428   2.464 -0.5772 -0.5202 -0.1819
  121MOL0     O16568   2.418   3.470   2.356  0.6026  0.2715  0.0980
  121MOL0     C16569   2.432   3.602   2.308 -0.2281 -0.0161 -0.5825
  121MOL0     C16570   2.436   3.620   2.158 -0.2343  0.3207 -0.3288
  121MOL0     C16571   2.444   3.766   2.112  0.2305  0.7700 -0.0861
  121MOL0     C16572   2.572   3.837   2.116 -0.1820 -0.0275  0.0820
  121MOL0     C16573   2.533   3.988   2.102 -0.4545 -0.3556  0.8724
  121MOL0     C16574   2.662   4.085   2.089  0.0221  0.4995 -0.5876
  121MOL0     C16575   2.753   4.085   2.211 -1.0042 -0.3834  0.2809
  121MOL0     C16576   2.830   4.223   2.205  0.4322 -0.6300  0.2062
  121MOL0     N16577   2.938   4.229   2.306 -0.1651 -0.2402  0.6009
  121MOL0     C16578   2.934   4.183   2.444 -1.0774 -0.2183 -0.2882
  121MOL0     C16579   3.056   4.221   2.503  0.2737  0.4490 -0.1729
  121MOL0     C16580   3.093   4.218   2.652 -0.6982  0.0753  1.0412
  121MOL0     C16581   3.004   4.276   2.764  0.8005  0.5525  0.3856
  121MOL0     C16582   3.015   4.206   2.897 -0.1592 -0.5845 -0.9662
  121MOL0     C16583   2.952   4.290   3.008  1.0530  0.4850  0.5428
  121MOL0     O16584   2.809   4.281   2.996  0.0127 -0.1467  0.1979
  121MOL0     C16585   2.734   4.348   3.098 -0.9617  0.0167  0.5799
  121MOL0     C16586   2.598   4.309   3.124  0.0220  0.3129  0.1071
  121MOL0     C16587   2.518   4.380   3.216 -1.0241 -0.1138 -0.2858
  121MOL0     C16588   2.389   4.309   3.241 -0.3283  0.9701 -0.3529
  121MOL0     C16589   2.569   4.488   3.294 -0.0814 -0.0150 -0.3166
  121MOL0     C16590   2.489   4.563   3.390  0.5823 -0.3601  0.5703
  121MOL0     O16591   2.546   4.648   3.474  0.1175  0.2945 -0.1445
  121MOL0     C16592   2.470   4.743   3.540 -0.0698  0.2031  0.0619
  121MOL0     C16593   2.449   4.752   3.682  0.6166  0.8378  0.7923
  121MOL0     C16594   2.362   4.848   3.738 -0.2335 -0.2999  0.0114
  121MOL0     C16595   2.302   4.951   3.667  0.0340 -0.8566 -0.5370
  121MOL0     O16596   2.248   5.057   3.731  0.1233  0.2083  0.6078
  121MOL0     C16597   2.284   5.184   3.662 -0.3904 -0.2740  0.3534
  121MOL0     C16598   2.219   5.284   3.759  1.1314 -0.5836  0.1039
  121MOL0     C16599   2.061   5.292   3.752  0.0343  0.4970 -0.5622
  121MOL0     C16600   2.009   5.398   3.856 -0.3599  0.6873  0.2082
  121MOL0     C16601   1.862   5.402   3.858  0.4576 -1.0284 -0.5164
  121MOL0     C16602   1.803   5.507   3.951  0.2484 -0.2198 -0.4909
  121MOL0     C16603   1.859   5.499   4.098 -0.1209  0.8248 -0.3411
  121MOL0     C16604   1.790   5.584   4.194 -0.8731  0.2025 -0.6499
  121MOL0    Cl16605   1.882   5.572   4.354  0.3418  0.0209 -0.2658
  121MOL0     C16606   2.325   4.943   3.531  0.4086 -0.1142 -0.0351
  121MOL0     C16607   2.396   4.839   3.470 -0.0609  0.3744  0.0645
  121MOL0     O16608   2.369   4.554   3.382 -0.4688  0.2447 -0.4219
  121MOL0     C16609   2.705   4.517   3.274  0.2011 -0.5034 -0.0155
  121MOL0     C16610   2.792   4.446   3.181 -0.3675 -0.6108  0.1047
  121MOL0     N16611   3.129   4.284   2.397  0.0764 -0.1576  0.3526
  121MOL0     N16612   3.064   4.294   2.283 -0.3466  0.0995  0.8525
  121MOL0     C16613   2.526   3.515   2.571 -0.9935 -0.5732 -0.0612
  121MOL0     C16614   2.574   3.462   2.688  0.6716  1.5662  0.5657
  121MOL0     C16615   2.662   3.187   3.016  0.1174  0.3873 -0.6318
  121MOL0     C16616   2.803   3.154   3.015 -0.4676  0.3483  0.5783
  121MOL0     C16617   2.876   3.103   3.116  0.4868  0.5170  0.0904
  121MOL0     C16618   2.806   3.093   3.243 -0.4882 -0.5847 -0.5418
  121MOL0     O16619   2.877   3.054   3.352 -0.4163  1.4802 -0.1288
  121MOL0     C16620   2.998   2.970   3.335 -0.4947  0.1752 -0.1464
  121MOL0     C16621   3.014   2.901   3.464 -1.4134  0.2597  0.4227
  121MOL0     C16622   3.141   2.814   3.455  0.0306 -0.5523  0.8669
  121MOL0     C16623   3.149   2.688   3.545  0.2181 -0.1440 -0.1895
  121MOL0     C16624   3.064   2.585   3.485 -0.8713  0.1537  0.2244
  121MOL0     C16625   2.976   2.521   3.431 -0.4645 -0.1575 -0.1306
  121MOL0     C16626   2.666   3.125   3.251 -0.4987  0.3067 -0.5874
  121MOL0     C16627   2.587   3.167   3.149 -1.3327 -0.7664  0.1096
  121MOL0     C16628   2.441   3.206   3.167  0.1988 -0.2816 -0.7010
  121MOL0     H16629   2.575   3.129   2.593 -1.7491  0.0248  1.7528
  121MOL0     H16630   2.471   3.210   2.412  0.4685  0.1981 -0.4001
  121MOL0     H16631   2.525   3.653   2.337 -0.9011  2.0172 -1.7786
  121MOL0     H16632   2.349   3.661   2.346  0.5139 -1.6288  4.2024
  121MOL0     H16633   2.518   3.574   2.103  0.3154 -0.7408  1.2941
  121MOL0     H16634   2.361   3.554   2.114  0.0673 -2.3603  2.7450
  121MOL0     H16635   2.410   3.771   2.008 -1.3740  1.8934  0.4531
  121MOL0     H16636   2.372   3.819   2.175 -0.2335  1.2442 -0.9817
  121MOL0     H16637   2.637   3.841   2.203  1.9772  1.4243 -1.5017
  121MOL0     H16638   2.632   3.817   2.027  0.0612  0.7729  0.0610
  121MOL0     H16639   2.479   4.020   2.192  0.7787  0.4832  1.3446
  121MOL0     H16640   2.477   4.003   2.010 -0.5490  1.2810  1.1806
  121MOL0     H16641   2.726   4.086   2.000 -1.2417  4.2128 -1.6237
  121MOL0     H16642   2.620   4.186   2.089  2.7336  1.7642  2.2539
  121MOL0     H16643   2.826   4.003   2.210 -0.7092 -0.1326  0.7998
  121MOL0     H16644   2.700   4.077   2.307  0.6147 -1.2412  1.1507
  121MOL0     H16645   2.880   4.239   2.110 -1.8154  0.7414 -0.8113
  121MOL0     H16646   2.769   4.310   2.230  1.6458  0.3869 -0.2819
  121MOL0     H16647   2.851   4.128   2.488 -1.2552  0.0423 -0.2940
  121MOL0     H16648   3.190   4.266   2.666 -0.2403 -0.5520  0.1007
  121MOL0     H16649   3.113   4.115   2.681 -1.2326 -0.3609 -0.0907
  121MOL0     H16650   3.040   4.379   2.765 -0.0386  0.9293 -1.8361
  121MOL0     H16651   2.904   4.273   2.718  2.2181  1.0459 -3.0650
  121MOL0     H16652   2.964   4.110   2.889 -0.6928 -0.2260 -2.0458
  121MOL0     H16653   3.121   4.194   2.922 -0.2996  1.3047  0.7785
  121MOL0     H16654   2.990   4.258   3.106 -0.3274  1.9061  1.6111
  121MOL0     H16655   2.983   4.393   2.986 -1.3884  0.7724 -2.1035
  121MOL0     H16656   2.546   4.233   3.065 -1.0927  1.9637 -1.1195
  121MOL0     H16657   2.388   4.308   3.351 -1.6407 -0.6614 -0.3510
  121MOL0     H16658   2.388   4.204   3.213 -1.2777  0.8959 -0.0799
  121MOL0     H16659   2.300   4.355   3.198  1.3424  3.0116 -1.8796
  121MOL0     H16660   2.500   4.678   3.743 -3.8589 -1.8568  1.6795
  121MOL0     H16661   2.340   4.840   3.844 -0.3374  0.0873  0.0218
  121MOL0     H16662   2.390   5.210   3.661 -0.6683  1.1687  2.2741
  121MOL0     H16663   2.238   5.195   3.563 -0.7012  1.4565  0.6552
  121MOL0     H16664   2.246   5.259   3.862 -1.1296  1.6827  1.3503
  121MOL0     H16665   2.254   5.381   3.723  0.8449 -1.5867 -3.2366
  121MOL0     H16666   2.012   5.194   3.757 -0.3381  0.7581  1.8603
  121MOL0     H16667   2.026   5.323   3.653 -1.5250  0.2986 -0.0981
  121MOL0     H16668   2.054   5.495   3.832  0.0483  0.4163 -0.1363
  121MOL0     H16669   2.046   5.361   3.952 -0.1435 -0.2377 -0.2299
  121MOL0     H16670   1.814   5.423   3.762 -0.9985  1.9409  0.7302
  121MOL0     H16671   1.824   5.306   3.893 -1.1439 -0.9902 -2.0037
  121MOL0     H16672   1.694   5.502   3.953  0.0174  2.7344  2.0904
  121MOL0     H16673   1.825   5.608   3.915 -0.6665 -0.2804 -1.2528
  121MOL0     H16674   1.957   5.546   4.087 -0.7611  2.7531  1.4495
  121MOL0     H16675   1.870   5.394   4.127 -3.7642 -0.1735 -1.9034
  121MOL0     H16676   1.688   5.549   4.205 -1.0228  0.6484 -0.5775
  121MOL0     H16677   1.790   5.692   4.177  0.1951  0.7909  2.3274
  121MOL0     H16678   2.270   5.012   3.467 -1.2520 -1.4538 -0.1212
  121MOL0     H16679   2.396   4.849   3.362  2.4127 -1.6714 -0.2259
  121MOL0     H16680   2.754   4.605   3.314 -0.3846  0.5261 -1.4674
  121MOL0     H16681   2.891   4.488   3.164  0.1568 -0.4449  2.9589
  121MOL0     H16682   2.495   3.619   2.568  0.0667 -0.1891  1.3943
  121MOL0     H16683   2.601   3.534   2.764  0.6803  2.5754 -0.3844
  121MOL0     H16684   2.860   3.165   2.923  0.8487  1.3960  1.4916
  121MOL0     H16685   2.978   3.074   3.093  1.2932  3.0813  0.0655
  121MOL0     H16686   3.009   2.906   3.247  0.5544  0.4486 -0.2293
  121MOL0     H16687   3.091   3.028   3.331  0.8357 -1.9492 -1.8932
  121MOL0     H16688   2.927   2.843   3.498 -1.1908  0.9136  2.2311
  121MOL0     H16689   3.036   2.965   3.550  1.9853  0.9013 -0.7671
  121MOL0     H16690   3.171   2.796   3.352 -1.4142  0.9391  0.1427
  121MOL0     H16691   3.222   2.878   3.493 -0.5546  0.7271  0.0157
  121MOL0     H16692   3.109   2.696   3.646  2.6116  3.6033  0.6578
  121MOL0     H16693   3.255   2.658   3.548 -0.2073 -1.7844 -0.5934
  121MOL0     H16694   2.895   2.468   3.386  0.6028 -0.8147 -1.3363
  121MOL0     H16695   2.629   3.103   3.351 -2.0656  4.3302 -0.1170
  121MOL0     H16696   2.377   3.122   3.137  3.6286 -2.5157 -2.4824
  121MOL0     H16697   2.433   3.213   3.275  0.4256 -4.2445 -0.2587
  121MOL0     H16698   2.414   3.294   3.108 -0.0994  0.9671  1.2167
  122MOL0     O16699   3.912  10.233   4.010 -0.1799  0.2417 -0.1768
  122MOL0     C16700   3.865  10.340   4.053 -0.1152  0.1324 -0.5804
  122MOL0     O16701   3.730  10.357   4.083  0.6607 -0.6650  0.3520
  122MOL0     C16702   3.642  10.260   4.029  0.2492 -0.2529  1.2608
  122MOL0     C16703   3.618  10.239   3.891 -0.0564 -0.0896 -1.2532
  122MOL0     C16704   3.535  10.147   3.849  0.8010  0.2698 -0.1885
  122MOL0     C16705   3.462  10.067   3.940 -0.2921 -0.3812 -0.2570
  122MOL0     O16706   3.372   9.968   3.883 -0.2407  0.0726  0.4435
  122MOL0     C16707   3.327   9.874   3.981  0.0022  0.8299 -0.5131
  122MOL0     C16708   3.235   9.766   3.921 -0.1875 -0.0887  0.1713
  122MOL0     C16709   3.290   9.695   3.805 -0.7025 -0.7279 -0.1001
  122MOL0     C16710   3.222   9.572   3.770 -0.1594  0.1963  0.1685
  122MOL0     C16711   3.297   9.500   3.655  0.5195  0.1165 -0.0786
  122MOL0     C16712   3.209   9.377   3.630  0.2321 -1.7201  0.3349
  122MOL0     C16713   3.267   9.304   3.511 -0.1845 -0.2953  0.3836
  122MOL0     C16714   3.217   9.342   3.372  0.7978  1.2646  0.7881
  122MOL0     N16715   3.247   9.243   3.263 -0.1161  0.1847  0.0108
  122MOL0     C16716   3.366   9.216   3.204 -0.8505  1.4187 -0.2832
  122MOL0     C16717   3.341   9.125   3.101  0.3452  0.4433 -0.1039
  122MOL0     C16718   3.450   9.069   3.011  0.3564 -0.5941 -0.9888
  122MOL0     C16719   3.478   9.168   2.894 -0.0723 -0.5264 -0.4954
  122MOL0     C16720   3.617   9.127   2.826  0.3989  0.0604 -0.3457
  122MOL0     C16721   3.584   9.060   2.694  0.0247  0.9220 -0.0128
  122MOL0     O16722   3.709   9.046   2.619  0.4120 -0.0543  0.2938
  122MOL0     C16723   3.712   8.953   2.515 -0.2518  0.6991 -0.3218
  122MOL0     C16724   3.834   8.956   2.451  0.4844  0.0168  0.8463
  122MOL0     C16725   3.869   8.877   2.342 -0.0435 -0.6072 -1.0619
  122MOL0     C16726   3.998   8.913   2.270  0.1637 -0.1271  0.9174
  122MOL0     C16727   3.769   8.794   2.294 -0.4747 -0.9904  1.1696
  122MOL0     C16728   3.777   8.705   2.172  0.6661  0.1356  0.6275
  122MOL0     O16729   3.716   8.581   2.188 -0.2101 -0.5754 -0.2936
  122MOL0     C16730   3.741   8.472   2.096 -0.8719 -0.7532 -0.2735
  122MOL0     C16731   3.762   8.345   2.143  0.1182 -0.1313  0.4767
  122MOL0     C16732   3.785   8.239   2.054 -0.2236 -0.5319 -0.1802
  122MOL0     C16733   3.771   8.245   1.918  0.2573 -0.0016  1.0544
  122MOL0     O16734   3.758   8.130   1.837 -1.1757  0.2564 -0.3342
  122MOL0     C16735   3.744   8.149   1.703 -0.0878  0.2101  0.3806
  122MOL0     C16736   3.793   8.018   1.639  0.2082  0.3875  0.0655
  122MOL0     C16737   3.727   7.891   1.692  0.5144  0.8962  0.6202
  122MOL0     C16738   3.789   7.766   1.613  0.1011  0.0412  0.5920
  122MOL0     C16739   3.756   7.640   1.696 -0.9873  0.2253  0.0446
  122MOL0     C16740   3.802   7.519   1.624 -0.6366  0.5276  0.9016
  122MOL0     C16741   3.765   7.387   1.699 -0.0409 -0.4312 -0.0262
  122MOL0     C16742   3.825   7.267   1.634  0.4994 -0.3945 -0.8570
  122MOL0    Cl16743   3.826   7.116   1.731  0.6318  0.0686 -0.0380
  122MOL0     C16744   3.760   8.376   1.865 -0.2248 -1.0864 -0.4349
  122MOL0     C16745   3.745   8.487   1.953 -0.7537 -0.1704 -0.1898
  122MOL0     O16746   3.851   8.741   2.079 -0.3077  0.0848 -0.1900
  122MOL0     C16747   3.646   8.790   2.359 -0.0187  0.2039 -0.9495
  122MOL0     C16748   3.615   8.867   2.469  0.0205  0.1191  0.5878
  122MOL0     N16749   3.203   9.101   3.108 -0.0780 -0.1925 -0.7448
  122MOL0     N16750   3.151   9.165   3.209 -0.2386  0.6095  0.5297
  122MOL0     C16751   3.475  10.087   4.077  0.7967  0.3025  0.3426
  122MOL0     C16752   3.571  10.179   4.118 -0.3916 -0.2246 -0.3501
  122MOL0     C16753   3.962  10.450   4.081  0.4094 -0.3852  0.2873
  122MOL0     C16754   3.919  10.584   4.078  0.1906  0.3766 -0.9402
  122MOL0     C16755   4.003  10.689   4.110  0.2358 -0.5837 -0.0569
  122MOL0     C16756   4.141  10.670   4.131 -0.6929  0.2135  0.2562
  122MOL0     O16757   4.220  10.781   4.142 -0.0914  0.5086  0.3882
  122MOL0     C16758   4.357  10.771   4.188 -0.2204 -0.6734  0.5539
  122MOL0     C16759   4.430  10.912   4.185  0.0241  0.4927 -0.7030
  122MOL0     C16760   4.379  11.019   4.286 -0.2498  0.1166  0.2434
  122MOL0     C16761   4.481  11.129   4.283  0.4921  0.1447  0.1246
  122MOL0     C16762   4.449  11.232   4.373  0.8442  0.1780  0.7141
  122MOL0     C16763   4.447  11.339   4.440 -0.4693 -0.2323  0.3924
  122MOL0     C16764   4.186  10.540   4.135  0.7979 -0.0419 -0.7866
  122MOL0     C16765   4.102  10.435   4.109  0.8337 -0.0967  0.8025
  122MOL0     C16766   4.170  10.299   4.122 -0.5009 -0.6668 -0.5362
  122MOL0     H16767   3.667  10.285   3.806  1.4651 -1.1718 -1.0114
  122MOL0     H16768   3.515  10.127   3.744 -2.3002 -3.2373  0.8763
  122MOL0     H16769   3.271   9.919   4.063 -0.1795 -1.1652  0.5328
  122MOL0     H16770   3.407   9.813   4.024 -1.8792 -1.3786  0.0949
  122MOL0     H16771   3.215   9.697   4.003  3.2608  0.2748  1.5090
  122MOL0     H16772   3.138   9.805   3.890 -0.2414 -2.1069 -2.5734
  122MOL0     H16773   3.292   9.761   3.717  5.0330  1.0938  0.9854
  122MOL0     H16774   3.392   9.670   3.833 -1.1352 -2.7704 -0.2060
  122MOL0     H16775   3.220   9.513   3.863  0.8933 -2.7005 -1.5088
  122MOL0     H16776   3.116   9.585   3.749 -0.2249 -3.8641 -3.4270
  122MOL0     H16777   3.397   9.467   3.685  1.4238  1.2369 -1.6859
  122MOL0     H16778   3.309   9.556   3.561  0.7650 -0.6904 -0.5328
  122MOL0     H16779   3.221   9.312   3.717  2.5320 -1.2609  0.4414
  122MOL0     H16780   3.106   9.406   3.608  1.4606  2.9594 -0.3625
  122MOL0     H16781   3.250   9.196   3.516  0.3574 -0.3347  2.2560
  122MOL0     H16782   3.377   9.308   3.517 -0.0534  1.8963 -2.0733
  122MOL0     H16783   3.109   9.353   3.369  0.5806 -0.6380  0.5946
  122MOL0     H16784   3.254   9.442   3.346 -0.4832  1.0202 -2.4729
  122MOL0     H16785   3.460   9.262   3.231 -0.2644 -0.4825  1.1882
  122MOL0     H16786   3.435   8.964   2.984 -2.1628 -0.5986  0.1538
  122MOL0     H16787   3.533   9.071   3.084  0.4426 -1.3709 -1.0617
  122MOL0     H16788   3.388   9.178   2.832  0.1436  0.6831 -0.6458
  122MOL0     H16789   3.494   9.268   2.935  3.0201 -0.9033 -0.5388
  122MOL0     H16790   3.673   9.217   2.798  2.2625 -1.5095 -2.1093
  122MOL0     H16791   3.676   9.073   2.900 -0.5256 -0.4905  0.0056
  122MOL0     H16792   3.520   8.971   2.699  0.4641  0.6648  1.3900
  122MOL0     H16793   3.526   9.135   2.638 -1.4819  0.2093  0.5531
  122MOL0     H16794   3.904   9.034   2.479  0.9147  0.5092 -1.3780
  122MOL0     H16795   4.061   8.824   2.265  1.2598  0.3817  3.7880
  122MOL0     H16796   4.044   8.996   2.325 -2.4956  1.2268  1.2605
  122MOL0     H16797   3.987   8.947   2.166  1.6355 -2.2883 -0.0065
  122MOL0     H16798   3.776   8.341   2.251  0.1226  3.8364  0.7910
  122MOL0     H16799   3.802   8.134   2.077 -0.0678 -0.3721  0.4576
  122MOL0     H16800   3.637   8.171   1.694 -0.2021  0.3641  1.8319
  122MOL0     H16801   3.811   8.223   1.659 -2.2363  3.1930  1.7734
  122MOL0     H16802   3.756   8.029   1.537 -1.6537  2.5386  0.8997
  122MOL0     H16803   3.902   8.010   1.637  0.4960  3.3887 -0.8569
  122MOL0     H16804   3.618   7.890   1.693  0.4770 -1.4907  0.8627
  122MOL0     H16805   3.756   7.882   1.797 -2.4451 -0.1547  1.4385
  122MOL0     H16806   3.898   7.771   1.603  0.1468  0.4565  1.2388
  122MOL0     H16807   3.734   7.757   1.519 -2.3871  0.0292  1.9674
  122MOL0     H16808   3.810   7.646   1.790 -1.0221  1.6746 -0.0038
  122MOL0     H16809   3.652   7.641   1.728 -0.7263 -1.4468  1.0664
  122MOL0     H16810   3.909   7.513   1.602 -0.8030 -2.0674  0.5355
  122MOL0     H16811   3.756   7.517   1.525 -0.0265 -0.2289  0.6255
  122MOL0     H16812   3.657   7.383   1.682  0.4205 -4.3494 -3.9704
  122MOL0     H16813   3.780   7.390   1.807 -1.4296 -1.6159  0.2311
  122MOL0     H16814   3.932   7.289   1.631  0.5199 -0.1370  0.8537
  122MOL0     H16815   3.785   7.250   1.534 -0.5255 -0.2542 -0.4801
  122MOL0     H16816   3.770   8.397   1.759  1.0846  1.6719  0.1512
  122MOL0     H16817   3.730   8.587   1.916  2.6174  1.3763  2.1546
  122MOL0     H16818   3.561   8.729   2.329 -1.2098  1.6028 -0.5015
  122MOL0     H16819   3.514   8.867   2.510 -1.0691 -0.4969 -1.9285
  122MOL0     H16820   3.410  10.043   4.151  0.8060 -1.2995 -0.5493
  122MOL0     H16821   3.596  10.190   4.223 -0.3663  0.7280 -0.4442
  122MOL0     H16822   3.813  10.603   4.067 -0.1591 -1.9594 -2.4900
  122MOL0     H16823   3.961  10.789   4.114 -2.7491 -1.7549  2.3922
  122MOL0     H16824   4.356  10.737   4.292 -2.0162  1.4366  1.3150
  122MOL0     H16825   4.417  10.703   4.127 -1.8950  0.5922 -2.7043
  122MOL0     H16826   4.420  10.945   4.081 -3.8931  0.1098 -0.5888
  122MOL0     H16827   4.537  10.894   4.196 -0.6000 -3.4090  0.8193
  122MOL0     H16828   4.276  11.052   4.269 -0.2440 -0.4449 -1.0002
  122MOL0     H16829   4.388  10.988   4.391 -1.0682 -2.0549 -0.2637
  122MOL0     H16830   4.486  11.166   4.181 -1.3877  2.0195  0.6441
  122MOL0     H16831   4.577  11.082   4.308  0.4410 -2.0062 -3.1459
  122MOL0     H16832   4.437  11.422   4.507  1.7668 -3.1846  4.8820
  122MOL0     H16833   4.292  10.521   4.149  1.4085  2.1859 -1.9564
  122MOL0     H16834   4.119  10.237   4.197  2.0657 -0.1489  1.7799
  122MOL0     H16835   4.147  10.249   4.027 -3.0841 -1.5181  0.4435
  122MOL0     H16836   4.277  10.294   4.142 -0.8009 -0.8500  1.2273
  123MOL0     O16837   1.625  10.844   6.305  0.0008  1.2032  0.0231
  123MOL0     C16838   1.640  10.824   6.190  0.1430  0.2895  0.8708
  123MOL0     O16839   1.538  10.826   6.100 -0.0213  0.0572 -0.0837
  123MOL0     C16840   1.417  10.865   6.141  0.7003  0.3030 -0.4401
  123MOL0     C16841   1.353  10.801   6.252 -0.5962 -0.2776  0.2094
  123MOL0     C16842   1.225  10.852   6.288  0.2092 -0.3087 -0.2382
  123MOL0     C16843   1.159  10.955   6.222  0.1776  0.4489 -0.2746
  123MOL0     O16844   1.038  11.002   6.273 -0.4725 -0.8189 -0.0398
  123MOL0     C16845   0.936  11.035   6.177 -0.3425  0.1894  0.9351
  123MOL0     C16846   0.814  11.021   6.262  1.1097 -0.0753  0.0826
  123MOL0     C16847   0.678  11.041   6.176 -0.0138  0.3513 -0.0433
  123MOL0     C16848   0.569  10.950   6.230  0.1704  0.2414 -0.4132
  123MOL0     C16849   0.444  10.993   6.172  0.8217 -0.0071  0.3713
  123MOL0     C16850   0.335  10.891   6.133 -0.0324  0.4393 -0.2029
  123MOL0     C16851   0.198  10.952   6.097 -0.4910 -0.2919 -0.0186
  123MOL0     C16852   0.127  11.026   6.217 -1.1605  0.9812 -0.0951
  123MOL0     N16853  -0.024  11.040   6.200  0.8358  0.8811 -0.5617
  123MOL0     C16854  -0.087  11.161   6.202  0.3925 -0.5268 -0.6227
  123MOL0     C16855  -0.215  11.122   6.206  0.2967 -0.2625  0.4293
  123MOL0     C16856  -0.339  11.212   6.217  0.3878 -0.5855  0.4614
  123MOL0     C16857  -0.431  11.205   6.091 -1.2286 -1.1984 -0.0928
  123MOL0     C16858  -0.363  11.263   5.966  0.4126  0.0586  0.6487
  123MOL0     C16859  -0.465  11.290   5.855  0.7615 -0.3091  0.1609
  123MOL0     O16860  -0.561  11.391   5.893  0.5528 -1.0653 -0.7669
  123MOL0     C16861  -0.659  11.400   5.804 -0.6128 -0.5190  0.0377
  123MOL0     C16862  -0.776  11.329   5.830  0.0538  0.3811  0.5903
  123MOL0     C16863  -0.890  11.332   5.743  0.8748 -0.2556  0.1531
  123MOL0     C16864  -1.011  11.259   5.779 -0.3451  0.2590 -0.1719
  123MOL0     C16865  -0.882  11.412   5.626  0.0475  0.1541 -0.2468
  123MOL0     C16866  -0.989  11.444   5.534  0.1622  0.7853  0.3028
  123MOL0     O16867  -0.949  11.453   5.400 -0.3389 -0.4551 -0.7031
  123MOL0     C16868  -1.049  11.470   5.309  0.0398  0.0739  0.0929
  123MOL0     C16869  -1.184  11.420   5.300  0.4012 -0.4101  0.7061
  123MOL0     C16870  -1.252  11.441   5.181  0.5908 -0.6535  0.0392
  123MOL0     C16871  -1.199  11.508   5.068  0.6373  0.1843  0.7361
  123MOL0     O16872  -1.282  11.519   4.955  0.0236  0.1740 -0.2775
  123MOL0     C16873  -1.327  11.644   4.908 -0.1598 -0.2981 -0.2353
  123MOL0     C16874  -1.424  11.711   5.008 -0.0470 -0.7350  0.6938
  123MOL0     C16875  -1.529  11.815   4.951  0.1245 -0.2350  0.8791
  123MOL0     C16876  -1.467  11.937   4.880 -0.8149  0.2092 -0.3093
  123MOL0     C16877  -1.373  12.023   4.970 -0.1354 -0.4674 -0.0021
  123MOL0     C16878  -1.337  12.154   4.901 -0.3955 -0.6449  0.5066
  123MOL0     C16879  -1.304  12.147   4.749  0.3992 -0.9436 -0.8881
  123MOL0     C16880  -1.266  12.287   4.697 -0.5166  0.2337  0.0747
  123MOL0    Cl16881  -1.223  12.283   4.527 -0.5855  0.0734  0.2030
  123MOL0     C16882  -1.074  11.566   5.083  0.3235 -0.1002 -0.2215
  123MOL0     C16883  -0.997  11.546   5.199 -0.8109 -0.3663 -0.6138
  123MOL0     O16884  -1.106  11.467   5.581  0.0633 -0.0716 -0.3434
  123MOL0     C16885  -0.761  11.479   5.600  0.8954  0.7388 -0.6283
  123MOL0     C16886  -0.658  11.475   5.690 -0.6915  0.1900  0.6929
  123MOL0     N16887  -0.223  10.981   6.206 -0.7122 -0.1675 -0.3044
  123MOL0     N16888  -0.103  10.929   6.209 -0.5538 -0.0433 -0.6041
  123MOL0     C16889   1.218  11.012   6.113 -0.5992 -0.4757  1.2324
  123MOL0     C16890   1.350  10.979   6.082 -0.0327 -0.8164  0.0351
  123MOL0     C16891   1.777  10.795   6.146 -0.2530 -0.0502 -0.1672
  123MOL0     C16892   1.817  10.825   6.010 -0.7661 -0.6911 -0.0491
  123MOL0     C16893   1.952  10.809   5.974  0.1781 -0.1937  0.7946
  123MOL0     C16894   2.045  10.746   6.049 -0.5283  0.7387 -0.1544
  123MOL0     O16895   2.174  10.717   6.013  0.1002  0.1021 -0.7264
  123MOL0     C16896   2.200  10.698   5.876  0.1101 -0.4527  1.2313
  123MOL0     C16897   2.287  10.825   5.831  0.0656 -0.1475 -0.0853
  123MOL0     C16898   2.419  10.835   5.921  0.5427  0.2921 -0.3005
  123MOL0     C16899   2.466  10.980   5.928 -0.6648 -0.0307 -0.4045
  123MOL0     C16900   2.512  11.012   5.793  0.3876 -0.2113 -0.7797
  123MOL0     C16901   2.536  11.028   5.675 -0.8327 -0.4220 -1.1165
  123MOL0     C16902   2.008  10.723   6.185  0.7695  0.2367 -0.6811
  123MOL0     C16903   1.878  10.749   6.233  0.7956  0.7336 -0.2269
  123MOL0     C16904   1.853  10.701   6.376  0.4977 -0.9288 -0.1502
  123MOL0     H16905   1.395  10.719   6.309 -0.4881 -1.7563 -1.8575
  123MOL0     H16906   1.183  10.804   6.376 -0.9519  0.0079 -0.6020
  123MOL0     H16907   0.933  10.967   6.091 -0.5790  1.2846  0.0521
  123MOL0     H16908   0.940  11.136   6.136 -2.7574  0.7723  1.9187
  123MOL0     H16909   0.812  10.917   6.295 -0.7832 -0.9776 -2.5053
  123MOL0     H16910   0.806  11.094   6.343 -2.9641  0.2610 -0.4023
  123MOL0     H16911   0.641  11.142   6.199  1.9561  1.0117  0.4015
  123MOL0     H16912   0.687  11.026   6.068  0.5684  1.3607 -0.1529
  123MOL0     H16913   0.602  10.848   6.211  3.5012  0.5703  2.6571
  123MOL0     H16914   0.549  10.959   6.337 -0.3251  1.9251 -0.6090
  123MOL0     H16915   0.458  11.057   6.084  2.6137 -0.5313  0.2414
  123MOL0     H16916   0.398  11.070   6.236 -1.3861  0.8311 -1.9930
  123MOL0     H16917   0.363  10.838   6.041 -1.9665  1.5971 -1.5228
  123MOL0     H16918   0.324  10.805   6.200 -0.9959 -1.0760 -2.1855
  123MOL0     H16919   0.139  10.865   6.069 -1.3146 -0.2537  1.4690
  123MOL0     H16920   0.205  11.018   6.011 -1.2765  0.7693  0.7099
  123MOL0     H16921   0.162  10.962   6.297 -0.3014  1.4875 -0.0551
  123MOL0     H16922   0.166  11.125   6.241 -2.6393  1.4068  0.6667
  123MOL0     H16923  -0.051  11.262   6.216  0.2496 -0.7815  2.2295
  123MOL0     H16924  -0.317  11.316   6.245 -3.0932 -0.0156  1.4894
  123MOL0     H16925  -0.401  11.175   6.299 -3.4904 -3.9676 -3.5271
  123MOL0     H16926  -0.480  11.109   6.072  0.1623 -1.5744 -2.1641
  123MOL0     H16927  -0.516  11.271   6.112 -0.2890  0.8742 -2.2769
  123MOL0     H16928  -0.308  11.355   5.986  1.2889 -0.1510 -0.6775
  123MOL0     H16929  -0.294  11.198   5.912 -1.3297 -1.2133 -0.1453
  123MOL0     H16930  -0.419  11.313   5.759  0.4531  1.3132  0.3714
  123MOL0     H16931  -0.522  11.196   5.848 -1.9976  1.3622 -2.7715
  123MOL0     H16932  -0.769  11.266   5.918 -0.1333  0.4485  0.6546
  123MOL0     H16933  -1.096  11.318   5.815 -1.2607 -0.1734 -1.5324
  123MOL0     H16934  -0.995  11.188   5.862  0.2112 -0.5586 -0.9609
  123MOL0     H16935  -1.035  11.198   5.691 -0.1608  0.9546 -0.7041
  123MOL0     H16936  -1.226  11.364   5.382  1.9340 -4.2827 -0.8854
  123MOL0     H16937  -1.352  11.401   5.171  1.7589 -3.3980 -2.1194
  123MOL0     H16938  -1.247  11.704   4.863 -2.5446  4.1223  0.7517
  123MOL0     H16939  -1.386  11.626   4.817 -1.0944  0.1472  0.2724
  123MOL0     H16940  -1.494  11.637   5.048 -0.4514 -0.4508  0.5139
  123MOL0     H16941  -1.378  11.752   5.099 -0.5958  1.9007 -0.1236
  123MOL0     H16942  -1.590  11.862   5.029  0.4535  0.7212  0.5750
  123MOL0     H16943  -1.601  11.772   4.881 -0.5837 -1.4915  2.3147
  123MOL0     H16944  -1.545  11.992   4.828 -2.4278 -2.1296 -0.5464
  123MOL0     H16945  -1.403  11.898   4.800 -0.7502  2.6497 -1.5401
  123MOL0     H16946  -1.426  12.041   5.063 -0.1264 -0.7599  0.0604
  123MOL0     H16947  -1.288  11.961   5.001 -0.2592 -0.3205  0.6373
  123MOL0     H16948  -1.245  12.192   4.947 -0.6958  1.1164 -0.2644
  123MOL0     H16949  -1.410  12.234   4.915 -0.5844 -0.6143 -0.5938
  123MOL0     H16950  -1.391  12.111   4.693  0.2847  2.0151 -2.8104
  123MOL0     H16951  -1.217  12.085   4.727  0.3242 -0.8821 -1.3663
  123MOL0     H16952  -1.183  12.334   4.750  0.2583 -0.2279 -0.7096
  123MOL0     H16953  -1.346  12.361   4.708  1.1760  2.2046 -0.3509
  123MOL0     H16954  -1.034  11.630   5.005 -0.6254  1.2824  0.3929
  123MOL0     H16955  -0.906  11.604   5.208  0.2390 -1.8247 -1.5028
  123MOL0     H16956  -0.748  11.531   5.506 -0.9338 -0.8739 -1.8409
  123MOL0     H16957  -0.569  11.528   5.658 -0.6802  1.6360  2.9438
  123MOL0     H16958   1.172  11.084   6.047  1.0352 -0.2523  0.2732
  123MOL0     H16959   1.385  11.036   5.997 -0.9725 -0.7771 -0.3425
  123MOL0     H16960   1.748  10.874   5.942  0.9681  2.4500  0.2078
  123MOL0     H16961   1.977  10.839   5.873 -4.9604  0.4271 -0.5868
  123MOL0     H16962   2.260  10.611   5.846  1.9667  1.4663 -0.9872
  123MOL0     H16963   2.111  10.689   5.812  1.3880 -0.8894 -0.5780
  123MOL0     H16964   2.215  10.904   5.852 -1.9849 -2.1491  0.7911
  123MOL0     H16965   2.312  10.831   5.724 -0.1657  2.1636 -0.0695
  123MOL0     H16966   2.408  10.795   6.022  0.9890 -0.9150 -0.7095
  123MOL0     H16967   2.501  10.785   5.870 -0.7073 -1.0070 -1.1350
  123MOL0     H16968   2.554  10.981   5.993 -1.3585 -4.2657  0.9027
  123MOL0     H16969   2.391  11.051   5.965 -2.4450 -2.3607  0.7367
  123MOL0     H16970   2.553  11.040   5.570  0.3760 -1.1701 -1.0158
  123MOL0     H16971   2.076  10.665   6.246 -1.9038 -0.2126  2.1048
  123MOL0     H16972   1.927  10.631   6.416  1.7647  0.6671  0.4244
  123MOL0     H16973   1.848  10.789   6.441 -0.4661 -1.1783  0.1282
  123MOL0     H16974   1.754  10.654   6.385 -0.6295  1.1943 -0.7659
  124MOL0     O16975  10.719   5.321   7.428 -1.0840  0.4080 -0.8438
  124MOL0     C16976  10.691   5.437   7.438  0.8829 -0.4496 -0.5192
  124MOL0     O16977  10.570   5.484   7.412 -0.3510  0.4394  0.7465
  124MOL0     C16978  10.466   5.401   7.446 -0.1063 -0.5894 -0.2634
  124MOL0     C16979  10.415   5.392   7.574 -0.2264 -0.4310 -0.6238
  124MOL0     C16980  10.314   5.293   7.599 -0.4348  0.6292 -0.8332
  124MOL0     C16981  10.256   5.213   7.501 -1.0457 -0.2235  0.5043
  124MOL0     O16982  10.154   5.123   7.529 -0.3909  0.0240  0.2745
  124MOL0     C16983  10.200   4.992   7.515 -0.3381  0.4870 -1.0312
  124MOL0     C16984  10.189   4.927   7.382  0.4996  0.5996 -0.6596
  124MOL0     C16985  10.044   4.949   7.332  0.2647 -0.0578  0.6074
  124MOL0     C16986  10.032   4.915   7.177 -0.6586  0.1127 -0.3335
  124MOL0     C16987   9.880   4.910   7.120 -0.2466 -1.1713 -0.2945
  124MOL0     C16988   9.844   5.040   7.048 -0.1396  0.6899 -0.0775
  124MOL0     C16989   9.703   5.067   6.989 -1.3469  0.1070 -0.0417
  124MOL0     C16990   9.623   5.136   7.090 -0.7177 -0.2203 -0.4154
  124MOL0     N16991   9.487   5.129   7.046 -0.0655  0.2578  0.5841
  124MOL0     C16992   9.400   5.032   7.075 -0.3515 -0.3086  0.4055
  124MOL0     C16993   9.279   5.076   7.037  0.4249  0.1818  0.6285
  124MOL0     C16994   9.151   5.001   7.027 -0.3522  0.2952 -0.5300
  124MOL0     C16995   9.027   5.091   7.019 -0.3630  0.3416 -0.3826
  124MOL0     C16996   8.912   5.024   6.943 -0.2179 -0.0774  0.8960
  124MOL0     C16997   8.776   5.094   6.954 -0.0755 -0.6101  0.0266
  124MOL0     O16998   8.736   5.113   7.089  0.5769  0.3981 -0.6578
  124MOL0     C16999   8.608   5.155   7.114 -0.6596 -0.8906 -0.0952
  124MOL0     C17000   8.494   5.125   7.037 -0.4537  0.5204  0.3983
  124MOL0     C17001   8.361   5.156   7.084  0.1673 -0.0639  0.1064
  124MOL0     C17002   8.238   5.129   6.999  0.0932 -1.3675 -0.1590
  124MOL0     C17003   8.359   5.230   7.208  1.1719  0.0832  0.1676
  124MOL0     C17004   8.240   5.275   7.273  0.3134  0.9551 -0.6745
  124MOL0     O17005   8.129   5.206   7.257  0.7963  0.4902  0.0420
  124MOL0     C17006   8.008   5.248   7.316  0.3258  0.2161 -0.2843
  124MOL0     C17007   8.000   5.215   7.449 -0.3773  0.7707 -0.0293
  124MOL0     C17008   7.886   5.236   7.522  0.6151  0.0482 -0.4572
  124MOL0     C17009   7.772   5.296   7.459 -0.4555  0.1210  0.2673
  124MOL0     O17010   7.661   5.306   7.541  1.2186 -0.7979  0.4850
  124MOL0     C17011   7.568   5.403   7.493 -0.6994 -0.4371 -1.1263
  124MOL0     C17012   7.461   5.424   7.607 -0.0408  0.6898  0.3333
  124MOL0     C17013   7.419   5.296   7.696  0.6391  0.1148  0.4839
  124MOL0     C17014   7.372   5.330   7.831  0.0432 -0.2042  0.4039
  124MOL0     C17015   7.367   5.204   7.920  0.2185  0.1314 -0.1189
  124MOL0     C17016   7.304   5.242   8.057  0.7342 -0.3505  0.5431
  124MOL0     C17017   7.263   5.114   8.136  0.5097  0.1951 -0.5449
  124MOL0     C17018   7.373   5.011   8.161 -0.5773 -0.7521 -0.4358
  124MOL0    Cl17019   7.298   4.860   8.210 -0.6374  0.1699 -0.4843
  124MOL0     C17020   7.776   5.324   7.325  0.1933  0.1499  0.8395
  124MOL0     C17021   7.890   5.294   7.256  0.3953  0.3885 -1.1940
  124MOL0     O17022   8.244   5.375   7.343 -0.0621  0.2751  0.6542
  124MOL0     C17023   8.478   5.256   7.279 -0.2018  0.2867 -0.2112
  124MOL0     C17024   8.600   5.214   7.234 -0.3582 -0.0666 -0.9978
  124MOL0     N17025   9.296   5.212   6.985 -1.0085 -0.0937  0.5540
  124MOL0     N17026   9.424   5.231   6.984  0.0874 -0.3090 -0.3756
  124MOL0     C17027  10.307   5.225   7.373 -0.5502 -0.5418  0.1686
  124MOL0     C17028  10.413   5.318   7.349 -0.5945  0.5371  0.6997
  124MOL0     C17029  10.793   5.533   7.479 -0.5246 -0.2411  0.1284
  124MOL0     C17030  10.786   5.572   7.618  0.6734  0.2146  0.3341
  124MOL0     C17031  10.874   5.666   7.663  0.1562  0.6320  0.2912
  124MOL0     C17032  10.977   5.716   7.577 -0.0329 -0.3677  0.7881
  124MOL0     O17033  11.076   5.804   7.615 -0.7397 -0.4069  0.4137
  124MOL0     C17034  11.099   5.841   7.744  0.3516 -0.4450  0.1539
  124MOL0     C17035  11.224   5.924   7.760 -0.0608 -0.5499  0.0005
  124MOL0     C17036  11.266   5.929   7.905  0.0472 -0.2142 -0.6765
  124MOL0     C17037  11.377   6.027   7.934  0.1187  0.0314  0.3449
  124MOL0     C17038  11.359   6.155   7.871  0.4521 -0.6850 -0.4693
  124MOL0     C17039  11.321   6.262   7.819 -0.3222 -0.2832  0.5750
  124MOL0     C17040  10.987   5.665   7.444  0.5130 -0.3249  0.1453
  124MOL0     C17041  10.888   5.581   7.390 -0.1376 -0.6307 -0.6794
  124MOL0     C17042  10.880   5.558   7.244  0.2628 -0.0149 -0.4541
  124MOL0     H17043  10.454   5.448   7.658  1.1027  1.0359 -2.1539
  124MOL0     H17044  10.259   5.270   7.690  0.3759  0.4699 -0.3752
  124MOL0     H17045  10.135   4.934   7.581 -2.7809  1.1360 -2.7426
  124MOL0     H17046  10.300   4.978   7.557 -0.9779 -0.5611  0.1975
  124MOL0     H17047  10.264   4.969   7.314 -0.1118 -0.3438 -1.9720
  124MOL0     H17048  10.209   4.820   7.394  0.5333  0.5408 -1.2028
  124MOL0     H17049   9.963   4.893   7.378 -2.9336  4.2684  0.8461
  124MOL0     H17050  10.021   5.055   7.347 -0.3590 -0.2990  1.3669
  124MOL0     H17051  10.089   4.999   7.136  3.1742 -2.3304 -0.4842
  124MOL0     H17052  10.098   4.830   7.160  0.5234  0.4834  1.9768
  124MOL0     H17053   9.804   4.901   7.198 -1.5038  1.4955 -1.0886
  124MOL0     H17054   9.869   4.821   7.058  0.2137 -1.1473 -0.4187
  124MOL0     H17055   9.892   5.120   7.105  1.4308  0.3680 -0.8950
  124MOL0     H17056   9.902   5.037   6.956 -1.3726 -2.1203 -0.8682
  124MOL0     H17057   9.668   4.970   6.953 -1.2890 -1.1340  2.9543
  124MOL0     H17058   9.713   5.139   6.907  1.2955 -0.3083 -0.1685
  124MOL0     H17059   9.635   5.086   7.186 -2.2684 -1.3008 -0.7425
  124MOL0     H17060   9.660   5.238   7.103  0.4492 -0.8944  2.3091
  124MOL0     H17061   9.410   4.929   7.106 -2.8410 -1.1039 -1.1389
  124MOL0     H17062   9.142   4.940   7.118 -0.3649  3.1357  1.5256
  124MOL0     H17063   9.162   4.941   6.936  3.2200  3.7388 -2.6742
  124MOL0     H17064   8.999   5.129   7.118 -1.6199 -0.0278 -0.5785
  124MOL0     H17065   9.057   5.182   6.966  4.4120 -0.4619  0.4514
  124MOL0     H17066   8.940   5.031   6.837  1.0921  1.0208  1.2874
  124MOL0     H17067   8.902   4.916   6.960  0.8957  0.1704  3.4595
  124MOL0     H17068   8.774   5.190   6.901  0.9145  0.6311  2.0869
  124MOL0     H17069   8.702   5.026   6.912  0.3775 -1.9089  1.2686
  124MOL0     H17070   8.495   5.094   6.932  0.6631  3.5730 -0.5946
  124MOL0     H17071   8.262   5.054   6.923  1.6691  0.7085 -1.8662
  124MOL0     H17072   8.194   5.216   6.949 -0.8116 -2.3353 -1.0804
  124MOL0     H17073   8.161   5.082   7.061 -0.5175 -1.0636 -0.6734
  124MOL0     H17074   8.089   5.167   7.487 -2.9627 -4.2310  0.5661
  124MOL0     H17075   7.897   5.210   7.626  2.1980 -0.1581 -0.6377
  124MOL0     H17076   7.609   5.488   7.438 -2.2596 -0.0360 -1.7301
  124MOL0     H17077   7.523   5.348   7.410  1.5015 -1.5239 -1.6848
  124MOL0     H17078   7.508   5.504   7.665  1.3814  0.7022 -0.7661
  124MOL0     H17079   7.367   5.456   7.561 -0.2575  2.9892  2.1651
  124MOL0     H17080   7.509   5.235   7.711  1.3946  1.5257  2.0794
  124MOL0     H17081   7.348   5.236   7.638  0.4543  2.9556 -2.5357
  124MOL0     H17082   7.275   5.381   7.828  0.0308 -0.2640 -0.2428
  124MOL0     H17083   7.435   5.411   7.869 -1.6607  2.3930 -1.8827
  124MOL0     H17084   7.299   5.139   7.864 -0.6935  1.1208 -0.1986
  124MOL0     H17085   7.460   5.147   7.931  0.1463  0.0551  0.0903
  124MOL0     H17086   7.214   5.305   8.051  1.3085  0.5639  1.1732
  124MOL0     H17087   7.364   5.309   8.119 -1.5462 -0.1187  2.6620
  124MOL0     H17088   7.176   5.067   8.089 -0.5882  1.3574  0.2770
  124MOL0     H17089   7.233   5.151   8.234  0.3665  0.5423 -0.7194
  124MOL0     H17090   7.446   5.048   8.234 -1.5738  0.7216 -0.1447
  124MOL0     H17091   7.432   4.986   8.072 -2.7251  0.3862 -2.3129
  124MOL0     H17092   7.693   5.361   7.266  0.4330 -0.5718  0.0114
  124MOL0     H17093   7.902   5.320   7.151  2.0014  0.8316 -0.9244
  124MOL0     H17094   8.476   5.323   7.365 -0.4382 -1.4556  1.2178
  124MOL0     H17095   8.690   5.232   7.291 -0.5017  2.0451 -1.3866
  124MOL0     H17096  10.258   5.177   7.289 -1.7590 -1.4844  1.3723
  124MOL0     H17097  10.452   5.340   7.251  0.2399 -3.8186 -0.1391
  124MOL0     H17098  10.708   5.535   7.683 -1.0024 -1.4703 -2.4400
  124MOL0     H17099  10.852   5.696   7.765 -1.4580 -4.0503  1.5429
  124MOL0     H17100  11.018   5.909   7.774  0.2831 -0.0929 -0.8169
  124MOL0     H17101  11.105   5.752   7.808 -0.7403 -1.0213 -0.5173
  124MOL0     H17102  11.198   6.023   7.723  1.8066 -0.0428 -0.0662
  124MOL0     H17103  11.309   5.893   7.697  0.9871  1.3546  0.4118
  124MOL0     H17104  11.179   5.956   7.966  1.6158 -0.4117  1.8096
  124MOL0     H17105  11.295   5.826   7.928 -0.3039 -0.2758 -0.4937
  124MOL0     H17106  11.476   5.988   7.909  1.3934  2.8189  0.7475
  124MOL0     H17107  11.380   6.036   8.043 -0.7446  0.0752  0.3752
  124MOL0     H17108  11.296   6.345   7.756  2.6194 -0.5661 -1.1882
  124MOL0     H17109  11.077   5.691   7.388  1.1546 -0.3879  1.1220
  124MOL0     H17110  10.866   5.453   7.216  1.6243  0.4518 -3.1777
  124MOL0     H17111  10.787   5.584   7.192  0.7932  1.2458 -0.8163
  124MOL0     H17112  10.967   5.605   7.197  0.6110 -1.0893 -0.9023
  125MOL0     O17113   7.763   8.103   9.506 -0.2896 -0.0881  0.0962
  125MOL0     C17114   7.775   8.060   9.392  0.3267  0.2850 -0.1400
  125MOL0     O17115   7.891   8.004   9.349  0.5609 -0.0209  0.1676
  125MOL0     C17116   8.016   8.041   9.396 -0.5236  0.0141 -0.5227
  125MOL0     C17117   8.045   8.170   9.448  0.2602  0.2573  0.2951
  125MOL0     C17118   8.170   8.202   9.490 -0.5261  0.2213 -0.3797
  125MOL0     C17119   8.272   8.101   9.493  1.1772 -0.8736  0.7376
  125MOL0     O17120   8.392   8.142   9.557 -0.7530  0.1134 -0.9158
  125MOL0     C17121   8.506   8.054   9.553  0.3430  0.2758  0.1257
  125MOL0     C17122   8.569   8.052   9.416  0.3325  0.5157  0.2861
  125MOL0     C17123   8.645   7.914   9.387 -1.6082  0.2750 -0.5658
  125MOL0     C17124   8.727   7.856   9.508 -0.2533 -0.3026  0.0837
  125MOL0     C17125   8.786   7.715   9.481  0.3769 -0.1409  0.3286
  125MOL0     C17126   8.842   7.683   9.344  0.1037 -0.3401  0.4370
  125MOL0     C17127   8.887   7.537   9.337  0.1891 -0.4348 -0.2294
  125MOL0     C17128   8.939   7.499   9.205 -0.3848  0.7257 -1.5562
  125MOL0     N17129   8.963   7.350   9.180  0.8765  0.3649  0.2668
  125MOL0     C17130   8.877   7.254   9.146 -0.2785  0.5025  0.7505
  125MOL0     C17131   8.959   7.145   9.137 -0.0220 -0.1131  0.4648
  125MOL0     C17132   8.917   7.008   9.086 -0.2849  0.2949 -0.2956
  125MOL0     C17133   8.872   6.998   8.940  0.4299 -0.1122  0.9900
  125MOL0     C17134   8.993   6.993   8.841 -0.2033  0.8620  0.0962
  125MOL0     C17135   9.072   6.858   8.857  0.6252 -0.1313 -0.6757
  125MOL0     O17136   9.168   6.827   8.755  0.8186  0.2264  1.0091
  125MOL0     C17137   9.226   6.701   8.766 -0.3134  0.0534  0.2478
  125MOL0     C17138   9.306   6.653   8.658  0.2032 -0.1590 -0.5497
  125MOL0     C17139   9.371   6.535   8.670 -0.3032 -0.2594  0.1727
  125MOL0     C17140   9.467   6.506   8.555  0.1356  0.3441 -0.0896
  125MOL0     C17141   9.365   6.456   8.789 -0.9901  0.9364  0.0772
  125MOL0     C17142   9.456   6.337   8.809 -0.0052 -0.6452  0.0989
  125MOL0     O17143   9.440   6.273   8.924  0.3502  0.6904 -0.4720
  125MOL0     C17144   9.548   6.220   8.981  0.3232  0.1071 -0.1919
  125MOL0     C17145   9.553   6.081   9.019  0.0611 -0.2800 -0.6758
  125MOL0     C17146   9.669   6.017   9.068 -1.1615 -0.6656 -0.1193
  125MOL0     C17147   9.789   6.093   9.077 -0.5727  0.7546  0.6474
  125MOL0     O17148   9.898   6.036   9.141  0.1385  0.6367 -0.0497
  125MOL0     C17149  10.016   6.008   9.058 -0.0004 -0.3996  0.3276
  125MOL0     C17150  10.099   5.889   9.117  0.1613  0.2134 -0.7678
  125MOL0     C17151  10.006   5.761   9.139 -0.6880 -0.3512 -0.3586
  125MOL0     C17152  10.097   5.654   9.203 -0.9658 -1.1435 -0.0636
  125MOL0     C17153  10.035   5.519   9.186 -0.7591  0.0191  0.2345
  125MOL0     C17154  10.139   5.405   9.222 -0.0296  0.4838 -0.4722
  125MOL0     C17155  10.068   5.272   9.253  0.9507  0.2344 -0.6090
  125MOL0     C17156  10.170   5.160   9.269 -0.4253  0.9884  0.1413
  125MOL0    Cl17157  10.097   5.002   9.220 -0.4420  0.3893  0.2871
  125MOL0     C17158   9.789   6.237   9.050  0.1399  0.9327 -0.0772
  125MOL0     C17159   9.670   6.296   9.000  0.4489 -0.6473  0.2331
  125MOL0     O17160   9.554   6.321   8.735  0.6255 -0.5636 -0.5291
  125MOL0     C17161   9.277   6.493   8.886 -0.1712 -0.5056 -0.9190
  125MOL0     C17162   9.209   6.605   8.879 -0.4200 -0.8796 -0.1821
  125MOL0     N17163   9.084   7.176   9.163 -0.3320  0.3056 -0.1270
  125MOL0     N17164   9.084   7.298   9.195 -0.1732 -0.4413  0.2908
  125MOL0     C17165   8.246   7.976   9.447 -0.3311 -0.1578 -0.2734
  125MOL0     C17166   8.123   7.947   9.387 -0.5427  0.1358 -0.2423
  125MOL0     C17167   7.658   8.055   9.302  0.1425 -0.1420  0.5515
  125MOL0     C17168   7.631   7.937   9.233  0.1276 -0.7048 -0.0672
  125MOL0     C17169   7.518   7.935   9.148  0.4643  0.2270  0.5097
  125MOL0     C17170   7.428   8.039   9.135 -0.1707 -0.1984 -0.3900
  125MOL0     O17171   7.312   8.035   9.064  0.5793 -0.1294  0.3355
  125MOL0     C17172   7.273   7.926   8.975 -0.1136 -0.1628 -0.3660
  125MOL0     C17173   7.142   7.952   8.893 -1.1615  0.2913 -0.7534
  125MOL0     C17174   7.089   7.828   8.824 -0.7515  0.4791 -0.3075
  125MOL0     C17175   6.946   7.861   8.758  0.3540 -0.1718 -0.2327
  125MOL0     C17176   6.910   7.745   8.669  0.3348 -0.0064 -0.1430
  125MOL0     C17177   6.872   7.640   8.620  0.0266  0.1761  0.1066
  125MOL0     C17178   7.455   8.153   9.209 -0.1622  0.5275  0.1403
  125MOL0     C17179   7.576   8.163   9.287  0.0644 -0.3300  1.0168
  125MOL0     C17180   7.603   8.297   9.342  0.4330  0.1093  0.0343
  125MOL0     H17181   7.968   8.246   9.461 -1.7815 -1.5220 -0.6766
  125MOL0     H17182   8.204   8.293   9.538  0.5146 -1.2072  1.7362
  125MOL0     H17183   8.492   7.950   9.586 -0.5106  0.5000  0.4885
  125MOL0     H17184   8.566   8.093   9.636  0.6980  1.8833 -0.8617
  125MOL0     H17185   8.495   8.064   9.337  0.4507 -3.3000 -0.6290
  125MOL0     H17186   8.644   8.131   9.406  0.6036  0.1273 -0.8853
  125MOL0     H17187   8.564   7.845   9.361 -1.9545  0.3895  0.1863
  125MOL0     H17188   8.713   7.937   9.305 -0.4767  2.5165  0.8785
  125MOL0     H17189   8.806   7.930   9.528 -2.2278  1.7896  0.6471
  125MOL0     H17190   8.675   7.860   9.604  2.7412 -0.3379  1.8377
  125MOL0     H17191   8.705   7.643   9.492 -1.8703  2.0499 -0.8582
  125MOL0     H17192   8.871   7.701   9.548 -0.2030  1.5708  1.5084
  125MOL0     H17193   8.767   7.694   9.266 -0.5344 -0.4498  1.0194
  125MOL0     H17194   8.923   7.751   9.317  2.0870 -3.1336 -1.0748
  125MOL0     H17195   8.803   7.473   9.364 -3.0035  2.4603 -2.4832
  125MOL0     H17196   8.964   7.532   9.415 -0.4274  0.7019  0.4885
  125MOL0     H17197   8.867   7.534   9.131  2.7519 -0.6018 -5.6384
  125MOL0     H17198   9.032   7.552   9.182  2.1597 -3.0293 -0.9981
  125MOL0     H17199   8.769   7.253   9.137 -0.4308 -1.8619  2.2146
  125MOL0     H17200   8.837   6.975   9.153  2.0406 -0.7429  2.1496
  125MOL0     H17201   8.996   6.934   9.100 -0.6458 -0.3271 -1.4770
  125MOL0     H17202   8.811   6.907   8.934 -0.6238  0.5792  1.0923
  125MOL0     H17203   8.811   7.087   8.926  0.6941  0.4796  3.2220
  125MOL0     H17204   8.969   6.997   8.734  1.2213 -5.4915 -0.8381
  125MOL0     H17205   9.054   7.081   8.863 -2.3477  2.3426  0.4259
  125MOL0     H17206   9.132   6.868   8.948 -0.1034 -0.4946 -0.1444
  125MOL0     H17207   9.002   6.775   8.867  1.6986 -1.1090 -1.0823
  125MOL0     H17208   9.331   6.721   8.578  2.1468 -0.1994 -0.0480
  125MOL0     H17209   9.466   6.589   8.484  4.2461  0.2834 -0.4854
  125MOL0     H17210   9.436   6.416   8.501 -0.3847  0.7177 -0.4207
  125MOL0     H17211   9.576   6.496   8.569  0.7370  3.7100 -1.3315
  125MOL0     H17212   9.467   6.015   9.008  2.6841 -3.7443 -2.2380
  125MOL0     H17213   9.665   5.911   9.089  1.9769 -0.6582  1.0444
  125MOL0     H17214   9.992   6.000   8.952  5.4952  0.0638 -1.2532
  125MOL0     H17215  10.087   6.089   9.077  2.1754 -1.5554 -2.3202
  125MOL0     H17216  10.187   5.865   9.057  0.4135  1.4992 -0.9409
  125MOL0     H17217  10.133   5.933   9.211  0.0939 -0.7283 -0.2876
  125MOL0     H17218   9.959   5.734   9.044 -0.6789  0.8592 -0.7177
  125MOL0     H17219   9.933   5.790   9.215  0.5801 -0.7968  1.1050
  125MOL0     H17220  10.129   5.665   9.306  0.6357 -1.6037 -0.4914
  125MOL0     H17221  10.186   5.651   9.140  0.6637  0.1457  2.0500
  125MOL0     H17222   9.950   5.532   9.254 -0.9459  1.3166 -0.2198
  125MOL0     H17223   9.999   5.499   9.085 -0.1190 -0.4752  0.0984
  125MOL0     H17224  10.204   5.429   9.307  0.5235 -1.9682 -0.1326
  125MOL0     H17225  10.208   5.393   9.138  1.2484 -2.0736  0.8224
  125MOL0     H17226   9.994   5.253   9.175 -2.0339  0.2857  2.0059
  125MOL0     H17227  10.004   5.274   9.342  0.5761  0.5607 -0.8844
  125MOL0     H17228  10.211   5.150   9.370  3.1266 -0.9237 -1.3235
  125MOL0     H17229  10.260   5.177   9.209 -0.8294  0.5598 -0.5997
  125MOL0     H17230   9.881   6.292   9.069  0.0938  2.1384 -2.8383
  125MOL0     H17231   9.674   6.400   8.971  0.3569 -0.6253  0.3006
  125MOL0     H17232   9.266   6.438   8.979 -1.0991 -0.3656 -0.9372
  125MOL0     H17233   9.159   6.635   8.971  1.4753 -0.5686  0.7888
  125MOL0     H17234   8.314   7.893   9.460 -3.0477 -2.2984  1.4843
  125MOL0     H17235   8.100   7.850   9.346 -0.6735  0.0394  0.0575
  125MOL0     H17236   7.686   7.844   9.232 -2.3985 -2.5159  3.8964
  125MOL0     H17237   7.488   7.848   9.092 -0.8550  1.0163 -0.0619
  125MOL0     H17238   7.350   7.905   8.900 -0.3700 -1.7293 -0.2260
  125MOL0     H17239   7.262   7.839   9.039  0.0152  1.5060  2.0352
  125MOL0     H17240   7.159   8.035   8.824  0.2737  0.3328 -0.3847
  125MOL0     H17241   7.070   7.992   8.965  0.0644  3.1190 -0.9778
  125MOL0     H17242   7.152   7.800   8.740  3.7727 -0.4007  2.9836
  125MOL0     H17243   7.083   7.744   8.894  3.0693 -1.5907 -2.1501
  125MOL0     H17244   6.961   7.949   8.695 -1.6587 -0.1295 -0.7046
  125MOL0     H17245   6.867   7.879   8.831  1.3196  2.3637  0.3006
  125MOL0     H17246   6.845   7.546   8.577  1.2147  0.3017 -0.9548
  125MOL0     H17247   7.381   8.231   9.200  0.7953  1.6799  1.6818
  125MOL0     H17248   7.567   8.298   9.445  3.6466  2.9208  1.3298
  125MOL0     H17249   7.712   8.310   9.336  0.3240  0.5419 -1.6242
  125MOL0     H17250   7.553   8.372   9.280  1.6026 -0.4419 -1.6594
  126MOL0     O17251   1.744   9.361   9.650  0.2814  0.1327  0.0180
  126MOL0     C17252   1.709   9.432   9.546 -0.3725 -0.6360 -0.4089
  126MOL0     O17253   1.613   9.527   9.546  0.0337  0.3186  0.8748
  126MOL0     C17254   1.493   9.500   9.601 -1.4079  0.0811  0.1337
  126MOL0     C17255   1.383   9.520   9.523  0.1772 -0.4982 -0.5980
  126MOL0     C17256   1.260   9.475   9.568  0.2084  0.2451 -0.0710
  126MOL0     C17257   1.243   9.410   9.694  0.2759  0.2095  0.6681
  126MOL0     O17258   1.112   9.378   9.725 -0.5969  0.5075  0.1046
  126MOL0     C17259   1.092   9.274   9.830  1.3087 -0.0038  0.4030
  126MOL0     C17260   0.940   9.244   9.844 -0.5017 -0.2404  0.3293
  126MOL0     C17261   0.904   9.185   9.978  0.1290 -0.5119  0.0342
  126MOL0     C17262   0.762   9.125   9.985 -0.1209  0.1933 -0.0961
  126MOL0     C17263   0.730   9.043  10.110  0.2699  0.7083  0.5761
  126MOL0     C17264   0.627   8.939  10.103 -0.2675  0.5820 -0.4457
  126MOL0     C17265   0.665   8.821  10.007 -0.7665  0.0673 -0.1021
  126MOL0     C17266   0.576   8.700  10.042  1.0909 -0.0617  0.4106
  126MOL0     N17267   0.595   8.575   9.960  0.3245  0.3936  0.2206
  126MOL0     C17268   0.693   8.483   9.969 -0.2635  0.3572 -0.2116
  126MOL0     C17269   0.682   8.402   9.866  0.5520  0.7449  0.2001
  126MOL0     C17270   0.782   8.292   9.822 -0.0671 -0.5790 -0.5850
  126MOL0     C17271   0.917   8.347   9.774  0.4588 -0.7479 -0.2208
  126MOL0     C17272   0.900   8.441   9.654  0.8288 -0.4505  0.3884
  126MOL0     C17273   1.019   8.423   9.563  0.0195 -0.2215  0.6382
  126MOL0     O17274   1.009   8.515   9.448  1.3148  0.8174  0.1556
  126MOL0     C17275   1.116   8.530   9.359  0.7797 -0.5441  0.6129
  126MOL0     C17276   1.099   8.630   9.259 -0.1645 -0.2122  0.3994
  126MOL0     C17277   1.196   8.677   9.175  0.1746 -0.2314 -0.0576
  126MOL0     C17278   1.156   8.787   9.079 -0.0767 -0.2115 -0.0718
  126MOL0     C17279   1.328   8.616   9.182  0.0046 -0.4620 -0.5973
  126MOL0     C17280   1.444   8.664   9.103 -0.5929  0.1847  0.4389
  126MOL0     O17281   1.530   8.564   9.067  0.5912 -0.1875  0.5976
  126MOL0     C17282   1.659   8.610   9.022  0.9210 -0.8337  0.3071
  126MOL0     C17283   1.737   8.704   9.096  0.1675 -0.7450  0.6571
  126MOL0     C17284   1.851   8.765   9.041  0.3158  0.4717 -1.0573
  126MOL0     C17285   1.900   8.724   8.911 -0.0018  0.4830 -0.0711
  126MOL0     O17286   2.025   8.759   8.869 -1.1317 -0.6394 -0.4683
  126MOL0     C17287   2.130   8.663   8.889  0.2526 -1.0684  0.3458
  126MOL0     C17288   2.183   8.680   9.023 -0.3717  0.2493  0.0762
  126MOL0     C17289   2.268   8.804   9.033  0.6652  0.2027  0.5357
  126MOL0     C17290   2.312   8.836   9.175  0.5811 -0.0398 -0.1991
  126MOL0     C17291   2.432   8.923   9.176  0.1031  1.2841  0.6095
  126MOL0     C17292   2.555   8.841   9.155  0.0113 -1.0730  0.3692
  126MOL0     C17293   2.665   8.943   9.110 -1.0170  0.3210  0.2405
  126MOL0     C17294   2.801   8.877   9.115  0.3383 -0.5102 -0.0356
  126MOL0    Cl17295   2.849   8.852   9.287 -0.0337 -0.0572 -0.4563
  126MOL0     C17296   1.838   8.615   8.847  0.6251  0.8518  0.8151
  126MOL0     C17297   1.713   8.567   8.900 -0.1806  0.5021  0.2246
  126MOL0     O17298   1.460   8.790   9.097  0.0825  0.3841 -0.2402
  126MOL0     C17299   1.343   8.506   9.284  0.3208  0.6584 -0.4418
  126MOL0     C17300   1.236   8.467   9.367 -0.9111 -0.4947 -0.1909
  126MOL0     N17301   0.558   8.427   9.804 -0.0090  0.1077 -0.8407
  126MOL0     N17302   0.512   8.535   9.854 -0.3407  0.0927  0.1075
  126MOL0     C17303   1.346   9.405   9.775  0.6420  0.0996 -0.6142
  126MOL0     C17304   1.474   9.456   9.735 -0.7231  0.2877 -0.0520
  126MOL0     C17305   1.816   9.456   9.451  1.2050 -0.6894  0.2658
  126MOL0     C17306   1.948   9.457   9.485 -0.3083  0.2933  0.0038
  126MOL0     C17307   2.050   9.441   9.384 -0.0927  0.1822 -0.9211
  126MOL0     C17308   2.016   9.442   9.251  0.7067 -0.5133 -0.4979
  126MOL0     O17309   2.112   9.425   9.149  0.6514 -0.2060 -0.4669
  126MOL0     C17310   2.259   9.444   9.169  0.5106  1.6584  0.0541
  126MOL0     C17311   2.351   9.403   9.056  1.0637  0.3600  0.9070
  126MOL0     C17312   2.377   9.257   9.051  0.2589  0.3419  0.5507
  126MOL0     C17313   2.453   9.223   8.924 -0.0721  0.4783  0.4123
  126MOL0     C17314   2.592   9.268   8.932  0.1906  0.0876 -0.4074
  126MOL0     C17315   2.713   9.293   8.941 -0.5062  0.2341 -0.0595
  126MOL0     C17316   1.889   9.462   9.219  0.1851 -0.4571  0.9193
  126MOL0     C17317   1.782   9.468   9.311 -0.5023 -0.2613 -0.6624
  126MOL0     C17318   1.648   9.462   9.255 -0.5034  0.5092  0.2233
  126MOL0     H17319   1.385   9.572   9.427 -0.3056  0.5120 -0.0735
  126MOL0     H17320   1.175   9.497   9.503 -3.5753  1.7537  4.7652
  126MOL0     H17321   1.119   9.317   9.927 -1.9119  1.5856  0.7257
  126MOL0     H17322   1.138   9.178   9.807  0.3987  0.0678 -2.0124
  126MOL0     H17323   0.890   9.341   9.835 -0.7545 -0.5452 -2.4589
  126MOL0     H17324   0.915   9.179   9.760  1.6160  1.6981 -1.9710
  126MOL0     H17325   0.975   9.112  10.016 -0.2400 -1.0402 -0.2745
  126MOL0     H17326   0.892   9.269  10.047 -2.2194 -1.2948  0.6636
  126MOL0     H17327   0.690   9.207   9.988  0.2257  0.5076 -0.2383
  126MOL0     H17328   0.756   9.071   9.891 -1.4863  1.9353 -1.0633
  126MOL0     H17329   0.695   9.113  10.187 -2.8039  2.9183 -2.5336
  126MOL0     H17330   0.824   8.996  10.139 -0.2361  0.5539  2.0566
  126MOL0     H17331   0.630   8.900  10.205 -3.3682  1.4564  0.0604
  126MOL0     H17332   0.526   8.976  10.089 -0.7553 -0.2276  0.7766
  126MOL0     H17333   0.767   8.799  10.038 -0.0404 -2.2791 -3.5528
  126MOL0     H17334   0.667   8.856   9.903  0.8840  3.9834  1.0918
  126MOL0     H17335   0.603   8.669  10.143  0.4907 -1.5870  0.1163
  126MOL0     H17336   0.470   8.724  10.050  1.1581 -0.3722  3.0370
  126MOL0     H17337   0.780   8.485  10.034  0.5496 -0.0014 -1.2775
  126MOL0     H17338   0.735   8.226   9.748  0.3917 -1.0986 -0.4158
  126MOL0     H17339   0.800   8.233   9.911 -0.8730 -0.5153 -0.3695
  126MOL0     H17340   0.951   8.407   9.859 -3.4319 -1.4829  2.0931
  126MOL0     H17341   0.980   8.259   9.755 -1.0045 -1.5539 -1.5523
  126MOL0     H17342   0.807   8.436   9.596  0.8171  2.4753  0.0140
  126MOL0     H17343   0.894   8.540   9.700 -2.3405 -1.4067  2.3444
  126MOL0     H17344   1.105   8.447   9.627 -1.2167  0.2264  2.1686
  126MOL0     H17345   1.031   8.318   9.533  0.9887 -0.7200  2.5965
  126MOL0     H17346   1.009   8.690   9.253 -0.4381 -0.3464  2.3920
  126MOL0     H17347   1.179   8.744   8.981  2.6119 -5.1457  2.3125
  126MOL0     H17348   1.212   8.879   9.095 -0.7708  1.0065 -3.7012
  126MOL0     H17349   1.053   8.823   9.080  0.5855  2.1351 -3.0456
  126MOL0     H17350   1.689   8.738   9.187 -4.3219  2.1479 -2.4268
  126MOL0     H17351   1.903   8.839   9.102  1.0121 -0.1180 -0.9278
  126MOL0     H17352   2.099   8.559   8.874 -2.3159 -0.1587 -1.2944
  126MOL0     H17353   2.205   8.685   8.813 -0.2922 -0.4610 -0.0235
  126MOL0     H17354   2.101   8.666   9.094  0.6612  2.2802  1.7737
  126MOL0     H17355   2.256   8.599   9.035 -2.6803 -1.7250  1.7643
  126MOL0     H17356   2.217   8.894   8.996 -0.6349 -0.9112 -0.4828
  126MOL0     H17357   2.348   8.789   8.959 -0.9160 -0.2931 -1.1532
  126MOL0     H17358   2.323   8.752   9.245  1.8823  0.6716  0.4823
  126MOL0     H17359   2.228   8.887   9.223  1.3968 -1.5421  3.1523
  126MOL0     H17360   2.424   8.996   9.095 -0.5875 -1.8983 -2.3958
  126MOL0     H17361   2.436   8.976   9.272 -1.2922  0.1661  1.3102
  126MOL0     H17362   2.528   8.770   9.076  4.3611 -3.2968  0.5732
  126MOL0     H17363   2.598   8.780   9.235 -1.7447 -0.5147  1.7795
  126MOL0     H17364   2.666   9.026   9.181  1.7342 -0.4917  1.2774
  126MOL0     H17365   2.634   8.976   9.010 -3.8074 -2.9395 -0.1856
  126MOL0     H17366   2.875   8.944   9.072 -2.0667  2.2755 -0.1192
  126MOL0     H17367   2.802   8.783   9.059  0.8673 -0.4641 -0.1069
  126MOL0     H17368   1.879   8.585   8.751 -1.0165  2.9878 -0.6550
  126MOL0     H17369   1.656   8.496   8.840  2.4964 -0.2067 -1.6665
  126MOL0     H17370   1.436   8.454   9.305 -1.5865 -3.4285 -1.1409
  126MOL0     H17371   1.249   8.390   9.442  1.5192  0.0966  0.1043
  126MOL0     H17372   1.340   9.371   9.878  1.1530 -0.6323 -0.8161
  126MOL0     H17373   1.553   9.454   9.809 -2.7486  0.1449  2.2216
  126MOL0     H17374   1.971   9.444   9.590  1.1977 -0.2046 -0.3635
  126MOL0     H17375   2.149   9.410   9.416 -0.0046 -1.4808 -2.6662
  126MOL0     H17376   2.289   9.545   9.199  2.2684  0.8076  1.3606
  126MOL0     H17377   2.289   9.383   9.254  0.1673  0.5510 -0.6012
  126MOL0     H17378   2.444   9.461   9.052  0.7726  0.8189 -2.1303
  126MOL0     H17379   2.300   9.437   8.965 -0.8480 -4.7916 -0.2416
  126MOL0     H17380   2.430   9.222   9.140  0.8798 -1.0425 -0.3323
  126MOL0     H17381   2.278   9.209   9.054  1.0174 -1.2477  2.8676
  126MOL0     H17382   2.407   9.269   8.835 -2.5425 -0.6113  1.0221
  126MOL0     H17383   2.457   9.116   8.901  2.3234  0.8248 -1.2151
  126MOL0     H17384   2.816   9.321   8.949 -0.8168  1.4545 -0.1324
  126MOL0     H17385   1.864   9.472   9.113  0.9428 -0.5864  0.7255
  126MOL0     H17386   1.580   9.385   9.293 -4.7657  2.5923 -2.3004
  126MOL0     H17387   1.601   9.558   9.280 -2.5880 -1.3975  4.8929
  126MOL0     H17388   1.643   9.442   9.147  1.7671 -3.6221  0.7209
  127MOL0     O17389   1.315   6.063   9.908 -0.0085  0.0840  0.0402
  127MOL0     C17390   1.227   5.989   9.955  0.4128 -0.0166 -0.5688
  127MOL0     O17391   1.253   5.906  10.061  0.1986 -0.5096 -0.2070
  127MOL0     C17392   1.372   5.923  10.127  0.2813  0.3313 -0.1802
  127MOL0     C17393   1.503   5.914  10.067  0.7033  0.2591  0.4462
  127MOL0     C17394   1.615   5.930  10.148 -0.4125 -0.5139  0.8815
  127MOL0     C17395   1.603   5.958  10.286 -0.5403  0.0731  0.8214
  127MOL0     O17396   1.730   5.991  10.346 -0.1158 -0.2666  0.1462
  127MOL0     C17397   1.748   6.133  10.343 -0.9679 -0.5313 -0.5208
  127MOL0     C17398   1.832   6.190  10.231  0.3339 -0.1852 -0.4067
  127MOL0     C17399   1.980   6.154  10.241 -0.1052  0.0566  0.3313
  127MOL0     C17400   2.010   6.013  10.195  0.3928 -0.9857 -0.8426
  127MOL0     C17401   2.149   5.995  10.146  0.0979 -1.0118 -0.2375
  127MOL0     C17402   2.181   5.852  10.120  0.2748  0.7386 -1.1381
  127MOL0     C17403   2.310   5.834  10.039 -0.0093 -0.0023 -0.6671
  127MOL0     C17404   2.446   5.833  10.129  1.4495 -0.2548  0.4022
  127MOL0     N17405   2.471   5.695  10.183 -0.0136 -0.8091 -0.2469
  127MOL0     C17406   2.405   5.577  10.163 -1.0594 -0.4978  0.0170
  127MOL0     C17407   2.473   5.482  10.222 -0.7067  0.6213 -0.4489
  127MOL0     C17408   2.436   5.335  10.214  0.2246  0.5078 -0.1799
  127MOL0     C17409   2.393   5.292  10.345  0.9863 -0.6348 -0.2386
  127MOL0     C17410   2.367   5.139  10.357 -1.0030  0.0433  0.8202
  127MOL0     C17411   2.408   5.089  10.490  0.0689  0.1138  0.2309
  127MOL0     O17412   2.346   4.959  10.501 -0.0296 -0.4667 -0.4465
  127MOL0     C17413   2.388   4.885  10.609 -0.3815  0.0207 -1.0721
  127MOL0     C17414   2.403   4.747  10.599 -0.0391  0.4588 -0.4351
  127MOL0     C17415   2.433   4.675  10.710 -0.4538 -0.0468 -0.6997
  127MOL0     C17416   2.447   4.524  10.700  0.4378 -0.3129  0.8213
  127MOL0     C17417   2.465   4.743  10.838 -0.3305  0.5485 -0.5012
  127MOL0     C17418   2.513   4.668  10.959 -0.2368  1.0988  0.2429
  127MOL0     O17419   2.469   4.708  11.079 -0.0145  0.9484  0.5745
  127MOL0     C17420   2.497   4.645  11.195  1.4054 -0.0481  0.6849
  127MOL0     C17421   2.605   4.685  11.274 -0.6221 -0.4578 -1.0648
  127MOL0     C17422   2.626   4.633  11.401  0.4084 -0.8183  0.3787
  127MOL0     C17423   2.535   4.539  11.451 -0.0469 -0.0925  0.3088
  127MOL0     O17424   2.528   4.496  11.581  0.0155  1.4243 -0.0982
  127MOL0     C17425   2.561   4.590  11.680  0.1888  0.4148  0.3199
  127MOL0     C17426   2.433   4.641  11.764 -0.1396  0.3469  0.7892
  127MOL0     C17427   2.483   4.745  11.865  0.0220 -0.2100 -0.5030
  127MOL0     C17428   2.363   4.830  11.921  0.2514  0.5495  0.2330
  127MOL0     C17429   2.421   4.944  12.008  0.2485  0.1753  0.0914
  127MOL0     C17430   2.298   5.012  12.063 -0.7754 -1.0816 -0.0618
  127MOL0     C17431   2.340   5.098  12.188 -0.5262 -1.0965  0.0701
  127MOL0     C17432   2.217   5.177  12.250 -0.1784  0.3102  0.3638
  127MOL0    Cl17433   2.094   5.065  12.333 -0.0567  0.0108  0.2022
  127MOL0     C17434   2.440   4.493  11.364 -0.9194 -0.3735 -0.0552
  127MOL0     C17435   2.418   4.538  11.240  0.6091  0.4952 -0.6791
  127MOL0     O17436   2.598   4.582  10.940  0.0781  0.5408  0.3041
  127MOL0     C17437   2.455   4.876  10.845  0.5713  0.6989  0.6105
  127MOL0     C17438   2.414   4.944  10.737  0.3104 -0.8125 -0.0207
  127MOL0     N17439   2.576   5.539  10.295  0.0087 -0.0200  0.1428
  127MOL0     N17440   2.569   5.668  10.281  0.3796 -0.2046  0.5348
  127MOL0     C17441   1.483   5.967  10.338  0.7512  0.6240  0.4312
  127MOL0     C17442   1.370   5.941  10.260 -0.6497 -0.5789  0.2693
  127MOL0     C17443   1.086   5.986   9.904  0.2172  0.8869  0.1504
  127MOL0     C17444   1.005   5.876   9.944 -0.4401  0.1811 -0.6463
  127MOL0     C17445   0.878   5.849   9.906 -1.0614  0.7640  0.2798
  127MOL0     C17446   0.817   5.935   9.820  0.2718  0.3720  0.4044
  127MOL0     O17447   0.690   5.908   9.788 -0.2776  0.1500  0.0810
  127MOL0     C17448   0.658   5.905   9.648 -0.7693 -0.7043 -0.5922
  127MOL0     C17449   0.724   5.784   9.581  0.2825 -0.6010 -0.3185
  127MOL0     C17450   0.687   5.656   9.652  0.4176 -0.3321 -0.0854
  127MOL0     C17451   0.787   5.552   9.630 -0.4846  0.0503 -0.5718
  127MOL0     C17452   0.737   5.417   9.658  0.4689 -0.6042 -0.3226
  127MOL0     C17453   0.707   5.305   9.681  0.4409 -0.3569 -0.2295
  127MOL0     C17454   0.887   6.052   9.784  0.3094  0.4064 -0.2099
  127MOL0     C17455   1.022   6.077   9.815 -0.4632 -0.1806  0.3114
  127MOL0     C17456   1.088   6.205   9.774  0.4862 -0.5317  0.0712
  127MOL0     H17457   1.513   5.906   9.959  0.6913 -0.8148  0.5062
  127MOL0     H17458   1.714   5.930  10.103 -0.5120  2.5470  0.4433
  127MOL0     H17459   1.805   6.149  10.435  0.4105 -0.0527 -1.4268
  127MOL0     H17460   1.651   6.183  10.343 -0.5739  0.3016  1.0682
  127MOL0     H17461   1.793   6.157  10.134 -1.0739 -2.2211  0.7700
  127MOL0     H17462   1.813   6.297  10.241  2.0390  0.2070 -1.0452
  127MOL0     H17463   2.042   6.218  10.177  2.6231 -1.7248  1.0306
  127MOL0     H17464   2.015   6.170  10.343 -2.6730 -2.9943  1.8689
  127MOL0     H17465   1.985   5.951  10.282 -1.1134 -0.1550 -0.6441
  127MOL0     H17466   1.942   5.976  10.117 -3.8533 -3.4554  3.4556
  127MOL0     H17467   2.222   6.033  10.218 -0.5942 -2.6934  1.4121
  127MOL0     H17468   2.169   6.050  10.053  3.3129 -0.0724  0.8694
  127MOL0     H17469   2.193   5.792  10.211 -0.5393  2.4011  0.1054
  127MOL0     H17470   2.094   5.819  10.062 -0.2068 -0.4317  0.1937
  127MOL0     H17471   2.316   5.909   9.959  1.2469  2.5181  1.6551
  127MOL0     H17472   2.299   5.735   9.993  0.0661 -1.2329  1.8425
  127MOL0     H17473   2.528   5.867  10.066 -1.4124  2.1712 -2.3521
  127MOL0     H17474   2.443   5.909  10.208 -1.0231  0.8667 -0.6654
  127MOL0     H17475   2.325   5.554  10.094 -1.8189  2.0620 -0.0577
  127MOL0     H17476   2.516   5.267  10.185 -0.8713 -0.9542  0.1421
  127MOL0     H17477   2.362   5.324  10.135 -0.2703 -0.7513  0.4336
  127MOL0     H17478   2.473   5.311  10.417  0.6623 -1.7997  0.4547
  127MOL0     H17479   2.308   5.355  10.370  3.8513  4.0349 -1.1025
  127MOL0     H17480   2.262   5.112  10.342 -0.3084 -3.0381  0.9766
  127MOL0     H17481   2.415   5.091  10.272 -2.0673 -0.6535  0.5844
  127MOL0     H17482   2.517   5.084  10.497  0.2047 -0.2975 -1.5931
  127MOL0     H17483   2.367   5.161  10.562  0.7212  4.1497 -3.0400
  127MOL0     H17484   2.387   4.692  10.507 -5.4001 -0.1450  0.5543
  127MOL0     H17485   2.391   4.494  10.611  0.9423  1.8192 -0.2683
  127MOL0     H17486   2.392   4.483  10.785  0.5699  1.9873  2.0978
  127MOL0     H17487   2.551   4.490  10.706 -0.0027 -1.4833  4.5837
  127MOL0     H17488   2.678   4.756  11.236 -1.6484 -0.6932 -3.6415
  127MOL0     H17489   2.713   4.663  11.458 -0.6454  1.4834  0.8771
  127MOL0     H17490   2.639   4.554  11.749 -1.3308 -3.4642  0.2442
  127MOL0     H17491   2.614   4.678  11.643 -0.0838 -0.2204 -1.7019
  127MOL0     H17492   2.368   4.684  11.686  1.0279  1.4423  0.3674
  127MOL0     H17493   2.378   4.556  11.804  2.6691 -2.5395 -1.0565
  127MOL0     H17494   2.557   4.814  11.825  0.5920 -2.3742 -3.5384
  127MOL0     H17495   2.534   4.682  11.939  1.9272 -2.1342 -3.2586
  127MOL0     H17496   2.301   4.757  11.973  1.7960 -1.1037 -0.1505
  127MOL0     H17497   2.308   4.878  11.840  1.9549  1.8250 -0.2487
  127MOL0     H17498   2.479   4.906  12.092 -0.1581 -0.0154  0.2856
  127MOL0     H17499   2.474   5.011  11.940  0.4867  0.2341  0.3327
  127MOL0     H17500   2.223   4.939  12.096  0.1781 -2.1499 -0.2003
  127MOL0     H17501   2.257   5.079  11.987 -0.7287  0.9105  1.5627
  127MOL0     H17502   2.405   5.178  12.152 -0.4571 -1.9982 -1.9678
  127MOL0     H17503   2.402   5.043  12.259  2.7013  0.0499 -1.6582
  127MOL0     H17504   2.161   5.225  12.170 -0.8373  1.0011  1.2130
  127MOL0     H17505   2.240   5.252  12.326 -1.0384 -3.0396  4.3089
  127MOL0     H17506   2.384   4.416  11.415 -2.8667  0.6182 -0.6006
  127MOL0     H17507   2.330   4.502  11.189 -1.0685  3.2074  0.0861
  127MOL0     H17508   2.468   4.930  10.938  0.3985 -1.1826  1.7803
  127MOL0     H17509   2.419   5.053  10.742  1.6963 -0.6606 -2.7245
  127MOL0     H17510   1.477   5.963  10.447  2.1148  1.9632  0.5805
  127MOL0     H17511   1.279   5.963  10.314 -0.0859 -0.0701  1.0547
  127MOL0     H17512   1.045   5.818  10.027  1.2455 -1.2766 -2.3822
  127MOL0     H17513   0.818   5.766   9.944 -1.0734  0.1158 -1.1025
  127MOL0     H17514   0.552   5.898   9.626 -0.5673 -2.8335 -1.1237
  127MOL0     H17515   0.692   5.996   9.599  0.1780 -1.4977 -1.4678
  127MOL0     H17516   0.832   5.796   9.592  0.0356 -0.6064  3.2860
  127MOL0     H17517   0.692   5.781   9.476 -3.4648 -4.4860  0.6157
  127MOL0     H17518   0.685   5.661   9.761  2.0204 -0.4262 -0.0274
  127MOL0     H17519   0.588   5.624   9.617  0.2239  1.2225 -1.0348
  127MOL0     H17520   0.884   5.566   9.679 -0.1126 -2.8671 -0.3071
  127MOL0     H17521   0.826   5.538   9.529 -2.7868 -0.5323 -1.4285
  127MOL0     H17522   0.686   5.202   9.697  3.6585 -0.9239  1.1063
  127MOL0     H17523   0.844   6.127   9.720 -0.7036  0.8094  0.9093
  127MOL0     H17524   1.135   6.194   9.676 -1.8326  0.4925 -1.2365
  127MOL0     H17525   1.011   6.282   9.760 -0.3179 -1.1448  0.9634
  127MOL0     H17526   1.148   6.238   9.859  0.6929 -4.9214  1.9245
  128MOL0     O17527   1.549  10.519   0.700 -0.4315  0.1973  0.4280
  128MOL0     C17528   1.462  10.589   0.746  0.0096 -0.7891 -1.0461
  128MOL0     O17529   1.466  10.635   0.874  0.7149  0.4190  0.1598
  128MOL0     C17530   1.540  10.563   0.961 -0.1211 -0.1925  0.2934
  128MOL0     C17531   1.680  10.575   0.961 -0.5728  0.2375 -0.0684
  128MOL0     C17532   1.763  10.491   1.042  0.2624 -0.2382  0.1154
  128MOL0     C17533   1.706  10.373   1.108 -0.5035 -0.9960  0.3069
  128MOL0     O17534   1.775  10.286   1.189 -0.4352 -0.1790  0.0336
  128MOL0     C17535   1.921  10.299   1.171 -0.0414 -0.1996  0.1701
  128MOL0     C17536   1.992  10.412   1.249  0.9607  0.6106  0.4848
  128MOL0     C17537   2.144  10.413   1.224  0.3422 -0.0481 -0.3856
  128MOL0     C17538   2.208  10.413   1.367 -0.5387  0.7632  0.2523
  128MOL0     C17539   2.364  10.422   1.345  0.7365  0.2856  0.2186
  128MOL0     C17540   2.418  10.302   1.271 -0.4744 -0.2646 -0.4241
  128MOL0     C17541   2.573  10.293   1.285  0.0359 -0.3880 -0.4972
  128MOL0     C17542   2.642  10.177   1.217  1.0975 -0.1686 -0.3147
  128MOL0     N17543   2.767  10.154   1.290  0.2834  0.0285  0.3807
  128MOL0     C17544   2.792  10.140   1.425 -1.3570 -0.5169  0.1565
  128MOL0     C17545   2.925  10.160   1.435 -0.6005  0.9204  0.4711
  128MOL0     C17546   3.006  10.133   1.553  0.3871  0.0394 -0.5401
  128MOL0     C17547   3.126  10.225   1.570  0.4433  0.7823  0.5291
  128MOL0     C17548   3.076  10.365   1.613 -1.2276  0.4245  0.6160
  128MOL0     C17549   3.194  10.460   1.591 -1.9249 -0.5714  0.1025
  128MOL0     O17550   3.286  10.421   1.696  0.0561  0.6158 -0.1479
  128MOL0     C17551   3.409  10.487   1.710  0.8354  0.7725  0.5358
  128MOL0     C17552   3.440  10.608   1.646  0.1025  0.7244 -0.8669
  128MOL0     C17553   3.566  10.675   1.657 -0.3872  0.1652 -0.4156
  128MOL0     C17554   3.582  10.803   1.592  0.1384 -0.5187 -0.0934
  128MOL0     C17555   3.663  10.607   1.739  0.4089  0.3785 -0.0237
  128MOL0     C17556   3.803  10.671   1.770 -0.0614  0.6309  0.2099
  128MOL0     O17557   3.894  10.595   1.844 -0.1628 -1.3047  0.5024
  128MOL0     C17558   4.021  10.649   1.871  0.3354  0.3741  0.5715
  128MOL0     C17559   4.100  10.697   1.763 -0.4565  0.4076 -0.5356
  128MOL0     C17560   4.219  10.763   1.803 -0.1536  0.7709  0.0431
  128MOL0     C17561   4.268  10.767   1.935 -0.2357  0.4238  0.6219
  128MOL0     O17562   4.367  10.846   1.973 -0.8399 -0.4856 -0.0777
  128MOL0     C17563   4.391  10.967   1.889 -0.0145  1.0456 -0.0355
  128MOL0     C17564   4.493  11.061   1.956 -0.7203 -0.2238 -0.3733
  128MOL0     C17565   4.538  11.184   1.878  0.2418  0.1022 -0.0046
  128MOL0     C17566   4.627  11.271   1.964 -0.5852  0.4484  0.1589
  128MOL0     C17567   4.696  11.380   1.872 -0.6299  0.0562 -0.7011
  128MOL0     C17568   4.608  11.497   1.830  0.4336  0.3664 -0.3024
  128MOL0     C17569   4.699  11.624   1.803 -0.8014 -1.0361 -0.4120
  128MOL0     C17570   4.787  11.617   1.676  0.5208  0.5007  0.5345
  128MOL0    Cl17571   4.933  11.509   1.679 -0.2163 -0.2427  0.1505
  128MOL0     C17572   4.183  10.709   2.030  0.0244  1.1780  0.4841
  128MOL0     C17573   4.061  10.650   2.004 -0.1920 -0.0092  0.3955
  128MOL0     O17574   3.828  10.778   1.707  0.4408 -0.1950 -0.0424
  128MOL0     C17575   3.625  10.485   1.806 -0.4864 -0.4851  0.6435
  128MOL0     C17576   3.503  10.429   1.784  0.2779  1.0969  0.3740
  128MOL0     N17577   2.980  10.174   1.310  0.2873  0.3798 -0.0949
  128MOL0     N17578   2.884  10.173   1.229  0.3313 -0.2323  0.3719
  128MOL0     C17579   1.567  10.372   1.111 -0.0318 -0.3223  0.2369
  128MOL0     C17580   1.480  10.456   1.035 -1.7051 -0.6413 -0.6656
  128MOL0     C17581   1.350  10.648   0.669  0.3680  0.0208  0.2436
  128MOL0     C17582   1.281  10.771   0.718 -0.6559 -0.6110  0.6610
  128MOL0     C17583   1.179  10.830   0.647 -0.0483  0.0310  0.9576
  128MOL0     C17584   1.144  10.778   0.530 -0.3343  0.2104 -0.8332
  128MOL0     O17585   1.055  10.846   0.454  0.0711 -0.5080 -0.2274
  128MOL0     C17586   1.083  10.985   0.422  0.0785 -0.2982 -0.4076
  128MOL0     C17587   1.054  11.025   0.277 -0.5882 -1.2251  0.0222
  128MOL0     C17588   1.088  10.919   0.178 -1.0457  1.0597 -0.0569
  128MOL0     C17589   1.139  10.971   0.045  0.0590 -0.8840 -0.8074
  128MOL0     C17590   1.035  11.059  -0.007  0.4030  0.1451  0.0497
  128MOL0     C17591   0.936  11.124  -0.034  0.8472  0.8657 -0.5478
  128MOL0     C17592   1.207  10.663   0.476 -0.2113  0.2183 -0.4796
  128MOL0     C17593   1.312  10.594   0.545  0.0427  0.9703  0.2670
  128MOL0     C17594   1.383  10.475   0.472  0.0164 -0.2152  0.4960
  128MOL0     H17595   1.724  10.644   0.890  3.4442 -2.7531 -0.8714
  128MOL0     H17596   1.869  10.514   1.034  0.9000 -2.7829  0.4172
  128MOL0     H17597   1.936  10.304   1.063  2.5406 -3.3557  0.2252
  128MOL0     H17598   1.965  10.201   1.193 -0.2910 -0.3353  0.0750
  128MOL0     H17599   1.951  10.513   1.235  0.5638  0.3437 -0.3331
  128MOL0     H17600   1.973  10.391   1.354  0.2909  3.9463  1.1617
  128MOL0     H17601   2.170  10.330   1.158 -0.2907 -2.1757  1.9115
  128MOL0     H17602   2.166  10.510   1.178 -2.3810  2.1468  2.4850
  128MOL0     H17603   2.185  10.502   1.426 -1.4799  2.9400 -3.1141
  128MOL0     H17604   2.184  10.319   1.418 -0.7411  0.7041  0.0527
  128MOL0     H17605   2.403  10.428   1.447  1.6300 -0.0087 -0.0881
  128MOL0     H17606   2.383  10.506   1.278 -0.6152  0.5636  0.1564
  128MOL0     H17607   2.378  10.207   1.309 -1.3103 -0.5256 -1.8397
  128MOL0     H17608   2.390  10.313   1.166  2.3773  0.3437 -1.1927
  128MOL0     H17609   2.602  10.291   1.390  3.3461 -0.5448 -1.2966
  128MOL0     H17610   2.608  10.386   1.240 -1.9492 -0.7491 -3.0632
  128MOL0     H17611   2.577  10.089   1.215  0.6699  0.1539 -0.7935
  128MOL0     H17612   2.665  10.203   1.113  0.1880 -0.2227 -0.5362
  128MOL0     H17613   2.718  10.121   1.501 -2.3471  0.6375 -0.4866
  128MOL0     H17614   3.031  10.027   1.554 -0.0955 -0.0706 -0.3486
  128MOL0     H17615   2.938  10.148   1.637 -2.0804 -3.0981 -1.7853
  128MOL0     H17616   3.199  10.177   1.636  0.6368  2.3071  1.4732
  128MOL0     H17617   3.171  10.231   1.470  0.0272  3.2413  0.4216
  128MOL0     H17618   2.989  10.408   1.562 -2.6338 -0.1623  2.4261
  128MOL0     H17619   3.048  10.371   1.718 -1.7325  0.5081  0.4796
  128MOL0     H17620   3.238  10.442   1.492  0.2502  1.9891  0.4982
  128MOL0     H17621   3.166  10.565   1.599 -0.1519 -0.0358 -0.2956
  128MOL0     H17622   3.374  10.660   1.578  1.7946  0.3597 -2.8798
  128MOL0     H17623   3.606  10.875   1.671 -0.3642 -0.6516  0.1860
  128MOL0     H17624   3.494  10.829   1.532  1.5732 -0.0013 -2.0576
  128MOL0     H17625   3.662  10.796   1.518 -1.4157 -2.4142 -1.6833
  128MOL0     H17626   4.078  10.709   1.657  1.0155 -1.1102 -1.0612
  128MOL0     H17627   4.278  10.804   1.721 -1.3021  1.4873 -0.4407
  128MOL0     H17628   4.427  10.930   1.793  0.6300 -0.5976  0.8072
  128MOL0     H17629   4.295  11.020   1.882 -0.6934 -0.2054 -0.5081
  128MOL0     H17630   4.442  11.084   2.050 -1.4489  0.1133 -0.8397
  128MOL0     H17631   4.587  11.007   1.971 -1.8631 -4.1430 -4.8137
  128MOL0     H17632   4.447  11.236   1.846  0.6098 -0.0404 -1.3696
  128MOL0     H17633   4.577  11.154   1.780 -0.7859 -2.0968  0.2042
  128MOL0     H17634   4.703  11.210   2.012  0.4599  1.0126 -0.7331
  128MOL0     H17635   4.563  11.306   2.045 -2.8468 -1.7498 -0.5494
  128MOL0     H17636   4.775  11.424   1.933 -1.0517 -0.3472  0.1633
  128MOL0     H17637   4.738  11.327   1.786  2.3089 -4.1195  2.8649
  128MOL0     H17638   4.545  11.537   1.910  0.2838 -1.3121  0.4493
  128MOL0     H17639   4.535  11.470   1.753 -1.6682 -1.6090  2.1661
  128MOL0     H17640   4.770  11.644   1.884  1.0667  0.2996 -2.2437
  128MOL0     H17641   4.632  11.708   1.784  0.8037 -0.0596 -2.2273
  128MOL0     H17642   4.829  11.714   1.651  0.4132  0.6212  0.8208
  128MOL0     H17643   4.716  11.587   1.599  2.5452  3.0028 -2.5607
  128MOL0     H17644   4.225  10.720   2.130  4.3661  1.3280 -1.1512
  128MOL0     H17645   4.005  10.621   2.092 -1.9701  0.8027 -0.4222
  128MOL0     H17646   3.686  10.450   1.888  2.2780  3.9814  0.8491
  128MOL0     H17647   3.456  10.351   1.844 -1.9830  0.4563 -2.0885
  128MOL0     H17648   1.511  10.301   1.172  1.7259 -3.4530 -1.4903
  128MOL0     H17649   1.372  10.448   1.031 -1.7182 -0.6958 -0.2815
  128MOL0     H17650   1.304  10.807   0.818 -2.7992 -2.0421  1.7415
  128MOL0     H17651   1.120  10.914   0.682 -2.2836 -1.8747  2.0643
  128MOL0     H17652   1.028  11.052   0.489 -2.0063 -2.7968  0.5060
  128MOL0     H17653   1.186  11.008   0.452 -0.3100 -0.3338  1.0208
  128MOL0     H17654   1.119  11.111   0.258  0.0272 -2.3217 -3.5440
  128MOL0     H17655   0.948  11.050   0.278 -0.4086 -0.2839  2.2614
  128MOL0     H17656   1.149  10.838   0.218 -0.6145  1.3415 -0.1275
  128MOL0     H17657   0.992  10.871   0.160 -1.9424  1.5855  2.7254
  128MOL0     H17658   1.163  10.889  -0.023  0.3221 -1.2144 -0.3297
  128MOL0     H17659   1.227  11.032   0.065 -0.4106 -0.7301  1.0734
  128MOL0     H17660   0.850  11.180  -0.064 -0.1946  0.2626  1.1887
  128MOL0     H17661   1.178  10.624   0.379 -2.9336 -0.4921  0.5307
  128MOL0     H17662   1.469  10.508   0.413 -1.8959  0.7478 -1.9501
  128MOL0     H17663   1.417  10.394   0.537  1.7311 -1.7430 -2.1226
  128MOL0     H17664   1.311  10.426   0.405 -0.9360 -0.0317  1.3466
  129MOL0     O17665  10.239  10.917   0.493  1.0668  0.5123  0.5055
  129MOL0     C17666  10.218  10.797   0.482  0.3339  0.4918  0.3096
  129MOL0     O17667  10.106  10.732   0.507 -0.3093 -0.0773 -0.0075
  129MOL0     C17668   9.987  10.802   0.542  0.0256  0.1980 -0.8260
  129MOL0     C17669   9.936  10.776   0.672 -0.4949 -0.4180 -0.3303
  129MOL0     C17670   9.830  10.845   0.725 -0.6595  0.2280 -0.1028
  129MOL0     C17671   9.780  10.951   0.654  0.3434  0.3269 -0.0695
  129MOL0     O17672   9.676  11.022   0.705  0.6542 -0.1112  0.2378
  129MOL0     C17673   9.574  11.059   0.611  0.1108 -0.1426  0.1410
  129MOL0     C17674   9.585  11.203   0.570 -0.0595 -1.3259  0.1131
  129MOL0     C17675   9.529  11.289   0.688  1.0341  0.7796 -0.5616
  129MOL0     C17676   9.540  11.442   0.659  1.2158 -0.8556 -1.1960
  129MOL0     C17677   9.428  11.533   0.719 -0.4293 -0.5300 -0.7954
  129MOL0     C17678   9.457  11.682   0.681  0.2303 -0.4689  0.4300
  129MOL0     C17679   9.585  11.742   0.751  0.2145  0.0441  0.0977
  129MOL0     C17680   9.566  11.891   0.764 -1.0612 -0.4813 -0.7665
  129MOL0     N17681   9.671  11.970   0.838 -1.2936 -0.1643 -0.4332
  129MOL0     C17682   9.811  11.963   0.807 -0.9195  0.1898 -0.3295
  129MOL0     C17683   9.877  12.008   0.922  0.3963 -0.1383  0.2304
  129MOL0     C17684  10.030  12.015   0.956 -0.0231  0.8203  0.3412
  129MOL0     C17685  10.053  11.967   1.101 -0.2962 -0.2841 -0.6156
  129MOL0     C17686  10.057  11.809   1.109 -0.7668 -0.6279  0.2334
  129MOL0     C17687  10.132  11.756   1.236 -0.0138 -0.1516  0.5775
  129MOL0     O17688  10.135  11.617   1.235  0.1869 -0.2910  1.3945
  129MOL0     C17689  10.197  11.556   1.337 -0.7276  0.0680  0.2515
  129MOL0     C17690  10.212  11.604   1.467  1.1847  0.5928 -0.4528
  129MOL0     C17691  10.260  11.521   1.568  0.8235  1.0584  0.1699
  129MOL0     C17692  10.272  11.583   1.711  0.5084 -0.6594  0.3375
  129MOL0     C17693  10.301  11.385   1.534  0.4284 -0.5900  1.0823
  129MOL0     C17694  10.365  11.299   1.646  0.2907 -0.3851 -0.4325
  129MOL0     O17695  10.367  11.347   1.774 -0.1913 -0.0688 -0.3909
  129MOL0     C17696  10.380  11.254   1.874 -0.0524 -0.5246  0.2897
  129MOL0     C17697  10.505  11.216   1.919  0.0918  0.3981 -0.4119
  129MOL0     C17698  10.517  11.119   2.017  0.5505  0.5183 -0.2910
  129MOL0     C17699  10.407  11.061   2.083 -0.0401  0.7570 -0.1396
  129MOL0     O17700  10.403  10.975   2.188  0.0607 -0.1219 -0.3531
  129MOL0     C17701  10.478  10.854   2.168 -0.9540  0.0398 -0.8313
  129MOL0     C17702  10.468  10.762   2.291 -0.4086  0.0663  0.0594
  129MOL0     C17703  10.590  10.666   2.294  0.1021 -0.3326 -0.4329
  129MOL0     C17704  10.560  10.574   2.415 -0.2964  0.4756 -0.0166
  129MOL0     C17705  10.463  10.456   2.376 -0.4313 -0.0827  0.5337
  129MOL0     C17706  10.516  10.374   2.258 -0.4904 -0.6026  0.5021
  129MOL0     C17707  10.459  10.228   2.264 -0.2832  0.0980  0.7077
  129MOL0     C17708  10.533  10.132   2.169 -0.0268 -0.6029 -0.5825
  129MOL0    Cl17709  10.579  10.197   2.007 -0.1775 -0.3955  0.2320
  129MOL0     C17710  10.285  11.102   2.034  0.5660  0.3378  0.1505
  129MOL0     C17711  10.263  11.209   1.942 -0.2578  0.0583 -1.2874
  129MOL0     O17712  10.398  11.182   1.607 -1.1465  0.8401 -0.2885
  129MOL0     C17713  10.280  11.338   1.409 -0.0550  0.2630  0.3776
  129MOL0     C17714  10.224  11.420   1.318 -0.5809 -0.2624 -0.4853
  129MOL0     N17715   9.784  12.040   1.013  0.0390 -0.6862  0.4309
  129MOL0     N17716   9.660  12.023   0.961  0.1847  0.2387  0.4802
  129MOL0     C17717   9.830  10.984   0.525 -0.1410  0.2249 -0.3344
  129MOL0     C17718   9.939  10.909   0.465  0.4689  0.1428 -0.3795
  129MOL0     C17719  10.335  10.707   0.440 -0.0928 -0.3860  0.4513
  129MOL0     C17720  10.302  10.576   0.389 -1.0607 -0.3944 -0.4392
  129MOL0     C17721  10.395  10.489   0.341  0.2852 -0.6851 -0.3420
  129MOL0     C17722  10.530  10.517   0.336  0.6317 -0.2682  0.6471
  129MOL0     O17723  10.626  10.437   0.286 -0.3543 -0.1639  0.5690
  129MOL0     C17724  10.606  10.317   0.209 -0.0494 -0.2699 -0.2529
  129MOL0     C17725  10.582  10.206   0.302  0.1113  0.0919  1.0477
  129MOL0     C17726  10.565  10.065   0.235 -0.0744 -0.0048  0.3854
  129MOL0     C17727  10.690  10.022   0.153  0.1110  0.5995  0.4506
  129MOL0     C17728  10.819  10.000   0.222 -0.5258 -0.6479 -0.3307
  129MOL0     C17729  10.926   9.959   0.267  0.6492  0.1885  1.2887
  129MOL0     C17730  10.571  10.640   0.395  0.1550 -0.7911  0.0794
  129MOL0     C17731  10.473  10.740   0.435 -0.9014  0.4274  0.2417
  129MOL0     C17732  10.533  10.873   0.480 -0.2143 -0.6060  0.2965
  129MOL0     H17733   9.985  10.697   0.729  0.8769 -1.2921 -2.5951
  129MOL0     H17734   9.783  10.804   0.814 -1.9166 -1.8656 -1.6259
  129MOL0     H17735   9.474  11.046   0.652  0.5995  2.6804  2.5850
  129MOL0     H17736   9.577  10.997   0.521  3.2008 -1.1461  0.7827
  129MOL0     H17737   9.687  11.230   0.540 -0.0125 -2.0747 -0.4428
  129MOL0     H17738   9.513  11.221   0.490 -0.0410 -0.7636  0.2207
  129MOL0     H17739   9.420  11.278   0.686  0.9870  1.2669 -0.9293
  129MOL0     H17740   9.567  11.263   0.786 -0.9199  0.0924  0.0556
  129MOL0     H17741   9.638  11.473   0.696  0.0509  3.2489 -1.0296
  129MOL0     H17742   9.526  11.457   0.552  2.8962  0.3797 -1.2831
  129MOL0     H17743   9.438  11.510   0.826 -2.8845 -1.5659 -0.7461
  129MOL0     H17744   9.327  11.507   0.688 -1.5518  2.4493 -0.0116
  129MOL0     H17745   9.466  11.692   0.572 -0.9282 -0.9860  0.2748
  129MOL0     H17746   9.367  11.736   0.710  0.9223 -0.4390  2.7257
  129MOL0     H17747   9.675  11.714   0.696  0.0133 -1.1093  0.3257
  129MOL0     H17748   9.600  11.721   0.858  0.6565  5.0743  1.2624
  129MOL0     H17749   9.565  11.932   0.662  0.3991  1.6104  0.0051
  129MOL0     H17750   9.478  11.917   0.823 -0.1449  1.4318 -0.1758
  129MOL0     H17751   9.845  11.921   0.713 -1.2131 -1.5677  0.3118
  129MOL0     H17752  10.078  12.112   0.945  1.2509  0.4099  1.9731
  129MOL0     H17753  10.078  11.941   0.891 -1.6579 -1.2693  1.3837
  129MOL0     H17754  10.147  12.010   1.137 -1.9155  3.1522 -0.1302
  129MOL0     H17755   9.974  11.998   1.171 -0.6977 -1.8730 -0.3060
  129MOL0     H17756   9.952  11.776   1.106 -0.6864 -0.9104  0.5075
  129MOL0     H17757  10.104  11.763   1.022 -3.3332 -1.6804 -0.7022
  129MOL0     H17758  10.234  11.792   1.223 -0.9768  1.7243 -3.7224
  129MOL0     H17759  10.088  11.796   1.328 -0.6256  1.1903 -0.2588
  129MOL0     H17760  10.173  11.702   1.491  1.4123  0.9677 -1.5585
  129MOL0     H17761  10.220  11.532   1.792  2.2652  1.2953  2.8259
  129MOL0     H17762  10.218  11.678   1.706  2.0083  0.1719 -1.0589
  129MOL0     H17763  10.375  11.609   1.738  0.8841 -1.6143 -0.1046
  129MOL0     H17764  10.597  11.266   1.891  1.0145 -0.5834  0.7509
  129MOL0     H17765  10.614  11.089   2.055  0.7315  1.3664 -0.0661
  129MOL0     H17766  10.449  10.791   2.084 -0.7383 -0.7289 -0.3445
  129MOL0     H17767  10.579  10.881   2.136 -1.8282  1.4201 -2.6135
  129MOL0     H17768  10.479  10.827   2.378 -1.0002  0.5133 -0.1880
  129MOL0     H17769  10.367  10.720   2.302 -1.0502  1.4058 -0.4364
  129MOL0     H17770  10.684  10.723   2.301  0.0054 -0.0187 -1.4238
  129MOL0     H17771  10.593  10.615   2.197 -0.9487 -1.0845 -0.0845
  129MOL0     H17772  10.518  10.617   2.506 -0.6291 -2.0105  1.0902
  129MOL0     H17773  10.658  10.538   2.449 -1.5196 -0.8770  2.2996
  129MOL0     H17774  10.456  10.402   2.471 -0.0937 -2.6027 -0.7657
  129MOL0     H17775  10.361  10.489   2.352  0.5654  1.5323 -1.8396
  129MOL0     H17776  10.625  10.370   2.265 -0.3018 -0.1169 -1.6539
  129MOL0     H17777  10.482  10.426   2.168 -0.7209  0.4487  1.1814
  129MOL0     H17778  10.355  10.238   2.234 -0.7456 -0.3144  2.0866
  129MOL0     H17779  10.461  10.187   2.365 -1.2650 -0.0054  0.6857
  129MOL0     H17780  10.473  10.042   2.153 -0.3912 -0.7398  1.2862
  129MOL0     H17781  10.620  10.097   2.225 -0.1615  1.3205  0.9659
  129MOL0     H17782  10.200  11.062   2.088  0.5305  0.2955  0.0648
  129MOL0     H17783  10.161  11.237   1.921 -0.4668  3.2342  2.6720
  129MOL0     H17784  10.324  11.244   1.378 -0.9757 -0.5929  1.5882
  129MOL0     H17785  10.212  11.381   1.217 -1.2712  3.2492 -1.9031
  129MOL0     H17786   9.794  11.071   0.471  1.5735  0.7841 -0.6116
  129MOL0     H17787   9.987  10.924   0.368  1.7279 -0.3167  0.1506
  129MOL0     H17788  10.202  10.540   0.372 -0.7272 -0.2927 -3.1120
  129MOL0     H17789  10.359  10.404   0.283  1.1894  1.0135 -3.6563
  129MOL0     H17790  10.523  10.324   0.138 -0.9178  1.9319  0.8993
  129MOL0     H17791  10.695  10.293   0.150  0.9209 -0.7796  1.3753
  129MOL0     H17792  10.484  10.228   0.347 -0.6159 -2.4557  0.8481
  129MOL0     H17793  10.658  10.200   0.381  0.9251 -0.9691  0.2154
  129MOL0     H17794  10.545   9.997   0.319 -2.6964  0.5785  0.2945
  129MOL0     H17795  10.478  10.055   0.170  0.8439 -1.0521 -0.7235
  129MOL0     H17796  10.692  10.085   0.064 -0.2227  0.2840  0.2168
  129MOL0     H17797  10.681   9.924   0.106  3.6172  0.4806 -0.2396
  129MOL0     H17798  11.021   9.927   0.304 -0.8456 -2.8157  2.8818
  129MOL0     H17799  10.677  10.661   0.398 -0.1107  0.8444 -0.7920
  129MOL0     H17800  10.481  10.959   0.437  1.8115  0.4647 -0.1151
  129MOL0     H17801  10.511  10.880   0.587 -2.2687  0.7025 -0.1669
  129MOL0     H17802  10.640  10.873   0.456 -0.0952 -0.6011  0.8028
  130MOL0     O17803   7.567   0.862   0.821  0.0776 -0.7486 -0.1558
  130MOL0     C17804   7.526   0.918   0.917  0.3785  0.1440  0.1763
  130MOL0     O17805   7.396   0.903   0.969 -0.2567  0.0659 -0.6615
  130MOL0     C17806   7.313   0.825   0.895  0.1654 -0.1374  0.0948
  130MOL0     C17807   7.231   0.878   0.799 -0.1503 -0.6807 -0.4360
  130MOL0     C17808   7.137   0.797   0.735  0.7093  0.1838  0.8382
  130MOL0     C17809   7.118   0.663   0.780  0.7369 -0.6064 -0.4962
  130MOL0     O17810   7.018   0.593   0.709 -0.8112  0.5632  0.2288
  130MOL0     C17811   6.966   0.470   0.755 -0.1138  1.1934  0.1569
  130MOL0     C17812   6.879   0.390   0.650  0.2788 -0.1684 -0.0891
  130MOL0     C17813   6.949   0.398   0.512  0.5201 -0.1802 -0.2137
  130MOL0     C17814   6.862   0.376   0.393 -0.5235 -0.3695  0.1177
  130MOL0     C17815   6.930   0.401   0.267 -0.2572 -0.1704  0.2791
  130MOL0     C17816   7.020   0.290   0.212 -0.3853 -0.0794  0.3143
  130MOL0     C17817   7.067   0.323   0.069 -0.1412 -0.2780  0.2476
  130MOL0     C17818   6.945   0.307  -0.029 -0.9293 -0.1497 -0.6601
  130MOL0     N17819   6.979   0.318  -0.175 -0.8492 -0.1237  0.2176
  130MOL0     C17820   7.091   0.261  -0.238 -0.4364  0.3647 -1.4054
  130MOL0     C17821   7.071   0.274  -0.365  0.0102 -0.4686 -0.4247
  130MOL0     C17822   7.147   0.227  -0.475  0.5930 -0.1878  0.8112
  130MOL0     C17823   7.269   0.305  -0.524  0.2246 -0.0479  0.5590
  130MOL0     C17824   7.341   0.245  -0.648  0.3324 -0.5925  0.0284
  130MOL0     C17825   7.418   0.135  -0.592  0.0342  0.8273 -0.5174
  130MOL0     O17826   7.496   0.083  -0.702 -0.2759  0.5404 -0.1757
  130MOL0     C17827   7.455  -0.042  -0.745  0.0435 -0.0340 -1.5120
  130MOL0     C17828   7.550  -0.139  -0.759  0.3822  0.5182  0.8139
  130MOL0     C17829   7.524  -0.271  -0.798 -0.2320  0.2216 -0.4311
  130MOL0     C17830   7.640  -0.364  -0.833 -1.0759  0.0242  1.0386
  130MOL0     C17831   7.388  -0.311  -0.811  0.0722  0.3763  0.5962
  130MOL0     C17832   7.349  -0.451  -0.844  1.0771  0.0448 -0.0383
  130MOL0     O17833   7.217  -0.455  -0.883  0.4374  0.3497  0.1477
  130MOL0     C17834   7.158  -0.578  -0.907 -0.5313 -0.0420  0.1826
  130MOL0     C17835   7.174  -0.702  -0.847  0.3214 -0.4690  0.0729
  130MOL0     C17836   7.090  -0.811  -0.878  0.1893 -1.1221 -0.0902
  130MOL0     C17837   6.997  -0.800  -0.975 -0.0013 -0.1182  0.1156
  130MOL0     O17838   6.922  -0.902  -1.027  0.6259  0.1320 -0.3248
  130MOL0     C17839   6.922  -1.024  -0.954 -0.1827  0.6062  0.3637
  130MOL0     C17840   6.829  -1.127  -1.023 -0.2197  0.3663 -0.0682
  130MOL0     C17841   6.808  -1.245  -0.931  0.8762  0.3091 -0.0942
  130MOL0     C17842   6.773  -1.374  -1.021 -0.1159 -1.0019  0.0283
  130MOL0     C17843   6.712  -1.488  -0.925 -0.2299 -0.2944  0.5833
  130MOL0     C17844   6.710  -1.621  -0.988 -0.7461  0.0292  0.1116
  130MOL0     C17845   6.850  -1.693  -0.990 -1.1947 -0.7673 -0.0130
  130MOL0     C17846   6.871  -1.765  -1.125  0.7979  0.5823 -0.3791
  130MOL0    Cl17847   6.744  -1.892  -1.135 -0.0394  0.2719  0.0926
  130MOL0     C17848   6.978  -0.667  -1.024  0.8113 -0.5140  0.0755
  130MOL0     C17849   7.049  -0.555  -0.988  0.8663 -0.3793  0.1107
  130MOL0     O17850   7.413  -0.552  -0.837  0.1823  0.4693 -1.0196
  130MOL0     C17851   7.288  -0.214  -0.791  0.5812 -0.2952 -0.6891
  130MOL0     C17852   7.321  -0.087  -0.751 -0.8605  0.2473  0.2672
  130MOL0     N17853   6.964   0.360  -0.383 -0.0694 -0.1095  0.8985
  130MOL0     N17854   6.906   0.375  -0.270  0.0893 -0.1852 -0.0317
  130MOL0     C17855   7.206   0.610   0.874  0.4309  0.0073 -0.4502
  130MOL0     C17856   7.314   0.691   0.925 -0.2015  0.7885  0.2263
  130MOL0     C17857   7.617   1.000   0.998 -0.2332 -0.0560 -0.7664
  130MOL0     C17858   7.558   1.037   1.127  0.8254 -0.7250 -0.6348
  130MOL0     C17859   7.639   1.101   1.224 -0.7427  0.2988 -0.2678
  130MOL0     C17860   7.770   1.133   1.187 -1.1870  1.0093 -0.4875
  130MOL0     O17861   7.854   1.201   1.275 -0.7720  0.6917  0.0896
  130MOL0     C17862   7.818   1.229   1.405  0.3766 -0.5531 -0.2909
  130MOL0     C17863   7.948   1.286   1.468 -0.1461 -0.0349 -0.7985
  130MOL0     C17864   7.944   1.388   1.584 -0.5511  1.0306  0.1305
  130MOL0     C17865   7.926   1.530   1.528 -0.0276 -0.0181  0.1667
  130MOL0     C17866   7.953   1.623   1.629  0.6189 -0.8787 -0.4831
  130MOL0     C17867   7.948   1.692   1.732 -0.0515  0.6420 -0.3759
  130MOL0     C17868   7.816   1.102   1.064 -0.3091  0.5239 -0.7808
  130MOL0     C17869   7.746   1.032   0.961 -0.8537 -0.3192 -0.8190
  130MOL0     C17870   7.805   1.034   0.820 -0.5488  0.4989 -0.0496
  130MOL0     H17871   7.257   0.980   0.774  1.2584 -0.6758  0.9536
  130MOL0     H17872   7.063   0.839   0.667 -1.8475 -1.7194  2.2758
  130MOL0     H17873   6.910   0.475   0.849 -0.7699  1.1501 -0.2207
  130MOL0     H17874   7.045   0.402   0.789  1.2972  3.0030  0.6619
  130MOL0     H17875   6.865   0.289   0.690 -1.8525 -1.1668 -3.0090
  130MOL0     H17876   6.784   0.443   0.660 -0.7199 -2.2317  2.3370
  130MOL0     H17877   6.990   0.499   0.503 -1.2149  0.6501  0.7376
  130MOL0     H17878   7.037   0.333   0.516  1.6670  1.3739  0.8583
  130MOL0     H17879   6.812   0.279   0.384 -2.9832  0.7438  0.9601
  130MOL0     H17880   6.786   0.454   0.399  2.9520  3.4797 -1.6029
  130MOL0     H17881   6.977   0.499   0.272  0.0728 -0.3775  1.6495
  130MOL0     H17882   6.855   0.419   0.190 -0.6640  2.1580  1.1533
  130MOL0     H17883   7.107   0.284   0.278  1.3209 -1.4229 -1.9089
  130MOL0     H17884   6.966   0.196   0.203  0.0553 -0.3966  0.9192
  130MOL0     H17885   7.150   0.255   0.046 -1.0797 -2.8647  3.7065
  130MOL0     H17886   7.111   0.423   0.068  0.4232 -0.4980  1.2044
  130MOL0     H17887   6.883   0.218  -0.013 -1.1518  0.2512  0.9227
  130MOL0     H17888   6.881   0.393  -0.007  1.8863  1.1489  3.6684
  130MOL0     H17889   7.167   0.200  -0.191 -2.8993 -1.6120  0.3056
  130MOL0     H17890   7.078   0.225  -0.559  1.2834  0.6086  0.2080
  130MOL0     H17891   7.168   0.122  -0.453 -1.2842 -1.0382 -1.1261
  130MOL0     H17892   7.246   0.409  -0.547 -1.8492 -0.7903 -0.9534
  130MOL0     H17893   7.334   0.322  -0.438  1.2772 -0.7005 -0.0746
  130MOL0     H17894   7.275   0.209  -0.728 -1.0933  1.7103  0.0745
  130MOL0     H17895   7.415   0.312  -0.693 -0.0282 -0.0736  0.1942
  130MOL0     H17896   7.485   0.166  -0.511  0.1240 -0.4991 -0.0509
  130MOL0     H17897   7.359   0.052  -0.550  0.8961  1.0388  1.2104
  130MOL0     H17898   7.651  -0.101  -0.754  0.4181  0.4677  0.5089
  130MOL0     H17899   7.725  -0.316  -0.783 -1.1632  1.5189 -0.1651
  130MOL0     H17900   7.664  -0.368  -0.940  0.4134 -0.1443  1.3664
  130MOL0     H17901   7.639  -0.463  -0.786  0.1704  0.0930  1.2462
  130MOL0     H17902   7.248  -0.720  -0.769  1.2324  0.3675 -0.5779
  130MOL0     H17903   7.118  -0.907  -0.835  1.4901 -1.4567 -1.5890
  130MOL0     H17904   7.024  -1.064  -0.956 -1.1072 -1.8346 -1.0761
  130MOL0     H17905   6.884  -1.016  -0.851  0.2364 -0.6189  0.6281
  130MOL0     H17906   6.729  -1.085  -1.033 -1.1302 -1.6684  0.1224
  130MOL0     H17907   6.864  -1.157  -1.122 -2.2945  1.1708 -1.0995
  130MOL0     H17908   6.726  -1.220  -0.863 -1.3063 -0.0765 -2.4264
  130MOL0     H17909   6.891  -1.270  -0.865 -0.6488 -1.3218  1.2967
  130MOL0     H17910   6.860  -1.388  -1.086  0.1862  0.7182  0.0141
  130MOL0     H17911   6.695  -1.342  -1.091 -0.1080  2.7226  1.5344
  130MOL0     H17912   6.771  -1.491  -0.833  3.3923  1.0030 -1.4911
  130MOL0     H17913   6.609  -1.457  -0.906 -1.1778 -0.5172 -3.3432
  130MOL0     H17914   6.665  -1.618  -1.088  2.3848  0.8434 -1.3830
  130MOL0     H17915   6.652  -1.682  -0.917  2.5631 -3.7367 -0.0885
  130MOL0     H17916   6.858  -1.767  -0.910  3.5972 -1.7606 -1.0558
  130MOL0     H17917   6.931  -1.621  -0.976 -0.4691 -0.6465 -3.6880
  130MOL0     H17918   6.968  -1.815  -1.127 -0.3521 -1.9621  1.8353
  130MOL0     H17919   6.859  -1.699  -1.212 -0.8416  1.3394  0.3849
  130MOL0     H17920   6.901  -0.655  -1.100  3.0184 -0.1270 -2.2313
  130MOL0     H17921   7.048  -0.457  -1.034  2.8785  0.3152  1.4453
  130MOL0     H17922   7.183  -0.235  -0.808 -0.3663  1.9404  1.6837
  130MOL0     H17923   7.238  -0.021  -0.727 -1.2409  0.5063 -1.5933
  130MOL0     H17924   7.194   0.514   0.923 -2.4721  0.9931  1.0198
  130MOL0     H17925   7.379   0.654   1.003  0.6849  1.4598 -0.1690
  130MOL0     H17926   7.454   1.013   1.148  0.9916 -2.4485 -1.5272
  130MOL0     H17927   7.582   1.128   1.313 -0.3027  2.2065 -0.5282
  130MOL0     H17928   7.737   1.303   1.411 -0.5577 -1.4705 -1.1304
  130MOL0     H17929   7.788   1.137   1.456 -0.7387  0.8962  1.8460
  130MOL0     H17930   8.002   1.330   1.383  0.9524 -2.0930 -1.2401
  130MOL0     H17931   8.015   1.207   1.504  0.9854  3.2318  5.5514
  130MOL0     H17932   7.880   1.350   1.664  0.7942 -0.8912  0.3721
  130MOL0     H17933   8.044   1.393   1.627 -0.1065  4.4363 -1.0120
  130MOL0     H17934   7.823   1.536   1.491 -0.0824  1.7794  0.5465
  130MOL0     H17935   7.993   1.544   1.443  0.7253 -0.9068  0.5951
  130MOL0     H17936   7.952   1.746   1.824 -1.6821  0.6780 -0.2883
  130MOL0     H17937   7.914   1.147   1.053 -0.3583  0.8570  0.0366
  130MOL0     H17938   7.826   1.138   0.794 -0.4640 -0.1532 -2.8978
  130MOL0     H17939   7.895   0.973   0.811 -0.0287  1.2990 -0.3116
  130MOL0     H17940   7.736   1.008   0.739  0.3363  1.0675 -1.0046
  131MOL0     O17941   1.088   6.678   6.502  0.0346  0.3654  0.0503
  131MOL0     C17942   1.185   6.743   6.542  0.9805  0.4194  0.5001
  131MOL0     O17943   1.323   6.720   6.499  0.6282  0.0417  0.2727
  131MOL0     C17944   1.357   6.608   6.438  0.3642  0.3819  0.4458
  131MOL0     C17945   1.449   6.524   6.487 -0.3749  0.1313  0.0367
  131MOL0     C17946   1.480   6.402   6.423 -0.6308  1.0682  0.1697
  131MOL0     C17947   1.423   6.371   6.299  0.4192  0.6807  0.3424
  131MOL0     O17948   1.474   6.258   6.232  0.3874 -0.8779 -0.4544
  131MOL0     C17949   1.422   6.225   6.101  0.7400 -0.1332 -0.5478
  131MOL0     C17950   1.499   6.316   5.995  0.2952 -0.2635 -0.4656
  131MOL0     C17951   1.480   6.261   5.853  0.0660  0.8626 -0.1628
  131MOL0     C17952   1.521   6.365   5.744 -0.0448 -0.2064  0.0127
  131MOL0     C17953   1.426   6.356   5.628  0.6561  0.2643  0.2624
  131MOL0     C17954   1.288   6.421   5.659  0.4051  0.4537 -0.8469
  131MOL0     C17955   1.211   6.408   5.527  0.1213 -0.5181 -0.5169
  131MOL0     C17956   1.095   6.512   5.524  0.4393  0.3074  0.2801
  131MOL0     N17957   0.991   6.480   5.432  0.2233  0.9877  0.0510
  131MOL0     C17958   0.990   6.436   5.306  0.0541 -0.6319 -0.2099
  131MOL0     C17959   0.860   6.424   5.261 -0.2275 -0.1191  0.2640
  131MOL0     C17960   0.809   6.373   5.132  0.5908  0.1607  0.8302
  131MOL0     C17961   0.707   6.269   5.126  0.0479  0.1121 -0.0333
  131MOL0     C17962   0.671   6.224   4.980 -0.1529  0.4558  0.3585
  131MOL0     C17963   0.786   6.183   4.883  0.3794  0.4234 -0.1159
  131MOL0     O17964   0.810   6.285   4.788  0.0314  0.2628 -0.8697
  131MOL0     C17965   0.733   6.279   4.677 -0.0151 -0.1265  0.3830
  131MOL0     C17966   0.793   6.331   4.561  0.6717  1.1851 -0.4672
  131MOL0     C17967   0.726   6.339   4.442  0.7011 -0.6724 -0.0371
  131MOL0     C17968   0.801   6.397   4.329 -0.5623 -0.1045 -0.6474
  131MOL0     C17969   0.595   6.287   4.432 -0.3265 -0.5549  0.0585
  131MOL0     C17970   0.511   6.302   4.309  1.0990 -0.0998 -0.2603
  131MOL0     O17971   0.406   6.205   4.296 -0.1574  0.0693 -0.0313
  131MOL0     C17972   0.313   6.222   4.200 -0.4143 -0.4386 -0.2974
  131MOL0     C17973   0.230   6.104   4.197 -0.1952  0.2681 -0.4623
  131MOL0     C17974   0.121   6.100   4.107 -0.3957 -0.9213  0.7777
  131MOL0     C17975   0.098   6.203   4.019  0.3583  0.1423 -0.2618
  131MOL0     O17976  -0.017   6.185   3.947  0.1599 -0.4733  0.3398
  131MOL0     C17977  -0.020   6.281   3.842  0.8648  0.3589  0.3340
  131MOL0     C17978  -0.128   6.225   3.754  0.4589 -0.7640 -0.4240
  131MOL0     C17979  -0.193   6.322   3.648 -0.5561 -0.2360 -0.3082
  131MOL0     C17980  -0.262   6.443   3.706 -0.9054 -0.5272  0.1622
  131MOL0     C17981  -0.311   6.529   3.588 -0.3105  1.6122 -0.5740
  131MOL0     C17982  -0.409   6.641   3.631  0.3853 -0.4196  0.0062
  131MOL0     C17983  -0.351   6.732   3.741  1.5079  0.2733  0.7478
  131MOL0     C17984  -0.379   6.885   3.719  0.2768  0.3717 -1.1189
  131MOL0    Cl17985  -0.268   6.952   3.602  0.0012  0.1110  0.4607
  131MOL0     C17986   0.182   6.323   4.027  0.4347  0.6415  0.3432
  131MOL0     C17987   0.279   6.338   4.120 -0.3904  0.0358  0.5760
  131MOL0     O17988   0.535   6.393   4.230 -0.0587  0.7755 -0.0240
  131MOL0     C17989   0.533   6.239   4.555  0.1715 -0.1017  0.7688
  131MOL0     C17990   0.610   6.225   4.668 -0.8677  1.0733  0.0188
  131MOL0     N17991   0.780   6.454   5.369  0.0041  0.1195 -0.6816
  131MOL0     N17992   0.857   6.493   5.464 -0.5932 -0.3293 -0.4541
  131MOL0     C17993   1.328   6.461   6.243  0.2710  0.4829  0.2955
  131MOL0     C17994   1.288   6.568   6.323 -0.6674 -0.8898  0.3951
  131MOL0     C17995   1.174   6.849   6.647 -0.3109  0.8596  0.8898
  131MOL0     C17996   1.294   6.897   6.702  0.8461 -0.6472 -0.3358
  131MOL0     C17997   1.294   7.005   6.787 -1.3570 -0.0832 -0.1340
  131MOL0     C17998   1.174   7.057   6.842 -0.3931 -0.0235  0.0743
  131MOL0     O17999   1.180   7.165   6.913  0.4279  0.2772 -0.2133
  131MOL0     C18000   1.058   7.249   6.935  0.1758  0.1526 -0.5980
  131MOL0     C18001   1.097   7.353   7.037  0.3719 -0.3440 -0.3706
  131MOL0     C18002   0.989   7.467   7.067 -0.2807 -0.7494 -1.0116
  131MOL0     C18003   1.026   7.542   7.197  0.5721 -0.6253 -0.1829
  131MOL0     C18004   0.939   7.661   7.193 -0.0448  0.7486  0.4038
  131MOL0     C18005   0.877   7.769   7.196 -0.3099  0.4550 -0.1396
  131MOL0     C18006   1.055   6.991   6.807  0.2244  0.8303  0.1911
  131MOL0     C18007   1.051   6.887   6.708 -0.5268  0.0857  0.2192
  131MOL0     C18008   0.912   6.820   6.683 -0.2416  0.4437  0.1359
  131MOL0     H18009   1.511   6.566   6.565  0.1827  0.7227 -0.7085
  131MOL0     H18010   1.553   6.335   6.467 -1.4721  1.6715  2.6738
  131MOL0     H18011   1.316   6.252   6.108  0.8313 -0.2054  3.8845
  131MOL0     H18012   1.442   6.119   6.081 -0.9942 -0.7839  0.8598
  131MOL0     H18013   1.462   6.419   5.994 -1.6476 -0.8931 -2.2880
  131MOL0     H18014   1.603   6.314   6.030  0.3339  0.8852 -0.4689
  131MOL0     H18015   1.518   6.159   5.843 -1.8933 -0.3774  3.4282
  131MOL0     H18016   1.373   6.241   5.845  0.0175 -0.3026  2.4499
  131MOL0     H18017   1.538   6.467   5.780 -1.2353 -0.6774  2.0870
  131MOL0     H18018   1.615   6.327   5.702 -0.7480 -0.5699 -1.3162
  131MOL0     H18019   1.420   6.249   5.606  2.9596  0.3825 -1.3662
  131MOL0     H18020   1.474   6.388   5.535 -0.7393  0.3003 -0.4750
  131MOL0     H18021   1.227   6.362   5.728  1.2700  2.0836  1.4292
  131MOL0     H18022   1.302   6.525   5.688 -1.8515  0.7710 -0.7530
  131MOL0     H18023   1.170   6.307   5.512 -2.0617  0.3028 -0.4685
  131MOL0     H18024   1.290   6.434   5.456  0.1973 -2.5567 -1.2574
  131MOL0     H18025   1.051   6.512   5.624 -2.2917  2.0639 -0.8414
  131MOL0     H18026   1.132   6.614   5.515  3.5593 -0.3500  3.1991
  131MOL0     H18027   1.079   6.408   5.251 -1.7724  0.5316 -4.1222
  131MOL0     H18028   0.894   6.327   5.082 -0.0246 -0.1737  0.0918
  131MOL0     H18029   0.777   6.457   5.070  0.8425  2.1268  3.1926
  131MOL0     H18030   0.735   6.179   5.180 -1.1438 -0.1832  0.1318
  131MOL0     H18031   0.616   6.296   5.180 -0.5675 -6.0150  2.7707
  131MOL0     H18032   0.620   6.131   5.004 -0.9488  0.9633  0.6757
  131MOL0     H18033   0.599   6.298   4.944  0.1584  1.2265  1.2666
  131MOL0     H18034   0.878   6.166   4.940  0.1955 -1.2654 -0.2916
  131MOL0     H18035   0.769   6.088   4.832  1.8284 -0.6112  1.2323
  131MOL0     H18036   0.887   6.385   4.562  1.3972 -0.0374  1.0018
  131MOL0     H18037   0.783   6.340   4.237 -1.1777  0.0472 -0.6193
  131MOL0     H18038   0.910   6.392   4.344 -0.6219  0.7169  0.1165
  131MOL0     H18039   0.773   6.502   4.316 -2.5859 -0.5647 -0.2628
  131MOL0     H18040   0.239   6.029   4.275 -0.6798  5.1921  5.0583
  131MOL0     H18041   0.069   6.009   4.082 -0.5171 -0.6610  0.0619
  131MOL0     H18042  -0.037   6.379   3.887  1.0486  1.5137 -1.9571
  131MOL0     H18043   0.071   6.287   3.781  2.3111  1.7149  2.4997
  131MOL0     H18044  -0.077   6.147   3.696  1.4949 -1.3296  1.1779
  131MOL0     H18045  -0.194   6.162   3.814  3.3853 -5.0479 -1.1974
  131MOL0     H18046  -0.270   6.274   3.586 -2.3819  0.8602  1.0130
  131MOL0     H18047  -0.113   6.353   3.580  0.6237  1.5071  1.7564
  131MOL0     H18048  -0.184   6.498   3.760 -0.7159 -1.1264  0.5117
  131MOL0     H18049  -0.341   6.417   3.777 -0.8216  3.2209  1.8667
  131MOL0     H18050  -0.214   6.562   3.550 -0.7712  3.3004 -0.3621
  131MOL0     H18051  -0.364   6.454   3.529  0.4434 -1.8550  2.7122
  131MOL0     H18052  -0.509   6.605   3.657  0.2385  1.8720  3.1566
  131MOL0     H18053  -0.423   6.708   3.545 -1.7410  0.0641  0.6932
  131MOL0     H18054  -0.245   6.715   3.762  0.9344 -1.8283  2.3583
  131MOL0     H18055  -0.402   6.704   3.835  1.9295  0.1599  0.9439
  131MOL0     H18056  -0.364   6.935   3.815 -2.2591 -0.9743  0.0747
  131MOL0     H18057  -0.482   6.909   3.692  0.0227 -1.2411 -1.6744
  131MOL0     H18058   0.165   6.414   3.970  0.2703  3.1727  4.0864
  131MOL0     H18059   0.324   6.435   4.140 -2.1282  0.8873  0.5571
  131MOL0     H18060   0.431   6.203   4.548  0.9202 -2.4965  1.1273
  131MOL0     H18061   0.560   6.187   4.757 -1.0244  0.4625 -0.3215
  131MOL0     H18062   1.280   6.443   6.147 -1.8357 -3.7571  1.8824
  131MOL0     H18063   1.200   6.621   6.287  0.4777 -0.8403 -2.6657
  131MOL0     H18064   1.394   6.880   6.664  1.5368  3.0786 -0.5808
  131MOL0     H18065   1.395   7.034   6.815 -0.3214 -2.5319 -1.0580
  131MOL0     H18066   1.040   7.308   6.845 -2.6263  0.3345 -0.0037
  131MOL0     H18067   0.961   7.204   6.958 -0.0090  1.0723  0.5132
  131MOL0     H18068   1.190   7.400   7.005  0.4495  2.2013  2.9361
  131MOL0     H18069   1.114   7.309   7.136  2.1042 -0.8742 -0.8786
  131MOL0     H18070   0.994   7.536   6.982  2.9091 -0.4692 -0.7259
  131MOL0     H18071   0.894   7.414   7.078 -1.0100  0.6117 -0.5194
  131MOL0     H18072   1.130   7.569   7.219 -0.4955  1.1704  3.5444
  131MOL0     H18073   0.978   7.477   7.271  0.0932 -0.4022 -0.2935
  131MOL0     H18074   0.843   7.870   7.202  0.8041  0.7687  1.9133
  131MOL0     H18075   0.961   7.021   6.852 -0.5714 -3.2194  1.6655
  131MOL0     H18076   0.858   6.862   6.598  0.8621  3.1185  0.6323
  131MOL0     H18077   0.912   6.715   6.654 -0.7957 -0.1993  2.3041
  131MOL0     H18078   0.855   6.824   6.776  2.5254 -1.1798  2.0464
  132MOL0     O18079   5.401   0.796  10.077  1.0534  0.3275  0.5018
  132MOL0     C18080   5.382   0.750  10.189  0.0315 -0.2780  0.4763
  132MOL0     O18081   5.348   0.617  10.213  0.2942  0.4956  0.1194
  132MOL0     C18082   5.382   0.527  10.112 -0.6817  0.2127  0.0901
  132MOL0     C18083   5.517   0.513  10.069 -0.0924 -0.4921  0.8374
  132MOL0     C18084   5.551   0.431   9.961 -0.1140 -0.5659  0.4200
  132MOL0     C18085   5.460   0.355   9.901  0.5420  0.5015 -0.1285
  132MOL0     O18086   5.511   0.281   9.798  0.1184  0.0158  0.0515
  132MOL0     C18087   5.438   0.164   9.761  0.6266 -0.0503 -1.0451
  132MOL0     C18088   5.482   0.134   9.618  0.2753  0.5358 -0.6851
  132MOL0     C18089   5.377   0.030   9.560 -0.2110  0.2626 -0.4864
  132MOL0     C18090   5.374   0.007   9.410 -0.2952 -0.7816  0.2784
  132MOL0     C18091   5.277  -0.103   9.377 -0.2966 -0.0788  0.4921
  132MOL0     C18092   5.235  -0.128   9.238  0.3365  0.0112 -0.4260
  132MOL0     C18093   5.348  -0.186   9.150 -0.1655  0.4773 -0.2463
  132MOL0     C18094   5.312  -0.254   9.019  0.6570  0.0241  0.6312
  132MOL0     N18095   5.419  -0.331   8.958  0.0496  0.1844  0.1378
  132MOL0     C18096   5.554  -0.302   8.937 -0.3221  0.5695 -0.6877
  132MOL0     C18097   5.607  -0.414   8.897  0.2425 -0.5272 -0.4010
  132MOL0     C18098   5.753  -0.413   8.851  1.6173 -0.2300  0.7786
  132MOL0     C18099   5.828  -0.498   8.950 -0.4470 -0.0945  0.1444
  132MOL0     C18100   5.820  -0.651   8.942  0.2979  0.3944 -0.0100
  132MOL0     C18101   5.817  -0.738   9.063  0.5334 -0.0544  0.7597
  132MOL0     O18102   5.943  -0.745   9.120 -0.8613 -0.3257  0.6684
  132MOL0     C18103   5.970  -0.848   9.199  0.1564  0.5878 -0.9363
  132MOL0     C18104   6.104  -0.852   9.239 -0.6576  0.3214  0.0660
  132MOL0     C18105   6.137  -0.961   9.327 -0.3798 -0.3427 -0.1121
  132MOL0     C18106   6.281  -0.966   9.367 -0.7780 -0.1849 -0.5969
  132MOL0     C18107   6.041  -1.043   9.395 -0.3508 -0.2674  0.2379
  132MOL0     C18108   6.061  -1.134   9.506 -0.5516  0.5134  0.6437
  132MOL0     O18109   5.942  -1.183   9.561 -0.9435  0.1163 -0.0948
  132MOL0     C18110   5.939  -1.271   9.672  0.1088 -0.3981  0.1939
  132MOL0     C18111   5.965  -1.410   9.660 -0.0968  0.5343  0.6031
  132MOL0     C18112   5.950  -1.500   9.771 -0.3224 -0.1004  0.4269
  132MOL0     C18113   5.888  -1.456   9.885 -0.1621 -0.4732 -0.3771
  132MOL0     O18114   5.865  -1.542   9.996 -0.3897 -0.1373  0.4407
  132MOL0     C18115   5.963  -1.529  10.095 -0.0962  0.2937  0.2892
  132MOL0     C18116   5.966  -1.645  10.191 -0.3944  0.0657  0.0852
  132MOL0     C18117   6.006  -1.783  10.127 -0.0277 -0.0033  0.2318
  132MOL0     C18118   6.144  -1.796  10.064  0.2867  0.9276 -0.4559
  132MOL0     C18119   6.265  -1.785  10.153 -0.7478 -0.5830  0.7217
  132MOL0     C18120   6.287  -1.877  10.267 -0.0224 -0.7456 -0.1084
  132MOL0     C18121   6.421  -1.853  10.353 -0.6800  0.6141 -0.3791
  132MOL0     C18122   6.390  -1.790  10.485  0.3332  0.3594  0.9726
  132MOL0    Cl18123   6.398  -1.612  10.463  0.0888  0.0652  0.3452
  132MOL0     C18124   5.861  -1.320   9.893 -0.4136  0.1406  0.1344
  132MOL0     C18125   5.882  -1.227   9.794 -0.0030  0.8004 -0.2115
  132MOL0     O18126   6.170  -1.171   9.546 -0.3440 -0.3619  0.2785
  132MOL0     C18127   5.909  -1.018   9.356 -0.1862  0.4890  1.4012
  132MOL0     C18128   5.873  -0.930   9.255 -0.7099  0.6048  0.0216
  132MOL0     N18129   5.513  -0.515   8.895  0.7913  0.2504 -0.5430
  132MOL0     N18130   5.399  -0.460   8.938  0.0017  0.1780 -0.0695
  132MOL0     C18131   5.323   0.361   9.948  0.0013  0.6914  0.6693
  132MOL0     C18132   5.285   0.461  10.046 -0.4170 -0.7074  0.9093
  132MOL0     C18133   5.389   0.838  10.307  0.4961  1.6014  0.3715
  132MOL0     C18134   5.349   0.787  10.431  0.9422 -0.0821 -0.2046
  132MOL0     C18135   5.330   0.877  10.537 -0.5583  0.6171  0.0774
  132MOL0     C18136   5.372   1.010  10.525 -0.1436  0.0895 -0.4038
  132MOL0     O18137   5.379   1.091  10.640 -0.0976 -0.0765 -0.0682
  132MOL0     C18138   5.447   1.062  10.757  0.1821  0.3288  0.5456
  132MOL0     C18139   5.501   1.195  10.818  0.7928  0.1415  0.2476
  132MOL0     C18140   5.394   1.284  10.877 -1.1211 -1.1462 -0.2697
  132MOL0     C18141   5.445   1.423  10.904  0.7734  0.8008  0.4595
  132MOL0     C18142   5.359   1.503  10.997 -0.5872 -0.5476 -0.2715
  132MOL0     C18143   5.292   1.556  11.085 -0.6199 -0.7312  0.7470
  132MOL0     C18144   5.441   1.050  10.411  0.2894  0.3921 -0.0609
  132MOL0     C18145   5.439   0.970  10.294 -0.0773  0.0669  0.3775
  132MOL0     C18146   5.524   1.017  10.173  1.2512  0.9482 -0.6932
  132MOL0     H18147   5.599   0.571  10.108  1.7881 -0.4127 -2.8464
  132MOL0     H18148   5.647   0.417   9.913 -1.2540  1.0749 -2.6194
  132MOL0     H18149   5.332   0.187   9.752  0.9559  1.7802 -0.6588
  132MOL0     H18150   5.455   0.080   9.829 -0.5230  1.1792  0.8252
  132MOL0     H18151   5.497   0.226   9.560  0.3605 -0.0519 -1.6153
  132MOL0     H18152   5.582   0.092   9.615 -0.2158 -0.7246  0.0154
  132MOL0     H18153   5.413  -0.062   9.606 -1.1980  0.8687  1.6205
  132MOL0     H18154   5.273   0.048   9.592  0.1105  0.8674  0.2452
  132MOL0     H18155   5.344   0.099   9.358  1.6750 -1.0281 -1.4374
  132MOL0     H18156   5.474  -0.013   9.370  0.8020  2.0260  1.3691
  132MOL0     H18157   5.194  -0.053   9.426 -0.5132 -0.2876  0.3371
  132MOL0     H18158   5.299  -0.194   9.434 -3.3734  0.1309  2.2054
  132MOL0     H18159   5.151  -0.198   9.243  0.7108 -0.3787  0.8694
  132MOL0     H18160   5.203  -0.031   9.200  1.8288  1.1473  1.0681
  132MOL0     H18161   5.398  -0.263   9.209  0.7455 -0.3449 -2.0000
  132MOL0     H18162   5.417  -0.105   9.126  1.4548 -0.7295  0.1146
  132MOL0     H18163   5.227  -0.322   9.030  0.4391  0.5710  2.9621
  132MOL0     H18164   5.277  -0.175   8.953 -2.2652 -3.6019 -2.6816
  132MOL0     H18165   5.608  -0.208   8.947 -0.4060  0.4826  0.7702
  132MOL0     H18166   5.781  -0.307   8.854 -1.7050  0.7096  1.6830
  132MOL0     H18167   5.762  -0.461   8.753  0.4230 -3.7509  2.2228
  132MOL0     H18168   5.935  -0.479   8.934 -0.7457  3.4343  1.3524
  132MOL0     H18169   5.803  -0.462   9.050  3.2518  1.7600  0.5835
  132MOL0     H18170   5.728  -0.669   8.886 -0.2838  2.5396  0.1737
  132MOL0     H18171   5.894  -0.690   8.872  0.4987  0.4786  0.1523
  132MOL0     H18172   5.740  -0.690   9.124 -0.3345  2.0018 -1.8031
  132MOL0     H18173   5.790  -0.833   9.017 -2.6587 -0.4603  3.0913
  132MOL0     H18174   6.169  -0.776   9.196 -0.5282  0.1966  0.0423
  132MOL0     H18175   6.300  -0.914   9.462 -1.7041  1.1943 -1.1436
  132MOL0     H18176   6.351  -0.932   9.291 -0.4909 -1.6673 -1.0213
  132MOL0     H18177   6.302  -1.073   9.381 -0.3562  0.3053  4.2308
  132MOL0     H18178   5.992  -1.441   9.560 -3.8878  0.9562 -0.7078
  132MOL0     H18179   5.970  -1.606   9.759 -4.7075 -0.9601 -0.9505
  132MOL0     H18180   6.061  -1.502  10.056  1.2556 -1.0872  2.5376
  132MOL0     H18181   5.932  -1.438  10.147 -0.6658  0.3109 -0.0695
  132MOL0     H18182   6.032  -1.613  10.272  0.9066 -1.4097 -0.3593
  132MOL0     H18183   5.864  -1.653  10.229 -0.0803  3.5097  2.0333
  132MOL0     H18184   5.924  -1.808  10.059 -0.5737  3.3573 -0.5516
  132MOL0     H18185   5.993  -1.859  10.204 -0.3600  0.7232  0.8995
  132MOL0     H18186   6.157  -1.726   9.980  1.8298  0.3193 -0.7603
  132MOL0     H18187   6.157  -1.896  10.021  0.7876  1.0181 -0.5163
  132MOL0     H18188   6.359  -1.794  10.097 -0.7800  1.0168  0.3575
  132MOL0     H18189   6.249  -1.689  10.202 -1.4527 -1.8091  3.0228
  132MOL0     H18190   6.281  -1.982  10.236  0.6619 -0.8579  0.1236
  132MOL0     H18191   6.197  -1.862  10.328  1.0476 -3.7309  2.4398
  132MOL0     H18192   6.494  -1.797  10.294  0.8810 -0.9942 -0.0520
  132MOL0     H18193   6.455  -1.956  10.369 -2.1064 -0.3968 -3.1379
  132MOL0     H18194   6.466  -1.817  10.559  0.7735  1.4708  0.9539
  132MOL0     H18195   6.299  -1.823  10.535  0.7798  1.2777  2.4550
  132MOL0     H18196   5.826  -1.285   9.990  0.7010  1.5224  0.0550
  132MOL0     H18197   5.856  -1.128   9.829 -0.8529  0.2903  0.6647
  132MOL0     H18198   5.830  -1.075   9.403 -0.5535  0.2522  0.5202
  132MOL0     H18199   5.767  -0.927   9.232 -0.4978 -0.0318 -1.1170
  132MOL0     H18200   5.247   0.302   9.897  2.6075 -1.4560 -1.0291
  132MOL0     H18201   5.179   0.477  10.059 -1.0483 -2.4572 -1.3823
  132MOL0     H18202   5.320   0.682  10.431 -0.0228  0.1782 -0.0998
  132MOL0     H18203   5.281   0.831  10.622  0.3419 -2.6574 -1.0373
  132MOL0     H18204   5.372   1.015  10.822 -2.5188  4.8938  1.1719
  132MOL0     H18205   5.523   0.984  10.749 -1.0440 -1.0014  1.4108
  132MOL0     H18206   5.545   1.251  10.734 -2.0521  1.4858 -0.4505
  132MOL0     H18207   5.583   1.182  10.889  1.3237 -1.0250 -0.5412
  132MOL0     H18208   5.301   1.284  10.818 -2.4117  0.7805  1.5946
  132MOL0     H18209   5.359   1.251  10.975  0.8112 -0.7696  0.5927
  132MOL0     H18210   5.435   1.464  10.803 -2.8489 -0.9078 -0.0444
  132MOL0     H18211   5.549   1.428  10.937  0.5859 -0.3789  1.2920
  132MOL0     H18212   5.244   1.603  11.168  0.2638 -2.4759  2.3388
  132MOL0     H18213   5.499   1.142  10.408  1.1279  0.1011  3.2103
  132MOL0     H18214   5.563   1.118  10.187  0.6147  0.9366  1.7153
  132MOL0     H18215   5.610   0.949  10.167 -0.8613 -2.0151  0.4297
  132MOL0     H18216   5.458   1.021  10.087 -1.8656  3.1873  1.5685
  133MOL0     O18217  10.007   4.285   1.294  0.9403 -0.0695 -0.8496
  133MOL0     C18218   9.990   4.345   1.400 -0.7294  0.0128 -0.0001
  133MOL0     O18219  10.058   4.457   1.437 -0.2565  0.1537  0.1855
  133MOL0     C18220  10.148   4.493   1.338  0.4363 -0.6447  0.3541
  133MOL0     C18221  10.283   4.483   1.359  0.6277  0.5116  0.6403
  133MOL0     C18222  10.369   4.495   1.257 -1.1885 -0.7169  0.4092
  133MOL0     C18223  10.328   4.535   1.132 -0.2717  0.1396  0.3021
  133MOL0     O18224  10.434   4.545   1.045 -0.1105  0.6859  0.9735
  133MOL0     C18225  10.408   4.598   0.914  0.1335  0.6667 -0.8749
  133MOL0     C18226  10.523   4.550   0.820 -0.0461  0.2198  0.7707
  133MOL0     C18227  10.644   4.635   0.841  0.0808 -0.1795  0.8676
  133MOL0     C18228  10.753   4.606   0.738  0.6709  0.8759  0.0003
  133MOL0     C18229  10.717   4.659   0.600  0.5443  0.2446  0.2851
  133MOL0     C18230  10.666   4.805   0.581  0.3364 -0.5997  0.7369
  133MOL0     C18231  10.766   4.909   0.635  0.4902 -0.6991 -0.8585
  133MOL0     C18232  10.910   4.882   0.584  0.2741 -0.0903 -0.3044
  133MOL0     N18233  10.993   4.967   0.653 -1.2656 -0.0578 -0.1610
  133MOL0     C18234  11.078   4.913   0.748  0.3534  0.4908  0.9075
  133MOL0     C18235  11.155   5.015   0.777 -0.7044  0.0144 -0.6657
  133MOL0     C18236  11.268   5.017   0.876  0.3020 -0.1147 -0.3217
  133MOL0     C18237  11.245   4.925   1.006 -0.6791  0.2783 -1.0974
  133MOL0     C18238  11.348   4.970   1.104  0.4065  0.9265  0.1295
  133MOL0     C18239  11.492   4.912   1.087  0.3301 -0.3276  0.0201
  133MOL0     O18240  11.501   4.767   1.102 -0.2490  0.3897 -0.3739
  133MOL0     C18241  11.558   4.716   1.211  0.3264 -0.4212 -0.1878
  133MOL0     C18242  11.563   4.782   1.334 -0.6821 -0.6850  0.5441
  133MOL0     C18243  11.613   4.720   1.444 -0.2535  0.4697  0.2421
  133MOL0     C18244  11.613   4.805   1.574  0.3115  0.1373 -0.0737
  133MOL0     C18245  11.670   4.590   1.446 -0.4954 -0.5279 -0.2819
  133MOL0     C18246  11.741   4.518   1.564 -0.1092 -0.5278  0.2690
  133MOL0     O18247  11.811   4.404   1.539  0.2643 -0.4148 -0.1891
  133MOL0     C18248  11.882   4.354   1.643  0.0955  1.0784 -0.4864
  133MOL0     C18249  11.887   4.214   1.651 -0.8451  0.1800 -0.0910
  133MOL0     C18250  11.972   4.145   1.739 -0.2275  0.0575 -0.2252
  133MOL0     C18251  12.053   4.219   1.828 -0.3780 -0.4727  0.1539
  133MOL0     O18252  12.128   4.168   1.940  1.0434 -0.3446  0.3320
  133MOL0     C18253  12.200   4.053   1.895  1.4838  0.2270 -0.1176
  133MOL0     C18254  12.312   4.050   1.995  0.3970 -0.1359 -0.6727
  133MOL0     C18255  12.404   3.924   1.996  0.4325  0.0026 -0.0327
  133MOL0     C18256  12.384   3.843   2.128 -0.3656 -0.4155  0.3732
  133MOL0     C18257  12.443   3.702   2.111 -0.3942  0.0479 -0.5783
  133MOL0     C18258  12.423   3.635   2.252  0.3316 -0.6352  0.3205
  133MOL0     C18259  12.489   3.489   2.274 -0.0299 -0.4082 -0.1399
  133MOL0     C18260  12.643   3.508   2.292  0.5611  0.5529  0.2445
  133MOL0    Cl18261  12.733   3.362   2.274  0.2338  0.1286  0.3395
  133MOL0     C18262  12.048   4.365   1.815 -0.1140  0.6238  0.4227
  133MOL0     C18263  11.969   4.429   1.724 -1.1178  0.5775  0.1248
  133MOL0     O18264  11.725   4.570   1.672 -0.2686  0.1082 -0.2842
  133MOL0     C18265  11.681   4.537   1.319  0.3865 -0.1284  0.1134
  133MOL0     C18266  11.621   4.593   1.206 -0.3031 -0.1875  0.5227
  133MOL0     N18267  11.118   5.129   0.703 -0.6882  0.0728  0.4739
  133MOL0     N18268  11.025   5.098   0.628  0.0301  0.0684 -0.2610
  133MOL0     C18269  10.191   4.552   1.110 -0.3155 -0.3045  0.6009
  133MOL0     C18270  10.100   4.539   1.210  0.4531 -0.6142  0.2760
  133MOL0     C18271   9.893   4.284   1.495  0.5517 -0.6100  0.2878
  133MOL0     C18272   9.874   4.143   1.499 -0.2768 -0.1038  0.0994
  133MOL0     C18273   9.802   4.078   1.599  0.5338 -0.7716  0.6128
  133MOL0     C18274   9.736   4.156   1.702 -0.9548  0.6927 -0.3604
  133MOL0     O18275   9.677   4.085   1.805 -0.2042  0.0091  0.3741
  133MOL0     C18276   9.610   4.139   1.916 -0.5616  0.1978 -1.5482
  133MOL0     C18277   9.468   4.175   1.879  0.7754  0.4038 -1.0940
  133MOL0     C18278   9.360   4.192   1.992 -0.0186  0.1417 -1.0279
  133MOL0     C18279   9.220   4.125   1.952 -0.0506 -0.9723 -0.7495
  133MOL0     C18280   9.139   4.207   1.859  0.1044  0.3389 -0.1268
  133MOL0     C18281   9.082   4.256   1.765 -0.0999  0.2217  0.2838
  133MOL0     C18282   9.763   4.295   1.705 -0.0060  0.2545  0.4164
  133MOL0     C18283   9.831   4.362   1.595 -0.6948  0.1250  0.3053
  133MOL0     C18284   9.828   4.515   1.587 -0.7675  1.5205  0.0268
  133MOL0     H18285  10.318   4.449   1.456  3.6866 -1.4452 -0.9960
  133MOL0     H18286  10.475   4.477   1.274 -0.8463 -0.3241 -1.0998
  133MOL0     H18287  10.406   4.707   0.928  1.4443  0.6069 -0.0467
  133MOL0     H18288  10.315   4.555   0.876  0.8292 -0.9468 -0.8086
  133MOL0     H18289  10.548   4.445   0.839  0.3089 -0.2326 -1.8557
  133MOL0     H18290  10.495   4.562   0.715 -0.3327  2.1987  1.0473
  133MOL0     H18291  10.620   4.740   0.856 -0.3627 -0.0051 -0.8433
  133MOL0     H18292  10.684   4.602   0.937  1.0488 -0.4303  0.3961
  133MOL0     H18293  10.851   4.642   0.768  0.2908  0.9517  1.2083
  133MOL0     H18294  10.764   4.497   0.733 -0.6080  0.7245  0.0805
  133MOL0     H18295  10.646   4.589   0.555  2.5322 -0.5258 -1.8000
  133MOL0     H18296  10.801   4.644   0.533 -0.3538  2.6682 -1.5286
  133MOL0     H18297  10.645   4.832   0.478 -0.4362  1.3015  1.3508
  133MOL0     H18298  10.570   4.814   0.632 -0.8064 -1.3583 -1.1986
  133MOL0     H18299  10.770   4.910   0.744 -3.7285  3.4898 -0.4464
  133MOL0     H18300  10.721   5.005   0.612 -1.3543 -1.2815  0.1374
  133MOL0     H18301  10.945   4.780   0.603  0.4625 -0.0711 -0.5514
  133MOL0     H18302  10.911   4.892   0.475 -1.4374 -1.0734 -0.4606
  133MOL0     H18303  11.080   4.812   0.789  1.2431 -0.1563 -0.6528
  133MOL0     H18304  11.272   5.124   0.898  1.2529  0.0069 -0.9792
  133MOL0     H18305  11.361   4.986   0.827 -0.4288 -0.1974 -1.7272
  133MOL0     H18306  11.144   4.935   1.046 -0.3072  1.2440 -0.3723
  133MOL0     H18307  11.269   4.821   0.981 -1.5880 -0.5656  1.2482
  133MOL0     H18308  11.360   5.079   1.105  1.8967  0.8289  3.3112
  133MOL0     H18309  11.324   4.936   1.205  2.1055  0.4830  0.4020
  133MOL0     H18310  11.542   4.940   0.993  2.2637 -0.7551  0.8809
  133MOL0     H18311  11.560   4.967   1.153  1.5005  0.5618 -1.8299
  133MOL0     H18312  11.522   4.882   1.343  1.0840  0.3155 -1.5525
  133MOL0     H18313  11.719   4.819   1.595  0.6085  0.0088 -1.3669
  133MOL0     H18314  11.579   4.746   1.659  2.0109 -0.0819  0.4876
  133MOL0     H18315  11.548   4.893   1.579  0.6161  0.3230  0.7108
  133MOL0     H18316  11.832   4.157   1.576  0.9756  1.5184 -2.6050
  133MOL0     H18317  11.962   4.037   1.745 -0.2791  0.0274 -0.8030
  133MOL0     H18318  12.147   3.957   1.896 -1.8481  1.8943 -0.5779
  133MOL0     H18319  12.255   4.067   1.802 -1.0073  2.0373 -1.4349
  133MOL0     H18320  12.368   4.140   1.967 -1.3989  1.3850  0.4374
  133MOL0     H18321  12.281   4.076   2.096 -0.8454 -0.2736 -0.9923
  133MOL0     H18322  12.502   3.972   1.993 -0.9215  3.1920  1.8131
  133MOL0     H18323  12.388   3.866   1.904 -0.6582 -0.3258  0.3442
  133MOL0     H18324  12.280   3.841   2.161 -1.0067 -0.1869 -1.5108
  133MOL0     H18325  12.428   3.899   2.211 -1.4450 -1.5276  1.7589
  133MOL0     H18326  12.389   3.656   2.027 -0.6395 -0.5616 -0.0985
  133MOL0     H18327  12.549   3.696   2.084  0.3831  0.8686  2.0291
  133MOL0     H18328  12.314   3.626   2.250  0.3573 -1.7502  1.8955
  133MOL0     H18329  12.453   3.693   2.340  1.7119 -2.0598  0.8364
  133MOL0     H18330  12.451   3.435   2.187 -3.5554  0.1440  0.8974
  133MOL0     H18331  12.449   3.426   2.354  0.2700 -1.9714 -1.1783
  133MOL0     H18332  12.659   3.553   2.390  1.8840 -0.8781  0.7105
  133MOL0     H18333  12.679   3.573   2.212 -0.4532 -0.0972 -0.7746
  133MOL0     H18334  12.104   4.427   1.885  2.4126  1.2124 -1.9242
  133MOL0     H18335  11.976   4.534   1.697 -1.8533  0.0474 -2.3435
  133MOL0     H18336  11.734   4.443   1.303 -1.4333 -0.9179 -1.5722
  133MOL0     H18337  11.612   4.538   1.113 -0.8658 -0.8342  0.9500
  133MOL0     H18338  10.158   4.576   1.009  1.2826 -2.3302 -0.4740
  133MOL0     H18339   9.996   4.558   1.183  0.6176  0.2450  0.2154
  133MOL0     H18340   9.919   4.082   1.421  1.1331  0.6621  0.2953
  133MOL0     H18341   9.784   3.971   1.593 -2.5215 -0.3001 -3.1223
  133MOL0     H18342   9.617   4.074   2.003  0.2886 -1.3528 -2.7380
  133MOL0     H18343   9.660   4.229   1.952 -2.1083  0.6649 -0.4894
  133MOL0     H18344   9.424   4.086   1.833 -3.0783 -1.2533  4.7113
  133MOL0     H18345   9.483   4.261   1.814  0.9529  0.7790 -0.5648
  133MOL0     H18346   9.396   4.145   2.084  1.3707  1.9845 -0.5662
  133MOL0     H18347   9.363   4.298   2.021  1.4117 -0.9291  3.5973
  133MOL0     H18348   9.162   4.108   2.044  0.5674  1.3991  0.1568
  133MOL0     H18349   9.245   4.025   1.915  1.3420 -1.6137  1.6403
  133MOL0     H18350   9.021   4.297   1.687  1.4909  0.5613 -0.8441
  133MOL0     H18351   9.716   4.364   1.774 -1.6496  1.8752 -2.1277
  133MOL0     H18352   9.840   4.555   1.486  0.8360 -1.3833 -1.0269
  133MOL0     H18353   9.729   4.550   1.619 -2.2208 -2.5121  0.4249
  133MOL0     H18354   9.901   4.569   1.650 -0.4436  2.3323 -1.0108
  134MOL0     O18355   7.815   3.022   1.425  0.3396  0.0338 -0.6757
  134MOL0     C18356   7.702   2.978   1.416 -1.1561  0.3715 -0.2121
  134MOL0     O18357   7.664   2.854   1.468 -0.0850 -0.1732 -0.0954
  134MOL0     C18358   7.725   2.814   1.578 -0.0810  0.2224 -0.0220
  134MOL0     C18359   7.642   2.748   1.667 -0.4443  0.0606 -0.6986
  134MOL0     C18360   7.686   2.688   1.781  0.3989  0.2113 -0.5331
  134MOL0     C18361   7.823   2.695   1.815  0.6277  0.7733 -0.4827
  134MOL0     O18362   7.871   2.636   1.929  0.9346 -0.1376 -0.0560
  134MOL0     C18363   7.806   2.523   1.984 -0.0060  0.4440  0.3071
  134MOL0     C18364   7.872   2.490   2.114  0.2684  0.4981  0.3680
  134MOL0     C18365   7.861   2.594   2.213 -0.1104  0.4002 -0.2486
  134MOL0     C18366   7.975   2.585   2.311 -0.0729 -0.2536  0.5203
  134MOL0     C18367   7.965   2.673   2.440  0.9980 -0.3061  0.0226
  134MOL0     C18368   8.080   2.659   2.534 -0.9816 -0.3928 -0.0020
  134MOL0     C18369   8.052   2.585   2.670  0.5407 -0.5247  0.0289
  134MOL0     C18370   8.161   2.616   2.768  0.4834 -0.7936  1.0315
  134MOL0     N18371   8.292   2.567   2.724  0.6177 -0.0035 -0.6234
  134MOL0     C18372   8.381   2.628   2.657 -1.2581 -0.7333  0.4797
  134MOL0     C18373   8.494   2.559   2.671  0.7282 -0.0209  0.4688
  134MOL0     C18374   8.626   2.600   2.609 -0.9870  0.1964  0.3159
  134MOL0     C18375   8.703   2.713   2.680  0.0979 -0.6124 -0.4009
  134MOL0     C18376   8.850   2.721   2.637 -0.1670 -0.1866 -0.6412
  134MOL0     C18377   8.940   2.816   2.720  0.5276  0.0187 -0.9474
  134MOL0     O18378   8.898   2.956   2.713  0.5186  0.1693  0.1918
  134MOL0     C18379   8.923   3.028   2.597  0.4369  0.0352 -0.3646
  134MOL0     C18380   8.988   2.981   2.485  0.5682 -0.1074 -0.4431
  134MOL0     C18381   8.992   3.049   2.365 -1.2027  0.5570  0.5638
  134MOL0     C18382   9.064   2.976   2.255  0.7498 -0.6203 -0.2702
  134MOL0     C18383   8.939   3.185   2.355 -0.0900  0.7715  0.4940
  134MOL0     C18384   8.943   3.285   2.242 -0.8351 -0.7423 -0.1295
  134MOL0     O18385   8.885   3.411   2.271  0.0535  0.4809 -0.1876
  134MOL0     C18386   8.863   3.514   2.173 -0.2680  0.3545  0.1846
  134MOL0     C18387   8.867   3.643   2.229 -0.0470 -0.4375 -0.3322
  134MOL0     C18388   8.843   3.747   2.146 -0.0633  0.0343 -0.1104
  134MOL0     C18389   8.814   3.715   2.011 -0.7096 -0.5490  0.6675
  134MOL0     O18390   8.805   3.832   1.937 -0.3249 -0.2703  0.0399
  134MOL0     C18391   8.787   3.820   1.796 -0.2793 -0.2737 -0.0367
  134MOL0     C18392   8.815   3.946   1.715 -0.5280  0.2969  0.6046
  134MOL0     C18393   8.728   4.069   1.737 -0.2664 -0.7323 -0.1830
  134MOL0     C18394   8.739   4.175   1.618  0.2824 -0.0655 -0.1818
  134MOL0     C18395   8.718   4.311   1.674  0.3260 -0.1934 -0.1349
  134MOL0     C18396   8.574   4.352   1.709  0.1267 -1.0823 -0.1787
  134MOL0     C18397   8.560   4.500   1.762  0.6316  0.2860 -0.7326
  134MOL0     C18398   8.599   4.611   1.669  0.2750  0.0607  0.3239
  134MOL0    Cl18399   8.603   4.756   1.755  0.0481  0.4286 -0.5357
  134MOL0     C18400   8.817   3.590   1.958  0.2267  0.5212 -0.0860
  134MOL0     C18401   8.835   3.486   2.044  1.1726 -0.2909  0.3818
  134MOL0     O18402   8.980   3.242   2.128  0.6351  0.4697  0.3645
  134MOL0     C18403   8.863   3.219   2.470  0.0664  0.4320  1.2746
  134MOL0     C18404   8.854   3.145   2.586  1.1064  0.0121 -0.4253
  134MOL0     N18405   8.468   2.451   2.756  0.4008 -0.1348  0.2100
  134MOL0     N18406   8.346   2.454   2.778  1.0964 -0.4001 -0.0687
  134MOL0     C18407   7.912   2.739   1.729 -0.6958 -0.0373 -0.4227
  134MOL0     C18408   7.864   2.810   1.611 -0.7392 -0.2505  0.3621
  134MOL0     C18409   7.608   3.046   1.338  0.0631 -0.5596  0.1633
  134MOL0     C18410   7.495   2.961   1.285 -0.8058  0.2474  0.2941
  134MOL0     C18411   7.400   3.021   1.195 -0.4551 -0.8736  0.3015
  134MOL0     C18412   7.397   3.159   1.173  0.0235  0.3642  0.0794
  134MOL0     O18413   7.285   3.215   1.109 -0.0137 -0.5541  0.2966
  134MOL0     C18414   7.298   3.215   0.966 -0.3228  0.3615  0.0823
  134MOL0     C18415   7.201   3.320   0.907  0.3506 -0.0184  0.0449
  134MOL0     C18416   7.242   3.462   0.954  0.0991  0.6230 -0.3186
  134MOL0     C18417   7.220   3.572   0.846  0.3126  0.2785 -0.2902
  134MOL0     C18418   7.227   3.705   0.904 -0.1096 -0.4914 -0.6310
  134MOL0     C18419   7.234   3.821   0.945  0.2914  0.4111 -0.4700
  134MOL0     C18420   7.497   3.247   1.224  0.0505  0.2381  0.1310
  134MOL0     C18421   7.594   3.188   1.310 -0.5933 -0.3251  0.0217
  134MOL0     C18422   7.705   3.287   1.349  0.6683  0.3568  0.6480
  134MOL0     H18423   7.542   2.720   1.636  0.4018 -4.3183 -0.1314
  134MOL0     H18424   7.611   2.648   1.849  1.0839 -0.3145 -0.0717
  134MOL0     H18425   7.815   2.445   1.908  1.1165  1.2458 -0.4069
  134MOL0     H18426   7.700   2.551   1.994  0.2784  1.0727  1.9148
  134MOL0     H18427   7.822   2.405   2.163 -1.7931  1.1588 -0.4993
  134MOL0     H18428   7.970   2.446   2.094 -0.4174 -2.1032  2.0848
  134MOL0     H18429   7.878   2.693   2.171  3.9061  0.5160  1.1631
  134MOL0     H18430   7.760   2.600   2.255 -0.2544  0.3189 -0.5834
  134MOL0     H18431   7.988   2.481   2.345 -3.2166 -0.2338  2.2349
  134MOL0     H18432   8.064   2.614   2.256 -1.1076  2.0061 -0.0895
  134MOL0     H18433   7.868   2.651   2.486 -0.0186  3.1195 -0.2173
  134MOL0     H18434   7.958   2.780   2.417 -3.7541 -0.0774  1.5131
  134MOL0     H18435   8.170   2.618   2.488  0.7717  1.1775  1.8425
  134MOL0     H18436   8.122   2.758   2.550  0.0962 -1.1104  1.8879
  134MOL0     H18437   8.047   2.476   2.664  2.0494 -0.5349 -2.1032
  134MOL0     H18438   7.953   2.602   2.713 -0.0530 -1.4480 -0.9140
  134MOL0     H18439   8.170   2.722   2.793  0.3753 -1.2045  2.9366
  134MOL0     H18440   8.117   2.567   2.855 -1.6646 -0.2534  0.3237
  134MOL0     H18441   8.370   2.716   2.595  2.3109 -0.7201 -0.3667
  134MOL0     H18442   8.599   2.633   2.509  0.9524  0.5814 -0.1235
  134MOL0     H18443   8.678   2.505   2.592 -3.4064 -1.0189 -0.8748
  134MOL0     H18444   8.647   2.807   2.675  0.3905 -0.5059 -2.4158
  134MOL0     H18445   8.701   2.680   2.784 -0.1270 -0.2707 -0.2940
  134MOL0     H18446   8.871   2.614   2.643 -0.2350 -0.1995 -0.6372
  134MOL0     H18447   8.852   2.746   2.531 -1.2641 -1.0806 -0.9021
  134MOL0     H18448   8.920   2.795   2.825  1.2688  0.5377 -0.7003
  134MOL0     H18449   9.049   2.813   2.708  1.4628  1.8628  4.6636
  134MOL0     H18450   9.037   2.884   2.489 -0.8526 -0.8675 -0.9206
  134MOL0     H18451   9.166   3.008   2.277  0.5512  0.4895 -0.9076
  134MOL0     H18452   9.047   3.021   2.157  1.0161  2.2271  0.8923
  134MOL0     H18453   9.052   2.867   2.263  2.1182 -0.6719  1.7910
  134MOL0     H18454   8.902   3.666   2.329  1.4900 -0.2865 -0.8883
  134MOL0     H18455   8.852   3.849   2.181  0.7445 -0.5974  1.6425
  134MOL0     H18456   8.843   3.736   1.755  0.2904 -0.0806  0.3463
  134MOL0     H18457   8.682   3.799   1.771  0.6308 -1.6534 -3.1855
  134MOL0     H18458   8.917   3.984   1.727 -0.9788  1.0311  2.6019
  134MOL0     H18459   8.802   3.923   1.609  1.7776 -0.4065  0.3994
  134MOL0     H18460   8.756   4.109   1.835  1.2547 -3.2682  0.5154
  134MOL0     H18461   8.623   4.042   1.729  0.3311 -3.3466 -0.2645
  134MOL0     H18462   8.665   4.150   1.542  2.5319 -2.0039 -1.8813
  134MOL0     H18463   8.841   4.159   1.583  0.1436 -1.1779 -0.1336
  134MOL0     H18464   8.778   4.333   1.762  0.9721  0.6431 -0.7614
  134MOL0     H18465   8.751   4.391   1.606  1.2148 -0.9137 -0.5723
  134MOL0     H18466   8.543   4.286   1.791  0.1529 -0.4434  0.3522
  134MOL0     H18467   8.507   4.331   1.625 -0.4112  0.5510 -0.1946
  134MOL0     H18468   8.619   4.506   1.853  1.1334  0.9952 -1.0968
  134MOL0     H18469   8.455   4.526   1.781  0.7627  0.8111 -0.7245
  134MOL0     H18470   8.533   4.622   1.582  0.9359 -0.2162 -0.2277
  134MOL0     H18471   8.686   4.589   1.605  0.8311  1.7863  0.4228
  134MOL0     H18472   8.791   3.575   1.854  2.9312 -1.9086 -0.5268
  134MOL0     H18473   8.815   3.384   2.010 -2.2668  0.3832  0.0146
  134MOL0     H18474   8.793   3.302   2.467 -3.0204 -1.9922 -1.3604
  134MOL0     H18475   8.778   3.164   2.661  0.0071  1.1225 -1.7578
  134MOL0     H18476   8.016   2.729   1.758  0.1206  2.9971 -1.9698
  134MOL0     H18477   7.935   2.845   1.536  0.0733  0.8500  1.6065
  134MOL0     H18478   7.481   2.861   1.325 -2.7572  0.5713  0.5426
  134MOL0     H18479   7.318   2.962   1.156 -2.8518  2.3985  0.0600
  134MOL0     H18480   7.398   3.249   0.937 -0.2181  1.3770  1.5199
  134MOL0     H18481   7.265   3.119   0.925  0.8217 -0.0614  0.1345
  134MOL0     H18482   7.098   3.294   0.932  0.6181 -0.3840  0.7896
  134MOL0     H18483   7.212   3.310   0.799 -0.5775 -3.0667  0.1572
  134MOL0     H18484   7.180   3.482   1.042  1.5488  2.2740  0.3852
  134MOL0     H18485   7.344   3.480   0.989  0.8808 -3.1302 -0.2227
  134MOL0     H18486   7.117   3.560   0.811 -0.1011 -0.8498  1.2276
  134MOL0     H18487   7.289   3.554   0.763 -1.8045 -2.0136 -1.6902
  134MOL0     H18488   7.224   3.922   0.979  1.0008  1.6017 -3.5619
  134MOL0     H18489   7.484   3.353   1.204 -1.6984  0.4825  2.1671
  134MOL0     H18490   7.706   3.292   1.458 -1.7331  0.6077  0.7036
  134MOL0     H18491   7.800   3.255   1.303  1.2578  2.4021  0.3223
  134MOL0     H18492   7.691   3.389   1.312  0.9025  0.2692  0.3033
  135MOL0     O18493   9.554   7.361  10.362 -0.2583  0.4696  0.4630
  135MOL0     C18494   9.650   7.428  10.404 -0.0179 -0.5415 -0.0510
  135MOL0     O18495   9.776   7.407  10.376  0.7202  0.1217  0.2217
  135MOL0     C18496   9.825   7.312  10.292  0.9875 -0.4223  0.9364
  135MOL0     C18497   9.917   7.337  10.189 -0.0381 -0.9448  0.4708
  135MOL0     C18498   9.945   7.245  10.094  0.2406 -1.4934 -0.8723
  135MOL0     C18499   9.907   7.111  10.102 -0.8638 -0.4162  0.5313
  135MOL0     O18500   9.923   7.020   9.994 -0.4084 -0.8830 -0.5534
  135MOL0     C18501   9.891   7.070   9.866 -0.3634  0.0284 -0.3050
  135MOL0     C18502   9.738   7.078   9.833  0.0538 -0.0628 -0.2694
  135MOL0     C18503   9.685   7.212   9.904  0.1970 -0.0889  0.1529
  135MOL0     C18504   9.541   7.244   9.853 -0.3343 -0.5653 -0.5170
  135MOL0     C18505   9.478   7.356   9.935 -0.6221 -0.5112  1.0869
  135MOL0     C18506   9.526   7.500   9.915  0.4446  0.4628 -0.7763
  135MOL0     C18507   9.635   7.540  10.010 -1.2303  0.6492 -0.2275
  135MOL0     C18508   9.643   7.692  10.014  0.4703 -0.0900  0.0226
  135MOL0     N18509   9.774   7.732  10.062  0.2356 -0.0443 -0.7532
  135MOL0     C18510   9.804   7.718  10.195  0.3021 -0.2333  0.4540
  135MOL0     C18511   9.941   7.720  10.203 -0.0153 -0.6719 -1.5840
  135MOL0     C18512  10.022   7.693  10.320 -0.1333  0.5565 -0.2585
  135MOL0     C18513  10.131   7.801  10.342  0.5776 -0.2966 -0.1807
  135MOL0     C18514  10.085   7.945  10.302  1.0452  0.6046  0.4539
  135MOL0     C18515  10.172   8.049  10.366 -0.5710 -0.3138  1.0396
  135MOL0     O18516  10.145   8.178  10.320  0.7449 -0.0708  0.3453
  135MOL0     C18517  10.033   8.254  10.369 -0.0021  0.4184  0.4416
  135MOL0     C18518   9.983   8.235  10.497 -0.0922  0.3460 -0.4518
  135MOL0     C18519   9.871   8.302  10.546 -0.4157 -0.0273  0.3765
  135MOL0     C18520   9.817   8.275  10.679 -1.0802  0.5248  0.2574
  135MOL0     C18521   9.809   8.398  10.461  0.4027 -0.0057 -0.8797
  135MOL0     C18522   9.685   8.468  10.493  0.2227  0.4150  0.8591
  135MOL0     O18523   9.675   8.596  10.444 -0.2064  0.7215  0.3223
  135MOL0     C18524   9.555   8.676  10.451 -0.2369 -0.1643  0.0641
  135MOL0     C18525   9.427   8.629  10.445 -0.2427 -0.2338 -0.0825
  135MOL0     C18526   9.315   8.714  10.446  0.4116 -0.7354  0.9429
  135MOL0     C18527   9.331   8.857  10.445  0.1724 -0.6960  0.0908
  135MOL0     O18528   9.222   8.940  10.437  0.6404  0.5004  0.7122
  135MOL0     C18529   9.235   9.081  10.444 -0.9317 -0.0974  0.2398
  135MOL0     C18530   9.091   9.149  10.431 -0.4407  0.3581 -0.7261
  135MOL0     C18531   9.077   9.290  10.393  0.2660 -0.4756  0.7385
  135MOL0     C18532   9.134   9.340  10.258 -0.2124 -0.0345 -0.7905
  135MOL0     C18533   9.142   9.494  10.253  0.6086  0.7707 -0.2046
  135MOL0     C18534   9.239   9.538  10.154 -0.0992 -0.0219  0.9204
  135MOL0     C18535   9.239   9.697  10.136 -0.0158 -1.5269  0.6409
  135MOL0     C18536   9.288   9.758  10.010  0.4215 -0.0989 -0.6182
  135MOL0    Cl18537   9.224   9.676   9.866 -0.3545 -0.0877  0.1790
  135MOL0     C18538   9.458   8.906  10.454 -0.4341 -0.2123  0.2389
  135MOL0     C18539   9.567   8.817  10.444  0.0575 -0.2894 -0.6970
  135MOL0     O18540   9.600   8.412  10.552 -0.0337 -0.4813 -0.4847
  135MOL0     C18541   9.878   8.442  10.343  0.0248  0.7089 -0.3322
  135MOL0     C18542   9.986   8.357  10.296  0.6804  0.2340  0.3466
  135MOL0     N18543   9.981   7.747  10.070 -0.5659 -1.2817  0.4375
  135MOL0     N18544   9.882   7.743   9.986 -0.1237 -0.1357  0.3733
  135MOL0     C18545   9.844   7.072  10.215  1.2345  0.3381 -0.0007
  135MOL0     C18546   9.794   7.170  10.312 -0.2599 -0.2716 -0.1659
  135MOL0     C18547   9.620   7.527  10.509 -0.2604  0.3341  0.2072
  135MOL0     C18548   9.697   7.531  10.623  0.2511 -0.5437 -0.4376
  135MOL0     C18549   9.680   7.632  10.722  0.9148  0.0134 -0.6180
  135MOL0     C18550   9.574   7.725  10.702  0.0053  0.1652 -0.6041
  135MOL0     O18551   9.551   7.823  10.798 -0.7753 -0.3285  0.0483
  135MOL0     C18552   9.628   7.835  10.924  0.2388  0.1070  0.3468
  135MOL0     C18553   9.606   7.976  10.988 -0.6891  0.4884  1.3001
  135MOL0     C18554   9.700   8.014  11.100 -0.5002 -0.1854 -0.6008
  135MOL0     C18555   9.706   8.167  11.121 -0.6601 -0.4626  0.2713
  135MOL0     C18556   9.807   8.202  11.215 -1.9593 -0.5148  0.1038
  135MOL0     C18557   9.896   8.239  11.297 -0.0020 -0.1508 -0.2107
  135MOL0     C18558   9.496   7.721  10.588 -0.4755  0.3511  0.9025
  135MOL0     C18559   9.517   7.621  10.492  0.5798  0.2783 -0.3148
  135MOL0     C18560   9.439   7.626  10.364  0.3521  0.3020  0.1866
  135MOL0     H18561   9.960   7.436  10.186 -1.0126 -0.4740  1.2359
  135MOL0     H18562  10.011   7.279  10.015 -0.0395 -0.3791 -0.6420
  135MOL0     H18563   9.922   6.989   9.799  0.5556 -0.0782  0.2316
  135MOL0     H18564   9.939   7.165   9.842  0.2728 -0.1142  0.3498
  135MOL0     H18565   9.729   7.087   9.725 -1.8693  0.4273 -0.1068
  135MOL0     H18566   9.697   6.983   9.869  0.6979  0.8617  3.3675
  135MOL0     H18567   9.683   7.196  10.012 -3.4769  1.2537  0.4252
  135MOL0     H18568   9.747   7.295   9.869  0.5267 -0.8477 -1.1319
  135MOL0     H18569   9.551   7.266   9.746  1.1304  1.2226 -0.0550
  135MOL0     H18570   9.478   7.156   9.870 -1.8788  0.5543 -0.2083
  135MOL0     H18571   9.472   7.333  10.042 -3.2973 -1.2825  0.8496
  135MOL0     H18572   9.376   7.355   9.895  0.9044 -3.2040 -3.4944
  135MOL0     H18573   9.562   7.512   9.812  1.9043 -0.8888 -0.4652
  135MOL0     H18574   9.433   7.557   9.926 -0.2646 -0.6792 -0.7817
  135MOL0     H18575   9.731   7.500   9.977 -1.5672  0.1902 -0.6647
  135MOL0     H18576   9.619   7.503  10.112  0.3810 -2.5469 -1.0091
  135MOL0     H18577   9.634   7.733   9.913  0.8074 -1.1820 -0.4679
  135MOL0     H18578   9.566   7.738  10.077  1.2183 -0.6978  1.4227
  135MOL0     H18579   9.732   7.698  10.273  0.2612  0.1966  0.5341
  135MOL0     H18580  10.075   7.598  10.305  2.7006  2.0467 -0.3378
  135MOL0     H18581   9.948   7.688  10.400 -0.9742  1.7984 -0.9333
  135MOL0     H18582  10.158   7.794  10.448  0.5500  0.3884 -0.1268
  135MOL0     H18583  10.215   7.781  10.275 -0.5619  0.1372 -1.8140
  135MOL0     H18584  10.087   7.963  10.194  3.2428  0.4996  0.4229
  135MOL0     H18585   9.979   7.964  10.321  0.9924  0.9839 -0.1978
  135MOL0     H18586  10.165   8.047  10.475 -0.8984 -1.4692  1.0067
  135MOL0     H18587  10.275   8.019  10.341 -1.4880 -4.0567  1.1228
  135MOL0     H18588  10.017   8.156  10.563  2.0129  2.7683  1.5664
  135MOL0     H18589   9.800   8.368  10.735 -1.2602  0.2210  0.7153
  135MOL0     H18590   9.894   8.221  10.735  1.3318 -0.9455 -3.9997
  135MOL0     H18591   9.723   8.218  10.681 -0.9724  0.3691  1.3476
  135MOL0     H18592   9.409   8.522  10.437 -1.5232 -0.0648  0.3031
  135MOL0     H18593   9.227   8.652  10.435  1.4984 -2.0583 -0.5600
  135MOL0     H18594   9.278   9.091  10.544  0.2808  3.0459 -0.4740
  135MOL0     H18595   9.311   9.123  10.378 -0.4985  0.9868  1.3733
  135MOL0     H18596   9.035   9.095  10.354 -1.9769  2.2212 -0.9903
  135MOL0     H18597   9.047   9.134  10.530 -0.0711  0.4872 -0.5426
  135MOL0     H18598   9.137   9.347  10.464 -0.4498  0.6457  0.4652
  135MOL0     H18599   8.969   9.304  10.396 -0.2056 -3.0969 -0.7669
  135MOL0     H18600   9.059   9.310  10.184 -1.1808 -0.5491  0.3519
  135MOL0     H18601   9.231   9.291  10.247 -1.1737 -1.9697 -1.0465
  135MOL0     H18602   9.043   9.534  10.233  0.0202 -1.0889 -1.3143
  135MOL0     H18603   9.176   9.532  10.350  0.2222  2.4601 -0.7077
  135MOL0     H18604   9.243   9.489  10.056  0.3416  2.2081 -0.2301
  135MOL0     H18605   9.334   9.497  10.191  0.3971 -2.6011 -2.6606
  135MOL0     H18606   9.281   9.750  10.222  0.4460 -0.7361 -0.0594
  135MOL0     H18607   9.135   9.729  10.148  0.2952  1.2298 -2.6401
  135MOL0     H18608   9.394   9.730  10.015  0.2333 -0.5573  1.4342
  135MOL0     H18609   9.266   9.865  10.014  3.6529  0.6468  0.3676
  135MOL0     H18610   9.486   9.011  10.452  2.3464 -0.8845 -0.9207
  135MOL0     H18611   9.665   8.865  10.440  0.0889 -0.4251 -3.9849
  135MOL0     H18612   9.833   8.521  10.283  1.0538  3.3959  2.1638
  135MOL0     H18613  10.034   8.374  10.201  0.1913 -0.0635  0.0415
  135MOL0     H18614   9.816   6.968  10.225 -1.1543  0.7074 -1.8497
  135MOL0     H18615   9.749   7.131  10.402  0.2371 -0.7893 -0.1377
  135MOL0     H18616   9.779   7.460  10.631  1.1448  0.4142 -0.9882
  135MOL0     H18617   9.746   7.630  10.808  2.3170 -5.0945 -1.4987
  135MOL0     H18618   9.600   7.764  11.002 -0.8341 -1.6025 -1.5189
  135MOL0     H18619   9.735   7.824  10.906  0.1606 -1.0521  0.5170
  135MOL0     H18620   9.502   7.997  11.014 -0.4770  1.1089  1.6800
  135MOL0     H18621   9.627   8.051  10.911  1.2706 -1.4643 -0.1742
  135MOL0     H18622   9.665   7.954  11.185  1.2362 -2.3662 -1.3160
  135MOL0     H18623   9.802   7.981  11.077  0.7398  0.3842  3.3019
  135MOL0     H18624   9.609   8.205  11.154 -0.5742  1.4215 -1.4466
  135MOL0     H18625   9.720   8.213  11.023 -0.7891 -3.5510 -1.3501
  135MOL0     H18626   9.984   8.264  11.351  1.1992 -3.3514 -0.4810
  135MOL0     H18627   9.420   7.797  10.574 -1.7968 -0.6190  2.4523
  135MOL0     H18628   9.365   7.703  10.386 -0.9713 -0.5849 -1.0296
  135MOL0     H18629   9.499   7.650  10.276 -0.4785  0.0981 -0.4363
  135MOL0     H18630   9.379   7.536  10.351 -0.3086  0.7837 -0.1652
  136MOL0     O18631   3.869   8.815  10.141 -0.0144 -0.2814  0.2856
  136MOL0     C18632   3.754   8.779  10.140  0.8195  0.3201  0.1005
  136MOL0     O18633   3.643   8.842  10.203  0.0368 -1.0276 -0.8488
  136MOL0     C18634   3.648   8.956  10.277 -0.4617 -0.4157 -0.0665
  136MOL0     C18635   3.638   9.077  10.206  0.1802  0.7774 -0.8108
  136MOL0     C18636   3.638   9.196  10.270  0.7690 -0.1513 -0.4236
  136MOL0     C18637   3.668   9.199  10.408 -0.4345 -0.4468  0.4113
  136MOL0     O18638   3.651   9.313  10.486  0.0038  0.2126  0.1384
  136MOL0     C18639   3.636   9.445  10.435  0.4528 -0.2447  1.0756
  136MOL0     C18640   3.766   9.500  10.366 -0.0001 -0.2350 -0.7282
  136MOL0     C18641   3.885   9.521  10.464  1.2903 -0.0065  0.2212
  136MOL0     C18642   3.965   9.638  10.417 -0.0288  0.2821 -0.1085
  136MOL0     C18643   4.090   9.640  10.500 -0.4739  0.8556  0.4660
  136MOL0     C18644   4.173   9.766  10.462  0.6236  0.4167  0.1687
  136MOL0     C18645   4.286   9.779  10.561  0.1118 -0.1502  0.7389
  136MOL0     C18646   4.390   9.870  10.504  0.1263 -0.3072  0.9053
  136MOL0     N18647   4.515   9.855  10.586 -0.0371 -0.1562  0.3782
  136MOL0     C18648   4.584   9.949  10.663  0.0225 -0.5416  0.3752
  136MOL0     C18649   4.668   9.877  10.736  0.3677 -0.6936 -0.0310
  136MOL0     C18650   4.762   9.923  10.849 -0.2965 -0.0210  0.6106
  136MOL0     C18651   4.803  10.075  10.823  0.0655  0.4848 -0.2151
  136MOL0     C18652   4.926  10.100  10.904 -0.5936 -0.0197 -1.0617
  136MOL0     C18653   5.006  10.241  10.884  0.5913  0.7425 -0.1377
  136MOL0     O18654   5.102  10.245  10.993 -0.3004  0.5078 -0.0278
  136MOL0     C18655   5.200  10.342  11.004 -0.3811  0.1992 -0.7194
  136MOL0     C18656   5.210  10.464  10.934 -0.2137 -0.3593  1.1149
  136MOL0     C18657   5.302  10.567  10.956  0.1627 -0.7445 -0.2632
  136MOL0     C18658   5.299  10.680  10.862  0.9371 -0.4908  0.1447
  136MOL0     C18659   5.392  10.539  11.062 -1.7517 -0.5840  1.0025
  136MOL0     C18660   5.490  10.642  11.106  0.4176 -0.1352  0.4275
  136MOL0     O18661   5.527  10.628  11.226 -0.1380 -0.2829 -0.3675
  136MOL0     C18662   5.655  10.651  11.270 -0.1391 -0.4062 -0.0547
  136MOL0     C18663   5.662  10.678  11.411 -0.0472 -0.4214  0.9741
  136MOL0     C18664   5.782  10.720  11.465 -0.3299 -0.0764  0.5457
  136MOL0     C18665   5.900  10.731  11.387  0.2292  0.9178  0.1223
  136MOL0     O18666   6.028  10.758  11.433 -0.5772 -0.9371  0.3851
  136MOL0     C18667   6.055  10.706  11.563  0.1383  0.2364  0.3699
  136MOL0     C18668   6.203  10.662  11.581 -0.7146  0.3823 -0.6725
  136MOL0     C18669   6.291  10.783  11.618 -0.6029  0.3089 -0.2878
  136MOL0     C18670   6.428  10.737  11.687  0.4820  0.3758 -0.0250
  136MOL0     C18671   6.477  10.851  11.773  0.1555 -0.4482  0.9183
  136MOL0     C18672   6.601  10.813  11.859  0.2025  0.2015 -0.5161
  136MOL0     C18673   6.642  10.933  11.941  0.7295 -0.9316 -0.3070
  136MOL0     C18674   6.706  10.898  12.069 -0.1212  0.7761  0.3798
  136MOL0    Cl18675   6.776  11.032  12.153 -0.7947 -0.1541 -0.0594
  136MOL0     C18676   5.898  10.701  11.253 -0.4041 -0.2461  0.7872
  136MOL0     C18677   5.779  10.658  11.193  1.0337  0.7894 -0.4411
  136MOL0     O18678   5.533  10.717  11.021 -0.6541 -0.2102 -0.3536
  136MOL0     C18679   5.396  10.409  11.121  0.8103 -0.8809 -0.2025
  136MOL0     C18680   5.291  10.317  11.100  0.2116  0.1116 -0.3776
  136MOL0     N18681   4.658   9.746  10.710  0.1496  0.9503  0.0747
  136MOL0     N18682   4.583   9.733  10.608 -0.3318 -0.1742 -0.0915
  136MOL0     C18683   3.688   9.071  10.478 -0.9402 -0.3545 -0.5527
  136MOL0     C18684   3.668   8.948  10.408 -0.2271  0.2678  0.0968
  136MOL0     C18685   3.731   8.652  10.067  0.1682  0.0602  0.9612
  136MOL0     C18686   3.823   8.625   9.961 -0.4714 -0.8974 -0.0236
  136MOL0     C18687   3.817   8.514   9.881 -0.6297  0.5611  0.2613
  136MOL0     C18688   3.721   8.420   9.897  0.2213  0.2471  0.2160
  136MOL0     O18689   3.723   8.317   9.804  0.4346 -0.5325  0.2608
  136MOL0     C18690   3.625   8.215   9.801  0.0183  1.0342 -0.7008
  136MOL0     C18691   3.686   8.074   9.823  0.8886  0.3980 -0.1107
  136MOL0     C18692   3.559   7.979   9.813 -0.9330 -0.1176  0.1604
  136MOL0     C18693   3.526   7.953   9.667 -0.1309  0.5053  0.2223
  136MOL0     C18694   3.547   7.811   9.634  0.5570 -0.2678  0.6308
  136MOL0     C18695   3.563   7.694   9.605  0.2158 -0.0163 -0.5430
  136MOL0     C18696   3.630   8.442  10.011  0.0080  0.5166 -1.0040
  136MOL0     C18697   3.630   8.563  10.081 -0.3805  0.1838  0.0304
  136MOL0     C18698   3.523   8.592  10.186 -0.7184 -0.0295  0.0284
  136MOL0     H18699   3.630   9.067  10.098 -0.2152  0.7295 -0.7792
  136MOL0     H18700   3.611   9.278  10.204 -1.6962 -0.8278 -0.3448
  136MOL0     H18701   3.612   9.516  10.514  1.7867  2.0855 -0.4837
  136MOL0     H18702   3.548   9.450  10.370 -0.1798 -0.5856  1.8904
  136MOL0     H18703   3.788   9.420  10.295  3.5797 -0.5057  0.5096
  136MOL0     H18704   3.740   9.596  10.320  5.3267  1.5618 -0.6795
  136MOL0     H18705   3.840   9.537  10.562 -3.0956  0.7462 -1.6889
  136MOL0     H18706   3.950   9.433  10.461  2.2615  0.7154 -1.0967
  136MOL0     H18707   3.994   9.633  10.311  0.8994 -1.3672  0.1862
  136MOL0     H18708   3.901   9.725  10.428 -0.3695  0.1607 -0.9854
  136MOL0     H18709   4.140   9.549  10.465  0.3550  1.4921 -0.0117
  136MOL0     H18710   4.048   9.636  10.601 -2.6243  0.1529 -0.3800
  136MOL0     H18711   4.202   9.753  10.357  0.8518 -2.8463  0.5242
  136MOL0     H18712   4.104   9.850  10.475  0.5905  0.7196 -1.6806
  136MOL0     H18713   4.329   9.679  10.576  2.3267  0.6430  0.1725
  136MOL0     H18714   4.249   9.819  10.656  2.8217  3.2424  0.5826
  136MOL0     H18715   4.406   9.859  10.397 -0.5004  3.1331  0.3614
  136MOL0     H18716   4.352   9.972  10.507 -0.5607 -0.3792 -2.0631
  136MOL0     H18717   4.555  10.054  10.656 -1.2619 -0.8401  0.8897
  136MOL0     H18718   4.836   9.843  10.850 -0.5735 -0.2941  0.0077
  136MOL0     H18719   4.709   9.923  10.945 -2.5418 -0.7516 -0.5395
  136MOL0     H18720   4.816  10.061  10.715 -1.5880 -0.2840 -0.3431
  136MOL0     H18721   4.714  10.134  10.850 -1.0970  0.2171 -3.0994
  136MOL0     H18722   4.888  10.090  11.006 -0.3589 -3.0741 -1.1751
  136MOL0     H18723   5.001  10.021  10.892 -1.5703 -0.9071 -1.5448
  136MOL0     H18724   5.061  10.239  10.789 -0.7786 -3.2023 -1.0458
  136MOL0     H18725   4.941  10.328  10.886 -0.9556 -0.3683  0.1313
  136MOL0     H18726   5.131  10.495  10.867  0.9915  2.6032  0.8985
  136MOL0     H18727   5.241  10.656  10.772  0.2805 -1.4487  0.8047
  136MOL0     H18728   5.394  10.716  10.821  1.1087 -0.1486  0.8407
  136MOL0     H18729   5.244  10.762  10.908  1.2743 -0.4178  0.4243
  136MOL0     H18730   5.566  10.687  11.461 -0.9050  2.1143 -0.8970
  136MOL0     H18731   5.789  10.749  11.570  0.3954  0.1584  0.4442
  136MOL0     H18732   6.025  10.777  11.641 -1.2583  0.0011  0.0735
  136MOL0     H18733   5.999  10.615  11.588  1.4850 -0.9173 -0.6391
  136MOL0     H18734   6.205  10.587  11.660 -1.4620  0.0340 -0.9660
  136MOL0     H18735   6.238  10.606  11.493  3.1370  2.1574 -0.4748
  136MOL0     H18736   6.235  10.838  11.694 -1.8834  0.4644 -1.3120
  136MOL0     H18737   6.316  10.844  11.531  0.1870 -0.3261 -0.5244
  136MOL0     H18738   6.512  10.709  11.622 -0.2045  1.1775 -1.3101
  136MOL0     H18739   6.408  10.655  11.756 -2.6979  0.1355 -1.0852
  136MOL0     H18740   6.512  10.931  11.708  1.9741 -0.7719  1.4521
  136MOL0     H18741   6.397  10.890  11.837 -0.0427  1.4854 -0.4256
  136MOL0     H18742   6.692  10.789  11.803  1.5570  1.6268  0.9343
  136MOL0     H18743   6.575  10.733  11.929  1.0162  3.1073  3.5107
  136MOL0     H18744   6.557  10.991  11.978 -2.1083 -5.5539  1.1072
  136MOL0     H18745   6.697  10.993  11.867 -2.6645  2.3567 -0.4649
  136MOL0     H18746   6.788  10.830  12.043 -0.6552  0.8814 -1.6977
  136MOL0     H18747   6.632  10.845  12.130  1.8843 -1.9733  0.6168
  136MOL0     H18748   5.991  10.706  11.197 -1.5116 -0.0029 -1.1147
  136MOL0     H18749   5.777  10.635  11.087 -0.3713  0.2459 -0.3143
  136MOL0     H18750   5.472  10.377  11.192  4.4227  0.7669 -2.9895
  136MOL0     H18751   5.290  10.221  11.149  3.1833  1.5018  2.8205
  136MOL0     H18752   3.687   9.073  10.586  3.2363  2.5370 -0.3364
  136MOL0     H18753   3.683   8.851  10.455  0.6584  0.9145  1.2141
  136MOL0     H18754   3.896   8.700   9.933 -0.5428  0.1405  2.2725
  136MOL0     H18755   3.896   8.511   9.806 -1.3281  2.9519 -0.6806
  136MOL0     H18756   3.552   8.224   9.882 -1.2924 -2.2490 -1.3486
  136MOL0     H18757   3.567   8.223   9.709  0.0978  0.7048 -0.7798
  136MOL0     H18758   3.724   8.068   9.925  0.6047  2.5255  0.1788
  136MOL0     H18759   3.771   8.058   9.755  0.5213  1.2747 -0.7980
  136MOL0     H18760   3.578   7.884   9.863 -4.5539 -0.4182  1.1914
  136MOL0     H18761   3.474   8.021   9.867 -0.9824  1.4332 -1.0220
  136MOL0     H18762   3.593   8.001   9.595 -0.6063 -0.1924 -0.7049
  136MOL0     H18763   3.421   7.976   9.648 -0.9323 -2.1787  0.9538
  136MOL0     H18764   3.583   7.593   9.576  2.1572  0.1528  0.1112
  136MOL0     H18765   3.551   8.374  10.040  0.8171  0.0724  0.2454
  136MOL0     H18766   3.576   8.582  10.282 -1.8209  2.6396  1.0073
  136MOL0     H18767   3.466   8.685  10.184  0.5590  0.7919  0.3668
  136MOL0     H18768   3.456   8.506  10.189 -0.7327 -0.1662 -2.4669
  137MOL0     O18769   4.700   2.270   9.948 -0.0080  0.4219 -0.3655
  137MOL0     C18770   4.777   2.323   9.872  0.3212 -0.7224 -0.4944
  137MOL0     O18771   4.751   2.447   9.818 -0.4558 -0.2395  0.0084
  137MOL0     C18772   4.626   2.490   9.787  0.8778 -0.2660  0.7652
  137MOL0     C18773   4.607   2.626   9.784  0.0365  0.2704 -0.1120
  137MOL0     C18774   4.496   2.684   9.730  0.0731 -0.6878  0.5173
  137MOL0     C18775   4.386   2.611   9.687  0.4902  0.1560  0.5067
  137MOL0     O18776   4.288   2.686   9.636  0.1460  0.0492 -0.8144
  137MOL0     C18777   4.184   2.621   9.566 -0.0974 -0.0061  0.0080
  137MOL0     C18778   4.090   2.725   9.488 -0.0421 -0.2027  0.6525
  137MOL0     C18779   3.990   2.650   9.390  0.1512 -0.6700 -0.1519
  137MOL0     C18780   3.883   2.563   9.462 -0.7205  0.8804 -0.1501
  137MOL0     C18781   3.746   2.627   9.465 -0.4643  0.6007 -0.2609
  137MOL0     C18782   3.744   2.760   9.539 -0.7509 -0.8623 -0.5448
  137MOL0     C18783   3.757   2.747   9.700 -0.7633 -0.5402 -0.6495
  137MOL0     C18784   3.770   2.879   9.766 -0.5395  0.2483 -0.3157
  137MOL0     N18785   3.886   2.947   9.722 -0.6071 -0.3859 -0.0980
  137MOL0     C18786   4.013   2.934   9.781 -0.5483 -0.3748 -0.4899
  137MOL0     C18787   4.092   3.021   9.710  0.9309 -0.9424 -0.4415
  137MOL0     C18788   4.239   3.049   9.726 -0.0342  0.1374  0.5160
  137MOL0     C18789   4.264   3.081   9.872  0.4550  0.5313 -0.8572
  137MOL0     C18790   4.414   3.056   9.904  0.5200  0.1298 -0.7397
  137MOL0     C18791   4.465   3.111  10.038  0.1210  0.5511  0.3363
  137MOL0     O18792   4.542   3.225  10.009 -0.1574  0.4854 -1.4887
  137MOL0     C18793   4.675   3.211   9.989 -0.6078 -0.1677 -0.0898
  137MOL0     C18794   4.756   3.088   9.974  0.4384 -0.0461  0.5339
  137MOL0     C18795   4.892   3.082   9.959  0.7695  0.3195  1.0057
  137MOL0     C18796   4.952   2.946   9.944 -0.0152  0.1540 -0.1427
  137MOL0     C18797   4.968   3.202   9.955  0.1606 -0.1195  0.3831
  137MOL0     C18798   5.116   3.196   9.950 -0.1054  0.1069  0.0682
  137MOL0     O18799   5.175   3.093   9.877  0.0888 -0.1309 -0.4874
  137MOL0     C18800   5.306   3.070   9.883 -0.7581  0.3300 -0.1522
  137MOL0     C18801   5.366   3.062   9.761  0.2504  0.3370 -0.1534
  137MOL0     C18802   5.504   3.047   9.752  0.3520 -0.9557  0.1770
  137MOL0     C18803   5.577   3.021   9.866 -0.6543 -0.5682 -0.6552
  137MOL0     O18804   5.707   3.019   9.841 -0.0525  0.1633 -0.2470
  137MOL0     C18805   5.786   2.921   9.904  0.0640 -0.5738  0.2980
  137MOL0     C18806   5.901   2.886   9.806  0.3231  1.3169 -0.1161
  137MOL0     C18807   5.998   2.779   9.854 -0.4386 -0.1424 -0.4969
  137MOL0     C18808   6.108   2.755   9.758  0.1638 -0.0474  0.3254
  137MOL0     C18809   6.077   2.779   9.610  0.1835  0.0091  0.2106
  137MOL0     C18810   5.996   2.669   9.539  0.1383 -0.6441  0.0497
  137MOL0     C18811   6.102   2.563   9.505  0.0152 -0.8130  0.6187
  137MOL0     C18812   6.052   2.422   9.498  0.0034  0.3877 -0.5665
  137MOL0    Cl18813   5.935   2.404   9.369  0.3337 -0.0626 -0.2923
  137MOL0     C18814   5.523   3.031   9.992  0.5411 -0.2677  0.1561
  137MOL0     C18815   5.385   3.058   9.998  0.3842  0.2019  0.1335
  137MOL0     O18816   5.176   3.279  10.016  0.0167 -0.8676 -0.5167
  137MOL0     C18817   4.899   3.326   9.980 -0.5019 -0.9211  0.3175
  137MOL0     C18818   4.763   3.321  10.009  0.4282 -1.0221 -1.2152
  137MOL0     N18819   4.016   3.109   9.634 -0.0697  0.1936 -0.4346
  137MOL0     N18820   3.888   3.065   9.647  0.6315  0.1782  1.1096
  137MOL0     C18821   4.395   2.473   9.693 -0.2671 -0.6193 -0.0307
  137MOL0     C18822   4.511   2.413   9.742 -0.6778 -0.1950  0.1891
  137MOL0     C18823   4.898   2.256   9.825  0.0282  0.8793  0.0305
  137MOL0     C18824   4.977   2.310   9.720 -0.2033 -0.8066 -0.2670
  137MOL0     C18825   5.099   2.264   9.680 -0.5148  0.1196  0.0533
  137MOL0     C18826   5.144   2.147   9.734 -0.3683 -0.1642 -0.1769
  137MOL0     O18827   5.267   2.094   9.702  0.9594  0.5142 -0.6644
  137MOL0     C18828   5.361   2.164   9.609  1.1206  0.3935 -0.8769
  137MOL0     C18829   5.449   2.268   9.680  0.0621  0.8974 -0.1480
  137MOL0     C18830   5.511   2.359   9.572 -0.3521 -0.7440 -0.7815
  137MOL0     C18831   5.609   2.446   9.650  0.6153  0.5489 -0.0323
  137MOL0     C18832   5.571   2.583   9.682 -0.1958 -0.1426  0.3367
  137MOL0     C18833   5.537   2.703   9.688  0.0231  0.9003  1.0497
  137MOL0     C18834   5.059   2.074   9.821 -0.8608  1.0412  0.4570
  137MOL0     C18835   4.940   2.123   9.870  0.2950  0.0324  0.0136
  137MOL0     C18836   4.859   2.026   9.958 -0.0850  0.1017  0.3277
  137MOL0     H18837   4.683   2.692   9.823  0.1725  1.6604 -2.5276
  137MOL0     H18838   4.491   2.791   9.714  0.3412 -0.9332 -1.4627
  137MOL0     H18839   4.127   2.571   9.645  2.4682 -0.4094  1.7574
  137MOL0     H18840   4.240   2.553   9.501  2.5157  1.1605  0.8830
  137MOL0     H18841   4.038   2.795   9.554  1.6221  1.3918  0.3680
  137MOL0     H18842   4.154   2.790   9.428 -2.7488  2.0324 -0.0486
  137MOL0     H18843   3.940   2.722   9.325 -3.5833 -1.5915  1.4693
  137MOL0     H18844   4.056   2.583   9.333  0.4900  0.0825 -0.6643
  137MOL0     H18845   3.881   2.463   9.419  3.2088 -0.3133  1.9210
  137MOL0     H18846   3.920   2.544   9.564  0.0495 -0.7454 -0.7072
  137MOL0     H18847   3.670   2.558   9.505  0.4478 -0.1075  0.2856
  137MOL0     H18848   3.713   2.640   9.362 -0.9965  0.7225 -0.0787
  137MOL0     H18849   3.820   2.824   9.492 -0.9938  0.4538  0.7807
  137MOL0     H18850   3.648   2.807   9.517 -0.7831 -0.1794  0.9079
  137MOL0     H18851   3.816   2.663   9.738 -3.3747 -1.3175  2.1245
  137MOL0     H18852   3.657   2.719   9.735 -0.7110  1.4225  1.2992
  137MOL0     H18853   3.682   2.936   9.736  0.1807  2.1053  0.9761
  137MOL0     H18854   3.782   2.868   9.874  1.5676 -0.8475 -0.5962
  137MOL0     H18855   4.048   2.856   9.848  0.5500  0.0527 -0.5485
  137MOL0     H18856   4.276   3.130   9.662  1.5584 -0.2672  0.8878
  137MOL0     H18857   4.295   2.960   9.697 -0.8406  0.0845 -0.9865
  137MOL0     H18858   4.232   3.182   9.901 -0.9705 -0.2535  0.4348
  137MOL0     H18859   4.211   3.009   9.935  2.0114 -1.3835 -1.6364
  137MOL0     H18860   4.426   2.948   9.902  2.9289  0.3471 -2.6906
  137MOL0     H18861   4.484   3.086   9.826  1.3658  2.1277  0.7074
  137MOL0     H18862   4.376   3.136  10.096 -1.2046 -0.5420 -1.1301
  137MOL0     H18863   4.525   3.042  10.097  0.8325  0.6992 -0.2018
  137MOL0     H18864   4.703   2.994   9.965 -0.9528  0.6706  0.9016
  137MOL0     H18865   4.990   2.942   9.841 -0.6505  1.4956 -0.4400
  137MOL0     H18866   4.889   2.859   9.963  1.5536 -0.9478  0.3120
  137MOL0     H18867   5.041   2.924  10.005  0.7097 -2.4963 -1.9581
  137MOL0     H18868   5.302   3.083   9.676 -1.6028 -1.6229  0.6649
  137MOL0     H18869   5.556   3.033   9.658  0.2078 -1.1238  0.1213
  137MOL0     H18870   5.825   2.968   9.995  0.5915  0.9745 -0.6888
  137MOL0     H18871   5.728   2.834   9.934  2.8431 -1.9539  2.1091
  137MOL0     H18872   5.841   2.847   9.723 -0.0417  1.1919  0.2033
  137MOL0     H18873   5.953   2.969   9.758  1.1071  0.6263 -0.4911
  137MOL0     H18874   5.949   2.682   9.862  1.2558 -1.4223 -3.7080
  137MOL0     H18875   6.036   2.807   9.952  0.3250 -0.4821 -0.6864
  137MOL0     H18876   6.140   2.652   9.776  3.5659  1.4377  4.5568
  137MOL0     H18877   6.190   2.820   9.792 -1.4692  1.9636  0.6296
  137MOL0     H18878   6.025   2.874   9.595  0.6146  0.9064  3.5135
  137MOL0     H18879   6.166   2.794   9.549 -0.6696  1.5738 -0.6918
  137MOL0     H18880   5.956   2.703   9.444  0.9148  1.3240  0.3978
  137MOL0     H18881   5.923   2.630   9.610  1.1115 -0.1823  1.3572
  137MOL0     H18882   6.175   2.560   9.586 -0.2197 -3.5198  0.8460
  137MOL0     H18883   6.146   2.585   9.408 -1.8516 -2.1884 -0.6091
  137MOL0     H18884   6.017   2.383   9.594 -1.0287 -1.0588 -1.4930
  137MOL0     H18885   6.129   2.348   9.475  1.2577  1.6776 -0.6294
  137MOL0     H18886   5.583   3.017  10.081  0.3482  0.9129  0.4923
  137MOL0     H18887   5.339   3.067  10.096  2.3966  0.0088  1.1694
  137MOL0     H18888   4.951   3.421   9.994 -1.2642 -0.4587  0.0810
  137MOL0     H18889   4.701   3.402  10.048  4.1770  1.7843 -0.4746
  137MOL0     H18890   4.315   2.402   9.675  0.6766 -1.6291 -0.3457
  137MOL0     H18891   4.507   2.307   9.762 -1.2539  0.5252  5.1237
  137MOL0     H18892   4.953   2.402   9.667 -1.0949 -0.6761  0.3336
  137MOL0     H18893   5.139   2.324   9.599 -0.8682  0.4774  0.1443
  137MOL0     H18894   5.424   2.087   9.564  0.2028  0.2302 -1.9399
  137MOL0     H18895   5.306   2.199   9.521 -2.0779 -0.7211  0.5267
  137MOL0     H18896   5.537   2.213   9.717  2.1677  2.1132 -2.9685
  137MOL0     H18897   5.402   2.328   9.758 -1.4777  0.1127 -0.4397
  137MOL0     H18898   5.550   2.305   9.486 -2.1257 -0.4122 -1.8502
  137MOL0     H18899   5.427   2.425   9.547 -1.5442 -0.5315  3.0355
  137MOL0     H18900   5.687   2.466   9.577 -0.1298  0.4260 -0.8796
  137MOL0     H18901   5.655   2.386   9.729 -0.8454 -2.3559 -1.2432
  137MOL0     H18902   5.512   2.807   9.693  0.7636  1.1653 -0.3410
  137MOL0     H18903   5.091   1.979   9.864  0.0074  1.4735  0.7893
  137MOL0     H18904   4.904   1.929   9.984 -0.9365 -0.5829 -0.6351
  137MOL0     H18905   4.856   2.078  10.054 -0.4544 -1.5507  1.2493
  137MOL0     H18906   4.759   2.008   9.917 -0.1839 -2.6726  1.5146
  138MOL0     O18907   4.023   7.205   6.147  0.6623 -0.3533  0.4233
  138MOL0     C18908   4.028   7.231   6.269 -0.2713 -0.0603  0.2584
  138MOL0     O18909   4.070   7.346   6.322  0.0624 -0.2159 -0.5537
  138MOL0     C18910   4.087   7.454   6.235  1.0324  0.1724 -0.2818
  138MOL0     C18911   4.209   7.518   6.218 -0.0273 -0.0266  0.8050
  138MOL0     C18912   4.215   7.635   6.135 -0.1515 -0.1251  0.6882
  138MOL0     C18913   4.113   7.678   6.058 -0.1934  1.0221  0.3264
  138MOL0     O18914   4.131   7.786   5.974  0.2398  0.1422  0.0370
  138MOL0     C18915   4.054   7.784   5.857 -0.4642 -0.6578  0.3160
  138MOL0     C18916   4.114   7.872   5.747  0.5359 -0.0438  0.3667
  138MOL0     C18917   4.173   8.003   5.813  0.7646 -0.1635 -0.0324
  138MOL0     C18918   4.227   8.093   5.707  0.2498  0.1166 -0.7366
  138MOL0     C18919   4.277   8.217   5.778  0.2305 -0.6517  1.0282
  138MOL0     C18920   4.322   8.324   5.667  0.1590  0.1867 -0.0560
  138MOL0     C18921   4.331   8.465   5.718  0.2815  0.7834 -0.0182
  138MOL0     C18922   4.191   8.537   5.732 -0.6414 -0.1823 -0.0125
  138MOL0     N18923   4.190   8.672   5.794 -0.3976 -0.0581  0.4103
  138MOL0     C18924   4.269   8.781   5.753  0.4018 -0.7948 -0.5653
  138MOL0     C18925   4.255   8.879   5.849 -0.4591  0.3614  0.5795
  138MOL0     C18926   4.333   9.013   5.847 -0.7438  0.1955 -0.5801
  138MOL0     C18927   4.413   9.031   5.975 -0.1530 -0.8563 -1.5034
  138MOL0     C18928   4.408   9.186   6.006 -0.2600  0.5196  0.4269
  138MOL0     C18929   4.529   9.210   6.106 -0.1053  0.8540  0.6016
  138MOL0     O18930   4.608   9.327   6.083  0.1218 -0.7253 -0.5286
  138MOL0     C18931   4.705   9.327   6.179 -0.5112  0.6119 -0.5946
  138MOL0     C18932   4.809   9.230   6.168 -0.1486  0.5729  0.4188
  138MOL0     C18933   4.915   9.226   6.253 -0.8358  0.8606 -0.4327
  138MOL0     C18934   5.019   9.119   6.213  0.6201 -0.1757  0.4387
  138MOL0     C18935   4.933   9.325   6.359  0.1316 -0.0236 -1.1966
  138MOL0     C18936   5.049   9.329   6.450  0.1086 -0.0126 -0.0134
  138MOL0     O18937   5.180   9.323   6.398  0.0483  0.4064  0.6514
  138MOL0     C18938   5.267   9.303   6.508 -0.2977 -0.0171  0.9765
  138MOL0     C18939   5.324   9.168   6.537  0.1263 -0.0593 -0.1039
  138MOL0     C18940   5.411   9.142   6.644  0.0455  0.7851  0.6721
  138MOL0     C18941   5.450   9.247   6.726  0.5534  1.6404 -0.7203
  138MOL0     O18942   5.527   9.209   6.838 -0.7154  0.0678  0.1001
  138MOL0     C18943   5.598   9.312   6.904  0.0597  0.2876  0.2711
  138MOL0     C18944   5.697   9.235   6.992  0.2760  0.5114 -0.7384
  138MOL0     C18945   5.809   9.317   7.051 -0.0808 -0.9387 -0.4682
  138MOL0     C18946   5.908   9.238   7.138  1.2248 -0.3873 -0.0016
  138MOL0     C18947   6.031   9.320   7.166 -0.5169 -0.1986 -0.9754
  138MOL0     C18948   6.115   9.229   7.268  0.0974 -0.1086  0.1381
  138MOL0     C18949   6.249   9.305   7.295  0.0094 -0.2536  0.3747
  138MOL0     C18950   6.341   9.305   7.164 -0.2004  0.3596 -0.1484
  138MOL0    Cl18951   6.517   9.279   7.204 -0.0334  0.2448  0.3598
  138MOL0     C18952   5.401   9.371   6.696  0.5650 -0.7501 -0.5432
  138MOL0     C18953   5.317   9.410   6.588 -0.8056 -0.4751  0.1587
  138MOL0     O18954   5.012   9.323   6.571 -0.3175  0.5801 -0.1881
  138MOL0     C18955   4.822   9.408   6.375  0.1219  0.1137 -0.9894
  138MOL0     C18956   4.706   9.415   6.294  0.3916  0.6924  0.4898
  138MOL0     N18957   4.171   8.831   5.941  0.0430  0.8669  0.1416
  138MOL0     N18958   4.131   8.713   5.916 -0.0087 -0.3869  0.9876
  138MOL0     C18959   3.991   7.607   6.067 -0.1960  0.1005  0.3632
  138MOL0     C18960   3.977   7.501   6.156 -0.1486 -0.3183  0.0546
  138MOL0     C18961   4.005   7.123   6.368  1.0942  0.2364 -0.1670
  138MOL0     C18962   4.036   7.140   6.506 -0.1988 -0.3510 -0.2124
  138MOL0     C18963   3.999   7.051   6.611  0.6512  0.4441 -0.4384
  138MOL0     C18964   3.932   6.933   6.588 -0.0342  0.9208  0.8132
  138MOL0     O18965   3.904   6.839   6.683  0.6257 -1.0636 -0.5236
  138MOL0     C18966   4.011   6.739   6.698  0.2979  0.2655  0.3311
  138MOL0     C18967   3.993   6.636   6.814 -0.2623 -0.1350 -0.5610
  138MOL0     C18968   3.903   6.691   6.932  0.3075  0.9701 -0.0490
  138MOL0     C18969   3.951   6.823   7.007 -0.5060 -0.1117  1.0819
  138MOL0     C18970   4.089   6.815   7.045  0.3293  0.8668 -0.3042
  138MOL0     C18971   4.195   6.805   7.093 -0.6485 -0.2217 -0.0003
  138MOL0     C18972   3.899   6.908   6.455 -0.8396 -0.4966  1.1990
  138MOL0     C18973   3.940   6.995   6.345  0.1669  0.0271  0.2428
  138MOL0     C18974   3.914   6.932   6.208 -0.0237 -0.5967  0.6317
  138MOL0     H18975   4.295   7.479   6.271 -0.5954  0.1497  1.8806
  138MOL0     H18976   4.317   7.674   6.139 -0.2634  0.4677 -1.2425
  138MOL0     H18977   3.961   7.835   5.887  0.3239  0.1818  1.4198
  138MOL0     H18978   4.046   7.679   5.827  2.1773 -1.0445  0.7762
  138MOL0     H18979   4.187   7.818   5.687 -1.1977 -1.0952 -0.8909
  138MOL0     H18980   4.037   7.894   5.673 -0.7496 -1.2928  1.2816
  138MOL0     H18981   4.096   8.060   5.867  1.3202  0.9622 -0.4099
  138MOL0     H18982   4.253   7.976   5.882  1.1741  0.2880 -0.3303
  138MOL0     H18983   4.309   8.040   5.659  0.8079  0.4098 -0.1212
  138MOL0     H18984   4.147   8.118   5.637 -0.6854  0.6622  0.4886
  138MOL0     H18985   4.353   8.187   5.850  0.1502 -0.3823  1.2303
  138MOL0     H18986   4.195   8.266   5.833 -1.4023  1.6939 -3.0453
  138MOL0     H18987   4.424   8.307   5.632  0.1334  1.5819 -0.8824
  138MOL0     H18988   4.260   8.314   5.578  0.8685  5.7202 -1.5403
  138MOL0     H18989   4.400   8.522   5.655  0.9654 -0.5257 -0.5043
  138MOL0     H18990   4.385   8.458   5.813  0.5389  0.6762 -0.1709
  138MOL0     H18991   4.134   8.542   5.639  2.2370 -0.8194 -1.9523
  138MOL0     H18992   4.136   8.465   5.793 -0.4737 -1.8705 -1.7894
  138MOL0     H18993   4.333   8.793   5.666  0.1277  1.6434 -0.4950
  138MOL0     H18994   4.254   9.088   5.841 -0.8229  0.2909  1.2613
  138MOL0     H18995   4.400   9.032   5.762 -0.7482 -2.3238 -1.2363
  138MOL0     H18996   4.362   8.988   6.062  0.3580  0.2643 -0.6189
  138MOL0     H18997   4.513   8.988   5.969 -0.5146 -1.6387 -2.0266
  138MOL0     H18998   4.424   9.242   5.914  2.0493  1.0065  1.0641
  138MOL0     H18999   4.313   9.222   6.049 -0.3193 -0.2688  0.9820
  138MOL0     H19000   4.493   9.213   6.210  2.6462 -3.2025  1.9048
  138MOL0     H19001   4.592   9.120   6.108 -0.9090  0.2396 -0.5096
  138MOL0     H19002   4.808   9.156   6.089  1.9994  2.2089 -1.2836
  138MOL0     H19003   5.078   9.149   6.125  0.3717 -0.1230  0.2897
  138MOL0     H19004   4.969   9.024   6.192  2.9871 -1.6696  1.1128
  138MOL0     H19005   5.085   9.105   6.299  0.1026  0.8535  1.0223
  138MOL0     H19006   5.298   9.083   6.475  2.8978 -0.9907 -0.1363
  138MOL0     H19007   5.449   9.042   6.658 -0.4352  0.1105 -2.2112
  138MOL0     H19008   5.664   9.368   6.838 -0.9149 -1.3594 -2.2228
  138MOL0     H19009   5.527   9.372   6.961 -0.4038  1.0766 -1.1043
  138MOL0     H19010   5.657   9.171   7.071  3.5163 -3.2898 -1.8707
  138MOL0     H19011   5.756   9.169   6.927  2.2113  0.0815  1.3190
  138MOL0     H19012   5.767   9.387   7.125  1.8678 -2.5849  2.3840
  138MOL0     H19013   5.867   9.375   6.978  0.1600  1.2018  1.3018
  138MOL0     H19014   5.935   9.148   7.081 -0.8197 -2.4189  2.0692
  138MOL0     H19015   5.866   9.202   7.232 -2.1897 -1.2835 -1.6967
  138MOL0     H19016   6.083   9.342   7.072  1.8002 -0.1173  0.2589
  138MOL0     H19017   6.007   9.414   7.214 -1.4413 -0.6373 -0.5595
  138MOL0     H19018   6.130   9.133   7.218 -2.2466 -0.5890  0.2252
  138MOL0     H19019   6.065   9.211   7.363  0.7590 -0.9860  0.3351
  138MOL0     H19020   6.312   9.252   7.367 -0.3229  0.6892  1.3858
  138MOL0     H19021   6.229   9.408   7.326  0.8098  0.1234 -0.3418
  138MOL0     H19022   6.342   9.403   7.115  2.4284  2.2373  3.1789
  138MOL0     H19023   6.313   9.227   7.093  1.0813  1.1634 -1.6152
  138MOL0     H19024   5.438   9.457   6.751  0.2107  0.0227 -1.4790
  138MOL0     H19025   5.293   9.516   6.580  2.4937  0.3983  0.4724
  138MOL0     H19026   4.834   9.476   6.458  0.1626 -1.2309  0.1433
  138MOL0     H19027   4.629   9.489   6.312 -0.1161  0.4031 -0.4122
  138MOL0     H19028   3.914   7.629   5.995 -0.1532 -1.7969 -0.3149
  138MOL0     H19029   3.889   7.438   6.165  1.2812 -2.4259 -0.2718
  138MOL0     H19030   4.083   7.233   6.538 -1.3031  0.1085  0.1368
  138MOL0     H19031   4.034   7.071   6.712 -2.8171 -1.9573  1.4067
  138MOL0     H19032   4.022   6.683   6.605  1.6615  1.2916 -0.1497
  138MOL0     H19033   4.106   6.788   6.722 -0.0298  1.6079 -0.9711
  138MOL0     H19034   4.090   6.609   6.856 -1.4863 -0.1643  2.5349
  138MOL0     H19035   3.942   6.545   6.783 -3.1810  0.2814  2.4139
  138MOL0     H19036   3.800   6.703   6.899 -1.3743 -3.3692  2.7167
  138MOL0     H19037   3.895   6.608   7.003 -0.4926 -0.0293 -1.2569
  138MOL0     H19038   3.895   6.857   7.095 -2.2342  2.2674 -0.7890
  138MOL0     H19039   3.940   6.911   6.943 -2.0245 -1.2579 -0.3141
  138MOL0     H19040   4.293   6.798   7.135 -1.5504  1.3074  2.5713
  138MOL0     H19041   3.865   6.807   6.439  0.8614 -1.2309  1.9354
  138MOL0     H19042   3.827   6.979   6.160 -0.3141 -1.0596  0.6958
  138MOL0     H19043   3.994   6.941   6.135 -0.9345  0.3495 -0.2835
  138MOL0     H19044   3.897   6.824   6.202  1.4483 -0.7533 -1.7343
  139MOL0     O19045  10.376   8.618   7.923 -0.3707 -0.1692  0.0635
  139MOL0     C19046  10.504   8.593   7.916  0.0908 -0.0181 -0.2235
  139MOL0     O19047  10.586   8.655   7.821 -0.0476  0.1487 -0.1174
  139MOL0     C19048  10.509   8.716   7.716 -0.2590  0.0333  0.1224
  139MOL0     C19049  10.485   8.854   7.707 -0.1477  0.2349 -0.3024
  139MOL0     C19050  10.427   8.903   7.589  0.4589  0.4294 -0.1077
  139MOL0     C19051  10.374   8.821   7.489  0.1670  0.5306  0.5474
  139MOL0     O19052  10.325   8.886   7.381  0.2455 -0.0898 -0.3350
  139MOL0     C19053  10.269   8.820   7.272  0.3898  0.5360  0.1135
  139MOL0     C19054  10.183   8.901   7.189  0.1071  0.0598 -0.5009
  139MOL0     C19055  10.045   8.913   7.261  0.1050  0.1777  1.5537
  139MOL0     C19056  10.039   9.002   7.388 -0.2366  1.1317 -0.2449
  139MOL0     C19057   9.903   8.960   7.456  0.7462 -0.5589 -0.2180
  139MOL0     C19058   9.934   8.875   7.576 -0.8677 -0.5379  0.3041
  139MOL0     C19059   9.808   8.807   7.636  0.1353  0.7115  0.7138
  139MOL0     C19060   9.684   8.901   7.660 -0.4236  0.2506  0.0071
  139MOL0     N19061   9.602   8.842   7.769  0.1396  0.2067  0.7021
  139MOL0     C19062   9.549   8.904   7.884  0.3988  0.0552  0.6481
  139MOL0     C19063   9.473   8.802   7.942  0.5402  1.0420 -0.1045
  139MOL0     C19064   9.377   8.818   8.051 -0.2498 -0.2597  0.2277
  139MOL0     C19065   9.234   8.850   8.005 -0.7442  0.0391 -0.8048
  139MOL0     C19066   9.140   8.902   8.120 -0.5915 -1.1955  0.4347
  139MOL0     C19067   8.986   8.877   8.083  0.9554  0.5344 -0.0198
  139MOL0     O19068   8.903   8.918   8.194 -0.5669  0.2654 -0.6141
  139MOL0     C19069   8.769   8.893   8.181 -0.0665  0.3634 -0.1668
  139MOL0     C19070   8.687   8.916   8.289  0.2383  0.2848 -0.4712
  139MOL0     C19071   8.549   8.898   8.296 -1.2464 -0.3961  0.4972
  139MOL0     C19072   8.477   8.902   8.428  0.0336  0.2482  0.4893
  139MOL0     C19073   8.488   8.857   8.171  0.4480 -0.0476  0.4263
  139MOL0     C19074   8.342   8.826   8.160 -0.3384 -0.4254  0.7170
  139MOL0     O19075   8.315   8.716   8.088 -0.0199  0.3208  0.1757
  139MOL0     C19076   8.188   8.687   8.058  0.4589  0.1240  0.4750
  139MOL0     C19077   8.174   8.662   7.917  0.3559  0.4962  0.7114
  139MOL0     C19078   8.045   8.643   7.861 -1.1686 -0.9173 -0.5891
  139MOL0     C19079   7.928   8.637   7.944  0.0794  1.0640 -0.1065
  139MOL0     O19080   7.800   8.631   7.883 -0.2724 -0.3816  0.1933
  139MOL0     C19081   7.689   8.610   7.967  0.8164  0.0971  0.5636
  139MOL0     C19082   7.551   8.624   7.893  1.5745 -0.2276 -0.2762
  139MOL0     C19083   7.534   8.767   7.861 -0.7969  0.4201  0.4054
  139MOL0     C19084   7.394   8.800   7.811  0.2097  0.3298 -0.5629
  139MOL0     C19085   7.310   8.832   7.931 -1.3855  1.0654  0.0804
  139MOL0     C19086   7.171   8.875   7.871  0.0195 -0.7465 -0.3787
  139MOL0     C19087   7.059   8.846   7.969 -0.3123 -0.2773 -0.2540
  139MOL0     C19088   6.928   8.916   7.928 -0.1204  0.0070  0.1875
  139MOL0    Cl19089   6.921   9.095   7.948  0.2955 -0.2198 -0.1635
  139MOL0     C19090   7.954   8.635   8.084 -0.0623 -0.0261  0.6895
  139MOL0     C19091   8.079   8.664   8.139 -0.2262 -1.1945  0.1984
  139MOL0     O19092   8.260   8.897   8.220 -0.8836 -0.3403  0.0450
  139MOL0     C19093   8.566   8.830   8.057 -0.5492 -0.7430 -0.2079
  139MOL0     C19094   8.701   8.849   8.063  1.2140  0.1009  0.3847
  139MOL0     N19095   9.488   8.678   7.865  0.1705  0.6501 -0.0569
  139MOL0     N19096   9.568   8.704   7.766 -0.1157  0.2014 -0.1749
  139MOL0     C19097  10.387   8.685   7.506  0.4069 -0.1046  0.5228
  139MOL0     C19098  10.458   8.627   7.612 -0.0050  0.0202 -0.6178
  139MOL0     C19099  10.556   8.483   8.009  0.2597 -0.3072  0.2369
  139MOL0     C19100  10.463   8.427   8.106 -0.0839  0.0198  0.8551
  139MOL0     C19101  10.504   8.328   8.200 -0.2040  0.2556  0.5758
  139MOL0     C19102  10.635   8.288   8.191  0.5356  1.2098 -1.0135
  139MOL0     O19103  10.696   8.201   8.280  0.4491  0.0545  0.4505
  139MOL0     C19104  10.627   8.138   8.382  0.3403 -0.2951 -0.4763
  139MOL0     C19105  10.732   8.026   8.438  0.2610  0.5293 -0.3284
  139MOL0     C19106  10.650   7.915   8.509  0.3808 -0.2127 -0.9236
  139MOL0     C19107  10.747   7.794   8.540  0.3946 -0.0518  0.1502
  139MOL0     C19108  10.854   7.812   8.649  0.5948 -0.9697  0.5310
  139MOL0     C19109  10.929   7.836   8.743  0.2273  0.0296  0.1229
  139MOL0     C19110  10.726   8.350   8.105  0.4697  0.5669 -0.4417
  139MOL0     C19111  10.682   8.432   8.005 -0.2928 -0.0846  0.2346
  139MOL0     C19112  10.777   8.461   7.884 -0.0019  0.0595 -0.6414
  139MOL0     H19113  10.513   8.914   7.793 -0.2398  0.4083 -0.3928
  139MOL0     H19114  10.409   9.009   7.574  0.5931  0.3455 -0.9111
  139MOL0     H19115  10.208   8.737   7.309 -0.6703 -0.2975 -3.1892
  139MOL0     H19116  10.358   8.784   7.219  1.3101 -1.3573  2.7342
  139MOL0     H19117  10.225   9.001   7.173  0.4198 -0.2510 -1.6774
  139MOL0     H19118  10.184   8.857   7.089 -1.2013  0.8645 -0.8958
  139MOL0     H19119   9.975   8.956   7.189  2.8127 -0.9844 -2.1001
  139MOL0     H19120  10.011   8.810   7.271 -0.4672  0.1028 -0.5994
  139MOL0     H19121  10.116   8.975   7.461 -3.1674 -0.8446  2.3530
  139MOL0     H19122  10.046   9.110   7.368 -0.2653  1.3677  0.9385
  139MOL0     H19123   9.847   8.896   7.387  2.8261  1.0380 -3.6577
  139MOL0     H19124   9.842   9.047   7.481  0.2311 -0.3443 -2.1162
  139MOL0     H19125  10.003   8.799   7.539 -1.6356 -0.9105 -0.4095
  139MOL0     H19126   9.982   8.929   7.658 -1.5526  0.1384  0.2740
  139MOL0     H19127   9.840   8.762   7.730  1.0360 -2.6282 -1.0281
  139MOL0     H19128   9.794   8.723   7.568  2.7779 -0.3372  1.3401
  139MOL0     H19129   9.721   9.000   7.688 -2.1588  0.7990  0.5099
  139MOL0     H19130   9.635   8.909   7.563  0.4188  0.7171 -0.3880
  139MOL0     H19131   9.538   9.010   7.903  0.9844  0.8560 -2.6911
  139MOL0     H19132   9.409   8.904   8.110  0.8885 -0.3111 -0.2901
  139MOL0     H19133   9.382   8.731   8.118  2.2676  0.1589  0.6826
  139MOL0     H19134   9.247   8.929   7.930  1.4809  4.5740  3.7155
  139MOL0     H19135   9.193   8.754   7.975 -0.7054  0.1668 -1.2746
  139MOL0     H19136   9.170   8.847   8.210  4.4810 -1.0144 -0.8403
  139MOL0     H19137   9.158   9.009   8.131  1.8439 -1.6756  1.8120
  139MOL0     H19138   8.944   8.934   7.999  1.5990  1.6185  0.3657
  139MOL0     H19139   8.980   8.770   8.062 -0.1456  0.2332  1.6021
  139MOL0     H19140   8.733   8.950   8.382 -0.9660  2.1194 -0.4926
  139MOL0     H19141   8.521   8.970   8.501 -1.6462 -0.7449  2.5573
  139MOL0     H19142   8.487   8.806   8.481 -0.0994 -0.9854 -1.6161
  139MOL0     H19143   8.372   8.932   8.422 -0.0020 -0.1996 -2.9552
  139MOL0     H19144   8.257   8.657   7.847  0.4052  0.9214  0.7391
  139MOL0     H19145   8.043   8.643   7.752  1.9094  2.2876 -0.8387
  139MOL0     H19146   7.714   8.508   8.000  3.3601 -1.2329 -4.5697
  139MOL0     H19147   7.702   8.677   8.053 -0.0923 -1.0132  1.6076
  139MOL0     H19148   7.540   8.562   7.803 -2.8157  0.8502 -0.7310
  139MOL0     H19149   7.474   8.603   7.967 -0.6518  1.6586 -1.8894
  139MOL0     H19150   7.608   8.777   7.781 -0.4498 -1.7669  0.3666
  139MOL0     H19151   7.562   8.831   7.945 -1.8822  2.7074 -0.9048
  139MOL0     H19152   7.349   8.720   7.750 -0.6374  1.4438 -1.4492
  139MOL0     H19153   7.398   8.890   7.749 -0.6581  1.5661  1.1190
  139MOL0     H19154   7.296   8.738   7.984  1.0216 -0.4766 -1.7667
  139MOL0     H19155   7.350   8.915   7.991 -1.9280  1.3014  0.1224
  139MOL0     H19156   7.147   8.807   7.788 -1.5820 -4.0096  2.4973
  139MOL0     H19157   7.180   8.982   7.849  2.8718 -1.2819 -2.2754
  139MOL0     H19158   7.085   8.871   8.073  1.7409 -2.2116 -0.2221
  139MOL0     H19159   7.035   8.739   7.976 -1.2064 -0.0978 -0.3889
  139MOL0     H19160   6.856   8.877   8.000  0.8196 -3.6179 -0.6284
  139MOL0     H19161   6.896   8.883   7.828 -0.3769  0.3960  0.1385
  139MOL0     H19162   7.865   8.626   8.146 -2.4489  2.6637 -1.9619
  139MOL0     H19163   8.100   8.672   8.245  3.3988 -1.7919 -0.3491
  139MOL0     H19164   8.526   8.786   7.966 -0.7127  2.4385 -1.8096
  139MOL0     H19165   8.762   8.818   7.978  0.5423 -0.8493  0.2326
  139MOL0     H19166  10.359   8.613   7.430 -0.1699  0.7163 -0.0674
  139MOL0     H19167  10.461   8.520   7.629 -0.9149  0.0745 -0.0643
  139MOL0     H19168  10.363   8.468   8.097  0.2520  0.8818  0.9113
  139MOL0     H19169  10.436   8.279   8.268  0.3988  0.0329  1.0229
  139MOL0     H19170  10.613   8.205   8.468  0.0039 -3.0687  1.7844
  139MOL0     H19171  10.526   8.104   8.358  0.3144  0.5676 -1.6471
  139MOL0     H19172  10.787   8.064   8.525  0.0335 -1.5548  0.7922
  139MOL0     H19173  10.807   7.991   8.366 -2.6308 -2.1173 -2.2705
  139MOL0     H19174  10.610   7.948   8.605 -0.5710  0.1391 -1.4317
  139MOL0     H19175  10.573   7.875   8.442 -2.9601 -0.8015  2.8659
  139MOL0     H19176  10.803   7.781   8.447 -0.3153  2.7351 -0.7590
  139MOL0     H19177  10.691   7.706   8.576  1.0054 -1.3280 -1.8727
  139MOL0     H19178  10.983   7.859   8.832 -1.4952 -0.5182  1.3468
  139MOL0     H19179  10.826   8.311   8.093 -0.1534 -0.6978 -1.8344
  139MOL0     H19180  10.728   8.437   7.789  0.4833 -0.3803 -0.7880
  139MOL0     H19181  10.814   8.563   7.890 -1.0049  0.4055  0.0630
  139MOL0     H19182  10.867   8.399   7.887  0.0926  0.1248 -1.7745
  140MOL0     O19183   9.090   1.220   6.311 -0.4507 -0.5522 -0.0579
  140MOL0     C19184   9.115   1.148   6.405  0.3169  0.0546  0.4548
  140MOL0     O19185   9.177   1.191   6.514 -0.3446 -0.1394  0.3267
  140MOL0     C19186   9.192   1.323   6.540 -0.0603  0.2040  0.0622
  140MOL0     C19187   9.314   1.383   6.542 -0.4483 -0.6232  0.6953
  140MOL0     C19188   9.321   1.523   6.579 -0.0773 -1.1900 -0.3049
  140MOL0     C19189   9.215   1.599   6.610 -0.7874 -0.9030  0.5334
  140MOL0     O19190   9.234   1.738   6.628 -0.6912 -0.8046 -0.1790
  140MOL0     C19191   9.140   1.807   6.711  0.1286 -1.6321  0.0070
  140MOL0     C19192   9.189   1.950   6.737  0.8123 -0.7694 -0.0488
  140MOL0     C19193   9.090   2.034   6.808  0.1764  0.3698 -0.1180
  140MOL0     C19194   9.145   2.162   6.882 -0.3172 -0.0648 -0.3058
  140MOL0     C19195   9.041   2.235   6.974  0.5327 -0.7197 -0.5199
  140MOL0     C19196   8.987   2.159   7.098  0.2720  0.0564  0.0677
  140MOL0     C19197   8.968   2.261   7.213 -0.2728 -0.3395  0.2479
  140MOL0     C19198   8.936   2.203   7.349 -0.3916 -0.4830 -0.6919
  140MOL0     N19199   9.050   2.125   7.397  0.3236  0.3194 -0.3666
  140MOL0     C19200   9.182   2.160   7.380  0.5453 -0.2595  0.2198
  140MOL0     C19201   9.260   2.051   7.395 -0.2735  0.8240  0.4411
  140MOL0     C19202   9.407   2.053   7.384 -0.9796 -0.2665  0.8660
  140MOL0     C19203   9.450   2.020   7.241 -0.4669 -0.4602 -0.1416
  140MOL0     C19204   9.605   2.011   7.239  0.3683  0.1103  0.0563
  140MOL0     C19205   9.668   1.995   7.095 -0.6212 -0.5165 -1.0054
  140MOL0     O19206   9.593   1.904   7.007 -0.4545  0.1398  0.2624
  140MOL0     C19207   9.550   1.785   7.046 -0.3776  0.0635 -0.2192
  140MOL0     C19208   9.611   1.707   7.149  0.0068  0.5061 -0.0716
  140MOL0     C19209   9.564   1.574   7.169 -0.2490 -1.2511 -0.2993
  140MOL0     C19210   9.639   1.507   7.283  0.2349 -0.0252  0.0548
  140MOL0     C19211   9.457   1.524   7.099 -0.2296 -0.4317 -0.4209
  140MOL0     C19212   9.404   1.388   7.128  0.6367 -0.3944  0.4274
  140MOL0     O19213   9.282   1.359   7.073  0.5834  0.3143  0.3453
  140MOL0     C19214   9.243   1.230   7.056 -0.2105  0.6653  0.2188
  140MOL0     C19215   9.261   1.120   7.143  0.4103  0.3957 -0.4510
  140MOL0     C19216   9.211   0.995   7.107  0.5019  0.5246  0.3252
  140MOL0     C19217   9.145   0.980   6.980  0.3498 -0.2827  0.3416
  140MOL0     O19218   9.101   0.858   6.932 -0.1485 -0.2120  0.2625
  140MOL0     C19219   9.205   0.766   6.911  0.2348  1.1019 -0.6505
  140MOL0     C19220   9.146   0.629   6.863  0.6932  0.6078  0.7897
  140MOL0     C19221   9.005   0.580   6.922 -0.9143 -0.3295 -0.4609
  140MOL0     C19222   8.963   0.437   6.903 -0.4521  0.1189  0.0256
  140MOL0     C19223   8.833   0.417   6.972 -0.1406  0.4610 -0.4292
  140MOL0     C19224   8.785   0.264   6.965 -0.0529 -1.0404  0.3094
  140MOL0     C19225   8.652   0.229   7.036 -1.7863 -0.1599 -0.5471
  140MOL0     C19226   8.541   0.326   7.014 -0.0856  0.0373  0.0157
  140MOL0    Cl19227   8.500   0.327   6.836 -0.0489 -0.0859 -0.4813
  140MOL0     C19228   9.114   1.094   6.901  0.4671 -0.1737  0.6485
  140MOL0     C19229   9.165   1.214   6.937  0.0622 -0.3844  1.3351
  140MOL0     O19230   9.485   1.308   7.170 -0.5297 -0.1008  0.0147
  140MOL0     C19231   9.412   1.603   6.994  0.0727 -0.3295  0.0310
  140MOL0     C19232   9.452   1.731   6.968 -0.5948 -0.4453  0.5296
  140MOL0     N19233   9.176   1.945   7.421  0.6346  0.2181 -0.0093
  140MOL0     N19234   9.049   1.982   7.424  0.3665 -0.3929 -0.2247
  140MOL0     C19235   9.093   1.534   6.604  0.3806 -0.6687 -0.6812
  140MOL0     C19236   9.078   1.396   6.578  0.1923  0.4465 -0.4471
  140MOL0     C19237   9.051   1.010   6.411 -0.2526  0.1536  0.4283
  140MOL0     C19238   9.033   0.951   6.543 -0.0641  0.4424 -0.5706
  140MOL0     C19239   8.963   0.828   6.556  0.1053  0.1995  0.3308
  140MOL0     C19240   8.903   0.766   6.441  0.5990 -0.4370 -0.8771
  140MOL0     O19241   8.814   0.659   6.448  0.9374  0.2370 -0.0726
  140MOL0     C19242   8.796   0.589   6.573  0.5562 -0.0732 -0.6587
  140MOL0     C19243   8.700   0.486   6.542  0.0739  0.5326  0.9154
  140MOL0     C19244   8.555   0.541   6.554  0.2039 -0.0355 -0.1852
  140MOL0     C19245   8.452   0.447   6.486  0.4003  0.2388 -0.2270
  140MOL0     C19246   8.312   0.494   6.490 -0.4977 -0.4623 -0.4955
  140MOL0     C19247   8.195   0.545   6.484 -0.4341  0.0165  0.2733
  140MOL0     C19248   8.934   0.814   6.319  0.5466 -0.5490  0.5962
  140MOL0     C19249   8.995   0.942   6.298  0.3789  1.2036 -0.3706
  140MOL0     C19250   9.012   0.987   6.153 -0.0295 -0.0706  0.0911
  140MOL0     H19251   9.408   1.339   6.509 -0.0595 -0.5134  1.6144
  140MOL0     H19252   9.421   1.562   6.562 -0.0341 -1.8310 -1.7167
  140MOL0     H19253   9.132   1.752   6.805 -0.8857 -0.9720  0.3197
  140MOL0     H19254   9.043   1.827   6.667  0.3504 -1.3327 -0.3531
  140MOL0     H19255   9.280   1.959   6.797  0.6544  0.2408  0.0576
  140MOL0     H19256   9.220   2.005   6.647 -0.1556 -3.5216 -2.2066
  140MOL0     H19257   9.020   2.079   6.737  1.3329  1.0610 -0.8522
  140MOL0     H19258   9.035   1.968   6.875 -2.1533  0.0258 -2.2028
  140MOL0     H19259   9.223   2.123   6.949  1.1925 -0.8112 -2.3797
  140MOL0     H19260   9.187   2.243   6.823 -0.4075  0.3191  0.1503
  140MOL0     H19261   8.961   2.262   6.904 -0.4942 -0.0616  0.8553
  140MOL0     H19262   9.073   2.332   7.015 -0.1325 -0.4152 -0.7028
  140MOL0     H19263   8.896   2.101   7.082 -1.4857  2.0807  2.0105
  140MOL0     H19264   9.060   2.080   7.122  0.3721 -0.3198 -1.3876
  140MOL0     H19265   8.883   2.325   7.185 -0.0330  0.7462  1.8631
  140MOL0     H19266   9.054   2.328   7.218  0.0434 -0.5632 -1.4065
  140MOL0     H19267   8.929   2.286   7.419  1.2601 -1.9741  1.3856
  140MOL0     H19268   8.845   2.143   7.343  0.7926 -2.2790 -1.8287
  140MOL0     H19269   9.213   2.261   7.356  0.2456 -0.4512 -1.0741
  140MOL0     H19270   9.440   1.982   7.460 -1.4996  0.7142  2.0397
  140MOL0     H19271   9.440   2.154   7.408 -2.7146  0.8727 -1.2086
  140MOL0     H19272   9.402   1.927   7.209 -4.0275  1.2050 -0.0376
  140MOL0     H19273   9.425   2.100   7.171  2.0437  0.6406  0.0889
  140MOL0     H19274   9.657   2.096   7.285  0.1185 -1.1443  2.8354
  140MOL0     H19275   9.625   1.920   7.297  1.6929  0.4617  0.1874
  140MOL0     H19276   9.644   2.095   7.056 -2.2204  0.3767  1.9730
  140MOL0     H19277   9.776   1.980   7.101 -0.5318  0.5471  0.5815
  140MOL0     H19278   9.693   1.750   7.205 -2.1878  3.9495  0.8208
  140MOL0     H19279   9.708   1.574   7.337  0.1976 -0.2871  0.4351
  140MOL0     H19280   9.699   1.423   7.248 -3.3433 -2.9063  0.3141
  140MOL0     H19281   9.567   1.466   7.354  1.2485  1.3452  2.0108
  140MOL0     H19282   9.327   1.120   7.228  0.7590 -0.9666 -0.6974
  140MOL0     H19283   9.228   0.909   7.171 -3.1506  0.3454  1.2904
  140MOL0     H19284   9.273   0.806   6.835  1.9683 -0.5490 -0.0638
  140MOL0     H19285   9.251   0.744   7.008 -2.4344  1.3442  0.7544
  140MOL0     H19286   9.124   0.638   6.756  0.1587  0.7753  0.9086
  140MOL0     H19287   9.218   0.548   6.877  1.2816  0.9612 -0.1013
  140MOL0     H19288   8.928   0.645   6.880  0.7922  1.7136 -0.5924
  140MOL0     H19289   9.008   0.600   7.029  2.7441 -0.5072 -0.4140
  140MOL0     H19290   9.035   0.365   6.944  1.7835  0.3249 -3.1468
  140MOL0     H19291   8.957   0.425   6.794  1.7323 -1.9483  0.0497
  140MOL0     H19292   8.843   0.444   7.077  0.4933 -2.5112  0.3532
  140MOL0     H19293   8.760   0.486   6.928 -0.0996  0.8210  0.0592
  140MOL0     H19294   8.872   0.208   7.001  1.6595  2.9774  3.2339
  140MOL0     H19295   8.777   0.252   6.857  1.5025  0.1837  0.0093
  140MOL0     H19296   8.668   0.220   7.144 -0.1685 -0.0550 -0.7521
  140MOL0     H19297   8.622   0.129   7.001 -3.0992  0.0247 -0.0125
  140MOL0     H19298   8.573   0.423   7.051  1.8779 -0.1993 -0.9662
  140MOL0     H19299   8.452   0.291   7.068 -0.7642 -0.2319 -1.2339
  140MOL0     H19300   9.058   1.082   6.809  2.2450 -1.2862 -0.3422
  140MOL0     H19301   9.149   1.307   6.883 -1.6030 -0.4794  1.6110
  140MOL0     H19302   9.337   1.566   6.925  1.3694  0.9686 -2.2217
  140MOL0     H19303   9.410   1.794   6.891 -3.9399 -0.0391  2.5116
  140MOL0     H19304   9.002   1.583   6.638 -0.0396 -2.6288  1.2056
  140MOL0     H19305   8.982   1.348   6.588  0.7167 -0.1482  2.8463
  140MOL0     H19306   9.090   0.985   6.629 -0.0657 -1.8693  0.4071
  140MOL0     H19307   8.945   0.783   6.653  2.3921  0.5945  0.9850
  140MOL0     H19308   8.896   0.549   6.595  1.5753  1.9288 -1.3622
  140MOL0     H19309   8.758   0.637   6.663  1.8452 -2.2568  1.1767
  140MOL0     H19310   8.713   0.409   6.618  0.5224 -2.0541 -1.6147
  140MOL0     H19311   8.712   0.443   6.442  5.2526  4.1205 -0.3930
  140MOL0     H19312   8.525   0.557   6.658 -2.1725  1.7720 -1.0815
  140MOL0     H19313   8.546   0.640   6.509 -0.4897 -0.1531 -0.3029
  140MOL0     H19314   8.445   0.349   6.535  0.4742  1.1922  1.8261
  140MOL0     H19315   8.473   0.442   6.379 -2.0371  2.3644 -0.8993
  140MOL0     H19316   8.101   0.596   6.495  1.0396  2.8461  0.8929
  140MOL0     H19317   8.898   0.761   6.232  3.3863 -0.6105 -0.6591
  140MOL0     H19318   9.019   0.896   6.091 -1.6353 -2.4530  3.1182
  140MOL0     H19319   8.939   1.059   6.115  0.7958 -0.2910 -2.0595
  140MOL0     H19320   9.109   1.036   6.144  0.2016 -0.7408 -1.4345
  141MOL0     O19321   8.369   5.334   9.533 -0.2648 -0.0908  0.3115
  141MOL0     C19322   8.331   5.424   9.456  0.0534  0.8610 -0.0535
  141MOL0     O19323   8.220   5.420   9.384  0.2698 -0.1920 -0.0123
  141MOL0     C19324   8.135   5.318   9.388 -0.2667  0.3946 -0.1622
  141MOL0     C19325   7.999   5.324   9.417 -0.3059  0.0984  1.3195
  141MOL0     C19326   7.918   5.212   9.401 -0.8194 -0.6490  0.4808
  141MOL0     C19327   7.975   5.086   9.372  0.4709  0.2971  0.2189
  141MOL0     O19328   7.898   4.971   9.364  0.1776 -0.3219  0.3765
  141MOL0     C19329   7.767   4.961   9.427  0.2772  0.2263 -0.0882
  141MOL0     C19330   7.648   4.995   9.341 -0.0725 -0.3215 -0.1507
  141MOL0     C19331   7.630   4.910   9.221  0.5159 -0.1924  0.3792
  141MOL0     C19332   7.515   4.961   9.125  0.6554  0.0170 -0.8403
  141MOL0     C19333   7.540   5.100   9.069  0.5664 -0.0387  0.3543
  141MOL0     C19334   7.484   5.107   8.920  0.7006 -0.4677  0.0340
  141MOL0     C19335   7.512   5.250   8.851  0.3524  0.0717 -0.8573
  141MOL0     C19336   7.549   5.238   8.705  0.1628  0.5079  0.2990
  141MOL0     N19337   7.426   5.258   8.624 -0.2895  0.0109  0.3357
  141MOL0     C19338   7.388   5.374   8.553  0.3333 -0.8325  0.3999
  141MOL0     C19339   7.284   5.331   8.473 -0.1109 -0.4799  0.8252
  141MOL0     C19340   7.208   5.418   8.374  0.2475 -0.0838 -0.3050
  141MOL0     C19341   7.109   5.514   8.437 -1.1363 -0.0331  0.5765
  141MOL0     C19342   7.006   5.443   8.526  0.5792  0.6112  0.2577
  141MOL0     C19343   6.865   5.495   8.507 -0.2931  0.0269  0.3148
  141MOL0     O19344   6.822   5.434   8.381 -0.2112  0.0987  0.4840
  141MOL0     C19345   6.690   5.456   8.351  0.0103  1.3908  0.8532
  141MOL0     C19346   6.597   5.542   8.419 -0.5062  0.6351 -0.0992
  141MOL0     C19347   6.461   5.555   8.386  0.0498  0.2594 -1.0254
  141MOL0     C19348   6.375   5.660   8.460 -0.0071 -1.0627  0.1844
  141MOL0     C19349   6.407   5.463   8.288 -0.2030 -0.4125  0.1708
  141MOL0     C19350   6.265   5.439   8.273 -0.4277 -0.2427  0.4897
  141MOL0     O19351   6.179   5.540   8.292  0.4722 -0.1901 -0.2818
  141MOL0     C19352   6.040   5.525   8.281 -0.1208  0.5182 -0.1034
  141MOL0     C19353   5.957   5.516   8.395  0.4908  0.3826  0.5282
  141MOL0     C19354   5.813   5.507   8.386 -0.3745  0.3561 -0.0716
  141MOL0     C19355   5.752   5.534   8.264  1.0637 -0.2532 -0.7694
  141MOL0     O19356   5.616   5.555   8.258 -0.6593 -0.0518  0.2423
  141MOL0     C19357   5.586   5.706   8.262 -0.1737 -0.0406 -0.4671
  141MOL0     C19358   5.453   5.728   8.330  0.1123 -0.5341 -0.6109
  141MOL0     C19359   5.345   5.726   8.230  1.0806 -0.1547  0.2148
  141MOL0     C19360   5.211   5.775   8.277 -0.3086 -1.4841 -0.0440
  141MOL0     C19361   5.085   5.727   8.206 -0.4817 -1.2938 -0.1169
  141MOL0     C19362   4.954   5.787   8.258 -0.3881  0.5216  0.0343
  141MOL0     C19363   4.828   5.702   8.222 -0.5262 -0.8653  0.3829
  141MOL0     C19364   4.798   5.712   8.069 -0.0494  0.0923  0.0458
  141MOL0    Cl19365   4.669   5.609   8.035 -0.1404  0.7526  0.4303
  141MOL0     C19366   5.829   5.530   8.150 -0.7634  0.2894  0.5171
  141MOL0     C19367   5.978   5.516   8.157  0.1731  0.5621  0.4550
  141MOL0     O19368   6.240   5.336   8.201 -0.2515 -0.6486  0.1025
  141MOL0     C19369   6.498   5.393   8.207  0.3129 -0.4817  0.5431
  141MOL0     C19370   6.635   5.385   8.243 -0.2427  0.2895 -0.2864
  141MOL0     N19371   7.270   5.193   8.486 -0.7620  0.2487  0.7274
  141MOL0     N19372   7.341   5.164   8.591 -0.0278  0.2527 -0.6597
  141MOL0     C19373   8.118   5.077   9.341 -0.3825 -0.1444  0.3585
  141MOL0     C19374   8.192   5.194   9.359 -1.1201  0.6589 -0.2406
  141MOL0     C19375   8.405   5.544   9.459 -0.1830  0.1190  0.0728
  141MOL0     C19376   8.543   5.541   9.473 -0.7049  0.3895  0.6278
  141MOL0     C19377   8.625   5.658   9.476 -0.3098 -0.3198 -0.5292
  141MOL0     C19378   8.567   5.781   9.448 -0.1562 -0.4254 -0.5441
  141MOL0     O19379   8.634   5.890   9.408  0.8034 -0.0422 -0.4635
  141MOL0     C19380   8.675   5.882   9.276 -0.0842 -0.3994  0.3956
  141MOL0     C19381   8.571   5.944   9.172 -0.0753  0.6595 -0.2704
  141MOL0     C19382   8.566   6.100   9.186 -0.4873 -0.1588  0.5188
  141MOL0     C19383   8.542   6.175   9.055  0.2690  0.3042 -0.4130
  141MOL0     C19384   8.621   6.113   8.947 -0.6493  0.4110  0.5634
  141MOL0     C19385   8.695   6.075   8.854  0.2472 -0.1743 -0.2417
  141MOL0     C19386   8.429   5.785   9.448  0.1944  0.1255  0.1297
  141MOL0     C19387   8.349   5.667   9.437 -0.3477 -0.8692 -0.1030
  141MOL0     C19388   8.201   5.699   9.418  0.4005 -0.1200 -0.3501
  141MOL0     H19389   7.956   5.417   9.453  0.0188  1.3003 -1.1580
  141MOL0     H19390   7.815   5.226   9.432 -0.2941 -0.4076  2.2588
  141MOL0     H19391   7.756   5.037   9.505 -0.6303  2.0859 -1.9243
  141MOL0     H19392   7.750   4.867   9.479 -1.6905  1.0910  0.9574
  141MOL0     H19393   7.562   4.981   9.407  1.0081  0.3979  1.4624
  141MOL0     H19394   7.654   5.102   9.320  0.0320 -0.6789 -2.1355
  141MOL0     H19395   7.726   4.913   9.169  1.7937  3.1274  2.5840
  141MOL0     H19396   7.616   4.807   9.254  2.1710 -1.2731 -1.9776
  141MOL0     H19397   7.509   4.898   9.036  0.4734  0.7430 -1.3534
  141MOL0     H19398   7.414   4.954   9.166  0.1189  1.0662 -1.9259
  141MOL0     H19399   7.649   5.114   9.066  1.1203 -3.3418  0.9357
  141MOL0     H19400   7.489   5.171   9.134  1.7371 -0.1419  1.4322
  141MOL0     H19401   7.533   5.029   8.861 -0.2993 -1.2630  0.2128
  141MOL0     H19402   7.378   5.078   8.926  0.9256 -1.6270 -1.0735
  141MOL0     H19403   7.594   5.291   8.912 -0.3684 -1.0089  0.9270
  141MOL0     H19404   7.417   5.304   8.854 -0.3575 -0.9614 -2.9564
  141MOL0     H19405   7.619   5.319   8.682 -1.2910  1.4475 -0.9768
  141MOL0     H19406   7.595   5.139   8.694  0.7373  0.7904  0.0586
  141MOL0     H19407   7.433   5.473   8.556  2.9087 -1.7765 -2.1972
  141MOL0     H19408   7.146   5.350   8.315 -2.7162 -3.7900  6.0322
  141MOL0     H19409   7.279   5.482   8.320  1.7346 -0.4911  1.0727
  141MOL0     H19410   7.174   5.591   8.480 -0.1620 -0.2961 -0.3745
  141MOL0     H19411   7.050   5.571   8.364 -2.1352  0.5989  1.8287
  141MOL0     H19412   7.018   5.334   8.515 -0.3715  0.0452  3.6747
  141MOL0     H19413   7.041   5.461   8.628 -1.2436  3.0627  0.5397
  141MOL0     H19414   6.806   5.459   8.592 -0.6232 -1.4786 -0.5148
  141MOL0     H19415   6.856   5.604   8.500  2.0332  0.2158 -0.2593
  141MOL0     H19416   6.631   5.602   8.502 -2.6623 -0.0617  1.3930
  141MOL0     H19417   6.305   5.610   8.528 -1.3046 -2.3538 -1.9742
  141MOL0     H19418   6.313   5.726   8.398 -1.4873 -0.2315  2.4217
  141MOL0     H19419   6.444   5.723   8.517  0.2409 -1.2211  0.0599
  141MOL0     H19420   6.000   5.505   8.494  0.1023 -1.1067  0.5560
  141MOL0     H19421   5.758   5.487   8.477 -0.6244 -2.4257 -0.7512
  141MOL0     H19422   5.672   5.751   8.313 -0.2607  0.7582 -1.0089
  141MOL0     H19423   5.588   5.741   8.158 -2.9937  1.2410 -0.1783
  141MOL0     H19424   5.439   5.663   8.416  0.6304 -1.7912 -1.4499
  141MOL0     H19425   5.456   5.832   8.366  0.9291 -0.8843  0.3737
  141MOL0     H19426   5.334   5.623   8.196  1.6363  0.0354 -0.5710
  141MOL0     H19427   5.375   5.784   8.142 -1.3285 -2.5132 -2.3724
  141MOL0     H19428   5.213   5.881   8.254 -1.3991 -1.9226 -2.4131
  141MOL0     H19429   5.212   5.756   8.385 -0.7456  1.0555  0.4719
  141MOL0     H19430   5.095   5.774   8.107  0.0938  2.5279  1.5544
  141MOL0     H19431   5.089   5.618   8.200 -1.1672 -1.4296  1.3939
  141MOL0     H19432   4.944   5.891   8.227  3.1171  0.5781 -1.3738
  141MOL0     H19433   4.976   5.793   8.365  3.3475 -1.3972 -0.4470
  141MOL0     H19434   4.747   5.746   8.280  2.3557  4.2054  1.1485
  141MOL0     H19435   4.850   5.597   8.245  3.5458 -0.5754 -1.2788
  141MOL0     H19436   4.887   5.689   8.009  1.0829 -2.9713  2.5960
  141MOL0     H19437   4.760   5.813   8.054  1.0115  0.4440 -0.4134
  141MOL0     H19438   5.771   5.549   8.060 -1.2865  0.1702  0.8264
  141MOL0     H19439   6.050   5.503   8.078 -1.0268 -0.8105 -0.4680
  141MOL0     H19440   6.463   5.318   8.136  0.5220 -3.1631  3.0967
  141MOL0     H19441   6.704   5.320   8.191  1.2648  1.5602  0.0563
  141MOL0     H19442   8.172   4.987   9.311  0.1936  0.8573 -1.7875
  141MOL0     H19443   8.294   5.183   9.322 -1.0317 -0.9765  0.4002
  141MOL0     H19444   8.591   5.445   9.491  1.3359  1.6137  2.1530
  141MOL0     H19445   8.732   5.643   9.475 -0.3290 -0.4948 -1.9638
  141MOL0     H19446   8.777   5.920   9.269  0.2079 -0.2035  3.7227
  141MOL0     H19447   8.701   5.780   9.249 -0.8845 -0.2593 -1.0103
  141MOL0     H19448   8.473   5.903   9.198  0.3658 -0.4771 -0.3543
  141MOL0     H19449   8.601   5.899   9.077 -1.9088  1.1139 -1.1033
  141MOL0     H19450   8.493   6.122   9.265  1.2693 -0.0542  2.1645
  141MOL0     H19451   8.663   6.140   9.216  0.2495 -0.3650 -1.4244
  141MOL0     H19452   8.570   6.279   9.069  0.4947  0.2998 -0.8093
  141MOL0     H19453   8.434   6.168   9.036  0.4302 -0.6627 -1.0811
  141MOL0     H19454   8.734   6.042   8.760 -2.6696  0.2948 -1.7495
  141MOL0     H19455   8.399   5.886   9.426  3.2508  1.2775  0.7033
  141MOL0     H19456   8.176   5.671   9.315  0.3753 -2.7340  0.2925
  141MOL0     H19457   8.133   5.650   9.488  1.2314  1.8538  1.9654
  141MOL0     H19458   8.188   5.807   9.430  0.5399 -0.3976  3.5287
  142MOL0     O19459   0.897   5.683   5.159  0.2136  0.4382 -0.1689
  142MOL0     C19460   0.873   5.686   5.034  0.2741 -0.7136 -0.4736
  142MOL0     O19461   0.754   5.683   4.981 -0.5217  0.1812  0.0426
  142MOL0     C19462   0.649   5.683   5.066  0.0846 -0.4739  0.7969
  142MOL0     C19463   0.620   5.808   5.121 -0.0997 -1.1803 -0.6136
  142MOL0     C19464   0.519   5.813   5.216  0.0245 -0.4242 -0.1304
  142MOL0     C19465   0.450   5.693   5.250 -0.3724 -0.2286 -1.2997
  142MOL0     O19466   0.362   5.715   5.353  0.1677  0.3576  0.3679
  142MOL0     C19467   0.296   5.606   5.409  0.5424  0.8629  0.0730
  142MOL0     C19468   0.205   5.649   5.538 -0.6087  0.3860  0.2123
  142MOL0     C19469   0.101   5.766   5.516  0.8306  0.2383  0.8381
  142MOL0     C19470   0.047   5.815   5.647 -0.1571 -0.0038 -0.3023
  142MOL0     C19471  -0.034   5.946   5.626 -0.4306 -0.2206  0.0931
  142MOL0     C19472  -0.168   5.956   5.697  0.3504 -0.5830 -0.6230
  142MOL0     C19473  -0.240   6.089   5.656 -0.6314 -0.0880  0.7227
  142MOL0     C19474  -0.341   6.081   5.536 -0.0661  0.4729 -0.5297
  142MOL0     N19475  -0.339   6.205   5.454 -0.3599  0.4795 -0.0018
  142MOL0     C19476  -0.436   6.302   5.440  0.1084  0.0104 -0.4556
  142MOL0     C19477  -0.386   6.388   5.347 -0.4290 -0.1843 -0.2633
  142MOL0     C19478  -0.459   6.516   5.306  0.0160  0.3289 -0.6711
  142MOL0     C19479  -0.456   6.621   5.417 -0.0845  0.1573 -0.1402
  142MOL0     C19480  -0.537   6.748   5.385 -1.6736 -0.2346  0.0731
  142MOL0     C19481  -0.527   6.804   5.239 -0.4998  0.8907  0.0642
  142MOL0     O19482  -0.640   6.748   5.174 -0.1795 -0.1195  0.6273
  142MOL0     C19483  -0.645   6.760   5.031  0.4649  0.0073  0.0341
  142MOL0     C19484  -0.558   6.827   4.944  0.2024 -0.2286 -0.1731
  142MOL0     C19485  -0.588   6.828   4.802  0.0709  0.4609  1.1214
  142MOL0     C19486  -0.476   6.896   4.716 -0.6019  0.9351  0.4100
  142MOL0     C19487  -0.702   6.759   4.746  0.5568 -0.2548 -0.5392
  142MOL0     C19488  -0.716   6.729   4.604 -0.0763 -0.6819 -0.3356
  142MOL0     O19489  -0.782   6.628   4.569 -0.1342  0.6596 -0.5173
  142MOL0     C19490  -0.787   6.592   4.440  0.6363 -0.3022 -0.2001
  142MOL0     C19491  -0.668   6.581   4.369  0.9848 -0.0302  0.1325
  142MOL0     C19492  -0.668   6.517   4.242  0.7298 -0.1646 -0.7443
  142MOL0     C19493  -0.788   6.464   4.185 -0.0728 -0.2391 -0.1507
  142MOL0     O19494  -0.791   6.418   4.059  0.2610 -0.6188  0.3727
  142MOL0     C19495  -0.736   6.287   4.032  0.5381  0.5303  0.5587
  142MOL0     C19496  -0.693   6.256   3.891 -0.5753 -0.4967 -0.9803
  142MOL0     C19497  -0.686   6.100   3.862  1.0385 -0.8099 -0.5277
  142MOL0     C19498  -0.710   6.076   3.712 -0.4309 -0.0602  0.4242
  142MOL0     C19499  -0.598   6.147   3.625 -0.1637  0.5468  0.3415
  142MOL0     C19500  -0.603   6.094   3.477 -0.3499  0.3611  0.2303
  142MOL0     C19501  -0.506   6.183   3.392  0.5012  1.1533 -0.8295
  142MOL0     C19502  -0.491   6.133   3.240 -0.2011  0.1115  0.1644
  142MOL0    Cl19503  -0.400   5.979   3.237  0.3962  0.0828 -0.1612
  142MOL0     C19504  -0.907   6.475   4.259 -0.1850 -0.8790  0.1239
  142MOL0     C19505  -0.907   6.541   4.384  1.2264  0.3397  0.1082
  142MOL0     O19506  -0.680   6.823   4.527  0.5070  0.3307 -0.2555
  142MOL0     C19507  -0.786   6.698   4.835  0.7937  0.0585  0.4550
  142MOL0     C19508  -0.761   6.708   4.976 -1.0899  0.5588  0.8452
  142MOL0     N19509  -0.259   6.344   5.313 -0.1002  0.2900 -0.1410
  142MOL0     N19510  -0.233   6.235   5.373  0.0359  0.3087 -0.3569
  142MOL0     C19511   0.480   5.569   5.191  0.4160  0.1527 -0.2864
  142MOL0     C19512   0.578   5.562   5.098 -0.6140 -0.1253 -0.2211
  142MOL0     C19513   0.975   5.709   4.938 -1.0415 -0.2322 -0.3733
  142MOL0     C19514   0.954   5.809   4.842 -0.0123  0.1957  0.1075
  142MOL0     C19515   1.046   5.851   4.750 -0.2486 -0.1933 -0.0030
  142MOL0     C19516   1.172   5.798   4.748  0.1241  0.7558 -0.2116
  142MOL0     O19517   1.262   5.816   4.649  0.5635 -0.2367  0.2070
  142MOL0     C19518   1.250   5.935   4.571 -0.5551 -1.0384 -0.0454
  142MOL0     C19519   1.367   5.938   4.469  0.4484  1.4144 -0.0190
  142MOL0     C19520   1.333   5.833   4.363  0.0698 -0.0398  0.6011
  142MOL0     C19521   1.451   5.801   4.273  0.0335  0.6457 -0.3139
  142MOL0     C19522   1.407   5.704   4.167  0.5000 -0.2540 -0.6897
  142MOL0     C19523   1.364   5.619   4.093  0.2210  0.0744 -0.3562
  142MOL0     C19524   1.204   5.701   4.848 -0.1344 -0.4084 -0.2642
  142MOL0     C19525   1.112   5.664   4.950  0.0741  0.6254  0.1324
  142MOL0     C19526   1.155   5.579   5.071  0.8050  0.0514 -0.8625
  142MOL0     H19527   0.665   5.903   5.095 -0.0283  0.0505  3.2941
  142MOL0     H19528   0.487   5.905   5.263  0.5182 -0.6614  0.6939
  142MOL0     H19529   0.372   5.535   5.443  1.4044  1.5716 -0.3303
  142MOL0     H19530   0.221   5.565   5.341  1.6292 -3.3688  1.1301
  142MOL0     H19531   0.155   5.559   5.574 -2.7056 -0.3042 -3.8346
  142MOL0     H19532   0.268   5.676   5.624 -0.2261  1.1002 -0.2822
  142MOL0     H19533   0.163   5.845   5.472  0.0653  0.2018 -0.3331
  142MOL0     H19534   0.017   5.738   5.452  0.4783  3.3987 -0.2413
  142MOL0     H19535  -0.013   5.739   5.698  1.2013 -0.9524 -0.0737
  142MOL0     H19536   0.133   5.838   5.710  0.4828 -1.6391 -0.5423
  142MOL0     H19537  -0.061   5.946   5.520  0.0978 -1.6009 -0.0673
  142MOL0     H19538   0.030   6.032   5.648  0.8549 -1.4386  1.3154
  142MOL0     H19539  -0.228   5.876   5.653  1.3760 -0.1526 -2.9050
  142MOL0     H19540  -0.157   5.958   5.806  0.8708  4.7167 -0.5290
  142MOL0     H19541  -0.154   6.154   5.639 -1.8408  1.7427  1.3200
  142MOL0     H19542  -0.292   6.133   5.741  1.0797  0.6317  1.4270
  142MOL0     H19543  -0.316   5.996   5.470  1.4860  1.4494 -1.2618
  142MOL0     H19544  -0.441   6.073   5.579 -0.2001 -1.4825 -1.0937
  142MOL0     H19545  -0.532   6.306   5.491  0.7608  2.6026  0.7236
  142MOL0     H19546  -0.565   6.487   5.297 -0.1173  0.8967 -0.9268
  142MOL0     H19547  -0.418   6.554   5.213  2.6695  1.1408  0.7437
  142MOL0     H19548  -0.487   6.584   5.516 -1.7414  3.3288  0.6688
  142MOL0     H19549  -0.355   6.662   5.420 -0.7994  1.9740  0.9679
  142MOL0     H19550  -0.640   6.718   5.405 -1.1449 -3.2257 -1.2135
  142MOL0     H19551  -0.506   6.830   5.451 -2.8338  0.4150 -0.1504
  142MOL0     H19552  -0.531   6.913   5.239 -2.5822  0.8573 -0.2174
  142MOL0     H19553  -0.436   6.774   5.186 -1.3997 -2.0374 -0.0222
  142MOL0     H19554  -0.470   6.876   4.984  0.4340 -1.2173  0.5799
  142MOL0     H19555  -0.522   6.987   4.676 -0.4389  0.5937 -0.5910
  142MOL0     H19556  -0.452   6.824   4.637 -0.1388 -0.7398  1.9993
  142MOL0     H19557  -0.385   6.920   4.772  0.4841  1.5148 -1.5251
  142MOL0     H19558  -0.583   6.594   4.435  2.5801 -0.8078 -1.6928
  142MOL0     H19559  -0.574   6.511   4.187  1.5056  1.7811  0.2744
  142MOL0     H19560  -0.651   6.276   4.100  2.0542 -0.2815 -1.3982
  142MOL0     H19561  -0.809   6.208   4.053  3.4454 -2.6469 -0.4136
  142MOL0     H19562  -0.769   6.301   3.827  0.8132 -0.1061 -2.4020
  142MOL0     H19563  -0.596   6.306   3.897 -1.5637  1.3555  2.2744
  142MOL0     H19564  -0.755   6.048   3.928  0.3912  2.2700  1.4170
  142MOL0     H19565  -0.591   6.065   3.906  1.0310 -0.6388 -0.3746
  142MOL0     H19566  -0.812   6.102   3.681 -0.0005 -1.4473 -2.5075
  142MOL0     H19567  -0.703   5.971   3.679 -0.7349 -0.3400  1.2272
  142MOL0     H19568  -0.606   6.256   3.624 -1.7962  0.4513 -1.0128
  142MOL0     H19569  -0.500   6.123   3.667 -1.3036 -5.6283  0.3552
  142MOL0     H19570  -0.702   6.095   3.431 -0.1691 -0.3534 -0.1933
  142MOL0     H19571  -0.573   5.989   3.478 -0.1873  0.3403 -1.9237
  142MOL0     H19572  -0.409   6.176   3.441 -0.2405 -2.3912  0.4383
  142MOL0     H19573  -0.535   6.286   3.411 -2.0797  0.0070  2.4758
  142MOL0     H19574  -0.425   6.200   3.184  1.3423 -0.5028  1.1648
  142MOL0     H19575  -0.585   6.127   3.185  0.6300 -0.3348 -1.2431
  142MOL0     H19576  -1.000   6.443   4.212  0.4558  2.0058 -3.5380
  142MOL0     H19577  -0.996   6.536   4.445  2.6774  0.5851  2.3560
  142MOL0     H19578  -0.870   6.637   4.803  2.3955 -1.5417 -0.9559
  142MOL0     H19579  -0.821   6.656   5.050  1.8567 -2.3369  1.4631
  142MOL0     H19580   0.417   5.482   5.208 -0.0749  0.0098 -2.5596
  142MOL0     H19581   0.601   5.467   5.051 -1.0366 -0.7460  0.7933
  142MOL0     H19582   0.860   5.863   4.845 -2.0651 -3.1250  1.6371
  142MOL0     H19583   1.037   5.937   4.684 -0.0588  0.6978  1.1044
  142MOL0     H19584   1.161   5.938   4.508 -0.3216 -1.4905 -0.4007
  142MOL0     H19585   1.256   6.024   4.634 -1.0315 -0.7933 -0.3398
  142MOL0     H19586   1.460   5.916   4.524  0.0852 -0.3839 -0.0616
  142MOL0     H19587   1.368   6.038   4.425  2.2785  0.6086 -1.9969
  142MOL0     H19588   1.308   5.738   4.410  1.8337  0.1830  2.0849
  142MOL0     H19589   1.248   5.863   4.300  0.8136  1.0813  0.1092
  142MOL0     H19590   1.525   5.748   4.335  0.5677  3.1318  1.3074
  142MOL0     H19591   1.498   5.894   4.240  0.4309  0.4537 -0.3009
  142MOL0     H19592   1.340   5.547   4.017  4.8245 -0.5817 -1.5295
  142MOL0     H19593   1.310   5.682   4.841  0.0354  1.0379 -2.6697
  142MOL0     H19594   1.254   5.537   5.051  0.4945 -2.5751  2.2300
  142MOL0     H19595   1.169   5.642   5.160  0.0798 -1.6260  0.5027
  142MOL0     H19596   1.089   5.498   5.104  0.1988  0.8465 -0.0523
  143MOL0     O19597   8.076   1.362   9.021  0.0245  0.3686 -0.4086
  143MOL0     C19598   8.135   1.351   8.912  0.4971  0.1987 -0.7433
  143MOL0     O19599   8.077   1.338   8.785 -0.3404 -0.1450 -0.1761
  143MOL0     C19600   7.939   1.346   8.771  0.2042 -0.6910  0.4223
  143MOL0     C19601   7.878   1.225   8.786  0.0894 -0.3410  1.4064
  143MOL0     C19602   7.746   1.210   8.798  0.3634  0.8451 -0.4540
  143MOL0     C19603   7.656   1.320   8.774 -0.8009  0.6505  0.8672
  143MOL0     O19604   7.521   1.316   8.777 -0.8703 -0.5540 -0.2263
  143MOL0     C19605   7.468   1.184   8.758  0.2963 -0.8732 -0.3284
  143MOL0     C19606   7.498   1.119   8.626 -0.4496 -0.5775  0.1076
  143MOL0     C19607   7.474   1.216   8.510  0.8658  0.0005  0.3273
  143MOL0     C19608   7.489   1.135   8.385  0.5002 -0.4514  0.5447
  143MOL0     C19609   7.422   1.220   8.277 -0.1099 -0.4295 -0.1848
  143MOL0     C19610   7.415   1.155   8.141 -0.5880  0.8533 -0.7653
  143MOL0     C19611   7.375   1.255   8.036  0.5116 -0.4934 -0.4473
  143MOL0     C19612   7.237   1.332   8.062 -0.0769 -0.1866 -0.0883
  143MOL0     N19613   7.121   1.243   8.061  0.1507 -0.0929  1.0932
  143MOL0     C19614   7.090   1.153   7.952 -0.3512 -0.3265 -0.4104
  143MOL0     C19615   6.965   1.112   7.978 -0.3458  0.4327  0.2271
  143MOL0     C19616   6.900   0.996   7.904  0.0439 -0.0233  0.1727
  143MOL0     C19617   6.834   0.890   7.988 -0.0957 -1.1131  0.0727
  143MOL0     C19618   6.801   0.757   7.907  1.1764  0.3086 -0.5246
  143MOL0     C19619   6.737   0.782   7.769  0.4226  0.6522  0.1365
  143MOL0     O19620   6.727   0.660   7.708 -0.7616 -0.2060  0.1650
  143MOL0     C19621   6.664   0.646   7.594 -0.0114  0.1411 -0.0540
  143MOL0     C19622   6.593   0.749   7.526  0.2219  0.3253  0.1082
  143MOL0     C19623   6.523   0.725   7.407  0.2326  0.2115  0.8136
  143MOL0     C19624   6.424   0.824   7.361 -0.2029  0.0852 -0.1188
  143MOL0     C19625   6.527   0.601   7.345 -0.1014  0.3808 -0.0518
  143MOL0     C19626   6.465   0.561   7.215  0.1543  0.6324  0.2498
  143MOL0     O19627   6.449   0.429   7.189  0.4868 -0.0509 -0.5406
  143MOL0     C19628   6.385   0.392   7.074 -0.3266  0.0911  0.6600
  143MOL0     C19629   6.463   0.356   6.964  0.6761  0.1281 -0.0646
  143MOL0     C19630   6.401   0.310   6.843 -0.5273  0.5745 -0.5507
  143MOL0     C19631   6.266   0.310   6.830  0.0050 -0.1020 -0.4775
  143MOL0     O19632   6.206   0.284   6.708 -0.2077  0.2327 -0.6491
  143MOL0     C19633   6.065   0.257   6.697  0.8612 -0.8201 -0.0346
  143MOL0     C19634   5.979   0.386   6.669  0.2943 -0.2433  0.5569
  143MOL0     C19635   5.831   0.361   6.672  0.0761 -0.4444  0.3571
  143MOL0     C19636   5.783   0.344   6.813  0.7309 -0.8355  0.3526
  143MOL0     C19637   5.632   0.368   6.827  0.1460  0.0802 -0.4672
  143MOL0     C19638   5.588   0.512   6.836 -0.2272 -0.2224 -0.0543
  143MOL0     C19639   5.481   0.551   6.734 -0.1840 -0.2149  0.3365
  143MOL0     C19640   5.389   0.666   6.781 -0.6132  0.2346 -0.3483
  143MOL0    Cl19641   5.464   0.827   6.817 -0.1223 -0.6372  0.1227
  143MOL0     C19642   6.190   0.347   6.946  0.7377 -0.4867 -0.4624
  143MOL0     C19643   6.248   0.395   7.062  0.3309 -0.1800 -0.1024
  143MOL0     O19644   6.433   0.649   7.136  0.6756 -0.3140  0.4837
  143MOL0     C19645   6.596   0.501   7.419 -0.3595  0.2739 -0.8123
  143MOL0     C19646   6.656   0.518   7.540  0.1974  0.5431 -0.7302
  143MOL0     N19647   6.916   1.181   8.088 -0.9088  0.1609 -0.5170
  143MOL0     N19648   7.010   1.257   8.134 -0.1065  1.4294 -0.2364
  143MOL0     C19649   7.722   1.444   8.767  0.0553  0.0702  0.2653
  143MOL0     C19650   7.857   1.459   8.774  0.1796 -0.0060 -0.5018
  143MOL0     C19651   8.290   1.320   8.916  0.0311 -0.4416 -0.3078
  143MOL0     C19652   8.341   1.257   8.799  0.4083  0.7001  0.7644
  143MOL0     C19653   8.473   1.218   8.789  0.4899 -0.0095  0.4239
  143MOL0     C19654   8.567   1.234   8.887  0.2159 -0.6473  0.1442
  143MOL0     O19655   8.697   1.187   8.861 -0.2697  0.9517  0.5996
  143MOL0     C19656   8.773   1.170   8.980 -0.8285  0.3196 -0.3112
  143MOL0     C19657   8.900   1.086   8.973  0.0895 -0.2753 -0.0666
  143MOL0     C19658   9.013   1.181   8.916 -0.2056 -0.1957  0.8569
  143MOL0     C19659   9.136   1.093   8.905  0.6224 -0.2967 -0.9125
  143MOL0     C19660   9.267   1.166   8.898  0.5348  0.3071  0.4632
  143MOL0     C19661   9.355   1.247   8.914 -0.7493 -0.2906 -0.2198
  143MOL0     C19662   8.524   1.312   9.002  0.2182 -0.1669  0.3436
  143MOL0     C19663   8.387   1.347   9.020 -0.0462  0.1128  0.2616
  143MOL0     C19664   8.349   1.415   9.146  0.4583 -0.0302 -0.7552
  143MOL0     H19665   7.940   1.139   8.809  2.4846  0.0047 -2.8587
  143MOL0     H19666   7.711   1.108   8.807 -0.8886  1.1351 -1.8088
  143MOL0     H19667   7.359   1.184   8.765  0.2823 -3.9982  0.8460
  143MOL0     H19668   7.503   1.114   8.835 -0.6839 -1.4584 -0.3941
  143MOL0     H19669   7.600   1.083   8.617 -0.2282 -0.2763  1.2695
  143MOL0     H19670   7.437   1.029   8.610  0.2171 -0.7394 -1.7166
  143MOL0     H19671   7.369   1.246   8.516  1.2061  1.1336  1.0948
  143MOL0     H19672   7.552   1.293   8.511  1.3041 -0.4387  0.7799
  143MOL0     H19673   7.593   1.107   8.372  1.3122  2.3607  0.2896
  143MOL0     H19674   7.426   1.046   8.384  0.2135 -0.2569  0.7937
  143MOL0     H19675   7.483   1.311   8.274  1.9521 -1.7419 -0.6001
  143MOL0     H19676   7.316   1.239   8.296 -0.2274 -2.6344  1.8839
  143MOL0     H19677   7.512   1.120   8.106 -0.2178  0.9945  0.1076
  143MOL0     H19678   7.352   1.066   8.149  1.9323 -1.1497 -1.9040
  143MOL0     H19679   7.377   1.207   7.938  2.3264 -1.4798  0.0354
  143MOL0     H19680   7.458   1.325   8.023  0.5418 -0.3239  0.5385
  143MOL0     H19681   7.232   1.382   8.160 -1.2606  0.0583 -0.2567
  143MOL0     H19682   7.212   1.405   7.984 -2.6066 -0.6559  0.1966
  143MOL0     H19683   7.155   1.105   7.879  0.2634 -1.4578  0.8404
  143MOL0     H19684   6.970   0.930   7.852 -0.7624 -2.4308  1.9721
  143MOL0     H19685   6.835   1.039   7.826 -0.7180 -1.0381  0.2266
  143MOL0     H19686   6.906   0.872   8.069  0.9086 -1.6718 -0.9165
  143MOL0     H19687   6.740   0.936   8.019  0.5978  0.4013 -0.0312
  143MOL0     H19688   6.891   0.696   7.904  0.9859  0.0692 -2.1761
  143MOL0     H19689   6.720   0.710   7.964  1.1560  1.6060  0.5937
  143MOL0     H19690   6.646   0.843   7.776 -0.2209 -0.4232  1.6498
  143MOL0     H19691   6.809   0.832   7.704 -1.0695  0.7520 -1.5069
  143MOL0     H19692   6.585   0.850   7.568  1.0815  0.1295  0.7622
  143MOL0     H19693   6.397   0.891   7.443 -3.2402 -0.2329 -0.7468
  143MOL0     H19694   6.334   0.774   7.326 -1.6206  3.3378 -1.5816
  143MOL0     H19695   6.463   0.897   7.289 -0.3355 -1.6044 -1.9634
  143MOL0     H19696   6.570   0.366   6.975  0.8697 -1.3496 -0.4856
  143MOL0     H19697   6.461   0.277   6.759  1.3732  1.1418  0.5409
  143MOL0     H19698   6.036   0.184   6.621 -0.7637 -0.2910  0.0312
  143MOL0     H19699   6.044   0.216   6.797 -0.3860 -1.0881 -0.3946
  143MOL0     H19700   6.007   0.465   6.739  1.7848  0.2164 -0.5146
  143MOL0     H19701   6.002   0.424   6.570 -0.9565 -0.4540  0.1616
  143MOL0     H19702   5.783   0.289   6.605 -3.4986  1.0741  1.0458
  143MOL0     H19703   5.785   0.457   6.646  1.4830 -0.0486 -0.7589
  143MOL0     H19704   5.828   0.405   6.892 -0.6107 -0.0649  0.5547
  143MOL0     H19705   5.796   0.240   6.844  0.4299 -1.3146 -1.0444
  143MOL0     H19706   5.580   0.321   6.744 -1.9743  1.4051  0.0435
  143MOL0     H19707   5.590   0.320   6.915 -2.1153 -2.6303 -2.8413
  143MOL0     H19708   5.662   0.592   6.825 -2.2847  2.3869  3.0664
  143MOL0     H19709   5.543   0.521   6.936  0.8487  1.8313  0.2985
  143MOL0     H19710   5.407   0.472   6.721 -1.5386  1.1073 -0.2129
  143MOL0     H19711   5.519   0.576   6.634 -4.5796  0.8221 -1.2938
  143MOL0     H19712   5.338   0.629   6.870 -2.5428 -1.1784 -1.9425
  143MOL0     H19713   5.314   0.686   6.703 -1.1033  0.7326  0.2420
  143MOL0     H19714   6.082   0.347   6.945  0.7067 -1.1243 -2.6800
  143MOL0     H19715   6.191   0.422   7.150 -0.7975 -0.6497 -0.6641
  143MOL0     H19716   6.588   0.404   7.370 -4.0098  0.1409 -0.2478
  143MOL0     H19717   6.710   0.439   7.591  1.9243  1.7486 -0.6057
  143MOL0     H19718   7.677   1.541   8.747  2.3214  0.5828 -3.2349
  143MOL0     H19719   7.902   1.558   8.775 -1.9292  1.0092 -0.8106
  143MOL0     H19720   8.285   1.233   8.710  0.8011 -2.9586  1.3248
  143MOL0     H19721   8.502   1.169   8.696 -1.2303  1.8573 -1.2054
  143MOL0     H19722   8.809   1.270   9.007 -2.1504  1.4026 -2.2708
  143MOL0     H19723   8.705   1.124   9.052  0.1294  1.0482  1.1226
  143MOL0     H19724   8.873   0.997   8.916  1.3204 -1.7082  1.4470
  143MOL0     H19725   8.923   1.062   9.078 -3.3331  2.0982  1.3998
  143MOL0     H19726   8.997   1.237   8.823  1.4284  0.5423  0.9883
  143MOL0     H19727   9.033   1.262   8.987  0.0990 -0.7440  1.4070
  143MOL0     H19728   9.137   1.040   8.809  3.1071  1.1656 -1.8070
  143MOL0     H19729   9.138   1.023   8.988 -0.5869 -1.1711 -1.5990
  143MOL0     H19730   9.422   1.330   8.920  1.4174 -1.7038 -2.6165
  143MOL0     H19731   8.602   1.338   9.073 -0.4305 -1.7671  1.7198
  143MOL0     H19732   8.314   1.339   9.217  2.3293  1.3960  1.8590
  143MOL0     H19733   8.437   1.465   9.188  1.7722 -1.8550 -1.2071
  143MOL0     H19734   8.270   1.487   9.123 -0.6848 -1.4201 -1.3248
  144MOL0     O19735   2.455   4.832   1.427  0.3861  0.5147 -0.2795
  144MOL0     C19736   2.464   4.948   1.396  0.9546  0.1970 -0.5770
  144MOL0     O19737   2.422   5.054   1.477 -0.2800 -0.1624  0.0423
  144MOL0     C19738   2.352   5.040   1.590  0.5182  0.0774  0.8983
  144MOL0     C19739   2.262   4.938   1.630 -0.0184 -0.2835 -0.3837
  144MOL0     C19740   2.183   4.950   1.746 -0.2357  0.2274 -0.0951
  144MOL0     C19741   2.189   5.060   1.828 -1.0176 -0.8914  0.1383
  144MOL0     O19742   2.107   5.061   1.937 -0.4571 -0.2364 -0.0929
  144MOL0     C19743   2.174   5.087   2.065 -0.3340  0.4485 -0.8165
  144MOL0     C19744   2.068   5.088   2.172  0.2167 -0.8500 -0.6278
  144MOL0     C19745   1.973   5.218   2.167 -0.2598  1.1503  0.9584
  144MOL0     C19746   1.858   5.199   2.265 -0.1706 -0.1625 -0.0132
  144MOL0     C19747   1.746   5.311   2.242  0.7164  0.5758 -0.1002
  144MOL0     C19748   1.646   5.311   2.362  0.2983 -0.3632  0.3641
  144MOL0     C19749   1.559   5.443   2.365  0.1990  1.3999  0.2635
  144MOL0     C19750   1.477   5.454   2.498 -0.0832  0.2861  0.2514
  144MOL0     N19751   1.558   5.424   2.618  0.3509 -0.0633 -0.2480
  144MOL0     C19752   1.547   5.305   2.690  0.2335  0.3169  0.6140
  144MOL0     C19753   1.642   5.315   2.783 -0.3974 -0.5473 -0.1542
  144MOL0     C19754   1.700   5.202   2.870  1.2109  0.1515  0.4556
  144MOL0     C19755   1.829   5.137   2.798 -0.4150  0.4603 -0.4083
  144MOL0     C19756   1.903   5.025   2.868  0.3520 -0.0569 -0.8422
  144MOL0     C19757   2.001   4.950   2.785 -0.2085 -0.2755 -0.1152
  144MOL0     O19758   2.103   5.046   2.739 -0.0044 -0.3088 -0.8473
  144MOL0     C19759   2.181   4.989   2.644 -0.0931 -0.9710  0.2838
  144MOL0     C19760   2.255   5.075   2.559  0.0639 -0.1192  0.5140
  144MOL0     C19761   2.340   5.034   2.454 -0.8628 -0.1208 -0.1086
  144MOL0     C19762   2.402   5.142   2.370  0.3522 -0.8687 -0.5505
  144MOL0     C19763   2.368   4.898   2.441 -0.2076  0.6933  0.2561
  144MOL0     C19764   2.469   4.838   2.347 -0.1257 -0.0018  0.6321
  144MOL0     O19765   2.529   4.720   2.373  0.1296  0.9237  0.3770
  144MOL0     C19766   2.596   4.669   2.267  0.0590 -1.1237 -1.7342
  144MOL0     C19767   2.526   4.570   2.183  0.4285 -0.1464  1.0103
  144MOL0     C19768   2.596   4.511   2.082 -0.7380 -0.1544 -0.6340
  144MOL0     C19769   2.734   4.547   2.059 -0.7146  0.1624 -0.5677
  144MOL0     O19770   2.803   4.487   1.957 -0.1076  0.2082  0.4076
  144MOL0     C19771   2.914   4.536   1.894  0.1338 -0.4359 -0.7497
  144MOL0     C19772   2.931   4.446   1.770 -0.0343  0.6163 -0.0509
  144MOL0     C19773   2.943   4.304   1.816 -0.2401  0.2243  0.3155
  144MOL0     C19774   3.041   4.219   1.741 -0.2089  0.0115 -0.2877
  144MOL0     C19775   3.051   4.075   1.803  0.3227  0.0151 -0.4686
  144MOL0     C19776   3.137   4.069   1.927 -1.0222 -0.4990 -0.4063
  144MOL0     C19777   3.102   3.953   2.029 -0.7580  0.4373  0.3767
  144MOL0     C19778   3.187   3.975   2.155  0.2950 -0.2026 -0.2977
  144MOL0    Cl19779   3.098   3.888   2.293  0.5956 -0.2045  0.0317
  144MOL0     C19780   2.797   4.639   2.128 -0.3120  0.3810  0.4624
  144MOL0     C19781   2.730   4.694   2.236 -0.5537  0.1695  0.2015
  144MOL0     O19782   2.507   4.909   2.252  0.2074 -0.3944  0.0364
  144MOL0     C19783   2.296   4.804   2.519  0.3595 -0.3842 -0.4389
  144MOL0     C19784   2.207   4.857   2.617  0.8216 -0.5506 -0.4762
  144MOL0     N19785   1.702   5.435   2.774 -0.3447 -0.1445 -0.5325
  144MOL0     N19786   1.652   5.501   2.674 -0.9866  0.0051  0.8936
  144MOL0     C19787   2.276   5.159   1.790 -0.9208  0.0607 -0.3764
  144MOL0     C19788   2.364   5.145   1.676 -0.3080 -0.1351 -0.4381
  144MOL0     C19789   2.553   4.984   1.279  0.1690 -0.1652  0.0703
  144MOL0     C19790   2.653   4.894   1.236 -0.3871  0.3750  0.6587
  144MOL0     C19791   2.733   4.923   1.129 -0.7564  0.0988  1.1924
  144MOL0     C19792   2.715   5.039   1.045 -0.8317  0.2231  0.4247
  144MOL0     O19793   2.780   5.061   0.926 -0.0678 -0.9731 -0.4294
  144MOL0     C19794   2.845   4.960   0.856 -0.3863  0.2220  0.0535
  144MOL0     C19795   2.850   5.009   0.706 -0.1194  0.0528 -1.5203
  144MOL0     C19796   2.942   4.912   0.629 -0.1935 -0.1258  0.4329
  144MOL0     C19797   2.997   4.972   0.497 -0.0505 -0.0383 -0.6383
  144MOL0     C19798   2.903   5.008   0.395 -0.1844 -0.3391 -0.2209
  144MOL0     C19799   2.822   5.066   0.319 -0.0567 -0.7125  0.6009
  144MOL0     C19800   2.620   5.125   1.087 -0.9689 -0.9068 -0.4010
  144MOL0     C19801   2.539   5.105   1.199  0.8664  1.1029 -0.0477
  144MOL0     C19802   2.432   5.211   1.235 -0.0438  0.4675 -0.5568
  144MOL0     H19803   2.255   4.851   1.565 -0.4842  1.0981 -2.2979
  144MOL0     H19804   2.118   4.873   1.785 -1.3897 -0.8840 -3.8375
  144MOL0     H19805   2.236   5.177   2.067 -0.6253  0.6812  2.4822
  144MOL0     H19806   2.232   4.997   2.089 -0.1809  0.5674 -0.7389
  144MOL0     H19807   2.009   4.998   2.191 -0.0897 -0.0895  2.5484
  144MOL0     H19808   2.133   5.102   2.258 -1.2164  0.3866  0.3210
  144MOL0     H19809   2.021   5.310   2.201 -2.0215  1.7094  2.1158
  144MOL0     H19810   1.939   5.221   2.063 -1.1855 -4.1730  0.8369
  144MOL0     H19811   1.821   5.098   2.249  0.8607 -0.6990  0.8382
  144MOL0     H19812   1.911   5.201   2.361 -2.4827 -1.9759  1.4280
  144MOL0     H19813   1.682   5.279   2.160  1.3882  0.7462 -0.7040
  144MOL0     H19814   1.789   5.410   2.222  2.4363 -0.0952  0.0892
  144MOL0     H19815   1.592   5.217   2.373 -1.1244  0.5595  1.5843
  144MOL0     H19816   1.708   5.302   2.452 -1.1441 -0.4419  1.3834
  144MOL0     H19817   1.503   5.446   2.272  1.6797 -1.8815 -0.9042
  144MOL0     H19818   1.629   5.526   2.358  4.3803 -1.5922  1.9575
  144MOL0     H19819   1.424   5.549   2.498 -0.6552  0.1952 -4.1087
  144MOL0     H19820   1.397   5.379   2.497  1.9834 -2.0758  1.3025
  144MOL0     H19821   1.487   5.217   2.673 -0.5884  0.6936  1.4923
  144MOL0     H19822   1.626   5.122   2.878  2.6957 -1.3230  0.0486
  144MOL0     H19823   1.719   5.249   2.968  0.1721 -0.5511  1.0103
  144MOL0     H19824   1.797   5.101   2.699 -0.2564 -1.4700  0.2090
  144MOL0     H19825   1.905   5.214   2.786 -1.0081  1.2493  0.7532
  144MOL0     H19826   1.949   5.062   2.960  0.5871 -2.8737  0.2829
  144MOL0     H19827   1.828   4.960   2.914  1.8927 -0.6041  1.0639
  144MOL0     H19828   2.038   4.859   2.832  0.6412  0.4126  0.5833
  144MOL0     H19829   1.943   4.913   2.700  1.7007 -0.4679 -1.3791
  144MOL0     H19830   2.227   5.178   2.582 -0.3382 -0.7316  3.0635
  144MOL0     H19831   2.402   5.123   2.262  1.3645  2.0784 -1.1562
  144MOL0     H19832   2.503   5.159   2.406  0.4488 -0.9060 -0.8023
  144MOL0     H19833   2.345   5.233   2.389  0.8567 -1.1576  2.9100
  144MOL0     H19834   2.420   4.559   2.202  0.7055 -2.0112  1.7200
  144MOL0     H19835   2.556   4.423   2.033  0.2582 -0.2427 -1.3091
  144MOL0     H19836   2.884   4.638   1.868  1.5322  0.1805 -0.0102
  144MOL0     H19837   3.010   4.536   1.946  0.4083  1.4354 -1.2122
  144MOL0     H19838   2.846   4.458   1.702  1.1308  1.4653 -1.4115
  144MOL0     H19839   3.020   4.464   1.708  0.3935 -2.5916 -0.5591
  144MOL0     H19840   2.854   4.244   1.793  0.0272 -0.0569  0.0218
  144MOL0     H19841   2.954   4.303   1.925  1.8878  2.1599  0.1821
  144MOL0     H19842   3.138   4.269   1.742 -1.2019  2.0503  0.0753
  144MOL0     H19843   3.008   4.212   1.637  0.5192 -0.4246 -0.4956
  144MOL0     H19844   2.960   4.014   1.809  2.6179 -3.7458 -0.9236
  144MOL0     H19845   3.113   4.027   1.728  2.0604 -0.5482  1.2346
  144MOL0     H19846   3.133   4.163   1.984 -1.5333 -0.5796 -0.3088
  144MOL0     H19847   3.240   4.058   1.891 -1.4645 -0.4915 -1.6960
  144MOL0     H19848   3.116   3.856   1.980 -1.6974 -0.1894  1.3145
  144MOL0     H19849   2.995   3.960   2.048 -1.5596  0.9926 -3.4553
  144MOL0     H19850   3.197   4.081   2.180 -0.3988  0.1557 -1.4708
  144MOL0     H19851   3.292   3.947   2.145 -0.2135 -3.0407  1.2022
  144MOL0     H19852   2.899   4.668   2.102  1.0061 -4.1921 -0.5171
  144MOL0     H19853   2.764   4.770   2.305  0.9290 -2.3884  2.4792
  144MOL0     H19854   2.303   4.696   2.509 -0.8490 -0.7875  2.2343
  144MOL0     H19855   2.176   4.781   2.689  1.9217 -0.0990  0.5119
  144MOL0     H19856   2.279   5.245   1.855 -2.1437  0.4307 -0.7761
  144MOL0     H19857   2.435   5.225   1.658 -0.6976  0.1986 -0.5252
  144MOL0     H19858   2.685   4.805   1.291 -0.7021  1.5088  2.7767
  144MOL0     H19859   2.810   4.849   1.107  0.3430  1.2197  1.1792
  144MOL0     H19860   2.947   4.948   0.896 -0.4768 -1.9546 -0.2897
  144MOL0     H19861   2.813   4.856   0.867 -0.3981  0.3399  1.3218
  144MOL0     H19862   2.900   5.105   0.717 -0.1651 -0.0489 -0.3698
  144MOL0     H19863   2.750   5.017   0.660  0.1240  3.4617 -1.7322
  144MOL0     H19864   3.027   4.878   0.688  0.1585  3.1449  2.0188
  144MOL0     H19865   2.899   4.816   0.598  1.8003 -0.9124 -0.0410
  144MOL0     H19866   3.079   4.908   0.462 -0.9496 -0.7780 -1.4635
  144MOL0     H19867   3.057   5.061   0.518 -4.2475  2.7820  0.8478
  144MOL0     H19868   2.765   5.107   0.238  0.2429 -1.1652  0.1503
  144MOL0     H19869   2.603   5.217   1.034  0.8453  0.5514  1.3717
  144MOL0     H19870   2.457   5.248   1.335  1.5562 -1.3629 -0.2098
  144MOL0     H19871   2.438   5.299   1.171 -1.1942  0.5895 -0.5294
  144MOL0     H19872   2.330   5.171   1.236  1.2051 -3.1614 -1.1140
  145MOL0     O19873   2.421   9.455   4.722 -0.2689 -0.2678 -0.9301
  145MOL0     C19874   2.356   9.519   4.642 -1.4503 -0.5358  0.0341
  145MOL0     O19875   2.418   9.610   4.541  0.7418 -0.8844 -0.1406
  145MOL0     C19876   2.540   9.667   4.575 -0.8551 -0.2960 -0.3468
  145MOL0     C19877   2.538   9.796   4.619 -1.6163 -0.6455  0.1554
  145MOL0     C19878   2.663   9.865   4.632  0.2252 -0.8357  0.1879
  145MOL0     C19879   2.785   9.804   4.612  1.1506  0.1784  0.9123
  145MOL0     O19880   2.896   9.880   4.631 -0.5943 -0.4403 -0.4845
  145MOL0     C19881   3.008   9.802   4.660  0.1599  0.4361 -0.4664
  145MOL0     C19882   3.105   9.903   4.722  0.2290 -0.3208 -0.3047
  145MOL0     C19883   3.064   9.935   4.871  0.4249 -0.2301  0.4647
  145MOL0     C19884   3.175  10.028   4.919  0.2610  0.0368  1.0920
  145MOL0     C19885   3.154  10.047   5.072 -0.3899  0.3038  0.5726
  145MOL0     C19886   3.263  10.144   5.136 -0.1322  0.6603  0.3286
  145MOL0     C19887   3.280  10.114   5.281 -0.4726 -0.4688 -0.0200
  145MOL0     C19888   3.315  10.241   5.349  0.5234 -0.2587  1.5321
  145MOL0     N19889   3.353  10.217   5.489  0.7376 -0.2699 -0.3582
  145MOL0     C19890   3.468  10.231   5.557 -1.0055 -0.1022  0.1156
  145MOL0     C19891   3.453  10.181   5.673 -0.0284  0.2533 -0.7988
  145MOL0     C19892   3.565  10.191   5.784 -0.0760  0.2317 -0.1281
  145MOL0     C19893   3.652  10.063   5.797 -0.3367 -0.0909  0.8037
  145MOL0     C19894   3.761  10.036   5.693 -0.2482  1.0809  0.0167
  145MOL0     C19895   3.794   9.885   5.690  0.4610  0.1800 -0.5319
  145MOL0     O19896   3.884   9.862   5.585 -0.3175 -0.7055  0.2783
  145MOL0     C19897   3.870   9.754   5.500  1.4313  0.3307  0.0009
  145MOL0     C19898   3.957   9.744   5.388 -0.0114 -0.2360 -0.6476
  145MOL0     C19899   3.971   9.631   5.297 -0.1614 -0.5876  0.4126
  145MOL0     C19900   4.054   9.677   5.172 -0.5242  1.3762  0.2364
  145MOL0     C19901   3.886   9.523   5.314 -0.7803 -0.2946 -1.2196
  145MOL0     C19902   3.872   9.409   5.219 -0.1675  0.0738  0.7114
  145MOL0     O19903   3.988   9.375   5.152 -0.0622  0.0558  1.3119
  145MOL0     C19904   4.014   9.251   5.099 -0.0611 -0.3013 -0.3137
  145MOL0     C19905   4.115   9.252   4.991  1.0455  0.4112 -0.2904
  145MOL0     C19906   4.129   9.129   4.931 -0.0647 -0.0576 -0.0813
  145MOL0     C19907   4.071   9.013   4.977 -0.1768  0.1039 -0.5409
  145MOL0     O19908   4.106   8.901   4.907  0.9208  0.1017 -0.7888
  145MOL0     C19909   4.014   8.788   4.890  0.1123 -0.6323 -0.2145
  145MOL0     C19910   4.102   8.688   4.811  0.3449  0.1986  0.2492
  145MOL0     C19911   4.051   8.536   4.805 -0.2027 -0.4961  0.4177
  145MOL0     C19912   4.136   8.449   4.707  0.2767 -0.1701  0.2320
  145MOL0     C19913   4.117   8.485   4.565  0.5645 -0.3178 -0.0754
  145MOL0     C19914   4.002   8.413   4.500 -0.0388 -0.3378  0.5468
  145MOL0     C19915   3.995   8.435   4.349 -0.0633 -0.1871  0.2380
  145MOL0     C19916   3.875   8.511   4.288 -0.6089 -0.4520  0.3593
  145MOL0    Cl19917   3.856   8.672   4.384 -0.6860 -0.3715  0.2272
  145MOL0     C19918   3.992   9.013   5.092 -0.2273 -0.3662 -0.4989
  145MOL0     C19919   3.955   9.138   5.156 -0.4940  0.2275 -0.2916
  145MOL0     O19920   3.764   9.345   5.207 -0.6120  0.2219 -0.1153
  145MOL0     C19921   3.798   9.527   5.420  0.5946 -1.2256  1.1881
  145MOL0     C19922   3.792   9.633   5.513  0.0523 -0.5609 -0.2445
  145MOL0     N19923   3.329  10.132   5.686  0.0952  1.4329  0.1023
  145MOL0     N19924   3.268  10.151   5.574  0.5023 -0.2435  0.1444
  145MOL0     C19925   2.782   9.672   4.576 -1.2296 -0.2218  0.4432
  145MOL0     C19926   2.661   9.597   4.558  0.1368  0.1640 -0.3562
  145MOL0     C19927   2.220   9.497   4.626  0.4035 -0.0619  0.1319
  145MOL0     C19928   2.135   9.587   4.549 -1.3676  0.8337  0.3168
  145MOL0     C19929   2.004   9.573   4.518 -0.3562 -0.1590  0.5696
  145MOL0     C19930   1.930   9.473   4.590  0.8106  0.0595  0.4016
  145MOL0     O19931   1.792   9.474   4.577  0.9734  0.9139  0.4276
  145MOL0     C19932   1.712   9.376   4.647  0.6742 -0.0996 -0.5761
  145MOL0     C19933   1.565   9.406   4.616  0.4550 -0.1999 -0.1694
  145MOL0     C19934   1.527   9.538   4.683  0.1401  0.1155  0.0642
  145MOL0     C19935   1.395   9.580   4.630 -0.6915  0.2567  0.1437
  145MOL0     C19936   1.292   9.507   4.701  0.2728 -0.0480  0.3922
  145MOL0     C19937   1.216   9.444   4.768 -0.8612 -0.1423 -0.3445
  145MOL0     C19938   2.004   9.384   4.659  0.0894  0.4100 -0.3571
  145MOL0     C19939   2.144   9.388   4.675 -0.1253 -0.1599  0.4226
  145MOL0     C19940   2.207   9.262   4.739 -1.4936  0.1403  0.4859
  145MOL0     H19941   2.448   9.856   4.613 -0.9231  0.4168  0.1416
  145MOL0     H19942   2.646   9.972   4.646  0.1525 -0.9690  1.1761
  145MOL0     H19943   3.054   9.771   4.566  1.1748  0.6949 -0.0710
  145MOL0     H19944   3.003   9.714   4.725 -0.8786  1.8877  1.5379
  145MOL0     H19945   3.211   9.878   4.726  0.9541  2.3267 -0.7056
  145MOL0     H19946   3.090   9.997   4.668 -1.2136 -1.1433 -1.4215
  145MOL0     H19947   2.969   9.987   4.882  2.5984  4.2831  0.4527
  145MOL0     H19948   3.067   9.843   4.930 -0.5505  1.4664  3.3549
  145MOL0     H19949   3.275   9.994   4.890 -0.0860 -1.8852  2.0102
  145MOL0     H19950   3.155  10.123   4.869  3.4979 -0.5576 -1.6557
  145MOL0     H19951   3.159   9.946   5.114 -2.0730 -0.4509 -0.8614
  145MOL0     H19952   3.056  10.093   5.084 -0.9568 -1.0771  1.5012
  145MOL0     H19953   3.358  10.125   5.087 -0.2405  2.8662 -0.8811
  145MOL0     H19954   3.235  10.248   5.114 -3.5432 -0.0650  0.5723
  145MOL0     H19955   3.364  10.050   5.306  0.3079  1.4551  2.7725
  145MOL0     H19956   3.198  10.058   5.326  0.5471 -2.0778 -0.1057
  145MOL0     H19957   3.407  10.273   5.299 -0.2736 -0.0601  0.1510
  145MOL0     H19958   3.232  10.312   5.341  1.5267  0.8143 -0.2574
  145MOL0     H19959   3.561  10.281   5.533  0.4542 -2.3686  0.7451
  145MOL0     H19960   3.515  10.197   5.881 -0.7194  0.0527 -0.4432
  145MOL0     H19961   3.634  10.275   5.769 -2.0222  2.0578  0.7085
  145MOL0     H19962   3.710  10.081   5.889  2.8116  3.0395 -1.5133
  145MOL0     H19963   3.587   9.975   5.801 -1.8921  0.9037 -0.9967
  145MOL0     H19964   3.732  10.079   5.597 -1.3745  3.5250  1.3397
  145MOL0     H19965   3.848  10.093   5.730  0.8939 -0.2472 -0.5298
  145MOL0     H19966   3.832   9.847   5.785 -1.1657  1.2367  0.6016
  145MOL0     H19967   3.700   9.829   5.688 -0.3910  1.4605  1.1921
  145MOL0     H19968   4.017   9.834   5.376  0.8955 -0.4849  1.6982
  145MOL0     H19969   4.062   9.785   5.157  0.6352  1.0957 -1.4092
  145MOL0     H19970   4.004   9.622   5.091  0.0119 -1.9595  2.0104
  145MOL0     H19971   4.158   9.648   5.185 -0.9152  0.6935  2.1797
  145MOL0     H19972   4.153   9.348   4.958  0.1465  0.1791 -2.1201
  145MOL0     H19973   4.176   9.119   4.834 -1.0471 -0.1688 -0.5627
  145MOL0     H19974   3.970   8.753   4.984  0.7930  1.2348  0.8680
  145MOL0     H19975   3.926   8.833   4.844 -0.6361 -0.0537  1.6550
  145MOL0     H19976   4.125   8.730   4.713 -4.4622 -2.7256 -2.5239
  145MOL0     H19977   4.191   8.675   4.873 -0.3398 -0.3744  1.1275
  145MOL0     H19978   3.946   8.550   4.778 -2.0479 -1.1120  6.0137
  145MOL0     H19979   4.050   8.484   4.901 -1.4783  0.0834  0.7310
  145MOL0     H19980   4.114   8.342   4.715  0.5359 -0.3126 -0.8228
  145MOL0     H19981   4.242   8.452   4.734  0.1398  1.3858  0.6578
  145MOL0     H19982   4.106   8.592   4.543 -0.3751 -0.4048 -0.0763
  145MOL0     H19983   4.208   8.444   4.520  1.2406 -1.5002  2.1717
  145MOL0     H19984   3.903   8.433   4.540 -1.4606  1.2220 -3.3418
  145MOL0     H19985   4.010   8.304   4.511 -2.1137 -0.6922 -0.9409
  145MOL0     H19986   4.004   8.342   4.291 -0.8449  0.3882 -0.8443
  145MOL0     H19987   4.075   8.506   4.326  1.6537 -2.3278 -0.7838
  145MOL0     H19988   3.786   8.453   4.312 -1.8001  1.7177  1.4508
  145MOL0     H19989   3.886   8.532   4.182 -0.9843  1.6874  0.7011
  145MOL0     H19990   3.943   8.921   5.123  1.2757 -1.6319 -1.7324
  145MOL0     H19991   3.890   9.142   5.244  1.4447 -0.1788  1.2350
  145MOL0     H19992   3.747   9.438   5.457  1.9187 -0.7932  4.3613
  145MOL0     H19993   3.735   9.629   5.606  3.1709  0.5235  1.8455
  145MOL0     H19994   2.872   9.614   4.561 -1.2047 -0.3360  1.0066
  145MOL0     H19995   2.658   9.493   4.530 -1.5808  0.5118 -1.5911
  145MOL0     H19996   2.182   9.678   4.514  1.5971 -0.0096  1.7656
  145MOL0     H19997   1.953   9.649   4.458 -1.6400 -0.5140  1.1705
  145MOL0     H19998   1.729   9.276   4.606 -0.5119  0.9370 -3.9384
  145MOL0     H19999   1.729   9.367   4.755  0.0738  0.5949 -0.4204
  145MOL0     H20000   1.490   9.329   4.638 -0.7033  0.9731  0.0758
  145MOL0     H20001   1.568   9.409   4.507  0.2115 -0.2053 -0.1763
  145MOL0     H20002   1.516   9.510   4.788  0.7299  0.7934  0.3157
  145MOL0     H20003   1.601   9.618   4.675  0.3192  0.0003  0.4775
  145MOL0     H20004   1.392   9.572   4.520  0.8045  2.0510 -0.0763
  145MOL0     H20005   1.384   9.688   4.643 -2.2189 -0.0214  1.4303
  145MOL0     H20006   1.169   9.378   4.838  0.1124  0.8528  1.3150
  145MOL0     H20007   1.948   9.307   4.711  1.3899 -0.1422  0.2700
  145MOL0     H20008   2.141   9.175   4.734  0.4252 -1.3967  0.9257
  145MOL0     H20009   2.301   9.231   4.694 -2.2977 -2.2914  0.3593
  145MOL0     H20010   2.230   9.287   4.843  2.9683  0.4284 -0.3916
  146MOL0     O20011  11.409   9.480   0.695 -0.0042 -0.1018  0.3810
  146MOL0     C20012  11.334   9.530   0.609 -0.8752  0.1902 -0.2863
  146MOL0     O20013  11.294   9.478   0.490 -0.0229  0.4993 -0.2666
  146MOL0     C20014  11.364   9.361   0.452  0.9308 -0.0657  0.2612
  146MOL0     C20015  11.504   9.354   0.433 -0.2284  0.1108 -0.0863
  146MOL0     C20016  11.570   9.238   0.396 -0.2205  0.1414  0.5979
  146MOL0     C20017  11.503   9.113   0.387 -0.1239 -0.3697  0.4579
  146MOL0     O20018  11.545   8.986   0.364  1.0470  0.1629  0.2692
  146MOL0     C20019  11.684   8.961   0.339  0.0314  0.0072  0.1125
  146MOL0     C20020  11.732   9.017   0.194 -1.2994  0.0889 -0.3006
  146MOL0     C20021  11.891   9.016   0.194 -0.2910 -0.7724 -0.0818
  146MOL0     C20022  11.950   9.154   0.236 -0.4183  0.6646  0.2610
  146MOL0     C20023  12.103   9.157   0.255 -0.1353  0.1004  0.3907
  146MOL0     C20024  12.132   9.087   0.381 -0.1597  0.6659  0.0833
  146MOL0     C20025  12.279   9.079   0.422  0.6020  0.4758 -0.1034
  146MOL0     C20026  12.299   9.022   0.565 -0.2510 -0.6976 -1.4524
  146MOL0     N20027  12.440   8.994   0.575 -0.2769 -0.7454  0.3459
  146MOL0     C20028  12.507   8.871   0.590 -0.1177  0.5019 -0.7910
  146MOL0     C20029  12.638   8.896   0.620 -0.2821 -0.4719 -0.6537
  146MOL0     C20030  12.749   8.803   0.661  0.2073  0.5638  0.0902
  146MOL0     C20031  12.889   8.828   0.594 -0.2401 -1.0046  0.2619
  146MOL0     C20032  13.007   8.756   0.672  0.6953 -0.4130  0.0566
  146MOL0     C20033  12.973   8.607   0.684  0.2735  0.0230 -0.4203
  146MOL0     O20034  12.936   8.544   0.563  1.1049  0.3414  0.8363
  146MOL0     C20035  12.897   8.413   0.564  0.4892  0.4311 -0.4896
  146MOL0     C20036  12.808   8.375   0.463 -0.2561  0.3419  0.4718
  146MOL0     C20037  12.755   8.239   0.469 -0.0240 -0.0296 -0.4121
  146MOL0     C20038  12.666   8.197   0.362 -0.0916  0.2392  0.3899
  146MOL0     C20039  12.795   8.151   0.573  0.0815 -0.1602  0.3255
  146MOL0     C20040  12.756   8.007   0.580  0.1926  0.2695 -1.4598
  146MOL0     O20041  12.846   7.923   0.640 -0.1495  0.6078 -0.6052
  146MOL0     C20042  12.812   7.789   0.621 -0.6818  0.7241 -0.0243
  146MOL0     C20043  12.829   7.728   0.498 -0.1700 -0.0185  0.2149
  146MOL0     C20044  12.801   7.593   0.483  0.1497  1.2735 -0.5141
  146MOL0     C20045  12.743   7.509   0.585 -0.5505  0.2632 -0.1242
  146MOL0     O20046  12.711   7.377   0.572  0.1723 -0.3602  0.4563
  146MOL0     C20047  12.801   7.297   0.648  0.1568  0.3143  0.7114
  146MOL0     C20048  12.824   7.158   0.586  0.1517 -0.2325  0.1724
  146MOL0     C20049  12.915   7.174   0.461  0.1512  0.0304  0.5254
  146MOL0     C20050  12.948   7.043   0.396  0.7550 -0.7731 -0.0575
  146MOL0     C20051  13.055   7.053   0.298  0.6690  0.9287  0.5629
  146MOL0     C20052  13.081   6.913   0.228  0.2456 -0.3307 -0.3541
  146MOL0     C20053  13.200   6.900   0.134 -0.5937  0.5417  0.6584
  146MOL0     C20054  13.223   6.751   0.123 -0.8738  0.0772  1.4282
  146MOL0    Cl20055  13.348   6.722  -0.012 -0.2578 -0.0881  0.1888
  146MOL0     C20056  12.722   7.571   0.705  0.6268  0.5993 -0.4222
  146MOL0     C20057  12.758   7.707   0.724 -0.0343  0.3867 -0.3098
  146MOL0     O20058  12.642   7.980   0.530  0.6256 -0.1689  0.3827
  146MOL0     C20059  12.886   8.203   0.673  0.2888  0.6840  1.0663
  146MOL0     C20060  12.949   8.322   0.659  0.7442  0.2944 -0.1740
  146MOL0     N20061  12.660   9.034   0.600 -0.7824 -0.4957 -0.8012
  146MOL0     N20062  12.543   9.081   0.580  0.5082 -0.1055 -0.0470
  146MOL0     C20063  11.364   9.113   0.411 -0.0743  0.6779 -0.0603
  146MOL0     C20064  11.296   9.239   0.436 -0.8191  0.4506 -0.9700
  146MOL0     C20065  11.245   9.634   0.671  0.3829 -0.6763 -0.7184
  146MOL0     C20066  11.167   9.600   0.790 -0.0060  0.4385 -0.7208
  146MOL0     C20067  11.076   9.688   0.845  0.1232  0.0638 -0.0511
  146MOL0     C20068  11.050   9.819   0.793  0.4386  0.5810  0.3870
  146MOL0     O20069  10.960   9.913   0.838  0.0143 -0.1957 -0.0739
  146MOL0     C20070  10.853   9.868   0.917 -0.0640  0.9235 -0.8296
  146MOL0     C20071  10.778   9.990   0.956  0.8200  0.0676 -0.5769
  146MOL0     C20072  10.690  10.057   0.849  0.1767  0.0829  0.8984
  146MOL0     C20073  10.750  10.188   0.804 -0.1257  0.8809  0.9313
  146MOL0     C20074  10.656  10.258   0.722 -0.0724 -0.5840  0.4944
  146MOL0     C20075  10.588  10.324   0.651 -0.1482 -0.5007  0.1798
  146MOL0     C20076  11.135   9.849   0.687  0.4770 -0.0829  0.5581
  146MOL0     C20077  11.225   9.764   0.619 -0.3139  0.4327  0.6624
  146MOL0     C20078  11.306   9.829   0.512 -0.8774 -0.6771 -0.3811
  146MOL0     H20079  11.570   9.439   0.452 -0.8255  0.2237  1.7518
  146MOL0     H20080  11.678   9.242   0.390 -0.2465 -0.7719 -4.5644
  146MOL0     H20081  11.699   8.853   0.349 -4.8505 -0.9096  0.0607
  146MOL0     H20082  11.741   8.999   0.424  0.4675  3.4730 -1.5670
  146MOL0     H20083  11.697   8.950   0.115  0.6655  0.0938 -1.2251
  146MOL0     H20084  11.694   9.116   0.167 -0.8741  0.1869 -0.5441
  146MOL0     H20085  11.927   8.941   0.265 -0.9784  0.3677  1.5396
  146MOL0     H20086  11.932   8.998   0.094 -0.5588 -0.1928 -0.3034
  146MOL0     H20087  11.917   9.216   0.153  0.0049 -1.0602 -1.2554
  146MOL0     H20088  11.911   9.195   0.330  1.3443 -3.8182  3.3435
  146MOL0     H20089  12.135   9.257   0.285 -0.1422  0.1500  0.2347
  146MOL0     H20090  12.157   9.132   0.163  0.3852  0.2172  0.6620
  146MOL0     H20091  12.074   9.127   0.464 -0.0877  2.7084 -0.7847
  146MOL0     H20092  12.106   8.981   0.366  0.6699  0.7935 -3.0883
  146MOL0     H20093  12.326   9.178   0.412 -0.0076  0.6858 -1.1929
  146MOL0     H20094  12.330   9.012   0.352 -0.7009 -1.1064  0.4102
  146MOL0     H20095  12.273   9.098   0.639 -0.7490 -1.8934 -0.3392
  146MOL0     H20096  12.230   8.937   0.563 -1.6195  0.3595 -4.5555
  146MOL0     H20097  12.468   8.770   0.592  2.9812 -0.8385 -1.9635
  146MOL0     H20098  12.709   8.711   0.619  1.2775  0.0702  0.1307
  146MOL0     H20099  12.770   8.795   0.768  3.4147 -3.2826 -0.5876
  146MOL0     H20100  12.897   8.797   0.489  2.3768  1.7145 -0.4834
  146MOL0     H20101  12.907   8.936   0.602  1.9622 -1.4205  2.2477
  146MOL0     H20102  13.103   8.773   0.621  1.5254  0.9895  1.9353
  146MOL0     H20103  13.025   8.809   0.766  2.4372  0.8107 -0.8908
  146MOL0     H20104  13.063   8.559   0.724  0.2526  1.0506  0.9747
  146MOL0     H20105  12.895   8.603   0.761  1.7572  1.2304  1.2468
  146MOL0     H20106  12.775   8.449   0.391 -4.0791 -0.2709  1.3593
  146MOL0     H20107  12.563   8.206   0.397 -0.8684  0.5249 -1.8001
  146MOL0     H20108  12.696   8.095   0.336 -0.9417  0.5045 -1.8068
  146MOL0     H20109  12.682   8.257   0.272 -0.0685 -1.7852 -0.9992
  146MOL0     H20110  12.885   7.779   0.421  3.1427 -2.2945  0.8713
  146MOL0     H20111  12.810   7.535   0.392 -3.5327 -2.2305  1.0483
  146MOL0     H20112  12.905   7.329   0.659  0.5041 -0.5848  0.1788
  146MOL0     H20113  12.755   7.278   0.745 -3.6386  0.4876 -0.8740
  146MOL0     H20114  12.880   7.104   0.663  0.7036 -3.8076 -2.4631
  146MOL0     H20115  12.731   7.105   0.563  0.5548 -0.2389 -1.6108
  146MOL0     H20116  13.009   7.222   0.488  1.1531 -1.3975 -0.3007
  146MOL0     H20117  12.863   7.234   0.386 -0.4130  0.9416  1.6127
  146MOL0     H20118  12.851   7.009   0.360  1.1215 -1.6137 -0.2885
  146MOL0     H20119  12.975   6.976   0.478  1.5644 -1.0803 -0.5632
  146MOL0     H20120  13.051   7.129   0.220  0.9512 -0.4720 -0.8525
  146MOL0     H20121  13.143   7.080   0.357 -1.3951  1.4423  3.6629
  146MOL0     H20122  12.986   6.889   0.180  0.9183 -0.0752 -1.8811
  146MOL0     H20123  13.109   6.853   0.315  1.3836  3.6442  2.3218
  146MOL0     H20124  13.297   6.947   0.153  1.2481 -2.4776 -0.5333
  146MOL0     H20125  13.168   6.938   0.037  0.3338 -4.1592 -1.7716
  146MOL0     H20126  13.129   6.697   0.119  0.6313 -2.6382 -1.4158
  146MOL0     H20127  13.272   6.725   0.218  0.8621 -0.1779  0.5015
  146MOL0     H20128  12.671   7.514   0.781  1.7409 -2.0975 -1.5393
  146MOL0     H20129  12.748   7.750   0.823 -1.9493 -0.7824  0.0502
  146MOL0     H20130  12.930   8.131   0.742  1.1098 -0.4247 -0.5431
  146MOL0     H20131  13.016   8.340   0.742 -0.9586 -3.2062  2.1978
  146MOL0     H20132  11.320   9.014   0.405  0.1469  0.4859  1.2690
  146MOL0     H20133  11.187   9.237   0.433 -0.8960  2.3257 -0.5186
  146MOL0     H20134  11.174   9.500   0.833  0.0242  0.0700 -1.5584
  146MOL0     H20135  11.015   9.677   0.934  0.4683  1.1365  0.3444
  146MOL0     H20136  10.789   9.797   0.865  0.0024 -0.4037  0.8070
  146MOL0     H20137  10.888   9.815   1.006  0.0281  3.8281  1.0125
  146MOL0     H20138  10.840  10.063   1.008  1.7862 -1.9419  1.2524
  146MOL0     H20139  10.703   9.962   1.031  0.1936 -0.2383 -1.3017
  146MOL0     H20140  10.667   9.998   0.760 -0.2088  3.1276 -1.1833
  146MOL0     H20141  10.587  10.079   0.879 -1.1107 -1.4932 -1.9086
  146MOL0     H20142  10.840  10.157   0.750  0.3906 -0.3045  2.3845
  146MOL0     H20143  10.779  10.256   0.885  0.5205  1.2917  0.3702
  146MOL0     H20144  10.536  10.380   0.575 -0.9832  0.1397  1.1896
  146MOL0     H20145  11.116   9.944   0.638 -2.6195 -0.3861  0.9454
  146MOL0     H20146  11.360   9.760   0.447  3.2045  1.2124  0.6671
  146MOL0     H20147  11.240   9.892   0.451  0.1950  0.4354 -0.4305
  146MOL0     H20148  11.386   9.886   0.560 -1.3798  0.5976 -0.9986
  147MOL0     O20149   0.107   4.855   8.886  0.2761 -0.7650  0.5321
  147MOL0     C20150   0.179   4.885   8.982  0.0628  0.0970  0.4833
  147MOL0     O20151   0.237   4.790   9.058 -0.0192 -0.0938  0.7507
  147MOL0     C20152   0.181   4.667   9.059 -0.9093 -0.8191 -0.7244
  147MOL0     C20153   0.144   4.615   9.185 -1.2845 -0.1366  0.8921
  147MOL0     C20154   0.133   4.474   9.203  0.1999  0.3558 -0.1298
  147MOL0     C20155   0.143   4.389   9.088  0.1919  0.0049  0.7532
  147MOL0     O20156   0.135   4.253   9.105 -1.0059  0.0448  0.4869
  147MOL0     C20157   0.127   4.164   8.988 -0.1356  0.1814  0.2232
  147MOL0     C20158   0.098   4.028   9.038 -0.6522  0.1113  0.1263
  147MOL0     C20159   0.055   3.925   8.935 -0.0712  0.8123  0.6129
  147MOL0     C20160   0.083   3.774   8.977  0.1541  0.2741 -0.2803
  147MOL0     C20161   0.018   3.662   8.884  0.6658 -0.5169 -0.6883
  147MOL0     C20162  -0.133   3.670   8.856 -0.1040  0.5740  0.2870
  147MOL0     C20163  -0.217   3.678   8.983  0.8003  0.1241 -0.7613
  147MOL0     C20164  -0.365   3.652   8.954 -0.2658  0.5977  0.1322
  147MOL0     N20165  -0.412   3.769   8.875  0.4264  0.2523  0.1551
  147MOL0     C20166  -0.440   3.893   8.907 -0.4977 -0.6385  0.3301
  147MOL0     C20167  -0.427   3.967   8.794  0.0460  0.6586  0.1983
  147MOL0     C20168  -0.405   4.119   8.792  0.1689 -1.0903  0.8129
  147MOL0     C20169  -0.255   4.148   8.816  0.5290  0.4629  0.2689
  147MOL0     C20170  -0.228   4.286   8.873  0.1308 -1.2094 -0.6179
  147MOL0     C20171  -0.269   4.405   8.772 -0.4820  0.1712 -0.1297
  147MOL0     O20172  -0.210   4.408   8.646  0.4276  0.7129  0.9848
  147MOL0     C20173  -0.129   4.514   8.613  0.2598 -0.1714  0.4075
  147MOL0     C20174  -0.057   4.483   8.490 -0.5225  0.5001 -0.0274
  147MOL0     C20175   0.027   4.583   8.433 -0.2226  0.4795 -0.1481
  147MOL0     C20176   0.102   4.555   8.303  0.4389 -0.3536  0.4974
  147MOL0     C20177   0.029   4.710   8.497  0.0989 -0.1352 -0.6321
  147MOL0     C20178   0.110   4.817   8.436 -0.5125 -0.6309  0.9100
  147MOL0     O20179   0.062   4.942   8.453  0.6264 -0.0044  0.1510
  147MOL0     C20180   0.145   5.049   8.435  0.0558 -0.0910  0.3048
  147MOL0     C20181   0.202   5.125   8.544 -0.4164  0.4389 -0.1580
  147MOL0     C20182   0.302   5.218   8.524  0.1655 -0.5655 -0.2274
  147MOL0     C20183   0.356   5.246   8.404  0.6160 -0.4183 -0.1375
  147MOL0     O20184   0.461   5.328   8.400  0.6073  0.7721  0.4723
  147MOL0     C20185   0.491   5.380   8.274 -0.5118  0.2170  0.2074
  147MOL0     C20186   0.562   5.509   8.285 -0.0956  0.5040  0.2384
  147MOL0     C20187   0.484   5.619   8.362  0.1345 -0.5157 -0.2048
  147MOL0     C20188   0.374   5.680   8.277  1.2933 -0.3302  0.6615
  147MOL0     C20189   0.349   5.828   8.306 -0.9057 -0.0429 -0.7111
  147MOL0     C20190   0.266   5.845   8.430  0.3239 -1.4256  0.6470
  147MOL0     C20191   0.228   5.998   8.437  0.4116 -0.5755  1.1242
  147MOL0     C20192   0.153   6.043   8.562 -0.6507 -0.4429  0.1439
  147MOL0    Cl20193   0.285   6.019   8.703 -0.2672  0.6553 -0.0020
  147MOL0     C20194   0.297   5.184   8.291 -0.8235 -0.0666  0.2953
  147MOL0     C20195   0.193   5.083   8.304  0.4923 -0.1988 -0.3532
  147MOL0     O20196   0.223   4.788   8.391  0.8032  0.0831  0.3604
  147MOL0     C20197  -0.049   4.748   8.614  0.0077 -0.4732  0.0908
  147MOL0     C20198  -0.127   4.647   8.668 -0.4256  0.5264 -0.7500
  147MOL0     N20199  -0.424   3.871   8.686 -0.0369 -0.5153  0.7633
  147MOL0     N20200  -0.421   3.757   8.737 -0.4757 -0.1043  0.4764
  147MOL0     C20201   0.184   4.442   8.963 -0.3848 -0.0367  0.1244
  147MOL0     C20202   0.198   4.581   8.951 -0.1955  0.1088 -0.3114
  147MOL0     C20203   0.242   5.018   8.987  0.1258  0.2462  0.1258
  147MOL0     C20204   0.168   5.119   8.923 -0.5443  1.0444 -0.3360
  147MOL0     C20205   0.232   5.239   8.912  0.6106  0.2430 -0.1644
  147MOL0     C20206   0.356   5.275   8.966  0.2893  0.5362  0.6296
  147MOL0     O20207   0.396   5.401   8.950 -0.4000 -0.2843 -0.3851
  147MOL0     C20208   0.335   5.490   8.856 -0.1579 -0.2043 -0.8523
  147MOL0     C20209   0.442   5.603   8.819 -0.3492 -0.2267  0.0238
  147MOL0     C20210   0.558   5.558   8.735 -0.6227 -0.1035  0.1713
  147MOL0     C20211   0.635   5.680   8.684 -0.8133  0.9829 -0.5829
  147MOL0     C20212   0.742   5.632   8.590 -0.8595  0.2644  0.0436
  147MOL0     C20213   0.836   5.595   8.520 -0.1615  0.5265 -0.0466
  147MOL0     C20214   0.429   5.179   9.028  0.3176  1.2038 -0.1378
  147MOL0     C20215   0.373   5.049   9.036  0.4207  0.5394 -0.4163
  147MOL0     C20216   0.467   4.938   9.075 -0.7727  0.0673 -0.1806
  147MOL0     H20217   0.151   4.673   9.276  0.5080 -1.1950  1.4813
  147MOL0     H20218   0.129   4.428   9.301 -0.7638 -2.1965 -1.2577
  147MOL0     H20219   0.223   4.155   8.935  1.2364 -1.8652  2.8212
  147MOL0     H20220   0.048   4.203   8.924  0.6682  2.3437  0.4549
  147MOL0     H20221   0.186   3.995   9.095  0.0311  2.3272  0.4638
  147MOL0     H20222   0.016   4.036   9.110 -0.3890  1.3848  0.3138
  147MOL0     H20223  -0.050   3.940   8.909 -0.7353 -1.3283  1.8641
  147MOL0     H20224   0.121   3.945   8.850 -0.0388 -0.3896  0.3481
  147MOL0     H20225   0.188   3.750   8.990 -0.4704 -1.4886  2.2562
  147MOL0     H20226   0.047   3.757   9.079 -0.7715  3.6488  0.0653
  147MOL0     H20227   0.035   3.561   8.923 -0.9241 -0.2106  0.9318
  147MOL0     H20228   0.063   3.657   8.785  0.5488  4.6513 -1.2776
  147MOL0     H20229  -0.148   3.763   8.801  0.2542  2.0431  2.4981
  147MOL0     H20230  -0.162   3.584   8.796  3.4864  0.0826 -1.0158
  147MOL0     H20231  -0.202   3.776   9.029  2.7493 -0.2287 -0.5640
  147MOL0     H20232  -0.181   3.597   9.048 -1.8612  0.5331  1.3920
  147MOL0     H20233  -0.389   3.557   8.905  0.5878 -0.2669  1.3228
  147MOL0     H20234  -0.428   3.657   9.043 -0.5837  1.3014 -0.1257
  147MOL0     H20235  -0.435   3.938   9.006  1.0563  1.0061 -0.4391
  147MOL0     H20236  -0.475   4.168   8.860 -3.5467 -1.4704 -2.3563
  147MOL0     H20237  -0.440   4.143   8.691  1.1021  1.6531  1.0576
  147MOL0     H20238  -0.222   4.084   8.898 -0.5079 -2.2728 -1.2887
  147MOL0     H20239  -0.211   4.129   8.718 -0.6265 -4.4603  0.4368
  147MOL0     H20240  -0.284   4.290   8.967  0.9116  0.9298 -0.1819
  147MOL0     H20241  -0.124   4.298   8.906  0.4754  0.3292 -2.0832
  147MOL0     H20242  -0.377   4.411   8.755 -0.3622 -0.4039 -1.1521
  147MOL0     H20243  -0.256   4.498   8.828  0.2730  0.1871 -0.3201
  147MOL0     H20244  -0.063   4.388   8.436  2.4256 -0.1490  0.5740
  147MOL0     H20245   0.089   4.642   8.239 -1.7278  1.3977  3.0787
  147MOL0     H20246   0.068   4.461   8.258  3.6429 -1.6073  0.4505
  147MOL0     H20247   0.207   4.543   8.331  1.6968  1.2275 -3.0665
  147MOL0     H20248   0.175   5.111   8.649  1.0378  2.5071  0.5660
  147MOL0     H20249   0.352   5.258   8.613 -1.0142  1.6948 -0.5027
  147MOL0     H20250   0.556   5.317   8.214  0.1320  0.4426  0.6502
  147MOL0     H20251   0.402   5.401   8.214  0.7181 -0.0439 -1.8154
  147MOL0     H20252   0.651   5.483   8.342  0.3221 -0.4587 -0.8428
  147MOL0     H20253   0.592   5.546   8.186  1.6609  0.9244  0.8875
  147MOL0     H20254   0.545   5.704   8.395 -0.2952  0.6464 -2.1941
  147MOL0     H20255   0.438   5.574   8.450 -0.5185  2.2742  0.9769
  147MOL0     H20256   0.287   5.619   8.305  0.8791 -1.0081 -1.8821
  147MOL0     H20257   0.385   5.654   8.172 -2.1592 -1.7425  0.4824
  147MOL0     H20258   0.441   5.885   8.322 -0.2535 -1.3155  0.2290
  147MOL0     H20259   0.297   5.867   8.218 -3.5245 -3.4354 -0.8843
  147MOL0     H20260   0.305   5.808   8.526  0.0761 -1.1453  0.8595
  147MOL0     H20261   0.166   5.801   8.423 -0.6070  0.4215  1.6287
  147MOL0     H20262   0.167   6.019   8.348  3.2616  1.2500 -0.5709
  147MOL0     H20263   0.321   6.056   8.441  0.8909 -1.3467  1.4685
  147MOL0     H20264   0.063   5.983   8.580  0.6193 -2.1331  1.1038
  147MOL0     H20265   0.123   6.148   8.547  0.2021 -0.0908  0.7905
  147MOL0     H20266   0.329   5.213   8.191 -0.3477  0.9496  0.7271
  147MOL0     H20267   0.173   5.017   8.220  2.7556  0.6881 -1.6854
  147MOL0     H20268  -0.035   4.845   8.661  1.0288 -0.3211 -0.4759
  147MOL0     H20269  -0.182   4.689   8.751  1.1856  3.0838 -0.8754
  147MOL0     H20270   0.219   4.368   8.892 -0.2119 -0.3228  0.5107
  147MOL0     H20271   0.246   4.626   8.865 -0.2287  2.3276  0.7543
  147MOL0     H20272   0.074   5.089   8.878 -0.0434 -1.8875  0.3351
  147MOL0     H20273   0.166   5.305   8.857  2.5027  3.4425  1.1316
  147MOL0     H20274   0.308   5.449   8.758  0.2831 -0.1953 -0.9808
  147MOL0     H20275   0.250   5.540   8.904 -1.1175 -1.6560 -0.9640
  147MOL0     H20276   0.492   5.651   8.904  2.8280  0.0579 -1.8436
  147MOL0     H20277   0.381   5.684   8.778 -0.5730 -0.1918  0.4159
  147MOL0     H20278   0.621   5.497   8.800  1.4258  1.8201  0.1226
  147MOL0     H20279   0.532   5.493   8.651  1.3719  0.2479 -0.7927
  147MOL0     H20280   0.688   5.743   8.757  0.4949  1.0351 -1.5275
  147MOL0     H20281   0.563   5.737   8.626 -0.6198  3.2143  1.2208
  147MOL0     H20282   0.907   5.551   8.453 -0.4255 -0.1934  0.1293
  147MOL0     H20283   0.528   5.205   9.062  0.6056  0.4995 -0.4170
  147MOL0     H20284   0.563   4.978   9.110 -1.4906 -0.2449  2.3874
  147MOL0     H20285   0.440   4.881   9.165  2.0760  0.2134  0.9054
  147MOL0     H20286   0.484   4.861   8.999  1.2098  2.6480 -2.5519
  148MOL0     O20287   7.640   8.424   3.169 -0.5211  0.2976 -0.0293
  148MOL0     C20288   7.520   8.385   3.156 -0.7600  0.2624 -0.5908
  148MOL0     O20289   7.430   8.392   3.046 -0.7103  0.3167 -0.5081
  148MOL0     C20290   7.480   8.435   2.931 -0.1686  1.3467  0.7144
  148MOL0     C20291   7.401   8.526   2.859 -0.3040 -0.0929  0.0657
  148MOL0     C20292   7.441   8.560   2.725 -0.1799 -0.0787 -0.1398
  148MOL0     C20293   7.563   8.524   2.671  0.0312  0.8906 -0.5826
  148MOL0     O20294   7.605   8.576   2.546 -0.5792  0.1933 -0.2294
  148MOL0     C20295   7.747   8.587   2.523  0.1695  0.1395  0.0301
  148MOL0     C20296   7.822   8.690   2.606  0.0123  0.3385 -0.3816
  148MOL0     C20297   7.978   8.680   2.595  0.1568  0.9692 -0.4538
  148MOL0     C20298   8.024   8.732   2.463 -0.3394  0.1035  0.0792
  148MOL0     C20299   8.172   8.733   2.435  0.5743 -0.2643 -0.1037
  148MOL0     C20300   8.216   8.826   2.314  0.0869  0.3003 -0.0398
  148MOL0     C20301   8.217   8.969   2.359 -0.0290  0.8640  0.7860
  148MOL0     C20302   8.356   9.010   2.407 -0.2472 -0.2276 -0.5412
  148MOL0     N20303   8.454   9.036   2.297 -0.0858  0.5805 -0.2118
  148MOL0     C20304   8.479   9.154   2.232  0.4698  0.2598  0.8038
  148MOL0     C20305   8.516   9.122   2.106 -0.3143  0.8770  0.1768
  148MOL0     C20306   8.534   9.213   1.990  0.0092 -0.8602 -0.4097
  148MOL0     C20307   8.643   9.311   2.036  0.0597 -0.0833 -0.9576
  148MOL0     C20308   8.786   9.243   2.036  0.3597  0.8521  0.4243
  148MOL0     C20309   8.881   9.353   2.085  0.1025 -0.0313 -0.5253
  148MOL0     O20310   8.851   9.371   2.221 -0.4849  0.1406 -0.3506
  148MOL0     C20311   8.958   9.405   2.299  0.1961  0.0041 -0.6379
  148MOL0     C20312   8.970   9.361   2.433  0.2704  0.1499 -0.7575
  148MOL0     C20313   9.078   9.394   2.515 -0.5546  0.2601 -0.2565
  148MOL0     C20314   9.085   9.333   2.651  0.0336 -1.0857 -0.5501
  148MOL0     C20315   9.194   9.460   2.456 -0.0826 -1.0368  0.0407
  148MOL0     C20316   9.314   9.479   2.531 -0.3262  0.0668  0.8651
  148MOL0     O20317   9.426   9.477   2.450  0.3844  0.3403 -0.0902
  148MOL0     C20318   9.536   9.527   2.504  0.5227  1.0746  0.9448
  148MOL0     C20319   9.548   9.665   2.522 -0.9426  0.2970  0.2827
  148MOL0     C20320   9.656   9.713   2.575 -0.6708  0.2330  0.2037
  148MOL0     C20321   9.762   9.631   2.611  0.1572  0.1472  0.4312
  148MOL0     O20322   9.870   9.698   2.651  0.1364  0.4203 -0.0812
  148MOL0     C20323   9.921   9.646   2.782  0.1600 -0.5264 -0.4471
  148MOL0     C20324  10.061   9.702   2.817  0.6039  0.6331 -0.2429
  148MOL0     C20325  10.170   9.666   2.713 -0.1805  1.0826  0.0288
  148MOL0     C20326  10.314   9.717   2.749  0.6963  0.8688 -0.4324
  148MOL0     C20327  10.421   9.657   2.665 -0.0654 -0.2119 -0.2830
  148MOL0     C20328  10.564   9.694   2.707  0.3533  0.1295  0.6245
  148MOL0     C20329  10.605   9.633   2.837 -0.5569  0.1221  1.2084
  148MOL0     C20330  10.748   9.668   2.897  0.7923 -0.2106  0.9435
  148MOL0    Cl20331  10.873   9.683   2.760  0.1480  0.2374  0.6245
  148MOL0     C20332   9.750   9.493   2.591 -0.5623 -0.0785 -0.3257
  148MOL0     C20333   9.634   9.443   2.537  0.9503 -0.0511  0.5528
  148MOL0     O20334   9.311   9.493   2.653  0.0103 -1.0802 -0.3245
  148MOL0     C20335   9.182   9.509   2.318  0.2554  0.4118 -0.1930
  148MOL0     C20336   9.061   9.486   2.254 -0.7820  0.6121  0.5046
  148MOL0     N20337   8.541   8.982   2.111 -0.0550  0.2634 -0.3101
  148MOL0     N20338   8.507   8.934   2.220 -1.1367  0.2116  0.5103
  148MOL0     C20339   7.641   8.443   2.755 -0.0052  0.0669  0.5080
  148MOL0     C20340   7.602   8.404   2.882 -0.5514 -0.3357  0.0200
  148MOL0     C20341   7.479   8.296   3.269 -0.8102  0.4791  0.5200
  148MOL0     C20342   7.354   8.233   3.249  0.6412 -0.2167 -0.2564
  148MOL0     C20343   7.309   8.137   3.342 -1.0932  0.3868 -0.2288
  148MOL0     C20344   7.383   8.105   3.459  0.3575 -0.0750 -0.3906
  148MOL0     O20345   7.333   8.000   3.536  0.3484  0.1222 -0.0887
  148MOL0     C20346   7.359   7.972   3.679 -0.9280  0.5174  0.3360
  148MOL0     C20347   7.492   7.897   3.692 -0.1816  0.1209  0.1367
  148MOL0     C20348   7.482   7.774   3.608  0.1697 -0.0271  0.7687
  148MOL0     C20349   7.602   7.677   3.630 -0.3750 -0.1848 -0.1189
  148MOL0     C20350   7.733   7.717   3.578  0.0374  0.3204 -0.1242
  148MOL0     C20351   7.841   7.744   3.525 -1.0212 -0.5980  0.6343
  148MOL0     C20352   7.499   8.174   3.486 -0.1976 -0.2744  0.1309
  148MOL0     C20353   7.550   8.261   3.388 -0.2872  0.3117 -0.5295
  148MOL0     C20354   7.685   8.317   3.435 -0.0540  0.6991 -0.7568
  148MOL0     H20355   7.308   8.560   2.903  0.6359  1.1818  1.1317
  148MOL0     H20356   7.374   8.614   2.659 -1.8671 -2.1960 -0.2581
  148MOL0     H20357   7.741   8.629   2.422  1.8213 -1.3867 -0.7560
  148MOL0     H20358   7.810   8.498   2.521  0.2213  0.1923 -1.1495
  148MOL0     H20359   7.782   8.791   2.590  1.5963  0.7952 -1.7888
  148MOL0     H20360   7.813   8.676   2.714 -0.8148  2.3732 -0.1343
  148MOL0     H20361   8.026   8.737   2.675 -3.4459 -1.1409  3.6380
  148MOL0     H20362   8.007   8.574   2.593 -1.8036  0.3834 -1.9067
  148MOL0     H20363   7.975   8.674   2.384 -0.9697 -1.0446  1.2725
  148MOL0     H20364   7.982   8.833   2.451  3.1569  1.4267 -2.5618
  148MOL0     H20365   8.220   8.635   2.434  0.1138 -0.5092  0.8291
  148MOL0     H20366   8.228   8.778   2.518 -0.0984  0.9292 -0.2697
  148MOL0     H20367   8.314   8.783   2.292 -0.7322 -1.7257  0.0631
  148MOL0     H20368   8.153   8.820   2.225  0.3539  1.0871 -0.2925
  148MOL0     H20369   8.159   8.975   2.451  0.6005  0.4236  1.2271
  148MOL0     H20370   8.180   9.035   2.280  0.4108 -0.0288 -0.1923
  148MOL0     H20371   8.335   9.102   2.462  0.0391  0.9277 -2.2586
  148MOL0     H20372   8.403   8.937   2.473  0.4437  1.2422  0.6525
  148MOL0     H20373   8.455   9.252   2.270  0.1302 -0.0477  1.3997
  148MOL0     H20374   8.451   9.283   1.977  1.8513  1.3306 -1.0644
  148MOL0     H20375   8.551   9.160   1.896  1.3061 -0.1868 -0.5734
  148MOL0     H20376   8.635   9.393   1.964 -0.8676  3.4470  2.7878
  148MOL0     H20377   8.627   9.360   2.132  1.1225  0.0875 -0.8494
  148MOL0     H20378   8.791   9.151   2.095 -0.3426  0.2542 -0.4053
  148MOL0     H20379   8.807   9.222   1.930 -3.4013  0.8764 -0.4929
  148MOL0     H20380   8.984   9.319   2.070  1.4934  3.3792  0.2421
  148MOL0     H20381   8.874   9.447   2.029  0.4477  1.7273  2.2090
  148MOL0     H20382   8.882   9.312   2.473  1.5783 -0.5325  1.4400
  148MOL0     H20383   9.072   9.411   2.727 -1.2389 -3.9389  2.4593
  148MOL0     H20384   9.182   9.284   2.668  0.9842  1.1775  1.1487
  148MOL0     H20385   9.002   9.266   2.675  0.5166 -0.9448  1.8246
  148MOL0     H20386   9.461   9.725   2.496 -0.6237  1.0793  0.9559
  148MOL0     H20387   9.669   9.813   2.616 -0.1014  0.1974  0.1153
  148MOL0     H20388   9.852   9.672   2.862  1.4221  1.4531  0.0548
  148MOL0     H20389   9.942   9.539   2.777 -3.3253 -1.4890  2.0223
  148MOL0     H20390  10.041   9.809   2.830 -3.4273 -0.0554  0.4861
  148MOL0     H20391  10.093   9.670   2.917  1.7692  0.9756 -0.4845
  148MOL0     H20392  10.139   9.705   2.615  0.6261 -0.5341 -0.9072
  148MOL0     H20393  10.166   9.557   2.701  0.5425  0.9532  0.9326
  148MOL0     H20394  10.320   9.689   2.855  0.4871  0.4924 -0.5160
  148MOL0     H20395  10.327   9.825   2.745  1.9832  0.7226 -0.7828
  148MOL0     H20396  10.404   9.550   2.669 -0.4297 -0.1179  1.0334
  148MOL0     H20397  10.398   9.695   2.565  1.8299  3.4021  0.4772
  148MOL0     H20398  10.578   9.802   2.716  0.2965  0.0769  1.4140
  148MOL0     H20399  10.642   9.661   2.638  4.9371  4.1409  3.2580
  148MOL0     H20400  10.606   9.527   2.809 -3.5983  0.2952  0.0620
  148MOL0     H20401  10.521   9.643   2.907 -2.8439 -2.8159 -0.8430
  148MOL0     H20402  10.770   9.572   2.945 -0.4705  0.3709  2.7934
  148MOL0     H20403  10.747   9.750   2.970  0.9387  0.3907  0.2739
  148MOL0     H20404   9.827   9.422   2.618 -0.5874 -0.0141 -0.0756
  148MOL0     H20405   9.633   9.341   2.500  1.3885  0.8337 -2.1398
  148MOL0     H20406   9.261   9.566   2.270 -1.6367  1.0359 -2.7993
  148MOL0     H20407   9.051   9.534   2.157  0.4771 -0.5919 -0.2491
  148MOL0     H20408   7.736   8.411   2.713  0.6623  0.8190  1.3986
  148MOL0     H20409   7.668   8.336   2.934  0.3570  0.4478 -0.0774
  148MOL0     H20410   7.286   8.255   3.167  0.0896 -0.7331  0.0566
  148MOL0     H20411   7.217   8.083   3.321 -2.0806  2.3423 -1.2205
  148MOL0     H20412   7.373   8.070   3.727  2.4747 -0.1271  0.8965
  148MOL0     H20413   7.275   7.918   3.723 -1.1827 -0.2989 -1.1005
  148MOL0     H20414   7.507   7.861   3.795 -0.0665 -0.7695 -0.1789
  148MOL0     H20415   7.576   7.959   3.660  0.5592 -0.7716  0.2939
  148MOL0     H20416   7.387   7.724   3.628 -2.4422  2.7545 -3.1380
  148MOL0     H20417   7.473   7.803   3.503 -2.2630 -3.4149 -0.1140
  148MOL0     H20418   7.573   7.591   3.568  1.6120 -2.0633  1.4095
  148MOL0     H20419   7.604   7.643   3.734 -1.2312  1.2239  0.3894
  148MOL0     H20420   7.936   7.748   3.476 -2.9023 -1.1614 -3.4403
  148MOL0     H20421   7.563   8.143   3.568 -1.5559 -1.5796  0.7680
  148MOL0     H20422   7.721   8.262   3.523  2.4225  1.8473 -0.9893
  148MOL0     H20423   7.767   8.314   3.363 -0.3321  0.6061 -1.0746
  148MOL0     H20424   7.685   8.421   3.467  4.0746  0.6407 -0.0799
  149MOL0     O20425   3.641   3.879   4.390 -0.8666  0.1103 -0.0894
  149MOL0     C20426   3.563   3.820   4.319  0.4669 -0.1310  0.5306
  149MOL0     O20427   3.600   3.712   4.235  0.2880 -0.3333  0.3094
  149MOL0     C20428   3.717   3.639   4.262  0.4806 -0.0373 -1.3523
  149MOL0     C20429   3.777   3.622   4.393 -0.2955 -0.2042  0.3913
  149MOL0     C20430   3.883   3.538   4.415  0.4867 -0.6030  0.0768
  149MOL0     C20431   3.931   3.454   4.316  0.0846  0.9491  0.0130
  149MOL0     O20432   4.031   3.358   4.326  0.3044 -0.0735 -0.2923
  149MOL0     C20433   4.047   3.302   4.454 -0.0550  0.2043 -0.4061
  149MOL0     C20434   4.147   3.390   4.541 -0.4928 -0.2167 -0.5671
  149MOL0     C20435   4.290   3.388   4.494  0.0478 -0.0883 -1.3517
  149MOL0     C20436   4.371   3.270   4.551 -1.1029 -0.3525  0.5969
  149MOL0     C20437   4.513   3.335   4.569  0.0036  0.5849 -0.5176
  149MOL0     C20438   4.611   3.220   4.568 -0.0705 -0.7036 -0.4401
  149MOL0     C20439   4.729   3.263   4.663 -0.7750 -0.8646 -0.4144
  149MOL0     C20440   4.769   3.407   4.654 -0.0458 -0.3017  0.4870
  149MOL0     N20441   4.877   3.448   4.742 -0.6946  0.6071 -0.6440
  149MOL0     C20442   4.861   3.475   4.879  0.8009  0.9473 -0.6936
  149MOL0     C20443   4.983   3.514   4.926 -0.4374 -0.1428 -0.3042
  149MOL0     C20444   5.006   3.554   5.067  0.9939  0.3267 -0.9353
  149MOL0     C20445   4.969   3.435   5.158 -0.2210  0.8260  0.5539
  149MOL0     C20446   5.019   3.453   5.305  0.5781  0.0953 -0.5478
  149MOL0     C20447   4.961   3.567   5.386  1.4503 -0.5914  0.1255
  149MOL0     O20448   4.820   3.561   5.380 -0.1186  0.3288  0.4526
  149MOL0     C20449   4.752   3.622   5.482 -0.3873 -0.7272 -0.3781
  149MOL0     C20450   4.810   3.710   5.577 -0.3222 -0.2611 -0.5315
  149MOL0     C20451   4.735   3.749   5.684 -0.6627 -0.4597 -0.7050
  149MOL0     C20452   4.818   3.849   5.774  0.1843 -0.3123  0.1226
  149MOL0     C20453   4.607   3.707   5.710 -0.4479 -0.5314  0.1754
  149MOL0     C20454   4.527   3.751   5.827 -0.2172  0.5043  0.4344
  149MOL0     O20455   4.397   3.695   5.830  0.0628  0.0388 -0.2125
  149MOL0     C20456   4.327   3.693   5.946 -0.9409 -0.9325 -0.4797
  149MOL0     C20457   4.363   3.625   6.062  0.5390 -0.2816 -0.5621
  149MOL0     C20458   4.291   3.641   6.179  0.1953  0.7491  0.0064
  149MOL0     C20459   4.176   3.722   6.184  0.5940  0.1273  0.1245
  149MOL0     O20460   4.080   3.715   6.283 -0.2378  0.8117 -0.1985
  149MOL0     C20461   4.098   3.671   6.418 -0.1154  0.6573  0.2957
  149MOL0     C20462   3.995   3.735   6.503  0.7512 -0.4435  0.0726
  149MOL0     C20463   3.854   3.716   6.446  0.3415 -0.3214  0.4369
  149MOL0     C20464   3.823   3.576   6.399  0.0634 -0.1475  1.2789
  149MOL0     C20465   3.674   3.572   6.365  0.7023  0.4617  0.2289
  149MOL0     C20466   3.645   3.427   6.321  0.3228  0.3454 -0.2497
  149MOL0     C20467   3.495   3.401   6.305 -0.2571  0.0758 -0.6456
  149MOL0     C20468   3.459   3.252   6.295 -0.7553  0.0205 -0.2118
  149MOL0    Cl20469   3.499   3.158   6.456 -0.5025  0.2159  0.2007
  149MOL0     C20470   4.136   3.790   6.062  0.5704 -1.1159 -0.3968
  149MOL0     C20471   4.215   3.776   5.948 -0.7542 -0.5603 -0.1864
  149MOL0     O20472   4.565   3.839   5.899 -0.1491  0.1540 -0.0019
  149MOL0     C20473   4.552   3.622   5.621  0.1347 -0.8518 -0.0079
  149MOL0     C20474   4.626   3.579   5.513 -0.4923 -0.3753 -0.0307
  149MOL0     N20475   5.070   3.516   4.820  1.0698  0.9528 -0.2450
  149MOL0     N20476   5.006   3.475   4.710 -0.3704 -0.3966 -0.0009
  149MOL0     C20477   3.870   3.475   4.186 -0.4191  0.1110  0.0444
  149MOL0     C20478   3.770   3.574   4.163  0.5152  0.7280  0.6085
  149MOL0     C20479   3.430   3.883   4.280 -0.0583 -0.2686  0.1436
  149MOL0     C20480   3.354   3.819   4.176 -0.7506 -0.9953  0.1917
  149MOL0     C20481   3.220   3.867   4.145 -0.1990 -0.1015  0.0791
  149MOL0     C20482   3.157   3.968   4.222  1.1372  0.8266 -0.4153
  149MOL0     O20483   3.023   3.998   4.195 -0.2065  0.5124 -0.5647
  149MOL0     C20484   2.947   4.049   4.311  0.5220  0.0035  0.5313
  149MOL0     C20485   2.799   4.056   4.265 -0.1682 -0.3984 -0.9363
  149MOL0     C20486   2.748   3.911   4.225 -0.7790 -0.6995  0.2999
  149MOL0     C20487   2.736   3.802   4.334 -0.0581 -0.5955 -0.1266
  149MOL0     C20488   2.642   3.703   4.300  0.0441 -0.2704  0.5702
  149MOL0     C20489   2.539   3.635   4.282  0.1394 -0.6619  0.3767
  149MOL0     C20490   3.237   4.035   4.323  0.8599  0.2522  0.3868
  149MOL0     C20491   3.372   4.000   4.344 -0.6769  0.6413 -0.0095
  149MOL0     C20492   3.443   4.067   4.459 -0.3736  0.2910 -0.3298
  149MOL0     H20493   3.733   3.672   4.479 -1.2555 -0.1163 -0.1343
  149MOL0     H20494   3.920   3.521   4.515  2.5086 -0.2378 -0.5701
  149MOL0     H20495   4.095   3.206   4.431  2.5512  1.2279  0.4205
  149MOL0     H20496   3.950   3.282   4.501  0.1984  2.3983  1.1819
  149MOL0     H20497   4.115   3.494   4.548 -0.2979 -0.1223 -1.0340
  149MOL0     H20498   4.140   3.356   4.645 -1.4858  1.2754 -0.1110
  149MOL0     H20499   4.309   3.388   4.387  3.9989 -2.8013 -0.8722
  149MOL0     H20500   4.337   3.484   4.518 -1.0284 -0.2729  2.0911
  149MOL0     H20501   4.338   3.237   4.649 -0.3187  0.7276  1.2455
  149MOL0     H20502   4.379   3.185   4.482 -0.2355 -2.9777  3.7138
  149MOL0     H20503   4.504   3.385   4.666 -2.7526  0.9519 -0.8738
  149MOL0     H20504   4.549   3.408   4.496  2.3561  0.3672  0.3595
  149MOL0     H20505   4.566   3.130   4.613 -3.1345  0.5389 -0.7758
  149MOL0     H20506   4.650   3.216   4.466  0.9465  0.8744 -0.1380
  149MOL0     H20507   4.815   3.200   4.639  1.4579  2.4965 -1.8712
  149MOL0     H20508   4.697   3.236   4.764  1.5002 -0.3777  0.4943
  149MOL0     H20509   4.797   3.425   4.550 -1.6242 -2.4770 -0.3777
  149MOL0     H20510   4.685   3.475   4.671  0.0199  0.6167 -2.3232
  149MOL0     H20511   4.768   3.465   4.932 -0.0814 -2.5729 -2.5921
  149MOL0     H20512   4.953   3.645   5.098  2.8640  0.7750  1.2216
  149MOL0     H20513   5.114   3.569   5.064  1.2944 -1.6946 -3.4213
  149MOL0     H20514   4.861   3.420   5.156  0.1870 -3.4406  1.1560
  149MOL0     H20515   5.020   3.349   5.112 -0.5201  0.3808  1.0372
  149MOL0     H20516   4.993   3.362   5.360 -1.3382  0.0807 -1.4063
  149MOL0     H20517   5.127   3.453   5.290  0.4985 -1.6524 -1.4866
  149MOL0     H20518   5.003   3.558   5.486 -0.1400 -1.3284  0.7778
  149MOL0     H20519   4.996   3.658   5.338  1.1263 -1.6221 -2.2285
  149MOL0     H20520   4.915   3.737   5.567 -0.6702  1.9286  1.1078
  149MOL0     H20521   4.833   3.802   5.871  0.2343 -1.8198 -0.5906
  149MOL0     H20522   4.764   3.940   5.802  2.5761  2.1002 -2.4042
  149MOL0     H20523   4.913   3.884   5.731 -1.8120  2.7599 -2.2016
  149MOL0     H20524   4.448   3.558   6.055 -0.7732 -2.4092  1.9099
  149MOL0     H20525   4.332   3.590   6.266 -0.3351 -1.6117 -1.0779
  149MOL0     H20526   4.096   3.562   6.425 -3.1044  0.6077  0.1108
  149MOL0     H20527   4.193   3.702   6.462  0.7292 -1.5430  0.0993
  149MOL0     H20528   3.989   3.680   6.597  0.5705 -2.0737 -0.8642
  149MOL0     H20529   4.018   3.841   6.520  0.7913  0.1497 -3.0738
  149MOL0     H20530   3.844   3.784   6.361  0.2785 -1.5755 -0.5874
  149MOL0     H20531   3.780   3.743   6.522 -1.1849 -1.3237 -0.6527
  149MOL0     H20532   3.842   3.507   6.482 -3.0629 -1.4708  1.0166
  149MOL0     H20533   3.891   3.542   6.320  0.0724  0.0160  1.2148
  149MOL0     H20534   3.614   3.605   6.450  1.8428  0.0927  1.1925
  149MOL0     H20535   3.655   3.638   6.280  2.3600  1.4287  0.5538
  149MOL0     H20536   3.686   3.354   6.391 -0.4555  0.3690  0.2448
  149MOL0     H20537   3.685   3.415   6.220 -0.1166  0.1581 -0.4026
  149MOL0     H20538   3.448   3.470   6.235 -4.6116  0.6318  2.3816
  149MOL0     H20539   3.438   3.419   6.397  2.0262  0.4314  0.7826
  149MOL0     H20540   3.514   3.213   6.208 -2.1417  4.2764 -3.3419
  149MOL0     H20541   3.352   3.232   6.289 -1.0780  0.9971  1.5808
  149MOL0     H20542   4.053   3.858   6.049  0.7412 -0.4276  1.6636
  149MOL0     H20543   4.197   3.829   5.855  0.1398 -4.2223 -2.6674
  149MOL0     H20544   4.459   3.567   5.633  1.2530 -2.5836  1.2316
  149MOL0     H20545   4.583   3.509   5.442  0.1587 -0.2095 -0.6029
  149MOL0     H20546   3.895   3.401   4.111 -0.3319 -1.8453  1.9159
  149MOL0     H20547   3.722   3.572   4.066 -0.3799  0.0810  1.0498
  149MOL0     H20548   3.395   3.737   4.118  0.8465  0.1979 -0.4156
  149MOL0     H20549   3.166   3.814   4.067  1.7125 -1.9287 -0.0916
  149MOL0     H20550   2.962   3.982   4.396 -3.0660  0.6491  1.8556
  149MOL0     H20551   2.991   4.145   4.340 -2.8255  1.4017  1.3952
  149MOL0     H20552   2.799   4.130   4.185  2.0383  1.4420  0.6490
  149MOL0     H20553   2.735   4.097   4.344  1.9879  0.5151  0.4088
  149MOL0     H20554   2.648   3.924   4.183 -0.9280 -2.4766  0.0102
  149MOL0     H20555   2.819   3.868   4.153 -1.3013  0.3228 -0.8601
  149MOL0     H20556   2.711   3.853   4.428 -0.0488 -1.4633  0.3512
  149MOL0     H20557   2.830   3.755   4.361 -0.7384 -0.8211  2.0040
  149MOL0     H20558   2.456   3.568   4.290 -0.2066 -0.0482  2.6439
  149MOL0     H20559   3.200   4.117   4.382 -1.7047  0.6961 -1.6627
  149MOL0     H20560   3.455   3.993   4.538 -2.2551 -2.8894 -2.7820
  149MOL0     H20561   3.546   4.094   4.434  1.2523  0.8726  5.6007
  149MOL0     H20562   3.384   4.148   4.502 -2.3347 -0.6758 -1.0833
  150MOL0     O20563   0.783   3.794   8.240  0.9281 -0.4572  0.0617
  150MOL0     C20564   0.909   3.782   8.244  0.5289 -0.1552 -0.2846
  150MOL0     O20565   0.986   3.780   8.357  0.2030 -0.3666 -0.1579
  150MOL0     C20566   0.938   3.737   8.472  0.1386 -0.1936 -0.2081
  150MOL0     C20567   0.941   3.600   8.521 -0.7632 -0.0739  0.0702
  150MOL0     C20568   0.882   3.564   8.640 -0.5630 -0.2780  0.1829
  150MOL0     C20569   0.821   3.657   8.728 -0.0352 -0.5794  0.8777
  150MOL0     O20570   0.769   3.600   8.841 -0.1108 -0.2722 -0.1367
  150MOL0     C20571   0.645   3.669   8.887  0.0071 -0.2596  0.0881
  150MOL0     C20572   0.528   3.636   8.787 -0.1296 -1.1145 -0.6070
  150MOL0     C20573   0.487   3.495   8.799 -0.7340  0.4128 -0.1894
  150MOL0     C20574   0.394   3.443   8.696  0.4781 -0.2482  0.1712
  150MOL0     C20575   0.377   3.294   8.704  0.0337 -0.2254  0.0401
  150MOL0     C20576   0.304   3.247   8.830  0.6179  0.4365  0.2451
  150MOL0     C20577   0.294   3.097   8.842  0.9358  0.1330  0.5660
  150MOL0     C20578   0.426   3.030   8.866 -0.0254  0.3312 -0.1138
  150MOL0     N20579   0.418   2.910   8.960 -0.1899  0.3141 -0.1671
  150MOL0     C20580   0.405   2.923   9.099 -1.0814  0.0653 -0.4440
  150MOL0     C20581   0.391   2.809   9.157  0.9503  0.0130  0.0058
  150MOL0     C20582   0.402   2.768   9.296  0.4257 -0.8254 -0.1152
  150MOL0     C20583   0.297   2.831   9.384  0.9664  0.9848 -0.1062
  150MOL0     C20584   0.336   2.822   9.534  0.4081  0.0747 -0.8166
  150MOL0     C20585   0.405   2.691   9.571  0.1621  0.0172  0.1028
  150MOL0     O20586   0.407   2.657   9.710 -0.7277 -0.6232  0.4780
  150MOL0     C20587   0.462   2.536   9.750  0.8488  0.1719 -0.9771
  150MOL0     C20588   0.488   2.527   9.885  0.2207  0.1673  0.5439
  150MOL0     C20589   0.553   2.407   9.931  0.3543 -0.4483 -0.2398
  150MOL0     C20590   0.602   2.419  10.076 -0.8914 -0.1357  0.5187
  150MOL0     C20591   0.597   2.307   9.840 -0.5440  0.7519 -1.3981
  150MOL0     C20592   0.663   2.181   9.883  0.8397  0.1264 -0.5573
  150MOL0     O20593   0.669   2.149  10.016 -0.2809 -0.1503  0.7040
  150MOL0     C20594   0.765   2.055  10.051  0.1088  0.7092 -0.2959
  150MOL0     C20595   0.871   2.102  10.131 -0.7550  0.2077 -0.2141
  150MOL0     C20596   0.965   2.013  10.184 -0.1801 -0.2410  0.1328
  150MOL0     C20597   0.953   1.878  10.171 -0.4237 -0.4283 -0.1257
  150MOL0     O20598   1.057   1.803  10.224 -0.1436 -0.3909 -0.0787
  150MOL0     C20599   1.112   1.686  10.159  0.2826  0.0880  0.1786
  150MOL0     C20600   1.242   1.627  10.216  0.4456 -0.6804  0.1304
  150MOL0     C20601   1.362   1.725  10.190  0.3295  0.4858  0.0890
  150MOL0     C20602   1.473   1.676  10.273  0.1998  0.7412 -0.0936
  150MOL0     C20603   1.607   1.746  10.249 -0.1154 -0.3220 -0.0532
  150MOL0     C20604   1.673   1.699  10.123  0.0221 -0.5340  1.0099
  150MOL0     C20605   1.769   1.800  10.057  0.4589  0.1670  0.5199
  150MOL0     C20606   1.710   1.916   9.983 -0.3049  0.2441  0.0380
  150MOL0    Cl20607   1.856   2.027   9.940 -0.0192  0.1007  0.5872
  150MOL0     C20608   0.843   1.827  10.104 -0.7524  0.1168  0.9646
  150MOL0     C20609   0.751   1.919  10.034  0.5498  0.4221  0.2049
  150MOL0     O20610   0.704   2.105   9.790  0.1598 -0.1173 -0.0026
  150MOL0     C20611   0.564   2.325   9.705  0.7101  0.1267 -0.5774
  150MOL0     C20612   0.499   2.443   9.656  0.6530 -0.6037  0.6781
  150MOL0     N20613   0.366   2.725   9.053 -0.1167  0.0120  0.1967
  150MOL0     N20614   0.389   2.785   8.935  0.0369  0.8343 -0.2108
  150MOL0     C20615   0.812   3.791   8.680 -0.4926 -0.7675  0.3155
  150MOL0     C20616   0.870   3.830   8.554 -0.3186 -0.1399 -0.2608
  150MOL0     C20617   0.985   3.795   8.121 -0.0645  0.3944 -0.9533
  150MOL0     C20618   0.925   3.882   8.031 -0.4914 -0.2608  0.2159
  150MOL0     C20619   0.966   3.894   7.896  0.4867  0.7089 -0.0937
  150MOL0     C20620   1.067   3.807   7.860  0.9756  0.9520  0.6528
  150MOL0     O20621   1.103   3.810   7.726  0.0600 -0.2344 -0.2631
  150MOL0     C20622   1.052   3.703   7.639 -0.5347  0.4451  0.0496
  150MOL0     C20623   1.056   3.755   7.497  0.1503 -0.0806 -0.0096
  150MOL0     C20624   0.946   3.867   7.483  0.5186 -0.1195 -0.4684
  150MOL0     C20625   0.882   3.874   7.347  0.3490  0.6618  0.3036
  150MOL0     C20626   0.966   3.943   7.252 -0.2292 -0.8233 -0.2384
  150MOL0     C20627   1.056   4.012   7.207  0.8952  0.2376  0.7561
  150MOL0     C20628   1.132   3.717   7.947 -0.3296  0.9386  0.4134
  150MOL0     C20629   1.084   3.705   8.077  1.3020  0.1843 -1.0813
  150MOL0     C20630   1.142   3.593   8.157 -0.0834 -0.3659  0.4308
  150MOL0     H20631   0.991   3.527   8.458 -1.1038  0.4235 -0.7875
  150MOL0     H20632   0.896   3.462   8.674 -1.9252 -1.1449 -1.7253
  150MOL0     H20633   0.648   3.777   8.903 -0.5106 -0.4592  1.6560
  150MOL0     H20634   0.616   3.636   8.987 -0.6839 -1.9074 -0.6135
  150MOL0     H20635   0.450   3.711   8.796  1.4295  0.5278 -0.2218
  150MOL0     H20636   0.551   3.657   8.682 -0.9240 -4.6550 -1.6240
  150MOL0     H20637   0.578   3.435   8.786 -2.5387 -2.1140 -2.1075
  150MOL0     H20638   0.448   3.475   8.899  2.8983 -1.4825  1.0420
  150MOL0     H20639   0.301   3.501   8.699  0.7009  0.0678  1.5348
  150MOL0     H20640   0.437   3.475   8.601  1.7092 -0.5949  0.5941
  150MOL0     H20641   0.474   3.244   8.706  0.4872  0.6426  0.7171
  150MOL0     H20642   0.339   3.248   8.613 -0.2938 -0.0934  0.1066
  150MOL0     H20643   0.360   3.281   8.917 -0.4927  2.3964  0.2583
  150MOL0     H20644   0.207   3.296   8.842  0.8820  1.4847 -1.4940
  150MOL0     H20645   0.239   3.060   8.755  1.5595  1.4964 -0.4460
  150MOL0     H20646   0.229   3.081   8.929  0.4143  2.5748  0.7106
  150MOL0     H20647   0.470   2.985   8.775 -0.5830  0.4346 -0.4341
  150MOL0     H20648   0.498   3.103   8.904  1.0480  0.1261 -1.6417
  150MOL0     H20649   0.436   3.011   9.154  3.0901  0.0736 -2.4197
  150MOL0     H20650   0.503   2.793   9.329  1.3222 -1.2728 -2.3459
  150MOL0     H20651   0.387   2.659   9.293 -1.8635 -0.5653 -0.1181
  150MOL0     H20652   0.293   2.936   9.352  0.4005  0.7784 -0.7325
  150MOL0     H20653   0.198   2.790   9.360  1.3916  1.4861 -3.0269
  150MOL0     H20654   0.402   2.904   9.564 -0.5532  0.1206  1.3242
  150MOL0     H20655   0.249   2.834   9.599  1.8869 -3.1733  2.0568
  150MOL0     H20656   0.371   2.605   9.514 -0.0228 -1.6600  2.5939
  150MOL0     H20657   0.508   2.711   9.540 -0.2959  0.5990 -1.0907
  150MOL0     H20658   0.471   2.620   9.938  1.7260  2.6466 -2.9639
  150MOL0     H20659   0.520   2.376  10.135  1.6673 -2.8441  2.3516
  150MOL0     H20660   0.637   2.516  10.111  0.5059 -0.5884  0.4245
  150MOL0     H20661   0.694   2.364  10.097 -0.5591  1.0128  2.2517
  150MOL0     H20662   0.898   2.200  10.167  1.8222 -0.7827  0.8008
  150MOL0     H20663   1.045   2.043  10.251  0.3013  0.4432 -0.7250
  150MOL0     H20664   1.037   1.606  10.163  0.0261  0.2484 -0.9704
  150MOL0     H20665   1.140   1.703  10.054  1.4714  0.3678  0.5189
  150MOL0     H20666   1.230   1.595  10.320 -2.0267 -1.0797 -0.2166
  150MOL0     H20667   1.257   1.534  10.161  1.8024 -0.1460 -0.4342
  150MOL0     H20668   1.331   1.821  10.231 -0.7344 -0.9868  2.9668
  150MOL0     H20669   1.383   1.722  10.082  0.4601 -1.2252  0.1222
  150MOL0     H20670   1.479   1.567  10.273 -1.0080  0.6508  0.8817
  150MOL0     H20671   1.443   1.692  10.377 -2.5059 -1.6175 -0.3963
  150MOL0     H20672   1.598   1.855  10.247  4.0155  0.2163  1.3102
  150MOL0     H20673   1.680   1.732  10.329  2.8409  1.1647 -2.3132
  150MOL0     H20674   1.603   1.663  10.046 -0.9861  2.5393  0.3349
  150MOL0     H20675   1.733   1.609  10.138  1.6883  0.0948 -1.2423
  150MOL0     H20676   1.839   1.738   9.999 -0.2116 -1.0810  1.0068
  150MOL0     H20677   1.832   1.835  10.139  0.4544  0.4043  0.4234
  150MOL0     H20678   1.636   1.968  10.044 -2.3203 -3.0335  0.6862
  150MOL0     H20679   1.657   1.885   9.892 -0.7742  2.3008 -0.4306
  150MOL0     H20680   0.826   1.720  10.098  0.5581 -0.1359  1.4668
  150MOL0     H20681   0.661   1.894   9.978  0.3887 -0.6026  0.8814
  150MOL0     H20682   0.599   2.247   9.638  4.6076  0.1873  1.1190
  150MOL0     H20683   0.487   2.459   9.550  0.9919 -1.4529  0.5010
  150MOL0     H20684   0.765   3.867   8.741 -0.5200  0.2055 -0.8815
  150MOL0     H20685   0.871   3.933   8.518  0.3971  0.1793  0.6301
  150MOL0     H20686   0.837   3.942   8.052 -0.3284 -0.1617  0.6303
  150MOL0     H20687   0.921   3.955   7.819  0.9252  3.9831  2.0287
  150MOL0     H20688   1.118   3.616   7.636 -2.5381 -1.2829  1.9665
  150MOL0     H20689   0.955   3.664   7.673 -1.5732 -0.1091 -3.1777
  150MOL0     H20690   1.058   3.665   7.435  1.7287 -1.3536  1.7477
  150MOL0     H20691   1.155   3.795   7.474 -0.5565 -0.1586 -3.7754
  150MOL0     H20692   0.861   3.838   7.544 -0.1321  2.5981  0.0647
  150MOL0     H20693   0.989   3.962   7.516  0.6523  0.7405 -2.9153
  150MOL0     H20694   0.782   3.919   7.343 -0.5605 -1.2627  0.2057
  150MOL0     H20695   0.863   3.772   7.315 -3.6298  0.8004  1.6266
  150MOL0     H20696   1.131   4.079   7.169 -2.1028  3.1057 -0.5529
  150MOL0     H20697   1.218   3.658   7.917 -0.0889 -1.0363  4.3812
  150MOL0     H20698   1.182   3.637   8.248  2.0981 -0.3792 -0.4575
  150MOL0     H20699   1.061   3.526   8.187 -1.7861  1.7874  0.9017
  150MOL0     H20700   1.224   3.546   8.101 -0.0521  1.9867 -1.6868
  151MOL0     O20701   9.962   9.786   8.517 -0.0175  0.4174  0.7220
  151MOL0     C20702   9.899   9.726   8.605 -0.2390  0.3801 -0.2530
  151MOL0     O20703   9.938   9.726   8.733 -0.9917 -0.0870  0.4724
  151MOL0     C20704  10.020   9.831   8.770 -0.3658 -0.0935  1.6064
  151MOL0     C20705  10.158   9.808   8.792  0.1560 -0.0699  0.5180
  151MOL0     C20706  10.248   9.908   8.835  0.4215 -0.1493 -0.3433
  151MOL0     C20707  10.197  10.037   8.856 -0.8027 -0.0348  0.3771
  151MOL0     O20708  10.298  10.130   8.873  0.6370  0.3737  0.4946
  151MOL0     C20709  10.267  10.270   8.893 -0.1068 -0.7734  0.5776
  151MOL0     C20710  10.204  10.295   9.031  0.4413 -0.0621 -0.2661
  151MOL0     C20711  10.163  10.443   9.026  0.4648  0.1288 -0.0308
  151MOL0     C20712  10.091  10.482   9.158 -0.1301  0.6005  0.0382
  151MOL0     C20713  10.174  10.494   9.283 -0.4259  0.1256  0.5097
  151MOL0     C20714  10.285  10.604   9.280 -0.5679  0.4319 -0.1942
  151MOL0     C20715  10.401  10.582   9.382  0.2487  1.2848  0.2501
  151MOL0     C20716  10.449  10.719   9.432 -0.6941  0.3084  1.0698
  151MOL0     N20717  10.531  10.781   9.325 -0.0482  0.1315  0.2005
  151MOL0     C20718  10.665  10.769   9.312 -0.1381  0.2721 -0.7478
  151MOL0     C20719  10.691  10.889   9.245 -0.1607 -0.7535  0.8709
  151MOL0     C20720  10.827  10.942   9.223  1.0343  1.0109  0.0658
  151MOL0     C20721  10.879  10.879   9.091  0.6112 -1.1615 -0.0462
  151MOL0     C20722  10.993  10.956   9.030  0.6208 -0.2461  0.6604
  151MOL0     C20723  11.048  10.878   8.906 -0.0802  0.3555 -0.5619
  151MOL0     O20724  11.102  10.747   8.940  0.2753 -0.1650 -0.1562
  151MOL0     C20725  11.213  10.741   9.019  0.3836  0.5038 -0.6889
  151MOL0     C20726  11.237  10.605   9.048 -0.4326 -0.3853 -0.4633
  151MOL0     C20727  11.334  10.567   9.139 -1.0095 -0.2781 -0.4565
  151MOL0     C20728  11.341  10.432   9.178  0.3568  0.2039  0.9178
  151MOL0     C20729  11.411  10.676   9.204 -0.2130  0.4489 -0.4327
  151MOL0     C20730  11.512  10.647   9.306  0.3942 -0.4561 -0.4598
  151MOL0     O20731  11.586  10.764   9.331  0.6904  0.0584  0.3436
  151MOL0     C20732  11.681  10.768   9.428 -0.6052  0.1592 -0.4884
  151MOL0     C20733  11.663  10.713   9.555 -0.2580 -0.3712  0.2362
  151MOL0     C20734  11.756  10.719   9.649  0.4043 -0.4598 -1.0152
  151MOL0     C20735  11.876  10.785   9.616 -0.4142  0.4541  0.8241
  151MOL0     O20736  11.968  10.786   9.716  0.1633 -0.2360  0.2718
  151MOL0     C20737  12.104  10.758   9.687  0.6618 -0.5447 -0.6102
  151MOL0     C20738  12.191  10.751   9.808 -0.6181 -0.7206 -0.2418
  151MOL0     C20739  12.174  10.606   9.866  0.7260  1.0084 -0.5231
  151MOL0     C20740  12.185  10.601  10.013 -0.4923  0.5739  0.6164
  151MOL0     C20741  12.166  10.459  10.065  0.3095  0.8347  0.2266
  151MOL0     C20742  12.169  10.458  10.225 -1.5305 -0.1069  0.0454
  151MOL0     C20743  12.169  10.317  10.268  0.8633  0.2625  0.3223
  151MOL0     C20744  12.155  10.331  10.421  0.0341 -0.0375 -0.4547
  151MOL0    Cl20745  12.126  10.154  10.489 -0.2645 -0.2076  0.1599
  151MOL0     C20746  11.902  10.841   9.492  0.7697  1.1040  0.5158
  151MOL0     C20747  11.803  10.828   9.393  0.2046  0.0133 -0.5367
  151MOL0     O20748  11.524  10.540   9.367  0.5430 -0.1682 -0.4567
  151MOL0     C20749  11.391  10.807   9.171  0.0828  0.6495 -0.3001
  151MOL0     C20750  11.293  10.835   9.072  0.3583  0.0732 -0.9300
  151MOL0     N20751  10.572  10.939   9.197 -0.4248 -0.9618  0.3326
  151MOL0     N20752  10.469  10.872   9.247 -0.4783 -0.2523  0.0954
  151MOL0     C20753  10.063  10.062   8.841  0.3990 -0.5130 -0.1333
  151MOL0     C20754   9.974   9.956   8.799 -0.6904 -0.6496  0.4756
  151MOL0     C20755   9.797   9.619   8.563 -0.5853  0.0422 -0.1245
  151MOL0     C20756   9.718   9.571   8.666 -0.6573 -0.4196  0.3009
  151MOL0     C20757   9.631   9.468   8.640 -0.0276 -0.3065 -0.4215
  151MOL0     C20758   9.601   9.412   8.514 -1.2723 -0.0644 -0.2989
  151MOL0     O20759   9.508   9.310   8.489  0.4933 -0.3214 -0.8421
  151MOL0     C20760   9.452   9.235   8.600  0.0513 -0.5473  0.4851
  151MOL0     C20761   9.323   9.186   8.532 -0.6212 -0.8730 -0.1498
  151MOL0     C20762   9.232   9.107   8.628 -0.0479  0.6896 -0.8598
  151MOL0     C20763   9.185   9.186   8.756  0.7649  0.4874  0.2777
  151MOL0     C20764   9.101   9.103   8.841  0.6089 -0.3361 -0.3738
  151MOL0     C20765   9.027   9.049   8.922  1.2573 -0.6570 -0.3988
  151MOL0     C20766   9.676   9.466   8.410 -0.1708  0.2812  0.4586
  151MOL0     C20767   9.775   9.566   8.436  0.4185  1.2673  0.1689
  151MOL0     C20768   9.855   9.602   8.317 -0.2492 -0.7397  0.6236
  151MOL0     H20769  10.208   9.714   8.771 -2.3112 -1.3506  0.0609
  151MOL0     H20770  10.355   9.895   8.844  0.3661 -3.1179 -2.4991
  151MOL0     H20771  10.211  10.314   8.810  0.8228 -0.4754  0.0894
  151MOL0     H20772  10.363  10.321   8.886  1.2689 -3.2597 -0.0256
  151MOL0     H20773  10.124  10.229   9.065 -0.3798 -0.4316 -2.7450
  151MOL0     H20774  10.283  10.287   9.106  0.2574 -2.4723 -0.2672
  151MOL0     H20775  10.243  10.508   8.989 -0.0880 -0.5714 -2.6942
  151MOL0     H20776  10.075  10.446   8.961 -0.6613 -1.4849  1.3034
  151MOL0     H20777  10.051  10.582   9.141  0.6144  0.7176 -1.1998
  151MOL0     H20778  10.011  10.412   9.181 -1.6466  2.1089 -0.4798
  151MOL0     H20779  10.225  10.398   9.300 -1.9591 -0.6765  0.7261
  151MOL0     H20780  10.108  10.517   9.367 -0.6669  1.0707  0.0683
  151MOL0     H20781  10.320  10.620   9.177 -0.9888  1.3316 -0.2063
  151MOL0     H20782  10.231  10.695   9.310 -0.5014 -0.2505  2.1290
  151MOL0     H20783  10.487  10.534   9.334 -2.5711 -5.4409  0.8366
  151MOL0     H20784  10.373  10.516   9.464  2.2527 -0.7228 -0.5827
  151MOL0     H20785  10.365  10.786   9.454 -1.3795  0.6823 -2.1407
  151MOL0     H20786  10.514  10.718   9.519  1.2201  2.2352 -0.2342
  151MOL0     H20787  10.727  10.697   9.365  0.1493  0.9740 -0.1077
  151MOL0     H20788  10.902  10.918   9.299  0.2952 -1.8541 -0.0026
  151MOL0     H20789  10.815  11.051   9.220 -1.0613  0.8992  1.8995
  151MOL0     H20790  10.916  10.777   9.099 -1.5270 -2.1796 -2.0516
  151MOL0     H20791  10.798  10.887   9.018  1.8258  0.2746 -1.3035
  151MOL0     H20792  10.936  11.043   8.995 -0.1971 -0.9853  0.1005
  151MOL0     H20793  11.071  10.990   9.098  0.9671  0.8899 -0.2754
  151MOL0     H20794  10.973  10.866   8.827  0.9368  3.8749 -2.2335
  151MOL0     H20795  11.129  10.941   8.867 -0.4551 -0.2743 -2.4889
  151MOL0     H20796  11.167  10.528   9.017 -2.1207  1.4360 -1.4493
  151MOL0     H20797  11.322  10.420   9.285  2.9734 -1.1145  1.3118
  151MOL0     H20798  11.443  10.396   9.161 -0.3016 -1.4518  0.2877
  151MOL0     H20799  11.275  10.371   9.116  2.4833 -0.8919 -0.3993
  151MOL0     H20800  11.565  10.671   9.578 -0.0401 -2.0355 -1.6109
  151MOL0     H20801  11.743  10.684   9.750 -0.1421  4.2386  0.8082
  151MOL0     H20802  12.109  10.667   9.626 -1.2545 -1.4551  0.5115
  151MOL0     H20803  12.140  10.846   9.634  0.2801  0.6771  1.0931
  151MOL0     H20804  12.294  10.775   9.780 -0.8849  0.2717 -0.3931
  151MOL0     H20805  12.158  10.825   9.881 -0.5758 -0.7073 -0.2369
  151MOL0     H20806  12.232  10.533   9.809  2.5589  0.9611  1.2703
  151MOL0     H20807  12.071  10.575   9.847  1.1067 -1.3804  0.8454
  151MOL0     H20808  12.116  10.671  10.061 -1.7987  1.1022 -1.8524
  151MOL0     H20809  12.286  10.631  10.044  0.4994 -2.6943  0.9485
  151MOL0     H20810  12.084  10.416  10.007 -0.5805  0.2599  1.8248
  151MOL0     H20811  12.258  10.405  10.041 -0.6130 -0.8313  0.2856
  151MOL0     H20812  12.083  10.518  10.256 -0.3938  1.2645  0.6459
  151MOL0     H20813  12.263  10.504  10.257  0.0686 -2.2744 -1.2728
  151MOL0     H20814  12.261  10.272  10.231 -0.1161 -1.7869  0.2497
  151MOL0     H20815  12.085  10.262  10.223 -0.1777  1.0951  1.1871
  151MOL0     H20816  12.061  10.379  10.451  0.4242 -1.5980  4.0061
  151MOL0     H20817  12.240  10.389  10.458 -1.8593  1.1311  2.4265
  151MOL0     H20818  11.988  10.906   9.484  0.7089  1.2318  0.8928
  151MOL0     H20819  11.816  10.881   9.299  3.7945  1.8171  0.8051
  151MOL0     H20820  11.445  10.885   9.223 -2.0291  0.0468  3.0768
  151MOL0     H20821  11.272  10.934   9.033 -1.1999 -0.2557 -1.0088
  151MOL0     H20822  10.023  10.162   8.853  1.6792 -0.0087  0.0848
  151MOL0     H20823   9.868   9.972   8.784 -0.8445 -0.7313  1.4500
  151MOL0     H20824   9.727   9.614   8.765  2.5667 -1.2725  0.5019
  151MOL0     H20825   9.585   9.415   8.722  2.2606 -2.7756 -0.6107
  151MOL0     H20826   9.521   9.154   8.626  0.7908 -0.9841 -2.4299
  151MOL0     H20827   9.425   9.286   8.693 -0.2154 -0.8095  0.5537
  151MOL0     H20828   9.351   9.125   8.446  3.6553  1.0828 -0.4056
  151MOL0     H20829   9.270   9.270   8.487  1.3058  0.4355 -0.0860
  151MOL0     H20830   9.151   9.059   8.572 -0.5711 -0.3080  0.6817
  151MOL0     H20831   9.292   9.019   8.654 -1.2202 -0.5016 -2.0345
  151MOL0     H20832   9.130   9.277   8.729 -0.2092 -0.0369  0.4180
  151MOL0     H20833   9.269   9.210   8.821 -0.3576  3.0020  0.9147
  151MOL0     H20834   8.979   8.993   8.999  3.3723  0.9953  2.3583
  151MOL0     H20835   9.663   9.427   8.309 -0.5249 -1.0525  1.0026
  151MOL0     H20836   9.961   9.576   8.332  0.1026  0.2527 -0.0492
  151MOL0     H20837   9.821   9.552   8.225  5.8909 -0.7207 -2.1658
  151MOL0     H20838   9.851   9.709   8.297  0.0705 -0.5124  1.7108
  152MOL0     O20839   4.066   8.719   0.781  0.5473 -0.3047 -0.7549
  152MOL0     C20840   4.175   8.665   0.763  0.9353 -0.6008 -0.8515
  152MOL0     O20841   4.270   8.692   0.668  0.9332  0.1182 -0.3640
  152MOL0     C20842   4.256   8.785   0.571 -0.6177  0.0442 -0.3456
  152MOL0     C20843   4.357   8.784   0.463  0.0821  0.4231 -0.7072
  152MOL0     C20844   4.362   8.870   0.353  0.6055  0.8755 -0.4451
  152MOL0     C20845   4.261   8.965   0.354  0.0330 -0.3016  0.1057
  152MOL0     O20846   4.238   9.055   0.262 -0.3436 -0.3063 -0.8032
  152MOL0     C20847   4.224   8.998   0.130  0.5416  0.1180  0.9731
  152MOL0     C20848   4.184   9.105   0.018  0.2767  0.2608 -0.0425
  152MOL0     C20849   4.044   9.153   0.049 -0.1545  0.3522 -1.0861
  152MOL0     C20850   3.968   9.241  -0.055  0.4077  0.0747 -0.5967
  152MOL0     C20851   4.036   9.384  -0.048 -0.0443  0.1821 -0.1754
  152MOL0     C20852   3.973   9.462  -0.167  0.9610  0.6789 -0.1263
  152MOL0     C20853   4.039   9.598  -0.178 -0.2499 -0.5336  0.4612
  152MOL0     C20854   4.175   9.588  -0.248 -0.4211  1.2506  0.1488
  152MOL0     N20855   4.244   9.714  -0.252  0.1106 -0.6454 -0.1623
  152MOL0     C20856   4.344   9.764  -0.179  0.3256  0.2549 -0.0649
  152MOL0     C20857   4.354   9.896  -0.218  0.9370  1.0049  0.0511
  152MOL0     C20858   4.429  10.002  -0.150 -0.0738 -0.3588 -0.1227
  152MOL0     C20859   4.574   9.964  -0.196 -0.7195  0.1931 -0.4176
  152MOL0     C20860   4.677  10.082  -0.199  0.0557 -0.2451 -0.0308
  152MOL0     C20861   4.818  10.031  -0.211 -0.2719 -0.0950 -0.3861
  152MOL0     O20862   4.897  10.144  -0.191  0.0025 -0.0282  0.2066
  152MOL0     C20863   5.019  10.107  -0.132 -0.8635  0.3899 -0.5946
  152MOL0     C20864   5.122  10.045  -0.204 -0.5745 -0.1618 -0.0664
  152MOL0     C20865   5.225   9.996  -0.136  0.9424 -0.3312 -0.6844
  152MOL0     C20866   5.318   9.921  -0.214 -0.3968  0.6935  0.6535
  152MOL0     C20867   5.240  10.003   0.009 -0.2738  0.3213  0.0413
  152MOL0     C20868   5.346   9.945   0.092 -0.3143 -0.3777  0.4085
  152MOL0     O20869   5.371  10.011   0.214  0.5315  0.0686 -0.0906
  152MOL0     C20870   5.496   9.997   0.281 -0.6111  0.6747 -0.1793
  152MOL0     C20871   5.494   9.994   0.418 -0.8746  0.8781 -0.7314
  152MOL0     C20872   5.607   9.958   0.494 -0.2703  0.3999  0.1037
  152MOL0     C20873   5.735   9.935   0.432  0.7226 -0.6844  0.1163
  152MOL0     O20874   5.824   9.868   0.508 -0.6646 -0.1869  0.1551
  152MOL0     C20875   5.960   9.868   0.463 -0.1113  0.8135  0.3731
  152MOL0     C20876   6.041   9.804   0.567 -0.0300 -1.0827 -0.0184
  152MOL0     C20877   6.183   9.860   0.570 -0.2689 -0.7261  0.2015
  152MOL0     C20878   6.248   9.856   0.423 -0.7564 -0.4506  0.5060
  152MOL0     C20879   6.396   9.894   0.433 -0.1652 -0.2703  0.5243
  152MOL0     C20880   6.433   9.992   0.330 -0.1816  0.1133 -0.4151
  152MOL0     C20881   6.582  10.050   0.345 -0.3737 -0.2613  0.2007
  152MOL0     C20882   6.587  10.146   0.464  0.7981  0.4159  0.5404
  152MOL0    Cl20883   6.538  10.314   0.408 -0.0051  0.6362  0.0357
  152MOL0     C20884   5.738   9.952   0.288 -0.7320  0.1975 -1.1340
  152MOL0     C20885   5.625   9.978   0.216  1.3087  0.3433  0.1585
  152MOL0     O20886   5.409   9.847   0.045  0.4403  0.0983  0.6991
  152MOL0     C20887   5.144  10.083   0.084  0.3501 -0.1281 -0.3131
  152MOL0     C20888   5.028  10.119   0.011  0.3941  0.0481  0.5311
  152MOL0     N20889   4.277   9.917  -0.324  0.0439  0.5148  0.2701
  152MOL0     N20890   4.202   9.815  -0.345 -0.5545  0.5054 -0.1436
  152MOL0     C20891   4.156   8.969   0.444  0.9626  0.6390 -0.0718
  152MOL0     C20892   4.150   8.876   0.555  0.6463  0.5051 -0.0020
  152MOL0     C20893   4.213   8.540   0.836  0.0772  0.4198 -0.0369
  152MOL0     C20894   4.187   8.543   0.973  0.9755  0.0654  0.2165
  152MOL0     C20895   4.218   8.430   1.039  0.1011  0.3148 -0.5430
  152MOL0     C20896   4.265   8.315   0.979  0.1504 -0.8669  0.3632
  152MOL0     O20897   4.301   8.217   1.063  0.3038  0.0432 -0.4565
  152MOL0     C20898   4.265   8.087   1.011 -0.3764 -0.7282  0.6722
  152MOL0     C20899   4.189   8.007   1.120 -0.8414 -0.3209  0.2449
  152MOL0     C20900   4.044   8.054   1.154 -0.2555 -0.7929 -0.4122
  152MOL0     C20901   3.999   7.974   1.276  0.4947  0.7431 -0.3858
  152MOL0     C20902   4.021   7.830   1.258  0.0078 -0.5599  0.0183
  152MOL0     C20903   4.033   7.711   1.254 -0.5592  0.4667  0.2669
  152MOL0     C20904   4.288   8.315   0.842  0.6182 -0.1912 -0.2900
  152MOL0     C20905   4.251   8.420   0.765 -0.6593 -0.3518 -1.2739
  152MOL0     C20906   4.270   8.418   0.618  0.0253  0.3864  0.6795
  152MOL0     H20907   4.439   8.713   0.470  1.6683  1.8935 -2.8592
  152MOL0     H20908   4.439   8.864   0.277  1.9460  1.3371  0.8365
  152MOL0     H20909   4.160   8.910   0.131  0.3474  0.2411  0.1813
  152MOL0     H20910   4.325   8.964   0.105  0.7882  0.6010  1.2845
  152MOL0     H20911   4.255   9.189   0.017 -2.7600  3.0127  0.0780
  152MOL0     H20912   4.179   9.065  -0.084 -0.1152 -1.2900  0.5652
  152MOL0     H20913   3.978   9.071   0.077  3.6131 -2.3591  0.7820
  152MOL0     H20914   4.049   9.219   0.136 -1.0544  0.6548 -1.2523
  152MOL0     H20915   3.965   9.208  -0.159  0.0482  0.0207 -0.5704
  152MOL0     H20916   3.862   9.249  -0.028 -0.3925  0.2333 -3.4828
  152MOL0     H20917   4.145   9.377  -0.055  0.1379  0.3535  1.9377
  152MOL0     H20918   4.021   9.438   0.045  0.7205  2.0547 -1.0867
  152MOL0     H20919   3.988   9.408  -0.261  1.7271  0.1179  0.3013
  152MOL0     H20920   3.866   9.466  -0.146  1.2025 -0.1069  1.4104
  152MOL0     H20921   4.058   9.639  -0.078 -0.1485  3.0512 -0.8751
  152MOL0     H20922   3.973   9.666  -0.233 -1.2409 -2.2183 -0.5218
  152MOL0     H20923   4.232   9.506  -0.204  1.0664  0.6681 -2.6462
  152MOL0     H20924   4.157   9.563  -0.352  1.3873  1.8192 -0.3315
  152MOL0     H20925   4.404   9.709  -0.107  1.9315  1.6860 -0.2229
  152MOL0     H20926   4.431   9.999  -0.041 -4.3859  0.7048  0.1509
  152MOL0     H20927   4.391  10.096  -0.192  0.1115 -1.5287 -3.1310
  152MOL0     H20928   4.601   9.899  -0.112 -0.2000  4.2132  2.8329
  152MOL0     H20929   4.581   9.907  -0.289 -0.1141  1.6703 -1.3088
  152MOL0     H20930   4.656  10.156  -0.277 -0.1217  2.6084  2.5310
  152MOL0     H20931   4.663  10.145  -0.110 -1.1728  1.1244 -1.1405
  152MOL0     H20932   4.833   9.964  -0.126  1.5165  0.9933  0.2134
  152MOL0     H20933   4.824   9.986  -0.311 -0.4310 -2.7436  0.7057
  152MOL0     H20934   5.112  10.037  -0.312 -1.6412 -3.0357  0.1574
  152MOL0     H20935   5.329   9.817  -0.182 -1.1012 -0.1124 -1.5992
  152MOL0     H20936   5.418   9.967  -0.213  0.1143 -0.0260 -3.0119
  152MOL0     H20937   5.295   9.913  -0.320 -0.7514  2.5407  0.5519
  152MOL0     H20938   5.398   9.997   0.469 -1.0501 -0.1844 -0.9834
  152MOL0     H20939   5.615   9.960   0.602  2.5991  0.8125 -0.0120
  152MOL0     H20940   5.975   9.820   0.366 -2.0897  2.6971 -0.9810
  152MOL0     H20941   5.994   9.972   0.457  5.2308 -0.5559  1.7902
  152MOL0     H20942   5.993   9.823   0.663 -1.8456 -2.1924 -0.6612
  152MOL0     H20943   6.030   9.696   0.552  1.7171 -1.1415 -1.3510
  152MOL0     H20944   6.249   9.803   0.637 -1.0020 -1.9736 -0.1032
  152MOL0     H20945   6.178   9.964   0.605  3.1396  0.3474 -1.9764
  152MOL0     H20946   6.181   9.902   0.350 -1.2165 -1.3039  0.3818
  152MOL0     H20947   6.247   9.749   0.403 -0.5839 -0.1703 -1.1308
  152MOL0     H20948   6.428   9.927   0.533 -1.1357  0.2954  0.6592
  152MOL0     H20949   6.451   9.801   0.416  1.7059  0.0924  3.7005
  152MOL0     H20950   6.357  10.070   0.344 -1.1374 -0.8202 -0.3205
  152MOL0     H20951   6.425   9.946   0.231  1.7642  0.4257 -0.7604
  152MOL0     H20952   6.608  10.108   0.256  5.0518 -0.1415  1.5454
  152MOL0     H20953   6.653   9.967   0.349  1.5751  1.3757  2.6895
  152MOL0     H20954   6.687  10.144   0.508  0.7676  0.0280  0.5975
  152MOL0     H20955   6.514  10.115   0.539  3.8117 -4.1502  2.0043
  152MOL0     H20956   5.838   9.943   0.247  0.9257  0.2774  2.4709
  152MOL0     H20957   5.651   9.985   0.111 -1.5033 -2.8598 -0.9655
  152MOL0     H20958   5.155  10.101   0.190 -0.9621 -0.1419 -0.1610
  152MOL0     H20959   4.950  10.177   0.059  2.1431  4.5468 -1.4925
  152MOL0     H20960   4.070   9.034   0.438 -0.7403 -1.6264 -2.0650
  152MOL0     H20961   4.056   8.872   0.611  0.9012 -0.0653  0.3935
  152MOL0     H20962   4.163   8.632   1.030 -2.2058 -0.8349  0.4634
  152MOL0     H20963   4.213   8.434   1.147  1.0094 -1.9048 -0.3640
  152MOL0     H20964   4.202   8.083   0.921  1.3096  0.6637 -0.6362
  152MOL0     H20965   4.363   8.044   0.989  2.7418  4.3622  2.8600
  152MOL0     H20966   4.256   8.018   1.205  1.2125  1.5864 -1.4935
  152MOL0     H20967   4.208   7.904   1.087  4.6090  1.1249 -2.4445
  152MOL0     H20968   4.046   8.159   1.181  0.7868 -0.2245 -2.4548
  152MOL0     H20969   3.983   8.037   1.064 -0.6998  0.3210 -0.3348
  152MOL0     H20970   3.891   7.990   1.287  0.6459  1.0227  0.8552
  152MOL0     H20971   4.060   8.006   1.361  0.5060 -1.1722  0.3672
  152MOL0     H20972   4.038   7.604   1.256  2.1795  0.5511  0.5624
  152MOL0     H20973   4.331   8.234   0.784  1.7990  0.2637 -0.0727
  152MOL0     H20974   4.198   8.479   0.563 -1.6299 -1.3257  0.8372
  152MOL0     H20975   4.373   8.448   0.595  0.2621  0.0636  1.2965
  152MOL0     H20976   4.250   8.321   0.570  2.4400  1.2498 -2.4353
  153MOL0     O20977   6.971  10.522  11.104 -0.7405 -0.5724  0.2309
  153MOL0     C20978   6.942  10.594  11.014 -0.6883  1.2805  0.1402
  153MOL0     O20979   6.837  10.584  10.923 -0.3099  0.0771 -0.1978
  153MOL0     C20980   6.765  10.471  10.923 -0.5423 -0.1014 -0.3001
  153MOL0     C20981   6.811  10.341  10.929 -0.0757 -0.4792 -0.1224
  153MOL0     C20982   6.728  10.223  10.930 -0.7224  0.0557 -0.4642
  153MOL0     C20983   6.592  10.242  10.909 -0.6263 -0.6961 -0.3180
  153MOL0     O20984   6.492  10.148  10.901 -0.4948  0.8183 -0.1328
  153MOL0     C20985   6.514  10.007  10.947  0.2351 -0.0485 -0.1794
  153MOL0     C20986   6.446   9.903  10.856  0.3547  0.5909  0.4705
  153MOL0     C20987   6.293   9.901  10.882 -1.2357 -0.8938  0.8642
  153MOL0     C20988   6.224   9.811  10.776 -0.2303  0.3256 -0.7808
  153MOL0     C20989   6.071   9.800  10.821 -0.6567 -0.5364 -0.0631
  153MOL0     C20990   5.996   9.708  10.724 -0.2305 -0.6499 -0.2985
  153MOL0     C20991   5.849   9.655  10.769  0.0826 -0.0585 -0.8209
  153MOL0     C20992   5.768   9.633  10.646  0.3259  0.1197  0.8924
  153MOL0     N20993   5.635   9.569  10.685 -1.8967  0.9683  0.3721
  153MOL0     C20994   5.515   9.611  10.647  0.9638  0.0154  0.8231
  153MOL0     C20995   5.422   9.541  10.702 -0.0541  0.4715  0.6644
  153MOL0     C20996   5.270   9.546  10.681  0.2388 -0.9181  0.4779
  153MOL0     C20997   5.217   9.403  10.695  0.3835 -0.6728  0.3957
  153MOL0     C20998   5.080   9.367  10.623  0.1001 -0.8440 -0.6372
  153MOL0     C20999   5.071   9.367  10.474 -0.4923  0.3104  0.9676
  153MOL0     O21000   5.134   9.252  10.417 -0.4356  0.0153 -0.9110
  153MOL0     C21001   5.168   9.241  10.287 -0.2355  0.6743  0.7688
  153MOL0     C21002   5.251   9.148  10.241  0.7260  0.0408 -0.9910
  153MOL0     C21003   5.297   9.124  10.114  0.7351  0.1575 -0.0510
  153MOL0     C21004   5.394   9.007  10.086 -0.5262 -0.4215 -0.7440
  153MOL0     C21005   5.264   9.226  10.022 -0.0801  0.1400  0.2339
  153MOL0     C21006   5.342   9.236   9.891  0.0239 -0.3405 -0.7158
  153MOL0     O21007   5.288   9.327   9.817  0.3883 -0.2764  0.6363
  153MOL0     C21008   5.330   9.340   9.678 -0.5042  0.8267 -0.5277
  153MOL0     C21009   5.307   9.237   9.582 -0.5315  0.5934 -1.5191
  153MOL0     C21010   5.339   9.246   9.447 -0.3180 -0.6470 -0.0363
  153MOL0     C21011   5.411   9.360   9.410  0.2632  0.3789  0.0396
  153MOL0     O21012   5.451   9.382   9.278  0.1133 -0.4565 -0.0087
  153MOL0     C21013   5.355   9.354   9.179  0.4787 -0.9949  0.2647
  153MOL0     C21014   5.396   9.429   9.049  0.4551 -0.5213 -0.4804
  153MOL0     C21015   5.278   9.411   8.952 -0.3409 -0.4353  0.3331
  153MOL0     C21016   5.317   9.442   8.807 -0.0665  0.3415 -0.0142
  153MOL0     C21017   5.187   9.425   8.719 -0.2441 -0.0046  0.5041
  153MOL0     C21018   5.176   9.528   8.602 -0.4218 -0.1211 -0.1076
  153MOL0     C21019   5.290   9.531   8.504  0.8654  0.3982 -0.2707
  153MOL0     C21020   5.299   9.673   8.454 -0.2036  0.3435  0.6512
  153MOL0    Cl21021   5.130   9.716   8.394  0.5214  0.5071  0.1104
  153MOL0     C21022   5.463   9.447   9.509  0.1673  0.0505  0.9253
  153MOL0     C21023   5.414   9.446   9.640  0.7368  0.7301 -0.4689
  153MOL0     O21024   5.428   9.162   9.857 -0.5917  0.8402 -0.7734
  153MOL0     C21025   5.166   9.319  10.062  0.6011 -0.2088  0.3799
  153MOL0     C21026   5.120   9.326  10.195  0.1730  0.5553  0.1453
  153MOL0     N21027   5.491   9.436  10.767  0.2254  0.2483  0.2779
  153MOL0     N21028   5.625   9.460  10.763  0.1805 -0.3487 -0.0536
  153MOL0     C21029   6.545  10.375  10.893 -0.2128 -0.2946 -0.1072
  153MOL0     C21030   6.627  10.490  10.894 -0.6651  1.2303 -0.1025
  153MOL0     C21031   7.009  10.724  11.000 -0.2939 -0.3349  0.2141
  153MOL0     C21032   6.939  10.839  10.964 -0.7353 -0.5898  0.6619
  153MOL0     C21033   7.006  10.965  10.954  0.9461  0.1665  0.1932
  153MOL0     C21034   7.140  10.975  10.982 -1.3410 -1.1713 -0.1563
  153MOL0     O21035   7.211  11.100  10.991  0.0322  0.4079 -0.3672
  153MOL0     C21036   7.150  11.202  11.064 -0.0921  0.2731  0.7188
  153MOL0     C21037   7.102  11.174  11.209 -0.0786 -0.4320  0.5571
  153MOL0     C21038   7.019  11.295  11.249  0.1901  0.6109  0.1885
  153MOL0     C21039   6.872  11.274  11.230  0.1472  0.1886  0.0405
  153MOL0     C21040   6.797  11.397  11.275 -0.3099  0.6609 -0.4606
  153MOL0     C21041   6.764  11.511  11.315 -0.8982  0.6643  0.9746
  153MOL0     C21042   7.210  10.858  11.009  0.2942 -0.8609  0.4299
  153MOL0     C21043   7.152  10.730  11.013 -0.5518  0.1316 -0.3104
  153MOL0     C21044   7.238  10.611  11.042  0.6171 -0.8386  0.3087
  153MOL0     H21045   6.919  10.326  10.931  0.1198  0.5062 -1.6680
  153MOL0     H21046   6.764  10.122  10.945 -1.1842 -0.0345  0.1121
  153MOL0     H21047   6.474   9.990  11.048  0.4281  0.2805 -0.0479
  153MOL0     H21048   6.620   9.981  10.953  0.4751  1.2094  2.4878
  153MOL0     H21049   6.477   9.924  10.753  0.0060  1.7405  0.5837
  153MOL0     H21050   6.474   9.798  10.873  0.9493  0.8786  1.3443
  153MOL0     H21051   6.265   9.862  10.980 -0.0109 -3.7380  0.1906
  153MOL0     H21052   6.248  10.000  10.868  3.3939  1.5068  0.8644
  153MOL0     H21053   6.239   9.846  10.673  0.9029  0.9333 -0.4287
  153MOL0     H21054   6.260   9.708  10.785 -2.1708 -0.5056 -1.9082
  153MOL0     H21055   6.021   9.897  10.816  1.5960  1.0528  3.7413
  153MOL0     H21056   6.061   9.761  10.923  0.3255  1.5641  0.8915
  153MOL0     H21057   5.989   9.768  10.633 -1.3993  1.5625  1.1520
  153MOL0     H21058   6.053   9.615  10.712  0.5626 -0.1291 -0.6481
  153MOL0     H21059   5.810   9.738  10.830  0.7888 -0.0730 -0.3270
  153MOL0     H21060   5.871   9.564  10.824  0.1948  0.7912  0.6017
  153MOL0     H21061   5.753   9.729  10.598  0.0355  0.1469  1.0311
  153MOL0     H21062   5.821   9.566  10.578 -1.2237 -1.7160  1.3713
  153MOL0     H21063   5.501   9.698  10.583  4.5607 -1.0335 -1.7121
  153MOL0     H21064   5.244   9.580  10.580 -0.9427  0.3176  1.1602
  153MOL0     H21065   5.219   9.611  10.752  1.6787 -0.8961  1.5326
  153MOL0     H21066   5.298   9.342  10.653  0.8493  0.0884  0.1693
  153MOL0     H21067   5.212   9.388  10.803 -0.9364  0.9693  0.5940
  153MOL0     H21068   5.066   9.266  10.661  0.0300  0.3973  2.9443
  153MOL0     H21069   5.004   9.434  10.665  0.6331  0.2714 -1.3839
  153MOL0     H21070   4.964   9.359  10.452 -0.3802  3.2807 -1.2235
  153MOL0     H21071   5.116   9.457  10.432 -1.8251  1.1589  1.2877
  153MOL0     H21072   5.287   9.069  10.306 -0.6809  0.0127 -0.2148
  153MOL0     H21073   5.497   9.044  10.087 -0.6883  0.0266 -0.1440
  153MOL0     H21074   5.374   8.959   9.990  2.3734 -0.4768 -1.4053
  153MOL0     H21075   5.377   8.929  10.161 -0.9065 -1.2435 -1.6737
  153MOL0     H21076   5.266   9.148   9.627 -0.0445  0.6189 -1.0194
  153MOL0     H21077   5.294   9.176   9.378 -1.4825  1.4429 -1.4835
  153MOL0     H21078   5.329   9.249   9.162 -2.2127 -0.8008  2.4209
  153MOL0     H21079   5.260   9.397   9.212  0.8251 -0.2985  0.3819
  153MOL0     H21080   5.421   9.534   9.072  0.3920 -0.3184 -1.3295
  153MOL0     H21081   5.487   9.387   9.006  0.3288 -0.7063 -0.5625
  153MOL0     H21082   5.193   9.475   8.974  1.5782  2.2472  0.4052
  153MOL0     H21083   5.245   9.307   8.963 -2.5126  0.1974  0.3149
  153MOL0     H21084   5.408   9.393   8.772  0.4389  1.0931  0.2322
  153MOL0     H21085   5.348   9.546   8.799  1.1418  0.1178  1.2463
  153MOL0     H21086   5.187   9.323   8.680  0.8811 -0.4186  1.5040
  153MOL0     H21087   5.100   9.429   8.785 -0.1076  2.1588  0.5981
  153MOL0     H21088   5.158   9.630   8.636  1.2735  0.6094 -1.2622
  153MOL0     H21089   5.084   9.502   8.548  0.7709  0.3373 -2.4730
  153MOL0     H21090   5.265   9.466   8.421  2.6523 -4.0138  2.3105
  153MOL0     H21091   5.385   9.488   8.538  1.4221  1.2335 -0.7158
  153MOL0     H21092   5.373   9.672   8.373  0.6666  0.4256  1.4277
  153MOL0     H21093   5.334   9.742   8.532 -0.6099  0.4543  0.7365
  153MOL0     H21094   5.525   9.532   9.484 -0.7400 -0.2287 -2.8589
  153MOL0     H21095   5.432   9.525   9.713 -2.6660  2.1367 -0.9320
  153MOL0     H21096   5.140   9.403   9.998  1.1876  0.9005  1.5455
  153MOL0     H21097   5.055   9.410  10.219  0.5464  0.7154  0.6133
  153MOL0     H21098   6.442  10.396  10.868 -0.3251  0.1757  0.7140
  153MOL0     H21099   6.587  10.590  10.881 -1.2855  0.9006 -0.8021
  153MOL0     H21100   6.837  10.850  10.929 -0.1947  2.6147 -0.2229
  153MOL0     H21101   6.944  11.051  10.931  0.7452  1.0609  3.5608
  153MOL0     H21102   7.212  11.291  11.075  0.3161 -0.2520  3.1406
  153MOL0     H21103   7.061  11.232  11.008  2.0452  0.2549 -3.0385
  153MOL0     H21104   7.193  11.162  11.268  0.6372  1.4660 -0.0658
  153MOL0     H21105   7.046  11.081  11.214 -1.2418  0.1900 -0.4792
  153MOL0     H21106   7.024  11.304  11.358  0.5159 -2.1267  0.4683
  153MOL0     H21107   7.061  11.383  11.198 -0.5592 -0.4218 -2.4011
  153MOL0     H21108   6.823  11.198  11.291  1.3799  0.7071  1.7550
  153MOL0     H21109   6.845  11.260  11.125 -3.0812  1.2939  0.5952
  153MOL0     H21110   6.728  11.603  11.355 -1.1444  0.4451  1.2597
  153MOL0     H21111   7.314  10.871  11.039  0.1413  4.0456 -0.3677
  153MOL0     H21112   7.201  10.563  11.133 -0.0273 -1.3431 -0.2124
  153MOL0     H21113   7.235  10.542  10.958  0.5728  0.4948 -0.8284
  153MOL0     H21114   7.342  10.639  11.064  0.2004  2.6257 -1.3350
  154MOL0     O21115   1.562   5.856   5.610 -0.3798 -0.7182 -0.3469
  154MOL0     C21116   1.626   5.748   5.583  0.2780 -0.8550 -0.0736
  154MOL0     O21117   1.719   5.691   5.666  0.6607  0.0707  0.3415
  154MOL0     C21118   1.720   5.723   5.796  0.5675 -0.2708 -0.4990
  154MOL0     C21119   1.667   5.637   5.894  0.1758  0.1644  0.6751
  154MOL0     C21120   1.695   5.668   6.028  0.2547 -0.1425  0.2617
  154MOL0     C21121   1.757   5.788   6.071 -0.4857  0.2477  0.3536
  154MOL0     O21122   1.801   5.822   6.206 -0.4427 -0.8730 -0.3092
  154MOL0     C21123   1.736   5.747   6.314  0.3938  0.4339 -0.1102
  154MOL0     C21124   1.777   5.814   6.450  0.5250  0.7442 -1.4624
  154MOL0     C21125   1.716   5.741   6.581 -0.6898  0.4186  0.1952
  154MOL0     C21126   1.827   5.638   6.637  0.2863 -0.0788  0.6463
  154MOL0     C21127   1.917   5.715   6.730  0.3336 -0.5719  0.4311
  154MOL0     C21128   2.044   5.629   6.742  1.2090 -0.0365 -0.2768
  154MOL0     C21129   2.142   5.688   6.839  0.3548 -0.1700  0.0769
  154MOL0     C21130   2.272   5.608   6.860 -0.2529 -0.0109  0.7796
  154MOL0     N21131   2.351   5.669   6.964  0.2639  0.9835  0.2904
  154MOL0     C21132   2.355   5.615   7.094  0.6888  0.0261 -0.1542
  154MOL0     C21133   2.435   5.693   7.159  0.2919 -0.1724  0.9868
  154MOL0     C21134   2.475   5.692   7.305  0.0625  0.2786  0.7446
  154MOL0     C21135   2.590   5.589   7.331 -0.4051  0.0487 -0.3073
  154MOL0     C21136   2.712   5.611   7.244  0.8991  0.1611  0.3886
  154MOL0     C21137   2.825   5.519   7.286  0.4703  0.3020  0.1022
  154MOL0     O21138   2.942   5.579   7.226  0.1161  0.3835 -0.1433
  154MOL0     C21139   3.058   5.531   7.253  0.5737  0.0392 -0.0990
  154MOL0     C21140   3.162   5.618   7.210 -0.5397  0.5121 -0.5523
  154MOL0     C21141   3.294   5.575   7.231 -0.3797  0.0053  0.5940
  154MOL0     C21142   3.396   5.666   7.161  0.4613 -0.2916 -0.3160
  154MOL0     C21143   3.325   5.456   7.301  0.2968  0.2611  0.4785
  154MOL0     C21144   3.456   5.400   7.303  0.1168  0.3546 -0.1306
  154MOL0     O21145   3.559   5.483   7.307  0.1252  0.5379 -0.0327
  154MOL0     C21146   3.687   5.423   7.312 -0.0268  0.0986  0.1233
  154MOL0     C21147   3.773   5.433   7.201 -0.9159 -0.9836 -0.4328
  154MOL0     C21148   3.907   5.388   7.219 -0.1084 -0.7237  0.7015
  154MOL0     C21149   3.950   5.333   7.337 -0.8226 -0.0606 -1.1686
  154MOL0     O21150   4.081   5.297   7.342 -0.0203 -0.7843  0.9810
  154MOL0     C21151   4.135   5.261   7.464 -0.7371  0.2134 -0.6546
  154MOL0     C21152   4.280   5.211   7.453 -0.2825  0.3145  0.4391
  154MOL0     C21153   4.372   5.201   7.577 -0.7400 -0.2245  0.1319
  154MOL0     C21154   4.312   5.129   7.694  0.5673 -0.2479  0.4424
  154MOL0     C21155   4.307   4.974   7.657  0.4311 -0.7992  0.1348
  154MOL0     C21156   4.283   4.891   7.790  0.7981  0.0348  0.2386
  154MOL0     C21157   4.279   4.742   7.781 -0.1939 -0.2264  0.8700
  154MOL0     C21158   4.162   4.691   7.700  0.2555  1.1819 -0.1985
  154MOL0    Cl21159   4.169   4.514   7.694 -0.1891 -0.2739 -0.4365
  154MOL0     C21160   3.855   5.309   7.440 -1.1411 -0.4966  0.5284
  154MOL0     C21161   3.725   5.355   7.421 -0.1167  0.3535 -0.0037
  154MOL0     O21162   3.463   5.279   7.326  0.2523 -0.0131 -0.0808
  154MOL0     C21163   3.215   5.382   7.349  0.1351  0.1241 -0.5220
  154MOL0     C21164   3.086   5.411   7.320  0.5417 -1.1220  1.0435
  154MOL0     N21165   2.477   5.795   7.072 -0.8426 -0.2147 -0.8319
  154MOL0     N21166   2.434   5.771   6.958  0.4231 -0.0864  0.5146
  154MOL0     C21167   1.812   5.870   5.966  0.0100 -0.5123 -0.1650
  154MOL0     C21168   1.789   5.844   5.830  0.2031  0.9637 -0.1219
  154MOL0     C21169   1.597   5.701   5.449 -0.0234 -0.1427 -1.5536
  154MOL0     C21170   1.553   5.799   5.350 -0.6436  1.0729 -0.5255
  154MOL0     C21171   1.535   5.757   5.214 -0.7280  0.1475  0.7579
  154MOL0     C21172   1.554   5.623   5.193  0.1012  0.3541 -0.3282
  154MOL0     O21173   1.531   5.564   5.073  0.0696  0.6896 -0.0439
  154MOL0     C21174   1.641   5.485   5.020  0.3379 -0.8217  0.2448
  154MOL0     C21175   1.739   5.570   4.938 -0.5145 -0.4449 -0.3986
  154MOL0     C21176   1.665   5.620   4.802 -0.0373  0.3683 -1.1753
  154MOL0     C21177   1.723   5.736   4.720 -0.2012  0.0727 -0.3373
  154MOL0     C21178   1.869   5.757   4.705  0.1234 -0.3934 -0.4024
  154MOL0     C21179   1.989   5.764   4.705 -1.0685  0.4929 -0.4318
  154MOL0     C21180   1.583   5.528   5.293 -0.5012 -0.6959 -0.5501
  154MOL0     C21181   1.594   5.560   5.424 -1.5305  0.6373 -0.5355
  154MOL0     C21182   1.615   5.453   5.532 -0.1529  0.5446 -0.7709
  154MOL0     H21183   1.632   5.542   5.853  1.2497 -0.0498  0.2013
  154MOL0     H21184   1.672   5.587   6.098 -0.1022 -2.1106 -2.0183
  154MOL0     H21185   1.765   5.641   6.312  1.7277  0.7081  1.8844
  154MOL0     H21186   1.627   5.749   6.309  0.2406 -0.5517  1.9024
  154MOL0     H21187   1.885   5.820   6.469  0.4079 -2.4577  1.2329
  154MOL0     H21188   1.730   5.912   6.449 -1.0445  0.0153 -1.8400
  154MOL0     H21189   1.703   5.822   6.652  1.7197  1.5653 -0.5491
  154MOL0     H21190   1.622   5.686   6.569  1.8459 -4.1066 -1.9057
  154MOL0     H21191   1.774   5.557   6.689  1.2297 -0.0594  1.6722
  154MOL0     H21192   1.884   5.604   6.550  3.4301 -0.0498  2.5798
  154MOL0     H21193   1.863   5.737   6.823 -1.4527 -0.4886 -0.5680
  154MOL0     H21194   1.956   5.808   6.687  4.1546 -1.3779  1.7604
  154MOL0     H21195   2.018   5.529   6.777 -0.0561  0.9808  1.8606
  154MOL0     H21196   2.086   5.612   6.642 -0.1209  0.5488 -0.9468
  154MOL0     H21197   2.097   5.699   6.938  0.3506  1.2491 -0.0689
  154MOL0     H21198   2.166   5.789   6.807 -4.5007  1.4901  0.8715
  154MOL0     H21199   2.238   5.511   6.898 -2.4476  0.5784  0.4353
  154MOL0     H21200   2.327   5.603   6.766  0.8277 -0.8404  1.4258
  154MOL0     H21201   2.312   5.523   7.132  1.0830  0.4489  1.3560
  154MOL0     H21202   2.389   5.659   7.365 -0.2751  0.6462  0.4695
  154MOL0     H21203   2.498   5.792   7.342 -0.0134 -0.1920  2.1265
  154MOL0     H21204   2.611   5.599   7.437 -0.0755 -0.2395 -0.3408
  154MOL0     H21205   2.564   5.483   7.315 -2.6125  0.0736  2.3953
  154MOL0     H21206   2.696   5.598   7.137  0.0229 -0.2769  0.5629
  154MOL0     H21207   2.743   5.714   7.264 -0.6029  0.5665  0.7503
  154MOL0     H21208   2.837   5.508   7.394  1.1039  0.8882  0.0954
  154MOL0     H21209   2.816   5.419   7.243 -1.1075  0.2781  0.4154
  154MOL0     H21210   3.127   5.709   7.162 -0.3233  0.8319 -0.1190
  154MOL0     H21211   3.492   5.682   7.211  1.3081  1.2453 -2.2841
  154MOL0     H21212   3.360   5.768   7.150 -1.5657 -1.2180 -3.7956
  154MOL0     H21213   3.408   5.626   7.060  0.6329  2.8648 -1.6581
  154MOL0     H21214   3.738   5.478   7.108 -0.2633  0.7297  0.1266
  154MOL0     H21215   3.981   5.382   7.140 -0.5649 -2.1961  0.3479
  154MOL0     H21216   4.127   5.344   7.535  1.1771  1.2288 -1.5528
  154MOL0     H21217   4.078   5.174   7.497  1.1781 -2.1864 -3.1835
  154MOL0     H21218   4.282   5.114   7.402  3.3691  1.8344 -2.7682
  154MOL0     H21219   4.331   5.283   7.389 -0.1147  0.6402  0.9400
  154MOL0     H21220   4.386   5.305   7.609  2.2980 -0.9806  1.6239
  154MOL0     H21221   4.471   5.167   7.545 -2.3556 -2.3501 -3.2058
  154MOL0     H21222   4.210   5.162   7.718  0.7353  0.0915  0.6918
  154MOL0     H21223   4.373   5.144   7.783 -1.8430 -2.2363  2.6117
  154MOL0     H21224   4.228   4.958   7.584  0.9930  0.1729 -0.7223
  154MOL0     H21225   4.404   4.948   7.613  0.5503 -1.5076  0.8076
  154MOL0     H21226   4.189   4.926   7.832 -0.9733 -3.7055 -0.2028
  154MOL0     H21227   4.364   4.903   7.863 -1.3248  1.3107  2.5597
  154MOL0     H21228   4.276   4.682   7.872 -0.6496 -2.0593 -0.2944
  154MOL0     H21229   4.365   4.716   7.718  0.6921  3.1318  0.5055
  154MOL0     H21230   4.175   4.727   7.597 -1.0183  0.9521 -0.4561
  154MOL0     H21231   4.065   4.723   7.740 -0.0809 -1.7819  1.6598
  154MOL0     H21232   3.877   5.264   7.536 -2.6240  3.3328  2.8779
  154MOL0     H21233   3.657   5.343   7.506 -1.2590  0.6615 -0.8460
  154MOL0     H21234   3.242   5.287   7.396  3.0480  1.3712  0.5559
  154MOL0     H21235   3.003   5.343   7.337  0.5473 -0.6781  3.1817
  154MOL0     H21236   1.888   5.947   5.974  1.8391 -2.1682 -0.7320
  154MOL0     H21237   1.824   5.900   5.743 -0.8571 -0.6830 -1.6868
  154MOL0     H21238   1.547   5.903   5.381  0.7466  0.7944  0.8076
  154MOL0     H21239   1.517   5.824   5.131 -0.3733  1.1407  1.4645
  154MOL0     H21240   1.699   5.431   5.096  0.2344  1.7765  2.3087
  154MOL0     H21241   1.598   5.419   4.944  0.4493 -0.4197 -0.1728
  154MOL0     H21242   1.830   5.512   4.924  1.0818  1.7261  0.5095
  154MOL0     H21243   1.762   5.652   5.007  3.1585  1.1409 -3.1697
  154MOL0     H21244   1.661   5.527   4.745  0.5143 -0.9210  0.8039
  154MOL0     H21245   1.561   5.649   4.823  0.8005  2.3810  0.6398
  154MOL0     H21246   1.685   5.826   4.768 -3.1024 -1.8842  1.3968
  154MOL0     H21247   1.679   5.734   4.619  1.5202  0.2649 -1.1287
  154MOL0     H21248   2.095   5.771   4.691 -0.5256  2.9039  3.3735
  154MOL0     H21249   1.587   5.421   5.274 -3.1368 -0.7891 -0.9535
  154MOL0     H21250   1.593   5.348   5.507 -1.1831  0.6637 -0.3895
  154MOL0     H21251   1.719   5.448   5.567 -0.1694 -1.7765 -0.8853
  154MOL0     H21252   1.547   5.483   5.612 -1.5501  2.6329 -2.6301
  155MOL0     O21253   4.531   2.581   7.023  0.0799  0.2119 -0.3223
  155MOL0     C21254   4.545   2.669   7.109 -1.3240 -0.2551  0.0030
  155MOL0     O21255   4.439   2.730   7.182 -0.4193 -0.1765  0.2582
  155MOL0     C21256   4.313   2.706   7.138 -0.5378 -0.7748 -0.2513
  155MOL0     C21257   4.256   2.738   7.013  0.4547 -0.3092  0.0618
  155MOL0     C21258   4.125   2.696   6.995  0.5520 -0.1366 -0.1715
  155MOL0     C21259   4.056   2.615   7.079  0.0454  0.0008  0.0780
  155MOL0     O21260   3.927   2.594   7.038  0.4537 -0.2158 -0.4300
  155MOL0     C21261   3.881   2.463   7.038  0.3996  0.0238  0.0689
  155MOL0     C21262   3.876   2.426   6.892  0.2994 -0.0473  0.2026
  155MOL0     C21263   3.811   2.521   6.786  0.4647  0.3083 -0.1703
  155MOL0     C21264   3.659   2.537   6.808 -0.5823  0.2760 -0.0102
  155MOL0     C21265   3.597   2.641   6.713  1.4986  0.3913 -0.0845
  155MOL0     C21266   3.448   2.694   6.736 -0.6370  0.1497 -0.1116
  155MOL0     C21267   3.353   2.576   6.775  0.7401  0.4072 -0.1171
  155MOL0     C21268   3.202   2.610   6.761  0.0234 -1.0950 -0.8097
  155MOL0     N21269   3.145   2.695   6.870 -0.2897  0.0115 -0.1553
  155MOL0     C21270   3.144   2.681   7.004  0.7272  0.5442 -0.7060
  155MOL0     C21271   3.092   2.793   7.062 -0.5664  0.0871  0.5769
  155MOL0     C21272   3.085   2.845   7.204 -0.1399  0.5424 -0.8825
  155MOL0     C21273   2.972   2.762   7.285 -0.2082 -1.1154  0.8265
  155MOL0     C21274   2.915   2.854   7.398 -0.0622  0.1950 -0.1470
  155MOL0     C21275   3.016   2.877   7.515  0.0235 -0.2065  0.2331
  155MOL0     O21276   2.978   3.003   7.569 -0.6006  0.0200 -0.9805
  155MOL0     C21277   3.029   3.059   7.683 -0.6150 -0.9355 -0.0415
  155MOL0     C21278   2.958   3.155   7.755  0.0640 -0.5427  0.0019
  155MOL0     C21279   3.011   3.213   7.874  0.3942  0.5698 -0.5437
  155MOL0     C21280   2.910   3.306   7.945 -0.4310  0.0682 -0.5545
  155MOL0     C21281   3.136   3.173   7.910  0.1634 -0.1165 -0.3096
  155MOL0     C21282   3.198   3.219   8.043 -0.0671  0.5492  0.7936
  155MOL0     O21283   3.338   3.223   8.040 -0.4415 -0.1601 -0.2046
  155MOL0     C21284   3.403   3.233   8.161 -0.5130 -0.4508  0.3717
  155MOL0     C21285   3.389   3.340   8.255  0.1028 -0.2001 -0.7617
  155MOL0     C21286   3.468   3.340   8.369 -0.0671 -0.5034  0.4906
  155MOL0     C21287   3.572   3.256   8.379 -1.0299 -0.0416  0.4098
  155MOL0     O21288   3.643   3.271   8.494 -0.3223  0.7845 -0.0133
  155MOL0     C21289   3.749   3.183   8.515 -1.0799 -1.1703 -0.9102
  155MOL0     C21290   3.821   3.233   8.643  0.6547  0.1759 -0.3391
  155MOL0     C21291   3.743   3.195   8.772  0.3216 -1.2932  1.5314
  155MOL0     C21292   3.825   3.238   8.895 -0.1324  0.7531 -0.5905
  155MOL0     C21293   3.756   3.198   9.028  0.0541  0.1480  0.5433
  155MOL0     C21294   3.615   3.244   9.063 -0.1124  0.9604 -0.8816
  155MOL0     C21295   3.581   3.245   9.218 -0.5954  0.9091 -0.8368
  155MOL0     C21296   3.551   3.107   9.272 -0.8036  0.4347 -0.4691
  155MOL0    Cl21297   3.696   3.000   9.316  0.0122  0.2443  0.5179
  155MOL0     C21298   3.587   3.151   8.286  0.5501 -0.6895  0.3249
  155MOL0     C21299   3.500   3.140   8.182 -0.5788  0.5036  0.9276
  155MOL0     O21300   3.124   3.252   8.134  0.0268 -0.3939  0.4086
  155MOL0     C21301   3.220   3.096   7.821 -0.3807 -0.4359 -0.1878
  155MOL0     C21302   3.162   3.036   7.713 -0.5205 -0.2363  0.2943
  155MOL0     N21303   3.050   2.869   6.958 -0.0403  0.4118 -0.1822
  155MOL0     N21304   3.081   2.811   6.848  0.7186  0.4155 -0.0785
  155MOL0     C21305   4.116   2.579   7.199  0.2880  0.0651 -0.6092
  155MOL0     C21306   4.245   2.616   7.224 -0.1652 -0.0200 -0.5864
  155MOL0     C21307   4.682   2.702   7.143  0.1987  0.8144 -0.1093
  155MOL0     C21308   4.715   2.703   7.281 -1.0969  0.3514 -0.3143
  155MOL0     C21309   4.852   2.721   7.306  0.2913  0.5525  0.2304
  155MOL0     C21310   4.950   2.749   7.211  0.6692  0.0615 -1.2544
  155MOL0     O21311   5.082   2.757   7.251  0.2074  0.6325 -1.0449
  155MOL0     C21312   5.124   2.776   7.386 -0.6150  0.1566  0.7315
  155MOL0     C21313   5.273   2.809   7.381  0.2701 -0.3333  0.1250
  155MOL0     C21314   5.352   2.775   7.510 -0.1002 -0.4480 -0.2149
  155MOL0     C21315   5.301   2.859   7.637 -0.4262  0.0118  0.9465
  155MOL0     C21316   5.383   2.978   7.654 -0.1425  0.7198 -1.4045
  155MOL0     C21317   5.434   3.089   7.661 -0.1425 -0.5687  0.1340
  155MOL0     C21318   4.921   2.731   7.076  0.9655 -0.2812 -0.7652
  155MOL0     C21319   4.783   2.725   7.036 -0.2147  0.0347 -0.6520
  155MOL0     C21320   4.750   2.725   6.885  0.1445  0.4426 -0.8846
  155MOL0     H21321   4.312   2.793   6.939  0.4521 -2.3583 -1.5598
  155MOL0     H21322   4.066   2.719   6.907  4.0945  2.1645 -2.1850
  155MOL0     H21323   3.779   2.475   7.075  0.5461  1.0149  0.1801
  155MOL0     H21324   3.939   2.399   7.106 -2.7965 -1.8931  1.1895
  155MOL0     H21325   3.982   2.415   6.866  0.6284  2.3759  0.2579
  155MOL0     H21326   3.827   2.331   6.870 -2.5167  1.8490 -2.4647
  155MOL0     H21327   3.858   2.620   6.784 -0.6380  0.8293 -0.6792
  155MOL0     H21328   3.820   2.483   6.684  0.6332  2.0346 -0.8216
  155MOL0     H21329   3.597   2.451   6.783 -2.6709  1.6562  0.1689
  155MOL0     H21330   3.644   2.571   6.911 -1.0858  1.5250 -0.4705
  155MOL0     H21331   3.597   2.602   6.610  1.8287  3.2134 -1.2625
  155MOL0     H21332   3.669   2.724   6.715  2.5588 -0.5244  2.1618
  155MOL0     H21333   3.450   2.764   6.820  2.2024 -0.3795  0.3633
  155MOL0     H21334   3.418   2.756   6.651  0.7051  0.6458 -0.2569
  155MOL0     H21335   3.378   2.549   6.878  1.8327  1.1086 -0.1856
  155MOL0     H21336   3.369   2.479   6.727  1.7739 -0.0031  1.0075
  155MOL0     H21337   3.181   2.629   6.656 -1.1597  0.0634 -0.3975
  155MOL0     H21338   3.139   2.520   6.760 -0.7842 -0.7794  3.1104
  155MOL0     H21339   3.187   2.595   7.054 -0.6874  0.0744 -0.2475
  155MOL0     H21340   3.048   2.948   7.210  2.1131  1.3414  0.8049
  155MOL0     H21341   3.187   2.853   7.245  0.1553  4.0590 -1.9611
  155MOL0     H21342   2.883   2.751   7.223 -1.3435  2.5181  1.6225
  155MOL0     H21343   3.011   2.667   7.325  1.0566 -1.4764 -1.0993
  155MOL0     H21344   2.888   2.949   7.352 -1.4332  1.0744  2.2693
  155MOL0     H21345   2.822   2.812   7.439 -0.1047  0.4659  0.0353
  155MOL0     H21346   2.984   2.809   7.593  0.4073  2.7239  3.1619
  155MOL0     H21347   3.121   2.869   7.484 -0.4786 -3.6914 -0.9628
  155MOL0     H21348   2.859   3.168   7.713 -0.5791 -0.0707  1.6057
  155MOL0     H21349   2.945   3.409   7.940  0.7042 -0.3537 -1.9227
  155MOL0     H21350   2.905   3.276   8.051 -1.7858 -1.2639 -0.9482
  155MOL0     H21351   2.812   3.313   7.896 -2.0023  1.4611  2.4785
  155MOL0     H21352   3.306   3.409   8.238 -1.9542 -2.1272  0.7650
  155MOL0     H21353   3.454   3.401   8.458  1.2328 -0.1092  0.4478
  155MOL0     H21354   3.728   3.079   8.538  0.7446 -1.5353 -0.7372
  155MOL0     H21355   3.822   3.183   8.433 -1.5540  0.4790 -1.3760
  155MOL0     H21356   3.909   3.171   8.655 -0.6864 -1.3084  2.9500
  155MOL0     H21357   3.854   3.337   8.634 -0.4029  0.5027 -0.6802
  155MOL0     H21358   3.725   3.088   8.781  1.2641 -1.3676  2.8009
  155MOL0     H21359   3.650   3.253   8.777 -0.3800 -2.4865  3.3429
  155MOL0     H21360   3.848   3.345   8.899  1.3547  0.4280  0.9060
  155MOL0     H21361   3.917   3.179   8.890 -1.0516 -0.6093 -3.2313
  155MOL0     H21362   3.740   3.090   9.025 -3.0589  0.5103 -0.4210
  155MOL0     H21363   3.828   3.221   9.106 -0.6590 -1.3203  1.6947
  155MOL0     H21364   3.539   3.186   9.009  1.7514 -0.6927 -1.8503
  155MOL0     H21365   3.595   3.348   9.035 -1.3821  1.3040  1.0942
  155MOL0     H21366   3.493   3.300   9.253 -0.8356 -0.7764  1.3951
  155MOL0     H21367   3.670   3.277   9.273 -2.7106 -1.6197  4.8392
  155MOL0     H21368   3.481   3.055   9.206 -2.1942  2.1929 -0.4728
  155MOL0     H21369   3.501   3.121   9.369 -1.5504 -2.3800 -0.3521
  155MOL0     H21370   3.664   3.080   8.313  0.1976 -1.3061 -0.2656
  155MOL0     H21371   3.499   3.051   8.119 -2.5891  0.9035  0.3253
  155MOL0     H21372   3.325   3.081   7.842 -1.0229  0.6157  5.1146
  155MOL0     H21373   3.225   2.976   7.648 -0.4861  0.8989 -0.7534
  155MOL0     H21374   4.057   2.537   7.279  0.6534 -1.3200 -1.0377
  155MOL0     H21375   4.282   2.590   7.323 -0.8573  1.7841  0.2023
  155MOL0     H21376   4.642   2.692   7.360 -0.5919 -4.8446 -0.2289
  155MOL0     H21377   4.881   2.706   7.410 -1.2939  1.4760  0.8407
  155MOL0     H21378   5.077   2.859   7.438  1.1758  0.1973  2.3713
  155MOL0     H21379   5.108   2.678   7.433  3.4661 -2.0186 -1.7892
  155MOL0     H21380   5.291   2.914   7.354  0.2840 -0.1977  0.6390
  155MOL0     H21381   5.327   2.754   7.304 -0.4697  0.3855 -0.9355
  155MOL0     H21382   5.354   2.673   7.548 -3.5632  0.1079  1.9791
  155MOL0     H21383   5.456   2.801   7.490  0.1388 -1.6266 -0.6049
  155MOL0     H21384   5.314   2.798   7.726 -0.2473 -0.8979  0.3075
  155MOL0     H21385   5.196   2.887   7.620  0.7635  3.6868 -2.0379
  155MOL0     H21386   5.472   3.189   7.651 -3.3731  0.8725  1.1020
  155MOL0     H21387   4.995   2.720   6.997  1.6984 -1.2316  0.0339
  155MOL0     H21388   4.769   2.624   6.846  0.3080 -0.9870  2.5134
  155MOL0     H21389   4.646   2.749   6.863 -0.3307 -0.2114  0.5496
  155MOL0     H21390   4.824   2.793   6.841  1.2207  1.5591  2.3928
  156MOL0     O21391   7.846   8.762  10.391  0.1377 -0.4487  0.3626
  156MOL0     C21392   7.762   8.669  10.403  0.4941 -0.7119 -0.0200
  156MOL0     O21393   7.757   8.588  10.510  0.0491  0.3523 -0.1489
  156MOL0     C21394   7.828   8.624  10.622  0.3652  0.5772  0.2641
  156MOL0     C21395   7.959   8.596  10.633 -0.5184  0.3777  0.7856
  156MOL0     C21396   8.029   8.616  10.751  0.6247  1.1142  0.5861
  156MOL0     C21397   7.973   8.674  10.866 -0.2662  0.1508  0.6480
  156MOL0     O21398   8.038   8.688  10.982 -0.4535  0.0279  0.1453
  156MOL0     C21399   8.140   8.598  11.029 -0.6976  0.0344  0.0471
  156MOL0     C21400   8.177   8.654  11.165 -0.1641  0.5376 -0.5116
  156MOL0     C21401   8.312   8.602  11.227  0.5612 -0.4701  0.2863
  156MOL0     C21402   8.321   8.637  11.376 -0.8632  0.2634  0.3775
  156MOL0     C21403   8.462   8.631  11.426  1.0016  0.5301 -0.3277
  156MOL0     C21404   8.472   8.640  11.578  1.0949 -0.0533  0.1309
  156MOL0     C21405   8.606   8.671  11.627  0.6973  0.8649  0.3282
  156MOL0     C21406   8.617   8.663  11.774 -1.3033 -0.2837  0.6475
  156MOL0     N21407   8.749   8.727  11.808  0.1264 -0.8083 -0.1599
  156MOL0     C21408   8.763   8.860  11.797  0.2013 -0.2173 -0.7953
  156MOL0     C21409   8.883   8.885  11.840  0.2027  0.4960 -0.8328
  156MOL0     C21410   8.950   9.014  11.833 -0.7059  0.4706 -0.0892
  156MOL0     C21411   8.980   9.052  11.691 -0.0051  1.1734  0.4399
  156MOL0     C21412   9.020   9.191  11.667 -0.2612  0.3601 -0.5215
  156MOL0     C21413   9.149   9.236  11.733 -0.9451  0.1979 -0.2187
  156MOL0     O21414   9.269   9.152  11.725  0.3176 -0.4773  0.2500
  156MOL0     C21415   9.395   9.205  11.728 -0.6054 -0.5891  0.4517
  156MOL0     C21416   9.432   9.341  11.714  0.1596 -0.2233 -0.3669
  156MOL0     C21417   9.568   9.377  11.701  0.0776 -0.2530  0.3104
  156MOL0     C21418   9.585   9.527  11.664  0.7884 -0.0181  0.8810
  156MOL0     C21419   9.675   9.279  11.698 -0.6215 -0.6692  0.1414
  156MOL0     C21420   9.824   9.301  11.673  1.3782 -0.7249 -0.6211
  156MOL0     O21421   9.861   9.403  11.593  0.2173 -0.5882 -0.7495
  156MOL0     C21422   9.988   9.447  11.572 -0.1434  1.3168  0.0865
  156MOL0     C21423  10.103   9.423  11.642  0.3499 -0.3957 -0.0076
  156MOL0     C21424  10.217   9.482  11.603 -1.0649 -0.0626  0.6204
  156MOL0     C21425  10.227   9.558  11.484 -0.6384 -0.0250 -0.2287
  156MOL0     O21426  10.343   9.618  11.466 -0.4180  0.0417 -0.2276
  156MOL0     C21427  10.379   9.639  11.331 -0.2913 -0.2883  0.0927
  156MOL0     C21428  10.519   9.697  11.337 -1.4014  0.0347 -0.4454
  156MOL0     C21429  10.595   9.706  11.197  0.3562  0.3388  0.4036
  156MOL0     C21430  10.744   9.743  11.207  0.5951 -0.3228  0.0978
  156MOL0     C21431  10.782   9.876  11.283 -0.3566 -0.1126  0.4002
  156MOL0     C21432  10.936   9.893  11.267  0.0908 -0.8303  0.1779
  156MOL0     C21433  10.965  10.032  11.329  0.0217 -0.1666  0.5143
  156MOL0     C21434  11.120  10.058  11.329 -0.4266 -0.8266 -0.1894
  156MOL0    Cl21435  11.157  10.226  11.358  0.0169 -0.1313 -0.5164
  156MOL0     C21436  10.111   9.578  11.412 -0.9259  0.0709  0.0798
  156MOL0     C21437   9.990   9.525  11.456 -0.2816 -0.1620 -0.4604
  156MOL0     O21438   9.905   9.230  11.726  0.2115  0.2742  0.1349
  156MOL0     C21439   9.634   9.145  11.718 -0.5098 -0.3436 -0.2594
  156MOL0     C21440   9.501   9.113  11.739  0.1856  0.0311  0.1323
  156MOL0     N21441   8.952   8.765  11.878 -0.1019  0.4371  0.0155
  156MOL0     N21442   8.865   8.672  11.847  0.3946 -0.1034 -0.1587
  156MOL0     C21443   7.841   8.694  10.855  0.0654  0.1275  0.1388
  156MOL0     C21444   7.766   8.662  10.734  0.2712 -0.7559 -1.0616
  156MOL0     C21445   7.664   8.665  10.295  0.2018 -0.1932 -0.1701
  156MOL0     C21446   7.613   8.783  10.230 -0.1319 -0.7926 -0.6982
  156MOL0     C21447   7.513   8.772  10.137 -0.5497  0.1343 -0.9462
  156MOL0     C21448   7.462   8.643  10.102 -0.3491  0.1106 -0.5024
  156MOL0     O21449   7.355   8.609  10.022 -0.6081  0.3109 -0.4277
  156MOL0     C21450   7.304   8.732   9.958 -0.7029 -0.6769 -0.3733
  156MOL0     C21451   7.190   8.729   9.855 -0.7453  0.1365 -0.3599
  156MOL0     C21452   7.051   8.671   9.899  0.5083  0.4377 -0.1501
  156MOL0     C21453   6.987   8.748  10.016  0.1775  0.0331  0.5276
  156MOL0     C21454   7.040   8.733  10.154  0.3856 -0.2385  0.7249
  156MOL0     C21455   7.095   8.729  10.262  0.0490  0.2670 -0.3160
  156MOL0     C21456   7.513   8.525  10.162 -0.4636  0.7782  0.0059
  156MOL0     C21457   7.613   8.534  10.255 -0.5596 -0.3385 -0.1761
  156MOL0     C21458   7.666   8.402  10.308 -0.3585 -0.9077 -0.7208
  156MOL0     H21459   8.024   8.557  10.555  0.8566  2.9082  0.5317
  156MOL0     H21460   8.134   8.588  10.756 -0.5664 -4.1092  2.1500
  156MOL0     H21461   8.231   8.594  10.969 -1.1106  0.3256 -0.6052
  156MOL0     H21462   8.094   8.498  11.035 -1.0880  0.2220  0.2262
  156MOL0     H21463   8.183   8.763  11.155  0.2874  0.4832 -0.8556
  156MOL0     H21464   8.098   8.639  11.240 -0.2431 -2.0479 -1.0252
  156MOL0     H21465   8.324   8.494  11.226  1.4895 -0.3952 -1.5614
  156MOL0     H21466   8.404   8.630  11.175  0.9377 -1.3651  0.4734
  156MOL0     H21467   8.287   8.741  11.375  0.4328  0.7887 -2.9459
  156MOL0     H21468   8.251   8.569  11.426 -0.4713 -0.6443 -0.2762
  156MOL0     H21469   8.518   8.712  11.377 -0.0233  1.4697  0.0207
  156MOL0     H21470   8.520   8.542  11.400 -1.2153 -1.5434  1.4233
  156MOL0     H21471   8.403   8.720  11.603  1.1492  0.5391 -1.5162
  156MOL0     H21472   8.434   8.547  11.621  0.9746  0.2185  0.6096
  156MOL0     H21473   8.633   8.770  11.591  0.6639  0.2503 -1.4927
  156MOL0     H21474   8.679   8.603  11.583  0.4830  0.4217  0.6504
  156MOL0     H21475   8.537   8.716  11.826 -0.5596  2.4586 -0.8246
  156MOL0     H21476   8.613   8.559  11.810  0.0993 -0.8006 -0.5822
  156MOL0     H21477   8.680   8.927  11.778 -0.6418 -1.5352 -1.8857
  156MOL0     H21478   9.039   9.019  11.897  0.3515 -1.1179 -1.3716
  156MOL0     H21479   8.869   9.077  11.873 -1.7471 -1.4980  1.0568
  156MOL0     H21480   9.072   8.995  11.673  0.1684  0.1311  3.8844
  156MOL0     H21481   8.899   9.020  11.625 -0.3804  1.0922  0.9292
  156MOL0     H21482   9.041   9.202  11.561 -0.4318 -1.5521 -0.7800
  156MOL0     H21483   8.951   9.272  11.695  2.6104  2.2765  1.5630
  156MOL0     H21484   9.171   9.339  11.702 -2.8840  0.1551 -1.9288
  156MOL0     H21485   9.139   9.244  11.841  0.2543 -0.5100 -0.0334
  156MOL0     H21486   9.359   9.419  11.731  0.3874  0.3643 -1.9138
  156MOL0     H21487   9.486   9.572  11.655  1.5809  1.9935  1.6542
  156MOL0     H21488   9.639   9.531  11.569  0.5886 -0.6768  0.7319
  156MOL0     H21489   9.636   9.574  11.748  3.9666  1.4680 -1.6707
  156MOL0     H21490  10.108   9.360  11.731  4.7644  0.7344  0.7811
  156MOL0     H21491  10.311   9.470  11.657 -0.6651  2.4421  0.6035
  156MOL0     H21492  10.393   9.544  11.278 -1.7318 -1.3417  1.5055
  156MOL0     H21493  10.308   9.702  11.276 -1.6212 -0.8601  1.0946
  156MOL0     H21494  10.519   9.798  11.380  0.1981 -0.2057  0.1716
  156MOL0     H21495  10.581   9.630  11.397  1.4040  1.9155 -1.0412
  156MOL0     H21496  10.544   9.773  11.128  0.9277 -0.1195 -0.4870
  156MOL0     H21497  10.583   9.607  11.152  0.0050  0.1673  0.8662
  156MOL0     H21498  10.784   9.724  11.107  0.1113 -1.9071  0.1864
  156MOL0     H21499  10.785   9.666  11.273  0.8247  1.3901  2.0578
  156MOL0     H21500  10.721   9.954  11.237  0.9920  0.4485 -0.4927
  156MOL0     H21501  10.755   9.866  11.388 -0.4155 -2.4493  0.2256
  156MOL0     H21502  10.963   9.896  11.161  0.5994 -0.8313  0.3016
  156MOL0     H21503  10.992   9.815  11.321  2.2498  1.5506  1.5791
  156MOL0     H21504  10.932  10.028  11.433  0.9046 -0.5719  0.7923
  156MOL0     H21505  10.907  10.102  11.268 -0.1097 -0.9737 -0.3147
  156MOL0     H21506  11.159  10.038  11.229 -0.9805 -0.5170 -0.4669
  156MOL0     H21507  11.185   9.993  11.389 -0.7647  0.8415  2.1280
  156MOL0     H21508  10.106   9.642  11.325 -3.5263  1.2335  0.9964
  156MOL0     H21509   9.908   9.543  11.387 -2.2869 -1.5668  1.4391
  156MOL0     H21510   9.704   9.062  11.720 -1.8177 -1.5332 -1.2591
  156MOL0     H21511   9.472   9.008  11.743 -0.5099  0.2656  1.9151
  156MOL0     H21512   7.778   8.732  10.935  0.4868 -0.8151  0.9373
  156MOL0     H21513   7.662   8.693  10.729 -0.1870 -1.7869  0.9166
  156MOL0     H21514   7.651   8.882  10.253  0.2949 -0.4694 -2.5806
  156MOL0     H21515   7.477   8.871  10.109  3.4706  2.3638  0.7389
  156MOL0     H21516   7.273   8.802  10.035  2.2314  4.0256 -2.9589
  156MOL0     H21517   7.393   8.763   9.901 -0.6928 -2.6907 -1.5799
  156MOL0     H21518   7.219   8.672   9.767 -1.7043 -0.0470 -0.5755
  156MOL0     H21519   7.176   8.832   9.821 -0.2259 -0.2009 -1.6570
  156MOL0     H21520   6.992   8.676   9.808 -0.0911  1.2664  0.2730
  156MOL0     H21521   7.057   8.565   9.927  2.3008  0.2469 -1.0730
  156MOL0     H21522   6.883   8.713  10.020  0.4623 -0.8219  0.8594
  156MOL0     H21523   6.995   8.853   9.987  2.1972 -0.8711 -2.6373
  156MOL0     H21524   7.148   8.714  10.354  1.9051  3.3387 -0.7163
  156MOL0     H21525   7.478   8.430  10.122 -0.4921  1.4733 -1.7103
  156MOL0     H21526   7.774   8.403  10.326 -0.8266 -0.4702  2.5680
  156MOL0     H21527   7.616   8.378  10.402  0.4977 -0.3710 -0.1154
  156MOL0     H21528   7.649   8.325  10.232  0.6871 -0.1782 -1.7460
  157MOL0     O21529   3.065   4.800   6.776 -0.2765 -0.2654  0.6007
  157MOL0     C21530   3.102   4.734   6.679  0.0430  0.4095  0.5962
  157MOL0     O21531   3.028   4.715   6.564 -1.0015 -0.2550  0.2360
  157MOL0     C21532   2.922   4.800   6.546  0.5729 -0.0056  0.9985
  157MOL0     C21533   2.808   4.743   6.494 -0.9495  0.2102 -0.9355
  157MOL0     C21534   2.693   4.828   6.502  0.3126 -0.5099  0.2306
  157MOL0     C21535   2.698   4.964   6.537  0.0885 -0.7794  0.2889
  157MOL0     O21536   2.588   5.047   6.550  0.6421  0.5259  0.1260
  157MOL0     C21537   2.471   4.976   6.592  0.6063 -0.0393 -0.0972
  157MOL0     C21538   2.353   5.061   6.646  0.3716  0.6101  0.6628
  157MOL0     C21539   2.229   4.978   6.692  0.5298  0.0112 -0.3990
  157MOL0     C21540   2.141   5.065   6.781  0.7900 -0.4552  0.1670
  157MOL0     C21541   2.010   4.987   6.786 -0.7313 -0.8926  0.1149
  157MOL0     C21542   1.902   5.036   6.890 -0.3381  0.4427  0.6791
  157MOL0     C21543   1.773   4.958   6.876  0.2251  1.4140 -0.9360
  157MOL0     C21544   1.666   5.007   6.962  0.1409  0.0528  0.3564
  157MOL0     N21545   1.604   5.133   6.922  0.5597  0.0313 -0.8101
  157MOL0     C21546   1.638   5.255   6.960  0.5006  0.5031 -0.2086
  157MOL0     C21547   1.558   5.344   6.894 -1.0689  0.9287 -1.2704
  157MOL0     C21548   1.560   5.494   6.904 -0.3030  0.3917 -1.0450
  157MOL0     C21549   1.442   5.546   7.002 -0.5520 -0.1319 -0.2378
  157MOL0     C21550   1.453   5.476   7.134 -0.6216 -0.2920 -0.2188
  157MOL0     C21551   1.345   5.520   7.239 -0.4599  0.8581 -0.1323
  157MOL0     O21552   1.324   5.662   7.235  0.5159  0.2012  0.9620
  157MOL0     C21553   1.383   5.749   7.316 -0.6667 -0.5509  0.3139
  157MOL0     C21554   1.498   5.719   7.400  1.3068  0.4460 -0.0930
  157MOL0     C21555   1.553   5.821   7.483 -1.2270  0.5331 -0.4588
  157MOL0     C21556   1.683   5.796   7.553  0.2435  1.3483  0.2039
  157MOL0     C21557   1.499   5.950   7.471 -0.0120  0.7657 -0.1593
  157MOL0     C21558   1.546   6.080   7.544  0.2273  0.0888  0.2058
  157MOL0     O21559   1.561   6.071   7.678  0.0981  0.0713  0.0358
  157MOL0     C21560   1.623   6.179   7.742 -0.6239 -0.1608  0.2539
  157MOL0     C21561   1.754   6.155   7.774  0.5911 -0.5045 -0.8280
  157MOL0     C21562   1.825   6.253   7.854 -0.1271  0.5211  0.3282
  157MOL0     C21563   1.766   6.375   7.883  0.9400  0.8959  0.9194
  157MOL0     O21564   1.836   6.480   7.938  0.3441 -0.2915 -0.7903
  157MOL0     C21565   1.955   6.508   7.856  0.0273 -0.6109 -0.2617
  157MOL0     C21566   1.914   6.538   7.702 -0.1322 -0.2740  0.9817
  157MOL0     C21567   2.023   6.612   7.619  0.4693  0.2762  0.4355
  157MOL0     C21568   2.154   6.542   7.640 -0.4480  0.8072  0.1290
  157MOL0     C21569   2.264   6.592   7.546 -0.0258  0.5403 -0.2906
  157MOL0     C21570   2.234   6.566   7.397 -1.5293  0.3504  0.5127
  157MOL0     C21571   2.339   6.607   7.299 -0.6512 -0.5482  0.7962
  157MOL0     C21572   2.482   6.551   7.322  0.3911  0.7076 -0.0703
  157MOL0    Cl21573   2.596   6.635   7.203 -0.1259 -0.0684 -0.5287
  157MOL0     C21574   1.636   6.393   7.845  0.5442  0.6798 -0.5905
  157MOL0     C21575   1.558   6.299   7.775 -0.5669  0.3043 -0.4452
  157MOL0     O21576   1.556   6.186   7.480  0.0570  0.8324  0.3465
  157MOL0     C21577   1.383   5.972   7.397 -0.6615  0.5091  0.4368
  157MOL0     C21578   1.331   5.878   7.313  1.4291 -0.2467 -0.0751
  157MOL0     N21579   1.469   5.267   6.822 -0.9166  0.3852 -0.6575
  157MOL0     N21580   1.502   5.143   6.836  0.0191 -0.4934 -0.3408
  157MOL0     C21581   2.820   5.029   6.558 -1.0241  0.6004  0.6842
  157MOL0     C21582   2.931   4.942   6.561 -0.4354  0.9344  0.0842
  157MOL0     C21583   3.234   4.659   6.694  0.2244  0.5148 -0.6635
  157MOL0     C21584   3.253   4.563   6.592  0.8282 -0.5562  1.0319
  157MOL0     C21585   3.373   4.507   6.572  0.0290  0.0413  0.1386
  157MOL0     C21586   3.474   4.520   6.662 -0.3337  0.0304 -0.2474
  157MOL0     O21587   3.595   4.462   6.640 -0.0320  0.2514 -0.1548
  157MOL0     C21588   3.592   4.327   6.671 -0.4996  0.0291  0.0801
  157MOL0     C21589   3.603   4.295   6.819  0.4640 -0.3085 -0.4115
  157MOL0     C21590   3.739   4.323   6.878 -0.0813 -0.1904 -0.7441
  157MOL0     C21591   3.796   4.462   6.882  0.4881 -0.1489  0.9260
  157MOL0     C21592   3.745   4.533   7.002  0.0472 -0.9987  1.0263
  157MOL0     C21593   3.688   4.607   7.078 -0.8250  0.0981  0.2912
  157MOL0     C21594   3.459   4.615   6.761  0.0505  0.3976  0.7091
  157MOL0     C21595   3.343   4.690   6.777  0.0678  0.5582  0.8877
  157MOL0     C21596   3.344   4.813   6.866  0.7659  0.1136  0.4004
  157MOL0     H21597   2.801   4.636   6.479 -0.1925  0.2663 -1.7586
  157MOL0     H21598   2.591   4.790   6.497 -1.0364  2.7256  0.0725
  157MOL0     H21599   2.497   4.901   6.667 -0.3329 -0.4188 -0.1313
  157MOL0     H21600   2.428   4.933   6.501  0.1410  1.4287 -0.5997
  157MOL0     H21601   2.390   5.128   6.724  1.7393 -0.1211  0.6656
  157MOL0     H21602   2.304   5.122   6.569  0.4652 -0.5360 -0.3348
  157MOL0     H21603   2.180   4.938   6.603  0.0640 -0.3929  0.0349
  157MOL0     H21604   2.262   4.889   6.746  0.4373 -0.3898 -0.9921
  157MOL0     H21605   2.182   5.081   6.881  0.2391  2.0825  0.0552
  157MOL0     H21606   2.121   5.165   6.742  0.4918 -0.1138  1.1612
  157MOL0     H21607   2.034   4.881   6.797 -0.5478 -0.7265  1.5165
  157MOL0     H21608   1.964   4.995   6.687 -1.5521 -0.8816  0.4895
  157MOL0     H21609   1.945   5.023   6.990  0.7036 -2.7489 -0.0816
  157MOL0     H21610   1.886   5.142   6.867 -1.0109 -0.0475 -1.2935
  157MOL0     H21611   1.777   4.852   6.902 -0.6869  1.2811 -1.2816
  157MOL0     H21612   1.734   4.948   6.774 -0.0617 -1.8759 -0.6035
  157MOL0     H21613   1.580   4.940   6.957 -0.8556  1.3460 -2.7689
  157MOL0     H21614   1.696   5.009   7.067 -0.7913 -0.7449  0.6496
  157MOL0     H21615   1.721   5.284   7.023  0.3626  0.0917  0.1759
  157MOL0     H21616   1.535   5.533   6.805 -2.8385  0.3266 -0.5055
  157MOL0     H21617   1.662   5.530   6.923  0.6955 -1.7641 -1.9726
  157MOL0     H21618   1.460   5.653   7.011  2.8603 -0.7541  2.7848
  157MOL0     H21619   1.344   5.516   6.962 -1.1161  3.0387 -1.4588
  157MOL0     H21620   1.449   5.367   7.129  3.0739 -0.6478  1.2658
  157MOL0     H21621   1.548   5.513   7.175 -0.8407 -2.0010  2.0070
  157MOL0     H21622   1.259   5.466   7.198 -0.1955  0.3910 -0.0713
  157MOL0     H21623   1.372   5.474   7.334 -3.7887 -2.0614 -0.3898
  157MOL0     H21624   1.544   5.621   7.389  1.3069  0.1827  1.8820
  157MOL0     H21625   1.657   5.801   7.659 -1.3884  0.3581 -0.1032
  157MOL0     H21626   1.752   5.878   7.532  2.7067 -0.3526  1.2872
  157MOL0     H21627   1.719   5.695   7.531  1.0604  1.8870 -1.0405
  157MOL0     H21628   1.790   6.061   7.735 -0.3954 -0.9018 -0.8232
  157MOL0     H21629   1.927   6.229   7.883 -0.3596 -2.2348 -0.8274
  157MOL0     H21630   1.990   6.605   7.891 -1.6195  0.3333 -1.1348
  157MOL0     H21631   2.035   6.433   7.860  0.7798  0.1045 -1.5300
  157MOL0     H21632   1.871   6.454   7.646 -0.5325  2.5914 -3.5815
  157MOL0     H21633   1.840   6.618   7.706  0.6630  1.7332 -7.1194
  157MOL0     H21634   2.049   6.709   7.664 -0.9045  1.3814 -1.0182
  157MOL0     H21635   1.992   6.609   7.514  0.6491 -1.5477  0.4113
  157MOL0     H21636   2.143   6.436   7.613  0.8309  1.0193 -1.3791
  157MOL0     H21637   2.195   6.561   7.739 -1.4957 -2.0079  1.2221
  157MOL0     H21638   2.252   6.699   7.561 -2.7013  0.5872 -2.1084
  157MOL0     H21639   2.362   6.558   7.582 -1.4560 -2.7702  0.8685
  157MOL0     H21640   2.136   6.604   7.366 -1.7496  0.0439  0.8277
  157MOL0     H21641   2.218   6.459   7.380  1.5297 -0.5984  2.7003
  157MOL0     H21642   2.351   6.715   7.296 -3.1157 -0.2137 -1.4802
  157MOL0     H21643   2.309   6.585   7.196 -1.5690  3.0076  0.1780
  157MOL0     H21644   2.467   6.443   7.312  1.9347  0.4666 -0.0529
  157MOL0     H21645   2.513   6.590   7.419 -2.5361  2.0719  0.4107
  157MOL0     H21646   1.607   6.494   7.872  3.7076  1.9762 -1.5903
  157MOL0     H21647   1.454   6.318   7.752 -1.1814 -0.8156  1.2766
  157MOL0     H21648   1.351   6.076   7.389 -1.6628  0.2256  0.6591
  157MOL0     H21649   1.254   5.892   7.237  1.5421 -3.4142 -0.8979
  157MOL0     H21650   2.826   5.135   6.579  0.2982  0.0837  3.3403
  157MOL0     H21651   3.020   4.993   6.597 -0.9102  0.7768  1.5566
  157MOL0     H21652   3.179   4.523   6.524  1.4320 -1.7770  1.0589
  157MOL0     H21653   3.398   4.438   6.492  0.9159 -0.6883  1.0221
  157MOL0     H21654   3.510   4.271   6.625  0.9197  0.1552 -2.8014
  157MOL0     H21655   3.680   4.277   6.628 -0.0134  1.9320 -1.2333
  157MOL0     H21656   3.580   4.188   6.822 -0.9282 -0.0557  2.5239
  157MOL0     H21657   3.528   4.339   6.886  1.5324 -1.6808  1.8028
  157MOL0     H21658   3.720   4.295   6.982 -2.9078  2.0988 -0.5146
  157MOL0     H21659   3.810   4.259   6.825 -2.0545  0.6337 -4.7949
  157MOL0     H21660   3.778   4.519   6.790  1.1952 -0.5689  0.5235
  157MOL0     H21661   3.903   4.470   6.899  0.8438 -1.4430 -0.4536
  157MOL0     H21662   3.645   4.669   7.155  1.5076  0.4141  1.4316
  157MOL0     H21663   3.541   4.631   6.830  0.1755  0.7191  0.4908
  157MOL0     H21664   3.318   4.895   6.799  1.8345 -1.7360 -2.4929
  157MOL0     H21665   3.275   4.788   6.947 -0.8354 -2.3762 -1.5567
  157MOL0     H21666   3.440   4.829   6.916  0.9671  1.0769 -0.2715
  158MOL0     O21667   0.249   8.106   7.059 -0.5746 -0.5916  0.4375
  158MOL0     C21668   0.216   7.988   7.063  0.5360 -0.4306 -0.1852
  158MOL0     O21669   0.283   7.887   7.016 -0.1932 -0.5490  0.7314
  158MOL0     C21670   0.403   7.920   6.951 -0.4782  0.0176  0.3687
  158MOL0     C21671   0.513   7.960   7.035  1.0758  0.6527 -0.2792
  158MOL0     C21672   0.636   7.975   6.969 -0.7537  1.3431  0.0358
  158MOL0     C21673   0.661   7.964   6.833  0.1085 -0.1461 -0.5962
  158MOL0     O21674   0.795   7.981   6.793 -0.5405 -1.0963  0.1786
  158MOL0     C21675   0.817   7.939   6.656 -0.0041 -0.8019 -0.1835
  158MOL0     C21676   0.963   7.930   6.636 -0.3284  0.1113  0.9255
  158MOL0     C21677   1.013   7.943   6.494 -0.0093 -0.0575 -0.2039
  158MOL0     C21678   1.114   8.058   6.491 -0.1029 -0.1457  0.1428
  158MOL0     C21679   1.219   8.049   6.390  0.2997 -0.3622  0.6764
  158MOL0     C21680   1.342   8.126   6.429 -0.5818 -0.0874 -0.4587
  158MOL0     C21681   1.451   8.116   6.318  0.5812 -0.4679  0.1681
  158MOL0     C21682   1.515   7.983   6.286 -0.5907  0.6759 -0.0605
  158MOL0     N21683   1.637   7.966   6.366  0.0327 -0.0802 -0.0423
  158MOL0     C21684   1.644   7.860   6.459  0.3797 -0.6976 -0.0197
  158MOL0     C21685   1.777   7.858   6.491  0.7085 -0.4856 -0.1287
  158MOL0     C21686   1.830   7.750   6.580  0.9962  0.1417 -0.6557
  158MOL0     C21687   1.978   7.725   6.554  0.3392 -1.1425 -0.2340
  158MOL0     C21688   2.062   7.804   6.666  0.0411 -0.0826  0.5449
  158MOL0     C21689   2.120   7.946   6.630 -0.4529 -0.0300  0.2288
  158MOL0     O21690   2.176   8.007   6.751 -0.1499  0.5045 -0.5495
  158MOL0     C21691   2.282   7.949   6.811  0.3683 -0.7507 -0.3194
  158MOL0     C21692   2.389   7.882   6.742 -0.1771  0.2106  0.0721
  158MOL0     C21693   2.496   7.831   6.826 -0.8103  0.8916 -0.3122
  158MOL0     C21694   2.601   7.742   6.762 -0.0371 -0.0001  0.7046
  158MOL0     C21695   2.485   7.845   6.962 -0.0262 -0.3891 -1.0733
  158MOL0     C21696   2.595   7.788   7.043 -0.1253  0.0608  0.6110
  158MOL0     O21697   2.658   7.874   7.120 -0.0191 -0.4402  0.1293
  158MOL0     C21698   2.772   7.822   7.181  0.2561  0.0072  0.2427
  158MOL0     C21699   2.895   7.842   7.128 -0.1885 -0.1508  0.1062
  158MOL0     C21700   3.020   7.784   7.175 -0.4517 -0.3751 -0.5637
  158MOL0     C21701   3.002   7.705   7.303  0.4725 -0.8424  0.8681
  158MOL0     O21702   3.121   7.665   7.356 -0.1129 -0.5956  0.1884
  158MOL0     C21703   3.125   7.667   7.503  0.2323  0.2292  0.1257
  158MOL0     C21704   3.269   7.632   7.542  0.7984 -0.3435 -0.2214
  158MOL0     C21705   3.287   7.624   7.685  1.0749 -0.9445  0.3258
  158MOL0     C21706   3.431   7.616   7.716 -0.9010  0.5122  0.4083
  158MOL0     C21707   3.444   7.542   7.859  0.8523  0.5005  0.0170
  158MOL0     C21708   3.588   7.537   7.911 -0.6991  0.1912 -0.1403
  158MOL0     C21709   3.608   7.457   8.042  0.7380  0.5408  0.4484
  158MOL0     C21710   3.750   7.423   8.080 -0.9157 -0.8779 -0.2700
  158MOL0    Cl21711   3.795   7.567   8.187 -0.6694  0.5612  0.2346
  158MOL0     C21712   2.875   7.700   7.360 -0.0548 -0.7788  0.2205
  158MOL0     C21713   2.761   7.753   7.299 -0.5422 -0.2966 -0.3114
  158MOL0     O21714   2.611   7.668   7.033  0.5346  0.3392 -0.2084
  158MOL0     C21715   2.379   7.908   7.028 -0.1300  1.3249  0.3303
  158MOL0     C21716   2.286   7.969   6.947 -0.0397  0.6072 -0.7049
  158MOL0     N21717   1.841   7.962   6.427  0.3882 -0.3546  0.4321
  158MOL0     N21718   1.759   8.023   6.349 -1.2016 -0.0849  0.2311
  158MOL0     C21719   0.552   7.915   6.757 -0.0798  0.2056  0.6090
  158MOL0     C21720   0.420   7.890   6.815  0.4297 -0.0698 -0.2086
  158MOL0     C21721   0.086   7.951   7.119 -0.5814  0.2942  0.6086
  158MOL0     C21722   0.007   7.850   7.065  0.6420 -0.5209  0.9695
  158MOL0     C21723  -0.125   7.822   7.103  0.0407 -0.1246 -0.2806
  158MOL0     C21724  -0.180   7.908   7.200  0.2133  0.1452 -0.4621
  158MOL0     O21725  -0.319   7.882   7.216 -0.7460 -0.3265  0.4018
  158MOL0     C21726  -0.404   7.978   7.296  0.3447  0.5914 -0.4035
  158MOL0     C21727  -0.402   7.965   7.445 -0.1398  1.2246  0.6839
  158MOL0     C21728  -0.442   7.823   7.475 -0.5486  1.1683  0.3853
  158MOL0     C21729  -0.546   7.826   7.589 -0.0468 -0.1389 -0.4237
  158MOL0     C21730  -0.548   7.685   7.636  0.0588 -0.5349  0.5589
  158MOL0     C21731  -0.531   7.573   7.682  0.5133 -0.9173  0.6060
  158MOL0     C21732  -0.108   8.015   7.249  0.5971  0.1732 -0.0239
  158MOL0     C21733   0.025   8.037   7.217 -0.5649 -0.7943  0.7187
  158MOL0     C21734   0.086   8.154   7.273  0.3385 -0.1484  0.1182
  158MOL0     H21735   0.506   7.983   7.141  0.1164  1.2318 -0.4586
  158MOL0     H21736   0.719   8.018   7.024  0.3639 -0.4535 -0.1807
  158MOL0     H21737   0.772   8.005   6.582  1.4189  0.5410  0.0934
  158MOL0     H21738   0.758   7.849   6.634  0.1294 -0.1656 -3.7615
  158MOL0     H21739   0.998   8.014   6.698  3.2533 -0.0971 -0.5714
  158MOL0     H21740   0.989   7.833   6.679 -2.2203 -2.9941 -4.0731
  158MOL0     H21741   1.066   7.849   6.474 -4.7014 -3.2569  0.6930
  158MOL0     H21742   0.936   7.944   6.417  1.9953  0.5444 -2.3223
  158MOL0     H21743   1.059   8.152   6.492  1.6210  0.9746 -1.4386
  158MOL0     H21744   1.169   8.054   6.586  2.5962 -1.5329 -1.3455
  158MOL0     H21745   1.171   8.083   6.298 -1.2724 -0.2457  1.5090
  158MOL0     H21746   1.241   7.942   6.377  0.2269 -0.2979 -0.0255
  158MOL0     H21747   1.310   8.228   6.453 -2.5412 -0.7946  0.1297
  158MOL0     H21748   1.379   8.085   6.523 -1.1625  2.6185  1.0379
  158MOL0     H21749   1.525   8.194   6.334 -2.1741  2.7160 -1.4457
  158MOL0     H21750   1.402   8.146   6.225  1.6731  1.9214  0.2928
  158MOL0     H21751   1.448   7.899   6.307  2.1333 -1.2199  1.6746
  158MOL0     H21752   1.533   7.975   6.178 -3.1630  0.8865 -0.5728
  158MOL0     H21753   1.562   7.793   6.483 -0.6563  0.6061  0.2871
  158MOL0     H21754   1.779   7.657   6.554  0.9794 -0.1573  0.3887
  158MOL0     H21755   1.805   7.762   6.686  0.5255  1.6777 -0.9158
  158MOL0     H21756   1.986   7.617   6.560  1.3052 -1.1205 -0.8478
  158MOL0     H21757   2.003   7.765   6.455  0.5706  3.5864  1.4687
  158MOL0     H21758   2.021   7.816   6.767  2.3423  0.7138  1.4465
  158MOL0     H21759   2.156   7.748   6.667  2.0299  3.0060  0.2261
  158MOL0     H21760   2.195   7.938   6.551 -1.3156  1.5897 -0.8246
  158MOL0     H21761   2.040   8.017   6.608 -2.4222 -1.5084  2.1491
  158MOL0     H21762   2.380   7.879   6.634  0.7051  1.2474 -0.0544
  158MOL0     H21763   2.670   7.686   6.826  1.3490  2.2734  1.3332
  158MOL0     H21764   2.667   7.805   6.701 -1.2218  2.4155  1.7536
  158MOL0     H21765   2.538   7.684   6.694 -2.2238  3.5342 -0.5782
  158MOL0     H21766   2.894   7.889   7.030 -0.5242 -2.7565 -1.2330
  158MOL0     H21767   3.119   7.797   7.132  1.4260 -0.7789  3.2007
  158MOL0     H21768   3.085   7.761   7.543  0.8447  0.2303  0.7499
  158MOL0     H21769   3.053   7.592   7.536  1.4727 -0.4977  1.2705
  158MOL0     H21770   3.292   7.532   7.505 -3.3628 -0.8479 -1.9929
  158MOL0     H21771   3.337   7.709   7.503 -0.8657  1.4992  0.3138
  158MOL0     H21772   3.226   7.539   7.716 -2.5899  0.7795 -1.4568
  158MOL0     H21773   3.258   7.717   7.735 -1.5895 -0.7136 -1.4274
  158MOL0     H21774   3.462   7.719   7.736 -0.4242  0.3009  0.7705
  158MOL0     H21775   3.493   7.573   7.637 -1.1629  2.6738 -1.0381
  158MOL0     H21776   3.371   7.589   7.925 -1.5614  2.3167 -3.6028
  158MOL0     H21777   3.407   7.440   7.842  1.5211  0.0080  1.3736
  158MOL0     H21778   3.624   7.639   7.929  2.8383 -1.2492  2.0242
  158MOL0     H21779   3.659   7.495   7.840  2.3416 -0.6898  3.1005
  158MOL0     H21780   3.547   7.366   8.035 -0.1048  1.2066 -3.4502
  158MOL0     H21781   3.558   7.510   8.123  2.4700  3.1874 -0.0728
  158MOL0     H21782   3.803   7.415   7.985 -2.6307 -0.1205 -1.3279
  158MOL0     H21783   3.765   7.338   8.148  0.2616 -0.3453  0.1605
  158MOL0     H21784   2.867   7.640   7.450 -0.1794  0.3571  0.9893
  158MOL0     H21785   2.661   7.740   7.340 -0.1383  2.1409  1.6935
  158MOL0     H21786   2.360   7.914   7.134 -0.8790 -3.3220  0.6618
  158MOL0     H21787   2.199   8.016   6.992 -1.3271 -1.4017 -0.9755
  158MOL0     H21788   0.561   7.888   6.652  2.6113  0.0295  0.8063
  158MOL0     H21789   0.333   7.848   6.765 -1.4145  2.1677  0.8947
  158MOL0     H21790   0.044   7.800   6.976 -2.8950 -0.3105 -0.7496
  158MOL0     H21791  -0.188   7.747   7.057  0.1666 -2.2299  2.7309
  158MOL0     H21792  -0.370   8.077   7.266  0.5764 -0.2119 -2.9997
  158MOL0     H21793  -0.510   7.958   7.275 -1.1085  1.7517  4.3912
  158MOL0     H21794  -0.481   8.028   7.485 -3.3893 -2.3269  0.4518
  158MOL0     H21795  -0.302   7.988   7.484  0.3017  1.8155 -0.7231
  158MOL0     H21796  -0.490   7.775   7.389 -0.7069 -0.2034  1.2053
  158MOL0     H21797  -0.357   7.760   7.501 -0.1225  2.4761  2.3008
  158MOL0     H21798  -0.641   7.873   7.560  0.6682  1.1412 -0.7782
  158MOL0     H21799  -0.514   7.889   7.673 -2.6416  0.3089  0.3118
  158MOL0     H21800  -0.500   7.474   7.709 -1.0759 -1.8438 -0.8013
  158MOL0     H21801  -0.173   8.086   7.300  1.0957 -0.4525  1.5414
  158MOL0     H21802   0.086   8.238   7.202 -2.0487  1.5393  1.9536
  158MOL0     H21803   0.027   8.197   7.354  0.2769  1.1625 -0.5881
  158MOL0     H21804   0.190   8.133   7.300  1.1754 -0.9286 -3.2324
  159MOL0     O21805   6.848   2.335   9.111  0.5281  0.9685 -1.1223
  159MOL0     C21806   6.954   2.374   9.079  0.1277 -1.0045  0.4252
  159MOL0     O21807   7.019   2.482   9.139  0.1286 -0.1330  0.0493
  159MOL0     C21808   6.982   2.529   9.266  0.3920  0.0358  0.0175
  159MOL0     C21809   7.080   2.547   9.354 -0.3511 -0.2418  0.0647
  159MOL0     C21810   7.048   2.611   9.474  0.5442 -0.3457  0.2436
  159MOL0     C21811   6.914   2.640   9.509 -0.7378  0.8681  0.5924
  159MOL0     O21812   6.873   2.701   9.622 -0.8055  0.1588  0.7470
  159MOL0     C21813   6.968   2.786   9.689  0.4009 -0.3805 -0.0752
  159MOL0     C21814   6.906   2.889   9.779  0.3011  0.1131  0.4122
  159MOL0     C21815   6.829   2.827   9.901  0.6052  0.1513  0.2939
  159MOL0     C21816   6.924   2.736   9.984  0.4651 -0.1580  0.2955
  159MOL0     C21817   6.887   2.730  10.127  0.6534 -0.5338  0.0602
  159MOL0     C21818   6.917   2.857  10.213 -0.8827  0.0625  1.1004
  159MOL0     C21819   7.078   2.870  10.231  0.8724  0.2026  0.5209
  159MOL0     C21820   7.105   2.972  10.324  0.0153  0.3509 -0.7673
  159MOL0     N21821   7.244   3.019  10.339 -0.1166 -0.6385  0.1307
  159MOL0     C21822   7.338   2.976  10.430 -0.7869  0.8997 -0.0617
  159MOL0     C21823   7.451   3.059  10.425 -0.5144 -0.7278 -0.0738
  159MOL0     C21824   7.572   3.043  10.517  0.6336 -0.6830 -0.3010
  159MOL0     C21825   7.680   3.137  10.473  0.1558 -0.2863 -0.6287
  159MOL0     C21826   7.804   3.122  10.561 -0.2614  0.6676  0.8714
  159MOL0     C21827   7.926   3.195  10.517 -0.8259 -0.2240  0.1834
  159MOL0     O21828   7.965   3.162  10.381  0.6016  0.4109 -0.1093
  159MOL0     C21829   8.086   3.211  10.329  0.7878  0.4946  0.5091
  159MOL0     C21830   8.183   3.271  10.409 -0.6357 -0.1241  0.6172
  159MOL0     C21831   8.301   3.329  10.357  1.1099  0.3327 -0.5258
  159MOL0     C21832   8.373   3.406  10.454 -0.4531 -0.8770  0.2090
  159MOL0     C21833   8.325   3.321  10.214  1.1107 -0.0111 -0.2881
  159MOL0     C21834   8.454   3.367  10.163 -0.3738  0.3741  0.5951
  159MOL0     O21835   8.452   3.386  10.027  0.4798  0.3635  0.1855
  159MOL0     C21836   8.578   3.428   9.980 -0.3329 -0.8345  0.0454
  159MOL0     C21837   8.675   3.340   9.943  0.6372  0.1830  0.4988
  159MOL0     C21838   8.798   3.384   9.903  0.4202 -0.7732  0.4878
  159MOL0     C21839   8.822   3.525   9.893  0.9514 -0.0697  0.2601
  159MOL0     O21840   8.939   3.588   9.859  0.2779 -0.7130 -0.2234
  159MOL0     C21841   9.047   3.515   9.798  0.1442 -0.5013 -0.3358
  159MOL0     C21842   9.152   3.609   9.732 -0.5191 -0.6735 -0.3138
  159MOL0     C21843   9.136   3.633   9.585  0.2752 -0.2135 -0.6819
  159MOL0     C21844   9.239   3.720   9.528 -0.5505 -0.5722 -0.6806
  159MOL0     C21845   9.194   3.772   9.387 -0.0554 -0.5629  0.4857
  159MOL0     C21846   9.133   3.667   9.302  0.0011 -0.4535  0.5036
  159MOL0     C21847   9.102   3.737   9.165 -0.0568 -0.3351  0.5516
  159MOL0     C21848   9.016   3.646   9.071 -0.4548 -1.2970 -0.1584
  159MOL0    Cl21849   9.105   3.519   8.992  0.4695  0.4049 -0.1984
  159MOL0     C21850   8.724   3.609   9.943 -0.0647 -0.2157 -0.6831
  159MOL0     C21851   8.600   3.564   9.985 -0.7979 -0.1394 -0.3191
  159MOL0     O21852   8.549   3.362  10.239 -0.9510 -0.2227 -0.5344
  159MOL0     C21853   8.229   3.267  10.134  1.1034 -0.1287  0.1141
  159MOL0     C21854   8.105   3.217  10.193 -0.1097  0.0656 -0.8979
  159MOL0     N21855   7.426   3.144  10.325  0.7998  0.0311  0.7969
  159MOL0     N21856   7.307   3.116  10.277  0.0707  0.1034 -0.7345
  159MOL0     C21857   6.818   2.620   9.414 -0.5226  1.6789 -0.4764
  159MOL0     C21858   6.851   2.557   9.295 -0.1526  0.6307  1.2998
  159MOL0     C21859   6.998   2.345   8.934 -0.6168  0.4907  0.1892
  159MOL0     C21860   6.935   2.245   8.865  0.4046  0.8863  0.9643
  159MOL0     C21861   6.966   2.207   8.733  0.1623  0.0291  0.0242
  159MOL0     C21862   7.061   2.275   8.658 -0.1977 -0.3577 -0.5437
  159MOL0     O21863   7.076   2.254   8.526 -0.3448 -0.8861  0.3326
  159MOL0     C21864   7.071   2.387   8.448 -0.4515  0.5039 -0.0914
  159MOL0     C21865   7.078   2.387   8.295  0.1515  0.4941 -0.0802
  159MOL0     C21866   6.964   2.317   8.241 -0.1516  0.3823 -0.0706
  159MOL0     C21867   6.941   2.339   8.097  0.7229  0.9716 -0.6219
  159MOL0     C21868   6.823   2.277   8.028 -0.5470 -0.0439 -0.3465
  159MOL0     C21869   6.730   2.231   7.974 -0.5029 -0.6153 -1.0625
  159MOL0     C21870   7.144   2.369   8.730  0.3766  0.2523 -0.0154
  159MOL0     C21871   7.120   2.402   8.869  0.7717  1.4189  0.0388
  159MOL0     C21872   7.227   2.486   8.934  0.3082 -0.4749  0.1790
  159MOL0     H21873   7.186   2.547   9.330 -0.0289  1.9701  1.1424
  159MOL0     H21874   7.133   2.640   9.534  0.4878  0.7413 -0.1817
  159MOL0     H21875   7.030   2.833   9.612 -1.1320 -1.4539 -2.0722
  159MOL0     H21876   7.026   2.714   9.748  0.1980 -1.1391 -0.7868
  159MOL0     H21877   6.975   2.970   9.804  0.1210  0.7260 -0.9623
  159MOL0     H21878   6.831   2.935   9.713  0.3906 -1.1483 -0.6122
  159MOL0     H21879   6.777   2.907   9.954 -1.9271 -0.1718 -1.5485
  159MOL0     H21880   6.742   2.767   9.873 -0.3018  2.1981 -1.4854
  159MOL0     H21881   6.926   2.631   9.954 -0.9790 -0.2789  0.5127
  159MOL0     H21882   7.019   2.782   9.957 -1.7105  3.1966 -2.6316
  159MOL0     H21883   6.936   2.640  10.164 -0.5578 -0.1606  2.8225
  159MOL0     H21884   6.784   2.696  10.135  0.3923 -1.7480 -5.0259
  159MOL0     H21885   6.881   2.948  10.165 -0.6874 -0.5618 -0.2791
  159MOL0     H21886   6.866   2.836  10.307 -2.2006 -2.7055 -0.1037
  159MOL0     H21887   7.137   2.894  10.143  1.8812 -0.3388  1.0278
  159MOL0     H21888   7.118   2.779  10.278  1.2517  0.5135  0.8047
  159MOL0     H21889   7.050   3.064  10.305 -2.8126 -0.1887  3.3073
  159MOL0     H21890   7.069   2.948  10.425  1.5903  2.7720  0.4667
  159MOL0     H21891   7.321   2.888  10.491 -1.0244 -0.5447 -2.1209
  159MOL0     H21892   7.606   2.939  10.513 -2.2404 -2.0286  3.6982
  159MOL0     H21893   7.524   3.061  10.614 -0.4382 -0.3478 -0.8855
  159MOL0     H21894   7.698   3.121  10.366  0.4457 -3.3441 -0.2217
  159MOL0     H21895   7.639   3.237  10.489 -1.5527 -1.2318  1.4810
  159MOL0     H21896   7.786   3.158  10.662 -1.5502 -1.3506  1.4338
  159MOL0     H21897   7.818   3.013  10.559 -2.5299  0.3172  1.7585
  159MOL0     H21898   7.912   3.302  10.534  0.9718 -0.2667  2.6476
  159MOL0     H21899   8.009   3.178  10.587  0.3150  1.4889 -0.6675
  159MOL0     H21900   8.156   3.287  10.513 -2.2501  0.5091  0.1346
  159MOL0     H21901   8.429   3.334  10.514  0.7720 -0.6057 -0.5890
  159MOL0     H21902   8.302   3.449  10.526  0.4224  0.5896  0.2356
  159MOL0     H21903   8.437   3.485  10.416 -1.7158  0.6240  1.0566
  159MOL0     H21904   8.651   3.234   9.941 -2.8323  0.8590  0.1491
  159MOL0     H21905   8.876   3.310   9.888 -0.8450 -2.5628  2.2758
  159MOL0     H21906   9.099   3.456   9.874  0.1516  0.1321  0.1527
  159MOL0     H21907   9.008   3.449   9.719  1.8151 -0.1579 -1.5226
  159MOL0     H21908   9.155   3.711   9.772 -1.1320 -0.8083  0.0832
  159MOL0     H21909   9.252   3.565   9.736 -0.2647 -0.0112  1.2383
  159MOL0     H21910   9.035   3.671   9.571  0.3457  0.8923  1.4543
  159MOL0     H21911   9.146   3.541   9.526  0.2159 -0.6605 -0.0002
  159MOL0     H21912   9.332   3.664   9.515  1.2571  1.6068  1.7000
  159MOL0     H21913   9.245   3.801   9.602 -2.9556 -1.3718  0.4971
  159MOL0     H21914   9.118   3.850   9.395 -2.5393 -2.5432 -1.9782
  159MOL0     H21915   9.282   3.816   9.340 -0.8850  0.6224 -0.0023
  159MOL0     H21916   9.038   3.641   9.350  0.5538  2.4188  3.4546
  159MOL0     H21917   9.196   3.579   9.288  0.2348  0.0829 -2.6758
  159MOL0     H21918   9.182   3.775   9.101 -2.2700  3.3581 -0.3040
  159MOL0     H21919   9.043   3.823   9.198  0.5180  0.2683  0.0318
  159MOL0     H21920   8.976   3.706   8.988  0.7415  2.5795  1.8220
  159MOL0     H21921   8.936   3.600   9.129 -0.2789  1.8140  2.8461
  159MOL0     H21922   8.740   3.716   9.947  0.1455 -0.2787  0.7772
  159MOL0     H21923   8.525   3.631  10.024  1.3911  0.8352  2.6474
  159MOL0     H21924   8.235   3.262  10.026 -2.4307 -0.7552 -0.1617
  159MOL0     H21925   8.040   3.168  10.120  0.3130 -0.0440 -1.2074
  159MOL0     H21926   6.716   2.643   9.442 -0.5543  1.0586 -0.0542
  159MOL0     H21927   6.772   2.532   9.225  1.0163  0.7707 -0.1167
  159MOL0     H21928   6.848   2.202   8.913  0.6475  0.2834  0.8794
  159MOL0     H21929   6.907   2.130   8.685  2.1716 -0.6160 -1.5423
  159MOL0     H21930   6.985   2.448   8.477  1.4150  3.2069  0.1066
  159MOL0     H21931   7.162   2.436   8.484  0.1966 -1.0279  0.4177
  159MOL0     H21932   7.172   2.343   8.262 -0.7615 -0.8649 -0.9316
  159MOL0     H21933   7.077   2.492   8.265 -1.9688  0.9949  1.4815
  159MOL0     H21934   6.978   2.211   8.264  0.3583  1.0468  3.0308
  159MOL0     H21935   6.871   2.347   8.291 -0.3784 -0.9055  0.3309
  159MOL0     H21936   7.028   2.319   8.033 -0.0860  0.1932 -1.5134
  159MOL0     H21937   6.920   2.446   8.089  3.0833  1.4747 -0.8746
  159MOL0     H21938   6.646   2.182   7.928 -1.1371 -0.1830 -0.4066
  159MOL0     H21939   7.212   2.418   8.663  0.0301  2.3099  1.0690
  159MOL0     H21940   7.197   2.589   8.956  0.2916 -0.4700  0.1330
  159MOL0     H21941   7.252   2.451   9.035 -1.5284 -1.2578  0.4101
  159MOL0     H21942   7.317   2.503   8.875 -0.0579  1.4901  0.1242
  160MOL0     O21943   1.046   8.392   5.376 -0.0747  0.6521 -0.6631
  160MOL0     C21944   1.028   8.493   5.318 -0.5212  0.0785  0.7389
  160MOL0     O21945   1.108   8.603   5.326 -0.0339  0.9674  0.7589
  160MOL0     C21946   1.225   8.601   5.398  0.5209 -0.5823  0.2850
  160MOL0     C21947   1.324   8.520   5.352 -0.5950  0.2680 -0.1680
  160MOL0     C21948   1.450   8.504   5.408 -0.0283  0.8010  0.0813
  160MOL0     C21949   1.479   8.592   5.513 -0.0542  0.9584 -0.3795
  160MOL0     O21950   1.601   8.598   5.577  0.0265  0.3587  0.2267
  160MOL0     C21951   1.714   8.531   5.517  0.4453 -0.6534  0.0651
  160MOL0     C21952   1.843   8.597   5.568 -1.4618 -0.6657 -0.2672
  160MOL0     C21953   1.964   8.520   5.510  0.2942 -0.9892 -0.1110
  160MOL0     C21954   2.096   8.595   5.527  0.6623 -1.6792 -0.5305
  160MOL0     C21955   2.213   8.526   5.465  0.3465  0.9229  0.0988
  160MOL0     C21956   2.276   8.415   5.554 -0.3795  0.2232  0.6321
  160MOL0     C21957   2.356   8.465   5.688 -0.0473  0.5323  0.7454
  160MOL0     C21958   2.439   8.354   5.750  0.2589  0.1146 -0.1129
  160MOL0     N21959   2.386   8.221   5.731  0.1314 -0.1400 -0.2106
  160MOL0     C21960   2.264   8.173   5.780 -0.5371 -0.6845  0.0909
  160MOL0     C21961   2.255   8.053   5.723  0.7861 -0.0535 -0.2030
  160MOL0     C21962   2.129   7.978   5.739  0.1598 -0.1222  0.2800
  160MOL0     C21963   2.058   7.944   5.607  0.0899  0.2835 -0.4864
  160MOL0     C21964   1.999   8.070   5.539  0.3170  0.2235  0.1252
  160MOL0     C21965   1.880   8.033   5.451  0.4185  0.0646  0.1321
  160MOL0     O21966   1.781   8.143   5.453  0.0966 -0.2917  0.1235
  160MOL0     C21967   1.655   8.101   5.453 -1.4168  0.0763  0.4172
  160MOL0     C21968   1.571   8.143   5.347 -0.0136 -0.3349 -0.4559
  160MOL0     C21969   1.434   8.103   5.347  0.3797 -0.4035  0.3096
  160MOL0     C21970   1.356   8.162   5.224 -0.1741 -0.0969 -0.4353
  160MOL0     C21971   1.383   8.017   5.454 -0.6532  0.0644 -0.3856
  160MOL0     C21972   1.248   7.970   5.455  0.3215  0.3753  0.5590
  160MOL0     O21973   1.156   8.004   5.355  0.7278 -0.1909 -0.0380
  160MOL0     C21974   1.028   7.954   5.369 -0.1980 -0.4495  0.8372
  160MOL0     C21975   0.939   8.009   5.460  0.5746 -0.5082 -0.5245
  160MOL0     C21976   0.812   7.963   5.449 -0.6314 -0.2448  0.6550
  160MOL0     C21977   0.773   7.864   5.354 -0.1203 -0.7972  0.2057
  160MOL0     O21978   0.643   7.828   5.341 -0.5752  0.3184 -0.0225
  160MOL0     C21979   0.564   7.784   5.456 -0.8734 -1.0567  0.1333
  160MOL0     C21980   0.443   7.706   5.398 -0.5477  0.1451 -0.1961
  160MOL0     C21981   0.477   7.559   5.384  0.0651  0.7316 -0.1070
  160MOL0     C21982   0.351   7.468   5.350  0.2329  0.0439 -0.5648
  160MOL0     C21983   0.396   7.328   5.292  0.1435  0.1258  0.0186
  160MOL0     C21984   0.278   7.243   5.245  0.2292 -0.1360 -0.5159
  160MOL0     C21985   0.317   7.090   5.242 -0.0744 -0.1187 -0.5368
  160MOL0     C21986   0.193   7.010   5.196 -0.4317 -0.5432  0.0169
  160MOL0    Cl21987   0.171   7.006   5.025  0.7830  0.4885 -0.3209
  160MOL0     C21988   0.867   7.797   5.277  0.9743 -0.5156 -0.5782
  160MOL0     C21989   0.994   7.839   5.285 -0.2248 -0.4150 -0.3607
  160MOL0     O21990   1.217   7.906   5.558  0.1633 -0.4548  0.3216
  160MOL0     C21991   1.474   7.992   5.558 -1.4663 -0.1951 -0.5368
  160MOL0     C21992   1.608   8.026   5.551  0.2358  0.0055 -0.4245
  160MOL0     N21993   2.361   8.026   5.639  0.1739  0.3123  0.3463
  160MOL0     N21994   2.438   8.127   5.652 -0.5916 -0.3077 -0.0080
  160MOL0     C21995   1.375   8.672   5.558 -0.2653  1.1348  0.3864
  160MOL0     C21996   1.244   8.674   5.507 -0.5890 -0.9086  1.2199
  160MOL0     C21997   0.899   8.501   5.248 -0.4877 -0.4100  0.1868
  160MOL0     C21998   0.848   8.632   5.241  0.3753 -0.7750  0.2115
  160MOL0     C21999   0.720   8.663   5.183 -0.8004 -0.5184 -0.5968
  160MOL0     C22000   0.639   8.559   5.144 -0.1248  0.7694  0.1670
  160MOL0     O22001   0.506   8.585   5.109 -0.1097  0.0581  0.1976
  160MOL0     C22002   0.502   8.650   4.981  0.4591 -0.1559  0.0280
  160MOL0     C22003   0.400   8.771   4.969  0.4665  0.7435 -0.5688
  160MOL0     C22004   0.387   8.816   4.831 -0.2248  0.2810 -0.1442
  160MOL0     C22005   0.344   8.709   4.737  0.3647 -0.4804  0.5971
  160MOL0     C22006   0.303   8.784   4.615  0.4774  0.7023 -0.6572
  160MOL0     C22007   0.270   8.831   4.512  0.2583  0.2194 -0.4970
  160MOL0     C22008   0.692   8.420   5.136  0.3497 -1.0438 -0.2003
  160MOL0     C22009   0.825   8.399   5.177  0.5221  0.4707 -0.0397
  160MOL0     C22010   0.868   8.257   5.169 -0.5057  0.1269 -0.0219
  160MOL0     H22011   1.309   8.460   5.263 -1.4196 -2.5031  1.7121
  160MOL0     H22012   1.512   8.429   5.360 -0.9660 -1.2777  1.8963
  160MOL0     H22013   1.700   8.526   5.409 -1.5592 -0.7373  0.2854
  160MOL0     H22014   1.713   8.424   5.540 -0.6008 -1.3118 -2.6540
  160MOL0     H22015   1.857   8.703   5.548  2.6030 -0.0403  4.0227
  160MOL0     H22016   1.857   8.598   5.677  1.5501  0.7479 -0.5525
  160MOL0     H22017   1.969   8.418   5.549  0.5765 -1.1047 -0.4452
  160MOL0     H22018   1.958   8.517   5.401 -0.9359  1.4539 -0.1689
  160MOL0     H22019   2.086   8.681   5.461 -1.7025 -1.6256 -0.2022
  160MOL0     H22020   2.117   8.638   5.626  0.1280 -3.5106  0.4280
  160MOL0     H22021   2.298   8.591   5.442  2.4179 -0.8744  2.0184
  160MOL0     H22022   2.182   8.480   5.371  2.3077 -1.3382  0.4395
  160MOL0     H22023   2.190   8.364   5.598 -1.5500  1.9864  0.4926
  160MOL0     H22024   2.328   8.342   5.491  0.0998 -0.7232  2.0760
  160MOL0     H22025   2.284   8.511   5.756 -2.0286 -0.0926 -0.8144
  160MOL0     H22026   2.440   8.533   5.669  2.3836 -2.4976 -0.1604
  160MOL0     H22027   2.540   8.351   5.707  0.6035 -2.6093  0.7102
  160MOL0     H22028   2.447   8.369   5.858  3.5036 -2.1956  0.1261
  160MOL0     H22029   2.201   8.224   5.852  2.1980  2.2386  0.6371
  160MOL0     H22030   2.064   8.039   5.801 -0.8581  1.2563 -2.0109
  160MOL0     H22031   2.144   7.882   5.789 -1.7506  0.2951  1.7747
  160MOL0     H22032   2.112   7.875   5.542  1.9338  0.3160  0.9285
  160MOL0     H22033   1.970   7.889   5.642 -0.8965  2.2896  0.3691
  160MOL0     H22034   1.969   8.138   5.620 -1.1243  0.3688 -0.4934
  160MOL0     H22035   2.076   8.117   5.478 -1.1757  2.4998 -0.1291
  160MOL0     H22036   1.916   8.017   5.349  3.1443 -1.4992  1.2460
  160MOL0     H22037   1.838   7.933   5.467 -0.8811  0.7182  0.9388
  160MOL0     H22038   1.612   8.213   5.276 -1.7923  2.4239  1.0484
  160MOL0     H22039   1.421   8.213   5.153 -0.1649 -1.7813 -1.6978
  160MOL0     H22040   1.281   8.234   5.257  2.2109  1.1724  2.6554
  160MOL0     H22041   1.311   8.081   5.164 -1.0528  1.7042 -2.3416
  160MOL0     H22042   0.952   8.099   5.519 -7.1785  2.7907 -2.4783
  160MOL0     H22043   0.740   8.003   5.519 -0.7598  1.7345 -0.5530
  160MOL0     H22044   0.631   7.726   5.519 -0.3612 -1.6102 -0.9076
  160MOL0     H22045   0.521   7.868   5.512  0.3924 -0.6140  0.4797
  160MOL0     H22046   0.357   7.711   5.466  0.7381  1.5142  1.4339
  160MOL0     H22047   0.392   7.750   5.312 -0.8286  0.7191  0.2572
  160MOL0     H22048   0.515   7.521   5.479  0.1179 -0.3316 -0.5336
  160MOL0     H22049   0.556   7.538   5.311 -1.2991  0.4082 -1.5533
  160MOL0     H22050   0.284   7.523   5.284 -2.5731  0.6121  2.4531
  160MOL0     H22051   0.301   7.450   5.446  2.8957 -2.2574  0.5325
  160MOL0     H22052   0.474   7.345   5.217  0.4675  2.2441  0.7874
  160MOL0     H22053   0.446   7.273   5.373 -1.3416 -0.2313  0.7217
  160MOL0     H22054   0.249   7.279   5.146 -0.7342  2.7161  0.6975
  160MOL0     H22055   0.194   7.258   5.313  0.8943  2.3301 -0.1341
  160MOL0     H22056   0.348   7.052   5.341  1.0606  0.4308 -0.6681
  160MOL0     H22057   0.400   7.070   5.175  0.9818  1.6354  0.1863
  160MOL0     H22058   0.104   7.054   5.241  1.6960  1.7720  2.2924
  160MOL0     H22059   0.211   6.910   5.237  0.9102 -1.2213 -2.0473
  160MOL0     H22060   0.830   7.711   5.221 -2.0087 -0.6482  1.3541
  160MOL0     H22061   1.076   7.774   5.253 -0.5763 -1.9217  1.5811
  160MOL0     H22062   1.440   7.939   5.646 -3.2848  0.9557 -0.4953
  160MOL0     H22063   1.673   8.004   5.636  0.1096 -0.3023 -0.4074
  160MOL0     H22064   1.406   8.748   5.629  1.6443  1.6843 -0.9539
  160MOL0     H22065   1.169   8.749   5.532  0.0517  0.1348  0.1116
  160MOL0     H22066   0.899   8.709   5.298  2.0714 -1.7089  0.0073
  160MOL0     H22067   0.688   8.767   5.176 -0.7408 -0.4956 -0.5396
  160MOL0     H22068   0.601   8.685   4.951  0.4845 -1.1748 -1.1883
  160MOL0     H22069   0.467   8.567   4.918  0.5887 -0.9778  1.0182
  160MOL0     H22070   0.435   8.846   5.040  0.1184 -2.0382  2.7875
  160MOL0     H22071   0.305   8.738   5.011  1.2302 -1.8772 -0.6706
  160MOL0     H22072   0.304   8.886   4.825 -0.3012  0.2830  0.7602
  160MOL0     H22073   0.489   8.848   4.807  1.9813 -4.3527  1.6422
  160MOL0     H22074   0.261   8.646   4.769 -1.0466  1.4401  0.8614
  160MOL0     H22075   0.434   8.654   4.707  0.4705 -1.2764  2.2799
  160MOL0     H22076   0.233   8.864   4.416 -0.5983  1.7101  0.3060
  160MOL0     H22077   0.631   8.347   5.084 -3.8587  1.8047  0.1470
  160MOL0     H22078   0.951   8.245   5.099  0.1880  1.8522  0.4446
  160MOL0     H22079   0.909   8.229   5.267  0.1614 -3.2412 -1.1443
  160MOL0     H22080   0.792   8.188   5.133 -0.8133  0.2045  0.4632
  161MOL0     O22081   4.330   1.019   3.267  0.6737 -0.7737 -0.0979
  161MOL0     C22082   4.261   1.043   3.167 -0.0471 -0.0018  0.3186
  161MOL0     O22083   4.193   1.160   3.148  0.2468 -0.2664  0.8315
  161MOL0     C22084   4.153   1.241   3.249  0.3498  0.4645  1.1643
  161MOL0     C22085   4.018   1.252   3.271 -1.2089  0.1205 -0.1271
  161MOL0     C22086   3.978   1.303   3.395 -1.5309 -0.3396 -0.3091
  161MOL0     C22087   4.071   1.356   3.490  0.2301 -0.0396 -1.0555
  161MOL0     O22088   4.033   1.413   3.609 -0.3734 -0.0563  0.2131
  161MOL0     C22089   3.950   1.348   3.695  0.3595  0.0208 -0.3632
  161MOL0     C22090   4.022   1.261   3.795  0.1014 -0.9305 -0.1170
  161MOL0     C22091   4.140   1.338   3.859 -0.2285  0.2732  0.3842
  161MOL0     C22092   4.226   1.245   3.953 -0.3691  0.0266  0.2740
  161MOL0     C22093   4.263   1.322   4.082  0.3591 -0.2618 -0.4625
  161MOL0     C22094   4.362   1.239   4.165  0.1010 -0.1959 -0.5243
  161MOL0     C22095   4.313   1.112   4.242 -0.2088  1.0307  0.0316
  161MOL0     C22096   4.236   1.153   4.368 -0.5033 -1.1032 -0.2441
  161MOL0     N22097   4.314   1.184   4.484 -0.1336  0.7647 -0.7804
  161MOL0     C22098   4.308   1.106   4.590  0.7269  0.5078  0.2895
  161MOL0     C22099   4.402   1.148   4.670 -0.4998 -0.1977  0.3157
  161MOL0     C22100   4.441   1.100   4.809  0.2052 -0.3653 -0.2703
  161MOL0     C22101   4.526   0.968   4.798  0.4349 -0.3431 -0.3947
  161MOL0     C22102   4.547   0.904   4.942 -0.0032 -0.2038 -0.7329
  161MOL0     C22103   4.622   0.771   4.926 -0.9461  0.4472 -0.0150
  161MOL0     O22104   4.681   0.735   5.059  0.3719  0.0879  0.4747
  161MOL0     C22105   4.812   0.763   5.084  0.0112 -0.2080  0.1902
  161MOL0     C22106   4.893   0.843   5.016 -0.0608 -1.0365  0.0587
  161MOL0     C22107   5.026   0.871   5.048 -0.6489  0.2893  0.4709
  161MOL0     C22108   5.115   0.957   4.958 -0.4339  0.6416  0.0359
  161MOL0     C22109   5.082   0.801   5.164 -0.5619  0.5976  0.0798
  161MOL0     C22110   5.222   0.799   5.210 -0.3665 -0.5244  0.1686
  161MOL0     O22111   5.260   0.734   5.327 -0.7226 -0.5622  0.8651
  161MOL0     C22112   5.386   0.699   5.359  0.2542 -0.3577 -0.2244
  161MOL0     C22113   5.399   0.701   5.498 -0.6193  0.2035 -0.4871
  161MOL0     C22114   5.524   0.668   5.553  0.3570 -0.3475 -0.6015
  161MOL0     C22115   5.630   0.626   5.476 -0.3334 -0.9374  0.5063
  161MOL0     O22116   5.742   0.579   5.545 -0.2995  0.2686  0.5404
  161MOL0     C22117   5.738   0.432   5.573  0.9716 -0.7360  0.4739
  161MOL0     C22118   5.761   0.427   5.725  0.0004  0.2530 -0.3048
  161MOL0     C22119   5.902   0.464   5.767 -0.2463  0.4958 -0.2750
  161MOL0     C22120   5.894   0.538   5.904  0.4339 -0.2878  0.1353
  161MOL0     C22121   6.034   0.556   5.955  1.0314 -0.8165  0.3520
  161MOL0     C22122   6.039   0.659   6.075  0.7103  0.4069  0.7558
  161MOL0     C22123   6.185   0.696   6.095  0.7033 -0.1838 -0.1608
  161MOL0     C22124   6.216   0.803   6.208  0.6156  1.3351  0.4775
  161MOL0    Cl22125   6.391   0.842   6.183 -0.5695 -0.2130  0.2920
  161MOL0     C22126   5.625   0.640   5.332  0.5464  0.5209 -0.8274
  161MOL0     C22127   5.496   0.664   5.277 -0.3661  0.6125  0.2005
  161MOL0     O22128   5.300   0.872   5.144  0.1047 -1.0185 -0.2127
  161MOL0     C22129   4.992   0.734   5.249  0.1566  1.4261  0.6037
  161MOL0     C22130   4.859   0.714   5.208 -0.4456  0.0253 -0.3397
  161MOL0     N22131   4.459   1.262   4.613 -0.6372  0.2957  0.8186
  161MOL0     N22132   4.405   1.279   4.500 -0.0873  0.0873 -1.2521
  161MOL0     C22133   4.202   1.339   3.458  0.2006 -0.0489 -0.3383
  161MOL0     C22134   4.241   1.289   3.340 -1.1894 -0.6142 -1.0418
  161MOL0     C22135   4.259   0.937   3.056 -0.2890  0.5158 -0.5346
  161MOL0     C22136   4.320   0.809   3.082 -1.0978  0.3630 -0.0660
  161MOL0     C22137   4.316   0.712   2.990  0.5577  0.3363  0.8788
  161MOL0     C22138   4.239   0.720   2.874 -0.9713 -0.8385  0.7534
  161MOL0     O22139   4.218   0.639   2.764  0.2070  0.1496 -0.3302
  161MOL0     C22140   4.301   0.521   2.769  0.1472  0.1507 -0.1675
  161MOL0     C22141   4.303   0.451   2.623  0.4196 -0.3661  0.2753
  161MOL0     C22142   4.215   0.323   2.597 -0.0387  0.8062 -0.5366
  161MOL0     C22143   4.072   0.350   2.622  0.9370  0.5993 -0.4833
  161MOL0     C22144   3.990   0.230   2.589 -0.4191 -0.6968 -0.1937
  161MOL0     C22145   3.914   0.135   2.568  0.1857 -0.4502 -0.3094
  161MOL0     C22146   4.181   0.840   2.849  0.5527 -0.9348  0.5188
  161MOL0     C22147   4.182   0.948   2.939  0.3171 -0.1645 -0.1745
  161MOL0     C22148   4.085   1.065   2.910 -0.1111  0.1177  0.0044
  161MOL0     H22149   3.933   1.215   3.215 -0.6163 -0.6883 -0.5129
  161MOL0     H22150   3.872   1.300   3.416 -1.6248 -1.8865 -0.8390
  161MOL0     H22151   3.864   1.302   3.644 -0.9352 -0.3058  1.9547
  161MOL0     H22152   3.892   1.427   3.744 -1.0948 -1.1017 -0.1816
  161MOL0     H22153   3.959   1.221   3.875  3.1665 -2.3785  1.7570
  161MOL0     H22154   4.058   1.181   3.730 -2.5562 -0.8983 -1.7847
  161MOL0     H22155   4.203   1.385   3.784 -1.4083 -0.1572 -0.9290
  161MOL0     H22156   4.102   1.416   3.925 -0.5933 -0.0422  0.5575
  161MOL0     H22157   4.187   1.147   3.978  0.6271  0.3075  3.2395
  161MOL0     H22158   4.323   1.235   3.902 -0.6403  3.7519 -1.3484
  161MOL0     H22159   4.170   1.337   4.137  0.0810 -0.0712 -0.9856
  161MOL0     H22160   4.308   1.415   4.044 -0.8707 -0.4741 -2.5590
  161MOL0     H22161   4.426   1.195   4.088  1.8683 -0.0183  0.7671
  161MOL0     H22162   4.417   1.314   4.223 -0.1646  0.0843 -0.6298
  161MOL0     H22163   4.394   1.044   4.273 -1.5616  0.3013  2.1658
  161MOL0     H22164   4.247   1.051   4.180  0.6747  0.0520  0.0029
  161MOL0     H22165   4.173   1.239   4.345  0.8973  0.4069  1.3889
  161MOL0     H22166   4.165   1.074   4.395 -0.0090 -0.8850  1.8664
  161MOL0     H22167   4.243   1.023   4.617  0.0745  1.5593  2.1727
  161MOL0     H22168   4.353   1.078   4.870  0.7908  2.2731  1.7701
  161MOL0     H22169   4.500   1.184   4.846  1.4517 -0.5070 -1.8409
  161MOL0     H22170   4.478   0.877   4.760  2.3169 -3.1871  3.3329
  161MOL0     H22171   4.622   0.992   4.751  0.6103 -1.2872 -0.5359
  161MOL0     H22172   4.604   0.978   4.999  1.2155 -0.6477 -1.3404
  161MOL0     H22173   4.455   0.888   4.998 -2.1045 -1.9482 -4.2754
  161MOL0     H22174   4.562   0.687   4.891  0.0789 -0.3134  0.0114
  161MOL0     H22175   4.700   0.785   4.850 -2.3029 -1.0727 -1.7768
  161MOL0     H22176   4.846   0.903   4.939 -1.1919  0.6587  1.9844
  161MOL0     H22177   5.069   1.010   4.874  1.5042  2.8456  0.2304
  161MOL0     H22178   5.204   0.902   4.927 -1.8983 -1.2725 -0.9639
  161MOL0     H22179   5.159   1.032   5.025  0.1581  0.9044 -0.6350
  161MOL0     H22180   5.323   0.716   5.573  1.8155 -1.3976  2.5092
  161MOL0     H22181   5.543   0.671   5.660  0.5797 -1.8999 -0.5743
  161MOL0     H22182   5.642   0.401   5.531 -0.4922  2.6660  0.9852
  161MOL0     H22183   5.811   0.376   5.514  0.6173  0.5430 -1.2674
  161MOL0     H22184   5.687   0.486   5.779  0.1974  2.0174 -1.8839
  161MOL0     H22185   5.755   0.319   5.739  0.1877  0.2112 -0.5404
  161MOL0     H22186   5.962   0.509   5.688 -1.5494  0.8662 -1.0849
  161MOL0     H22187   5.953   0.369   5.786  1.8587  1.2566 -1.6601
  161MOL0     H22188   5.835   0.473   5.970  0.1451  0.6192  0.7896
  161MOL0     H22189   5.846   0.635   5.890 -3.4142 -2.3535 -3.0366
  161MOL0     H22190   6.066   0.455   5.979 -3.1128 -2.1110  1.2384
  161MOL0     H22191   6.089   0.600   5.871  1.5867 -1.2849  0.4640
  161MOL0     H22192   5.976   0.609   6.149 -1.0776 -0.5466 -1.2752
  161MOL0     H22193   5.975   0.742   6.043 -3.8686 -2.6219  1.0388
  161MOL0     H22194   6.233   0.718   6.000  0.4661  1.4837  0.0836
  161MOL0     H22195   6.236   0.603   6.122 -0.6352 -1.0244 -0.4228
  161MOL0     H22196   6.199   0.741   6.296 -1.5708  0.8382 -0.2266
  161MOL0     H22197   6.148   0.888   6.213  0.1089  1.2038 -2.3741
  161MOL0     H22198   5.703   0.617   5.260  0.6133 -0.0488 -0.5783
  161MOL0     H22199   5.493   0.661   5.169 -3.1307  1.6702  0.1578
  161MOL0     H22200   5.025   0.686   5.340  1.4301 -2.4611 -1.6638
  161MOL0     H22201   4.793   0.664   5.279  2.2360  0.6526  2.8739
  161MOL0     H22202   4.282   1.363   3.527  1.8623 -1.5226 -1.6617
  161MOL0     H22203   4.344   1.261   3.321 -0.5992  0.4818  0.3814
  161MOL0     H22204   4.369   0.784   3.176  3.8853 -0.0147 -2.4473
  161MOL0     H22205   4.352   0.614   3.021 -2.1622 -0.9716  0.1725
  161MOL0     H22206   4.402   0.547   2.802 -0.1768  1.8037 -0.4042
  161MOL0     H22207   4.258   0.466   2.853 -3.7020  0.3001 -1.8291
  161MOL0     H22208   4.406   0.435   2.591  0.9228  1.1367  1.0424
  161MOL0     H22209   4.273   0.536   2.561 -0.2692  0.2023  1.3374
  161MOL0     H22210   4.221   0.290   2.493 -1.9522  0.5454 -0.6066
  161MOL0     H22211   4.234   0.236   2.661  0.2475 -0.7647 -2.6311
  161MOL0     H22212   4.025   0.422   2.555 -3.1822 -0.8579  0.5499
  161MOL0     H22213   4.054   0.381   2.726 -1.0893 -2.2210  0.1360
  161MOL0     H22214   3.834   0.066   2.553 -1.9555  1.9168 -0.6123
  161MOL0     H22215   4.130   0.857   2.755 -0.9238  3.3139  1.8572
  161MOL0     H22216   4.143   1.152   2.880 -1.8248  2.1377  2.2059
  161MOL0     H22217   4.014   1.039   2.831 -1.3380  0.4327  0.9725
  161MOL0     H22218   4.026   1.082   3.000 -2.1854 -3.6792 -0.3875
  162MOL0     O22219   2.627  11.014   9.014 -0.9020  0.1786 -0.4249
  162MOL0     C22220   2.627  11.117   9.084  0.0941  0.6825 -1.2153
  162MOL0     O22221   2.548  11.223   9.056  0.0186 -0.0504 -0.2978
  162MOL0     C22222   2.458  11.216   8.952  1.1827 -0.2226 -0.2129
  162MOL0     C22223   2.322  11.225   8.993 -0.8235 -0.1336 -0.0647
  162MOL0     C22224   2.226  11.216   8.895  1.0914  0.5434  0.4102
  162MOL0     C22225   2.254  11.193   8.763  0.1035  1.1306 -0.7352
  162MOL0     O22226   2.140  11.154   8.689  0.4538 -0.2428  0.7191
  162MOL0     C22227   2.157  11.108   8.553 -0.3542  0.4402 -0.4064
  162MOL0     C22228   2.026  11.034   8.531 -0.1361  0.1161 -0.1908
  162MOL0     C22229   2.026  10.948   8.410  0.8057 -0.5007 -0.3778
  162MOL0     C22230   1.918  10.837   8.436  0.3596 -0.9152  1.0855
  162MOL0     C22231   1.927  10.728   8.328 -0.4089  0.2726  0.0453
  162MOL0     C22232   1.854  10.605   8.356  0.5700 -0.6181 -0.4606
  162MOL0     C22233   1.922  10.491   8.287  0.9834 -0.7601 -0.4982
  162MOL0     C22234   1.815  10.373   8.264 -0.0367 -0.0958  0.0299
  162MOL0     N22235   1.785  10.289   8.375 -0.1266 -0.0277 -0.6382
  162MOL0     C22236   1.864  10.183   8.416  0.7402 -0.1682 -0.7430
  162MOL0     C22237   1.774  10.107   8.488  0.0709  0.7273  0.2414
  162MOL0     C22238   1.812   9.978   8.559 -0.4946 -0.6320  0.2441
  162MOL0     C22239   1.908  10.026   8.682  0.2693  0.6551  0.4054
  162MOL0     C22240   1.814  10.058   8.804 -0.0875  0.3493 -0.0110
  162MOL0     C22241   1.916  10.082   8.917 -0.0564  0.7954  0.9451
  162MOL0     O22242   1.853  10.157   9.017  0.8630 -0.5275  0.2847
  162MOL0     C22243   1.901  10.170   9.142  0.0002  0.0238 -0.6813
  162MOL0     C22244   1.818  10.232   9.234  0.6013  0.3538 -0.5406
  162MOL0     C22245   1.862  10.250   9.368 -0.2163 -0.2537  0.2253
  162MOL0     C22246   1.769  10.329   9.459 -0.3089 -0.2095 -0.7845
  162MOL0     C22247   1.988  10.196   9.412 -0.4211  0.1814  0.0300
  162MOL0     C22248   2.032  10.192   9.553  0.4308 -0.4777 -0.0332
  162MOL0     O22249   2.156  10.146   9.568 -0.5241 -0.1071  0.0199
  162MOL0     C22250   2.255  10.191   9.658 -0.4077  0.7348  0.2404
  162MOL0     C22251   2.372  10.122   9.652 -0.6747  0.1933  1.5334
  162MOL0     C22252   2.483  10.161   9.735 -0.3182  0.5052  0.3703
  162MOL0     C22253   2.466  10.261   9.835 -1.1878  0.3396  0.4137
  162MOL0     O22254   2.573  10.278   9.920  0.3166  0.3677  0.5933
  162MOL0     C22255   2.592  10.417   9.961  0.3177  0.0800 -0.5596
  162MOL0     C22256   2.738  10.428  10.003  0.3962  0.4907 -0.3235
  162MOL0     C22257   2.791  10.566  10.021 -0.2731  0.1956 -0.4247
  162MOL0     C22258   2.709  10.636  10.122  0.8946 -0.6291  0.3776
  162MOL0     C22259   2.612  10.736  10.068  0.0282  0.3076  0.4721
  162MOL0     C22260   2.519  10.793  10.173  0.0140 -0.6243  0.7934
  162MOL0     C22261   2.421  10.890  10.113  0.2653 -0.0796 -0.2646
  162MOL0     C22262   2.362  10.966  10.230 -0.0370 -0.5270  0.0874
  162MOL0    Cl22263   2.289  10.868  10.366 -0.1448  0.3200 -0.3371
  162MOL0     C22264   2.339  10.320   9.846  0.2541  0.1649  0.9128
  162MOL0     C22265   2.238  10.291   9.750  0.1097 -0.3785 -0.4135
  162MOL0     O22266   1.962  10.226   9.648 -0.5406 -0.5784 -0.3774
  162MOL0     C22267   2.066  10.129   9.312  0.3444  0.1364 -0.4557
  162MOL0     C22268   2.021  10.126   9.182 -0.2425 -0.5991 -0.0449
  162MOL0     N22269   1.644  10.159   8.485  0.2165  0.4456  0.1188
  162MOL0     N22270   1.650  10.268   8.418  0.0603 -0.7785  0.0275
  162MOL0     C22271   2.393  11.187   8.726 -0.4825  0.1266  0.0583
  162MOL0     C22272   2.496  11.199   8.820  0.3515  0.5465  0.0301
  162MOL0     C22273   2.719  11.129   9.194 -0.4508  0.8572  0.0499
  162MOL0     C22274   2.774  11.253   9.224 -1.1853  0.3394 -0.2924
  162MOL0     C22275   2.867  11.278   9.328 -0.4548 -0.2831  0.9323
  162MOL0     C22276   2.913  11.170   9.404  0.5153  0.2250  0.7293
  162MOL0     O22277   3.016  11.186   9.500 -0.1196 -0.4792 -0.0641
  162MOL0     C22278   3.084  11.313   9.512  0.0988 -0.2031  0.9580
  162MOL0     C22279   2.991  11.403   9.597 -0.2587  0.0735 -0.7243
  162MOL0     C22280   3.022  11.379   9.750 -0.4248 -0.8931  0.2326
  162MOL0     C22281   3.151  11.440   9.793  0.1492 -0.0435 -0.0737
  162MOL0     C22282   3.157  11.442   9.943 -0.3125  0.2045 -0.6259
  162MOL0     C22283   3.163  11.438  10.062 -0.0651 -0.5134 -0.1590
  162MOL0     C22284   2.859  11.047   9.378 -0.1653 -0.5374 -0.6975
  162MOL0     C22285   2.762  11.018   9.274  0.0490 -0.1893 -0.8709
  162MOL0     C22286   2.700  10.878   9.271 -0.0573 -0.0361 -0.1116
  162MOL0     H22287   2.290  11.247   9.094  0.5349  1.9716 -0.0283
  162MOL0     H22288   2.124  11.214   8.934  2.0460  0.7924  3.0972
  162MOL0     H22289   2.246  11.047   8.541  0.1023  0.1252  3.2595
  162MOL0     H22290   2.160  11.192   8.483 -1.3862  1.9062  1.1979
  162MOL0     H22291   2.002  10.957   8.605  0.2425 -2.8936 -2.9651
  162MOL0     H22292   1.949  11.112   8.535  0.0927  0.2980  0.9990
  162MOL0     H22293   1.996  10.995   8.316  1.0888 -1.0439 -0.7430
  162MOL0     H22294   2.128  10.910   8.400  1.9124  1.6986  1.3937
  162MOL0     H22295   1.932  10.792   8.535 -0.5341  0.1247  1.6951
  162MOL0     H22296   1.819  10.881   8.427  0.6028 -0.7773 -2.1661
  162MOL0     H22297   2.034  10.715   8.309 -0.1477  1.8116  0.3051
  162MOL0     H22298   1.887  10.775   8.238  0.3265 -1.4364 -1.2341
  162MOL0     H22299   1.836  10.588   8.463 -1.7746 -1.2612 -0.8886
  162MOL0     H22300   1.758  10.619   8.305  0.9810 -3.2870 -2.1503
  162MOL0     H22301   2.007  10.454   8.346  1.5269  0.5232 -0.4413
  162MOL0     H22302   1.968  10.523   8.193 -1.8302 -0.4422 -1.8835
  162MOL0     H22303   1.722  10.419   8.227  1.3981  0.9507 -2.5450
  162MOL0     H22304   1.864  10.306   8.194  1.6862 -0.2504  1.3301
  162MOL0     H22305   1.969  10.161   8.400  1.3714 -0.9173  3.3446
  162MOL0     H22306   1.862   9.915   8.485 -1.5476 -0.4815 -0.6245
  162MOL0     H22307   1.722   9.931   8.600 -1.1746  0.1515 -0.3027
  162MOL0     H22308   1.971   9.940   8.710  0.8259  2.0859  4.2229
  162MOL0     H22309   1.980  10.103   8.655  1.4399 -0.5320  0.0091
  162MOL0     H22310   1.764  10.151   8.776  1.4744  0.8798 -1.1700
  162MOL0     H22311   1.742   9.981   8.833 -1.4439  1.1536 -1.0835
  162MOL0     H22312   1.943   9.985   8.960 -1.5393  0.7242  1.8048
  162MOL0     H22313   1.999  10.146   8.888  0.0815 -0.8829 -2.8999
  162MOL0     H22314   1.732  10.289   9.203  1.1001  1.6145  0.3293
  162MOL0     H22315   1.834  10.414   9.480  1.9912 -1.7929 -1.0736
  162MOL0     H22316   1.749  10.273   9.551 -2.3619 -0.2970 -1.2367
  162MOL0     H22317   1.674  10.361   9.414 -1.4616  0.1621  1.7511
  162MOL0     H22318   2.387  10.030   9.596 -1.5527  0.0403  1.5447
  162MOL0     H22319   2.574  10.103   9.728 -0.9571 -0.7771  1.9357
  162MOL0     H22320   2.573  10.469   9.867 -1.7624 -1.5678 -1.1133
  162MOL0     H22321   2.516  10.450  10.033  0.4347 -4.2185  1.8619
  162MOL0     H22322   2.765  10.367  10.089  1.3557  1.7409  0.2910
  162MOL0     H22323   2.791  10.390   9.915 -1.4547  2.3338 -2.3727
  162MOL0     H22324   2.775  10.614   9.924  3.2197  1.6356 -0.4471
  162MOL0     H22325   2.897  10.562  10.049 -0.1753  1.8528 -0.4484
  162MOL0     H22326   2.767  10.692  10.197 -1.2613 -2.1375  3.3879
  162MOL0     H22327   2.652  10.566  10.183 -0.2434 -0.0320  0.0262
  162MOL0     H22328   2.675  10.819  10.035  0.3220  0.3807  1.2107
  162MOL0     H22329   2.556  10.694   9.984 -0.7245  1.8698  0.1647
  162MOL0     H22330   2.587  10.845  10.241  3.0311  0.3154 -2.6552
  162MOL0     H22331   2.467  10.716  10.230  0.5040 -1.1173  0.5831
  162MOL0     H22332   2.349  10.825  10.064 -0.0338 -0.2677  0.4040
  162MOL0     H22333   2.468  10.958  10.041 -1.4457  0.9180 -0.5067
  162MOL0     H22334   2.291  11.041  10.192  0.6386 -1.8536 -4.3746
  162MOL0     H22335   2.429  11.038  10.278 -3.3279  3.1761 -0.3603
  162MOL0     H22336   2.317  10.396   9.920  1.8696  2.9261 -1.2363
  162MOL0     H22337   2.144  10.344   9.747  0.8464  0.9301 -2.1736
  162MOL0     H22338   2.162  10.083   9.336 -1.3486 -4.2180 -1.1703
  162MOL0     H22339   2.088  10.079   9.111  1.2418 -1.0404  1.5799
  162MOL0     H22340   2.423  11.166   8.624  1.9682  2.5181  0.1866
  162MOL0     H22341   2.594  11.185   8.777  0.7530 -2.9646  1.7460
  162MOL0     H22342   2.740  11.340   9.168 -1.3473  0.3646 -0.1576
  162MOL0     H22343   2.907  11.379   9.331 -2.8527  0.9356 -2.1814
  162MOL0     H22344   3.180  11.288   9.557  2.3999 -0.1201 -3.3602
  162MOL0     H22345   3.109  11.362   9.417  0.0046  2.1899  2.0880
  162MOL0     H22346   2.885  11.390   9.572 -0.6172 -2.7042  1.7270
  162MOL0     H22347   3.011  11.509   9.575  2.0227 -0.0049  0.6770
  162MOL0     H22348   2.947  11.429   9.812 -1.1249  2.2240 -2.8278
  162MOL0     H22349   3.026  11.270   9.758  2.3146 -0.7412  2.3103
  162MOL0     H22350   3.159  11.542   9.755 -2.6213  0.2155 -0.1548
  162MOL0     H22351   3.238  11.382   9.762  1.2185  1.6830 -0.4618
  162MOL0     H22352   3.161  11.428  10.168  1.0511 -0.6675 -0.1424
  162MOL0     H22353   2.872  10.956   9.436 -1.6831 -1.8710 -2.3618
  162MOL0     H22354   2.784  10.809   9.274 -0.6540 -0.7643  0.2164
  162MOL0     H22355   2.637  10.851   9.357  2.0611 -3.8811  0.4403
  162MOL0     H22356   2.632  10.848   9.190 -0.4307 -1.4117  0.6708
  163MOL0     O22357   9.298   8.065   7.992  0.0480 -0.0271 -0.8523
  163MOL0     C22358   9.349   7.955   7.977 -0.2647  0.1734 -0.2397
  163MOL0     O22359   9.292   7.848   7.907  0.5484  0.2023  0.0881
  163MOL0     C22360   9.159   7.884   7.863  0.2265  0.1082  0.2149
  163MOL0     C22361   9.135   7.942   7.736  0.3327  0.3204 -0.6011
  163MOL0     C22362   9.002   7.952   7.682 -1.0220 -0.1249  0.7048
  163MOL0     C22363   8.889   7.905   7.754  0.2433  0.1722  0.7482
  163MOL0     O22364   8.760   7.903   7.705 -0.3288  0.7248 -0.3850
  163MOL0     C22365   8.728   7.940   7.567  0.2546 -0.8549 -0.0811
  163MOL0     C22366   8.575   7.899   7.546 -0.3834 -0.9034 -0.3390
  163MOL0     C22367   8.528   7.915   7.406  0.2502  1.0672  0.4228
  163MOL0     C22368   8.381   7.876   7.396  1.0563 -0.5932  0.1155
  163MOL0     C22369   8.291   7.999   7.427 -0.4717  0.2691 -0.2343
  163MOL0     C22370   8.145   7.958   7.408 -0.5024  0.7804  0.3192
  163MOL0     C22371   8.057   8.066   7.454  0.2858 -0.2651 -0.9711
  163MOL0     C22372   7.902   8.027   7.464  0.4490 -0.0370  1.2728
  163MOL0     N22373   7.849   7.970   7.343 -0.0154 -0.4437 -0.0216
  163MOL0     C22374   7.758   7.873   7.335 -0.0854 -0.1389 -1.5186
  163MOL0     C22375   7.731   7.867   7.211  0.6575 -0.9543 -0.6984
  163MOL0     C22376   7.629   7.784   7.151  0.2515  0.1523 -0.4133
  163MOL0     C22377   7.670   7.641   7.123  0.5395  0.0596  0.3050
  163MOL0     C22378   7.797   7.622   7.027 -0.6394  0.5953 -0.3329
  163MOL0     C22379   7.939   7.656   7.073 -0.6463  0.1451 -0.4442
  163MOL0     O22380   7.986   7.544   7.151  0.4967  0.0149  0.2626
  163MOL0     C22381   8.114   7.534   7.185 -0.3295 -0.0202  0.3581
  163MOL0     C22382   8.137   7.425   7.263 -1.4875  0.8235 -1.0153
  163MOL0     C22383   8.271   7.400   7.306  0.5134 -0.1757  0.3053
  163MOL0     C22384   8.295   7.270   7.367 -0.7277  0.2046 -0.4860
  163MOL0     C22385   8.369   7.493   7.284 -0.0068  0.0457  0.7677
  163MOL0     C22386   8.499   7.486   7.343 -0.5050 -0.0496 -0.0905
  163MOL0     O22387   8.515   7.429   7.460  0.0384 -0.1760  0.5384
  163MOL0     C22388   8.633   7.400   7.530  0.0041  0.0184  0.7774
  163MOL0     C22389   8.741   7.486   7.532 -0.2466 -0.7418 -0.0136
  163MOL0     C22390   8.869   7.445   7.574 -0.3989 -0.3746  0.5705
  163MOL0     C22391   8.891   7.315   7.607  0.0798 -0.4894 -0.1006
  163MOL0     O22392   9.022   7.270   7.623  0.3972 -0.3112  0.0650
  163MOL0     C22393   9.062   7.277   7.757  0.7208  0.2615 -0.4406
  163MOL0     C22394   9.208   7.214   7.763  0.5697  0.5395  0.8793
  163MOL0     C22395   9.304   7.299   7.693 -0.4077  0.1417  0.3683
  163MOL0     C22396   9.448   7.254   7.730 -0.5105  0.0216 -0.3361
  163MOL0     C22397   9.559   7.290   7.624  0.9075  0.1095  1.0458
  163MOL0     C22398   9.694   7.230   7.650  0.1376  0.6666 -0.0455
  163MOL0     C22399   9.807   7.275   7.558  0.5944  0.5884  0.7511
  163MOL0     C22400   9.897   7.380   7.616  0.2339 -0.6204  0.1221
  163MOL0    Cl22401   9.811   7.510   7.699 -0.2266  1.0222 -0.4448
  163MOL0     C22402   8.781   7.225   7.611 -0.6770  0.3249 -0.1864
  163MOL0     C22403   8.652   7.262   7.573 -0.4716  0.0891 -0.3061
  163MOL0     O22404   8.588   7.550   7.291 -0.1504  0.0701  0.7467
  163MOL0     C22405   8.344   7.595   7.186  0.1024  0.4907  0.3127
  163MOL0     C22406   8.215   7.615   7.142 -0.9115 -0.0268 -0.8122
  163MOL0     N22407   7.801   7.958   7.137 -0.7911  0.9441 -0.5479
  163MOL0     N22408   7.880   8.024   7.219 -0.3539  0.6891  0.3860
  163MOL0     C22409   8.911   7.861   7.883 -1.2527  0.0465 -0.0712
  163MOL0     C22410   9.042   7.853   7.937 -0.5350  0.6502 -0.6056
  163MOL0     C22411   9.491   7.947   8.025 -0.3282  0.1558  0.0243
  163MOL0     C22412   9.532   8.034   8.124 -1.4479 -0.8474 -0.4824
  163MOL0     C22413   9.668   8.027   8.174  0.9004  0.0497 -0.0375
  163MOL0     C22414   9.761   7.930   8.133 -0.7719  0.1489  0.3786
  163MOL0     O22415   9.888   7.921   8.194 -0.6144 -1.0511  0.3785
  163MOL0     C22416   9.979   8.028   8.150  0.5184  0.3297 -0.2579
  163MOL0     C22417  10.075   8.063   8.271  0.9689 -0.6266  0.1550
  163MOL0     C22418   9.994   8.122   8.392 -0.8318  0.2156  0.6795
  163MOL0     C22419  10.057   8.250   8.460 -0.4890  0.1727 -1.2624
  163MOL0     C22420  10.190   8.237   8.526 -0.0736  0.4886 -1.2014
  163MOL0     C22421  10.297   8.230   8.572  0.3004 -0.5507  0.3132
  163MOL0     C22422   9.715   7.853   8.020 -0.0287  0.5153 -1.0007
  163MOL0     C22423   9.586   7.852   7.977  0.5297 -1.0528 -0.2047
  163MOL0     C22424   9.546   7.742   7.893  0.8289  0.5052 -0.4493
  163MOL0     H22425   9.223   7.972   7.680  0.1583  2.0504  0.0097
  163MOL0     H22426   8.994   7.993   7.582  4.5572 -0.4064 -0.2100
  163MOL0     H22427   8.780   7.884   7.489  4.1652  0.0176  1.6167
  163MOL0     H22428   8.743   8.042   7.532 -1.0201 -0.9931 -1.0593
  163MOL0     H22429   8.561   7.803   7.596  0.3638 -0.6388  0.3941
  163MOL0     H22430   8.516   7.969   7.606 -1.7973 -0.1303 -2.5145
  163MOL0     H22431   8.549   8.020   7.385 -1.4655  1.3079 -0.1977
  163MOL0     H22432   8.587   7.854   7.337 -0.7452  0.7586 -0.1697
  163MOL0     H22433   8.354   7.861   7.291  0.6596  2.0166 -0.2220
  163MOL0     H22434   8.361   7.789   7.459  2.5770 -0.6053  0.6343
  163MOL0     H22435   8.312   8.077   7.354 -0.5014  1.3885  0.9241
  163MOL0     H22436   8.323   8.030   7.527  1.9327 -2.1772 -0.1400
  163MOL0     H22437   8.134   7.934   7.302 -0.1061 -0.0937  0.4709
  163MOL0     H22438   8.119   7.871   7.468 -1.3447  2.7456  3.0029
  163MOL0     H22439   8.067   8.157   7.393 -0.5478  0.9796  0.6847
  163MOL0     H22440   8.087   8.101   7.553  2.3976  0.5136 -1.8350
  163MOL0     H22441   7.890   7.962   7.551 -2.9911 -0.6196  0.4772
  163MOL0     H22442   7.842   8.117   7.481 -2.0898 -1.2826 -0.5073
  163MOL0     H22443   7.707   7.808   7.406 -0.7711 -1.0889 -2.8380
  163MOL0     H22444   7.600   7.830   7.056  1.0963  0.1303 -0.6907
  163MOL0     H22445   7.545   7.773   7.219  1.0171 -2.1570  0.2747
  163MOL0     H22446   7.685   7.581   7.213  0.5570 -0.6602 -0.1657
  163MOL0     H22447   7.597   7.587   7.062  0.4271  2.0779 -1.4478
  163MOL0     H22448   7.804   7.521   6.986 -1.7936 -0.4895  1.9394
  163MOL0     H22449   7.782   7.695   6.947  2.3037  3.2877  1.3532
  163MOL0     H22450   7.990   7.659   6.976 -0.1120  0.8738 -0.1511
  163MOL0     H22451   7.957   7.749   7.128  1.8453 -1.0278  0.9271
  163MOL0     H22452   8.063   7.360   7.308 -0.1949  0.4561  0.7074
  163MOL0     H22453   8.296   7.300   7.473 -0.0541  0.0148 -0.4377
  163MOL0     H22454   8.387   7.222   7.333  0.6407  2.9816 -1.0031
  163MOL0     H22455   8.219   7.195   7.344  0.6231 -1.8357  1.2778
  163MOL0     H22456   8.729   7.589   7.501 -0.3581 -1.5979 -3.0571
  163MOL0     H22457   8.953   7.513   7.563  0.5220 -1.8423 -2.7572
  163MOL0     H22458   9.050   7.379   7.793 -1.8553 -0.3286  0.6361
  163MOL0     H22459   8.986   7.225   7.816  2.2532  0.6536  2.0162
  163MOL0     H22460   9.231   7.226   7.869 -1.4546  1.1848  1.2891
  163MOL0     H22461   9.217   7.113   7.723  0.8176  1.7422 -2.4368
  163MOL0     H22462   9.285   7.404   7.719  0.3799  0.6218 -0.8986
  163MOL0     H22463   9.296   7.284   7.585  1.5910 -0.7937  0.3181
  163MOL0     H22464   9.453   7.146   7.749  2.9224  0.2669  0.9637
  163MOL0     H22465   9.472   7.308   7.822 -2.1621  2.6323 -1.3277
  163MOL0     H22466   9.522   7.262   7.525 -1.0912 -2.0877  2.3067
  163MOL0     H22467   9.574   7.398   7.614 -1.3662  0.3711 -0.1595
  163MOL0     H22468   9.678   7.122   7.638 -1.2120  0.5828  2.0770
  163MOL0     H22469   9.710   7.255   7.755 -0.2551 -0.1733  0.2204
  163MOL0     H22470   9.756   7.319   7.472  0.3205  0.9820  1.1074
  163MOL0     H22471   9.863   7.190   7.518 -0.3736  0.3375 -0.1268
  163MOL0     H22472   9.961   7.434   7.546  3.0649  0.0428  2.9704
  163MOL0     H22473   9.968   7.327   7.681 -0.9138 -0.0040  1.9602
  163MOL0     H22474   8.798   7.123   7.643 -1.1746  0.7480  1.5546
  163MOL0     H22475   8.566   7.196   7.570  0.5732 -1.3784  0.7856
  163MOL0     H22476   8.428   7.653   7.150  1.6652 -0.6228  1.9426
  163MOL0     H22477   8.185   7.701   7.082 -1.7298  1.0106  0.9938
  163MOL0     H22478   8.822   7.832   7.938 -0.9712  2.8324  2.0960
  163MOL0     H22479   9.063   7.803   8.031 -1.9089 -0.5985 -0.9238
  163MOL0     H22480   9.466   8.116   8.149 -1.7179  0.1810 -4.0780
  163MOL0     H22481   9.717   8.091   8.247 -0.2871 -2.0174  2.7636
  163MOL0     H22482  10.045   7.993   8.070 -0.0403 -0.5767 -0.3352
  163MOL0     H22483   9.925   8.112   8.106 -1.3642 -2.0472 -2.8111
  163MOL0     H22484  10.146   8.140   8.239  1.4505 -0.9786  0.3647
  163MOL0     H22485  10.130   7.972   8.296 -1.1377 -1.8354  0.6313
  163MOL0     H22486   9.892   8.146   8.363 -0.7477 -1.8831 -1.6655
  163MOL0     H22487   9.994   8.039   8.464 -1.9561 -1.7191 -1.4385
  163MOL0     H22488   9.987   8.288   8.535 -0.0501 -2.3716  0.5669
  163MOL0     H22489  10.067   8.335   8.391 -1.6881  1.2134 -0.2181
  163MOL0     H22490  10.395   8.229   8.614  1.7740  4.8273 -2.1062
  163MOL0     H22491   9.785   7.776   7.990  0.8298  0.8783  0.0083
  163MOL0     H22492   9.496   7.775   7.801  0.4858 -0.5660 -0.6668
  163MOL0     H22493   9.626   7.682   7.847 -0.9571 -1.6272 -0.9396
  163MOL0     H22494   9.492   7.664   7.946  0.5707 -1.1260 -2.9328
  164MOL0     O22495   3.342   7.710   5.106  0.2007 -0.0779  0.3992
  164MOL0     C22496   3.417   7.615   5.128  0.0019 -0.9079 -0.2181
  164MOL0     O22497   3.508   7.603   5.232 -0.0117  0.1757 -0.0449
  164MOL0     C22498   3.575   7.726   5.266  0.0607  0.1558 -0.5612
  164MOL0     C22499   3.646   7.798   5.173  0.8177  0.2194  0.0865
  164MOL0     C22500   3.711   7.913   5.208 -0.8929 -0.0029  0.1523
  164MOL0     C22501   3.705   7.956   5.338 -0.2334  0.6223 -0.1884
  164MOL0     O22502   3.774   8.073   5.360 -0.5130 -0.1421  0.4477
  164MOL0     C22503   3.685   8.182   5.412 -1.1801  0.4720 -0.0172
  164MOL0     C22504   3.777   8.300   5.424 -0.2339  0.5148 -0.2013
  164MOL0     C22505   3.699   8.411   5.502 -0.0602  0.4702  0.1888
  164MOL0     C22506   3.804   8.516   5.523 -0.0869  0.0694  0.2287
  164MOL0     C22507   3.739   8.641   5.580  0.0385  0.1826 -0.0246
  164MOL0     C22508   3.841   8.752   5.606 -0.0529 -0.4448 -0.3400
  164MOL0     C22509   3.782   8.893   5.617  0.2975 -0.1759  0.1236
  164MOL0     C22510   3.871   8.987   5.700 -0.0950  1.1520  0.5072
  164MOL0     N22511   3.834   9.129   5.683  0.0340  0.3927 -0.0676
  164MOL0     C22512   3.709   9.186   5.685  0.1772  0.0408  0.1186
  164MOL0     C22513   3.727   9.314   5.722 -0.2195 -1.1917 -0.0291
  164MOL0     C22514   3.613   9.408   5.746  1.1759  0.4164 -0.0658
  164MOL0     C22515   3.617   9.441   5.897  0.6280  0.1759 -0.0722
  164MOL0     C22516   3.498   9.529   5.932  0.7180  0.2070  0.3030
  164MOL0     C22517   3.502   9.565   6.084  0.1538  0.2058  1.4797
  164MOL0     O22518   3.393   9.495   6.147 -0.8482  0.5094  0.4888
  164MOL0     C22519   3.439   9.397   6.237  0.2416 -0.6340  0.8428
  164MOL0     C22520   3.400   9.264   6.212  0.2764 -0.1797 -0.5722
  164MOL0     C22521   3.451   9.165   6.299 -0.2781  0.3461 -0.0814
  164MOL0     C22522   3.419   9.019   6.258 -0.9045  0.7429 -0.3098
  164MOL0     C22523   3.535   9.203   6.409  0.5701 -0.2208 -0.3770
  164MOL0     C22524   3.588   9.108   6.507 -0.3475 -0.4486  0.3322
  164MOL0     O22525   3.635   9.153   6.628  0.0678 -0.2868 -0.7551
  164MOL0     C22526   3.654   9.058   6.725 -0.0924  0.2922  0.7253
  164MOL0     C22527   3.779   9.072   6.797  0.8342  0.0249  0.1124
  164MOL0     C22528   3.801   8.996   6.908  0.2539  0.5220 -0.5975
  164MOL0     C22529   3.709   8.896   6.946 -0.5326  0.1426 -0.4076
  164MOL0     O22530   3.744   8.819   7.050  0.6952  0.2020 -0.7491
  164MOL0     C22531   3.658   8.717   7.090  0.2029  0.1638  0.3111
  164MOL0     C22532   3.720   8.639   7.209  0.0719  0.0916  0.3684
  164MOL0     C22533   3.735   8.720   7.341 -0.5532 -1.2479 -0.5883
  164MOL0     C22534   3.755   8.626   7.457  0.4424 -0.5913  0.1691
  164MOL0     C22535   3.763   8.677   7.596 -0.1890  0.2282 -0.7340
  164MOL0     C22536   3.867   8.786   7.624  0.3219  0.2623 -1.1218
  164MOL0     C22537   3.858   8.829   7.777 -0.2085  0.0557 -0.8744
  164MOL0     C22538   3.972   8.917   7.805  0.6223 -0.6107  0.3296
  164MOL0    Cl22539   3.920   9.091   7.784  0.0280  0.4339 -0.4172
  164MOL0     C22540   3.590   8.885   6.870 -0.5811  0.0150 -0.6279
  164MOL0     C22541   3.560   8.970   6.763 -0.0841  0.4700 -0.6964
  164MOL0     O22542   3.587   8.993   6.471 -0.1792  0.1389 -0.3200
  164MOL0     C22543   3.560   9.341   6.431  0.1097 -0.1140  0.0307
  164MOL0     C22544   3.513   9.434   6.344 -0.9596  0.0050 -0.2997
  164MOL0     N22545   3.868   9.337   5.722 -0.4894  0.1765  0.0304
  164MOL0     N22546   3.922   9.224   5.698 -0.8203 -1.1426 -0.2535
  164MOL0     C22547   3.625   7.889   5.435 -0.3076 -0.5201  0.1983
  164MOL0     C22548   3.575   7.765   5.398 -1.0116  0.8398 -0.8495
  164MOL0     C22549   3.403   7.503   5.049  0.1825 -0.4449 -0.4850
  164MOL0     C22550   3.403   7.375   5.112  0.0099 -0.9624  0.4624
  164MOL0     C22551   3.388   7.246   5.042 -0.8194  0.3885  0.2194
  164MOL0     C22552   3.387   7.252   4.902  0.5199  0.5727 -0.4467
  164MOL0     O22553   3.369   7.142   4.822 -0.1511  0.3189  0.0969
  164MOL0     C22554   3.363   7.012   4.872 -0.1102 -0.0258  0.1354
  164MOL0     C22555   3.354   6.916   4.749 -0.0163  0.0370  0.0641
  164MOL0     C22556   3.211   6.931   4.677 -0.4784 -0.6304 -0.3940
  164MOL0     C22557   3.185   6.819   4.585 -0.6230  0.2635  0.2697
  164MOL0     C22558   3.291   6.794   4.482 -0.0768  0.7720  0.6586
  164MOL0     C22559   3.379   6.794   4.390  0.3254  0.3418  0.4754
  164MOL0     C22560   3.397   7.373   4.838 -0.5216 -0.9097  0.1997
  164MOL0     C22561   3.404   7.497   4.907 -0.1259  0.9289  0.5972
  164MOL0     C22562   3.400   7.619   4.816  0.2311  0.0434 -0.6630
  164MOL0     H22563   3.655   7.766   5.070  1.0137 -0.4560  0.3100
  164MOL0     H22564   3.768   7.951   5.125 -2.5426  1.0145 -0.5709
  164MOL0     H22565   3.634   8.163   5.507 -1.5104  2.3493  0.2222
  164MOL0     H22566   3.605   8.212   5.344 -0.5908  0.1370 -0.8776
  164MOL0     H22567   3.864   8.262   5.478 -0.5766 -2.5683 -1.6301
  164MOL0     H22568   3.798   8.340   5.324 -2.2556  1.7826 -0.1921
  164MOL0     H22569   3.620   8.445   5.435 -0.2356 -1.6487 -0.7576
  164MOL0     H22570   3.655   8.363   5.590  0.0606 -0.6857 -0.3544
  164MOL0     H22571   3.889   8.487   5.586 -2.0684 -2.1656  2.0665
  164MOL0     H22572   3.833   8.555   5.425 -0.4121  0.8012  0.4133
  164MOL0     H22573   3.710   8.605   5.679  1.3593  0.9650  0.6902
  164MOL0     H22574   3.654   8.678   5.522  1.6228  1.0083 -1.9219
  164MOL0     H22575   3.909   8.724   5.687 -0.0664 -1.5450 -0.6871
  164MOL0     H22576   3.906   8.766   5.519 -0.2340 -1.9550 -0.7440
  164MOL0     H22577   3.684   8.898   5.663  0.6709  2.5871  0.8330
  164MOL0     H22578   3.763   8.937   5.518  1.5725  1.9390  0.7434
  164MOL0     H22579   3.863   8.963   5.807 -0.9097 -0.7656  0.0538
  164MOL0     H22580   3.977   8.973   5.679 -0.0081  0.6591  1.2449
  164MOL0     H22581   3.624   9.138   5.639  0.3010  0.7635 -0.8847
  164MOL0     H22582   3.518   9.357   5.728  0.4953  0.9395  1.8259
  164MOL0     H22583   3.617   9.497   5.683  1.9523  0.2174 -0.3108
  164MOL0     H22584   3.621   9.361   5.971  0.4971  2.0633  2.1123
  164MOL0     H22585   3.714   9.488   5.921  0.4652  0.0937  0.7749
  164MOL0     H22586   3.506   9.622   5.876  3.1785 -1.3994 -2.2921
  164MOL0     H22587   3.399   9.489   5.907 -0.9377  1.7186  3.7969
  164MOL0     H22588   3.600   9.547   6.129  0.6231 -4.6538 -0.8456
  164MOL0     H22589   3.480   9.672   6.089  2.6192  0.8298  0.4123
  164MOL0     H22590   3.343   9.241   6.123 -0.2168  3.5670 -1.3590
  164MOL0     H22591   3.361   9.004   6.167 -0.0584 -1.4026 -0.5487
  164MOL0     H22592   3.363   8.970   6.337  1.2341 -1.9125 -0.2833
  164MOL0     H22593   3.515   8.968   6.246 -0.3281  1.5530  0.6868
  164MOL0     H22594   3.855   9.143   6.764 -0.8975  1.3099 -1.3610
  164MOL0     H22595   3.886   9.007   6.975 -1.0260  0.4568  1.1270
  164MOL0     H22596   3.560   8.758   7.115 -0.2927  0.2354 -1.5730
  164MOL0     H22597   3.641   8.658   7.000 -1.0928  1.3242 -0.2386
  164MOL0     H22598   3.663   8.548   7.225  0.3269  0.2885  2.7938
  164MOL0     H22599   3.817   8.599   7.179  0.8135  0.3918  2.1970
  164MOL0     H22600   3.650   8.785   7.362 -1.3712 -2.0002 -1.4569
  164MOL0     H22601   3.831   8.772   7.335 -0.3403 -1.3560  1.3731
  164MOL0     H22602   3.849   8.576   7.431  0.2932 -0.2511 -1.1249
  164MOL0     H22603   3.680   8.548   7.451  0.8263 -1.0031  0.6554
  164MOL0     H22604   3.662   8.713   7.620 -0.8208 -0.7113 -1.8210
  164MOL0     H22605   3.781   8.591   7.660 -0.4202  1.2383  0.7418
  164MOL0     H22606   3.846   8.876   7.565  0.9862  0.7544 -0.6186
  164MOL0     H22607   3.968   8.758   7.591  0.3085 -0.1172 -0.8457
  164MOL0     H22608   3.854   8.744   7.846 -0.1647  1.6603  1.1754
  164MOL0     H22609   3.764   8.879   7.803 -0.1904  0.9311 -2.3612
  164MOL0     H22610   4.057   8.879   7.747 -0.3958 -0.0172 -1.6012
  164MOL0     H22611   3.993   8.904   7.912 -1.8044 -0.9926  0.7975
  164MOL0     H22612   3.512   8.813   6.895 -0.2100 -0.1103  0.2082
  164MOL0     H22613   3.464   8.964   6.713 -0.2495  0.0067 -0.3260
  164MOL0     H22614   3.621   9.378   6.514 -3.1165 -0.1252  2.6424
  164MOL0     H22615   3.535   9.540   6.357 -0.2282 -0.4009  2.4230
  164MOL0     H22616   3.620   7.940   5.531  1.0353 -1.0113  0.5463
  164MOL0     H22617   3.512   7.704   5.463 -0.4458  0.0785 -0.9949
  164MOL0     H22618   3.403   7.368   5.221  0.8752 -1.9617  0.4139
  164MOL0     H22619   3.385   7.150   5.092 -4.8373  1.3255  2.1981
  164MOL0     H22620   3.436   6.985   4.948 -0.8610  0.5164  1.0596
  164MOL0     H22621   3.273   7.001   4.933 -0.7085 -1.5942 -0.9570
  164MOL0     H22622   3.382   6.814   4.776  2.6542  0.9458  1.1006
  164MOL0     H22623   3.438   6.948   4.687  1.5940  0.1664  2.1687
  164MOL0     H22624   3.130   6.937   4.750  1.6096 -0.9135  2.1041
  164MOL0     H22625   3.202   7.028   4.628  2.6868 -0.8744 -1.7193
  164MOL0     H22626   3.086   6.839   4.544  0.0575  3.6082  0.0104
  164MOL0     H22627   3.183   6.732   4.652  2.4279 -0.7808 -0.8497
  164MOL0     H22628   3.461   6.786   4.322  0.3011 -2.5219  0.6519
  164MOL0     H22629   3.388   7.380   4.730  1.0440  2.6240  0.1420
  164MOL0     H22630   3.309   7.673   4.843  0.6112 -0.2917  1.5010
  164MOL0     H22631   3.485   7.683   4.843 -2.2001  2.0822  2.9442
  164MOL0     H22632   3.394   7.596   4.709 -1.3198  0.1770 -0.6155
  165MOL0     O22633   1.928   3.382   6.685  0.1817  0.4420 -0.9054
  165MOL0     C22634   1.931   3.486   6.750 -0.7993  0.1546  1.2722
  165MOL0     O22635   1.874   3.603   6.705 -0.3856 -1.2527 -0.2672
  165MOL0     C22636   1.803   3.580   6.589 -0.4254 -0.0077 -0.0175
  165MOL0     C22637   1.669   3.561   6.614  0.2415 -0.0986 -0.2371
  165MOL0     C22638   1.576   3.564   6.512  0.3612  0.6296 -0.0715
  165MOL0     C22639   1.619   3.586   6.380 -0.4306 -0.1590  0.2133
  165MOL0     O22640   1.538   3.575   6.271  0.1733 -0.2484  0.3758
  165MOL0     C22641   1.510   3.441   6.230  0.5828  0.4214  0.2504
  165MOL0     C22642   1.593   3.399   6.104 -0.0464 -0.5565  0.4900
  165MOL0     C22643   1.544   3.468   5.980 -0.2412  0.2440 -0.4987
  165MOL0     C22644   1.594   3.398   5.855  0.3575  0.1558  0.0593
  165MOL0     C22645   1.530   3.435   5.720  0.5832  0.1227 -0.2837
  165MOL0     C22646   1.510   3.583   5.687 -0.2623  0.1755  0.7097
  165MOL0     C22647   1.652   3.640   5.681  0.5346  0.4244  0.5693
  165MOL0     C22648   1.648   3.795   5.646 -0.3190  0.4754  0.4410
  165MOL0     N22649   1.660   3.883   5.765 -0.3704  0.0055  0.4452
  165MOL0     C22650   1.591   3.875   5.882  0.4115  0.0070  0.1260
  165MOL0     C22651   1.607   3.999   5.944  0.1172  0.9736 -0.3696
  165MOL0     C22652   1.557   4.047   6.073 -0.3857 -0.6278 -0.0922
  165MOL0     C22653   1.636   3.988   6.201 -0.3242 -0.2735 -0.7114
  165MOL0     C22654   1.785   4.016   6.192  0.2178  0.2053  0.3196
  165MOL0     C22655   1.866   3.968   6.310  1.1617 -0.0784 -0.2807
  165MOL0     O22656   1.999   3.972   6.272 -0.1475 -0.1128 -0.1857
  165MOL0     C22657   2.088   3.958   6.375  0.4293  0.3628 -0.7276
  165MOL0     C22658   2.066   3.925   6.507 -0.2561 -0.5400 -0.2008
  165MOL0     C22659   2.168   3.914   6.606  0.2762  0.1936  1.6214
  165MOL0     C22660   2.117   3.901   6.742 -0.2834  0.1245 -0.0559
  165MOL0     C22661   2.305   3.932   6.562 -0.9707  0.9500  0.0169
  165MOL0     C22662   2.413   3.880   6.639 -1.0972 -0.6224  0.3958
  165MOL0     O22663   2.536   3.938   6.613 -0.7050  0.7761 -0.0807
  165MOL0     C22664   2.658   3.881   6.666 -0.2864  0.6625 -0.3060
  165MOL0     C22665   2.730   3.967   6.749  0.2248 -0.4788  0.4679
  165MOL0     C22666   2.854   3.913   6.789 -0.3840  0.3955 -0.6211
  165MOL0     C22667   2.900   3.782   6.752 -0.6035 -0.0956  1.0265
  165MOL0     O22668   3.033   3.757   6.805  0.6264  0.4765 -0.1761
  165MOL0     C22669   3.088   3.630   6.762  1.2613  0.2864  0.2230
  165MOL0     C22670   3.228   3.625   6.815  0.0221  0.0037 -0.2009
  165MOL0     C22671   3.292   3.491   6.762  0.0951 -0.6211 -0.1992
  165MOL0     C22672   3.431   3.475   6.823 -0.5419 -0.7622  0.3295
  165MOL0     C22673   3.503   3.359   6.742  0.1986 -0.3022 -0.2257
  165MOL0     C22674   3.652   3.359   6.763 -0.6577  0.1576  0.7915
  165MOL0     C22675   3.696   3.327   6.913  0.0442 -0.4088  0.9384
  165MOL0     C22676   3.843   3.336   6.941  0.3516 -0.6863  0.4208
  165MOL0    Cl22677   3.882   3.263   7.105  0.6318  0.1072 -0.1109
  165MOL0     C22678   2.818   3.703   6.677 -1.0499  0.0305  0.2325
  165MOL0     C22679   2.699   3.744   6.630 -0.1372 -0.3852  0.3352
  165MOL0     O22680   2.401   3.798   6.724 -0.2099  0.0792  0.5261
  165MOL0     C22681   2.327   3.974   6.426 -0.3337 -0.0723 -0.6173
  165MOL0     C22682   2.215   3.979   6.333 -1.2508  0.1977 -0.2060
  165MOL0     N22683   1.692   4.072   5.868  0.2678  0.5281 -0.1176
  165MOL0     N22684   1.718   4.004   5.762  0.3334 -1.4072 -0.7696
  165MOL0     C22685   1.758   3.601   6.355 -0.7037  0.5742  0.0679
  165MOL0     C22686   1.851   3.600   6.461  0.0745 -0.0364 -0.4149
  165MOL0     C22687   2.020   3.489   6.871 -0.6326 -0.7756  0.0935
  165MOL0     C22688   1.976   3.580   6.978 -0.5963 -0.8536 -0.6448
  165MOL0     C22689   2.041   3.587   7.101  0.1639 -1.6537  0.6321
  165MOL0     C22690   2.158   3.519   7.119 -0.6515  0.8000  0.1865
  165MOL0     O22691   2.231   3.563   7.227  0.2426 -0.2946  0.7879
  165MOL0     C22692   2.373   3.533   7.239 -1.1335 -0.2459 -0.0943
  165MOL0     C22693   2.387   3.414   7.332 -0.1283 -0.0248 -0.2895
  165MOL0     C22694   2.341   3.434   7.470  0.1784  0.6097 -0.4080
  165MOL0     C22695   2.330   3.301   7.546  1.3652 -0.8304  0.2674
  165MOL0     C22696   2.190   3.263   7.549 -0.5217  0.3736  0.0803
  165MOL0     C22697   2.076   3.226   7.555  0.2642  0.1248 -0.7304
  165MOL0     C22698   2.200   3.439   7.013 -0.5083 -0.2412 -0.8209
  165MOL0     C22699   2.137   3.416   6.897 -0.9045  0.1650 -0.6265
  165MOL0     C22700   2.199   3.323   6.790  0.9466  0.2374 -0.0056
  165MOL0     H22701   1.627   3.567   6.713 -1.2204  0.0501 -0.8435
  165MOL0     H22702   1.475   3.544   6.546  0.4615 -2.7478 -1.3620
  165MOL0     H22703   1.407   3.430   6.194  1.4987 -2.2679 -1.8885
  165MOL0     H22704   1.530   3.370   6.310  0.3161  1.1551  0.9838
  165MOL0     H22705   1.700   3.418   6.114 -0.0258  0.7334 -1.5647
  165MOL0     H22706   1.578   3.294   6.080  0.3011 -0.1375 -1.8707
  165MOL0     H22707   1.435   3.469   5.973 -0.1817  0.1016 -1.6544
  165MOL0     H22708   1.571   3.574   5.989 -1.7559  0.5944  0.2310
  165MOL0     H22709   1.703   3.400   5.855  0.4014 -0.3423 -1.6257
  165MOL0     H22710   1.570   3.292   5.866  2.0026 -0.0221  2.6515
  165MOL0     H22711   1.427   3.398   5.723  1.0586 -1.3339 -0.9929
  165MOL0     H22712   1.577   3.390   5.632  0.6568  0.4852 -0.4317
  165MOL0     H22713   1.464   3.594   5.588  0.8306  0.8646  0.2533
  165MOL0     H22714   1.443   3.632   5.758 -2.2122 -2.1311  0.5674
  165MOL0     H22715   1.712   3.594   5.602 -1.0426 -0.0949 -0.3697
  165MOL0     H22716   1.703   3.653   5.777  1.0254  2.3156  0.1007
  165MOL0     H22717   1.733   3.818   5.582 -1.3996 -2.0695 -2.0623
  165MOL0     H22718   1.558   3.833   5.597  0.7777  1.2248 -1.0614
  165MOL0     H22719   1.527   3.793   5.913 -2.8105  1.4624 -2.1528
  165MOL0     H22720   1.454   4.014   6.086 -0.0730 -2.0909 -1.0798
  165MOL0     H22721   1.573   4.155   6.077  1.5687 -0.7469 -2.4081
  165MOL0     H22722   1.592   4.038   6.288  1.8937 -1.2683  1.0682
  165MOL0     H22723   1.621   3.881   6.214  1.2034 -0.3102  1.1109
  165MOL0     H22724   1.830   3.974   6.101  3.2728  2.3265  0.7026
  165MOL0     H22725   1.791   4.124   6.174  0.5821  0.0943 -0.2719
  165MOL0     H22726   1.857   4.025   6.403  0.8382 -0.1623 -0.2597
  165MOL0     H22727   1.825   3.867   6.323  2.7622 -0.9950 -1.9197
  165MOL0     H22728   1.964   3.898   6.534 -0.3894 -2.2125 -2.1034
  165MOL0     H22729   2.050   3.986   6.756 -0.4265 -0.2115  1.4508
  165MOL0     H22730   2.192   3.925   6.817 -0.0836  4.5289 -1.3801
  165MOL0     H22731   2.071   3.804   6.764 -0.5014 -0.9236 -4.2320
  165MOL0     H22732   2.700   4.062   6.792 -1.0645 -1.8682  2.8379
  165MOL0     H22733   2.913   3.981   6.850  0.7517 -0.2519 -0.9801
  165MOL0     H22734   3.030   3.547   6.804  1.2716  0.1208 -0.0867
  165MOL0     H22735   3.093   3.609   6.655 -2.4386 -1.4441  0.2212
  165MOL0     H22736   3.290   3.714   6.798 -0.5008  0.5127  0.4997
  165MOL0     H22737   3.206   3.620   6.922 -1.9576 -0.2208 -0.5985
  165MOL0     H22738   3.303   3.510   6.655  0.6215  2.1467  0.2645
  165MOL0     H22739   3.230   3.403   6.782 -2.3722  0.8852 -0.7688
  165MOL0     H22740   3.419   3.448   6.929 -0.8626 -3.7302 -0.3577
  165MOL0     H22741   3.493   3.565   6.824 -1.4011 -0.1529  1.4043
  165MOL0     H22742   3.452   3.265   6.765 -2.2262  0.6323 -1.3936
  165MOL0     H22743   3.486   3.370   6.634  2.6985  0.8911 -0.5828
  165MOL0     H22744   3.699   3.452   6.731 -1.2663  0.4554  0.7481
  165MOL0     H22745   3.689   3.282   6.695  1.1912  0.6197  1.2177
  165MOL0     H22746   3.680   3.220   6.927  1.4841 -0.5501  1.7303
  165MOL0     H22747   3.641   3.384   6.988 -1.0702 -0.1815 -0.0207
  165MOL0     H22748   3.856   3.445   6.942 -5.1906  0.2674  1.0524
  165MOL0     H22749   3.894   3.272   6.869  0.1018 -3.9641  2.9502
  165MOL0     H22750   2.850   3.603   6.649  1.5781  1.6463 -3.2308
  165MOL0     H22751   2.630   3.686   6.569 -2.4439  0.6483  1.8214
  165MOL0     H22752   2.430   3.995   6.399  0.1540  0.0559  1.2073
  165MOL0     H22753   2.234   4.000   6.228  2.5809  1.0263  0.4980
  165MOL0     H22754   1.784   3.615   6.251 -1.9930  1.3759 -0.1816
  165MOL0     H22755   1.955   3.626   6.449  0.1184  0.2124  0.4154
  165MOL0     H22756   1.892   3.646   6.960 -0.5433 -0.9067 -1.1189
  165MOL0     H22757   2.020   3.654   7.183  2.5113 -0.9677  0.7349
  165MOL0     H22758   2.419   3.512   7.142  0.8898  0.2573  0.7198
  165MOL0     H22759   2.416   3.618   7.292 -2.2278 -0.9168  1.9695
  165MOL0     H22760   2.491   3.387   7.350 -0.4001 -0.2386  1.0556
  165MOL0     H22761   2.334   3.331   7.284 -0.8954 -0.8465  1.8960
  165MOL0     H22762   2.414   3.497   7.523  1.1582  2.5831 -3.7799
  165MOL0     H22763   2.245   3.488   7.473  0.3756  1.0054 -0.9761
  165MOL0     H22764   2.379   3.286   7.642  2.8378 -4.1118 -0.8664
  165MOL0     H22765   2.379   3.224   7.487  0.7885  0.2882 -1.7802
  165MOL0     H22766   1.977   3.194   7.577 -0.5281  1.6498 -1.8671
  165MOL0     H22767   2.290   3.380   7.032 -2.7202 -3.3346  0.9618
  165MOL0     H22768   2.227   3.396   6.713 -0.0884  0.8283  0.1584
  165MOL0     H22769   2.283   3.271   6.837 -0.6953 -4.7049 -1.9168
  165MOL0     H22770   2.136   3.239   6.760  0.0583  0.9474 -0.1723
  166MOL0     O22771  10.011   1.035   0.813  0.5053  0.3873  0.4268
  166MOL0     C22772   9.977   1.128   0.885  0.4187  0.6014  0.0997
  166MOL0     O22773   9.978   1.130   1.023  0.1578  0.4259  0.1685
  166MOL0     C22774   9.995   1.020   1.100  0.1307 -1.2698 -0.5348
  166MOL0     C22775   9.942   0.895   1.078 -0.6066 -1.1830 -0.0456
  166MOL0     C22776   9.968   0.794   1.163 -0.9684  0.5429 -0.6058
  166MOL0     C22777  10.039   0.817   1.283  0.4278 -1.4040  1.1064
  166MOL0     O22778  10.054   0.707   1.359  0.3235 -0.0305 -0.2123
  166MOL0     C22779  10.111   0.708   1.491 -0.8952 -0.5769 -0.8869
  166MOL0     C22780  10.089   0.576   1.557 -0.4262  0.2663 -0.9671
  166MOL0     C22781  10.168   0.556   1.694  0.2155  0.9042 -0.6289
  166MOL0     C22782  10.107   0.455   1.787  0.5102 -0.2455 -0.1012
  166MOL0     C22783  10.208   0.394   1.883  0.1406 -0.9408  0.3422
  166MOL0     C22784  10.125   0.295   1.968  0.9395  0.7556 -0.6572
  166MOL0     C22785  10.200   0.200   2.057 -0.8011  1.0057  0.1674
  166MOL0     C22786  10.115   0.150   2.180 -0.1524  0.0441 -0.2288
  166MOL0     N22787  10.182   0.060   2.277 -0.2418 -0.4084  0.3513
  166MOL0     C22788  10.192  -0.076   2.259 -0.8877 -0.1688  0.0567
  166MOL0     C22789  10.288  -0.109   2.346 -0.1296 -0.3325  0.4720
  166MOL0     C22790  10.350  -0.238   2.374  0.0962  0.1143  0.2700
  166MOL0     C22791  10.249  -0.357   2.415 -0.1667  0.2196 -0.3440
  166MOL0     C22792  10.317  -0.458   2.507 -0.2112  0.3375 -0.4291
  166MOL0     C22793  10.239  -0.578   2.531 -0.0796 -0.0221  0.0461
  166MOL0     O22794  10.294  -0.652   2.633 -0.3773 -0.5810 -0.6080
  166MOL0     C22795  10.212  -0.665   2.743 -0.4194 -0.3578  0.7172
  166MOL0     C22796  10.073  -0.666   2.754  0.2032 -0.6322  0.4427
  166MOL0     C22797  10.004  -0.663   2.871 -0.4895  1.1399 -1.0702
  166MOL0     C22798   9.852  -0.676   2.866 -0.3388 -0.1858  0.0400
  166MOL0     C22799  10.067  -0.639   2.992 -0.5472  0.2832 -1.0679
  166MOL0     C22800  10.001  -0.628   3.129 -0.5002  0.3185 -0.4385
  166MOL0     O22801  10.093  -0.593   3.233 -0.2693  0.1202 -0.1587
  166MOL0     C22802  10.059  -0.598   3.364  0.0344  0.0694 -0.5446
  166MOL0     C22803   9.971  -0.686   3.425  0.0678 -0.4097  0.0756
  166MOL0     C22804   9.958  -0.677   3.563  0.7651  0.0368  1.3718
  166MOL0     C22805  10.035  -0.579   3.635 -0.7824 -0.3992 -0.0670
  166MOL0     O22806  10.033  -0.572   3.772 -0.5698  0.5421  0.4720
  166MOL0     C22807   9.994  -0.682   3.850  0.0508  0.3284 -0.0689
  166MOL0     C22808  10.097  -0.800   3.841 -0.5520  0.2027 -0.0498
  166MOL0     C22809  10.047  -0.913   3.925  0.0871  0.5344  0.1476
  166MOL0     C22810  10.158  -1.020   3.912 -0.6302 -0.4898 -0.5511
  166MOL0     C22811  10.132  -1.120   3.810 -0.2229  0.4419  0.7662
  166MOL0     C22812  10.023  -1.226   3.847 -0.0945 -0.6397  0.0152
  166MOL0     C22813  10.072  -1.349   3.939 -0.9825 -0.6104  0.8026
  166MOL0     C22814  10.190  -1.420   3.860 -0.6155  0.3584 -0.2424
  166MOL0    Cl22815  10.253  -1.542   3.970 -0.0144 -0.5533 -0.1990
  166MOL0     C22816  10.119  -0.492   3.570 -0.5889  0.0396  0.5181
  166MOL0     C22817  10.121  -0.502   3.429  0.1328 -0.4057 -0.8921
  166MOL0     O22818   9.880  -0.642   3.145  0.1292  0.1376  0.1005
  166MOL0     C22819  10.205  -0.634   2.980  0.2115  0.4000 -1.4723
  166MOL0     C22820  10.273  -0.645   2.859 -0.2525 -0.1934  0.0594
  166MOL0     N22821  10.324   0.004   2.416  0.0754  0.2041 -0.2057
  166MOL0     N22822  10.272   0.110   2.369  0.7144  0.7472  0.2442
  166MOL0     C22823  10.100   0.943   1.306 -0.0723 -0.0548 -0.5775
  166MOL0     C22824  10.078   1.037   1.210 -0.7745 -0.9798  0.7679
  166MOL0     C22825   9.937   1.258   0.830  1.0214 -0.8074 -1.1046
  166MOL0     C22826   9.870   1.351   0.911 -0.4270 -0.2330 -0.2782
  166MOL0     C22827   9.829   1.477   0.863 -0.8331 -0.2065  1.1739
  166MOL0     C22828   9.848   1.507   0.727  0.9861  0.9769  0.0169
  166MOL0     O22829   9.804   1.630   0.669 -0.1816 -0.8053 -0.4051
  166MOL0     C22830   9.739   1.733   0.751 -0.6383 -0.9517 -0.7342
  166MOL0     C22831   9.660   1.845   0.673 -0.0587 -0.1488  0.7449
  166MOL0     C22832   9.755   1.958   0.621 -0.3326  0.0874  0.0391
  166MOL0     C22833   9.706   2.038   0.497  0.0652  0.8173 -0.9052
  166MOL0     C22834   9.573   2.089   0.526 -1.1334  0.4102  0.4595
  166MOL0     C22835   9.460   2.133   0.553 -0.4621 -0.4207 -0.2659
  166MOL0     C22836   9.908   1.419   0.646 -0.3405 -0.5959 -0.0991
  166MOL0     C22837   9.960   1.297   0.690 -0.3579 -0.1258  0.0703
  166MOL0     C22838  10.017   1.203   0.583 -0.6152 -0.0012 -0.4482
  166MOL0     H22839   9.889   0.878   0.985 -0.7096  1.3579 -0.5151
  166MOL0     H22840   9.919   0.697   1.155 -2.1472  0.9385  1.1081
  166MOL0     H22841  10.052   0.780   1.548  0.0108 -1.8517  1.8470
  166MOL0     H22842  10.217   0.734   1.483  0.1196 -4.0566 -0.5444
  166MOL0     H22843   9.983   0.582   1.582 -0.4129  2.0769 -1.1722
  166MOL0     H22844  10.096   0.501   1.479 -0.1474  0.4545 -1.1271
  166MOL0     H22845  10.273   0.526   1.683 -0.7702 -2.9846 -0.8721
  166MOL0     H22846  10.184   0.644   1.756  1.7002 -1.0289  1.9694
  166MOL0     H22847  10.035   0.513   1.845 -1.6426 -1.5206 -1.3813
  166MOL0     H22848  10.059   0.378   1.725 -1.4268 -0.5486  1.6825
  166MOL0     H22849  10.262   0.473   1.935 -0.3933  1.3507 -2.3404
  166MOL0     H22850  10.276   0.335   1.821  3.4399  1.9001  0.9656
  166MOL0     H22851  10.054   0.351   2.029  1.9307  2.2761 -0.8543
  166MOL0     H22852  10.064   0.235   1.900 -1.0284  2.8396 -0.8738
  166MOL0     H22853  10.293   0.248   2.091 -0.4684 -1.8359  3.8266
  166MOL0     H22854  10.229   0.106   2.009 -2.9460 -0.1719  1.0327
  166MOL0     H22855  10.076   0.237   2.234 -2.0580  0.4880 -2.1738
  166MOL0     H22856  10.039   0.083   2.138  1.4659 -4.2316  2.9591
  166MOL0     H22857  10.131  -0.145   2.202 -1.1623  0.1651 -0.0588
  166MOL0     H22858  10.421  -0.215   2.454 -1.2025  1.0318  1.1996
  166MOL0     H22859  10.399  -0.268   2.281 -1.1877  2.6838 -1.3588
  166MOL0     H22860  10.169  -0.310   2.472  0.7448 -1.8747  2.9136
  166MOL0     H22861  10.198  -0.406   2.332  0.3716 -1.7218  0.4273
  166MOL0     H22862  10.420  -0.483   2.479 -0.1863 -0.1692  0.0985
  166MOL0     H22863  10.325  -0.413   2.606  2.7459  0.5341 -0.6740
  166MOL0     H22864  10.134  -0.553   2.548 -0.1366  3.0824 -3.5435
  166MOL0     H22865  10.234  -0.639   2.441 -2.6398 -0.0701  0.1358
  166MOL0     H22866  10.016  -0.675   2.662 -0.3068 -2.2725  0.8862
  166MOL0     H22867   9.825  -0.777   2.901 -2.5515 -0.0364 -1.0147
  166MOL0     H22868   9.830  -0.653   2.761 -2.6051 -0.8514  0.3164
  166MOL0     H22869   9.808  -0.593   2.922 -0.9125 -2.8274  3.9193
  166MOL0     H22870   9.924  -0.765   3.366 -1.2702  1.4197 -1.4063
  166MOL0     H22871   9.895  -0.756   3.603 -1.8183  0.0404 -2.1537
  166MOL0     H22872  10.001  -0.650   3.955  2.5128  0.4296 -0.2007
  166MOL0     H22873   9.892  -0.712   3.825 -0.4942  0.8743  1.3545
  166MOL0     H22874  10.093  -0.835   3.737  2.4119 -1.1098  0.1611
  166MOL0     H22875  10.200  -0.770   3.860 -0.7588  1.0081 -0.1710
  166MOL0     H22876   9.954  -0.959   3.888 -0.0970  0.7365  0.3586
  166MOL0     H22877  10.034  -0.881   4.029  0.7990 -2.7734  1.3831
  166MOL0     H22878  10.182  -1.063   4.010  1.5269  2.7298  0.4951
  166MOL0     H22879  10.251  -0.975   3.878 -0.5607  0.3681  0.7096
  166MOL0     H22880  10.100  -1.062   3.723  1.0533  0.0272 -0.0146
  166MOL0     H22881  10.220  -1.168   3.765 -0.3008  2.1761 -1.4080
  166MOL0     H22882   9.986  -1.268   3.752  0.0087 -1.8125  0.4786
  166MOL0     H22883   9.955  -1.163   3.905  1.3481 -0.7011  1.8709
  166MOL0     H22884   9.993  -1.423   3.955 -1.7649  0.1300  0.4166
  166MOL0     H22885  10.107  -1.312   4.036  0.3401  0.7412 -0.1464
  166MOL0     H22886  10.271  -1.354   3.827 -1.0634  0.9596 -0.1515
  166MOL0     H22887  10.149  -1.469   3.771  0.0558  0.2414 -0.4896
  166MOL0     H22888  10.186  -0.423   3.620 -1.1362  1.9002 -1.1655
  166MOL0     H22889  10.187  -0.441   3.368 -3.1086 -0.0596 -4.4209
  166MOL0     H22890  10.250  -0.606   3.074 -2.6428  2.7830 -0.6389
  166MOL0     H22891  10.380  -0.630   2.863  0.1914 -2.5248 -1.0174
  166MOL0     H22892  10.158   0.957   1.397 -0.6401  1.8557 -0.4597
  166MOL0     H22893  10.123   1.132   1.236 -0.1798 -1.6727  2.3967
  166MOL0     H22894   9.842   1.329   1.014  1.5035  0.1441  0.3631
  166MOL0     H22895   9.786   1.547   0.934  1.6376  1.4490  1.1814
  166MOL0     H22896   9.671   1.683   0.821  0.6539 -0.3122  1.0574
  166MOL0     H22897   9.804   1.786   0.822 -0.2209 -0.4077 -1.5042
  166MOL0     H22898   9.586   1.887   0.741  0.2815  1.5014  0.1373
  166MOL0     H22899   9.607   1.797   0.591 -1.8714  3.2513 -0.2457
  166MOL0     H22900   9.759   2.030   0.703 -0.6345  0.6922 -0.4657
  166MOL0     H22901   9.853   1.915   0.601 -0.1785  0.2481  0.4420
  166MOL0     H22902   9.721   1.983   0.404  0.9885 -2.8456  1.1598
  166MOL0     H22903   9.764   2.130   0.498  1.0524  0.3609  3.2713
  166MOL0     H22904   9.365   2.174   0.580 -0.5167 -0.3939 -0.4967
  166MOL0     H22905   9.926   1.437   0.540  0.3212 -0.3003  0.0617
  166MOL0     H22906  10.038   1.251   0.487 -1.0384  2.2054  0.4886
  166MOL0     H22907  10.111   1.162   0.620 -1.0939  0.3674  1.2525
  166MOL0     H22908   9.955   1.115   0.562  0.9062 -0.7276 -2.1767
  167MOL0     O22909   9.683   8.671   8.816 -0.2555 -0.5712  0.1926
  167MOL0     C22910   9.771   8.742   8.866 -0.3546 -1.4347  0.5887
  167MOL0     O22911   9.751   8.831   8.970  0.0170 -0.3732 -0.7437
  167MOL0     C22912   9.621   8.817   9.026 -1.2304 -0.3025 -1.1295
  167MOL0     C22913   9.530   8.910   8.976  0.4630 -0.4453  0.1336
  167MOL0     C22914   9.412   8.925   9.038 -0.4756 -0.8157  0.0939
  167MOL0     C22915   9.364   8.843   9.139 -0.0854 -0.0081  0.4966
  167MOL0     O22916   9.232   8.852   9.180  0.5692  0.1116  0.0724
  167MOL0     C22917   9.169   8.748   9.258 -0.4759  0.3442 -0.6135
  167MOL0     C22918   9.026   8.788   9.305  0.2432 -0.5845  0.5216
  167MOL0     C22919   8.957   8.683   9.388 -0.0728 -1.0180  0.2738
  167MOL0     C22920   9.020   8.541   9.369  0.0223 -0.3481  0.9931
  167MOL0     C22921   8.937   8.438   9.441  0.4341  0.2014  0.5023
  167MOL0     C22922   8.985   8.294   9.416 -0.0668  0.3110 -0.6318
  167MOL0     C22923   8.923   8.191   9.509  0.1537 -0.3437  0.2103
  167MOL0     C22924   8.999   8.193   9.646 -0.6744  0.4070 -0.2002
  167MOL0     N22925   8.952   8.103   9.741 -0.1130  0.5628 -0.3307
  167MOL0     C22926   8.984   7.970   9.743  0.0247 -0.1825  0.4800
  167MOL0     C22927   8.907   7.913   9.833 -0.2663 -0.1018 -0.4814
  167MOL0     C22928   8.928   7.778   9.889  0.5472 -0.2212  0.0063
  167MOL0     C22929   9.058   7.788   9.969 -0.4511  0.0298  0.1186
  167MOL0     C22930   9.094   7.658  10.042 -0.5869 -0.5840  0.8902
  167MOL0     C22931   9.080   7.519   9.977 -1.1174 -0.0446  0.5770
  167MOL0     O22932   9.164   7.436  10.062  0.6533  0.0346  0.2862
  167MOL0     C22933   9.113   7.357  10.157  0.1804  1.2443  0.1908
  167MOL0     C22934   8.983   7.327  10.166  0.3774  0.1906 -0.5067
  167MOL0     C22935   8.937   7.242  10.270 -0.3338 -0.1469 -0.4619
  167MOL0     C22936   8.793   7.192  10.259  0.7971 -0.2560  0.1757
  167MOL0     C22937   9.024   7.191  10.375 -0.3425 -0.3110  0.0694
  167MOL0     C22938   8.997   7.095  10.479  0.2053 -0.2935  0.2874
  167MOL0     O22939   8.872   7.130  10.542 -0.3729  0.7040 -0.4423
  167MOL0     C22940   8.809   7.014  10.591 -0.7737 -0.3068  0.6106
  167MOL0     C22941   8.833   6.956  10.718  0.1260  0.4238  0.2483
  167MOL0     C22942   8.748   6.854  10.763  0.1454 -0.0355  0.3661
  167MOL0     C22943   8.637   6.811  10.684 -0.0309 -0.5778 -0.0184
  167MOL0     O22944   8.572   6.703  10.740 -0.1954  0.3709 -0.2768
  167MOL0     C22945   8.434   6.680  10.712 -0.2821  0.5716 -0.5630
  167MOL0     C22946   8.421   6.564  10.609 -0.1714 -0.4732  0.0616
  167MOL0     C22947   8.451   6.437  10.671  0.2251  1.0749 -0.1541
  167MOL0     C22948   8.332   6.370  10.747  0.1231  0.0953  0.8189
  167MOL0     C22949   8.262   6.263  10.661  0.8923 -0.2856  0.1959
  167MOL0     C22950   8.126   6.306  10.603 -0.3637 -1.2263 -0.4595
  167MOL0     C22951   8.078   6.203  10.513  0.2331 -0.3067  1.5189
  167MOL0     C22952   7.931   6.183  10.500  0.0788 -0.5992  0.4459
  167MOL0    Cl22953   7.851   6.313  10.398 -0.3453  0.5572  0.2485
  167MOL0     C22954   8.601   6.875  10.564 -1.5307  0.6681  0.4606
  167MOL0     C22955   8.686   6.983  10.520 -0.6925 -0.1714 -0.2092
  167MOL0     O22956   9.070   7.003  10.503  0.8020 -0.0852 -0.0985
  167MOL0     C22957   9.163   7.226  10.354  0.2001  0.0734  0.1519
  167MOL0     C22958   9.209   7.313  10.257  0.2677 -1.2806  0.7750
  167MOL0     N22959   8.824   8.008   9.891 -0.1660 -0.3274  0.3661
  167MOL0     N22960   8.846   8.123   9.830 -0.7728  0.1485  0.0598
  167MOL0     C22961   9.449   8.746   9.181  0.1445  0.2697 -1.3377
  167MOL0     C22962   9.586   8.732   9.134  0.5539 -0.2690 -0.8459
  167MOL0     C22963   9.904   8.748   8.803  0.0826  0.1181 -0.2736
  167MOL0     C22964   9.969   8.870   8.802 -0.6933  0.0407 -0.2657
  167MOL0     C22965  10.087   8.888   8.729 -0.5800 -0.0101 -0.3845
  167MOL0     C22966  10.165   8.782   8.686  0.1267 -0.3216  0.4389
  167MOL0     O22967  10.298   8.806   8.649  0.7029 -0.5885 -0.3891
  167MOL0     C22968  10.362   8.689   8.584 -0.3181 -0.7793  0.2915
  167MOL0     C22969  10.310   8.649   8.439 -0.3377 -0.4200  0.6533
  167MOL0     C22970  10.352   8.759   8.327 -0.1156  0.5731 -0.1091
  167MOL0     C22971  10.497   8.820   8.332  0.5330  1.2612 -0.6862
  167MOL0     C22972  10.607   8.721   8.318  0.8238  0.2976 -0.2044
  167MOL0     C22973  10.689   8.630   8.325 -0.0410  0.1131 -0.4828
  167MOL0     C22974  10.104   8.651   8.698 -0.3807  0.6914  0.8591
  167MOL0     C22975   9.971   8.640   8.733  0.5840  0.1068 -0.1706
  167MOL0     C22976   9.907   8.498   8.736 -0.2793  0.5216 -0.4090
  167MOL0     H22977   9.551   8.967   8.886  2.6475 -3.5100 -1.4581
  167MOL0     H22978   9.343   8.990   8.985  2.3649 -0.5975 -3.8289
  167MOL0     H22979   9.233   8.737   9.346  0.4308 -2.4603 -1.5334
  167MOL0     H22980   9.180   8.653   9.205  0.3459 -0.4271  0.8589
  167MOL0     H22981   9.035   8.884   9.357 -0.8431 -1.0280  1.5626
  167MOL0     H22982   8.969   8.803   9.213 -0.2971 -0.8770  0.8071
  167MOL0     H22983   8.979   8.716   9.490 -1.4596  2.8328 -0.5004
  167MOL0     H22984   8.848   8.683   9.381 -0.1469  1.9898  0.0909
  167MOL0     H22985   9.022   8.516   9.263  0.1768  0.5495  0.7760
  167MOL0     H22986   9.122   8.525   9.406  0.9546 -2.0078 -1.9621
  167MOL0     H22987   8.834   8.449   9.408  0.1956  1.9786  1.7143
  167MOL0     H22988   8.937   8.456   9.549 -0.8067 -1.2537  0.7861
  167MOL0     H22989   8.960   8.280   9.310  0.6794 -0.7850 -0.6825
  167MOL0     H22990   9.094   8.292   9.429 -0.2617  0.9505  1.4685
  167MOL0     H22991   8.930   8.095   9.458 -0.0415  0.3360 -1.1319
  167MOL0     H22992   8.819   8.224   9.508  0.0070 -0.6310 -2.9391
  167MOL0     H22993   9.104   8.163   9.641 -1.3848 -2.8796  1.7198
  167MOL0     H22994   8.989   8.292   9.692 -1.5645  1.0871 -1.7362
  167MOL0     H22995   9.078   7.931   9.705  1.1361  0.0289  2.8411
  167MOL0     H22996   8.936   7.702   9.811 -2.7746 -2.4155  1.5946
  167MOL0     H22997   8.838   7.750   9.944  0.5757 -2.4463 -0.9889
  167MOL0     H22998   9.141   7.820   9.907  0.4406 -1.3948  0.5373
  167MOL0     H22999   9.042   7.869  10.041  1.3636  1.2059 -0.7699
  167MOL0     H23000   9.198   7.679  10.069 -0.5849  1.1663 -0.3587
  167MOL0     H23001   9.031   7.655  10.131 -0.3753 -1.0588  1.0291
  167MOL0     H23002   8.978   7.491   9.949 -0.0927 -1.1407 -2.4495
  167MOL0     H23003   9.119   7.513   9.875 -3.4129 -0.1288 -0.3447
  167MOL0     H23004   8.916   7.348  10.083 -2.0992 -0.6846  1.1584
  167MOL0     H23005   8.751   7.227  10.353  1.6695  1.2286  0.0390
  167MOL0     H23006   8.789   7.083  10.243 -0.1804 -0.1856 -0.1054
  167MOL0     H23007   8.736   7.238  10.178  1.0295 -2.5063 -1.3860
  167MOL0     H23008   8.927   6.972  10.771  0.7072 -1.2353 -0.2267
  167MOL0     H23009   8.748   6.798  10.856 -1.5408 -2.2393 -0.8727
  167MOL0     H23010   8.400   6.662  10.815  1.2255 -2.3802 -0.4847
  167MOL0     H23011   8.385   6.772  10.679  0.7358 -0.4965 -6.0313
  167MOL0     H23012   8.317   6.555  10.577 -0.5522  0.7567  0.8447
  167MOL0     H23013   8.487   6.583  10.524 -1.0480  2.8504 -0.0131
  167MOL0     H23014   8.520   6.467  10.750  0.8971  3.8440 -1.6766
  167MOL0     H23015   8.505   6.377  10.597 -0.2771  2.1691 -1.4453
  167MOL0     H23016   8.263   6.451  10.773  1.8372  1.4576  1.3221
  167MOL0     H23017   8.373   6.320  10.834 -1.6857  0.9375  2.2237
  167MOL0     H23018   8.323   6.236  10.574 -1.0358  1.6870 -1.9117
  167MOL0     H23019   8.256   6.167  10.712  3.2712 -0.9490 -0.6437
  167MOL0     H23020   8.155   6.400  10.555  2.1182 -1.1395  1.0334
  167MOL0     H23021   8.059   6.328  10.687  0.6251 -1.4048  0.3995
  167MOL0     H23022   8.113   6.106  10.549 -1.0906 -2.4234 -2.2809
  167MOL0     H23023   8.126   6.216  10.415  1.7295 -0.3671  2.2135
  167MOL0     H23024   7.886   6.196  10.599  0.0584 -1.3544  0.5479
  167MOL0     H23025   7.911   6.085  10.454  2.6341  1.0714 -5.0622
  167MOL0     H23026   8.518   6.850  10.498 -1.5040  0.7541  0.3944
  167MOL0     H23027   8.675   7.044  10.431  0.6753 -0.0618 -0.3209
  167MOL0     H23028   9.237   7.174  10.414 -0.0126 -3.1827 -2.1844
  167MOL0     H23029   9.316   7.328  10.243 -0.1447 -0.4201 -2.0496
  167MOL0     H23030   9.420   8.665   9.247 -2.5262  3.5692  1.9678
  167MOL0     H23031   9.646   8.646   9.163  0.1289 -0.3886 -0.3068
  167MOL0     H23032   9.927   8.959   8.848 -1.8381 -0.0571 -1.0841
  167MOL0     H23033  10.117   8.992   8.720 -3.6575  1.1106  1.1133
  167MOL0     H23034  10.468   8.708   8.563  0.4192 -3.0121  1.6222
  167MOL0     H23035  10.351   8.605   8.653 -0.5499 -0.5488  0.5432
  167MOL0     H23036  10.202   8.633   8.431 -0.1315 -0.8368 -2.6045
  167MOL0     H23037  10.360   8.555   8.414  2.4857  1.2930 -0.6309
  167MOL0     H23038  10.350   8.709   8.230 -1.6797  0.3848 -0.0111
  167MOL0     H23039  10.276   8.837   8.321 -1.4162 -0.6921 -0.6711
  167MOL0     H23040  10.521   8.869   8.426 -1.5568  0.2745  0.4311
  167MOL0     H23041  10.491   8.884   8.243 -0.2635  0.9586 -0.8601
  167MOL0     H23042  10.760   8.552   8.339 -0.2962  0.1698  1.3126
  167MOL0     H23043  10.157   8.560   8.669  1.2015  2.7941 -3.8510
  167MOL0     H23044   9.852   8.495   8.642  0.6820 -0.0329 -0.9749
  167MOL0     H23045   9.984   8.421   8.748  1.0186  1.6879 -0.8905
  167MOL0     H23046   9.835   8.484   8.817 -0.4545  0.5014 -0.5669
  168MOL0     O23047   2.962   8.625  11.185  0.4955  0.0104  0.0547
  168MOL0     C23048   3.047   8.679  11.120 -0.3550  0.7618 -0.2946
  168MOL0     O23049   3.106   8.807  11.140 -0.3871 -0.3289 -0.5270
  168MOL0     C23050   3.026   8.906  11.201 -0.1674 -0.1518 -0.1177
  168MOL0     C23051   3.038   9.033  11.125  0.1051  1.0244  0.0075
  168MOL0     C23052   2.974   9.132  11.186 -0.4759  0.3926  0.5871
  168MOL0     C23053   2.890   9.133  11.301 -0.2302  0.1358  0.1251
  168MOL0     O23054   2.854   9.259  11.349 -0.1456 -0.1735  0.1906
  168MOL0     C23055   2.790   9.270  11.480  0.0435 -0.2224  0.1711
  168MOL0     C23056   2.644   9.251  11.475  0.5381 -0.6745  0.0182
  168MOL0     C23057   2.582   9.349  11.370  0.8066  0.3093  0.0668
  168MOL0     C23058   2.627   9.497  11.365  0.4652  0.3784  0.1975
  168MOL0     C23059   2.549   9.586  11.270  0.0392 -0.6733 -0.0147
  168MOL0     C23060   2.400   9.583  11.286 -0.0854  0.3440  0.5542
  168MOL0     C23061   2.346   9.715  11.238  0.2828  0.4844 -0.3434
  168MOL0     C23062   2.191   9.707  11.220 -0.1989  0.0372 -0.4252
  168MOL0     N23063   2.128   9.845  11.199  0.3734 -0.0490  0.3529
  168MOL0     C23064   2.101   9.908  11.078  0.3192 -0.3478  0.8093
  168MOL0     C23065   2.001   9.992  11.107 -0.6615 -0.3750  0.1599
  168MOL0     C23066   1.932  10.076  10.998 -0.0219  0.4005 -0.4291
  168MOL0     C23067   1.785  10.113  11.013 -0.7617 -0.2747  0.0564
  168MOL0     C23068   1.743  10.247  10.930 -0.2724  0.2230 -0.6239
  168MOL0     C23069   1.600  10.267  10.959 -0.1928 -0.2777 -0.2639
  168MOL0     O23070   1.599  10.316  11.091  0.4653  0.1347 -1.0846
  168MOL0     C23071   1.482  10.312  11.161  0.3493  0.1761  0.0234
  168MOL0     C23072   1.351  10.288  11.113  0.3066 -0.0962  0.3949
  168MOL0     C23073   1.239  10.288  11.196  0.6899  0.1146 -0.5612
  168MOL0     C23074   1.112  10.261  11.129 -0.6576 -0.5226 -0.6071
  168MOL0     C23075   1.253  10.339  11.326 -0.9264 -0.0076  0.4326
  168MOL0     C23076   1.153  10.332  11.435  0.0548 -0.3489  0.6894
  168MOL0     O23077   1.171  10.426  11.530  0.5282 -0.2960 -0.2852
  168MOL0     C23078   1.100  10.417  11.650 -0.4430  0.0303  0.4876
  168MOL0     C23079   1.116  10.306  11.743 -0.5569 -0.1633 -0.3337
  168MOL0     C23080   1.042  10.307  11.860  0.0888 -0.1491 -0.2311
  168MOL0     C23081   0.955  10.410  11.896 -0.3843 -0.0302 -0.7501
  168MOL0     O23082   0.890  10.404  12.016 -0.8273 -1.1525 -0.4230
  168MOL0     C23083   0.826  10.531  12.064 -0.7279  0.8848  0.2642
  168MOL0     C23084   0.799  10.527  12.210  0.5560  0.0030 -0.0294
  168MOL0     C23085   0.912  10.469  12.303  1.4211 -0.2946  0.3615
  168MOL0     C23086   1.009  10.581  12.342  0.1095 -0.1524 -0.7833
  168MOL0     C23087   1.004  10.603  12.490 -0.3931  0.4190  0.7363
  168MOL0     C23088   0.855  10.642  12.537  0.8541 -0.8130 -0.5454
  168MOL0     C23089   0.854  10.715  12.677 -0.4690  0.0905  0.3343
  168MOL0     C23090   0.719  10.755  12.742 -0.8664  0.8400 -0.0175
  168MOL0    Cl23091   0.634  10.605  12.786  0.2251  0.2541  0.0091
  168MOL0     C23092   0.944  10.516  11.809 -0.1198  0.0799 -0.2120
  168MOL0     C23093   1.007  10.516  11.681  0.8942 -0.5509 -0.6701
  168MOL0     O23094   1.080  10.238  11.449  0.2914 -0.1854  0.3499
  168MOL0     C23095   1.381  10.373  11.377  0.3832 -0.0876  1.1679
  168MOL0     C23096   1.500  10.357  11.293  0.6584 -0.2328 -0.3757
  168MOL0     N23097   1.977   9.992  11.243 -0.4773 -0.5228 -0.4043
  168MOL0     N23098   2.055   9.904  11.294 -0.0166  0.6066  0.5363
  168MOL0     C23099   2.890   9.009  11.370  0.2829  0.6298  0.3005
  168MOL0     C23100   2.968   8.894  11.324  0.9271 -0.6967 -0.3197
  168MOL0     C23101   3.088   8.593  11.004  0.3144  0.9262 -0.0214
  168MOL0     C23102   3.190   8.638  10.928  0.5951  0.1912 -0.9446
  168MOL0     C23103   3.226   8.578  10.810  0.2665 -0.0650  0.6139
  168MOL0     C23104   3.154   8.470  10.760  0.0641 -0.7751  0.8105
  168MOL0     O23105   3.200   8.401  10.650  0.1976 -0.0426 -0.1240
  168MOL0     C23106   3.196   8.467  10.520 -0.0592  0.1483  0.6644
  168MOL0     C23107   3.061   8.450  10.457  0.5641 -0.7827  0.3963
  168MOL0     C23108   3.018   8.296  10.462  0.1547  0.7781  0.1027
  168MOL0     C23109   2.879   8.262  10.403 -0.2290  1.1521 -0.1818
  168MOL0     C23110   2.773   8.313  10.499  0.0150  0.5991 -0.4038
  168MOL0     C23111   2.698   8.376  10.567 -0.3345  0.4389  0.2839
  168MOL0     C23112   3.048   8.428  10.833  0.1487 -0.2033 -0.2370
  168MOL0     C23113   3.005   8.479  10.961  0.0567 -0.1932 -0.1006
  168MOL0     C23114   2.874   8.428  11.019  0.2644 -0.3644  0.0769
  168MOL0     H23115   3.085   9.038  11.027  2.8714  0.2555  1.2183
  168MOL0     H23116   2.992   9.232  11.148 -0.8109  1.1071  2.2222
  168MOL0     H23117   2.804   9.368  11.525  0.0102 -0.0764 -0.1365
  168MOL0     H23118   2.824   9.191  11.547 -2.3462 -2.5125 -1.1236
  168MOL0     H23119   2.612   9.149  11.453 -1.6010 -0.2973  1.1228
  168MOL0     H23120   2.598   9.270  11.572 -0.3310 -0.5937 -0.3944
  168MOL0     H23121   2.589   9.308  11.269  3.2052 -1.9477  1.0251
  168MOL0     H23122   2.476   9.353  11.394  0.3311  0.0399 -1.8568
  168MOL0     H23123   2.618   9.522  11.471 -0.3188 -0.0500  0.2438
  168MOL0     H23124   2.732   9.515  11.339 -0.4585  1.4037 -3.4226
  168MOL0     H23125   2.558   9.555  11.165 -1.0763  0.0954 -0.3524
  168MOL0     H23126   2.594   9.686  11.272 -0.0611 -0.6182 -0.4330
  168MOL0     H23127   2.359   9.503  11.223  0.0761  0.3983  0.3811
  168MOL0     H23128   2.390   9.565  11.394 -2.0756  2.0511  0.7259
  168MOL0     H23129   2.399   9.737  11.146  2.1096 -0.0090  0.5441
  168MOL0     H23130   2.361   9.789  11.318  0.2522 -1.1777  1.2757
  168MOL0     H23131   2.171   9.637  11.138 -1.1011 -0.5647  0.3017
  168MOL0     H23132   2.141   9.661  11.305 -0.2973  1.2157  0.1801
  168MOL0     H23133   2.149   9.885  10.983  1.1201 -0.7409  1.3028
  168MOL0     H23134   1.938  10.031  10.898 -0.3132 -0.0535 -0.2476
  168MOL0     H23135   2.005  10.155  10.983  0.5543 -0.2693 -1.2559
  168MOL0     H23136   1.728  10.028  10.972  1.5821 -1.7210 -0.3831
  168MOL0     H23137   1.767  10.134  11.119 -0.2306  2.2729 -0.3021
  168MOL0     H23138   1.787  10.342  10.963 -1.7641  1.0360 -0.9155
  168MOL0     H23139   1.765  10.231  10.824  1.3583 -1.6000 -0.0745
  168MOL0     H23140   1.552  10.346  10.901  1.5963  0.4315 -0.8437
  168MOL0     H23141   1.537  10.181  10.936  0.5188 -1.5787  2.2302
  168MOL0     H23142   1.343  10.257  11.010 -0.6511 -1.4143  0.8498
  168MOL0     H23143   1.101  10.341  11.055 -0.3367  0.1896  0.1086
  168MOL0     H23144   1.023  10.262  11.192  1.5919 -1.8159  2.8763
  168MOL0     H23145   1.107  10.164  11.078 -0.7053 -0.1178 -1.3819
  168MOL0     H23146   1.187  10.229  11.718  1.4824  0.7155  2.3034
  168MOL0     H23147   1.048  10.225  11.932  0.1278 -0.7265 -0.8810
  168MOL0     H23148   0.888  10.619  12.045 -0.9123  0.9788  0.0887
  168MOL0     H23149   0.726  10.535  12.021 -1.8109  3.4056  2.7493
  168MOL0     H23150   0.768  10.625  12.247 -0.0104  0.8261 -2.4457
  168MOL0     H23151   0.719  10.453  12.213  0.8623 -0.3195  0.2285
  168MOL0     H23152   0.964  10.388  12.251  1.8491 -0.1594  0.5713
  168MOL0     H23153   0.866  10.426  12.392  0.0756 -0.1442 -0.2344
  168MOL0     H23154   0.984  10.678  12.297 -0.0143  1.2455  2.0533
  168MOL0     H23155   1.113  10.559  12.314  0.0678 -0.0639 -1.0114
  168MOL0     H23156   1.033  10.509  12.539  1.6530  0.0081 -1.1056
  168MOL0     H23157   1.074  10.679  12.526  1.5248 -1.6205  1.6272
  168MOL0     H23158   0.778  10.565  12.534  0.5789 -0.5108 -2.4188
  168MOL0     H23159   0.825  10.722  12.468  2.5180 -0.8342 -1.3370
  168MOL0     H23160   0.906  10.810  12.662  1.1319 -1.1752 -3.5341
  168MOL0     H23161   0.921  10.661  12.745 -0.5632 -2.1521 -1.2453
  168MOL0     H23162   0.662  10.823  12.678 -1.6109  1.1094  0.9149
  168MOL0     H23163   0.733  10.827  12.823 -1.1863  1.5787 -0.6017
  168MOL0     H23164   0.881  10.599  11.840  1.5760  0.7110  1.7206
  168MOL0     H23165   0.992  10.596  11.609  0.0755 -2.4565 -2.7084
  168MOL0     H23166   1.398  10.404  11.480  1.0795 -2.7458  1.9269
  168MOL0     H23167   1.596  10.381  11.337  1.0666 -0.5292 -1.0746
  168MOL0     H23168   2.828   9.005  11.459 -3.4600 -0.7737 -2.1051
  168MOL0     H23169   2.980   8.801  11.379  2.4654 -1.0111 -1.1315
  168MOL0     H23170   3.255   8.711  10.975  3.2809 -1.3726 -2.0504
  168MOL0     H23171   3.314   8.619  10.762 -0.6238  1.3064  0.0882
  168MOL0     H23172   3.229   8.571  10.524 -0.1482  0.1460  2.1908
  168MOL0     H23173   3.274   8.419  10.460  0.1124 -3.0472  3.1202
  168MOL0     H23174   3.068   8.487  10.355 -2.0077 -0.1614  0.3741
  168MOL0     H23175   2.989   8.519  10.503  0.3863  1.3750 -2.7910
  168MOL0     H23176   3.090   8.248  10.393  1.2541  1.6441  0.6217
  168MOL0     H23177   3.035   8.252  10.561  0.1456  1.4516  0.4081
  168MOL0     H23178   2.870   8.153  10.393  3.0269  0.7944 -0.1127
  168MOL0     H23179   2.869   8.312  10.306  0.8925 -0.9838 -1.4686
  168MOL0     H23180   2.617   8.435  10.605 -1.7508 -2.5107  2.2059
  168MOL0     H23181   2.985   8.342  10.811 -1.5529 -0.0304  3.2656
  168MOL0     H23182   2.816   8.381  10.940  0.3412 -0.1436 -0.1112
  168MOL0     H23183   2.877   8.353  11.099  2.2443 -0.9770 -0.5084
  168MOL0     H23184   2.830   8.523  11.051  2.8713  0.5461  1.2587
  169MOL0     O23185   6.703   9.570   0.202 -0.8978 -1.1098  0.3968
  169MOL0     C23186   6.642   9.585   0.310  0.3715  0.2797  0.4003
  169MOL0     O23187   6.691   9.614   0.434  0.5147  0.4334  0.4990
  169MOL0     C23188   6.829   9.605   0.435 -0.0804  0.1653 -0.8033
  169MOL0     C23189   6.918   9.712   0.408 -0.7016 -0.8260 -0.8261
  169MOL0     C23190   7.056   9.684   0.403  0.8866 -0.2069  0.0319
  169MOL0     C23191   7.103   9.556   0.437 -0.4218 -0.0312  0.2089
  169MOL0     O23192   7.234   9.530   0.414  0.3480 -0.1803  0.0852
  169MOL0     C23193   7.303   9.478   0.523 -1.2564  0.2728 -0.2838
  169MOL0     C23194   7.453   9.499   0.527  0.2641 -0.3920 -0.3396
  169MOL0     C23195   7.507   9.483   0.388 -0.0660 -1.1057  0.3830
  169MOL0     C23196   7.650   9.457   0.399 -0.2775 -0.3110 -0.9145
  169MOL0     C23197   7.726   9.454   0.256 -0.6334  0.6916 -0.5626
  169MOL0     C23198   7.660   9.378   0.137 -0.2948 -0.7104 -0.4659
  169MOL0     C23199   7.640   9.223   0.172 -0.0101 -1.2396 -0.7401
  169MOL0     C23200   7.778   9.146   0.203 -0.3810 -0.2835 -0.0246
  169MOL0     N23201   7.880   9.163   0.094  0.0600 -0.0370  0.2037
  169MOL0     C23202   7.842   9.136  -0.034 -0.6638  0.6312 -0.7945
  169MOL0     C23203   7.950   9.181  -0.109 -0.2706  0.4892  0.1166
  169MOL0     C23204   7.972   9.160  -0.254 -0.4187 -1.5668  0.1617
  169MOL0     C23205   8.036   9.033  -0.304  0.5855 -0.3770 -0.5553
  169MOL0     C23206   8.068   9.034  -0.460  0.5204  0.2992 -0.2240
  169MOL0     C23207   7.943   9.002  -0.546 -0.6381  0.6415  0.0880
  169MOL0     O23208   7.865   9.116  -0.547 -0.1309  0.3990 -0.2011
  169MOL0     C23209   7.791   9.148  -0.659 -0.1964 -0.7620  0.3617
  169MOL0     C23210   7.758   9.068  -0.779 -0.0366 -0.6040 -0.4556
  169MOL0     C23211   7.700   9.120  -0.893 -0.7894 -0.9093  0.9254
  169MOL0     C23212   7.689   9.031  -1.010  0.0015 -0.5036  0.4440
  169MOL0     C23213   7.686   9.259  -0.903 -0.2111 -0.0164 -0.3386
  169MOL0     C23214   7.626   9.337  -1.024  0.0433 -0.0941  0.3767
  169MOL0     O23215   7.580   9.457  -0.999 -0.2157 -0.0296  0.6608
  169MOL0     C23216   7.527   9.535  -1.098 -0.4220  0.0078  0.2359
  169MOL0     C23217   7.601   9.593  -1.207  0.4103 -0.4679  0.2866
  169MOL0     C23218   7.539   9.671  -1.300  0.4897  0.3686 -1.0965
  169MOL0     C23219   7.394   9.685  -1.299 -0.0524 -0.3278 -0.6399
  169MOL0     O23220   7.310   9.756  -1.384  0.4095  0.5181  0.2034
  169MOL0     C23221   7.377   9.831  -1.483  0.4158  0.7795 -0.5032
  169MOL0     C23222   7.294   9.930  -1.556  0.6208 -0.5682  0.4794
  169MOL0     C23223   7.371   9.997  -1.668  0.3138 -0.4479  0.8203
  169MOL0     C23224   7.274  10.097  -1.742  0.0116 -0.1628  0.5062
  169MOL0     C23225   7.352  10.152  -1.857 -0.2933 -0.2123  0.9899
  169MOL0     C23226   7.254  10.189  -1.977  0.9094 -0.7826 -0.3978
  169MOL0     C23227   7.316  10.311  -2.050  0.4459  0.0322  0.0058
  169MOL0     C23228   7.206  10.377  -2.137  0.7194  0.0780 -0.0989
  169MOL0    Cl23229   7.287  10.516  -2.217 -0.3703 -0.3327 -0.0173
  169MOL0     C23230   7.329   9.605  -1.197 -0.6366 -0.3412 -0.1724
  169MOL0     C23231   7.394   9.546  -1.089 -0.0467  0.1131 -0.0725
  169MOL0     O23232   7.615   9.287  -1.136  0.3034  0.7109  0.2244
  169MOL0     C23233   7.717   9.344  -0.787 -0.0707 -0.6194  1.1357
  169MOL0     C23234   7.768   9.286  -0.667  0.9562  0.5750  0.7864
  169MOL0     N23235   8.050   9.231  -0.023 -0.3076 -0.6073 -0.3657
  169MOL0     N23236   8.005   9.222   0.107 -0.2778  0.2487 -0.0192
  169MOL0     C23237   7.015   9.451   0.450  0.3583  1.0543 -0.4401
  169MOL0     C23238   6.878   9.470   0.458 -0.3390 -0.8067  1.0127
  169MOL0     C23239   6.492   9.565   0.312 -0.8805 -0.3965 -0.5976
  169MOL0     C23240   6.446   9.502   0.430 -0.1108 -0.4788 -1.0570
  169MOL0     C23241   6.315   9.458   0.447  0.8616 -1.2922  0.0360
  169MOL0     C23242   6.230   9.461   0.337  0.6769 -0.0178  0.1618
  169MOL0     O23243   6.099   9.432   0.358 -0.6592  0.0797  0.6558
  169MOL0     C23244   6.056   9.294   0.353 -0.2732  0.5491 -0.9906
  169MOL0     C23245   6.001   9.261   0.213 -1.3383  0.1372 -0.0191
  169MOL0     C23246   5.883   9.161   0.228  0.0524  0.3936 -0.0202
  169MOL0     C23247   5.928   9.014   0.272 -0.1396  0.8785  0.7000
  169MOL0     C23248   5.989   8.943   0.154 -1.2410 -0.5491  0.2295
  169MOL0     C23249   6.036   8.902   0.055  0.1070  0.3925  0.4466
  169MOL0     C23250   6.271   9.528   0.221 -0.7681 -0.5660 -1.1155
  169MOL0     C23251   6.402   9.582   0.208  0.6339 -0.4724 -0.8858
  169MOL0     C23252   6.442   9.664   0.085 -0.2630  0.1316  0.2369
  169MOL0     H23253   6.881   9.814   0.406 -0.0251 -0.4814  1.4319
  169MOL0     H23254   7.144   9.746   0.388 -0.1589  0.8152 -2.3900
  169MOL0     H23255   7.272   9.374   0.534  1.6241 -0.4993  1.8412
  169MOL0     H23256   7.258   9.530   0.609 -1.3880 -3.1159  1.9190
  169MOL0     H23257   7.474   9.602   0.555  0.6997 -0.9860  1.7394
  169MOL0     H23258   7.494   9.436   0.608 -2.7477  0.1515  1.7661
  169MOL0     H23259   7.453   9.400   0.341 -1.7034 -0.8204  1.6488
  169MOL0     H23260   7.468   9.574   0.342  0.5461 -0.0491  1.8622
  169MOL0     H23261   7.697   9.525   0.471  1.1420 -2.0403 -0.1307
  169MOL0     H23262   7.656   9.355   0.439 -1.6264 -1.0958 -2.5640
  169MOL0     H23263   7.829   9.420   0.265 -0.9003  0.1133  0.4111
  169MOL0     H23264   7.729   9.556   0.215 -2.4324  0.5821 -1.0734
  169MOL0     H23265   7.564   9.427   0.119 -0.6600 -1.3381 -0.2278
  169MOL0     H23266   7.718   9.391   0.045 -2.6241  0.7198 -1.8488
  169MOL0     H23267   7.598   9.178   0.081  0.0027 -1.0728 -0.8284
  169MOL0     H23268   7.562   9.216   0.249  0.6790  3.3679  0.6554
  169MOL0     H23269   7.823   9.198   0.288  1.2553 -1.6232 -0.0135
  169MOL0     H23270   7.769   9.038   0.219  1.3511 -0.6438 -1.2085
  169MOL0     H23271   7.748   9.098  -0.072  0.3243 -0.0296 -2.6795
  169MOL0     H23272   8.045   9.237  -0.280  2.1716 -2.8906  3.0117
  169MOL0     H23273   7.877   9.177  -0.307  1.1078 -0.6060 -2.4819
  169MOL0     H23274   8.132   9.015  -0.255  1.5855 -1.3355 -2.7276
  169MOL0     H23275   7.967   8.950  -0.288  0.4617 -0.0857  0.4917
  169MOL0     H23276   8.097   9.136  -0.488 -1.2208  1.3735  1.6278
  169MOL0     H23277   8.147   8.967  -0.495  1.2558  1.1637 -0.2700
  169MOL0     H23278   7.976   8.973  -0.646  1.7037  0.7882  0.7584
  169MOL0     H23279   7.885   8.916  -0.512  0.4272  0.8927  2.7588
  169MOL0     H23280   7.779   8.962  -0.772 -0.1673 -0.5604  0.8703
  169MOL0     H23281   7.697   8.925  -0.986  1.7401 -0.5497 -0.2020
  169MOL0     H23282   7.760   9.062  -1.087  0.1291  1.0317  1.1299
  169MOL0     H23283   7.583   9.042  -1.035 -0.5966 -1.3249  2.4247
  169MOL0     H23284   7.708   9.585  -1.216  0.1969 -2.7191 -1.0138
  169MOL0     H23285   7.608   9.724  -1.365 -0.1565  0.5086 -1.6936
  169MOL0     H23286   7.462   9.889  -1.446 -1.6628  3.8773 -0.2239
  169MOL0     H23287   7.417   9.770  -1.564 -0.7897 -0.2232 -0.3663
  169MOL0     H23288   7.200   9.887  -1.593  0.3517 -0.1955  0.7228
  169MOL0     H23289   7.276  10.010  -1.483 -1.5315  2.1802 -2.7529
  169MOL0     H23290   7.405   9.915  -1.732  0.2601 -0.2204  0.4992
  169MOL0     H23291   7.448  10.064  -1.629 -0.2651  0.7849 -0.0971
  169MOL0     H23292   7.238  10.174  -1.673 -0.1890 -1.7669  2.2788
  169MOL0     H23293   7.188  10.036  -1.771  0.7859 -0.5843 -0.9762
  169MOL0     H23294   7.403  10.244  -1.827 -0.1477  0.5411 -1.3694
  169MOL0     H23295   7.430  10.084  -1.891 -1.1513  0.1363 -2.0283
  169MOL0     H23296   7.155  10.215  -1.940  0.1817  0.6083 -3.0304
  169MOL0     H23297   7.235  10.097  -2.033 -0.0132 -0.9029  0.0972
  169MOL0     H23298   7.392  10.270  -2.116  0.7797  0.7783 -0.0840
  169MOL0     H23299   7.353  10.387  -1.980  0.4556  1.1199 -1.1324
  169MOL0     H23300   7.126  10.419  -2.075  0.4852  1.5772 -1.3487
  169MOL0     H23301   7.160  10.312  -2.212 -2.4034  0.1373  1.5818
  169MOL0     H23302   7.222   9.588  -1.209 -1.0585  1.5791  0.4930
  169MOL0     H23303   7.334   9.513  -1.005 -0.4727  2.1610  0.4925
  169MOL0     H23304   7.725   9.452  -0.789  0.8084 -0.6795 -0.2395
  169MOL0     H23305   7.787   9.360  -0.589 -2.4519  2.8497 -0.2959
  169MOL0     H23306   7.046   9.347   0.457  2.4541  1.4414 -2.6709
  169MOL0     H23307   6.809   9.389   0.480 -0.3742 -1.3007 -0.7371
  169MOL0     H23308   6.513   9.489   0.514 -3.7979  0.4863  2.3686
  169MOL0     H23309   6.282   9.410   0.539 -0.6204 -2.8269 -1.2199
  169MOL0     H23310   6.132   9.225   0.390 -1.3717 -0.1281  0.1304
  169MOL0     H23311   5.977   9.265   0.423  0.3869  1.0476 -0.0138
  169MOL0     H23312   6.085   9.221   0.156  1.1523  4.1532  0.4292
  169MOL0     H23313   5.964   9.352   0.165 -1.6681 -1.1245 -2.3168
  169MOL0     H23314   5.809   9.198   0.298 -1.2846  3.3738 -2.7661
  169MOL0     H23315   5.837   9.165   0.129  0.6538  0.7075 -0.2981
  169MOL0     H23316   5.851   8.945   0.307  0.3330 -1.8226 -3.0929
  169MOL0     H23317   6.015   9.029   0.337  1.7481 -0.6247 -1.3631
  169MOL0     H23318   6.077   8.876  -0.040 -1.3529 -1.8240  0.3635
  169MOL0     H23319   6.202   9.541   0.138 -0.2639  0.1941 -1.4230
  169MOL0     H23320   6.490   9.751   0.130  1.8674  0.6032 -2.6566
  169MOL0     H23321   6.509   9.613   0.015 -0.6779  0.8544 -0.7169
  169MOL0     H23322   6.349   9.686   0.032  1.4766 -0.5227 -3.4078
  170MOL0     O23323  10.974   2.554   3.096 -0.8951 -0.2586 -0.7523
  170MOL0     C23324  10.960   2.438   3.066  0.1439  0.0869  0.4439
  170MOL0     O23325  10.840   2.384   3.018 -0.5613 -0.6069 -0.1955
  170MOL0     C23326  10.740   2.474   2.999 -0.0892 -0.5408 -0.5527
  170MOL0     C23327  10.727   2.526   2.870  0.3359  0.8232 -0.0739
  170MOL0     C23328  10.630   2.631   2.847 -0.0352  0.6687  0.1280
  170MOL0     C23329  10.536   2.661   2.948 -0.4250 -1.3358  0.6549
  170MOL0     O23330  10.452   2.773   2.935 -0.2011 -1.1088  0.2255
  170MOL0     C23331  10.441   2.828   2.797 -1.0399  0.0018 -1.0704
  170MOL0     C23332  10.329   2.920   2.782 -0.2655  0.0624 -0.2829
  170MOL0     C23333  10.340   3.008   2.665 -0.4785  0.8258  0.2399
  170MOL0     C23334  10.198   3.061   2.631 -0.1501 -0.6593  0.3302
  170MOL0     C23335  10.196   3.193   2.558 -0.0873  0.1930 -0.3536
  170MOL0     C23336  10.046   3.218   2.516  0.7414 -0.6044  0.6001
  170MOL0     C23337  10.042   3.357   2.471 -0.2945 -1.1161  0.0035
  170MOL0     C23338  10.113   3.397   2.340 -0.5908 -0.1335  0.1090
  170MOL0     N23339  10.065   3.522   2.279  0.7482 -0.0414  0.6941
  170MOL0     C23340   9.932   3.574   2.292  0.0144 -1.2124 -0.1087
  170MOL0     C23341   9.920   3.668   2.188 -0.4904 -0.0641 -0.6038
  170MOL0     C23342   9.800   3.749   2.157  0.8654  0.3930  0.3087
  170MOL0     C23343   9.741   3.806   2.283 -0.0138 -0.3786  0.2295
  170MOL0     C23344   9.622   3.747   2.350  0.0168  0.4506  0.3266
  170MOL0     C23345   9.589   3.813   2.475  0.1033  0.4301  0.2122
  170MOL0     O23346   9.685   3.838   2.584  0.8206  0.4824 -0.9897
  170MOL0     C23347   9.750   3.732   2.645  0.3255  0.0478 -0.3528
  170MOL0     C23348   9.681   3.614   2.678  0.9793 -0.0264  0.3114
  170MOL0     C23349   9.745   3.503   2.732 -0.5816  0.8836  0.8619
  170MOL0     C23350   9.661   3.378   2.758  0.4142 -0.1956 -0.2466
  170MOL0     C23351   9.882   3.524   2.772 -0.4366  0.6886 -0.5677
  170MOL0     C23352   9.971   3.413   2.833  0.9707 -0.6324  0.0871
  170MOL0     O23353  10.097   3.442   2.869 -0.0195 -0.9896  0.0285
  170MOL0     C23354  10.167   3.352   2.938 -1.1121 -0.3773  0.2476
  170MOL0     C23355  10.143   3.297   3.065  0.5970 -0.1260  1.0345
  170MOL0     C23356  10.240   3.209   3.126  1.2424  0.0035 -0.4178
  170MOL0     C23357  10.350   3.170   3.059 -1.1776  0.2042  0.6719
  170MOL0     O23358  10.425   3.071   3.110  0.0578  0.4969  0.5505
  170MOL0     C23359  10.555   3.041   3.062 -0.9060 -0.0440 -0.2646
  170MOL0     C23360  10.664   3.122   3.150  0.2513 -0.1063  0.2012
  170MOL0     C23361  10.665   3.087   3.302  0.4399 -1.0632  0.1794
  170MOL0     C23362  10.729   2.955   3.316  0.1016  0.5677 -1.1473
  170MOL0     C23363  10.709   2.885   3.453  0.4652 -0.6764 -0.1122
  170MOL0     C23364  10.814   2.774   3.463  0.9255 -0.5558 -0.2359
  170MOL0     C23365  10.775   2.671   3.572 -0.6692  0.4606 -1.1131
  170MOL0     C23366  10.860   2.544   3.577 -0.1911 -0.7744  0.1822
  170MOL0    Cl23367  11.025   2.584   3.634 -0.1995  0.0067 -0.1125
  170MOL0     C23368  10.382   3.237   2.941 -0.5733  0.5315 -0.3967
  170MOL0     C23369  10.288   3.323   2.880 -0.7245 -0.2590 -0.1481
  170MOL0     O23370   9.923   3.301   2.828 -0.4897  0.2312 -0.0143
  170MOL0     C23371   9.953   3.643   2.746  0.0809 -0.1285 -0.2778
  170MOL0     C23372   9.888   3.743   2.675  0.6572 -0.0795 -0.4767
  170MOL0     N23373  10.037   3.667   2.115 -0.6844 -0.0356  0.2314
  170MOL0     N23374  10.125   3.583   2.174  0.9316  0.6763  0.2956
  170MOL0     C23375  10.551   2.604   3.078  0.1460  0.3195  0.7236
  170MOL0     C23376  10.653   2.508   3.103 -0.0716 -0.3922 -0.0061
  170MOL0     C23377  11.083   2.351   3.076 -0.8848  0.2283  0.2986
  170MOL0     C23378  11.067   2.217   3.130 -0.5181 -0.1134 -0.7968
  170MOL0     C23379  11.179   2.131   3.138 -0.8662  0.0151  0.4796
  170MOL0     C23380  11.309   2.161   3.089  0.3210  0.8314 -0.5656
  170MOL0     O23381  11.416   2.072   3.097  0.4621  0.0154  0.6257
  170MOL0     C23382  11.544   2.111   3.050 -0.8358  0.2494 -0.0051
  170MOL0     C23383  11.640   1.984   3.055  0.9604  0.0186 -0.0132
  170MOL0     C23384  11.693   1.956   3.202  1.4581 -0.1256 -0.4721
  170MOL0     C23385  11.733   1.809   3.209  0.1806 -0.0162  0.6351
  170MOL0     C23386  11.862   1.768   3.155  0.0918  0.0994  0.7550
  170MOL0     C23387  11.972   1.745   3.111 -0.4997  0.1506  0.6179
  170MOL0     C23388  11.320   2.288   3.040  0.4059 -0.3372 -0.2824
  170MOL0     C23389  11.214   2.386   3.030 -0.5200 -0.2992 -0.7143
  170MOL0     C23390  11.240   2.517   2.961  1.3014  0.5015  0.6132
  170MOL0     H23391  10.792   2.499   2.788 -0.1005 -0.2901 -0.0713
  170MOL0     H23392  10.631   2.677   2.749  0.5046 -0.8208 -0.6076
  170MOL0     H23393  10.415   2.756   2.718  1.3508  0.0913 -2.0158
  170MOL0     H23394  10.531   2.882   2.767  1.1119 -0.5610  3.5860
  170MOL0     H23395  10.233   2.869   2.794  0.5719 -1.3389  0.9891
  170MOL0     H23396  10.342   2.976   2.875  3.4478 -1.5913  0.4237
  170MOL0     H23397  10.415   3.085   2.683  0.9296  0.2017 -2.4573
  170MOL0     H23398  10.367   2.953   2.574 -2.1245 -0.1954  0.3193
  170MOL0     H23399  10.154   2.973   2.582  0.7390 -1.4338  0.8781
  170MOL0     H23400  10.135   3.077   2.719 -1.0879 -0.6734 -0.3225
  170MOL0     H23401  10.262   3.193   2.472  1.6441  1.1084  0.9090
  170MOL0     H23402  10.225   3.280   2.619 -2.1092  0.1889  0.7114
  170MOL0     H23403  10.008   3.150   2.439 -4.1675  4.1109 -1.8490
  170MOL0     H23404   9.981   3.213   2.604  3.2666  0.1996  2.6207
  170MOL0     H23405  10.073   3.428   2.548 -1.0470  1.7220 -2.1349
  170MOL0     H23406   9.936   3.380   2.454 -0.3922  1.0754  2.7423
  170MOL0     H23407  10.221   3.390   2.356 -0.7879  0.4179  1.8664
  170MOL0     H23408  10.098   3.319   2.264  0.1892  0.9912 -1.2524
  170MOL0     H23409   9.851   3.551   2.360 -0.0849  3.5135  1.7704
  170MOL0     H23410   9.729   3.690   2.098 -1.1532  0.3159  2.6378
  170MOL0     H23411   9.822   3.830   2.088  1.4604 -1.6160 -2.0085
  170MOL0     H23412   9.821   3.809   2.357  0.0015  1.6346  0.1874
  170MOL0     H23413   9.729   3.913   2.264  4.3543  0.1557 -0.5551
  170MOL0     H23414   9.535   3.742   2.284  0.0437  0.0960  0.3144
  170MOL0     H23415   9.664   3.649   2.377  4.8615  1.7592 -1.2884
  170MOL0     H23416   9.553   3.914   2.452 -0.0422  0.0848 -1.1889
  170MOL0     H23417   9.500   3.766   2.519  0.0728 -1.3265 -1.5912
  170MOL0     H23418   9.576   3.596   2.657  1.1377  0.4832 -1.0026
  170MOL0     H23419   9.687   3.336   2.855 -0.5192 -3.0490 -1.1271
  170MOL0     H23420   9.679   3.305   2.679  2.6229  1.0870 -1.0313
  170MOL0     H23421   9.554   3.399   2.768  0.5182 -0.4145  1.7481
  170MOL0     H23422  10.056   3.334   3.118  3.6605  3.1297  4.3671
  170MOL0     H23423  10.207   3.153   3.213  2.9422 -2.0897 -1.0353
  170MOL0     H23424  10.567   2.934   3.081  1.0619  0.3854  1.3150
  170MOL0     H23425  10.574   3.057   2.956 -0.3616 -0.6815 -0.2716
  170MOL0     H23426  10.761   3.086   3.114 -1.2233 -1.7870 -2.4757
  170MOL0     H23427  10.654   3.230   3.143  0.1398 -0.2159 -1.8465
  170MOL0     H23428  10.561   3.098   3.335 -0.3114  1.0102 -2.4935
  170MOL0     H23429  10.730   3.145   3.368 -2.1049 -0.0990  2.0308
  170MOL0     H23430  10.836   2.968   3.300 -0.2481  1.6616 -2.8497
  170MOL0     H23431  10.697   2.874   3.249  2.4372 -1.4896  0.0608
  170MOL0     H23432  10.726   2.961   3.529 -0.1526 -1.4708  0.8434
  170MOL0     H23433  10.607   2.849   3.469  1.5249 -2.7779  2.7297
  170MOL0     H23434  10.902   2.825   3.502 -0.0834 -0.3562  1.9539
  170MOL0     H23435  10.834   2.727   3.367  1.0333 -1.2310  0.1145
  170MOL0     H23436  10.671   2.642   3.556 -1.0413  1.2983 -0.2692
  170MOL0     H23437  10.780   2.721   3.669  0.7748 -0.8187 -0.5012
  170MOL0     H23438  10.865   2.509   3.474  2.2366 -2.6151  0.8293
  170MOL0     H23439  10.806   2.480   3.648 -2.0183  0.6871  0.2003
  170MOL0     H23440  10.474   3.205   2.891  1.2852 -2.2437  4.1635
  170MOL0     H23441  10.320   3.371   2.788  2.9056 -0.5728  0.7925
  170MOL0     H23442  10.060   3.651   2.759  0.3791 -1.2555 -1.7200
  170MOL0     H23443   9.950   3.831   2.659 -0.9704  1.0558 -0.8387
  170MOL0     H23444  10.490   2.638   3.161  1.8816 -0.4797  2.3986
  170MOL0     H23445  10.675   2.465   3.200  1.3815  0.3185  0.0068
  170MOL0     H23446  10.979   2.191   3.189  1.1141 -0.1739  1.7593
  170MOL0     H23447  11.173   2.035   3.187 -5.5542  0.0810  0.4804
  170MOL0     H23448  11.534   2.141   2.946 -3.3155  0.6553  0.2835
  170MOL0     H23449  11.585   2.197   3.105 -1.4756  0.6990 -0.2226
  170MOL0     H23450  11.728   1.992   2.989 -0.0744  1.4259 -1.3032
  170MOL0     H23451  11.581   1.904   3.010 -2.3863  3.4716 -2.4655
  170MOL0     H23452  11.776   2.019   3.236  1.0698  1.5907 -2.5176
  170MOL0     H23453  11.617   1.970   3.279  2.3823 -0.7326  0.5958
  170MOL0     H23454  11.655   1.758   3.151 -0.8421  1.3304  0.7567
  170MOL0     H23455  11.728   1.797   3.318  0.1099 -2.4346  0.4062
  170MOL0     H23456  12.066   1.704   3.078 -0.4437  0.2292  0.6796
  170MOL0     H23457  11.411   2.323   2.992 -0.4761  1.3417 -0.7944
  170MOL0     H23458  11.150   2.561   2.918  2.0818  0.5003 -1.1292
  170MOL0     H23459  11.272   2.593   3.033  0.8568 -1.0021  2.4888
  170MOL0     H23460  11.296   2.514   2.866 -0.8439 -1.4135 -0.7046
  171MOL0     O23461   6.070   0.139   2.389  0.4595 -0.3794 -0.5036
  171MOL0     C23462   5.950   0.099   2.390 -0.6759 -0.2410  0.1936
  171MOL0     O23463   5.909  -0.009   2.308  0.3707 -0.0330 -0.6659
  171MOL0     C23464   5.777  -0.015   2.269 -0.2897  0.1035  0.1673
  171MOL0     C23465   5.695  -0.120   2.322 -1.6166 -0.0223  1.0559
  171MOL0     C23466   5.566  -0.144   2.278 -0.3246  0.4012 -0.4043
  171MOL0     C23467   5.511  -0.059   2.182  0.0628 -0.1324  1.2363
  171MOL0     O23468   5.386  -0.085   2.128  0.3093 -0.7701 -0.7390
  171MOL0     C23469   5.313   0.019   2.071 -1.6055  1.2823 -0.8439
  171MOL0     C23470   5.171  -0.018   2.050  0.8822  0.7613 -0.8711
  171MOL0     C23471   5.143  -0.156   2.001  0.1176 -0.1560  0.0264
  171MOL0     C23472   5.152  -0.268   2.110 -0.6033 -0.3583  0.7247
  171MOL0     C23473   5.093  -0.392   2.053  0.1685  0.5146  0.5250
  171MOL0     C23474   5.051  -0.489   2.161  0.3488  0.2443  0.3988
  171MOL0     C23475   4.931  -0.437   2.247 -0.1588 -0.6080 -1.0080
  171MOL0     C23476   4.866  -0.555   2.329 -0.0533 -0.4074 -0.2941
  171MOL0     N23477   4.738  -0.519   2.385 -0.3048  0.0078  0.9727
  171MOL0     C23478   4.613  -0.510   2.322 -0.2193 -0.4034 -0.6722
  171MOL0     C23479   4.533  -0.455   2.418 -0.5394 -0.4659 -0.0333
  171MOL0     C23480   4.386  -0.442   2.402 -0.2644  0.2261  0.0851
  171MOL0     C23481   4.322  -0.568   2.338  0.0879  0.6063  0.2098
  171MOL0     C23482   4.166  -0.547   2.308 -0.1085  0.3182 -0.2713
  171MOL0     C23483   4.093  -0.522   2.440  0.2836 -0.0962 -0.1833
  171MOL0     O23484   3.954  -0.555   2.428  0.2552  0.8348 -0.1603
  171MOL0     C23485   3.875  -0.461   2.363 -0.7668 -0.2263 -0.2583
  171MOL0     C23486   3.906  -0.330   2.322  0.1805  0.4424 -0.6650
  171MOL0     C23487   3.803  -0.242   2.272  0.2923  1.0822  0.7131
  171MOL0     C23488   3.842  -0.095   2.260  0.2084 -0.7524 -0.1914
  171MOL0     C23489   3.670  -0.287   2.257 -0.5738  1.2016 -0.4456
  171MOL0     C23490   3.561  -0.198   2.213 -0.4908 -0.1949  0.6755
  171MOL0     O23491   3.591  -0.088   2.152  0.4730  0.1720  0.6602
  171MOL0     C23492   3.490   0.004   2.144 -0.2916  0.1644  0.2266
  171MOL0     C23493   3.423   0.065   2.255 -0.1814  1.2007  0.6592
  171MOL0     C23494   3.332   0.171   2.238 -0.8792 -0.8336 -0.7277
  171MOL0     C23495   3.317   0.228   2.109  0.6799  0.4701  1.1380
  171MOL0     O23496   3.218   0.321   2.108 -0.1798 -0.0453  0.1839
  171MOL0     C23497   3.191   0.361   1.977 -0.3463 -0.7508  0.2533
  171MOL0     C23498   3.072   0.450   1.983 -0.2367  0.1159  0.0615
  171MOL0     C23499   2.942   0.388   2.025 -0.3548 -0.0200  0.6535
  171MOL0     C23500   2.829   0.486   2.009  0.7019 -1.2669  1.2016
  171MOL0     C23501   2.688   0.425   2.052 -0.2659  0.9773  0.7071
  171MOL0     C23502   2.583   0.533   2.068  0.7360 -0.1547  0.3324
  171MOL0     C23503   2.439   0.470   2.040 -1.2381  0.2981  0.3140
  171MOL0     C23504   2.337   0.572   2.007 -1.2102  0.7988 -0.5140
  171MOL0    Cl23505   2.171   0.516   2.036 -0.4797 -0.3614 -0.2286
  171MOL0     C23506   3.390   0.175   1.995  0.5932  0.4129  0.5450
  171MOL0     C23507   3.471   0.065   2.012 -0.3557 -0.1860  0.1109
  171MOL0     O23508   3.451  -0.229   2.259  0.2803  0.2892  1.0754
  171MOL0     C23509   3.650  -0.421   2.288  0.1476  0.2719 -0.2375
  171MOL0     C23510   3.744  -0.505   2.345 -0.3383  0.1536  0.6014
  171MOL0     N23511   4.605  -0.423   2.528 -0.5663  0.0192  0.0187
  171MOL0     N23512   4.726  -0.472   2.512 -0.0773 -0.1205 -0.0516
  171MOL0     C23513   5.580   0.056   2.140  0.6312 -0.1608 -0.7385
  171MOL0     C23514   5.716   0.071   2.181 -0.7331 -0.4342 -0.1635
  171MOL0     C23515   5.853   0.164   2.485 -0.4058 -0.9865  0.6015
  171MOL0     C23516   5.841   0.303   2.473 -0.3390  0.1262 -0.2457
  171MOL0     C23517   5.744   0.378   2.544 -0.5537 -0.5269 -0.1993
  171MOL0     C23518   5.674   0.321   2.649  0.6540  0.3943  0.1458
  171MOL0     O23519   5.606   0.388   2.754  0.1121 -0.3254  0.1206
  171MOL0     C23520   5.609   0.531   2.739 -0.3351 -0.2864  0.8690
  171MOL0     C23521   5.515   0.583   2.843 -1.1991 -0.7031  0.1301
  171MOL0     C23522   5.370   0.546   2.817 -0.1760 -0.2725  0.8814
  171MOL0     C23523   5.282   0.650   2.889  0.3046 -0.2501 -0.0006
  171MOL0     C23524   5.291   0.642   3.033 -0.9870 -0.1769  0.1146
  171MOL0     C23525   5.295   0.662   3.150 -0.0781  0.3228 -0.5512
  171MOL0     C23526   5.690   0.186   2.667 -0.5709 -0.4907  0.2867
  171MOL0     C23527   5.771   0.103   2.586 -0.0199  1.3318 -0.3514
  171MOL0     C23528   5.775  -0.043   2.606  0.1054  0.6487 -0.1008
  171MOL0     H23529   5.729  -0.197   2.390  1.0474  1.9227  2.1170
  171MOL0     H23530   5.501  -0.222   2.315  2.0499 -2.0863 -1.1289
  171MOL0     H23531   5.359   0.055   1.978  0.6116  3.6725  0.9921
  171MOL0     H23532   5.320   0.102   2.143  2.2421  3.0497 -2.8934
  171MOL0     H23533   5.121  -0.010   2.147  1.8863  0.2398 -0.3015
  171MOL0     H23534   5.129   0.050   1.975 -1.7637 -1.1193 -1.2788
  171MOL0     H23535   5.042  -0.153   1.959 -0.5248  3.3566  1.4797
  171MOL0     H23536   5.217  -0.172   1.922  0.6115 -1.8617  0.7910
  171MOL0     H23537   5.254  -0.280   2.148  0.6213  0.5740 -2.0206
  171MOL0     H23538   5.095  -0.244   2.201  1.6637 -0.6921  2.3101
  171MOL0     H23539   5.164  -0.437   1.982 -0.2149 -0.6482  0.8605
  171MOL0     H23540   5.003  -0.362   1.998  0.3381  2.4512  1.2271
  171MOL0     H23541   5.019  -0.584   2.116 -1.5728  2.1066 -2.4603
  171MOL0     H23542   5.134  -0.507   2.230 -2.1579 -1.6169  3.2173
  171MOL0     H23543   4.851  -0.395   2.184 -6.1973 -1.2932  5.0143
  171MOL0     H23544   4.969  -0.360   2.315  0.3062 -1.4992 -0.2484
  171MOL0     H23545   4.856  -0.646   2.269 -0.8217 -1.0710  0.8010
  171MOL0     H23546   4.933  -0.580   2.412 -0.6481  2.3263  1.1338
  171MOL0     H23547   4.569  -0.552   2.232 -1.8877 -1.8914  0.7404
  171MOL0     H23548   4.361  -0.371   2.322 -0.0405 -2.4218 -2.5266
  171MOL0     H23549   4.329  -0.425   2.494 -0.5979  1.2304 -0.2886
  171MOL0     H23550   4.368  -0.583   2.240 -1.6515  0.0109 -0.5607
  171MOL0     H23551   4.337  -0.650   2.409  0.5221 -0.7964 -1.4241
  171MOL0     H23552   4.156  -0.479   2.223 -0.3169  1.1847  0.4213
  171MOL0     H23553   4.131  -0.645   2.275 -0.5142 -1.1626  3.8737
  171MOL0     H23554   4.132  -0.591   2.515 -0.5997  1.5943  1.9360
  171MOL0     H23555   4.121  -0.427   2.484 -0.8511 -0.3980  1.2630
  171MOL0     H23556   4.008  -0.295   2.335 -0.0291  0.3469  1.5156
  171MOL0     H23557   3.950  -0.075   2.268 -0.3825  2.5475  1.5001
  171MOL0     H23558   3.786  -0.032   2.330 -0.6682 -2.7102  0.9302
  171MOL0     H23559   3.807  -0.079   2.158 -2.5977 -5.3323 -0.2092
  171MOL0     H23560   3.433   0.027   2.356  1.0881 -1.4637 -0.3624
  171MOL0     H23561   3.282   0.225   2.318  0.7041  2.0815 -1.5591
  171MOL0     H23562   3.269   0.427   1.940 -0.9639  1.9104  3.2972
  171MOL0     H23563   3.173   0.270   1.918 -0.4631  1.2652 -3.0451
  171MOL0     H23564   3.091   0.526   2.059 -0.7559  1.7434 -1.3784
  171MOL0     H23565   3.071   0.489   1.881  2.4430  0.2374  0.0220
  171MOL0     H23566   2.946   0.355   2.129  0.5215  1.2000  1.0309
  171MOL0     H23567   2.939   0.305   1.955  0.1592  0.4653  0.0442
  171MOL0     H23568   2.828   0.533   1.910 -0.7188 -1.0575  1.2968
  171MOL0     H23569   2.850   0.574   2.070 -1.2414  1.0983 -1.2819
  171MOL0     H23570   2.658   0.359   1.970 -4.2391  2.7009  0.5216
  171MOL0     H23571   2.693   0.367   2.145  0.2831  0.9909  0.6853
  171MOL0     H23572   2.605   0.611   1.995 -1.4543  0.1846 -0.0247
  171MOL0     H23573   2.576   0.561   2.174 -1.3370  0.1533  0.1575
  171MOL0     H23574   2.398   0.416   2.127 -1.6923 -1.7933 -1.1139
  171MOL0     H23575   2.441   0.386   1.970 -1.8431 -0.5279  1.2469
  171MOL0     H23576   2.352   0.615   1.908 -2.1141  0.7845 -0.6651
  171MOL0     H23577   2.365   0.649   2.080  4.9265 -2.3890  1.1831
  171MOL0     H23578   3.383   0.212   1.894  0.2373  1.1675  0.8326
  171MOL0     H23579   3.544   0.039   1.935  2.4011 -0.7877  2.7367
  171MOL0     H23580   3.550  -0.462   2.282 -0.4077  1.5383 -0.1010
  171MOL0     H23581   3.710  -0.607   2.358  1.5762 -0.6977 -0.5680
  171MOL0     H23582   5.543   0.130   2.070  0.7994  0.4407 -0.2018
  171MOL0     H23583   5.769   0.159   2.144  0.9840 -0.9979  0.8254
  171MOL0     H23584   5.894   0.352   2.392  0.3658 -0.1934  0.0155
  171MOL0     H23585   5.733   0.482   2.515 -0.6727 -0.9383 -1.7365
  171MOL0     H23586   5.711   0.568   2.749 -0.5902  0.6921  0.0301
  171MOL0     H23587   5.563   0.571   2.648 -0.3674  2.1191  1.8548
  171MOL0     H23588   5.532   0.691   2.841 -1.6066 -0.6489 -0.7111
  171MOL0     H23589   5.536   0.538   2.941  1.2526 -2.1409 -0.9631
  171MOL0     H23590   5.353   0.539   2.709  4.6093  1.1008 -0.1723
  171MOL0     H23591   5.353   0.443   2.848  0.6023  0.0290  2.3901
  171MOL0     H23592   5.174   0.649   2.875 -0.1439  0.2890  2.9273
  171MOL0     H23593   5.310   0.752   2.861 -2.1374  0.0471 -1.6839
  171MOL0     H23594   5.298   0.685   3.255 -1.1937  3.2817 -1.0695
  171MOL0     H23595   5.629   0.158   2.752  0.1978 -0.5249  0.8338
  171MOL0     H23596   5.834  -0.110   2.543 -3.0165 -1.4528 -0.9983
  171MOL0     H23597   5.820  -0.048   2.706  1.3965 -1.9147 -0.7254
  171MOL0     H23598   5.673  -0.083   2.604  0.2563  0.1868 -3.1287
  172MOL0     O23599   0.501   0.458  11.389 -0.4849  0.3001 -0.3400
  172MOL0     C23600   0.379   0.485  11.396  0.9312  0.0360 -0.6736
  172MOL0     O23601   0.299   0.498  11.291 -0.0192 -0.6985  0.5368
  172MOL0     C23602   0.351   0.472  11.166  0.7942 -0.3929  0.4502
  172MOL0     C23603   0.365   0.586  11.081  0.0071  0.6176  0.8192
  172MOL0     C23604   0.402   0.562  10.947 -0.3210  0.0672 -0.6687
  172MOL0     C23605   0.439   0.434  10.905  0.5542 -0.1032  0.3636
  172MOL0     O23606   0.474   0.423  10.775 -0.1986 -0.2312  0.0785
  172MOL0     C23607   0.421   0.315  10.701  0.2943  0.1384 -0.3272
  172MOL0     C23608   0.306   0.373  10.611  0.1603  0.4960 -0.6453
  172MOL0     C23609   0.352   0.468  10.497 -0.3457  0.3599 -0.5627
  172MOL0     C23610   0.243   0.447  10.386  0.2440  0.1137  0.7563
  172MOL0     C23611   0.285   0.531  10.261 -0.0106  0.2815 -0.7802
  172MOL0     C23612   0.198   0.510  10.140 -0.2335  0.2729 -0.6534
  172MOL0     C23613   0.258   0.608  10.032 -0.3338 -0.3762  0.3473
  172MOL0     C23614   0.178   0.579   9.904 -0.6325 -0.5353  0.8659
  172MOL0     N23615   0.213   0.675   9.802 -0.1573  0.2901 -0.0028
  172MOL0     C23616   0.196   0.819   9.815 -0.3123  0.2226  1.0574
  172MOL0     C23617   0.247   0.872   9.706 -0.0226 -0.1091  0.5882
  172MOL0     C23618   0.284   1.020   9.688  0.6808  0.1553  0.0169
  172MOL0     C23619   0.436   1.030   9.686 -0.5320 -0.1394 -0.7282
  172MOL0     C23620   0.492   1.171   9.675 -1.3367 -0.6301  0.1834
  172MOL0     C23621   0.646   1.182   9.655 -0.0555 -0.2855 -1.0687
  172MOL0     O23622   0.701   1.090   9.562 -0.5703 -0.4587 -1.0501
  172MOL0     C23623   0.717   1.118   9.430 -0.3096 -0.8395 -0.0874
  172MOL0     C23624   0.637   1.201   9.355 -1.2941  0.0016  0.2619
  172MOL0     C23625   0.653   1.205   9.217 -0.3791  0.2064  0.2238
  172MOL0     C23626   0.547   1.264   9.131  0.7530  0.5603  0.0130
  172MOL0     C23627   0.754   1.127   9.152 -0.4267 -0.6779 -0.2183
  172MOL0     C23628   0.780   1.128   9.003  0.3390 -0.1752 -0.6757
  172MOL0     O23629   0.757   1.246   8.927 -0.3304  0.4743 -0.1750
  172MOL0     C23630   0.796   1.235   8.793  0.1593 -0.6862  0.8331
  172MOL0     C23631   0.692   1.251   8.700 -0.1089  0.4487  0.0943
  172MOL0     C23632   0.720   1.254   8.562 -0.3054  0.2111 -0.4677
  172MOL0     C23633   0.850   1.226   8.513  0.1628 -1.1057 -0.5826
  172MOL0     O23634   0.887   1.214   8.381 -0.2431  0.2311  0.2348
  172MOL0     C23635   0.847   1.316   8.286 -0.2970 -0.5388  0.3474
  172MOL0     C23636   0.952   1.433   8.270 -0.3214 -0.3267  0.1651
  172MOL0     C23637   1.099   1.384   8.263 -0.0064  0.3318 -0.6990
  172MOL0     C23638   1.142   1.330   8.130  0.5323 -0.4552 -0.9835
  172MOL0     C23639   1.273   1.246   8.137 -0.1319 -0.1347  0.1945
  172MOL0     C23640   1.254   1.115   8.206  0.7633  0.1008 -0.5853
  172MOL0     C23641   1.380   1.033   8.220  0.9089 -0.4595 -0.5811
  172MOL0     C23642   1.463   1.068   8.338  0.4261  0.2021 -1.0618
  172MOL0    Cl23643   1.583   1.199   8.296  0.5778 -0.4063 -0.4009
  172MOL0     C23644   0.952   1.196   8.615  0.6608 -0.0817  0.5628
  172MOL0     C23645   0.928   1.206   8.752 -0.5062  1.1932 -0.0162
  172MOL0     O23646   0.816   1.020   8.948 -0.4223 -0.9889 -0.5089
  172MOL0     C23647   0.828   1.044   9.230 -0.1593  0.6779  0.5852
  172MOL0     C23648   0.811   1.039   9.367  0.1296  0.2359 -0.1982
  172MOL0     N23649   0.307   0.766   9.634  0.6287 -0.6060  0.4385
  172MOL0     N23650   0.289   0.654   9.685  0.3189  0.3474 -0.5006
  172MOL0     C23651   0.419   0.328  10.983  0.2431  0.8718  0.0945
  172MOL0     C23652   0.373   0.338  11.117  0.1532  0.1186 -0.1593
  172MOL0     C23653   0.308   0.495  11.524 -0.5356  0.2639  0.4590
  172MOL0     C23654   0.267   0.623  11.582 -0.8483  0.4191  0.4742
  172MOL0     C23655   0.193   0.630  11.702  0.2567 -0.8771  0.1515
  172MOL0     C23656   0.156   0.512  11.765 -0.2744  0.4612 -0.2354
  172MOL0     O23657   0.090   0.516  11.889  0.5497  0.9695 -0.3380
  172MOL0     C23658   0.148   0.602  11.988  0.0190  0.4725  0.5321
  172MOL0     C23659   0.038   0.697  12.025  0.7102 -0.5110 -0.6218
  172MOL0     C23660  -0.096   0.628  12.057  0.3976 -0.5839  0.0791
  172MOL0     C23661  -0.205   0.731  12.098  0.5742 -1.1004  0.4722
  172MOL0     C23662  -0.335   0.685  12.146  0.2664  1.2476 -0.1207
  172MOL0     C23663  -0.453   0.670  12.164  0.0526  0.4632 -0.7832
  172MOL0     C23664   0.187   0.385  11.714 -0.4253  0.4679  0.2553
  172MOL0     C23665   0.272   0.375  11.601 -0.2115  0.8804  0.5415
  172MOL0     C23666   0.295   0.242  11.532 -0.0121  0.4333  0.0639
  172MOL0     H23667   0.350   0.691  11.103 -2.1207  0.6774 -0.5757
  172MOL0     H23668   0.421   0.630  10.865 -2.3641  1.6375  0.0654
  172MOL0     H23669   0.396   0.220  10.751  0.1662 -0.4066 -1.4003
  172MOL0     H23670   0.497   0.271  10.635  1.5576 -0.1628  1.2556
  172MOL0     H23671   0.241   0.293  10.573  1.8209 -1.8347  1.0816
  172MOL0     H23672   0.238   0.439  10.665  0.3251  1.6384 -1.7951
  172MOL0     H23673   0.342   0.574  10.521 -0.6082  0.5175 -1.3462
  172MOL0     H23674   0.450   0.439  10.458  0.1609  1.2794 -0.0027
  172MOL0     H23675   0.256   0.342  10.357 -1.1499 -0.6190  2.5787
  172MOL0     H23676   0.149   0.474  10.434  0.6435 -0.1773  1.7152
  172MOL0     H23677   0.387   0.502  10.235 -0.4393  0.4555 -2.8214
  172MOL0     H23678   0.269   0.636  10.285 -3.1852 -0.2750  0.0512
  172MOL0     H23679   0.203   0.407  10.103 -0.9421 -0.2095  0.5346
  172MOL0     H23680   0.094   0.533  10.164 -0.7653  1.4632 -3.7399
  172MOL0     H23681   0.364   0.590  10.016 -0.0423  0.7813  0.8724
  172MOL0     H23682   0.255   0.711  10.071 -0.2879 -0.5644  0.8502
  172MOL0     H23683   0.210   0.480   9.872  2.6108 -0.0491  2.2057
  172MOL0     H23684   0.072   0.592   9.930 -0.8621 -0.6890  0.0123
  172MOL0     H23685   0.156   0.866   9.904 -1.1322 -0.3518  1.0081
  172MOL0     H23686   0.240   1.077   9.771  0.5495  0.2141 -0.0914
  172MOL0     H23687   0.244   1.059   9.594 -0.7801  0.2833  0.6605
  172MOL0     H23688   0.473   0.980   9.776  2.1246  1.0491 -1.0613
  172MOL0     H23689   0.481   0.975   9.602  0.7217 -0.3111  0.0275
  172MOL0     H23690   0.433   1.222   9.598 -1.0575  1.8954  1.5409
  172MOL0     H23691   0.470   1.220   9.770 -1.7599 -2.0702  0.8633
  172MOL0     H23692   0.676   1.282   9.621 -0.6468  0.4284  0.3913
  172MOL0     H23693   0.688   1.170   9.756 -1.4858 -2.4425 -0.6598
  172MOL0     H23694   0.552   1.251   9.400 -1.3065  1.2673 -1.1104
  172MOL0     H23695   0.523   1.199   9.047  0.6146  1.5009 -0.6985
  172MOL0     H23696   0.577   1.361   9.090  0.3897  1.4612  1.7853
  172MOL0     H23697   0.450   1.273   9.180  0.1919  0.8718 -1.1203
  172MOL0     H23698   0.590   1.268   8.735 -0.4363  0.7575 -0.9602
  172MOL0     H23699   0.639   1.282   8.495  0.7165  0.6010 -1.5738
  172MOL0     H23700   0.823   1.277   8.186 -0.8966 -0.6449  0.5268
  172MOL0     H23701   0.756   1.362   8.325  0.5643 -0.2693  2.1108
  172MOL0     H23702   0.920   1.474   8.174 -0.7834 -0.4861  0.2499
  172MOL0     H23703   0.936   1.503   8.352 -1.1957  1.1880 -1.2273
  172MOL0     H23704   1.112   1.306   8.339 -2.7940 -0.5533 -1.0066
  172MOL0     H23705   1.181   1.446   8.300 -0.1468 -0.8615  1.8461
  172MOL0     H23706   1.156   1.412   8.059  0.7772  0.2535 -0.1392
  172MOL0     H23707   1.063   1.266   8.092  2.3669 -3.1733 -0.5395
  172MOL0     H23708   1.327   1.240   8.042  1.0548  0.2941  0.8097
  172MOL0     H23709   1.349   1.298   8.197 -1.0549  0.6745  0.6769
  172MOL0     H23710   1.181   1.051   8.157 -1.0067  0.4096  1.5355
  172MOL0     H23711   1.212   1.133   8.305 -1.6484  1.9619 -1.8224
  172MOL0     H23712   1.432   1.050   8.125  1.3528  1.6851 -0.0265
  172MOL0     H23713   1.352   0.928   8.230 -0.7164 -0.0171 -0.2472
  172MOL0     H23714   1.516   0.977   8.367 -1.3428 -0.0362  1.6604
  172MOL0     H23715   1.401   1.091   8.424  3.2265 -2.3293  1.8867
  172MOL0     H23716   1.049   1.172   8.573  0.8008 -0.4771  1.1064
  172MOL0     H23717   1.011   1.180   8.816  1.9695 -5.5015 -4.8098
  172MOL0     H23718   0.910   0.982   9.197 -0.4773 -1.3418  3.2433
  172MOL0     H23719   0.868   0.966   9.424  3.6014  2.1436 -0.9290
  172MOL0     H23720   0.448   0.228  10.950  1.4741  0.1994  2.8517
  172MOL0     H23721   0.360   0.251  11.180 -1.8605  1.0920  0.8418
  172MOL0     H23722   0.297   0.712  11.529 -1.3738 -0.4122 -1.2888
  172MOL0     H23723   0.167   0.730  11.738  1.0000 -0.2295 -1.0447
  172MOL0     H23724   0.180   0.531  12.065 -0.2358 -0.3834 -0.1424
  172MOL0     H23725   0.232   0.662  11.952 -0.2087 -0.1529 -1.0976
  172MOL0     H23726   0.019   0.762  11.939  2.8615  1.3045  0.1717
  172MOL0     H23727   0.067   0.770  12.100  1.9997 -1.1285 -0.4989
  172MOL0     H23728  -0.135   0.585  11.964  0.0011 -2.1835  0.9584
  172MOL0     H23729  -0.081   0.547  12.128  0.9687  2.2588  3.4734
  172MOL0     H23730  -0.225   0.803  12.019 -5.7724 -1.2441  1.4431
  172MOL0     H23731  -0.170   0.802  12.174 -1.7636  1.4843 -0.6824
  172MOL0     H23732  -0.560   0.669  12.169 -0.1167  1.5390 -2.9288
  172MOL0     H23733   0.160   0.301  11.777  1.7677  0.4485  1.2744
  172MOL0     H23734   0.247   0.235  11.434  1.1541  0.2499 -0.5219
  172MOL0     H23735   0.404   0.235  11.534 -0.0942 -1.1822  1.8055
  172MOL0     H23736   0.257   0.163  11.598  1.0310 -0.9054 -0.8653
  173MOL0     O23737   8.346   5.171   8.138  0.2458  1.2787  0.2064
  173MOL0     C23738   8.247   5.234   8.176  0.1155  0.1216 -0.9114
  173MOL0     O23739   8.144   5.184   8.241  0.1371  0.1829  0.2644
  173MOL0     C23740   8.167   5.077   8.323  0.7533 -0.3752  0.5691
  173MOL0     C23741   8.169   4.955   8.258 -0.5786  0.8099  0.4896
  173MOL0     C23742   8.187   4.839   8.328 -0.5296  0.3303  0.5510
  173MOL0     C23743   8.208   4.841   8.463  1.1682  0.6570 -0.6530
  173MOL0     O23744   8.232   4.729   8.540  0.3835 -0.3211 -0.0078
  173MOL0     C23745   8.181   4.595   8.508  0.6505 -1.5217 -0.5927
  173MOL0     C23746   8.229   4.476   8.592  0.0422 -1.3315 -1.7145
  173MOL0     C23747   8.129   4.360   8.581  0.0590 -0.5852 -1.1276
  173MOL0     C23748   8.147   4.282   8.454  0.4117  0.8920 -0.0029
  173MOL0     C23749   8.048   4.171   8.420  0.1863  0.1533 -0.1532
  173MOL0     C23750   7.909   4.224   8.441  0.2558 -0.0565 -0.6026
  173MOL0     C23751   7.789   4.144   8.378 -0.3882  0.2175 -0.3553
  173MOL0     C23752   7.792   4.168   8.225  0.0114  0.4643 -0.0935
  173MOL0     N23753   7.690   4.095   8.154 -0.4627  0.8362  0.1612
  173MOL0     C23754   7.706   3.959   8.123  0.5499  0.5256  0.2893
  173MOL0     C23755   7.621   3.932   8.024 -0.6029  0.1105 -0.3088
  173MOL0     C23756   7.600   3.800   7.964  0.1913  0.0528  0.1088
  173MOL0     C23757   7.723   3.728   7.905  0.3252  0.0558  0.0062
  173MOL0     C23758   7.678   3.578   7.874 -0.1272 -1.2705 -0.0346
  173MOL0     C23759   7.800   3.499   7.833  0.4367 -0.3792 -0.0643
  173MOL0     O23760   7.914   3.536   7.903 -0.5688  0.3421 -0.3379
  173MOL0     C23761   8.035   3.476   7.874 -0.9933  0.3696  1.2779
  173MOL0     C23762   8.050   3.389   7.763 -0.7236  0.2748  0.1142
  173MOL0     C23763   8.163   3.321   7.733 -0.3885  0.3927 -0.3771
  173MOL0     C23764   8.163   3.224   7.622 -0.4773 -0.3936 -0.7503
  173MOL0     C23765   8.275   3.346   7.816  0.1104  0.7492  0.3597
  173MOL0     C23766   8.414   3.293   7.799  0.1920  0.7723 -1.2618
  173MOL0     O23767   8.496   3.307   7.900 -0.4923  0.3829 -0.2546
  173MOL0     C23768   8.613   3.231   7.902 -0.3174 -0.2171  0.3302
  173MOL0     C23769   8.636   3.107   7.846  0.4959  0.2589 -0.4501
  173MOL0     C23770   8.759   3.042   7.863 -0.5533  0.0771  0.3293
  173MOL0     C23771   8.864   3.105   7.938 -1.1543 -0.0824  0.1679
  173MOL0     O23772   8.987   3.055   7.942  0.1006  0.1240  0.4432
  173MOL0     C23773   9.019   2.915   7.920  0.7501  0.3686 -0.3322
  173MOL0     C23774   9.158   2.883   7.980  0.0396 -0.3983 -0.5040
  173MOL0     C23775   9.168   2.900   8.127 -0.7503 -0.3396  0.9751
  173MOL0     C23776   9.309   2.856   8.188 -0.0887  0.1567 -1.0741
  173MOL0     C23777   9.329   2.897   8.337  0.6807 -0.6075 -0.1586
  173MOL0     C23778   9.414   2.792   8.411 -0.5257  0.0240  0.3377
  173MOL0     C23779   9.462   2.845   8.541 -0.1809 -0.6614  1.0312
  173MOL0     C23780   9.558   2.739   8.612 -0.0803 -0.4477 -0.9006
  173MOL0    Cl23781   9.444   2.614   8.696  0.3521  0.2813  0.0152
  173MOL0     C23782   8.838   3.226   8.003 -0.5429 -0.3004  1.7320
  173MOL0     C23783   8.720   3.288   7.973  1.0930 -0.5225 -0.1144
  173MOL0     O23784   8.448   3.264   7.682 -0.8339 -0.3167  0.1123
  173MOL0     C23785   8.259   3.438   7.927 -0.5543 -0.3192  0.1627
  173MOL0     C23786   8.139   3.496   7.959  0.5986 -0.8048  0.3100
  173MOL0     N23787   7.548   4.044   7.994 -0.8936 -0.6699  1.1826
  173MOL0     N23788   7.603   4.142   8.057 -0.3591  0.4670 -0.1327
  173MOL0     C23789   8.224   4.964   8.531  0.0427 -0.0141  0.2239
  173MOL0     C23790   8.193   5.089   8.459 -0.3193 -0.1057  0.3747
  173MOL0     C23791   8.236   5.378   8.157  0.3006  0.1386  0.1806
  173MOL0     C23792   8.114   5.439   8.188  0.0582  0.2749  0.1960
  173MOL0     C23793   8.101   5.577   8.155  0.3300  0.1467 -0.1573
  173MOL0     C23794   8.194   5.664   8.091 -0.8148  0.2989  0.0610
  173MOL0     O23795   8.175   5.800   8.060  0.1786 -0.0585 -0.5331
  173MOL0     C23796   8.279   5.901   8.058  0.7131  0.2959  0.2493
  173MOL0     C23797   8.206   6.022   8.128  0.3367  0.5561 -0.3187
  173MOL0     C23798   8.293   6.142   8.148  0.4944  0.7123  1.0067
  173MOL0     C23799   8.217   6.282   8.160  0.3034 -0.1054  0.4352
  173MOL0     C23800   8.134   6.291   8.287  0.1988  0.4322  0.7137
  173MOL0     C23801   8.061   6.325   8.382 -0.1809  0.5469  0.0342
  173MOL0     C23802   8.306   5.592   8.060 -0.6525  0.0748 -0.1369
  173MOL0     C23803   8.340   5.458   8.103 -0.7629  0.8217  0.2655
  173MOL0     C23804   8.476   5.405   8.073  0.7236 -0.2309  0.2292
  173MOL0     H23805   8.149   4.961   8.152 -1.8401  2.3555  0.7757
  173MOL0     H23806   8.166   4.746   8.276  1.1176 -0.3085  0.9630
  173MOL0     H23807   8.193   4.562   8.404 -1.4061 -2.9536 -0.4399
  173MOL0     H23808   8.076   4.613   8.531  0.6047 -1.6700 -0.6837
  173MOL0     H23809   8.331   4.436   8.584  1.3755  0.9279  1.7597
  173MOL0     H23810   8.228   4.508   8.696 -0.7433  2.3291 -2.7289
  173MOL0     H23811   8.124   4.300   8.672  0.6746  0.6852 -0.2194
  173MOL0     H23812   8.028   4.402   8.588  0.6867  0.7167  1.1334
  173MOL0     H23813   8.146   4.354   8.372  0.9554  0.0963 -0.7294
  173MOL0     H23814   8.242   4.230   8.473 -1.7210 -3.3123  0.3236
  173MOL0     H23815   8.069   4.088   8.489  2.6570  2.5618  2.2727
  173MOL0     H23816   8.055   4.130   8.319 -1.9475 -1.6750  0.3565
  173MOL0     H23817   7.908   4.216   8.550  1.7296 -1.7361 -0.6680
  173MOL0     H23818   7.890   4.330   8.422 -2.5215  0.1306  2.4383
  173MOL0     H23819   7.696   4.185   8.419 -0.4061 -0.9568  0.8746
  173MOL0     H23820   7.819   4.041   8.400  0.0148  0.0786 -1.4989
  173MOL0     H23821   7.780   4.275   8.206 -2.2788  0.5625  1.5469
  173MOL0     H23822   7.887   4.133   8.182 -0.4867  1.4372 -2.1414
  173MOL0     H23823   7.780   3.899   8.176  1.4137  2.2308  1.0955
  173MOL0     H23824   7.528   3.813   7.883 -0.0060  0.8523  0.4058
  173MOL0     H23825   7.550   3.733   8.036  1.1713 -0.5876  0.2169
  173MOL0     H23826   7.745   3.788   7.816 -0.5534  1.0875  0.4589
  173MOL0     H23827   7.804   3.721   7.978 -0.5736 -4.5766  0.9016
  173MOL0     H23828   7.634   3.533   7.964 -3.1840 -0.3363 -0.9419
  173MOL0     H23829   7.604   3.583   7.794  0.5853  1.2338 -0.6330
  173MOL0     H23830   7.778   3.393   7.849 -2.0587 -0.0481 -0.8071
  173MOL0     H23831   7.817   3.515   7.726  1.3893  1.3008  0.3074
  173MOL0     H23832   7.967   3.375   7.694 -1.2235  0.8894  0.5875
  173MOL0     H23833   8.059   3.192   7.604 -0.4779  0.6066 -2.7849
  173MOL0     H23834   8.218   3.131   7.643 -1.5498 -0.4789  2.2130
  173MOL0     H23835   8.202   3.258   7.526 -2.7108 -0.5644 -1.7805
  173MOL0     H23836   8.562   3.062   7.780  0.6849  2.0591 -1.9717
  173MOL0     H23837   8.780   2.952   7.806 -0.6497 -0.0322  0.4667
  173MOL0     H23838   8.953   2.852   7.981  1.5800  1.2574  1.5575
  173MOL0     H23839   9.018   2.891   7.813  3.2614 -0.3256 -0.2584
  173MOL0     H23840   9.180   2.779   7.953 -1.4745 -0.8932  0.0769
  173MOL0     H23841   9.229   2.949   7.929  0.6876 -1.4593 -1.0205
  173MOL0     H23842   9.092   2.838   8.176 -2.3746 -0.6050 -1.7078
  173MOL0     H23843   9.145   3.005   8.146 -0.8537 -0.1007 -0.3762
  173MOL0     H23844   9.401   2.881   8.134  1.0927 -1.8944 -0.1083
  173MOL0     H23845   9.304   2.748   8.173 -3.8622  0.0669 -0.2592
  173MOL0     H23846   9.366   2.999   8.321 -3.9608  0.9118 -3.5497
  173MOL0     H23847   9.240   2.915   8.398 -0.4926  0.1208 -1.9968
  173MOL0     H23848   9.506   2.776   8.355 -0.3468  1.9728  0.0107
  173MOL0     H23849   9.358   2.700   8.427 -0.5972 -0.0184 -0.1438
  173MOL0     H23850   9.386   2.885   8.609  0.2768  3.1156 -0.4426
  173MOL0     H23851   9.517   2.936   8.515 -2.2560  0.3832  0.1142
  173MOL0     H23852   9.617   2.779   8.695  1.1268 -0.5671 -1.6820
  173MOL0     H23853   9.619   2.695   8.533 -2.1522  0.4685 -3.1423
  173MOL0     H23854   8.913   3.270   8.067 -1.6520  2.0507  1.5320
  173MOL0     H23855   8.712   3.389   8.013 -3.4649 -0.4059 -0.8268
  173MOL0     H23856   8.351   3.470   7.976 -0.4473 -1.8403  1.0188
  173MOL0     H23857   8.123   3.548   8.053  3.0529 -0.0971  0.3991
  173MOL0     H23858   8.245   4.958   8.637  3.5387 -3.9912 -0.4091
  173MOL0     H23859   8.204   5.184   8.511  0.9200 -0.9948  1.8336
  173MOL0     H23860   8.030   5.381   8.225  1.9606 -3.2389 -0.5463
  173MOL0     H23861   8.008   5.612   8.200  0.5543  1.5305 -0.7128
  173MOL0     H23862   8.373   5.879   8.111 -0.3794  0.9686  2.6251
  173MOL0     H23863   8.313   5.929   7.958 -2.6063 -0.2860 -1.1775
  173MOL0     H23864   8.183   5.983   8.228  2.3138 -6.7155 -2.1409
  173MOL0     H23865   8.115   6.041   8.070 -1.0243 -0.8107  1.2524
  173MOL0     H23866   8.367   6.120   8.225  2.1618 -0.5682 -0.8836
  173MOL0     H23867   8.343   6.156   8.051  0.6631 -1.9404  0.6452
  173MOL0     H23868   8.163   6.289   8.065 -0.5290 -2.9337  0.6127
  173MOL0     H23869   8.304   6.348   8.147  1.1639 -1.5761 -2.0818
  173MOL0     H23870   8.018   6.357   8.475  0.5775  1.1164  0.1994
  173MOL0     H23871   8.386   5.651   8.019  1.6738 -3.3145 -0.8662
  173MOL0     H23872   8.475   5.323   8.001  1.3233 -1.4901  1.5930
  173MOL0     H23873   8.545   5.478   8.029 -0.1403  1.5749  1.7014
  173MOL0     H23874   8.522   5.372   8.167 -1.9850 -0.4196  1.5804
  174MOL0     O23875   4.255   0.061   5.535  0.3645 -0.2216 -0.2333
  174MOL0     C23876   4.305   0.042   5.426 -0.2810 -0.5301 -0.9311
  174MOL0     O23877   4.437   0.000   5.403  0.5478  0.2777  0.2570
  174MOL0     C23878   4.499  -0.052   5.507  0.5719  0.3889 -0.0782
  174MOL0     C23879   4.557   0.033   5.602  0.5059 -0.3790 -0.0875
  174MOL0     C23880   4.597  -0.028   5.725  0.1042 -0.1640  0.4773
  174MOL0     C23881   4.579  -0.164   5.750 -1.0297  0.7542  0.3832
  174MOL0     O23882   4.594  -0.214   5.876  0.3131 -0.5142  0.7133
  174MOL0     C23883   4.466  -0.236   5.941 -0.4139  0.5243 -0.0488
  174MOL0     C23884   4.471  -0.150   6.068 -0.4320 -0.2738 -0.0073
  174MOL0     C23885   4.395  -0.020   6.045  0.7005 -0.2407 -0.3321
  174MOL0     C23886   4.243  -0.046   6.051  0.6006 -0.9430  0.2270
  174MOL0     C23887   4.188   0.074   5.979  1.0972 -0.7345 -1.0774
  174MOL0     C23888   4.038   0.078   5.966  0.3258 -0.2628  0.1846
  174MOL0     C23889   4.006   0.172   5.848  0.9521  0.3545  0.4746
  174MOL0     C23890   3.857   0.188   5.842 -0.8745 -0.2810 -0.3518
  174MOL0     N23891   3.794   0.213   5.712 -0.2022 -0.0297 -0.2310
  174MOL0     C23892   3.793   0.332   5.647  0.2450 -0.1870  0.0763
  174MOL0     C23893   3.710   0.305   5.547  0.6358  0.8494  0.3133
  174MOL0     C23894   3.671   0.398   5.436  0.5261 -0.0574 -0.2424
  174MOL0     C23895   3.552   0.337   5.347 -0.4194  0.7597  0.5882
  174MOL0     C23896   3.516   0.432   5.237 -0.3631  0.8422 -0.2148
  174MOL0     C23897   3.404   0.361   5.162  1.1030 -0.0693  0.5660
  174MOL0     O23898   3.361   0.459   5.065  0.1643 -0.0328 -0.2629
  174MOL0     C23899   3.285   0.397   4.967 -0.3558  0.9549  0.0686
  174MOL0     C23900   3.144   0.406   4.965 -0.6713 -0.0667  0.5293
  174MOL0     C23901   3.081   0.332   4.857  0.6601 -0.9010 -0.6376
  174MOL0     C23902   2.931   0.356   4.870 -0.0446  0.5849 -0.1378
  174MOL0     C23903   3.159   0.257   4.765  0.2038  1.0390  0.2316
  174MOL0     C23904   3.103   0.183   4.655  0.2969  0.0201 -0.7266
  174MOL0     O23905   3.189   0.144   4.561 -0.2308  0.3437  1.0741
  174MOL0     C23906   3.142   0.056   4.462  1.4556  0.3680 -0.5434
  174MOL0     C23907   3.026   0.062   4.384 -0.4296 -0.7353 -0.1074
  174MOL0     C23908   3.004  -0.033   4.285  0.2949 -0.6478 -0.5736
  174MOL0     C23909   3.082  -0.152   4.274 -0.6751  1.1667 -0.9453
  174MOL0     O23910   3.051  -0.252   4.189  0.3417  0.1031 -1.0575
  174MOL0     C23911   3.083  -0.385   4.230  0.5807 -0.7186 -0.2612
  174MOL0     C23912   3.012  -0.426   4.366  1.0450  0.2054 -0.5561
  174MOL0     C23913   2.851  -0.458   4.359  0.1412 -0.3150  0.2044
  174MOL0     C23914   2.774  -0.336   4.314 -0.3129 -0.2052  0.4410
  174MOL0     C23915   2.739  -0.242   4.427  0.3846  0.5633  0.1302
  174MOL0     C23916   2.629  -0.147   4.377 -0.1551  0.1207  0.1524
  174MOL0     C23917   2.563  -0.070   4.495 -0.5153  0.6871  0.4567
  174MOL0     C23918   2.453   0.023   4.462  0.2325 -0.2726 -0.0664
  174MOL0    Cl23919   2.437   0.045   4.283  0.5053 -0.3644 -0.2615
  174MOL0     C23920   3.194  -0.155   4.356  0.3324  0.0081  0.1243
  174MOL0     C23921   3.223  -0.049   4.446 -0.2779 -0.6435  0.2906
  174MOL0     O23922   2.978   0.185   4.644  0.3391  0.3411  0.0236
  174MOL0     C23923   3.300   0.266   4.767 -0.2507  0.3156  0.1958
  174MOL0     C23924   3.360   0.329   4.876 -0.1233  0.1193  0.5708
  174MOL0     N23925   3.683   0.168   5.545 -0.1888 -0.1805 -0.0574
  174MOL0     N23926   3.728   0.115   5.651  0.4058 -0.2255  0.3498
  174MOL0     C23927   4.520  -0.243   5.653  0.6600  0.0404  0.0236
  174MOL0     C23928   4.488  -0.187   5.523  0.4532  1.0094  0.0357
  174MOL0     C23929   4.220   0.085   5.307 -0.2516 -0.8400 -0.3590
  174MOL0     C23930   4.283   0.088   5.178  1.2226 -0.8241 -0.4275
  174MOL0     C23931   4.216   0.130   5.061 -0.6410 -1.1079  0.2783
  174MOL0     C23932   4.087   0.183   5.071 -0.4570  0.0526 -0.8878
  174MOL0     O23933   4.028   0.248   4.968  0.4813  0.4643  0.0944
  174MOL0     C23934   3.954   0.151   4.884  0.6752  1.0435  0.4041
  174MOL0     C23935   3.912   0.196   4.741  0.4611 -0.0682 -0.1297
  174MOL0     C23936   3.812   0.316   4.746 -0.3931  0.7974 -0.4600
  174MOL0     C23937   3.802   0.406   4.626  0.4073 -0.3651  0.5480
  174MOL0     C23938   3.695   0.368   4.528  0.1423 -0.3954  0.0765
  174MOL0     C23939   3.607   0.323   4.461 -0.0545  0.4213  0.1140
  174MOL0     C23940   4.015   0.179   5.196 -0.3929 -0.3142 -0.3268
  174MOL0     C23941   4.080   0.126   5.307  0.9082 -0.2746 -0.7905
  174MOL0     C23942   3.988   0.094   5.423 -0.7447  0.4799 -0.3751
  174MOL0     H23943   4.575   0.139   5.588  5.8816 -0.9876  0.2282
  174MOL0     H23944   4.637   0.043   5.797  4.2617 -1.1812 -0.5718
  174MOL0     H23945   4.469  -0.339   5.978 -1.3763 -0.6281 -2.9220
  174MOL0     H23946   4.381  -0.219   5.875 -0.4799  0.9094  0.1383
  174MOL0     H23947   4.429  -0.193   6.159  2.8926  0.0226  1.8372
  174MOL0     H23948   4.576  -0.136   6.097  0.1354 -2.7168 -0.6723
  174MOL0     H23949   4.412   0.050   6.128 -1.0911 -0.4967  0.3008
  174MOL0     H23950   4.415   0.027   5.949 -0.0337 -2.6244 -1.7184
  174MOL0     H23951   4.206  -0.142   6.014 -1.5186 -1.3461  3.0289
  174MOL0     H23952   4.203  -0.054   6.152 -4.1043 -1.8624 -1.4235
  174MOL0     H23953   4.234   0.089   5.881  3.6808  0.8547  0.2891
  174MOL0     H23954   4.206   0.168   6.032 -1.3610  0.2530 -1.8324
  174MOL0     H23955   4.000  -0.022   5.946 -1.8818  0.6656 -0.6329
  174MOL0     H23956   3.999   0.116   6.061 -1.7828 -1.0133 -0.3287
  174MOL0     H23957   4.040   0.128   5.753  0.4931  0.8272  0.0873
  174MOL0     H23958   4.053   0.271   5.859 -1.5720  1.7161 -0.2342
  174MOL0     H23959   3.803   0.102   5.882 -0.9521  0.2805  0.8080
  174MOL0     H23960   3.837   0.264   5.918  0.7127 -1.5001  1.3765
  174MOL0     H23961   3.833   0.427   5.680  1.0578 -0.4564 -0.1023
  174MOL0     H23962   3.765   0.399   5.381  1.3930 -0.0786  1.1953
  174MOL0     H23963   3.651   0.499   5.475 -1.4596 -0.8798  1.0297
  174MOL0     H23964   3.589   0.245   5.300  0.0224  1.7435 -1.0908
  174MOL0     H23965   3.467   0.316   5.412  1.6523  1.1064  3.5866
  174MOL0     H23966   3.480   0.525   5.281  2.3428  0.8828  2.1827
  174MOL0     H23967   3.599   0.440   5.167  0.5356 -2.7638  0.2323
  174MOL0     H23968   3.421   0.268   5.107  0.3547  1.2488 -2.0694
  174MOL0     H23969   3.321   0.336   5.228  0.5926 -3.1717 -1.0348
  174MOL0     H23970   3.094   0.457   5.046  3.2736 -0.3276  3.4168
  174MOL0     H23971   2.879   0.354   4.774  1.4253  0.7904 -0.9630
  174MOL0     H23972   2.904   0.448   4.924  0.1496  0.7612 -0.3422
  174MOL0     H23973   2.889   0.277   4.933  0.4769  0.2636 -0.1914
  174MOL0     H23974   2.974   0.158   4.387 -0.0109 -0.5224  0.4253
  174MOL0     H23975   2.927  -0.033   4.208 -2.6500  0.6941  2.1769
  174MOL0     H23976   3.042  -0.446   4.149 -1.6248  0.7054 -0.2919
  174MOL0     H23977   3.192  -0.392   4.241  0.5111 -2.4941 -0.3203
  174MOL0     H23978   3.071  -0.508   4.408  0.1627  0.4634  1.2673
  174MOL0     H23979   3.025  -0.349   4.442 -1.2809 -1.7080  1.9661
  174MOL0     H23980   2.811  -0.495   4.453 -1.3380 -0.7586 -0.5765
  174MOL0     H23981   2.838  -0.538   4.285  1.4934  1.0872 -1.6783
  174MOL0     H23982   2.676  -0.359   4.272 -0.0417  0.1657 -0.4217
  174MOL0     H23983   2.824  -0.276   4.238  0.4014 -2.4374 -0.9530
  174MOL0     H23984   2.728  -0.296   4.521  2.3999 -1.6939 -0.8241
  174MOL0     H23985   2.828  -0.182   4.451  2.1485 -2.6971  2.5731
  174MOL0     H23986   2.547  -0.211   4.344  1.3679 -2.4540  1.0693
  174MOL0     H23987   2.661  -0.072   4.304 -0.3391  0.2042  0.1572
  174MOL0     H23988   2.644  -0.012   4.540  1.2262 -1.5759  0.4391
  174MOL0     H23989   2.541  -0.146   4.570  0.9748 -1.0549 -0.7652
  174MOL0     H23990   2.479   0.114   4.516 -1.5042 -0.7202  1.6388
  174MOL0     H23991   2.359  -0.001   4.512 -0.2240  1.0211 -0.2610
  174MOL0     H23992   3.261  -0.239   4.345  0.0417 -0.2784  0.4996
  174MOL0     H23993   3.319  -0.041   4.497  0.1456 -3.2656  0.0521
  174MOL0     H23994   3.370   0.222   4.698 -0.1919 -0.4026  0.7038
  174MOL0     H23995   3.467   0.314   4.888 -0.2263 -1.6685 -0.3834
  174MOL0     H23996   4.492  -0.348   5.655 -4.7306  1.1723 -0.1991
  174MOL0     H23997   4.437  -0.250   5.451 -0.8839  2.4035 -0.2775
  174MOL0     H23998   4.389   0.069   5.185  1.2637 -0.1471  3.8332
  174MOL0     H23999   4.273   0.134   4.970 -1.2266 -1.2630 -0.1016
  174MOL0     H24000   4.021   0.067   4.866 -2.5217 -1.3609 -1.3325
  174MOL0     H24001   3.862   0.118   4.932 -2.4308  3.4525 -3.2272
  174MOL0     H24002   3.857   0.122   4.682 -1.2856  1.1674 -0.1349
  174MOL0     H24003   4.006   0.216   4.689 -0.3200 -0.4807 -1.7592
  174MOL0     H24004   3.712   0.278   4.773  1.0496 -1.3029  2.6100
  174MOL0     H24005   3.850   0.384   4.822  1.5060 -0.0751 -0.5667
  174MOL0     H24006   3.901   0.415   4.581  0.7731 -1.2140  1.1468
  174MOL0     H24007   3.780   0.509   4.653 -0.8429  0.2733 -2.5419
  174MOL0     H24008   3.529   0.286   4.397 -1.6707  2.4508  0.8024
  174MOL0     H24009   3.910   0.206   5.195 -0.7223 -1.0381  3.2005
  174MOL0     H24010   4.022   0.155   5.507 -1.9296 -0.5821  0.9133
  174MOL0     H24011   3.887   0.126   5.397 -0.8065  1.4899  0.9712
  174MOL0     H24012   3.993  -0.011   5.451 -4.4451  1.0625  3.4211
  175MOL0     O24013   2.762   7.729   3.740  0.4370 -0.2841  0.2342
  175MOL0     C24014   2.813   7.623   3.770  0.1531 -0.0103  0.1398
  175MOL0     O24015   2.839   7.595   3.899  0.7054 -0.1909  0.2484
  175MOL0     C24016   2.795   7.691   3.986  0.5922 -0.0425  0.1614
  175MOL0     C24017   2.894   7.784   4.016  0.6048  0.4525 -0.3439
  175MOL0     C24018   2.854   7.882   4.107 -0.6971 -0.0740  0.2758
  175MOL0     C24019   2.724   7.903   4.158 -0.2040 -0.1954  0.4122
  175MOL0     O24020   2.712   8.027   4.232  0.2827  0.4810  1.3898
  175MOL0     C24021   2.607   8.034   4.326 -0.3774  0.2239 -1.0963
  175MOL0     C24022   2.634   7.953   4.457  0.1943  0.8294  0.2381
  175MOL0     C24023   2.511   7.984   4.552  0.2909  0.5379  0.9196
  175MOL0     C24024   2.531   7.938   4.706  0.3072  0.3547  0.9254
  175MOL0     C24025   2.422   7.964   4.802 -0.3946  0.6921 -0.7707
  175MOL0     C24026   2.286   7.906   4.779  0.2066  0.2578  0.5125
  175MOL0     C24027   2.301   7.749   4.741  1.1066 -0.1528 -0.5272
  175MOL0     C24028   2.157   7.701   4.703  0.1439  0.0763 -0.1300
  175MOL0     N24029   2.062   7.731   4.812  0.0268 -0.1479 -0.0231
  175MOL0     C24030   2.005   7.850   4.825 -0.3020  0.5315 -0.3422
  175MOL0     C24031   1.937   7.840   4.944  1.1047  0.3043 -0.1181
  175MOL0     C24032   1.845   7.938   4.997  0.4174 -0.0490 -1.0126
  175MOL0     C24033   1.696   7.905   4.956 -0.2911  0.6644 -0.0913
  175MOL0     C24034   1.609   7.957   5.069  0.4121 -0.2943  0.5429
  175MOL0     C24035   1.473   7.883   5.060 -0.1046 -0.2100 -0.0763
  175MOL0     O24036   1.390   7.939   4.953  0.4612 -0.2244 -0.9010
  175MOL0     C24037   1.259   7.893   4.933  0.2528 -0.0231  1.3078
  175MOL0     C24038   1.193   7.969   4.833 -0.1148  0.0387 -0.2981
  175MOL0     C24039   1.066   7.929   4.781  0.0776  0.2931 -0.3374
  175MOL0     C24040   1.018   8.007   4.664 -0.5214  0.3423 -0.2347
  175MOL0     C24041   1.000   7.823   4.850 -0.5242 -0.5375  0.2909
  175MOL0     C24042   0.852   7.791   4.835 -0.3394  0.7130 -0.7508
  175MOL0     O24043   0.801   7.709   4.931  0.1131 -0.6109  0.3383
  175MOL0     C24044   0.662   7.687   4.950  0.2180 -0.3775 -0.9771
  175MOL0     C24045   0.596   7.796   5.003  1.0342 -0.5219 -0.0210
  175MOL0     C24046   0.453   7.779   5.022 -0.4468 -0.0080  0.3112
  175MOL0     C24047   0.389   7.657   4.995  0.6695 -0.0220 -0.1443
  175MOL0     O24048   0.253   7.651   5.033  0.0013 -0.2665  0.2067
  175MOL0     C24049   0.180   7.531   5.006  0.0686  0.8679  0.0896
  175MOL0     C24050   0.031   7.545   5.037 -0.1776 -0.5426  0.1314
  175MOL0     C24051   0.010   7.585   5.186 -0.6455  0.6748 -0.4616
  175MOL0     C24052  -0.132   7.617   5.217  0.9847  0.5551  0.7826
  175MOL0     C24053  -0.168   7.574   5.359 -0.0876  0.0151 -0.2618
  175MOL0     C24054  -0.289   7.648   5.404 -0.1397  0.6272 -0.0665
  175MOL0     C24055  -0.273   7.798   5.435 -0.0108  0.5532  0.2400
  175MOL0     C24056  -0.387   7.867   5.498 -0.7228  0.6260  0.7077
  175MOL0    Cl24057  -0.524   7.902   5.382 -0.2794 -0.2982 -0.2283
  175MOL0     C24058   0.460   7.551   4.923  0.7293 -0.3607  0.4390
  175MOL0     C24059   0.594   7.572   4.905 -0.1036  0.0287 -0.6530
  175MOL0     O24060   0.787   7.855   4.752  0.0045  0.0205 -0.3585
  175MOL0     C24061   1.063   7.746   4.945  0.4271 -0.7445  0.2705
  175MOL0     C24062   1.190   7.786   4.992 -0.0958  1.0302 -0.2072
  175MOL0     N24063   1.963   7.713   4.996  0.3017  0.0193 -0.2910
  175MOL0     N24064   2.024   7.646   4.904  0.5616  0.0386 -0.4560
  175MOL0     C24065   2.628   7.809   4.122  0.5004 -0.3559  0.3303
  175MOL0     C24066   2.664   7.709   4.034 -0.5531  0.3683  0.4770
  175MOL0     C24067   2.843   7.523   3.670  0.4901  0.6830  0.1818
  175MOL0     C24068   2.879   7.569   3.540  0.7563  0.1607 -0.0185
  175MOL0     C24069   2.925   7.479   3.448  0.7379  0.1024 -0.0340
  175MOL0     C24070   2.928   7.341   3.476  0.7965 -0.6698 -0.9844
  175MOL0     O24071   2.960   7.261   3.365 -0.3255  0.4188  0.2963
  175MOL0     C24072   2.999   7.127   3.391  0.2508  0.0158  0.1432
  175MOL0     C24073   2.870   7.038   3.387 -0.3723  1.0369 -0.4046
  175MOL0     C24074   2.909   6.918   3.477 -0.4819 -0.0392  0.7934
  175MOL0     C24075   2.774   6.858   3.525  0.4427  0.3297  0.0704
  175MOL0     C24076   2.701   6.942   3.619  0.1787 -0.5920 -0.4035
  175MOL0     C24077   2.631   7.021   3.687  0.1353 -0.2518  0.3030
  175MOL0     C24078   2.875   7.295   3.595 -0.8775  0.0649  0.3018
  175MOL0     C24079   2.843   7.381   3.694  0.1211  0.8970 -0.0915
  175MOL0     C24080   2.787   7.320   3.819 -0.4942  0.5235  0.6060
  175MOL0     H24081   2.993   7.781   3.972 -0.0959  1.7961 -2.1027
  175MOL0     H24082   2.932   7.958   4.110  0.7658 -1.5611  0.7917
  175MOL0     H24083   2.511   7.999   4.290 -2.2698  1.4333  2.3268
  175MOL0     H24084   2.592   8.136   4.363 -3.5388 -0.6764  0.4191
  175MOL0     H24085   2.626   7.845   4.438  0.9774  0.7071  0.5713
  175MOL0     H24086   2.730   7.979   4.502  1.0770  1.8173 -2.0383
  175MOL0     H24087   2.495   8.092   4.545 -0.2969  0.6046  2.7349
  175MOL0     H24088   2.422   7.938   4.509  0.6631  1.4781 -0.9808
  175MOL0     H24089   2.553   7.831   4.712 -1.3214  0.0076  1.1795
  175MOL0     H24090   2.615   7.995   4.747 -3.2954  5.8139  1.7029
  175MOL0     H24091   2.401   8.071   4.815 -1.6930  0.6316 -2.1055
  175MOL0     H24092   2.461   7.930   4.898 -0.8582  1.3964 -0.3271
  175MOL0     H24093   2.219   7.913   4.865 -0.7690 -3.0846  0.1885
  175MOL0     H24094   2.255   7.957   4.687  3.0648 -0.8904 -1.2231
  175MOL0     H24095   2.333   7.684   4.824  0.4296 -0.0453 -0.1690
  175MOL0     H24096   2.366   7.723   4.657  1.2574 -2.4047  0.1956
  175MOL0     H24097   2.127   7.748   4.609 -0.9993  2.1886  1.2127
  175MOL0     H24098   2.148   7.592   4.691 -1.4061  0.2250 -0.4985
  175MOL0     H24099   2.001   7.934   4.757  0.5490 -0.8888 -2.2121
  175MOL0     H24100   1.869   8.036   4.956 -1.1995 -0.1327 -2.2870
  175MOL0     H24101   1.847   7.933   5.106 -1.0062 -0.8644 -0.9918
  175MOL0     H24102   1.674   7.951   4.859  0.5972  1.3811  0.0286
  175MOL0     H24103   1.682   7.798   4.943 -2.1868  0.7229  1.1984
  175MOL0     H24104   1.641   7.912   5.164 -0.1143  0.8617  1.2977
  175MOL0     H24105   1.609   8.065   5.084  1.4619 -0.0614 -1.0207
  175MOL0     H24106   1.489   7.776   5.044 -0.5562 -0.8037  2.9756
  175MOL0     H24107   1.413   7.875   5.150 -0.3507 -1.4691 -0.3389
  175MOL0     H24108   1.258   8.047   4.796 -0.3242 -1.1524 -3.5061
  175MOL0     H24109   0.911   8.027   4.659 -0.6275  2.1191  4.2670
  175MOL0     H24110   1.042   7.946   4.577 -3.2108  0.7514 -1.3538
  175MOL0     H24111   1.077   8.099   4.656  2.8157 -1.7355 -1.6646
  175MOL0     H24112   0.648   7.884   5.040 -0.4311  0.4762 -0.2849
  175MOL0     H24113   0.392   7.847   5.081  3.1925  3.3364  0.6430
  175MOL0     H24114   0.178   7.494   4.903  0.3610  1.7713 -0.2480
  175MOL0     H24115   0.219   7.449   5.068  2.1990  2.0048  0.3496
  175MOL0     H24116  -0.027   7.618   4.979 -1.9818 -1.3393  0.8547
  175MOL0     H24117  -0.032   7.457   5.022 -3.9633  1.4035  2.8441
  175MOL0     H24118   0.078   7.669   5.206  1.6005 -1.1583  0.0431
  175MOL0     H24119   0.043   7.504   5.251  1.7372  1.3078 -0.7725
  175MOL0     H24120  -0.206   7.567   5.153 -0.2638 -1.1866  3.3814
  175MOL0     H24121  -0.149   7.725   5.211 -3.3666  0.2364  2.8378
  175MOL0     H24122  -0.176   7.465   5.354  3.2673 -0.4581  1.6115
  175MOL0     H24123  -0.082   7.608   5.418  1.0282  1.7717 -2.7180
  175MOL0     H24124  -0.326   7.600   5.496  0.4508  0.3834  0.0465
  175MOL0     H24125  -0.372   7.641   5.333  0.2107  0.0935 -0.4305
  175MOL0     H24126  -0.260   7.856   5.343  1.5890  1.2538  0.8705
  175MOL0     H24127  -0.177   7.811   5.486  1.8457 -2.3128 -2.2171
  175MOL0     H24128  -0.361   7.967   5.534 -3.5906  1.8122 -0.1932
  175MOL0     H24129  -0.433   7.798   5.570 -0.1869 -2.8403 -2.0101
  175MOL0     H24130   0.401   7.467   4.889  1.1934  0.6652 -3.3708
  175MOL0     H24131   0.657   7.497   4.858 -1.9124 -1.6206 -0.6190
  175MOL0     H24132   1.017   7.664   4.999 -0.8652  0.0420  0.4163
  175MOL0     H24133   1.232   7.730   5.076  1.2457 -1.1240 -2.1751
  175MOL0     H24134   2.525   7.823   4.154  0.4651 -0.6358  0.3388
  175MOL0     H24135   2.581   7.655   3.989  0.8037 -0.4132 -1.1665
  175MOL0     H24136   2.873   7.673   3.510  1.0085  0.8809  2.1887
  175MOL0     H24137   2.942   7.524   3.351 -3.3852 -0.4569 -1.2196
  175MOL0     H24138   3.076   7.090   3.323  0.9838 -0.9789  1.4461
  175MOL0     H24139   3.042   7.131   3.491 -1.7693 -1.0190  1.1328
  175MOL0     H24140   2.861   7.013   3.280  2.8216  1.8512 -0.9792
  175MOL0     H24141   2.786   7.096   3.426  0.8254  2.3903  0.2775
  175MOL0     H24142   2.966   6.844   3.419 -1.4769  0.6789 -1.1952
  175MOL0     H24143   2.971   6.946   3.563 -0.1769  2.2077 -0.0766
  175MOL0     H24144   2.775   6.758   3.569 -1.9392  0.1971 -0.0472
  175MOL0     H24145   2.700   6.850   3.445 -2.1694 -0.9445  2.4516
  175MOL0     H24146   2.584   7.083   3.760  2.0308  0.1729  1.2119
  175MOL0     H24147   2.856   7.190   3.613  1.2922 -0.2493  1.1583
  175MOL0     H24148   2.739   7.227   3.789  1.2672  0.3209 -1.8856
  175MOL0     H24149   2.860   7.295   3.897 -0.7719 -2.8883 -0.0999
  175MOL0     H24150   2.713   7.386   3.864 -0.7517 -0.5837  1.8563
  176MOL0     O24151   4.240   3.956   3.298  0.5202 -0.1443 -0.1700
  176MOL0     C24152   4.129   3.946   3.246  0.2788 -0.6081  1.3025
  176MOL0     O24153   4.092   4.035   3.150  0.0344 -0.2671 -0.5549
  176MOL0     C24154   4.178   4.087   3.067  0.5319  0.4693 -0.1783
  176MOL0     C24155   4.226   4.215   3.093  0.2312 -0.5234 -0.2117
  176MOL0     C24156   4.315   4.270   3.002 -1.1521  0.6979 -0.3066
  176MOL0     C24157   4.338   4.209   2.875  0.0345  0.1461  0.7358
  176MOL0     O24158   4.408   4.279   2.784  0.1401  0.2291 -0.1747
  176MOL0     C24159   4.352   4.307   2.657 -0.5482 -0.3996 -0.6112
  176MOL0     C24160   4.416   4.423   2.567 -0.5745  0.3444 -0.6246
  176MOL0     C24161   4.375   4.555   2.644  1.0041 -0.1110 -0.5328
  176MOL0     C24162   4.440   4.682   2.593  0.0177  0.5379 -0.1161
  176MOL0     C24163   4.387   4.794   2.688  1.0382  0.1454  0.9797
  176MOL0     C24164   4.455   4.934   2.651 -0.5113  0.5020 -0.2228
  176MOL0     C24165   4.407   5.055   2.743 -0.3810  0.1351 -0.0617
  176MOL0     C24166   4.279   5.102   2.677  0.6139 -0.9928 -0.2929
  176MOL0     N24167   4.249   5.238   2.729 -0.2851  0.8059 -0.7564
  176MOL0     C24168   4.168   5.334   2.672  0.6194 -0.2794 -0.4884
  176MOL0     C24169   4.186   5.449   2.748  0.6621 -0.1128  0.0964
  176MOL0     C24170   4.090   5.566   2.702 -1.0118 -0.4449 -0.0461
  176MOL0     C24171   4.131   5.709   2.756 -0.0012  0.9226 -0.3149
  176MOL0     C24172   4.029   5.812   2.720  0.2054 -0.5308 -1.0610
  176MOL0     C24173   3.913   5.803   2.816  0.7780  0.3905  0.7081
  176MOL0     O24174   3.804   5.873   2.759  0.2966 -0.4085  0.3687
  176MOL0     C24175   3.676   5.854   2.814  0.0098  0.7957 -0.3202
  176MOL0     C24176   3.578   5.903   2.737  1.0490 -0.7191  0.5884
  176MOL0     C24177   3.437   5.891   2.771  0.9581 -0.1995 -1.1060
  176MOL0     C24178   3.334   5.948   2.680 -0.6647 -0.5074  0.4510
  176MOL0     C24179   3.405   5.821   2.895  0.2860  0.4499 -0.2751
  176MOL0     C24180   3.265   5.807   2.944  1.2750  0.3304  0.7118
  176MOL0     O24181   3.166   5.876   2.886  0.6674  0.4207  0.3263
  176MOL0     C24182   3.039   5.836   2.919 -0.0867  0.1927 -0.1010
  176MOL0     C24183   2.967   5.913   3.003  0.1413 -0.3911  0.1477
  176MOL0     C24184   2.841   5.872   3.054 -1.2869  0.0898  0.2157
  176MOL0     C24185   2.803   5.748   3.027 -0.0867 -0.0619 -0.2978
  176MOL0     O24186   2.678   5.693   3.078 -0.1803  0.1497  0.6815
  176MOL0     C24187   2.556   5.740   3.004 -0.4049  1.0448 -0.2466
  176MOL0     C24188   2.450   5.658   3.068 -0.0744 -0.1055 -0.2207
  176MOL0     C24189   2.409   5.688   3.221 -0.8094  0.5160  0.4370
  176MOL0     C24190   2.288   5.614   3.277  0.8413 -0.1077  0.2380
  176MOL0     C24191   2.249   5.693   3.405  0.3660  0.9004  0.7678
  176MOL0     C24192   2.109   5.658   3.467 -1.2619  1.2511 -0.3479
  176MOL0     C24193   2.083   5.747   3.583  0.5672  1.0450  0.2516
  176MOL0     C24194   1.944   5.716   3.642 -0.9202 -0.1312  0.2843
  176MOL0    Cl24195   1.808   5.777   3.539  0.2686 -0.7324  0.0785
  176MOL0     C24196   2.878   5.661   2.943  0.1592 -0.4069  0.4117
  176MOL0     C24197   2.994   5.711   2.883  0.5668 -0.0840 -0.4462
  176MOL0     O24198   3.252   5.731   3.045  0.3805  0.2281  0.4710
  176MOL0     C24199   3.515   5.785   2.983  0.6080 -0.2078 -0.3917
  176MOL0     C24200   3.650   5.793   2.938  0.5169 -0.2186 -0.4422
  176MOL0     N24201   4.274   5.425   2.858 -0.3388 -0.2898 -0.0031
  176MOL0     N24202   4.307   5.295   2.841  0.4478  0.5255  0.1550
  176MOL0     C24203   4.282   4.076   2.850  0.1081 -0.4804 -0.0378
  176MOL0     C24204   4.202   4.018   2.944 -0.1916  0.1249  0.1263
  176MOL0     C24205   4.032   3.833   3.282 -0.1767 -0.9413  0.2395
  176MOL0     C24206   3.902   3.842   3.231  0.1212 -1.0573 -0.0453
  176MOL0     C24207   3.797   3.756   3.273 -0.3120  0.0882  0.6207
  176MOL0     C24208   3.837   3.640   3.348  0.2778  0.4332  0.9478
  176MOL0     O24209   3.744   3.543   3.387  0.2605  0.6644 -0.5596
  176MOL0     C24210   3.602   3.558   3.378  0.2463 -0.4312  1.0743
  176MOL0     C24211   3.547   3.550   3.234  0.3471  0.4677  0.3160
  176MOL0     C24212   3.592   3.427   3.151 -0.1952 -0.0228 -0.2225
  176MOL0     C24213   3.554   3.293   3.223 -0.2913  0.5607  0.7862
  176MOL0     C24214   3.415   3.270   3.189  0.0244 -0.8072 -0.2322
  176MOL0     C24215   3.296   3.262   3.150 -1.0114 -0.0925  0.1993
  176MOL0     C24216   3.963   3.635   3.401  0.0545  0.3317  0.0013
  176MOL0     C24217   4.070   3.727   3.373  1.1635  0.4784  0.5605
  176MOL0     C24218   4.212   3.698   3.415  0.3724 -0.5521  0.1788
  176MOL0     H24219   4.197   4.263   3.186  0.2402  2.6939 -1.7499
  176MOL0     H24220   4.359   4.369   3.009 -0.2791  0.2527  0.7972
  176MOL0     H24221   4.245   4.318   2.679 -0.6509 -0.8084 -0.8832
  176MOL0     H24222   4.358   4.223   2.587 -0.3064  0.7677 -2.0576
  176MOL0     H24223   4.524   4.413   2.553 -0.4619 -0.7126  0.6771
  176MOL0     H24224   4.358   4.428   2.475 -4.6216  0.1813  1.6740
  176MOL0     H24225   4.266   4.557   2.639  1.0242 -0.9996 -2.1905
  176MOL0     H24226   4.392   4.549   2.752  0.3389  1.8640 -0.2638
  176MOL0     H24227   4.549   4.668   2.593  0.0941  0.7011  2.1657
  176MOL0     H24228   4.427   4.703   2.487  2.2363  2.7476 -0.0593
  176MOL0     H24229   4.392   4.759   2.792 -1.3323 -1.6446  0.6124
  176MOL0     H24230   4.283   4.797   2.654  1.3592  1.7326  0.0683
  176MOL0     H24231   4.563   4.927   2.668 -0.1534  0.7043 -2.1442
  176MOL0     H24232   4.449   4.951   2.543  2.4744 -1.9014 -0.8873
  176MOL0     H24233   4.490   5.126   2.747 -0.7213  0.4890  1.1289
  176MOL0     H24234   4.386   5.013   2.842  1.8339 -1.8756 -0.3732
  176MOL0     H24235   4.288   5.103   2.568  0.6192  1.9801 -0.3359
  176MOL0     H24236   4.202   5.027   2.700 -0.7504  0.7097  1.0297
  176MOL0     H24237   4.099   5.323   2.589  2.3251  0.9384 -2.1486
  176MOL0     H24238   3.983   5.550   2.715 -0.6621 -2.0221  1.2244
  176MOL0     H24239   4.110   5.571   2.594 -1.7396 -0.9352 -0.2099
  176MOL0     H24240   4.146   5.688   2.862  2.5176  0.1822 -0.7421
  176MOL0     H24241   4.230   5.733   2.716  0.0627  0.9414 -0.1473
  176MOL0     H24242   4.075   5.911   2.733 -0.1705 -0.5744  0.8391
  176MOL0     H24243   4.003   5.814   2.614  0.1275 -1.2959 -1.0633
  176MOL0     H24244   3.894   5.698   2.841  1.6353 -0.8858 -3.2897
  176MOL0     H24245   3.935   5.849   2.913 -0.4005  0.8244  0.7933
  176MOL0     H24246   3.604   5.961   2.649  0.6494 -0.3761  0.6889
  176MOL0     H24247   3.256   5.878   2.650 -1.0927  0.6136 -1.2276
  176MOL0     H24248   3.384   5.972   2.585 -2.5753  0.5120 -0.3530
  176MOL0     H24249   3.298   6.042   2.721  1.4757 -0.7667  3.2079
  176MOL0     H24250   3.008   6.012   3.013 -2.4375  1.1781 -2.8694
  176MOL0     H24251   2.791   5.941   3.122 -1.8086 -0.3826  0.3141
  176MOL0     H24252   2.538   5.847   3.018  0.8880  0.9477  2.7107
  176MOL0     H24253   2.560   5.712   2.898 -1.6267  2.0604 -0.5835
  176MOL0     H24254   2.367   5.678   3.001  1.9718  0.1834 -2.8174
  176MOL0     H24255   2.473   5.554   3.046  1.5676  0.4577 -1.3944
  176MOL0     H24256   2.390   5.796   3.219  2.2752  1.1353 -0.1420
  176MOL0     H24257   2.495   5.674   3.288  0.0033 -0.5412 -0.7861
  176MOL0     H24258   2.314   5.512   3.307  2.0099  0.6432  1.9732
  176MOL0     H24259   2.215   5.627   3.197  2.1264  1.0747 -0.7805
  176MOL0     H24260   2.335   5.680   3.472  1.8465  0.9417 -1.0418
  176MOL0     H24261   2.241   5.797   3.373 -2.1323  0.5355  0.0279
  176MOL0     H24262   2.100   5.550   3.481 -3.3265  1.3083 -0.9492
  176MOL0     H24263   2.024   5.675   3.401 -0.0688 -2.6376 -3.2240
  176MOL0     H24264   2.096   5.848   3.542 -0.7361  0.9963 -0.3282
  176MOL0     H24265   2.137   5.705   3.668 -3.9579 -0.5516  2.6995
  176MOL0     H24266   1.933   5.756   3.743  2.1565 -1.5307  1.2975
  176MOL0     H24267   1.926   5.609   3.654 -1.3412 -0.2725 -1.3415
  176MOL0     H24268   2.837   5.566   2.912 -2.1261  0.8072 -0.5484
  176MOL0     H24269   3.047   5.639   2.821 -1.2256  0.3746 -2.6440
  176MOL0     H24270   3.497   5.752   3.085 -0.5560 -1.3869 -0.9421
  176MOL0     H24271   3.719   5.748   3.008 -0.2111  2.6688  2.3597
  176MOL0     H24272   4.316   4.026   2.760 -2.5921 -2.3603 -0.1232
  176MOL0     H24273   4.153   3.922   2.928 -2.9695  1.7557 -1.9395
  176MOL0     H24274   3.861   3.904   3.152 -1.4441 -1.7106  0.2140
  176MOL0     H24275   3.701   3.769   3.226  0.7483  2.8035 -0.9991
  176MOL0     H24276   3.547   3.491   3.444  2.2574 -1.1661  2.0930
  176MOL0     H24277   3.587   3.662   3.407  3.8723  1.5548 -2.9123
  176MOL0     H24278   3.569   3.636   3.170  0.1195 -0.9119 -1.7008
  176MOL0     H24279   3.438   3.551   3.242  0.1548 -4.5294  1.9635
  176MOL0     H24280   3.550   3.429   3.050  0.5674  3.9084 -0.6222
  176MOL0     H24281   3.701   3.431   3.136 -0.1151 -1.0678  0.0610
  176MOL0     H24282   3.572   3.299   3.330 -0.2455 -0.9898  0.8948
  176MOL0     H24283   3.609   3.203   3.193 -0.0328  0.5459  1.3109
  176MOL0     H24284   3.202   3.235   3.107 -1.5344  1.2832  0.4258
  176MOL0     H24285   3.973   3.552   3.470  0.8836  0.7054  0.3421
  176MOL0     H24286   4.210   3.598   3.460 -0.3769  0.0536  1.5163
  176MOL0     H24287   4.284   3.700   3.332  0.4689 -0.0199  0.2703
  176MOL0     H24288   4.247   3.755   3.501  1.5669 -1.4461  0.3199
  177MOL0     O24289   6.869   4.402   2.763  0.3325 -0.0110  0.0647
  177MOL0     C24290   6.850   4.289   2.808 -0.7167  1.1556  0.4857
  177MOL0     O24291   6.939   4.189   2.779 -0.2730  0.7153  0.2726
  177MOL0     C24292   6.974   4.146   2.651  0.4538  0.3046  0.6060
  177MOL0     C24293   7.075   4.051   2.639 -0.0411 -0.0863 -0.2803
  177MOL0     C24294   7.113   3.993   2.524 -0.7076 -0.5868  0.5586
  177MOL0     C24295   7.057   4.030   2.396 -0.1491 -0.6420 -0.1117
  177MOL0     O24296   7.091   3.954   2.288 -0.0067 -0.4675  0.2876
  177MOL0     C24297   7.116   4.040   2.176 -0.0862 -0.4915 -0.0544
  177MOL0     C24298   7.214   3.981   2.076  0.2564 -0.5525 -0.1357
  177MOL0     C24299   7.358   3.965   2.139 -0.1620 -0.3558 -0.2743
  177MOL0     C24300   7.456   3.869   2.075 -0.4770  0.4297  0.5080
  177MOL0     C24301   7.477   3.894   1.922 -0.7093 -0.3176  0.1355
  177MOL0     C24302   7.525   4.035   1.902  1.1923  0.0693  1.1592
  177MOL0     C24303   7.565   4.066   1.758  0.2726  0.4152 -0.0802
  177MOL0     C24304   7.647   4.197   1.752 -0.0507 -0.0997 -0.4516
  177MOL0     N24305   7.662   4.246   1.613  0.6153  0.2101  0.3142
  177MOL0     C24306   7.641   4.370   1.565 -0.2245 -0.3668  0.3690
  177MOL0     C24307   7.679   4.352   1.434 -0.6767 -0.1117 -0.6537
  177MOL0     C24308   7.692   4.462   1.330 -0.0676 -0.2268  0.4008
  177MOL0     C24309   7.558   4.516   1.294  0.7955 -0.1673 -0.0707
  177MOL0     C24310   7.573   4.607   1.174  0.0565  0.0304 -0.5853
  177MOL0     C24311   7.606   4.754   1.212  0.8248  0.5300  0.7181
  177MOL0     O24312   7.634   4.833   1.095 -0.0245 -0.1080  0.3313
  177MOL0     C24313   7.546   4.855   0.987 -0.7339  0.7277  0.0839
  177MOL0     C24314   7.407   4.847   0.992 -0.1078 -0.3287  0.1481
  177MOL0     C24315   7.333   4.878   0.875  0.3662 -0.2710 -0.4818
  177MOL0     C24316   7.184   4.860   0.884  0.1386  0.5986  0.0294
  177MOL0     C24317   7.397   4.909   0.751 -0.4932  0.0333  0.2739
  177MOL0     C24318   7.335   4.946   0.618 -0.3857  0.1691 -0.1774
  177MOL0     O24319   7.417   4.996   0.517  0.0882  0.1006  0.1013
  177MOL0     C24320   7.374   5.066   0.404  0.3709  0.8947 -0.8632
  177MOL0     C24321   7.460   5.157   0.343  0.6956  0.2440 -0.7130
  177MOL0     C24322   7.404   5.244   0.249  0.5185  0.0280  0.2470
  177MOL0     C24323   7.272   5.217   0.204 -0.6611 -0.1300  0.4160
  177MOL0     O24324   7.210   5.305   0.114 -0.3013  0.4202 -0.0004
  177MOL0     C24325   7.226   5.292  -0.026  0.4145 -0.3867 -0.2302
  177MOL0     C24326   7.190   5.416  -0.108 -1.1526 -1.0499 -0.2382
  177MOL0     C24327   7.187   5.402  -0.268  0.3660  0.2897  0.4629
  177MOL0     C24328   7.076   5.301  -0.306 -0.7264 -1.2029  0.1561
  177MOL0     C24329   7.040   5.318  -0.458 -0.8887  0.7860  0.1584
  177MOL0     C24330   6.899   5.261  -0.478 -0.5087  0.2784 -0.2524
  177MOL0     C24331   6.877   5.273  -0.633  0.3714 -0.0608 -0.3102
  177MOL0     C24332   6.737   5.317  -0.662 -0.6650  0.0903 -0.1540
  177MOL0    Cl24333   6.617   5.224  -0.572  0.2749 -0.5354  0.4180
  177MOL0     C24334   7.194   5.108   0.248 -0.7033  0.5630  0.2799
  177MOL0     C24335   7.247   5.033   0.352  0.2077 -0.8758  0.2495
  177MOL0     O24336   7.209   4.944   0.615 -0.6485 -0.0408  0.3319
  177MOL0     C24337   7.542   4.907   0.749  0.4712  0.3086  0.8813
  177MOL0     C24338   7.609   4.879   0.870 -0.0457  0.3787 -0.6566
  177MOL0     N24339   7.719   4.224   1.414 -0.5933  0.4124  0.5654
  177MOL0     N24340   7.695   4.157   1.517 -0.3983  0.0878 -0.5657
  177MOL0     C24341   6.965   4.139   2.412  0.8875  0.6422 -0.7329
  177MOL0     C24342   6.924   4.199   2.537 -0.8919  1.1703  0.2738
  177MOL0     C24343   6.722   4.257   2.881 -0.1602 -0.3291 -0.0954
  177MOL0     C24344   6.615   4.352   2.864 -0.6475  0.3271  0.5801
  177MOL0     C24345   6.492   4.326   2.923 -0.2438  0.9176 -0.7415
  177MOL0     C24346   6.475   4.220   3.011 -0.2054 -0.5020 -0.4679
  177MOL0     O24347   6.364   4.230   3.091 -0.1558  0.0767 -0.2263
  177MOL0     C24348   6.337   4.110   3.161 -0.0892  0.6519  0.0027
  177MOL0     C24349   6.207   4.131   3.235 -0.3630 -0.1346  0.1652
  177MOL0     C24350   6.096   4.121   3.140  0.9284 -0.5807 -0.3404
  177MOL0     C24351   5.951   4.079   3.204 -0.3371  0.7879 -0.3075
  177MOL0     C24352   5.923   4.153   3.324 -0.1963 -0.1167  0.5819
  177MOL0     C24353   5.915   4.216   3.429  0.6326 -0.5186  0.0368
  177MOL0     C24354   6.576   4.128   3.027 -0.6153 -0.3938  0.5644
  177MOL0     C24355   6.706   4.144   2.968 -0.3240  0.7125  0.9745
  177MOL0     C24356   6.807   4.032   2.987 -0.7775  0.9798  0.4075
  177MOL0     H24357   7.114   4.015   2.734 -2.6041 -1.2200  0.4331
  177MOL0     H24358   7.193   3.920   2.523  2.1010  2.2629 -1.1614
  177MOL0     H24359   7.165   4.134   2.202 -1.3798  0.2735 -0.3387
  177MOL0     H24360   7.024   4.059   2.120 -0.8941  0.8066  1.6391
  177MOL0     H24361   7.183   3.886   2.032  0.4645  0.4465 -2.6071
  177MOL0     H24362   7.225   4.050   1.992  1.8672 -1.1362 -0.4408
  177MOL0     H24363   7.396   4.066   2.151 -1.2723 -0.0231  0.6217
  177MOL0     H24364   7.350   3.933   2.244  1.3223  2.2425  0.7065
  177MOL0     H24365   7.547   3.888   2.134  2.0488 -1.3298 -2.5059
  177MOL0     H24366   7.428   3.765   2.095 -0.8959  0.4834  0.1900
  177MOL0     H24367   7.377   3.891   1.878 -0.2403  5.6046 -2.2114
  177MOL0     H24368   7.543   3.818   1.878 -0.8392  0.5225 -1.5941
  177MOL0     H24369   7.434   4.092   1.918 -0.6386 -2.8321  1.7966
  177MOL0     H24370   7.604   4.068   1.970  4.0542 -1.1870 -1.3197
  177MOL0     H24371   7.470   4.084   1.707  0.7001  0.4582 -0.8678
  177MOL0     H24372   7.610   3.974   1.718 -0.2627 -0.7159  1.7779
  177MOL0     H24373   7.597   4.275   1.811 -0.5606  0.5573 -1.7304
  177MOL0     H24374   7.748   4.179   1.790  0.2295  1.6451 -0.3087
  177MOL0     H24375   7.612   4.465   1.608 -1.5457  0.0830 -1.4212
  177MOL0     H24376   7.748   4.408   1.253 -0.4671 -2.4821  1.5945
  177MOL0     H24377   7.756   4.544   1.361  2.6648 -1.8619 -0.5529
  177MOL0     H24378   7.491   4.434   1.265 -1.1871  0.9676  1.0546
  177MOL0     H24379   7.514   4.572   1.377  2.4150  1.1271 -0.0514
  177MOL0     H24380   7.646   4.561   1.107  1.0600 -1.6794  1.5811
  177MOL0     H24381   7.484   4.628   1.113  0.3473  0.9191 -0.7318
  177MOL0     H24382   7.533   4.803   1.278 -0.3825 -0.7111  0.3419
  177MOL0     H24383   7.703   4.752   1.264  2.4456  2.8260 -1.9218
  177MOL0     H24384   7.356   4.820   1.084  1.7951 -0.3844  1.2472
  177MOL0     H24385   7.126   4.951   0.866 -0.4596  0.0986 -0.6491
  177MOL0     H24386   7.141   4.821   0.977  0.5457 -0.1293 -0.0735
  177MOL0     H24387   7.148   4.787   0.810  4.2978  0.0223 -1.7219
  177MOL0     H24388   7.564   5.160   0.375 -0.0516 -0.0959  1.9491
  177MOL0     H24389   7.452   5.332   0.208  1.7883 -0.9574 -0.4452
  177MOL0     H24390   7.328   5.259  -0.048  0.5776  1.1832 -1.9753
  177MOL0     H24391   7.165   5.210  -0.065  1.0121  0.7990 -4.0416
  177MOL0     H24392   7.092   5.453  -0.076 -1.4090 -1.4708 -0.5222
  177MOL0     H24393   7.265   5.489  -0.077 -0.3592 -1.9598  0.0369
  177MOL0     H24394   7.284   5.380  -0.312 -0.9782 -1.3834 -1.9195
  177MOL0     H24395   7.162   5.505  -0.297 -1.1005  1.0052  3.6952
  177MOL0     H24396   6.994   5.315  -0.235 -0.3288  1.3592  0.2070
  177MOL0     H24397   7.135   5.209  -0.301  1.5447 -0.3624 -4.7972
  177MOL0     H24398   7.046   5.421  -0.495 -0.2524 -0.0145 -2.1155
  177MOL0     H24399   7.112   5.257  -0.513  0.7202  1.6899  1.1946
  177MOL0     H24400   6.826   5.317  -0.419 -0.1812 -0.7017  1.1197
  177MOL0     H24401   6.889   5.155  -0.454 -3.3125  0.6930  0.8398
  177MOL0     H24402   6.878   5.170  -0.670 -0.5625 -1.1955  2.5154
  177MOL0     H24403   6.955   5.337  -0.675 -0.3842  2.3182  1.7113
  177MOL0     H24404   6.721   5.300  -0.769  1.9334  2.1710 -0.9977
  177MOL0     H24405   6.735   5.421  -0.631  3.5033  1.2206 -2.8091
  177MOL0     H24406   7.103   5.071   0.202 -0.7776 -2.0274  2.2530
  177MOL0     H24407   7.203   4.940   0.385  1.3933 -1.5717 -0.0565
  177MOL0     H24408   7.599   4.913   0.657 -1.3388 -0.3384 -0.3376
  177MOL0     H24409   7.717   4.875   0.878  0.0518 -3.7526 -1.9372
  177MOL0     H24410   6.916   4.175   2.322 -0.5083 -0.9881 -0.6767
  177MOL0     H24411   6.850   4.279   2.543  0.2158  2.1272  2.1460
  177MOL0     H24412   6.626   4.428   2.788 -2.6354 -1.9376 -2.1903
  177MOL0     H24413   6.416   4.402   2.909 -0.3398  0.5924 -2.0463
  177MOL0     H24414   6.346   4.028   3.089  1.6612  3.1298 -2.8531
  177MOL0     H24415   6.417   4.085   3.231 -1.1111 -0.8745  0.6589
  177MOL0     H24416   6.207   4.224   3.293 -1.6328 -0.0295  0.0112
  177MOL0     H24417   6.204   4.045   3.303  0.6466 -0.8778 -0.7008
  177MOL0     H24418   6.094   4.208   3.073  0.2983 -1.9534 -2.1717
  177MOL0     H24419   6.115   4.043   3.066  1.3980 -0.3064 -0.5114
  177MOL0     H24420   5.950   3.972   3.226 -0.6352  0.5694 -1.3542
  177MOL0     H24421   5.866   4.095   3.137 -0.8516  1.3376  0.4580
  177MOL0     H24422   5.902   4.277   3.517 -3.2682  0.9248 -1.3006
  177MOL0     H24423   6.567   4.037   3.086 -0.0941 -1.0634 -0.3572
  177MOL0     H24424   6.903   4.069   3.024 -0.5341  1.1019 -0.3307
  177MOL0     H24425   6.775   3.965   3.067  2.6574 -1.7556 -0.2491
  177MOL0     H24426   6.827   3.978   2.893  1.5965  2.9351 -0.3393
  178MOL0     O24427   2.492   2.625  11.343 -0.2512 -0.3755 -0.1427
  178MOL0     C24428   2.496   2.683  11.234  0.5283 -0.3226 -0.8925
  178MOL0     O24429   2.395   2.763  11.183  0.8359  0.0020  0.1652
  178MOL0     C24430   2.290   2.796  11.258  1.3005 -0.1091  0.0245
  178MOL0     C24431   2.220   2.913  11.213 -0.4254  0.0812  0.9614
  178MOL0     C24432   2.100   2.945  11.279  0.8859  0.2203  1.1278
  178MOL0     C24433   2.040   2.859  11.378 -0.7257  0.5060  0.0432
  178MOL0     O24434   1.927   2.899  11.441  0.6740  0.5212  1.1305
  178MOL0     C24435   1.841   2.811  11.512 -0.0587 -0.3211  0.1491
  178MOL0     C24436   1.711   2.880  11.544 -0.0159  0.9444 -0.2332
  178MOL0     C24437   1.723   2.990  11.643 -0.0557 -0.1222  0.1186
  178MOL0     C24438   1.714   2.930  11.780  0.0245  0.3526 -0.0634
  178MOL0     C24439   1.696   3.040  11.885 -0.2530  0.1973  0.2812
  178MOL0     C24440   1.777   3.168  11.859 -0.0579  0.2134 -0.1071
  178MOL0     C24441   1.801   3.239  11.990  0.2857  0.4596 -0.5465
  178MOL0     C24442   1.821   3.390  11.982  0.8678 -1.2026 -0.5417
  178MOL0     N24443   1.711   3.469  11.932 -0.2593  0.5290  0.7580
  178MOL0     C24444   1.706   3.561  11.833 -0.0416  0.7753 -0.1371
  178MOL0     C24445   1.579   3.613  11.842  0.7478  0.2440  1.2626
  178MOL0     C24446   1.526   3.725  11.752 -1.0527  0.0281  0.6025
  178MOL0     C24447   1.620   3.855  11.756  0.1026  0.3881 -0.2465
  178MOL0     C24448   1.661   3.921  11.621  0.0598  0.4747  0.0661
  178MOL0     C24449   1.680   3.811  11.512  0.0914 -0.5546  0.3627
  178MOL0     O24450   1.749   3.687  11.549  0.2076 -0.9011  0.0053
  178MOL0     C24451   1.835   3.613  11.470  0.7999 -0.5487  0.4097
  178MOL0     C24452   1.893   3.505  11.520  0.9830  0.9945 -0.1820
  178MOL0     C24453   1.972   3.413  11.447  0.5972 -0.2982 -0.0814
  178MOL0     C24454   2.023   3.292  11.514 -0.3905  0.1421 -0.8035
  178MOL0     C24455   2.004   3.437  11.313 -0.2079  0.4722  0.7124
  178MOL0     C24456   2.084   3.340  11.228  0.4162 -0.5929  0.6854
  178MOL0     O24457   2.060   3.359  11.092  0.5575  1.0420 -0.6493
  178MOL0     C24458   2.100   3.264  11.006  0.7735 -1.0110  0.6967
  178MOL0     C24459   2.031   3.146  10.973  0.1053  0.2026  0.7901
  178MOL0     C24460   2.091   3.057  10.885  0.0043 -1.3077 -0.1176
  178MOL0     C24461   2.223   3.079  10.842  1.4255  0.2081  0.1659
  178MOL0     O24462   2.286   2.982  10.760 -0.8743 -0.1613 -0.0827
  178MOL0     C24463   2.275   2.851  10.806 -0.1689  1.0140 -0.0214
  178MOL0     C24464   2.398   2.765  10.762  0.0500 -0.6348 -0.7042
  178MOL0     C24465   2.368   2.614  10.781  0.0829 -0.6618  0.2134
  178MOL0     C24466   2.493   2.532  10.773  0.4852 -0.2502 -0.8046
  178MOL0     C24467   2.475   2.380  10.792 -0.1775  0.7422 -0.2270
  178MOL0     C24468   2.585   2.306  10.707  0.0679 -0.6858 -0.4418
  178MOL0     C24469   2.735   2.328  10.753 -0.1246  0.1442 -0.7912
  178MOL0     C24470   2.849   2.255  10.682 -0.8306 -0.7672  0.2106
  178MOL0    Cl24471   2.798   2.094  10.614 -0.3709  0.1457 -0.2362
  178MOL0     C24472   2.291   3.191  10.876 -0.0577  0.1530 -0.3305
  178MOL0     C24473   2.230   3.289  10.959 -0.0634 -0.2703  0.5984
  178MOL0     O24474   2.158   3.258  11.272  0.1495 -0.0247 -0.1949
  178MOL0     C24475   1.927   3.543  11.251 -1.0145 -0.7048  0.6957
  178MOL0     C24476   1.850   3.627  11.333 -0.4796 -0.2947  0.1562
  178MOL0     N24477   1.508   3.549  11.940 -0.2186 -0.4277 -0.4770
  178MOL0     N24478   1.588   3.455  11.991  0.1316  0.7327 -0.2506
  178MOL0     C24479   2.111   2.740  11.404  0.4517 -0.0781  0.0773
  178MOL0     C24480   2.232   2.711  11.346  0.3373  0.9022 -0.3604
  178MOL0     C24481   2.614   2.652  11.150 -0.6828  0.1209  0.7040
  178MOL0     C24482   2.663   2.516  11.149  0.3296 -0.4293  0.6861
  178MOL0     C24483   2.787   2.486  11.082 -0.1857  0.6820  0.1914
  178MOL0     C24484   2.838   2.582  11.001  0.7216  0.1864  0.4177
  178MOL0     O24485   2.942   2.540  10.927 -0.3113 -1.0196  0.0788
  178MOL0     C24486   3.016   2.621  10.838 -0.5293 -0.1574  0.2805
  178MOL0     C24487   3.142   2.551  10.774  0.0241 -0.0360 -0.0088
  178MOL0     C24488   3.226   2.476  10.882  0.1751  0.5711  0.1769
  178MOL0     C24489   3.338   2.390  10.816  0.1026  0.2120  0.4502
  178MOL0     C24490   3.279   2.270  10.752  0.1140 -1.0078 -0.3184
  178MOL0     C24491   3.213   2.175  10.714 -0.2828 -0.3293  0.1773
  178MOL0     C24492   2.783   2.709  10.989 -0.2223  1.4819 -0.0396
  178MOL0     C24493   2.677   2.740  11.060  0.5716 -0.3524  0.4902
  178MOL0     C24494   2.619   2.889  11.049 -0.2893 -0.2143 -0.8200
  178MOL0     H24495   2.243   2.977  11.129 -0.8993 -0.3679  0.4876
  178MOL0     H24496   2.040   3.030  11.249 -0.5654 -1.1753 -0.0479
  178MOL0     H24497   1.882   2.784  11.610 -0.0661  0.6046  0.4138
  178MOL0     H24498   1.820   2.721  11.453 -0.8138  0.7424 -1.2673
  178MOL0     H24499   1.668   2.923  11.453 -1.3124  0.7841  0.2827
  178MOL0     H24500   1.644   2.799  11.575  0.6200  0.4842 -0.0456
  178MOL0     H24501   1.821   3.039  11.634 -1.0171  1.6587 -1.3668
  178MOL0     H24502   1.650   3.071  11.640  1.8800  1.7897  1.5068
  178MOL0     H24503   1.633   2.857  11.779 -0.9425  1.3249 -2.3481
  178MOL0     H24504   1.808   2.878  11.801 -0.4975  0.4112  2.7768
  178MOL0     H24505   1.728   2.992  11.978 -0.2013  0.3349  0.3356
  178MOL0     H24506   1.589   3.062  11.894 -1.4234 -4.5096  0.1117
  178MOL0     H24507   1.877   3.127  11.840  0.1244 -0.2025  1.6147
  178MOL0     H24508   1.739   3.232  11.779 -1.7328 -1.1408 -0.4599
  178MOL0     H24509   1.881   3.196  12.049 -0.7398 -1.0941 -0.2367
  178MOL0     H24510   1.713   3.217  12.051  0.9232 -1.6541 -0.3298
  178MOL0     H24511   1.835   3.409  12.089  0.7241 -1.2036 -0.5229
  178MOL0     H24512   1.910   3.412  11.923  2.8761 -1.0490  2.3445
  178MOL0     H24513   1.781   3.600  11.764 -1.4766  0.2850 -2.0608
  178MOL0     H24514   1.426   3.752  11.784 -0.6829  0.1550  1.6706
  178MOL0     H24515   1.529   3.688  11.648  1.7848 -1.9235  1.2424
  178MOL0     H24516   1.583   3.931  11.825 -2.5563  1.4071 -2.5975
  178MOL0     H24517   1.710   3.823  11.810  0.7067  1.0456 -0.8238
  178MOL0     H24518   1.576   3.982  11.587 -0.3452 -0.7921 -1.3191
  178MOL0     H24519   1.745   3.991  11.630 -0.5354  1.5211 -2.0001
  178MOL0     H24520   1.582   3.793  11.468  0.8307 -2.1495 -0.7262
  178MOL0     H24521   1.720   3.866  11.426 -2.7955  0.4756 -0.4307
  178MOL0     H24522   1.878   3.469  11.621  1.6006  0.5649 -0.2370
  178MOL0     H24523   1.983   3.279  11.615  1.1501  2.3780  0.1583
  178MOL0     H24524   2.131   3.291  11.526 -0.5786 -0.4453  1.3348
  178MOL0     H24525   2.001   3.205  11.451  3.1709  0.6088 -2.9426
  178MOL0     H24526   1.932   3.124  11.010 -0.4911  2.7780  0.9623
  178MOL0     H24527   2.046   2.960  10.866 -2.2544 -0.9149  2.5792
  178MOL0     H24528   2.270   2.852  10.915 -0.2402 -0.8163  0.0199
  178MOL0     H24529   2.187   2.800  10.765  0.6314  1.3995 -2.4122
  178MOL0     H24530   2.415   2.780  10.655  2.1188 -1.2135 -0.4972
  178MOL0     H24531   2.488   2.796  10.817  0.4028 -0.7377 -1.2215
  178MOL0     H24532   2.300   2.589  10.699  0.5160  1.9519 -1.0520
  178MOL0     H24533   2.336   2.589  10.883  1.0403 -1.1128  0.4190
  178MOL0     H24534   2.571   2.563  10.843 -2.2028 -1.0661  2.8734
  178MOL0     H24535   2.538   2.547  10.675 -0.3103  0.2087 -1.1106
  178MOL0     H24536   2.490   2.346  10.895 -0.2754 -3.4277 -1.4033
  178MOL0     H24537   2.369   2.365  10.767  0.1970  0.2460 -1.5806
  178MOL0     H24538   2.579   2.343  10.605 -2.3779 -0.0704 -0.1250
  178MOL0     H24539   2.560   2.200  10.701  3.1274 -1.5248 -0.3228
  178MOL0     H24540   2.747   2.305  10.860  1.5902 -0.6971 -1.1396
  178MOL0     H24541   2.757   2.434  10.740 -0.3023  0.6019  1.9299
  178MOL0     H24542   2.935   2.246  10.748 -0.5782 -0.1205 -0.0159
  178MOL0     H24543   2.888   2.314  10.598  2.5613 -2.9665  0.0504
  178MOL0     H24544   2.396   3.204  10.852  0.0201  2.6515  1.1155
  178MOL0     H24545   2.280   3.382  10.982  3.8108 -1.8531 -0.6421
  178MOL0     H24546   1.928   3.569  11.146 -2.4070  1.5366  1.1661
  178MOL0     H24547   1.796   3.709  11.287  1.0551 -0.8662 -2.9675
  178MOL0     H24548   2.077   2.675  11.485  0.4262  0.1557  0.2569
  178MOL0     H24549   2.267   2.612  11.372  2.0812  0.9147 -2.4381
  178MOL0     H24550   2.626   2.426  11.198 -3.9569 -0.7170 -2.5206
  178MOL0     H24551   2.843   2.394  11.092 -1.7162 -0.0199  5.4427
  178MOL0     H24552   2.964   2.639  10.744  1.7560  0.1916 -0.9699
  178MOL0     H24553   3.048   2.709  10.894 -1.4767  0.9586 -0.8881
  178MOL0     H24554   3.207   2.624  10.725  1.1441 -0.3236  0.9814
  178MOL0     H24555   3.100   2.491  10.693 -0.9260  0.7386 -0.1046
  178MOL0     H24556   3.269   2.547  10.953 -1.2123  1.8326 -0.1645
  178MOL0     H24557   3.152   2.413  10.933 -0.4502  1.3085  0.2001
  178MOL0     H24558   3.408   2.351  10.891  0.4506 -3.4551 -1.5463
  178MOL0     H24559   3.400   2.443  10.743  0.0563  2.3589  1.8895
  178MOL0     H24560   3.155   2.093  10.678 -0.0041 -1.2921  1.8040
  178MOL0     H24561   2.820   2.775  10.912  0.8936 -1.1779 -1.9233
  178MOL0     H24562   2.516   2.903  11.015 -0.3205 -3.4923 -2.4727
  178MOL0     H24563   2.624   2.936  11.148 -0.3283 -1.1892 -0.3372
  178MOL0     H24564   2.683   2.947  10.982  2.3038  0.8730  2.2893
  179MOL0     O24565   3.843   7.319   5.440 -0.0995  0.0436  0.2684
  179MOL0     C24566   3.759   7.256   5.382  0.3062  0.4780 -0.3156
  179MOL0     O24567   3.670   7.167   5.438 -0.2747 -0.9110 -0.1398
  179MOL0     C24568   3.652   7.144   5.575 -0.2879 -0.4479  0.7344
  179MOL0     C24569   3.525   7.111   5.602  0.1559 -0.4391 -0.1879
  179MOL0     C24570   3.477   7.082   5.735  0.0504  0.5374  0.7533
  179MOL0     C24571   3.569   7.103   5.842 -0.5846 -1.2948 -0.7183
  179MOL0     O24572   3.523   7.068   5.971 -0.5739  0.8202 -0.0833
  179MOL0     C24573   3.408   7.136   6.023 -0.2792 -0.9304 -0.0248
  179MOL0     C24574   3.448   7.188   6.161 -0.4188  0.0338  0.3535
  179MOL0     C24575   3.548   7.308   6.170  0.0076 -0.2161  0.4077
  179MOL0     C24576   3.516   7.365   6.312 -0.3263  0.5039  0.3597
  179MOL0     C24577   3.605   7.470   6.373  0.2115 -0.5536 -0.1007
  179MOL0     C24578   3.609   7.589   6.280 -0.0881 -0.3655  0.7270
  179MOL0     C24579   3.713   7.697   6.307  1.0104  0.1503 -0.3856
  179MOL0     C24580   3.719   7.805   6.194  0.1479  0.4666  0.0247
  179MOL0     N24581   3.783   7.928   6.239 -1.3635  0.1259  0.0425
  179MOL0     C24582   3.894   7.979   6.177 -0.2959 -0.6495  0.6606
  179MOL0     C24583   3.894   8.107   6.232  0.0165 -0.8136  0.0697
  179MOL0     C24584   3.987   8.220   6.201  0.0508  0.6109 -0.2100
  179MOL0     C24585   3.929   8.308   6.088 -0.0180  0.2469 -1.1408
  179MOL0     C24586   4.019   8.437   6.078 -0.0006 -0.2589  0.2825
  179MOL0     C24587   3.996   8.541   6.191  0.0630  0.0118  0.2552
  179MOL0     O24588   4.115   8.541   6.266 -0.2444 -0.3131  0.3215
  179MOL0     C24589   4.130   8.640   6.358  0.2194  0.2467  0.5957
  179MOL0     C24590   4.171   8.765   6.315 -0.5878  0.4654  0.3700
  179MOL0     C24591   4.214   8.861   6.408  0.5926 -0.0107  0.2550
  179MOL0     C24592   4.249   9.001   6.358  0.2983 -0.2251 -0.0025
  179MOL0     C24593   4.228   8.824   6.548  0.3060  0.8336 -0.3823
  179MOL0     C24594   4.279   8.923   6.648 -0.1200  0.7726 -0.3038
  179MOL0     O24595   4.256   8.883   6.779 -0.2584  0.1948  0.3365
  179MOL0     C24596   4.305   8.960   6.880 -0.1719  0.4681 -0.6934
  179MOL0     C24597   4.214   9.031   6.963 -0.2615  0.0914 -0.5333
  179MOL0     C24598   4.262   9.112   7.067 -0.6295 -0.3733  0.0834
  179MOL0     C24599   4.394   9.140   7.093 -0.9314  0.8050  0.4222
  179MOL0     O24600   4.436   9.231   7.189 -0.8161  0.1480  0.0709
  179MOL0     C24601   4.568   9.216   7.246 -0.7326 -0.1204  0.4478
  179MOL0     C24602   4.680   9.300   7.196  0.1321  0.4002  0.9643
  179MOL0     C24603   4.673   9.442   7.236  0.0105  0.5843  0.2236
  179MOL0     C24604   4.791   9.525   7.181  0.2588  0.8409 -0.0271
  179MOL0     C24605   4.811   9.666   7.234  0.4316 -0.2688  0.1184
  179MOL0     C24606   4.941   9.717   7.173 -0.0628  0.5673 -1.3107
  179MOL0     C24607   4.953   9.869   7.201 -0.1497 -0.5301  0.7437
  179MOL0     C24608   4.977   9.944   7.069  0.9327 -0.3558  0.1793
  179MOL0    Cl24609   4.844   9.902   6.954  0.0437 -0.4178 -0.3265
  179MOL0     C24610   4.484   9.077   7.006  0.6544 -0.0911 -0.9479
  179MOL0     C24611   4.445   8.984   6.906  0.4416 -0.4343 -0.2081
  179MOL0     O24612   4.325   9.034   6.615 -0.8499  0.7713 -0.2087
  179MOL0     C24613   4.188   8.693   6.590  0.3441  1.3314  0.3711
  179MOL0     C24614   4.145   8.607   6.490  0.1351  0.3821 -0.3911
  179MOL0     N24615   3.806   8.117   6.330  0.0751 -1.0528  0.5273
  179MOL0     N24616   3.738   8.013   6.339 -0.3742  0.0756 -0.3989
  179MOL0     C24617   3.704   7.132   5.812 -0.1113 -0.2486 -0.0059
  179MOL0     C24618   3.741   7.156   5.678 -0.1670 -0.4521  0.1872
  179MOL0     C24619   3.755   7.243   5.238  0.5632  0.5196 -0.0040
  179MOL0     C24620   3.752   7.366   5.171 -0.2258  0.3774  0.7068
  179MOL0     C24621   3.745   7.373   5.028 -0.2294  0.6274 -0.3835
  179MOL0     C24622   3.755   7.257   4.950 -0.4434  0.1382 -0.6838
  179MOL0     O24623   3.749   7.263   4.811  0.6594 -0.7014  0.2374
  179MOL0     C24624   3.715   7.148   4.731  0.3933  0.0111 -0.2048
  179MOL0     C24625   3.837   7.069   4.687  0.7318 -0.5003 -0.9292
  179MOL0     C24626   3.792   6.964   4.580  0.6528  0.0020  0.7608
  179MOL0     C24627   3.898   6.859   4.548 -0.4243 -0.4876  0.3349
  179MOL0     C24628   3.848   6.730   4.499  0.3833  0.0449 -0.1842
  179MOL0     C24629   3.806   6.625   4.446  0.3547  0.5179 -0.4263
  179MOL0     C24630   3.750   7.130   5.013  0.0358 -0.4096  0.3487
  179MOL0     C24631   3.749   7.123   5.155  0.1338 -0.1356 -0.3137
  179MOL0     C24632   3.740   6.980   5.217  0.3525 -0.6808  0.4455
  179MOL0     H24633   3.459   7.098   5.517 -2.0116 -0.7245  1.4398
  179MOL0     H24634   3.374   7.048   5.736  0.5750 -1.4856 -2.0371
  179MOL0     H24635   3.316   7.077   6.024 -0.7072 -0.3131 -1.1000
  179MOL0     H24636   3.388   7.226   5.965 -0.5955 -0.4147  0.8577
  179MOL0     H24637   3.360   7.221   6.217 -0.3718 -1.3358  1.2814
  179MOL0     H24638   3.484   7.101   6.217 -1.4554 -1.2910 -0.9479
  179MOL0     H24639   3.653   7.283   6.151 -0.2249  0.9618 -3.0633
  179MOL0     H24640   3.516   7.378   6.092 -3.3282 -0.3175  1.5140
  179MOL0     H24641   3.423   7.422   6.300  0.2582  1.8317  1.7993
  179MOL0     H24642   3.493   7.287   6.384 -2.4257 -0.7250 -1.5286
  179MOL0     H24643   3.703   7.433   6.404  0.6145 -2.0161 -2.8280
  179MOL0     H24644   3.556   7.506   6.464  0.5462  0.7770 -0.4227
  179MOL0     H24645   3.625   7.560   6.176 -1.4438 -0.2853  0.4735
  179MOL0     H24646   3.508   7.628   6.295  0.4014  0.1264  3.1775
  179MOL0     H24647   3.816   7.659   6.315  1.1934  0.1893 -2.2067
  179MOL0     H24648   3.687   7.752   6.398  1.2950 -1.2437  0.5902
  179MOL0     H24649   3.755   7.752   6.105  2.1064 -0.5390  1.3572
  179MOL0     H24650   3.611   7.822   6.185  0.0059 -0.1201  0.5485
  179MOL0     H24651   3.955   7.934   6.099 -2.2207 -1.5948 -0.3524
  179MOL0     H24652   4.081   8.178   6.164 -1.2258 -1.8462 -0.8567
  179MOL0     H24653   4.008   8.271   6.295 -0.2088 -1.2853  0.9352
  179MOL0     H24654   3.918   8.255   5.993  0.5308  1.7266 -2.0698
  179MOL0     H24655   3.825   8.336   6.107  0.2256  2.2775 -2.5350
  179MOL0     H24656   4.124   8.421   6.054 -0.1567 -0.5195 -0.2620
  179MOL0     H24657   3.980   8.486   5.988 -1.7407 -0.5005  0.8555
  179MOL0     H24658   3.972   8.641   6.155 -1.8659 -0.1265  1.0356
  179MOL0     H24659   3.906   8.501   6.238 -1.4706 -0.1973 -2.6507
  179MOL0     H24660   4.165   8.779   6.207 -5.2266  1.9166  0.6113
  179MOL0     H24661   4.357   9.013   6.361  0.2758 -0.1688  1.6570
  179MOL0     H24662   4.197   9.080   6.414  1.1469  1.0418 -0.9340
  179MOL0     H24663   4.219   9.010   6.253 -0.8327  0.4540  0.3598
  179MOL0     H24664   4.108   9.013   6.952 -0.2683 -0.5838  0.5665
  179MOL0     H24665   4.197   9.157   7.141  0.4508 -2.5961  2.6040
  179MOL0     H24666   4.563   9.236   7.354  0.1079 -0.5838  0.5806
  179MOL0     H24667   4.591   9.110   7.232 -1.6956 -0.4279  1.0788
  179MOL0     H24668   4.769   9.256   7.241 -0.3905 -2.5034 -0.6174
  179MOL0     H24669   4.687   9.287   7.088  0.0865  3.6640  0.4781
  179MOL0     H24670   4.669   9.454   7.344  0.5142  0.2495  0.2829
  179MOL0     H24671   4.584   9.486   7.189 -0.1107 -0.5908 -0.7064
  179MOL0     H24672   4.783   9.534   7.072 -0.5640 -1.3646 -0.2066
  179MOL0     H24673   4.876   9.465   7.216  0.3506  1.2774  0.5004
  179MOL0     H24674   4.740   9.734   7.185  1.8226 -1.1776 -3.4967
  179MOL0     H24675   4.818   9.672   7.343  1.4637  0.2324  0.0417
  179MOL0     H24676   4.954   9.686   7.068 -0.1929 -2.5967 -0.4860
  179MOL0     H24677   5.019   9.668   7.232 -1.6221 -1.0355 -0.4945
  179MOL0     H24678   5.028   9.896   7.275  0.2960  0.7067 -0.1258
  179MOL0     H24679   4.860   9.911   7.242 -1.2309 -1.0247 -1.0537
  179MOL0     H24680   5.076   9.923   7.026  0.5527  0.7320 -1.3038
  179MOL0     H24681   4.966  10.052   7.082  0.3601 -0.3344 -0.4529
  179MOL0     H24682   4.592   9.079   7.018  0.9260 -0.2582 -2.9149
  179MOL0     H24683   4.520   8.960   6.831 -0.7390  1.0530 -1.9257
  179MOL0     H24684   4.211   8.643   6.683 -2.2098  0.2637  0.5172
  179MOL0     H24685   4.116   8.503   6.502 -1.8415  0.8328 -0.9011
  179MOL0     H24686   3.781   7.122   5.888 -0.3711  1.6328  0.5753
  179MOL0     H24687   3.844   7.178   5.654  0.2908 -2.6692 -0.0644
  179MOL0     H24688   3.782   7.456   5.224  3.4055  0.4796 -1.2049
  179MOL0     H24689   3.756   7.474   4.990 -0.3234  1.8130  2.5056
  179MOL0     H24690   3.638   7.092   4.784  1.1581  1.6624  2.9172
  179MOL0     H24691   3.669   7.190   4.640 -0.4575  3.4359  1.6251
  179MOL0     H24692   3.883   7.015   4.770  2.2608  1.0038 -0.7228
  179MOL0     H24693   3.919   7.133   4.651 -0.1487  2.3663  1.7340
  179MOL0     H24694   3.701   6.913   4.613 -0.9355  2.6279  0.6680
  179MOL0     H24695   3.757   7.010   4.487 -3.2250  0.7493  2.4167
  179MOL0     H24696   3.965   6.827   4.629  0.9953  2.2186  0.3600
  179MOL0     H24697   3.958   6.891   4.462  0.5133 -0.8274  0.8552
  179MOL0     H24698   3.770   6.538   4.394 -0.3210  0.7463 -0.3574
  179MOL0     H24699   3.758   7.047   4.944  1.2406  0.5623 -0.7161
  179MOL0     H24700   3.809   6.908   5.172 -0.9534 -0.8596 -1.4024
  179MOL0     H24701   3.763   6.981   5.324  1.0598  3.6476  0.4282
  179MOL0     H24702   3.636   6.952   5.197  0.6490 -0.2610 -2.0088
  180MOL0     O24703   2.732  10.599  10.975 -0.4677 -0.2235 -0.1819
  180MOL0     C24704   2.755  10.720  10.964  0.2331  0.1057  0.2158
  180MOL0     O24705   2.699  10.822  11.036  0.5075 -0.2490 -0.0274
  180MOL0     C24706   2.602  10.803  11.127 -0.1686 -0.5142 -0.0942
  180MOL0     C24707   2.483  10.737  11.096 -0.4436 -0.2005  0.2108
  180MOL0     C24708   2.381  10.749  11.193  0.8394  0.6755  0.3246
  180MOL0     C24709   2.392  10.813  11.315 -0.5261 -0.2682 -0.8544
  180MOL0     O24710   2.297  10.814  11.415  0.1473 -0.5910  0.8785
  180MOL0     C24711   2.165  10.787  11.380  0.3327 -0.4622 -0.2017
  180MOL0     C24712   2.098  10.898  11.296 -0.6851  0.0206  0.2596
  180MOL0     C24713   1.953  10.885  11.243  0.0682  0.3545 -0.2670
  180MOL0     C24714   1.866  10.858  11.369  0.4068 -0.8776 -0.3433
  180MOL0     C24715   1.710  10.845  11.348  0.1263  0.4902 -0.2259
  180MOL0     C24716   1.667  10.703  11.314 -0.1729  0.2784  0.2224
  180MOL0     C24717   1.692  10.656  11.171 -0.0710 -0.3263 -0.7341
  180MOL0     C24718   1.639  10.741  11.060 -0.1294  0.1541  0.4390
  180MOL0     N24719   1.493  10.772  11.056 -0.6868  0.0612  0.0333
  180MOL0     C24720   1.395  10.680  11.056  0.3331  0.1200 -0.5252
  180MOL0     C24721   1.287  10.747  11.101  0.4057 -1.2299  0.0641
  180MOL0     C24722   1.142  10.685  11.097  0.7930  0.1480  0.2253
  180MOL0     C24723   1.039  10.771  11.018 -0.2930  0.4484  0.3381
  180MOL0     C24724   0.903  10.716  11.004 -0.5232  0.3431  0.1732
  180MOL0     C24725   0.891  10.585  10.927 -0.1007  0.3405  0.3536
  180MOL0     O24726   0.951  10.591  10.804  0.2969 -0.5963  0.0260
  180MOL0     C24727   0.880  10.622  10.690 -0.5202  0.1269  0.6905
  180MOL0     C24728   0.739  10.615  10.664 -0.4702 -0.2297 -0.6778
  180MOL0     C24729   0.675  10.670  10.545 -0.2350 -0.3220 -0.3604
  180MOL0     C24730   0.525  10.666  10.546  1.0979  0.6592  0.2436
  180MOL0     C24731   0.758  10.745  10.451  0.1031 -0.2665 -0.1828
  180MOL0     C24732   0.707  10.819  10.334 -0.3966 -0.4034 -0.6332
  180MOL0     O24733   0.580  10.862  10.332 -0.0145  0.2025  0.0405
  180MOL0     C24734   0.535  10.947  10.229 -0.1638  0.4764  0.7221
  180MOL0     C24735   0.446  10.908  10.128 -0.0425  0.4960  0.1163
  180MOL0     C24736   0.401  10.994  10.031 -0.5286  0.5692 -0.7541
  180MOL0     C24737   0.447  11.127  10.013 -0.3326 -0.2308 -0.3203
  180MOL0     O24738   0.418  11.206   9.905  0.2289  0.4042  0.3324
  180MOL0     C24739   0.300  11.194   9.824  0.5905 -0.1222  0.2626
  180MOL0     C24740   0.321  11.284   9.703 -0.2563  0.0783 -0.4547
  180MOL0     C24741   0.374  11.225   9.572 -0.4734  0.6778 -0.8044
  180MOL0     C24742   0.407  11.331   9.467  0.4312 -0.1516 -1.7663
  180MOL0     C24743   0.502  11.267   9.362 -0.4775 -0.7037 -0.0187
  180MOL0     C24744   0.584  11.367   9.287  0.6204  0.0493  0.2697
  180MOL0     C24745   0.494  11.448   9.192  0.9023  0.1013  0.7586
  180MOL0     C24746   0.575  11.527   9.085 -0.0331 -0.4758 -0.1087
  180MOL0    Cl24747   0.633  11.673   9.175  0.3909 -0.3204  0.1424
  180MOL0     C24748   0.539  11.166  10.106 -0.4015  1.1155  0.1966
  180MOL0     C24749   0.588  11.077  10.208 -0.0599  0.6022  0.4177
  180MOL0     O24750   0.792  10.858  10.252 -0.4948 -0.2947  0.0042
  180MOL0     C24751   0.895  10.756  10.477  0.2026 -0.6836 -0.6515
  180MOL0     C24752   0.956  10.689  10.590 -0.4478  0.2763 -0.0665
  180MOL0     N24753   1.320  10.885  11.118  0.5669 -0.6459  0.4041
  180MOL0     N24754   1.447  10.892  11.095  0.3919  0.0880 -0.4716
  180MOL0     C24755   2.518  10.861  11.352 -0.7685  0.2136 -0.4845
  180MOL0     C24756   2.615  10.856  11.256  0.4987 -0.1037  0.2634
  180MOL0     C24757   2.863  10.774  10.873 -0.3232 -0.8812  0.1925
  180MOL0     C24758   2.879  10.909  10.866 -0.5424  0.2442 -0.0343
  180MOL0     C24759   2.977  10.954  10.786 -0.8829 -0.3216 -0.1917
  180MOL0     C24760   3.080  10.876  10.723 -0.4422 -0.8250 -0.1905
  180MOL0     O24761   3.184  10.935  10.649  0.6148 -0.1536 -0.4451
  180MOL0     C24762   3.137  11.043  10.568 -0.2674  0.1234  0.4925
  180MOL0     C24763   3.249  11.061  10.464  0.0401  0.2439 -0.2484
  180MOL0     C24764   3.269  10.942  10.369  0.0906  0.9107  0.5375
  180MOL0     C24765   3.348  10.828  10.443  0.0639 -0.9229 -0.1861
  180MOL0     C24766   3.397  10.733  10.348 -0.1612  0.5130 -0.7862
  180MOL0     C24767   3.436  10.659  10.265  0.0986  0.2990  0.9329
  180MOL0     C24768   3.063  10.739  10.730 -0.4738  0.4967  0.5241
  180MOL0     C24769   2.960  10.694  10.807 -1.2424  0.2689  0.1000
  180MOL0     C24770   2.960  10.547  10.811 -0.2023  0.0760 -0.2621
  180MOL0     H24771   2.460  10.677  11.008  1.0454 -1.5401  0.6936
  180MOL0     H24772   2.295  10.687  11.168  2.5359 -0.7445 -2.4261
  180MOL0     H24773   2.098  10.777  11.466  0.8217 -1.9700  0.0295
  180MOL0     H24774   2.145  10.684  11.349  0.8721 -1.0817  1.4251
  180MOL0     H24775   2.107  10.996  11.343 -0.4228  0.5625 -0.8740
  180MOL0     H24776   2.162  10.915  11.209  0.7314  0.9624  1.4363
  180MOL0     H24777   1.909  10.966  11.184 -3.0643 -0.8058  0.2872
  180MOL0     H24778   1.953  10.800  11.174  2.8726 -2.1179  2.4885
  180MOL0     H24779   1.907  10.764  11.408 -1.2586 -0.6385  2.1903
  180MOL0     H24780   1.884  10.938  11.441  0.9974 -1.7235  0.4856
  180MOL0     H24781   1.676  10.912  11.268  1.4353 -0.9294 -2.0546
  180MOL0     H24782   1.656  10.880  11.437  0.6533  2.3481 -0.5866
  180MOL0     H24783   1.714  10.624  11.372 -0.1586 -0.7039 -1.0731
  180MOL0     H24784   1.560  10.692  11.333 -0.6349 -1.0540 -2.6546
  180MOL0     H24785   1.645  10.558  11.178  3.4577 -2.0831  0.6231
  180MOL0     H24786   1.797  10.632  11.152  0.3453 -0.6089  1.6435
  180MOL0     H24787   1.707  10.826  11.071  2.5765 -1.5340 -1.8669
  180MOL0     H24788   1.657  10.698  10.962 -1.2230  1.1993 -0.2526
  180MOL0     H24789   1.399  10.587  10.999  2.0583  1.7707 -3.3381
  180MOL0     H24790   1.116  10.678  11.203 -0.9644 -2.0163 -0.2669
  180MOL0     H24791   1.148  10.580  11.067  1.2058 -0.0717  1.0351
  180MOL0     H24792   1.030  10.855  11.087  0.8326 -0.8295  2.1229
  180MOL0     H24793   1.086  10.795  10.922 -0.6141  1.8272  0.5051
  180MOL0     H24794   0.862  10.720  11.105  0.3151  3.6619  0.5040
  180MOL0     H24795   0.845  10.785  10.942  0.6887  0.8292 -0.4728
  180MOL0     H24796   0.942  10.513  10.993 -1.3743  0.0647  1.0673
  180MOL0     H24797   0.788  10.548  10.920  0.5901 -2.2306  2.0808
  180MOL0     H24798   0.668  10.581  10.739  0.5913  1.0262  0.9835
  180MOL0     H24799   0.484  10.584  10.606  2.9719 -0.1068  0.5407
  180MOL0     H24800   0.488  10.667  10.443 -1.0084  0.8082  0.9590
  180MOL0     H24801   0.496  10.758  10.597  4.5636  1.6760  0.5893
  180MOL0     H24802   0.406  10.807  10.123  2.1473 -0.3920 -1.0474
  180MOL0     H24803   0.339  10.953   9.951 -2.9461  3.1627 -0.3605
  180MOL0     H24804   0.274  11.094   9.789  0.9984 -0.4785  0.9420
  180MOL0     H24805   0.211  11.235   9.873  0.4432  0.6560 -0.6315
  180MOL0     H24806   0.225  11.323   9.667 -0.5645 -0.0180  0.2567
  180MOL0     H24807   0.381  11.373   9.726 -0.3947 -0.3515  1.8085
  180MOL0     H24808   0.301  11.149   9.542  0.1990  0.5073 -2.0777
  180MOL0     H24809   0.464  11.171   9.603 -0.4201  1.4505  0.4541
  180MOL0     H24810   0.456  11.421   9.506  0.4322  0.1969 -2.5461
  180MOL0     H24811   0.314  11.369   9.424 -1.3064  0.4024  2.0677
  180MOL0     H24812   0.581  11.212   9.414  1.7854  1.2812 -1.1941
  180MOL0     H24813   0.452  11.193   9.299 -1.3479 -0.2426  0.1134
  180MOL0     H24814   0.666  11.329   9.225  1.2610  0.6536  0.7189
  180MOL0     H24815   0.628  11.432   9.363 -1.5740 -0.5871  2.1944
  180MOL0     H24816   0.426  11.516   9.244  0.0147 -0.9413  1.0037
  180MOL0     H24817   0.436  11.371   9.140  0.8332  0.1829  0.7134
  180MOL0     H24818   0.501  11.536   9.005 -1.7876  1.0510  1.6144
  180MOL0     H24819   0.651  11.466   9.034 -0.7476 -2.1202  0.7099
  180MOL0     H24820   0.570  11.270  10.108  0.8506  0.8241 -1.7122
  180MOL0     H24821   0.650  11.108  10.292 -0.3486  0.1135  0.8214
  180MOL0     H24822   0.964  10.823  10.427  0.6085 -0.6553 -0.0680
  180MOL0     H24823   1.055  10.726  10.615 -0.6952  0.5700  0.5019
  180MOL0     H24824   2.552  10.897  11.449  2.5771  0.4063 -1.6178
  180MOL0     H24825   2.714  10.895  11.280 -0.5875  1.2445  3.0309
  180MOL0     H24826   2.809  10.975  10.916 -1.5476 -0.1941 -0.8085
  180MOL0     H24827   2.988  11.062  10.784  0.2396 -0.3512 -4.2962
  180MOL0     H24828   3.045  11.024  10.512  1.4747  1.4277 -3.1229
  180MOL0     H24829   3.129  11.142  10.615 -3.2015 -0.3934  1.2562
  180MOL0     H24830   3.345  11.071  10.517 -0.3499 -0.8975  0.7232
  180MOL0     H24831   3.235  11.156  10.411  3.2631  1.8710  1.5084
  180MOL0     H24832   3.177  10.894  10.334 -1.0465  3.2532  0.1030
  180MOL0     H24833   3.323  10.986  10.285  0.7389 -2.0157 -0.7125
  180MOL0     H24834   3.278  10.767  10.500  0.2471 -0.5815  0.4110
  180MOL0     H24835   3.428  10.865  10.507 -0.8717 -2.1291  1.7466
  180MOL0     H24836   3.498  10.600  10.200 -1.3087  0.1753 -0.3339
  180MOL0     H24837   3.131  10.665  10.689  0.7966  0.6932  2.1701
  180MOL0     H24838   2.977  10.515  10.915  2.6177  0.4155 -0.5495
  180MOL0     H24839   2.860  10.512  10.786 -0.7588  0.3608  1.4184
  180MOL0     H24840   3.032  10.500  10.743  1.0760  1.2543  0.2232
  181MOL0     O24841   4.505   1.818  10.317  0.2204  0.2244 -0.0162
  181MOL0     C24842   4.421   1.870  10.243 -0.1352  0.4806  0.8399
  181MOL0     O24843   4.419   1.855  10.102 -0.0524 -0.3489  0.2366
  181MOL0     C24844   4.467   1.745  10.039 -0.1144  0.3230 -0.6509
  181MOL0     C24845   4.603   1.714  10.049  0.0737  0.4731  0.0765
  181MOL0     C24846   4.661   1.595   9.999  0.1912  0.5025  0.1028
  181MOL0     C24847   4.575   1.499   9.939  0.8770  0.2403  0.0168
  181MOL0     O24848   4.645   1.417   9.858 -0.4149  0.1833  0.3390
  181MOL0     C24849   4.584   1.309   9.799  0.3699 -0.0728  0.0393
  181MOL0     C24850   4.554   1.346   9.650 -0.2268  0.3523 -0.2494
  181MOL0     C24851   4.487   1.233   9.577 -0.1518 -0.1632 -0.3363
  181MOL0     C24852   4.586   1.146   9.512 -0.0303  0.4534  0.7641
  181MOL0     C24853   4.529   1.008   9.475  0.0239  0.3742 -0.1225
  181MOL0     C24854   4.461   1.014   9.342 -0.7322  0.1080 -0.4960
  181MOL0     C24855   4.356   0.905   9.325 -0.1877  0.3156  0.1518
  181MOL0     C24856   4.270   0.919   9.193 -0.0847  0.7242  0.0218
  181MOL0     N24857   4.148   0.841   9.189  0.1006  0.0627 -0.0964
  181MOL0     C24858   4.019   0.884   9.201 -0.2003 -0.1402 -0.3699
  181MOL0     C24859   3.941   0.776   9.159 -0.2538 -0.0054 -0.1460
  181MOL0     C24860   3.793   0.770   9.141  0.6384  0.3740 -0.7824
  181MOL0     C24861   3.721   0.818   9.270 -0.4978 -1.0029 -0.4157
  181MOL0     C24862   3.702   0.711   9.375 -0.4692  0.2036 -0.8143
  181MOL0     C24863   3.833   0.665   9.452  0.1064 -0.3080 -0.2352
  181MOL0     O24864   3.803   0.563   9.550 -0.9306 -0.0411 -0.4259
  181MOL0     C24865   3.876   0.575   9.659  0.3694 -0.5643 -0.2873
  181MOL0     C24866   3.801   0.541   9.780 -0.1477  0.0661 -0.8473
  181MOL0     C24867   3.856   0.542   9.903  0.2748  0.9538 -0.4806
  181MOL0     C24868   3.759   0.528  10.025  0.0507 -0.0961 -0.8256
  181MOL0     C24869   3.999   0.558   9.912 -0.4082 -0.4199 -0.2750
  181MOL0     C24870   4.079   0.570  10.046  0.4564 -0.3223 -0.8241
  181MOL0     O24871   4.203   0.609  10.026  0.1112  0.4105  0.3307
  181MOL0     C24872   4.281   0.618  10.139 -0.1516 -1.3150 -0.0168
  181MOL0     C24873   4.406   0.551  10.132 -0.4271 -0.5781 -0.6815
  181MOL0     C24874   4.498   0.577  10.230 -0.4681  0.2876 -1.2333
  181MOL0     C24875   4.478   0.672  10.335  0.3479  0.1413 -0.2120
  181MOL0     O24876   4.568   0.712  10.430  0.3539  0.3642 -0.4427
  181MOL0     C24877   4.704   0.648  10.438  0.0948 -0.5849  0.4015
  181MOL0     C24878   4.779   0.687  10.558 -0.3650  0.3701  0.3185
  181MOL0     C24879   4.836   0.839  10.549  0.7540 -0.0510  0.0779
  181MOL0     C24880   4.930   0.868  10.666 -0.1440 -0.0853 -0.2046
  181MOL0     C24881   4.984   1.011  10.669  0.2399 -1.1947  0.0164
  181MOL0     C24882   4.878   1.100  10.721  1.1880 -0.9620 -0.1881
  181MOL0     C24883   4.937   1.242  10.735 -0.3598  0.5162  0.7148
  181MOL0     C24884   4.848   1.345  10.799  0.0190 -0.4108 -0.4250
  181MOL0    Cl24885   4.852   1.315  10.973  0.4525  0.0240  0.2875
  181MOL0     C24886   4.348   0.727  10.343 -0.1041 -0.2424  0.4728
  181MOL0     C24887   4.254   0.696  10.249  0.2576  0.4636 -0.4350
  181MOL0     O24888   4.028   0.547  10.154  0.1242 -0.0321  0.2288
  181MOL0     C24889   4.066   0.607   9.799 -0.6597 -0.5900 -0.7108
  181MOL0     C24890   4.007   0.612   9.674 -0.5760 -0.3573  0.0933
  181MOL0     N24891   4.026   0.675   9.126 -0.3135 -0.7737  0.9820
  181MOL0     N24892   4.151   0.706   9.145  0.1046 -0.0359 -0.2597
  181MOL0     C24893   4.440   1.520   9.929 -0.1785 -0.7713  0.5374
  181MOL0     C24894   4.386   1.650   9.973  0.2809 -0.1083 -0.0233
  181MOL0     C24895   4.311   1.949  10.307  0.7624 -0.5942 -0.0825
  181MOL0     C24896   4.222   2.029  10.231 -0.5762  0.2201 -0.3636
  181MOL0     C24897   4.115   2.110  10.279 -0.1490  0.1934 -0.2629
  181MOL0     C24898   4.093   2.116  10.418 -0.1749  0.7322  0.3160
  181MOL0     O24899   3.996   2.195  10.462 -0.3140  0.2077  0.0945
  181MOL0     C24900   3.855   2.160  10.430  0.1434  0.1377  0.1615
  181MOL0     C24901   3.812   2.230  10.306  0.1841  0.0998  0.2986
  181MOL0     C24902   3.658   2.260  10.318 -0.9407  0.4104  0.7477
  181MOL0     C24903   3.604   2.342  10.203  0.7960 -0.2147 -0.0825
  181MOL0     C24904   3.682   2.472  10.184  0.4360 -0.5175  0.4098
  181MOL0     C24905   3.769   2.557  10.180  0.0549 -0.8399  0.1316
  181MOL0     C24906   4.164   2.020  10.495  0.6915  0.5244 -0.2518
  181MOL0     C24907   4.264   1.930  10.442 -1.0913 -0.7645  0.5066
  181MOL0     C24908   4.310   1.814  10.531  0.5217 -0.2966 -0.4585
  181MOL0     H24909   4.673   1.782  10.096 -0.2513  0.5417  0.4648
  181MOL0     H24910   4.767   1.568   9.995 -0.2850 -1.7083  1.0576
  181MOL0     H24911   4.488   1.271   9.833 -0.8558 -0.5125 -3.4907
  181MOL0     H24912   4.657   1.228   9.803 -1.5683 -2.0848 -2.2051
  181MOL0     H24913   4.471   1.417   9.652 -0.8967 -0.4240  1.4183
  181MOL0     H24914   4.633   1.401   9.598 -0.2223  1.2325  0.6637
  181MOL0     H24915   4.421   1.176   9.643  0.5739  0.5084  1.0221
  181MOL0     H24916   4.426   1.280   9.500 -0.1595  1.2792  0.5216
  181MOL0     H24917   4.629   1.191   9.422 -0.5996 -4.0399 -2.0876
  181MOL0     H24918   4.672   1.129   9.577  1.2108 -1.7772 -1.3072
  181MOL0     H24919   4.471   0.977   9.562  4.9348 -3.9449  2.1844
  181MOL0     H24920   4.608   0.932   9.473  1.0914  1.2846  2.6124
  181MOL0     H24921   4.422   1.116   9.335  0.8363  1.2063  3.3921
  181MOL0     H24922   4.537   1.006   9.264  0.1510  0.4626  0.3058
  181MOL0     H24923   4.289   0.911   9.411  0.0503 -2.2217  0.6034
  181MOL0     H24924   4.396   0.803   9.328 -0.3240  0.2870  1.8462
  181MOL0     H24925   4.243   1.025   9.184  1.0405  0.8925 -2.0236
  181MOL0     H24926   4.331   0.897   9.104 -1.8330  3.2420 -1.9471
  181MOL0     H24927   3.986   0.986   9.218  4.4635  2.0067 -2.5046
  181MOL0     H24928   3.757   0.668   9.124  0.9293  0.3103 -1.0245
  181MOL0     H24929   3.753   0.832   9.061 -1.9693 -1.4116 -1.0112
  181MOL0     H24930   3.757   0.913   9.310  2.4762 -2.4191  0.5483
  181MOL0     H24931   3.619   0.842   9.240 -0.5595 -0.6013  0.1029
  181MOL0     H24932   3.631   0.746   9.451 -0.9613 -1.2664 -0.5632
  181MOL0     H24933   3.657   0.627   9.323  1.7649 -0.6422 -1.5258
  181MOL0     H24934   3.904   0.613   9.388 -0.5658 -1.4303 -0.0870
  181MOL0     H24935   3.877   0.751   9.505  3.4628 -3.8865  3.5120
  181MOL0     H24936   3.697   0.512   9.779  0.2039 -1.9581  3.2276
  181MOL0     H24937   3.761   0.429  10.070  0.9171  1.6488  3.4762
  181MOL0     H24938   3.656   0.553   9.998  0.5470  2.0273 -0.9534
  181MOL0     H24939   3.783   0.598  10.105  0.0158 -0.0035 -0.8953
  181MOL0     H24940   4.433   0.479  10.055  2.4378 -0.8825  0.4741
  181MOL0     H24941   4.587   0.515  10.223 -1.7657 -1.7284 -0.7879
  181MOL0     H24942   4.677   0.542  10.433 -2.0067 -0.0544 -1.0608
  181MOL0     H24943   4.769   0.661  10.351 -0.0729  1.6294  0.5384
  181MOL0     H24944   4.714   0.669  10.644  1.7712 -1.4229  1.6638
  181MOL0     H24945   4.864   0.620  10.572 -2.3539 -1.8359  3.0068
  181MOL0     H24946   4.750   0.906  10.549  1.0327  0.3493  1.6331
  181MOL0     H24947   4.884   0.849  10.450  1.6616 -1.5191  0.3462
  181MOL0     H24948   5.019   0.806  10.662  1.0958  1.6098 -0.0105
  181MOL0     H24949   4.877   0.845  10.759  4.1451 -1.9849  2.0362
  181MOL0     H24950   5.075   1.022  10.729  3.1148  1.7075 -4.3095
  181MOL0     H24951   5.017   1.032  10.567  3.1438  0.2050  1.1514
  181MOL0     H24952   4.846   1.064  10.819 -0.1037 -0.2080 -0.3139
  181MOL0     H24953   4.792   1.106  10.653  1.9325 -0.3968 -1.1074
  181MOL0     H24954   4.954   1.276  10.632  1.2172 -2.2148 -0.0287
  181MOL0     H24955   5.034   1.240  10.785  0.5626  1.1275 -0.9727
  181MOL0     H24956   4.744   1.338  10.765 -1.0107 -0.3254  2.4771
  181MOL0     H24957   4.886   1.444  10.773 -2.4840  0.3300 -1.6131
  181MOL0     H24958   4.329   0.805  10.415 -1.1466  2.0041 -2.0557
  181MOL0     H24959   4.150   0.725  10.260 -0.4336 -1.7677 -0.5938
  181MOL0     H24960   4.163   0.655   9.805 -1.2497  0.7723 -1.6460
  181MOL0     H24961   4.082   0.644   9.602  1.2425 -0.9637  1.6310
  181MOL0     H24962   4.359   1.469   9.878 -2.6739  2.7205  0.6534
  181MOL0     H24963   4.284   1.661   9.940  0.8330 -1.5629 -2.5051
  181MOL0     H24964   4.242   2.036  10.125  1.0060  2.2208 -0.0000
  181MOL0     H24965   4.062   2.169  10.205  0.2978  1.7095  0.5886
  181MOL0     H24966   3.843   2.053  10.407 -0.2992  0.4561 -1.1806
  181MOL0     H24967   3.788   2.177  10.514  0.4097 -3.3390  1.2690
  181MOL0     H24968   3.829   2.171  10.216 -1.7224 -0.8275  0.4949
  181MOL0     H24969   3.858   2.329  10.306 -0.7017  0.5395  1.6918
  181MOL0     H24970   3.602   2.166  10.317  0.2235 -0.2931  0.1849
  181MOL0     H24971   3.653   2.315  10.412 -0.9490  1.1797  0.3135
  181MOL0     H24972   3.499   2.361  10.226  0.5976 -3.0395  1.9173
  181MOL0     H24973   3.599   2.279  10.114 -1.4318 -0.4191  0.1462
  181MOL0     H24974   3.847   2.631  10.175  1.9395 -2.7680 -1.4088
  181MOL0     H24975   4.126   2.023  10.596 -3.1837 -2.5690 -1.3717
  181MOL0     H24976   4.228   1.811  10.604  2.4982  0.1744  1.9169
  181MOL0     H24977   4.317   1.716  10.483 -1.5126 -0.8550  0.2682
  181MOL0     H24978   4.400   1.834  10.589  1.5627 -0.1356 -2.0787
  182MOL0     O24979   0.831   1.685   7.237  0.1964 -0.0790  0.2171
  182MOL0     C24980   0.943   1.654   7.286  0.1040 -0.5312 -0.8446
  182MOL0     O24981   1.047   1.604   7.230  0.2068  0.5746  0.6647
  182MOL0     C24982   1.047   1.546   7.104  0.1047  0.2656 -0.3505
  182MOL0     C24983   0.942   1.463   7.062  0.4460  0.3363 -0.1474
  182MOL0     C24984   0.948   1.419   6.924  0.7090 -0.2755 -0.0300
  182MOL0     C24985   1.043   1.466   6.833 -0.6079 -0.5798 -0.0086
  182MOL0     O24986   1.035   1.412   6.705 -0.1836  0.2102 -0.1876
  182MOL0     C24987   1.112   1.468   6.590  0.7764  0.4836 -0.7344
  182MOL0     C24988   1.075   1.412   6.462  0.9396  0.6587 -0.3742
  182MOL0     C24989   0.931   1.455   6.427  0.1798  0.4646 -0.3369
  182MOL0     C24990   0.846   1.373   6.322 -0.8728 -1.1859 -0.2686
  182MOL0     C24991   0.700   1.407   6.355  0.7562 -0.7006  0.8593
  182MOL0     C24992   0.601   1.349   6.253 -0.0805  0.0777 -0.2294
  182MOL0     C24993   0.632   1.399   6.111  0.0302 -0.7602  0.0038
  182MOL0     C24994   0.617   1.551   6.107  0.0736  0.7210  0.2319
  182MOL0     N24995   0.466   1.579   6.120 -0.4330 -0.3651 -0.3412
  182MOL0     C24996   0.367   1.540   6.035 -0.4109  0.1959 -0.6760
  182MOL0     C24997   0.260   1.617   6.061  0.0149 -0.0317 -0.6291
  182MOL0     C24998   0.136   1.629   5.980  0.6537  0.2786  0.5145
  182MOL0     C24999   0.007   1.590   6.046 -0.0416 -0.6944 -0.1780
  182MOL0     C25000  -0.040   1.451   6.004 -0.5986 -0.5569 -0.4764
  182MOL0     C25001  -0.181   1.440   6.075 -0.2500  0.3882 -0.4203
  182MOL0     O25002  -0.281   1.537   6.037  0.1108 -0.0217  0.2745
  182MOL0     C25003  -0.410   1.543   6.086  0.4414  0.0173 -0.1408
  182MOL0     C25004  -0.492   1.658   6.058  0.2662 -0.0439 -0.3144
  182MOL0     C25005  -0.634   1.647   6.091 -0.3431 -0.2868 -1.2664
  182MOL0     C25006  -0.722   1.737   6.018 -1.2234  0.1263 -0.0012
  182MOL0     C25007  -0.684   1.542   6.182 -0.4505 -1.1073  1.6576
  182MOL0     C25008  -0.822   1.531   6.244  0.3209 -0.6020 -0.4114
  182MOL0     O25009  -0.916   1.612   6.203 -0.4145  0.0084  0.1390
  182MOL0     C25010  -1.031   1.638   6.269  0.2993  0.3584 -0.1500
  182MOL0     C25011  -1.096   1.582   6.380  0.3754  0.0853  0.3160
  182MOL0     C25012  -1.215   1.635   6.430 -0.1567 -0.6927  0.3265
  182MOL0     C25013  -1.284   1.738   6.360 -0.3739  0.6928  0.2978
  182MOL0     O25014  -1.406   1.793   6.393  0.1953  0.1052  0.6702
  182MOL0     C25015  -1.478   1.729   6.496  0.1695 -0.5225 -0.4193
  182MOL0     C25016  -1.617   1.797   6.529 -0.2417  0.8504 -0.5775
  182MOL0     C25017  -1.691   1.728   6.651  0.9194 -0.2283 -0.4818
  182MOL0     C25018  -1.599   1.694   6.757  0.1567 -0.4994  0.6777
  182MOL0     C25019  -1.675   1.675   6.892 -0.5172  0.2007 -1.0452
  182MOL0     C25020  -1.573   1.635   7.005  0.8201 -0.3290 -0.0414
  182MOL0     C25021  -1.514   1.500   7.002 -0.0898 -0.1524  0.3425
  182MOL0     C25022  -1.614   1.385   6.978  0.2670  0.3789  0.8767
  182MOL0    Cl25023  -1.538   1.228   7.006  0.6350 -0.8597  0.4124
  182MOL0     C25024  -1.225   1.783   6.240  0.6822 -0.7191  0.0738
  182MOL0     C25025  -1.099   1.739   6.201  0.6106  0.5453 -0.4483
  182MOL0     O25026  -0.833   1.452   6.335 -0.0772  0.1442 -0.8045
  182MOL0     C25027  -0.586   1.448   6.220 -0.4898  0.4731 -0.9178
  182MOL0     C25028  -0.457   1.453   6.174  0.9422  0.2848 -0.2168
  182MOL0     N25029   0.289   1.691   6.173  0.3323  0.2278 -0.6701
  182MOL0     N25030   0.410   1.668   6.207  0.1911 -0.4334  0.5462
  182MOL0     C25031   1.146   1.547   6.879  0.0025  0.0512 -0.1492
  182MOL0     C25032   1.149   1.579   7.008  0.8339 -0.9453 -0.9494
  182MOL0     C25033   0.950   1.696   7.428  0.6173  0.0294  0.7275
  182MOL0     C25034   0.910   1.598   7.523 -0.2100 -0.0278  0.5179
  182MOL0     C25035   0.908   1.628   7.658 -0.5720 -0.1859 -0.2452
  182MOL0     C25036   0.953   1.753   7.697 -0.1312 -0.1960 -0.5347
  182MOL0     O25037   0.954   1.792   7.823 -0.0009 -0.4555 -0.6579
  182MOL0     C25038   0.998   1.694   7.920 -0.4567  0.1453 -0.5652
  182MOL0     C25039   1.049   1.760   8.052 -1.1530  0.6202 -0.7893
  182MOL0     C25040   0.953   1.807   8.166 -0.5049 -0.2754  0.1390
  182MOL0     C25041   1.020   1.878   8.285  0.4996 -0.4902 -0.4170
  182MOL0     C25042   1.096   1.778   8.362 -0.2121  0.8748  0.8134
  182MOL0     C25043   1.161   1.693   8.414  0.4677  0.1556 -0.3777
  182MOL0     C25044   1.013   1.838   7.608 -0.6697  0.2439  0.1326
  182MOL0     C25045   1.010   1.818   7.468 -0.7608 -0.3564  0.2095
  182MOL0     C25046   1.070   1.914   7.373  0.3678 -0.3083 -0.0556
  182MOL0     H25047   0.846   1.441   7.107 -1.6096  2.8382 -2.8796
  182MOL0     H25048   0.870   1.348   6.901  0.4826  0.5221 -1.9496
  182MOL0     H25049   1.220   1.470   6.609  0.6818 -0.5490 -0.0042
  182MOL0     H25050   1.093   1.575   6.574 -3.7410  0.6385  3.5809
  182MOL0     H25051   1.136   1.466   6.389  3.4695  0.2297  1.2918
  182MOL0     H25052   1.088   1.304   6.451 -0.8562  0.1068  2.0478
  182MOL0     H25053   0.867   1.451   6.515 -1.4505  2.0865 -1.3777
  182MOL0     H25054   0.942   1.558   6.390 -1.8011  0.2701 -1.5782
  182MOL0     H25055   0.879   1.401   6.222 -0.1501 -0.5699  0.1274
  182MOL0     H25056   0.864   1.266   6.333  1.3794 -0.7265  1.3250
  182MOL0     H25057   0.679   1.514   6.362  0.1911 -0.7181 -0.3833
  182MOL0     H25058   0.677   1.364   6.453 -1.0984  4.5627  3.0749
  182MOL0     H25059   0.609   1.241   6.267 -0.1576  0.1814  0.6751
  182MOL0     H25060   0.499   1.369   6.286 -1.2330 -3.0939 -1.4878
  182MOL0     H25061   0.567   1.363   6.031 -0.9341  1.6724 -0.3985
  182MOL0     H25062   0.735   1.372   6.085  0.4113  0.6942 -0.1204
  182MOL0     H25063   0.660   1.614   6.185 -1.2502  1.9071  0.0527
  182MOL0     H25064   0.654   1.599   6.016 -2.2346  0.4226 -0.9537
  182MOL0     H25065   0.381   1.478   5.947 -0.0994 -0.0263 -0.4706
  182MOL0     H25066   0.149   1.556   5.899  3.3244  2.4138 -1.1369
  182MOL0     H25067   0.127   1.729   5.939 -0.3686 -0.6201 -1.6148
  182MOL0     H25068   0.018   1.595   6.155  0.9882  0.5529 -0.3149
  182MOL0     H25069  -0.075   1.658   6.023 -0.5319 -0.8328  1.0746
  182MOL0     H25070  -0.054   1.431   5.897 -1.8846 -1.4205 -0.1825
  182MOL0     H25071   0.033   1.377   6.038  0.7320  2.5392  4.3506
  182MOL0     H25072  -0.224   1.342   6.054 -0.9890  0.3113  1.2602
  182MOL0     H25073  -0.166   1.442   6.183 -0.2314 -1.1514 -0.3722
  182MOL0     H25074  -0.440   1.733   6.000  2.1910 -1.9497 -1.1794
  182MOL0     H25075  -0.670   1.816   5.963 -1.4072 -0.5483 -1.2058
  182MOL0     H25076  -0.788   1.797   6.080  0.0458  2.0333 -0.4355
  182MOL0     H25077  -0.772   1.678   5.940  0.8082 -0.4612 -0.9466
  182MOL0     H25078  -1.050   1.502   6.437  0.2809 -1.0641 -1.1584
  182MOL0     H25079  -1.256   1.586   6.518 -2.3241  0.5074  0.0649
  182MOL0     H25080  -1.491   1.627   6.459  2.5199  0.1798 -3.6344
  182MOL0     H25081  -1.420   1.736   6.588 -1.7921  4.9197  0.8323
  182MOL0     H25082  -1.594   1.897   6.565 -1.5250  1.1866 -0.6757
  182MOL0     H25083  -1.684   1.812   6.444  0.6896 -0.8339 -1.6792
  182MOL0     H25084  -1.751   1.642   6.619 -1.8490  0.5403  2.1986
  182MOL0     H25085  -1.767   1.796   6.690  0.5767 -0.8496 -0.0527
  182MOL0     H25086  -1.519   1.768   6.766  0.9132 -1.3597  1.0640
  182MOL0     H25087  -1.551   1.601   6.725 -2.8084 -2.0433  0.3823
  182MOL0     H25088  -1.720   1.770   6.920  0.1859  1.4061 -3.6188
  182MOL0     H25089  -1.757   1.603   6.882  1.7277 -2.6607 -0.1657
  182MOL0     H25090  -1.608   1.652   7.107  0.9869 -1.1390  0.1509
  182MOL0     H25091  -1.498   1.714   6.996 -1.2732  1.7165 -0.7826
  182MOL0     H25092  -1.461   1.477   7.095  0.4964  0.3662  0.1445
  182MOL0     H25093  -1.438   1.495   6.923  0.9144  0.6749  1.2174
  182MOL0     H25094  -1.650   1.396   6.875 -0.5103  0.0217  1.1016
  182MOL0     H25095  -1.702   1.396   7.043 -1.4215  1.5133 -1.4787
  182MOL0     H25096  -1.274   1.861   6.182 -1.4979 -0.4717  2.1124
  182MOL0     H25097  -1.052   1.788   6.117  3.6359  0.2797  0.9741
  182MOL0     H25098  -0.604   1.362   6.283  0.4606  0.1449 -1.0702
  182MOL0     H25099  -0.399   1.366   6.203  0.3014 -1.0095 -2.5686
  182MOL0     H25100   1.225   1.582   6.814  0.0684  1.3629  0.5982
  182MOL0     H25101   1.225   1.650   7.040 -1.1903  1.2692 -0.7437
  182MOL0     H25102   0.875   1.503   7.485  0.7142 -0.7055  1.2963
  182MOL0     H25103   0.875   1.548   7.725  1.4465 -0.9921 -0.1463
  182MOL0     H25104   0.914   1.626   7.939 -0.8154  0.5734 -0.6006
  182MOL0     H25105   1.085   1.638   7.884  1.0052  2.3171 -0.5896
  182MOL0     H25106   1.116   1.835   8.011  1.0945 -1.4603 -1.1406
  182MOL0     H25107   1.112   1.686   8.103 -3.5970  0.3389  2.1523
  182MOL0     H25108   0.869   1.866   8.127  1.0118  2.0908  0.2319
  182MOL0     H25109   0.907   1.716   8.205  0.6260 -1.1238 -0.4413
  182MOL0     H25110   0.953   1.924   8.358  1.6789 -0.3941  0.6376
  182MOL0     H25111   1.082   1.960   8.247  0.5351 -1.1105 -1.7531
  182MOL0     H25112   1.223   1.611   8.444  2.2580  1.8023  0.5686
  182MOL0     H25113   1.070   1.925   7.639  1.0215  0.1738 -2.4812
  182MOL0     H25114   1.090   2.010   7.422  1.5232  1.8057 -4.1695
  182MOL0     H25115   1.168   1.880   7.339  0.0952  0.4586 -1.7324
  182MOL0     H25116   1.002   1.927   7.288  1.0837 -2.6801 -1.0464
  183MOL0     O25117   8.741   1.358  10.932 -0.4844  0.2510  0.5851
  183MOL0     C25118   8.825   1.295  10.874 -0.2471 -0.3352 -0.2888
  183MOL0     O25119   8.804   1.182  10.797 -1.1843 -0.3401 -0.7103
  183MOL0     C25120   8.683   1.121  10.799  0.7155  0.0664 -0.4646
  183MOL0     C25121   8.604   1.091  10.914  0.6559  0.7047 -1.0335
  183MOL0     C25122   8.478   1.031  10.916 -0.3417 -0.0540  1.0722
  183MOL0     C25123   8.418   1.011  10.788  0.3378 -0.9749 -0.2932
  183MOL0     O25124   8.295   0.950  10.778 -0.6836  0.0198 -0.0909
  183MOL0     C25125   8.212   0.949  10.892 -0.3410  0.7030 -0.0446
  183MOL0     C25126   8.073   0.895  10.866 -0.4969  0.2549 -0.2697
  183MOL0     C25127   8.074   0.756  10.810 -0.1749 -0.0300  0.3463
  183MOL0     C25128   8.121   0.642  10.898 -0.6501 -0.9953 -0.5330
  183MOL0     C25129   8.118   0.514  10.806 -0.2422 -0.2221  0.3618
  183MOL0     C25130   8.178   0.393  10.874  0.1185  0.6994 -0.7627
  183MOL0     C25131   8.338   0.399  10.865  0.1406  0.9003  0.6424
  183MOL0     C25132   8.394   0.281  10.940  0.3710 -0.3168  1.1687
  183MOL0     N25133   8.533   0.278  10.968  0.4040 -0.6692  0.3675
  183MOL0     C25134   8.585   0.321  11.087 -0.1412 -0.0041  0.7648
  183MOL0     C25135   8.717   0.305  11.062 -0.3247  0.7696  0.4030
  183MOL0     C25136   8.824   0.345  11.156  0.3561 -0.6531 -0.7116
  183MOL0     C25137   8.835   0.495  11.184 -0.4855  0.1084  0.4636
  183MOL0     C25138   8.971   0.550  11.225 -0.0017  0.8264 -0.0973
  183MOL0     C25139   9.047   0.458  11.318  0.5784 -0.0691  0.3889
  183MOL0     O25140   8.966   0.403  11.426 -0.5583  0.6569  0.0034
  183MOL0     C25141   9.007   0.285  11.483  0.1253  0.5011 -0.2822
  183MOL0     C25142   8.912   0.187  11.521 -1.0954 -0.0230  0.4423
  183MOL0     C25143   8.958   0.064  11.565  0.1934  0.5308  0.7764
  183MOL0     C25144   8.847  -0.046  11.577 -0.4504  0.5178 -0.1263
  183MOL0     C25145   9.089   0.029  11.581 -0.5328 -1.1990  0.6170
  183MOL0     C25146   9.145  -0.098  11.631  0.8026  0.2202  0.1366
  183MOL0     O25147   9.272  -0.113  11.598  0.1534 -0.1635  0.7793
  183MOL0     C25148   9.323  -0.244  11.596 -0.4130 -0.3986  0.5272
  183MOL0     C25149   9.387  -0.302  11.703  0.3144  0.8145 -0.1793
  183MOL0     C25150   9.456  -0.422  11.697 -0.1600  0.1725 -0.1962
  183MOL0     C25151   9.453  -0.505  11.582  0.5248 -0.4490 -0.5355
  183MOL0     O25152   9.506  -0.630  11.565  0.0205  0.2994  0.9832
  183MOL0     C25153   9.629  -0.657  11.620 -0.1678 -0.6083 -0.7776
  183MOL0     C25154   9.637  -0.793  11.688  0.1571 -0.0313 -0.9337
  183MOL0     C25155   9.784  -0.813  11.722 -0.5757  0.2963 -0.7982
  183MOL0     C25156   9.861  -0.867  11.602  0.4700 -0.1197  0.5264
  183MOL0     C25157  10.004  -0.885  11.648  0.8354  1.0574 -0.2684
  183MOL0     C25158  10.100  -0.931  11.537  0.0027 -0.3357 -0.8653
  183MOL0     C25159  10.066  -1.047  11.448 -0.2339 -1.2006  0.3821
  183MOL0     C25160  10.191  -1.121  11.397  0.1783 -0.3532  0.6290
  183MOL0    Cl25161  10.238  -1.233  11.528 -0.0573 -0.3806 -0.2709
  183MOL0     C25162   9.385  -0.456  11.474  0.9986  0.5489 -1.0343
  183MOL0     C25163   9.323  -0.319  11.481 -1.2211 -0.5543 -0.4151
  183MOL0     O25164   9.066  -0.176  11.690 -0.0000 -0.0353  0.3131
  183MOL0     C25165   9.185   0.134  11.549  0.9881 -0.1660  0.5467
  183MOL0     C25166   9.142   0.256  11.497 -0.3100  0.2850 -0.1767
  183MOL0     N25167   8.733   0.256  10.934 -0.0335 -0.2549  0.3231
  183MOL0     N25168   8.619   0.237  10.876  0.0857 -0.1551  0.4039
  183MOL0     C25169   8.483   1.048  10.670  0.9689 -0.1140 -0.7685
  183MOL0     C25170   8.615   1.096  10.677 -0.2237  0.0426  0.6754
  183MOL0     C25171   8.963   1.362  10.877  0.3247 -0.3267 -0.2915
  183MOL0     C25172   9.074   1.296  10.823 -0.1270 -0.6545  0.0376
  183MOL0     C25173   9.200   1.353  10.815  0.6676 -0.2128  0.0273
  183MOL0     C25174   9.228   1.476  10.866  0.4801  0.2667 -0.0846
  183MOL0     O25175   9.350   1.527  10.858 -0.6470 -0.3077 -0.0917
  183MOL0     C25176   9.458   1.461  10.924 -0.1524 -0.7238 -0.7097
  183MOL0     C25177   9.503   1.545  11.044 -0.6948  0.5074  0.8203
  183MOL0     C25178   9.391   1.569  11.146  0.0610 -0.0969  0.2842
  183MOL0     C25179   9.329   1.439  11.186  0.3708 -0.1572 -0.0205
  183MOL0     C25180   9.418   1.329  11.222 -0.6884  0.6411 -0.2703
  183MOL0     C25181   9.499   1.236  11.242 -0.7686 -0.7184  0.2121
  183MOL0     C25182   9.119   1.557  10.907 -0.2291  1.0816  0.0426
  183MOL0     C25183   8.990   1.502  10.919 -0.5726 -0.2780  0.4223
  183MOL0     C25184   8.891   1.599  10.977  0.5120  0.1247  0.2734
  183MOL0     H25185   8.639   1.099  11.017 -1.5586 -0.1276 -0.1522
  183MOL0     H25186   8.425   1.014  11.009 -5.0107 -2.9877 -1.7209
  183MOL0     H25187   8.211   1.054  10.922 -0.7781  1.0971 -1.3708
  183MOL0     H25188   8.249   0.892  10.978 -2.1652  0.6273  0.7305
  183MOL0     H25189   8.020   0.893  10.961  2.0422 -1.1798  1.2380
  183MOL0     H25190   8.025   0.970  10.802  3.4962  2.4963 -1.0093
  183MOL0     H25191   7.976   0.749  10.763  1.2621  2.2434 -3.4809
  183MOL0     H25192   8.137   0.760  10.720 -3.2123 -0.6111 -1.9617
  183MOL0     H25193   8.223   0.648  10.937 -0.9013 -3.6360  0.8089
  183MOL0     H25194   8.056   0.638  10.987  1.0833 -1.1339  0.7792
  183MOL0     H25195   8.175   0.525  10.713  0.0567 -0.1547  0.5493
  183MOL0     H25196   8.013   0.492  10.787 -0.4360 -0.1865  1.3180
  183MOL0     H25197   8.153   0.404  10.980  0.6520  1.8960 -0.7456
  183MOL0     H25198   8.138   0.295  10.844  1.0038  0.8148 -2.4440
  183MOL0     H25199   8.381   0.496  10.895 -1.0608  0.6920  3.3959
  183MOL0     H25200   8.381   0.387  10.766  2.5079  1.0955  1.5773
  183MOL0     H25201   8.338   0.263  11.033 -2.2527  0.7857 -0.1060
  183MOL0     H25202   8.378   0.185  10.890  0.8696 -0.8579  2.0158
  183MOL0     H25203   8.538   0.360  11.177 -0.2195 -2.5179  1.9246
  183MOL0     H25204   8.924   0.315  11.123  0.7110  1.9491 -2.2785
  183MOL0     H25205   8.808   0.290  11.249  3.2324 -1.1952 -0.4380
  183MOL0     H25206   8.805   0.545  11.091 -1.5808 -0.4920  0.4711
  183MOL0     H25207   8.760   0.523  11.258 -1.3957  2.3639 -1.1805
  183MOL0     H25208   9.028   0.573  11.135  0.7492 -1.2770 -0.1964
  183MOL0     H25209   8.953   0.653  11.260 -0.4014  1.3690 -1.8147
  183MOL0     H25210   9.102   0.384  11.258  3.1327  0.0399  2.4101
  183MOL0     H25211   9.126   0.519  11.363  1.1655  0.5540 -1.4077
  183MOL0     H25212   8.807   0.196  11.495 -0.1162 -1.5510 -5.4423
  183MOL0     H25213   8.829  -0.074  11.681  1.3840  0.1752  0.1360
  183MOL0     H25214   8.890  -0.139  11.538  1.8588  0.6082  1.9736
  183MOL0     H25215   8.749  -0.018  11.537 -0.3660  0.1279 -0.6103
  183MOL0     H25216   9.393  -0.249  11.797 -2.8654  1.6251 -0.3106
  183MOL0     H25217   9.488  -0.466  11.791  1.3419  3.2898  0.8577
  183MOL0     H25218   9.701  -0.652  11.537 -0.1888  0.3521 -0.7461
  183MOL0     H25219   9.654  -0.588  11.701 -1.7021  0.4304 -1.1558
  183MOL0     H25220   9.578  -0.795  11.780 -1.2928  0.1325 -1.8296
  183MOL0     H25221   9.603  -0.872  11.620  0.8226  0.0761 -1.3952
  183MOL0     H25222   9.800  -0.886  11.803 -0.6566 -2.7538 -3.3452
  183MOL0     H25223   9.826  -0.717  11.755 -0.0828 -0.7452  1.8802
  183MOL0     H25224   9.850  -0.808  11.511 -0.5857  0.8040  1.2327
  183MOL0     H25225   9.822  -0.964  11.569  0.6253  0.6060 -1.9842
  183MOL0     H25226  10.033  -0.792  11.699 -2.1409  1.5309  0.7578
  183MOL0     H25227   9.997  -0.969  11.717 -0.2438  0.5121 -1.0193
  183MOL0     H25228  10.196  -0.961  11.580  0.1924  1.8820  0.4282
  183MOL0     H25229  10.109  -0.846  11.470  3.1728 -1.5835 -2.1985
  183MOL0     H25230  10.009  -1.015  11.361 -2.7850 -3.1327  1.2202
  183MOL0     H25231  10.002  -1.124  11.491  0.6772 -1.2399  1.7284
  183MOL0     H25232  10.282  -1.063  11.383 -0.1529  0.6902  2.4954
  183MOL0     H25233  10.170  -1.169  11.301 -2.3822 -1.2386  1.5335
  183MOL0     H25234   9.390  -0.493  11.373  4.2189  0.1867 -0.8308
  183MOL0     H25235   9.281  -0.294  11.385  0.5411 -0.3117 -1.1704
  183MOL0     H25236   9.292   0.123  11.558  1.2592  2.1386  0.8119
  183MOL0     H25237   9.216   0.328  11.462  1.3381 -0.6107  1.3142
  183MOL0     H25238   8.446   1.013  10.574 -0.3044 -1.8179  0.2685
  183MOL0     H25239   8.666   1.102  10.582  0.3303 -1.7967  0.8248
  183MOL0     H25240   9.057   1.199  10.777  0.3835 -0.5540 -0.3779
  183MOL0     H25241   9.272   1.286  10.770  2.1413 -0.0509  2.0448
  183MOL0     H25242   9.440   1.355  10.941 -1.4559 -0.2259  1.2705
  183MOL0     H25243   9.537   1.452  10.848  1.1687 -0.9096  0.6444
  183MOL0     H25244   9.542   1.646  11.026 -0.7913  0.3465 -0.4044
  183MOL0     H25245   9.588   1.502  11.097 -0.2224 -0.7554 -0.8819
  183MOL0     H25246   9.433   1.633  11.224 -1.3960 -1.2808  2.1010
  183MOL0     H25247   9.305   1.623  11.105  1.7429  1.5111 -1.3478
  183MOL0     H25248   9.263   1.404  11.105  1.7506 -0.7797 -0.9085
  183MOL0     H25249   9.263   1.463  11.270  1.3932 -0.4975  0.8966
  183MOL0     H25250   9.570   1.157  11.255 -0.8368 -0.7389  0.4542
  183MOL0     H25251   9.144   1.661  10.924  1.6100  0.7865 -0.6119
  183MOL0     H25252   8.823   1.546  11.044  1.9612  0.7770  2.3830
  183MOL0     H25253   8.928   1.681  11.040 -1.6218  1.8090 -0.5494
  183MOL0     H25254   8.843   1.649  10.892  2.1511  1.3896  0.0424
  184MOL0     O25255   0.078   0.832   5.128 -0.1396  0.4162  0.0549
  184MOL0     C25256   0.158   0.766   5.192 -0.5843 -0.7053  0.4407
  184MOL0     O25257   0.282   0.717   5.139  0.5140  0.0037 -0.6996
  184MOL0     C25258   0.324   0.753   5.011  0.3863  0.1404  0.1706
  184MOL0     C25259   0.261   0.845   4.921  0.5140  0.5707 -0.2760
  184MOL0     C25260   0.296   0.833   4.782  0.2589 -0.8773  0.1065
  184MOL0     C25261   0.397   0.750   4.732 -0.3133 -0.0421  0.0557
  184MOL0     O25262   0.429   0.728   4.603 -0.3613 -0.2524  0.2055
  184MOL0     C25263   0.362   0.811   4.507 -0.1329 -0.6589  0.3737
  184MOL0     C25264   0.436   0.949   4.483 -0.1743 -0.6548  0.0448
  184MOL0     C25265   0.396   1.023   4.350 -0.3190  0.1195  1.1655
  184MOL0     C25266   0.252   1.052   4.320  0.0461  0.1260 -0.2495
  184MOL0     C25267   0.233   1.164   4.217 -0.4443  1.0427 -0.0307
  184MOL0     C25268   0.281   1.144   4.076 -0.5316  0.6375  0.2856
  184MOL0     C25269   0.217   1.019   4.006 -0.4045  0.2448  0.4386
  184MOL0     C25270   0.249   1.005   3.858 -0.1672 -0.5838  0.3176
  184MOL0     N25271   0.364   0.930   3.808  0.0197 -0.5689 -0.3875
  184MOL0     C25272   0.363   0.852   3.696 -0.0081  0.3444 -0.2104
  184MOL0     C25273   0.495   0.806   3.685 -0.0003  0.3889 -1.5249
  184MOL0     C25274   0.542   0.695   3.596  0.2156  0.1614 -0.5371
  184MOL0     C25275   0.536   0.552   3.640 -0.1352  0.6127  0.9070
  184MOL0     C25276   0.558   0.532   3.785  0.1203 -0.2732 -0.4352
  184MOL0     C25277   0.560   0.388   3.849  0.2609 -0.2731  1.0417
  184MOL0     O25278   0.661   0.311   3.774 -0.1461  0.0761 -0.5065
  184MOL0     C25279   0.665   0.172   3.782 -0.8395  0.8980 -0.9083
  184MOL0     C25280   0.593   0.084   3.863 -0.1859  0.2903 -0.8846
  184MOL0     C25281   0.606  -0.059   3.871 -0.1377  0.5167 -0.4236
  184MOL0     C25282   0.524  -0.140   3.969  0.6748  0.6741 -0.0134
  184MOL0     C25283   0.702  -0.129   3.795 -0.6591  0.3327 -0.0573
  184MOL0     C25284   0.738  -0.274   3.786  0.3877 -0.3285  0.1876
  184MOL0     O25285   0.648  -0.358   3.844  0.3878 -0.8160  0.6504
  184MOL0     C25286   0.648  -0.492   3.813 -0.5787  0.2267  0.3710
  184MOL0     C25287   0.621  -0.545   3.688  0.7655 -0.4234  0.3380
  184MOL0     C25288   0.616  -0.685   3.684  0.2102 -0.4769 -0.0944
  184MOL0     C25289   0.631  -0.771   3.792  0.4308 -0.0394 -0.1670
  184MOL0     O25290   0.631  -0.911   3.778  0.3823 -0.7303  0.3168
  184MOL0     C25291   0.545  -0.974   3.681 -0.3011  0.3523 -0.1551
  184MOL0     C25292   0.588  -1.125   3.681 -0.4079  0.0437  0.0206
  184MOL0     C25293   0.576  -1.201   3.811  0.7143 -0.5891 -0.1080
  184MOL0     C25294   0.684  -1.171   3.918  0.2368  1.1296  0.2660
  184MOL0     C25295   0.666  -1.274   4.037  0.5730 -1.0615  0.8944
  184MOL0     C25296   0.747  -1.230   4.155 -0.5462  0.3231 -0.4077
  184MOL0     C25297   0.739  -1.340   4.271 -0.0946 -0.2744  0.5495
  184MOL0     C25298   0.853  -1.320   4.372 -1.3513  0.6882 -0.3647
  184MOL0    Cl25299   1.007  -1.382   4.310 -0.2799  0.0040  0.0274
  184MOL0     C25300   0.660  -0.707   3.918 -0.5878  0.5038  0.5578
  184MOL0     C25301   0.665  -0.574   3.923  0.1318 -0.0038  0.2352
  184MOL0     O25302   0.837  -0.301   3.717 -0.1610  0.1511  0.1405
  184MOL0     C25303   0.777  -0.040   3.720 -0.0187  0.8220  0.1429
  184MOL0     C25304   0.765   0.100   3.704  0.0563 -0.8062  0.5481
  184MOL0     N25305   0.567   0.871   3.786 -0.7599  0.2392  0.5058
  184MOL0     N25306   0.493   0.945   3.857  0.1861 -0.1336 -0.5300
  184MOL0     C25307   0.465   0.671   4.824 -0.1625  0.2919  0.1881
  184MOL0     C25308   0.425   0.671   4.954 -0.2679  0.2448  0.2184
  184MOL0     C25309   0.118   0.713   5.329 -0.0870  0.9104  0.5987
  184MOL0     C25310   0.181   0.596   5.380 -0.9675 -0.2571  0.1000
  184MOL0     C25311   0.149   0.535   5.509  0.1680 -0.6732  0.8365
  184MOL0     C25312   0.036   0.582   5.582 -0.0257 -1.0273  0.9656
  184MOL0     O25313   0.012   0.542   5.707 -0.5136  0.3803  0.0533
  184MOL0     C25314  -0.123   0.536   5.761  0.5853  0.4679  0.8040
  184MOL0     C25315  -0.121   0.534   5.912  0.3453 -0.1596 -0.7420
  184MOL0     C25316  -0.065   0.407   5.965 -0.1756  0.2010 -0.6147
  184MOL0     C25317  -0.057   0.393   6.116  0.0349 -0.0700 -0.4843
  184MOL0     C25318   0.001   0.269   6.150 -0.3699  1.3622 -0.0088
  184MOL0     C25319   0.047   0.171   6.201 -0.3373 -0.3082  0.3031
  184MOL0     C25320  -0.033   0.692   5.519  0.3983  0.5613 -0.2012
  184MOL0     C25321   0.003   0.755   5.398 -0.1340 -0.4724  0.6964
  184MOL0     C25322  -0.093   0.859   5.355  0.5291 -0.4788  0.1348
  184MOL0     H25323   0.187   0.918   4.952  1.3896  1.6969 -0.7219
  184MOL0     H25324   0.245   0.903   4.716  0.4415  1.9135  2.7158
  184MOL0     H25325   0.257   0.822   4.533  0.0155  1.2489  0.2616
  184MOL0     H25326   0.359   0.771   4.405 -1.7304 -0.5073  0.3377
  184MOL0     H25327   0.421   1.011   4.572 -0.4721  1.9477 -1.6940
  184MOL0     H25328   0.544   0.936   4.471  0.2650  1.5022  1.1354
  184MOL0     H25329   0.451   1.118   4.355  1.4751 -0.7396 -0.7412
  184MOL0     H25330   0.444   0.974   4.264  1.6437  1.2077  1.5720
  184MOL0     H25331   0.209   0.959   4.281  0.3876 -0.6771  1.2033
  184MOL0     H25332   0.199   1.074   4.413  1.6687  0.9909  0.5001
  184MOL0     H25333   0.290   1.248   4.258 -0.1495 -0.2253  2.3569
  184MOL0     H25334   0.126   1.184   4.206 -0.0913  1.4672 -4.0969
  184MOL0     H25335   0.257   1.234   4.020  0.0143  1.1036  0.7828
  184MOL0     H25336   0.389   1.126   4.081 -0.1555  2.8859  1.3811
  184MOL0     H25337   0.108   1.029   4.005 -0.3173  1.2569 -0.5103
  184MOL0     H25338   0.254   0.928   4.055 -0.5959 -1.4652 -2.3638
  184MOL0     H25339   0.160   0.979   3.800  0.7083  1.0168 -1.8631
  184MOL0     H25340   0.261   1.111   3.834  1.5739  0.2104  3.9575
  184MOL0     H25341   0.279   0.833   3.629 -2.2989  4.5279  1.1384
  184MOL0     H25342   0.650   0.715   3.592  0.1480  0.3225 -2.2928
  184MOL0     H25343   0.502   0.696   3.494 -0.3080 -1.0913 -0.3580
  184MOL0     H25344   0.441   0.506   3.609  0.3204  0.1309  0.1992
  184MOL0     H25345   0.620   0.501   3.592  1.2930 -0.5917  4.3917
  184MOL0     H25346   0.645   0.590   3.817 -0.8891  1.6833 -1.0831
  184MOL0     H25347   0.473   0.578   3.835  0.4853  2.0859 -1.8405
  184MOL0     H25348   0.584   0.395   3.955  4.7389  1.4873  0.1503
  184MOL0     H25349   0.462   0.341   3.841 -0.8792  2.2647 -3.1073
  184MOL0     H25350   0.526   0.140   3.927 -0.7908 -1.8075  0.4039
  184MOL0     H25351   0.590  -0.207   4.024 -0.4291 -3.0211 -2.7738
  184MOL0     H25352   0.454  -0.194   3.906  0.6977  0.8252 -0.1701
  184MOL0     H25353   0.469  -0.079   4.041  0.7428  1.5911 -0.7051
  184MOL0     H25354   0.608  -0.494   3.594  3.3392 -1.1270 -0.4687
  184MOL0     H25355   0.602  -0.729   3.586 -1.5428  0.1816 -0.1827
  184MOL0     H25356   0.438  -0.965   3.699 -0.3912 -2.0588  0.8686
  184MOL0     H25357   0.566  -0.940   3.579 -0.0556  2.3277  0.5188
  184MOL0     H25358   0.526  -1.182   3.610 -0.7834 -1.7970  1.7354
  184MOL0     H25359   0.689  -1.127   3.640 -0.3869 -0.9578  0.0778
  184MOL0     H25360   0.583  -1.306   3.780 -1.5228 -0.4716 -1.2083
  184MOL0     H25361   0.474  -1.185   3.848 -0.2011 -1.4197 -2.1563
  184MOL0     H25362   0.679  -1.068   3.955  1.9606  1.6340 -0.8070
  184MOL0     H25363   0.783  -1.199   3.881 -0.1112  0.0320  0.1313
  184MOL0     H25364   0.558  -1.264   4.055  0.0731 -1.8962 -1.3263
  184MOL0     H25365   0.683  -1.379   4.010  0.9104 -1.0392  1.0218
  184MOL0     H25366   0.717  -1.132   4.193  2.0625  0.1616  2.5841
  184MOL0     H25367   0.850  -1.226   4.118 -1.0104  1.5972 -1.6341
  184MOL0     H25368   0.736  -1.440   4.227 -0.4716 -0.1267  0.2339
  184MOL0     H25369   0.647  -1.324   4.328 -0.9745  1.4839 -1.2313
  184MOL0     H25370   0.827  -1.377   4.461 -4.8653  2.1034 -0.3245
  184MOL0     H25371   0.864  -1.215   4.401 -1.4775  0.5924  0.0334
  184MOL0     H25372   0.672  -0.769   4.007 -0.5660 -0.1927  0.0776
  184MOL0     H25373   0.685  -0.527   4.019 -0.6884  3.5486 -1.1516
  184MOL0     H25374   0.855  -0.080   3.656 -0.2803  1.5973 -0.6801
  184MOL0     H25375   0.829   0.150   3.632  0.0917  1.2260  1.9011
  184MOL0     H25376   0.551   0.615   4.789  1.3254  1.4776  1.8187
  184MOL0     H25377   0.482   0.596   5.009 -0.8419 -2.1458 -2.2286
  184MOL0     H25378   0.267   0.545   5.339  1.6311  1.0655  3.4295
  184MOL0     H25379   0.209   0.448   5.534  0.3862 -1.7571 -2.8674
  184MOL0     H25380  -0.187   0.614   5.719  0.6075 -0.2304 -0.5834
  184MOL0     H25381  -0.167   0.438   5.741  0.5388  0.6496 -0.0470
  184MOL0     H25382  -0.217   0.556   5.960 -0.4768 -3.5617 -0.5838
  184MOL0     H25383  -0.061   0.616   5.951 -0.9149 -0.1045  1.2193
  184MOL0     H25384  -0.137   0.328   5.941 -2.0196  0.8365  2.3906
  184MOL0     H25385   0.033   0.401   5.916  0.1275 -0.0188  0.0193
  184MOL0     H25386  -0.153   0.400   6.168  2.5211  0.5967  4.6197
  184MOL0     H25387   0.005   0.474   6.155 -0.1951 -0.0603 -0.1358
  184MOL0     H25388   0.105   0.086   6.232  1.7556  1.4260  1.4498
  184MOL0     H25389  -0.118   0.737   5.571  0.0308 -0.2876 -0.0427
  184MOL0     H25390  -0.142   0.826   5.263 -1.8280 -0.9743  1.4910
  184MOL0     H25391  -0.179   0.871   5.422 -0.4788 -0.7693 -1.0704
  184MOL0     H25392  -0.035   0.950   5.336  2.2528 -1.6518 -0.4902
  185MOL0     O25393   6.127   8.033  10.692  1.2534 -0.4768 -0.3881
  185MOL0     C25394   6.143   7.954  10.781  0.3598  0.2308 -0.2509
  185MOL0     O25395   6.224   7.840  10.766 -0.2132 -0.2449 -0.5800
  185MOL0     C25396   6.271   7.806  10.643 -0.0573 -0.2953  0.5401
  185MOL0     C25397   6.187   7.787  10.536 -0.4969 -0.0496  0.5297
  185MOL0     C25398   6.238   7.758  10.414 -0.2474  0.1774 -0.3388
  185MOL0     C25399   6.369   7.742  10.390  0.1278 -0.0085 -0.7918
  185MOL0     O25400   6.433   7.744  10.264  0.0501 -0.3495 -0.3414
  185MOL0     C25401   6.367   7.815  10.162 -0.2691 -0.2526  0.2196
  185MOL0     C25402   6.464   7.878  10.067  0.2713  0.4342  1.3493
  185MOL0     C25403   6.529   7.765   9.982 -0.4476 -0.3972 -0.4180
  185MOL0     C25404   6.643   7.822   9.902  0.6072  0.4763 -0.6478
  185MOL0     C25405   6.717   7.715   9.819 -0.9444 -0.8237 -0.4279
  185MOL0     C25406   6.847   7.776   9.766 -0.0273  0.1638  0.4663
  185MOL0     C25407   6.936   7.672   9.702 -0.1270  0.5306  0.1402
  185MOL0     C25408   7.055   7.716   9.622  0.0066  0.6967 -0.3943
  185MOL0     N25409   7.148   7.600   9.642 -0.0241  0.4194  0.0945
  185MOL0     C25410   7.247   7.598   9.741 -0.1204 -0.5828  0.4711
  185MOL0     C25411   7.309   7.486   9.702  0.2021 -0.5525  0.5533
  185MOL0     C25412   7.449   7.449   9.745 -0.4468 -0.2947 -0.0443
  185MOL0     C25413   7.470   7.303   9.777 -0.7243  0.7018 -0.0402
  185MOL0     C25414   7.547   7.229   9.662 -0.3807 -0.6282  0.2211
  185MOL0     C25415   7.592   7.093   9.704  0.2248  0.6104  0.8980
  185MOL0     O25416   7.640   7.032   9.581  0.1111 -0.0849  0.2428
  185MOL0     C25417   7.662   6.898   9.586  0.0644  0.9402 -0.6605
  185MOL0     C25418   7.692   6.814   9.704  0.3837 -0.7339 -0.0838
  185MOL0     C25419   7.733   6.678   9.700 -0.0135 -0.7031 -0.4635
  185MOL0     C25420   7.748   6.609   9.831 -0.8056 -0.0801 -0.3602
  185MOL0     C25421   7.739   6.620   9.574 -0.3328 -0.7236 -0.3034
  185MOL0     C25422   7.759   6.478   9.546 -0.0660  0.8739  0.4685
  185MOL0     O25423   7.835   6.417   9.646  0.0638 -0.4496  0.1887
  185MOL0     C25424   7.840   6.272   9.649 -0.1023  0.0451  0.2435
  185MOL0     C25425   7.930   6.244   9.750 -0.2151  0.2113 -0.2171
  185MOL0     C25426   7.959   6.111   9.794  0.8408  0.5825  0.4805
  185MOL0     C25427   7.890   6.002   9.734 -0.0918  0.0676  0.0374
  185MOL0     O25428   7.926   5.870   9.777 -0.2175 -0.6600 -0.2994
  185MOL0     C25429   7.896   5.747   9.710  0.3723 -0.1129 -0.5010
  185MOL0     C25430   7.961   5.642   9.804 -0.9055  1.1730  0.0820
  185MOL0     C25431   7.948   5.506   9.734  0.4052 -1.2062 -0.1580
  185MOL0     C25432   7.973   5.400   9.836  0.0705  0.6526  0.0990
  185MOL0     C25433   7.977   5.260   9.769  0.1091  0.0976  0.9454
  185MOL0     C25434   8.006   5.137   9.858  0.0002  0.3400 -0.5197
  185MOL0     C25435   8.005   5.002   9.776  0.2665  1.2682 -0.6689
  185MOL0     C25436   8.132   4.985   9.695 -0.0496 -0.4384  0.2859
  185MOL0    Cl25437   8.123   4.832   9.597  0.1957  0.8355 -0.4806
  185MOL0     C25438   7.794   6.030   9.633 -1.0392  0.0979 -0.7662
  185MOL0     C25439   7.778   6.168   9.576  0.0117  0.6938 -0.9154
  185MOL0     O25440   7.708   6.420   9.450 -0.5383 -0.8066  0.1621
  185MOL0     C25441   7.692   6.695   9.464 -0.3624  0.7840 -0.3384
  185MOL0     C25442   7.668   6.831   9.465 -0.4278 -0.5686  0.2967
  185MOL0     N25443   7.250   7.416   9.593 -0.0420 -1.1081 -0.8184
  185MOL0     N25444   7.152   7.488   9.562  0.6409  0.5737 -0.2083
  185MOL0     C25445   6.454   7.747  10.500  0.7293  0.1791 -0.4825
  185MOL0     C25446   6.406   7.778  10.629  0.3664  1.0094 -0.3206
  185MOL0     C25447   6.059   7.975  10.916  0.4861  0.1192 -0.0174
  185MOL0     C25448   5.972   8.091  10.917 -0.1051 -0.5785  0.3886
  185MOL0     C25449   5.887   8.124  11.022 -0.2180  0.2541 -1.1170
  185MOL0     C25450   5.893   8.035  11.134 -0.4620 -0.7845  0.1872
  185MOL0     O25451   5.810   8.046  11.241 -0.2362  0.5705 -0.1604
  185MOL0     C25452   5.696   8.137  11.247 -1.1848 -0.0216 -0.0920
  185MOL0     C25453   5.623   8.101  11.377  0.2644 -0.0273 -0.0743
  185MOL0     C25454   5.505   8.185  11.417  0.1534  0.0090  0.1568
  185MOL0     C25455   5.550   8.322  11.476 -0.8483 -0.4942 -1.2375
  185MOL0     C25456   5.640   8.312  11.589 -0.6192 -0.5715  0.0954
  185MOL0     C25457   5.703   8.310  11.697 -0.5177 -0.8837  0.3390
  185MOL0     C25458   5.983   7.933  11.137 -0.3335  0.7992 -0.0378
  185MOL0     C25459   6.070   7.892  11.031  0.1730 -1.0503 -0.0684
  185MOL0     C25460   6.140   7.765  11.042 -0.4857 -0.3437  0.9434
  185MOL0     H25461   6.080   7.799  10.549 -1.0206 -1.9785 -1.3562
  185MOL0     H25462   6.167   7.757  10.331 -0.7969 -1.0688  0.1256
  185MOL0     H25463   6.310   7.899  10.204  0.8893 -0.9075  3.3749
  185MOL0     H25464   6.291   7.749  10.121  0.0174 -0.1477 -0.4957
  185MOL0     H25465   6.424   7.957  10.002  2.4594 -0.4145 -1.2328
  185MOL0     H25466   6.542   7.933  10.121  3.7917 -1.7907 -1.0150
  185MOL0     H25467   6.567   7.690  10.052 -2.2738 -1.3864 -0.4340
  185MOL0     H25468   6.467   7.701   9.920 -0.6361 -0.6428  0.0197
  185MOL0     H25469   6.609   7.903   9.837  4.2770 -0.5120 -4.1919
  185MOL0     H25470   6.713   7.873   9.969  1.8641  1.1165 -2.3694
  185MOL0     H25471   6.656   7.695   9.730 -1.2028  3.2376 -1.3779
  185MOL0     H25472   6.743   7.623   9.872  0.5101  1.3975  3.0053
  185MOL0     H25473   6.815   7.853   9.695  2.1544 -0.0402 -0.8137
  185MOL0     H25474   6.897   7.830   9.847  1.3137 -2.2804  1.3635
  185MOL0     H25475   6.874   7.612   9.634 -2.9682  1.3506  1.8209
  185MOL0     H25476   6.958   7.600   9.782 -0.1407 -0.3836 -0.6552
  185MOL0     H25477   7.032   7.732   9.516  2.9435  0.4247 -1.1696
  185MOL0     H25478   7.104   7.804   9.663  1.9552 -0.8874  0.9034
  185MOL0     H25479   7.276   7.669   9.817 -0.1251  0.2486 -0.2946
  185MOL0     H25480   7.475   7.504   9.836  1.2108 -1.3959  0.1927
  185MOL0     H25481   7.525   7.493   9.681  1.3488 -0.7261  1.7029
  185MOL0     H25482   7.539   7.298   9.862 -0.6955  0.5797 -0.0692
  185MOL0     H25483   7.373   7.258   9.798 -0.3539  1.0794  2.8699
  185MOL0     H25484   7.483   7.226   9.574  1.6009 -0.5680 -1.2742
  185MOL0     H25485   7.628   7.293   9.628  0.2238 -1.7841 -0.5650
  185MOL0     H25486   7.674   7.107   9.775  1.5281 -0.9991 -0.2099
  185MOL0     H25487   7.504   7.046   9.749  1.3775 -0.9578  1.6137
  185MOL0     H25488   7.700   6.862   9.801  5.0440 -3.0963  0.9705
  185MOL0     H25489   7.686   6.519   9.834 -1.1402  0.1707  0.7847
  185MOL0     H25490   7.715   6.675   9.911 -2.1803 -0.6947 -0.3827
  185MOL0     H25491   7.851   6.576   9.845 -1.4156 -1.8036  0.3695
  185MOL0     H25492   7.978   6.327   9.802 -2.3234  1.8597 -0.7286
  185MOL0     H25493   8.035   6.099   9.870  0.4025 -0.6129  0.7571
  185MOL0     H25494   7.787   5.740   9.707  0.3882 -1.7549  1.1528
  185MOL0     H25495   7.949   5.758   9.615 -1.4443  1.9988 -1.3658
  185MOL0     H25496   8.065   5.672   9.821 -1.4801  3.5443 -0.1996
  185MOL0     H25497   7.900   5.636   9.895 -2.0150  0.3990 -0.6755
  185MOL0     H25498   8.010   5.488   9.647 -1.2085 -2.8247 -1.0640
  185MOL0     H25499   7.845   5.499   9.697  0.9095  2.1854 -2.5532
  185MOL0     H25500   7.895   5.400   9.913 -0.6729 -0.8746 -0.6055
  185MOL0     H25501   8.071   5.420   9.880  1.7155 -1.3353 -2.3858
  185MOL0     H25502   7.877   5.253   9.724  1.1430  1.9647 -1.9126
  185MOL0     H25503   8.046   5.263   9.684 -1.0041  2.3361  0.0350
  185MOL0     H25504   7.915   5.141   9.918 -1.6390  0.2391 -2.8487
  185MOL0     H25505   8.097   5.143   9.918 -0.2507 -0.8899  0.0144
  185MOL0     H25506   7.916   5.004   9.713  0.3289  0.8067 -0.7725
  185MOL0     H25507   7.990   4.920   9.846 -1.3508  3.7865  2.2147
  185MOL0     H25508   8.206   4.972   9.774 -2.4041  2.2495  3.2015
  185MOL0     H25509   8.154   5.077   9.641 -0.6886 -0.9728 -0.9325
  185MOL0     H25510   7.760   5.948   9.571 -0.7397  0.6436 -1.6698
  185MOL0     H25511   7.728   6.177   9.480  1.7141 -0.7512 -1.9868
  185MOL0     H25512   7.689   6.642   9.369 -1.0336 -0.4683  0.3638
  185MOL0     H25513   7.655   6.887   9.373  0.1864  0.5621  0.8840
  185MOL0     H25514   6.559   7.762  10.477  1.5158 -2.3845  1.0020
  185MOL0     H25515   6.476   7.787  10.711  0.3213  0.8996 -0.2715
  185MOL0     H25516   5.968   8.151  10.827 -1.2548 -2.1444 -0.6655
  185MOL0     H25517   5.827   8.213  11.004 -0.0984  0.7026  0.5002
  185MOL0     H25518   5.739   8.237  11.249  1.6512 -1.1349  0.5004
  185MOL0     H25519   5.631   8.125  11.160 -3.1126 -3.1839  1.5866
  185MOL0     H25520   5.694   8.099  11.461 -1.4339 -0.5764  1.4213
  185MOL0     H25521   5.597   7.995  11.371  1.4439 -0.3085 -0.6220
  185MOL0     H25522   5.436   8.205  11.334 -0.1962  2.3290  0.9321
  185MOL0     H25523   5.454   8.127  11.495  0.3536  0.5902  0.7225
  185MOL0     H25524   5.460   8.374  11.509 -0.6608 -0.7066 -0.3873
  185MOL0     H25525   5.600   8.372  11.392 -0.1607 -3.1395 -2.5095
  185MOL0     H25526   5.741   8.322  11.796 -1.4618 -1.4852  0.7817
  185MOL0     H25527   5.979   7.875  11.229  1.3494  1.1407  0.2762
  185MOL0     H25528   6.096   7.678  10.992  0.0589 -0.2794  0.3408
  185MOL0     H25529   6.247   7.775  11.021 -0.2568 -0.2434  2.0906
  185MOL0     H25530   6.146   7.738  11.148  0.7619  1.7037  1.4547
  186MOL0     O25531  11.464   5.357   7.166  0.3459  0.0750  0.2230
  186MOL0     C25532  11.510   5.358   7.053 -0.4219  0.3957  0.3730
  186MOL0     O25533  11.632   5.413   7.022 -0.8068 -0.2997 -0.5120
  186MOL0     C25534  11.695   5.487   7.114 -0.2582 -0.0352  0.0960
  186MOL0     C25535  11.731   5.615   7.090 -0.4682  0.7027  0.4951
  186MOL0     C25536  11.797   5.690   7.181  0.4319 -0.4924  0.3025
  186MOL0     C25537  11.831   5.645   7.308  0.5228  1.5481  0.1745
  186MOL0     O25538  11.901   5.720   7.399  0.0965 -0.2700 -0.4029
  186MOL0     C25539  11.956   5.844   7.373  0.4085 -0.0144  0.3317
  186MOL0     C25540  12.035   5.885   7.497 -0.0693 -0.3253 -0.5107
  186MOL0     C25541  12.102   6.026   7.504 -0.5892 -0.1812 -0.5426
  186MOL0     C25542  12.187   6.054   7.374  0.3425 -0.6159 -0.6730
  186MOL0     C25543  12.300   5.948   7.339 -1.4961 -0.4852  0.6170
  186MOL0     C25544  12.403   5.926   7.461  0.7624 -0.2141 -0.5613
  186MOL0     C25545  12.520   5.837   7.415  0.1970  0.8147  0.6768
  186MOL0     C25546  12.613   5.797   7.540  0.0807  0.3653 -0.0939
  186MOL0     N25547  12.540   5.716   7.636  0.0487  0.0981  0.6450
  186MOL0     C25548  12.570   5.720   7.776 -0.5256 -0.1095 -0.5207
  186MOL0     C25549  12.494   5.617   7.835 -0.7621  0.4348  0.1300
  186MOL0     C25550  12.489   5.575   7.979  0.0059  0.1487 -0.3922
  186MOL0     C25551  12.583   5.452   8.004 -1.5817 -0.3105 -0.0806
  186MOL0     C25552  12.549   5.379   8.139  0.4648 -0.0754 -0.7535
  186MOL0     C25553  12.631   5.440   8.253 -0.5660  0.3456 -0.6225
  186MOL0     O25554  12.625   5.588   8.276 -0.9036  0.7197 -0.1242
  186MOL0     C25555  12.688   5.642   8.388 -0.1503  1.0078  1.0651
  186MOL0     C25556  12.676   5.772   8.409  0.6416  0.1866  0.1543
  186MOL0     C25557  12.749   5.847   8.497 -0.5667  0.3539 -0.9842
  186MOL0     C25558  12.718   5.992   8.500 -0.2776 -0.7561 -0.7779
  186MOL0     C25559  12.841   5.780   8.585  1.3537  0.8313 -0.7510
  186MOL0     C25560  12.924   5.841   8.698  0.3996  0.5882 -0.4342
  186MOL0     O25561  12.978   5.757   8.789  0.0126 -0.1383  0.6997
  186MOL0     C25562  13.077   5.794   8.874 -0.2344 -0.4663  0.1732
  186MOL0     C25563  13.215   5.793   8.842 -0.5350  0.4349 -0.1681
  186MOL0     C25564  13.310   5.810   8.948  0.8703  0.3149  0.0589
  186MOL0     C25565  13.289   5.845   9.076  0.2874 -0.3012  0.1993
  186MOL0     O25566  13.398   5.855   9.159  1.0329 -0.2095  0.6304
  186MOL0     C25567  13.368   5.874   9.299 -0.5075  0.4996 -1.0618
  186MOL0     C25568  13.500   5.864   9.378  0.1347 -1.3078  0.6713
  186MOL0     C25569  13.532   6.008   9.434 -0.4898  0.5650  0.2080
  186MOL0     C25570  13.663   6.016   9.514 -0.1276  0.5195  0.7366
  186MOL0     C25571  13.700   6.157   9.556  0.7134 -0.2470  0.0053
  186MOL0     C25572  13.835   6.165   9.625 -0.3824  0.0244 -0.3278
  186MOL0     C25573  13.849   6.303   9.694  0.3537  0.0933 -0.0504
  186MOL0     C25574  13.970   6.297   9.789  1.0768 -0.1962  0.3755
  186MOL0    Cl25575  13.921   6.198   9.940 -0.0363 -0.0800  0.4516
  186MOL0     C25576  13.150   5.878   9.105 -0.8036  0.3416 -0.3737
  186MOL0     C25577  13.052   5.861   9.004 -0.5916 -0.2249 -0.0184
  186MOL0     O25578  12.935   5.965   8.706 -0.3861  0.0710  0.5672
  186MOL0     C25579  12.856   5.643   8.567  0.9266  0.9366  0.8914
  186MOL0     C25580  12.787   5.574   8.464  0.1422  0.6344 -1.5105
  186MOL0     N25581  12.421   5.561   7.723  0.6156 -0.3734  0.5023
  186MOL0     N25582  12.456   5.610   7.607  0.4346  0.0271 -0.6491
  186MOL0     C25583  11.800   5.512   7.336  0.3275 -0.4516 -0.7390
  186MOL0     C25584  11.735   5.429   7.236  0.5144 -1.0635  0.0289
  186MOL0     C25585  11.438   5.270   6.956  0.1907 -0.7446 -0.0409
  186MOL0     C25586  11.379   5.155   7.010  0.2437  0.4556 -0.0960
  186MOL0     C25587  11.335   5.047   6.932  0.2999  0.8733  0.0994
  186MOL0     C25588  11.352   5.053   6.791 -0.2091  0.4707 -0.0338
  186MOL0     O25589  11.298   4.959   6.704  0.7790  0.4838  0.0747
  186MOL0     C25590  11.315   4.821   6.708 -0.7379  0.3467 -0.1087
  186MOL0     C25591  11.235   4.746   6.607  0.3187  0.0968 -0.8587
  186MOL0     C25592  11.081   4.788   6.589  0.1980  0.1989 -0.6865
  186MOL0     C25593  11.003   4.812   6.717  0.4019  0.6591 -0.1438
  186MOL0     C25594  10.857   4.833   6.701  0.1725 -0.1678 -0.3245
  186MOL0     C25595  10.736   4.853   6.689  0.2878 -0.0456  0.7473
  186MOL0     C25596  11.402   5.177   6.740 -0.6390  0.3837 -0.5325
  186MOL0     C25597  11.451   5.285   6.814 -0.5609 -0.2182  0.3383
  186MOL0     C25598  11.525   5.398   6.745 -0.4299  0.0381  0.3857
  186MOL0     H25599  11.712   5.647   6.988 -1.1354  0.6452  0.5964
  186MOL0     H25600  11.814   5.792   7.148  0.8295 -0.9886 -1.0651
  186MOL0     H25601  11.868   5.907   7.367 -0.3536 -1.2066 -2.6205
  186MOL0     H25602  12.013   5.855   7.280 -0.2123  0.5829  0.0164
  186MOL0     H25603  11.970   5.876   7.584  2.1207 -2.6935  1.0109
  186MOL0     H25604  12.110   5.807   7.512 -0.0575 -0.3611 -0.7420
  186MOL0     H25605  12.018   6.094   7.519 -0.5477 -0.1756 -0.3324
  186MOL0     H25606  12.176   6.045   7.583 -0.9136  1.2740 -0.5678
  186MOL0     H25607  12.130   6.059   7.280 -0.9613  1.2703  0.1600
  186MOL0     H25608  12.235   6.150   7.391 -0.5265 -0.1383 -0.8195
  186MOL0     H25609  12.345   5.987   7.247 -1.3497 -0.4361  0.7087
  186MOL0     H25610  12.264   5.847   7.320  0.1451 -1.1667  0.9654
  186MOL0     H25611  12.441   6.021   7.500 -0.6476  0.4409 -0.7246
  186MOL0     H25612  12.349   5.874   7.541  0.5844  0.2180 -0.3949
  186MOL0     H25613  12.589   5.892   7.350  1.1236  0.3889  1.2884
  186MOL0     H25614  12.490   5.749   7.359  1.6260 -1.3364  3.0711
  186MOL0     H25615  12.706   5.748   7.509  0.9560 -1.3822  4.4243
  186MOL0     H25616  12.649   5.887   7.592 -0.0176  1.8786 -2.5042
  186MOL0     H25617  12.639   5.792   7.819 -1.9521  1.3070 -0.4674
  186MOL0     H25618  12.386   5.565   8.013  1.1079  0.1953  3.4463
  186MOL0     H25619  12.521   5.659   8.041 -0.2988 -1.2601  1.7945
  186MOL0     H25620  12.566   5.376   7.927 -0.9557  0.1722 -0.7119
  186MOL0     H25621  12.689   5.479   8.014 -2.1820  1.7945  1.3054
  186MOL0     H25622  12.444   5.385   8.170  0.9596  2.9056  0.6839
  186MOL0     H25623  12.551   5.270   8.132 -2.0442 -0.3807  1.6286
  186MOL0     H25624  12.611   5.394   8.350  1.0119  0.2454 -0.3110
  186MOL0     H25625  12.734   5.412   8.227 -0.6484  0.3599 -0.9708
  186MOL0     H25626  12.605   5.822   8.343  1.0219 -0.0284 -0.4211
  186MOL0     H25627  12.682   6.011   8.601  2.7958 -0.0017  0.2660
  186MOL0     H25628  12.649   6.036   8.427  1.5750  1.0866 -1.4943
  186MOL0     H25629  12.812   6.047   8.497  0.8578 -2.6032 -0.9937
  186MOL0     H25630  13.237   5.749   8.746 -0.1854 -1.7091  0.8216
  186MOL0     H25631  13.411   5.797   8.910 -0.4622  0.7381 -4.1424
  186MOL0     H25632  13.311   5.964   9.325  1.0710  0.8007  1.7087
  186MOL0     H25633  13.308   5.793   9.341  0.5935 -0.3908 -1.1712
  186MOL0     H25634  13.497   5.800   9.466 -0.1345  1.3286  2.7085
  186MOL0     H25635  13.587   5.839   9.317  1.6782  0.4552  2.0395
  186MOL0     H25636  13.459   6.040   9.509 -0.2803 -0.4937  0.8922
  186MOL0     H25637  13.522   6.089   9.361 -2.0987  1.5774  1.4636
  186MOL0     H25638  13.745   5.984   9.449 -0.8143  1.6478 -0.7707
  186MOL0     H25639  13.648   5.955   9.604 -2.6952 -1.8203 -1.1077
  186MOL0     H25640  13.694   6.222   9.468  0.3998  1.9810  1.5685
  186MOL0     H25641  13.620   6.200   9.617  0.2222  3.0005 -2.6423
  186MOL0     H25642  13.910   6.147   9.547  0.8269  0.9679  0.5598
  186MOL0     H25643  13.843   6.078   9.690 -0.6424 -2.1485 -2.9905
  186MOL0     H25644  13.755   6.315   9.749 -0.8310 -0.5424 -1.8479
  186MOL0     H25645  13.870   6.381   9.620  2.3804  2.1322  2.4632
  186MOL0     H25646  13.991   6.394   9.835  1.3607  1.0574 -2.2310
  186MOL0     H25647  14.053   6.254   9.732 -0.7221 -2.7703 -0.4471
  186MOL0     H25648  13.123   5.903   9.207 -2.6178  1.0538 -1.0074
  186MOL0     H25649  12.948   5.880   9.026 -0.4797  2.7281 -1.5093
  186MOL0     H25650  12.907   5.574   8.632  2.2881  0.1957 -0.8860
  186MOL0     H25651  12.817   5.470   8.456  0.6773  0.6066  0.3389
  186MOL0     H25652  11.831   5.467   7.430  0.5940 -0.8463 -1.0101
  186MOL0     H25653  11.713   5.324   7.251 -1.9024 -0.5479  0.4421
  186MOL0     H25654  11.334   5.158   7.109 -2.0929  4.6198 -1.0353
  186MOL0     H25655  11.283   4.961   6.974  0.6877  1.7746  2.6047
  186MOL0     H25656  11.416   4.786   6.688 -0.2287  0.3724  2.2326
  186MOL0     H25657  11.287   4.782   6.806  0.4962 -4.2381 -1.3229
  186MOL0     H25658  11.245   4.642   6.638 -2.1044 -0.4801 -1.8153
  186MOL0     H25659  11.286   4.763   6.511 -0.8691  5.2794 -0.8910
  186MOL0     H25660  11.085   4.874   6.520  3.4541 -2.0921 -3.7000
  186MOL0     H25661  11.027   4.706   6.539  0.0605 -0.9853  1.2930
  186MOL0     H25662  11.051   4.895   6.770  1.2979  0.1510 -0.1348
  186MOL0     H25663  11.026   4.723   6.777  1.5590  0.0226 -1.4679
  186MOL0     H25664  10.631   4.872   6.683  0.5996  1.4378 -0.8562
  186MOL0     H25665  11.413   5.182   6.632 -0.6638 -2.0036 -0.6879
  186MOL0     H25666  11.627   5.362   6.729 -0.2259  0.5615  0.5085
  186MOL0     H25667  11.476   5.418   6.649 -0.8026 -3.7809 -0.4167
  186MOL0     H25668  11.524   5.486   6.809 -1.7033  0.6532 -0.4439
  187MOL0     O25669   7.305   2.169   6.844 -0.3717  0.0593 -0.7172
  187MOL0     C25670   7.272   2.055   6.807  0.1998 -0.5694  0.3394
  187MOL0     O25671   7.355   1.955   6.782 -0.0170  0.1501 -0.1551
  187MOL0     C25672   7.456   1.938   6.872  0.3750  0.2847  0.3033
  187MOL0     C25673   7.471   1.993   6.996  0.2937  0.1812  0.3471
  187MOL0     C25674   7.587   1.992   7.060 -0.2406 -0.7650 -0.0344
  187MOL0     C25675   7.711   1.948   7.005  0.9701  1.4456  0.0237
  187MOL0     O25676   7.825   1.962   7.077  0.7178 -0.3834  0.2933
  187MOL0     C25677   7.823   1.887   7.203  0.4546 -0.3043  0.6361
  187MOL0     C25678   7.956   1.911   7.280  0.6968 -0.2951 -0.4152
  187MOL0     C25679   7.981   2.056   7.328 -0.3119 -0.0839 -0.1915
  187MOL0     C25680   8.087   2.066   7.437  0.1135 -0.4809 -0.0759
  187MOL0     C25681   8.163   2.205   7.445 -0.3383 -0.4473  0.1754
  187MOL0     C25682   8.273   2.201   7.552  0.4199  0.3682  0.3661
  187MOL0     C25683   8.332   2.334   7.588 -0.0730  0.5584 -0.0872
  187MOL0     C25684   8.235   2.419   7.679 -0.6893 -0.3981 -0.3168
  187MOL0     N25685   8.202   2.554   7.612  0.3361  0.3857 -0.5157
  187MOL0     C25686   8.153   2.577   7.481 -0.4419  0.0323  0.2291
  187MOL0     C25687   8.124   2.709   7.480  0.5617  0.3008  0.7530
  187MOL0     C25688   8.081   2.773   7.347 -0.0353  0.7842  0.2883
  187MOL0     C25689   8.204   2.794   7.249  0.8058  1.0450 -0.0992
  187MOL0     C25690   8.338   2.844   7.304 -0.1194 -0.3658 -0.1491
  187MOL0     C25691   8.341   2.999   7.331 -0.4000  0.4311  0.1122
  187MOL0     O25692   8.371   3.066   7.202  0.1931  0.1890  0.3931
  187MOL0     C25693   8.314   3.189   7.180 -0.1414 -0.3958  0.1439
  187MOL0     C25694   8.229   3.207   7.069  0.2445 -0.6148  0.2609
  187MOL0     C25695   8.165   3.323   7.050  0.8248  0.1218 -0.0679
  187MOL0     C25696   8.067   3.333   6.941  0.1723 -0.5460  0.5316
  187MOL0     C25697   8.190   3.437   7.135 -0.1050 -0.0667 -0.4408
  187MOL0     C25698   8.125   3.574   7.125  0.7742  0.8024  0.2592
  187MOL0     O25699   8.129   3.647   7.238 -0.2214  0.5667  0.2936
  187MOL0     C25700   8.077   3.778   7.239  0.1083  0.1880  0.3340
  187MOL0     C25701   8.154   3.890   7.283  0.4777 -0.0667  0.3825
  187MOL0     C25702   8.092   4.017   7.287 -0.1333  0.3874  0.2293
  187MOL0     C25703   7.959   4.039   7.244 -0.3113  0.2176  0.9914
  187MOL0     O25704   7.902   4.160   7.243  0.4567 -0.4672 -0.0060
  187MOL0     C25705   7.958   4.263   7.326 -0.4759 -0.7296 -0.0177
  187MOL0     C25706   7.890   4.410   7.300 -0.8931 -0.0924  0.6937
  187MOL0     C25707   7.747   4.399   7.353 -0.3250 -0.0941 -0.5647
  187MOL0     C25708   7.642   4.500   7.295 -0.2806 -0.2830 -0.2519
  187MOL0     C25709   7.514   4.496   7.380 -0.9511  0.7606 -0.4314
  187MOL0     C25710   7.422   4.390   7.330 -0.5910 -0.2931  0.5949
  187MOL0     C25711   7.299   4.373   7.413 -0.6698  0.4686 -0.4014
  187MOL0     C25712   7.334   4.365   7.565 -0.6080  0.7104  0.3096
  187MOL0    Cl25713   7.477   4.255   7.607 -0.3000  0.3550 -0.2384
  187MOL0     C25714   7.891   3.934   7.207  0.5884  0.6300  0.1419
  187MOL0     C25715   7.947   3.801   7.196 -0.4842 -0.7320  0.7573
  187MOL0     O25716   8.094   3.618   7.011  0.2145 -0.2303  0.2260
  187MOL0     C25717   8.293   3.424   7.235  0.2126 -0.2081  0.4291
  187MOL0     C25718   8.345   3.299   7.263  0.0819 -0.1086 -1.4723
  187MOL0     N25719   8.171   2.773   7.592 -0.4898  0.3807  0.7812
  187MOL0     N25720   8.219   2.680   7.666 -0.4019  0.1668  0.5708
  187MOL0     C25721   7.701   1.880   6.878 -0.8772  0.7950 -0.3653
  187MOL0     C25722   7.576   1.884   6.810 -1.1268  0.6334 -0.6577
  187MOL0     C25723   7.136   2.039   6.733  0.3952  0.7495 -0.0424
  187MOL0     C25724   7.129   1.950   6.616  0.6249 -0.5812  0.9315
  187MOL0     C25725   7.013   1.944   6.535  0.4178 -0.1677  0.4701
  187MOL0     C25726   6.906   2.031   6.562 -0.6065 -0.5465  0.6694
  187MOL0     O25727   6.800   2.019   6.479 -0.4629 -0.4164 -0.8348
  187MOL0     C25728   6.674   1.990   6.540 -1.2656  0.3865  0.4664
  187MOL0     C25729   6.671   1.883   6.650  0.0886  0.3383  0.3896
  187MOL0     C25730   6.531   1.845   6.689 -0.0745 -0.0655 -0.5344
  187MOL0     C25731   6.517   1.761   6.814 -0.4737 -0.5929  0.1549
  187MOL0     C25732   6.533   1.838   6.935 -1.0586  0.2422 -0.6359
  187MOL0     C25733   6.529   1.900   7.040  0.0874 -0.0526 -1.0210
  187MOL0     C25734   6.910   2.118   6.669 -0.3335  0.5805 -0.2318
  187MOL0     C25735   7.020   2.123   6.758 -0.0070  0.1913  0.2680
  187MOL0     C25736   7.015   2.236   6.846 -0.0687 -0.2723 -0.5670
  187MOL0     H25737   7.381   2.030   7.044 -0.6796 -2.2700  0.5712
  187MOL0     H25738   7.596   2.033   7.160 -0.6815 -0.6337 -0.0492
  187MOL0     H25739   7.825   1.781   7.178  1.1527 -0.0323 -0.5211
  187MOL0     H25740   7.743   1.913   7.273  1.0275  0.1452  1.1295
  187MOL0     H25741   7.947   1.850   7.371 -0.1617  2.5913  1.5651
  187MOL0     H25742   8.035   1.879   7.212 -2.1263  0.3800 -4.3041
  187MOL0     H25743   8.005   2.107   7.233  0.2059 -0.6865 -0.3892
  187MOL0     H25744   7.893   2.110   7.366  3.0075  3.8072  2.9708
  187MOL0     H25745   8.038   2.055   7.535 -1.0599  0.7646 -0.4926
  187MOL0     H25746   8.158   1.983   7.436  1.2808  0.4801 -1.5904
  187MOL0     H25747   8.089   2.283   7.468 -0.6501 -1.0404  1.2139
  187MOL0     H25748   8.211   2.238   7.352  0.0110 -1.0744  0.1300
  187MOL0     H25749   8.246   2.141   7.640  3.4670 -0.2815  1.0046
  187MOL0     H25750   8.355   2.143   7.507  1.2725  2.1016 -0.4190
  187MOL0     H25751   8.364   2.395   7.503  2.1376  0.4064  0.5836
  187MOL0     H25752   8.428   2.314   7.635 -0.4042 -1.6966 -0.2617
  187MOL0     H25753   8.147   2.364   7.712 -1.6370 -0.0845 -2.1920
  187MOL0     H25754   8.289   2.437   7.772 -1.8583 -1.1959  0.5410
  187MOL0     H25755   8.125   2.505   7.404 -0.3525 -1.3917  1.4934
  187MOL0     H25756   8.034   2.870   7.362 -2.3419 -0.1062 -0.7048
  187MOL0     H25757   8.006   2.700   7.316  1.7432 -0.4270 -1.4871
  187MOL0     H25758   8.219   2.699   7.197 -1.4476 -0.0636  1.1479
  187MOL0     H25759   8.175   2.862   7.168  1.6587 -2.5047 -3.6870
  187MOL0     H25760   8.350   2.793   7.400  0.8146  1.5596  0.8140
  187MOL0     H25761   8.419   2.804   7.242 -0.1017 -2.2025  0.9865
  187MOL0     H25762   8.245   3.034   7.369 -2.0855 -0.9826 -2.5243
  187MOL0     H25763   8.424   3.022   7.398 -1.8993 -1.0003  2.6316
  187MOL0     H25764   8.217   3.121   7.003 -0.9025  0.2155 -0.6361
  187MOL0     H25765   7.975   3.377   6.980  2.6054  3.1793  2.7707
  187MOL0     H25766   8.049   3.237   6.893  0.1696 -0.3562  0.1435
  187MOL0     H25767   8.102   3.394   6.857  1.3276 -0.5967  0.9458
  187MOL0     H25768   8.258   3.880   7.314  0.6961 -0.4447 -0.4369
  187MOL0     H25769   8.165   4.092   7.314  0.9087 -0.6310  0.3078
  187MOL0     H25770   7.964   4.242   7.433 -1.9571 -3.0087 -0.3120
  187MOL0     H25771   8.061   4.283   7.294 -0.6526  0.3714  0.0749
  187MOL0     H25772   7.955   4.490   7.337  1.5048 -0.4160 -2.3762
  187MOL0     H25773   7.884   4.437   7.195  1.1355  3.2037  1.2728
  187MOL0     H25774   7.757   4.428   7.458 -0.1337 -0.7105 -0.4080
  187MOL0     H25775   7.703   4.299   7.347 -0.8906  0.0673  0.6348
  187MOL0     H25776   7.621   4.487   7.188 -0.4500  0.1003 -0.2670
  187MOL0     H25777   7.684   4.600   7.311 -0.7867 -0.1648  0.3683
  187MOL0     H25778   7.540   4.480   7.485  1.4820 -1.2796 -1.2432
  187MOL0     H25779   7.465   4.593   7.367 -2.3927  0.1234  0.0244
  187MOL0     H25780   7.474   4.295   7.337  1.0004  0.5855  1.1212
  187MOL0     H25781   7.408   4.411   7.223  0.0852 -0.2663  0.5074
  187MOL0     H25782   7.251   4.280   7.381  0.5006 -0.6311  0.8476
  187MOL0     H25783   7.223   4.451   7.400 -1.4526 -0.2955 -0.4872
  187MOL0     H25784   7.249   4.326   7.622  0.6273  0.0791  1.7876
  187MOL0     H25785   7.357   4.467   7.598  0.3101  1.8068 -3.1961
  187MOL0     H25786   7.789   3.948   7.172  1.6975  0.3780 -3.5390
  187MOL0     H25787   7.884   3.717   7.168 -2.0912  1.7516 -4.3278
  187MOL0     H25788   8.321   3.515   7.287 -1.0451  1.3324 -1.4135
  187MOL0     H25789   8.406   3.299   7.353  1.6788  0.4691 -2.5057
  187MOL0     H25790   7.787   1.846   6.821 -0.6268 -0.0543  0.4813
  187MOL0     H25791   7.558   1.833   6.715 -0.1096  0.1218 -0.5858
  187MOL0     H25792   7.217   1.907   6.569 -1.1485 -2.2828 -1.0278
  187MOL0     H25793   7.011   1.873   6.453  3.4817 -0.4493  0.5194
  187MOL0     H25794   6.636   2.080   6.590 -2.1086  1.1122 -1.4171
  187MOL0     H25795   6.592   1.967   6.472  0.0816 -3.3027 -0.1685
  187MOL0     H25796   6.734   1.900   6.738  1.2989  3.5522 -0.9412
  187MOL0     H25797   6.713   1.794   6.603 -1.9337  0.1313 -1.1987
  187MOL0     H25798   6.466   1.930   6.712  0.1959 -0.3260  1.4303
  187MOL0     H25799   6.484   1.797   6.604 -1.6348  0.0782  0.2126
  187MOL0     H25800   6.590   1.680   6.820  1.2138  0.9475  1.4714
  187MOL0     H25801   6.414   1.724   6.813 -1.2241  1.3025 -1.8754
  187MOL0     H25802   6.522   1.974   7.117 -0.8615 -0.0215 -1.1244
  187MOL0     H25803   6.822   2.182   6.683  0.2420  1.0156  1.7624
  187MOL0     H25804   7.074   2.223   6.938  0.7784  1.7724 -0.7696
  187MOL0     H25805   7.032   2.332   6.797  1.4164 -0.5340 -0.6081
  187MOL0     H25806   6.911   2.246   6.880 -0.9806 -1.5788 -2.7876
  188MOL0     O25807   5.529   4.697   1.728 -0.3094 -0.1292  0.5765
  188MOL0     C25808   5.435   4.756   1.764 -0.1330 -0.9527 -0.4276
  188MOL0     O25809   5.343   4.703   1.856 -0.4385  0.1254 -0.9581
  188MOL0     C25810   5.367   4.589   1.938  0.2389  0.6441  1.0160
  188MOL0     C25811   5.341   4.600   2.071 -0.8012  0.4363  0.9029
  188MOL0     C25812   5.371   4.483   2.152  0.4961 -0.4278 -1.0893
  188MOL0     C25813   5.415   4.359   2.098  0.4176 -0.1737  0.6862
  188MOL0     O25814   5.443   4.245   2.174 -0.1876  0.2102 -0.3522
  188MOL0     C25815   5.426   4.111   2.124  0.2901 -0.2200 -0.0484
  188MOL0     C25816   5.279   4.071   2.102  1.3753 -0.2561  0.0835
  188MOL0     C25817   5.202   4.083   2.235  0.2097 -0.4450 -0.9129
  188MOL0     C25818   5.054   4.116   2.247  0.3798 -0.0041 -0.0179
  188MOL0     C25819   5.035   4.263   2.259  0.1190  0.0237 -0.6118
  188MOL0     C25820   4.879   4.283   2.231 -0.0127  0.0557  0.1651
  188MOL0     C25821   4.840   4.432   2.238  0.2590 -0.7713  0.0353
  188MOL0     C25822   4.831   4.483   2.381 -0.7774  0.1317 -0.3754
  188MOL0     N25823   4.786   4.625   2.386 -0.1556 -0.2854 -0.0528
  188MOL0     C25824   4.869   4.732   2.402  0.1397  0.7957  0.3396
  188MOL0     C25825   4.785   4.842   2.384 -0.1602  0.1263  0.0460
  188MOL0     C25826   4.812   4.989   2.394  1.2659 -0.2727 -0.7473
  188MOL0     C25827   4.874   5.042   2.526 -0.1714 -0.5807 -0.0791
  188MOL0     C25828   4.898   5.186   2.533 -0.9721 -0.6849  0.8307
  188MOL0     C25829   4.778   5.278   2.488  0.4544 -1.4853  0.3725
  188MOL0     O25830   4.811   5.410   2.531  0.3515  0.3713 -0.4130
  188MOL0     C25831   4.834   5.498   2.425 -0.5428  0.0491  0.7455
  188MOL0     C25832   4.898   5.471   2.300  0.3625 -0.4901 -0.1718
  188MOL0     C25833   4.948   5.567   2.205  1.2622  0.1390  1.3239
  188MOL0     C25834   5.036   5.517   2.092 -0.9681  1.0316 -0.0104
  188MOL0     C25835   4.929   5.703   2.240 -0.4042 -0.6465 -0.5778
  188MOL0     C25836   4.996   5.811   2.157  0.4413  0.7251  1.8936
  188MOL0     O25837   5.021   5.928   2.235  0.3328 -0.5245 -0.1928
  188MOL0     C25838   5.052   6.044   2.161 -0.0869  1.1584  0.0457
  188MOL0     C25839   5.184   6.081   2.138 -0.0631  0.2106 -0.3623
  188MOL0     C25840   5.210   6.203   2.081  0.0930  0.0758  0.6619
  188MOL0     C25841   5.110   6.286   2.027  0.2149  0.8242 -0.5837
  188MOL0     O25842   5.134   6.409   1.966  0.2778  0.3242  0.2705
  188MOL0     C25843   5.267   6.443   1.911  0.5134  0.2654  0.0964
  188MOL0     C25844   5.248   6.509   1.765  0.0347  0.2830 -0.1667
  188MOL0     C25845   5.370   6.508   1.670  0.1059 -0.4552 -0.3047
  188MOL0     C25846   5.432   6.367   1.655 -0.5941 -0.2929 -0.3634
  188MOL0     C25847   5.544   6.391   1.552 -0.5671 -0.6231 -1.4437
  188MOL0     C25848   5.495   6.397   1.408  0.3775 -0.4907 -1.1839
  188MOL0     C25849   5.615   6.427   1.310  0.4924  0.3880 -0.9024
  188MOL0     C25850   5.561   6.394   1.164 -0.9177  0.5089 -0.2143
  188MOL0    Cl25851   5.536   6.213   1.138 -0.0312 -0.5165  0.2005
  188MOL0     C25852   4.976   6.244   2.044  0.4911  0.0109  0.2456
  188MOL0     C25853   4.950   6.123   2.120  0.6550  0.0384 -0.1195
  188MOL0     O25854   5.020   5.792   2.035  0.3588  0.1315  0.3642
  188MOL0     C25855   4.866   5.731   2.366 -0.6048  0.1326 -0.9881
  188MOL0     C25856   4.818   5.634   2.451 -0.1474  0.6187 -0.0561
  188MOL0     N25857   4.656   4.791   2.357  0.4669 -0.2232 -0.7714
  188MOL0     N25858   4.665   4.661   2.347  0.5289  0.3725 -0.8259
  188MOL0     C25859   5.430   4.352   1.954 -0.0973 -0.5282 -0.1359
  188MOL0     C25860   5.403   4.463   1.876  0.1604 -0.4129 -0.3644
  188MOL0     C25861   5.401   4.887   1.708  0.0615 -0.4791  0.4169
  188MOL0     C25862   5.280   4.949   1.751  0.0982 -0.5984 -0.5368
  188MOL0     C25863   5.226   5.069   1.700 -0.6252 -0.4267 -0.3433
  188MOL0     C25864   5.294   5.136   1.612 -1.5811 -0.6171  0.7993
  188MOL0     O25865   5.255   5.259   1.558  0.5920 -0.0121  0.0917
  188MOL0     C25866   5.225   5.364   1.655  0.1956 -0.0098 -0.0664
  188MOL0     C25867   5.206   5.482   1.569 -0.2721  0.4952  0.0220
  188MOL0     C25868   5.176   5.618   1.647  0.7963 -1.0802  0.5392
  188MOL0     C25869   5.037   5.626   1.709  0.9689  0.0617 -0.2429
  188MOL0     C25870   4.929   5.645   1.607 -0.3669  0.3904  0.4325
  188MOL0     C25871   4.835   5.669   1.538 -0.2030 -0.4152 -0.2707
  188MOL0     C25872   5.411   5.078   1.561  1.2020 -0.2866  0.0507
  188MOL0     C25873   5.466   4.961   1.609 -0.2710 -0.8519  0.9052
  188MOL0     C25874   5.587   4.901   1.544 -0.1760 -0.2810  0.4640
  188MOL0     H25875   5.307   4.696   2.107  1.6687  1.2328  1.3228
  188MOL0     H25876   5.359   4.494   2.259  3.8225  1.2325 -0.7679
  188MOL0     H25877   5.476   4.032   2.180  1.0304 -1.8113 -2.7822
  188MOL0     H25878   5.468   4.097   2.024 -1.8715 -1.3275 -0.8732
  188MOL0     H25879   5.232   4.129   2.023 -0.8908 -1.4289  0.4814
  188MOL0     H25880   5.278   3.968   2.064  2.6676 -0.5621  0.7965
  188MOL0     H25881   5.219   3.983   2.275 -2.7368 -0.3384  0.9683
  188MOL0     H25882   5.255   4.153   2.302  0.3408  0.3591 -1.8295
  188MOL0     H25883   5.007   4.090   2.151  1.0209  2.5486 -1.1326
  188MOL0     H25884   5.000   4.063   2.325 -0.9022  2.2551  0.7269
  188MOL0     H25885   5.094   4.318   2.185 -1.8927 -1.4712 -3.4981
  188MOL0     H25886   5.060   4.309   2.355 -2.8514  0.3179  0.1203
  188MOL0     H25887   4.854   4.255   2.128 -0.8380  2.9062 -0.5053
  188MOL0     H25888   4.816   4.233   2.305  0.0223 -1.4218 -0.7612
  188MOL0     H25889   4.743   4.456   2.195  0.7882  0.6904 -0.4021
  188MOL0     H25890   4.912   4.492   2.181 -0.7079  1.5410  1.1222
  188MOL0     H25891   4.762   4.412   2.427 -0.5539  0.4744  0.5097
  188MOL0     H25892   4.927   4.471   2.431 -0.1784  1.2766 -1.2035
  188MOL0     H25893   4.976   4.736   2.415  0.2305 -2.0069  1.2295
  188MOL0     H25894   4.719   5.043   2.373 -1.0827 -3.2649  1.0999
  188MOL0     H25895   4.891   5.013   2.322  3.4384 -2.3286  0.7618
  188MOL0     H25896   4.803   5.023   2.608  0.9280  0.9015  1.3007
  188MOL0     H25897   4.964   4.987   2.554 -0.0001  0.4284  1.5093
  188MOL0     H25898   4.924   5.205   2.638 -3.3569 -1.4291  1.6203
  188MOL0     H25899   4.985   5.215   2.473  0.6121 -4.0654  1.2932
  188MOL0     H25900   4.759   5.278   2.381  0.3905  1.1880  0.3323
  188MOL0     H25901   4.691   5.235   2.540 -0.7075  0.6573  0.2885
  188MOL0     H25902   4.932   5.370   2.279 -1.4938 -1.5165  1.3475
  188MOL0     H25903   4.999   5.529   1.990 -0.5868  0.8120 -0.1771
  188MOL0     H25904   5.053   5.409   2.107 -0.8199  0.7510 -2.0316
  188MOL0     H25905   5.133   5.566   2.102 -0.2252 -0.5780  1.1767
  188MOL0     H25906   5.267   6.032   2.187  0.6400 -0.4048 -2.1128
  188MOL0     H25907   5.308   6.246   2.063  0.7199 -1.1833  0.9519
  188MOL0     H25908   5.331   6.500   1.979  1.1695  0.4506 -0.6615
  188MOL0     H25909   5.314   6.346   1.894 -3.1989 -1.7591  0.2124
  188MOL0     H25910   5.163   6.458   1.719  1.3076 -2.9341  0.7865
  188MOL0     H25911   5.217   6.611   1.792 -0.2419  0.0342  0.4747
  188MOL0     H25912   5.449   6.571   1.712 -0.5909 -1.4688  2.7565
  188MOL0     H25913   5.329   6.550   1.578  0.2116  0.0431 -0.1280
  188MOL0     H25914   5.355   6.295   1.625 -2.8464  1.6986  0.3317
  188MOL0     H25915   5.467   6.328   1.751 -2.5626 -3.8554 -0.9246
  188MOL0     H25916   5.611   6.473   1.580 -1.5821 -0.2459  0.0367
  188MOL0     H25917   5.619   6.312   1.561 -0.2070 -0.1534 -0.0410
  188MOL0     H25918   5.432   6.486   1.400  3.8459  2.1248 -1.5153
  188MOL0     H25919   5.449   6.299   1.387  1.3158 -1.0292 -0.7900
  188MOL0     H25920   5.703   6.363   1.325 -0.6896 -0.9796  0.5290
  188MOL0     H25921   5.653   6.530   1.314  4.1832 -0.7257 -2.5487
  188MOL0     H25922   5.625   6.440   1.087  1.0687 -0.4077  0.8187
  188MOL0     H25923   5.461   6.435   1.150  0.2388  3.3629 -0.8760
  188MOL0     H25924   4.901   6.313   2.007  0.9647  0.5647  0.3099
  188MOL0     H25925   4.847   6.096   2.143  0.6702  1.4679  1.9286
  188MOL0     H25926   4.852   5.831   2.405 -0.0658  0.2858 -1.1841
  188MOL0     H25927   4.756   5.648   2.539 -0.3376 -2.3023  0.3891
  188MOL0     H25928   5.445   4.255   1.908  0.3434 -0.7959  0.5598
  188MOL0     H25929   5.407   4.460   1.768  0.6349 -2.6032 -0.3217
  188MOL0     H25930   5.221   4.902   1.830  1.8427 -3.1476 -0.6164
  188MOL0     H25931   5.131   5.109   1.734 -0.6825 -1.9652  1.4967
  188MOL0     H25932   5.141   5.348   1.723  0.4434  2.0156  0.8131
  188MOL0     H25933   5.320   5.393   1.701  0.6121  5.0091 -3.3341
  188MOL0     H25934   5.122   5.452   1.505  0.7996 -0.8044 -0.8272
  188MOL0     H25935   5.300   5.490   1.514 -1.0020 -3.0058 -2.0475
  188MOL0     H25936   5.255   5.642   1.719  1.4123 -1.8522  0.1426
  188MOL0     H25937   5.181   5.705   1.580  3.1897 -2.2836 -0.9798
  188MOL0     H25938   5.046   5.714   1.774  0.0958  2.2449 -2.8587
  188MOL0     H25939   5.011   5.537   1.766  2.3831  0.2670  0.7918
  188MOL0     H25940   4.743   5.692   1.489  0.1632 -0.0458 -0.8012
  188MOL0     H25941   5.448   5.137   1.478 -5.2178  1.8916 -1.8492
  188MOL0     H25942   5.550   4.807   1.503 -2.9456  0.8306  0.1660
  188MOL0     H25943   5.608   4.951   1.449  0.2136  1.5480  1.4682
  188MOL0     H25944   5.685   4.903   1.592  0.7365 -0.3734 -1.3101
  189MOL0     O25945  10.839   0.634   0.885 -0.3676 -0.4445  0.3923
  189MOL0     C25946  10.877   0.646   0.998 -0.1648  0.3685 -0.0539
  189MOL0     O25947  10.848   0.757   1.076 -0.3239  0.3309 -0.5940
  189MOL0     C25948  10.759   0.853   1.041 -0.4773  0.0848 -0.1340
  189MOL0     C25949  10.766   0.932   0.929 -0.2813  1.2126  0.9045
  189MOL0     C25950  10.685   1.041   0.897 -0.5300 -0.3617 -0.2294
  189MOL0     C25951  10.577   1.072   0.979  0.1944  0.0724  0.1794
  189MOL0     O25952  10.490   1.172   0.935  0.4268  0.4315 -0.2015
  189MOL0     C25953  10.403   1.228   1.034 -0.7252 -0.1785  0.2218
  189MOL0     C25954  10.339   1.353   0.974 -0.2637 -0.3062 -0.4406
  189MOL0     C25955  10.225   1.416   1.067 -0.4098 -0.4133  0.2972
  189MOL0     C25956  10.164   1.536   0.992  0.8043  0.1665  0.0811
  189MOL0     C25957  10.072   1.615   1.084 -0.0490 -0.0041 -0.6072
  189MOL0     C25958  10.032   1.740   1.011  0.1278 -0.6308  0.4406
  189MOL0     C25959   9.924   1.810   1.095  0.4475 -0.1749 -0.7554
  189MOL0     C25960   9.965   1.884   1.223 -0.0418 -0.1499 -0.5837
  189MOL0     N25961   9.856   1.968   1.283 -0.3129 -0.1654 -0.5556
  189MOL0     C25962   9.746   1.915   1.344  0.1107 -0.3823  0.1054
  189MOL0     C25963   9.672   2.016   1.397  0.1061  0.3286  0.7208
  189MOL0     C25964   9.531   2.006   1.454 -0.4402 -0.6190  0.4579
  189MOL0     C25965   9.518   2.022   1.608 -1.0695  0.1710 -0.0864
  189MOL0     C25966   9.599   1.920   1.691 -0.1792 -0.2320  0.9447
  189MOL0     C25967   9.584   1.952   1.832  0.1647  0.1518 -0.2075
  189MOL0     O25968   9.638   1.843   1.919  0.0398  0.3484  0.1044
  189MOL0     C25969   9.766   1.844   1.964 -0.3055 -0.2282 -0.2450
  189MOL0     C25970   9.799   1.745   2.053 -0.9362 -0.3606 -0.1745
  189MOL0     C25971   9.925   1.735   2.120  0.4760  0.0599 -0.0167
  189MOL0     C25972   9.928   1.634   2.233  0.4340 -0.7572 -0.1419
  189MOL0     C25973  10.024   1.832   2.094 -0.1473 -0.9322  0.1597
  189MOL0     C25974  10.161   1.829   2.153  0.1359 -0.6628 -0.1215
  189MOL0     O25975  10.226   1.948   2.150  0.2100 -0.6096  0.1499
  189MOL0     C25976  10.355   1.959   2.186 -0.8182 -0.3363 -0.1848
  189MOL0     C25977  10.461   1.871   2.140  0.4049  0.4695 -0.7265
  189MOL0     C25978  10.587   1.881   2.197 -0.4294 -0.2806 -0.2970
  189MOL0     C25979  10.621   1.999   2.280  0.3315  0.0655  0.8296
  189MOL0     O25980  10.740   2.027   2.331  0.5846 -1.2149 -0.6935
  189MOL0     C25981  10.855   1.960   2.290  0.4537  0.9602  0.6655
  189MOL0     C25982  10.970   2.021   2.372 -0.8517 -0.7751 -0.2825
  189MOL0     C25983  11.089   1.925   2.351  0.3101  0.5873 -0.9377
  189MOL0     C25984  11.208   1.982   2.430  0.6448  0.2301  0.4178
  189MOL0     C25985  11.315   1.872   2.432  0.5226  0.5637  0.0580
  189MOL0     C25986  11.442   1.909   2.502  0.5562  0.4639 -0.1758
  189MOL0     C25987  11.556   1.808   2.467  0.9938 -0.0928 -1.2138
  189MOL0     C25988  11.681   1.844   2.552 -0.0234 -0.0739  0.3138
  189MOL0    Cl25989  11.668   1.785   2.720  0.0130  0.3935 -0.2909
  189MOL0     C25990  10.512   2.086   2.314  0.1388  0.3836  0.1820
  189MOL0     C25991  10.384   2.063   2.267 -0.6276  0.0650 -0.8340
  189MOL0     O25992  10.204   1.727   2.195 -0.0203 -1.3751  0.9346
  189MOL0     C25993   9.987   1.938   2.002 -0.0834  0.5608  0.1208
  189MOL0     C25994   9.859   1.947   1.946 -0.1951 -0.2132  1.1993
  189MOL0     N25995   9.750   2.132   1.365  0.0860 -0.3511  0.0183
  189MOL0     N25996   9.851   2.101   1.286  1.4402  0.0858 -0.8268
  189MOL0     C25997  10.571   0.993   1.101  0.3130 -0.0580 -0.1451
  189MOL0     C25998  10.658   0.892   1.127 -0.0553  0.2442 -0.2581
  189MOL0     C25999  10.953   0.533   1.054 -0.5212  0.4068  0.5693
  189MOL0     C26000  11.041   0.453   0.972 -0.0109  0.4325  0.9911
  189MOL0     C26001  11.122   0.355   1.019  0.2456 -0.5198 -0.4956
  189MOL0     C26002  11.104   0.323   1.159  0.8799 -1.7379  0.1590
  189MOL0     O26003  11.184   0.232   1.230 -0.4171  0.5929 -0.0231
  189MOL0     C26004  11.211   0.109   1.167  1.0567  0.1644  0.2373
  189MOL0     C26005  11.273  -0.009   1.251 -0.0569 -0.1180  0.6967
  189MOL0     C26006  11.420   0.030   1.272 -0.2232  0.1527  0.6369
  189MOL0     C26007  11.480  -0.070   1.366  0.0590 -0.2561 -0.4579
  189MOL0     C26008  11.478  -0.022   1.505  0.4207  0.2650 -0.5375
  189MOL0     C26009  11.485   0.015   1.620 -0.6157 -0.9044  0.0683
  189MOL0     C26010  11.023   0.399   1.245 -0.1525 -0.1852  0.5413
  189MOL0     C26011  10.953   0.503   1.195 -0.0994 -1.0166 -0.2051
  189MOL0     C26012  10.873   0.575   1.306 -0.7687  0.3599  0.6948
  189MOL0     H26013  10.844   0.887   0.868 -2.5162  0.8155 -1.8854
  189MOL0     H26014  10.706   1.082   0.799  1.2067 -0.2503  0.1519
  189MOL0     H26015  10.457   1.262   1.123 -0.4777  0.9806 -0.3598
  189MOL0     H26016  10.324   1.160   1.068 -0.0823  0.7733  4.1394
  189MOL0     H26017  10.423   1.415   0.943 -1.5877  0.7207 -2.1398
  189MOL0     H26018  10.296   1.317   0.880 -3.6153  1.0393  0.4435
  189MOL0     H26019  10.140   1.351   1.087 -1.6323  1.3645  1.1395
  189MOL0     H26020  10.277   1.445   1.159  2.1323  2.9953 -1.9338
  189MOL0     H26021  10.233   1.609   0.950 -0.6289  0.7593 -1.3604
  189MOL0     H26022  10.103   1.503   0.907 -2.1564 -0.0849  2.1646
  189MOL0     H26023  10.123   1.623   1.181 -1.2538 -1.4605  0.1929
  189MOL0     H26024   9.983   1.554   1.102 -1.0711  2.0008  1.7323
  189MOL0     H26025  10.122   1.792   0.978  1.6044 -3.0905  0.3815
  189MOL0     H26026   9.979   1.711   0.919 -0.3933  0.6312  0.3164
  189MOL0     H26027   9.850   1.732   1.115 -0.1522  0.4282 -0.5779
  189MOL0     H26028   9.877   1.887   1.033 -0.0583 -0.1177 -0.3041
  189MOL0     H26029   9.994   1.817   1.305  0.7223  1.3182  0.3922
  189MOL0     H26030  10.057   1.936   1.194  1.5438 -2.0579  0.6987
  189MOL0     H26031   9.727   1.809   1.352  0.4953 -0.4006  0.9271
  189MOL0     H26032   9.485   1.920   1.406 -4.6230  2.3579 -1.4836
  189MOL0     H26033   9.483   2.099   1.421  2.2198  1.2197  1.4560
  189MOL0     H26034   9.558   2.121   1.630 -2.0809  0.5063  0.3203
  189MOL0     H26035   9.411   2.027   1.633 -1.0412 -0.3945  0.1632
  189MOL0     H26036   9.565   1.818   1.673  1.5740 -0.5410 -0.9097
  189MOL0     H26037   9.703   1.928   1.658 -0.9928  0.5782 -1.6536
  189MOL0     H26038   9.627   2.050   1.856  2.2084 -1.0809  1.5817
  189MOL0     H26039   9.477   1.953   1.853  0.2400 -1.5466  0.4026
  189MOL0     H26040   9.731   1.661   2.061  2.0836 -3.3661 -2.8849
  189MOL0     H26041   9.942   1.687   2.328 -3.2448  1.3490 -0.5835
  189MOL0     H26042  10.002   1.559   2.204  2.6357 -0.6892  4.4733
  189MOL0     H26043   9.829   1.591   2.249  0.1740  0.1210  0.7232
  189MOL0     H26044  10.421   1.798   2.071 -0.8744  1.5230 -1.1352
  189MOL0     H26045  10.663   1.807   2.173  0.9520  0.1560  2.4287
  189MOL0     H26046  10.846   1.855   2.317 -2.1037  1.1873  0.9209
  189MOL0     H26047  10.874   1.956   2.182 -0.6568 -0.0751  0.4978
  189MOL0     H26048  10.995   2.124   2.346  1.1162 -0.5869  2.0070
  189MOL0     H26049  10.937   2.029   2.476 -0.5985 -1.0449 -0.1829
  189MOL0     H26050  11.115   1.921   2.245 -1.6972 -1.4920 -1.4333
  189MOL0     H26051  11.065   1.827   2.394 -0.6250  1.3396  0.3307
  189MOL0     H26052  11.175   2.001   2.533  1.6731 -0.1312  0.8237
  189MOL0     H26053  11.253   2.071   2.385  0.2596 -0.9370 -2.4945
  189MOL0     H26054  11.265   1.784   2.473  0.0857  0.6205 -0.3393
  189MOL0     H26055  11.340   1.861   2.326  1.0038 -1.6208  0.3451
  189MOL0     H26056  11.425   1.908   2.610  1.5868 -1.5252  0.0099
  189MOL0     H26057  11.485   2.007   2.475  1.6367 -0.3296 -1.4732
  189MOL0     H26058  11.597   1.811   2.365  0.0473  0.2595 -1.5928
  189MOL0     H26059  11.521   1.707   2.493  0.9998  0.2053 -0.0161
  189MOL0     H26060  11.712   1.949   2.545  0.4711 -0.3037 -1.1424
  189MOL0     H26061  11.767   1.788   2.516 -0.0804 -0.9788  1.5001
  189MOL0     H26062  10.535   2.171   2.377  0.2303  0.3533  0.1891
  189MOL0     H26063  10.302   2.124   2.303 -1.5432 -1.4395 -0.3206
  189MOL0     H26064  10.053   2.021   1.982  0.3872 -0.1997 -1.6694
  189MOL0     H26065   9.827   2.021   1.874  0.7347 -1.2494 -0.3312
  189MOL0     H26066  10.487   1.023   1.163  1.4886  3.8163 -0.2136
  189MOL0     H26067  10.650   0.847   1.226  0.9212  1.1331  0.2463
  189MOL0     H26068  11.057   0.485   0.869  0.5032 -0.9872  0.6031
  189MOL0     H26069  11.202   0.313   0.960 -0.0752 -0.2861 -1.1027
  189MOL0     H26070  11.118   0.080   1.116  1.5871  1.5763 -1.6351
  189MOL0     H26071  11.282   0.138   1.090 -0.0344 -0.2253 -0.9471
  189MOL0     H26072  11.270  -0.104   1.196  2.8090  0.5019 -0.7259
  189MOL0     H26073  11.215  -0.036   1.340 -0.1008 -3.1490 -0.1138
  189MOL0     H26074  11.459   0.010   1.172 -0.1131 -2.3300  1.1266
  189MOL0     H26075  11.432   0.134   1.304 -1.4367  0.2585  0.7979
  189MOL0     H26076  11.587  -0.076   1.344  1.1166  1.9559  3.1433
  189MOL0     H26077  11.428  -0.166   1.359  3.1016 -2.0499  0.0269
  189MOL0     H26078  11.500   0.043   1.722 -1.1123 -0.0668 -0.0753
  189MOL0     H26079  11.023   0.378   1.352 -0.6567 -3.9798 -0.0706
  189MOL0     H26080  10.780   0.614   1.263  1.9190  4.8397 -1.8671
  189MOL0     H26081  10.836   0.506   1.382 -0.4857 -0.3957  0.1581
  189MOL0     H26082  10.925   0.665   1.340 -1.2166  0.5841  0.7999
  190MOL0     O26083   0.273   7.559   3.753  0.1624 -0.5630 -0.6869
  190MOL0     C26084   0.155   7.536   3.730 -0.0513  0.4202  0.2185
  190MOL0     O26085   0.066   7.633   3.690  0.4756  0.6160 -0.3393
  190MOL0     C26086   0.113   7.768   3.679  0.6697 -1.4924 -0.1627
  190MOL0     C26087   0.192   7.810   3.573 -1.3380  0.0105 -0.0124
  190MOL0     C26088   0.233   7.948   3.573 -0.3126 -0.0514 -0.1748
  190MOL0     C26089   0.184   8.042   3.662 -0.0936  0.3706  0.5217
  190MOL0     O26090   0.190   8.173   3.626  0.7766 -0.5897  0.2059
  190MOL0     C26091   0.254   8.259   3.718  0.1815 -0.9481  0.5213
  190MOL0     C26092   0.336   8.363   3.639  0.0176  0.5453 -0.1415
  190MOL0     C26093   0.476   8.312   3.592  0.3318  0.3137 -0.8517
  190MOL0     C26094   0.583   8.344   3.709 -0.2186  1.0937  0.5929
  190MOL0     C26095   0.716   8.275   3.685  0.0539  0.3926 -0.0581
  190MOL0     C26096   0.798   8.311   3.553  0.2143  0.1169 -0.8409
  190MOL0     C26097   0.922   8.228   3.546  0.0909 -1.8491  0.1561
  190MOL0     C26098   0.980   8.228   3.401 -0.0297  0.2436 -0.3409
  190MOL0     N26099   1.106   8.141   3.396  0.3169 -0.1869 -0.1242
  190MOL0     C26100   1.113   8.019   3.464  0.1356 -0.6684  0.1322
  190MOL0     C26101   1.224   7.962   3.415 -0.1136  0.4208  0.5282
  190MOL0     C26102   1.283   7.824   3.449  0.5189 -1.1960  0.1859
  190MOL0     C26103   1.415   7.835   3.502 -0.1698 -0.2827 -0.5926
  190MOL0     C26104   1.428   7.906   3.644 -0.6348  1.2376  0.7772
  190MOL0     C26105   1.378   7.808   3.761 -0.1125 -0.0735  0.9576
  190MOL0     O26106   1.460   7.688   3.782 -0.2497 -0.1470  0.4872
  190MOL0     C26107   1.567   7.699   3.863  0.1735  0.1332  1.3298
  190MOL0     C26108   1.556   7.700   3.997  0.5932  0.2593  0.5509
  190MOL0     C26109   1.672   7.704   4.074  0.4384  0.0580 -0.0691
  190MOL0     C26110   1.654   7.724   4.222  0.5178  0.8583 -0.6014
  190MOL0     C26111   1.800   7.685   4.018  0.2068 -0.1450  0.1653
  190MOL0     C26112   1.918   7.710   4.112  0.1094 -0.4829  0.5413
  190MOL0     O26113   2.019   7.635   4.090  0.3592  0.8034 -0.2773
  190MOL0     C26114   2.138   7.639   4.155 -0.1626  0.2169  0.1449
  190MOL0     C26115   2.215   7.531   4.138  0.1441 -0.2775  0.1052
  190MOL0     C26116   2.336   7.507   4.201  0.5473 -1.3904 -0.2366
  190MOL0     C26117   2.389   7.602   4.298 -0.3164 -0.4012 -0.5670
  190MOL0     O26118   2.503   7.590   4.366 -0.2002 -0.3591  0.7905
  190MOL0     C26119   2.609   7.493   4.331 -0.1831 -0.3914  0.4647
  190MOL0     C26120   2.736   7.554   4.397  0.1529 -0.3725 -0.5073
  190MOL0     C26121   2.723   7.594   4.541 -0.8951  0.6450  0.0087
  190MOL0     C26122   2.869   7.625   4.596  0.5924 -0.3514  0.2735
  190MOL0     C26123   2.875   7.650   4.746  0.1640 -0.2534  0.3271
  190MOL0     C26124   2.816   7.548   4.838  0.8312  0.4485  0.2848
  190MOL0     C26125   2.859   7.402   4.812 -0.4920 -0.2548  0.6643
  190MOL0     C26126   3.012   7.386   4.832 -0.9374 -0.3210  1.2117
  190MOL0    Cl26127   3.063   7.213   4.811  0.1726  0.2977 -0.1101
  190MOL0     C26128   2.316   7.728   4.308 -0.5489 -0.2254  0.1837
  190MOL0     C26129   2.197   7.745   4.244  0.8951  0.4970 -0.0243
  190MOL0     O26130   1.914   7.804   4.192 -0.2910 -0.3154 -0.0072
  190MOL0     C26131   1.816   7.670   3.884  0.9785 -0.5428  0.5796
  190MOL0     C26132   1.698   7.682   3.809 -0.2073 -0.5044  0.4920
  190MOL0     N26133   1.275   8.045   3.315  0.3720  0.2772  0.8616
  190MOL0     N26134   1.209   8.152   3.312 -0.4207  0.2306  0.0195
  190MOL0     C26135   0.104   8.003   3.767  0.8127 -0.6011  0.9639
  190MOL0     C26136   0.061   7.866   3.774 -0.2162  0.5511 -0.5465
  190MOL0     C26137   0.103   7.396   3.748 -0.4677  0.3369  0.0416
  190MOL0     C26138   0.175   7.304   3.824 -0.0180  0.1333  0.7271
  190MOL0     C26139   0.135   7.169   3.843  0.4690 -0.7806  0.2180
  190MOL0     C26140   0.029   7.120   3.773 -0.2857 -0.1646  0.7487
  190MOL0     O26141  -0.008   6.985   3.783  0.6491 -0.3298  0.4394
  190MOL0     C26142   0.018   6.922   3.910 -0.2093  0.0200 -1.3933
  190MOL0     C26143  -0.052   6.793   3.933 -0.3500 -0.0742  0.4571
  190MOL0     C26144  -0.021   6.709   4.054 -0.5158  0.2638 -0.6374
  190MOL0     C26145   0.128   6.689   4.088 -0.1243 -0.0908 -0.4943
  190MOL0     C26146   0.144   6.623   4.218 -0.8867 -0.0054  0.8284
  190MOL0     C26147   0.146   6.575   4.332  0.1022  0.3831 -0.2957
  190MOL0     C26148  -0.037   7.208   3.682  0.7412 -0.1121 -0.0594
  190MOL0     C26149  -0.003   7.343   3.667 -0.9734  0.0474  0.0155
  190MOL0     C26150  -0.087   7.421   3.569  0.2408  0.5373 -0.0164
  190MOL0     H26151   0.233   7.733   3.509  0.7992 -0.5971  1.9868
  190MOL0     H26152   0.294   7.986   3.491 -0.3035 -2.8407 -1.5907
  190MOL0     H26153   0.324   8.202   3.780 -0.3411  1.1629  3.2294
  190MOL0     H26154   0.183   8.317   3.778 -0.2839 -2.9421  1.9932
  190MOL0     H26155   0.273   8.391   3.554 -2.2963 -0.3646  1.1712
  190MOL0     H26156   0.354   8.458   3.691  2.2775 -0.4459  1.0533
  190MOL0     H26157   0.477   8.203   3.582  0.7486 -0.9588  6.8265
  190MOL0     H26158   0.507   8.364   3.501  0.1345 -0.1156 -1.1682
  190MOL0     H26159   0.599   8.448   3.737 -1.0793  1.2461  0.5457
  190MOL0     H26160   0.545   8.290   3.796 -0.6540  1.3442  0.5569
  190MOL0     H26161   0.698   8.168   3.685  0.9776  0.2269  0.8532
  190MOL0     H26162   0.782   8.305   3.767 -0.9066 -0.3866  1.0351
  190MOL0     H26163   0.736   8.292   3.465  0.0465  1.4159 -1.0209
  190MOL0     H26164   0.826   8.416   3.548  1.1522 -0.1850 -2.4072
  190MOL0     H26165   0.911   8.124   3.579  2.6404 -1.2549  3.4294
  190MOL0     H26166   0.998   8.271   3.613 -1.2641 -2.1332  1.9565
  190MOL0     H26167   0.898   8.177   3.348 -0.1376 -2.4339  2.1660
  190MOL0     H26168   1.005   8.330   3.371 -2.3012  1.5048  1.6905
  190MOL0     H26169   1.050   7.961   3.530 -3.3304 -0.6528 -2.8272
  190MOL0     H26170   1.292   7.765   3.357  2.4670 -0.8817  0.1323
  190MOL0     H26171   1.213   7.769   3.513 -0.1145 -1.5052 -0.7465
  190MOL0     H26172   1.438   7.729   3.511 -1.2866 -0.8844 -3.5889
  190MOL0     H26173   1.473   7.880   3.421  0.9339 -0.9404 -0.1885
  190MOL0     H26174   1.531   7.930   3.673 -1.0325  0.1735  3.3539
  190MOL0     H26175   1.383   8.006   3.634 -0.7202  1.1118 -0.2154
  190MOL0     H26176   1.378   7.870   3.851  2.0786  1.3640  0.0576
  190MOL0     H26177   1.276   7.774   3.741  1.0392 -2.4219 -1.7499
  190MOL0     H26178   1.459   7.700   4.047  1.1195  0.7669  1.6014
  190MOL0     H26179   1.550   7.711   4.254  1.2301 -1.9505  0.8656
  190MOL0     H26180   1.689   7.825   4.247 -0.2549  0.8513  0.6015
  190MOL0     H26181   1.713   7.655   4.283 -0.7122 -0.4479 -0.8317
  190MOL0     H26182   2.178   7.450   4.076  1.1595  0.1275 -1.0771
  190MOL0     H26183   2.390   7.420   4.166  1.9364 -0.4475 -0.5615
  190MOL0     H26184   2.579   7.395   4.368 -1.0407  0.2731  1.5742
  190MOL0     H26185   2.627   7.492   4.223 -1.9800 -1.2296  0.1409
  190MOL0     H26186   2.821   7.487   4.379  0.2793 -1.2366  2.7346
  190MOL0     H26187   2.761   7.652   4.356 -0.6897 -0.2711 -0.7782
  190MOL0     H26188   2.678   7.505   4.586 -0.9510  0.2422 -0.8161
  190MOL0     H26189   2.657   7.680   4.554 -1.9919  0.2571 -2.4639
  190MOL0     H26190   2.913   7.712   4.547 -0.3624  0.2156  0.4016
  190MOL0     H26191   2.930   7.539   4.566  0.9746 -0.0503  0.1748
  190MOL0     H26192   2.982   7.658   4.768  0.1174  0.9278  0.2188
  190MOL0     H26193   2.824   7.746   4.764  0.9569 -0.4604  5.0865
  190MOL0     H26194   2.708   7.560   4.838  1.0301  2.6063  0.6399
  190MOL0     H26195   2.846   7.581   4.938  0.1076  0.0264  0.6530
  190MOL0     H26196   2.831   7.372   4.711  2.0843  3.7504 -1.5314
  190MOL0     H26197   2.810   7.337   4.885  0.8060  0.2977  2.0870
  190MOL0     H26198   3.041   7.416   4.933  1.2065  4.5392 -0.5548
  190MOL0     H26199   3.080   7.439   4.766 -0.0639 -1.1337  1.4298
  190MOL0     H26200   2.360   7.813   4.358 -5.2395  2.1385  0.7883
  190MOL0     H26201   2.147   7.839   4.263 -1.5957 -0.9255  0.7922
  190MOL0     H26202   1.910   7.681   3.831  0.6081  1.5039  0.2767
  190MOL0     H26203   1.703   7.690   3.700 -0.3963  0.9075  0.5762
  190MOL0     H26204   0.039   8.072   3.819  0.6289  1.9876 -2.3820
  190MOL0     H26205  -0.012   7.831   3.846  0.3352  3.9963  1.9187
  190MOL0     H26206   0.260   7.342   3.881 -0.6933  1.1083  1.1159
  190MOL0     H26207   0.203   7.101   3.895  0.8143 -2.6490 -2.4860
  190MOL0     H26208   0.123   6.902   3.932 -0.5929  0.3434  1.0578
  190MOL0     H26209  -0.009   6.986   3.995  0.4190 -2.4870  0.8629
  190MOL0     H26210  -0.021   6.732   3.848 -3.5123  1.3608 -1.9229
  190MOL0     H26211  -0.161   6.805   3.933 -0.4591 -0.6958  2.2906
  190MOL0     H26212  -0.075   6.749   4.140 -3.5594  0.5757 -2.5180
  190MOL0     H26213  -0.067   6.613   4.028 -0.9565  0.9554 -2.6922
  190MOL0     H26214   0.166   6.791   4.102  0.5405 -0.3333 -0.4761
  190MOL0     H26215   0.194   6.633   4.021  0.2522 -1.7604  1.1642
  190MOL0     H26216   0.153   6.523   4.426  1.8432 -1.8325 -1.5463
  190MOL0     H26217  -0.114   7.163   3.620  0.3457  2.1334 -1.2854
  190MOL0     H26218  -0.152   7.350   3.518 -1.0551  0.8995  1.0673
  190MOL0     H26219  -0.145   7.508   3.601  1.1963  0.8904  0.7808
  190MOL0     H26220  -0.018   7.469   3.499 -0.3075  3.1558  1.1263
  191MOL0     O26221   0.382   4.763   3.437 -0.1601  0.9243  0.5766
  191MOL0     C26222   0.332   4.684   3.351 -0.8358 -0.1330  0.4820
  191MOL0     O26223   0.369   4.556   3.334  0.4066  0.3006 -0.1061
  191MOL0     C26224   0.463   4.498   3.422 -0.3300 -0.2089  0.1925
  191MOL0     C26225   0.601   4.508   3.390 -0.4613  1.0376 -0.0819
  191MOL0     C26226   0.689   4.447   3.475  0.0528  0.3692 -0.0424
  191MOL0     C26227   0.661   4.392   3.603 -0.3958 -0.0489  0.4061
  191MOL0     O26228   0.762   4.358   3.683 -0.5467  1.2810 -0.1999
  191MOL0     C26229   0.758   4.406   3.819 -0.3853 -0.5548 -0.0423
  191MOL0     C26230   0.861   4.346   3.911 -0.5210  0.3362  0.2409
  191MOL0     C26231   0.832   4.191   3.922 -1.3686 -0.2521  0.1015
  191MOL0     C26232   0.699   4.145   3.991  0.5722  0.9523  0.5135
  191MOL0     C26233   0.689   3.993   4.028 -0.0079 -0.2844  0.3718
  191MOL0     C26234   0.739   3.894   3.917 -0.6592  0.1171  0.7055
  191MOL0     C26235   0.632   3.872   3.810 -0.6770  0.0843 -0.1818
  191MOL0     C26236   0.691   3.793   3.694 -0.4102 -0.6113  0.3527
  191MOL0     N26237   0.788   3.868   3.613 -0.0634 -0.6665 -0.7032
  191MOL0     C26238   0.772   3.986   3.545  0.1965 -0.2472  0.6085
  191MOL0     C26239   0.885   4.003   3.475  1.2307  0.0376  0.9789
  191MOL0     C26240   0.897   4.118   3.374  0.5721  0.5423  0.2452
  191MOL0     C26241   0.987   4.218   3.452  0.1442  0.5690 -0.5620
  191MOL0     C26242   1.133   4.183   3.418 -0.2719  0.3010  0.8412
  191MOL0     C26243   1.227   4.291   3.486  1.6990 -0.2059  0.4160
  191MOL0     O26244   1.360   4.243   3.503  0.8506  0.4889  0.8874
  191MOL0     C26245   1.403   4.161   3.607 -0.1033 -0.3969  0.6467
  191MOL0     C26246   1.314   4.109   3.703 -0.5434  0.2176  0.1976
  191MOL0     C26247   1.365   4.046   3.809 -0.2322  0.2407 -0.0492
  191MOL0     C26248   1.264   3.978   3.901  0.2515  0.4913 -0.4746
  191MOL0     C26249   1.503   4.054   3.846  0.0981 -0.1728  0.3008
  191MOL0     C26250   1.559   3.997   3.971 -0.0133  0.1252  0.3590
  191MOL0     O26251   1.520   3.882   4.025  0.7169 -0.1535 -0.1500
  191MOL0     C26252   1.567   3.852   4.148  0.6094  0.3178 -0.0574
  191MOL0     C26253   1.658   3.745   4.164 -1.2062 -1.1033 -0.2033
  191MOL0     C26254   1.681   3.700   4.295 -0.3759 -0.6918 -0.0165
  191MOL0     C26255   1.619   3.757   4.407 -1.2030  0.5195  0.1220
  191MOL0     O26256   1.644   3.708   4.536  0.0290  0.3292  0.7200
  191MOL0     C26257   1.696   3.579   4.559 -0.6751 -0.1186 -0.5326
  191MOL0     C26258   1.653   3.537   4.707  0.0131 -0.1533  0.3343
  191MOL0     C26259   1.724   3.409   4.752 -0.2770  0.0101  0.4368
  191MOL0     C26260   1.655   3.361   4.879  0.4981 -0.1082 -0.0720
  191MOL0     C26261   1.717   3.240   4.941  0.4457 -1.0250  0.3144
  191MOL0     C26262   1.828   3.277   5.042 -0.9014  0.3175  0.0254
  191MOL0     C26263   1.786   3.301   5.186 -0.0299 -0.0035 -0.4190
  191MOL0     C26264   1.897   3.328   5.280 -0.2304  0.6132 -0.2274
  191MOL0    Cl26265   1.824   3.362   5.444 -0.3814 -0.1294  0.1200
  191MOL0     C26266   1.538   3.874   4.385  0.0388 -0.2956  0.4236
  191MOL0     C26267   1.504   3.910   4.256  0.3068 -0.2797  0.2464
  191MOL0     O26268   1.641   4.074   4.023 -0.3065  0.9008 -0.2706
  191MOL0     C26269   1.589   4.111   3.753 -0.4529  0.9139 -1.1065
  191MOL0     C26270   1.538   4.160   3.634  0.0877  0.2179  0.4514
  191MOL0     N26271   0.967   3.895   3.502  0.1704 -0.2157 -0.4816
  191MOL0     N26272   0.911   3.825   3.596 -1.0726  0.0634 -0.1354
  191MOL0     C26273   0.523   4.381   3.631 -0.7864 -0.4366  0.7915
  191MOL0     C26274   0.428   4.437   3.543  0.1688  0.9165  0.3726
  191MOL0     C26275   0.243   4.758   3.241  0.1080  0.0612 -0.3007
  191MOL0     C26276   0.176   4.673   3.151  0.6194 -0.5428  0.5226
  191MOL0     C26277   0.105   4.722   3.040 -0.3265  0.3007 -0.2478
  191MOL0     C26278   0.079   4.859   3.026  0.7691 -0.3310  0.2884
  191MOL0     O26279   0.011   4.903   2.911 -0.2276  0.0095 -0.2893
  191MOL0     C26280  -0.074   5.011   2.932 -0.1449 -0.6748 -0.1727
  191MOL0     C26281  -0.189   5.005   2.828 -0.1063  0.8718  0.1473
  191MOL0     C26282  -0.130   4.982   2.692  0.7347 -0.3339 -0.1120
  191MOL0     C26283  -0.232   5.033   2.596 -0.0982 -0.1569  0.5757
  191MOL0     C26284  -0.174   5.022   2.463  0.2719  0.4718 -0.8188
  191MOL0     C26285  -0.107   4.986   2.364 -0.0939 -0.8448  0.4824
  191MOL0     C26286   0.140   4.948   3.113 -0.8502  0.5470 -0.5928
  191MOL0     C26287   0.224   4.894   3.218 -1.5300  0.3166 -0.7895
  191MOL0     C26288   0.311   5.000   3.292 -0.4312  0.5978 -0.6092
  191MOL0     H26289   0.640   4.562   3.304 -1.4888  3.2448  0.7693
  191MOL0     H26290   0.792   4.467   3.450  0.1088  1.2180  0.8184
  191MOL0     H26291   0.660   4.399   3.868  0.6891 -0.5117  2.2354
  191MOL0     H26292   0.782   4.512   3.810  1.0863 -0.9256 -0.8332
  191MOL0     H26293   0.961   4.350   3.866  0.6831 -0.2599  2.7364
  191MOL0     H26294   0.864   4.381   4.014 -0.7995 -3.0117  1.4828
  191MOL0     H26295   0.827   4.163   3.816 -1.2498  1.9457 -0.5389
  191MOL0     H26296   0.917   4.140   3.967 -1.6154 -0.8218 -0.0725
  191MOL0     H26297   0.684   4.194   4.088 -2.0197 -0.4355  0.8868
  191MOL0     H26298   0.607   4.179   3.943  0.3471  2.3108  1.8352
  191MOL0     H26299   0.591   3.962   4.066  0.7763  0.1370  2.9208
  191MOL0     H26300   0.763   3.977   4.106  0.5415 -1.3376 -0.3376
  191MOL0     H26301   0.836   3.926   3.878 -0.6879 -1.2343 -0.5684
  191MOL0     H26302   0.761   3.794   3.956  0.6503 -1.0355 -2.6399
  191MOL0     H26303   0.578   3.962   3.780 -2.1018 -0.9477 -0.8154
  191MOL0     H26304   0.555   3.809   3.856 -0.0826 -1.7044 -1.5202
  191MOL0     H26305   0.749   3.710   3.737 -1.2811 -1.2179  0.3812
  191MOL0     H26306   0.613   3.763   3.623 -0.5707 -0.2408  0.3747
  191MOL0     H26307   0.686   4.053   3.544  0.1637 -0.2879  0.7386
  191MOL0     H26308   0.798   4.160   3.353  0.7240  0.2243 -1.2040
  191MOL0     H26309   0.939   4.080   3.281 -1.1532 -0.9131 -0.0099
  191MOL0     H26310   0.954   4.314   3.411 -2.4716 -0.4744 -1.0641
  191MOL0     H26311   0.959   4.217   3.558  1.0343 -0.2525 -0.3185
  191MOL0     H26312   1.162   4.086   3.458 -0.6415 -0.6906 -1.1902
  191MOL0     H26313   1.145   4.179   3.310  2.4729  3.1342  0.8714
  191MOL0     H26314   1.227   4.385   3.431 -1.1734 -0.4145 -0.1135
  191MOL0     H26315   1.184   4.327   3.580  2.3800  0.2763  0.5445
  191MOL0     H26316   1.212   4.114   3.666  0.3497  1.2384 -2.3834
  191MOL0     H26317   1.185   4.052   3.918 -0.7726 -0.1189 -2.2661
  191MOL0     H26318   1.302   3.969   4.003  0.6297 -3.0151 -0.7862
  191MOL0     H26319   1.232   3.880   3.864 -0.6881  1.9275 -3.8175
  191MOL0     H26320   1.695   3.692   4.077 -3.1048 -0.7777 -1.2666
  191MOL0     H26321   1.753   3.619   4.297  0.5232  0.0832 -0.5021
  191MOL0     H26322   1.661   3.504   4.487  3.9985 -0.7707 -2.4744
  191MOL0     H26323   1.805   3.579   4.550 -0.4580  1.3019  1.3945
  191MOL0     H26324   1.672   3.624   4.770 -1.1478  1.2460 -1.1726
  191MOL0     H26325   1.544   3.522   4.709  0.0991 -1.3868 -1.4564
  191MOL0     H26326   1.831   3.420   4.768 -0.7357  0.0964  4.6725
  191MOL0     H26327   1.699   3.335   4.676 -1.6995 -0.2350  1.0968
  191MOL0     H26328   1.557   3.330   4.841  1.2627 -0.0020 -2.3002
  191MOL0     H26329   1.663   3.444   4.949 -0.9657 -1.9397  2.4306
  191MOL0     H26330   1.638   3.183   4.990 -0.5618  1.0852  1.3091
  191MOL0     H26331   1.756   3.170   4.867  0.6334 -0.0764 -0.5040
  191MOL0     H26332   1.886   3.360   5.000  0.3430 -1.9456 -3.1867
  191MOL0     H26333   1.905   3.199   5.039 -1.6742 -0.4924  0.6086
  191MOL0     H26334   1.741   3.208   5.221 -0.2982  0.1527 -0.3457
  191MOL0     H26335   1.701   3.367   5.207  1.1000  0.6473  2.6686
  191MOL0     H26336   1.948   3.416   5.240 -1.6887  1.8351  0.4722
  191MOL0     H26337   1.970   3.247   5.278 -1.1529 -0.2285 -0.4075
  191MOL0     H26338   1.501   3.912   4.480 -0.6744  2.5205 -0.8905
  191MOL0     H26339   1.431   3.990   4.245  1.6714  0.6897 -2.5213
  191MOL0     H26340   1.693   4.124   3.780 -0.4173 -2.1740  0.7474
  191MOL0     H26341   1.606   4.217   3.571 -0.7029  1.3451  0.5794
  191MOL0     H26342   0.487   4.341   3.725 -0.9172  0.3022  1.0650
  191MOL0     H26343   0.320   4.426   3.552  0.0114 -1.1548 -2.5737
  191MOL0     H26344   0.187   4.565   3.148  1.9839 -0.4664 -2.9593
  191MOL0     H26345   0.070   4.656   2.961  2.3900  0.4235 -1.6600
  191MOL0     H26346  -0.125   5.006   3.028  0.4781 -0.7300  0.1620
  191MOL0     H26347  -0.024   5.108   2.930  1.1650 -1.3174 -0.9868
  191MOL0     H26348  -0.237   5.101   2.850 -2.0166  0.3050 -1.3067
  191MOL0     H26349  -0.262   4.928   2.856  1.9074 -0.2275  2.9067
  191MOL0     H26350  -0.032   5.031   2.684  0.5545 -0.2030 -2.0213
  191MOL0     H26351  -0.109   4.875   2.679  0.6487 -0.5572  1.4617
  191MOL0     H26352  -0.247   5.141   2.607  2.3538  0.2301  0.5440
  191MOL0     H26353  -0.322   4.972   2.588 -2.3205  3.0742 -2.5077
  191MOL0     H26354  -0.048   4.958   2.278 -0.1801 -1.2458  0.5525
  191MOL0     H26355   0.118   5.054   3.113 -0.4125  0.6414 -0.3315
  191MOL0     H26356   0.299   5.013   3.399 -0.5152 -2.5025 -0.1544
  191MOL0     H26357   0.420   4.992   3.278 -0.3444  1.0058 -0.1757
  191MOL0     H26358   0.278   5.101   3.265  0.0628  0.3899 -2.1275
  192MOL0     O26359   0.617   2.273   3.925  0.0334  0.5967  0.3067
  192MOL0     C26360   0.504   2.319   3.929  0.1618 -0.4792 -0.2348
  192MOL0     O26361   0.470   2.445   3.902 -0.5511 -1.0937  0.4666
  192MOL0     C26362   0.567   2.530   3.845  1.0533 -0.2664 -0.3531
  192MOL0     C26363   0.601   2.530   3.708 -0.1886 -0.4151 -0.5438
  192MOL0     C26364   0.709   2.609   3.663 -0.4719  0.8922 -0.5839
  192MOL0     C26365   0.769   2.704   3.750 -0.2575 -0.3653  0.7268
  192MOL0     O26366   0.868   2.788   3.697 -0.0711 -0.0105  0.4049
  192MOL0     C26367   0.867   2.936   3.709  0.3683  0.1895  0.7437
  192MOL0     C26368   0.996   2.987   3.648  0.4710 -0.1618 -0.9178
  192MOL0     C26369   1.111   2.949   3.740 -0.3803 -0.2227 -0.1802
  192MOL0     C26370   1.230   3.030   3.707 -0.2974 -0.9409 -1.0196
  192MOL0     C26371   1.348   2.976   3.786 -0.6355  0.5691 -0.4568
  192MOL0     C26372   1.345   3.039   3.928 -0.0915  0.8797  1.1201
  192MOL0     C26373   1.462   3.012   4.011 -0.5777 -0.7544  0.5197
  192MOL0     C26374   1.488   3.113   4.128 -0.9995  0.1119  0.2112
  192MOL0     N26375   1.589   3.074   4.231 -0.2851 -0.2471  0.2675
  192MOL0     C26376   1.657   2.958   4.233  0.5190  0.4658 -0.8930
  192MOL0     C26377   1.737   2.959   4.343  0.4591  0.0100  0.4122
  192MOL0     C26378   1.828   2.852   4.385 -0.4926 -0.2604  0.1844
  192MOL0     C26379   1.973   2.902   4.361  0.2722 -0.5583 -0.0564
  192MOL0     C26380   2.077   2.808   4.420 -0.3990 -0.3350  0.4032
  192MOL0     C26381   2.093   2.701   4.310  0.4344  0.2044 -0.5312
  192MOL0     O26382   2.140   2.583   4.373 -0.0683  0.0010 -0.2572
  192MOL0     C26383   2.214   2.501   4.294 -1.0840 -0.0844  1.7089
  192MOL0     C26384   2.307   2.532   4.200  0.1644 -0.5193  1.0341
  192MOL0     C26385   2.399   2.442   4.141  0.5062  0.7605 -0.2772
  192MOL0     C26386   2.495   2.493   4.052  0.4501  0.3680 -0.0023
  192MOL0     C26387   2.384   2.299   4.166 -0.1534 -1.8110  1.2086
  192MOL0     C26388   2.463   2.193   4.096 -0.6345  0.5365  0.2231
  192MOL0     O26389   2.394   2.084   4.045 -0.0890 -0.9170 -0.0188
  192MOL0     C26390   2.467   1.976   4.004 -0.3267 -1.1760  1.0396
  192MOL0     C26391   2.492   1.874   4.096  0.9719  0.3984  0.6085
  192MOL0     C26392   2.563   1.751   4.061 -0.3141  0.1402 -0.4048
  192MOL0     C26393   2.622   1.742   3.938  0.0117 -1.1601  1.6233
  192MOL0     O26394   2.704   1.635   3.913  0.2588 -0.3538 -0.1708
  192MOL0     C26395   2.702   1.568   3.784 -0.4128  0.6184  0.8944
  192MOL0     C26396   2.757   1.431   3.800 -0.6355 -0.1393 -0.5147
  192MOL0     C26397   2.906   1.434   3.802 -0.3352 -0.6306 -0.2650
  192MOL0     C26398   2.970   1.416   3.664  0.1010  0.5917  0.4692
  192MOL0     C26399   3.123   1.374   3.679 -0.5506  0.3716 -0.5820
  192MOL0     C26400   3.186   1.340   3.543  0.1202  0.0175  0.2521
  192MOL0     C26401   3.337   1.372   3.532  0.4728 -0.1206 -0.7107
  192MOL0     C26402   3.425   1.287   3.625  0.1809 -0.3504  0.5601
  192MOL0    Cl26403   3.597   1.333   3.579  0.3629 -0.1786 -0.5277
  192MOL0     C26404   2.595   1.847   3.842 -0.0629  0.5233 -0.2236
  192MOL0     C26405   2.506   1.956   3.878  0.4695  0.3913  0.2185
  192MOL0     O26406   2.580   2.192   4.130  0.2170  0.0883  0.8235
  192MOL0     C26407   2.285   2.272   4.262  0.0500  0.1799 -0.2578
  192MOL0     C26408   2.203   2.368   4.323  0.3151  0.7280  0.2646
  192MOL0     N26409   1.728   3.085   4.395  0.4895 -0.3097  0.4830
  192MOL0     N26410   1.636   3.157   4.330  0.0811  0.1720 -0.3114
  192MOL0     C26411   0.726   2.715   3.886 -1.4001  0.0283  0.3323
  192MOL0     C26412   0.630   2.621   3.929  0.4367 -0.2615 -0.1981
  192MOL0     C26413   0.393   2.231   3.967  0.6758  0.0071 -0.9624
  192MOL0     C26414   0.266   2.253   3.912 -0.2094  0.1923 -0.3000
  192MOL0     C26415   0.163   2.159   3.922  0.0956 -0.6073  0.5082
  192MOL0     C26416   0.191   2.040   3.982 -0.2531  0.0183  0.3133
  192MOL0     O26417   0.098   1.943   3.992 -0.0828  0.4272 -0.2577
  192MOL0     C26418  -0.037   1.978   3.952  0.8795  0.3951  0.0589
  192MOL0     C26419  -0.134   1.868   3.994 -0.3464  0.1286 -0.2921
  192MOL0     C26420  -0.121   1.726   3.930 -0.7081  0.5920 -0.4457
  192MOL0     C26421  -0.248   1.638   3.966  1.2012  0.2271 -0.0392
  192MOL0     C26422  -0.373   1.674   3.888 -0.5258 -0.2588  0.2917
  192MOL0     C26423  -0.467   1.696   3.816 -0.2202  0.6510 -0.2278
  192MOL0     C26424   0.310   2.020   4.045  0.9891  0.4356  0.6215
  192MOL0     C26425   0.415   2.112   4.045 -0.0165  0.0507 -0.3401
  192MOL0     C26426   0.539   2.097   4.129 -0.4992  0.1324  0.8360
  192MOL0     H26427   0.541   2.475   3.636 -0.5953 -1.0662  0.2682
  192MOL0     H26428   0.741   2.588   3.561  1.7771 -2.1010  0.5822
  192MOL0     H26429   0.861   2.967   3.813 -0.6678 -0.6672  0.9504
  192MOL0     H26430   0.787   2.981   3.649 -0.7814 -3.6989 -0.9484
  192MOL0     H26431   1.025   2.937   3.555  2.9846  0.2494 -0.4412
  192MOL0     H26432   0.991   3.094   3.626 -0.8482 -0.4679 -2.2346
  192MOL0     H26433   1.086   2.960   3.846  0.0937  0.5611 -0.1482
  192MOL0     H26434   1.133   2.842   3.724 -4.0653 -1.6737  2.9928
  192MOL0     H26435   1.266   3.014   3.605  3.3314  0.8344 -0.2003
  192MOL0     H26436   1.217   3.136   3.729 -1.0859 -1.4001  0.9622
  192MOL0     H26437   1.447   3.008   3.752  1.5053 -3.8787  0.7895
  192MOL0     H26438   1.353   2.866   3.788 -0.5968  0.5385 -1.6297
  192MOL0     H26439   1.336   3.147   3.911 -0.7027  0.9013  1.5585
  192MOL0     H26440   1.258   3.011   3.987 -0.7362 -1.1523 -0.6787
  192MOL0     H26441   1.552   3.019   3.949 -1.0006 -1.9947 -0.2769
  192MOL0     H26442   1.441   2.915   4.056 -2.9779  0.2378  1.7348
  192MOL0     H26443   1.514   3.206   4.078  1.8672 -1.3070 -1.1608
  192MOL0     H26444   1.394   3.135   4.180 -0.4710  0.7889  0.8768
  192MOL0     H26445   1.655   2.871   4.168  0.2443 -1.7575  1.8468
  192MOL0     H26446   1.814   2.769   4.315  1.6662 -0.4844 -0.0566
  192MOL0     H26447   1.806   2.830   4.490 -1.8152  3.3737  0.8076
  192MOL0     H26448   1.990   2.921   4.255  1.9439  1.0813  0.4440
  192MOL0     H26449   1.985   2.998   4.414 -0.5903 -0.2355 -0.4210
  192MOL0     H26450   2.161   2.872   4.448 -1.6034  0.3460  2.7426
  192MOL0     H26451   2.045   2.761   4.513 -3.0801 -1.4172 -0.9349
  192MOL0     H26452   1.997   2.678   4.262 -0.6969  3.5768 -0.1681
  192MOL0     H26453   2.167   2.745   4.242  1.3913 -1.6984 -0.7941
  192MOL0     H26454   2.313   2.633   4.162 -2.4724 -1.7420 -3.2283
  192MOL0     H26455   2.463   2.451   3.956 -0.9687 -1.4544  1.1941
  192MOL0     H26456   2.587   2.449   4.091  1.3869  1.5893 -0.7584
  192MOL0     H26457   2.507   2.601   4.046 -0.7574  0.4701 -1.0436
  192MOL0     H26458   2.456   1.902   4.194  0.1546  2.5868 -0.2502
  192MOL0     H26459   2.577   1.673   4.136 -1.5479  0.0903 -0.2090
  192MOL0     H26460   2.595   1.563   3.762 -1.4156  1.2449  4.8561
  192MOL0     H26461   2.750   1.618   3.699 -1.5834  0.1092 -0.0892
  192MOL0     H26462   2.713   1.387   3.890  1.0435 -0.9582 -0.0562
  192MOL0     H26463   2.732   1.378   3.708 -1.3393 -2.3504  0.8981
  192MOL0     H26464   2.935   1.353   3.870  0.0476 -1.8572 -1.8104
  192MOL0     H26465   2.953   1.524   3.841  2.6598 -0.1606 -4.2766
  192MOL0     H26466   2.969   1.511   3.611 -2.0848  1.7543  2.4057
  192MOL0     H26467   2.914   1.351   3.597 -0.2717  4.1696 -3.0006
  192MOL0     H26468   3.166   1.466   3.720 -0.0220  0.2407 -0.8396
  192MOL0     H26469   3.128   1.298   3.757 -2.2902  2.0612  1.2994
  192MOL0     H26470   3.138   1.396   3.462  2.7845 -0.4524 -1.7979
  192MOL0     H26471   3.165   1.236   3.519  1.5266  0.3986 -3.1641
  192MOL0     H26472   3.344   1.478   3.558 -0.0615 -0.0863 -0.6971
  192MOL0     H26473   3.367   1.354   3.429 -0.3232  1.0004 -1.1605
  192MOL0     H26474   3.403   1.180   3.617 -1.5001 -0.1027  1.6433
  192MOL0     H26475   3.405   1.324   3.726 -0.9318  0.7683 -0.0447
  192MOL0     H26476   2.638   1.837   3.743  1.2047  0.2563  0.3371
  192MOL0     H26477   2.496   2.033   3.803 -1.0327  0.8742  0.8796
  192MOL0     H26478   2.260   2.172   4.294  0.6608  0.5806  1.5936
  192MOL0     H26479   2.132   2.339   4.400  0.3776  0.2820  0.1588
  192MOL0     H26480   0.772   2.785   3.955  2.5644 -1.1806 -0.8413
  192MOL0     H26481   0.609   2.629   4.035  0.2465 -0.6454 -0.2067
  192MOL0     H26482   0.238   2.336   3.848 -0.8318  1.9745  2.1561
  192MOL0     H26483   0.077   2.178   3.858  1.0759  1.6723 -0.2545
  192MOL0     H26484  -0.062   2.074   3.999  0.1954 -0.2648  1.0893
  192MOL0     H26485  -0.033   1.984   3.843  1.5439  3.4037  0.1595
  192MOL0     H26486  -0.232   1.907   3.964  1.0805  1.8916 -2.9829
  192MOL0     H26487  -0.130   1.860   4.103 -0.4553  0.7216 -0.2392
  192MOL0     H26488  -0.101   1.729   3.823  1.0619  3.6030 -0.1334
  192MOL0     H26489  -0.032   1.679   3.973 -1.0031  0.5519  0.1271
  192MOL0     H26490  -0.268   1.647   4.073  1.0664  0.3713 -0.0768
  192MOL0     H26491  -0.228   1.533   3.947  0.5052  0.2127 -0.7383
  192MOL0     H26492  -0.547   1.698   3.745  1.1420  0.2531 -1.8264
  192MOL0     H26493   0.325   1.927   4.099 -1.9877 -0.2069  0.5003
  192MOL0     H26494   0.532   2.005   4.188  1.1023 -2.0466 -2.0830
  192MOL0     H26495   0.626   2.094   4.062 -1.5744  1.0634 -0.6778
  192MOL0     H26496   0.567   2.187   4.185  3.0240  0.5917 -1.3081
  193MOL0     O26497   4.013   4.261   8.353  0.1192 -0.2396  0.1701
  193MOL0     C26498   4.099   4.315   8.279 -0.0487  0.0007  0.1419
  193MOL0     O26499   4.237   4.302   8.284  0.3904  0.2747 -0.7916
  193MOL0     C26500   4.264   4.215   8.389 -0.5306 -0.8757  0.3257
  193MOL0     C26501   4.315   4.091   8.368  0.1804 -0.4250 -0.5183
  193MOL0     C26502   4.334   3.998   8.478  0.5916 -0.1942  0.6811
  193MOL0     C26503   4.305   4.030   8.615 -0.1912 -0.1355  0.4735
  193MOL0     O26504   4.313   3.958   8.730  0.1598 -0.4959 -0.6993
  193MOL0     C26505   4.324   3.821   8.714 -0.1935 -1.0133  0.1911
  193MOL0     C26506   4.321   3.754   8.851 -0.4131  0.1583 -0.3448
  193MOL0     C26507   4.208   3.806   8.946  0.1718  0.6998 -0.7755
  193MOL0     C26508   4.067   3.798   8.893  0.1206  0.5595  0.1550
  193MOL0     C26509   3.978   3.811   9.020 -0.2128 -0.2746  0.6153
  193MOL0     C26510   3.829   3.801   8.988 -0.4715  0.2237 -0.5103
  193MOL0     C26511   3.766   3.873   9.103  0.6428  0.0709 -0.2426
  193MOL0     C26512   3.615   3.861   9.112  0.3208 -0.4529  0.3599
  193MOL0     N26513   3.550   3.953   9.205 -0.6095 -0.0394 -0.6740
  193MOL0     C26514   3.525   4.084   9.193  0.3395  0.8461  0.8479
  193MOL0     C26515   3.463   4.122   9.308 -1.0452 -1.3900 -0.5310
  193MOL0     C26516   3.428   4.264   9.340 -0.2719 -0.8012 -0.0398
  193MOL0     C26517   3.480   4.307   9.473 -1.2575  1.1260 -0.2187
  193MOL0     C26518   3.402   4.254   9.596  0.5691  1.1215 -0.5490
  193MOL0     C26519   3.261   4.315   9.604  0.2288 -0.3205  0.3805
  193MOL0     O26520   3.201   4.281   9.732 -0.2330 -0.6205  0.1847
  193MOL0     C26521   3.078   4.324   9.767  0.2136 -0.0419 -0.2869
  193MOL0     C26522   2.994   4.404   9.694 -0.1768 -0.5014  0.0846
  193MOL0     C26523   2.867   4.437   9.736 -0.0512  0.3386  0.9201
  193MOL0     C26524   2.775   4.515   9.649  0.1541 -0.1775 -0.1231
  193MOL0     C26525   2.824   4.398   9.870 -0.4006  0.1308 -0.5234
  193MOL0     C26526   2.690   4.433   9.933 -0.9981  0.1113  0.0884
  193MOL0     O26527   2.655   4.362  10.048 -0.0392 -0.3423 -0.5185
  193MOL0     C26528   2.556   4.415  10.127 -0.3841  0.2684 -0.3189
  193MOL0     C26529   2.461   4.319  10.172  0.1877  0.2911  0.2672
  193MOL0     C26530   2.353   4.354  10.254 -0.3582  0.4767 -0.2804
  193MOL0     C26531   2.336   4.482  10.293 -0.1159  0.2873 -0.6448
  193MOL0     O26532   2.223   4.513  10.361 -0.5614  0.7485  0.8565
  193MOL0     C26533   2.118   4.588  10.291 -0.2001  0.9922  0.2903
  193MOL0     C26534   2.108   4.723  10.353  0.1015 -0.1309 -0.2127
  193MOL0     C26535   1.969   4.783  10.330 -0.2459  0.2952  0.3732
  193MOL0     C26536   1.933   4.780  10.187 -0.1940 -0.5863 -0.1715
  193MOL0     C26537   1.812   4.863  10.146 -0.1320  0.8305 -0.5599
  193MOL0     C26538   1.785   4.858   9.992  0.4840 -0.3763 -0.2357
  193MOL0     C26539   1.664   4.949   9.957 -0.6250 -0.0034 -0.1294
  193MOL0     C26540   1.704   5.046   9.840  0.3884  0.6846 -0.0415
  193MOL0    Cl26541   1.562   5.137   9.788 -0.0252 -0.5344 -0.1520
  193MOL0     C26542   2.422   4.581  10.248  0.4838  0.1353 -0.2033
  193MOL0     C26543   2.538   4.549  10.164 -0.2578 -0.1883 -0.8919
  193MOL0     O26544   2.633   4.531   9.886  0.7227  0.2801 -0.4255
  193MOL0     C26545   2.914   4.311   9.939 -0.3993  0.2401 -0.2753
  193MOL0     C26546   3.034   4.271   9.891 -0.5135  0.3810 -0.6575
  193MOL0     N26547   3.468   4.011   9.398  0.3504 -0.5042 -0.4510
  193MOL0     N26548   3.513   3.912   9.328 -0.7295  0.6371 -0.0435
  193MOL0     C26549   4.253   4.159   8.625  0.2565 -0.1349  0.0756
  193MOL0     C26550   4.236   4.249   8.519 -0.1235  0.6103  0.7662
  193MOL0     C26551   4.047   4.426   8.189 -0.4648  0.6210  0.3385
  193MOL0     C26552   3.918   4.419   8.128  0.1505  1.1376 -0.1259
  193MOL0     C26553   3.873   4.525   8.056  0.2881  0.0705  0.0640
  193MOL0     C26554   3.938   4.652   8.047  0.1600 -1.2282 -0.4139
  193MOL0     O26555   3.864   4.764   8.003  0.5485  0.5286  0.1148
  193MOL0     C26556   3.927   4.890   8.002 -0.5420  1.5051  1.1042
  193MOL0     C26557   3.819   5.004   7.989  0.7548 -0.5517  0.0482
  193MOL0     C26558   3.867   5.150   8.021  0.1308  0.1931 -0.2443
  193MOL0     C26559   3.765   5.263   7.989 -0.1429  0.4153  0.1623
  193MOL0     C26560   3.830   5.389   7.998  0.3464 -0.8863 -0.7682
  193MOL0     C26561   3.898   5.483   8.017  0.1234 -0.3427  0.1785
  193MOL0     C26562   4.067   4.656   8.103 -0.6266 -0.4763 -0.3921
  193MOL0     C26563   4.125   4.549   8.171  0.6377  0.6025 -0.2135
  193MOL0     C26564   4.270   4.562   8.211  0.5655 -0.4104  0.7557
  193MOL0     H26565   4.333   4.066   8.264  0.9544  2.7697 -1.2547
  193MOL0     H26566   4.384   3.905   8.451  0.6174  0.2860 -1.0450
  193MOL0     H26567   4.425   3.802   8.677  0.6310 -3.5869  3.2688
  193MOL0     H26568   4.243   3.790   8.648 -0.8032  3.6397 -1.6134
  193MOL0     H26569   4.314   3.645   8.841  2.2887  0.0781 -2.4471
  193MOL0     H26570   4.418   3.769   8.898 -1.5389  0.2596  2.0729
  193MOL0     H26571   4.222   3.743   9.034  2.1534 -1.5588 -2.5704
  193MOL0     H26572   4.237   3.908   8.974 -1.6728  1.7973 -2.5284
  193MOL0     H26573   4.056   3.884   8.826  0.8507  1.3610  1.0106
  193MOL0     H26574   4.044   3.701   8.850  0.6433 -0.3314  1.7897
  193MOL0     H26575   4.000   3.910   9.062 -4.3848  1.0410  0.2165
  193MOL0     H26576   3.994   3.737   9.099 -1.4775 -0.4230  0.7525
  193MOL0     H26577   3.804   3.853   8.895  2.2438  1.9479 -0.3979
  193MOL0     H26578   3.807   3.695   8.977 -0.3120 -0.3625  3.4429
  193MOL0     H26579   3.788   3.979   9.090  0.8227 -0.1000 -1.4855
  193MOL0     H26580   3.809   3.850   9.201  0.0511 -0.0594 -0.0107
  193MOL0     H26581   3.566   3.882   9.017 -1.9780 -1.1219  1.3256
  193MOL0     H26582   3.581   3.759   9.135 -0.6965 -0.4000 -0.8683
  193MOL0     H26583   3.545   4.157   9.115  1.5336  0.8058  1.1000
  193MOL0     H26584   3.324   4.290   9.321 -0.2910 -2.3440 -2.5880
  193MOL0     H26585   3.485   4.336   9.282 -1.5945  1.9241  1.8462
  193MOL0     H26586   3.581   4.265   9.477 -2.4707 -2.1037 -0.6961
  193MOL0     H26587   3.485   4.416   9.481  2.5670  0.9664  2.5576
  193MOL0     H26588   3.394   4.145   9.588 -1.1428  1.1182  0.5848
  193MOL0     H26589   3.464   4.287   9.679  2.7006  1.0800 -2.0551
  193MOL0     H26590   3.262   4.424   9.590  0.3356 -0.6741 -3.1357
  193MOL0     H26591   3.201   4.280   9.520  2.3345  0.3118 -1.4711
  193MOL0     H26592   3.030   4.440   9.598 -0.2144 -2.8648 -0.8861
  193MOL0     H26593   2.773   4.619   9.683  0.9156 -0.3531  0.4799
  193MOL0     H26594   2.673   4.477   9.663  0.6564 -0.3088  5.4323
  193MOL0     H26595   2.796   4.512   9.541 -0.4053 -0.4409 -0.2282
  193MOL0     H26596   2.462   4.218  10.132 -0.7496  0.5275 -0.4071
  193MOL0     H26597   2.298   4.271  10.295 -3.0218  1.2657 -1.9901
  193MOL0     H26598   2.123   4.585  10.182 -1.3172  0.7452  0.2332
  193MOL0     H26599   2.026   4.530  10.300  0.7085 -0.7961 -1.1919
  193MOL0     H26600   2.120   4.712  10.461 -0.3224 -1.0427 -0.2442
  193MOL0     H26601   2.191   4.790  10.329 -0.5507  0.1279 -1.9034
  193MOL0     H26602   1.970   4.890  10.351 -0.3737  1.0088 -2.7671
  193MOL0     H26603   1.888   4.736  10.387 -0.4197 -2.0267 -1.6139
  193MOL0     H26604   1.912   4.681  10.145 -2.9752 -0.2692  0.2580
  193MOL0     H26605   2.008   4.837  10.132 -2.7751  3.2257 -0.1177
  193MOL0     H26606   1.719   4.822  10.186  0.0218 -2.4535 -3.1135
  193MOL0     H26607   1.815   4.966  10.182 -1.0077  0.9783 -0.8735
  193MOL0     H26608   1.780   4.754   9.957 -3.4545 -0.6090  0.6202
  193MOL0     H26609   1.874   4.899   9.944 -0.5851  1.7788 -0.4795
  193MOL0     H26610   1.624   4.998  10.046 -1.5166  1.0051 -1.0588
  193MOL0     H26611   1.578   4.894   9.918 -0.4030 -2.2801  2.3121
  193MOL0     H26612   1.745   4.987   9.758 -1.4462 -1.2778  0.3808
  193MOL0     H26613   1.784   5.113   9.875  0.9301 -0.0510  0.1404
  193MOL0     H26614   2.397   4.683  10.276  1.0888  0.5443 -1.1131
  193MOL0     H26615   2.617   4.623  10.157 -0.3604  0.3996  2.2933
  193MOL0     H26616   2.879   4.268  10.032  1.1039 -0.9658 -0.2448
  193MOL0     H26617   3.093   4.204   9.953 -2.9123 -2.4702 -1.2418
  193MOL0     H26618   4.217   4.185   8.723  2.4356  1.7222  0.4507
  193MOL0     H26619   4.189   4.343   8.546 -0.5159  0.2280  1.4432
  193MOL0     H26620   3.867   4.324   8.133 -0.6908  1.5065 -1.1269
  193MOL0     H26621   3.776   4.527   8.008 -2.0338  1.0366  4.3561
  193MOL0     H26622   3.970   4.903   8.101  3.1364  3.7407 -0.5584
  193MOL0     H26623   4.002   4.885   7.921 -2.1854 -1.9842 -0.4083
  193MOL0     H26624   3.729   4.972   8.043  1.0020 -3.2625 -0.9637
  193MOL0     H26625   3.791   5.012   7.884  0.5121 -1.7038  0.0065
  193MOL0     H26626   3.908   5.164   8.121  1.0611  2.6684 -0.8947
  193MOL0     H26627   3.956   5.177   7.962 -0.6107  0.0392 -1.4781
  193MOL0     H26628   3.685   5.247   8.062 -1.0804  1.0200 -0.7087
  193MOL0     H26629   3.719   5.248   7.890  1.6408  3.6899 -1.3263
  193MOL0     H26630   3.963   5.562   8.050  2.0295 -1.2438 -1.2695
  193MOL0     H26631   4.124   4.749   8.101 -0.8501 -0.3001  0.8362
  193MOL0     H26632   4.284   4.556   8.320  0.0950  1.1351  0.9355
  193MOL0     H26633   4.325   4.482   8.160 -0.6222 -0.1530 -0.9868
  193MOL0     H26634   4.305   4.661   8.180 -1.3974 -0.5294 -2.2160
  194MOL0     O26635   1.726  10.714   3.781 -0.3413 -0.3382 -0.6885
  194MOL0     C26636   1.663  10.610   3.789  0.0773  0.5233  0.6233
  194MOL0     O26637   1.679  10.504   3.714  0.3009  0.1191 -0.6585
  194MOL0     C26638   1.725  10.525   3.585 -0.5885  0.0171  0.4339
  194MOL0     C26639   1.679  10.626   3.492 -0.1686  1.0528 -0.4539
  194MOL0     C26640   1.743  10.644   3.368 -0.2427  0.8667  0.6434
  194MOL0     C26641   1.832  10.545   3.325 -0.5994 -0.5538 -0.7969
  194MOL0     O26642   1.888  10.563   3.202  0.3609  0.5868  0.0248
  194MOL0     C26643   2.007  10.654   3.214  0.3626  0.5542 -0.0774
  194MOL0     C26644   2.106  10.641   3.095 -0.4882  0.7167 -0.2772
  194MOL0     C26645   2.162  10.501   3.080 -0.1107  0.1149  0.7967
  194MOL0     C26646   2.253  10.482   2.958  1.0611 -0.2951 -0.1697
  194MOL0     C26647   2.311  10.337   2.949  0.6689 -0.8453  0.2765
  194MOL0     C26648   2.409  10.310   2.843  0.1217  0.3837  0.3355
  194MOL0     C26649   2.532  10.400   2.855 -1.4852 -0.3437  0.5062
  194MOL0     C26650   2.652  10.335   2.781 -0.3983 -0.1588  0.1689
  194MOL0     N26651   2.766  10.434   2.774  0.0797 -0.6098  0.5044
  194MOL0     C26652   2.877  10.419   2.690  0.0250 -1.0521  0.3565
  194MOL0     C26653   2.962  10.521   2.730  0.2602 -0.0039  0.1162
  194MOL0     C26654   3.094  10.554   2.691 -0.0015  0.4789 -0.6238
  194MOL0     C26655   3.132  10.507   2.556 -0.9412  0.0099  0.1078
  194MOL0     C26656   3.177  10.361   2.560  0.2806  0.7430 -0.2210
  194MOL0     C26657   3.325  10.347   2.564 -0.0059 -0.1520  0.3154
  194MOL0     O26658   3.350  10.208   2.528 -0.2368 -0.2068 -0.2729
  194MOL0     C26659   3.484  10.174   2.514 -0.9902 -0.8708 -0.8094
  194MOL0     C26660   3.517  10.042   2.470 -0.1774 -0.2102 -0.0152
  194MOL0     C26661   3.643   9.989   2.445  1.0837  0.5192 -0.4457
  194MOL0     C26662   3.655   9.861   2.372 -0.3369 -0.1079  0.7172
  194MOL0     C26663   3.749  10.081   2.454 -0.8269  0.1183 -0.5897
  194MOL0     C26664   3.892  10.047   2.427  0.1566  0.4910 -0.7343
  194MOL0     O26665   3.982  10.131   2.490  0.3422  0.2209 -0.1956
  194MOL0     C26666   4.120  10.119   2.456 -0.2888 -0.6582 -1.0686
  194MOL0     C26667   4.191  10.030   2.527  0.3335  1.1618 -0.5826
  194MOL0     C26668   4.332  10.025   2.527  0.7099  0.2068 -0.2660
  194MOL0     C26669   4.403  10.110   2.443 -0.2986  0.3937  0.1786
  194MOL0     O26670   4.542  10.094   2.432 -0.0027 -0.0850 -0.2110
  194MOL0     C26671   4.616  10.145   2.544 -0.4052 -0.7161  0.0860
  194MOL0     C26672   4.773  10.176   2.510  0.6884  1.0657  1.2098
  194MOL0     C26673   4.783  10.310   2.445  0.2232 -0.7651  0.2397
  194MOL0     C26674   4.935  10.336   2.415 -0.5598 -1.1726  0.2159
  194MOL0     C26675   5.021  10.337   2.543  0.0618  0.6859  0.2562
  194MOL0     C26676   5.177  10.341   2.525  0.2245 -0.0467 -0.0276
  194MOL0     C26677   5.246  10.204   2.500  0.6992 -0.1184 -0.8516
  194MOL0     C26678   5.389  10.219   2.486  0.1842 -1.1627  0.0397
  194MOL0    Cl26679   5.463  10.061   2.506 -0.6364 -0.1211  0.0117
  194MOL0     C26680   4.329  10.208   2.372  0.1741 -0.7110 -0.8099
  194MOL0     C26681   4.192  10.214   2.380  1.2318  0.0838 -0.5020
  194MOL0     O26682   3.932   9.961   2.341  0.5129 -0.7211  0.3151
  194MOL0     C26683   3.724  10.211   2.506 -0.3352 -0.8172 -0.2068
  194MOL0     C26684   3.594  10.265   2.529 -0.0054 -0.2954  0.0832
  194MOL0     N26685   2.898  10.584   2.834 -0.0926 -0.2260 -0.5829
  194MOL0     N26686   2.774  10.547   2.851  0.1423 -1.2688 -0.4415
  194MOL0     C26687   1.861  10.436   3.413 -0.1608  0.9015  1.3017
  194MOL0     C26688   1.814  10.440   3.538 -0.4448  0.0241  0.5615
  194MOL0     C26689   1.564  10.582   3.907 -0.0835 -0.6534 -0.6069
  194MOL0     C26690   1.533  10.452   3.946  0.1886 -1.0705 -0.0009
  194MOL0     C26691   1.448  10.429   4.053  0.2882  0.0754 -0.5716
  194MOL0     C26692   1.402  10.531   4.131  0.9636 -0.2598 -0.2694
  194MOL0     O26693   1.331  10.510   4.251 -0.0252 -0.3461 -1.0933
  194MOL0     C26694   1.183  10.487   4.239  0.1099  0.5656 -1.5224
  194MOL0     C26695   1.113  10.604   4.165 -0.6479  0.0825 -0.2513
  194MOL0     C26696   0.955  10.592   4.158  0.1772  0.8908  0.3684
  194MOL0     C26697   0.882  10.595   4.301  0.0447 -0.4610 -0.1688
  194MOL0     C26698   0.736  10.629   4.298  0.6272 -0.4940  1.1695
  194MOL0     C26699   0.618  10.665   4.290  0.4968  0.0004 -0.5265
  194MOL0     C26700   1.425  10.663   4.089  0.2108  0.1062  0.4872
  194MOL0     C26701   1.505  10.697   3.973 -0.0285  0.3072  0.1233
  194MOL0     C26702   1.521  10.843   3.929  0.4528 -0.3902  0.3232
  194MOL0     H26703   1.596  10.688   3.526 -0.5964  0.0602  0.3585
  194MOL0     H26704   1.711  10.733   3.315  1.3220 -0.0222 -1.9946
  194MOL0     H26705   2.053  10.635   3.311 -1.8142  1.5602  1.2353
  194MOL0     H26706   1.971  10.757   3.208 -0.0439  0.3357 -3.2219
  194MOL0     H26707   2.058  10.680   3.004  0.1942  1.8757 -0.1610
  194MOL0     H26708   2.192  10.705   3.117 -0.8805  0.8233  1.0206
  194MOL0     H26709   2.217  10.482   3.173  0.7802  1.3662  0.5563
  194MOL0     H26710   2.079  10.430   3.078 -1.3026  1.4796 -0.8351
  194MOL0     H26711   2.192  10.511   2.872 -2.3444 -1.3211  1.7007
  194MOL0     H26712   2.333  10.556   2.969 -0.8940  1.6876  1.4712
  194MOL0     H26713   2.215  10.285   2.943 -1.0869  2.3304 -1.5378
  194MOL0     H26714   2.351  10.299   3.044  1.2765 -1.3491 -0.1759
  194MOL0     H26715   2.449  10.208   2.844  0.6231  0.5382 -1.2129
  194MOL0     H26716   2.353  10.306   2.749  1.5687 -1.9413 -0.5301
  194MOL0     H26717   2.561  10.413   2.959  1.9728 -0.6599 -0.2892
  194MOL0     H26718   2.515  10.499   2.812 -0.8247  0.1267  1.2999
  194MOL0     H26719   2.679  10.248   2.842 -1.2036  0.6732  1.7682
  194MOL0     H26720   2.622  10.302   2.681 -2.4339 -1.2856  1.0731
  194MOL0     H26721   2.896  10.340   2.617 -0.7849  0.0091 -1.0551
  194MOL0     H26722   3.164  10.529   2.771  1.3980 -1.0116 -2.2175
  194MOL0     H26723   3.084  10.663   2.682 -1.6418  0.1906 -3.2998
  194MOL0     H26724   3.039  10.510   2.498 -1.0417  0.3917  0.2843
  194MOL0     H26725   3.212  10.569   2.513  0.3792 -0.5347  1.6608
  194MOL0     H26726   3.130  10.315   2.648 -0.4231 -2.5786 -2.1658
  194MOL0     H26727   3.147  10.294   2.479  0.7911 -0.5048  0.5885
  194MOL0     H26728   3.359  10.405   2.478  0.6889  0.8319  1.2280
  194MOL0     H26729   3.360  10.391   2.658 -2.4443 -0.9432  1.6726
  194MOL0     H26730   3.433   9.978   2.445 -1.4366  1.3509  0.0321
  194MOL0     H26731   3.738   9.798   2.406  0.5754 -1.3031 -3.1547
  194MOL0     H26732   3.693   9.883   2.271 -0.3703 -1.3005  0.4290
  194MOL0     H26733   3.559   9.809   2.365 -0.8995  1.1104 -1.3535
  194MOL0     H26734   4.124   9.951   2.560  2.2777 -1.4248 -2.4745
  194MOL0     H26735   4.391   9.953   2.583  1.6453  3.2700  3.1134
  194MOL0     H26736   4.579  10.242   2.578 -0.4839 -0.2517 -1.2644
  194MOL0     H26737   4.616  10.077   2.629 -0.4959 -1.6089 -0.6170
  194MOL0     H26738   4.826  10.176   2.606  2.0109 -0.8254  0.5363
  194MOL0     H26739   4.805  10.097   2.441 -4.2174 -0.1172 -0.1193
  194MOL0     H26740   4.746  10.387   2.513  0.3724  1.3425 -1.9176
  194MOL0     H26741   4.724  10.312   2.353  1.7545  0.1684 -0.7733
  194MOL0     H26742   4.953  10.429   2.361  1.8169 -0.5091  1.9894
  194MOL0     H26743   4.975  10.264   2.344 -0.0260 -0.6015 -0.0660
  194MOL0     H26744   4.990  10.416   2.611  3.8802  0.4374  2.6204
  194MOL0     H26745   5.000  10.243   2.595 -0.0955  0.7674  0.3388
  194MOL0     H26746   5.213  10.375   2.623  2.1872  1.0493 -1.0837
  194MOL0     H26747   5.202  10.412   2.446 -2.1361  0.7466 -0.1466
  194MOL0     H26748   5.210  10.167   2.403  0.8905 -2.0615 -0.2377
  194MOL0     H26749   5.219  10.127   2.573  3.6444 -2.2050 -1.7674
  194MOL0     H26750   5.425  10.286   2.565 -0.7250 -0.1833 -0.3543
  194MOL0     H26751   5.414  10.268   2.392 -0.1825 -0.1329  0.4702
  194MOL0     H26752   4.378  10.281   2.309  2.5264 -2.5544 -1.2590
  194MOL0     H26753   4.129  10.285   2.329  0.9683  1.2364  1.3149
  194MOL0     H26754   3.804  10.284   2.511  0.2833 -1.4397 -0.7877
  194MOL0     H26755   3.576  10.368   2.556  4.1066 -0.0098  2.6286
  194MOL0     H26756   1.936  10.362   3.386  0.4688  1.1754  2.2503
  194MOL0     H26757   1.846  10.367   3.612  0.7211  0.3196  0.3613
  194MOL0     H26758   1.564  10.364   3.889  2.2340 -0.9190  0.7925
  194MOL0     H26759   1.444  10.325   4.084  3.6865  0.4767  1.7304
  194MOL0     H26760   1.165  10.397   4.180  1.6075  1.8771 -4.1790
  194MOL0     H26761   1.137  10.483   4.338  0.6608  0.9586 -1.2423
  194MOL0     H26762   1.145  10.606   4.060  1.8676  2.8887  0.4170
  194MOL0     H26763   1.142  10.698   4.214  4.3067 -0.7062 -1.1916
  194MOL0     H26764   0.913  10.666   4.089  1.4756 -1.6652 -3.4962
  194MOL0     H26765   0.940  10.496   4.107  1.4131  0.2611  1.1377
  194MOL0     H26766   0.916  10.670   4.373  0.2613 -1.4356  0.7656
  194MOL0     H26767   0.895  10.491   4.333 -1.9333 -1.0473 -1.1454
  194MOL0     H26768   0.518  10.705   4.295  1.0775  1.3896  0.9167
  194MOL0     H26769   1.394  10.748   4.148  1.4378  0.2163  1.0220
  194MOL0     H26770   1.439  10.913   3.946  1.9642  1.3130  0.9120
  194MOL0     H26771   1.616  10.882   3.966  1.1689 -0.1314 -1.6716
  194MOL0     H26772   1.526  10.851   3.820  2.2330 -2.3417  0.1829
  195MOL0     O26773   9.304   5.126   9.219  0.1589 -0.1470 -0.3810
  195MOL0     C26774   9.216   5.052   9.250  0.2210 -0.1368  0.5910
  195MOL0     O26775   9.147   4.987   9.159  0.0585 -0.0787  0.7654
  195MOL0     C26776   9.171   4.996   9.024 -1.2414  1.1088 -0.2115
  195MOL0     C26777   9.166   4.878   8.952  0.3745  0.0715  0.0928
  195MOL0     C26778   9.169   4.865   8.808  0.4281  0.4823 -0.2230
  195MOL0     C26779   9.176   4.984   8.742  0.3694 -0.4045 -0.5106
  195MOL0     O26780   9.185   4.999   8.604  0.0682  0.5883  0.2067
  195MOL0     C26781   9.230   4.885   8.528 -0.2647  0.9876 -0.0087
  195MOL0     C26782   9.176   4.915   8.394  0.1526  0.5637 -0.0442
  195MOL0     C26783   9.025   4.934   8.387 -0.7719 -0.5556  0.3302
  195MOL0     C26784   8.967   4.939   8.245  0.5392  0.4858 -0.2858
  195MOL0     C26785   8.930   4.803   8.185 -0.3727  0.8103  0.4628
  195MOL0     C26786   9.060   4.736   8.126 -0.5501 -0.7686 -0.1126
  195MOL0     C26787   9.153   4.829   8.039  0.3633  0.6985 -0.7363
  195MOL0     C26788   9.250   4.740   7.968  0.0303  0.0213  0.3480
  195MOL0     N26789   9.318   4.813   7.867 -0.3130  0.7953  1.1187
  195MOL0     C26790   9.433   4.776   7.814  0.0769  0.4713 -0.1398
  195MOL0     C26791   9.461   4.869   7.721  0.6281  0.1351  0.0199
  195MOL0     C26792   9.574   4.879   7.623 -0.2293  0.1182 -0.3357
  195MOL0     C26793   9.670   4.985   7.672  1.4348  0.5999  0.1381
  195MOL0     C26794   9.770   4.949   7.783  0.2557  0.3923 -1.6776
  195MOL0     C26795   9.848   5.067   7.828 -0.2663 -0.5510  0.7283
  195MOL0     O26796   9.981   5.028   7.867  0.8988 -0.8944  0.2899
  195MOL0     C26797  10.067   5.125   7.910 -0.4998  0.9127  0.0144
  195MOL0     C26798  10.182   5.087   7.977 -1.0697  1.0359  0.1000
  195MOL0     C26799  10.275   5.181   8.012 -0.8764 -0.0818  0.8787
  195MOL0     C26800  10.397   5.135   8.087  0.3333 -0.7897 -0.2660
  195MOL0     C26801  10.253   5.319   7.994 -0.0729  0.0457  0.2764
  195MOL0     C26802  10.338   5.426   8.041 -0.0502 -0.6694  0.0441
  195MOL0     O26803  10.474   5.413   8.011  0.6274  0.4219  0.9115
  195MOL0     C26804  10.570   5.499   8.049  0.2542  0.7626  0.2240
  195MOL0     C26805  10.566   5.605   8.139 -0.3940  0.4353  0.5052
  195MOL0     C26806  10.679   5.680   8.174  0.8416  0.2568 -0.0620
  195MOL0     C26807  10.807   5.646   8.121 -0.6002  0.7978  0.2152
  195MOL0     O26808  10.917   5.727   8.165  0.1374  0.2584  0.1850
  195MOL0     C26809  11.042   5.706   8.097 -0.4015 -0.2126  0.6460
  195MOL0     C26810  11.113   5.583   8.152  0.1762 -0.2152 -0.5431
  195MOL0     C26811  11.196   5.641   8.270  0.0346  0.3839  0.2750
  195MOL0     C26812  11.264   5.533   8.353 -0.2757  0.0110 -0.7156
  195MOL0     C26813  11.395   5.576   8.426  0.2975  0.7621  0.6489
  195MOL0     C26814  11.477   5.461   8.484 -0.6343 -0.1050  0.0413
  195MOL0     C26815  11.613   5.501   8.553  0.0074 -0.5253 -0.1358
  195MOL0     C26816  11.609   5.628   8.653  0.8268 -0.0280  0.0473
  195MOL0    Cl26817  11.527   5.581   8.797 -0.2332 -0.1376  0.3834
  195MOL0     C26818  10.811   5.542   8.026 -0.7828 -0.0993 -0.3971
  195MOL0     C26819  10.693   5.475   7.991 -0.0264 -0.1661 -0.3472
  195MOL0     O26820  10.290   5.525   8.096  0.0029 -0.4156 -0.1612
  195MOL0     C26821  10.140   5.353   7.932 -0.0721  0.2418 -0.6149
  195MOL0     C26822  10.035   5.262   7.901 -0.8844 -0.6087 -0.1995
  195MOL0     N26823   9.350   4.957   7.710  0.3891  0.4381  0.0770
  195MOL0     N26824   9.277   4.929   7.806 -0.0888  0.2107  0.5977
  195MOL0     C26825   9.191   5.110   8.811 -0.5904  0.0015 -0.1168
  195MOL0     C26826   9.185   5.118   8.950  0.5552 -0.0973 -1.1832
  195MOL0     C26827   9.185   5.024   9.389  0.7464  0.0360  0.7059
  195MOL0     C26828   9.086   4.923   9.411  1.0535 -0.9031  0.0053
  195MOL0     C26829   9.038   4.892   9.538  0.8128 -1.1330  0.9457
  195MOL0     C26830   9.088   4.961   9.649 -0.3614 -0.6628 -0.1770
  195MOL0     O26831   9.048   4.943   9.781 -0.6070  0.1472 -0.2418
  195MOL0     C26832   8.918   4.888   9.796  0.3562  0.1099  0.3236
  195MOL0     C26833   8.881   4.888   9.944 -0.1905  0.2416 -0.4183
  195MOL0     C26834   8.863   5.034   9.983 -0.6858 -1.0673  0.2325
  195MOL0     C26835   8.823   5.040  10.130 -0.4005 -0.0660 -0.7427
  195MOL0     C26836   8.932   4.992  10.217  0.2009  0.4501  0.1922
  195MOL0     C26837   9.038   4.965  10.276 -0.4128 -0.2301  0.6020
  195MOL0     C26838   9.183   5.061   9.622  0.2039 -0.5419 -0.2259
  195MOL0     C26839   9.234   5.092   9.495  0.1108  0.1078 -0.2916
  195MOL0     C26840   9.312   5.213   9.492  1.2365  0.6432  0.4737
  195MOL0     H26841   9.153   4.791   9.015  1.4716  0.8491  1.4625
  195MOL0     H26842   9.153   4.769   8.759  2.4381  0.2945 -0.6153
  195MOL0     H26843   9.183   4.790   8.557  1.1411 -0.2293 -1.4382
  195MOL0     H26844   9.339   4.872   8.533 -0.2685  1.4225  1.4047
  195MOL0     H26845   9.239   4.991   8.346  0.7332 -1.0751 -2.0490
  195MOL0     H26846   9.199   4.820   8.344 -0.0917 -0.3638  1.5399
  195MOL0     H26847   8.977   4.854   8.444 -2.2803  0.1772  0.1468
  195MOL0     H26848   8.992   5.026   8.436  1.3276  0.0230  0.7477
  195MOL0     H26849   8.872   4.994   8.249  0.3663  0.1915 -0.3776
  195MOL0     H26850   9.032   5.005   8.186 -4.1853  1.2675 -5.4833
  195MOL0     H26851   8.870   4.814   8.094  0.5309 -2.8891 -0.7574
  195MOL0     H26852   8.879   4.731   8.251  2.4276 -0.6584  1.1691
  195MOL0     H26853   9.126   4.685   8.197 -0.5873  0.0239  0.5095
  195MOL0     H26854   9.018   4.659   8.060  0.0262 -3.5299  2.5299
  195MOL0     H26855   9.199   4.905   8.102  0.0474  0.3351 -0.0481
  195MOL0     H26856   9.084   4.873   7.967  1.1301 -1.0301 -2.6445
  195MOL0     H26857   9.321   4.711   8.046 -0.0757  1.1521  0.8880
  195MOL0     H26858   9.186   4.672   7.912 -0.5097 -0.2525  1.2814
  195MOL0     H26859   9.498   4.690   7.834 -1.0847 -0.5352 -0.5592
  195MOL0     H26860   9.542   4.897   7.520  3.6274 -1.2085 -1.9854
  195MOL0     H26861   9.632   4.786   7.616  3.3489  2.1072  0.1450
  195MOL0     H26862   9.720   5.014   7.579 -0.0372  1.1230 -0.5157
  195MOL0     H26863   9.612   5.073   7.702 -0.0879 -0.1023 -0.6546
  195MOL0     H26864   9.715   4.908   7.868  2.3553  0.6597 -0.1254
  195MOL0     H26865   9.842   4.872   7.754 -1.6006 -2.4383  0.7296
  195MOL0     H26866   9.860   5.137   7.745 -2.0906 -2.4838 -1.3344
  195MOL0     H26867   9.795   5.118   7.909 -1.7400 -1.0455  0.1162
  195MOL0     H26868  10.193   4.980   7.987  0.6693  1.1374 -0.4767
  195MOL0     H26869  10.429   5.208   8.162 -0.6577 -0.8961  0.2914
  195MOL0     H26870  10.480   5.128   8.016  2.5427 -0.6649  2.1535
  195MOL0     H26871  10.363   5.048   8.145 -3.0570 -1.2454 -2.6408
  195MOL0     H26872  10.474   5.639   8.186  0.5037 -0.4772  3.0621
  195MOL0     H26873  10.651   5.762   8.239 -2.7840  0.9771 -2.2320
  195MOL0     H26874  11.019   5.686   7.991 -2.7627 -1.5639  1.3458
  195MOL0     H26875  11.108   5.793   8.099  1.4573 -1.4177 -2.3331
  195MOL0     H26876  11.050   5.503   8.191 -0.9273  1.0653  0.3990
  195MOL0     H26877  11.183   5.552   8.075  1.0857  2.3201 -0.8464
  195MOL0     H26878  11.130   5.703   8.332  0.9457  2.0757 -0.3675
  195MOL0     H26879  11.267   5.716   8.234 -0.0337  0.1638 -0.3303
  195MOL0     H26880  11.279   5.450   8.284 -0.5753 -2.0758  1.5903
  195MOL0     H26881  11.196   5.499   8.432  0.6956 -0.3558 -0.0251
  195MOL0     H26882  11.462   5.625   8.355  2.9570 -0.6217  2.0814
  195MOL0     H26883  11.365   5.650   8.501  4.2045  2.0350  1.1972
  195MOL0     H26884  11.506   5.384   8.411  0.2216 -0.7357  1.0275
  195MOL0     H26885  11.418   5.419   8.565  0.2964  2.3761  2.1335
  195MOL0     H26886  11.688   5.532   8.479  1.0801 -0.1314  1.0818
  195MOL0     H26887  11.648   5.416   8.612 -0.5860  0.5764  1.9012
  195MOL0     H26888  11.570   5.715   8.599  1.0983 -0.2188 -0.4651
  195MOL0     H26889  11.713   5.643   8.682  0.8601  1.5263 -0.7668
  195MOL0     H26890  10.899   5.521   7.967 -0.6084 -3.8126  0.9026
  195MOL0     H26891  10.712   5.402   7.913 -0.7569  0.6322 -1.3041
  195MOL0     H26892  10.114   5.457   7.914  0.1361  0.4356  0.1649
  195MOL0     H26893   9.943   5.300   7.857 -1.5458 -0.7443  1.0139
  195MOL0     H26894   9.215   5.195   8.748  1.1470  1.2016  2.0482
  195MOL0     H26895   9.171   5.213   9.001 -3.5194 -0.7608 -0.6711
  195MOL0     H26896   9.041   4.869   9.328 -3.2305  0.2390  1.3380
  195MOL0     H26897   8.968   4.810   9.536 -0.9825  0.3249  0.9665
  195MOL0     H26898   8.855   4.970   9.760 -0.2628 -0.1885  0.7051
  195MOL0     H26899   8.905   4.789   9.751  3.6156 -0.7266  0.9438
  195MOL0     H26900   8.958   4.834  10.000 -0.6725  1.5722  1.6082
  195MOL0     H26901   8.785   4.836   9.948 -0.4324  0.5805 -1.4817
  195MOL0     H26902   8.959   5.087   9.980 -2.0966  1.7077  0.5732
  195MOL0     H26903   8.791   5.099   9.933  0.0445  2.0915  2.9194
  195MOL0     H26904   8.728   4.994  10.160 -0.1245  0.3557  0.9004
  195MOL0     H26905   8.825   5.145  10.159  1.0843  0.1394 -1.5137
  195MOL0     H26906   9.124   4.935  10.333  0.0580 -0.6793 -0.3279
  195MOL0     H26907   9.219   5.117   9.708  0.8020 -0.1275 -0.7300
  195MOL0     H26908   9.395   5.186   9.425  0.3000 -0.8230 -0.1518
  195MOL0     H26909   9.258   5.301   9.456 -1.6206 -1.4079 -0.5730
  195MOL0     H26910   9.365   5.221   9.587  1.6836 -1.6421  0.4804
  196MOL0     O26911   3.286   4.301   5.888  0.0338  0.6107  0.2318
  196MOL0     C26912   3.269   4.324   5.761 -0.0468 -0.6428 -0.0686
  196MOL0     O26913   3.381   4.355   5.679  1.2837 -0.3694  0.9463
  196MOL0     C26914   3.502   4.328   5.718 -0.3831  0.4194  0.2183
  196MOL0     C26915   3.561   4.403   5.824 -0.0371  0.0643  0.3038
  196MOL0     C26916   3.688   4.354   5.866 -0.2056  0.0401  0.7479
  196MOL0     C26917   3.768   4.253   5.794 -0.1366 -1.0305  0.2560
  196MOL0     O26918   3.888   4.209   5.828 -0.3524 -0.7246 -0.0349
  196MOL0     C26919   3.916   4.183   5.969  0.4053  1.2458  1.0423
  196MOL0     C26920   4.064   4.164   5.978 -0.1082 -0.4585  0.3629
  196MOL0     C26921   4.115   4.158   6.121  0.2395 -0.2047 -0.4148
  196MOL0     C26922   4.256   4.108   6.137  0.1136 -0.2125  0.0612
  196MOL0     C26923   4.298   4.089   6.277  0.5518 -0.5500 -0.0212
  196MOL0     C26924   4.441   4.043   6.301 -0.3540 -0.4761 -0.5028
  196MOL0     C26925   4.495   3.924   6.211 -0.1371  0.6285  0.5088
  196MOL0     C26926   4.650   3.921   6.214 -0.3416  0.9527  1.0533
  196MOL0     N26927   4.714   3.901   6.342  0.2669 -1.1050 -1.1000
  196MOL0     C26928   4.749   4.010   6.419  0.5353  0.2074 -0.0782
  196MOL0     C26929   4.802   3.960   6.537 -0.1671 -0.6206  0.4099
  196MOL0     C26930   4.884   4.032   6.633 -0.0262  0.2528  0.0791
  196MOL0     C26931   5.005   4.098   6.582 -0.7195 -0.4113  0.4826
  196MOL0     C26932   5.123   3.999   6.533 -0.4809 -0.6361  0.1345
  196MOL0     C26933   5.214   4.061   6.441 -0.1452 -0.0793 -0.4697
  196MOL0     O26934   5.310   3.957   6.403  0.2520 -0.4810  0.0560
  196MOL0     C26935   5.439   3.991   6.433 -0.3060  0.0980  0.3443
  196MOL0     C26936   5.531   4.015   6.332  0.2815 -0.8827  0.3365
  196MOL0     C26937   5.669   4.065   6.350  0.5304 -0.1409 -0.2692
  196MOL0     C26938   5.756   4.086   6.225  0.3429 -0.4973 -0.1438
  196MOL0     C26939   5.716   4.063   6.481  0.5885 -0.1928 -0.1688
  196MOL0     C26940   5.860   4.092   6.529  0.6817 -0.4622 -0.9174
  196MOL0     O26941   5.885   4.077   6.659  0.1351  0.0288 -0.6981
  196MOL0     C26942   6.009   4.091   6.715 -0.1857 -0.1089 -0.7026
  196MOL0     C26943   6.128   4.107   6.643 -0.0467  0.0123  0.4565
  196MOL0     C26944   6.247   4.121   6.722 -0.0875 -0.3478  0.2593
  196MOL0     C26945   6.236   4.139   6.864 -0.4438  0.0967 -0.3785
  196MOL0     O26946   6.353   4.163   6.935  0.0500 -0.2021  0.6505
  196MOL0     C26947   6.453   4.243   6.867 -0.5874 -0.0602 -0.8189
  196MOL0     C26948   6.532   4.308   6.980 -0.1865 -0.0114 -0.4250
  196MOL0     C26949   6.663   4.367   6.929  0.5077  0.4010  0.0613
  196MOL0     C26950   6.733   4.450   7.039 -0.0125 -0.8654 -0.1856
  196MOL0     C26951   6.775   4.356   7.162 -0.3289 -0.7276  0.5717
  196MOL0     C26952   6.875   4.422   7.266  0.8355  0.8613  0.5940
  196MOL0     C26953   6.813   4.500   7.378  0.1074 -0.9610 -0.7049
  196MOL0     C26954   6.912   4.590   7.452  0.1712 -0.5374  0.2498
  196MOL0    Cl26955   6.828   4.692   7.570 -0.0772 -0.5262 -0.0871
  196MOL0     C26956   6.117   4.115   6.926  0.3215 -0.6226 -1.9000
  196MOL0     C26957   6.010   4.091   6.855  0.5804  1.2312 -0.6234
  196MOL0     O26958   5.929   4.154   6.455  0.1883 -1.2240  0.0152
  196MOL0     C26959   5.620   4.029   6.586 -0.3004  0.6032 -0.3453
  196MOL0     C26960   5.488   3.988   6.564 -1.0320 -0.7320 -0.4081
  196MOL0     N26961   4.791   3.821   6.533  0.8222 -0.7246 -0.4331
  196MOL0     N26962   4.728   3.792   6.419 -0.3639 -0.5062 -0.2144
  196MOL0     C26963   3.705   4.205   5.687  0.0596  0.5970 -0.4178
  196MOL0     C26964   3.573   4.229   5.650  0.1704 -0.0456  0.4011
  196MOL0     C26965   3.135   4.306   5.704 -0.5159 -0.7966  0.6346
  196MOL0     C26966   3.145   4.245   5.575 -0.6663  0.1050 -0.7051
  196MOL0     C26967   3.021   4.202   5.520  0.7768  0.0481 -0.9013
  196MOL0     C26968   2.896   4.230   5.578  0.0968  0.1186 -0.1473
  196MOL0     O26969   2.787   4.177   5.527 -0.1024 -0.0121 -0.5246
  196MOL0     C26970   2.732   4.067   5.604 -0.3165 -0.0693 -0.9312
  196MOL0     C26971   2.655   3.961   5.533  0.2849 -0.8614  0.0179
  196MOL0     C26972   2.507   3.997   5.513 -0.4033  0.1505 -0.1057
  196MOL0     C26973   2.459   4.138   5.518 -0.4969  0.4303 -0.0697
  196MOL0     C26974   2.320   4.141   5.473  0.8126  0.0145 -0.0145
  196MOL0     C26975   2.204   4.167   5.448 -0.4499 -0.7070  0.3208
  196MOL0     C26976   2.894   4.291   5.703 -0.6850 -0.5930 -0.7121
  196MOL0     C26977   3.013   4.334   5.767  0.1954  0.1397  0.9528
  196MOL0     C26978   2.989   4.412   5.898  0.4223  0.4141  0.3902
  196MOL0     H26979   3.514   4.488   5.871 -2.6759 -1.4518  0.5853
  196MOL0     H26980   3.750   4.399   5.942  0.0845 -0.3207  0.7305
  196MOL0     H26981   3.875   4.085   5.993  0.6213  0.3259 -1.9609
  196MOL0     H26982   3.878   4.264   6.033 -1.4463 -0.3314  2.0720
  196MOL0     H26983   4.075   4.068   5.926 -0.5114  0.3408 -1.2669
  196MOL0     H26984   4.113   4.251   5.933  0.0330 -0.2180  0.9786
  196MOL0     H26985   4.108   4.257   6.167  0.0241 -0.2090 -0.4387
  196MOL0     H26986   4.045   4.093   6.174  1.4866  1.1120  3.1676
  196MOL0     H26987   4.258   4.015   6.079 -1.0268 -2.0827  2.8037
  196MOL0     H26988   4.322   4.181   6.089 -1.4256  1.8086  0.9080
  196MOL0     H26989   4.233   4.011   6.320  3.1478 -2.1609  1.2831
  196MOL0     H26990   4.287   4.185   6.327  0.1888  0.2620 -1.6088
  196MOL0     H26991   4.503   4.132   6.298 -2.4252  1.3930  3.6939
  196MOL0     H26992   4.434   4.020   6.408 -0.5002  1.3858 -0.0840
  196MOL0     H26993   4.463   3.940   6.108  1.3988 -1.0361 -0.2603
  196MOL0     H26994   4.463   3.826   6.248  3.6763 -1.0260 -0.1513
  196MOL0     H26995   4.683   3.840   6.149  2.3819  3.0462 -0.4382
  196MOL0     H26996   4.692   4.007   6.159  2.3432 -2.5434 -3.0966
  196MOL0     H26997   4.753   4.114   6.387  4.0993  0.2577  0.1795
  196MOL0     H26998   4.915   3.966   6.715 -0.7127 -1.3873 -0.9376
  196MOL0     H26999   4.819   4.107   6.678 -0.5728 -0.9277  1.3092
  196MOL0     H27000   4.987   4.148   6.487 -2.9822  0.7561  1.4503
  196MOL0     H27001   5.044   4.176   6.649  0.0804  0.1691 -0.6251
  196MOL0     H27002   5.184   3.975   6.621 -0.4687 -0.4946  0.1659
  196MOL0     H27003   5.074   3.914   6.486 -0.4740  0.4555 -1.9340
  196MOL0     H27004   5.157   4.087   6.351 -0.3535 -0.9340 -0.5978
  196MOL0     H27005   5.260   4.156   6.471 -0.1342 -0.7985  1.9368
  196MOL0     H27006   5.500   4.014   6.228 -1.2900  2.1400  0.6506
  196MOL0     H27007   5.727   4.007   6.154 -0.2834 -2.3756  2.0641
  196MOL0     H27008   5.864   4.071   6.237  0.6404  1.3740 -0.1812
  196MOL0     H27009   5.735   4.187   6.190  0.4944  0.1750  1.6142
  196MOL0     H27010   6.133   4.098   6.535  1.5659 -3.4497  0.6674
  196MOL0     H27011   6.334   4.130   6.658 -0.7566 -0.8894 -0.7471
  196MOL0     H27012   6.515   4.168   6.816 -0.2523 -0.9235  0.7679
  196MOL0     H27013   6.406   4.323   6.810  1.0283  1.5981  0.0838
  196MOL0     H27014   6.464   4.390   7.007  0.6715 -0.0726  2.2025
  196MOL0     H27015   6.535   4.242   7.067 -0.4602  0.9474  0.3321
  196MOL0     H27016   6.642   4.424   6.838  0.2499 -2.9305 -2.1671
  196MOL0     H27017   6.726   4.279   6.911  0.2469 -0.0876  1.4417
  196MOL0     H27018   6.670   4.534   7.069  1.9516  2.0022 -3.4037
  196MOL0     H27019   6.827   4.490   7.000  1.1980 -0.1656  3.0767
  196MOL0     H27020   6.682   4.317   7.205 -3.1761  3.4198 -1.1362
  196MOL0     H27021   6.821   4.266   7.121 -0.1669 -1.2032  1.7621
  196MOL0     H27022   6.946   4.476   7.205 -0.7493 -0.4548 -2.6491
  196MOL0     H27023   6.941   4.343   7.304  0.0939  1.0913  2.5249
  196MOL0     H27024   6.764   4.429   7.445 -1.5838  0.9016  0.1472
  196MOL0     H27025   6.733   4.561   7.335  2.6002  3.0563 -0.2004
  196MOL0     H27026   6.960   4.664   7.386  1.8330 -1.2429  0.6195
  196MOL0     H27027   7.001   4.547   7.498 -0.4523 -2.6825 -0.4077
  196MOL0     H27028   6.097   4.124   7.032 -0.4484  2.2694 -2.1940
  196MOL0     H27029   5.910   4.083   6.897  0.4544 -1.9100 -1.3419
  196MOL0     H27030   5.654   4.032   6.689  0.1294 -2.7278 -0.2963
  196MOL0     H27031   5.426   3.958   6.647 -1.9966  1.1855 -0.3670
  196MOL0     H27032   3.755   4.127   5.632 -0.3070  0.8688 -1.1418
  196MOL0     H27033   3.529   4.164   5.575 -0.6105 -4.0641  3.9744
  196MOL0     H27034   3.240   4.233   5.524 -0.3884 -1.0745  0.0687
  196MOL0     H27035   3.026   4.147   5.427 -0.1857 -0.9886 -0.3658
  196MOL0     H27036   2.810   4.008   5.653 -2.6980 -3.1328 -0.5338
  196MOL0     H27037   2.671   4.105   5.687  1.2527 -1.2350  0.8391
  196MOL0     H27038   2.655   3.865   5.586  1.4629 -1.6229 -1.2855
  196MOL0     H27039   2.699   3.939   5.435 -1.5164 -0.9526 -0.7983
  196MOL0     H27040   2.492   3.968   5.409 -1.2755 -2.8637  0.7593
  196MOL0     H27041   2.440   3.930   5.568 -0.7023  0.7626  0.2893
  196MOL0     H27042   2.530   4.201   5.463  1.9888 -0.3147  2.0590
  196MOL0     H27043   2.474   4.170   5.622 -1.8255  0.9524 -0.0288
  196MOL0     H27044   2.101   4.193   5.431  0.2196  3.7411  1.5116
  196MOL0     H27045   2.801   4.297   5.758  0.0083 -0.0888  0.4424
  196MOL0     H27046   3.083   4.399   5.952  0.2402 -0.8608  0.4365
  196MOL0     H27047   2.972   4.518   5.877 -1.8439 -0.0694 -0.4259
  196MOL0     H27048   2.906   4.376   5.959  0.7259  0.7946  1.0371
  197MOL0     O27049   3.416   2.897   4.091 -0.1199  0.0642  0.3124
  197MOL0     C27050   3.351   2.793   4.114  0.3514 -0.1353  0.8917
  197MOL0     O27051   3.383   2.663   4.052  0.2594 -0.3869  0.0343
  197MOL0     C27052   3.447   2.658   3.922 -0.0959  0.4539 -0.6300
  197MOL0     C27053   3.403   2.725   3.814  0.0429  0.3748  0.9212
  197MOL0     C27054   3.477   2.725   3.699 -0.0450 -0.3833  0.7426
  197MOL0     C27055   3.594   2.650   3.677  1.1401  0.1420 -0.1015
  197MOL0     O27056   3.680   2.664   3.562 -0.4882  0.1434 -0.4225
  197MOL0     C27057   3.622   2.605   3.446 -0.7769 -0.0290  0.6338
  197MOL0     C27058   3.652   2.455   3.448 -0.2327 -0.2431  0.3778
  197MOL0     C27059   3.800   2.439   3.414 -1.0866  0.7839  0.3947
  197MOL0     C27060   3.839   2.291   3.398  0.1543 -0.5500  0.1401
  197MOL0     C27061   3.983   2.271   3.339 -0.3494  0.8370 -0.4813
  197MOL0     C27062   4.097   2.299   3.436 -0.1566  1.0935  0.5305
  197MOL0     C27063   4.231   2.272   3.363 -0.0565  0.5479 -0.5613
  197MOL0     C27064   4.355   2.326   3.434 -1.3499 -1.2641 -1.0074
  197MOL0     N27065   4.458   2.368   3.342 -0.7383 -0.2664  0.8017
  197MOL0     C27066   4.580   2.420   3.378  0.6217  0.2865 -0.4389
  197MOL0     C27067   4.648   2.448   3.269 -0.0704 -0.1063 -0.6348
  197MOL0     C27068   4.792   2.499   3.279  0.3402  0.2476  0.1620
  197MOL0     C27069   4.815   2.647   3.263  0.3859  1.2203 -1.1710
  197MOL0     C27070   4.810   2.702   3.129 -0.7847  0.4048  0.9291
  197MOL0     C27071   4.895   2.634   3.017 -0.7710  0.5313  0.2088
  197MOL0     O27072   5.037   2.643   3.063 -0.3204  0.3934  0.2320
  197MOL0     C27073   5.136   2.573   2.997  0.2817 -0.0179 -0.9395
  197MOL0     C27074   5.120   2.466   2.906  0.6167 -0.3900  0.5486
  197MOL0     C27075   5.232   2.409   2.842  0.4889  1.1064 -0.1974
  197MOL0     C27076   5.205   2.285   2.760  0.1129  0.3644 -0.3016
  197MOL0     C27077   5.366   2.471   2.846 -0.7395 -0.8511  0.1157
  197MOL0     C27078   5.491   2.429   2.780  0.0779  0.5140  0.2085
  197MOL0     O27079   5.483   2.352   2.664  0.9131  0.3051  0.6922
  197MOL0     C27080   5.597   2.332   2.597 -0.5713 -0.6412  0.6998
  197MOL0     C27081   5.675   2.215   2.602 -1.0040 -0.2010  0.4791
  197MOL0     C27082   5.788   2.203   2.522 -1.0892  0.1145  1.1052
  197MOL0     C27083   5.836   2.308   2.441  0.9946  0.1614 -0.4176
  197MOL0     O27084   5.937   2.312   2.360  0.5545  0.5409 -0.2736
  197MOL0     C27085   5.958   2.194   2.281 -0.2219 -0.1111  0.2805
  197MOL0     C27086   6.060   2.229   2.173  0.8149 -0.2854  0.1721
  197MOL0     C27087   6.105   2.114   2.105 -0.1023  0.4152 -0.3203
  197MOL0     C27088   6.204   2.147   1.994  0.3782  0.4082  1.0022
  197MOL0     C27089   6.249   2.023   1.916 -0.3485 -0.1087 -0.1836
  197MOL0     C27090   6.363   2.052   1.815  0.2979  0.4030  0.2237
  197MOL0     C27091   6.395   1.920   1.730 -0.2885  0.0609  0.7565
  197MOL0     C27092   6.458   1.946   1.592  0.1432 -0.4140 -0.8420
  197MOL0    Cl27093   6.600   2.036   1.620 -0.5940  0.3565  0.1223
  197MOL0     C27094   5.758   2.429   2.449 -0.1512 -0.1106 -0.0975
  197MOL0     C27095   5.636   2.440   2.520  0.6494 -0.0210 -0.3626
  197MOL0     O27096   5.599   2.468   2.829  0.6678  0.1545  0.2245
  197MOL0     C27097   5.379   2.571   2.946  0.0927  0.3655  0.5295
  197MOL0     C27098   5.267   2.619   3.022 -0.9839 -0.2383  0.1400
  197MOL0     N27099   4.567   2.413   3.164  0.6637  0.4179  0.3723
  197MOL0     N27100   4.459   2.362   3.206 -0.1069  0.7533  0.2733
  197MOL0     C27101   3.639   2.583   3.788  0.5099  0.1128 -0.3931
  197MOL0     C27102   3.569   2.589   3.911  0.3013  0.0606 -0.3413
  197MOL0     C27103   3.259   2.794   4.220 -0.2574 -0.2638  0.1968
  197MOL0     C27104   3.214   2.675   4.278 -0.1818 -0.8380  0.0119
  197MOL0     C27105   3.147   2.671   4.395 -0.9259  0.0398  0.3438
  197MOL0     C27106   3.104   2.786   4.461  0.1604 -0.0796 -0.5686
  197MOL0     O27107   3.045   2.800   4.584 -0.6449  0.6514 -0.5437
  197MOL0     C27108   2.903   2.813   4.581 -0.5024 -1.4531  0.3073
  197MOL0     C27109   2.852   2.891   4.695 -0.3676  0.1185  0.2242
  197MOL0     C27110   2.864   3.044   4.675 -0.5870 -0.0832  0.6603
  197MOL0     C27111   2.805   3.125   4.793  0.1333 -0.0533  1.1800
  197MOL0     C27112   2.835   3.266   4.771 -0.2320 -1.4927  0.3643
  197MOL0     C27113   2.857   3.378   4.725  0.8795  0.1364 -0.6921
  197MOL0     C27114   3.127   2.903   4.390  0.0831  0.2315 -0.4749
  197MOL0     C27115   3.200   2.911   4.274  0.7019  0.5926 -0.3639
  197MOL0     C27116   3.214   3.051   4.222 -0.1024 -0.7337 -0.2627
  197MOL0     H27117   3.315   2.786   3.835 -0.3725  0.8650 -1.7963
  197MOL0     H27118   3.441   2.793   3.622  0.8194  2.1662  2.4326
  197MOL0     H27119   3.663   2.642   3.351  0.0362  0.0350  0.9952
  197MOL0     H27120   3.514   2.619   3.447 -1.1177 -2.3299  1.0194
  197MOL0     H27121   3.634   2.426   3.552  2.4117  1.3369  1.3804
  197MOL0     H27122   3.588   2.390   3.387 -0.0482  2.0521 -2.5167
  197MOL0     H27123   3.831   2.504   3.332  0.4472  2.2681  2.0527
  197MOL0     H27124   3.862   2.474   3.497  3.9424  0.7302 -2.8999
  197MOL0     H27125   3.808   2.235   3.487 -0.1220 -1.5063 -0.5466
  197MOL0     H27126   3.768   2.246   3.329 -0.9717  4.0746 -2.0853
  197MOL0     H27127   4.010   2.347   3.265 -0.0835  1.4439  0.2231
  197MOL0     H27128   3.996   2.174   3.290  2.2053  1.1426 -0.5593
  197MOL0     H27129   4.090   2.400   3.478 -1.2232  0.7195  1.3037
  197MOL0     H27130   4.080   2.223   3.512 -0.2962 -0.9688 -1.4486
  197MOL0     H27131   4.233   2.300   3.257  0.2486  2.2098 -0.1330
  197MOL0     H27132   4.253   2.164   3.362  1.3298  0.7982  0.0609
  197MOL0     H27133   4.329   2.418   3.487  1.0435 -0.5561 -0.9512
  197MOL0     H27134   4.402   2.251   3.498 -0.3582  0.3386  0.1956
  197MOL0     H27135   4.616   2.450   3.476  1.5227 -0.1676 -0.6259
  197MOL0     H27136   4.866   2.444   3.219  0.2723 -0.1860  0.4672
  197MOL0     H27137   4.822   2.489   3.384  0.2925  5.6287  0.9587
  197MOL0     H27138   4.738   2.698   3.321  1.2694  0.7238  0.5289
  197MOL0     H27139   4.910   2.664   3.316  0.8159 -3.1861 -0.1618
  197MOL0     H27140   4.705   2.688   3.102 -1.5084  3.8521  1.5024
  197MOL0     H27141   4.835   2.808   3.119  2.1429 -0.3978 -2.5805
  197MOL0     H27142   4.866   2.529   3.009  5.1031 -1.4500 -0.1529
  197MOL0     H27143   4.885   2.698   2.928 -0.5841 -0.6173 -0.6529
  197MOL0     H27144   5.021   2.428   2.884  1.5024 -1.8182 -1.2139
  197MOL0     H27145   5.281   2.207   2.766 -0.1117  0.0433 -1.5045
  197MOL0     H27146   5.182   2.326   2.661  1.5761  1.5046 -0.2053
  197MOL0     H27147   5.108   2.247   2.793 -0.7672  2.1494 -0.6903
  197MOL0     H27148   5.645   2.129   2.660  1.5065 -1.8932 -0.5858
  197MOL0     H27149   5.839   2.107   2.518 -0.9454  0.2310 -1.2976
  197MOL0     H27150   5.990   2.113   2.347  3.2000 -0.2533 -1.3118
  197MOL0     H27151   5.870   2.161   2.226  0.4128 -0.1173 -0.7501
  197MOL0     H27152   6.012   2.300   2.105  0.6558 -0.0284  0.5529
  197MOL0     H27153   6.146   2.277   2.221  2.3219 -2.2108 -0.4552
  197MOL0     H27154   6.017   2.058   2.072 -0.5361  0.7896  0.2090
  197MOL0     H27155   6.163   2.062   2.182  1.3645  0.4784 -1.3321
  197MOL0     H27156   6.297   2.183   2.037  1.2990 -0.2990 -0.3135
  197MOL0     H27157   6.157   2.215   1.922  0.0303 -1.9235 -1.1341
  197MOL0     H27158   6.278   1.947   1.989 -0.8686 -0.2020 -0.0688
  197MOL0     H27159   6.166   1.979   1.860 -1.5569 -2.4117  3.0733
  197MOL0     H27160   6.450   2.082   1.875  0.4359 -3.1420  2.0771
  197MOL0     H27161   6.337   2.135   1.749  2.2019  0.2245 -0.8314
  197MOL0     H27162   6.302   1.866   1.711 -1.1103  0.6866  2.6996
  197MOL0     H27163   6.456   1.862   1.800  0.8689 -0.2482 -0.4667
  197MOL0     H27164   6.394   1.988   1.514 -0.3307 -0.5662 -0.5424
  197MOL0     H27165   6.493   1.853   1.546  4.1225 -0.6822  2.1296
  197MOL0     H27166   5.793   2.515   2.393 -1.2646  1.0423  0.9145
  197MOL0     H27167   5.563   2.519   2.505  0.0840 -0.6825 -1.2597
  197MOL0     H27168   5.469   2.629   2.965  0.4551  0.1145 -0.3937
  197MOL0     H27169   5.286   2.693   3.100  2.8135  1.0687 -1.8104
  197MOL0     H27170   3.741   2.548   3.775  0.8203  1.4561 -1.8917
  197MOL0     H27171   3.612   2.544   3.999  3.4988 -0.2946 -1.9432
  197MOL0     H27172   3.239   2.580   4.232  1.6518 -0.7593  0.7788
  197MOL0     H27173   3.138   2.568   4.426  0.9816 -0.5887 -1.0312
  197MOL0     H27174   2.864   2.852   4.486 -0.3033 -1.6693  0.1350
  197MOL0     H27175   2.864   2.712   4.594 -1.8987 -0.6991  2.2970
  197MOL0     H27176   2.900   2.857   4.787 -2.0194  0.1005  1.1279
  197MOL0     H27177   2.745   2.872   4.712 -0.7612 -0.2834 -2.3182
  197MOL0     H27178   2.969   3.074   4.672 -1.3930  3.0918 -1.8118
  197MOL0     H27179   2.812   3.061   4.580  1.7180 -1.9576 -1.0696
  197MOL0     H27180   2.858   3.091   4.882  0.0866  0.8913  1.5791
  197MOL0     H27181   2.700   3.106   4.815  0.0143 -1.5849 -0.4110
  197MOL0     H27182   2.878   3.477   4.691 -0.7834  0.2366 -1.5083
  197MOL0     H27183   3.094   2.998   4.432  1.2667  1.3411 -1.9598
  197MOL0     H27184   3.320   3.079   4.230 -0.7137  1.8178 -0.1542
  197MOL0     H27185   3.185   3.062   4.117 -0.2359 -0.4300 -0.1960
  197MOL0     H27186   3.158   3.121   4.284  2.5711  1.0648  0.3164
  198MOL0     O27187   3.630  10.707   4.783  0.0570 -0.0356 -0.5512
  198MOL0     C27188   3.661  10.800   4.862 -0.5066  0.3502  0.0839
  198MOL0     O27189   3.766  10.783   4.959  0.4457 -0.4699 -0.3174
  198MOL0     C27190   3.851  10.677   4.939 -0.2453  0.4396  0.5219
  198MOL0     C27191   3.964  10.677   4.854 -0.2654 -0.1483 -0.3842
  198MOL0     C27192   4.059  10.576   4.857  1.2558 -0.0140  0.1599
  198MOL0     C27193   4.041  10.467   4.947 -0.4986  0.7467  0.1941
  198MOL0     O27194   4.126  10.353   4.957 -0.0141 -0.0226  0.1044
  198MOL0     C27195   4.223  10.338   4.848 -0.0148  0.2061  0.3007
  198MOL0     C27196   4.269  10.193   4.847 -0.5296  1.1115 -0.5826
  198MOL0     C27197   4.349  10.145   4.973  0.1786 -0.5758 -0.0871
  198MOL0     C27198   4.361   9.995   4.984 -0.1530 -0.1090 -0.9073
  198MOL0     C27199   4.434   9.967   5.113 -0.7478  0.9520 -0.3393
  198MOL0     C27200   4.466   9.816   5.122 -0.1629 -0.0110  0.2606
  198MOL0     C27201   4.515   9.763   5.264 -0.9671 -0.0079  0.4068
  198MOL0     C27202   4.501   9.608   5.286  0.0587  0.2077 -0.4508
  198MOL0     N27203   4.594   9.528   5.198  0.6130 -0.3966 -0.7239
  198MOL0     C27204   4.721   9.482   5.227  0.3267  0.7276  0.4208
  198MOL0     C27205   4.770   9.441   5.111 -0.0972 -0.1378  0.1328
  198MOL0     C27206   4.908   9.391   5.094 -0.1755  0.3853 -0.1323
  198MOL0     C27207   4.924   9.248   5.150  0.1218  0.0406  1.0152
  198MOL0     C27208   4.836   9.147   5.065  0.4684  0.3819 -0.2887
  198MOL0     C27209   4.867   8.995   5.098  0.8229 -0.1504 -0.5402
  198MOL0     O27210   4.878   8.912   4.978  0.3035 -0.3290  0.0974
  198MOL0     C27211   4.977   8.934   4.883 -0.5282 -0.3334 -0.6805
  198MOL0     C27212   5.069   9.036   4.871  0.3908  1.1332 -0.6170
  198MOL0     C27213   5.157   9.050   4.767 -0.9296  0.6038  0.2404
  198MOL0     C27214   5.268   9.149   4.784 -0.6023 -0.8148 -0.4753
  198MOL0     C27215   5.136   8.966   4.656 -0.2520 -0.5132 -0.2727
  198MOL0     C27216   5.212   8.963   4.526  0.5083 -0.3685 -0.1156
  198MOL0     O27217   5.165   8.881   4.431 -1.0267  1.0158  0.4766
  198MOL0     C27218   5.219   8.884   4.304 -0.9472  0.3898 -0.6465
  198MOL0     C27219   5.198   8.996   4.226 -0.6336 -0.3161 -0.6904
  198MOL0     C27220   5.240   8.986   4.094  0.0728  0.2201 -0.6007
  198MOL0     C27221   5.321   8.888   4.045  0.0990 -0.3017 -0.5108
  198MOL0     O27222   5.370   8.902   3.922 -0.3113  0.2282 -0.0536
  198MOL0     C27223   5.517   8.934   3.910  1.1435 -0.3327 -0.5161
  198MOL0     C27224   5.577   8.901   3.762 -0.6066  0.3361  0.2812
  198MOL0     C27225   5.726   8.904   3.764 -0.6629  0.7276 -0.0301
  198MOL0     C27226   5.807   8.841   3.638  0.4470 -1.3144  0.4510
  198MOL0     C27227   5.959   8.822   3.664 -0.0495 -0.3447 -0.4163
  198MOL0     C27228   6.036   8.958   3.673  0.5118 -1.3951  0.3028
  198MOL0     C27229   6.190   8.930   3.696 -0.7490 -0.0894 -0.2822
  198MOL0     C27230   6.231   8.880   3.834 -0.8251  0.5759  0.2287
  198MOL0    Cl27231   6.195   8.713   3.868  0.4176 -0.1465 -0.5833
  198MOL0     C27232   5.341   8.776   4.121  0.1902 -0.2686 -0.2745
  198MOL0     C27233   5.294   8.776   4.254  0.1534  0.2367 -0.1599
  198MOL0     O27234   5.317   9.008   4.511 -0.8337 -0.2840 -0.4238
  198MOL0     C27235   5.055   8.863   4.677 -0.0137 -0.1885  0.4424
  198MOL0     C27236   4.968   8.849   4.780  1.0769  1.2193  0.0381
  198MOL0     N27237   4.687   9.480   5.011  0.0225  0.1417  1.0877
  198MOL0     N27238   4.582   9.525   5.064  0.9172  0.5087  0.4162
  198MOL0     C27239   3.931  10.466   5.029 -0.2695 -0.0329 -0.1433
  198MOL0     C27240   3.835  10.567   5.022  0.0434  0.2045 -0.5448
  198MOL0     C27241   3.573  10.922   4.850 -0.0606  0.8439 -0.1116
  198MOL0     C27242   3.491  10.934   4.732  0.0889  0.6182 -0.4847
  198MOL0     C27243   3.403  11.033   4.711 -0.0278 -0.0830 -0.5754
  198MOL0     C27244   3.391  11.133   4.814 -0.4636 -1.4890 -0.4866
  198MOL0     O27245   3.306  11.242   4.808 -0.0068 -0.5668 -0.1658
  198MOL0     C27246   3.207  11.246   4.721 -0.2087 -0.8711 -0.0008
  198MOL0     C27247   3.118  11.358   4.771 -0.0961 -0.1015  0.5033
  198MOL0     C27248   3.058  11.343   4.909 -1.1412  1.1539 -0.1111
  198MOL0     C27249   2.937  11.434   4.932 -1.4301 -0.9975 -0.3297
  198MOL0     C27250   2.893  11.405   5.064  0.7675  0.7815 -0.3746
  198MOL0     C27251   2.856  11.407   5.187 -0.3253  0.1664  0.0273
  198MOL0     C27252   3.478  11.130   4.928  0.4240 -0.4886  0.1618
  198MOL0     C27253   3.572  11.027   4.946  0.1801 -0.0924  1.1548
  198MOL0     C27254   3.639  11.025   5.076 -0.9381  0.0113  0.1474
  198MOL0     H27255   3.967  10.756   4.780 -0.9287 -0.4378 -0.7295
  198MOL0     H27256   4.149  10.569   4.797  1.5040 -1.2755  0.6507
  198MOL0     H27257   4.303  10.412   4.858  0.8208 -0.5155 -0.7165
  198MOL0     H27258   4.175  10.347   4.751 -1.0969 -0.5679  0.7385
  198MOL0     H27259   4.188  10.119   4.845 -0.5003  1.0952 -2.6746
  198MOL0     H27260   4.337  10.191   4.762  0.5280 -1.4039  0.2259
  198MOL0     H27261   4.446  10.196   4.970 -0.2090  0.1267 -1.5151
  198MOL0     H27262   4.293  10.174   5.063  2.8186  1.5151  1.0548
  198MOL0     H27263   4.268   9.939   4.971  0.5884 -1.3231 -1.1766
  198MOL0     H27264   4.419   9.950   4.903 -0.0887 -2.4268  0.3439
  198MOL0     H27265   4.367   9.993   5.195 -0.1318 -4.6904  2.4271
  198MOL0     H27266   4.525  10.025   5.129 -0.0595 -0.7781  2.8017
  198MOL0     H27267   4.365   9.779   5.101  0.4533 -0.7224 -1.6452
  198MOL0     H27268   4.539   9.781   5.048 -0.6733 -1.2107  0.2933
  198MOL0     H27269   4.452   9.816   5.336 -0.7948  1.7135 -0.6584
  198MOL0     H27270   4.613   9.809   5.278 -1.4125  1.7130 -1.6038
  198MOL0     H27271   4.520   9.577   5.389  2.7897 -0.9511 -1.2128
  198MOL0     H27272   4.397   9.581   5.266 -0.3380  2.2121 -1.3591
  198MOL0     H27273   4.774   9.471   5.321 -1.0229 -1.2874  1.0101
  198MOL0     H27274   4.974   9.456   5.152 -0.4702 -0.9306  1.7451
  198MOL0     H27275   4.939   9.392   4.989  2.6760 -2.3976  0.5270
  198MOL0     H27276   5.029   9.223   5.128 -0.4512 -0.4657 -1.3631
  198MOL0     H27277   4.912   9.233   5.258 -0.9692  1.6403  1.1341
  198MOL0     H27278   4.730   9.153   5.093  0.1321  1.0205 -1.6275
  198MOL0     H27279   4.831   9.172   4.959 -1.2629  0.1255 -0.3046
  198MOL0     H27280   4.953   8.979   5.163 -0.5920 -0.3075  1.3544
  198MOL0     H27281   4.786   8.946   5.153 -0.9065 -1.1453 -3.7073
  198MOL0     H27282   5.083   9.099   4.958  1.2249 -0.4238  0.4381
  198MOL0     H27283   5.289   9.151   4.891 -1.8106 -3.1196 -0.1261
  198MOL0     H27284   5.235   9.246   4.744  1.2158  0.6391  1.3369
  198MOL0     H27285   5.360   9.108   4.741  0.7017 -0.0137  1.4340
  198MOL0     H27286   5.145   9.079   4.272 -1.4959 -1.3849  0.3338
  198MOL0     H27287   5.206   9.069   4.034 -0.0919  1.5191  1.1965
  198MOL0     H27288   5.551   9.032   3.945  1.2575 -0.7576  0.6117
  198MOL0     H27289   5.566   8.874   3.987  2.9928  0.1423 -1.2776
  198MOL0     H27290   5.536   8.806   3.727 -1.6886  1.0355 -0.4199
  198MOL0     H27291   5.540   8.980   3.695  0.7707  3.1001  2.5712
  198MOL0     H27292   5.743   8.841   3.852 -0.1668 -1.1066 -1.3574
  198MOL0     H27293   5.770   9.002   3.785  0.4885  0.1983  0.1239
  198MOL0     H27294   5.783   8.883   3.540  0.3445  0.9559  1.4023
  198MOL0     H27295   5.759   8.742   3.637  0.6710 -1.4293  0.8788
  198MOL0     H27296   5.967   8.766   3.758  0.8985 -0.9506 -0.8453
  198MOL0     H27297   6.003   8.756   3.589 -1.6269 -1.8219 -0.1129
  198MOL0     H27298   6.008   9.010   3.765  2.1062 -1.1664  0.6865
  198MOL0     H27299   6.026   9.026   3.588  0.2212  0.3969  1.7056
  198MOL0     H27300   6.242   9.026   3.681  2.8253 -1.3653  2.3821
  198MOL0     H27301   6.222   8.850   3.629  1.4793  1.1147 -0.7668
  198MOL0     H27302   6.198   8.945   3.916  1.5744  0.1361  1.6355
  198MOL0     H27303   6.341   8.885   3.839 -0.4838 -1.9070 -2.3149
  198MOL0     H27304   5.394   8.701   4.064 -2.9109 -0.4341 -3.2650
  198MOL0     H27305   5.311   8.694   4.322  0.7424  1.7997  1.6620
  198MOL0     H27306   5.045   8.768   4.625  2.4863 -2.2884  3.4862
  198MOL0     H27307   4.908   8.760   4.795  1.0506  1.3522  0.7634
  198MOL0     H27308   3.927  10.374   5.086  0.4234 -0.5612 -0.9249
  198MOL0     H27309   3.762  10.553   5.101  2.4272  0.3954  1.8386
  198MOL0     H27310   3.492  10.853   4.660  1.4933  0.4637 -0.3211
  198MOL0     H27311   3.340  11.047   4.624 -2.1917  3.3388  1.2985
  198MOL0     H27312   3.251  11.273   4.624  1.0181 -3.1308 -0.1535
  198MOL0     H27313   3.161  11.147   4.713 -0.8432 -0.8645  2.7220
  198MOL0     H27314   3.044  11.347   4.691  1.9553 -2.4865 -1.2217
  198MOL0     H27315   3.177  11.450   4.762  1.2595 -1.0368 -0.5646
  198MOL0     H27316   3.020  11.241   4.923  0.4332  0.8887  3.3364
  198MOL0     H27317   3.139  11.347   4.982 -1.1260  0.2354 -0.0556
  198MOL0     H27318   2.858  11.406   4.862 -1.7505 -0.0643 -0.3575
  198MOL0     H27319   2.961  11.540   4.935  1.1904 -1.5347  2.6831
  198MOL0     H27320   2.828  11.396   5.290 -0.9586 -0.6472 -0.2168
  198MOL0     H27321   3.458  11.205   5.003  0.9615  2.0075 -2.0112
  198MOL0     H27322   3.610  10.930   5.122  0.4269 -2.0787 -2.9423
  198MOL0     H27323   3.745  11.018   5.050 -0.0526 -3.0026  3.7394
  198MOL0     H27324   3.622  11.106   5.146  2.6684 -0.9260  2.3742
  199MOL0     O27325   9.036  11.152   1.349  0.5126  0.3603  0.3493
  199MOL0     C27326   9.122  11.112   1.273 -1.0774 -0.8546 -0.1585
  199MOL0     O27327   9.242  11.051   1.314 -0.6115  0.3369  0.2775
  199MOL0     C27328   9.254  11.025   1.448 -0.2325 -0.0764  0.8719
  199MOL0     C27329   9.224  10.899   1.498  0.0287  0.1001  0.5161
  199MOL0     C27330   9.249  10.875   1.641  0.2758  0.7232  0.1626
  199MOL0     C27331   9.292  10.974   1.730 -0.5095 -1.0348 -0.1432
  199MOL0     O27332   9.328  10.945   1.853  0.0919  0.1505 -0.0390
  199MOL0     C27333   9.387  10.815   1.884 -0.2718 -0.1299 -0.7472
  199MOL0     C27334   9.500  10.826   1.987  0.6430  0.1882  0.6849
  199MOL0     C27335   9.450  10.887   2.116  0.5455 -0.0452 -0.1708
  199MOL0     C27336   9.573  10.878   2.206 -0.0017 -1.1613  1.1643
  199MOL0     C27337   9.561  10.930   2.350 -0.3341  0.6654 -0.5494
  199MOL0     C27338   9.447  10.861   2.426 -0.6784  0.6111 -1.2133
  199MOL0     C27339   9.459  10.710   2.454  0.6077 -0.8041 -0.5128
  199MOL0     C27340   9.352  10.650   2.549  0.0446  0.1187  1.1205
  199MOL0     N27341   9.396  10.514   2.589  0.5330 -0.2985  0.1250
  199MOL0     C27342   9.473  10.472   2.698  0.4262  1.4746  0.1281
  199MOL0     C27343   9.490  10.336   2.663  0.0922 -0.0236  0.0191
  199MOL0     C27344   9.577  10.236   2.727 -0.1369  0.5512 -0.6290
  199MOL0     C27345   9.689  10.187   2.625  0.2334 -0.2568  0.6548
  199MOL0     C27346   9.785  10.094   2.694 -0.7132  0.0304  0.5154
  199MOL0     C27347   9.887  10.028   2.598  0.1430  0.0064  0.0088
  199MOL0     O27348   9.971  10.125   2.530 -0.0625 -0.0502 -0.3494
  199MOL0     C27349  10.013  10.089   2.406  0.1293  0.7257  0.4112
  199MOL0     C27350  10.034   9.959   2.359 -0.0782 -0.2106 -0.2248
  199MOL0     C27351  10.061   9.916   2.221  0.3268 -0.3968  0.7784
  199MOL0     C27352  10.057   9.771   2.178 -0.3306 -0.2442 -0.3042
  199MOL0     C27353  10.101  10.029   2.135 -0.4000  0.1653 -0.6901
  199MOL0     C27354  10.155  10.007   1.997 -0.3378 -0.9602  0.5303
  199MOL0     O27355  10.127  10.118   1.914  0.1759  0.8548 -0.2027
  199MOL0     C27356  10.163  10.115   1.780 -0.4233 -0.0108  0.0507
  199MOL0     C27357  10.158   9.999   1.703  0.5118  0.5102 -0.2024
  199MOL0     C27358  10.211   9.999   1.573 -0.3575  1.3014 -0.8744
  199MOL0     C27359  10.273  10.110   1.519  0.0541  0.0383 -1.2285
  199MOL0     O27360  10.319  10.123   1.390 -0.2999 -0.5198 -0.5285
  199MOL0     C27361  10.220  10.102   1.287  0.7861  0.3073  0.8151
  199MOL0     C27362  10.244   9.973   1.194  0.3451  0.1689 -0.2223
  199MOL0     C27363  10.188   9.980   1.057 -0.5142 -0.1985  0.2981
  199MOL0     C27364  10.215  10.115   0.986 -0.5583 -1.0037 -0.1376
  199MOL0     C27365  10.225  10.102   0.838 -0.8001  0.1966  0.3685
  199MOL0     C27366  10.226  10.226   0.747  1.1610  0.5777  0.6966
  199MOL0     C27367  10.185  10.207   0.599 -0.5742  0.3595 -1.1230
  199MOL0     C27368  10.274  10.096   0.542 -0.1494  0.6378 -1.4288
  199MOL0    Cl27369  10.231  10.074   0.373  0.1649  0.1794  0.0799
  199MOL0     C27370  10.287  10.223   1.601  0.9411  0.4457  0.3765
  199MOL0     C27371  10.237  10.230   1.733 -0.5809 -0.2671 -0.5912
  199MOL0     O27372  10.231   9.911   1.972 -0.3617 -0.8690  0.9805
  199MOL0     C27373  10.086  10.161   2.187  0.0934 -0.3478  0.5509
  199MOL0     C27374  10.047  10.191   2.321 -0.2884  0.4480 -0.3452
  199MOL0     N27375   9.441  10.308   2.541  1.1253 -0.1671 -0.1073
  199MOL0     N27376   9.374  10.408   2.508  0.2507 -0.1655 -0.4071
  199MOL0     C27377   9.304  11.098   1.668 -0.2689 -0.1372 -0.0563
  199MOL0     C27378   9.282  11.124   1.532  0.9318 -0.2253  0.8304
  199MOL0     C27379   9.084  11.118   1.131 -0.1402 -0.6255 -0.5246
  199MOL0     C27380   8.946  11.079   1.102  0.5865 -0.0465  0.6439
  199MOL0     C27381   8.900  11.074   0.969 -0.8311  0.4040 -0.1956
  199MOL0     C27382   8.988  11.107   0.859 -0.0015 -0.3716 -0.1454
  199MOL0     O27383   8.932  11.103   0.730  0.3937  0.1763 -0.3558
  199MOL0     C27384   8.924  10.962   0.692 -0.1809 -0.1961  0.7871
  199MOL0     C27385   8.833  10.956   0.576 -0.2272  0.7731  0.1951
  199MOL0     C27386   8.688  10.988   0.603  0.3786 -1.0522 -1.2849
  199MOL0     C27387   8.603  10.999   0.476  0.0395  0.2462 -1.2993
  199MOL0     C27388   8.635  11.122   0.410 -0.8896 -0.7473  0.0315
  199MOL0     C27389   8.681  11.210   0.339  0.4918  1.0596 -0.1264
  199MOL0     C27390   9.120  11.138   0.883  0.5320  0.4101 -0.3584
  199MOL0     C27391   9.168  11.144   1.020  0.3705  0.1333 -0.6583
  199MOL0     C27392   9.322  11.172   1.032 -0.0654  0.4055 -0.7901
  199MOL0     H27393   9.201  10.828   1.419  2.6197 -0.6288  0.3501
  199MOL0     H27394   9.245  10.770   1.667 -0.9821  0.6205 -0.3912
  199MOL0     H27395   9.436  10.770   1.797  0.7524  0.9140 -0.7379
  199MOL0     H27396   9.305  10.749   1.913 -0.9884  1.5863  1.4750
  199MOL0     H27397   9.533  10.725   2.013 -0.1020  0.2208  1.8136
  199MOL0     H27398   9.584  10.879   1.942 -1.7972  1.9581 -2.1680
  199MOL0     H27399   9.425  10.991   2.096 -3.6813 -0.5133  1.7406
  199MOL0     H27400   9.358  10.836   2.144  0.9355 -0.1645  0.9253
  199MOL0     H27401   9.614  10.777   2.206  1.3545 -0.6256  1.3940
  199MOL0     H27402   9.643  10.945   2.157  0.7711 -1.9665  1.1524
  199MOL0     H27403   9.541  11.037   2.348  1.9864  1.1483 -1.1357
  199MOL0     H27404   9.655  10.916   2.404 -0.2008  0.7412 -0.7611
  199MOL0     H27405   9.429  10.900   2.527 -0.6659 -1.0530 -0.5367
  199MOL0     H27406   9.359  10.878   2.363  0.1505 -1.5855 -3.1193
  199MOL0     H27407   9.551  10.703   2.512  1.0801  2.5563 -0.6624
  199MOL0     H27408   9.470  10.658   2.358  3.6201 -0.5376 -0.3860
  199MOL0     H27409   9.357  10.701   2.645  1.7195  0.8376  0.6936
  199MOL0     H27410   9.251  10.651   2.507  0.3745  1.3798  0.3128
  199MOL0     H27411   9.517  10.536   2.774  0.8955  2.2637 -0.7826
  199MOL0     H27412   9.513  10.159   2.772 -1.2833  1.8909  0.1172
  199MOL0     H27413   9.626  10.281   2.814 -0.4274  2.8578 -1.5795
  199MOL0     H27414   9.645  10.127   2.544  2.8085  0.7808 -1.6526
  199MOL0     H27415   9.740  10.275   2.584  0.1088  0.4480  1.9807
  199MOL0     H27416   9.840  10.152   2.768 -0.4382 -1.1235  1.2374
  199MOL0     H27417   9.733  10.019   2.754 -0.4775  0.1596  0.8844
  199MOL0     H27418   9.957   9.963   2.650  2.9673  1.4696 -1.7227
  199MOL0     H27419   9.840   9.964   2.523  2.8966 -0.5371 -1.3710
  199MOL0     H27420  10.014   9.879   2.429 -1.5277 -0.6892 -1.1279
  199MOL0     H27421   9.995   9.711   2.245  0.5403 -1.5276 -0.5867
  199MOL0     H27422  10.163   9.747   2.194 -0.6655 -1.3237  0.4176
  199MOL0     H27423  10.018   9.755   2.077 -1.0380  0.0184 -0.0745
  199MOL0     H27424  10.110   9.912   1.746  0.8064  0.9594  1.0860
  199MOL0     H27425  10.201   9.907   1.517 -2.0726  2.0281 -1.8470
  199MOL0     H27426  10.120  10.098   1.330  0.5995  1.0580  0.4544
  199MOL0     H27427  10.210  10.190   1.223  0.6728  0.2158  0.7070
  199MOL0     H27428  10.352   9.957   1.203  0.1895  0.2316  2.6703
  199MOL0     H27429  10.193   9.896   1.252  0.1426  1.0228  0.7525
  199MOL0     H27430  10.081   9.959   1.046 -0.1511 -1.2752 -1.6856
  199MOL0     H27431  10.233   9.895   1.005 -2.5131 -3.2205  3.1169
  199MOL0     H27432  10.309  10.159   1.021 -1.2732  0.5470 -0.1160
  199MOL0     H27433  10.140  10.185   1.023  0.2778 -0.5500  0.7644
  199MOL0     H27434  10.327  10.066   0.821 -1.1694 -1.0625  0.7395
  199MOL0     H27435  10.161  10.023   0.798 -0.0468  0.0574 -0.6271
  199MOL0     H27436  10.328  10.264   0.753  1.0382  0.8998  0.7452
  199MOL0     H27437  10.154  10.292   0.795  0.2527 -0.5475  0.9369
  199MOL0     H27438  10.201  10.302   0.547 -3.3875 -0.2836 -3.4346
  199MOL0     H27439  10.078  10.182   0.593  0.2784 -3.6517 -5.0411
  199MOL0     H27440  10.269  10.004   0.600  1.1425  1.6815  0.4272
  199MOL0     H27441  10.380  10.124   0.546  0.3670 -1.1088 -2.1353
  199MOL0     H27442  10.347  10.305   1.562  1.0533  1.2511  2.1230
  199MOL0     H27443  10.262  10.311   1.800 -0.8552  1.2069 -2.2093
  199MOL0     H27444  10.119  10.238   2.118  1.5769 -1.4439 -0.0174
  199MOL0     H27445  10.034  10.291   2.361  0.0093  0.3314  0.0538
  199MOL0     H27446   9.321  11.173   1.744 -1.1175 -1.5410  1.5958
  199MOL0     H27447   9.292  11.229   1.505 -1.8474  0.5868  2.4419
  199MOL0     H27448   8.871  11.061   1.178  3.8716 -0.0809  4.1486
  199MOL0     H27449   8.794  11.058   0.951 -0.8357  1.3263 -1.0866
  199MOL0     H27450   9.021  10.913   0.677 -0.6822 -1.3596  1.2591
  199MOL0     H27451   8.877  10.899   0.768  0.6449 -2.3933 -0.4656
  199MOL0     H27452   8.842  10.854   0.537  3.1224  0.5981  1.1809
  199MOL0     H27453   8.876  11.018   0.497 -0.3745 -0.3710 -0.8176
  199MOL0     H27454   8.644  10.903   0.655  1.3773 -2.3683 -2.5133
  199MOL0     H27455   8.702  11.076   0.666  4.0781 -0.8271 -2.1845
  199MOL0     H27456   8.498  10.991   0.506  0.7745  0.8751  1.8948
  199MOL0     H27457   8.624  10.922   0.402 -3.1181  0.5170 -2.6487
  199MOL0     H27458   8.727  11.295   0.293  2.3600  0.2176  0.0782
  199MOL0     H27459   9.203  11.151   0.815  2.8871  0.4309  2.3165
  199MOL0     H27460   9.361  11.100   1.105  2.1970  1.6634 -0.6564
  199MOL0     H27461   9.369  11.152   0.936 -0.1656  2.4727 -1.3180
  199MOL0     H27462   9.326  11.278   1.058  0.0802 -0.0654  1.3655
  200MOL0     O27463   0.719   3.325   6.878 -0.0475  0.2238 -0.2866
  200MOL0     C27464   0.816   3.254   6.855 -0.1730  0.1701  0.2460
  200MOL0     O27465   0.834   3.193   6.736  0.1779  0.0199  0.5697
  200MOL0     C27466   0.737   3.219   6.643  0.0071 -0.0372  0.6281
  200MOL0     C27467   0.772   3.312   6.543 -0.6505 -1.2740 -0.0968
  200MOL0     C27468   0.697   3.337   6.430 -0.3061  0.1309 -0.9864
  200MOL0     C27469   0.571   3.272   6.422 -0.5777  0.2626  0.3686
  200MOL0     O27470   0.507   3.297   6.306  0.8381 -0.0563 -0.0290
  200MOL0     C27471   0.407   3.209   6.255  0.0751  0.5409 -0.5186
  200MOL0     C27472   0.328   3.292   6.151 -0.1855 -0.3863  0.1855
  200MOL0     C27473   0.203   3.214   6.096 -0.0087  0.0768  0.3520
  200MOL0     C27474   0.137   3.276   5.972 -0.7408 -0.6999  0.0061
  200MOL0     C27475   0.068   3.193   5.866  0.4373  0.9979 -0.2869
  200MOL0     C27476  -0.056   3.119   5.927  0.3130 -0.0718 -0.9979
  200MOL0     C27477  -0.138   3.039   5.818 -0.6781 -0.8174 -0.4229
  200MOL0     C27478  -0.267   2.967   5.882  0.1539 -1.4967  0.3681
  200MOL0     N27479  -0.387   2.956   5.790 -0.6336 -0.1945 -0.2241
  200MOL0     C27480  -0.516   2.994   5.833  0.0445 -0.6353 -0.0585
  200MOL0     C27481  -0.605   2.952   5.732  0.4389 -0.3430  0.5232
  200MOL0     C27482  -0.754   2.977   5.720  0.5086  0.0363  0.6292
  200MOL0     C27483  -0.798   3.019   5.574  0.0995 -0.1924  0.2673
  200MOL0     C27484  -0.798   2.898   5.483  0.9705 -0.1665  0.2652
  200MOL0     C27485  -0.880   2.917   5.358  0.2886  0.2693  0.0986
  200MOL0     O27486  -0.817   3.029   5.289  0.3745  0.7458  0.0735
  200MOL0     C27487  -0.859   3.073   5.167 -0.1279  0.3012  0.0137
  200MOL0     C27488  -0.932   2.996   5.080  0.1928 -0.2398 -1.2732
  200MOL0     C27489  -0.964   3.051   4.954 -0.0358 -0.0601  0.5939
  200MOL0     C27490  -1.042   2.961   4.865  0.5467  0.3418 -0.3320
  200MOL0     C27491  -0.920   3.180   4.918 -1.4478  0.0624  0.1310
  200MOL0     C27492  -0.953   3.251   4.784  0.0873 -0.1797 -0.4004
  200MOL0     O27493  -0.935   3.388   4.779  0.0589 -0.2943  0.0169
  200MOL0     C27494  -0.974   3.450   4.661  0.1064 -0.4414 -0.1497
  200MOL0     C27495  -1.074   3.547   4.666 -0.6670 -0.4290 -0.0934
  200MOL0     C27496  -1.093   3.625   4.552  0.6131  0.3531  0.7005
  200MOL0     C27497  -1.034   3.592   4.430  0.2471 -0.7785 -0.7679
  200MOL0     O27498  -1.055   3.659   4.313 -0.3112 -0.8284  0.6570
  200MOL0     C27499  -1.029   3.800   4.328 -0.7046 -0.2691  0.0552
  200MOL0     C27500  -0.876   3.830   4.334  1.2479 -0.5367 -0.1605
  200MOL0     C27501  -0.851   3.975   4.337 -0.0917 -0.6590  0.6005
  200MOL0     C27502  -0.909   4.067   4.442  1.2320 -0.2601 -0.3361
  200MOL0     C27503  -0.876   4.213   4.405 -0.8713 -0.4096  0.5346
  200MOL0     C27504  -0.882   4.313   4.522  0.4137 -0.0394 -0.1162
  200MOL0     C27505  -1.015   4.383   4.569  0.1370 -0.0770 -0.7469
  200MOL0     C27506  -1.004   4.520   4.633 -0.0237 -1.2153  0.2474
  200MOL0    Cl27507  -0.912   4.507   4.779 -0.0315  0.1837 -0.0459
  200MOL0     C27508  -0.936   3.488   4.423  0.3835 -1.8438 -0.4093
  200MOL0     C27509  -0.914   3.413   4.539  0.0501 -0.1135 -0.8523
  200MOL0     O27510  -0.998   3.174   4.695 -0.3713  0.2120  0.1721
  200MOL0     C27511  -0.859   3.255   5.020  0.2298 -0.0402  0.6315
  200MOL0     C27512  -0.819   3.193   5.136 -0.8215 -0.7055 -0.5951
  200MOL0     N27513  -0.531   2.886   5.635  0.7624 -0.6088 -1.1165
  200MOL0     N27514  -0.406   2.891   5.678  0.3630  0.6812  0.5375
  200MOL0     C27515   0.533   3.177   6.522 -0.0434  0.2283 -0.9792
  200MOL0     C27516   0.612   3.147   6.635  0.7446 -0.1842  0.3441
  200MOL0     C27517   0.926   3.231   6.962 -0.6896  0.2302  0.1156
  200MOL0     C27518   1.029   3.130   6.935  0.0371  0.3346  0.5530
  200MOL0     C27519   1.135   3.113   7.022  0.2175 -0.3424 -0.0750
  200MOL0     C27520   1.139   3.195   7.138 -0.4912 -0.3499  0.0614
  200MOL0     O27521   1.248   3.174   7.221  0.8257  0.0863 -0.0539
  200MOL0     C27522   1.298   3.272   7.310  0.0595 -0.7076 -0.6203
  200MOL0     C27523   1.431   3.223   7.368  0.2259  0.2739  0.1128
  200MOL0     C27524   1.555   3.230   7.282  0.1191  0.4375  0.4105
  200MOL0     C27525   1.673   3.128   7.317 -0.3021 -0.0670  0.1576
  200MOL0     C27526   1.807   3.170   7.271  0.2932 -0.4089  0.4658
  200MOL0     C27527   1.923   3.205   7.247 -0.2132 -0.1455  0.5503
  200MOL0     C27528   1.037   3.285   7.171 -0.3134 -0.5661  0.3773
  200MOL0     C27529   0.925   3.307   7.082 -0.4781  0.1286 -0.6915
  200MOL0     C27530   0.829   3.406   7.127  0.1786  0.4737  0.1122
  200MOL0     H27531   0.873   3.350   6.556 -0.4506 -1.7110 -0.3840
  200MOL0     H27532   0.733   3.402   6.351  1.2490  0.0671 -0.3627
  200MOL0     H27533   0.334   3.179   6.331  3.8279 -1.6776  2.6071
  200MOL0     H27534   0.446   3.126   6.196 -3.4114 -2.4306  0.9700
  200MOL0     H27535   0.292   3.385   6.195  0.0070  0.5543 -1.5408
  200MOL0     H27536   0.402   3.310   6.073  1.2300 -2.9296  0.8020
  200MOL0     H27537   0.245   3.117   6.068  0.6757  0.3354  0.4633
  200MOL0     H27538   0.127   3.205   6.174  0.0775  2.9158  0.8792
  200MOL0     H27539   0.069   3.353   6.012 -0.2809 -1.0482  1.5354
  200MOL0     H27540   0.214   3.336   5.923  0.3225 -0.5927  1.7397
  200MOL0     H27541   0.132   3.117   5.821  0.1826  1.0888 -0.8074
  200MOL0     H27542   0.041   3.262   5.785  2.6422  1.6734 -0.5074
  200MOL0     H27543  -0.037   3.049   6.010 -3.0490  1.1381  0.9556
  200MOL0     H27544  -0.125   3.193   5.966 -0.4973 -0.4187 -1.7521
  200MOL0     H27545  -0.075   2.965   5.767 -0.1648 -1.2040  0.7359
  200MOL0     H27546  -0.170   3.105   5.737 -1.2539 -0.8012 -0.1837
  200MOL0     H27547  -0.236   2.867   5.912  1.1974 -1.9969 -2.1436
  200MOL0     H27548  -0.299   3.021   5.972 -0.7767 -0.4790 -0.5449
  200MOL0     H27549  -0.547   3.037   5.928 -4.1536 -4.0822  0.4522
  200MOL0     H27550  -0.784   3.062   5.782  0.3237  0.4566 -0.0216
  200MOL0     H27551  -0.810   2.890   5.754  0.1819 -0.4628 -1.1110
  200MOL0     H27552  -0.895   3.067   5.589  0.6815  0.3988  2.6736
  200MOL0     H27553  -0.731   3.094   5.531 -1.2640 -0.7321 -3.0872
  200MOL0     H27554  -0.700   2.862   5.451 -0.7545 -2.1230 -3.2936
  200MOL0     H27555  -0.845   2.815   5.537 -0.9080 -0.7297 -2.0915
  200MOL0     H27556  -0.871   2.828   5.295 -0.0838  0.0289  0.3803
  200MOL0     H27557  -0.985   2.930   5.384  1.0135  2.8759  2.1146
  200MOL0     H27558  -0.975   2.903   5.115 -0.9084 -0.0189 -2.0019
  200MOL0     H27559  -1.139   2.995   4.828  0.8860 -0.4011 -2.0101
  200MOL0     H27560  -1.057   2.870   4.924 -1.2496  1.0447  0.3688
  200MOL0     H27561  -0.989   2.938   4.772  0.3455  0.0589 -0.3783
  200MOL0     H27562  -1.098   3.581   4.766 -0.5421 -0.8560  0.0837
  200MOL0     H27563  -1.165   3.707   4.554 -1.0397 -1.0559  1.0484
  200MOL0     H27564  -1.078   3.845   4.241  0.5032 -0.4215 -0.7257
  200MOL0     H27565  -1.058   3.846   4.423  3.0984  1.9952  0.3170
  200MOL0     H27566  -0.846   3.781   4.427  1.9327 -3.2312 -1.6854
  200MOL0     H27567  -0.823   3.779   4.253 -2.1628 -0.9709 -2.3427
  200MOL0     H27568  -0.883   4.024   4.244 -0.7677 -0.1866  1.0786
  200MOL0     H27569  -0.743   3.987   4.320  0.4746  0.2809  4.1611
  200MOL0     H27570  -0.873   4.045   4.543  2.8754  0.1597 -0.7999
  200MOL0     H27571  -1.017   4.063   4.457  1.5686 -0.8125  2.4170
  200MOL0     H27572  -0.768   4.205   4.394 -1.1297 -2.2901 -0.9676
  200MOL0     H27573  -0.919   4.258   4.315  0.2781  1.6918  0.9539
  200MOL0     H27574  -0.800   4.383   4.504 -2.0651  3.8726  2.2417
  200MOL0     H27575  -0.848   4.256   4.609  1.2247 -2.0091 -1.6347
  200MOL0     H27576  -1.069   4.305   4.623  3.7877 -3.2557 -1.2956
  200MOL0     H27577  -1.060   4.405   4.471 -2.6532 -2.6803 -0.1823
  200MOL0     H27578  -1.102   4.563   4.654 -0.2558 -0.3842 -2.2516
  200MOL0     H27579  -0.948   4.582   4.562 -1.1335  0.6182  0.8970
  200MOL0     H27580  -0.875   3.461   4.338 -2.3742  0.2336 -3.2645
  200MOL0     H27581  -0.844   3.331   4.544 -0.6971 -0.6987  0.4601
  200MOL0     H27582  -0.842   3.361   5.002 -0.5226 -0.1604 -0.9966
  200MOL0     H27583  -0.765   3.243   5.216  1.8789  0.3919 -2.9386
  200MOL0     H27584   0.442   3.117   6.518 -0.0741 -0.0854  1.9390
  200MOL0     H27585   0.567   3.084   6.711 -1.1694  0.9348  0.1897
  200MOL0     H27586   1.019   3.069   6.846 -1.5663  0.9448  0.2782
  200MOL0     H27587   1.209   3.039   6.990  0.7534  0.6382 -1.2157
  200MOL0     H27588   1.330   3.366   7.264  0.3176 -1.0529 -1.1698
  200MOL0     H27589   1.225   3.296   7.388  0.4284  1.6934 -0.9498
  200MOL0     H27590   1.419   3.121   7.406  1.2546  0.4714  1.0382
  200MOL0     H27591   1.460   3.278   7.458  1.2565 -0.5397  0.2931
  200MOL0     H27592   1.529   3.218   7.176  0.9344  0.5665  0.1902
  200MOL0     H27593   1.585   3.333   7.303 -2.0532  1.2185 -0.0988
  200MOL0     H27594   1.655   3.031   7.269  3.1500 -1.6865  1.7627
  200MOL0     H27595   1.678   3.110   7.425  0.4629  2.8220  0.6673
  200MOL0     H27596   2.027   3.230   7.246 -0.3594  0.4814 -0.6738
  200MOL0     H27597   1.037   3.341   7.264  1.6961  3.8849 -1.9583
  200MOL0     H27598   0.734   3.353   7.132  1.2574 -2.2175 -3.7171
  200MOL0     H27599   0.847   3.457   7.222  0.8046  2.2284 -0.8913
  200MOL0     H27600   0.819   3.492   7.060  3.9907  1.2711  0.3428
  201MOL0     O27601   4.845   8.523   0.013 -0.8751 -0.1329  0.3288
  201MOL0     C27602   4.921   8.596   0.082  0.2783  0.4189 -1.0413
  201MOL0     O27603   4.890   8.731   0.119 -1.3466  0.1639  0.0855
  201MOL0     C27604   4.843   8.803   0.014 -0.9103 -0.4604  0.8836
  201MOL0     C27605   4.888   8.795  -0.115  0.4913 -0.2158 -0.3580
  201MOL0     C27606   4.837   8.870  -0.214  0.1522 -0.1246 -0.7007
  201MOL0     C27607   4.734   8.967  -0.199 -0.0624 -0.2002 -0.0061
  201MOL0     O27608   4.683   9.034  -0.304  1.3719 -0.3455 -0.6659
  201MOL0     C27609   4.539   9.080  -0.294 -0.4972  0.1975 -0.0355
  201MOL0     C27610   4.453   9.008  -0.395  0.0220  0.2157 -0.0401
  201MOL0     C27611   4.341   9.091  -0.427  0.5330 -0.6311  0.9201
  201MOL0     C27612   4.256   9.030  -0.534 -0.8908 -0.0019 -0.1298
  201MOL0     C27613   4.133   9.106  -0.553  0.4441 -0.0154 -0.1771
  201MOL0     C27614   4.050   9.053  -0.669  0.3119  0.7817 -0.6651
  201MOL0     C27615   3.917   9.135  -0.689 -0.9044  0.7256 -0.7172
  201MOL0     C27616   3.927   9.252  -0.793  0.0209 -0.9877  0.2493
  201MOL0     N27617   4.011   9.359  -0.732 -0.4959  0.3770  0.4843
  201MOL0     C27618   4.143   9.392  -0.753 -0.0244  0.7183  0.8844
  201MOL0     C27619   4.182   9.491  -0.669  0.2946  0.6903 -0.3363
  201MOL0     C27620   4.318   9.554  -0.656 -1.0478 -0.1448  0.1648
  201MOL0     C27621   4.403   9.475  -0.563 -0.1794 -0.2784  0.1722
  201MOL0     C27622   4.515   9.561  -0.484  0.7163  0.0582  0.1834
  201MOL0     C27623   4.589   9.482  -0.381  0.5600  0.7206  0.0731
  201MOL0     O27624   4.496   9.462  -0.271  0.3150  0.7807  0.0913
  201MOL0     C27625   4.536   9.419  -0.150  0.2887 -0.0296 -0.0388
  201MOL0     C27626   4.658   9.349  -0.123 -0.0094 -0.0153 -0.2406
  201MOL0     C27627   4.697   9.310   0.006  0.5807  1.0195  0.0426
  201MOL0     C27628   4.836   9.250   0.024 -0.1937  0.5915  0.3895
  201MOL0     C27629   4.605   9.326   0.110  0.7596 -0.4629 -0.0868
  201MOL0     C27630   4.623   9.276   0.241 -0.3019 -0.3235  0.2894
  201MOL0     O27631   4.580   9.345   0.352 -0.2112  0.1681 -0.7975
  201MOL0     C27632   4.592   9.294   0.479  1.0366  0.5049  0.1370
  201MOL0     C27633   4.661   9.358   0.582 -0.5810 -0.3174 -0.2789
  201MOL0     C27634   4.649   9.314   0.716 -0.6193  0.1956  0.3354
  201MOL0     C27635   4.573   9.199   0.745 -0.4531 -0.1659 -0.9764
  201MOL0     O27636   4.575   9.165   0.877 -0.0773 -0.4048  0.4289
  201MOL0     C27637   4.568   9.022   0.896 -0.5286 -0.4651  0.1799
  201MOL0     C27638   4.627   9.012   1.043  1.3287 -1.0393  0.0053
  201MOL0     C27639   4.777   9.069   1.055  0.8158 -0.2225  0.2035
  201MOL0     C27640   4.846   9.013   1.179  0.5940 -0.8014 -0.0517
  201MOL0     C27641   5.002   9.039   1.163  0.3623 -0.2030  0.2015
  201MOL0     C27642   5.095   8.977   1.268  0.7566 -0.0852 -0.1252
  201MOL0     C27643   5.078   9.031   1.409 -0.0171  0.1615  0.1100
  201MOL0     C27644   5.125   9.177   1.435 -0.1655 -0.1695 -0.1322
  201MOL0    Cl27645   5.001   9.258   1.536  0.1214 -0.0719 -0.1497
  201MOL0     C27646   4.511   9.130   0.644 -0.0557  0.3911  0.2589
  201MOL0     C27647   4.521   9.173   0.513 -0.3597  0.1898 -0.2798
  201MOL0     O27648   4.685   9.169   0.243  0.2784 -0.0679 -0.1160
  201MOL0     C27649   4.485   9.397   0.086 -0.4324  0.3197  0.6410
  201MOL0     C27650   4.454   9.449  -0.040  0.4788  0.5854 -0.6172
  201MOL0     N27651   4.062   9.533  -0.611 -0.5397  0.2085 -0.4900
  201MOL0     N27652   3.968   9.461  -0.653  0.2287 -0.0038  1.1641
  201MOL0     C27653   4.687   8.978  -0.066 -0.0551  0.0668 -0.1963
  201MOL0     C27654   4.741   8.892   0.034  0.2265  0.1837 -0.9110
  201MOL0     C27655   5.015   8.525   0.176  0.4185 -0.7438 -0.1078
  201MOL0     C27656   5.031   8.583   0.308  0.9168 -0.0477 -0.1889
  201MOL0     C27657   5.136   8.546   0.397 -1.1029 -0.2260  1.0135
  201MOL0     C27658   5.210   8.427   0.371 -0.4985  0.1883  0.2877
  201MOL0     O27659   5.315   8.371   0.449 -0.1833 -0.2411 -0.1020
  201MOL0     C27660   5.396   8.463   0.519  0.0500 -0.2967  1.3847
  201MOL0     C27661   5.338   8.486   0.661  1.1515  0.3676 -0.0767
  201MOL0     C27662   5.448   8.471   0.765  0.0998  0.5293 -0.3970
  201MOL0     C27663   5.387   8.525   0.894 -0.4315  0.0842 -0.2553
  201MOL0     C27664   5.249   8.491   0.931  0.0272 -0.0507 -0.6198
  201MOL0     C27665   5.130   8.461   0.950  0.6873 -0.5783 -1.5248
  201MOL0     C27666   5.180   8.367   0.248 -0.6395 -0.8202 -0.2355
  201MOL0     C27667   5.094   8.415   0.150 -0.2220 -0.6452  0.0233
  201MOL0     C27668   5.090   8.342   0.021 -0.0823  0.3273  0.8479
  201MOL0     H27669   4.967   8.722  -0.130  0.7974 -0.2978  1.4123
  201MOL0     H27670   4.869   8.834  -0.311  1.1993 -2.7276  0.4947
  201MOL0     H27671   4.545   9.188  -0.307  1.1004  0.0241 -1.0797
  201MOL0     H27672   4.489   9.054  -0.200  1.7574 -0.6823  0.9853
  201MOL0     H27673   4.514   9.006  -0.486 -0.9449  1.2076 -0.7392
  201MOL0     H27674   4.424   8.911  -0.354  0.6389  0.7051  1.6108
  201MOL0     H27675   4.292   9.110  -0.331 -1.1429 -2.3373  0.4509
  201MOL0     H27676   4.387   9.183  -0.463  0.4626 -0.3809  1.4585
  201MOL0     H27677   4.312   9.032  -0.628 -1.2410  1.1240 -0.3272
  201MOL0     H27678   4.236   8.925  -0.512 -0.3656 -0.0045  0.3844
  201MOL0     H27679   4.162   9.208  -0.579  0.1730 -1.0782 -5.8871
  201MOL0     H27680   4.076   9.112  -0.460 -3.1542  2.3612 -2.2897
  201MOL0     H27681   4.112   9.058  -0.759  3.9957 -0.3049  1.5992
  201MOL0     H27682   4.033   8.947  -0.650 -1.8228  1.3987  1.4729
  201MOL0     H27683   3.881   9.176  -0.594 -0.6767  1.7824 -1.0639
  201MOL0     H27684   3.848   9.063  -0.731 -0.1055 -0.1565 -0.5526
  201MOL0     H27685   3.962   9.203  -0.885 -4.5623 -0.3897 -2.1043
  201MOL0     H27686   3.823   9.283  -0.806 -0.4454 -2.4961  0.2203
  201MOL0     H27687   4.209   9.338  -0.820  1.0729 -3.0117  4.5558
  201MOL0     H27688   4.313   9.654  -0.612  2.7737  0.3198 -0.1617
  201MOL0     H27689   4.380   9.562  -0.745  0.3580 -0.6396  1.0587
  201MOL0     H27690   4.340   9.424  -0.489  0.6434 -0.2305  0.9146
  201MOL0     H27691   4.451   9.394  -0.619 -0.7167 -2.1704  2.2991
  201MOL0     H27692   4.585   9.593  -0.561  1.4122 -1.4410  0.1614
  201MOL0     H27693   4.468   9.646  -0.434  0.8998 -0.1583  0.7400
  201MOL0     H27694   4.620   9.391  -0.433  2.6008  1.1068  0.5444
  201MOL0     H27695   4.683   9.530  -0.354  2.2741 -1.7751 -1.1822
  201MOL0     H27696   4.724   9.339  -0.209  0.3769  2.3691 -0.3021
  201MOL0     H27697   4.892   9.299   0.105 -0.3444  2.7632 -0.7553
  201MOL0     H27698   4.894   9.253  -0.068 -0.4371  0.8389  0.2455
  201MOL0     H27699   4.833   9.142   0.043 -0.8032  0.8412  1.8204
  201MOL0     H27700   4.718   9.449   0.564 -0.0483 -0.9259 -1.7880
  201MOL0     H27701   4.714   9.361   0.788  0.7120  0.4221 -0.9720
  201MOL0     H27702   4.465   8.986   0.891 -0.3498 -1.1216  0.9436
  201MOL0     H27703   4.632   8.972   0.823  0.5942  0.2974  0.6045
  201MOL0     H27704   4.557   9.073   1.102  2.1173 -2.9035  3.1240
  201MOL0     H27705   4.612   8.914   1.088 -1.6920  0.2324  2.1574
  201MOL0     H27706   4.777   9.177   1.067  0.2563  0.0684 -2.0934
  201MOL0     H27707   4.831   9.048   0.962  1.5145 -1.6657  0.9010
  201MOL0     H27708   4.825   8.906   1.187 -0.1598 -0.5294  2.6131
  201MOL0     H27709   4.803   9.061   1.267 -0.9192 -0.3684 -0.9908
  201MOL0     H27710   5.027   8.989   1.069  2.8849 -1.3552  1.3928
  201MOL0     H27711   5.026   9.146   1.158 -1.2463  0.1456 -1.0437
  201MOL0     H27712   5.197   8.992   1.231  0.1129  1.7385 -1.3050
  201MOL0     H27713   5.090   8.868   1.270  0.5830 -0.0607  0.8417
  201MOL0     H27714   5.138   8.964   1.472 -1.5990 -2.5971 -1.0984
  201MOL0     H27715   4.974   9.005   1.433  0.5579 -0.2570  2.3210
  201MOL0     H27716   5.131   9.227   1.338 -0.7705 -0.1214 -0.1536
  201MOL0     H27717   5.224   9.170   1.479  0.1574  0.0757 -0.8122
  201MOL0     H27718   4.449   9.044   0.670 -0.5748  1.6826  3.8531
  201MOL0     H27719   4.463   9.123   0.437 -1.9288  1.9742 -0.3296
  201MOL0     H27720   4.411   9.424   0.160 -1.4222  1.5404 -0.7413
  201MOL0     H27721   4.360   9.502  -0.052 -0.1129 -0.2682  0.1245
  201MOL0     H27722   4.613   9.053  -0.041  0.7772  0.7697  0.2029
  201MOL0     H27723   4.705   8.904   0.136  0.4048  1.4815 -0.9761
  201MOL0     H27724   4.968   8.665   0.341 -0.5002 -1.0380 -0.3794
  201MOL0     H27725   5.153   8.593   0.493  0.3720 -0.3986  0.8609
  201MOL0     H27726   5.488   8.404   0.514 -1.0711 -2.0578 -1.9972
  201MOL0     H27727   5.393   8.554   0.458 -1.6057 -1.0878  0.1964
  201MOL0     H27728   5.262   8.409   0.682 -0.0189  0.8104 -2.3748
  201MOL0     H27729   5.285   8.581   0.670 -0.7778 -0.7760  1.3946
  201MOL0     H27730   5.474   8.367   0.783 -1.7203 -0.4020 -2.5564
  201MOL0     H27731   5.545   8.514   0.741  1.0129 -0.6482  1.0821
  201MOL0     H27732   5.385   8.632   0.872 -0.3534 -0.0722 -1.0706
  201MOL0     H27733   5.460   8.507   0.974 -2.4325  0.0170  1.6345
  201MOL0     H27734   5.026   8.440   0.960  0.3176  1.4821 -0.5968
  201MOL0     H27735   5.256   8.291   0.231 -0.6666 -1.9411  3.6904
  201MOL0     H27736   5.024   8.255   0.024 -0.0216  0.1368 -1.4118
  201MOL0     H27737   5.070   8.403  -0.067  3.1719  0.6801  0.2307
  201MOL0     H27738   5.192   8.303   0.007 -0.5217 -0.2145 -1.1923
  202MOL0     O27739  10.229   4.243   9.575  0.5144 -0.0232 -0.4938
  202MOL0     C27740  10.117   4.190   9.563  0.3055  0.5030  0.1000
  202MOL0     O27741  10.082   4.107   9.459 -0.6833  0.2165  0.2590
  202MOL0     C27742  10.179   4.066   9.370  0.3474  0.1321  0.2125
  202MOL0     C27743  10.210   4.150   9.260 -0.4224 -0.5258  0.3389
  202MOL0     C27744  10.296   4.104   9.163 -0.1367 -0.0025  1.6073
  202MOL0     C27745  10.367   3.980   9.174 -0.7325  0.4040  0.2894
  202MOL0     O27746  10.451   3.923   9.089 -0.1649  0.4253  0.2830
  202MOL0     C27747  10.482   3.986   8.960 -0.4627  0.1698  0.2165
  202MOL0     C27748  10.554   3.883   8.867  0.1992  0.9115 -0.4918
  202MOL0     C27749  10.694   3.848   8.926 -0.2013  0.3160 -0.5117
  202MOL0     C27750  10.688   3.704   8.968  0.2581  0.0251  0.8863
  202MOL0     C27751  10.798   3.654   9.059 -0.1782  0.5385 -0.6868
  202MOL0     C27752  10.763   3.669   9.206  0.5637 -0.3349  0.1930
  202MOL0     C27753  10.883   3.633   9.301  0.0165 -1.1531  0.2791
  202MOL0     C27754  10.832   3.575   9.438  0.4863 -0.8138  0.4543
  202MOL0     N27755  10.801   3.699   9.516  0.6965  0.5734 -0.3919
  202MOL0     C27756  10.679   3.769   9.509  0.2956 -0.7684  0.2912
  202MOL0     C27757  10.671   3.852   9.618  0.6945 -0.3031  0.2640
  202MOL0     C27758  10.558   3.949   9.648 -0.0467 -0.5411 -0.2512
  202MOL0     C27759  10.451   3.882   9.727 -0.2718 -0.2943  0.2462
  202MOL0     C27760  10.494   3.861   9.877  1.0340 -0.1711  0.6797
  202MOL0     C27761  10.385   3.798   9.966  0.4950  0.7232  0.2929
  202MOL0     O27762  10.263   3.874   9.975  0.0431  0.3880 -0.0479
  202MOL0     C27763  10.148   3.823  10.041 -0.3978  0.0002 -0.5350
  202MOL0     C27764  10.170   3.712  10.119  0.5374  0.2179  1.2781
  202MOL0     C27765  10.068   3.671  10.208  0.5878  0.1880 -0.5743
  202MOL0     C27766  10.098   3.539  10.281  0.0620 -1.4397 -0.2199
  202MOL0     C27767   9.939   3.733  10.214 -0.2925  0.6687  0.0533
  202MOL0     C27768   9.828   3.705  10.314 -0.6167  1.0012  0.1726
  202MOL0     O27769   9.752   3.820  10.342 -0.4030  0.3337 -0.4315
  202MOL0     C27770   9.647   3.800  10.423  0.0033  0.4958 -0.7851
  202MOL0     C27771   9.526   3.837  10.376 -0.5316 -0.3804 -0.8244
  202MOL0     C27772   9.413   3.827  10.453  1.2635 -0.3191  0.8366
  202MOL0     C27773   9.427   3.790  10.584  0.6500 -0.7380  0.6392
  202MOL0     O27774   9.313   3.769  10.666  0.3335  0.8640 -0.6205
  202MOL0     C27775   9.329   3.799  10.806 -0.0419 -0.4537  0.3249
  202MOL0     C27776   9.203   3.837  10.873  0.0303  0.3718 -0.2598
  202MOL0     C27777   9.170   3.982  10.838  0.0399 -0.1799  0.2382
  202MOL0     C27778   9.036   4.038  10.887  0.4542 -0.5432  0.6001
  202MOL0     C27779   8.990   4.169  10.821 -0.0179  0.3629  0.2084
  202MOL0     C27780   8.847   4.216  10.861  0.5865  0.0416 -0.7201
  202MOL0     C27781   8.812   4.358  10.797 -0.7350 -0.1438 -0.1054
  202MOL0     C27782   8.673   4.409  10.846  0.6714 -0.6625  0.7190
  202MOL0    Cl27783   8.541   4.294  10.791 -0.0954 -0.3256 -0.3650
  202MOL0     C27784   9.554   3.768  10.635 -0.6804 -0.8304 -0.2689
  202MOL0     C27785   9.666   3.763  10.558  0.7488  0.5776  0.5105
  202MOL0     O27786   9.804   3.589  10.353 -0.8169  0.4536 -0.5231
  202MOL0     C27787   9.933   3.851  10.133 -0.0092  0.4211  0.3632
  202MOL0     C27788  10.033   3.891  10.054 -0.1083  1.0250  0.6398
  202MOL0     N27789  10.788   3.831   9.694  0.2227  0.3060 -1.0244
  202MOL0     N27790  10.860   3.740   9.636 -0.0182  0.0197  0.0907
  202MOL0     C27791  10.332   3.899   9.286 -0.2591 -0.6858 -0.5293
  202MOL0     C27792  10.241   3.944   9.380  0.3141  0.4102 -0.6554
  202MOL0     C27793  10.022   4.201   9.675  0.3869 -0.3473 -0.8949
  202MOL0     C27794   9.991   4.335   9.711  0.2130 -0.0305 -0.9871
  202MOL0     C27795   9.893   4.373   9.801  0.8799  1.5116 -0.0361
  202MOL0     C27796   9.820   4.269   9.865  0.0643 -0.4430  0.2189
  202MOL0     O27797   9.719   4.309   9.943 -0.2116  0.4993 -0.1087
  202MOL0     C27798   9.697   4.222  10.052 -0.2418 -0.2158 -0.6137
  202MOL0     C27799   9.614   4.295  10.157 -0.6814 -0.8937  0.7176
  202MOL0     C27800   9.570   4.199  10.272  0.3428 -0.6055  0.2428
  202MOL0     C27801   9.469   4.267  10.369 -0.3422 -0.7315  0.0585
  202MOL0     C27802   9.543   4.357  10.459 -0.8578 -0.5793 -0.1699
  202MOL0     C27803   9.589   4.450  10.523 -0.4899  0.2158 -0.2495
  202MOL0     C27804   9.855   4.138   9.839  0.0882  0.1948 -0.6536
  202MOL0     C27805   9.951   4.100   9.744 -0.0552 -0.7104  0.7095
  202MOL0     C27806   9.985   3.959   9.727 -0.8835  0.3148  0.5082
  202MOL0     H27807  10.150   4.240   9.255 -0.8985 -0.6657  2.4185
  202MOL0     H27808  10.325   4.168   9.081 -1.4226  0.8432  1.8040
  202MOL0     H27809  10.554   4.067   8.972 -0.6452  0.7351 -2.0101
  202MOL0     H27810  10.389   4.023   8.916  0.4323  0.9912 -1.0548
  202MOL0     H27811  10.486   3.801   8.844  1.4617 -0.5016  0.6225
  202MOL0     H27812  10.572   3.918   8.765  0.2830  1.2608 -0.3583
  202MOL0     H27813  10.781   3.868   8.862  1.5011 -1.9908  0.8844
  202MOL0     H27814  10.713   3.905   9.018  2.8015 -3.9544  1.8560
  202MOL0     H27815  10.591   3.686   9.014 -0.0475  2.1588  1.1913
  202MOL0     H27816  10.684   3.651   8.873 -1.1750  0.8898  0.4309
  202MOL0     H27817  10.884   3.717   9.035  0.6287 -0.3592 -0.1563
  202MOL0     H27818  10.822   3.548   9.054 -0.2850  0.5644 -2.5984
  202MOL0     H27819  10.735   3.774   9.220 -3.6463 -1.0044 -1.5350
  202MOL0     H27820  10.666   3.629   9.236  1.5558 -1.6703  1.7713
  202MOL0     H27821  10.940   3.725   9.319 -2.7794  0.5170  1.1766
  202MOL0     H27822  10.951   3.556   9.262  1.0085 -0.5556  0.7930
  202MOL0     H27823  10.741   3.515   9.427 -1.3872  1.7678  0.9964
  202MOL0     H27824  10.910   3.510   9.479  0.6588 -0.7147  0.2827
  202MOL0     H27825  10.598   3.744   9.441 -0.2091 -1.4632  1.1335
  202MOL0     H27826  10.514   3.971   9.550  0.7583 -3.7808 -1.4688
  202MOL0     H27827  10.593   4.044   9.688 -1.5683 -0.8186  1.9706
  202MOL0     H27828  10.355   3.933   9.717 -0.1701 -0.1599 -0.0865
  202MOL0     H27829  10.442   3.781   9.687  1.9263 -0.3943 -0.0848
  202MOL0     H27830  10.586   3.803   9.885  0.5171 -0.7239  3.2726
  202MOL0     H27831  10.510   3.957   9.927 -3.7567  0.4276  1.5568
  202MOL0     H27832  10.373   3.691   9.944  1.3206  0.7131 -0.1333
  202MOL0     H27833  10.427   3.798  10.067 -0.7109 -0.9658  0.8419
  202MOL0     H27834  10.267   3.662  10.122 -0.0611 -1.1691 -0.6280
  202MOL0     H27835  10.035   3.467  10.229 -2.9172  2.6786 -2.8844
  202MOL0     H27836  10.074   3.545  10.388  1.7668  0.2301  0.1256
  202MOL0     H27837  10.203   3.506  10.282  0.1043 -1.5298  2.8802
  202MOL0     H27838   9.516   3.879  10.276  2.8630 -1.4156 -1.7125
  202MOL0     H27839   9.312   3.842  10.417  1.4342 -0.3087  0.3620
  202MOL0     H27840   9.367   3.701  10.835 -2.6329 -2.8873 -3.5702
  202MOL0     H27841   9.400   3.879  10.830  0.4833 -0.6479 -0.5201
  202MOL0     H27842   9.117   3.778  10.840 -0.9109  2.1370 -1.1222
  202MOL0     H27843   9.225   3.845  10.980  2.5171  0.9497 -0.7566
  202MOL0     H27844   9.173   3.984  10.729 -0.9858 -2.4680  0.0955
  202MOL0     H27845   9.250   4.048  10.873 -0.9066  1.3359 -0.3548
  202MOL0     H27846   9.050   4.053  10.994  2.0780  0.3604  0.2946
  202MOL0     H27847   8.954   3.969  10.864 -3.4953  3.1667  2.2357
  202MOL0     H27848   9.070   4.240  10.843  1.0647 -0.3774 -1.1848
  202MOL0     H27849   8.997   4.143  10.715  1.3443  2.5610 -0.3018
  202MOL0     H27850   8.842   4.224  10.970 -0.1615  0.3864 -0.7708
  202MOL0     H27851   8.779   4.135  10.834 -0.8883  1.1419 -0.4324
  202MOL0     H27852   8.813   4.349  10.688  1.1599  1.0495 -0.2225
  202MOL0     H27853   8.886   4.432  10.827 -1.4496 -0.0477  1.5539
  202MOL0     H27854   8.645   4.507  10.806 -0.2339 -0.3483  2.0360
  202MOL0     H27855   8.663   4.405  10.955 -2.2172  1.3281  0.6518
  202MOL0     H27856   9.569   3.739  10.738  0.2881 -0.8992 -0.4149
  202MOL0     H27857   9.755   3.727  10.610 -0.4228 -1.9800  0.9122
  202MOL0     H27858   9.852   3.923  10.147  1.6569  2.0648  2.0951
  202MOL0     H27859  10.042   3.981   9.994  1.0396 -0.2566 -1.2346
  202MOL0     H27860  10.375   3.799   9.288 -1.5433 -1.3020 -2.0321
  202MOL0     H27861  10.211   3.881   9.464  0.9983  1.5663  0.4912
  202MOL0     H27862  10.055   4.412   9.669  1.3572  1.0955  2.5076
  202MOL0     H27863   9.879   4.478   9.826  2.2043  1.4243  1.2202
  202MOL0     H27864   9.642   4.133  10.020  0.5307 -2.5100  3.6490
  202MOL0     H27865   9.791   4.191  10.098 -0.8025 -1.0586  0.0044
  202MOL0     H27866   9.523   4.319  10.102 -0.4784 -0.2465  0.6541
  202MOL0     H27867   9.672   4.378  10.198  0.9745 -3.0957  3.2131
  202MOL0     H27868   9.516   4.115  10.226 -2.9963  1.2159  0.5273
  202MOL0     H27869   9.653   4.151  10.324 -0.5602 -0.8696  1.5091
  202MOL0     H27870   9.428   4.192  10.437  0.3671 -0.6576  0.5729
  202MOL0     H27871   9.390   4.319  10.313  0.0284  0.9146  1.0046
  202MOL0     H27872   9.632   4.530  10.580 -0.2779  0.5713 -0.8956
  202MOL0     H27873   9.800   4.057   9.886  1.4940 -0.5313 -0.1973
  202MOL0     H27874  10.084   3.923   9.755  0.0031  1.6488 -0.8257
  202MOL0     H27875   9.905   3.893   9.763 -1.6546 -0.8711 -2.9756
  202MOL0     H27876   9.985   3.944   9.619  3.3516  0.2711  0.3739
  203MOL0     O27877   2.441   7.284   0.797  0.2166  0.2495 -0.4684
  203MOL0     C27878   2.323   7.254   0.826  0.4440 -0.9551 -0.2617
  203MOL0     O27879   2.242   7.163   0.766  0.0016  0.1504  0.9826
  203MOL0     C27880   2.282   7.118   0.643  0.1359 -0.8502 -0.2419
  203MOL0     C27881   2.382   7.029   0.622 -0.7400 -0.1195 -0.9399
  203MOL0     C27882   2.418   6.998   0.493 -0.3098  0.0293  0.2849
  203MOL0     C27883   2.352   7.050   0.387  0.4164 -1.1295  0.0995
  203MOL0     O27884   2.386   7.028   0.252 -0.0716 -0.2426 -0.4165
  203MOL0     C27885   2.447   6.908   0.209 -0.1338 -0.1496  0.0319
  203MOL0     C27886   2.449   6.903   0.056  0.0033 -0.4623 -0.0823
  203MOL0     C27887   2.319   6.843  -0.007 -0.5917 -0.0351 -0.3487
  203MOL0     C27888   2.338   6.705  -0.060  0.4078  0.2809  0.4297
  203MOL0     C27889   2.215   6.635  -0.121  0.1356  0.1949 -0.3690
  203MOL0     C27890   2.252   6.496  -0.177 -0.2519 -0.7839 -0.2079
  203MOL0     C27891   2.181   6.440  -0.301  1.1650 -0.3890 -0.3757
  203MOL0     C27892   2.070   6.342  -0.242  0.6273 -0.9570 -0.0583
  203MOL0     N27893   1.969   6.306  -0.347  0.4236 -0.1697 -0.0536
  203MOL0     C27894   1.981   6.285  -0.479  0.1885 -0.6283  0.3008
  203MOL0     C27895   1.876   6.215  -0.522 -1.1223 -0.5376  0.5369
  203MOL0     C27896   1.861   6.159  -0.663 -0.0723  0.7935 -0.7628
  203MOL0     C27897   1.927   6.232  -0.779 -0.0035  0.8167 -0.5898
  203MOL0     C27898   1.870   6.379  -0.802  0.0868  0.4945  0.1396
  203MOL0     C27899   1.966   6.459  -0.881  0.3114 -0.7620 -0.4075
  203MOL0     O27900   2.098   6.461  -0.824 -0.4764 -0.8126 -0.2322
  203MOL0     C27901   2.166   6.568  -0.814 -0.1306 -0.8074 -0.2134
  203MOL0     C27902   2.253   6.558  -0.709 -0.0208 -0.1433 -0.4956
  203MOL0     C27903   2.342   6.665  -0.681 -0.0259  0.4512 -0.0944
  203MOL0     C27904   2.434   6.619  -0.573 -0.7345  0.3355  0.1505
  203MOL0     C27905   2.331   6.786  -0.752  0.0257  0.5828  0.6761
  203MOL0     C27906   2.415   6.905  -0.735 -0.6098  0.6000  0.1204
  203MOL0     O27907   2.399   7.013  -0.818  0.2816 -1.1251  0.5794
  203MOL0     C27908   2.452   7.145  -0.790  0.2846  0.8562 -0.0890
  203MOL0     C27909   2.570   7.185  -0.722  0.5738 -0.0903 -0.3129
  203MOL0     C27910   2.586   7.322  -0.692  0.2992  0.2551 -2.0520
  203MOL0     C27911   2.511   7.424  -0.751 -1.5020  0.4940  0.3427
  203MOL0     O27912   2.542   7.554  -0.698 -0.7641  0.6399  0.4259
  203MOL0     C27913   2.496   7.670  -0.776 -0.7786  0.6323  0.0062
  203MOL0     C27914   2.553   7.800  -0.717 -0.8078  0.7440  0.5782
  203MOL0     C27915   2.712   7.800  -0.736 -0.1776 -0.6639 -1.2381
  203MOL0     C27916   2.763   7.935  -0.798  0.3449  0.3757 -0.6712
  203MOL0     C27917   2.910   7.969  -0.777 -0.6638  1.1371  0.4760
  203MOL0     C27918   3.017   7.900  -0.869  0.3004  0.5011  0.5739
  203MOL0     C27919   3.162   7.916  -0.829  0.2542 -0.3380 -0.6407
  203MOL0     C27920   3.243   7.818  -0.922 -0.1456 -0.4418  0.2416
  203MOL0    Cl27921   3.418   7.832  -0.891  0.5012  0.5607 -0.4746
  203MOL0     C27922   2.411   7.384  -0.842  1.1655 -0.3239  0.4691
  203MOL0     C27923   2.384   7.244  -0.855  0.3775 -0.4691 -0.0207
  203MOL0     O27924   2.504   6.903  -0.646  0.2896  0.4870 -0.2518
  203MOL0     C27925   2.233   6.793  -0.859 -0.5896 -1.0457 -1.0314
  203MOL0     C27926   2.161   6.683  -0.889  0.4831 -0.0111 -0.1124
  203MOL0     N27927   1.793   6.192  -0.415  0.4764 -0.1982 -0.5843
  203MOL0     N27928   1.842   6.253  -0.317 -0.2006 -0.0137  0.2400
  203MOL0     C27929   2.245   7.136   0.409  0.1262  0.5086 -0.4493
  203MOL0     C27930   2.207   7.171   0.534  0.2401 -0.9512  0.0427
  203MOL0     C27931   2.262   7.325   0.945 -0.3396 -0.2138  0.8459
  203MOL0     C27932   2.319   7.323   1.071 -0.3653 -0.2683  0.4877
  203MOL0     C27933   2.262   7.371   1.184  0.7374  0.2324  0.2581
  203MOL0     C27934   2.136   7.437   1.172 -1.3217  0.1599  0.6880
  203MOL0     O27935   2.076   7.509   1.280 -0.9861  0.3967 -0.1682
  203MOL0     C27936   2.100   7.478   1.418 -0.5812  0.1249  0.1073
  203MOL0     C27937   2.223   7.549   1.472 -0.0567  0.6575  0.7913
  203MOL0     C27938   2.211   7.566   1.622  0.5193  0.2862 -0.4565
  203MOL0     C27939   2.344   7.613   1.692 -0.0562 -0.0184  0.2813
  203MOL0     C27940   2.386   7.748   1.658 -0.4617 -0.4744 -0.2270
  203MOL0     C27941   2.416   7.861   1.607  0.2254 -0.0341  0.0551
  203MOL0     C27942   2.065   7.423   1.049 -0.9328 -0.2026 -0.1498
  203MOL0     C27943   2.126   7.368   0.936  1.2078 -0.5940  0.5844
  203MOL0     C27944   2.068   7.401   0.805 -0.3610  0.2701  1.2726
  203MOL0     H27945   2.422   6.980   0.710 -0.9596  1.9908  0.4017
  203MOL0     H27946   2.494   6.921   0.497 -0.1199  0.1674 -0.5335
  203MOL0     H27947   2.406   6.819   0.258  0.9464  0.1813  1.6390
  203MOL0     H27948   2.553   6.902   0.235 -0.3109  2.1148  1.5286
  203MOL0     H27949   2.457   7.007   0.023 -2.9136 -0.5137 -1.3104
  203MOL0     H27950   2.530   6.840   0.017  1.8625 -0.6324  3.6279
  203MOL0     H27951   2.240   6.850   0.069 -1.6389  0.3988 -1.4473
  203MOL0     H27952   2.281   6.899  -0.093 -4.1766  0.0646  1.1224
  203MOL0     H27953   2.422   6.716  -0.128  0.5976 -0.6502  0.5005
  203MOL0     H27954   2.375   6.637   0.018 -1.0167 -1.0091  0.0274
  203MOL0     H27955   2.179   6.713  -0.189 -1.9135 -1.1595 -0.9557
  203MOL0     H27956   2.138   6.617  -0.044  1.2279 -0.4221  0.6080
  203MOL0     H27957   2.353   6.511  -0.216  1.3821 -1.3091  3.4185
  203MOL0     H27958   2.270   6.427  -0.095  2.1836  1.6465  1.4979
  203MOL0     H27959   2.249   6.372  -0.354 -0.4390 -2.2347 -0.1993
  203MOL0     H27960   2.145   6.525  -0.361  1.6466  1.9230  2.4071
  203MOL0     H27961   2.124   6.259  -0.193 -0.8465 -0.6009  2.3588
  203MOL0     H27962   2.007   6.397  -0.171 -0.1267  0.9643 -2.1125
  203MOL0     H27963   2.063   6.314  -0.544 -1.4393 -0.6442 -1.8656
  203MOL0     H27964   1.755   6.134  -0.674 -0.4808  1.0875  1.7953
  203MOL0     H27965   1.902   6.058  -0.671 -2.4702 -0.2151 -1.1874
  203MOL0     H27966   2.031   6.235  -0.747  0.3890 -0.3256 -1.7100
  203MOL0     H27967   1.929   6.169  -0.869  6.8744 -2.5876  1.2637
  203MOL0     H27968   1.773   6.363  -0.851 -0.7383  1.7738  1.2859
  203MOL0     H27969   1.836   6.414  -0.705 -1.5280  0.7473 -0.4821
  203MOL0     H27970   1.962   6.427  -0.985 -0.2243  2.7152 -1.5787
  203MOL0     H27971   1.921   6.559  -0.872  1.4442 -0.2124 -0.6368
  203MOL0     H27972   2.260   6.467  -0.651  0.6507  1.6799  2.4840
  203MOL0     H27973   2.529   6.673  -0.570  1.3939 -3.1165  0.9309
  203MOL0     H27974   2.468   6.516  -0.583 -0.4064  0.5912 -1.6200
  203MOL0     H27975   2.382   6.640  -0.479 -0.1240 -2.3155  1.1737
  203MOL0     H27976   2.646   7.110  -0.699  0.8726 -0.7268 -3.0815
  203MOL0     H27977   2.668   7.342  -0.625 -1.0105  1.3603 -0.6984
  203MOL0     H27978   2.523   7.658  -0.881  0.2006 -2.2639  0.4983
  203MOL0     H27979   2.387   7.662  -0.763 -0.6433  1.2330  1.8590
  203MOL0     H27980   2.505   7.885  -0.767 -0.9778 -0.2908 -1.1092
  203MOL0     H27981   2.531   7.812  -0.610 -2.7195 -3.2077  0.8038
  203MOL0     H27982   2.750   7.712  -0.788 -0.3749 -1.6309  0.1905
  203MOL0     H27983   2.756   7.806  -0.636 -0.4774  0.6980 -1.1651
  203MOL0     H27984   2.697   8.009  -0.751 -1.5060 -1.0564 -0.8759
  203MOL0     H27985   2.738   7.933  -0.905 -1.6078  2.6890 -0.3594
  203MOL0     H27986   2.913   8.075  -0.807  1.9311  0.6144 -1.5307
  203MOL0     H27987   2.936   7.964  -0.671 -1.3493 -0.2638  0.5923
  203MOL0     H27988   3.009   7.926  -0.975  2.0999  1.3915  0.6187
  203MOL0     H27989   2.984   7.797  -0.852  0.9543  0.5679  2.5430
  203MOL0     H27990   3.185   7.892  -0.725  2.0728  0.0795 -0.9163
  203MOL0     H27991   3.206   8.012  -0.858  1.7694 -0.3692  1.3421
  203MOL0     H27992   3.221   7.844  -1.026 -3.3861 -2.3289  0.3292
  203MOL0     H27993   3.220   7.714  -0.896  0.2387 -0.0257  2.4658
  203MOL0     H27994   2.358   7.456  -0.904  0.9348 -0.0279  1.0093
  203MOL0     H27995   2.298   7.219  -0.917 -0.0705  3.0075 -1.0079
  203MOL0     H27996   2.208   6.887  -0.906  1.8486  1.4799  2.2048
  203MOL0     H27997   2.071   6.706  -0.944 -1.2562 -1.8138  1.8305
  203MOL0     H27998   2.198   7.172   0.318  1.3942 -0.2573 -1.4341
  203MOL0     H27999   2.125   7.241   0.546  1.5738  0.8501 -0.8263
  203MOL0     H28000   2.417   7.277   1.068 -0.1783  0.1527 -0.9481
  203MOL0     H28001   2.310   7.369   1.281  2.7260  1.6266 -0.6247
  203MOL0     H28002   2.013   7.502   1.479 -0.1952 -1.6438  1.4620
  203MOL0     H28003   2.114   7.370   1.429  3.0338  0.5721  1.1021
  203MOL0     H28004   2.237   7.647   1.425  0.2878 -0.4910 -1.6826
  203MOL0     H28005   2.315   7.491   1.456 -0.7903 -2.0844  5.0505
  203MOL0     H28006   2.130   7.636   1.649  1.2419  0.0301  2.8247
  203MOL0     H28007   2.180   7.471   1.666 -0.8859  1.0387  0.2549
  203MOL0     H28008   2.422   7.540   1.668 -2.4551 -2.1572 -1.5885
  203MOL0     H28009   2.327   7.617   1.800 -0.8885 -2.4723  0.2976
  203MOL0     H28010   2.440   7.959   1.573  1.0661  1.4083  4.2363
  203MOL0     H28011   1.966   7.464   1.032 -1.2725 -1.3608 -1.2070
  203MOL0     H28012   1.984   7.470   0.806 -3.5592 -3.0697 -2.2709
  203MOL0     H28013   2.146   7.453   0.748  0.5531 -0.5091  1.7688
  203MOL0     H28014   2.028   7.312   0.755 -0.8011  0.7365  0.7893
  204MOL0     O28015   9.430   9.797   5.264  0.3646 -0.0263 -0.2327
  204MOL0     C28016   9.391   9.685   5.266  0.6075  0.7417 -0.5729
  204MOL0     O28017   9.268   9.649   5.218  0.1184  0.1798 -1.2617
  204MOL0     C28018   9.173   9.745   5.202 -0.0841 -0.4173  0.0169
  204MOL0     C28019   9.171   9.873   5.256  0.5211  0.7548  0.0551
  204MOL0     C28020   9.056   9.960   5.250  0.2882  0.2733 -0.0658
  204MOL0     C28021   8.938   9.911   5.181  0.5913 -0.1554 -0.0742
  204MOL0     O28022   8.808   9.960   5.202 -0.1478  0.1615  0.4271
  204MOL0     C28023   8.784  10.087   5.258 -0.9415 -0.1735  0.6206
  204MOL0     C28024   8.641  10.117   5.274  1.0031  0.1991  0.7425
  204MOL0     C28025   8.618  10.261   5.321  0.1501  0.1379  0.4232
  204MOL0     C28026   8.669  10.284   5.456 -0.1182 -0.5716 -0.2585
  204MOL0     C28027   8.630  10.422   5.514 -0.4372  0.4173  0.6568
  204MOL0     C28028   8.479  10.441   5.553 -0.4351  0.0336 -0.6079
  204MOL0     C28029   8.437  10.581   5.601 -0.3657  0.0015 -0.0570
  204MOL0     C28030   8.416  10.705   5.504 -0.1209 -0.0698 -0.1716
  204MOL0     N28031   8.357  10.821   5.565  0.1147 -0.8128  0.9266
  204MOL0     C28032   8.226  10.857   5.563 -0.0511 -1.0270 -1.0783
  204MOL0     C28033   8.213  10.949   5.666  0.6029  0.4028  0.0678
  204MOL0     C28034   8.082  11.007   5.711 -1.2439 -0.8139  0.1810
  204MOL0     C28035   8.023  10.971   5.842  0.3710  0.0083 -0.7580
  204MOL0     C28036   8.124  10.985   5.958 -0.1120 -0.2924 -0.3797
  204MOL0     C28037   8.045  10.964   6.087 -0.7408 -0.1342 -1.0418
  204MOL0     O28038   7.977  10.842   6.105  0.1042  0.1446 -0.1493
  204MOL0     C28039   7.892  10.835   6.218 -0.5186  0.1363  1.1679
  204MOL0     C28040   7.891  10.936   6.318  0.9393  0.6232  0.5595
  204MOL0     C28041   7.807  10.922   6.425  0.1057  0.4999 -0.1770
  204MOL0     C28042   7.830  11.014   6.535  0.6963 -0.1937  0.0686
  204MOL0     C28043   7.711  10.814   6.431  0.1625 -0.8157 -1.1535
  204MOL0     C28044   7.611  10.796   6.539  0.0237  0.2856 -0.2511
  204MOL0     O28045   7.526  10.691   6.522  0.0206 -0.4595 -0.2144
  204MOL0     C28046   7.422  10.660   6.614 -0.6584  0.2204 -0.0186
  204MOL0     C28047   7.359  10.754   6.694  0.7318  0.3674 -0.7385
  204MOL0     C28048   7.245  10.709   6.766  0.0358 -0.1761 -0.0566
  204MOL0     C28049   7.204  10.576   6.778 -0.7589 -0.3698  0.7441
  204MOL0     O28050   7.100  10.530   6.849  0.0901  0.5862  1.0125
  204MOL0     C28051   7.038  10.617   6.940 -0.1319  0.2550  0.1022
  204MOL0     C28052   6.939  10.567   7.048  0.0888 -0.1732 -0.1189
  204MOL0     C28053   7.009  10.459   7.116 -0.0643  0.7696  0.2461
  204MOL0     C28054   7.117  10.501   7.223  0.6427  0.6418  0.2902
  204MOL0     C28055   7.053  10.574   7.342  0.6300  0.0826  0.5921
  204MOL0     C28056   7.157  10.586   7.463  0.5285 -0.7546 -0.2440
  204MOL0     C28057   7.092  10.675   7.569 -0.3671  1.2342  1.0051
  204MOL0     C28058   7.194  10.735   7.663 -1.2362  0.4534  0.3046
  204MOL0    Cl28059   7.268  10.609   7.762 -0.2393 -0.3061  0.7325
  204MOL0     C28060   7.275  10.487   6.700 -0.0525  0.4558  0.5731
  204MOL0     C28061   7.381  10.528   6.619 -1.2078 -0.3598 -0.1663
  204MOL0     O28062   7.618  10.871   6.635  0.8748  0.3003  0.3039
  204MOL0     C28063   7.713  10.728   6.323 -0.5703  0.4853 -0.8792
  204MOL0     C28064   7.808  10.730   6.218 -0.0668 -0.0895  0.4056
  204MOL0     N28065   8.329  10.968   5.732  0.7479  0.0012  0.3711
  204MOL0     N28066   8.409  10.884   5.672 -0.1529 -0.1909 -0.7009
  204MOL0     C28067   8.942   9.786   5.118 -0.0054  0.4832  0.1483
  204MOL0     C28068   9.062   9.713   5.126 -1.1314  0.3236  0.6642
  204MOL0     C28069   9.469   9.569   5.316 -0.6067 -1.1728 -0.2575
  204MOL0     C28070   9.411   9.448   5.307  0.6298  1.2383 -0.8426
  204MOL0     C28071   9.471   9.329   5.345 -1.3470 -0.3187  0.1347
  204MOL0     C28072   9.587   9.326   5.412 -0.8539  0.2449  0.3845
  204MOL0     O28073   9.648   9.203   5.446  0.1757  0.1445  0.4235
  204MOL0     C28074   9.790   9.190   5.458  0.2286  0.5486  0.1365
  204MOL0     C28075   9.814   9.033   5.476 -0.0632 -0.0236  0.5848
  204MOL0     C28076   9.771   8.948   5.347 -0.7494  0.0756 -0.4761
  204MOL0     C28077   9.797   8.804   5.371  0.5281  0.0998 -0.0522
  204MOL0     C28078   9.716   8.743   5.478  0.0555  1.0136  0.0553
  204MOL0     C28079   9.661   8.704   5.577 -0.2263  0.0508  0.0163
  204MOL0     C28080   9.643   9.445   5.432 -0.3178  0.3065  0.1261
  204MOL0     C28081   9.595   9.572   5.382 -1.0131  0.3519  0.4189
  204MOL0     C28082   9.676   9.692   5.406 -0.7291 -0.2097 -0.2441
  204MOL0     H28083   9.232   9.911   5.338 -2.0152  1.6265  1.6379
  204MOL0     H28084   9.054  10.049   5.310  2.5018 -0.6687  1.5606
  204MOL0     H28085   8.824  10.154   5.182 -1.7573 -2.0438 -1.5693
  204MOL0     H28086   8.834  10.087   5.355  1.7999  3.1871 -0.5926
  204MOL0     H28087   8.599  10.107   5.174  0.4322  1.8997  0.7864
  204MOL0     H28088   8.599  10.046   5.347 -2.0228  0.3644 -0.7022
  204MOL0     H28089   8.651  10.341   5.253 -2.0083  1.3605  0.7420
  204MOL0     H28090   8.510  10.276   5.330  0.0254  1.8890 -2.5725
  204MOL0     H28091   8.624  10.208   5.521  0.0699 -1.6328 -1.3421
  204MOL0     H28092   8.778  10.283   5.450 -0.1544 -0.5669 -1.0103
  204MOL0     H28093   8.663  10.486   5.431 -1.3855  0.6917  0.4677
  204MOL0     H28094   8.689  10.452   5.601  0.9092  0.8143 -0.3686
  204MOL0     H28095   8.420  10.406   5.468 -1.8660  2.5449 -0.7502
  204MOL0     H28096   8.459  10.380   5.643  2.3483  4.1836  3.2386
  204MOL0     H28097   8.509  10.614   5.677 -1.9313  1.6565  0.8076
  204MOL0     H28098   8.336  10.574   5.644 -0.1136 -0.1810  0.5162
  204MOL0     H28099   8.515  10.729   5.465  0.2443 -1.2002  0.0227
  204MOL0     H28100   8.350  10.670   5.423  1.8431  1.9711 -2.8340
  204MOL0     H28101   8.140  10.813   5.514 -0.0399 -3.5294  0.9656
  204MOL0     H28102   8.008  10.990   5.633 -1.5252  1.5568 -0.1507
  204MOL0     H28103   8.101  11.115   5.712 -1.4439 -0.7666 -0.7287
  204MOL0     H28104   7.932  11.031   5.854  0.1521 -0.4555 -0.0083
  204MOL0     H28105   7.979  10.871   5.845 -3.3577  1.4440 -1.8355
  204MOL0     H28106   8.209  10.915   5.957 -1.6396 -2.2510 -2.6567
  204MOL0     H28107   8.159  11.088   5.968  0.1331 -0.5871  3.1195
  204MOL0     H28108   8.115  10.975   6.170 -0.9502 -0.3916 -0.8307
  204MOL0     H28109   7.968  11.041   6.096 -1.9438 -1.4195  0.0776
  204MOL0     H28110   7.948  11.028   6.308  0.5039  1.0203  1.6326
  204MOL0     H28111   7.735  11.068   6.533  0.0462 -1.2351  1.4455
  204MOL0     H28112   7.920  11.077   6.531  1.1233 -0.8014  0.0519
  204MOL0     H28113   7.836  10.965   6.632  1.6534 -1.9349 -0.8265
  204MOL0     H28114   7.374  10.862   6.692 -3.3297  1.0607 -1.4293
  204MOL0     H28115   7.197  10.783   6.830  1.0121 -1.8675  2.8031
  204MOL0     H28116   7.121  10.670   6.988  0.3546  1.3016 -1.7743
  204MOL0     H28117   6.982  10.693   6.885  1.5094  2.2714  1.0611
  204MOL0     H28118   6.916  10.653   7.112  0.7253  0.0063 -0.1238
  204MOL0     H28119   6.849  10.530   6.997 -0.5709  0.3227  0.6613
  204MOL0     H28120   7.065  10.399   7.044 -1.1908 -1.4520  1.0951
  204MOL0     H28121   6.940  10.388   7.163  0.3834 -0.5454 -1.0080
  204MOL0     H28122   7.205  10.551   7.181 -0.3265  0.4501 -2.1706
  204MOL0     H28123   7.160  10.410   7.264 -2.2398 -0.8290  0.3335
  204MOL0     H28124   7.020  10.677   7.323 -2.5803 -0.3387  2.9470
  204MOL0     H28125   6.966  10.515   7.371  0.3455 -0.6026 -1.4954
  204MOL0     H28126   7.248  10.627   7.419  0.8431  2.3384  2.7900
  204MOL0     H28127   7.178  10.492   7.515 -0.2422 -0.9166 -0.2129
  204MOL0     H28128   7.019  10.629   7.636  0.5437  1.0732  1.9229
  204MOL0     H28129   7.042  10.753   7.510 -0.6867 -1.3135 -2.3825
  204MOL0     H28130   7.142  10.801   7.732  0.3915  0.0143  2.0166
  204MOL0     H28131   7.277  10.782   7.609 -1.0120  0.8950  1.0306
  204MOL0     H28132   7.233  10.387   6.691  0.3563  0.3014  0.3371
  204MOL0     H28133   7.440  10.463   6.555 -3.0129 -2.2937  0.0182
  204MOL0     H28134   7.651  10.639   6.319 -1.5036  0.8733  2.3284
  204MOL0     H28135   7.812  10.643   6.153 -2.9820 -0.1774  0.2145
  204MOL0     H28136   8.855   9.739   5.073  0.7338  1.3593 -2.3992
  204MOL0     H28137   9.048   9.610   5.094  1.3205 -0.2895  1.3704
  204MOL0     H28138   9.312   9.425   5.268  1.1202  1.1961 -2.1114
  204MOL0     H28139   9.426   9.231   5.342  4.2706 -3.2990 -1.6661
  204MOL0     H28140   9.841   9.220   5.366 -3.2618  1.1722 -1.7705
  204MOL0     H28141   9.824   9.241   5.548 -1.3819  1.0030  0.5148
  204MOL0     H28142   9.757   9.003   5.565 -1.3626  1.7727  0.4190
  204MOL0     H28143   9.922   9.022   5.489 -0.0170 -0.8759 -0.4161
  204MOL0     H28144   9.662   8.957   5.336 -0.7674 -0.8789 -1.1798
  204MOL0     H28145   9.826   8.988   5.261 -1.1695 -0.2172 -0.8878
  204MOL0     H28146   9.898   8.772   5.397 -0.5022 -2.0122  1.7003
  204MOL0     H28147   9.771   8.754   5.277 -1.2155  0.9401 -0.0570
  204MOL0     H28148   9.603   8.676   5.662 -0.9486  0.3444 -0.3679
  204MOL0     H28149   9.744   9.435   5.469  1.4650  0.6329 -4.1172
  204MOL0     H28150   9.614   9.772   5.449  2.4758  2.9192 -0.9998
  204MOL0     H28151   9.767   9.675   5.464  0.3870  0.6428 -1.6711
  204MOL0     H28152   9.706   9.745   5.315 -0.3355  0.4227  0.2475
  205MOL0     O28153   3.229  11.106   6.165  0.5973 -0.7818  0.2318
  205MOL0     C28154   3.178  11.202   6.102  0.5450 -0.2312 -0.0359
  205MOL0     O28155   3.246  11.282   6.018  0.6581  0.6469  0.0724
  205MOL0     C28156   3.379  11.313   6.048 -0.5605  0.2927  0.0580
  205MOL0     C28157   3.468  11.288   5.945 -0.5394 -0.1312  0.1846
  205MOL0     C28158   3.597  11.319   5.962 -0.3161 -0.0276  0.7536
  205MOL0     C28159   3.648  11.367   6.079 -0.2535 -0.3180  0.4653
  205MOL0     O28160   3.785  11.388   6.090  0.0663  0.1441  0.3324
  205MOL0     C28161   3.865  11.296   6.160  0.3099  0.3127 -0.2865
  205MOL0     C28162   3.869  11.158   6.099  0.1850 -0.5456  0.4949
  205MOL0     C28163   3.949  11.047   6.176  0.6695  0.4115 -0.7512
  205MOL0     C28164   4.093  11.092   6.210 -0.1991 -0.0214 -0.0257
  205MOL0     C28165   4.173  10.974   6.266  1.4245 -0.3810  0.1754
  205MOL0     C28166   4.315  10.994   6.321  0.9780  0.0153  0.1143
  205MOL0     C28167   4.353  10.866   6.389  0.5048  0.1173  0.2857
  205MOL0     C28168   4.502  10.849   6.421  0.6662 -0.2823 -0.4771
  205MOL0     N28169   4.583  10.951   6.487  0.1884  0.3765  0.0563
  205MOL0     C28170   4.573  10.982   6.617  0.5694  0.1731  0.1697
  205MOL0     C28171   4.666  11.083   6.643  0.5573  0.7688  0.0748
  205MOL0     C28172   4.704  11.150   6.772  0.1878  0.3454 -0.2140
  205MOL0     C28173   4.654  11.071   6.894  0.5098 -0.5192 -0.5240
  205MOL0     C28174   4.731  10.941   6.920 -0.6230  1.0260  0.0306
  205MOL0     C28175   4.652  10.859   7.015  0.9664  0.0262 -0.3526
  205MOL0     O28176   4.523  10.828   6.958 -0.6379 -0.5429  0.4533
  205MOL0     C28177   4.447  10.726   7.013  0.5714 -1.0635 -0.3512
  205MOL0     C28178   4.309  10.717   6.977  0.0128  0.6751  0.4128
  205MOL0     C28179   4.229  10.608   7.028 -1.5111 -0.5332 -1.2029
  205MOL0     C28180   4.083  10.606   6.981  0.6478  0.4848  0.4778
  205MOL0     C28181   4.292  10.506   7.111  0.3458  0.1270 -0.3830
  205MOL0     C28182   4.216  10.381   7.159 -0.7015 -0.8312 -0.6133
  205MOL0     O28183   4.273  10.317   7.272  0.6511 -0.7051  0.6994
  205MOL0     C28184   4.193  10.231   7.344 -0.6227 -0.9063 -0.7846
  205MOL0     C28185   4.201  10.240   7.488  1.0997 -1.4427  0.1919
  205MOL0     C28186   4.120  10.154   7.562  0.1255  0.1868 -0.5375
  205MOL0     C28187   4.035  10.055   7.503  0.3631 -0.2590 -0.0946
  205MOL0     O28188   3.965   9.967   7.585 -0.7902  0.1707  0.4651
  205MOL0     C28189   3.880   9.872   7.528  0.6332 -0.0483  0.3981
  205MOL0     C28190   3.859   9.766   7.637  0.1293 -0.6931  0.1287
  205MOL0     C28191   3.784   9.639   7.574  0.8329  0.4138 -0.3139
  205MOL0     C28192   3.754   9.534   7.675  0.0702  0.6650 -1.0919
  205MOL0     C28193   3.686   9.413   7.608  0.3068  0.0917  0.8880
  205MOL0     C28194   3.609   9.328   7.711  0.1037 -0.1858 -0.2272
  205MOL0     C28195   3.495   9.241   7.659  0.6105  0.3476  1.1988
  205MOL0     C28196   3.548   9.160   7.539 -0.5154  0.1119 -0.1315
  205MOL0    Cl28197   3.477   8.987   7.576  0.2480  0.5648  0.1674
  205MOL0     C28198   4.020  10.058   7.368  1.0365  1.3333 -0.0368
  205MOL0     C28199   4.103  10.138   7.283 -0.6472 -0.4414 -1.2891
  205MOL0     O28200   4.111  10.353   7.108  1.3064  0.3318  0.9808
  205MOL0     C28201   4.422  10.533   7.147  0.8222  0.3728  0.3453
  205MOL0     C28202   4.500  10.636   7.105  0.7583 -0.0755 -0.4336
  205MOL0     N28203   4.721  11.113   6.516  0.5992  0.5086 -0.3812
  205MOL0     N28204   4.675  11.038   6.428  0.6917  0.0650  0.3217
  205MOL0     C28205   3.559  11.389   6.191  0.6150 -0.3701  0.3582
  205MOL0     C28206   3.420  11.368   6.171  0.3525 -0.0006  0.3401
  205MOL0     C28207   3.025  11.205   6.101  0.7613  0.4309 -0.2971
  205MOL0     C28208   2.949  11.092   6.048  0.2493 -0.7787 -0.0229
  205MOL0     C28209   2.813  11.101   6.044  0.3278 -0.2262 -0.3505
  205MOL0     C28210   2.739  11.211   6.097 -0.2253 -0.2900  0.5362
  205MOL0     O28211   2.601  11.208   6.078  0.3423  0.6136  0.5665
  205MOL0     C28212   2.528  11.328   6.101  0.4151  0.9783  0.6322
  205MOL0     C28213   2.383  11.331   6.063  0.0296  0.8257 -0.1002
  205MOL0     C28214   2.291  11.240   6.149 -0.1439 -0.7010 -0.1425
  205MOL0     C28215   2.173  11.221   6.063 -0.4956  0.3013  0.2363
  205MOL0     C28216   2.062  11.172   6.143  0.0702  0.0466 -0.2389
  205MOL0     C28217   1.978  11.123   6.212  0.5326  0.3650  0.1388
  205MOL0     C28218   2.808  11.318   6.157 -0.6305 -0.1034  0.5169
  205MOL0     C28219   2.953  11.309   6.163  0.4023 -1.2816  0.4216
  205MOL0     C28220   3.025  11.423   6.229  0.1293  0.0141  0.5120
  205MOL0     H28221   3.429  11.248   5.852 -1.8742 -1.6494  1.3312
  205MOL0     H28222   3.658  11.307   5.873 -0.0235  2.8834  0.4444
  205MOL0     H28223   3.852  11.295   6.269 -0.9754  1.4498 -0.4047
  205MOL0     H28224   3.967  11.332   6.150 -0.1993  1.2994 -2.2345
  205MOL0     H28225   3.767  11.118   6.093  0.2849 -0.9453  1.3418
  205MOL0     H28226   3.905  11.159   5.996 -0.4580 -5.5097 -0.0649
  205MOL0     H28227   3.884  11.024   6.261 -1.9419 -0.3957 -2.8544
  205MOL0     H28228   3.959  10.958   6.114  2.6882  0.8202 -1.0879
  205MOL0     H28229   4.153  11.140   6.132  1.7802 -0.1439  1.3410
  205MOL0     H28230   4.094  11.180   6.275  3.1543 -0.0605  0.1572
  205MOL0     H28231   4.190  10.894   6.194  1.0991 -0.7598  0.5074
  205MOL0     H28232   4.122  10.918   6.346  0.8617  0.9795  0.7884
  205MOL0     H28233   4.385  11.009   6.238 -2.1853 -2.1561 -3.2274
  205MOL0     H28234   4.327  11.076   6.393  1.3345  1.6455 -1.7151
  205MOL0     H28235   4.315  10.788   6.322  0.9811  1.1705 -1.2470
  205MOL0     H28236   4.300  10.843   6.483  0.3834  2.0345  0.7151
  205MOL0     H28237   4.521  10.768   6.492 -3.5112  2.2494  4.2038
  205MOL0     H28238   4.540  10.834   6.320 -0.4650  2.7967 -1.4949
  205MOL0     H28239   4.523  10.914   6.685  2.4276 -1.2279  0.1955
  205MOL0     H28240   4.633  11.234   6.775 -0.9307 -0.5787  2.6632
  205MOL0     H28241   4.809  11.179   6.768 -0.1368  2.0145  1.6775
  205MOL0     H28242   4.658  11.132   6.985 -3.1144 -1.2814  0.2993
  205MOL0     H28243   4.544  11.066   6.896  0.5328 -3.1170 -1.5604
  205MOL0     H28244   4.737  10.884   6.827  1.1786  1.4415 -0.1500
  205MOL0     H28245   4.826  10.967   6.967  0.9125 -0.6570 -1.9319
  205MOL0     H28246   4.714  10.770   7.028  2.7580  0.9267 -2.1700
  205MOL0     H28247   4.644  10.916   7.109  2.2825 -0.3130 -0.0252
  205MOL0     H28248   4.262  10.782   6.904 -1.1802 -0.8993 -0.2790
  205MOL0     H28249   4.040  10.700   6.946 -0.1314  0.7062  1.9593
  205MOL0     H28250   4.016  10.562   7.055  1.0962 -3.0781 -1.0284
  205MOL0     H28251   4.069  10.538   6.896 -0.4264  0.7964  0.3987
  205MOL0     H28252   4.266  10.317   7.529 -0.0759  2.0178 -3.7797
  205MOL0     H28253   4.116  10.151   7.670  0.7341 -0.1293 -0.5215
  205MOL0     H28254   3.782   9.917   7.508  1.4473  1.2649 -0.8078
  205MOL0     H28255   3.923   9.813   7.447 -0.7235 -2.7012  1.4801
  205MOL0     H28256   3.956   9.732   7.674 -0.1481 -0.8930  0.6806
  205MOL0     H28257   3.802   9.818   7.714 -0.2764 -0.6439 -0.1985
  205MOL0     H28258   3.833   9.593   7.488  2.0520 -0.8014  0.9844
  205MOL0     H28259   3.687   9.674   7.539  1.0337  3.0147  1.4219
  205MOL0     H28260   3.701   9.572   7.762  1.3679 -0.3554  0.1961
  205MOL0     H28261   3.853   9.506   7.710 -0.6619 -0.8178 -0.0931
  205MOL0     H28262   3.619   9.457   7.534  1.9000  0.9396 -0.1139
  205MOL0     H28263   3.758   9.358   7.546  0.1045 -2.0497  2.4391
  205MOL0     H28264   3.553   9.395   7.778  0.6398  0.1898 -0.1487
  205MOL0     H28265   3.675   9.271   7.778  1.6955 -0.7751 -2.2153
  205MOL0     H28266   3.409   9.305   7.636  0.3342 -0.8215 -1.2745
  205MOL0     H28267   3.461   9.176   7.741 -2.6502  1.0342  0.5292
  205MOL0     H28268   3.657   9.151   7.536 -0.3140 -0.5921  3.6417
  205MOL0     H28269   3.509   9.191   7.442  2.7432 -0.5048 -1.7764
  205MOL0     H28270   3.971   9.973   7.321 -1.5446  0.9451  3.0966
  205MOL0     H28271   4.102  10.126   7.175 -5.3001 -1.2668 -1.3456
  205MOL0     H28272   4.485  10.467   7.206 -0.6177  0.2283  1.7923
  205MOL0     H28273   4.605  10.647   7.128  0.3600 -0.6674  1.8662
  205MOL0     H28274   3.592  11.402   6.293 -0.5447  0.1304  0.6840
  205MOL0     H28275   3.351  11.390   6.252  1.3487  2.3749  0.6270
  205MOL0     H28276   3.005  11.005   6.013  0.8064 -0.1512 -0.7267
  205MOL0     H28277   2.760  11.020   5.995 -0.0842 -0.6690  0.7808
  205MOL0     H28278   2.542  11.355   6.206  2.1657 -0.0391  0.6827
  205MOL0     H28279   2.568  11.400   6.029  0.3508  0.4890  0.1024
  205MOL0     H28280   2.369  11.301   5.958  0.4374 -0.6838  0.2563
  205MOL0     H28281   2.348  11.434   6.058 -0.2240  0.6913 -2.4573
  205MOL0     H28282   2.338  11.147   6.182 -1.1853 -0.1882  3.2382
  205MOL0     H28283   2.269  11.293   6.242  2.3079 -0.0527  0.1405
  205MOL0     H28284   2.193  11.153   5.980  0.3650  1.6342 -0.6831
  205MOL0     H28285   2.146  11.318   6.019  4.6625  1.8960 -0.0111
  205MOL0     H28286   1.898  11.065   6.255 -1.4965  2.3475 -0.7144
  205MOL0     H28287   2.764  11.409   6.197  2.1948  1.0331  1.2825
  205MOL0     H28288   3.133  11.413   6.214 -0.2293 -0.7399 -1.9507
  205MOL0     H28289   2.986  11.519   6.193  3.4667  0.7072 -1.7396
  205MOL0     H28290   3.003  11.413   6.336 -2.3921  0.8890  0.1569
  206MOL0     O28291   3.996   7.836   7.693  0.0890 -0.1153 -1.0452
  206MOL0     C28292   3.884   7.797   7.727 -0.2204  0.5429  0.0077
  206MOL0     O28293   3.858   7.699   7.816  0.1051  0.1972  0.6061
  206MOL0     C28294   3.967   7.637   7.873  0.2581  0.2930  0.6862
  206MOL0     C28295   4.003   7.512   7.818 -0.8882 -0.9445  0.2730
  206MOL0     C28296   4.107   7.443   7.883  0.6223 -0.0348  0.4537
  206MOL0     C28297   4.174   7.502   7.983  0.0483  0.1106 -0.1254
  206MOL0     O28298   4.282   7.430   8.028  0.8700 -0.5393 -0.6096
  206MOL0     C28299   4.412   7.502   8.013  1.3344  0.9036 -0.4279
  206MOL0     C28300   4.514   7.398   7.952  0.6430  0.5975 -0.3438
  206MOL0     C28301   4.599   7.316   8.049  0.5244  0.8913  0.3532
  206MOL0     C28302   4.718   7.396   8.094  0.3153 -0.0753 -0.3734
  206MOL0     C28303   4.796   7.326   8.200  0.5226  0.1854  0.4380
  206MOL0     C28304   4.916   7.399   8.262 -0.3448  0.2852  0.3982
  206MOL0     C28305   4.867   7.517   8.347  0.0382  0.6281  0.9353
  206MOL0     C28306   4.951   7.542   8.467  0.5357  1.0166  0.1978
  206MOL0     N28307   5.080   7.605   8.439 -0.5227  0.0647  0.8570
  206MOL0     C28308   5.193   7.547   8.381  0.6492 -0.5685 -0.5599
  206MOL0     C28309   5.294   7.639   8.374  0.5227 -0.4296 -0.0810
  206MOL0     C28310   5.429   7.615   8.311  0.4045 -0.1121 -0.2484
  206MOL0     C28311   5.455   7.499   8.212  0.6516  0.1393 -0.6257
  206MOL0     C28312   5.396   7.531   8.072 -0.4531 -0.5665  0.0142
  206MOL0     C28313   5.254   7.481   8.052 -0.6436 -0.6187 -0.3333
  206MOL0     O28314   5.259   7.339   8.043  0.6706  0.0703  0.2077
  206MOL0     C28315   5.156   7.262   7.990  0.5040  0.2835  0.2887
  206MOL0     C28316   5.161   7.120   8.013 -0.1319  0.1553  0.6025
  206MOL0     C28317   5.048   7.038   7.987  0.3426 -0.0332 -0.2622
  206MOL0     C28318   5.060   6.890   8.014  0.1520 -0.1551  0.3472
  206MOL0     C28319   4.924   7.090   7.935 -0.0504  0.2028 -0.1213
  206MOL0     C28320   4.790   7.023   7.905  0.2244  0.6457  0.7392
  206MOL0     O28321   4.709   7.091   7.822  0.6187  0.2184 -0.0235
  206MOL0     C28322   4.602   7.020   7.769 -0.9477 -0.0337 -0.1233
  206MOL0     C28323   4.613   6.970   7.636 -0.5161  0.2242 -0.9259
  206MOL0     C28324   4.513   6.900   7.581  0.8526 -0.2215 -0.2106
  206MOL0     C28325   4.398   6.879   7.651  0.6300 -0.2256  0.1578
  206MOL0     O28326   4.299   6.815   7.576 -0.2952  0.4844  0.6776
  206MOL0     C28327   4.255   6.687   7.616 -0.5713 -0.3816 -0.8432
  206MOL0     C28328   4.383   6.598   7.622  0.4873 -0.1844  0.3074
  206MOL0     C28329   4.342   6.444   7.637 -0.2677  0.2379 -0.0898
  206MOL0     C28330   4.267   6.412   7.770 -0.2094  0.2758 -0.5901
  206MOL0     C28331   4.258   6.262   7.817  0.2894 -0.2360 -0.3102
  206MOL0     C28332   4.157   6.176   7.734 -1.1787  0.0461  0.1410
  206MOL0     C28333   4.030   6.142   7.801 -0.1060  0.1553 -0.1981
  206MOL0     C28334   3.934   6.089   7.689  0.4991  0.8594  0.6160
  206MOL0    Cl28335   3.852   6.223   7.622 -0.4935  0.1480  0.7578
  206MOL0     C28336   4.375   6.909   7.782 -0.4897  0.0716  0.4782
  206MOL0     C28337   4.484   6.982   7.842 -0.8429 -0.9485  0.0050
  206MOL0     O28338   4.766   6.912   7.951 -0.5265 -0.3607  0.2122
  206MOL0     C28339   4.936   7.232   7.903 -0.3196  0.3908  0.0867
  206MOL0     C28340   5.045   7.312   7.937 -0.1415 -0.6147  0.1486
  206MOL0     N28341   5.236   7.764   8.403  0.1878  0.1989 -0.3577
  206MOL0     N28342   5.108   7.750   8.439  0.3584  0.7345 -0.1441
  206MOL0     C28343   4.145   7.630   8.026 -0.5772 -0.4108 -0.4643
  206MOL0     C28344   4.039   7.689   7.972 -0.4668 -0.0294 -0.0639
  206MOL0     C28345   3.764   7.879   7.708 -0.8956  0.1211  0.2689
  206MOL0     C28346   3.676   7.907   7.815  0.0431  0.7016  0.3688
  206MOL0     C28347   3.561   7.986   7.798 -0.5021 -0.0996  0.0559
  206MOL0     C28348   3.540   8.043   7.674  0.3843  0.5991  0.9288
  206MOL0     O28349   3.417   8.109   7.665 -0.9129 -0.2491  0.4719
  206MOL0     C28350   3.301   8.052   7.597  0.4352 -0.0168 -0.2186
  206MOL0     C28351   3.314   8.070   7.441  0.5933  0.3859  0.1556
  206MOL0     C28352   3.312   8.216   7.402 -0.4190 -0.3241  0.2993
  206MOL0     C28353   3.250   8.248   7.267  0.4696  0.2286 -0.4741
  206MOL0     C28354   3.335   8.335   7.188 -0.6872 -0.4753 -0.3679
  206MOL0     C28355   3.393   8.424   7.129  0.4376 -0.7684 -0.9775
  206MOL0     C28356   3.627   8.032   7.569 -1.0000 -0.1207 -0.9048
  206MOL0     C28357   3.735   7.945   7.580 -0.5331  0.0046 -0.2080
  206MOL0     C28358   3.810   7.908   7.453 -1.1158 -0.3941  0.1072
  206MOL0     H28359   3.942   7.475   7.736  0.5050 -2.2917 -0.2083
  206MOL0     H28360   4.130   7.342   7.848 -2.8468 -0.7111 -0.2305
  206MOL0     H28361   4.452   7.537   8.108 -0.5544 -1.6442  1.4604
  206MOL0     H28362   4.414   7.587   7.944  0.4160  2.4262  1.3397
  206MOL0     H28363   4.443   7.336   7.896 -1.2975  1.1977  1.3461
  206MOL0     H28364   4.572   7.441   7.869 -2.6957 -0.0725 -3.2343
  206MOL0     H28365   4.528   7.292   8.129 -0.1024  0.3106 -0.3616
  206MOL0     H28366   4.632   7.222   8.005  3.0578  2.2289 -0.7933
  206MOL0     H28367   4.786   7.417   8.012 -0.5092 -1.2740 -1.4059
  206MOL0     H28368   4.676   7.491   8.128 -2.7018 -1.2816 -0.4196
  206MOL0     H28369   4.834   7.233   8.156 -2.2662 -1.2237  0.7925
  206MOL0     H28370   4.734   7.280   8.278  3.1258 -2.2255  1.2582
  206MOL0     H28371   4.978   7.326   8.315 -1.2172 -2.0009 -1.5087
  206MOL0     H28372   4.966   7.441   8.175 -1.7500 -2.4277 -1.9230
  206MOL0     H28373   4.770   7.497   8.392 -0.2100 -1.1027 -0.2628
  206MOL0     H28374   4.855   7.604   8.281 -0.5045  0.2026  0.4588
  206MOL0     H28375   4.891   7.610   8.528  1.7204  1.3594  1.0235
  206MOL0     H28376   4.963   7.449   8.524  0.6978 -1.3877 -3.4403
  206MOL0     H28377   5.206   7.443   8.353  2.1684 -0.3857 -0.6627
  206MOL0     H28378   5.492   7.594   8.398 -1.0928 -0.3925  0.7991
  206MOL0     H28379   5.468   7.702   8.257 -1.7253  2.5073  2.1929
  206MOL0     H28380   5.561   7.479   8.193  0.3455 -0.1360 -2.1603
  206MOL0     H28381   5.406   7.406   8.242  0.6752 -0.2029 -1.6014
  206MOL0     H28382   5.395   7.640   8.059 -1.6493 -0.6506 -0.7602
  206MOL0     H28383   5.460   7.479   8.000 -1.5962 -2.6399  0.4001
  206MOL0     H28384   5.189   7.523   8.130  3.9449  4.1055  1.5857
  206MOL0     H28385   5.219   7.516   7.955 -0.9548  2.4604  0.7704
  206MOL0     H28386   5.249   7.075   8.058 -0.2196 -0.6271  0.0245
  206MOL0     H28387   5.158   6.850   8.041  0.9617  1.5737  0.0715
  206MOL0     H28388   5.023   6.835   7.927 -1.9349 -0.0544  1.1259
  206MOL0     H28389   4.997   6.869   8.101 -0.4014 -0.3602 -0.0985
  206MOL0     H28390   4.713   6.967   7.594  0.4339  1.2316  1.1242
  206MOL0     H28391   4.522   6.854   7.483  2.9558  4.9524 -2.8869
  206MOL0     H28392   4.211   6.701   7.715  2.2184  0.2594  0.4317
  206MOL0     H28393   4.181   6.641   7.550  0.6832  0.2471 -2.7932
  206MOL0     H28394   4.434   6.618   7.528  2.3791  2.7176  1.7814
  206MOL0     H28395   4.457   6.633   7.695 -0.2002  2.3371 -0.1309
  206MOL0     H28396   4.435   6.385   7.634 -0.5828 -0.3315  0.8938
  206MOL0     H28397   4.286   6.415   7.548 -1.0933 -1.2743  0.8943
  206MOL0     H28398   4.170   6.459   7.750 -0.5156 -0.7698 -1.6798
  206MOL0     H28399   4.301   6.472   7.855 -0.4551 -0.3749 -0.0279
  206MOL0     H28400   4.360   6.231   7.796  0.6150  0.6375 -0.0657
  206MOL0     H28401   4.232   6.240   7.921  3.2352 -1.6575  0.2236
  206MOL0     H28402   4.214   6.093   7.691 -0.4779  0.8483 -0.5323
  206MOL0     H28403   4.125   6.244   7.655 -0.2865  5.4268  3.8857
  206MOL0     H28404   3.992   6.227   7.858 -0.5143  2.0822 -3.1052
  206MOL0     H28405   4.057   6.063   7.871  0.8309  1.1290  0.5659
  206MOL0     H28406   3.860   6.015   7.720  1.0189  0.7569  1.6525
  206MOL0     H28407   3.984   6.035   7.609  0.0468  0.8972  0.3002
  206MOL0     H28408   4.280   6.889   7.830 -1.2597 -1.0823 -1.4209
  206MOL0     H28409   4.454   7.018   7.940 -5.4483 -2.9361 -0.4210
  206MOL0     H28410   4.850   7.285   7.863 -0.3058 -0.0772 -0.5913
  206MOL0     H28411   5.043   7.419   7.915 -0.2575 -1.1195 -2.6403
  206MOL0     H28412   4.218   7.674   8.093  1.2266 -1.9192 -1.3573
  206MOL0     H28413   4.004   7.788   7.999 -1.2156 -0.0525 -0.8750
  206MOL0     H28414   3.698   7.852   7.905  1.7498 -0.1160 -0.4952
  206MOL0     H28415   3.480   8.007   7.867  1.1391 -0.2942  2.1445
  206MOL0     H28416   3.308   7.949   7.634  2.1673 -0.2183 -1.0154
  206MOL0     H28417   3.206   8.092   7.635  0.4019 -0.2636 -0.0371
  206MOL0     H28418   3.226   8.016   7.404 -0.7790  1.5357  1.5784
  206MOL0     H28419   3.408   8.025   7.410  0.9597 -0.7278  2.6645
  206MOL0     H28420   3.245   8.262   7.475 -0.2189 -0.9288  0.8742
  206MOL0     H28421   3.411   8.260   7.412 -0.5911  0.2693 -0.5055
  206MOL0     H28422   3.150   8.291   7.279  0.6168  0.3701  0.3589
  206MOL0     H28423   3.233   8.158   7.209 -2.9676  0.7763 -0.5098
  206MOL0     H28424   3.442   8.500   7.071 -0.1296 -0.3149 -0.8692
  206MOL0     H28425   3.606   8.080   7.473 -0.5512 -0.4780 -1.1850
  206MOL0     H28426   3.748   7.925   7.364  1.2220 -0.5964 -1.6549
  206MOL0     H28427   3.903   7.964   7.449 -0.5085 -1.2135  1.9677
  206MOL0     H28428   3.838   7.802   7.461  1.2725  0.2825  1.8745
  207MOL0     O28429  11.456   8.498   8.693  0.0186 -1.0528  0.2836
  207MOL0     C28430  11.537   8.409   8.669 -0.5144 -0.4634  0.1277
  207MOL0     O28431  11.589   8.383   8.551 -0.8848 -0.3642  0.0092
  207MOL0     C28432  11.547   8.470   8.446 -0.5629  0.4962  0.1390
  207MOL0     C28433  11.600   8.597   8.438  0.0322 -0.2312  0.0906
  207MOL0     C28434  11.572   8.676   8.327 -1.1370 -0.3481 -1.0051
  207MOL0     C28435  11.529   8.622   8.206 -0.3296  0.5556 -0.5232
  207MOL0     O28436  11.547   8.696   8.093 -0.0630  0.3177 -0.5064
  207MOL0     C28437  11.501   8.641   7.971 -0.6913 -0.0425  0.6872
  207MOL0     C28438  11.537   8.735   7.857  0.0117 -0.2009  1.2671
  207MOL0     C28439  11.461   8.683   7.730 -0.1118  0.0586  0.0476
  207MOL0     C28440  11.524   8.753   7.610  0.1750  0.3924 -0.7695
  207MOL0     C28441  11.473   8.719   7.477 -0.5677  0.5682  0.1512
  207MOL0     C28442  11.507   8.571   7.430 -0.7516 -0.8245 -0.9170
  207MOL0     C28443  11.471   8.564   7.285  0.2690  0.5323 -0.0737
  207MOL0     C28444  11.559   8.641   7.180 -0.2641  0.2348 -0.6522
  207MOL0     N28445  11.524   8.592   7.048 -0.4832  0.0023  0.3859
  207MOL0     C28446  11.598   8.505   6.980  0.0039  0.9497 -0.2790
  207MOL0     C28447  11.525   8.458   6.884  0.4142  0.2398  0.6604
  207MOL0     C28448  11.581   8.363   6.773  0.4325 -0.1354  0.0997
  207MOL0     C28449  11.551   8.221   6.819 -0.7235  0.4536 -0.2649
  207MOL0     C28450  11.615   8.114   6.733 -0.7990 -1.2119 -1.7391
  207MOL0     C28451  11.539   8.074   6.611  0.3570  0.2905 -0.1900
  207MOL0     O28452  11.406   8.017   6.659 -0.1712  1.2444 -0.0074
  207MOL0     C28453  11.396   7.889   6.688  0.5805  0.5386  0.6564
  207MOL0     C28454  11.498   7.794   6.667 -0.3060 -0.2765  1.2333
  207MOL0     C28455  11.479   7.665   6.715  0.8800  0.1801  0.3939
  207MOL0     C28456  11.595   7.577   6.713 -0.6189  0.0460  0.9575
  207MOL0     C28457  11.350   7.627   6.754  0.1123  0.1676 -0.0042
  207MOL0     C28458  11.310   7.477   6.789 -0.7418 -1.1874 -0.3433
  207MOL0     O28459  11.176   7.447   6.788  0.1225  0.0077 -0.2735
  207MOL0     C28460  11.125   7.334   6.734 -0.3652  0.5330  0.0604
  207MOL0     C28461  10.988   7.297   6.761  0.6462 -0.3362  0.1983
  207MOL0     C28462  10.936   7.176   6.713  0.1815  0.5360 -0.3448
  207MOL0     C28463  11.016   7.095   6.636  0.2524  0.3220  0.3234
  207MOL0     O28464  10.967   6.980   6.584  0.1156 -0.6068  0.0987
  207MOL0     C28465  11.024   6.922   6.469 -0.0018  0.3195 -0.2149
  207MOL0     C28466  10.930   6.830   6.402 -0.1235  0.0420 -0.1232
  207MOL0     C28467  11.011   6.732   6.309  0.1395  0.6407 -0.6645
  207MOL0     C28468  11.048   6.805   6.175 -0.2874  0.3637 -1.2422
  207MOL0     C28469  11.100   6.707   6.073  0.3182  0.2003  0.2102
  207MOL0     C28470  10.992   6.622   6.005  0.0358 -0.6194  1.1248
  207MOL0     C28471  11.043   6.515   5.907  0.4637  0.6504 -0.4755
  207MOL0     C28472  10.937   6.477   5.812 -0.2390  0.5528  1.3030
  207MOL0    Cl28473  10.981   6.330   5.726  0.2435 -0.1802 -0.4441
  207MOL0     C28474  11.153   7.120   6.614  0.4866 -0.2938 -0.8584
  207MOL0     C28475  11.204   7.244   6.668  0.0343 -0.1174  0.4083
  207MOL0     O28476  11.397   7.401   6.829  0.2912 -0.6078 -0.2192
  207MOL0     C28477  11.251   7.722   6.767 -1.0258 -0.7932  0.0058
  207MOL0     C28478  11.274   7.853   6.733 -0.0357  0.3374  1.1941
  207MOL0     N28479  11.400   8.523   6.889  0.2399  0.4935 -0.3954
  207MOL0     N28480  11.410   8.614   6.977  0.4109  0.6383  0.4114
  207MOL0     C28481  11.488   8.488   8.206 -0.5505  0.5373  0.2030
  207MOL0     C28482  11.490   8.415   8.332 -0.2713 -0.5396 -0.2645
  207MOL0     C28483  11.606   8.337   8.779  0.0452  0.3249  0.4119
  207MOL0     C28484  11.750   8.319   8.763 -0.1295  0.2390 -0.1871
  207MOL0     C28485  11.820   8.264   8.874 -0.3519 -0.0492 -0.1005
  207MOL0     C28486  11.762   8.231   8.996  0.7194 -0.2618 -0.5559
  207MOL0     O28487  11.835   8.174   9.094  0.0531  0.2154  0.5001
  207MOL0     C28488  11.794   8.182   9.229 -0.1190 -0.4132 -0.3370
  207MOL0     C28489  11.911   8.122   9.321  0.0202 -0.2422  0.1221
  207MOL0     C28490  11.876   8.153   9.473  0.0847 -1.2254  0.4921
  207MOL0     C28491  11.999   8.140   9.568  0.1658 -0.7042 -0.0945
  207MOL0     C28492  12.009   8.002   9.614  0.1669  0.6072 -0.3400
  207MOL0     C28493  12.005   7.890   9.665 -0.0665  0.1030 -0.6630
  207MOL0     C28494  11.619   8.245   8.999 -0.2687 -0.5785 -0.0017
  207MOL0     C28495  11.541   8.304   8.894 -1.0876  0.5043 -1.1617
  207MOL0     C28496  11.391   8.300   8.901  1.4556 -0.0673  1.0310
  207MOL0     H28497  11.645   8.641   8.526  2.1661  0.4055 -1.2586
  207MOL0     H28498  11.617   8.774   8.339 -1.8746  0.1988 -2.3880
  207MOL0     H28499  11.394   8.642   7.992 -0.5203  0.8901  1.5242
  207MOL0     H28500  11.550   8.545   7.952  0.7355  0.3222  2.2823
  207MOL0     H28501  11.500   8.836   7.880 -0.2546  0.5787 -2.1050
  207MOL0     H28502  11.644   8.738   7.834 -0.2059 -0.2853  0.2306
  207MOL0     H28503  11.473   8.574   7.720 -0.6660  0.0117 -0.1436
  207MOL0     H28504  11.354   8.706   7.731 -0.1442  0.0759 -1.6585
  207MOL0     H28505  11.512   8.861   7.624  2.3271  0.5728  0.0973
  207MOL0     H28506  11.633   8.743   7.611  0.0188 -1.5913 -0.8808
  207MOL0     H28507  11.524   8.786   7.407  0.8306  1.4889  1.9303
  207MOL0     H28508  11.367   8.743   7.479 -0.4011  2.1108 -2.9362
  207MOL0     H28509  11.610   8.543   7.453 -1.0595  0.0657  1.9502
  207MOL0     H28510  11.446   8.495   7.479 -2.4451 -1.9031 -4.3662
  207MOL0     H28511  11.369   8.601   7.270 -0.8679 -3.0455 -2.3967
  207MOL0     H28512  11.461   8.458   7.258 -1.5900  1.1996 -2.3990
  207MOL0     H28513  11.544   8.750   7.184 -1.5742  0.0477  2.1159
  207MOL0     H28514  11.660   8.606   7.200 -1.0238 -1.9417 -0.4217
  207MOL0     H28515  11.693   8.461   7.007 -0.7990 -0.2710  0.6935
  207MOL0     H28516  11.689   8.379   6.771  0.4053 -0.0235 -0.8330
  207MOL0     H28517  11.533   8.374   6.675  1.2100 -1.6474 -0.4744
  207MOL0     H28518  11.583   8.216   6.923  2.8375 -0.6415 -1.2745
  207MOL0     H28519  11.444   8.200   6.808 -0.3211 -1.2080 -1.3682
  207MOL0     H28520  11.715   8.140   6.697 -0.7406  0.8456 -0.2696
  207MOL0     H28521  11.625   8.027   6.798 -0.7238 -0.7454 -1.1109
  207MOL0     H28522  11.524   8.159   6.544  0.3136  0.8718  0.5504
  207MOL0     H28523  11.602   8.002   6.558  1.1491 -0.4701  1.6845
  207MOL0     H28524  11.600   7.820   6.641 -0.7733  2.4637  1.9041
  207MOL0     H28525  11.562   7.482   6.671  0.2353  0.4962 -0.8213
  207MOL0     H28526  11.629   7.564   6.816 -0.8536  2.3554  1.3670
  207MOL0     H28527  11.674   7.607   6.643  0.1309 -3.5949  0.0078
  207MOL0     H28528  10.935   7.368   6.824  0.9151  0.7294 -0.7556
  207MOL0     H28529  10.838   7.138   6.739 -0.1077  2.2415  1.2537
  207MOL0     H28530  11.052   6.996   6.394 -1.1328  0.7707 -0.2060
  207MOL0     H28531  11.112   6.868   6.505  1.5207  1.2254 -2.4054
  207MOL0     H28532  10.880   6.768   6.476  1.7329  0.5941  1.6953
  207MOL0     H28533  10.854   6.892   6.353  0.2606  1.4070  0.9189
  207MOL0     H28534  10.955   6.643   6.279  0.9651 -0.5905  1.2943
  207MOL0     H28535  11.097   6.689   6.361 -1.8984  1.1041  3.4745
  207MOL0     H28536  11.136   6.859   6.209 -0.7229 -0.1778  0.8851
  207MOL0     H28537  10.957   6.859   6.145 -0.8773 -1.8987 -3.9913
  207MOL0     H28538  11.151   6.761   5.993  1.4439  1.7179  1.8621
  207MOL0     H28539  11.175   6.644   6.123 -0.4627  1.4841  3.2093
  207MOL0     H28540  10.936   6.692   5.943  2.3615 -0.4966 -1.0002
  207MOL0     H28541  10.926   6.584   6.083 -0.0953 -2.3417  0.2234
  207MOL0     H28542  11.057   6.427   5.970 -0.2404 -0.6747 -2.0709
  207MOL0     H28543  11.138   6.545   5.863  0.8857 -0.8917 -0.6835
  207MOL0     H28544  10.908   6.561   5.748 -1.0224 -1.4550 -1.1606
  207MOL0     H28545  10.850   6.449   5.872 -0.7349 -0.0261  0.3517
  207MOL0     H28546  11.221   7.053   6.563 -3.5689 -2.2620 -4.1809
  207MOL0     H28547  11.304   7.280   6.645  0.8653 -0.9286  2.5390
  207MOL0     H28548  11.156   7.691   6.809 -0.9155 -4.8453 -2.2386
  207MOL0     H28549  11.194   7.927   6.731  1.6824  2.3251 -1.3659
  207MOL0     H28550  11.448   8.437   8.120  0.7201 -1.6529  0.8144
  207MOL0     H28551  11.441   8.320   8.350 -0.9830 -0.0893  0.2123
  207MOL0     H28552  11.817   8.366   8.691 -0.4238  4.6733  2.0729
  207MOL0     H28553  11.924   8.235   8.887 -0.4036 -1.9329 -3.0966
  207MOL0     H28554  11.779   8.289   9.250 -1.1211 -0.9455  2.0505
  207MOL0     H28555  11.701   8.132   9.256 -1.2428  1.8493  0.2794
  207MOL0     H28556  12.011   8.156   9.292  0.1045  2.3337  2.9014
  207MOL0     H28557  11.914   8.013   9.310 -0.3125 -0.1340 -1.2288
  207MOL0     H28558  11.839   8.255   9.480  1.6799 -0.7000  2.0525
  207MOL0     H28559  11.783   8.104   9.504 -2.4791  2.5135 -0.6036
  207MOL0     H28560  11.991   8.192   9.663  2.9616 -1.4961  0.6613
  207MOL0     H28561  12.092   8.174   9.521 -1.6382  1.3790 -2.4129
  207MOL0     H28562  12.003   7.803   9.726  1.7254  1.3204  1.2517
  207MOL0     H28563  11.562   8.215   9.087  0.5203  0.4455  0.8936
  207MOL0     H28564  11.356   8.287   9.004 -1.0372 -0.4141  0.2142
  207MOL0     H28565  11.345   8.395   8.869 -0.4557 -1.6068 -1.1451
  207MOL0     H28566  11.347   8.218   8.844  0.5486  0.9360  0.2253
  208MOL0     O28567   0.697  10.766   0.381  0.2589  0.1672  0.0829
  208MOL0     C28568   0.682  10.881   0.330 -0.1445  0.2323  0.3958
  208MOL0     O28569   0.670  10.896   0.192 -0.7839  0.0730  0.2073
  208MOL0     C28570   0.682  10.789   0.099 -1.0240  0.5099  0.0457
  208MOL0     C28571   0.760  10.817  -0.009 -0.1235  0.2882  0.0928
  208MOL0     C28572   0.764  10.732  -0.120  0.1605  0.8011 -0.4934
  208MOL0     C28573   0.710  10.606  -0.104 -1.1790 -1.4881  0.7802
  208MOL0     O28574   0.711  10.525  -0.216 -0.0901 -0.0317 -0.4361
  208MOL0     C28575   0.593  10.477  -0.270 -0.9390 -0.4471 -0.3914
  208MOL0     C28576   0.626  10.331  -0.310  1.1961  0.1279  0.2930
  208MOL0     C28577   0.675  10.244  -0.195 -0.1652  0.8309 -0.5931
  208MOL0     C28578   0.704  10.104  -0.241  0.1290  0.4221  0.4942
  208MOL0     C28579   0.682  10.008  -0.126 -0.0760  1.0035  0.2119
  208MOL0     C28580   0.530   9.974  -0.108  0.5167  0.9091 -0.2253
  208MOL0     C28581   0.495   9.897   0.026 -0.1322  0.0049 -0.1580
  208MOL0     C28582   0.341   9.849   0.033 -0.7444 -0.1188  0.2267
  208MOL0     N28583   0.325   9.734   0.131 -0.3403  0.4715  0.3481
  208MOL0     C28584   0.365   9.733   0.261 -0.7086  0.8541  0.6446
  208MOL0     C28585   0.352   9.603   0.301 -0.3172  0.0195 -0.2071
  208MOL0     C28586   0.365   9.558   0.440  0.3934 -0.0668 -0.1340
  208MOL0     C28587   0.266   9.616   0.541 -0.5497 -0.5276 -0.8598
  208MOL0     C28588   0.271   9.534   0.673  0.0402  0.8554  0.9344
  208MOL0     C28589   0.190   9.590   0.787  0.1514  0.1347 -0.4423
  208MOL0     O28590   0.219   9.731   0.808 -0.6114 -0.5689 -0.0042
  208MOL0     C28591   0.126   9.790   0.888  0.3179  0.0527 -0.8591
  208MOL0     C28592   0.117   9.926   0.899 -0.3778  0.6709 -0.2679
  208MOL0     C28593   0.020  10.002   0.958  0.0605 -0.0495  0.1673
  208MOL0     C28594   0.041  10.144   0.935 -0.9021  1.1289 -0.1389
  208MOL0     C28595  -0.083   9.939   1.029  0.5482  0.5810 -0.0812
  208MOL0     C28596  -0.168  10.017   1.117  0.5320  0.0124 -0.0703
  208MOL0     O28597  -0.301   9.976   1.123 -0.6313 -0.0720  0.2175
  208MOL0     C28598  -0.394  10.066   1.171 -0.7296 -0.1587 -1.0110
  208MOL0     C28599  -0.489  10.028   1.266  0.6290 -0.4777 -0.2628
  208MOL0     C28600  -0.584  10.122   1.316 -0.5495  0.6012  0.6928
  208MOL0     C28601  -0.587  10.253   1.258 -0.4866 -0.4816  0.2975
  208MOL0     O28602  -0.680  10.347   1.293  0.1293 -0.2415 -0.0576
  208MOL0     C28603  -0.800  10.323   1.363  0.2365  0.7380 -0.4037
  208MOL0     C28604  -0.891  10.242   1.273  0.8732  0.2161 -0.9356
  208MOL0     C28605  -0.907  10.278   1.124 -0.3198 -0.6483  0.6980
  208MOL0     C28606  -0.881  10.432   1.088 -0.7277  0.8036  0.6746
  208MOL0     C28607  -0.994  10.479   0.990  0.5335  0.1852 -0.4113
  208MOL0     C28608  -0.960  10.620   0.941  0.5677 -0.7962  0.0349
  208MOL0     C28609  -1.017  10.667   0.810  0.0289  0.0685 -0.0580
  208MOL0     C28610  -1.171  10.690   0.827  0.0382 -0.2036  0.4169
  208MOL0    Cl28611  -1.280  10.540   0.833  0.4093 -0.5692  0.2183
  208MOL0     C28612  -0.501  10.282   1.153 -0.0403  0.1882  0.3118
  208MOL0     C28613  -0.402  10.193   1.112 -0.1046 -0.8611 -0.0402
  208MOL0     O28614  -0.116  10.106   1.183 -0.2868 -0.0809 -0.8165
  208MOL0     C28615  -0.087   9.795   1.013 -0.1645 -0.6398 -0.5317
  208MOL0     C28616   0.011   9.723   0.946 -0.2691 -0.1518  0.9138
  208MOL0     N28617   0.309   9.524   0.198 -0.3783 -0.2717 -0.3415
  208MOL0     N28618   0.299   9.601   0.096  0.4982 -0.7765 -0.2388
  208MOL0     C28619   0.647  10.566   0.016  0.6211 -1.3075 -0.1180
  208MOL0     C28620   0.629  10.665   0.109 -0.3897 -0.1165  0.1479
  208MOL0     C28621   0.685  10.999   0.421  0.4307  0.1680 -0.2998
  208MOL0     C28622   0.731  10.963   0.551  0.5182 -0.6576 -0.6409
  208MOL0     C28623   0.751  11.065   0.642  0.6020  0.7620 -1.0277
  208MOL0     C28624   0.745  11.200   0.603  0.7044  0.7972 -0.8262
  208MOL0     O28625   0.794  11.302   0.685  0.1070  0.2129  0.8448
  208MOL0     C28626   0.781  11.435   0.651 -1.2609 -0.0500  0.0427
  208MOL0     C28627   0.858  11.513   0.765  0.2102 -0.5339  0.7430
  208MOL0     C28628   0.844  11.666   0.736  0.1146 -0.6107 -0.5238
  208MOL0     C28629   0.952  11.726   0.642  0.0692 -0.3690  0.4185
  208MOL0     C28630   0.966  11.868   0.651 -0.1991 -0.1598  0.6935
  208MOL0     C28631   0.981  11.985   0.664 -0.9130 -0.2266  0.3126
  208MOL0     C28632   0.686  11.229   0.476 -0.0625 -0.4015 -0.0660
  208MOL0     C28633   0.657  11.126   0.386 -0.4391 -0.2057  0.9196
  208MOL0     C28634   0.603  11.167   0.252 -0.2133 -0.3266  0.0707
  208MOL0     H28635   0.814  10.911  -0.017  0.4512 -0.0098  0.3733
  208MOL0     H28636   0.807  10.766  -0.213  0.3257 -1.5816 -1.3798
  208MOL0     H28637   0.573  10.539  -0.358  3.0360 -0.2446 -1.3086
  208MOL0     H28638   0.508  10.499  -0.204 -0.2489 -0.3128  0.4748
  208MOL0     H28639   0.538  10.283  -0.352  2.9767 -2.7032 -0.4421
  208MOL0     H28640   0.705  10.338  -0.385 -0.4122  2.6352 -1.3208
  208MOL0     H28641   0.760  10.290  -0.144  0.9585  0.1730 -1.8023
  208MOL0     H28642   0.595  10.238  -0.121  0.8891 -0.2128  0.5126
  208MOL0     H28643   0.657  10.075  -0.335  1.2422  0.5570 -0.1150
  208MOL0     H28644   0.809  10.094  -0.270 -0.5253 -2.4810 -1.3464
  208MOL0     H28645   0.726  10.049  -0.035  1.8395 -1.7385  0.6658
  208MOL0     H28646   0.735   9.913  -0.141 -2.6906 -0.7603  1.4151
  208MOL0     H28647   0.484  10.073  -0.097  4.1881  2.5963  1.8921
  208MOL0     H28648   0.490   9.924  -0.197  0.1610  1.6453 -0.4973
  208MOL0     H28649   0.528   9.951   0.115 -0.1077  0.0634 -0.2025
  208MOL0     H28650   0.558   9.808   0.022  2.6062  1.8177 -0.7275
  208MOL0     H28651   0.284   9.931   0.078 -0.3097  0.0768  0.4193
  208MOL0     H28652   0.305   9.826  -0.068  0.9869  0.7424 -0.6367
  208MOL0     H28653   0.388   9.820   0.322 -3.2158  3.3327 -1.6472
  208MOL0     H28654   0.466   9.584   0.472 -0.1070  0.0892  1.4332
  208MOL0     H28655   0.375   9.449   0.440  0.2665 -0.1468  2.5950
  208MOL0     H28656   0.297   9.714   0.578  1.0294 -0.5454 -2.0344
  208MOL0     H28657   0.168   9.613   0.492 -0.6959  1.3433 -0.7676
  208MOL0     H28658   0.255   9.428   0.650 -2.5163  1.4950 -0.5714
  208MOL0     H28659   0.379   9.531   0.693 -0.0568  1.0266  1.5245
  208MOL0     H28660   0.087   9.570   0.753  0.8004 -3.5367 -0.6267
  208MOL0     H28661   0.216   9.524   0.870  2.6675 -1.0886 -2.0775
  208MOL0     H28662   0.200   9.966   0.842  3.4180 -1.4339  3.1753
  208MOL0     H28663   0.147  10.165   0.950 -0.3586 -1.7314  0.6317
  208MOL0     H28664  -0.014  10.216   0.996 -1.7026  1.0077 -0.6863
  208MOL0     H28665   0.012  10.164   0.831 -2.0406 -0.8164 -0.2529
  208MOL0     H28666  -0.483   9.928   1.308 -2.3996 -0.2704  0.9377
  208MOL0     H28667  -0.668  10.103   1.382 -1.7280  1.6553 -0.4348
  208MOL0     H28668  -0.778  10.276   1.459  3.2921  1.4994 -0.6281
  208MOL0     H28669  -0.849  10.415   1.396  2.8527  2.0644  0.1110
  208MOL0     H28670  -0.874  10.134   1.282  0.7534  0.1185 -1.8258
  208MOL0     H28671  -0.993  10.262   1.310  1.4436  1.2549  0.1621
  208MOL0     H28672  -1.005  10.245   1.090  0.1284 -1.4821  0.1876
  208MOL0     H28673  -0.838  10.217   1.065  1.3653  1.2688  0.5436
  208MOL0     H28674  -0.782  10.436   1.042 -0.8292 -2.5520 -0.1582
  208MOL0     H28675  -0.894  10.495   1.176 -1.4989  0.0569  1.1099
  208MOL0     H28676  -0.989  10.417   0.900  2.0443 -0.3968  0.0485
  208MOL0     H28677  -1.092  10.471   1.039  1.1815 -1.1032  0.7658
  208MOL0     H28678  -0.853  10.638   0.949  0.9677 -2.7033 -0.3555
  208MOL0     H28679  -1.010  10.686   1.012 -2.7821 -1.6320 -1.3358
  208MOL0     H28680  -0.989  10.617   0.717  0.3967 -0.1368  0.1607
  208MOL0     H28681  -0.968  10.765   0.800 -0.1194  0.2860  1.2193
  208MOL0     H28682  -1.204  10.736   0.734  0.7245 -0.0694  0.2317
  208MOL0     H28683  -1.184  10.763   0.907  0.4489  0.6664 -0.2887
  208MOL0     H28684  -0.522  10.369   1.092 -2.8962  0.5572  1.6598
  208MOL0     H28685  -0.329  10.235   1.044 -1.8279 -1.0971 -2.1661
  208MOL0     H28686  -0.165   9.729   1.051 -1.9437  2.5259  1.8355
  208MOL0     H28687   0.005   9.616   0.928  0.6895  0.1152 -1.2447
  208MOL0     H28688   0.594  10.473   0.031 -0.6490 -0.6541 -0.4618
  208MOL0     H28689   0.561  10.649   0.192 -2.5252  2.0121 -1.0559
  208MOL0     H28690   0.763  10.865   0.585 -0.6911 -0.1430  2.2766
  208MOL0     H28691   0.799  11.050   0.739 -0.9698  0.9264 -0.1985
  208MOL0     H28692   0.825  11.451   0.552 -0.7726 -0.9199  0.1029
  208MOL0     H28693   0.674  11.456   0.645 -1.6294 -1.4760  1.0169
  208MOL0     H28694   0.965  11.491   0.770  0.7118  1.3462 -0.5240
  208MOL0     H28695   0.808  11.486   0.858 -0.9694 -2.9640 -0.5136
  208MOL0     H28696   0.744  11.674   0.692  0.0921 -5.0009 -1.7447
  208MOL0     H28697   0.858  11.724   0.828  1.9925  1.2607 -1.8879
  208MOL0     H28698   0.937  11.698   0.538 -3.1778  0.5785  0.5473
  208MOL0     H28699   1.050  11.681   0.661  0.6936  1.4788  1.8296
  208MOL0     H28700   0.997  12.091   0.662 -0.6462 -0.0732  3.8067
  208MOL0     H28701   0.658  11.330   0.447 -0.3520 -0.0159  1.4307
  208MOL0     H28702   0.551  11.261   0.274 -1.0118 -1.0603  1.4145
  208MOL0     H28703   0.686  11.183   0.183  1.2403 -1.3233  1.4957
  208MOL0     H28704   0.526  11.095   0.227 -1.5119  0.9328  0.3244
  209MOL0     O28705  10.961   6.559   1.889 -0.2661  0.5490 -0.3357
  209MOL0     C28706  11.074   6.580   1.935  0.2570 -0.1713 -0.0714
  209MOL0     O28707  11.095   6.690   2.018  0.2967 -0.0955 -0.2507
  209MOL0     C28708  11.006   6.788   2.036 -0.4597 -0.3569 -0.2904
  209MOL0     C28709  11.028   6.860   2.152 -0.1129  0.0098  0.6329
  209MOL0     C28710  10.952   6.967   2.181  0.8582  0.1609 -0.3843
  209MOL0     C28711  10.848   7.013   2.095  0.2952 -0.8210  0.3000
  209MOL0     O28712  10.758   7.109   2.155 -0.3584  0.0546 -0.6209
  209MOL0     C28713  10.683   7.198   2.078  0.9130  0.0463  0.0027
  209MOL0     C28714  10.618   7.283   2.188 -0.4718  0.2705  0.0178
  209MOL0     C28715  10.522   7.379   2.143 -0.6004 -0.6014  0.4523
  209MOL0     C28716  10.591   7.475   2.048 -0.0015 -0.1363 -0.4749
  209MOL0     C28717  10.480   7.566   2.006 -0.3989 -0.4668 -0.3773
  209MOL0     C28718  10.534   7.708   1.975 -0.1438  0.1119 -0.2070
  209MOL0     C28719  10.588   7.788   2.094 -0.6272  0.0321 -0.0598
  209MOL0     C28720  10.591   7.941   2.072 -0.2330 -0.3271  0.8964
  209MOL0     N28721  10.688   7.979   1.969 -0.0196  0.8492  0.3480
  209MOL0     C28722  10.830   7.973   1.969  0.7485  0.0346 -0.3023
  209MOL0     C28723  10.864   7.998   1.845 -0.6540  0.4142  0.1037
  209MOL0     C28724  11.005   8.012   1.802 -0.1250  0.2328 -0.3410
  209MOL0     C28725  11.103   8.093   1.896 -0.5832  0.8786  0.6455
  209MOL0     C28726  11.242   8.093   1.838 -0.2086 -0.3074  0.5183
  209MOL0     C28727  11.262   8.219   1.769  0.6663 -0.2434  0.6105
  209MOL0     O28728  11.295   8.330   1.845  0.1966  0.4366  0.2977
  209MOL0     C28729  11.289   8.454   1.783  0.4395 -0.2491 -0.9934
  209MOL0     C28730  11.288   8.571   1.866  1.1805 -0.4849  0.5798
  209MOL0     C28731  11.277   8.704   1.821  0.6270  0.3286  0.0247
  209MOL0     C28732  11.277   8.813   1.918 -0.2226  0.1078 -0.0465
  209MOL0     C28733  11.254   8.725   1.676 -0.9441  0.7466 -0.0297
  209MOL0     C28734  11.240   8.861   1.602 -0.7212  0.5612 -0.1926
  209MOL0     O28735  11.249   8.862   1.468  0.9125 -0.5414  0.2157
  209MOL0     C28736  11.244   8.979   1.402  0.3074  0.2813 -0.0038
  209MOL0     C28737  11.304   9.105   1.443 -0.4223 -0.4143 -0.5687
  209MOL0     C28738  11.318   9.211   1.355  0.2887 -0.2491  0.5647
  209MOL0     C28739  11.278   9.202   1.221 -0.6175 -0.8663  0.1626
  209MOL0     O28740  11.283   9.312   1.137 -0.7763  0.2358  0.9614
  209MOL0     C28741  11.259   9.445   1.186  0.2635  0.5573 -0.4433
  209MOL0     C28742  11.105   9.464   1.215  0.3664 -0.3598 -0.0999
  209MOL0     C28743  11.060   9.438   1.360 -0.4546 -0.1400  1.2036
  209MOL0     C28744  11.137   9.537   1.456  0.7579  0.7571 -0.9791
  209MOL0     C28745  11.170   9.680   1.409 -0.3329  1.2935  0.0053
  209MOL0     C28746  11.241   9.766   1.514  0.4327 -0.4184  0.0781
  209MOL0     C28747  11.314   9.885   1.457 -0.1121  0.6692 -0.0833
  209MOL0     C28748  11.320   9.988   1.567  0.3551  0.5069 -0.5491
  209MOL0    Cl28749  11.413   9.931   1.714 -0.1135  0.2500 -0.0039
  209MOL0     C28750  11.208   9.088   1.182  0.4434 -0.1376 -0.7414
  209MOL0     C28751  11.198   8.980   1.268 -0.5474  0.8266  0.6574
  209MOL0     O28752  11.224   8.963   1.670 -0.1759  0.1825 -0.0786
  209MOL0     C28753  11.263   8.615   1.600  0.5786 -0.7813 -0.0424
  209MOL0     C28754  11.283   8.485   1.647  0.5622  0.0451  0.6355
  209MOL0     N28755  10.749   8.012   1.765 -0.2633 -0.1610 -0.2618
  209MOL0     N28756  10.645   8.011   1.844  0.3732 -0.8790  0.5333
  209MOL0     C28757  10.837   6.954   1.963  0.0557 -1.0299 -0.4161
  209MOL0     C28758  10.917   6.842   1.942 -0.1860 -0.5527 -0.6389
  209MOL0     C28759  11.186   6.490   1.897 -0.4215  0.2991  0.0542
  209MOL0     C28760  11.315   6.542   1.902  0.3091  1.0622  0.0388
  209MOL0     C28761  11.422   6.468   1.873  0.3728  0.3316 -0.0149
  209MOL0     C28762  11.410   6.337   1.820  0.6684 -0.1722 -0.4921
  209MOL0     O28763  11.521   6.266   1.783  0.5545 -0.3072 -0.4757
  209MOL0     C28764  11.507   6.127   1.767  0.2224  0.1321 -0.8293
  209MOL0     C28765  11.649   6.084   1.743  0.6572 -0.1538  0.1296
  209MOL0     C28766  11.662   5.932   1.739 -0.0353 -0.0204 -0.4469
  209MOL0     C28767  11.804   5.890   1.703 -0.0662  0.2133  0.2191
  209MOL0     C28768  11.833   5.756   1.740 -0.8260  0.6323  0.0742
  209MOL0     C28769  11.851   5.634   1.743  0.4722  0.0166  0.4262
  209MOL0     C28770  11.283   6.282   1.808 -0.1904  0.5910 -0.4284
  209MOL0     C28771  11.165   6.360   1.846  0.1411  0.4131 -0.2550
  209MOL0     C28772  11.028   6.293   1.816  0.3694  0.4573 -0.0551
  209MOL0     H28773  11.098   6.820   2.224  1.4482 -1.8217 -1.7764
  209MOL0     H28774  10.970   7.026   2.271 -1.4598 -1.8979  1.6191
  209MOL0     H28775  10.609   7.153   2.012  0.1702  1.2804 -0.0389
  209MOL0     H28776  10.755   7.255   2.018  2.0943 -0.8305  0.5479
  209MOL0     H28777  10.560   7.216   2.251  0.8892  0.5233  1.6241
  209MOL0     H28778  10.688   7.327   2.260  1.0112  1.8074 -2.2256
  209MOL0     H28779  10.449   7.328   2.080  0.8388  0.3826 -2.1764
  209MOL0     H28780  10.480   7.431   2.230 -1.5476 -0.3709 -0.1363
  209MOL0     H28781  10.665   7.524   2.112  0.7340  0.7719 -1.9499
  209MOL0     H28782  10.637   7.440   1.955 -0.0050 -1.1886 -0.0946
  209MOL0     H28783  10.404   7.571   2.085 -0.6322 -0.1584 -0.6177
  209MOL0     H28784  10.433   7.518   1.920 -0.3161  1.8077 -1.7887
  209MOL0     H28785  10.607   7.692   1.896  0.4688  1.6789 -0.0052
  209MOL0     H28786  10.446   7.760   1.936 -2.2341 -2.4610  0.7718
  209MOL0     H28787  10.688   7.746   2.105 -1.8678 -2.7970  1.3257
  209MOL0     H28788  10.527   7.767   2.182 -1.9727 -0.2760 -1.0397
  209MOL0     H28789  10.492   7.983   2.051  0.6704 -0.1288 -4.2874
  209MOL0     H28790  10.629   7.991   2.162 -0.9323 -0.3592  1.2208
  209MOL0     H28791  10.902   7.963   2.049  0.9041 -2.2760 -0.6686
  209MOL0     H28792  11.010   8.072   1.711  2.7913 -1.5505 -1.4952
  209MOL0     H28793  11.036   7.914   1.764 -1.2498  1.3113 -4.4851
  209MOL0     H28794  11.070   8.190   1.932 -0.4411  3.1946 -4.5516
  209MOL0     H28795  11.119   8.030   1.984 -0.0694  0.3389  0.1803
  209MOL0     H28796  11.320   8.095   1.914 -0.2384  0.0617  0.5423
  209MOL0     H28797  11.255   8.004   1.776  1.0092 -0.1078  0.4623
  209MOL0     H28798  11.334   8.206   1.687  0.4774  0.1248  0.3853
  209MOL0     H28799  11.168   8.246   1.718  0.8204 -2.1656 -0.8209
  209MOL0     H28800  11.288   8.551   1.972 -0.4271 -0.6630  0.5798
  209MOL0     H28801  11.323   8.767   2.006 -1.7961 -1.1902  0.1518
  209MOL0     H28802  11.174   8.828   1.954 -0.3750 -3.7919  1.6578
  209MOL0     H28803  11.331   8.904   1.890  0.9003  0.0043  1.6076
  209MOL0     H28804  11.354   9.127   1.537 -2.8018 -4.0677  1.8647
  209MOL0     H28805  11.375   9.293   1.398 -1.5494  1.1408  0.4536
  209MOL0     H28806  11.321   9.465   1.274  0.7373  0.9883 -0.8710
  209MOL0     H28807  11.297   9.521   1.117  0.5479 -1.2976 -2.4564
  209MOL0     H28808  11.075   9.560   1.171  1.1424 -1.0188 -2.2005
  209MOL0     H28809  11.047   9.406   1.143  1.1967  0.7680 -1.7741
  209MOL0     H28810  11.076   9.337   1.397 -0.3356 -0.1544  1.1110
  209MOL0     H28811  10.950   9.440   1.362 -0.4368  1.1084  2.0657
  209MOL0     H28812  11.227   9.494   1.501 -0.5117  1.1752  2.2554
  209MOL0     H28813  11.064   9.537   1.538  2.3493  2.0878  0.5265
  209MOL0     H28814  11.228   9.682   1.316  1.1820  1.4028  0.9174
  209MOL0     H28815  11.073   9.725   1.387 -1.4063  0.2690  2.3222
  209MOL0     H28816  11.315   9.712   1.574  2.8242  0.9044 -1.4946
  209MOL0     H28817  11.173   9.801   1.591  0.2560 -1.0045  0.1909
  209MOL0     H28818  11.260   9.926   1.371  1.1519 -2.8172 -2.7726
  209MOL0     H28819  11.410   9.850   1.418 -0.3588 -0.9421  0.6557
  209MOL0     H28820  11.218  10.022   1.589 -0.0744  0.6340 -2.5127
  209MOL0     H28821  11.372  10.080   1.537 -0.0554  0.4671 -1.4095
  209MOL0     H28822  11.166   9.075   1.083 -1.1933 -0.3814 -0.0356
  209MOL0     H28823  11.159   8.895   1.213 -2.4916  1.5271  0.8664
  209MOL0     H28824  11.245   8.619   1.493 -1.4200  1.2230  0.2916
  209MOL0     H28825  11.289   8.403   1.576  1.4409  1.9987 -1.6697
  209MOL0     H28826  10.761   6.992   1.896 -1.2742 -0.2271  1.4631
  209MOL0     H28827  10.907   6.786   1.850 -1.2009 -2.0954  0.3675
  209MOL0     H28828  11.335   6.645   1.930  1.0377  0.7395  0.7392
  209MOL0     H28829  11.523   6.508   1.875  0.1460  0.8888  0.7326
  209MOL0     H28830  11.482   6.072   1.859 -1.2680  1.1709 -0.5818
  209MOL0     H28831  11.441   6.100   1.684  1.4306 -1.1876 -1.4048
  209MOL0     H28832  11.716   6.119   1.822  3.3157  3.0869 -3.2151
  209MOL0     H28833  11.692   6.132   1.655 -1.2501  0.9158 -0.2942
  209MOL0     H28834  11.656   5.893   1.841 -1.0206  3.3658  0.9206
  209MOL0     H28835  11.592   5.878   1.674  1.4805 -1.8405 -0.6522
  209MOL0     H28836  11.879   5.949   1.756 -0.5987  0.1798  1.0274
  209MOL0     H28837  11.816   5.916   1.598  2.1635  2.1292  0.8508
  209MOL0     H28838  11.873   5.531   1.727 -1.5395 -0.3892 -0.0402
  209MOL0     H28839  11.276   6.183   1.765  2.5312  1.6704 -3.7171
  209MOL0     H28840  10.958   6.287   1.900  1.2815 -0.0027  0.6836
  209MOL0     H28841  10.984   6.344   1.729  0.5066 -0.9462 -0.9918
  209MOL0     H28842  11.044   6.186   1.796  1.1402 -0.1316  3.1811
  210MOL0     O28843   1.014   7.764   8.484  0.4325  0.1085 -0.6692
  210MOL0     C28844   1.042   7.878   8.445  0.0843  1.0507  0.1004
  210MOL0     O28845   1.128   7.910   8.346  0.2409 -0.6445 -0.4134
  210MOL0     C28846   1.238   7.827   8.350 -0.7250 -0.2654 -0.1173
  210MOL0     C28847   1.288   7.808   8.221 -0.5416 -0.6298 -0.5689
  210MOL0     C28848   1.405   7.734   8.207 -0.3854  1.8964 -0.2310
  210MOL0     C28849   1.473   7.679   8.319 -0.3529  0.1785  0.3610
  210MOL0     O28850   1.594   7.625   8.291 -0.8794 -0.4956  0.7202
  210MOL0     C28851   1.676   7.588   8.397 -0.2570  0.1320 -1.3268
  210MOL0     C28852   1.821   7.556   8.353  0.0894  0.2629  0.5091
  210MOL0     C28853   1.913   7.527   8.467 -0.3282  0.0521 -0.3353
  210MOL0     C28854   2.062   7.516   8.430  1.0194  0.3445  0.2341
  210MOL0     C28855   2.136   7.455   8.549  0.4412 -0.7939  1.0125
  210MOL0     C28856   2.276   7.432   8.501 -0.2765  0.3150 -1.0057
  210MOL0     C28857   2.362   7.390   8.623 -0.1307 -0.5958  0.0018
  210MOL0     C28858   2.494   7.315   8.585 -0.3509 -0.5572 -0.5385
  210MOL0     N28859   2.561   7.253   8.703  0.9143  0.5077 -0.1693
  210MOL0     C28860   2.583   7.118   8.715  0.1174  0.8887 -0.9836
  210MOL0     C28861   2.695   7.110   8.795 -0.7193 -0.0683  0.2673
  210MOL0     C28862   2.785   6.984   8.822 -0.4853  0.2256  0.6501
  210MOL0     C28863   2.710   6.861   8.863  0.1525 -0.5664 -0.8604
  210MOL0     C28864   2.790   6.732   8.840  0.0342  0.0060 -0.2540
  210MOL0     C28865   2.780   6.701   8.685 -0.7433  0.7484 -0.0468
  210MOL0     O28866   2.853   6.585   8.640  0.0423  0.9042  0.0620
  210MOL0     C28867   2.993   6.577   8.643  0.4473  0.3180 -0.6743
  210MOL0     C28868   3.070   6.690   8.655 -0.1913  0.0891 -1.2981
  210MOL0     C28869   3.210   6.702   8.655  0.5020  0.0052 -0.0765
  210MOL0     C28870   3.258   6.841   8.688 -1.1451 -0.7948 -0.0018
  210MOL0     C28871   3.283   6.583   8.633  0.0397  0.4090 -0.3247
  210MOL0     C28872   3.432   6.589   8.623  0.6095  0.1043 -0.5988
  210MOL0     O28873   3.495   6.501   8.689 -0.4675 -0.7648 -0.4541
  210MOL0     C28874   3.642   6.494   8.682  0.6847 -0.4359 -1.1232
  210MOL0     C28875   3.731   6.599   8.658  0.4693  0.6126 -0.9222
  210MOL0     C28876   3.869   6.573   8.662  0.6785  0.2129  0.5153
  210MOL0     C28877   3.924   6.449   8.675  0.2769 -0.4134  0.0636
  210MOL0     O28878   4.062   6.426   8.687  0.4762  0.4055 -0.0632
  210MOL0     C28879   4.159   6.502   8.622 -0.5739  0.4431  0.2844
  210MOL0     C28880   4.296   6.444   8.648  0.0008  0.0327 -0.3897
  210MOL0     C28881   4.304   6.294   8.665 -0.1223  0.1563  0.7455
  210MOL0     C28882   4.244   6.210   8.544 -0.1000  0.0812 -0.1669
  210MOL0     C28883   4.222   6.058   8.595 -0.0867 -0.5170  0.2826
  210MOL0     C28884   4.082   6.041   8.652 -0.2009  0.9186 -0.2766
  210MOL0     C28885   4.060   5.902   8.705  0.5996 -0.3842  0.3522
  210MOL0     C28886   3.919   5.887   8.763 -0.1006 -0.3679  0.1225
  210MOL0    Cl28887   3.905   5.719   8.825  0.1208  0.0848 -0.0279
  210MOL0     C28888   3.837   6.342   8.705  0.5077  0.3615  0.0300
  210MOL0     C28889   3.699   6.364   8.710  0.5392 -0.0410  0.5234
  210MOL0     O28890   3.472   6.691   8.567 -0.2911  0.1603 -0.6584
  210MOL0     C28891   3.212   6.463   8.629 -0.3344  0.1826 -0.1629
  210MOL0     C28892   3.070   6.455   8.645 -0.3993 -0.6284 -0.8149
  210MOL0     N28893   2.723   7.239   8.839  0.6478 -0.0491  0.0067
  210MOL0     N28894   2.643   7.321   8.783  0.7020 -0.0860 -0.2053
  210MOL0     C28895   1.418   7.695   8.445  1.2489  0.1061 -0.1199
  210MOL0     C28896   1.305   7.772   8.464  0.3849  0.5032  0.0657
  210MOL0     C28897   0.957   7.981   8.500  0.7993  0.0519 -0.1091
  210MOL0     C28898   0.883   7.942   8.618 -0.3627 -0.7689 -0.1578
  210MOL0     C28899   0.825   8.032   8.702  0.3270 -0.0865  0.2687
  210MOL0     C28900   0.828   8.167   8.674 -0.1476 -0.2082 -0.6620
  210MOL0     O28901   0.749   8.237   8.754  0.0982 -0.1148 -0.2740
  210MOL0     C28902   0.744   8.369   8.717  0.2747 -0.1987 -0.4498
  210MOL0     C28903   0.647   8.431   8.821  0.6058 -0.2072 -0.0902
  210MOL0     C28904   0.696   8.422   8.965 -0.0218  0.1720  0.1920
  210MOL0     C28905   0.619   8.320   9.055  0.5872  0.5976 -0.3461
  210MOL0     C28906   0.673   8.336   9.186 -0.8505  0.0834  0.2822
  210MOL0     C28907   0.713   8.365   9.299 -0.3097  0.2392  0.3886
  210MOL0     C28908   0.888   8.211   8.551  1.1220  0.2369 -1.0086
  210MOL0     C28909   0.972   8.121   8.481 -0.2926  1.3925  0.4599
  210MOL0     C28910   1.053   8.183   8.359 -0.8686  0.6982 -0.3066
  210MOL0     H28911   1.230   7.862   8.146 -2.9437 -1.7249  0.3697
  210MOL0     H28912   1.445   7.743   8.106 -2.4759 -0.2964 -1.3490
  210MOL0     H28913   1.638   7.496   8.443 -0.4311  1.3004  1.0403
  210MOL0     H28914   1.685   7.672   8.467 -1.1461 -0.8794  0.0431
  210MOL0     H28915   1.825   7.472   8.282  1.5565  0.5489  0.2212
  210MOL0     H28916   1.879   7.637   8.308  1.0904 -1.4344 -1.4263
  210MOL0     H28917   1.907   7.598   8.550  3.6996  0.1419  0.0821
  210MOL0     H28918   1.887   7.425   8.499  3.6557 -0.8763  0.5837
  210MOL0     H28919   2.050   7.441   8.351 -3.7384 -0.7634  1.6877
  210MOL0     H28920   2.106   7.609   8.394 -0.9283  0.0985 -3.2241
  210MOL0     H28921   2.086   7.365   8.587  0.1976 -2.1430 -2.2096
  210MOL0     H28922   2.137   7.527   8.631  0.5555 -1.7788  1.8982
  210MOL0     H28923   2.277   7.347   8.432  0.4042 -0.7589  0.2776
  210MOL0     H28924   2.326   7.520   8.459  1.3203  1.1059  2.2106
  210MOL0     H28925   2.304   7.326   8.689  0.0451  0.3152  1.0809
  210MOL0     H28926   2.383   7.488   8.668 -2.1496  0.6971 -1.7292
  210MOL0     H28927   2.473   7.233   8.516  2.2144 -4.0137  2.4182
  210MOL0     H28928   2.566   7.384   8.540  1.3066 -2.7028 -1.3194
  210MOL0     H28929   2.534   7.034   8.667  2.2296 -0.4451 -0.9067
  210MOL0     H28930   2.850   7.022   8.901  0.8203  1.9459 -1.1387
  210MOL0     H28931   2.855   6.954   8.743 -4.4601 -1.3075 -2.6454
  210MOL0     H28932   2.676   6.850   8.966 -0.6726 -3.9192 -1.3683
  210MOL0     H28933   2.614   6.863   8.811 -0.7874  0.2157  0.8075
  210MOL0     H28934   2.896   6.740   8.867 -0.2215  2.2497  0.2590
  210MOL0     H28935   2.745   6.656   8.904  0.3967  2.8282  3.7436
  210MOL0     H28936   2.677   6.689   8.652  0.7104 -3.1086 -4.1457
  210MOL0     H28937   2.810   6.786   8.622 -0.7504 -0.2168 -1.3904
  210MOL0     H28938   3.018   6.786   8.652  0.7372  0.5984 -3.8576
  210MOL0     H28939   3.292   6.905   8.605  0.9939  0.0613  1.4539
  210MOL0     H28940   3.348   6.843   8.750  0.3392  0.7230 -2.0316
  210MOL0     H28941   3.186   6.871   8.765 -0.2896 -1.8412  1.2289
  210MOL0     H28942   3.690   6.699   8.651 -0.3806  0.2758 -0.9044
  210MOL0     H28943   3.938   6.655   8.639 -2.0518  1.7937 -2.9334
  210MOL0     H28944   4.141   6.508   8.514  4.0053 -1.1250 -0.8240
  210MOL0     H28945   4.170   6.602   8.663 -0.3767  0.2217  0.7761
  210MOL0     H28946   4.380   6.481   8.587  2.0041 -2.1187  0.8899
  210MOL0     H28947   4.312   6.493   8.744 -1.0492  3.4056 -1.7978
  210MOL0     H28948   4.255   6.270   8.760  0.0227  0.7813  0.9817
  210MOL0     H28949   4.410   6.269   8.675  0.1277  1.7999  3.2813
  210MOL0     H28950   4.302   6.228   8.454 -4.2491  3.1987 -2.6297
  210MOL0     H28951   4.142   6.241   8.518 -0.4450  0.3103  1.3402
  210MOL0     H28952   4.215   5.998   8.504  3.1234  1.7115 -1.6072
  210MOL0     H28953   4.298   6.011   8.659  0.5154 -1.1127 -0.8372
  210MOL0     H28954   4.004   6.053   8.576 -0.6870 -0.6510 -0.0603
  210MOL0     H28955   4.078   6.113   8.734  2.1772 -2.1365  2.8217
  210MOL0     H28956   4.122   5.888   8.794 -0.8752  1.8089  1.8220
  210MOL0     H28957   4.077   5.829   8.626  5.2624  0.6687  0.0829
  210MOL0     H28958   3.836   5.907   8.695 -1.4111 -0.7732  1.5469
  210MOL0     H28959   3.905   5.965   8.837  1.4212  1.4970 -1.4339
  210MOL0     H28960   3.879   6.247   8.737  1.4840  1.4480  2.2168
  210MOL0     H28961   3.637   6.283   8.746  0.8933 -0.1079  0.9955
  210MOL0     H28962   3.266   6.370   8.615  0.1567  0.6054 -1.2595
  210MOL0     H28963   3.020   6.358   8.643  0.9893 -1.3588 -1.6168
  210MOL0     H28964   1.467   7.645   8.527  0.9942 -1.5362 -0.9299
  210MOL0     H28965   1.278   7.780   8.569 -0.1962  0.6807 -0.0939
  210MOL0     H28966   0.893   7.840   8.653 -2.4022 -1.5710 -1.6720
  210MOL0     H28967   0.791   8.011   8.802 -0.8104  3.9644  0.9002
  210MOL0     H28968   0.843   8.414   8.727 -0.0572  0.4194  0.1284
  210MOL0     H28969   0.706   8.388   8.616 -2.6065 -2.6996  0.0078
  210MOL0     H28970   0.551   8.380   8.805 -1.4449  2.4508  2.6973
  210MOL0     H28971   0.632   8.535   8.791 -0.0566 -0.8535 -2.1552
  210MOL0     H28972   0.800   8.394   8.979 -0.3472 -0.1220  2.3695
  210MOL0     H28973   0.678   8.523   9.005  0.8044 -0.2514  1.7265
  210MOL0     H28974   0.648   8.225   9.009  3.3961  0.9676  0.4841
  210MOL0     H28975   0.512   8.346   9.052  1.1323  3.0210 -0.5743
  210MOL0     H28976   0.725   8.392   9.402 -2.4448  0.9394  0.5056
  210MOL0     H28977   0.894   8.313   8.514 -0.7186  0.9162  0.4509
  210MOL0     H28978   1.015   8.170   8.258 -1.1404  0.0840 -0.1293
  210MOL0     H28979   1.068   8.291   8.368  0.2704  0.7010 -1.7923
  210MOL0     H28980   1.157   8.152   8.375 -0.9824  0.3897 -0.1307
  211MOL0     O28981  10.133   9.401   6.533  0.8001 -0.2221 -0.1852
  211MOL0     C28982  10.191   9.297   6.484 -0.0584  0.3964 -0.6868
  211MOL0     O28983  10.136   9.199   6.408 -0.6689  0.3993  0.7870
  211MOL0     C28984   9.998   9.199   6.394  0.6524  1.7256 -0.0527
  211MOL0     C28985   9.910   9.163   6.500 -0.7159 -0.2968 -0.4929
  211MOL0     C28986   9.770   9.175   6.493 -0.3852  0.4088 -0.3172
  211MOL0     C28987   9.716   9.226   6.380 -0.1734  0.6717  1.3866
  211MOL0     O28988   9.583   9.236   6.384  0.2296 -0.1325 -0.0796
  211MOL0     C28989   9.513   9.148   6.289  0.4244 -0.3352 -0.0088
  211MOL0     C28990   9.358   9.170   6.290  0.4536 -0.2927 -0.4189
  211MOL0     C28991   9.290   9.120   6.163 -0.2785 -1.4156  0.4367
  211MOL0     C28992   9.140   9.094   6.187  1.2318 -0.1877 -0.5186
  211MOL0     C28993   9.066   9.003   6.076  0.1534 -0.1291  0.9372
  211MOL0     C28994   8.912   9.004   6.093 -0.2572  0.0059 -1.6818
  211MOL0     C28995   8.832   8.920   5.986 -0.3997  0.7004  1.2269
  211MOL0     C28996   8.853   8.767   5.995 -0.1697  0.3211  0.1034
  211MOL0     N28997   8.987   8.720   5.940  0.0346 -0.1958  1.0235
  211MOL0     C28998   9.024   8.737   5.813 -0.7132  0.5827  1.2961
  211MOL0     C28999   9.123   8.653   5.775 -0.0113  0.2651 -0.3360
  211MOL0     C29000   9.183   8.624   5.635  0.2673  0.7087  0.5594
  211MOL0     C29001   9.149   8.735   5.530 -0.4111  0.5281 -0.4863
  211MOL0     C29002   9.245   8.734   5.401  0.5902  0.1866 -0.0117
  211MOL0     C29003   9.364   8.835   5.407 -0.3167  0.4238 -0.2371
  211MOL0     O29004   9.328   8.978   5.409  0.1602  0.1321 -0.7206
  211MOL0     C29005   9.269   9.031   5.300  0.1981 -1.3226  0.2027
  211MOL0     C29006   9.301   8.998   5.169  0.5113 -0.3163 -0.2220
  211MOL0     C29007   9.252   9.078   5.059 -0.3202 -0.9788  0.1903
  211MOL0     C29008   9.304   9.027   4.922  0.4189 -0.1022  0.8375
  211MOL0     C29009   9.167   9.191   5.079 -0.3876  0.3637  0.7911
  211MOL0     C29010   9.118   9.270   4.960  0.0356 -0.3965 -1.0037
  211MOL0     O29011   9.173   9.255   4.832 -0.0136 -0.0596  0.3871
  211MOL0     C29012   9.121   9.312   4.724  0.9510  0.1421  0.0603
  211MOL0     C29013   9.086   9.215   4.624 -0.0257  0.0111  0.2468
  211MOL0     C29014   9.030   9.253   4.503  0.9285  1.2891 -0.3544
  211MOL0     C29015   9.001   9.385   4.477  0.3530 -0.3421 -0.1539
  211MOL0     O29016   8.948   9.430   4.354 -0.0343  0.3257 -0.2993
  211MOL0     C29017   8.956   9.345   4.245 -0.7091  0.4845 -0.3013
  211MOL0     C29018   8.890   9.415   4.131 -0.3878 -0.6637 -0.0049
  211MOL0     C29019   8.880   9.330   4.003  0.4394 -0.2686  0.0670
  211MOL0     C29020   8.824   9.418   3.888 -0.3657  0.9253  0.4524
  211MOL0     C29021   8.684   9.382   3.856  0.9547 -0.0533  0.4524
  211MOL0     C29022   8.620   9.460   3.745  0.0385 -0.6158  0.1084
  211MOL0     C29023   8.486   9.527   3.781  0.0678 -0.0723 -0.0957
  211MOL0     C29024   8.434   9.613   3.663 -0.1055 -0.3735 -0.4876
  211MOL0    Cl29025   8.299   9.719   3.717  0.3911 -0.2549  0.2538
  211MOL0     C29026   9.043   9.490   4.570  0.4534  0.8641  0.1500
  211MOL0     C29027   9.101   9.445   4.692  0.3494  0.2270  0.0821
  211MOL0     O29028   9.036   9.356   4.982  0.1916 -0.3178 -0.0454
  211MOL0     C29029   9.129   9.225   5.206  0.5663  0.3484  0.1025
  211MOL0     C29030   9.183   9.150   5.315  1.2544 -0.6844 -0.6099
  211MOL0     N29031   9.139   8.574   5.894  0.5137  0.3448  0.2102
  211MOL0     N29032   9.060   8.612   5.989 -0.1606  0.3698  0.1198
  211MOL0     C29033   9.796   9.273   6.273  0.1310 -0.3612 -0.3835
  211MOL0     C29034   9.939   9.250   6.284  0.5883 -0.0534  0.3267
  211MOL0     C29035  10.343   9.284   6.508 -0.7880 -0.3095  0.9188
  211MOL0     C29036  10.383   9.331   6.635  0.0443 -0.2390 -0.1502
  211MOL0     C29037  10.511   9.313   6.677 -0.2176 -0.3297 -0.4562
  211MOL0     C29038  10.609   9.263   6.590  0.9790 -1.1710 -0.1274
  211MOL0     O29039  10.742   9.264   6.622 -0.3767  0.2692 -0.6323
  211MOL0     C29040  10.769   9.270   6.764  0.4157  0.5138 -0.1474
  211MOL0     C29041  10.914   9.224   6.796 -0.5304 -0.1136 -0.0248
  211MOL0     C29042  10.938   9.073   6.772  0.6524 -0.0615 -0.3834
  211MOL0     C29043  11.082   9.035   6.815  0.0001 -0.0430  0.5709
  211MOL0     C29044  11.101   8.895   6.843 -0.5510  0.1612  0.3141
  211MOL0     C29045  11.119   8.775   6.853  0.0809  0.0821 -0.5640
  211MOL0     C29046  10.569   9.220   6.463  0.1621  0.1225 -0.2115
  211MOL0     C29047  10.433   9.233   6.419 -0.5428  0.4264 -0.1059
  211MOL0     C29048  10.404   9.183   6.281 -0.3412 -0.8111  0.1021
  211MOL0     H29049   9.951   9.119   6.590  0.3409 -0.5913 -1.1120
  211MOL0     H29050   9.697   9.168   6.573  0.0794  3.0662  0.4357
  211MOL0     H29051   9.537   9.044   6.314 -0.4249 -0.1315  1.8442
  211MOL0     H29052   9.538   9.164   6.184 -4.1188  2.4626 -0.9365
  211MOL0     H29053   9.329   9.107   6.374 -1.1836  3.8574  2.4764
  211MOL0     H29054   9.322   9.269   6.318  0.3604 -0.7294  1.1342
  211MOL0     H29055   9.300   9.198   6.087 -1.0947 -2.7499 -1.0890
  211MOL0     H29056   9.342   9.033   6.123  3.4281  1.1532 -0.9078
  211MOL0     H29057   9.125   9.046   6.284  2.6906 -0.1279 -0.2346
  211MOL0     H29058   9.097   9.194   6.189 -0.4617 -0.8361  2.5129
  211MOL0     H29059   9.110   8.903   6.076 -1.0534 -0.7476 -1.5763
  211MOL0     H29060   9.100   9.051   5.983  1.2790 -1.2933  0.7111
  211MOL0     H29061   8.892   8.975   6.196  1.3815  1.2254 -0.9658
  211MOL0     H29062   8.874   9.106   6.084 -0.7516  0.0561  0.4590
  211MOL0     H29063   8.849   8.966   5.888 -0.2761  1.4923  1.6048
  211MOL0     H29064   8.726   8.935   6.005 -0.5214  0.9486  0.3887
  211MOL0     H29065   8.846   8.738   6.100 -0.6089  0.5697  0.1435
  211MOL0     H29066   8.769   8.716   5.947 -0.4730  3.3408 -2.9742
  211MOL0     H29067   8.972   8.804   5.744 -0.4347  0.5267  1.0325
  211MOL0     H29068   9.137   8.536   5.589  3.7425 -0.9591 -0.0118
  211MOL0     H29069   9.291   8.610   5.636  0.4645  1.5958 -1.6459
  211MOL0     H29070   9.043   8.721   5.503  0.0783 -2.2298 -1.2918
  211MOL0     H29071   9.151   8.834   5.574  0.8359 -0.0493  0.8249
  211MOL0     H29072   9.286   8.635   5.383 -0.9059 -0.1224 -2.1730
  211MOL0     H29073   9.195   8.761   5.308  2.9183  1.2034 -1.0335
  211MOL0     H29074   9.417   8.820   5.501 -0.6769  3.8569  0.6514
  211MOL0     H29075   9.447   8.815   5.339  0.4503  2.3830  0.0521
  211MOL0     H29076   9.366   8.913   5.154  0.2344 -0.4496 -0.6987
  211MOL0     H29077   9.364   9.103   4.871  0.7795 -0.7068  0.3414
  211MOL0     H29078   9.212   8.997   4.869 -0.9945  1.1892  2.4266
  211MOL0     H29079   9.379   8.949   4.936  2.6404  1.8310  0.3464
  211MOL0     H29080   9.083   9.111   4.656 -3.1523 -0.0853 -0.0242
  211MOL0     H29081   9.010   9.173   4.431  1.8192  0.6040  0.1361
  211MOL0     H29082   9.056   9.335   4.203  0.9335  5.0909  1.8140
  211MOL0     H29083   8.914   9.246   4.261  3.2082 -1.3665 -0.4475
  211MOL0     H29084   8.782   9.431   4.146 -0.2656 -0.5309  0.7484
  211MOL0     H29085   8.933   9.514   4.115 -2.7205  0.7217  1.5250
  211MOL0     H29086   8.822   9.240   4.025 -4.0513  2.8403  2.4736
  211MOL0     H29087   8.983   9.296   3.985  0.5476 -0.9046  1.6828
  211MOL0     H29088   8.873   9.409   3.791 -0.1496  2.9724  0.3227
  211MOL0     H29089   8.843   9.524   3.910 -0.7759  1.0466  0.2305
  211MOL0     H29090   8.686   9.280   3.816  0.6000  0.5972 -1.2874
  211MOL0     H29091   8.634   9.372   3.953 -0.3229 -2.5013 -0.3627
  211MOL0     H29092   8.594   9.400   3.657 -3.3417  0.4959  0.1710
  211MOL0     H29093   8.688   9.533   3.700 -0.2796 -1.1462 -1.3005
  211MOL0     H29094   8.513   9.582   3.871  0.4280  0.3803 -0.4756
  211MOL0     H29095   8.406   9.453   3.797 -1.8761  1.6383 -1.3245
  211MOL0     H29096   8.408   9.562   3.570 -2.6656  2.3872 -1.4537
  211MOL0     H29097   8.517   9.683   3.648  1.9380 -2.3685  0.8618
  211MOL0     H29098   9.031   9.596   4.550  0.5131  0.3948 -2.7870
  211MOL0     H29099   9.108   9.522   4.768 -0.9368  1.4664 -1.0105
  211MOL0     H29100   9.079   9.320   5.227  1.3669  0.1972  3.2418
  211MOL0     H29101   9.167   9.177   5.419 -0.6077  1.0091 -1.2849
  211MOL0     H29102   9.743   9.324   6.194  0.3955  1.3750  0.5141
  211MOL0     H29103   9.997   9.303   6.209 -0.2605  0.2610 -0.1270
  211MOL0     H29104  10.310   9.365   6.707  1.0807  0.2615  0.6974
  211MOL0     H29105  10.525   9.343   6.780  1.4249  0.8289 -0.9726
  211MOL0     H29106  10.751   9.359   6.824  0.7464 -0.0872  0.8873
  211MOL0     H29107  10.702   9.193   6.805  1.1628  1.0374  2.2250
  211MOL0     H29108  10.928   9.251   6.901  0.3243  0.3896 -0.2604
  211MOL0     H29109  10.982   9.285   6.736 -0.7566 -1.6143 -1.9023
  211MOL0     H29110  10.862   9.007   6.814  0.9460 -0.0077  0.2359
  211MOL0     H29111  10.930   9.045   6.666  1.0501 -4.0364  0.4949
  211MOL0     H29112  11.123   9.089   6.900 -0.5264  0.5784  0.4385
  211MOL0     H29113  11.139   9.073   6.730 -1.0638  4.3518  1.5712
  211MOL0     H29114  11.128   8.668   6.853  1.6889  0.1321  2.1639
  211MOL0     H29115  10.641   9.181   6.392 -1.6212 -0.2478 -1.9138
  211MOL0     H29116  10.488   9.189   6.210  0.3880  2.5435  1.1018
  211MOL0     H29117  10.364   9.082   6.289  0.8351 -1.2758  0.4071
  211MOL0     H29118  10.325   9.242   6.234 -1.8450 -1.6255  1.5419
  212MOL0     O29119   8.322   6.325  10.120 -0.1851  0.6055 -0.3416
  212MOL0     C29120   8.349   6.427  10.177 -0.5528 -0.4309 -0.1299
  212MOL0     O29121   8.482   6.471  10.202  0.3234 -0.7345  0.2657
  212MOL0     C29122   8.577   6.387  10.233  0.1992 -0.5819 -0.2523
  212MOL0     C29123   8.694   6.381  10.159  0.0292  0.2446 -0.0236
  212MOL0     C29124   8.780   6.278  10.186  0.8937 -0.3552 -0.0040
  212MOL0     C29125   8.765   6.187  10.284  0.5944 -0.1658 -0.4693
  212MOL0     O29126   8.861   6.090  10.310  0.2746 -0.5171  0.4311
  212MOL0     C29127   8.988   6.141  10.357 -0.2209 -0.0412 -0.0068
  212MOL0     C29128   9.067   6.019  10.394 -0.7335 -0.2105 -0.2217
  212MOL0     C29129   9.014   5.931  10.509 -0.4636  0.4657  0.1236
  212MOL0     C29130   9.095   5.794  10.517  0.3528 -0.9182  0.6830
  212MOL0     C29131   9.060   5.714  10.638  0.4098 -0.3205  0.2764
  212MOL0     C29132   8.927   5.651  10.648  0.2141  0.8284  0.4459
  212MOL0     C29133   8.923   5.537  10.751  1.1468  0.0497 -0.4367
  212MOL0     C29134   8.944   5.590  10.893 -0.4034  0.0809 -0.1975
  212MOL0     N29135   8.899   5.488  10.991 -0.2353  0.0125  0.4471
  212MOL0     C29136   8.944   5.362  10.988  0.8229 -0.0512  0.3385
  212MOL0     C29137   8.856   5.302  11.071 -0.2579 -0.7162 -0.1944
  212MOL0     C29138   8.868   5.168  11.120  0.5706  0.1940  0.2798
  212MOL0     C29139   8.933   5.071  11.017 -0.4125 -0.5427 -0.2159
  212MOL0     C29140   8.964   4.944  11.090  0.1805  0.4368  1.4036
  212MOL0     C29141   9.024   4.839  10.999 -0.2795 -1.3623 -0.6193
  212MOL0     O29142   9.144   4.876  10.928 -0.0824  0.3417 -0.4718
  212MOL0     C29143   9.173   4.823  10.808  0.4427 -0.7627 -0.7677
  212MOL0     C29144   9.170   4.688  10.782  0.3022  0.0852  0.4219
  212MOL0     C29145   9.209   4.630  10.654 -1.1310 -0.3096 -0.2255
  212MOL0     C29146   9.194   4.480  10.644  0.5346 -0.5389  0.2495
  212MOL0     C29147   9.239   4.723  10.549  0.9362 -0.7949 -0.1518
  212MOL0     C29148   9.263   4.691  10.408 -0.1563 -0.4574  0.7463
  212MOL0     O29149   9.308   4.786  10.315 -0.3448  0.9316  0.5598
  212MOL0     C29150   9.347   4.744  10.194  0.3994  0.1178  0.5686
  212MOL0     C29151   9.290   4.811  10.083 -0.2770 -0.2702 -0.0913
  212MOL0     C29152   9.335   4.768   9.951 -0.1343 -0.0857 -0.3159
  212MOL0     C29153   9.436   4.671   9.937 -0.0473 -0.3171 -0.4252
  212MOL0     O29154   9.469   4.647   9.804 -1.1308  0.3257  0.6436
  212MOL0     C29155   9.559   4.544   9.766  0.0807  0.5055  0.6419
  212MOL0     C29156   9.540   4.511   9.612  0.5084 -1.1179 -0.3570
  212MOL0     C29157   9.655   4.423   9.569  0.0378 -0.5628 -0.1568
  212MOL0     C29158   9.635   4.380   9.420  0.0899 -0.0673  0.3462
  212MOL0     C29159   9.726   4.254   9.389 -0.3270  0.0747  0.0023
  212MOL0     C29160   9.668   4.129   9.465  0.5481  0.5961  0.5831
  212MOL0     C29161   9.684   3.986   9.410  0.0897  0.0092 -0.3038
  212MOL0     C29162   9.826   3.947   9.358 -0.3082  0.2978  0.0077
  212MOL0    Cl29163   9.825   3.820   9.225 -0.0407 -0.2694  0.2657
  212MOL0     C29164   9.492   4.610  10.045  0.4110  0.4258 -0.1901
  212MOL0     C29165   9.446   4.645  10.179 -0.4417  0.1027  0.6604
  212MOL0     O29166   9.216   4.575  10.380  0.3671 -0.3077  0.2855
  212MOL0     C29167   9.262   4.850  10.588 -0.2838  0.4754  0.3191
  212MOL0     C29168   9.224   4.901  10.706  0.1332 -0.4996 -0.8297
  212MOL0     N29169   8.756   5.383  11.109 -0.1112 -0.2778  1.1007
  212MOL0     N29170   8.795   5.504  11.077 -0.0592 -0.0933  0.7156
  212MOL0     C29171   8.651   6.196  10.361 -0.0665 -0.3977 -0.9937
  212MOL0     C29172   8.567   6.303  10.347  0.4315  0.1369 -0.2668
  212MOL0     C29173   8.228   6.505  10.215  0.5874  0.0535  0.5618
  212MOL0     C29174   8.254   6.623  10.286 -0.1472  0.5056  0.6594
  212MOL0     C29175   8.158   6.708  10.318  0.4269 -0.6961 -0.5330
  212MOL0     C29176   8.018   6.676  10.293  0.9880 -0.6847  1.0923
  212MOL0     O29177   7.913   6.766  10.320 -0.5734  0.5945  0.2364
  212MOL0     C29178   7.771   6.735  10.326  0.0075 -0.1899  0.3325
  212MOL0     C29179   7.682   6.815  10.223 -0.2283 -0.2812 -0.4849
  212MOL0     C29180   7.679   6.968  10.278 -0.2711  0.5796 -0.3741
  212MOL0     C29181   7.566   7.051  10.204  0.3516 -0.0423  0.3341
  212MOL0     C29182   7.581   7.190  10.228  0.8680 -0.2561 -0.4504
  212MOL0     C29183   7.582   7.312  10.241 -0.0180  0.2740 -0.2210
  212MOL0     C29184   7.991   6.560  10.224 -0.2620  0.7625 -0.1337
  212MOL0     C29185   8.098   6.471  10.188 -0.1696  0.0406  0.1477
  212MOL0     C29186   8.049   6.349  10.100 -0.9068  0.4020 -0.2337
  212MOL0     H29187   8.716   6.457  10.084 -0.1736  1.1103  0.7659
  212MOL0     H29188   8.863   6.280  10.115  0.0794 -2.3245 -1.0871
  212MOL0     H29189   8.984   6.198  10.450 -2.6837 -0.0592 -0.0314
  212MOL0     H29190   9.039   6.190  10.274 -1.5552  1.0427 -0.2267
  212MOL0     H29191   9.099   5.961  10.306  2.7045  1.0839  0.0145
  212MOL0     H29192   9.167   6.054  10.422  0.8627 -2.0539 -2.9994
  212MOL0     H29193   9.014   5.978  10.608  0.6559 -0.3054  0.5009
  212MOL0     H29194   8.910   5.905  10.485 -0.8972  0.8288  1.4838
  212MOL0     H29195   9.075   5.746  10.421 -1.0843  0.4181  0.2877
  212MOL0     H29196   9.204   5.807  10.510  0.2624  0.0232  0.8764
  212MOL0     H29197   9.072   5.781  10.723 -0.1087  1.4543 -0.9843
  212MOL0     H29198   9.135   5.635  10.645 -1.4768 -2.2237  0.1687
  212MOL0     H29199   8.858   5.730  10.677 -1.9952 -1.0365  0.5665
  212MOL0     H29200   8.879   5.607  10.560 -1.7584 -1.7956  2.6725
  212MOL0     H29201   8.994   5.458  10.723 -0.6644 -1.4138 -1.1411
  212MOL0     H29202   8.822   5.495  10.746  1.5256 -1.0548  0.5337
  212MOL0     H29203   9.050   5.609  10.907 -0.2624 -1.3083  0.7707
  212MOL0     H29204   8.895   5.688  10.899  2.9001  1.7834  2.5669
  212MOL0     H29205   9.018   5.319  10.922  1.7540 -0.2294  1.4784
  212MOL0     H29206   8.768   5.132  11.148  0.6516  0.2004  0.5789
  212MOL0     H29207   8.920   5.156  11.215  0.2289  0.3871  0.4955
  212MOL0     H29208   8.874   5.052  10.927  0.8128  2.3212 -1.7219
  212MOL0     H29209   9.031   5.112  10.994 -1.6717  1.0463 -3.2793
  212MOL0     H29210   9.028   4.962  11.177  2.0663  1.1666 -0.0592
  212MOL0     H29211   8.871   4.896  11.123  0.4711 -1.0365  0.2080
  212MOL0     H29212   9.061   4.751  11.052  1.9021 -1.3662 -2.0444
  212MOL0     H29213   8.947   4.808  10.928  1.3178 -1.5367 -2.3428
  212MOL0     H29214   9.152   4.620  10.864  0.0802  1.0377  1.1797
  212MOL0     H29215   9.129   4.455  10.559  2.3883  0.4879 -1.5716
  212MOL0     H29216   9.149   4.430  10.730 -1.8040  0.7827 -0.1116
  212MOL0     H29217   9.293   4.439  10.624  0.8486  1.1680 -2.1152
  212MOL0     H29218   9.218   4.892  10.097 -3.3359 -2.5571 -1.4746
  212MOL0     H29219   9.313   4.819   9.858  0.4765  1.6166  0.4284
  212MOL0     H29220   9.664   4.569   9.784  0.6891 -1.2979 -0.1394
  212MOL0     H29221   9.533   4.456   9.826 -1.7285  0.2004 -0.5162
  212MOL0     H29222   9.445   4.456   9.603  0.0984 -0.5646  0.4958
  212MOL0     H29223   9.542   4.596   9.543  2.3084 -1.5586 -0.8779
  212MOL0     H29224   9.650   4.332   9.630 -1.6391  0.0197  0.6621
  212MOL0     H29225   9.752   4.470   9.587  1.6272 -3.7811  0.4280
  212MOL0     H29226   9.672   4.468   9.368 -1.9343  1.4305  1.3097
  212MOL0     H29227   9.535   4.360   9.382  0.2573  0.1147 -0.1871
  212MOL0     H29228   9.728   4.227   9.283  0.9691  0.4318 -0.0746
  212MOL0     H29229   9.829   4.270   9.422 -1.2442  1.2304  2.5534
  212MOL0     H29230   9.559   4.139   9.467  0.2058 -2.0894 -0.5278
  212MOL0     H29231   9.701   4.123   9.569  3.3355 -0.6346 -0.2964
  212MOL0     H29232   9.605   3.987   9.334  1.7474  0.0845 -2.1138
  212MOL0     H29233   9.661   3.912   9.487  1.3152 -1.7509 -1.5465
  212MOL0     H29234   9.885   3.898   9.436 -0.5359 -2.3107 -1.3334
  212MOL0     H29235   9.876   4.034   9.316  0.7727 -0.8310 -1.1415
  212MOL0     H29236   9.571   4.537  10.029  2.1420  2.4409 -1.3957
  212MOL0     H29237   9.481   4.586  10.263 -0.8196 -0.6225  0.3210
  212MOL0     H29238   9.301   4.929  10.524 -0.5238  0.2410 -0.1171
  212MOL0     H29239   9.251   5.005  10.724  0.2176 -0.3810 -1.6016
  212MOL0     H29240   8.645   6.132  10.449  1.4322 -1.9506 -1.9481
  212MOL0     H29241   8.474   6.295  10.403  0.6206  0.8529  0.1635
  212MOL0     H29242   8.351   6.669  10.301  1.1636 -1.4186 -1.3056
  212MOL0     H29243   8.174   6.802  10.371 -1.5982 -0.5236 -0.1444
  212MOL0     H29244   7.747   6.629  10.309  1.1775 -0.3964 -0.1028
  212MOL0     H29245   7.741   6.753  10.430 -2.2316  0.7362 -0.4048
  212MOL0     H29246   7.581   6.776  10.236 -0.4754 -0.4280 -2.4291
  212MOL0     H29247   7.712   6.818  10.117  1.4145  3.1297 -0.0887
  212MOL0     H29248   7.664   6.964  10.387 -2.1262  0.9802 -0.5835
  212MOL0     H29249   7.778   7.012  10.263 -0.8171  2.6166  1.5685
  212MOL0     H29250   7.461   7.028  10.223 -0.1038  0.4016 -1.4579
  212MOL0     H29251   7.575   7.036  10.096  0.5607 -0.7427  0.4423
  212MOL0     H29252   7.565   7.417  10.250  2.0987  0.5444  1.3189
  212MOL0     H29253   7.888   6.532  10.205 -0.4117  2.1348 -1.5134
  212MOL0     H29254   7.941   6.328  10.108 -0.0864 -4.4723  4.5075
  212MOL0     H29255   8.077   6.371   9.997 -0.9949  0.6893 -0.1960
  212MOL0     H29256   8.083   6.249  10.130 -2.9360 -0.5052 -0.7218
  213MOL0     O29257   8.739   4.758   1.431 -0.1606  0.2818 -0.3123
  213MOL0     C29258   8.769   4.843   1.351  0.8898 -0.5189  1.0755
  213MOL0     O29259   8.785   4.977   1.370 -0.0725  0.7838  0.4558
  213MOL0     C29260   8.793   5.019   1.498  0.1368 -0.4360  0.3265
  213MOL0     C29261   8.686   5.066   1.575 -0.3354 -0.5267  0.2649
  213MOL0     C29262   8.704   5.118   1.697  0.0477  0.6985  0.2061
  213MOL0     C29263   8.824   5.127   1.765 -1.1726 -0.0783 -0.1449
  213MOL0     O29264   8.823   5.175   1.891 -0.0002 -0.2651  0.5291
  213MOL0     C29265   8.941   5.197   1.967  0.3999  0.8612 -1.3738
  213MOL0     C29266   8.899   5.253   2.106  0.3641  0.9240 -0.7560
  213MOL0     C29267   8.832   5.144   2.191  0.4830 -0.2850  0.1045
  213MOL0     C29268   8.823   5.206   2.330  0.0611 -0.3418  0.7783
  213MOL0     C29269   8.739   5.105   2.410  0.1899 -0.0395  0.9058
  213MOL0     C29270   8.726   5.145   2.553  0.7832  0.0721  0.7048
  213MOL0     C29271   8.616   5.060   2.627 -0.4174  0.5932  0.5241
  213MOL0     C29272   8.593   5.112   2.769 -0.3368  0.0157 -0.0769
  213MOL0     N29273   8.714   5.076   2.846 -0.2825  0.0647  0.0405
  213MOL0     C29274   8.834   5.140   2.852  0.2232 -1.3985 -0.4241
  213MOL0     C29275   8.896   5.072   2.951 -0.1147  0.3383 -0.7001
  213MOL0     C29276   9.030   5.128   3.008  0.2737  0.1165 -0.6480
  213MOL0     C29277   9.048   5.080   3.153 -0.3334 -0.2845  0.1373
  213MOL0     C29278   9.152   4.963   3.162  0.9038  0.0815 -0.6702
  213MOL0     C29279   9.201   4.930   3.302  0.3620 -0.1599  0.2999
  213MOL0     O29280   9.329   5.002   3.332 -0.2734 -0.2957 -0.1349
  213MOL0     C29281   9.399   4.967   3.444  1.3323  0.0373  0.0290
  213MOL0     C29282   9.521   5.038   3.442 -0.1912 -0.2301 -0.6793
  213MOL0     C29283   9.600   5.031   3.550  0.5251 -0.2745 -0.3749
  213MOL0     C29284   9.721   5.120   3.555  0.4419 -0.9181  0.2387
  213MOL0     C29285   9.571   4.936   3.659 -0.5431  0.3148  0.4093
  213MOL0     C29286   9.650   4.913   3.778 -0.0786 -1.3885  0.0747
  213MOL0     O29287   9.584   4.847   3.883 -0.6443 -0.2523 -0.5283
  213MOL0     C29288   9.640   4.781   3.989 -0.0614  0.9832 -0.4900
  213MOL0     C29289   9.776   4.757   4.015  0.2812  0.0037  1.1443
  213MOL0     C29290   9.825   4.694   4.123 -0.0685  0.1379 -0.7695
  213MOL0     C29291   9.741   4.684   4.236 -0.8068 -0.6605  0.5209
  213MOL0     O29292   9.785   4.633   4.356  0.1697 -0.1989  1.4850
  213MOL0     C29293   9.925   4.624   4.388  0.0812  0.0190 -0.2224
  213MOL0     C29294   9.950   4.569   4.529 -0.5975 -0.4193 -0.2483
  213MOL0     C29295   9.862   4.640   4.638 -0.4093  0.1024  0.9785
  213MOL0     C29296   9.906   4.796   4.644 -0.0025  0.7164 -0.0907
  213MOL0     C29297   9.803   4.865   4.737 -0.0543  0.1960  0.0941
  213MOL0     C29298   9.804   5.019   4.752 -0.3368  0.9585  0.3632
  213MOL0     C29299   9.861   5.090   4.629 -0.6235 -0.7775 -0.1474
  213MOL0     C29300   9.879   5.245   4.639  0.0032 -0.4203 -0.1116
  213MOL0    Cl29301   9.813   5.324   4.484 -0.0104 -0.0515  0.4257
  213MOL0     C29302   9.597   4.712   4.220 -0.2354  0.7519 -0.1383
  213MOL0     C29303   9.546   4.753   4.093 -0.9784  0.4318 -0.2322
  213MOL0     O29304   9.772   4.939   3.773  0.6078 -0.1196 -0.4141
  213MOL0     C29305   9.450   4.874   3.654  0.5163 -0.1301 -0.5662
  213MOL0     C29306   9.360   4.892   3.553  0.8029 -0.8119 -0.1962
  213MOL0     N29307   8.819   4.968   3.004 -0.1753  0.4531  0.9228
  213MOL0     N29308   8.706   4.969   2.928 -0.6383  0.4555  0.3907
  213MOL0     C29309   8.942   5.081   1.697 -0.3699  0.0583  0.6424
  213MOL0     C29310   8.924   5.033   1.566 -0.6137 -0.0946 -0.1277
  213MOL0     C29311   8.768   4.808   1.204 -0.1533  0.2593  0.5693
  213MOL0     C29312   8.668   4.722   1.159  0.2533  0.9523 -0.2330
  213MOL0     C29313   8.664   4.682   1.035  0.5867  0.1108  0.2147
  213MOL0     C29314   8.762   4.718   0.941  0.9424 -0.4520  0.1938
  213MOL0     O29315   8.757   4.673   0.816  0.3866 -0.3226  1.0072
  213MOL0     C29316   8.848   4.560   0.813  0.4995 -0.0575  0.2706
  213MOL0     C29317   8.782   4.423   0.843  0.4347  0.2938 -0.1481
  213MOL0     C29318   8.669   4.407   0.743  0.0145  0.6902 -1.1921
  213MOL0     C29319   8.573   4.299   0.798  0.0321 -1.0256  0.5831
  213MOL0     C29320   8.497   4.240   0.686  0.1551 -0.6654  0.4771
  213MOL0     C29321   8.426   4.194   0.597  0.1174 -0.2989  0.0942
  213MOL0     C29322   8.861   4.808   0.984 -0.4734 -0.1025 -0.9301
  213MOL0     C29323   8.876   4.851   1.115  0.0362  0.9948 -0.1330
  213MOL0     C29324   9.010   4.932   1.153  0.8410  1.0443 -0.3190
  213MOL0     H29325   8.586   5.063   1.533  0.2406  1.9806 -1.5623
  213MOL0     H29326   8.623   5.154   1.760 -0.2112  0.6887 -0.1208
  213MOL0     H29327   9.005   5.265   1.910  1.4413 -0.1248 -1.4271
  213MOL0     H29328   8.994   5.102   1.979 -0.3768  0.5354 -0.3552
  213MOL0     H29329   8.997   5.270   2.150  0.3094  0.7701 -0.5780
  213MOL0     H29330   8.839   5.344   2.089  3.5052  3.2391 -0.3637
  213MOL0     H29331   8.735   5.115   2.150  0.3192 -0.2195  0.4424
  213MOL0     H29332   8.894   5.054   2.198  0.9948  0.1664  1.9398
  213MOL0     H29333   8.921   5.217   2.376  1.2375 -3.2043 -0.7648
  213MOL0     H29334   8.768   5.300   2.323 -1.1189 -1.1432 -1.8203
  213MOL0     H29335   8.783   5.006   2.395 -1.1195 -0.5694  0.4413
  213MOL0     H29336   8.638   5.097   2.368  1.3899  3.2397 -3.2967
  213MOL0     H29337   8.823   5.132   2.601  1.0514 -1.0787 -0.1138
  213MOL0     H29338   8.694   5.249   2.562  0.1002 -0.1169  0.5542
  213MOL0     H29339   8.632   4.952   2.621 -3.6140 -0.1117  2.1566
  213MOL0     H29340   8.514   5.071   2.589 -0.1773  1.4728  0.1249
  213MOL0     H29341   8.574   5.219   2.759  3.5117  0.6856 -1.9176
  213MOL0     H29342   8.509   5.065   2.822  2.4269 -3.8831  1.3253
  213MOL0     H29343   8.874   5.229   2.806  3.0174 -2.3959 -0.1041
  213MOL0     H29344   9.026   5.236   2.996 -1.8948 -0.2629 -7.0864
  213MOL0     H29345   9.119   5.087   2.958  0.3524 -1.5945  0.7896
  213MOL0     H29346   9.085   5.158   3.220 -4.0506  1.5169  0.3091
  213MOL0     H29347   8.953   5.053   3.199  0.9550 -1.0086  2.5273
  213MOL0     H29348   9.119   4.876   3.104 -0.8549 -1.3855  2.2775
  213MOL0     H29349   9.239   5.008   3.112 -0.7433  4.6562  0.1365
  213MOL0     H29350   9.127   4.956   3.378  0.3233 -1.0075  0.5625
  213MOL0     H29351   9.204   4.821   3.309 -1.7426 -0.3896 -1.1907
  213MOL0     H29352   9.542   5.110   3.364  2.1951  0.5520  0.5936
  213MOL0     H29353   9.735   5.196   3.478 -1.7168 -0.6939 -0.0076
  213MOL0     H29354   9.806   5.052   3.558 -3.1193 -5.9490 -0.1278
  213MOL0     H29355   9.730   5.177   3.648 -0.0484 -0.9035  0.2802
  213MOL0     H29356   9.844   4.783   3.934 -0.3437 -1.5278  0.0830
  213MOL0     H29357   9.933   4.685   4.131  0.1595 -2.9720 -4.4441
  213MOL0     H29358   9.971   4.557   4.314 -1.2841  0.3595 -1.4248
  213MOL0     H29359   9.972   4.721   4.369 -1.6106  0.9542  0.1346
  213MOL0     H29360   9.928   4.462   4.528 -1.6664 -0.2050 -0.9586
  213MOL0     H29361  10.055   4.590   4.551 -1.3915  3.5848  0.5728
  213MOL0     H29362   9.892   4.596   4.733  2.0697  2.9858  1.7021
  213MOL0     H29363   9.756   4.635   4.611 -0.9383  2.0035  2.4492
  213MOL0     H29364   9.899   4.836   4.543 -3.0558  0.8493  0.1049
  213MOL0     H29365  10.007   4.802   4.687 -1.2232 -0.3675  3.2325
  213MOL0     H29366   9.707   4.846   4.688 -0.9589  1.7223  1.2295
  213MOL0     H29367   9.806   4.813   4.833  0.4797 -0.4035 -0.2349
  213MOL0     H29368   9.852   5.043   4.847 -0.0863  0.3756  0.3837
  213MOL0     H29369   9.698   5.046   4.763 -1.0912 -1.3799 -0.5615
  213MOL0     H29370   9.811   5.054   4.539  1.3734 -0.7484 -1.3310
  213MOL0     H29371   9.964   5.059   4.607 -0.8276 -0.7513 -1.1832
  213MOL0     H29372   9.986   5.265   4.649 -0.0452  0.1923 -0.7330
  213MOL0     H29373   9.828   5.288   4.725  0.1248 -0.6828  0.0919
  213MOL0     H29374   9.541   4.688   4.310  1.3377  0.2012  0.7367
  213MOL0     H29375   9.441   4.767   4.070 -0.8038  2.3588 -0.0516
  213MOL0     H29376   9.413   4.813   3.736 -1.4467  0.3889 -0.9931
  213MOL0     H29377   9.268   4.838   3.577  0.0823 -1.1280 -3.2506
  213MOL0     H29378   9.035   5.079   1.754 -0.9429 -2.3561  1.5932
  213MOL0     H29379   9.014   5.005   1.512  0.3752  0.9020  0.9478
  213MOL0     H29380   8.595   4.674   1.222  0.0559  0.0261 -1.1518
  213MOL0     H29381   8.580   4.625   0.995  1.2067 -0.1070 -0.8238
  213MOL0     H29382   8.879   4.543   0.709 -2.2750 -1.8887 -0.3878
  213MOL0     H29383   8.921   4.563   0.894 -0.8637  1.5020  1.5104
  213MOL0     H29384   8.745   4.422   0.946 -1.5576  0.3547 -0.8062
  213MOL0     H29385   8.850   4.338   0.837  1.4067  1.0641 -0.1418
  213MOL0     H29386   8.610   4.498   0.731  0.2520  1.3873  2.1285
  213MOL0     H29387   8.720   4.382   0.649  1.4983 -1.9225  0.1967
  213MOL0     H29388   8.512   4.354   0.870 -1.4407 -0.3778 -1.0722
  213MOL0     H29389   8.631   4.218   0.843  2.9616  0.3990 -0.3923
  213MOL0     H29390   8.363   4.137   0.531  0.9390  1.0269 -1.9195
  213MOL0     H29391   8.944   4.826   0.916 -2.1256  2.3347 -2.4813
  213MOL0     H29392   9.091   4.939   1.080  1.3531  1.2602  0.2520
  213MOL0     H29393   8.971   5.032   1.175 -0.5770  0.1873  1.3222
  213MOL0     H29394   9.057   4.891   1.243  0.9718 -0.4836 -1.0556
  214MOL0     O29395   7.719   6.722   0.322  0.4003  0.1548  0.2397
  214MOL0     C29396   7.703   6.716   0.197  0.3106 -0.0678  0.0607
  214MOL0     O29397   7.727   6.607   0.118 -0.3304 -0.4190  0.3232
  214MOL0     C29398   7.777   6.495   0.171 -0.0630  0.4009  0.0850
  214MOL0     C29399   7.913   6.490   0.207  0.2123  0.0360 -0.1782
  214MOL0     C29400   7.966   6.372   0.265  0.7597 -0.4759 -0.0722
  214MOL0     C29401   7.888   6.254   0.261 -0.3566  0.2288 -0.1502
  214MOL0     O29402   7.932   6.124   0.284  0.0930 -0.3388  0.7984
  214MOL0     C29403   8.063   6.115   0.333  0.1053 -0.0777 -0.7656
  214MOL0     C29404   8.069   5.984   0.422  0.3297  0.4136 -0.7756
  214MOL0     C29405   8.069   5.859   0.346  0.3176 -1.2544 -0.0160
  214MOL0     C29406   8.119   5.745   0.430 -0.7038  0.0051  0.1558
  214MOL0     C29407   8.099   5.608   0.361  0.3509  0.8449  0.2374
  214MOL0     C29408   8.149   5.482   0.433 -0.4638  0.0325  0.1094
  214MOL0     C29409   8.121   5.463   0.588 -0.9607  0.5244 -1.3366
  214MOL0     C29410   8.169   5.324   0.632  0.6128  0.3280 -0.3819
  214MOL0     N29411   8.108   5.263   0.759  0.4636 -0.1231 -0.0615
  214MOL0     C29412   8.162   5.291   0.889  0.4168 -0.1126 -0.0795
  214MOL0     C29413   8.075   5.231   0.970  1.3818 -0.4174 -0.3382
  214MOL0     C29414   8.090   5.219   1.121  0.0625  0.5307  1.6534
  214MOL0     C29415   8.157   5.089   1.174 -0.0626  0.7659 -1.1989
  214MOL0     C29416   8.066   4.975   1.158  0.4596 -0.4651 -0.3142
  214MOL0     C29417   8.151   4.853   1.135  1.4808 -0.3828 -0.1760
  214MOL0     O29418   8.063   4.742   1.122 -0.1374 -0.4521  0.0353
  214MOL0     C29419   8.003   4.719   1.001 -0.5054 -0.5118 -0.9474
  214MOL0     C29420   7.923   4.608   0.986 -0.4725  0.9611 -0.0839
  214MOL0     C29421   7.843   4.571   0.874 -0.2116 -0.9501  0.1831
  214MOL0     C29422   7.750   4.452   0.890 -0.1086 -0.5842 -0.2250
  214MOL0     C29423   7.860   4.661   0.764  0.4939  0.0616  0.2826
  214MOL0     C29424   7.804   4.642   0.626  0.1777  0.3948  0.9874
  214MOL0     O29425   7.793   4.751   0.546 -0.2697 -0.4789 -1.1765
  214MOL0     C29426   7.719   4.758   0.430 -0.3518 -0.2786  0.3496
  214MOL0     C29427   7.598   4.688   0.407  0.5315  0.0032  0.2603
  214MOL0     C29428   7.519   4.715   0.291 -0.3139  0.1875  0.5489
  214MOL0     C29429   7.572   4.810   0.199  0.2040 -0.1626  0.5318
  214MOL0     O29430   7.522   4.832   0.074  0.5431 -0.1377 -0.1342
  214MOL0     C29431   7.388   4.790   0.048 -0.4293  0.7959 -0.4886
  214MOL0     C29432   7.368   4.800  -0.107 -1.2157  0.7609  0.4596
  214MOL0     C29433   7.316   4.939  -0.147  0.6328 -0.0842  0.2720
  214MOL0     C29434   7.325   4.949  -0.300  0.1635 -0.0653  0.4561
  214MOL0     C29435   7.214   4.886  -0.383  0.2178  0.1983 -0.1845
  214MOL0     C29436   7.231   4.904  -0.527  0.3019 -0.1508 -0.2467
  214MOL0     C29437   7.337   4.808  -0.587  0.4019  0.1502  0.5068
  214MOL0     C29438   7.313   4.776  -0.735  0.5955  0.2317  0.2637
  214MOL0    Cl29439   7.430   4.660  -0.768 -0.0419  0.2345  0.1149
  214MOL0     C29440   7.699   4.873   0.220 -0.8727 -0.0917 -0.2988
  214MOL0     C29441   7.766   4.850   0.337  1.0614  0.4503 -0.2727
  214MOL0     O29442   7.770   4.527   0.584 -0.2680 -0.2039 -0.1251
  214MOL0     C29443   7.937   4.777   0.778  0.4288  0.2077  0.3934
  214MOL0     C29444   8.005   4.809   0.900  0.1938 -0.0684  0.5317
  214MOL0     N29445   7.971   5.170   0.900 -0.1232 -0.3342  0.8358
  214MOL0     N29446   7.987   5.199   0.773 -0.0018 -0.0666 -0.2565
  214MOL0     C29447   7.760   6.266   0.217 -0.5317  0.0416  0.2917
  214MOL0     C29448   7.697   6.380   0.174 -0.5154  0.8177 -1.0307
  214MOL0     C29449   7.662   6.837   0.135  0.1448  0.3657  0.0715
  214MOL0     C29450   7.569   6.910   0.205 -0.8964 -0.8945  0.0105
  214MOL0     C29451   7.517   7.028   0.156  0.8116  0.3751 -0.5067
  214MOL0     C29452   7.542   7.073   0.025  0.4550  0.7529  0.0698
  214MOL0     O29453   7.471   7.178  -0.022 -0.1595 -0.4773  0.3262
  214MOL0     C29454   7.493   7.230  -0.151 -0.3742 -0.9969  0.2131
  214MOL0     C29455   7.561   7.363  -0.145 -0.6886 -0.0123 -0.9379
  214MOL0     C29456   7.527   7.449  -0.269  0.7222  0.6012 -0.7019
  214MOL0     C29457   7.575   7.592  -0.257  2.2742 -0.6528  0.2084
  214MOL0     C29458   7.703   7.619  -0.195  0.0632 -0.3718  0.0558
  214MOL0     C29459   7.813   7.627  -0.146 -0.2440  0.4524 -0.1917
  214MOL0     C29460   7.645   6.996  -0.045  0.2821  0.5951 -0.4184
  214MOL0     C29461   7.708   6.882   0.011  0.5220 -0.0562  0.4283
  214MOL0     C29462   7.808   6.809  -0.071  0.0846  0.2077 -0.4967
  214MOL0     H29463   7.968   6.582   0.222 -0.0112  0.2413 -0.5856
  214MOL0     H29464   8.067   6.358   0.302  0.6556 -1.6788 -0.1922
  214MOL0     H29465   8.086   6.188   0.412 -1.0994 -0.3820 -0.1051
  214MOL0     H29466   8.136   6.117   0.252  1.4494  0.0883  0.4063
  214MOL0     H29467   8.165   5.984   0.474  0.7599 -0.3691 -1.5562
  214MOL0     H29468   7.983   5.998   0.487  0.3078 -0.1529 -0.6805
  214MOL0     H29469   7.968   5.848   0.304  1.2090 -3.0849 -1.8566
  214MOL0     H29470   8.133   5.861   0.257  1.0821  1.3946  0.5167
  214MOL0     H29471   8.225   5.764   0.450 -0.6287  1.1323 -1.1603
  214MOL0     H29472   8.055   5.745   0.518  0.7138  2.2208  1.2785
  214MOL0     H29473   8.136   5.600   0.259 -0.7202  0.4217 -0.1396
  214MOL0     H29474   7.992   5.594   0.343  0.0947 -1.4071  2.8241
  214MOL0     H29475   8.113   5.397   0.374 -1.4221  0.1455  0.5098
  214MOL0     H29476   8.258   5.487   0.433 -0.4963  2.8056 -1.2676
  214MOL0     H29477   8.013   5.472   0.599 -0.9273 -1.5439  2.0851
  214MOL0     H29478   8.158   5.548   0.646 -1.7246 -0.8797  1.3448
  214MOL0     H29479   8.144   5.266   0.543  0.2465 -1.2479  0.7192
  214MOL0     H29480   8.276   5.332   0.655  0.8452 -1.3155 -0.7557
  214MOL0     H29481   8.248   5.348   0.923 -1.6291  1.6739  2.4636
  214MOL0     H29482   7.992   5.226   1.170  1.1740 -0.5767  4.2373
  214MOL0     H29483   8.151   5.305   1.150  1.2463  0.0460  0.6980
  214MOL0     H29484   8.253   5.077   1.123 -0.2983 -0.9560 -1.2927
  214MOL0     H29485   8.183   5.099   1.280 -1.5044  0.3574 -0.7829
  214MOL0     H29486   8.008   4.965   1.250 -0.0756  2.3335 -0.2373
  214MOL0     H29487   7.992   4.995   1.079  1.5033 -0.0691 -1.2102
  214MOL0     H29488   8.221   4.878   1.055  1.3690  2.3250  0.4739
  214MOL0     H29489   8.213   4.827   1.222 -1.7721 -1.6384  1.9638
  214MOL0     H29490   7.932   4.534   1.065  0.7642 -0.1926 -1.2767
  214MOL0     H29491   7.758   4.408   0.990 -1.3253  1.0579  0.6400
  214MOL0     H29492   7.762   4.370   0.818  0.1768  0.1005 -0.9754
  214MOL0     H29493   7.648   4.489   0.877  0.1813  0.0018 -0.8639
  214MOL0     H29494   7.561   4.614   0.477 -1.6842 -0.9602 -1.7552
  214MOL0     H29495   7.429   4.654   0.284 -1.1691  1.5034 -0.4555
  214MOL0     H29496   7.385   4.683   0.072  0.3422  0.2329 -2.6639
  214MOL0     H29497   7.309   4.848   0.096 -0.4265  1.2056 -0.9717
  214MOL0     H29498   7.464   4.781  -0.156 -0.0720  2.7120  1.7827
  214MOL0     H29499   7.292   4.731  -0.144  0.0924  0.2421 -1.3657
  214MOL0     H29500   7.384   5.008  -0.096  1.1140 -1.0622  0.9946
  214MOL0     H29501   7.216   4.953  -0.103 -1.2156 -1.1036 -3.2148
  214MOL0     H29502   7.428   4.929  -0.332  0.0609  2.1978 -1.5271
  214MOL0     H29503   7.310   5.052  -0.333  0.5788  0.4602  1.8069
  214MOL0     H29504   7.210   4.777  -0.377  1.8673  0.1446  0.5557
  214MOL0     H29505   7.116   4.925  -0.353 -0.4437 -1.3572 -0.2285
  214MOL0     H29506   7.233   5.012  -0.543 -6.0331  0.3504 -0.2936
  214MOL0     H29507   7.134   4.885  -0.574 -1.5176  0.3975  2.9791
  214MOL0     H29508   7.352   4.714  -0.533  1.2408 -1.0677 -1.6791
  214MOL0     H29509   7.434   4.859  -0.586 -0.7146  2.3530  1.0364
  214MOL0     H29510   7.332   4.855  -0.808  0.2666 -0.4360 -0.5508
  214MOL0     H29511   7.210   4.740  -0.742  0.9775 -0.6666 -1.2642
  214MOL0     H29512   7.756   4.942   0.158  0.7423  0.7551  1.9697
  214MOL0     H29513   7.865   4.892   0.355  0.8493  1.1990 -0.8156
  214MOL0     H29514   7.942   4.866   0.716 -2.3304 -1.1088 -1.9861
  214MOL0     H29515   8.053   4.906   0.907 -1.3826  0.6977  1.0463
  214MOL0     H29516   7.708   6.170   0.214 -2.8938  1.2154  0.8497
  214MOL0     H29517   7.595   6.393   0.138 -1.8171  3.5531  2.9311
  214MOL0     H29518   7.528   6.887   0.303 -0.6035  1.7210  0.8051
  214MOL0     H29519   7.443   7.084   0.213  0.6632  1.3686 -1.6245
  214MOL0     H29520   7.543   7.165  -0.224 -0.0273  0.0640 -0.5296
  214MOL0     H29521   7.389   7.246  -0.181 -0.5808 -3.0698 -0.3168
  214MOL0     H29522   7.669   7.354  -0.142 -0.4837  1.8930  2.5510
  214MOL0     H29523   7.530   7.423  -0.059  0.0519  2.2382 -2.1453
  214MOL0     H29524   7.560   7.400  -0.362  1.0483  0.9810 -0.7864
  214MOL0     H29525   7.419   7.452  -0.281  0.7743  2.4338 -1.0071
  214MOL0     H29526   7.492   7.640  -0.205  0.0162 -0.4521 -3.2573
  214MOL0     H29527   7.566   7.639  -0.355  0.8241 -0.5064  0.3956
  214MOL0     H29528   7.909   7.627  -0.097 -1.0660  1.1871  1.5220
  214MOL0     H29529   7.673   7.009  -0.149 -0.2268 -3.5734 -1.2502
  214MOL0     H29530   7.845   6.867  -0.156  1.9430  1.2498  0.9376
  214MOL0     H29531   7.898   6.777  -0.019 -0.4332 -2.0584 -0.8992
  214MOL0     H29532   7.767   6.715  -0.107  0.5023 -1.0124  2.0097
  215MOL0     O29533   7.974  11.137  10.345 -0.5932  0.1535  0.8299
  215MOL0     C29534   7.910  11.237  10.377 -0.5570 -1.0966  0.4022
  215MOL0     O29535   7.922  11.294  10.500 -0.4352  0.3755 -0.0592
  215MOL0     C29536   8.046  11.284  10.564  0.1285  0.3992 -0.7447
  215MOL0     C29537   8.116  11.399  10.602 -0.2782 -1.2625 -0.2142
  215MOL0     C29538   8.234  11.390  10.682 -0.0201  0.2139  0.0773
  215MOL0     C29539   8.274  11.271  10.737 -0.6629 -0.7332  0.1450
  215MOL0     O29540   8.366  11.253  10.835 -0.6333  0.1622  0.1789
  215MOL0     C29541   8.444  11.369  10.887 -0.7655  0.3771 -1.0835
  215MOL0     C29542   8.564  11.321  10.977 -0.4288  0.8991  0.3420
  215MOL0     C29543   8.647  11.434  11.019 -0.4344 -0.5380 -0.1702
  215MOL0     C29544   8.759  11.366  11.106  0.7851 -0.6636 -0.3505
  215MOL0     C29545   8.862  11.467  11.161 -0.4653  1.0444  0.6065
  215MOL0     C29546   8.989  11.481  11.073 -0.1699 -0.1040  0.4627
  215MOL0     C29547   9.115  11.519  11.150  0.1972 -0.5129 -0.1879
  215MOL0     C29548   9.244  11.527  11.070 -0.6143  0.1238 -0.5001
  215MOL0     N29549   9.353  11.569  11.161  0.1320  0.4770 -0.0086
  215MOL0     C29550   9.399  11.491  11.267 -0.1910 -0.0786 -0.7012
  215MOL0     C29551   9.474  11.566  11.341 -0.4207 -0.0999 -0.8224
  215MOL0     C29552   9.565  11.529  11.469 -0.6855  0.9673  0.5218
  215MOL0     C29553   9.711  11.496  11.443  0.1249 -1.2594 -0.1998
  215MOL0     C29554   9.781  11.453  11.575  0.4557  0.5486 -1.0084
  215MOL0     C29555   9.705  11.338  11.651 -0.1277  0.3104  0.3895
  215MOL0     O29556   9.798  11.235  11.698 -0.3757 -0.3535 -0.1291
  215MOL0     C29557   9.849  11.153  11.598 -0.2280 -0.0106 -0.3676
  215MOL0     C29558   9.976  11.103  11.610 -1.1305 -0.1459  1.2423
  215MOL0     C29559  10.054  11.025  11.519  0.9196 -0.1760 -0.9208
  215MOL0     C29560  10.192  10.985  11.570 -0.1033 -0.2436  0.4012
  215MOL0     C29561   9.987  10.986  11.403 -0.2997 -0.0943  0.2162
  215MOL0     C29562  10.053  10.912  11.290 -0.8242  0.4067 -0.1899
  215MOL0     O29563  10.184  10.938  11.264 -0.1364  0.3898 -0.1870
  215MOL0     C29564  10.221  10.901  11.135 -0.2725  0.0937 -0.0575
  215MOL0     C29565  10.286  10.782  11.119 -0.0461 -0.0071  0.2537
  215MOL0     C29566  10.337  10.746  10.995  0.6024 -0.3062  0.2588
  215MOL0     C29567  10.334  10.839  10.885 -0.0226  0.4728 -0.1955
  215MOL0     O29568  10.373  10.814  10.759 -0.1027  0.3987  0.5316
  215MOL0     C29569  10.437  10.692  10.728  0.1815  0.5138  0.9359
  215MOL0     C29570  10.484  10.715  10.585 -0.4673  0.2993  0.1169
  215MOL0     C29571  10.561  10.593  10.530 -0.5440 -1.0935 -0.5090
  215MOL0     C29572  10.460  10.490  10.483  0.1546 -0.0297 -0.0183
  215MOL0     C29573  10.398  10.519  10.348  0.0351  0.0465  0.2560
  215MOL0     C29574  10.328  10.401  10.295  0.6718  0.6177  0.1618
  215MOL0     C29575  10.264  10.420  10.158 -0.1825 -0.1411 -0.5211
  215MOL0     C29576  10.143  10.327  10.147 -0.1538  0.2902  0.4939
  215MOL0    Cl29577   9.999  10.382  10.234  0.3470  0.4781  0.3053
  215MOL0     C29578  10.250  10.958  10.903  0.9189  0.1485  0.0002
  215MOL0     C29579  10.194  10.986  11.031  0.0704  0.1520  0.3172
  215MOL0     O29580   9.984  10.832  11.226  0.0303 -0.0617 -0.2498
  215MOL0     C29581   9.855  11.038  11.382 -0.2866  0.6390 -0.0993
  215MOL0     C29582   9.789  11.122  11.477 -1.0373  0.2471  0.0612
  215MOL0     N29583   9.483  11.694  11.281 -0.4593  0.8735 -0.2525
  215MOL0     N29584   9.402  11.690  11.177  0.3543 -0.9978  0.4526
  215MOL0     C29585   8.203  11.157  10.706 -0.0122 -0.4767 -0.0189
  215MOL0     C29586   8.080  11.162  10.632  0.0824 -0.5770  0.6642
  215MOL0     C29587   7.806  11.287  10.279 -0.9478  0.2703 -0.8024
  215MOL0     C29588   7.768  11.207  10.180  0.2340 -0.7983  0.9633
  215MOL0     C29589   7.655  11.223  10.100 -0.1555 -0.9869 -0.3506
  215MOL0     C29590   7.580  11.339  10.113  0.6913  0.1176  0.1100
  215MOL0     O29591   7.480  11.368  10.026  0.2879  0.5427  0.6700
  215MOL0     C29592   7.393  11.482  10.039 -0.1376  0.7027  0.1230
  215MOL0     C29593   7.294  11.474   9.932 -0.0499  0.2128 -0.0950
  215MOL0     C29594   7.195  11.361   9.951 -0.7133 -0.6433  0.4649
  215MOL0     C29595   7.158  11.288   9.824  0.5697  0.4517 -0.9369
  215MOL0     C29596   7.087  11.168   9.862 -0.2031  0.7361  0.4974
  215MOL0     C29597   7.018  11.093   9.925  0.5462 -0.2246 -0.2656
  215MOL0     C29598   7.629  11.430  10.206  0.1422 -0.0498  0.3788
  215MOL0     C29599   7.732  11.401  10.291 -0.0413 -0.5165 -0.2005
  215MOL0     C29600   7.773  11.516  10.394 -0.4639  0.2310 -1.0419
  215MOL0     H29601   8.090  11.498  10.566  0.1613  1.2554  5.4346
  215MOL0     H29602   8.287  11.484  10.697  0.1626  0.2626 -0.7862
  215MOL0     H29603   8.386  11.447  10.938  2.7869  1.4483  1.7900
  215MOL0     H29604   8.482  11.423  10.799 -1.4127 -0.0871 -1.6649
  215MOL0     H29605   8.526  11.259  11.059 -1.2583  3.8642  2.3327
  215MOL0     H29606   8.616  11.254  10.906 -0.7640 -0.4734  1.3481
  215MOL0     H29607   8.697  11.490  10.940  1.3634 -2.0218 -0.1509
  215MOL0     H29608   8.591  11.512  11.071 -3.1683 -0.4755 -2.8684
  215MOL0     H29609   8.709  11.331  11.196 -1.6156  0.7798 -1.0236
  215MOL0     H29610   8.812  11.295  11.041  1.6566  0.8022 -1.3225
  215MOL0     H29611   8.896  11.442  11.262 -2.9632 -1.1307  1.0053
  215MOL0     H29612   8.813  11.564  11.175 -2.1892  0.3430 -0.3779
  215MOL0     H29613   8.999  11.384  11.024 -3.5010 -1.0886  1.4672
  215MOL0     H29614   8.961  11.559  11.002 -0.4395 -0.6218 -0.0100
  215MOL0     H29615   9.134  11.463  11.242  2.2542 -0.1424 -0.3437
  215MOL0     H29616   9.109  11.620  11.191 -1.7331 -0.5268 -0.3653
  215MOL0     H29617   9.269  11.436  11.015 -0.0874 -0.5613  0.8492
  215MOL0     H29618   9.221  11.609  11.001 -0.3120  0.7090  0.0968
  215MOL0     H29619   9.370  11.388  11.279 -4.1091  0.9698  0.1911
  215MOL0     H29620   9.523  11.444  11.524 -0.2910  0.7451  0.4810
  215MOL0     H29621   9.572  11.618  11.533 -0.5132 -0.0880  2.0153
  215MOL0     H29622   9.707  11.422  11.363  1.8355 -1.8088  0.1660
  215MOL0     H29623   9.750  11.589  11.400  0.8222 -1.5309 -0.1734
  215MOL0     H29624   9.873  11.406  11.539 -0.7451 -0.0717 -3.5210
  215MOL0     H29625   9.810  11.537  11.639 -1.0701  0.2566  0.1123
  215MOL0     H29626   9.664  11.385  11.741 -2.0374 -1.3725  0.4537
  215MOL0     H29627   9.629  11.286  11.593 -2.5878  1.2847  2.5201
  215MOL0     H29628  10.022  11.114  11.707 -2.5106  1.4655  1.7658
  215MOL0     H29629  10.262  11.067  11.551  0.3034  0.2211  3.3724
  215MOL0     H29630  10.232  10.889  11.535  0.8974  1.1251 -2.5106
  215MOL0     H29631  10.174  10.981  11.678 -1.7160  0.0924  0.1673
  215MOL0     H29632  10.289  10.708  11.198 -0.5778 -0.1830  0.1102
  215MOL0     H29633  10.385  10.650  10.982  0.0945 -0.5084 -0.1924
  215MOL0     H29634  10.527  10.683  10.791 -1.9111 -1.7531  3.8883
  215MOL0     H29635  10.390  10.594  10.733  2.4784 -0.7327 -0.4992
  215MOL0     H29636  10.397  10.741  10.525 -0.0232  0.1316 -0.6061
  215MOL0     H29637  10.548  10.803  10.595  1.1073 -0.7404 -0.3645
  215MOL0     H29638  10.619  10.549  10.611 -1.9589 -2.9622 -0.4322
  215MOL0     H29639  10.624  10.635  10.451  0.0481  2.0676  1.4714
  215MOL0     H29640  10.380  10.458  10.550  2.2436 -1.0657  2.1188
  215MOL0     H29641  10.531  10.409  10.469  4.3312  3.4045 -0.9933
  215MOL0     H29642  10.327  10.603  10.347 -0.0501 -0.0098 -1.3357
  215MOL0     H29643  10.480  10.548  10.282 -0.1864  2.4085  0.9488
  215MOL0     H29644  10.251  10.368  10.366 -1.2697  1.5802 -1.4034
  215MOL0     H29645  10.402  10.321  10.286  0.5337  0.6468 -1.4930
  215MOL0     H29646  10.337  10.383  10.085  1.8004  2.3425  0.0687
  215MOL0     H29647  10.233  10.524  10.152  0.0811  0.0406  0.9307
  215MOL0     H29648  10.166  10.231  10.194 -1.0839 -0.0329  0.3289
  215MOL0     H29649  10.120  10.310  10.041  0.0641  0.2889  0.4486
  215MOL0     H29650  10.235  11.035  10.827 -1.0677  0.1557  0.3359
  215MOL0     H29651  10.138  11.079  11.035 -1.8638 -0.8798 -0.9882
  215MOL0     H29652   9.801  11.020  11.290 -1.2850 -0.1561  0.6117
  215MOL0     H29653   9.687  11.151  11.453  0.4525  5.3040 -1.4364
  215MOL0     H29654   8.241  11.057  10.726  0.2798 -0.7045 -1.5777
  215MOL0     H29655   8.035  11.073  10.589 -0.3230  0.0931 -0.3288
  215MOL0     H29656   7.835  11.123  10.163 -0.8587 -1.3199 -1.0299
  215MOL0     H29657   7.635  11.147  10.025 -0.6923  2.1735 -3.7014
  215MOL0     H29658   7.337  11.472  10.132  0.2540  0.2580  0.3147
  215MOL0     H29659   7.451  11.575  10.031  0.3743  0.2422 -2.0564
  215MOL0     H29660   7.342  11.444   9.839 -0.3391 -1.2170  0.1838
  215MOL0     H29661   7.256  11.574   9.912  1.9055  1.6995  2.8941
  215MOL0     H29662   7.246  11.289  10.016 -0.1358 -0.6860 -0.0281
  215MOL0     H29663   7.109  11.401  10.006  1.2910  1.5591  2.2456
  215MOL0     H29664   7.249  11.248   9.778  1.1965 -0.3477  0.8839
  215MOL0     H29665   7.100  11.356   9.761  1.2231 -0.1017 -2.1759
  215MOL0     H29666   6.966  11.026   9.991 -0.5326 -0.2465 -1.1107
  215MOL0     H29667   7.573  11.522  10.222 -2.5445 -1.4803 -0.1494
  215MOL0     H29668   7.742  11.485  10.495  0.8611  0.1930 -0.6279
  215MOL0     H29669   7.880  11.535  10.391  0.8231 -4.7269  1.5811
  215MOL0     H29670   7.730  11.616  10.383  1.7046  1.8064  2.7731
  216MOL0     O29671   2.858   3.576   3.600  0.7751 -0.6635 -0.2988
  216MOL0     C29672   2.902   3.469   3.560  0.7734  0.5944 -0.2054
  216MOL0     O29673   2.833   3.385   3.475 -0.0830 -0.5328 -0.0834
  216MOL0     C29674   2.735   3.447   3.408 -1.0657 -1.0703  1.0885
  216MOL0     C29675   2.615   3.496   3.461  0.3436  1.1873 -0.2896
  216MOL0     C29676   2.517   3.550   3.376 -0.2823 -0.6984 -0.8256
  216MOL0     C29677   2.535   3.561   3.240  1.0480  0.4751  0.0739
  216MOL0     O29678   2.441   3.613   3.155 -0.1668  0.6630 -0.0253
  216MOL0     C29679   2.304   3.622   3.194 -0.3693  0.7634  0.8320
  216MOL0     C29680   2.263   3.757   3.249 -0.6111  0.3241  0.9059
  216MOL0     C29681   2.113   3.782   3.223 -0.4970 -0.4730  0.4629
  216MOL0     C29682   2.060   3.917   3.275 -0.2831  0.8289  0.2774
  216MOL0     C29683   1.917   3.934   3.221  0.1993  0.8755  0.4564
  216MOL0     C29684   1.847   4.036   3.314 -0.2072  0.1831  0.1511
  216MOL0     C29685   1.705   4.052   3.265 -0.5045  0.3620 -0.1196
  216MOL0     C29686   1.693   4.180   3.188  0.2989 -0.0735  0.1480
  216MOL0     N29687   1.653   4.306   3.259  0.5185  0.8602 -0.0090
  216MOL0     C29688   1.714   4.360   3.367  0.0015 -0.2511 -0.1784
  216MOL0     C29689   1.642   4.471   3.404 -0.1329  0.1303  0.8470
  216MOL0     C29690   1.680   4.576   3.493 -0.2058  0.2156  0.2583
  216MOL0     C29691   1.559   4.618   3.579 -0.5060  0.7441  0.2379
  216MOL0     C29692   1.499   4.505   3.658  0.3957 -0.1943 -0.0241
  216MOL0     C29693   1.379   4.561   3.733 -0.2168 -0.2192  1.3324
  216MOL0     O29694   1.397   4.665   3.828  0.7001  0.1527 -0.1589
  216MOL0     C29695   1.286   4.726   3.884 -0.8076  0.2885 -1.6956
  216MOL0     C29696   1.150   4.691   3.874 -0.3101  0.9423  0.7293
  216MOL0     C29697   1.056   4.753   3.955 -0.4358 -0.1445 -0.7881
  216MOL0     C29698   0.915   4.703   3.941  0.5156 -0.1446  0.2334
  216MOL0     C29699   1.090   4.857   4.051 -0.2307  0.1941 -0.9380
  216MOL0     C29700   0.999   4.921   4.148  0.6135  0.4424  0.7490
  216MOL0     O29701   0.912   4.830   4.218  0.4304  0.2272  0.8500
  216MOL0     C29702   0.857   4.888   4.334 -0.8783  0.7377  0.3698
  216MOL0     C29703   0.918   4.881   4.461  0.0613  0.9619  0.7260
  216MOL0     C29704   0.861   4.953   4.565  0.6594 -0.1583 -0.0306
  216MOL0     C29705   0.747   5.033   4.559 -0.2308  0.6202  0.3476
  216MOL0     O29706   0.716   5.096   4.668 -0.7511 -0.4389 -0.2847
  216MOL0     C29707   0.588   5.166   4.676  0.1982  0.4110  0.2065
  216MOL0     C29708   0.562   5.220   4.819 -0.0626 -0.2234 -0.0674
  216MOL0     C29709   0.448   5.325   4.830 -0.2301  0.0961 -0.2367
  216MOL0     C29710   0.364   5.282   4.947 -0.3705  0.6407 -0.0605
  216MOL0     C29711   0.244   5.370   4.960  0.0671  1.1182  0.3878
  216MOL0     C29712   0.151   5.302   5.056  0.9679 -0.0987  0.4346
  216MOL0     C29713   0.024   5.383   5.083 -0.0674  0.6107 -0.1349
  216MOL0     C29714  -0.078   5.374   4.962  0.7880 -0.2101  0.0115
  216MOL0    Cl29715  -0.223   5.481   5.011 -0.1497  0.4529  0.3077
  216MOL0     C29716   0.683   5.035   4.430 -0.7833 -0.2208 -0.8284
  216MOL0     C29717   0.729   4.952   4.327 -0.4564 -1.3345  0.8334
  216MOL0     O29718   1.009   5.037   4.180 -0.2345 -0.0981 -0.0361
  216MOL0     C29719   1.226   4.893   4.057 -0.4041  0.3173  0.3093
  216MOL0     C29720   1.314   4.834   3.975 -1.3516  0.8977 -0.6245
  216MOL0     N29721   1.545   4.481   3.299  0.2193 -0.3260 -0.8534
  216MOL0     N29722   1.552   4.388   3.223 -0.4736  0.0018  0.8034
  216MOL0     C29723   2.650   3.506   3.186  0.4102  0.1994  0.3545
  216MOL0     C29724   2.748   3.454   3.268  0.5612  0.5825  0.5566
  216MOL0     C29725   3.020   3.402   3.611 -0.6668 -0.3721 -0.3533
  216MOL0     C29726   3.095   3.305   3.542 -0.4683  0.3896 -0.4384
  216MOL0     C29727   3.215   3.251   3.595  0.5014 -0.6640  0.5360
  216MOL0     C29728   3.271   3.299   3.713 -0.0250 -0.3285  0.1842
  216MOL0     O29729   3.406   3.257   3.744  0.4323 -0.3359 -0.1242
  216MOL0     C29730   3.415   3.209   3.882  0.8520  0.2175 -0.1804
  216MOL0     C29731   3.564   3.163   3.922 -0.0272 -0.4087  0.0219
  216MOL0     C29732   3.653   3.283   3.946 -0.5034  0.1671  0.8883
  216MOL0     C29733   3.715   3.317   3.810 -0.2454  0.0929 -0.3289
  216MOL0     C29734   3.797   3.431   3.831  0.7827 -0.4682  0.1208
  216MOL0     C29735   3.881   3.515   3.822 -0.2158  0.5637  0.8827
  216MOL0     C29736   3.202   3.402   3.781 -0.2533  1.0388 -0.0927
  216MOL0     C29737   3.082   3.452   3.735 -0.3807  0.3840  0.5184
  216MOL0     C29738   3.031   3.564   3.816  0.5872 -0.2750  0.0810
  216MOL0     H29739   2.606   3.493   3.569 -1.1204  1.9104 -0.3619
  216MOL0     H29740   2.438   3.600   3.432  0.9878  1.9455 -1.2257
  216MOL0     H29741   2.276   3.553   3.275 -0.8318 -3.4721 -2.5454
  216MOL0     H29742   2.237   3.598   3.111 -0.0273  0.4224  0.6511
  216MOL0     H29743   2.278   3.751   3.357 -1.6943 -2.5794  0.9867
  216MOL0     H29744   2.323   3.833   3.199  0.4551 -1.6107 -0.9653
  216MOL0     H29745   2.083   3.778   3.118 -1.8364 -1.0096  0.8410
  216MOL0     H29746   2.047   3.706   3.265 -1.9467 -0.1682 -1.1280
  216MOL0     H29747   2.066   3.914   3.384 -0.9320 -1.9354  0.3146
  216MOL0     H29748   2.121   4.005   3.251 -2.7737  2.9874  1.3401
  216MOL0     H29749   1.868   3.837   3.234  0.5831  0.8268  1.6306
  216MOL0     H29750   1.911   3.950   3.113  2.2427 -1.0519 -0.0244
  216MOL0     H29751   1.846   3.993   3.414  1.8424 -2.5931 -0.8864
  216MOL0     H29752   1.909   4.125   3.305  1.4076 -1.0956 -4.5226
  216MOL0     H29753   1.625   4.048   3.339 -1.2308 -1.4997 -0.9339
  216MOL0     H29754   1.687   3.969   3.196  2.1773  0.0921 -0.5854
  216MOL0     H29755   1.786   4.190   3.130  0.3109 -0.8837  0.0195
  216MOL0     H29756   1.610   4.173   3.118  1.4559 -0.5237 -1.2451
  216MOL0     H29757   1.810   4.324   3.402 -0.1218  1.3135  1.9174
  216MOL0     H29758   1.724   4.657   3.435  1.9426 -1.7782 -1.0923
  216MOL0     H29759   1.754   4.539   3.564  0.3941 -0.2180 -0.5693
  216MOL0     H29760   1.580   4.699   3.650  1.4517  0.3419  0.1857
  216MOL0     H29761   1.484   4.652   3.507 -0.1342 -0.8275 -0.9283
  216MOL0     H29762   1.469   4.425   3.590 -0.8684  2.2052 -2.4896
  216MOL0     H29763   1.568   4.470   3.734 -0.7507  0.0724  1.1742
  216MOL0     H29764   1.316   4.598   3.651  0.7083  0.4296  0.8974
  216MOL0     H29765   1.313   4.482   3.769  1.6883 -2.6866 -0.2515
  216MOL0     H29766   1.122   4.616   3.800  0.1911  0.4496  1.0288
  216MOL0     H29767   0.887   4.617   4.003 -5.8475  1.1665 -0.1622
  216MOL0     H29768   0.891   4.675   3.838 -0.3814 -0.9335  0.6377
  216MOL0     H29769   0.840   4.781   3.957 -0.4913 -1.3056  1.3357
  216MOL0     H29770   1.015   4.832   4.465  0.4157  1.6164  0.3355
  216MOL0     H29771   0.910   4.949   4.662  1.0130  0.9129 -0.1574
  216MOL0     H29772   0.586   5.238   4.594 -0.6426  0.6044  0.3924
  216MOL0     H29773   0.499   5.106   4.656 -0.2689  1.3080 -0.4867
  216MOL0     H29774   0.550   5.130   4.881  0.4484 -0.0965  0.2241
  216MOL0     H29775   0.654   5.264   4.858  0.1448 -1.4805  0.9243
  216MOL0     H29776   0.394   5.336   4.736  0.4556 -0.1946 -0.6752
  216MOL0     H29777   0.497   5.420   4.856  0.1342 -0.7446  2.4238
  216MOL0     H29778   0.417   5.270   5.042  1.7415  1.4798 -1.0505
  216MOL0     H29779   0.322   5.186   4.919 -1.8317 -0.2595  4.3707
  216MOL0     H29780   0.264   5.468   5.002  0.1624  1.1235  0.3294
  216MOL0     H29781   0.195   5.388   4.863  0.0342 -0.9627 -0.0481
  216MOL0     H29782   0.191   5.299   5.157 -0.9790 -5.4834  1.3779
  216MOL0     H29783   0.133   5.198   5.027  4.7055 -0.6069 -0.5423
  216MOL0     H29784   0.069   5.480   5.107 -0.5274  0.5386  1.0918
  216MOL0     H29785  -0.032   5.340   5.167 -0.8500 -1.6327 -1.7055
  216MOL0     H29786  -0.110   5.270   4.957  0.0048  0.0421 -0.4901
  216MOL0     H29787  -0.044   5.402   4.862 -0.1295  2.3126  0.3197
  216MOL0     H29788   0.593   5.095   4.417 -0.1646  0.7636 -0.7118
  216MOL0     H29789   0.679   4.936   4.232 -0.2724  0.5666  0.3729
  216MOL0     H29790   1.266   4.972   4.120  0.3717 -1.5098  2.2350
  216MOL0     H29791   1.415   4.872   3.969 -0.8384  0.0195  1.2890
  216MOL0     H29792   2.660   3.498   3.078  1.8440 -2.4362  0.5760
  216MOL0     H29793   2.840   3.410   3.233  1.1350  2.6225 -0.6832
  216MOL0     H29794   3.059   3.275   3.444  1.7965 -3.9714 -0.1705
  216MOL0     H29795   3.278   3.187   3.534  4.7774  1.5607  2.1544
  216MOL0     H29796   3.363   3.266   3.960  3.3574 -2.2167  3.6096
  216MOL0     H29797   3.359   3.116   3.878  0.1266  0.6348  0.0717
  216MOL0     H29798   3.607   3.096   3.847  0.0063 -0.6086  0.2186
  216MOL0     H29799   3.557   3.103   4.013  0.0759 -2.3230 -1.1787
  216MOL0     H29800   3.579   3.354   3.984 -1.3884  0.9605 -2.0147
  216MOL0     H29801   3.724   3.263   4.027  0.8328  2.3524  0.3447
  216MOL0     H29802   3.653   3.344   3.724 -0.7205 -3.1009 -1.1160
  216MOL0     H29803   3.772   3.231   3.774 -0.6519  0.8575 -3.0570
  216MOL0     H29804   3.945   3.598   3.803 -1.8711  1.2252 -2.4197
  216MOL0     H29805   3.247   3.450   3.868 -1.5192 -1.9699  2.4354
  216MOL0     H29806   3.034   3.652   3.752  1.0175  0.7415  1.4535
  216MOL0     H29807   2.929   3.546   3.853  0.5231  2.2657  1.3702
  216MOL0     H29808   3.092   3.583   3.905  1.1735 -1.1643 -0.1181
  217MOL0     O29809   7.699  11.258   0.350  0.6673  0.6237 -0.1884
  217MOL0     C29810   7.599  11.189   0.375  0.8073  0.3406  0.2959
  217MOL0     O29811   7.490  11.236   0.441  0.1803 -0.3138 -0.1346
  217MOL0     C29812   7.467  11.371   0.431 -0.9230  0.4592 -0.0148
  217MOL0     C29813   7.532  11.476   0.505 -0.3445  0.3158  0.3982
  217MOL0     C29814   7.505  11.609   0.473  0.1522  0.6693 -1.0857
  217MOL0     C29815   7.413  11.655   0.383 -0.4496 -0.4289  0.3803
  217MOL0     O29816   7.389  11.785   0.355 -0.4424 -0.2204  0.0356
  217MOL0     C29817   7.483  11.888   0.386 -0.3128  0.0369  0.1215
  217MOL0     C29818   7.443  12.032   0.344 -0.3808 -0.1737 -0.0754
  217MOL0     C29819   7.306  12.070   0.398  0.6163  0.1447  0.5975
  217MOL0     C29820   7.274  12.215   0.356  0.2327 -1.0630 -0.3516
  217MOL0     C29821   7.342  12.317   0.447 -0.7630 -0.4742  0.0190
  217MOL0     C29822   7.470  12.376   0.376 -0.1233  0.2385  0.3644
  217MOL0     C29823   7.531  12.473   0.469  0.5035 -0.0031 -0.2886
  217MOL0     C29824   7.462  12.613   0.438 -0.0995 -0.1491 -0.0245
  217MOL0     N29825   7.508  12.716   0.537 -0.7856 -0.4577  0.4002
  217MOL0     C29826   7.584  12.833   0.525  0.4409  0.1277  0.3220
  217MOL0     C29827   7.603  12.886   0.648  0.6680 -0.0724  0.9039
  217MOL0     C29828   7.688  13.010   0.678 -0.4093  0.1334  0.2680
  217MOL0     C29829   7.605  13.131   0.714 -0.3392  0.6490 -0.4886
  217MOL0     C29830   7.687  13.238   0.782  0.7969 -0.3488  0.4455
  217MOL0     C29831   7.607  13.311   0.884 -0.9665 -0.2286  0.1767
  217MOL0     O29832   7.673  13.429   0.917 -0.7413 -0.8326  0.1657
  217MOL0     C29833   7.596  13.542   0.953  0.0603 -1.0888  0.2637
  217MOL0     C29834   7.672  13.661   0.942  0.8597  1.0525  0.4917
  217MOL0     C29835   7.616  13.778   0.977 -0.1643 -0.8383  0.6221
  217MOL0     C29836   7.699  13.904   0.942  0.1763 -0.8397 -0.9421
  217MOL0     C29837   7.485  13.785   1.015  0.9646 -0.1333 -0.3381
  217MOL0     C29838   7.419  13.909   1.055 -0.5076 -0.8364  0.1924
  217MOL0     O29839   7.285  13.929   1.022 -0.3194 -0.0312  0.0463
  217MOL0     C29840   7.209  14.029   1.078  0.6537  0.2617  0.2347
  217MOL0     C29841   7.114  14.002   1.181 -0.5821 -0.7903 -0.5583
  217MOL0     C29842   7.039  14.106   1.231 -0.0262  0.0798 -0.2167
  217MOL0     C29843   7.036  14.231   1.165  0.9148  0.1969  0.1400
  217MOL0     O29844   6.936  14.311   1.212  0.1983 -0.0888 -0.0185
  217MOL0     C29845   6.914  14.439   1.150 -0.3491 -0.3102 -0.0499
  217MOL0     C29846   6.786  14.495   1.223  0.0723 -0.2690 -0.6790
  217MOL0     C29847   6.661  14.410   1.221  0.3797  0.6057 -0.0680
  217MOL0     C29848   6.634  14.337   1.091  0.4851 -0.3527  0.0596
  217MOL0     C29849   6.485  14.305   1.069  0.1050 -1.0048  0.0990
  217MOL0     C29850   6.454  14.257   0.929 -0.6885 -0.0250  0.1720
  217MOL0     C29851   6.311  14.200   0.910  0.1816 -0.5195  0.5104
  217MOL0     C29852   6.308  14.094   0.795 -0.0968 -0.2384  0.0518
  217MOL0    Cl29853   6.130  14.053   0.765 -0.0080 -0.0692 -0.0800
  217MOL0     C29854   7.123  14.257   1.061 -0.0549  0.1703 -0.8067
  217MOL0     C29855   7.204  14.155   1.016  0.1965 -0.0349  0.8837
  217MOL0     O29856   7.486  13.986   1.122 -0.2944 -0.1934 -0.5074
  217MOL0     C29857   7.404  13.665   1.024 -0.5542 -0.4163 -0.5687
  217MOL0     C29858   7.461  13.544   1.000  0.7630  0.1429  1.1888
  217MOL0     N29859   7.547  12.798   0.739  0.4228  0.1429 -0.1867
  217MOL0     N29860   7.483  12.710   0.673  0.1971 -0.2880  0.3789
  217MOL0     C29861   7.352  11.552   0.314  0.8812  0.6597  0.7202
  217MOL0     C29862   7.375  11.410   0.331 -0.0671  0.5610 -0.3885
  217MOL0     C29863   7.600  11.045   0.343  0.3114  0.4322 -1.0117
  217MOL0     C29864   7.483  10.976   0.366  0.2914  0.5222  0.0084
  217MOL0     C29865   7.475  10.841   0.361  0.5898 -0.0421 -0.9213
  217MOL0     C29866   7.593  10.762   0.343 -0.5243  0.1319  0.1879
  217MOL0     O29867   7.604  10.631   0.344  0.4416  0.2984  0.4565
  217MOL0     C29868   7.484  10.552   0.367  0.3068 -0.0164  0.0351
  217MOL0     C29869   7.391  10.539   0.241 -0.2942 -0.1790 -0.3252
  217MOL0     C29870   7.454  10.484   0.108 -0.0783 -0.0281 -0.4751
  217MOL0     C29871   7.482  10.332   0.134 -0.3926 -0.3733  0.9123
  217MOL0     C29872   7.351  10.260   0.120 -1.1208 -0.9012  0.2088
  217MOL0     C29873   7.255  10.193   0.089  0.2556 -0.4180  0.3470
  217MOL0     C29874   7.714  10.822   0.313  0.4236 -0.8002  0.8010
  217MOL0     C29875   7.719  10.964   0.315 -0.1090  0.2143  0.6628
  217MOL0     C29876   7.848  11.030   0.288 -0.5776  0.3769  0.1639
  217MOL0     H29877   7.599  11.462   0.589 -1.2244 -2.2036  0.7714
  217MOL0     H29878   7.560  11.683   0.530 -0.7428 -0.8664  2.0139
  217MOL0     H29879   7.583  11.855   0.356  0.4442  1.2761  1.1767
  217MOL0     H29880   7.497  11.895   0.495  2.0002 -2.0255  0.0450
  217MOL0     H29881   7.529  12.097   0.360  2.3729 -3.1911 -1.4383
  217MOL0     H29882   7.438  12.027   0.235  2.0506  0.3617 -0.2703
  217MOL0     H29883   7.241  11.998   0.349  1.1764 -0.3413  0.5518
  217MOL0     H29884   7.292  12.044   0.504 -1.3982 -0.5262  0.2046
  217MOL0     H29885   7.304  12.237   0.253  0.0296 -0.6337 -0.3194
  217MOL0     H29886   7.166  12.218   0.365 -0.0684 -1.6812 -2.9939
  217MOL0     H29887   7.371  12.264   0.538  1.5269  1.9155  0.8316
  217MOL0     H29888   7.277  12.396   0.487 -0.4100 -0.1611 -0.0152
  217MOL0     H29889   7.539  12.295   0.353  0.1489  0.7186 -0.5655
  217MOL0     H29890   7.434  12.413   0.279 -0.4208 -0.0210  0.3731
  217MOL0     H29891   7.640  12.478   0.456  1.0880  1.7432  3.6196
  217MOL0     H29892   7.508  12.450   0.574 -1.9256  0.1466 -0.7520
  217MOL0     H29893   7.503  12.643   0.341  3.0864  1.6370  1.7577
  217MOL0     H29894   7.353  12.602   0.433 -0.1114  0.2326 -0.8882
  217MOL0     H29895   7.615  12.868   0.427  2.0655  1.8807  1.3979
  217MOL0     H29896   7.752  13.029   0.592 -0.2996 -0.5512  0.1932
  217MOL0     H29897   7.747  12.984   0.766 -0.3841 -3.0629 -0.5633
  217MOL0     H29898   7.557  13.170   0.624  0.3996 -1.2180 -1.7541
  217MOL0     H29899   7.536  13.098   0.792  3.1049 -0.0046  2.5698
  217MOL0     H29900   7.771  13.203   0.842 -0.0818 -0.6308  1.5439
  217MOL0     H29901   7.738  13.310   0.717 -0.5927  1.6781  1.5059
  217MOL0     H29902   7.509  13.330   0.841 -2.1201 -3.2636  1.1993
  217MOL0     H29903   7.586  13.252   0.974 -1.7823 -1.5093 -0.8222
  217MOL0     H29904   7.764  13.640   0.888  1.1931 -1.0125  1.7736
  217MOL0     H29905   7.630  13.986   0.920 -1.7716 -2.4844 -1.2621
  217MOL0     H29906   7.771  13.881   0.862 -1.7514  0.9641 -3.3732
  217MOL0     H29907   7.755  13.938   1.029  0.1723 -0.6836 -1.0000
  217MOL0     H29908   7.105  13.904   1.226  0.7211 -1.4748 -1.7347
  217MOL0     H29909   6.977  14.100   1.320 -1.3127  2.2211 -0.8782
  217MOL0     H29910   6.998  14.507   1.168 -0.0321 -1.3148  2.9321
  217MOL0     H29911   6.904  14.439   1.041  3.4342  2.4969 -0.5882
  217MOL0     H29912   6.815  14.510   1.327  1.1293 -3.6977 -0.3415
  217MOL0     H29913   6.766  14.596   1.185 -0.5924  0.1338  0.6941
  217MOL0     H29914   6.586  14.486   1.244 -1.4217 -1.6388  1.9260
  217MOL0     H29915   6.660  14.339   1.304 -0.7362  0.8024  0.0999
  217MOL0     H29916   6.690  14.243   1.087 -3.2317 -2.8193  1.4263
  217MOL0     H29917   6.658  14.405   1.008 -2.6093 -1.6346 -2.0860
  217MOL0     H29918   6.456  14.236   1.149  0.1251 -1.5603 -0.3663
  217MOL0     H29919   6.439  14.405   1.073  1.6215 -0.3080  0.8049
  217MOL0     H29920   6.521  14.173   0.908 -1.0310 -0.3275  0.2828
  217MOL0     H29921   6.479  14.331   0.852 -0.4276  1.1353  1.3474
  217MOL0     H29922   6.234  14.277   0.896  0.1092 -0.2312  2.2951
  217MOL0     H29923   6.290  14.149   1.004  2.5452 -0.4998  1.1238
  217MOL0     H29924   6.368  14.005   0.815  1.6184  1.2450  1.9208
  217MOL0     H29925   6.336  14.129   0.695 -0.8159 -2.4492 -0.9729
  217MOL0     H29926   7.107  14.356   1.020 -0.3000  0.9174  0.9789
  217MOL0     H29927   7.270  14.169   0.931 -0.6998 -0.5257  0.0830
  217MOL0     H29928   7.299  13.661   1.050 -1.0202  2.0136 -1.8370
  217MOL0     H29929   7.406  13.450   1.003  1.2910 -0.2723 -0.7917
  217MOL0     H29930   7.280  11.578   0.237  0.3495  0.4478  1.1429
  217MOL0     H29931   7.328  11.330   0.276  0.8131  1.5727 -2.7375
  217MOL0     H29932   7.395  11.026   0.405  0.8972  0.8419  1.0034
  217MOL0     H29933   7.377  10.798   0.380  0.2288  0.4074 -1.7080
  217MOL0     H29934   7.520  10.455   0.401 -1.7301 -0.1524  2.1359
  217MOL0     H29935   7.413  10.581   0.446  1.1299  0.4508  0.6187
  217MOL0     H29936   7.352  10.639   0.220 -0.0672  0.7881  3.1788
  217MOL0     H29937   7.310  10.469   0.266 -0.9872  0.4553 -0.7451
  217MOL0     H29938   7.392  10.512   0.023 -0.7877  0.7125  0.2655
  217MOL0     H29939   7.552  10.525   0.082 -0.7559  0.9542 -1.5858
  217MOL0     H29940   7.518  10.312   0.235 -0.0802 -0.6174  0.7506
  217MOL0     H29941   7.558  10.303   0.062  0.7271 -0.1821  1.9868
  217MOL0     H29942   7.163  10.140   0.075  0.8420 -1.2624 -0.4444
  217MOL0     H29943   7.806  10.769   0.292  0.9276  1.0250 -2.3240
  217MOL0     H29944   7.880  11.093   0.372 -0.8765 -4.0935  4.0502
  217MOL0     H29945   7.925  10.961   0.254 -3.0320 -1.1894 -2.6535
  217MOL0     H29946   7.828  11.087   0.197 -4.5027 -0.7539  0.1226
  218MOL0     O29947   5.699   2.141   8.843  0.0321  0.7967 -0.3271
  218MOL0     C29948   5.682   2.039   8.786  0.1873  0.5190  0.8519
  218MOL0     O29949   5.775   1.947   8.771 -0.5423 -0.1431  0.0363
  218MOL0     C29950   5.894   1.952   8.832  1.2413  0.4239  0.3077
  218MOL0     C29951   5.896   1.934   8.974 -0.0642 -0.5639  0.5009
  218MOL0     C29952   6.019   1.957   9.041  0.2452 -0.3206  0.4416
  218MOL0     C29953   6.138   2.002   8.976  0.0195 -0.2349  0.7132
  218MOL0     O29954   6.261   2.034   9.032  0.3809 -0.7754 -0.5008
  218MOL0     C29955   6.282   2.029   9.175 -0.1883  0.5225  0.3232
  218MOL0     C29956   6.342   1.898   9.228  0.1784 -0.7981  0.6324
  218MOL0     C29957   6.471   1.851   9.159 -0.1915  0.1512 -0.8097
  218MOL0     C29958   6.593   1.927   9.216  0.4243 -0.1532 -0.8891
  218MOL0     C29959   6.730   1.871   9.172  0.5477  0.0478 -0.4581
  218MOL0     C29960   6.835   1.915   9.270  0.1654 -0.4464 -0.0110
  218MOL0     C29961   6.860   2.060   9.258 -0.3091 -0.7180  0.4476
  218MOL0     C29962   6.867   2.131   9.390  0.2007 -0.2264  0.5673
  218MOL0     N29963   6.752   2.188   9.455  0.3801 -0.1316 -0.5219
  218MOL0     C29964   6.667   2.287   9.398 -0.0567 -0.4470 -0.6900
  218MOL0     C29965   6.562   2.302   9.482 -1.1365  0.3800  0.6737
  218MOL0     C29966   6.457   2.397   9.463 -0.3484 -0.6610 -0.4073
  218MOL0     C29967   6.452   2.521   9.553  0.2048  0.1459 -0.2802
  218MOL0     C29968   6.420   2.496   9.700  0.1309  0.3633 -0.4762
  218MOL0     C29969   6.451   2.625   9.774 -0.4903 -0.3673 -0.7679
  218MOL0     O29970   6.399   2.593   9.905  1.1530  0.6936  0.4560
  218MOL0     C29971   6.407   2.689   9.999 -0.2273  0.6000 -0.2063
  218MOL0     C29972   6.385   2.650  10.134  0.3998 -0.1234 -0.3947
  218MOL0     C29973   6.399   2.739  10.236 -0.7808 -0.0643  0.4508
  218MOL0     C29974   6.358   2.688  10.368  0.5185  1.1424  0.7754
  218MOL0     C29975   6.443   2.868  10.219 -0.5868  0.1970 -0.3897
  218MOL0     C29976   6.465   2.968  10.325  0.3574  0.3711  0.7270
  218MOL0     O29977   6.438   3.100  10.285  0.3739  1.3710 -0.7413
  218MOL0     C29978   6.471   3.203  10.379  0.3991 -0.1693  0.2640
  218MOL0     C29979   6.365   3.234  10.469 -0.9345 -0.1102 -0.8265
  218MOL0     C29980   6.376   3.339  10.558 -0.4886  0.4990 -0.3005
  218MOL0     C29981   6.500   3.413  10.573  0.9842 -0.2088 -0.2203
  218MOL0     O29982   6.521   3.510  10.668  0.6703 -0.0362  0.6035
  218MOL0     C29983   6.403   3.581  10.704 -0.7650 -0.2943 -0.5015
  218MOL0     C29984   6.446   3.674  10.820 -0.6629  0.4308 -0.7469
  218MOL0     C29985   6.324   3.746  10.892  0.0120  0.1019  1.0048
  218MOL0     C29986   6.348   3.896  10.912 -0.3812  1.1950  0.5309
  218MOL0     C29987   6.219   3.951  10.977 -1.1000 -0.1691  0.4906
  218MOL0     C29988   6.195   4.098  10.939  0.0190 -0.0152  0.3731
  218MOL0     C29989   6.139   4.125  10.799  0.5762 -0.6059 -0.1647
  218MOL0     C29990   5.997   4.079  10.775 -0.1130  0.3413  0.6755
  218MOL0    Cl29991   5.893   4.147  10.909 -0.2908 -0.1405 -0.2530
  218MOL0     C29992   6.603   3.375  10.483 -0.4233 -0.1781 -0.8912
  218MOL0     C29993   6.586   3.273  10.380 -0.7178 -1.5544 -0.2413
  218MOL0     O29994   6.526   2.930  10.421  0.4191 -0.0772 -0.2003
  218MOL0     C29995   6.471   2.909  10.089  0.8839 -0.0995  0.2678
  218MOL0     C29996   6.453   2.823   9.976 -0.5408  0.2488 -0.7876
  218MOL0     N29997   6.582   2.199   9.578  1.1392 -0.8091  0.4978
  218MOL0     N29998   6.695   2.144   9.567  0.2287 -0.1654  0.3093
  218MOL0     C29999   6.126   2.022   8.833  0.2297 -0.8791 -0.2965
  218MOL0     C30000   6.001   2.005   8.766  0.5979  1.0850  0.3728
  218MOL0     C30001   5.551   2.003   8.725  0.1724 -0.1403 -0.5194
  218MOL0     C30002   5.441   2.086   8.773 -0.5063 -0.0935 -0.3519
  218MOL0     C30003   5.310   2.066   8.724 -0.3131 -0.1773  0.6319
  218MOL0     C30004   5.288   1.975   8.620  0.1180 -0.9944 -1.4299
  218MOL0     O30005   5.159   1.970   8.578  0.0201 -0.1788  0.5992
  218MOL0     C30006   5.066   1.921   8.670  0.1692  0.1899 -0.8384
  218MOL0     C30007   5.027   1.777   8.623  0.2788 -0.2334 -0.7243
  218MOL0     C30008   4.902   1.738   8.684  0.4303  0.6340 -0.4467
  218MOL0     C30009   4.849   1.608   8.613  0.2393 -0.5744  0.4761
  218MOL0     C30010   4.699   1.585   8.619 -0.3214  0.0256  0.7448
  218MOL0     C30011   4.578   1.564   8.615  0.3779 -0.7818  0.3067
  218MOL0     C30012   5.388   1.895   8.581 -0.2629  0.0522 -0.7085
  218MOL0     C30013   5.521   1.903   8.623  0.0992 -0.2566 -0.3046
  218MOL0     C30014   5.623   1.795   8.567  1.0654 -0.3429  0.5921
  218MOL0     H30015   5.803   1.917   9.027 -0.3330  2.4171  1.1983
  218MOL0     H30016   6.024   1.935   9.148  0.3280  3.8392  1.4448
  218MOL0     H30017   6.196   2.061   9.234 -2.9273 -1.3531 -2.3450
  218MOL0     H30018   6.361   2.101   9.199  0.0890 -0.3357  2.1931
  218MOL0     H30019   6.356   1.906   9.336 -1.2377  0.2013  0.7646
  218MOL0     H30020   6.266   1.820   9.211 -0.2938 -0.4069  0.9191
  218MOL0     H30021   6.487   1.744   9.172  0.2949  0.2278 -0.7688
  218MOL0     H30022   6.478   1.860   9.050  1.2716 -0.1392 -0.7537
  218MOL0     H30023   6.562   2.031   9.205 -5.0266 -1.6400 -2.7541
  218MOL0     H30024   6.598   1.902   9.323 -0.5568  0.3327 -0.7229
  218MOL0     H30025   6.763   1.906   9.073 -0.4004 -0.9385 -1.1527
  218MOL0     H30026   6.732   1.761   9.167 -1.5227 -0.3316  3.5527
  218MOL0     H30027   6.805   1.887   9.372 -0.5290  1.5476  0.3714
  218MOL0     H30028   6.927   1.857   9.256 -0.3864 -1.1171 -0.9760
  218MOL0     H30029   6.790   2.115   9.193  2.0267 -0.5728 -2.1151
  218MOL0     H30030   6.959   2.067   9.211 -0.4092  1.0637  0.4161
  218MOL0     H30031   6.916   2.064   9.462  2.2168 -0.2873 -0.7797
  218MOL0     H30032   6.943   2.205   9.367  0.9793 -0.9684  0.6863
  218MOL0     H30033   6.702   2.338   9.309  1.6548 -1.1096 -0.4258
  218MOL0     H30034   6.364   2.340   9.473 -0.6489 -0.3586 -1.3704
  218MOL0     H30035   6.464   2.442   9.364 -2.3689  2.0756  0.5760
  218MOL0     H30036   6.556   2.553   9.562  0.1467 -0.1373  2.7490
  218MOL0     H30037   6.384   2.597   9.513  0.6794  0.4067 -0.6052
  218MOL0     H30038   6.316   2.461   9.702  0.1260 -0.2079 -3.8811
  218MOL0     H30039   6.472   2.409   9.741  0.4227 -0.5789 -2.6833
  218MOL0     H30040   6.558   2.647   9.783 -0.9097  1.1294  1.3053
  218MOL0     H30041   6.390   2.706   9.735  0.6992  0.3289 -1.2378
  218MOL0     H30042   6.351   2.547  10.143  2.3518 -0.9708 -2.0071
  218MOL0     H30043   6.446   2.648  10.419 -0.0825 -0.0230  0.9396
  218MOL0     H30044   6.281   2.612  10.356  3.8402 -2.6392  1.2697
  218MOL0     H30045   6.325   2.768  10.435 -2.8305 -0.0418  0.7421
  218MOL0     H30046   6.277   3.170  10.470  0.1728 -1.7370  1.5570
  218MOL0     H30047   6.297   3.348  10.632 -1.4020  0.1840 -1.2106
  218MOL0     H30048   6.374   3.652  10.626  1.3409  2.6335  1.1504
  218MOL0     H30049   6.321   3.516  10.735 -2.0344  0.7511 -1.5122
  218MOL0     H30050   6.483   3.617  10.905  1.9034 -1.1405 -2.7827
  218MOL0     H30051   6.519   3.745  10.780  0.1803 -1.3105 -2.4397
  218MOL0     H30052   6.312   3.701  10.991  0.3102 -0.2904  0.8644
  218MOL0     H30053   6.227   3.734  10.843 -1.4514 -0.3080  3.8100
  218MOL0     H30054   6.355   3.939  10.812 -4.4749 -1.4079 -1.1568
  218MOL0     H30055   6.435   3.912  10.976  1.5304 -4.1483 -0.1962
  218MOL0     H30056   6.126   3.904  10.944 -1.7657  1.2695  0.2091
  218MOL0     H30057   6.229   3.946  11.086  0.7814  0.6305  0.3967
  218MOL0     H30058   6.288   4.156  10.948 -2.0062  3.6496 -0.3056
  218MOL0     H30059   6.119   4.130  11.011  0.0372  0.2238  0.2871
  218MOL0     H30060   6.198   4.063  10.730  0.1545  0.1054 -1.1814
  218MOL0     H30061   6.152   4.233  10.787  4.4553 -1.1280 -2.6595
  218MOL0     H30062   5.993   3.970  10.781  1.2948  0.2616  0.5690
  218MOL0     H30063   5.964   4.119  10.679  0.2760  0.2213  0.4901
  218MOL0     H30064   6.692   3.438  10.485  0.0762 -0.8116  2.3606
  218MOL0     H30065   6.655   3.263  10.297 -3.0501 -3.7264 -2.0503
  218MOL0     H30066   6.510   3.008  10.068  0.6344 -0.4572 -2.1689
  218MOL0     H30067   6.483   2.864   9.881  0.8650 -0.5816 -0.7362
  218MOL0     H30068   6.209   2.047   8.768 -0.7556 -0.4252 -1.4327
  218MOL0     H30069   5.993   2.011   8.658 -0.9251  1.4349  0.4881
  218MOL0     H30070   5.468   2.165   8.842  3.3256 -1.8354  0.4093
  218MOL0     H30071   5.237   2.140   8.755  0.2850  0.4026  0.6659
  218MOL0     H30072   5.111   1.919   8.770  1.5116  1.9228 -1.3518
  218MOL0     H30073   4.984   1.992   8.669  1.5048  1.7921 -1.1224
  218MOL0     H30074   5.106   1.709   8.660 -0.1254 -0.2060  0.2230
  218MOL0     H30075   5.011   1.790   8.516 -0.3461  0.0381 -0.6008
  218MOL0     H30076   4.920   1.694   8.783  2.5920 -3.0166 -2.2346
  218MOL0     H30077   4.832   1.821   8.678 -0.3822  0.0568  0.5610
  218MOL0     H30078   4.900   1.520   8.654 -1.4168 -1.0917  1.5173
  218MOL0     H30079   4.877   1.604   8.508 -1.4104  1.9160 -0.1472
  218MOL0     H30080   4.472   1.554   8.620  0.1751  1.1034  0.1879
  218MOL0     H30081   5.358   1.826   8.503  0.8584  0.9103 -1.9747
  218MOL0     H30082   5.582   1.763   8.472  4.2954  0.3900 -1.2184
  218MOL0     H30083   5.715   1.853   8.556 -0.7909  2.4330 -1.5244
  218MOL0     H30084   5.623   1.718   8.645 -1.6481  0.1927  1.1998
  219MOL0     O30085   8.085   9.565   1.994 -0.3670  0.8333 -0.0514
  219MOL0     C30086   8.201   9.520   1.977  0.2644  0.5685 -0.1614
  219MOL0     O30087   8.255   9.479   1.862 -0.3975 -0.1653  1.1446
  219MOL0     C30088   8.193   9.495   1.740  0.1063  0.3348 -0.3048
  219MOL0     C30089   8.241   9.411   1.641  0.7082  0.4541  1.4199
  219MOL0     C30090   8.192   9.429   1.509 -0.1259  0.6533  0.5012
  219MOL0     C30091   8.086   9.527   1.486 -0.9791 -0.1287 -0.3331
  219MOL0     O30092   8.012   9.529   1.366  0.6819 -1.2119 -0.2872
  219MOL0     C30093   8.071   9.497   1.233  0.5927 -0.2834 -1.2433
  219MOL0     C30094   7.975   9.570   1.141 -0.0090 -0.8265  0.2627
  219MOL0     C30095   8.013   9.538   0.991 -0.5177  0.2072  0.5508
  219MOL0     C30096   7.885   9.546   0.904  1.2248 -0.2996  0.2628
  219MOL0     C30097   7.900   9.469   0.768  0.4097  1.1004  0.4559
  219MOL0     C30098   8.007   9.519   0.675  0.4584 -0.4937 -0.2398
  219MOL0     C30099   8.043   9.408   0.578 -0.3323  0.7244  0.8730
  219MOL0     C30100   8.174   9.424   0.496 -0.2647 -0.1831 -0.4471
  219MOL0     N30101   8.295   9.418   0.587  0.0840 -0.5981  0.1366
  219MOL0     C30102   8.343   9.531   0.655 -0.0476 -0.3955 -0.4847
  219MOL0     C30103   8.449   9.484   0.729  0.2085 -1.0163 -0.9969
  219MOL0     C30104   8.518   9.564   0.839 -0.2199  0.0302 -1.4065
  219MOL0     C30105   8.456   9.533   0.971  0.2823 -0.6510  0.0306
  219MOL0     C30106   8.521   9.607   1.092  0.1151  0.4799  0.6417
  219MOL0     C30107   8.663   9.551   1.123 -0.1235 -1.0633  0.3875
  219MOL0     O30108   8.741   9.651   1.195 -0.1942  0.0004  0.1131
  219MOL0     C30109   8.755   9.630   1.331 -0.7815  0.0580  0.5620
  219MOL0     C30110   8.705   9.541   1.419  0.5415  0.3530  0.0558
  219MOL0     C30111   8.739   9.532   1.554 -0.7612  0.3637 -0.1800
  219MOL0     C30112   8.694   9.409   1.630  0.4369  0.0598 -0.1528
  219MOL0     C30113   8.809   9.639   1.615  0.3475  0.5414  1.3444
  219MOL0     C30114   8.832   9.664   1.759  0.6037 -0.0479 -0.0663
  219MOL0     O30115   8.930   9.758   1.793  0.1139 -0.7628  0.3605
  219MOL0     C30116   8.951   9.787   1.926  0.5581 -0.3016  0.3280
  219MOL0     C30117   8.850   9.793   2.022 -0.3706 -0.0356 -0.3992
  219MOL0     C30118   8.874   9.848   2.150 -0.4364  0.6700  0.1111
  219MOL0     C30119   9.007   9.877   2.192  0.3403 -0.4728 -0.6100
  219MOL0     O30120   9.032   9.927   2.322  0.0160  0.0278 -0.3177
  219MOL0     C30121   9.070   9.829   2.425 -0.6408 -0.6270 -1.3315
  219MOL0     C30122   9.066   9.885   2.568  0.0738  0.3677 -0.1248
  219MOL0     C30123   9.189   9.980   2.598 -0.1091  0.1843 -0.6082
  219MOL0     C30124   9.179  10.014   2.747  0.0482  0.4846  0.1778
  219MOL0     C30125   9.208   9.891   2.836 -0.5973 -0.8416 -0.4339
  219MOL0     C30126   9.337   9.815   2.813 -0.5914 -0.0518 -0.5361
  219MOL0     C30127   9.366   9.723   2.924  0.3180  0.3900  0.6514
  219MOL0     C30128   9.513   9.666   2.914  0.6606  0.0980 -0.3893
  219MOL0    Cl30129   9.622   9.797   2.968 -0.2345 -0.2438  0.1247
  219MOL0     C30130   9.109   9.869   2.093 -0.0057 -0.5999 -0.3579
  219MOL0     C30131   9.079   9.825   1.965  0.0280  0.2983 -0.0366
  219MOL0     O30132   8.769   9.594   1.844  0.5564  0.0596  0.4254
  219MOL0     C30133   8.864   9.736   1.524 -0.0185 -0.9240  0.2968
  219MOL0     C30134   8.838   9.723   1.387  0.8334 -0.7115 -0.4356
  219MOL0     N30135   8.461   9.351   0.703  0.7221  0.4861 -0.0423
  219MOL0     N30136   8.372   9.317   0.616  0.3624  0.0321  0.4779
  219MOL0     C30137   8.055   9.613   1.591  0.0233 -0.1852 -0.0271
  219MOL0     C30138   8.101   9.593   1.716 -0.7596  0.0096  0.3505
  219MOL0     C30139   8.291   9.523   2.090 -0.5497  0.8370 -0.0456
  219MOL0     C30140   8.252   9.464   2.212  0.4603  0.1218  0.7063
  219MOL0     C30141   8.337   9.469   2.322  0.1953  0.6483  1.0528
  219MOL0     C30142   8.463   9.529   2.316  0.6730  0.4543  0.2497
  219MOL0     O30143   8.530   9.533   2.426 -1.3500 -0.0007  0.2713
  219MOL0     C30144   8.666   9.592   2.429  1.0958  0.9998  0.2111
  219MOL0     C30145   8.737   9.560   2.564  0.5964 -0.1855 -0.1455
  219MOL0     C30146   8.659   9.639   2.670 -0.4497  0.9985  0.4948
  219MOL0     C30147   8.745   9.690   2.782  0.5548  0.1449  0.8983
  219MOL0     C30148   8.662   9.743   2.881 -0.5546  0.0882 -0.8669
  219MOL0     C30149   8.586   9.810   2.947 -0.1937  0.9722 -0.6364
  219MOL0     C30150   8.495   9.579   2.194 -0.4511 -0.8142 -0.4283
  219MOL0     C30151   8.410   9.587   2.084 -0.5625  0.3259  0.1357
  219MOL0     C30152   8.455   9.673   1.966  0.2476 -0.0790  1.2833
  219MOL0     H30153   8.313   9.336   1.672  1.1804 -0.0391 -0.6944
  219MOL0     H30154   8.228   9.371   1.424  2.6891  3.8529 -0.6824
  219MOL0     H30155   8.085   9.389   1.220 -2.7554 -1.0461  0.2157
  219MOL0     H30156   8.171   9.541   1.227  0.7665 -0.5273 -0.3684
  219MOL0     H30157   7.875   9.533   1.165 -0.0850 -1.4128 -0.9017
  219MOL0     H30158   7.964   9.678   1.151  0.6128 -0.4497 -2.2959
  219MOL0     H30159   8.089   9.609   0.955 -0.4053 -0.3326 -0.2918
  219MOL0     H30160   8.067   9.444   0.977 -0.5434  0.6167 -3.5589
  219MOL0     H30161   7.807   9.493   0.958  1.2156 -0.4394  0.1140
  219MOL0     H30162   7.869   9.652   0.879  0.8512 -1.3594 -5.4140
  219MOL0     H30163   7.810   9.480   0.708  0.7203  2.6568  0.2518
  219MOL0     H30164   7.930   9.365   0.790  0.6537  1.2711  0.9590
  219MOL0     H30165   7.973   9.611   0.626  3.1208  3.3117  4.1406
  219MOL0     H30166   8.099   9.546   0.728 -0.5830  4.0968 -0.2683
  219MOL0     H30167   7.956   9.396   0.513  1.4226  0.9037 -1.6491
  219MOL0     H30168   8.059   9.309   0.623  3.0024 -0.0826 -1.6558
  219MOL0     H30169   8.175   9.340   0.427 -2.7177 -0.5857 -0.0618
  219MOL0     H30170   8.176   9.522   0.447  1.6525  1.5247  2.6600
  219MOL0     H30171   8.309   9.634   0.650  2.0580  0.3984  0.4066
  219MOL0     H30172   8.512   9.671   0.815 -1.7531  0.4222  0.4690
  219MOL0     H30173   8.624   9.538   0.833 -0.3191 -1.0539  0.8218
  219MOL0     H30174   8.350   9.562   0.966  0.2502 -0.7950 -0.1187
  219MOL0     H30175   8.460   9.425   0.986 -0.0706 -0.2289  4.6690
  219MOL0     H30176   8.522   9.716   1.090  0.8104  0.4687  0.1878
  219MOL0     H30177   8.452   9.590   1.175  1.0440 -3.5919  0.7857
  219MOL0     H30178   8.645   9.456   1.175  0.4674 -1.9579 -0.9934
  219MOL0     H30179   8.704   9.518   1.027  0.9872  0.3122  0.3701
  219MOL0     H30180   8.638   9.465   1.381  1.1734  0.7735 -2.0191
  219MOL0     H30181   8.747   9.388   1.724 -1.1724 -1.5137  0.4702
  219MOL0     H30182   8.703   9.323   1.564  0.6181  2.4478 -3.4990
  219MOL0     H30183   8.586   9.416   1.646  0.3161 -1.3235 -0.2234
  219MOL0     H30184   8.743   9.781   2.006 -0.8603  1.2043  1.5336
  219MOL0     H30185   8.794   9.867   2.222 -0.9316  1.6056 -0.6720
  219MOL0     H30186   9.011   9.737   2.428 -1.8486  0.1287  2.2921
  219MOL0     H30187   9.174   9.816   2.393  0.8462  0.4718  2.5332
  219MOL0     H30188   8.972   9.940   2.577 -1.0501 -1.6035  0.9183
  219MOL0     H30189   9.063   9.806   2.643 -1.2230  1.8816  1.5093
  219MOL0     H30190   9.188  10.072   2.538 -2.9495  1.1491  0.7379
  219MOL0     H30191   9.285   9.930   2.579 -0.2429 -0.0059 -0.7983
  219MOL0     H30192   9.079  10.052   2.769  0.1116 -0.7178  2.9725
  219MOL0     H30193   9.243  10.096   2.780 -0.6999  0.8933  0.6371
  219MOL0     H30194   9.207   9.928   2.939  0.4788 -1.3117 -0.2434
  219MOL0     H30195   9.120   9.829   2.819 -2.5665  2.0287 -1.5986
  219MOL0     H30196   9.425   9.875   2.788 -1.7772  0.9036 -2.6775
  219MOL0     H30197   9.342   9.753   2.723  0.9038  0.2149 -0.6677
  219MOL0     H30198   9.288   9.647   2.913  0.0709  0.7100  0.1744
  219MOL0     H30199   9.348   9.777   3.018 -2.8599  0.9684 -0.1811
  219MOL0     H30200   9.541   9.635   2.813  0.9610  0.2890 -0.3678
  219MOL0     H30201   9.515   9.582   2.985 -0.3210 -1.5833 -2.2689
  219MOL0     H30202   9.211   9.886   2.125  0.8692 -0.6565 -2.8616
  219MOL0     H30203   9.163   9.809   1.898  1.4826 -2.2338  2.1574
  219MOL0     H30204   8.914   9.822   1.567 -0.1499 -0.0705 -1.2278
  219MOL0     H30205   8.877   9.799   1.320 -2.1836 -0.2474 -1.8347
  219MOL0     H30206   7.978   9.689   1.576 -0.4067 -0.8613 -1.3923
  219MOL0     H30207   8.075   9.668   1.790  0.0275  1.0322 -0.3786
  219MOL0     H30208   8.161   9.404   2.210  1.8709 -2.1246 -0.0167
  219MOL0     H30209   8.308   9.437   2.422  4.2471 -1.4358  1.7431
  219MOL0     H30210   8.720   9.540   2.349 -2.7201  0.8159 -2.5126
  219MOL0     H30211   8.656   9.698   2.402 -3.7338 -0.0188 -3.3882
  219MOL0     H30212   8.840   9.598   2.563  0.2897  0.7365  0.9767
  219MOL0     H30213   8.740   9.454   2.591  0.9608  0.1807  1.3696
  219MOL0     H30214   8.605   9.724   2.629  1.4207  2.0296  0.0428
  219MOL0     H30215   8.586   9.564   2.701  0.6576 -0.8002 -1.0459
  219MOL0     H30216   8.811   9.770   2.749  0.8215  0.6442  2.5586
  219MOL0     H30217   8.791   9.604   2.833 -0.5068 -0.6530  0.5463
  219MOL0     H30218   8.515   9.862   3.009  1.0524 -0.6606  2.3608
  219MOL0     H30219   8.592   9.627   2.183  0.1383 -2.1478 -1.3878
  219MOL0     H30220   8.498   9.615   1.884 -0.1362 -1.8985  2.3147
  219MOL0     H30221   8.370   9.726   1.922 -4.0239 -3.4974  4.5463
  219MOL0     H30222   8.531   9.746   1.997 -0.5008  1.1889  0.2496
  220MOL0     O30223   2.369   7.336   3.849 -0.3472  0.1870 -0.1275
  220MOL0     C30224   2.341   7.335   3.729  0.5825  0.1149  0.0075
  220MOL0     O30225   2.336   7.449   3.643  0.3842  0.9335  0.2562
  220MOL0     C30226   2.325   7.558   3.709  0.4244 -0.0605 -0.4590
  220MOL0     C30227   2.214   7.591   3.779 -0.5288 -0.8553  0.8654
  220MOL0     C30228   2.211   7.712   3.843  0.1913 -0.7274 -0.3006
  220MOL0     C30229   2.314   7.807   3.837 -0.1801  0.0406 -1.1862
  220MOL0     O30230   2.303   7.931   3.909  0.5823 -1.4918 -1.3193
  220MOL0     C30231   2.419   8.010   3.929 -0.6604 -1.1963 -0.1294
  220MOL0     C30232   2.433   8.103   3.802  0.6483 -0.5630 -0.1839
  220MOL0     C30233   2.580   8.146   3.787 -1.3628  0.0724 -0.0232
  220MOL0     C30234   2.610   8.197   3.647  0.2325  0.1206  0.3793
  220MOL0     C30235   2.594   8.091   3.536 -0.7044 -0.7536  0.3380
  220MOL0     C30236   2.677   8.126   3.415 -0.0593 -0.2077 -0.3771
  220MOL0     C30237   2.669   8.013   3.320 -0.8790  0.8367  0.2613
  220MOL0     C30238   2.798   8.000   3.238 -0.1686  0.1697  0.1926
  220MOL0     N30239   2.783   7.907   3.125  0.4015  0.5107 -0.2742
  220MOL0     C30240   2.738   7.934   3.002  0.5275  0.6165 -0.9723
  220MOL0     C30241   2.726   7.822   2.943  0.2116  0.7388  0.3331
  220MOL0     C30242   2.685   7.810   2.796 -0.0566 -0.8900 -0.2508
  220MOL0     C30243   2.800   7.776   2.699  0.0183  0.4784 -0.0675
  220MOL0     C30244   2.741   7.794   2.558 -0.6897  0.2382 -0.2725
  220MOL0     C30245   2.832   7.755   2.442 -0.4587  0.1197  0.2368
  220MOL0     O30246   2.805   7.623   2.403 -0.1780  0.6370  0.3154
  220MOL0     C30247   2.883   7.531   2.461  1.1201 -0.6366 -0.4570
  220MOL0     C30248   2.997   7.549   2.540 -0.6536 -0.1167 -0.0131
  220MOL0     C30249   3.083   7.450   2.592  0.9653 -0.0039 -0.3613
  220MOL0     C30250   3.203   7.502   2.674 -0.3212 -0.4114  0.8297
  220MOL0     C30251   3.045   7.316   2.576  0.1655  0.7692 -1.4595
  220MOL0     C30252   3.119   7.209   2.656 -0.0644 -0.0616  0.0637
  220MOL0     O30253   3.048   7.105   2.699  0.0448 -0.1768 -0.1105
  220MOL0     C30254   3.086   7.032   2.810 -0.7746 -0.2132 -0.6088
  220MOL0     C30255   3.221   6.985   2.820 -0.3739 -0.6248  0.2220
  220MOL0     C30256   3.267   6.911   2.932  0.2398 -0.6154 -0.3287
  220MOL0     C30257   3.176   6.886   3.040 -0.7136 -0.0227 -0.9142
  220MOL0     O30258   3.218   6.829   3.159 -0.3326  0.5306 -0.4845
  220MOL0     C30259   3.237   6.683   3.159 -0.7370  0.0226  0.5972
  220MOL0     C30260   3.352   6.652   3.260  0.3121  0.9484  0.7310
  220MOL0     C30261   3.475   6.746   3.257  0.2770  1.0273 -0.1437
  220MOL0     C30262   3.568   6.700   3.142 -1.1098  0.4871  0.7058
  220MOL0     C30263   3.666   6.810   3.089  0.2077  0.1603 -0.5293
  220MOL0     C30264   3.745   6.749   2.967  1.0223 -0.5460  0.4350
  220MOL0     C30265   3.863   6.840   2.925  0.9008  0.4576  0.1674
  220MOL0     C30266   3.920   6.790   2.794 -0.7467  0.0117  0.4308
  220MOL0    Cl30267   4.059   6.899   2.745 -0.0243  0.1055 -0.0858
  220MOL0     C30268   3.042   6.926   3.029 -0.2488  0.0890 -0.8691
  220MOL0     C30269   3.001   6.998   2.911  0.1458 -0.4070  0.5305
  220MOL0     O30270   3.240   7.212   2.654 -0.0418  0.3511 -0.7138
  220MOL0     C30271   2.928   7.284   2.506  0.7718 -0.0831 -0.1790
  220MOL0     C30272   2.855   7.398   2.446  1.1543 -1.0759 -0.1302
  220MOL0     N30273   2.761   7.722   3.026 -0.2271  0.0804  0.1388
  220MOL0     N30274   2.793   7.770   3.136 -0.3484 -0.7065  0.6263
  220MOL0     C30275   2.425   7.776   3.760 -0.1103 -0.7776 -0.1748
  220MOL0     C30276   2.437   7.647   3.704  0.5510 -0.0954 -0.4582
  220MOL0     C30277   2.293   7.201   3.689 -0.0502  0.8200 -0.8299
  220MOL0     C30278   2.198   7.133   3.772  0.3450  0.4188 -0.3779
  220MOL0     C30279   2.158   7.003   3.748  0.2729 -1.1344  0.1265
  220MOL0     C30280   2.210   6.940   3.631 -0.0122  0.1827  0.1520
  220MOL0     O30281   2.182   6.810   3.601 -0.2635 -0.0069 -0.1820
  220MOL0     C30282   2.212   6.717   3.704  0.0252  0.2978 -0.1305
  220MOL0     C30283   2.363   6.706   3.727 -0.0614  0.2168 -0.0459
  220MOL0     C30284   2.402   6.573   3.802 -0.4150  0.6060 -0.6123
  220MOL0     C30285   2.563   6.564   3.793 -0.1230  0.5298 -0.5199
  220MOL0     C30286   2.601   6.504   3.665 -0.0619  0.3582  0.0035
  220MOL0     C30287   2.647   6.466   3.551  0.4427 -0.0348 -0.3196
  220MOL0     C30288   2.295   7.016   3.543 -0.0509  0.0094  0.2177
  220MOL0     C30289   2.344   7.140   3.574  0.5185  0.9552  0.7040
  220MOL0     C30290   2.432   7.206   3.473  0.3179 -0.6565  0.8639
  220MOL0     H30291   2.131   7.521   3.785 -0.5991 -0.8423  0.1010
  220MOL0     H30292   2.126   7.749   3.899 -1.4968 -2.9356 -1.2438
  220MOL0     H30293   2.508   7.947   3.938 -0.2525 -0.5394  0.5234
  220MOL0     H30294   2.413   8.077   4.015 -0.1000 -0.6397 -0.5092
  220MOL0     H30295   2.380   8.054   3.720 -1.8490  0.7149  0.5693
  220MOL0     H30296   2.370   8.190   3.824  1.1031 -0.6256  1.5703
  220MOL0     H30297   2.604   8.224   3.861 -3.2187 -0.5101  1.2584
  220MOL0     H30298   2.645   8.059   3.801 -0.6314  0.2627 -1.9316
  220MOL0     H30299   2.549   8.285   3.624 -0.1136 -0.4655 -1.0901
  220MOL0     H30300   2.713   8.231   3.652 -0.6244  2.8647  0.8133
  220MOL0     H30301   2.490   8.080   3.501 -0.4698  1.0302 -1.0582
  220MOL0     H30302   2.622   8.001   3.591  1.4750  0.4218  1.2446
  220MOL0     H30303   2.643   8.226   3.388 -1.9961  0.0690  2.6593
  220MOL0     H30304   2.781   8.152   3.435 -1.1033  1.9296  3.1234
  220MOL0     H30305   2.585   8.029   3.251  0.2278 -1.0879 -1.6387
  220MOL0     H30306   2.653   7.917   3.370 -1.5165  1.4856  1.3481
  220MOL0     H30307   2.835   8.097   3.204  2.6552 -0.0788  2.1841
  220MOL0     H30308   2.875   7.969   3.310 -0.6587 -2.6508 -0.3846
  220MOL0     H30309   2.717   8.027   2.951  0.0657 -1.1193 -4.2412
  220MOL0     H30310   2.654   7.911   2.769  1.0300  0.2342  2.4131
  220MOL0     H30311   2.600   7.743   2.781 -2.0358  1.5169 -0.3629
  220MOL0     H30312   2.884   7.842   2.724 -2.5397  2.8646  3.1214
  220MOL0     H30313   2.830   7.674   2.724 -0.6842  0.0626 -0.8474
  220MOL0     H30314   2.648   7.738   2.555  0.2170 -1.3642  0.2972
  220MOL0     H30315   2.732   7.903   2.550 -2.9084  0.3916  2.5492
  220MOL0     H30316   2.801   7.820   2.359  2.1229  2.8000  1.1589
  220MOL0     H30317   2.937   7.785   2.450 -0.5787  0.3218  1.1924
  220MOL0     H30318   3.040   7.646   2.563 -1.0601  0.3767 -1.2368
  220MOL0     H30319   3.247   7.590   2.626 -2.6507 -0.4497 -1.6157
  220MOL0     H30320   3.289   7.434   2.681  0.7340  0.9130  1.0462
  220MOL0     H30321   3.166   7.527   2.773  0.0820 -0.5584  1.0217
  220MOL0     H30322   3.292   7.007   2.741  0.1544 -1.3030  0.4969
  220MOL0     H30323   3.372   6.896   2.952  0.6492  0.7656 -1.2813
  220MOL0     H30324   3.145   6.633   3.193 -2.0475  2.7454  1.3103
  220MOL0     H30325   3.273   6.644   3.063  3.1905  1.9127  1.1030
  220MOL0     H30326   3.307   6.651   3.359  1.3570  0.6089  1.2208
  220MOL0     H30327   3.383   6.548   3.241 -2.1050  0.6775 -2.6502
  220MOL0     H30328   3.512   6.744   3.360 -0.3513 -0.4359  0.0797
  220MOL0     H30329   3.442   6.850   3.251 -0.0711  1.2244  3.2436
  220MOL0     H30330   3.494   6.674   3.066 -2.8043 -2.1069  3.0423
  220MOL0     H30331   3.632   6.620   3.180  1.4069  2.3387  0.6199
  220MOL0     H30332   3.606   6.895   3.054 -1.9127 -1.2524 -0.4603
  220MOL0     H30333   3.739   6.836   3.166  0.9301 -0.5332 -0.9682
  220MOL0     H30334   3.668   6.738   2.890  0.3612  2.2927  0.5863
  220MOL0     H30335   3.778   6.646   2.986 -2.4215 -2.1018 -0.9486
  220MOL0     H30336   3.936   6.840   3.007 -0.2557  1.1806  1.2440
  220MOL0     H30337   3.833   6.944   2.910 -0.7465 -0.3450 -2.9403
  220MOL0     H30338   3.840   6.782   2.721  2.7852 -3.2833 -3.6089
  220MOL0     H30339   3.961   6.689   2.801  0.1790  0.0940 -2.5369
  220MOL0     H30340   2.977   6.912   3.115 -1.8000  0.4023 -1.9394
  220MOL0     H30341   2.902   7.040   2.901  0.0489  0.0212  2.8009
  220MOL0     H30342   2.892   7.182   2.501  2.3425 -0.6279 -1.1719
  220MOL0     H30343   2.762   7.390   2.390 -1.3777  0.0051  3.5421
  220MOL0     H30344   2.514   7.837   3.748 -0.7355  0.1376 -0.3374
  220MOL0     H30345   2.530   7.639   3.648  2.0766  0.6697  1.8445
  220MOL0     H30346   2.172   7.180   3.866  2.2827  0.8138 -0.0046
  220MOL0     H30347   2.093   6.948   3.814  1.1894 -0.9043  1.2571
  220MOL0     H30348   2.162   6.743   3.798  0.2527  0.4791 -0.0572
  220MOL0     H30349   2.177   6.620   3.669  3.0383 -1.0469  0.2898
  220MOL0     H30350   2.403   6.783   3.794  2.0903 -3.0366  2.7916
  220MOL0     H30351   2.419   6.716   3.634 -1.5865  1.4414 -0.8794
  220MOL0     H30352   2.365   6.577   3.905  2.0826 -0.8390  0.4215
  220MOL0     H30353   2.366   6.484   3.750 -1.9667  1.8630 -1.7754
  220MOL0     H30354   2.611   6.510   3.875  0.0930  2.3107  0.5772
  220MOL0     H30355   2.594   6.668   3.794  0.0555  0.4876 -1.3306
  220MOL0     H30356   2.696   6.420   3.467  2.1490 -1.2190  1.2544
  220MOL0     H30357   2.314   6.959   3.453 -3.9455  0.4534 -1.0828
  220MOL0     H30358   2.481   7.147   3.395 -0.7547 -0.1180 -0.2595
  220MOL0     H30359   2.367   7.280   3.427 -1.3561 -1.8598  1.2133
  220MOL0     H30360   2.521   7.257   3.512  0.6726  3.4527 -4.2550
  221MOL0     O30361   6.884   2.222  10.912  0.2176 -0.3621  0.1904
  221MOL0     C30362   6.915   2.338  10.887  0.3291  0.1802 -0.6508
  221MOL0     O30363   6.825   2.434  10.839 -0.0379  0.3207 -0.5950
  221MOL0     C30364   6.693   2.435  10.885  0.6239 -0.2048  0.3873
  221MOL0     C30365   6.658   2.376  11.011 -1.0177  0.4968 -0.7325
  221MOL0     C30366   6.528   2.396  11.055 -0.4068 -0.2478 -0.5810
  221MOL0     C30367   6.429   2.443  10.968  0.3708  0.7084 -0.6245
  221MOL0     O30368   6.300   2.441  11.002 -0.4809  0.1601 -0.2772
  221MOL0     C30369   6.232   2.553  11.060 -0.1299 -0.6151 -0.6322
  221MOL0     C30370   6.186   2.650  10.952  0.3880 -0.1774  0.0028
  221MOL0     C30371   6.096   2.560  10.858 -0.2912 -0.0445 -0.7286
  221MOL0     C30372   6.003   2.648  10.771  0.1660  0.2507  0.2866
  221MOL0     C30373   5.895   2.726  10.843  1.0321 -0.0943 -0.2917
  221MOL0     C30374   5.790   2.632  10.913 -0.6145 -0.4478  0.4188
  221MOL0     C30375   5.674   2.720  10.964 -0.5861 -0.4421  0.0867
  221MOL0     C30376   5.576   2.650  11.054 -0.3612 -0.0973 -0.4023
  221MOL0     N30377   5.493   2.745  11.136  0.3415  0.3990 -0.2829
  221MOL0     C30378   5.418   2.848  11.075 -0.1708  0.8639  0.6748
  221MOL0     C30379   5.348   2.898  11.182 -0.2786  1.8104 -0.8007
  221MOL0     C30380   5.244   2.994  11.208  0.6276  0.1546  0.8048
  221MOL0     C30381   5.107   2.950  11.146  0.0256  0.8203 -0.2430
  221MOL0     C30382   5.105   2.959  10.991 -0.9260  0.3307 -0.2607
  221MOL0     C30383   5.134   3.106  10.936 -0.4035 -0.6335  0.7287
  221MOL0     O30384   5.278   3.112  10.923 -0.5674 -0.1872 -0.1360
  221MOL0     C30385   5.346   3.107  10.802 -0.1372 -0.0135 -0.1944
  221MOL0     C30386   5.303   3.061  10.675  0.3228 -0.4774 -0.7331
  221MOL0     C30387   5.387   3.071  10.561 -0.6107 -0.5282  0.1851
  221MOL0     C30388   5.319   3.030  10.430  0.2477  0.3944  0.0191
  221MOL0     C30389   5.521   3.120  10.575  0.8014 -0.6298 -0.9533
  221MOL0     C30390   5.615   3.150  10.471  0.7042  1.4404  1.2060
  221MOL0     O30391   5.746   3.163  10.513  0.1986 -0.4317  0.7989
  221MOL0     C30392   5.844   3.188  10.419  0.5609  0.8161  0.5673
  221MOL0     C30393   5.937   3.287  10.449 -0.8289 -0.1175  0.1038
  221MOL0     C30394   6.053   3.302  10.358  0.7841  0.4176 -0.2723
  221MOL0     C30395   6.055   3.221  10.247 -1.0925 -0.9354  0.4791
  221MOL0     O30396   6.149   3.250  10.162  0.3568  0.3854 -0.0527
  221MOL0     C30397   6.205   3.145  10.087 -1.0211  0.6858  0.7441
  221MOL0     C30398   6.170   3.160   9.940 -0.3007 -0.7778  0.7287
  221MOL0     C30399   6.277   3.113   9.844  0.3924 -0.4286 -0.1499
  221MOL0     C30400   6.227   3.099   9.702 -0.1772 -0.5311  0.4457
  221MOL0     C30401   6.327   3.019   9.603  0.5587  0.3711  0.1364
  221MOL0     C30402   6.462   3.089   9.602  0.4911  0.7680  0.0393
  221MOL0     C30403   6.562   3.030   9.506 -0.0247 -0.1108 -0.3561
  221MOL0     C30404   6.688   3.119   9.504  0.6208  0.0020 -0.0578
  221MOL0    Cl30405   6.812   3.028   9.420  0.1514  0.0688 -0.0337
  221MOL0     C30406   5.955   3.129  10.214  0.0005  0.2045 -0.2959
  221MOL0     C30407   5.846   3.113  10.295  0.0215 -1.0007  0.1512
  221MOL0     O30408   5.578   3.158  10.352 -0.1384  0.1451 -0.3947
  221MOL0     C30409   5.559   3.163  10.704 -0.3457  0.0742  0.1254
  221MOL0     C30410   5.475   3.155  10.811 -0.5889  0.8172  0.8906
  221MOL0     N30411   5.370   2.823  11.293  0.7142 -0.1262 -0.6279
  221MOL0     N30412   5.459   2.734  11.267 -0.0523  0.4913 -0.5011
  221MOL0     C30413   6.467   2.489  10.843  0.3534 -0.5590 -0.2504
  221MOL0     C30414   6.600   2.490  10.805  0.5028  0.7996  0.3809
  221MOL0     C30415   7.059   2.377  10.883  0.0766 -0.4005 -0.3400
  221MOL0     C30416   7.157   2.285  10.851  0.3815  0.3270 -0.7572
  221MOL0     C30417   7.287   2.311  10.849 -0.0817  0.3006  0.9849
  221MOL0     C30418   7.331   2.441  10.872 -0.6450  0.5479  0.3753
  221MOL0     O30419   7.468   2.456  10.871  0.4800  0.8953 -0.6305
  221MOL0     C30420   7.526   2.585  10.865 -0.9310 -0.1709 -0.6187
  221MOL0     C30421   7.664   2.577  10.801  1.0990  0.1732 -0.1731
  221MOL0     C30422   7.772   2.511  10.886  0.7216  0.1262 -0.1966
  221MOL0     C30423   7.897   2.508  10.798 -1.3858  0.8133 -0.7608
  221MOL0     C30424   7.924   2.633  10.721 -0.0389  0.1518 -0.4839
  221MOL0     C30425   7.936   2.740  10.669 -0.5977  0.7325  0.2129
  221MOL0     C30426   7.235   2.536  10.897  0.3131  1.0415  0.3898
  221MOL0     C30427   7.100   2.506  10.922 -0.0767  0.3042 -0.3900
  221MOL0     C30428   7.019   2.623  10.965  0.1127  0.2170 -0.4067
  221MOL0     H30429   6.724   2.332  11.085 -1.3670  0.8676 -0.1908
  221MOL0     H30430   6.501   2.343  11.146  0.7839 -0.7127 -0.4875
  221MOL0     H30431   6.304   2.606  11.123  0.5177 -0.2495 -1.6596
  221MOL0     H30432   6.152   2.511  11.122  2.6598 -0.7957  3.2261
  221MOL0     H30433   6.127   2.723  11.007 -1.9812 -3.1411  1.6641
  221MOL0     H30434   6.268   2.704  10.903  0.7272  2.2120  2.9035
  221MOL0     H30435   6.161   2.496  10.798  1.3396  2.3152 -1.6252
  221MOL0     H30436   6.027   2.491  10.907  0.5797 -1.5831 -1.6056
  221MOL0     H30437   6.063   2.714  10.707 -0.2004  0.4830  0.1804
  221MOL0     H30438   5.971   2.577  10.694  2.9248 -1.3910  0.5003
  221MOL0     H30439   5.849   2.788  10.765 -3.0306 -1.4720  0.7647
  221MOL0     H30440   5.944   2.787  10.920 -2.4383  1.3205  1.0064
  221MOL0     H30441   5.744   2.557  10.849 -0.8505  0.6734 -0.7727
  221MOL0     H30442   5.851   2.598  10.997  0.5917  1.1268  0.2281
  221MOL0     H30443   5.622   2.756  10.875 -1.0237  0.0344  0.5269
  221MOL0     H30444   5.711   2.804  11.023 -1.4497 -1.3319  2.0065
  221MOL0     H30445   5.502   2.591  11.000 -1.4183 -0.9582  1.8616
  221MOL0     H30446   5.634   2.579  11.114  0.9549  0.6003 -0.8177
  221MOL0     H30447   5.416   2.877  10.970  0.7664  0.0813  0.4250
  221MOL0     H30448   5.278   3.090  11.168  2.6717 -1.2992 -1.1919
  221MOL0     H30449   5.236   3.017  11.315 -0.7562 -0.6337  0.8965
  221MOL0     H30450   5.073   2.851  11.177 -5.0231  2.0042 -1.2100
  221MOL0     H30451   5.021   3.014  11.163 -0.2134  1.3023 -2.9062
  221MOL0     H30452   5.175   2.887  10.948 -0.2525 -0.1590  1.5903
  221MOL0     H30453   5.006   2.921  10.962 -1.2556 -1.3075  2.6613
  221MOL0     H30454   5.095   3.121  10.835 -1.0195  1.5839  1.2455
  221MOL0     H30455   5.088   3.172  11.010  0.4542 -0.9809  1.5879
  221MOL0     H30456   5.213   3.000  10.670  0.3925 -0.5397 -1.2198
  221MOL0     H30457   5.374   2.945  10.387 -0.2444  0.2250 -0.2879
  221MOL0     H30458   5.313   3.108  10.353  0.7357  1.6387  1.1955
  221MOL0     H30459   5.215   3.000  10.444  0.1629  0.0382 -1.2368
  221MOL0     H30460   5.936   3.347  10.539  0.9156  1.1271 -0.6475
  221MOL0     H30461   6.120   3.387  10.366 -2.0073  2.7616 -0.0019
  221MOL0     H30462   6.314   3.154  10.089 -1.1254  1.9257  1.6533
  221MOL0     H30463   6.179   3.043  10.115  1.1083  0.8306  3.7037
  221MOL0     H30464   6.090   3.090   9.915 -1.9137  0.8666  1.1234
  221MOL0     H30465   6.131   3.261   9.925  3.1285  1.0725  2.8577
  221MOL0     H30466   6.324   3.019   9.876  0.0694 -1.6849 -3.0261
  221MOL0     H30467   6.344   3.199   9.840 -4.4850  3.7872 -1.4102
  221MOL0     H30468   6.209   3.201   9.666 -1.1752 -1.5945 -2.3707
  221MOL0     H30469   6.132   3.046   9.693  0.0387 -0.5057 -3.7095
  221MOL0     H30470   6.356   2.917   9.626  1.9706 -0.1398 -3.3057
  221MOL0     H30471   6.288   3.013   9.501  0.2810 -1.8970  0.3416
  221MOL0     H30472   6.507   3.080   9.701  5.4197 -0.2762 -2.0100
  221MOL0     H30473   6.447   3.196   9.583 -0.0860  1.2876  2.9917
  221MOL0     H30474   6.520   3.022   9.405  0.7176  2.2896 -0.9200
  221MOL0     H30475   6.585   2.933   9.552 -0.5122 -0.3076 -0.5216
  221MOL0     H30476   6.714   3.149   9.606  1.2286  1.8305 -0.7189
  221MOL0     H30477   6.664   3.217   9.463 -1.1761 -0.4777 -0.2505
  221MOL0     H30478   5.943   3.084  10.116 -0.8521 -1.0051  0.3517
  221MOL0     H30479   5.756   3.056  10.274 -0.9224  0.8131 -0.9971
  221MOL0     H30480   5.659   3.200  10.722 -0.3937  1.0516 -1.4446
  221MOL0     H30481   5.519   3.192  10.904 -1.3367 -0.4937  1.7972
  221MOL0     H30482   6.384   2.528  10.785 -0.3888  0.9246  1.7074
  221MOL0     H30483   6.624   2.542  10.712  0.8570 -1.5181 -0.8953
  221MOL0     H30484   7.108   2.195  10.815 -1.6171  0.8371  0.5138
  221MOL0     H30485   7.355   2.227  10.848 -0.1852  0.2110 -0.3477
  221MOL0     H30486   7.472   2.653  10.799 -0.9792  1.8234  1.3690
  221MOL0     H30487   7.522   2.631  10.964  1.7130 -2.1175  0.5152
  221MOL0     H30488   7.688   2.683  10.784  1.8093  0.0069 -0.2347
  221MOL0     H30489   7.646   2.518  10.711 -1.4071 -3.6296  2.5259
  221MOL0     H30490   7.796   2.559  10.981  1.0882 -0.8751  0.2246
  221MOL0     H30491   7.738   2.413  10.920 -0.1558  1.5944  3.6406
  221MOL0     H30492   7.885   2.420  10.735 -1.4198  1.4056 -1.5886
  221MOL0     H30493   7.983   2.486  10.863 -2.5665 -0.8450  0.3352
  221MOL0     H30494   7.950   2.842  10.639 -0.7786  0.7394  0.1533
  221MOL0     H30495   7.268   2.638  10.917  1.4078  0.3540  2.2877
  221MOL0     H30496   6.933   2.594  11.026 -1.7833  3.7004 -1.1596
  221MOL0     H30497   7.079   2.689  11.029  0.4714 -0.4174 -0.0796
  221MOL0     H30498   6.990   2.680  10.876  3.3140  2.0498 -0.4283
  222MOL0     O30499  11.345   2.234   0.533  0.6424  0.1699 -0.0844
  222MOL0     C30500  11.370   2.114   0.550  0.7040  0.8158 -0.1823
  222MOL0     O30501  11.282   2.019   0.602 -0.0247 -0.2567  0.0632
  222MOL0     C30502  11.153   2.068   0.624  0.2992 -0.1680 -1.1595
  222MOL0     C30503  11.117   2.184   0.696  0.6307 -0.3818 -1.1651
  222MOL0     C30504  10.985   2.227   0.710 -0.0464 -0.2663  0.0347
  222MOL0     C30505  10.878   2.159   0.648 -0.6235 -0.3779 -0.3703
  222MOL0     O30506  10.750   2.199   0.667  0.0064 -0.7570 -0.1756
  222MOL0     C30507  10.632   2.123   0.627  0.1551 -0.3422 -0.7700
  222MOL0     C30508  10.595   2.172   0.486 -0.2179 -0.0016 -0.1238
  222MOL0     C30509  10.503   2.070   0.422 -0.5433  0.2226  0.4616
  222MOL0     C30510  10.580   1.948   0.371  0.6139  0.3778  0.5836
  222MOL0     C30511  10.489   1.856   0.285 -0.6112 -0.0028  0.4033
  222MOL0     C30512  10.573   1.744   0.224  0.5758 -0.4076 -0.7678
  222MOL0     C30513  10.613   1.749   0.073  0.1162 -0.2419  0.5792
  222MOL0     C30514  10.726   1.642   0.045 -0.2650 -0.3669  0.5620
  222MOL0     N30515  10.783   1.644  -0.091 -0.2513  0.0835 -0.1242
  222MOL0     C30516  10.722   1.587  -0.201  0.2286  0.0273 -0.1691
  222MOL0     C30517  10.784   1.634  -0.305 -0.9571 -0.5309  0.1918
  222MOL0     C30518  10.761   1.587  -0.445  0.2686  0.7395 -0.9969
  222MOL0     C30519  10.667   1.685  -0.518 -0.5508 -0.7881 -0.3821
  222MOL0     C30520  10.726   1.828  -0.533 -0.7029  0.2537 -0.1592
  222MOL0     C30521  10.621   1.916  -0.598  0.4546 -0.2601 -0.0157
  222MOL0     O30522  10.689   2.034  -0.630 -0.2766 -0.5873 -0.1885
  222MOL0     C30523  10.619   2.145  -0.679 -0.1740 -0.9001 -1.1906
  222MOL0     C30524  10.673   2.272  -0.680  0.5102 -1.0244 -0.1750
  222MOL0     C30525  10.607   2.388  -0.731 -0.1220  0.3237  0.1982
  222MOL0     C30526  10.657   2.526  -0.693 -0.3201 -0.6164  0.4715
  222MOL0     C30527  10.493   2.371  -0.812 -0.2954 -0.2306 -0.4519
  222MOL0     C30528  10.428   2.472  -0.888 -0.0255  0.1217 -0.1940
  222MOL0     O30529  10.288   2.456  -0.910  0.2242 -0.0493 -0.0565
  222MOL0     C30530  10.231   2.564  -0.956  0.9754 -0.0016 -0.5268
  222MOL0     C30531  10.179   2.673  -0.880 -0.3593  0.0511  0.1629
  222MOL0     C30532  10.112   2.781  -0.941 -0.9618  0.2866 -0.9079
  222MOL0     C30533  10.074   2.766  -1.071 -0.4672  0.1732 -0.9588
  222MOL0     O30534   9.974   2.838  -1.123  0.1672  0.3623  0.5742
  222MOL0     C30535   9.843   2.779  -1.136  0.3365  0.7680  0.4345
  222MOL0     C30536   9.731   2.830  -1.046  0.1939  0.5005 -0.3549
  222MOL0     C30537   9.591   2.780  -1.075 -1.2075 -0.7500 -0.2375
  222MOL0     C30538   9.592   2.630  -1.047 -0.7653 -0.0329  0.3572
  222MOL0     C30539   9.449   2.579  -1.075  0.2125 -0.0983 -0.3000
  222MOL0     C30540   9.430   2.435  -1.038  0.6950  0.7292  0.0038
  222MOL0     C30541   9.284   2.394  -1.073  1.2070 -0.3617 -0.2654
  222MOL0     C30542   9.275   2.247  -1.064  0.3630  0.1445 -0.0648
  222MOL0    Cl30543   9.124   2.200  -1.130 -0.1572  0.0648 -0.3891
  222MOL0     C30544  10.119   2.657  -1.137 -0.1890 -0.3361  0.3335
  222MOL0     C30545  10.190   2.558  -1.086  0.7917  0.2717  0.2059
  222MOL0     O30546  10.498   2.561  -0.936  0.7003 -0.3028  1.0702
  222MOL0     C30547  10.438   2.242  -0.805 -1.1252  0.0551  0.3939
  222MOL0     C30548  10.501   2.135  -0.749  0.4654 -0.8932  0.0646
  222MOL0     N30549  10.898   1.706  -0.261 -0.0440 -0.0069 -0.6264
  222MOL0     N30550  10.891   1.712  -0.132  0.9492 -0.3211  0.1161
  222MOL0     C30551  10.916   2.044   0.572  0.3451  0.1436  0.3791
  222MOL0     C30552  11.051   1.992   0.564  1.0259 -0.1846 -0.0106
  222MOL0     C30553  11.499   2.059   0.498  0.0637 -0.6655 -0.9855
  222MOL0     C30554  11.520   1.916   0.520 -0.6586  0.0996 -0.8689
  222MOL0     C30555  11.633   1.852   0.466  0.6735  0.0031 -0.6302
  222MOL0     C30556  11.728   1.923   0.394 -0.1300  0.1285 -1.1769
  222MOL0     O30557  11.838   1.846   0.363  0.2346  0.4231  0.2796
  222MOL0     C30558  11.843   1.794   0.229 -0.3932 -0.0514  0.0571
  222MOL0     C30559  11.989   1.751   0.179  0.3901  0.7549  0.8433
  222MOL0     C30560  11.979   1.658   0.061  0.2077  0.0442  0.5475
  222MOL0     C30561  12.115   1.598   0.030  0.2215  0.1693  0.2250
  222MOL0     C30562  12.116   1.506  -0.075 -0.0719  0.1092  0.6484
  222MOL0     C30563  12.114   1.436  -0.176  0.7828 -0.0495  1.4015
  222MOL0     C30564  11.709   2.065   0.384  0.0176  0.6905  0.6377
  222MOL0     C30565  11.594   2.130   0.427  0.6589 -0.1928  0.1024
  222MOL0     C30566  11.584   2.272   0.389  0.2417  0.2199 -0.7442
  222MOL0     H30567  11.194   2.235   0.753  0.7110 -0.3459 -1.3068
  222MOL0     H30568  10.965   2.319   0.764  0.0920 -1.6791  2.6432
  222MOL0     H30569  10.542   2.146   0.685 -1.2225 -2.9303 -1.7102
  222MOL0     H30570  10.652   2.017   0.645  2.9349  0.3269  0.5625
  222MOL0     H30571  10.554   2.273   0.495  0.3546  0.1607  0.9255
  222MOL0     H30572  10.682   2.178   0.420  0.7119  0.8483  1.1270
  222MOL0     H30573  10.428   2.038   0.495  0.9964  0.3420  2.1841
  222MOL0     H30574  10.460   2.108   0.329 -2.1263 -0.5177  0.8532
  222MOL0     H30575  10.662   1.982   0.307 -0.5595 -2.3216 -2.6714
  222MOL0     H30576  10.627   1.892   0.453  2.9160  0.2702 -0.7176
  222MOL0     H30577  10.457   1.910   0.195  0.1996 -0.8237 -0.4037
  222MOL0     H30578  10.401   1.823   0.340 -0.1352  1.2330  1.9850
  222MOL0     H30579  10.658   1.735   0.292  0.5754  1.5800 -0.4538
  222MOL0     H30580  10.512   1.652   0.228  1.2756 -0.8410  0.4455
  222MOL0     H30581  10.643   1.852   0.053 -2.4888  0.3328 -0.7834
  222MOL0     H30582  10.525   1.728   0.012 -1.2858 -0.4860  2.5710
  222MOL0     H30583  10.814   1.665   0.105 -1.6560  1.8955  1.8650
  222MOL0     H30584  10.683   1.543   0.067 -1.2989 -0.7683 -2.7201
  222MOL0     H30585  10.635   1.522  -0.197  0.7238 -0.7121 -1.1160
  222MOL0     H30586  10.709   1.492  -0.438 -1.4621  1.7103 -0.1663
  222MOL0     H30587  10.857   1.579  -0.498  1.1912 -0.3499  0.7450
  222MOL0     H30588  10.641   1.651  -0.618 -0.7108  0.6144 -0.8406
  222MOL0     H30589  10.575   1.697  -0.460 -2.2177 -1.4172 -2.7715
  222MOL0     H30590  10.767   1.884  -0.448 -0.8436 -1.0766  0.8225
  222MOL0     H30591  10.806   1.811  -0.605 -1.2442 -1.1360 -0.4579
  222MOL0     H30592  10.567   1.872  -0.682  0.4833  0.3830 -0.3759
  222MOL0     H30593  10.542   1.944  -0.527  0.4765 -1.7913  0.6491
  222MOL0     H30594  10.767   2.294  -0.630  0.4897  0.3862 -0.6957
  222MOL0     H30595  10.745   2.523  -0.628  1.6316 -1.4982 -2.0110
  222MOL0     H30596  10.584   2.576  -0.629  0.3088  1.1594 -0.1238
  222MOL0     H30597  10.680   2.584  -0.784 -0.7211 -0.4202  0.4939
  222MOL0     H30598  10.202   2.675  -0.774  2.8000  1.6273 -0.4271
  222MOL0     H30599  10.077   2.873  -0.896 -4.3280 -2.7138  3.4132
  222MOL0     H30600   9.802   2.793  -1.236 -1.3949 -1.3746  0.7736
  222MOL0     H30601   9.853   2.671  -1.124  1.5995  0.3614 -3.0844
  222MOL0     H30602   9.763   2.807  -0.944  0.3121  1.6609 -0.1192
  222MOL0     H30603   9.727   2.939  -1.055 -2.7112  0.4504 -0.4402
  222MOL0     H30604   9.572   2.813  -1.178  0.4868  1.6815  0.1273
  222MOL0     H30605   9.519   2.833  -1.012 -2.0776 -2.0692 -0.1009
  222MOL0     H30606   9.631   2.616  -0.946 -0.5505  1.6457  0.5395
  222MOL0     H30607   9.670   2.583  -1.107 -0.7463 -0.6514  0.8541
  222MOL0     H30608   9.380   2.633  -1.010  2.5665  3.1509 -0.2609
  222MOL0     H30609   9.422   2.597  -1.180  4.1131 -1.0356 -1.6322
  222MOL0     H30610   9.449   2.431  -0.930 -1.0008 -1.0711  0.2945
  222MOL0     H30611   9.500   2.370  -1.091  0.2287  0.0827  0.1665
  222MOL0     H30612   9.256   2.408  -1.178 -0.4835 -1.4194  0.0026
  222MOL0     H30613   9.207   2.431  -1.004  0.9758 -0.9589 -0.1974
  222MOL0     H30614   9.275   2.212  -0.960 -3.7503  0.9953  0.3908
  222MOL0     H30615   9.354   2.193  -1.117  2.4455  0.7085  2.3109
  222MOL0     H30616  10.096   2.637  -1.241  1.8036 -0.2413 -0.1784
  222MOL0     H30617  10.203   2.464  -1.139 -0.2746  0.5129 -0.5123
  222MOL0     H30618  10.354   2.213  -0.868  2.7778 -1.4113 -4.8163
  222MOL0     H30619  10.459   2.035  -0.760  0.9017 -0.9921 -0.8627
  222MOL0     H30620  10.837   1.993   0.518  0.5365  0.3423 -0.1016
  222MOL0     H30621  11.079   1.914   0.494  2.5946 -0.3905  0.7783
  222MOL0     H30622  11.437   1.853   0.550  1.5434 -2.2295  0.7591
  222MOL0     H30623  11.650   1.745   0.475  1.7018  0.0431 -1.7802
  222MOL0     H30624  11.794   1.697   0.237  4.0056 -2.6457 -1.3150
  222MOL0     H30625  11.798   1.859   0.153  0.1268 -0.0485 -0.2503
  222MOL0     H30626  12.035   1.688   0.257  4.5629  1.5757 -0.7169
  222MOL0     H30627  12.050   1.839   0.159  2.5617 -0.9756 -0.7043
  222MOL0     H30628  11.911   1.574   0.077 -0.6179  0.6569  0.3645
  222MOL0     H30629  11.935   1.709  -0.026  0.2953  0.3497  0.6806
  222MOL0     H30630  12.157   1.547   0.118  1.6905  1.9991  0.6601
  222MOL0     H30631  12.177   1.681  -0.004 -2.1622  0.8693 -2.8139
  222MOL0     H30632  12.119   1.374  -0.263 -0.0588 -1.8667  2.5912
  222MOL0     H30633  11.785   2.122   0.331  0.2857 -1.4384 -1.4183
  222MOL0     H30634  11.485   2.297   0.351  1.3836 -1.1673 -5.2502
  222MOL0     H30635  11.611   2.329   0.479 -1.1056  1.9432 -1.3720
  222MOL0     H30636  11.654   2.288   0.306  3.4493 -0.9754  1.5148
  223MOL0     O30637   2.057   0.546   0.433  0.5123  0.7942  0.8325
  223MOL0     C30638   2.124   0.464   0.490 -0.1351 -0.1537 -0.2565
  223MOL0     O30639   2.260   0.478   0.521 -0.1006 -0.4177 -0.5331
  223MOL0     C30640   2.347   0.580   0.470 -0.2202  0.2671  0.2050
  223MOL0     C30641   2.410   0.669   0.553 -0.1359  0.3213 -0.3733
  223MOL0     C30642   2.497   0.780   0.521  1.0760  0.5948  0.3424
  223MOL0     C30643   2.524   0.797   0.384  0.7118 -0.1119  0.0686
  223MOL0     O30644   2.607   0.891   0.333 -0.1122  0.3548 -0.4521
  223MOL0     C30645   2.709   0.970   0.408  0.3531 -0.3484 -0.3679
  223MOL0     C30646   2.785   1.044   0.301 -0.0041 -1.0757  0.6134
  223MOL0     C30647   2.861   0.942   0.216  0.9726 -1.2003  0.0062
  223MOL0     C30648   2.937   1.016   0.104  1.0667 -0.4828 -0.1539
  223MOL0     C30649   3.054   0.955   0.035 -0.0425  0.0616 -0.1686
  223MOL0     C30650   3.122   1.049  -0.064 -0.6652  0.5559 -0.4324
  223MOL0     C30651   3.037   1.071  -0.193  0.4188  1.0029 -0.0590
  223MOL0     C30652   3.109   1.141  -0.303  0.7200 -0.4685 -0.2363
  223MOL0     N30653   3.216   1.067  -0.376 -0.0062 -0.5079  0.1801
  223MOL0     C30654   3.214   0.933  -0.398 -0.7434 -0.2822  1.2551
  223MOL0     C30655   3.327   0.897  -0.462  0.5068 -0.5618 -0.3678
  223MOL0     C30656   3.364   0.761  -0.518 -0.1105  0.7544  0.3382
  223MOL0     C30657   3.267   0.720  -0.627  0.2275  0.4148 -0.4918
  223MOL0     C30658   3.338   0.698  -0.762  0.5888 -0.9918 -0.5970
  223MOL0     C30659   3.455   0.605  -0.761 -1.1655 -0.4446  1.1321
  223MOL0     O30660   3.421   0.478  -0.709 -0.6598 -0.6738 -0.8973
  223MOL0     C30661   3.521   0.391  -0.702 -0.4353  0.1806  0.5851
  223MOL0     C30662   3.498   0.273  -0.622  0.5247  0.3111  0.5632
  223MOL0     C30663   3.603   0.173  -0.600 -0.4208 -1.2908 -0.4965
  223MOL0     C30664   3.586   0.057  -0.510  0.2145  0.5870 -0.2095
  223MOL0     C30665   3.722   0.191  -0.678 -0.2273 -0.2204 -0.7478
  223MOL0     C30666   3.832   0.097  -0.670  0.2730 -1.0750 -0.3995
  223MOL0     O30667   3.886   0.065  -0.792  0.5134  0.0490 -0.0477
  223MOL0     C30668   3.971  -0.046  -0.801  0.2038  0.1944 -0.7382
  223MOL0     C30669   3.946  -0.172  -0.738  0.5618 -0.0334 -0.3694
  223MOL0     C30670   4.030  -0.277  -0.761 -0.1783 -0.2867 -0.8485
  223MOL0     C30671   4.143  -0.266  -0.837 -0.9855  0.0349  0.6756
  223MOL0     O30672   4.227  -0.375  -0.864  0.0678 -0.3250 -0.2006
  223MOL0     C30673   4.173  -0.470  -0.955 -1.2958  0.1141 -0.5997
  223MOL0     C30674   4.290  -0.563  -1.014  0.7273 -0.4253 -0.5602
  223MOL0     C30675   4.231  -0.684  -1.085  0.2482 -0.9225 -0.4425
  223MOL0     C30676   4.197  -0.806  -0.998  0.5856  0.3251  0.4776
  223MOL0     C30677   4.125  -0.917  -1.082 -0.1188  0.5427  0.2397
  223MOL0     C30678   3.979  -0.890  -1.103 -0.0348 -0.6212 -0.2915
  223MOL0     C30679   3.897  -0.901  -0.977  0.7810  0.3527 -0.0990
  223MOL0     C30680   3.746  -0.892  -0.999  0.3106 -0.6604  0.8027
  223MOL0    Cl30681   3.692  -1.037  -1.082 -0.0278  0.3653  0.0648
  223MOL0     C30682   4.175  -0.144  -0.888 -0.1966  0.2658 -0.8490
  223MOL0     C30683   4.092  -0.036  -0.878  0.3337 -0.0231  0.7502
  223MOL0     O30684   3.878   0.070  -0.556 -0.4165 -0.3785 -0.0022
  223MOL0     C30685   3.731   0.301  -0.771  0.4502 -0.1521  0.5228
  223MOL0     C30686   3.636   0.402  -0.776  0.0641 -0.4414 -0.0055
  223MOL0     N30687   3.398   1.011  -0.482  0.0622 -0.4608  0.5828
  223MOL0     N30688   3.343   1.107  -0.422 -0.0242 -1.1830 -0.1135
  223MOL0     C30689   2.457   0.719   0.289 -0.0986  1.0420 -0.0859
  223MOL0     C30690   2.362   0.617   0.333  0.3238 -0.2057 -0.1223
  223MOL0     C30691   2.068   0.342   0.557  0.7108 -0.1285  1.2633
  223MOL0     C30692   2.153   0.232   0.588  0.1270 -0.2255 -1.1054
  223MOL0     C30693   2.106   0.135   0.670 -0.4717 -0.8069 -0.6665
  223MOL0     C30694   1.969   0.119   0.697  0.3185  0.0865 -0.2713
  223MOL0     O30695   1.927   0.006   0.770 -0.4402 -0.7732 -0.0214
  223MOL0     C30696   1.786  -0.022   0.782 -0.4367  0.5130  0.8109
  223MOL0     C30697   1.759  -0.161   0.824  0.7212  0.3103 -0.0595
  223MOL0     C30698   1.781  -0.185   0.974  0.2917 -0.5904 -1.0559
  223MOL0     C30699   1.803  -0.336   1.008  0.9012 -0.1681 -0.4585
  223MOL0     C30700   1.682  -0.407   0.953  0.0001 -0.7842  0.1277
  223MOL0     C30701   1.583  -0.455   0.909  0.9611  0.2435  0.1565
  223MOL0     C30702   1.883   0.213   0.652  0.5457 -0.0092  0.1215
  223MOL0     C30703   1.930   0.327   0.586 -0.0151  0.4293  0.0780
  223MOL0     C30704   1.831   0.426   0.539 -0.4356 -0.3130 -0.5635
  223MOL0     H30705   2.384   0.651   0.657 -1.9626  0.2887 -0.8008
  223MOL0     H30706   2.555   0.841   0.588  2.4563 -1.3092  0.9698
  223MOL0     H30707   2.769   0.904   0.470 -0.5304 -0.3170  0.5586
  223MOL0     H30708   2.666   1.053   0.466  3.5230  0.3196  1.2307
  223MOL0     H30709   2.736   1.116   0.235  0.6088  0.2765  1.5858
  223MOL0     H30710   2.864   1.100   0.350 -1.4222  0.1313  1.5946
  223MOL0     H30711   2.935   0.890   0.277  1.0588  0.3882  1.3238
  223MOL0     H30712   2.807   0.866   0.158 -1.7464  1.9197 -1.9733
  223MOL0     H30713   2.870   1.052   0.026  3.2683 -1.2101 -2.5028
  223MOL0     H30714   2.982   1.102   0.156  0.1709 -0.4674  0.6280
  223MOL0     H30715   3.028   0.859  -0.010 -2.5534  1.4396 -1.8742
  223MOL0     H30716   3.127   0.931   0.113 -0.6920 -2.2687 -0.2134
  223MOL0     H30717   3.145   1.136  -0.001  1.9781 -2.5057  3.3085
  223MOL0     H30718   3.211   0.995  -0.096 -0.3339  1.1261 -0.4925
  223MOL0     H30719   2.942   1.121  -0.173 -0.5428 -1.2031  1.2354
  223MOL0     H30720   3.006   0.977  -0.240 -0.8683  2.9269 -3.4484
  223MOL0     H30721   3.035   1.189  -0.368  2.9004  2.0537 -1.0194
  223MOL0     H30722   3.154   1.227  -0.252  0.4233 -0.0611 -0.6452
  223MOL0     H30723   3.128   0.869  -0.382 -0.9461 -0.5325 -0.7094
  223MOL0     H30724   3.369   0.682  -0.443 -0.8945 -0.9739 -1.3620
  223MOL0     H30725   3.465   0.776  -0.556  1.1092 -1.2346  2.5435
  223MOL0     H30726   3.211   0.630  -0.600  1.9184 -0.3204  0.7811
  223MOL0     H30727   3.190   0.795  -0.646 -0.5458 -0.8857 -3.0110
  223MOL0     H30728   3.271   0.655  -0.837  1.4834  2.2854 -3.5500
  223MOL0     H30729   3.353   0.797  -0.806 -0.2458  0.2054  1.6478
  223MOL0     H30730   3.483   0.590  -0.865 -2.4663 -0.3444  0.7595
  223MOL0     H30731   3.540   0.663  -0.724 -1.9982  1.1929  0.5360
  223MOL0     H30732   3.401   0.256  -0.575 -0.4130  1.1023 -1.0188
  223MOL0     H30733   3.640   0.067  -0.415 -1.2710 -1.5631  0.9444
  223MOL0     H30734   3.619  -0.031  -0.566 -0.5812  0.4063 -0.3957
  223MOL0     H30735   3.479   0.052  -0.488  0.5772  1.0324  1.8166
  223MOL0     H30736   3.861  -0.184  -0.671  2.4322  0.6563  2.2794
  223MOL0     H30737   4.002  -0.366  -0.707 -0.9992 -0.8889 -2.2006
  223MOL0     H30738   4.113  -0.545  -0.903  1.1125 -1.3080  0.3418
  223MOL0     H30739   4.120  -0.419  -1.036  1.3679  4.7747  0.2277
  223MOL0     H30740   4.345  -0.502  -1.087 -1.1078  0.0136 -1.6566
  223MOL0     H30741   4.371  -0.589  -0.945  1.5780  0.5828 -1.1300
  223MOL0     H30742   4.308  -0.717  -1.155  1.5955  1.9508 -0.4389
  223MOL0     H30743   4.137  -0.659  -1.134 -0.7045 -2.5370  0.4728
  223MOL0     H30744   4.132  -0.767  -0.920 -4.3964 -3.5264 -1.1877
  223MOL0     H30745   4.285  -0.862  -0.963  0.4417 -0.0120  0.3076
  223MOL0     H30746   4.172  -0.939  -1.178 -1.4013 -1.0377 -0.0783
  223MOL0     H30747   4.147  -1.005  -1.021  0.0580  0.5246  0.1502
  223MOL0     H30748   3.932  -0.954  -1.178  1.3973  2.0129 -3.7406
  223MOL0     H30749   3.968  -0.784  -1.129 -0.5625  0.6643  4.3528
  223MOL0     H30750   3.919  -0.811  -0.918 -3.6337  0.9551  1.0296
  223MOL0     H30751   3.910  -0.994  -0.920 -5.3612 -0.9477 -0.0534
  223MOL0     H30752   3.739  -0.807  -1.068  2.3317 -1.6451 -0.7092
  223MOL0     H30753   3.697  -0.877  -0.903 -1.2165 -3.6683  0.5768
  223MOL0     H30754   4.270  -0.142  -0.941  0.0434  0.3585 -0.4244
  223MOL0     H30755   4.109   0.061  -0.926 -0.2602  0.9501  2.4367
  223MOL0     H30756   3.818   0.305  -0.836  1.6664 -0.1955  2.0671
  223MOL0     H30757   3.657   0.485  -0.844  0.2177 -0.0978  0.4594
  223MOL0     H30758   2.475   0.749   0.186 -0.8562  1.3551 -0.1354
  223MOL0     H30759   2.302   0.563   0.259 -0.2848 -0.2730  0.4106
  223MOL0     H30760   2.257   0.238   0.558 -0.5380  1.0007 -3.4373
  223MOL0     H30761   2.178   0.071   0.719  0.4724 -1.0820 -2.3333
  223MOL0     H30762   1.752   0.053   0.853 -0.9076  1.6388 -0.5582
  223MOL0     H30763   1.739  -0.005   0.685  1.7783  0.0825 -0.4038
  223MOL0     H30764   1.822  -0.233   0.771 -1.4861 -3.1961  1.7026
  223MOL0     H30765   1.652  -0.177   0.812  0.7900 -0.5807  0.4032
  223MOL0     H30766   1.865  -0.124   1.010 -2.4862  1.7981  2.0666
  223MOL0     H30767   1.698  -0.139   1.027  0.1597 -0.1442 -1.6413
  223MOL0     H30768   1.800  -0.353   1.116 -1.0346  0.8221 -0.3223
  223MOL0     H30769   1.895  -0.374   0.962  0.8730  0.0778 -0.7226
  223MOL0     H30770   1.493  -0.498   0.870  0.6012  1.1509 -0.0372
  223MOL0     H30771   1.777   0.218   0.678  0.0827 -0.6396 -1.5525
  223MOL0     H30772   1.849   0.518   0.596 -1.5496 -0.5842  0.2588
  223MOL0     H30773   1.819   0.443   0.431 -2.7107 -0.5524 -0.4078
  223MOL0     H30774   1.732   0.381   0.553  0.4637 -2.2797 -0.2869
  224MOL0     O30775   5.632   0.045   5.814  0.0016 -1.0028 -0.0895
  224MOL0     C30776   5.678  -0.067   5.859  1.2117 -1.3485 -0.2788
  224MOL0     O30777   5.809  -0.110   5.832 -0.0296  0.5045 -0.0031
  224MOL0     C30778   5.904  -0.024   5.778  0.1957 -0.5606 -0.1913
  224MOL0     C30779   5.888   0.003   5.636  0.5722  0.6334 -1.1291
  224MOL0     C30780   5.963   0.106   5.583 -0.8631 -0.5605 -0.4052
  224MOL0     C30781   6.078   0.161   5.658  0.0403 -0.2497 -0.3480
  224MOL0     O30782   6.152   0.261   5.602 -0.2527  0.0685  0.3101
  224MOL0     C30783   6.266   0.290   5.663  0.0103 -0.4226 -0.8955
  224MOL0     C30784   6.340   0.386   5.566  1.1536 -0.1756 -0.5238
  224MOL0     C30785   6.263   0.522   5.566 -0.1449 -0.0680 -0.0019
  224MOL0     C30786   6.172   0.529   5.443 -0.0495 -0.5116  1.0381
  224MOL0     C30787   6.111   0.674   5.420  0.0911  0.3311  0.9285
  224MOL0     C30788   6.061   0.688   5.279  0.0036  0.7653 -0.0378
  224MOL0     C30789   6.020   0.843   5.250  0.1470 -0.0027 -0.3697
  224MOL0     C30790   5.997   0.852   5.099 -0.4603 -0.1856 -0.3244
  224MOL0     N30791   5.874   0.775   5.046 -0.3736 -1.3090  0.0646
  224MOL0     C30792   5.866   0.665   4.961  0.2302 -1.1122 -0.5101
  224MOL0     C30793   5.734   0.657   4.928  0.7657  0.5524  0.3435
  224MOL0     C30794   5.685   0.547   4.844  0.2563  1.4477 -0.1978
  224MOL0     C30795   5.684   0.415   4.920 -0.5044  0.1891  0.1526
  224MOL0     C30796   5.608   0.309   4.840 -0.2936 -0.5586 -0.2286
  224MOL0     C30797   5.611   0.172   4.905 -0.5222  0.1547  0.1697
  224MOL0     O30798   5.746   0.119   4.890 -0.0484  1.0784 -0.3882
  224MOL0     C30799   5.767   0.001   4.964  0.4416 -0.5055  0.2833
  224MOL0     C30800   5.701  -0.029   5.080  0.6039 -0.8464 -0.2279
  224MOL0     C30801   5.750  -0.130   5.162  0.7813  0.9993  0.8082
  224MOL0     C30802   5.671  -0.166   5.277 -0.1717 -0.1776  0.8327
  224MOL0     C30803   5.871  -0.201   5.130 -0.3179  0.2482  0.0328
  224MOL0     C30804   5.938  -0.304   5.220 -0.1538  0.7981  0.8974
  224MOL0     O30805   5.888  -0.304   5.349 -0.4215  0.3149  0.2413
  224MOL0     C30806   5.926  -0.397   5.447 -0.3958 -0.3965 -0.1957
  224MOL0     C30807   5.921  -0.535   5.421 -0.4548 -0.5264 -0.3428
  224MOL0     C30808   5.985  -0.626   5.510  0.0326  0.2202 -0.7389
  224MOL0     C30809   6.028  -0.593   5.648  0.2788  0.6862  0.3896
  224MOL0     O30810   6.089  -0.688   5.726  0.1737  0.1729 -1.2830
  224MOL0     C30811   6.186  -0.644   5.824  0.0336  0.1504  0.0550
  224MOL0     C30812   6.274  -0.773   5.866  0.3138 -0.5673  0.0591
  224MOL0     C30813   6.391  -0.737   5.956  0.2422 -1.2610  0.5811
  224MOL0     C30814   6.349  -0.722   6.101 -0.1149 -0.0608 -0.9298
  224MOL0     C30815   6.476  -0.662   6.173 -0.6017 -0.2800  0.3627
  224MOL0     C30816   6.462  -0.653   6.329 -0.5398  0.3891 -0.5489
  224MOL0     C30817   6.574  -0.573   6.388 -0.3185 -0.1289  0.1972
  224MOL0     C30818   6.672  -0.497   6.298 -0.1546  0.2388  0.4896
  224MOL0    Cl30819   6.810  -0.416   6.389  0.0231 -0.2093  0.0296
  224MOL0     C30820   6.005  -0.458   5.675  0.3879 -1.1394 -0.3387
  224MOL0     C30821   5.953  -0.355   5.581  0.1252  0.6327 -0.3327
  224MOL0     O30822   6.040  -0.364   5.189  0.2216 -0.4599  0.4995
  224MOL0     C30823   5.925  -0.174   5.003  0.3484 -0.0914  0.1239
  224MOL0     C30824   5.870  -0.075   4.921 -0.3872 -0.0247 -0.2677
  224MOL0     N30825   5.667   0.760   4.984  0.1037 -0.1268  0.2029
  224MOL0     N30826   5.747   0.829   5.054 -0.7770 -0.4318  0.0043
  224MOL0     C30827   6.094   0.120   5.791 -0.0044  0.0798  0.0960
  224MOL0     C30828   6.015   0.028   5.848  0.4423  0.6283 -0.6036
  224MOL0     C30829   5.587  -0.147   5.938  0.8266 -0.5607 -0.2667
  224MOL0     C30830   5.457  -0.108   5.945  0.5594  0.0397 -0.1914
  224MOL0     C30831   5.353  -0.180   6.017 -0.0553  0.1052 -0.8490
  224MOL0     C30832   5.370  -0.309   6.067 -0.3104  0.6430 -0.5813
  224MOL0     O30833   5.286  -0.408   6.116 -0.3677  0.2701 -0.2956
  224MOL0     C30834   5.172  -0.360   6.196 -0.4247  0.6333 -0.4259
  224MOL0     C30835   5.048  -0.358   6.111  0.3130 -0.1097  0.1241
  224MOL0     C30836   4.965  -0.234   6.149 -0.7165  0.3991  0.1627
  224MOL0     C30837   4.868  -0.185   6.033  0.0550  0.0971 -0.2581
  224MOL0     C30838   4.927  -0.145   5.904 -0.2739  0.3937  0.2524
  224MOL0     C30839   4.989  -0.110   5.814 -0.3654  0.3684  0.8356
  224MOL0     C30840   5.511  -0.343   6.063 -0.0146  0.6601 -0.6125
  224MOL0     C30841   5.611  -0.267   6.005  0.2005 -0.0324 -0.6809
  224MOL0     C30842   5.756  -0.321   6.018  0.1481 -0.1106 -0.4964
  224MOL0     H30843   5.807  -0.042   5.579  1.2403  0.6398 -2.1109
  224MOL0     H30844   5.947   0.134   5.480  0.5969 -0.0722 -0.5331
  224MOL0     H30845   6.326   0.205   5.695  1.9568  1.4977  0.9304
  224MOL0     H30846   6.252   0.333   5.762  0.6195 -1.3613 -0.3914
  224MOL0     H30847   6.439   0.407   5.607  1.2940  0.2039 -1.0564
  224MOL0     H30848   6.352   0.336   5.470 -0.1834 -0.1391 -0.7276
  224MOL0     H30849   6.196   0.536   5.651 -1.1493 -2.8132 -0.2529
  224MOL0     H30850   6.335   0.603   5.582 -0.8993  0.6078 -0.0134
  224MOL0     H30851   6.231   0.496   5.357  1.1593  0.9722  1.2537
  224MOL0     H30852   6.093   0.454   5.443 -0.2181 -0.3351  0.7120
  224MOL0     H30853   6.187   0.753   5.414 -1.4995  2.0992  2.4639
  224MOL0     H30854   6.028   0.697   5.489 -1.1452  0.7114 -0.6275
  224MOL0     H30855   6.132   0.665   5.200  0.3380  2.2244 -0.1846
  224MOL0     H30856   5.972   0.624   5.284 -0.0344  0.8347  0.2031
  224MOL0     H30857   6.087   0.924   5.281 -1.7167  1.5163 -0.0718
  224MOL0     H30858   5.925   0.875   5.296 -0.7707 -2.1153 -0.6936
  224MOL0     H30859   5.981   0.953   5.062 -1.9802 -0.1456  0.3602
  224MOL0     H30860   6.079   0.813   5.038 -0.3413 -1.5753  0.6759
  224MOL0     H30861   5.939   0.595   4.920  0.2078 -0.2166 -2.1507
  224MOL0     H30862   5.755   0.527   4.762 -1.2445 -1.9252 -0.8340
  224MOL0     H30863   5.585   0.573   4.809  0.5974  4.4488  0.8227
  224MOL0     H30864   5.788   0.381   4.928 -0.8058 -1.4476 -2.0825
  224MOL0     H30865   5.638   0.430   5.018 -1.3064  1.3577 -0.3859
  224MOL0     H30866   5.508   0.351   4.826 -0.9272 -2.3854 -1.6625
  224MOL0     H30867   5.650   0.297   4.740  2.3127 -3.4813  1.0478
  224MOL0     H30868   5.580   0.187   5.009 -1.1295  0.5480 -0.0606
  224MOL0     H30869   5.542   0.098   4.865  0.5062  0.2263 -1.8620
  224MOL0     H30870   5.622   0.032   5.122  0.8422 -1.0352  0.5160
  224MOL0     H30871   5.649  -0.273   5.273 -0.1962 -0.2399  2.2303
  224MOL0     H30872   5.575  -0.114   5.283  2.1736  4.6050  2.5182
  224MOL0     H30873   5.715  -0.143   5.374 -0.1358 -0.4249  0.8766
  224MOL0     H30874   5.885  -0.573   5.326  1.3761  1.7835 -2.0949
  224MOL0     H30875   6.010  -0.725   5.473  3.3670  0.4700  0.4795
  224MOL0     H30876   6.251  -0.566   5.785 -1.7832  1.5792 -0.2737
  224MOL0     H30877   6.146  -0.597   5.914 -0.9665 -2.9463  1.3538
  224MOL0     H30878   6.206  -0.843   5.915  0.8867 -1.3532 -0.2271
  224MOL0     H30879   6.308  -0.823   5.774  2.5623  0.5844  0.1787
  224MOL0     H30880   6.424  -0.637   5.923 -0.9898 -1.4164 -1.2847
  224MOL0     H30881   6.464  -0.818   5.957  0.0473 -1.4508 -0.1676
  224MOL0     H30882   6.325  -0.819   6.146 -1.4139  1.3726  1.7331
  224MOL0     H30883   6.269  -0.650   6.116  0.8595  0.7558  0.5931
  224MOL0     H30884   6.566  -0.719   6.147  1.3714  2.3505  1.0092
  224MOL0     H30885   6.496  -0.563   6.132 -0.1785 -0.8556 -0.8959
  224MOL0     H30886   6.464  -0.755   6.370  2.0528  0.9603  0.9294
  224MOL0     H30887   6.368  -0.602   6.353 -0.1571  1.6987 -1.7220
  224MOL0     H30888   6.638  -0.642   6.442 -0.5964 -2.3854 -2.1466
  224MOL0     H30889   6.534  -0.498   6.457 -1.0418 -1.0693  0.8260
  224MOL0     H30890   6.626  -0.410   6.249  0.6712  0.5592  0.2754
  224MOL0     H30891   6.721  -0.569   6.233  0.3904 -3.0532  4.1536
  224MOL0     H30892   6.038  -0.412   5.767  4.9501  2.3016 -3.2207
  224MOL0     H30893   5.952  -0.251   5.614  1.3935  0.0381  1.7212
  224MOL0     H30894   6.015  -0.223   4.968  1.7885  0.6627  2.5216
  224MOL0     H30895   5.929  -0.051   4.833 -1.9307 -0.9911 -1.6340
  224MOL0     H30896   6.161   0.157   5.867  1.3920  0.7776 -1.4168
  224MOL0     H30897   6.027  -0.008   5.950 -2.4700 -3.9976 -1.5840
  224MOL0     H30898   5.429  -0.018   5.891  1.0679  0.4662  0.2449
  224MOL0     H30899   5.249  -0.149   6.007 -0.7353 -1.0153  1.8942
  224MOL0     H30900   5.163  -0.404   6.296  0.1679 -3.3909 -1.9428
  224MOL0     H30901   5.192  -0.257   6.226 -1.2577  0.1638  1.9066
  224MOL0     H30902   4.989  -0.449   6.125 -0.7247  0.6063  0.5893
  224MOL0     H30903   5.083  -0.348   6.008 -0.7778  0.4255 -0.2144
  224MOL0     H30904   4.913  -0.258   6.243 -1.0297 -0.2917 -0.1721
  224MOL0     H30905   5.025  -0.146   6.173  0.3254 -0.2718  0.1041
  224MOL0     H30906   4.809  -0.101   6.072  0.5478  2.6725 -4.4025
  224MOL0     H30907   4.790  -0.259   6.015  0.3932  0.0148 -1.5102
  224MOL0     H30908   5.058  -0.081   5.737 -1.2590  1.8073  0.5411
  224MOL0     H30909   5.541  -0.442   6.098  0.6912  1.8237  2.3720
  224MOL0     H30910   5.762  -0.394   6.100  2.5928 -0.1187 -0.5922
  224MOL0     H30911   5.796  -0.361   5.925 -1.1556  1.9335 -2.0206
  224MOL0     H30912   5.823  -0.238   6.043  1.4037 -1.1114 -0.4251
  225MOL0     O30913   3.540   5.519   9.723 -0.2231 -0.2126  1.0663
  225MOL0     C30914   3.444   5.522   9.654  0.4722 -0.3084 -1.0801
  225MOL0     O30915   3.422   5.434   9.561  0.4910  0.2389  0.6472
  225MOL0     C30916   3.502   5.331   9.529 -0.5044  0.5353  0.0093
  225MOL0     C30917   3.618   5.348   9.451 -0.3227  0.5268  0.5292
  225MOL0     C30918   3.695   5.232   9.418  0.0954  0.7174  0.7094
  225MOL0     C30919   3.644   5.102   9.435  0.6652 -0.1211 -0.3822
  225MOL0     O30920   3.709   4.989   9.390  0.3042 -0.2114  0.1245
  225MOL0     C30921   3.824   4.996   9.305  0.5434  0.1774  0.7383
  225MOL0     C30922   3.794   5.014   9.157 -0.2778  0.4510  0.5096
  225MOL0     C30923   3.708   4.896   9.108 -0.0676 -0.3744 -0.3197
  225MOL0     C30924   3.673   4.927   8.958  0.2938 -0.2169 -0.3292
  225MOL0     C30925   3.572   4.828   8.903  0.6622 -0.5888  0.7502
  225MOL0     C30926   3.631   4.687   8.863  0.1949  0.2929 -0.1194
  225MOL0     C30927   3.516   4.588   8.840  0.2550  0.1787 -0.3759
  225MOL0     C30928   3.413   4.635   8.735  0.6081 -0.0179  0.6537
  225MOL0     N30929   3.291   4.550   8.729  0.0519  0.0132  0.8925
  225MOL0     C30930   3.257   4.488   8.609 -0.2243  1.1132 -0.3863
  225MOL0     C30931   3.176   4.386   8.653  0.0962  0.3252  0.7881
  225MOL0     C30932   3.110   4.307   8.546  0.4919  0.4001  0.0344
  225MOL0     C30933   3.076   4.167   8.604 -0.1703  0.5087 -0.9200
  225MOL0     C30934   2.961   4.166   8.707  0.0001  0.3105 -0.0632
  225MOL0     C30935   2.936   4.016   8.744  0.0399 -0.3930 -0.2326
  225MOL0     O30936   2.841   4.007   8.851 -0.9490  0.6543  0.2607
  225MOL0     C30937   2.830   3.896   8.935  0.5697 -0.6254 -0.6020
  225MOL0     C30938   2.753   3.909   9.055 -0.3522 -0.1739 -0.7806
  225MOL0     C30939   2.740   3.800   9.149 -0.5236  0.1234  0.3491
  225MOL0     C30940   2.703   3.836   9.295  0.1918 -0.2568  0.3849
  225MOL0     C30941   2.797   3.672   9.110  0.5459 -0.1549 -0.8118
  225MOL0     C30942   2.758   3.552   9.193 -0.7146 -0.1604  0.4769
  225MOL0     O30943   2.851   3.452   9.196  0.3825 -0.1546 -0.0872
  225MOL0     C30944   2.828   3.348   9.276 -0.5355 -0.0595  0.3767
  225MOL0     C30945   2.740   3.251   9.236  0.8222 -0.8667  0.7202
  225MOL0     C30946   2.693   3.147   9.315 -0.0948 -0.5285 -0.2324
  225MOL0     C30947   2.748   3.140   9.448 -0.3349  0.1214  0.6474
  225MOL0     O30948   2.709   3.034   9.523  0.5126  0.7063  0.2936
  225MOL0     C30949   2.785   2.989   9.640  0.2249 -0.1692 -0.0645
  225MOL0     C30950   2.747   2.840   9.674 -0.2041  0.3896  0.5239
  225MOL0     C30951   2.830   2.783   9.788  0.1772  0.1036  0.0204
  225MOL0     C30952   2.981   2.806   9.786 -1.0778 -0.0486 -0.0094
  225MOL0     C30953   3.049   2.710   9.884  0.7783  1.0443 -0.9370
  225MOL0     C30954   3.197   2.679   9.841 -0.6706 -0.4728 -0.2226
  225MOL0     C30955   3.271   2.562   9.921  0.0508  0.4907 -0.1571
  225MOL0     C30956   3.310   2.602  10.071 -0.2261  0.8754  0.1998
  225MOL0    Cl30957   3.439   2.729  10.092  0.5297  0.1708  0.0146
  225MOL0     C30958   2.839   3.244   9.490 -0.1624 -0.4534  1.2082
  225MOL0     C30959   2.881   3.348   9.401  0.1347 -0.2601 -0.8705
  225MOL0     O30960   2.648   3.546   9.244 -0.4051  0.1269 -0.0098
  225MOL0     C30961   2.866   3.660   8.995 -0.2328 -0.5720  0.7924
  225MOL0     C30962   2.889   3.767   8.909 -0.9464 -0.5977  0.1445
  225MOL0     N30963   3.140   4.405   8.792  0.6044  0.1257 -0.3192
  225MOL0     N30964   3.213   4.502   8.831 -0.0451  0.2429 -0.2085
  225MOL0     C30965   3.531   5.085   9.514  0.4742  0.6772  0.1243
  225MOL0     C30966   3.455   5.202   9.553 -0.9841  0.7759 -0.4808
  225MOL0     C30967   3.331   5.610   9.694  0.6952 -0.0060  0.2246
  225MOL0     C30968   3.215   5.603   9.614  0.3779 -0.1045  0.8206
  225MOL0     C30969   3.092   5.670   9.649 -0.2688  0.7491  0.6117
  225MOL0     C30970   3.086   5.748   9.757 -0.5230 -0.0412  0.0469
  225MOL0     O30971   2.961   5.802   9.785 -0.3449 -0.1178  0.1560
  225MOL0     C30972   2.948   5.904   9.888 -0.3893  0.7449 -0.2834
  225MOL0     C30973   2.803   5.936   9.944 -0.2023  0.6568  0.6727
  225MOL0     C30974   2.780   6.058  10.028 -0.7966 -0.2579 -0.4072
  225MOL0     C30975   2.790   6.182   9.944 -0.4951 -1.0877  0.1184
  225MOL0     C30976   2.737   6.291  10.025  0.0819 -0.2354  0.8079
  225MOL0     C30977   2.688   6.384  10.086  0.1681  1.0557 -0.3106
  225MOL0     C30978   3.207   5.775   9.823 -0.4834 -0.3420  0.0798
  225MOL0     C30979   3.331   5.703   9.797  0.3086  0.0538  0.1477
  225MOL0     C30980   3.446   5.751   9.879  0.1524  0.0024 -0.5760
  225MOL0     H30981   3.648   5.449   9.426  3.0724 -0.4637  0.1434
  225MOL0     H30982   3.793   5.243   9.372 -0.6093  0.2097 -0.9937
  225MOL0     H30983   3.889   4.908   9.316  0.8640  0.6743  3.6435
  225MOL0     H30984   3.891   5.074   9.343  1.7820 -0.5546  0.1478
  225MOL0     H30985   3.730   5.101   9.148 -2.1708 -1.1195 -3.1879
  225MOL0     H30986   3.885   5.030   9.098 -2.7034  2.3453 -3.1082
  225MOL0     H30987   3.776   4.811   9.116  1.8137  1.2137  2.1441
  225MOL0     H30988   3.615   4.876   9.163 -1.1133  1.8964 -1.0948
  225MOL0     H30989   3.620   5.022   8.948  2.6507  1.4730  1.8248
  225MOL0     H30990   3.764   4.925   8.898  1.1432 -1.1973  0.9493
  225MOL0     H30991   3.509   4.869   8.823  5.4233  2.0731 -2.0779
  225MOL0     H30992   3.505   4.813   8.988  0.7294  1.0590  1.1174
  225MOL0     H30993   3.695   4.696   8.774  0.8089  4.1976  0.5685
  225MOL0     H30994   3.701   4.650   8.938  0.5263 -1.5488 -1.2613
  225MOL0     H30995   3.472   4.562   8.937 -4.6669 -0.7274 -2.5223
  225MOL0     H30996   3.545   4.493   8.794 -2.9424  0.0340 -2.4618
  225MOL0     H30997   3.369   4.729   8.770 -0.7134  0.0737 -1.1072
  225MOL0     H30998   3.459   4.659   8.639 -1.2109 -1.8080 -0.7734
  225MOL0     H30999   3.291   4.514   8.510 -0.2865  3.7046  0.2160
  225MOL0     H31000   3.172   4.292   8.457 -0.7455 -0.4628 -0.7098
  225MOL0     H31001   3.021   4.366   8.523  0.1233  0.2845  1.0833
  225MOL0     H31002   3.050   4.095   8.525 -0.9668 -2.2231  1.6480
  225MOL0     H31003   3.162   4.115   8.646 -0.0368  1.1802 -0.3521
  225MOL0     H31004   2.982   4.213   8.803 -2.2940 -1.3285  1.3605
  225MOL0     H31005   2.865   4.205   8.672 -0.1092  0.1877  0.0990
  225MOL0     H31006   2.882   3.972   8.659 -1.0087  1.5245 -0.6343
  225MOL0     H31007   3.026   3.958   8.765 -0.8795 -1.9514 -0.4210
  225MOL0     H31008   2.710   4.006   9.079 -0.4295  0.3262 -2.7973
  225MOL0     H31009   2.611   3.896   9.298  1.9209  2.6604 -0.7502
  225MOL0     H31010   2.786   3.893   9.336  0.3125 -0.0071 -0.2085
  225MOL0     H31011   2.680   3.753   9.363 -1.2342  0.4717  0.8503
  225MOL0     H31012   2.701   3.264   9.136  0.2180 -2.6692  0.6674
  225MOL0     H31013   2.634   3.062   9.281  0.2738 -0.5320 -0.8851
  225MOL0     H31014   2.889   3.003   9.610  0.6887 -0.0289  1.5071
  225MOL0     H31015   2.776   3.054   9.728  2.3310 -0.6603  0.5823
  225MOL0     H31016   2.642   2.849   9.702  0.0347  0.4067  1.4357
  225MOL0     H31017   2.758   2.777   9.585 -1.0833 -1.5998  1.7406
  225MOL0     H31018   2.808   2.676   9.798 -0.5498  0.4057  2.2076
  225MOL0     H31019   2.780   2.818   9.879  0.2360 -0.1115  0.1357
  225MOL0     H31020   3.004   2.910   9.809  1.1201  0.1534 -2.5239
  225MOL0     H31021   3.019   2.793   9.684 -0.2832 -1.5558  0.4598
  225MOL0     H31022   3.043   2.757   9.982 -1.2891  1.7030 -1.3274
  225MOL0     H31023   3.006   2.609   9.892  1.5397  0.8507  1.1271
  225MOL0     H31024   3.263   2.765   9.858  2.1861 -2.5836  0.2095
  225MOL0     H31025   3.187   2.656   9.735  1.1270 -0.0563 -0.5089
  225MOL0     H31026   3.362   2.537   9.866 -0.0685 -1.8706  0.5959
  225MOL0     H31027   3.197   2.482   9.916 -2.0270  2.3472 -1.1020
  225MOL0     H31028   3.347   2.514  10.125 -3.2331 -0.1536  0.7920
  225MOL0     H31029   3.216   2.642  10.110 -1.2228 -0.7248 -0.4859
  225MOL0     H31030   2.861   3.238   9.596 -1.4294  1.0088  1.5927
  225MOL0     H31031   2.948   3.428   9.431  0.5989 -0.9690  0.0557
  225MOL0     H31032   2.904   3.561   8.971  0.2853 -0.6796  2.0201
  225MOL0     H31033   2.939   3.739   8.817  0.9677 -2.5606  1.6558
  225MOL0     H31034   3.514   4.980   9.533  6.4971 -1.0945 -1.9369
  225MOL0     H31035   3.363   5.177   9.606 -0.6826 -1.6915 -1.0075
  225MOL0     H31036   3.206   5.552   9.519 -0.5335  4.0828 -1.5669
  225MOL0     H31037   2.999   5.664   9.592  0.3769  0.9029 -0.4867
  225MOL0     H31038   3.004   5.871   9.975 -2.4469 -1.6190  0.2552
  225MOL0     H31039   2.985   5.996   9.841  0.3537 -0.1623 -1.5380
  225MOL0     H31040   2.780   5.851  10.010 -2.2606  0.3633 -0.3218
  225MOL0     H31041   2.737   5.929   9.857 -0.6566  0.5240  1.0214
  225MOL0     H31042   2.678   6.057  10.067 -1.4034 -2.9295 -1.8601
  225MOL0     H31043   2.850   6.053  10.112  0.6620  0.3224 -1.5468
  225MOL0     H31044   2.720   6.174   9.860  0.4090 -1.8977 -0.5851
  225MOL0     H31045   2.889   6.209   9.906 -0.5782  3.5229  2.5303
  225MOL0     H31046   2.643   6.446  10.162  0.3823  1.4230 -0.4842
  225MOL0     H31047   3.207   5.854   9.897  1.0123 -0.1747 -0.0622
  225MOL0     H31048   3.519   5.796   9.812 -0.1103  0.3431 -0.6366
  225MOL0     H31049   3.415   5.839   9.937  0.6752  0.3083 -0.7598
  225MOL0     H31050   3.495   5.667   9.931  1.6835  0.8980 -0.5206
  226MOL0     O31051   9.155   6.412   3.043 -0.0105  0.0438  0.1575
  226MOL0     C31052   9.167   6.287   3.038  0.9026 -0.1818 -0.0167
  226MOL0     O31053   9.066   6.198   3.075  0.3262  0.6105  0.3070
  226MOL0     C31054   8.950   6.256   3.112 -1.0260  0.2153  0.1735
  226MOL0     C31055   8.896   6.252   3.243  0.1702  0.3955 -0.1700
  226MOL0     C31056   8.777   6.315   3.273  0.0799  1.4683  0.5792
  226MOL0     C31057   8.710   6.384   3.170  0.7272  0.6822  0.0985
  226MOL0     O31058   8.592   6.451   3.199 -0.5928  0.7190  0.7556
  226MOL0     C31059   8.521   6.425   3.321 -1.7695  0.1334  0.1926
  226MOL0     C31060   8.381   6.502   3.326 -1.0349  0.0962 -0.3591
  226MOL0     C31061   8.298   6.471   3.454 -0.1323 -0.2459 -0.7643
  226MOL0     C31062   8.177   6.558   3.455  0.2202 -0.1911 -0.0477
  226MOL0     C31063   8.074   6.523   3.565 -0.1257  0.6933 -1.2051
  226MOL0     C31064   7.957   6.618   3.586  1.2273 -0.1188  0.1271
  226MOL0     C31065   8.007   6.759   3.611  0.2476 -0.7634 -0.5284
  226MOL0     C31066   7.894   6.846   3.665  0.1588  0.7774 -0.1595
  226MOL0     N31067   7.914   6.851   3.811  0.1242 -1.0945  0.1693
  226MOL0     C31068   7.925   6.971   3.878 -0.1618  0.5351  0.0758
  226MOL0     C31069   7.943   6.934   4.014  0.3895 -0.2552  0.3139
  226MOL0     C31070   7.962   7.039   4.122 -0.3325 -0.1384 -0.2178
  226MOL0     C31071   7.969   6.998   4.272 -0.4627 -0.1355 -0.3810
  226MOL0     C31072   7.956   7.120   4.377  0.6848  0.3771 -0.2168
  226MOL0     C31073   7.884   7.071   4.505 -0.8160 -1.0433 -0.7070
  226MOL0     O31074   7.912   7.144   4.623  0.1127  0.4506 -0.0226
  226MOL0     C31075   7.901   7.084   4.744  0.3633 -0.2263  0.1852
  226MOL0     C31076   7.877   6.944   4.772 -1.0275 -0.5485  0.2706
  226MOL0     C31077   7.865   6.885   4.897  0.4204 -0.3148 -0.4001
  226MOL0     C31078   7.863   6.734   4.916 -0.4418  0.7819  0.1356
  226MOL0     C31079   7.867   6.979   5.008  0.7358  0.4531  0.3714
  226MOL0     C31080   7.834   6.944   5.153 -0.0442  1.1076 -0.0088
  226MOL0     O31081   7.864   7.041   5.242  0.3595 -0.3256  0.2082
  226MOL0     C31082   7.821   7.059   5.373 -0.7093  0.1302 -0.4596
  226MOL0     C31083   7.895   7.137   5.466 -1.2844 -0.3861 -0.0353
  226MOL0     C31084   7.866   7.148   5.603 -0.7185  0.8220 -0.0350
  226MOL0     C31085   7.748   7.074   5.645 -0.4180 -0.5054  0.0665
  226MOL0     O31086   7.706   7.080   5.777 -0.3478  0.0075 -0.2582
  226MOL0     C31087   7.748   7.186   5.868  0.1085 -0.8455 -0.4639
  226MOL0     C31088   7.679   7.321   5.836 -0.0025 -0.2413  0.5661
  226MOL0     C31089   7.534   7.331   5.870  0.7757 -0.0730  0.8768
  226MOL0     C31090   7.451   7.198   5.877 -0.4386  0.3771  1.0320
  226MOL0     C31091   7.306   7.215   5.916  0.4006  0.0478  0.8333
  226MOL0     C31092   7.301   7.232   6.064 -0.4644 -1.6292 -1.0024
  226MOL0     C31093   7.163   7.262   6.123 -0.4384 -0.8320  0.1195
  226MOL0     C31094   7.155   7.212   6.276 -0.8088  0.8773  0.2272
  226MOL0    Cl31095   6.991   7.236   6.329 -0.6013 -0.2388 -0.3633
  226MOL0     C31096   7.679   6.989   5.561 -0.3781  0.2974  0.0274
  226MOL0     C31097   7.710   6.991   5.423  0.1015  0.2025  0.0252
  226MOL0     O31098   7.774   6.838   5.182  0.1601 -0.0695  0.0838
  226MOL0     C31099   7.864   7.114   4.985 -0.4713 -0.5368  0.4880
  226MOL0     C31100   7.889   7.166   4.857  0.7266  0.5379  0.5723
  226MOL0     N31101   7.944   6.790   4.013  0.2144  0.0681 -0.7705
  226MOL0     N31102   7.915   6.743   3.896 -0.3685 -0.4288  0.0152
  226MOL0     C31103   8.758   6.386   3.044 -0.6654  0.5536  0.4783
  226MOL0     C31104   8.875   6.314   3.013 -0.0885  0.0111  0.1810
  226MOL0     C31105   9.288   6.219   3.002 -0.1660 -0.7767 -1.2663
  226MOL0     C31106   9.317   6.091   3.061 -0.3219 -0.2982 -0.0855
  226MOL0     C31107   9.436   6.027   3.044  0.0467 -0.9656  0.7627
  226MOL0     C31108   9.536   6.079   2.952 -0.4040  0.0161 -0.7894
  226MOL0     O31109   9.643   6.015   2.904 -0.5587  0.1884 -0.5390
  226MOL0     C31110   9.616   5.900   2.826 -0.8108  0.6409 -0.0974
  226MOL0     C31111   9.587   5.944   2.682  0.2324 -0.2679 -0.9289
  226MOL0     C31112   9.552   5.839   2.586  0.5026 -0.3197  0.6196
  226MOL0     C31113   9.535   5.900   2.441  0.1515 -0.8940  0.1350
  226MOL0     C31114   9.660   5.955   2.379 -0.3980 -0.2410 -0.3163
  226MOL0     C31115   9.753   5.994   2.311  0.0147 -0.0217 -0.3173
  226MOL0     C31116   9.503   6.204   2.887  0.4004  0.6340  0.0035
  226MOL0     C31117   9.387   6.271   2.918 -0.0040 -0.6271  0.2835
  226MOL0     C31118   9.376   6.401   2.841 -0.6498 -0.5478 -0.3162
  226MOL0     H31119   8.957   6.196   3.313 -0.0664 -0.7338 -0.8363
  226MOL0     H31120   8.736   6.307   3.373 -2.5217  1.8132 -0.3773
  226MOL0     H31121   8.584   6.455   3.407  0.4287  1.6494 -1.8010
  226MOL0     H31122   8.514   6.317   3.337 -2.3808  0.0604 -0.5360
  226MOL0     H31123   8.394   6.611   3.318 -1.3612  0.2722  1.2511
  226MOL0     H31124   8.328   6.473   3.235 -0.0710  1.4353 -1.3913
  226MOL0     H31125   8.279   6.364   3.451 -0.6055 -0.4122  3.0451
  226MOL0     H31126   8.366   6.478   3.539  1.6546  0.8167 -2.2012
  226MOL0     H31127   8.205   6.662   3.475 -1.5405 -0.0552  2.1350
  226MOL0     H31128   8.118   6.554   3.363 -0.1024  1.8748  0.0165
  226MOL0     H31129   8.133   6.517   3.657 -1.2356 -0.2049 -0.5215
  226MOL0     H31130   8.036   6.422   3.547 -0.0935  0.3927  0.2460
  226MOL0     H31131   7.896   6.623   3.495 -0.5445 -1.8135  1.1533
  226MOL0     H31132   7.890   6.586   3.666 -1.3927  0.9065 -1.4972
  226MOL0     H31133   8.030   6.800   3.512 -0.4811 -0.3861 -0.5461
  226MOL0     H31134   8.102   6.763   3.665 -0.2472 -0.4352  0.3317
  226MOL0     H31135   7.899   6.950   3.630  3.4033  0.1287 -1.9801
  226MOL0     H31136   7.794   6.806   3.649  0.5762  0.9278 -3.9303
  226MOL0     H31137   7.915   7.067   3.828 -1.6743  0.6110  0.4762
  226MOL0     H31138   7.882   7.115   4.128  0.6029  0.7831  1.8065
  226MOL0     H31139   8.052   7.098   4.106 -0.5599  0.2797 -0.0131
  226MOL0     H31140   7.885   6.932   4.293 -2.3924  1.6689 -1.9609
  226MOL0     H31141   8.068   6.952   4.283 -0.1096  0.5123 -0.7420
  226MOL0     H31142   8.060   7.148   4.392 -0.3487  6.4888 -1.6514
  226MOL0     H31143   7.901   7.205   4.334  0.7134  0.4725 -0.0655
  226MOL0     H31144   7.775   7.059   4.499 -1.0434 -0.5652  1.6373
  226MOL0     H31145   7.916   6.967   4.518 -1.1275 -1.2050 -1.1971
  226MOL0     H31146   7.870   6.870   4.692  0.5611 -3.2225  2.4110
  226MOL0     H31147   7.950   6.700   4.972 -2.0760 -3.5499  0.3911
  226MOL0     H31148   7.859   6.676   4.824  1.9888 -1.5894  1.4080
  226MOL0     H31149   7.777   6.708   4.979  0.3706 -1.7577  0.2680
  226MOL0     H31150   7.973   7.207   5.434 -1.6411  1.6253  3.0822
  226MOL0     H31151   7.927   7.205   5.672  1.6166  0.1132 -1.4177
  226MOL0     H31152   7.723   7.160   5.971  2.2289  0.9340  0.5849
  226MOL0     H31153   7.857   7.194   5.859  0.0955  2.9452  1.0127
  226MOL0     H31154   7.723   7.410   5.881 -0.6984 -0.0483  0.8787
  226MOL0     H31155   7.696   7.337   5.729  1.9195 -3.7166  0.2168
  226MOL0     H31156   7.476   7.398   5.806  0.8525 -2.0710 -1.4191
  226MOL0     H31157   7.529   7.382   5.966 -0.3495 -1.6064  1.6898
  226MOL0     H31158   7.499   7.114   5.929  0.6690  0.4394  0.1591
  226MOL0     H31159   7.443   7.151   5.778  1.6349 -1.0167  1.4572
  226MOL0     H31160   7.259   7.302   5.869  0.3435 -1.0181 -1.2186
  226MOL0     H31161   7.250   7.128   5.882  2.1864 -1.1521  0.8330
  226MOL0     H31162   7.359   7.322   6.089 -4.8381  1.4632 -0.9480
  226MOL0     H31163   7.353   7.155   6.122  1.2050  0.1768  0.0290
  226MOL0     H31164   7.082   7.219   6.063 -0.7277  2.3054 -1.9545
  226MOL0     H31165   7.159   7.371   6.122 -3.4628 -0.7717  2.6607
  226MOL0     H31166   7.233   7.271   6.325  1.8923 -1.7987 -0.5066
  226MOL0     H31167   7.188   7.107   6.282 -0.1796  1.0456 -0.1487
  226MOL0     H31168   7.593   6.930   5.593  0.3373  0.0946  1.6549
  226MOL0     H31169   7.653   6.932   5.352  2.2969 -1.6243 -0.3269
  226MOL0     H31170   7.851   7.188   5.063 -1.1945  0.7328 -0.8011
  226MOL0     H31171   7.905   7.273   4.845 -0.9591  0.8313  0.7154
  226MOL0     H31172   8.696   6.437   2.970 -0.6428  1.1986  0.8997
  226MOL0     H31173   8.912   6.301   2.912  1.1679 -0.7421  0.7034
  226MOL0     H31174   9.250   6.038   3.128 -0.8844 -0.0010 -0.4073
  226MOL0     H31175   9.437   5.929   3.091  1.6821 -0.0741  2.7272
  226MOL0     H31176   9.705   5.836   2.827  1.3192  3.2975  2.8688
  226MOL0     H31177   9.530   5.854   2.876 -1.3552  3.1139  1.4266
  226MOL0     H31178   9.671   6.004   2.644  0.1371  0.3780 -0.1423
  226MOL0     H31179   9.506   6.017   2.688  0.4083 -0.1547  0.2599
  226MOL0     H31180   9.628   5.762   2.601 -0.7603 -2.1553 -1.7179
  226MOL0     H31181   9.454   5.796   2.607 -0.5053  1.6613  0.3026
  226MOL0     H31182   9.456   5.974   2.458  1.8669  0.4792  2.9856
  226MOL0     H31183   9.508   5.817   2.375  1.0114 -0.2912 -1.0056
  226MOL0     H31184   9.838   6.045   2.270 -0.2040  1.0768  0.5405
  226MOL0     H31185   9.578   6.238   2.816  0.1777 -0.4129 -0.7640
  226MOL0     H31186   9.338   6.481   2.905  2.0632  0.0347  0.7277
  226MOL0     H31187   9.466   6.438   2.791 -1.4373 -1.1665 -2.2833
  226MOL0     H31188   9.299   6.400   2.764  2.0855  1.1619 -3.2809
  227MOL0     O31189   6.607   6.593   3.540  0.4402  0.1703  0.4793
  227MOL0     C31190   6.566   6.666   3.445 -1.3259  0.2312  0.3268
  227MOL0     O31191   6.649   6.760   3.390 -0.0393 -0.3082 -0.4724
  227MOL0     C31192   6.780   6.782   3.432  0.5516  0.0652 -0.0220
  227MOL0     C31193   6.818   6.911   3.473 -0.0613  0.1509 -0.5398
  227MOL0     C31194   6.947   6.932   3.516  0.0156 -0.9092 -0.1005
  227MOL0     C31195   7.038   6.828   3.541 -0.3097 -0.4105  0.1517
  227MOL0     O31196   7.162   6.872   3.596  1.3260  0.2156 -0.4627
  227MOL0     C31197   7.255   6.775   3.651  0.4634  1.0167 -0.6558
  227MOL0     C31198   7.348   6.746   3.534  1.0391 -0.5141 -0.2856
  227MOL0     C31199   7.409   6.861   3.456 -0.6920 -0.0483  0.0473
  227MOL0     C31200   7.507   6.953   3.529 -0.7022  0.3895  0.0772
  227MOL0     C31201   7.556   7.068   3.444  0.5657 -0.4466 -0.6583
  227MOL0     C31202   7.452   7.163   3.388  0.6400  0.7613  0.3800
  227MOL0     C31203   7.353   7.234   3.481 -0.2032  0.3303 -0.2891
  227MOL0     C31204   7.269   7.336   3.399  0.1478  0.0936 -0.0419
  227MOL0     N31205   7.163   7.258   3.337  0.4414  0.0744  0.6700
  227MOL0     C31206   7.033   7.281   3.365  1.0433 -0.2824 -0.1947
  227MOL0     C31207   6.969   7.215   3.258  0.2528  0.0231 -1.2498
  227MOL0     C31208   6.815   7.199   3.250 -0.3040 -0.2834 -0.0002
  227MOL0     C31209   6.746   7.281   3.135  0.6160 -0.0798 -0.2943
  227MOL0     C31210   6.591   7.245   3.115 -0.2214 -0.0108 -0.5561
  227MOL0     C31211   6.536   7.310   2.987  0.1545  0.1265 -0.1589
  227MOL0     O31212   6.578   7.448   2.982  0.3121 -0.0406 -0.0050
  227MOL0     C31213   6.516   7.549   3.045  0.5639  0.2737 -0.0431
  227MOL0     C31214   6.384   7.544   3.084  0.0020 -0.0169 -0.0459
  227MOL0     C31215   6.319   7.641   3.154  0.4237 -0.1438 -0.6574
  227MOL0     C31216   6.175   7.622   3.195 -0.7061  0.7128 -0.1627
  227MOL0     C31217   6.400   7.756   3.198  0.3325  0.6113  0.5223
  227MOL0     C31218   6.340   7.863   3.283  0.3830 -0.2432 -0.1385
  227MOL0     O31219   6.221   7.849   3.336  0.7532 -0.3348  0.0003
  227MOL0     C31220   6.162   7.943   3.411 -0.3811 -0.1350  0.0771
  227MOL0     C31221   6.083   7.894   3.522 -0.3698 -0.8949 -1.2224
  227MOL0     C31222   5.999   7.982   3.593  1.0203 -0.0645 -0.2615
  227MOL0     C31223   6.000   8.118   3.567  0.7188  0.2414  0.2540
  227MOL0     O31224   5.916   8.193   3.651 -0.2395 -0.6090 -0.1168
  227MOL0     C31225   5.925   8.334   3.627  0.1711 -0.2111 -0.2396
  227MOL0     C31226   5.854   8.402   3.747  0.7392 -0.2631  0.0674
  227MOL0     C31227   5.701   8.380   3.756 -0.3628 -0.4984 -0.1803
  227MOL0     C31228   5.657   8.446   3.882  0.8291  0.7391 -0.4234
  227MOL0     C31229   5.504   8.433   3.910  0.2377 -0.8694  0.3852
  227MOL0     C31230   5.425   8.519   3.821 -0.4332  0.3634  1.1611
  227MOL0     C31231   5.276   8.489   3.858  0.2239 -0.8647 -0.4907
  227MOL0     C31232   5.190   8.571   3.755  0.0509 -0.1340 -0.2822
  227MOL0    Cl31233   5.014   8.540   3.774  0.0318  0.1645  0.4747
  227MOL0     C31234   6.083   8.164   3.463  0.3016  0.0896  0.8299
  227MOL0     C31235   6.160   8.086   3.389 -0.0487  0.0505 -0.1037
  227MOL0     O31236   6.415   7.963   3.301  0.3431 -0.1117 -0.0157
  227MOL0     C31237   6.535   7.758   3.158 -0.3242 -0.8205 -0.1418
  227MOL0     C31238   6.584   7.665   3.071  0.1655  0.0450 -0.2940
  227MOL0     N31239   7.054   7.157   3.175 -0.0538  0.0456  0.3348
  227MOL0     N31240   7.175   7.178   3.229 -0.5367 -0.2719  0.4994
  227MOL0     C31241   6.999   6.704   3.503 -0.5441  0.5670 -0.6887
  227MOL0     C31242   6.873   6.672   3.447  0.3410  0.6543  0.4308
  227MOL0     C31243   6.431   6.662   3.410  0.3581  0.5570  0.6020
  227MOL0     C31244   6.341   6.632   3.515 -0.1978 -0.2816  0.2615
  227MOL0     C31245   6.202   6.616   3.491  0.1422  0.0962 -0.2489
  227MOL0     C31246   6.149   6.632   3.366 -0.8634  0.1010  0.8089
  227MOL0     O31247   6.018   6.604   3.347  0.2075 -0.5374 -0.3037
  227MOL0     C31248   5.969   6.554   3.223  0.2794 -0.9565  0.9001
  227MOL0     C31249   5.863   6.447   3.244  0.8205  0.1895 -0.9579
  227MOL0     C31250   5.747   6.492   3.335  0.2914  0.5149  0.1959
  227MOL0     C31251   5.653   6.599   3.275 -0.0585  0.5482 -0.3135
  227MOL0     C31252   5.609   6.560   3.142  0.3182  0.7665 -0.2795
  227MOL0     C31253   5.565   6.536   3.032  0.0296  0.6236 -0.2493
  227MOL0     C31254   6.235   6.683   3.253  0.3213 -0.8686  0.3365
  227MOL0     C31255   6.372   6.689   3.283 -0.8336 -0.7585  0.0744
  227MOL0     C31256   6.462   6.725   3.162  0.3048  0.5353 -0.7920
  227MOL0     H31257   6.744   6.989   3.459  1.0281  1.3579  0.2652
  227MOL0     H31258   6.968   7.035   3.544 -3.2747  0.4653 -2.0744
  227MOL0     H31259   7.214   6.682   3.690  4.0111 -1.5158 -2.4220
  227MOL0     H31260   7.307   6.816   3.738 -0.4862 -0.8595  0.8534
  227MOL0     H31261   7.432   6.681   3.563 -0.2583 -2.5747 -0.9370
  227MOL0     H31262   7.292   6.686   3.462  0.6129 -1.1259  0.5411
  227MOL0     H31263   7.452   6.822   3.364 -0.5002 -3.3998  1.4438
  227MOL0     H31264   7.315   6.912   3.431 -1.9121 -2.0480  0.3961
  227MOL0     H31265   7.454   6.991   3.617  0.8029  0.3245  1.0513
  227MOL0     H31266   7.592   6.903   3.578 -0.1013  1.7243  0.4529
  227MOL0     H31267   7.617   7.039   3.357  2.3131 -0.3296  0.4793
  227MOL0     H31268   7.633   7.126   3.496  1.7855 -0.7865 -1.9940
  227MOL0     H31269   7.494   7.248   3.333  0.1050  0.6504 -0.2124
  227MOL0     H31270   7.408   7.111   3.302  0.4308  0.3418  0.7332
  227MOL0     H31271   7.421   7.285   3.549 -1.3424  0.4780  0.7674
  227MOL0     H31272   7.284   7.174   3.541 -2.5220  1.3647 -1.7714
  227MOL0     H31273   7.208   7.399   3.465 -1.0372 -0.6359 -0.4232
  227MOL0     H31274   7.331   7.387   3.324  1.7593  0.7267  1.6288
  227MOL0     H31275   6.992   7.348   3.440  1.0002 -1.8289  1.2203
  227MOL0     H31276   6.769   7.234   3.343  1.2577 -0.9028  1.0586
  227MOL0     H31277   6.790   7.093   3.243  0.1167 -0.2787 -2.1868
  227MOL0     H31278   6.756   7.388   3.157  1.8275 -0.4738  1.1819
  227MOL0     H31279   6.796   7.253   3.042 -0.0998  2.2844 -1.4897
  227MOL0     H31280   6.581   7.137   3.107  0.7821 -0.2506  1.0267
  227MOL0     H31281   6.533   7.274   3.203 -2.3234 -2.4957 -1.0346
  227MOL0     H31282   6.582   7.261   2.901  0.5252 -0.1263  0.1794
  227MOL0     H31283   6.427   7.302   2.981  0.2377 -1.1906 -0.0648
  227MOL0     H31284   6.323   7.458   3.059 -1.5897  0.4654  1.8812
  227MOL0     H31285   6.166   7.629   3.304 -0.5562  1.3940 -0.1903
  227MOL0     H31286   6.154   7.518   3.170  1.0035 -0.0634  1.4123
  227MOL0     H31287   6.113   7.694   3.140  0.1788  1.0869 -0.7067
  227MOL0     H31288   6.093   7.788   3.544 -4.5578 -0.9358  1.3602
  227MOL0     H31289   5.944   7.934   3.674 -0.6635  0.4038 -1.0691
  227MOL0     H31290   6.030   8.364   3.630 -0.1650  0.8686  1.8068
  227MOL0     H31291   5.871   8.359   3.535 -1.4724 -1.7887  0.2444
  227MOL0     H31292   5.900   8.363   3.839 -0.9881 -1.8122  0.3378
  227MOL0     H31293   5.868   8.510   3.735  0.6750 -0.0012  1.9728
  227MOL0     H31294   5.686   8.273   3.771 -2.6450 -0.3184 -0.7179
  227MOL0     H31295   5.645   8.419   3.670 -2.4903  0.7774  1.6555
  227MOL0     H31296   5.682   8.552   3.891 -0.3170  1.1162 -1.4372
  227MOL0     H31297   5.713   8.394   3.960 -0.9883 -2.9622 -1.3805
  227MOL0     H31298   5.468   8.333   3.885 -1.2223  0.0396 -1.3619
  227MOL0     H31299   5.480   8.460   4.013 -0.5702 -0.7771  0.1759
  227MOL0     H31300   5.426   8.499   3.713 -2.4148  1.3823  0.8895
  227MOL0     H31301   5.460   8.621   3.837  1.1547  0.0151  0.1018
  227MOL0     H31302   5.254   8.521   3.960 -2.8169 -0.3478 -1.2102
  227MOL0     H31303   5.246   8.385   3.840  3.2504 -2.4489  2.4270
  227MOL0     H31304   5.218   8.555   3.650  0.5601 -1.0876 -0.0133
  227MOL0     H31305   5.209   8.678   3.768  0.0182  0.1955 -2.5053
  227MOL0     H31306   6.094   8.270   3.442 -0.7383  0.4020  1.7530
  227MOL0     H31307   6.219   8.140   3.316  0.5628  1.2303  1.2258
  227MOL0     H31308   6.597   7.844   3.183 -0.3199 -0.6929 -0.5718
  227MOL0     H31309   6.686   7.670   3.033  0.5414 -3.8889 -0.1619
  227MOL0     H31310   7.069   6.621   3.500 -2.0781 -0.9762  2.1810
  227MOL0     H31311   6.861   6.567   3.421  2.1075  0.0701  1.7093
  227MOL0     H31312   6.383   6.631   3.615  2.5715  0.8791 -0.7931
  227MOL0     H31313   6.136   6.593   3.574  0.7746 -2.3793 -0.3453
  227MOL0     H31314   5.939   6.634   3.155 -0.6877  0.7508  3.2359
  227MOL0     H31315   6.054   6.506   3.173 -0.1960 -2.9375  1.8963
  227MOL0     H31316   5.895   6.361   3.304 -1.0000  0.4678  0.5028
  227MOL0     H31317   5.833   6.402   3.149  0.8665 -1.1015 -0.3802
  227MOL0     H31318   5.691   6.400   3.352  2.1229 -0.5692  0.6901
  227MOL0     H31319   5.791   6.528   3.429  2.5209  0.2159 -0.6593
  227MOL0     H31320   5.712   6.692   3.275 -1.5196  1.5650  2.0056
  227MOL0     H31321   5.563   6.609   3.336 -0.0198 -3.5593  0.6834
  227MOL0     H31322   5.540   6.515   2.930  1.9684 -2.3758 -0.2456
  227MOL0     H31323   6.197   6.699   3.153 -0.5225 -1.5848  0.5302
  227MOL0     H31324   6.545   6.655   3.160  0.6165  0.9071 -1.2042
  227MOL0     H31325   6.415   6.726   3.063  1.6479 -2.1864 -1.5498
  227MOL0     H31326   6.502   6.827   3.169  1.4621 -0.0325  1.8783
  228MOL0     O31327   5.656   2.219   1.011 -0.2245 -0.2100 -0.7949
  228MOL0     C31328   5.691   2.124   0.944 -0.1653 -0.1564  0.2625
  228MOL0     O31329   5.708   1.999   0.994  0.2806 -0.0235 -0.6971
  228MOL0     C31330   5.653   1.976   1.121 -0.1780  0.5175 -0.3399
  228MOL0     C31331   5.522   1.915   1.150  1.1351 -0.4872  0.1117
  228MOL0     C31332   5.482   1.887   1.278 -0.2513 -0.8753 -0.0919
  228MOL0     C31333   5.570   1.913   1.386 -1.2984  0.3712 -0.1374
  228MOL0     O31334   5.528   1.880   1.511  0.6832  0.3690 -0.6723
  228MOL0     C31335   5.417   1.953   1.561  0.4607  0.8907  0.5528
  228MOL0     C31336   5.291   1.863   1.579 -0.5037  0.0583 -0.3922
  228MOL0     C31337   5.318   1.751   1.685 -0.7284 -0.4195 -0.6480
  228MOL0     C31338   5.335   1.781   1.837  0.0397  0.6194 -0.4940
  228MOL0     C31339   5.317   1.661   1.930 -0.4182  0.2886 -0.1003
  228MOL0     C31340   5.310   1.719   2.075 -0.0228 -0.0843  0.5606
  228MOL0     C31341   5.349   1.618   2.177  0.0011  0.6201  0.2952
  228MOL0     C31342   5.347   1.682   2.321 -0.5436  0.7820 -0.6728
  228MOL0     N31343   5.441   1.616   2.410  0.1777 -0.3885 -0.4136
  228MOL0     C31344   5.456   1.485   2.451  0.7766 -0.0031 -0.9963
  228MOL0     C31345   5.554   1.487   2.546  0.7805  0.9339 -0.6585
  228MOL0     C31346   5.583   1.371   2.640  1.0193 -0.7759 -0.2693
  228MOL0     C31347   5.601   1.227   2.572  0.1022  0.0250 -0.0501
  228MOL0     C31348   5.611   1.116   2.672 -0.1042  0.3589  0.0662
  228MOL0     C31349   5.642   0.982   2.600  0.0544 -0.4514  0.3392
  228MOL0     O31350   5.509   0.951   2.539  0.0036  0.5742 -0.2849
  228MOL0     C31351   5.507   0.829   2.472  0.6807 -0.4324 -1.2463
  228MOL0     C31352   5.396   0.731   2.487 -0.7228  0.6452  0.1676
  228MOL0     C31353   5.380   0.607   2.420  0.3230 -0.0664  0.2223
  228MOL0     C31354   5.258   0.512   2.445  0.3554  0.0654  0.3619
  228MOL0     C31355   5.485   0.577   2.329  0.0878  0.0862  0.2970
  228MOL0     C31356   5.491   0.458   2.248  0.7105  0.2401 -0.6164
  228MOL0     O31357   5.570   0.460   2.136  0.0296  0.0736  0.3798
  228MOL0     C31358   5.541   0.395   2.019 -0.0860  1.2271  0.0423
  228MOL0     C31359   5.647   0.347   1.946 -0.0902  0.1244  0.4426
  228MOL0     C31360   5.624   0.284   1.821 -0.2829  0.0687  0.1820
  228MOL0     C31361   5.503   0.261   1.767  0.3828  0.4716  0.0322
  228MOL0     O31362   5.486   0.211   1.638 -0.6343 -0.2149 -0.2052
  228MOL0     C31363   5.352   0.157   1.610  0.3709 -0.0588  0.5953
  228MOL0     C31364   5.370   0.075   1.482 -0.3162 -0.1521 -0.7425
  228MOL0     C31365   5.356   0.152   1.358 -0.5223 -0.3881 -0.0087
  228MOL0     C31366   5.385   0.059   1.236 -0.0662 -0.1989  0.6305
  228MOL0     C31367   5.296   0.100   1.112 -0.0552 -0.1114  0.6662
  228MOL0     C31368   5.321  -0.003   1.004  0.0743 -0.4131  0.0504
  228MOL0     C31369   5.218   0.025   0.888  0.6423  0.4724  0.1128
  228MOL0     C31370   5.245   0.154   0.813  0.5429 -0.3275 -0.2402
  228MOL0    Cl31371   5.404   0.157   0.743  0.3642 -0.1298  0.3736
  228MOL0     C31372   5.394   0.302   1.854  0.4488  0.0645 -0.2465
  228MOL0     C31373   5.406   0.369   1.975  0.0581  0.5730 -0.3353
  228MOL0     O31374   5.436   0.359   2.290 -0.0169 -0.2956 -0.2824
  228MOL0     C31375   5.585   0.672   2.304 -0.4067 -1.4454  0.3404
  228MOL0     C31376   5.594   0.797   2.362 -0.1797  0.1128 -0.0324
  228MOL0     N31377   5.604   1.615   2.554  0.3983  0.8438 -1.1899
  228MOL0     N31378   5.541   1.693   2.465  0.4615  0.3672  0.2793
  228MOL0     C31379   5.688   1.976   1.361 -0.0383 -0.2449  0.2272
  228MOL0     C31380   5.736   2.015   1.231  0.8327  0.1536 -0.5604
  228MOL0     C31381   5.750   2.144   0.809  1.1127 -0.0393  0.4821
  228MOL0     C31382   5.829   2.259   0.786  0.6046 -0.2333  0.2801
  228MOL0     C31383   5.885   2.285   0.667  0.2087 -0.9969 -0.5507
  228MOL0     C31384   5.884   2.192   0.565 -0.2952 -0.3567 -0.0900
  228MOL0     O31385   5.947   2.202   0.440 -0.4660  0.9820 -0.1409
  228MOL0     C31386   5.998   2.338   0.408 -0.3077  0.1849 -0.3715
  228MOL0     C31387   6.072   2.339   0.270 -0.2362 -0.4528 -1.3079
  228MOL0     C31388   6.131   2.473   0.230  0.0006 -0.8737  0.3588
  228MOL0     C31389   6.254   2.507   0.314  0.4228 -0.7024 -0.1415
  228MOL0     C31390   6.366   2.414   0.302  0.6615 -0.4477  0.6537
  228MOL0     C31391   6.443   2.333   0.255 -1.0635  0.6742  0.2708
  228MOL0     C31392   5.810   2.075   0.583 -0.1138  0.5163  0.3816
  228MOL0     C31393   5.746   2.042   0.701  0.0023 -0.3456  0.2172
  228MOL0     C31394   5.677   1.911   0.710 -0.1288 -0.1627 -0.3782
  228MOL0     H31395   5.454   1.883   1.071 -1.2136 -0.1823  1.8846
  228MOL0     H31396   5.387   1.838   1.297  2.2827 -6.0383  1.1533
  228MOL0     H31397   5.384   2.032   1.492 -1.6596 -1.0429 -0.7925
  228MOL0     H31398   5.451   1.988   1.659  2.9135 -0.5687  0.3222
  228MOL0     H31399   5.208   1.929   1.606 -0.5950  0.1309 -0.8439
  228MOL0     H31400   5.270   1.815   1.483  4.2162  1.7634 -2.5984
  228MOL0     H31401   5.241   1.674   1.673  0.3431 -1.6604  0.0765
  228MOL0     H31402   5.412   1.704   1.653 -0.1078  1.1411 -1.2118
  228MOL0     H31403   5.433   1.822   1.863  0.1995  0.8217 -1.3857
  228MOL0     H31404   5.261   1.860   1.851 -1.3282 -0.0667 -3.2302
  228MOL0     H31405   5.404   1.597   1.914  0.0818  0.7741  0.6514
  228MOL0     H31406   5.228   1.602   1.905 -2.5634  3.7374 -1.2455
  228MOL0     H31407   5.378   1.805   2.073 -2.2493  1.7771  0.2747
  228MOL0     H31408   5.210   1.758   2.096 -1.9328 -3.0898 -2.0787
  228MOL0     H31409   5.451   1.591   2.148  0.4518  2.5102 -0.0522
  228MOL0     H31410   5.278   1.536   2.171 -0.5426  1.1633 -1.5102
  228MOL0     H31411   5.360   1.790   2.311  0.0475  0.6316 -1.7306
  228MOL0     H31412   5.244   1.670   2.357 -1.0958 -0.5606 -2.4978
  228MOL0     H31413   5.393   1.404   2.414  0.1357  0.1323 -0.2341
  228MOL0     H31414   5.502   1.366   2.714  0.1726 -0.5578 -1.1689
  228MOL0     H31415   5.676   1.398   2.690  2.1011 -1.7824 -1.6795
  228MOL0     H31416   5.511   1.200   2.517 -1.5265  0.0395  2.4731
  228MOL0     H31417   5.693   1.224   2.512 -0.5477  0.5167 -1.1064
  228MOL0     H31418   5.687   1.136   2.748  1.2327 -2.2873 -0.4568
  228MOL0     H31419   5.519   1.107   2.729  0.2395 -0.6097  0.4973
  228MOL0     H31420   5.721   0.987   2.524 -0.2569 -3.0002 -0.2681
  228MOL0     H31421   5.673   0.908   2.674  1.8980  0.6578  0.7226
  228MOL0     H31422   5.314   0.753   2.554  1.2755 -0.4077  3.1580
  228MOL0     H31423   5.289   0.416   2.487 -2.8734 -1.3663 -0.2227
  228MOL0     H31424   5.198   0.488   2.357  0.0255  0.2134  0.5430
  228MOL0     H31425   5.184   0.550   2.517 -3.0920 -1.6476 -2.0203
  228MOL0     H31426   5.750   0.355   1.979  0.5985 -0.1141 -1.4939
  228MOL0     H31427   5.709   0.264   1.757 -1.0054  0.3210 -0.8956
  228MOL0     H31428   5.316   0.091   1.689 -0.9208 -0.9493 -0.6715
  228MOL0     H31429   5.271   0.227   1.590  0.9259  1.0946  2.1864
  228MOL0     H31430   5.470   0.031   1.479 -0.6052 -0.9397  0.4483
  228MOL0     H31431   5.297  -0.007   1.483  1.7484 -2.0739  1.0170
  228MOL0     H31432   5.402   0.250   1.342 -1.4529  0.1900  0.7627
  228MOL0     H31433   5.248   0.167   1.357 -0.2240  2.3268  1.3246
  228MOL0     H31434   5.361  -0.044   1.264 -1.2445  0.2478  1.3012
  228MOL0     H31435   5.488   0.051   1.198 -0.8143 -1.3665 -1.2896
  228MOL0     H31436   5.190   0.100   1.142 -1.1312  0.9010 -2.7126
  228MOL0     H31437   5.318   0.202   1.081 -0.7835 -0.8498 -2.6254
  228MOL0     H31438   5.288  -0.095   1.052 -1.5425 -0.5337 -1.1982
  228MOL0     H31439   5.428  -0.012   0.982  1.2409  1.3042  4.1374
  228MOL0     H31440   5.113   0.020   0.921  0.4397 -0.8861 -0.6394
  228MOL0     H31441   5.221  -0.061   0.820  2.7900  1.4151 -1.0598
  228MOL0     H31442   5.230   0.237   0.883 -1.1437 -1.1207  0.3828
  228MOL0     H31443   5.173   0.154   0.731 -0.1276 -0.0163  0.3410
  228MOL0     H31444   5.291   0.293   1.822  0.5745 -1.2366 -0.3312
  228MOL0     H31445   5.327   0.399   2.042  2.0522  0.7015  2.1144
  228MOL0     H31446   5.658   0.658   2.225  1.5860  0.8412  1.6387
  228MOL0     H31447   5.673   0.864   2.327 -0.6581 -1.2397 -4.2308
  228MOL0     H31448   5.761   1.990   1.440  1.5604  2.6861 -1.5931
  228MOL0     H31449   5.835   2.057   1.220  0.8637  0.2841  0.1331
  228MOL0     H31450   5.841   2.339   0.858  0.6992  0.9552 -1.0143
  228MOL0     H31451   5.943   2.376   0.660  1.0363 -1.3019  1.5413
  228MOL0     H31452   5.916   2.410   0.412  0.5888  1.2315  3.5790
  228MOL0     H31453   6.071   2.379   0.478  0.2776  2.6067 -2.2543
  228MOL0     H31454   5.993   2.306   0.202  1.0320 -1.2732 -2.4469
  228MOL0     H31455   6.147   2.260   0.254 -0.4246 -0.5135 -1.9148
  228MOL0     H31456   6.150   2.481   0.123  2.0126 -1.8524  0.5916
  228MOL0     H31457   6.059   2.555   0.244 -0.4078 -1.5234  2.5716
  228MOL0     H31458   6.224   2.504   0.419 -1.8111 -1.6193 -0.7482
  228MOL0     H31459   6.289   2.607   0.285 -0.2227 -0.9361 -1.8387
  228MOL0     H31460   6.517   2.263   0.222  0.8230  3.2725 -1.4216
  228MOL0     H31461   5.813   1.994   0.511 -1.4773 -1.3402  2.2943
  228MOL0     H31462   5.644   1.886   0.608 -0.7836 -0.7949 -0.0254
  228MOL0     H31463   5.732   1.830   0.760  0.0188  2.9014  5.1997
  228MOL0     H31464   5.585   1.911   0.769 -0.3785 -2.4080 -0.6761
  229MOL0     O31465   3.311  11.251   0.584  0.1310 -1.0336 -0.7049
  229MOL0     C31466   3.201  11.203   0.568  0.0028 -0.2578 -0.0252
  229MOL0     O31467   3.095  11.235   0.655  0.3963  0.0474 -0.0282
  229MOL0     C31468   3.093  11.306   0.775  0.5756 -0.0670 -0.1773
  229MOL0     C31469   3.208  11.343   0.846  0.0043  0.4631 -0.2542
  229MOL0     C31470   3.196  11.433   0.956 -0.5675 -0.7576 -0.0177
  229MOL0     C31471   3.077  11.480   1.009  0.4347  0.1768  0.8514
  229MOL0     O31472   3.080  11.565   1.108 -0.6673  0.1006  0.0625
  229MOL0     C31473   3.001  11.529   1.226 -0.0419  0.0485 -0.7947
  229MOL0     C31474   2.964  11.664   1.289  0.4782 -0.5208  0.6843
  229MOL0     C31475   2.881  11.651   1.411  0.0005 -0.1726 -0.2165
  229MOL0     C31476   2.849  11.789   1.459 -0.3918 -0.3930  0.9418
  229MOL0     C31477   2.783  11.788   1.597  0.6241 -0.4692 -0.5392
  229MOL0     C31478   2.680  11.687   1.626  0.3986 -0.3234  0.1586
  229MOL0     C31479   2.555  11.695   1.533  0.0924  0.4445  0.0257
  229MOL0     C31480   2.465  11.564   1.554  0.3632 -0.9089 -0.1374
  229MOL0     N31481   2.413  11.568   1.687 -0.1754  0.0440 -0.9479
  229MOL0     C31482   2.354  11.682   1.756  0.2525  0.4169 -0.3389
  229MOL0     C31483   2.315  11.618   1.872  0.5140 -0.3664 -1.2242
  229MOL0     C31484   2.246  11.671   1.996  0.1783  0.4927  0.7751
  229MOL0     C31485   2.094  11.688   1.972  0.1194  0.0236  1.0812
  229MOL0     C31486   2.019  11.732   2.094 -0.4787  0.0096  0.2706
  229MOL0     C31487   1.885  11.805   2.060  0.9475  0.0159 -0.2027
  229MOL0     O31488   1.785  11.711   2.058  0.6257  0.2823  0.4301
  229MOL0     C31489   1.650  11.747   2.054 -0.6333 -0.0517  0.4710
  229MOL0     C31490   1.551  11.647   2.085 -0.9474 -0.8065 -0.3142
  229MOL0     C31491   1.417  11.684   2.100 -0.1928  0.3840  0.4626
  229MOL0     C31492   1.318  11.575   2.139  0.6705  0.1362  0.4658
  229MOL0     C31493   1.375  11.823   2.090 -0.1363 -0.0174  0.7042
  229MOL0     C31494   1.238  11.876   2.106  1.1527 -0.3283 -0.7825
  229MOL0     O31495   1.206  12.013   2.109  0.2485  1.0630 -0.3545
  229MOL0     C31496   1.065  12.036   2.148 -0.0489  0.4151  0.2197
  229MOL0     C31497   1.016  12.019   2.277 -0.1867  0.5886  0.3120
  229MOL0     C31498   0.881  12.047   2.298  0.0517 -0.0837 -0.5124
  229MOL0     C31499   0.796  12.104   2.202 -1.7035 -0.6366 -0.7100
  229MOL0     O31500   0.663  12.122   2.217  0.0526 -0.0637  0.3849
  229MOL0     C31501   0.604  12.179   2.339 -0.4129  0.5328  0.7772
  229MOL0     C31502   0.453  12.174   2.321  0.6497 -0.3643 -0.5928
  229MOL0     C31503   0.370  12.240   2.436 -0.2439 -0.3043  0.4939
  229MOL0     C31504   0.223  12.245   2.399  0.0361  1.0259  0.4368
  229MOL0     C31505   0.145  12.259   2.538 -0.0017  0.3727  0.1762
  229MOL0     C31506   0.001  12.295   2.523  0.7504  0.0711  0.6709
  229MOL0     C31507  -0.069  12.311   2.661 -0.1523 -0.4019 -0.1145
  229MOL0     C31508  -0.225  12.316   2.657  0.0988 -0.5705 -0.3904
  229MOL0    Cl31509  -0.280  12.473   2.574  0.4385 -0.2928  0.2898
  229MOL0     C31510   0.854  12.126   2.074  0.0450 -0.2346 -0.5844
  229MOL0     C31511   0.985  12.091   2.048  0.5026  0.3656 -0.1265
  229MOL0     O31512   1.154  11.786   2.124 -0.0711  0.0919  0.1969
  229MOL0     C31513   1.474  11.916   2.053 -0.3334  0.8661  0.4271
  229MOL0     C31514   1.609  11.880   2.031 -0.2177  0.2150 -0.1428
  229MOL0     N31515   2.332  11.481   1.866  0.2837 -0.8148 -0.5064
  229MOL0     N31516   2.383  11.453   1.755  0.4577  0.5727  0.1688
  229MOL0     C31517   2.960  11.445   0.937  0.1065 -0.3875  0.9085
  229MOL0     C31518   2.963  11.355   0.826  0.7607 -0.4388 -0.3844
  229MOL0     C31519   3.190  11.120   0.449 -0.4367  0.4773 -1.1786
  229MOL0     C31520   3.146  10.986   0.471 -0.3703 -0.5631  0.3250
  229MOL0     C31521   3.149  10.898   0.366 -0.1197 -0.6359  0.9816
  229MOL0     C31522   3.182  10.937   0.232  0.2888  0.6817 -0.3902
  229MOL0     O31523   3.155  10.854   0.122  0.1650 -0.1127  0.3322
  229MOL0     C31524   3.023  10.809   0.100  0.0269  0.4673  0.2260
  229MOL0     C31525   3.026  10.757  -0.057  0.8637  1.1955 -0.2852
  229MOL0     C31526   2.905  10.666  -0.085 -0.2070 -0.2411 -0.1884
  229MOL0     C31527   2.901  10.619  -0.231 -0.3361 -0.3916  0.0186
  229MOL0     C31528   3.005  10.519  -0.272  0.4226 -1.1888 -0.2101
  229MOL0     C31529   3.086  10.447  -0.321  0.4748  0.3051  0.5765
  229MOL0     C31530   3.217  11.066   0.208 -0.4304 -0.1866  0.2366
  229MOL0     C31531   3.229  11.157   0.318 -0.1198 -0.1208  0.3670
  229MOL0     C31532   3.267  11.288   0.274 -1.0775 -0.5119  0.4254
  229MOL0     H31533   3.302  11.299   0.817  0.2705 -1.1280  2.6804
  229MOL0     H31534   3.291  11.475   0.987 -1.4046  1.6022 -0.4346
  229MOL0     H31535   3.051  11.462   1.295  1.7427  0.5701 -1.5337
  229MOL0     H31536   2.915  11.474   1.188  0.3671  1.1090 -3.4510
  229MOL0     H31537   3.059  11.714   1.311  0.2248  1.7181 -2.6540
  229MOL0     H31538   2.907  11.728   1.221  0.2068 -1.1504  0.3127
  229MOL0     H31539   2.788  11.597   1.393 -2.5725  3.9316 -0.5299
  229MOL0     H31540   2.942  11.593   1.481 -0.2108 -2.4306 -1.7937
  229MOL0     H31541   2.939  11.851   1.463 -1.0452  0.5124  2.4247
  229MOL0     H31542   2.772  11.814   1.386 -0.5318 -1.5461  0.6710
  229MOL0     H31543   2.751  11.892   1.605  2.0387 -0.0892  0.8398
  229MOL0     H31544   2.853  11.769   1.679 -1.4414 -0.3253  1.3577
  229MOL0     H31545   2.727  11.588   1.619  1.1346  0.0885 -1.2606
  229MOL0     H31546   2.647  11.699   1.729  2.8782  0.6647  0.9336
  229MOL0     H31547   2.589  11.690   1.429 -2.4492  1.6098 -0.9747
  229MOL0     H31548   2.491  11.784   1.541  0.2567  0.4907  0.8387
  229MOL0     H31549   2.378  11.562   1.488 -0.6944 -0.3939  1.2016
  229MOL0     H31550   2.521  11.471   1.539  0.5994 -0.4215 -2.8023
  229MOL0     H31551   2.337  11.787   1.736  1.1349  0.8934  1.2724
  229MOL0     H31552   2.297  11.762   2.028 -0.5939  2.2042 -2.4450
  229MOL0     H31553   2.255  11.599   2.078  0.3268 -0.3724  0.0065
  229MOL0     H31554   2.083  11.757   1.887  0.5948 -2.4011 -1.0652
  229MOL0     H31555   2.043  11.595   1.948  0.1994  0.5183 -1.2354
  229MOL0     H31556   1.994  11.642   2.151 -0.6478  0.8377  1.5403
  229MOL0     H31557   2.084  11.794   2.156  3.2637  2.4032 -5.2938
  229MOL0     H31558   1.879  11.881   2.139  2.3584  0.6014 -0.6236
  229MOL0     H31559   1.892  11.872   1.974 -1.1450 -1.6902 -1.8299
  229MOL0     H31560   1.586  11.545   2.098  0.5853 -0.5639 -2.0791
  229MOL0     H31561   1.362  11.475   2.132  0.9370  0.2391  0.6640
  229MOL0     H31562   1.241  11.567   2.063 -1.1180 -3.3048  2.4028
  229MOL0     H31563   1.289  11.605   2.241  1.8884  0.8820  0.6187
  229MOL0     H31564   1.080  11.972   2.351 -0.8080  2.6144  2.2487
  229MOL0     H31565   0.854  12.018   2.399 -0.1951  2.5228  0.2222
  229MOL0     H31566   0.649  12.134   2.428  1.2300 -0.3025 -0.4273
  229MOL0     H31567   0.647  12.279   2.328  1.1627 -0.3930 -3.0263
  229MOL0     H31568   0.409  12.218   2.232 -0.6818  1.2866  0.7940
  229MOL0     H31569   0.426  12.068   2.315 -2.0327  0.0904  1.5438
  229MOL0     H31570   0.403  12.344   2.448  1.0365 -0.2376 -2.6505
  229MOL0     H31571   0.399  12.191   2.529  1.8453 -0.0620  0.0280
  229MOL0     H31572   0.202  12.140   2.374  0.2861  1.1480 -0.2998
  229MOL0     H31573   0.202  12.309   2.313 -2.7044 -0.5309 -0.2061
  229MOL0     H31574   0.163  12.163   2.588  1.4157 -0.1458 -1.2038
  229MOL0     H31575   0.187  12.346   2.589  0.1117  1.7187 -2.0679
  229MOL0     H31576  -0.058  12.222   2.467 -2.2049  1.3787  1.8604
  229MOL0     H31577  -0.014  12.387   2.466 -1.1704 -0.9743 -0.6005
  229MOL0     H31578  -0.032  12.405   2.704 -0.6541 -1.3906  2.6941
  229MOL0     H31579  -0.042  12.231   2.730 -0.5688 -1.8243 -1.5582
  229MOL0     H31580  -0.255  12.306   2.761 -1.7732 -3.5339 -1.0777
  229MOL0     H31581  -0.264  12.224   2.611 -2.0996  0.6185 -1.0458
  229MOL0     H31582   0.784  12.142   1.992 -0.7860 -1.4337 -0.1560
  229MOL0     H31583   1.035  12.105   1.953  1.5986 -1.8416  0.0503
  229MOL0     H31584   1.446  12.019   2.036 -4.2095  0.1945  1.7675
  229MOL0     H31585   1.678  11.959   2.001 -0.5802 -0.1698 -2.1370
  229MOL0     H31586   2.865  11.493   0.958  0.7187  0.3239  2.1339
  229MOL0     H31587   2.860  11.330   0.801 -1.6164  3.3686  3.8671
  229MOL0     H31588   3.103  10.961   0.567 -1.6429  2.0014  0.5257
  229MOL0     H31589   3.110  10.798   0.379  0.1357 -0.7790  0.6785
  229MOL0     H31590   2.993  10.729   0.169  0.4882  1.3277  1.4528
  229MOL0     H31591   2.949  10.889   0.107  2.7027  3.0233  1.8066
  229MOL0     H31592   3.112  10.691  -0.070 -0.0568 -0.6770  2.2928
  229MOL0     H31593   3.041  10.842  -0.124  3.0337  1.3433  0.3282
  229MOL0     H31594   2.913  10.580  -0.017  0.3484 -0.6478 -0.7588
  229MOL0     H31595   2.810  10.716  -0.063 -0.2017 -0.6628  0.8901
  229MOL0     H31596   2.914  10.707  -0.294 -4.0467 -0.3463 -0.9014
  229MOL0     H31597   2.802  10.575  -0.246 -0.7210  0.6116 -0.5231
  229MOL0     H31598   3.154  10.374  -0.358  0.2233 -0.2854  1.2638
  229MOL0     H31599   3.218  11.096   0.104 -0.7923 -0.5383  0.1300
  229MOL0     H31600   3.196  11.351   0.328  0.0660  0.2384  1.0912
  229MOL0     H31601   3.372  11.294   0.303 -0.5163 -0.6490 -1.4494
  229MOL0     H31602   3.258  11.307   0.166  0.3729  3.1281  0.8189
  230MOL0     O31603   9.716   0.292   5.199  0.2954  0.0906 -0.7347
  230MOL0     C31604   9.639   0.218   5.264 -1.3788 -0.3710 -0.0803
  230MOL0     O31605   9.633   0.091   5.256  0.3567  0.0392 -0.4068
  230MOL0     C31606   9.686   0.023   5.151 -0.2435  0.7043  0.5747
  230MOL0     C31607   9.690   0.070   5.013  0.2345 -0.1088  0.6826
  230MOL0     C31608   9.765   0.004   4.912  0.4764  0.8082 -0.5471
  230MOL0     C31609   9.817  -0.127   4.941 -0.6740 -0.7531 -0.2366
  230MOL0     O31610   9.882  -0.203   4.853 -0.4848 -0.0165 -0.1825
  230MOL0     C31611   9.941  -0.140   4.743 -0.4994 -0.6380  0.1716
  230MOL0     C31612  10.015  -0.228   4.649 -0.1047  0.6668  1.0512
  230MOL0     C31613  10.088  -0.147   4.545  0.0703  0.2217  0.1767
  230MOL0     C31614  10.148  -0.252   4.451 -0.2653 -0.1881 -1.1087
  230MOL0     C31615  10.175  -0.171   4.323 -0.4918  0.4689  0.2353
  230MOL0     C31616  10.250  -0.253   4.222  0.0575  0.2427 -0.1502
  230MOL0     C31617  10.292  -0.175   4.093 -1.0035  1.1168  1.2164
  230MOL0     C31618  10.204  -0.216   3.973 -0.7916  0.5927  0.9092
  230MOL0     N31619  10.257  -0.160   3.852 -0.0105  0.5094  0.5594
  230MOL0     C31620  10.179  -0.155   3.743 -0.0307 -0.5269  0.0736
  230MOL0     C31621  10.254  -0.086   3.646 -0.5122  0.7510  0.3090
  230MOL0     C31622  10.201  -0.074   3.500 -0.0464 -0.2758 -0.1177
  230MOL0     C31623  10.283   0.018   3.403 -0.2654 -0.3643 -0.0786
  230MOL0     C31624  10.222   0.020   3.267 -0.7109  0.2172 -0.5438
  230MOL0     C31625  10.324   0.053   3.153 -0.2674 -0.2031 -0.6168
  230MOL0     O31626  10.407  -0.051   3.116  0.0164 -0.1035  1.0313
  230MOL0     C31627  10.542  -0.039   3.111  0.8768 -0.1101 -0.2419
  230MOL0     C31628  10.610   0.061   3.041  0.8574 -0.3866  0.1027
  230MOL0     C31629  10.746   0.062   3.035  0.1880  0.2314  0.3554
  230MOL0     C31630  10.808   0.173   2.965 -0.1602 -0.1930 -0.4975
  230MOL0     C31631  10.827  -0.041   3.099  0.3842  0.9041  0.2090
  230MOL0     C31632  10.966  -0.062   3.090 -0.4248 -0.3509 -0.6293
  230MOL0     O31633  11.009  -0.172   3.153  0.9134 -0.4779 -0.3344
  230MOL0     C31634  11.138  -0.182   3.184  0.5344  0.6080 -0.1063
  230MOL0     C31635  11.189  -0.122   3.309  0.8337  0.0249  0.4052
  230MOL0     C31636  11.327  -0.141   3.333  0.2517  0.6197  0.1097
  230MOL0     C31637  11.408  -0.202   3.242 -0.9835  0.2059  0.2325
  230MOL0     O31638  11.542  -0.190   3.265 -0.2357  0.3307  0.2082
  230MOL0     C31639  11.631  -0.219   3.149  0.4739  0.4341 -0.0523
  230MOL0     C31640  11.609  -0.109   3.035 -0.8435 -0.1300 -0.3992
  230MOL0     C31641  11.677   0.022   3.082  0.0880  0.9546 -0.4477
  230MOL0     C31642  11.623   0.145   3.013  0.3225  0.5956 -0.6765
  230MOL0     C31643  11.697   0.275   3.063 -0.4268  0.5572 -0.2009
  230MOL0     C31644  11.699   0.321   3.221  0.2346  0.4160  0.4119
  230MOL0     C31645  11.564   0.298   3.292 -0.0317 -0.7713 -0.2308
  230MOL0     C31646  11.433   0.358   3.221 -0.5906  0.4401 -0.5041
  230MOL0    Cl31647  11.283   0.357   3.335 -0.3290  0.0185 -0.1099
  230MOL0     C31648  11.345  -0.273   3.135  0.0945 -0.6290 -0.1352
  230MOL0     C31649  11.216  -0.261   3.099  0.6227  0.2565 -0.7349
  230MOL0     O31650  11.039   0.033   3.051  0.7273 -0.3596  0.3414
  230MOL0     C31651  10.750  -0.138   3.173 -0.2536  0.2490 -0.9615
  230MOL0     C31652  10.606  -0.142   3.178  0.2806 -0.5314  0.1461
  230MOL0     N31653  10.376  -0.052   3.701 -0.3598 -0.7472 -0.1731
  230MOL0     N31654  10.374  -0.091   3.825  0.3578  0.2224 -1.4128
  230MOL0     C31655   9.811  -0.167   5.072 -0.3153 -0.1117 -0.2025
  230MOL0     C31656   9.755  -0.101   5.181 -0.5196  0.1651  0.5141
  230MOL0     C31657   9.562   0.270   5.381 -0.1948 -0.4461  0.7802
  230MOL0     C31658   9.587   0.203   5.500 -0.0985  0.5094 -0.0704
  230MOL0     C31659   9.543   0.246   5.622  0.3136  0.9896  0.3968
  230MOL0     C31660   9.454   0.358   5.627 -0.0218 -0.1026 -1.0130
  230MOL0     O31661   9.399   0.396   5.743 -0.0476 -0.8359  0.2260
  230MOL0     C31662   9.436   0.319   5.864 -0.9179  0.4595  0.0105
  230MOL0     C31663   9.377   0.385   5.987 -0.7901  0.2541 -0.7792
  230MOL0     C31664   9.456   0.400   6.116 -0.7244  0.7278  0.1065
  230MOL0     C31665   9.521   0.266   6.147  0.5324 -0.4499  0.6045
  230MOL0     C31666   9.533   0.248   6.286  0.7705 -0.4090 -0.4095
  230MOL0     C31667   9.536   0.257   6.407  0.4336 -0.4583 -0.4121
  230MOL0     C31668   9.435   0.435   5.510  0.4391 -0.0905  0.0876
  230MOL0     C31669   9.486   0.393   5.387  0.1073 -1.3691  0.1034
  230MOL0     C31670   9.468   0.474   5.265  0.5432  0.1534  0.8611
  230MOL0     H31671   9.653   0.169   4.986  1.6448  0.7845  1.8747
  230MOL0     H31672   9.778   0.043   4.812  0.0871 -2.9297 -2.2275
  230MOL0     H31673  10.002  -0.060   4.785  0.3481 -0.4601 -1.3395
  230MOL0     H31674   9.860  -0.090   4.690 -1.1993 -4.1370 -2.4786
  230MOL0     H31675  10.080  -0.305   4.691  0.3747  0.7563  0.4909
  230MOL0     H31676   9.942  -0.286   4.591 -0.9335  1.6104  1.1278
  230MOL0     H31677  10.009  -0.091   4.495 -0.9083  0.6492  2.1022
  230MOL0     H31678  10.167  -0.078   4.574  0.5847 -0.6423  0.9050
  230MOL0     H31679  10.241  -0.292   4.495  0.0217  3.5060  2.2115
  230MOL0     H31680  10.082  -0.333   4.421  2.5340 -3.3303  0.4891
  230MOL0     H31681  10.233  -0.082   4.348  1.1936 -1.0033  1.8852
  230MOL0     H31682  10.085  -0.130   4.277  0.9847  3.2917 -0.3514
  230MOL0     H31683  10.345  -0.291   4.262  1.1483  0.4020 -2.3964
  230MOL0     H31684  10.195  -0.344   4.196  2.6111 -1.8442  1.2055
  230MOL0     H31685  10.398  -0.196   4.077 -1.2315 -0.0096  1.1265
  230MOL0     H31686  10.287  -0.067   4.111  0.6642  1.2545  1.0091
  230MOL0     H31687  10.187  -0.323   3.964  0.7513  0.4484 -0.8160
  230MOL0     H31688  10.107  -0.170   3.992 -0.6531  3.0295 -3.1580
  230MOL0     H31689  10.093  -0.216   3.719 -0.0980  0.0310 -1.1814
  230MOL0     H31690  10.097  -0.040   3.502  0.5521  1.6617  1.2449
  230MOL0     H31691  10.194  -0.172   3.452 -2.0704  0.6987 -1.9886
  230MOL0     H31692  10.280   0.120   3.443  0.6735 -0.1194 -0.6109
  230MOL0     H31693  10.385  -0.021   3.394  0.8550  2.1516  0.6898
  230MOL0     H31694  10.187  -0.080   3.243  2.0653 -1.0270  0.1889
  230MOL0     H31695  10.143   0.095   3.259  1.2075  2.2815 -1.1904
  230MOL0     H31696  10.268   0.086   3.065 -0.8498  2.7837  0.7459
  230MOL0     H31697  10.382   0.135   3.196 -1.6579  0.8441 -0.6891
  230MOL0     H31698  10.539   0.122   2.987 -0.0173 -0.6594  0.9049
  230MOL0     H31699  10.851   0.142   2.870  1.4526 -2.5544  0.9143
  230MOL0     H31700  10.880   0.219   3.034 -3.4713  1.2718  2.3322
  230MOL0     H31701  10.738   0.255   2.945 -1.5557 -0.9218  1.1513
  230MOL0     H31702  11.116  -0.074   3.372 -0.7494 -1.6879 -0.0525
  230MOL0     H31703  11.363  -0.093   3.423 -1.3229  0.4388  0.8557
  230MOL0     H31704  11.737  -0.224   3.176  0.2079 -1.6796  0.8157
  230MOL0     H31705  11.608  -0.317   3.107 -0.8895 -0.6669  2.9554
  230MOL0     H31706  11.656  -0.137   2.941  0.8146 -1.3504  0.7391
  230MOL0     H31707  11.501  -0.093   3.023 -0.9876 -1.6872 -1.4075
  230MOL0     H31708  11.785   0.018   3.064  0.0997 -0.8244 -0.2443
  230MOL0     H31709  11.670   0.033   3.191  0.2002  1.2384 -0.4699
  230MOL0     H31710  11.519   0.156   3.044  0.9526  1.0561  1.4473
  230MOL0     H31711  11.617   0.121   2.906  1.3828 -1.5096 -0.3242
  230MOL0     H31712  11.801   0.264   3.031  0.0016  0.2806  1.2225
  230MOL0     H31713  11.655   0.360   3.007  0.0034 -0.9460 -2.9887
  230MOL0     H31714  11.724   0.425   3.243 -0.8255  0.6313  0.6587
  230MOL0     H31715  11.772   0.257   3.271  0.5766  1.7302  1.6523
  230MOL0     H31716  11.573   0.346   3.390 -2.1252 -1.4153  0.3389
  230MOL0     H31717  11.543   0.191   3.300  0.7832 -1.1196 -2.1635
  230MOL0     H31718  11.408   0.309   3.127 -0.2851 -3.4454  1.2386
  230MOL0     H31719  11.461   0.462   3.204 -0.0089  0.4235  0.2820
  230MOL0     H31720  11.407  -0.339   3.076 -0.9335 -3.3323  1.6205
  230MOL0     H31721  11.180  -0.312   3.010  0.1280  1.9552 -1.5602
  230MOL0     H31722  10.798  -0.211   3.238 -0.5829  2.4044  1.9050
  230MOL0     H31723  10.537  -0.215   3.219 -0.2086 -1.9145 -2.8072
  230MOL0     H31724   9.868  -0.253   5.106 -0.2929  0.5115  1.4084
  230MOL0     H31725   9.765  -0.139   5.282 -2.4437  0.9852  1.0564
  230MOL0     H31726   9.653   0.118   5.509 -2.5489 -1.3518  1.6545
  230MOL0     H31727   9.573   0.181   5.704  1.8613 -2.0177 -2.3342
  230MOL0     H31728   9.415   0.211   5.865 -0.9757  0.4667  1.3658
  230MOL0     H31729   9.545   0.316   5.873 -0.7744 -3.0525 -1.1603
  230MOL0     H31730   9.287   0.324   6.002  1.1200 -2.2997  1.0961
  230MOL0     H31731   9.348   0.486   5.957 -0.9843  1.4053  2.7595
  230MOL0     H31732   9.521   0.482   6.084 -0.5374  2.5428  4.5436
  230MOL0     H31733   9.404   0.441   6.202  0.3758  0.4968  0.9084
  230MOL0     H31734   9.617   0.259   6.095 -0.4745 -0.0840 -1.4310
  230MOL0     H31735   9.459   0.189   6.099  2.3843 -0.8410 -1.3302
  230MOL0     H31736   9.524   0.263   6.513  0.1225  0.7798 -0.5011
  230MOL0     H31737   9.382   0.528   5.526  0.6489 -0.1996  1.5524
  230MOL0     H31738   9.410   0.416   5.192  0.3634  1.2790  0.0763
  230MOL0     H31739   9.412   0.563   5.295  0.7948  1.2211 -1.5950
  230MOL0     H31740   9.559   0.503   5.212  0.6651 -0.7110  0.5849
  231MOL0     O31741   4.009   3.341   7.643 -0.5388 -0.5159  0.3009
  231MOL0     C31742   4.047   3.453   7.670 -0.3414  0.4783  0.1744
  231MOL0     O31743   4.067   3.493   7.796  0.2497  0.5209 -0.9700
  231MOL0     C31744   4.066   3.407   7.906  0.3009  0.6578  0.0670
  231MOL0     C31745   4.184   3.329   7.924 -0.8254 -0.0173 -0.6412
  231MOL0     C31746   4.187   3.239   8.042  0.4936 -0.1799 -0.0718
  231MOL0     C31747   4.080   3.232   8.134  0.3935  1.0346  0.2719
  231MOL0     O31748   4.095   3.161   8.248 -0.2908  0.1044  0.5115
  231MOL0     C31749   4.123   3.021   8.233  0.2841  0.9045  0.1482
  231MOL0     C31750   4.147   2.952   8.369  0.2662 -0.2797  0.0967
  231MOL0     C31751   4.136   2.798   8.339 -0.3273 -0.6441 -0.5390
  231MOL0     C31752   4.027   2.737   8.416 -0.4179  0.4112  1.2768
  231MOL0     C31753   4.055   2.584   8.407  0.1012 -0.2342  0.1260
  231MOL0     C31754   3.942   2.503   8.469 -0.5431  0.1675 -0.4999
  231MOL0     C31755   3.976   2.352   8.488  0.6511  0.4693  0.1817
  231MOL0     C31756   4.038   2.333   8.630 -0.1906 -0.8042  0.0938
  231MOL0     N31757   3.944   2.280   8.728  0.3391  0.2712 -0.8844
  231MOL0     C31758   3.865   2.357   8.804  0.6082 -0.6005 -0.0961
  231MOL0     C31759   3.808   2.259   8.882  1.0958  0.4736  0.3902
  231MOL0     C31760   3.692   2.286   8.985 -0.2752  0.5701  0.1081
  231MOL0     C31761   3.567   2.190   8.964 -0.0917 -0.4059 -0.1114
  231MOL0     C31762   3.491   2.211   8.833 -0.6706 -0.2023  0.1520
  231MOL0     C31763   3.417   2.088   8.798  0.1144 -0.1582  0.2313
  231MOL0     O31764   3.394   2.103   8.653 -0.3707 -0.0583 -0.3956
  231MOL0     C31765   3.288   2.174   8.606  0.6406  0.8037  0.1470
  231MOL0     C31766   3.307   2.302   8.562  0.1345  0.8027 -1.1436
  231MOL0     C31767   3.206   2.375   8.509 -0.0266 -0.4812 -0.2040
  231MOL0     C31768   3.254   2.519   8.472 -0.2859  0.6022  0.2365
  231MOL0     C31769   3.081   2.323   8.490  0.3159 -0.1785  0.2905
  231MOL0     C31770   2.974   2.409   8.428  0.6236 -0.3924 -0.7352
  231MOL0     O31771   2.847   2.363   8.452 -0.4689  0.2156  0.3488
  231MOL0     C31772   2.746   2.434   8.394 -0.3912 -0.3337  0.3639
  231MOL0     C31773   2.728   2.574   8.397 -0.5660  0.4272 -0.0553
  231MOL0     C31774   2.626   2.642   8.333 -0.0117  0.4468 -0.3566
  231MOL0     C31775   2.532   2.566   8.267  0.0168 -0.0100 -0.1092
  231MOL0     O31776   2.431   2.623   8.190  0.1292 -0.6429  0.2325
  231MOL0     C31777   2.482   2.733   8.104 -0.5281 -0.4224 -1.3709
  231MOL0     C31778   2.394   2.731   7.984  0.2688  0.7807  0.0565
  231MOL0     C31779   2.430   2.618   7.893  0.5037 -0.4114  0.2438
  231MOL0     C31780   2.546   2.655   7.797 -0.6169  0.7340  0.2794
  231MOL0     C31781   2.588   2.523   7.725 -0.4804 -0.8118 -0.0327
  231MOL0     C31782   2.722   2.556   7.663  0.5083  0.7336  0.4191
  231MOL0     C31783   2.772   2.432   7.588  0.1117  0.4824  0.5877
  231MOL0     C31784   2.897   2.469   7.505 -0.5019 -0.1199 -0.2952
  231MOL0    Cl31785   3.045   2.517   7.582 -0.2268  0.1988 -0.4097
  231MOL0     C31786   2.537   2.429   8.271 -0.3232  0.1421  0.3553
  231MOL0     C31787   2.645   2.364   8.333  0.3178  1.0789  0.1035
  231MOL0     O31788   2.997   2.501   8.346  0.1520 -0.6208 -0.2361
  231MOL0     C31789   3.054   2.190   8.535 -0.3686 -0.0038 -0.1263
  231MOL0     C31790   3.158   2.115   8.593 -0.0363  0.0343  0.3854
  231MOL0     N31791   3.864   2.134   8.861  0.3420 -0.5399 -0.0359
  231MOL0     N31792   3.945   2.156   8.769 -0.0521  0.0910  0.6848
  231MOL0     C31793   3.963   3.310   8.110 -0.1447  0.2534 -0.2834
  231MOL0     C31794   3.958   3.407   8.000 -0.4281  1.1841 -0.0883
  231MOL0     C31795   4.039   3.543   7.549 -0.7243 -0.3449  0.2674
  231MOL0     C31796   3.973   3.495   7.433 -0.3426 -0.4022  0.2174
  231MOL0     C31797   3.949   3.568   7.321  1.2458  0.2806 -0.3417
  231MOL0     C31798   3.982   3.703   7.317  0.2129 -0.5467 -0.2751
  231MOL0     O31799   3.952   3.785   7.210 -0.4650 -0.4636 -0.7618
  231MOL0     C31800   3.906   3.733   7.081  0.6672  0.4045 -0.1956
  231MOL0     C31801   3.913   3.863   6.995 -1.1809  0.0075  0.3073
  231MOL0     C31802   3.824   3.979   7.026  0.2708 -0.5789 -0.7917
  231MOL0     C31803   3.677   3.966   6.989  0.9761 -0.0849  0.0930
  231MOL0     C31804   3.661   3.941   6.843  0.0452  0.0884 -0.6328
  231MOL0     C31805   3.662   3.934   6.719 -0.4926  0.4122 -0.7269
  231MOL0     C31806   4.040   3.761   7.437 -0.1866 -0.5583  0.8818
  231MOL0     C31807   4.075   3.678   7.550 -0.3867 -0.8370 -0.2652
  231MOL0     C31808   4.144   3.745   7.670  0.1790 -0.3263 -0.4218
  231MOL0     H31809   4.273   3.346   7.865  1.1852 -0.5390  2.0737
  231MOL0     H31810   4.277   3.179   8.052  0.6654  0.1008  0.0872
  231MOL0     H31811   4.207   2.988   8.171  0.9616  0.1990  1.4100
  231MOL0     H31812   4.029   2.982   8.192 -0.3036  1.1782  1.1939
  231MOL0     H31813   4.247   2.984   8.400  0.6790  0.2909 -1.7196
  231MOL0     H31814   4.078   2.985   8.447  0.7112 -0.8704  0.7529
  231MOL0     H31815   4.107   2.772   8.237  1.8705 -0.8104 -1.1604
  231MOL0     H31816   4.234   2.761   8.369  0.0844  0.4008 -0.5681
  231MOL0     H31817   4.021   2.773   8.519 -1.3160  0.3153  1.2690
  231MOL0     H31818   3.936   2.750   8.357 -0.8972  1.6801  2.2451
  231MOL0     H31819   4.148   2.563   8.461 -0.7470  1.2340  2.3482
  231MOL0     H31820   4.067   2.565   8.300  0.1531  1.7413 -0.2587
  231MOL0     H31821   3.911   2.545   8.565  1.8790  1.8341 -0.3683
  231MOL0     H31822   3.857   2.517   8.402 -0.7964 -2.7837 -0.9351
  231MOL0     H31823   4.039   2.309   8.410  0.9186  1.0083  0.0937
  231MOL0     H31824   3.880   2.300   8.488  0.7821  0.1312 -2.0007
  231MOL0     H31825   4.124   2.265   8.623  0.4609  0.1871 -2.2535
  231MOL0     H31826   4.087   2.423   8.669  0.7389 -2.0867  2.0694
  231MOL0     H31827   3.841   2.463   8.799 -1.4093 -1.0374 -0.3601
  231MOL0     H31828   3.658   2.390   8.982  0.3417  0.7626 -1.6217
  231MOL0     H31829   3.727   2.267   9.086  0.3831  1.0569 -0.0219
  231MOL0     H31830   3.611   2.090   8.966  1.1930  0.1352  1.8605
  231MOL0     H31831   3.511   2.195   9.059 -1.0495  0.6862 -0.7111
  231MOL0     H31832   3.419   2.294   8.838 -0.0780  0.5429 -2.4495
  231MOL0     H31833   3.568   2.220   8.756 -0.7464  2.0517  0.2777
  231MOL0     H31834   3.459   1.989   8.821  2.4957  1.3633  3.1928
  231MOL0     H31835   3.320   2.087   8.848  0.1381 -4.2804  0.5768
  231MOL0     H31836   3.402   2.348   8.588  0.4929 -1.3480  1.9124
  231MOL0     H31837   3.165   2.573   8.503 -2.2256 -1.3605 -1.5288
  231MOL0     H31838   3.269   2.541   8.366  2.3210 -0.2961  0.3493
  231MOL0     H31839   3.350   2.540   8.521 -0.9299  1.1661  1.2880
  231MOL0     H31840   2.799   2.644   8.438 -1.3925 -0.1142  2.4855
  231MOL0     H31841   2.620   2.749   8.344  0.3319  0.3605  0.8047
  231MOL0     H31842   2.487   2.830   8.155 -3.0667 -0.6387 -0.5856
  231MOL0     H31843   2.586   2.704   8.086  0.2392  0.1568  1.6426
  231MOL0     H31844   2.297   2.719   8.034  0.1190 -1.4792 -0.6772
  231MOL0     H31845   2.409   2.826   7.931  3.3006  0.7698  0.7224
  231MOL0     H31846   2.339   2.601   7.836  0.4407  1.9939 -0.4715
  231MOL0     H31847   2.459   2.529   7.949  0.5242 -0.1492  0.6575
  231MOL0     H31848   2.629   2.687   7.861  2.1772 -1.9091 -1.7297
  231MOL0     H31849   2.523   2.735   7.726  0.5998  0.1658 -0.8055
  231MOL0     H31850   2.593   2.441   7.797  2.3703  0.6064  1.5932
  231MOL0     H31851   2.518   2.506   7.643  2.2825  1.6845 -3.1867
  231MOL0     H31852   2.791   2.577   7.745 -0.6460  1.3325  1.2586
  231MOL0     H31853   2.718   2.649   7.607  0.1475  0.1902 -0.4837
  231MOL0     H31854   2.701   2.387   7.517 -1.1333  0.4127  1.8374
  231MOL0     H31855   2.805   2.356   7.659 -1.9021 -0.5592  0.4842
  231MOL0     H31856   2.860   2.546   7.435  1.5038  0.1777 -1.0793
  231MOL0     H31857   2.916   2.378   7.447 -1.7498 -0.8307  0.3486
  231MOL0     H31858   2.452   2.378   8.229 -2.4710  3.3403  0.4934
  231MOL0     H31859   2.664   2.261   8.308  0.6164  0.7537  1.5741
  231MOL0     H31860   2.950   2.159   8.538  0.0581 -1.9214  4.9430
  231MOL0     H31861   3.134   2.019   8.639 -0.2727  0.9604  2.3120
  231MOL0     H31862   3.877   3.305   8.175  1.0992 -1.6195  1.3630
  231MOL0     H31863   3.876   3.473   7.976 -2.8346 -2.0744 -1.5732
  231MOL0     H31864   3.946   3.391   7.414 -1.2814 -0.5192  2.0179
  231MOL0     H31865   3.918   3.523   7.228  2.5067  0.5419 -0.9194
  231MOL0     H31866   3.965   3.647   7.047  0.9517 -0.0980  1.4697
  231MOL0     H31867   3.804   3.693   7.080  0.3928  1.0704 -1.9582
  231MOL0     H31868   3.893   3.828   6.894 -4.5468  0.2554  0.7707
  231MOL0     H31869   4.011   3.911   7.002 -0.3528 -1.6853  0.9112
  231MOL0     H31870   3.823   3.991   7.134 -2.0679 -3.0355 -0.4108
  231MOL0     H31871   3.852   4.073   6.978  2.9980 -1.7864 -1.7175
  231MOL0     H31872   3.618   4.052   7.021  1.0665  0.2535 -0.6458
  231MOL0     H31873   3.636   3.870   7.023  0.6631 -1.3827 -3.5413
  231MOL0     H31874   3.663   3.948   6.612 -0.0931 -1.4842 -1.0124
  231MOL0     H31875   4.050   3.868   7.450  0.2971 -0.5769  0.6636
  231MOL0     H31876   4.227   3.684   7.707  1.1735  0.9222 -0.5240
  231MOL0     H31877   4.178   3.847   7.647  1.1950 -0.4038  0.6414
  231MOL0     H31878   4.074   3.757   7.753  0.0521  0.0740 -0.5840
  232MOL0     O31879   7.840  11.434  11.021  0.6689 -0.4042  0.6441
  232MOL0     C31880   7.867  11.514  11.106  0.0407  0.4518 -0.4718
  232MOL0     O31881   7.937  11.483  11.214  0.1006 -0.6431 -0.2102
  232MOL0     C31882   7.981  11.352  11.234 -0.0699  0.5745 -0.0153
  232MOL0     C31883   7.933  11.264  11.332  0.0747  0.0008  0.5483
  232MOL0     C31884   7.995  11.144  11.350  0.2095 -0.6224  0.5243
  232MOL0     C31885   8.106  11.105  11.275  0.4726 -0.0705  0.4106
  232MOL0     O31886   8.151  10.977  11.298  0.2425  0.0283 -0.2973
  232MOL0     C31887   8.232  10.915  11.201 -0.8434 -0.9053  0.4622
  232MOL0     C31888   8.228  10.761  11.207 -0.0752  0.1793  0.6392
  232MOL0     C31889   8.311  10.702  11.321 -0.2558  0.1324 -0.3436
  232MOL0     C31890   8.331  10.550  11.322  0.4976  0.2770  0.5490
  232MOL0     C31891   8.389  10.488  11.451  0.2885  0.3732 -0.2404
  232MOL0     C31892   8.411  10.336  11.446 -0.1475 -0.0870 -0.0072
  232MOL0     C31893   8.524  10.285  11.352 -0.6827  0.3675  0.4385
  232MOL0     C31894   8.515  10.126  11.347  0.3475 -0.1087  0.2597
  232MOL0     N31895   8.599  10.067  11.460 -0.2782 -0.7456  0.7820
  232MOL0     C31896   8.546  10.010  11.580 -0.8224 -0.1234 -0.2540
  232MOL0     C31897   8.663   9.962  11.642 -0.3810  0.3031  0.1197
  232MOL0     C31898   8.663   9.875  11.763  0.5246 -0.0759  0.5412
  232MOL0     C31899   8.739   9.946  11.876 -0.4391  0.4076  0.4725
  232MOL0     C31900   8.687   9.898  12.010  0.0507  0.8835  0.3474
  232MOL0     C31901   8.797   9.901  12.117  0.1162  0.3595  1.0792
  232MOL0     O31902   8.728   9.850  12.233  0.1301 -0.3921 -0.1776
  232MOL0     C31903   8.718   9.940  12.336  1.0236 -1.5343 -0.0182
  232MOL0     C31904   8.688  10.077  12.321  0.6426  0.7367 -0.5246
  232MOL0     C31905   8.682  10.163  12.432 -1.1121  0.5345  0.2747
  232MOL0     C31906   8.659  10.305  12.408 -0.4974  0.4191  0.4544
  232MOL0     C31907   8.690  10.107  12.564  0.1196  0.4209  0.9097
  232MOL0     C31908   8.693  10.184  12.689  0.2212  0.0668 -0.1578
  232MOL0     O31909   8.753  10.127  12.798  0.2847  0.6930  0.5646
  232MOL0     C31910   8.803  10.190  12.904  0.6127 -0.3261  0.5944
  232MOL0     C31911   8.865  10.321  12.903 -0.4291  0.6570 -0.1242
  232MOL0     C31912   8.924  10.376  13.013 -0.2900  0.3853 -0.5580
  232MOL0     C31913   8.936  10.297  13.130 -0.2031  0.2509  0.2326
  232MOL0     O31914   9.019  10.339  13.233  0.4160 -0.1793 -0.2574
  232MOL0     C31915   8.994  10.451  13.303 -0.7126 -0.4153 -0.1183
  232MOL0     C31916   9.129  10.493  13.369  0.0233  0.0365  0.6303
  232MOL0     C31917   9.175  10.396  13.478  0.3219 -0.7419  0.6506
  232MOL0     C31918   9.313  10.437  13.548  0.3528  0.6521  0.0552
  232MOL0     C31919   9.325  10.387  13.691  0.2407  1.1807 -0.5140
  232MOL0     C31920   9.328  10.237  13.722 -0.6510  0.7182  0.9864
  232MOL0     C31921   9.457  10.166  13.664  0.8230 -0.0946  0.4730
  232MOL0     C31922   9.548  10.114  13.771  0.1074 -0.2758 -0.1019
  232MOL0    Cl31923   9.460   9.996  13.868 -0.2706  0.1922  0.1226
  232MOL0     C31924   8.874  10.172  13.132  0.2119  1.0845  0.3107
  232MOL0     C31925   8.816  10.113  13.018  1.0416  0.2630  0.0636
  232MOL0     O31926   8.643  10.294  12.689  0.3307  0.6080  0.1887
  232MOL0     C31927   8.719   9.969  12.574 -0.2855  0.2576  0.1521
  232MOL0     C31928   8.727   9.895  12.463  0.6163 -0.2406 -0.3330
  232MOL0     N31929   8.777  10.002  11.576  0.1707 -0.5375  0.3663
  232MOL0     N31930   8.735  10.062  11.465 -0.8574  0.2986 -0.6246
  232MOL0     C31931   8.154  11.190  11.166 -0.5537  0.3720 -0.4430
  232MOL0     C31932   8.090  11.308  11.150 -0.6457  0.3830  0.1700
  232MOL0     C31933   7.808  11.647  11.095  0.0714 -1.1638 -0.1902
  232MOL0     C31934   7.772  11.708  11.210 -0.4058  1.1317 -0.2712
  232MOL0     C31935   7.717  11.838  11.210  0.5201  0.6407 -0.5057
  232MOL0     C31936   7.693  11.901  11.086  0.7593 -0.6841 -0.7487
  232MOL0     O31937   7.645  12.032  11.057 -0.0671 -0.3583  0.5644
  232MOL0     C31938   7.670  12.139  11.150  0.1568 -1.1225  0.6084
  232MOL0     C31939   7.659  12.271  11.079 -0.1694 -0.6458  0.1987
  232MOL0     C31940   7.517  12.300  11.038  0.3385 -0.3871  0.0664
  232MOL0     C31941   7.512  12.455  11.007  0.1434  0.1043 -1.2097
  232MOL0     C31942   7.530  12.539  11.128  0.0263 -0.0758  0.3519
  232MOL0     C31943   7.569  12.618  11.216 -0.4532 -0.4891  0.2846
  232MOL0     C31944   7.723  11.840  10.978  1.1150 -0.1261  0.4668
  232MOL0     C31945   7.794  11.713  10.970  0.0510  1.2389  0.8030
  232MOL0     C31946   7.844  11.654  10.842  0.4440 -0.4908 -0.0865
  232MOL0     H31947   7.859  11.293  11.406 -1.9382 -3.6758  0.2242
  232MOL0     H31948   7.963  11.079  11.431 -0.6656  0.1108  0.7801
  232MOL0     H31949   8.331  10.963  11.207 -1.7008  0.8258  1.7696
  232MOL0     H31950   8.192  10.932  11.101 -0.9816 -0.1394  0.6414
  232MOL0     H31951   8.125  10.725  11.215  0.3755 -2.0889 -1.9232
  232MOL0     H31952   8.266  10.724  11.111  3.0464  1.8401  1.1002
  232MOL0     H31953   8.410  10.749  11.323 -0.5398  0.7280  1.0065
  232MOL0     H31954   8.263  10.737  11.413 -0.2755  3.8758 -1.5865
  232MOL0     H31955   8.230  10.509  11.322  0.5922  0.0424  0.6646
  232MOL0     H31956   8.393  10.528  11.235  3.4284 -1.5856  2.9329
  232MOL0     H31957   8.324  10.505  11.537  0.2185  1.8924 -0.5606
  232MOL0     H31958   8.483  10.540  11.472  1.8339 -2.7427  1.2977
  232MOL0     H31959   8.440  10.295  11.543 -2.0939 -3.4022 -0.6474
  232MOL0     H31960   8.315  10.291  11.418  0.2570 -0.2456 -1.2201
  232MOL0     H31961   8.615  10.328  11.394 -2.0312  1.1032  2.8821
  232MOL0     H31962   8.513  10.333  11.255  2.2935 -2.7977 -1.6596
  232MOL0     H31963   8.418  10.091  11.381  2.1190 -3.6431  2.2355
  232MOL0     H31964   8.547  10.099  11.246 -0.7824  0.6531 -0.3253
  232MOL0     H31965   8.444   9.995  11.612 -1.0324  1.7435  0.0612
  232MOL0     H31966   8.710   9.780  11.734  0.8954  0.7458 -1.7521
  232MOL0     H31967   8.562   9.849  11.798  0.3238  0.6308  0.4980
  232MOL0     H31968   8.845   9.919  11.870 -0.2542  1.3918 -1.3673
  232MOL0     H31969   8.727  10.055  11.873 -2.9405  0.1893  0.5905
  232MOL0     H31970   8.598   9.955  12.036 -1.1217 -1.1459  1.0200
  232MOL0     H31971   8.647   9.796  12.003 -3.3064  2.0046  1.3384
  232MOL0     H31972   8.870   9.829  12.080  0.5063  2.0665 -1.7540
  232MOL0     H31973   8.840  10.001  12.129  1.2477 -0.3171  3.1099
  232MOL0     H31974   8.668  10.115  12.221  0.1699  0.0026 -0.7169
  232MOL0     H31975   8.653  10.327  12.301 -2.2645 -0.7011  0.2751
  232MOL0     H31976   8.748  10.358  12.443  1.4703 -2.1425 -0.3484
  232MOL0     H31977   8.561  10.329  12.451 -1.6223 -1.3561 -0.9695
  232MOL0     H31978   8.854  10.368  12.806  1.5244 -0.1852 -0.7995
  232MOL0     H31979   8.950  10.480  13.026 -1.6970  0.8490 -1.2401
  232MOL0     H31980   8.960  10.536  13.243  0.6222  0.0165 -0.3096
  232MOL0     H31981   8.917  10.427  13.377  0.6721 -0.7723  1.2715
  232MOL0     H31982   9.209  10.492  13.294  0.0741  0.6503  0.6771
  232MOL0     H31983   9.126  10.595  13.408  0.0617  1.7963 -3.5049
  232MOL0     H31984   9.193  10.299  13.433 -1.6849 -1.1420  0.6250
  232MOL0     H31985   9.100  10.379  13.556 -2.2757 -0.9112 -1.7522
  232MOL0     H31986   9.315  10.546  13.546  2.9700  0.6570  0.0006
  232MOL0     H31987   9.398  10.405  13.487 -1.3155 -3.0293 -0.6215
  232MOL0     H31988   9.415  10.440  13.723 -0.4363  1.4657  1.0370
  232MOL0     H31989   9.236  10.429  13.739 -0.3627 -0.0641 -0.5071
  232MOL0     H31990   9.235  10.186  13.694  0.2483 -1.0145  1.0025
  232MOL0     H31991   9.331  10.226  13.830 -0.0172 -1.2609  0.8067
  232MOL0     H31992   9.513  10.238  13.604 -2.4641  0.8345 -1.7936
  232MOL0     H31993   9.411  10.097  13.593  1.0269 -0.3155  0.5561
  232MOL0     H31994   9.590  10.191  13.835  1.5206 -0.0814 -1.2042
  232MOL0     H31995   9.632  10.068  13.717  1.2463  2.0315 -0.4283
  232MOL0     H31996   8.877  10.116  13.224  0.2839  0.4407 -0.0795
  232MOL0     H31997   8.779  10.011  13.016  1.2013  0.2070 -1.1849
  232MOL0     H31998   8.732   9.919  12.670  0.3297  0.9855  0.4639
  232MOL0     H31999   8.750   9.789  12.470 -0.4030 -0.4501  0.0523
  232MOL0     H32000   8.244  11.173  11.107  2.1758 -0.6579  3.6225
  232MOL0     H32001   8.115  11.381  11.074 -0.5534  1.0847  0.8696
  232MOL0     H32002   7.781  11.651  11.302 -3.0857 -0.2560 -0.7936
  232MOL0     H32003   7.686  11.882  11.305  0.4212  0.3965 -0.4240
  232MOL0     H32004   7.604  12.130  11.236 -2.1266 -2.1102 -1.1538
  232MOL0     H32005   7.775  12.131  11.179  0.7345 -1.2755 -1.3672
  232MOL0     H32006   7.722  12.272  10.990 -0.0522 -0.5234  0.2818
  232MOL0     H32007   7.705  12.342  11.149  3.4095 -1.8903 -0.6973
  232MOL0     H32008   7.483  12.249  10.948 -0.2158 -0.5663  0.3709
  232MOL0     H32009   7.455  12.270  11.123  1.3275 -1.8627  0.3035
  232MOL0     H32010   7.416  12.476  10.959 -2.3223 -2.8203  1.9247
  232MOL0     H32011   7.592  12.479  10.936  1.0968  0.8590  0.0821
  232MOL0     H32012   7.605  12.694  11.283  1.3242  2.2379 -3.4188
  232MOL0     H32013   7.685  11.885  10.887 -0.3705  2.7054  2.3219
  232MOL0     H32014   7.845  11.726  10.759  2.0756 -0.5209 -0.1317
  232MOL0     H32015   7.942  11.605  10.848 -1.0737 -3.8212 -0.4308
  232MOL0     H32016   7.788  11.570  10.802 -1.2166 -0.6530  2.3777
  233MOL0     O32017   7.893   5.136  11.063 -0.5016 -0.3670  0.2297
  233MOL0     C32018   7.908   5.097  10.942 -0.8185  0.4979 -0.5156
  233MOL0     O32019   7.915   4.970  10.898 -0.1199  0.5368  0.2662
  233MOL0     C32020   7.881   4.873  10.994 -0.4264 -0.3083  0.7221
  233MOL0     C32021   7.978   4.789  11.039  0.8527  0.1905  0.3775
  233MOL0     C32022   7.951   4.687  11.130 -0.3192 -0.7078  0.3370
  233MOL0     C32023   7.824   4.670  11.182 -0.7930  0.4209 -0.2417
  233MOL0     O32024   7.817   4.589  11.290 -0.1724  0.8322 -0.2715
  233MOL0     C32025   7.690   4.592  11.361 -0.2477 -0.4814  0.1072
  233MOL0     C32026   7.690   4.497  11.485 -0.3233  0.6355  1.5010
  233MOL0     C32027   7.805   4.527  11.579  0.6032 -0.0049 -0.1791
  233MOL0     C32028   7.797   4.432  11.699 -0.4580  0.2412 -0.1509
  233MOL0     C32029   7.929   4.452  11.787 -0.1409  0.0246 -0.2085
  233MOL0     C32030   7.948   4.345  11.886 -0.8469 -1.0425  0.1901
  233MOL0     C32031   8.069   4.359  11.972 -0.5107  0.3755 -0.1946
  233MOL0     C32032   8.054   4.288  12.110  0.1908  0.0059 -0.0502
  233MOL0     N32033   8.006   4.147  12.093 -0.6728 -0.1614 -1.0382
  233MOL0     C32034   7.879   4.108  12.141 -0.9511  0.2665 -0.9157
  233MOL0     C32035   7.865   3.978  12.109  0.1564 -0.1759  0.9929
  233MOL0     C32036   7.743   3.895  12.126 -1.0395  0.0234  0.3032
  233MOL0     C32037   7.689   3.889  12.273 -0.3143  0.2414  0.6735
  233MOL0     C32038   7.539   3.865  12.267  0.2564  0.1108  0.0401
  233MOL0     C32039   7.469   3.991  12.277 -1.5520 -0.8910  0.2240
  233MOL0     O32040   7.520   4.088  12.178 -0.0185 -0.1222  0.0547
  233MOL0     C32041   7.451   4.098  12.061 -0.3377  0.8865 -0.8364
  233MOL0     C32042   7.339   4.023  12.027  0.3078 -0.8375  0.4963
  233MOL0     C32043   7.292   4.029  11.889  0.1454  0.3695 -0.0483
  233MOL0     C32044   7.178   3.929  11.867 -0.5623 -0.5661 -0.0829
  233MOL0     C32045   7.356   4.113  11.787  0.2069 -0.6162 -0.7701
  233MOL0     C32046   7.312   4.136  11.652  0.4311 -0.7034 -0.2780
  233MOL0     O32047   7.395   4.213  11.572 -0.1014 -0.0078 -0.1671
  233MOL0     C32048   7.372   4.216  11.433 -0.5631  0.5381  0.2641
  233MOL0     C32049   7.347   4.339  11.367  0.8258 -0.0856  0.6344
  233MOL0     C32050   7.319   4.347  11.229  0.0843  0.2648  0.3634
  233MOL0     C32051   7.318   4.223  11.156  1.1989 -0.3091 -0.1112
  233MOL0     O32052   7.277   4.214  11.027  0.3293  0.2163  0.3060
  233MOL0     C32053   7.359   4.296  10.934  0.3457  0.6942  0.6338
  233MOL0     C32054   7.385   4.203  10.818 -0.0688 -0.0918 -0.0290
  233MOL0     C32055   7.418   4.278  10.688  0.0795 -0.6263  0.3264
  233MOL0     C32056   7.478   4.181  10.588  0.4988 -0.0806 -0.1271
  233MOL0     C32057   7.589   4.239  10.497  0.8580  0.6087 -0.7848
  233MOL0     C32058   7.609   4.140  10.381  0.6004 -0.4753  0.4023
  233MOL0     C32059   7.748   4.153  10.316 -0.0987  0.7352 -0.2570
  233MOL0     C32060   7.765   4.288  10.241 -0.0251 -0.0707  0.5201
  233MOL0    Cl32061   7.648   4.306  10.114 -0.2938 -0.3377 -0.4358
  233MOL0     C32062   7.349   4.098  11.219 -0.4539 -0.2270 -0.4193
  233MOL0     C32063   7.386   4.101  11.356 -0.2500  0.3058 -0.7430
  233MOL0     O32064   7.214   4.075  11.613 -0.3653 -1.2608 -0.1519
  233MOL0     C32065   7.466   4.183  11.836 -0.4690 -0.9375 -0.6396
  233MOL0     C32066   7.515   4.171  11.969 -0.4976 -0.1133  0.5977
  233MOL0     N32067   7.990   3.945  12.048  0.6637 -0.0516 -0.8784
  233MOL0     N32068   8.071   4.044  12.041  0.3393  0.1204  0.7404
  233MOL0     C32069   7.725   4.757  11.138 -0.2904 -0.1542 -0.5180
  233MOL0     C32070   7.757   4.864  11.049  0.3892  0.1458  0.3677
  233MOL0     C32071   7.909   5.203  10.834  0.5669 -0.3924 -0.2149
  233MOL0     C32072   7.963   5.326  10.868 -0.5693 -0.1460 -0.6172
  233MOL0     C32073   7.967   5.427  10.769  0.1998  1.1111  0.4190
  233MOL0     C32074   7.914   5.410  10.641 -0.5461  0.3253 -1.0848
  233MOL0     O32075   7.909   5.523  10.557 -0.6235 -0.2693 -0.5671
  233MOL0     C32076   7.807   5.518  10.461  0.2746 -0.1160 -0.4529
  233MOL0     C32077   7.883   5.479  10.332 -0.4424 -0.2773  0.6877
  233MOL0     C32078   7.830   5.545  10.203 -0.8311 -0.5627 -0.1848
  233MOL0     C32079   7.704   5.483  10.148 -0.0456 -0.6271  0.2846
  233MOL0     C32080   7.664   5.536  10.017  0.0697  0.2385 -0.3773
  233MOL0     C32081   7.631   5.575   9.904  0.2307 -0.2925  0.3715
  233MOL0     C32082   7.863   5.280  10.613  0.1069  0.5887  0.6105
  233MOL0     C32083   7.853   5.183  10.707 -0.3920 -0.2420  0.0549
  233MOL0     C32084   7.773   5.062  10.678  0.1197  0.3002  0.0422
  233MOL0     H32085   8.083   4.788  11.014  0.5389 -2.3917 -1.3178
  233MOL0     H32086   8.037   4.623  11.148 -0.4830 -1.2355 -0.6554
  233MOL0     H32087   7.602   4.586  11.296 -1.5949  2.1485  1.5008
  233MOL0     H32088   7.701   4.692  11.404  1.5928 -1.0948  1.1711
  233MOL0     H32089   7.596   4.518  11.537 -1.3579  2.2693 -0.8241
  233MOL0     H32090   7.686   4.396  11.444  1.9066  1.7682 -2.0093
  233MOL0     H32091   7.908   4.527  11.543  1.7716 -2.8967  2.7467
  233MOL0     H32092   7.791   4.628  11.619  1.7287  0.2417 -0.3722
  233MOL0     H32093   7.707   4.454  11.757  0.3484  0.6609  0.9612
  233MOL0     H32094   7.787   4.327  11.668 -0.1951 -0.0376  0.6865
  233MOL0     H32095   7.930   4.551  11.834  0.1795  1.1988 -2.5474
  233MOL0     H32096   8.024   4.452  11.733 -0.4131 -1.4724 -0.7298
  233MOL0     H32097   7.858   4.354  11.947 -0.0150  0.8162  1.2411
  233MOL0     H32098   7.953   4.244  11.844  0.7002 -0.5810 -0.8618
  233MOL0     H32099   8.093   4.464  11.991  0.7192  0.7160 -3.0756
  233MOL0     H32100   8.149   4.304  11.921 -2.4230 -2.7380 -0.1134
  233MOL0     H32101   8.140   4.310  12.173 -0.8503 -0.9510  1.7629
  233MOL0     H32102   7.964   4.334  12.152  1.2830 -0.4973  3.0653
  233MOL0     H32103   7.801   4.158  12.198  0.6780  0.1977  1.5454
  233MOL0     H32104   7.767   3.794  12.092 -1.8278 -0.0580 -0.0167
  233MOL0     H32105   7.665   3.931  12.058 -1.7266  0.7946  1.4583
  233MOL0     H32106   7.740   3.805  12.320  0.3914 -0.4112 -1.1772
  233MOL0     H32107   7.728   3.977  12.326  0.3827 -1.6339  3.5044
  233MOL0     H32108   7.498   3.829  12.172  0.5335 -0.5774  0.1777
  233MOL0     H32109   7.515   3.805  12.355  1.1823 -0.6048 -0.1778
  233MOL0     H32110   7.362   3.967  12.275 -1.1293 -3.0297 -2.0767
  233MOL0     H32111   7.490   4.028  12.378  1.8767 -2.3834  0.1805
  233MOL0     H32112   7.286   3.957  12.095 -1.3700  0.9155  0.9807
  233MOL0     H32113   7.114   3.921  11.955 -0.4594 -0.6701 -0.0177
  233MOL0     H32114   7.222   3.835  11.831 -0.7764 -1.6071  2.2110
  233MOL0     H32115   7.106   3.959  11.790 -0.2861 -1.0442 -0.5422
  233MOL0     H32116   7.329   4.422  11.435 -0.4601  0.0395  0.1727
  233MOL0     H32117   7.275   4.439  11.190 -1.4422 -0.4213  0.4150
  233MOL0     H32118   7.313   4.391  10.904  0.7265  0.3328 -1.2543
  233MOL0     H32119   7.449   4.312  10.994  0.9207 -2.4532  0.7345
  233MOL0     H32120   7.473   4.145  10.848 -0.2289 -0.1305  0.3810
  233MOL0     H32121   7.308   4.126  10.802  0.8064 -1.0715  0.3698
  233MOL0     H32122   7.495   4.355  10.703  1.5931 -2.2945  1.4908
  233MOL0     H32123   7.336   4.334  10.640 -0.7584 -3.1836 -1.4507
  233MOL0     H32124   7.397   4.154  10.520 -0.2181 -0.6055  0.9048
  233MOL0     H32125   7.522   4.090  10.630  1.1598 -1.3681 -3.3642
  233MOL0     H32126   7.567   4.340  10.462 -1.5509  1.2675  2.1700
  233MOL0     H32127   7.680   4.245  10.557  2.3049  0.9563 -2.9073
  233MOL0     H32128   7.528   4.142  10.308 -0.3295 -4.6555  1.0363
  233MOL0     H32129   7.594   4.044  10.432 -1.9060  1.1884  3.1554
  233MOL0     H32130   7.755   4.078  10.237  1.5055 -0.3553  0.8680
  233MOL0     H32131   7.824   4.134  10.392 -0.7100 -1.6344 -0.1681
  233MOL0     H32132   7.863   4.288  10.194 -0.2036  2.9657 -0.0595
  233MOL0     H32133   7.760   4.377  10.304  0.3924 -0.6585  1.4073
  233MOL0     H32134   7.337   4.005  11.165 -0.3887  0.9208 -2.5291
  233MOL0     H32135   7.411   4.003  11.396 -0.4187 -0.1786 -1.7892
  233MOL0     H32136   7.528   4.245  11.772 -0.8005  0.2889  0.1989
  233MOL0     H32137   7.610   4.219  11.990 -0.5496  0.4401 -0.4073
  233MOL0     H32138   7.620   4.749  11.167 -0.5945  1.5169 -1.0163
  233MOL0     H32139   7.674   4.927  11.016 -1.1843 -1.1818  1.6194
  233MOL0     H32140   8.012   5.336  10.964  2.1335  2.8889 -2.1162
  233MOL0     H32141   8.028   5.517  10.779  2.8703 -0.8174  3.2149
  233MOL0     H32142   7.723   5.453  10.486 -0.5037  0.4844 -1.4407
  233MOL0     H32143   7.758   5.614  10.450  3.2310  1.3486 -2.0474
  233MOL0     H32144   7.904   5.373  10.320  0.5562 -0.3454  2.6163
  233MOL0     H32145   7.990   5.500  10.338 -0.4744  1.2928 -2.5473
  233MOL0     H32146   7.809   5.648  10.234  2.8792 -0.6048  3.1796
  233MOL0     H32147   7.919   5.542  10.139  0.2439  1.1641  1.1461
  233MOL0     H32148   7.638   5.507  10.232 -0.1970 -4.1585  1.3657
  233MOL0     H32149   7.713   5.374  10.152 -1.2078 -0.7533 -0.1638
  233MOL0     H32150   7.601   5.601   9.804  1.3470  0.6048  0.2513
  233MOL0     H32151   7.809   5.263  10.520 -0.1168  2.7634  0.2760
  233MOL0     H32152   7.718   5.074  10.584  0.0524 -1.5625 -0.1897
  233MOL0     H32153   7.829   4.971  10.654 -2.3766 -0.8196 -2.1645
  233MOL0     H32154   7.698   5.056  10.758 -0.6038  4.5222 -0.0989
  234MOL0     O32155   2.757   4.024   5.931  0.2932  0.3866 -0.4978
  234MOL0     C32156   2.749   3.940   6.026  0.4170 -0.5913 -0.5828
  234MOL0     O32157   2.631   3.899   6.077 -0.1315  0.0052 -0.6016
  234MOL0     C32158   2.518   3.959   6.028 -0.0487 -0.6626 -0.1761
  234MOL0     C32159   2.463   3.909   5.902  0.4373  0.0566  0.7125
  234MOL0     C32160   2.359   3.980   5.840  0.2007  0.0308 -0.2415
  234MOL0     C32161   2.312   4.096   5.892 -0.6131 -0.3465  0.5106
  234MOL0     O32162   2.215   4.148   5.814 -0.4624  0.8125  0.1836
  234MOL0     C32163   2.092   4.197   5.872 -0.0039 -0.5204 -0.9938
  234MOL0     C32164   2.001   4.244   5.757  0.0688  0.5172 -0.8190
  234MOL0     C32165   2.042   4.371   5.700 -0.0423 -1.2115  0.5425
  234MOL0     C32166   1.937   4.415   5.585 -1.0612 -0.4176 -1.1731
  234MOL0     C32167   1.962   4.556   5.528  0.0326 -0.3298 -0.0496
  234MOL0     C32168   1.847   4.601   5.441  0.1523 -0.3834  0.4732
  234MOL0     C32169   1.897   4.752   5.389  0.2709 -0.2526  0.5789
  234MOL0     C32170   1.785   4.802   5.307 -0.3738  0.1607  1.0766
  234MOL0     N32171   1.810   4.945   5.285  0.7502 -0.4057  0.2682
  234MOL0     C32172   1.909   4.995   5.207 -0.4186  0.0091 -0.0627
  234MOL0     C32173   1.892   5.127   5.220 -1.8382  0.4074 -0.8236
  234MOL0     C32174   1.973   5.222   5.138 -0.3509  0.0551  0.8881
  234MOL0     C32175   2.116   5.242   5.190 -0.1372  0.0224  0.3819
  234MOL0     C32176   2.196   5.117   5.219  0.2771  0.5440 -0.7945
  234MOL0     C32177   2.326   5.157   5.292 -0.1293 -0.5661  0.3471
  234MOL0     O32178   2.302   5.261   5.397 -0.0713 -0.3025 -0.5130
  234MOL0     C32179   2.382   5.266   5.507 -0.7715  0.5023 -0.5631
  234MOL0     C32180   2.519   5.234   5.499 -0.4679 -0.5097  0.8325
  234MOL0     C32181   2.605   5.229   5.611  0.4955 -0.6496 -0.0270
  234MOL0     C32182   2.746   5.187   5.593 -0.0238 -0.2896  0.0010
  234MOL0     C32183   2.555   5.258   5.744 -0.1541 -0.6702 -0.0864
  234MOL0     C32184   2.638   5.266   5.863  0.1527  0.1569  0.0318
  234MOL0     O32185   2.574   5.332   5.968 -0.4098 -0.5221  0.4166
  234MOL0     C32186   2.642   5.356   6.083  0.8651  1.0293 -0.1809
  234MOL0     C32187   2.738   5.461   6.090 -0.0386 -0.3360 -0.0264
  234MOL0     C32188   2.800   5.490   6.212  0.2000  0.1492 -0.4283
  234MOL0     C32189   2.794   5.401   6.317 -0.2886 -0.3101 -0.2990
  234MOL0     O32190   2.849   5.440   6.436 -0.6306  0.2726  0.1422
  234MOL0     C32191   2.980   5.385   6.458  0.1636 -0.3297 -0.1670
  234MOL0     C32192   3.007   5.424   6.607  0.4689  0.2394  0.2852
  234MOL0     C32193   3.144   5.377   6.654  0.4250  1.0427 -0.1142
  234MOL0     C32194   3.208   5.490   6.738  0.3399 -0.2925 -0.5321
  234MOL0     C32195   3.357   5.449   6.773 -0.3387 -0.1280 -0.1492
  234MOL0     C32196   3.360   5.330   6.864 -0.5708 -0.1215  0.5550
  234MOL0     C32197   3.499   5.314   6.926 -0.2644  0.6969  0.5717
  234MOL0     C32198   3.511   5.182   6.997  0.0566  0.5139 -0.6880
  234MOL0    Cl32199   3.690   5.186   7.022  0.8820  0.0193 -0.2430
  234MOL0     C32200   2.705   5.295   6.306 -0.5346  0.4981 -0.3280
  234MOL0     C32201   2.631   5.270   6.187  0.5506  0.3891 -1.3571
  234MOL0     O32202   2.748   5.211   5.869 -0.2107  0.1266 -0.0569
  234MOL0     C32203   2.415   5.289   5.744  0.4581 -0.5210 -1.0019
  234MOL0     C32204   2.329   5.287   5.636  0.0918  0.0508  0.3431
  234MOL0     N32205   1.787   5.157   5.298 -0.2124  0.7243 -0.5369
  234MOL0     N32206   1.742   5.049   5.348  0.2376  0.4789  0.9140
  234MOL0     C32207   2.370   4.145   6.004  0.2723 -0.8133  0.4230
  234MOL0     C32208   2.474   4.080   6.079 -0.1855  0.0277 -0.0746
  234MOL0     C32209   2.869   3.901   6.097 -0.3031 -0.0004 -0.8490
  234MOL0     C32210   2.855   3.830   6.217  0.2788 -0.0284 -0.1412
  234MOL0     C32211   2.964   3.781   6.284 -0.3915 -0.3176  0.0576
  234MOL0     C32212   3.098   3.793   6.235  0.4717  0.1885  1.1728
  234MOL0     O32213   3.200   3.764   6.323  0.2371 -1.2900 -0.5150
  234MOL0     C32214   3.231   3.880   6.402 -0.1226 -0.7668 -0.2736
  234MOL0     C32215   3.262   3.829   6.542  0.0572 -0.3398 -0.5621
  234MOL0     C32216   3.321   3.954   6.612  0.1000  0.5561 -0.5918
  234MOL0     C32217   3.198   4.059   6.635 -0.3783 -1.4053 -0.5387
  234MOL0     C32218   3.246   4.160   6.736  1.0304 -1.0282 -0.6489
  234MOL0     C32219   3.276   4.245   6.816  0.5706 -0.3737 -0.3550
  234MOL0     C32220   3.111   3.872   6.124 -1.2528  0.0520 -0.1361
  234MOL0     C32221   3.006   3.923   6.056  0.0293 -0.5953  0.1618
  234MOL0     C32222   3.038   3.960   5.918 -0.1031 -1.1206 -0.1078
  234MOL0     H32223   2.523   3.827   5.862  1.5152  0.3434  1.6912
  234MOL0     H32224   2.311   3.937   5.753 -0.3115  0.2415 -0.0696
  234MOL0     H32225   2.102   4.277   5.947 -0.0775 -1.2240 -0.2214
  234MOL0     H32226   2.037   4.113   5.913 -0.3476 -0.1187 -0.6241
  234MOL0     H32227   1.982   4.166   5.683 -3.0833  2.0366 -1.8230
  234MOL0     H32228   1.897   4.250   5.793 -0.9394 -0.2111 -3.3856
  234MOL0     H32229   2.047   4.458   5.767  1.7604  1.6320 -2.9194
  234MOL0     H32230   2.146   4.364   5.668  0.4051 -2.5217  2.1396
  234MOL0     H32231   1.935   4.343   5.503  1.9338  1.3670 -3.0054
  234MOL0     H32232   1.841   4.416   5.637  0.0186  1.2373  0.9345
  234MOL0     H32233   2.058   4.562   5.476 -0.2853  1.3987 -0.4882
  234MOL0     H32234   1.969   4.614   5.621  0.7709 -1.6081  0.7122
  234MOL0     H32235   1.832   4.538   5.353 -0.2569  0.1194  0.1751
  234MOL0     H32236   1.746   4.603   5.484  0.1269  2.4054  0.4645
  234MOL0     H32237   1.986   4.743   5.326 -2.1791 -0.7672 -3.1372
  234MOL0     H32238   1.925   4.817   5.473  3.0873 -2.4177  1.4832
  234MOL0     H32239   1.783   4.741   5.216  0.7428  0.2868  0.9561
  234MOL0     H32240   1.707   4.771   5.377 -0.2352 -2.9317  0.0375
  234MOL0     H32241   1.972   4.932   5.146 -0.8576 -2.5219  1.9420
  234MOL0     H32242   1.937   5.323   5.117  0.5748  0.1004 -0.6181
  234MOL0     H32243   1.994   5.168   5.045 -0.1308  0.1151  0.9051
  234MOL0     H32244   2.167   5.300   5.113  0.5654 -1.5860 -0.4107
  234MOL0     H32245   2.117   5.296   5.286  1.9063 -0.8928  0.9336
  234MOL0     H32246   2.150   5.048   5.290 -2.7098  2.0880 -1.0711
  234MOL0     H32247   2.229   5.064   5.129 -1.9620 -0.8601 -0.8458
  234MOL0     H32248   2.362   5.059   5.326 -1.1212 -1.5636 -1.3001
  234MOL0     H32249   2.396   5.192   5.216 -1.3354 -0.7266 -0.8774
  234MOL0     H32250   2.554   5.189   5.406 -1.3250  0.4866 -0.0005
  234MOL0     H32251   2.821   5.250   5.642 -0.0541  0.9937 -1.5424
  234MOL0     H32252   2.776   5.175   5.489  0.4739  0.4702  0.0462
  234MOL0     H32253   2.748   5.085   5.632 -1.5482 -1.8368 -3.5188
  234MOL0     H32254   2.762   5.526   6.006  1.0519 -0.6736  0.0070
  234MOL0     H32255   2.869   5.574   6.223  1.6556 -0.8633 -1.3664
  234MOL0     H32256   2.974   5.276   6.445 -3.5678  0.0294 -3.6626
  234MOL0     H32257   3.052   5.420   6.384 -0.5317 -2.1511 -1.8134
  234MOL0     H32258   3.004   5.534   6.611 -0.8374  0.4875 -3.5013
  234MOL0     H32259   2.930   5.388   6.675 -0.9779  0.6296 -1.0939
  234MOL0     H32260   3.202   5.365   6.563 -0.8800  2.8699 -1.2516
  234MOL0     H32261   3.125   5.291   6.719  0.5132  2.1122  1.4081
  234MOL0     H32262   3.148   5.493   6.830  1.1892 -0.7319  0.0526
  234MOL0     H32263   3.192   5.593   6.706  0.9457  0.8856  2.5943
  234MOL0     H32264   3.402   5.418   6.678 -1.0340 -2.7921  0.3307
  234MOL0     H32265   3.401   5.544   6.806 -5.1748  2.2477  0.4097
  234MOL0     H32266   3.335   5.247   6.797  1.5544  2.9278 -4.5182
  234MOL0     H32267   3.291   5.346   6.948 -0.9775  1.0627  0.0030
  234MOL0     H32268   3.524   5.406   6.980  1.1814 -0.3707  1.8031
  234MOL0     H32269   3.567   5.314   6.840 -0.3899 -0.6116  0.4497
  234MOL0     H32270   3.478   5.101   6.932 -1.2407 -0.9457  1.6545
  234MOL0     H32271   3.450   5.193   7.086  0.7416  3.4446 -0.4761
  234MOL0     H32272   2.680   5.243   6.398  0.7081  1.6656  0.7103
  234MOL0     H32273   2.548   5.200   6.182  0.1578  0.3618  2.7702
  234MOL0     H32274   2.362   5.315   5.836 -1.1133 -3.7523 -0.8708
  234MOL0     H32275   2.223   5.309   5.648 -0.7742 -1.2701 -3.4834
  234MOL0     H32276   2.334   4.244   6.031 -3.1996 -1.6072 -0.8475
  234MOL0     H32277   2.513   4.113   6.174 -2.5187 -1.2212  1.3949
  234MOL0     H32278   2.757   3.808   6.259 -1.6509  1.6545 -3.3757
  234MOL0     H32279   2.952   3.731   6.379 -2.1682  1.3640  0.7921
  234MOL0     H32280   3.322   3.928   6.366  0.2207 -1.8300 -0.8744
  234MOL0     H32281   3.146   3.949   6.401 -0.8637 -1.6593 -1.2960
  234MOL0     H32282   3.334   3.747   6.546 -0.6187 -1.0130 -1.7517
  234MOL0     H32283   3.164   3.800   6.580 -0.5383  1.2466 -0.8017
  234MOL0     H32284   3.352   3.929   6.714 -1.5358  0.7457 -0.0313
  234MOL0     H32285   3.405   3.999   6.557 -1.0492  2.0661 -1.1759
  234MOL0     H32286   3.107   4.015   6.676 -1.3720  1.4287  0.5929
  234MOL0     H32287   3.169   4.119   6.548 -0.2384  0.3780  0.5861
  234MOL0     H32288   3.309   4.313   6.892 -0.2185 -1.5544  1.1026
  234MOL0     H32289   3.217   3.893   6.107 -1.2757  0.2940  0.0066
  234MOL0     H32290   3.146   3.963   5.900 -0.1235  0.0074 -0.1211
  234MOL0     H32291   2.991   3.895   5.844 -0.7628 -0.5854 -0.1690
  234MOL0     H32292   3.001   4.059   5.889  3.2886  0.0205 -1.0260
  235MOL0     O32293   7.781   9.584   4.809 -0.1737  0.0267 -0.1046
  235MOL0     C32294   7.738   9.633   4.704 -0.2558  0.2819 -0.0342
  235MOL0     O32295   7.681   9.756   4.696  0.6043 -0.2273  0.2185
  235MOL0     C32296   7.677   9.836   4.806  0.4445  0.3328 -0.4432
  235MOL0     C32297   7.782   9.867   4.882 -0.1190 -0.8815  0.4512
  235MOL0     C32298   7.779   9.945   5.000  0.3935 -0.9123 -0.2817
  235MOL0     C32299   7.654   9.984   5.049  1.4115  0.5127  0.3839
  235MOL0     O32300   7.669  10.033   5.174 -0.2564  0.2980 -0.0325
  235MOL0     C32301   7.578  10.017   5.282  0.5976 -0.1566 -0.2540
  235MOL0     C32302   7.602  10.124   5.390 -0.5293  0.2343  0.5150
  235MOL0     C32303   7.499  10.103   5.503 -0.6581 -0.2255  0.2800
  235MOL0     C32304   7.521  10.226   5.592 -0.4258  0.0416  0.1160
  235MOL0     C32305   7.417  10.235   5.704 -0.5871 -0.0611  0.5668
  235MOL0     C32306   7.459  10.136   5.814  0.0754  0.1330  0.1201
  235MOL0     C32307   7.335  10.137   5.911  0.7433  0.0776  0.3165
  235MOL0     C32308   7.366  10.062   6.038  0.6534 -0.2725 -0.4753
  235MOL0     N32309   7.246  10.058   6.131 -0.8878  0.1330 -0.4712
  235MOL0     C32310   7.196   9.934   6.170 -0.2087  0.6448  0.2572
  235MOL0     C32311   7.083   9.969   6.248 -0.0390  0.4392  0.6557
  235MOL0     C32312   6.992   9.871   6.328  0.1957  0.0741  0.4386
  235MOL0     C32313   6.922   9.945   6.447  0.0216 -0.3795 -0.1023
  235MOL0     C32314   6.855   9.851   6.556 -0.4449 -0.2830  0.2144
  235MOL0     C32315   6.817   9.913   6.682  0.5897 -0.7628 -0.3190
  235MOL0     O32316   6.922   9.996   6.732 -0.0037  0.1134 -0.8026
  235MOL0     C32317   6.914  10.031   6.866  0.3476 -0.1953 -0.2223
  235MOL0     C32318   6.791  10.032   6.942  0.0680  0.5937  0.2931
  235MOL0     C32319   6.793  10.059   7.079  0.0305 -0.1838  0.3476
  235MOL0     C32320   6.674  10.021   7.156 -0.3681 -0.2025 -0.0853
  235MOL0     C32321   6.924  10.094   7.140  0.1654  0.7015 -0.5945
  235MOL0     C32322   6.952  10.125   7.289  0.3707  0.4456  0.7805
  235MOL0     O32323   7.081  10.157   7.329 -0.1673 -0.2178  0.3010
  235MOL0     C32324   7.100  10.122   7.459  0.3169  0.8453  0.3109
  235MOL0     C32325   7.077  10.213   7.558 -1.5829 -0.2145 -0.0505
  235MOL0     C32326   7.125  10.186   7.684  0.1365  0.7423 -0.4869
  235MOL0     C32327   7.177  10.057   7.712 -0.0975  0.2538 -0.2935
  235MOL0     O32328   7.216  10.011   7.829 -0.3135 -0.9016 -0.3660
  235MOL0     C32329   7.355  10.040   7.868 -0.2844 -0.0478  0.0639
  235MOL0     C32330   7.348  10.158   7.965 -0.4275 -0.0158  1.0079
  235MOL0     C32331   7.273  10.130   8.106 -1.5464 -1.0478  0.1195
  235MOL0     C32332   7.351  10.232   8.200  0.0835 -0.1123 -0.3309
  235MOL0     C32333   7.265  10.266   8.314  0.0284 -0.0626 -0.3898
  235MOL0     C32334   7.231  10.145   8.400  0.1203  0.3279 -0.0086
  235MOL0     C32335   7.249  10.177   8.551  0.0104 -0.0229 -0.4135
  235MOL0     C32336   7.203  10.066   8.646  0.2394 -0.5636  0.3228
  235MOL0    Cl32337   7.040  10.018   8.622 -0.4765 -0.2800 -0.3628
  235MOL0     C32338   7.175   9.965   7.611 -0.3653  0.5942  0.3699
  235MOL0     C32339   7.147   9.992   7.479  0.9809 -0.3695 -0.7182
  235MOL0     O32340   6.862  10.088   7.361 -0.2709 -0.2834 -0.2272
  235MOL0     C32341   7.037  10.109   7.057  0.1840 -0.4616 -0.1100
  235MOL0     C32342   7.025  10.086   6.920  0.1948 -0.0876  0.0111
  235MOL0     N32343   7.077  10.108   6.247  0.7121 -0.1443 -0.7222
  235MOL0     N32344   7.171  10.156   6.177 -0.0008 -0.0765 -0.3833
  235MOL0     C32345   7.535   9.948   4.970 -0.4573  0.5763 -0.7980
  235MOL0     C32346   7.548   9.878   4.850 -0.3984 -0.2853 -0.3519
  235MOL0     C32347   7.736   9.560   4.574  1.1970 -1.0047 -0.2233
  235MOL0     C32348   7.678   9.619   4.461 -0.8502  0.8154  0.5422
  235MOL0     C32349   7.650   9.550   4.341  0.0870 -0.0550  0.1379
  235MOL0     C32350   7.681   9.417   4.329 -0.4526  0.2474 -0.2534
  235MOL0     O32351   7.655   9.350   4.214 -0.7702  0.4334  0.2305
  235MOL0     C32352   7.716   9.225   4.178  0.7337  0.5032  0.9861
  235MOL0     C32353   7.653   9.178   4.038 -0.1519  0.3859  0.2222
  235MOL0     C32354   7.664   9.273   3.918 -0.1681 -0.0968  0.2701
  235MOL0     C32355   7.583   9.396   3.932  0.1578 -0.3208 -1.1851
  235MOL0     C32356   7.528   9.452   3.809 -0.6673  0.1354 -0.7193
  235MOL0     C32357   7.486   9.511   3.717  0.4316  0.3873  0.4477
  235MOL0     C32358   7.745   9.355   4.436 -0.5098 -0.4093 -0.3808
  235MOL0     C32359   7.764   9.424   4.560  0.7979 -0.1485  0.5922
  235MOL0     C32360   7.810   9.327   4.669  0.5275 -0.3383  0.7842
  235MOL0     H32361   7.876   9.826   4.845 -1.2119 -1.3395 -2.0030
  235MOL0     H32362   7.863   9.961   5.066  0.7411 -0.8145 -0.7416
  235MOL0     H32363   7.574   9.916   5.323 -0.9623  0.5417  1.4144
  235MOL0     H32364   7.481  10.045   5.240 -0.1100  1.3821  2.2298
  235MOL0     H32365   7.704  10.112   5.429 -0.9433 -0.3624  1.4401
  235MOL0     H32366   7.603  10.222   5.342 -1.0088 -0.0422 -0.0536
  235MOL0     H32367   7.397  10.107   5.464 -1.1062 -1.8722  1.1973
  235MOL0     H32368   7.521  10.014   5.562 -0.3576  1.4370  2.8921
  235MOL0     H32369   7.621  10.222   5.637  0.4617 -2.7263 -1.7867
  235MOL0     H32370   7.502  10.320   5.539 -1.8276 -0.5504 -0.4863
  235MOL0     H32371   7.321  10.217   5.653  0.0065 -1.1426 -0.2098
  235MOL0     H32372   7.417  10.340   5.734  0.7452  0.6796 -1.7202
  235MOL0     H32373   7.465  10.034   5.776  2.9485 -0.1459  1.1045
  235MOL0     H32374   7.553  10.169   5.860 -0.1539  2.8027 -1.1452
  235MOL0     H32375   7.244  10.100   5.863  1.2643  1.0380 -1.5231
  235MOL0     H32376   7.326  10.245   5.927 -0.4166  0.1522 -0.6753
  235MOL0     H32377   7.401   9.959   6.023  1.4843 -0.0831  0.0775
  235MOL0     H32378   7.445  10.114   6.093 -0.9823 -1.5847  3.5089
  235MOL0     H32379   7.237   9.836   6.148  1.0115  1.1001  0.4295
  235MOL0     H32380   7.051   9.787   6.367 -1.0609 -0.1851  1.8699
  235MOL0     H32381   6.921   9.830   6.256  0.2220  2.6020 -1.1526
  235MOL0     H32382   6.994  10.009   6.499  0.7191 -1.5643  0.4410
  235MOL0     H32383   6.850  10.010   6.397  0.3095  1.9703  2.3261
  235MOL0     H32384   6.758   9.830   6.511 -0.3840  0.0137 -0.0527
  235MOL0     H32385   6.915   9.770   6.599 -0.6007  1.0230  3.1696
  235MOL0     H32386   6.723   9.970   6.675 -1.0621 -2.5130  4.1524
  235MOL0     H32387   6.786   9.834   6.751 -5.3742 -0.0189 -1.5694
  235MOL0     H32388   6.696   9.997   6.902 -0.1904 -1.4002  2.4332
  235MOL0     H32389   6.584  10.011   7.095  0.9555 -0.5429 -2.0676
  235MOL0     H32390   6.650  10.113   7.209 -1.1166  0.3257 -1.3010
  235MOL0     H32391   6.695   9.935   7.222  3.5862  2.2242  2.2390
  235MOL0     H32392   7.040  10.312   7.535  0.5304  0.4116 -0.9452
  235MOL0     H32393   7.118  10.255   7.767  1.9129  0.1880  0.1766
  235MOL0     H32394   7.417   9.956   7.900  3.0384  1.9780 -0.5727
  235MOL0     H32395   7.416  10.070   7.782  0.6284 -4.2547 -0.9643
  235MOL0     H32396   7.450  10.193   7.984 -0.2227 -0.9511  1.7343
  235MOL0     H32397   7.294  10.236   7.911  0.2456  1.1529  1.9664
  235MOL0     H32398   7.301  10.030   8.140 -1.1119 -1.0121 -0.1260
  235MOL0     H32399   7.165  10.151   8.103 -1.5423 -1.1126 -1.1554
  235MOL0     H32400   7.369  10.324   8.143  4.0958  0.1671  1.0987
  235MOL0     H32401   7.443  10.190   8.243  0.7414 -0.7879 -2.2792
  235MOL0     H32402   7.312  10.344   8.374  0.8423 -0.9410  0.1451
  235MOL0     H32403   7.170  10.302   8.274  0.9413  0.3901 -2.2694
  235MOL0     H32404   7.293  10.056   8.385 -0.7865 -0.4531  0.7634
  235MOL0     H32405   7.133  10.102   8.379 -1.0344  2.6918  0.2963
  235MOL0     H32406   7.195  10.268   8.582 -1.9321 -1.2294 -0.0980
  235MOL0     H32407   7.358  10.190   8.550  0.1343 -0.7503 -3.1168
  235MOL0     H32408   7.221  10.115   8.743  1.5987 -3.2664  1.5422
  235MOL0     H32409   7.266   9.977   8.642  0.9355 -0.2618  2.6688
  235MOL0     H32410   7.217   9.872   7.648  0.7928  1.5492  1.5445
  235MOL0     H32411   7.170   9.923   7.399 -1.5515 -0.8848 -1.0676
  235MOL0     H32412   7.138  10.143   7.077 -0.7169  3.6051 -1.5542
  235MOL0     H32413   7.109  10.099   6.853  0.4869 -0.1339  0.3627
  235MOL0     H32414   7.439   9.969   5.017  1.9296  4.2734  3.2358
  235MOL0     H32415   7.461   9.854   4.789  0.1012  1.5776 -1.8905
  235MOL0     H32416   7.643   9.722   4.455  0.7831  1.4158  0.6956
  235MOL0     H32417   7.612   9.594   4.250  2.9154 -0.5644 -1.4044
  235MOL0     H32418   7.822   9.250   4.166  0.4677  0.6890 -1.5488
  235MOL0     H32419   7.691   9.146   4.250 -0.9902 -0.5125 -0.6454
  235MOL0     H32420   7.546   9.157   4.051 -0.2210  1.0504  0.8172
  235MOL0     H32421   7.719   9.097   4.007 -1.7335 -1.3432  1.1656
  235MOL0     H32422   7.765   9.311   3.903 -0.1559 -0.0091  0.5719
  235MOL0     H32423   7.624   9.216   3.834  0.2272  1.0990 -0.7459
  235MOL0     H32424   7.639   9.472   3.988 -0.6646  0.4739 -1.4038
  235MOL0     H32425   7.496   9.380   3.997  0.3981  0.8430 -0.5424
  235MOL0     H32426   7.455   9.581   3.642 -0.0387 -0.5449 -0.2618
  235MOL0     H32427   7.773   9.251   4.427 -3.1677 -1.0575 -2.5841
  235MOL0     H32428   7.899   9.353   4.727  1.1618 -4.1100  1.8226
  235MOL0     H32429   7.737   9.308   4.749  1.0136 -3.6825  0.5913
  235MOL0     H32430   7.827   9.226   4.629  0.6768 -0.2543  0.6351
  236MOL0     O32431   4.985   2.919  10.458 -0.3548  0.4684  0.0827
  236MOL0     C32432   4.873   2.958  10.409 -0.4472 -0.0908  0.6530
  236MOL0     O32433   4.831   3.089  10.386 -0.4529 -0.0856  0.9474
  236MOL0     C32434   4.928   3.185  10.415  0.3418 -0.3659 -0.2699
  236MOL0     C32435   4.924   3.250  10.541  0.2137  0.2293  0.0996
  236MOL0     C32436   5.018   3.345  10.573 -0.7755  0.6757 -0.1070
  236MOL0     C32437   5.117   3.388  10.487 -0.5474  1.1567  0.5085
  236MOL0     O32438   5.219   3.486  10.516  0.1540  0.2899  0.5387
  236MOL0     C32439   5.204   3.558  10.640 -0.5401  0.0561 -0.3376
  236MOL0     C32440   5.340   3.636  10.669 -0.3510  0.3375  0.3788
  236MOL0     C32441   5.339   3.790  10.635 -0.0130  0.4778  0.0078
  236MOL0     C32442   5.488   3.837  10.653 -0.1111  0.0857  0.0971
  236MOL0     C32443   5.492   3.989  10.627 -0.2934 -1.0147 -0.2310
  236MOL0     C32444   5.631   4.063  10.615 -0.1087 -0.2841 -0.2568
  236MOL0     C32445   5.731   4.003  10.512 -0.0925 -0.5087  0.2568
  236MOL0     C32446   5.685   3.996  10.363 -0.4100  0.2309  0.7626
  236MOL0     N32447   5.644   4.131  10.325  0.7835 -0.2609 -0.4259
  236MOL0     C32448   5.737   4.230  10.300 -0.2050 -0.5047  0.4284
  236MOL0     C32449   5.663   4.333  10.264  0.4934 -0.3532  0.4216
  236MOL0     C32450   5.716   4.456  10.199 -0.3897  0.3208 -1.3671
  236MOL0     C32451   5.620   4.526  10.101  0.7108  0.1794 -0.1252
  236MOL0     C32452   5.568   4.442   9.991  0.1217  0.0444  0.1590
  236MOL0     C32453   5.471   4.523   9.901 -0.9498  0.0688 -0.6854
  236MOL0     O32454   5.545   4.608   9.816  0.2480 -0.5589 -0.6658
  236MOL0     C32455   5.473   4.721   9.788  0.1677  0.2566 -0.6180
  236MOL0     C32456   5.485   4.831   9.868 -0.5756 -0.8957  0.5060
  236MOL0     C32457   5.414   4.946   9.837  0.0720  0.6822  0.1174
  236MOL0     C32458   5.438   5.058   9.932 -0.0862 -0.1993 -0.0707
  236MOL0     C32459   5.333   4.962   9.714  1.1679  0.3881 -0.5632
  236MOL0     C32460   5.250   5.077   9.659  0.2407 -1.3414  0.9078
  236MOL0     O32461   5.300   5.197   9.693  0.5748 -0.1701 -0.4532
  236MOL0     C32462   5.226   5.302   9.648  0.5081  0.0992 -0.2236
  236MOL0     C32463   5.247   5.356   9.525  0.1170 -0.8619  1.0184
  236MOL0     C32464   5.183   5.467   9.473  0.4521  0.2259  0.2299
  236MOL0     C32465   5.079   5.529   9.553 -0.1892 -0.3593  0.6175
  236MOL0     O32466   4.999   5.635   9.523  0.0192 -0.6639 -0.4617
  236MOL0     C32467   4.977   5.660   9.380  0.1492 -0.1764 -0.4659
  236MOL0     C32468   5.036   5.794   9.326 -0.2381 -0.5945 -0.3606
  236MOL0     C32469   4.998   5.813   9.176  0.2008 -0.5904 -0.0475
  236MOL0     C32470   5.057   5.946   9.121  0.0208  0.0348  0.5221
  236MOL0     C32471   5.046   5.966   8.973  0.2355  0.5192  1.3007
  236MOL0     C32472   5.097   5.849   8.884  0.0346 -0.3314  0.2956
  236MOL0     C32473   5.088   5.879   8.729 -0.4140  0.3649  1.1088
  236MOL0     C32474   5.155   6.009   8.678 -0.0562 -0.8149  0.5735
  236MOL0    Cl32475   5.327   6.008   8.723 -0.0541 -0.0116 -0.2299
  236MOL0     C32476   5.068   5.485   9.683 -0.5091 -0.4128  0.6123
  236MOL0     C32477   5.138   5.374   9.730 -0.7107 -0.4262  0.3905
  236MOL0     O32478   5.152   5.054   9.590 -0.2793  0.5791  0.9801
  236MOL0     C32479   5.319   4.841   9.638 -0.1376  1.0442 -0.6500
  236MOL0     C32480   5.386   4.728   9.676 -0.2047 -0.1017 -0.3269
  236MOL0     N32481   5.529   4.304  10.287  0.0186  0.1757 -0.0333
  236MOL0     N32482   5.513   4.182  10.329 -0.3130  0.3201  0.2370
  236MOL0     C32483   5.118   3.324  10.361 -1.1820 -0.5376 -0.4028
  236MOL0     C32484   5.022   3.227  10.320  0.5914  0.3039 -0.4703
  236MOL0     C32485   4.783   2.847  10.373 -0.9353  0.5239  0.3464
  236MOL0     C32486   4.648   2.846  10.414 -0.1803  0.2570  0.0685
  236MOL0     C32487   4.561   2.744  10.380  0.0165 -0.5656  0.1321
  236MOL0     C32488   4.600   2.639  10.307 -0.8882 -0.0199  0.5311
  236MOL0     O32489   4.493   2.556  10.275  0.9844  0.1514  0.4329
  236MOL0     C32490   4.511   2.437  10.198 -0.2980  0.2727 -0.2906
  236MOL0     C32491   4.387   2.354  10.194 -0.0458 -0.0264 -0.3807
  236MOL0     C32492   4.298   2.381  10.075 -0.5115  0.1767 -0.3959
  236MOL0     C32493   4.239   2.521  10.096 -0.1368  0.2295 -0.3323
  236MOL0     C32494   4.118   2.534  10.015 -0.4302 -0.3912  0.5707
  236MOL0     C32495   4.017   2.530   9.954  1.2587  0.5629  0.5437
  236MOL0     C32496   4.739   2.626  10.269  0.4967  0.0163  0.3050
  236MOL0     C32497   4.834   2.730  10.297  0.6207  0.1899  0.5983
  236MOL0     C32498   4.978   2.704  10.259  0.3368 -0.2790  0.5713
  236MOL0     H32499   4.847   3.210  10.606 -0.0595  1.9510  0.8668
  236MOL0     H32500   5.017   3.383  10.674 -0.6045 -0.0121  0.1604
  236MOL0     H32501   5.181   3.502  10.730  0.4640  3.3010  2.1375
  236MOL0     H32502   5.129   3.636  10.620 -0.0248  0.0395 -2.6764
  236MOL0     H32503   5.376   3.623  10.772  0.9049  1.9147  0.1913
  236MOL0     H32504   5.418   3.596  10.603 -1.9490 -0.8800 -0.8594
  236MOL0     H32505   5.292   3.812  10.539 -0.3603 -1.2650 -0.2500
  236MOL0     H32506   5.273   3.834  10.711 -1.6929 -1.7406 -0.0767
  236MOL0     H32507   5.520   3.823  10.756 -0.7912  1.6201  0.5547
  236MOL0     H32508   5.558   3.786  10.587 -0.4027 -0.0294 -0.1308
  236MOL0     H32509   5.432   4.038  10.704  2.6713 -1.0601  2.3081
  236MOL0     H32510   5.436   4.004  10.534  1.9223  1.7539 -1.2476
  236MOL0     H32511   5.611   4.166  10.584 -0.7142 -0.1347  0.5984
  236MOL0     H32512   5.672   4.056  10.716  0.5953 -1.0297 -0.5843
  236MOL0     H32513   5.748   3.905  10.558 -2.6953 -0.6181  1.1520
  236MOL0     H32514   5.829   4.052  10.518  0.3444 -1.5081  1.9148
  236MOL0     H32515   5.770   3.962  10.304  0.6912  4.1963 -0.1995
  236MOL0     H32516   5.605   3.923  10.348  0.2084 -0.1936 -0.6681
  236MOL0     H32517   5.845   4.231  10.293 -0.0586 -0.6378  2.3061
  236MOL0     H32518   5.803   4.419  10.144 -0.6123 -1.4374 -0.5851
  236MOL0     H32519   5.751   4.539  10.260 -2.4721  1.4770 -1.6328
  236MOL0     H32520   5.542   4.587  10.147 -0.5531  0.4379 -2.4230
  236MOL0     H32521   5.678   4.600  10.045 -0.5605  0.7443 -0.7261
  236MOL0     H32522   5.655   4.413   9.932 -1.9090  0.3509 -3.2150
  236MOL0     H32523   5.516   4.355  10.034 -0.7640  1.4952  2.1520
  236MOL0     H32524   5.420   4.459   9.829 -0.4153 -2.0435  0.7417
  236MOL0     H32525   5.398   4.568   9.970 -0.9029 -0.4949 -0.2641
  236MOL0     H32526   5.552   4.821   9.953 -3.1411 -0.5129  2.7471
  236MOL0     H32527   5.483   5.143   9.880 -1.1982  0.9595  0.8082
  236MOL0     H32528   5.509   5.035  10.012  0.5052  1.0036 -0.2218
  236MOL0     H32529   5.349   5.091   9.984  1.5042  0.8918  2.1177
  236MOL0     H32530   5.323   5.307   9.466 -0.6641 -1.1529  0.2388
  236MOL0     H32531   5.194   5.484   9.366 -2.2358 -0.7845 -0.2720
  236MOL0     H32532   5.023   5.584   9.316  1.2726  0.3796 -0.3349
  236MOL0     H32533   4.869   5.661   9.364  0.3841 -1.3484 -2.4376
  236MOL0     H32534   4.999   5.878   9.385 -0.7944  2.6537 -4.8235
  236MOL0     H32535   5.144   5.787   9.341 -0.2165 -0.1313 -0.2961
  236MOL0     H32536   4.889   5.817   9.167  0.1411  0.2381  0.8549
  236MOL0     H32537   5.025   5.717   9.133  0.5119 -2.0364  3.1067
  236MOL0     H32538   5.163   5.944   9.149 -0.4547 -1.8423  2.5190
  236MOL0     H32539   5.008   6.029   9.173 -1.5020 -0.9051  0.6343
  236MOL0     H32540   4.937   5.968   8.958  0.1832  0.7383  1.6875
  236MOL0     H32541   5.103   6.055   8.946 -2.3503  2.7590  2.6519
  236MOL0     H32542   5.029   5.766   8.906 -1.3217  1.0136  1.4934
  236MOL0     H32543   5.197   5.821   8.917 -0.4613 -1.1823  1.1407
  236MOL0     H32544   4.983   5.880   8.697  0.4430 -1.6684 -2.2374
  236MOL0     H32545   5.132   5.803   8.664  1.5896  2.4126 -0.0532
  236MOL0     H32546   5.100   6.088   8.730  2.4275  0.2178  1.7522
  236MOL0     H32547   5.133   6.025   8.572  0.8203  2.2185  0.7619
  236MOL0     H32548   5.001   5.532   9.755 -2.9585 -0.8933 -1.2027
  236MOL0     H32549   5.122   5.341   9.832 -0.6167 -2.0242 -0.0850
  236MOL0     H32550   5.243   4.829   9.561 -2.0036  2.2921  0.8866
  236MOL0     H32551   5.371   4.632   9.627 -0.0328 -1.5554  2.2855
  236MOL0     H32552   5.210   3.345  10.306 -0.4634  3.4030  1.8964
  236MOL0     H32553   5.025   3.169  10.228 -3.0838 -3.9911  1.7336
  236MOL0     H32554   4.610   2.929  10.472  0.1050  0.8745 -0.6093
  236MOL0     H32555   4.460   2.751  10.416  0.1875 -0.9828  0.6979
  236MOL0     H32556   4.546   2.451  10.095  0.0448 -0.7322 -0.3140
  236MOL0     H32557   4.586   2.387  10.260  0.9186  1.8508 -0.4100
  236MOL0     H32558   4.334   2.348  10.290 -0.4629  2.0203 -0.4469
  236MOL0     H32559   4.406   2.247  10.184  3.1706  0.6530 -4.5026
  236MOL0     H32560   4.353   2.374   9.981 -1.4271  0.0270 -0.9422
  236MOL0     H32561   4.216   2.309  10.066 -1.2190  1.2306 -5.1248
  236MOL0     H32562   4.315   2.596  10.070 -0.9406  1.1337 -0.0908
  236MOL0     H32563   4.208   2.522  10.200 -1.8521  0.4097 -0.8238
  236MOL0     H32564   3.927   2.532   9.896  2.7216 -0.5089 -1.9236
  236MOL0     H32565   4.779   2.547  10.206  1.5637  1.8828 -1.4831
  236MOL0     H32566   5.034   2.790  10.225 -2.0367  1.0914 -0.1024
  236MOL0     H32567   5.025   2.658  10.347 -1.3110 -2.2808  0.5066
  236MOL0     H32568   4.974   2.632  10.177  0.5903 -0.6719  0.8954
  237MOL0     O32569   4.247   0.692   3.889  0.1949  0.9844 -0.7019
  237MOL0     C32570   4.216   0.648   3.998  0.5678  0.3012 -0.6752
  237MOL0     O32571   4.304   0.655   4.106 -0.5785 -0.0192  0.7301
  237MOL0     C32572   4.416   0.727   4.107  0.0524 -0.0540 -0.6033
  237MOL0     C32573   4.538   0.679   4.171  0.6977  0.5554  0.2059
  237MOL0     C32574   4.654   0.743   4.181  0.4982 -0.4101 -0.6296
  237MOL0     C32575   4.672   0.867   4.115  0.1156 -0.1898  0.3094
  237MOL0     O32576   4.793   0.937   4.092  0.1538  0.4595 -0.1773
  237MOL0     C32577   4.904   0.921   4.191 -0.6674 -0.4336  1.0490
  237MOL0     C32578   4.872   0.979   4.330  1.0094 -0.2157  0.3420
  237MOL0     C32579   4.820   1.118   4.326 -0.3506 -0.3561  0.2409
  237MOL0     C32580   4.765   1.148   4.469  0.1200  0.3582  0.0856
  237MOL0     C32581   4.832   1.116   4.605  0.2533  0.1532  0.2024
  237MOL0     C32582   4.976   1.166   4.604  0.0023 -0.5223 -0.4451
  237MOL0     C32583   5.021   1.250   4.722 -0.0981 -0.1161  0.7751
  237MOL0     C32584   4.971   1.397   4.715  0.6355  0.1247 -1.0991
  237MOL0     N32585   5.023   1.466   4.599 -0.1962 -0.5123 -0.5413
  237MOL0     C32586   4.958   1.484   4.473  1.0917 -0.4078 -0.8065
  237MOL0     C32587   5.047   1.542   4.394 -0.2278 -0.3799 -0.0612
  237MOL0     C32588   5.017   1.570   4.242  0.1132 -0.9254  0.1229
  237MOL0     C32589   5.008   1.724   4.217  0.7496  0.4271  0.2729
  237MOL0     C32590   5.036   1.760   4.073 -0.2218  0.3169  0.0111
  237MOL0     C32591   5.085   1.906   4.061  0.8526  0.0245 -0.0519
  237MOL0     O32592   4.982   2.002   4.081  0.3909  0.7091 -0.0475
  237MOL0     C32593   4.888   2.022   3.981  0.3367 -0.1369  0.9774
  237MOL0     C32594   4.764   2.064   4.028 -1.0566  0.2245 -0.1805
  237MOL0     C32595   4.653   2.078   3.941 -0.1013 -0.4561  0.7587
  237MOL0     C32596   4.522   2.133   3.990 -0.7224  0.3801  0.8115
  237MOL0     C32597   4.678   2.037   3.802  0.1860 -0.5300 -0.6786
  237MOL0     C32598   4.567   2.015   3.713 -1.2840  0.6605  0.0724
  237MOL0     O32599   4.596   1.931   3.612  0.1420  0.2618  0.4515
  237MOL0     C32600   4.489   1.890   3.539  0.8508  0.6335  0.3825
  237MOL0     C32601   4.422   1.771   3.568 -0.0115 -0.1209  0.2807
  237MOL0     C32602   4.317   1.724   3.483  0.9806 -0.1814 -0.6509
  237MOL0     C32603   4.283   1.799   3.367  0.1084 -0.1569 -0.2883
  237MOL0     O32604   4.192   1.735   3.280  0.1805  0.0364  0.7437
  237MOL0     C32605   4.206   1.765   3.137 -0.7527 -0.2122  0.6110
  237MOL0     C32606   4.090   1.718   3.050 -0.3443  0.4634 -0.3937
  237MOL0     C32607   4.112   1.558   3.025  0.8372  0.3988 -0.3375
  237MOL0     C32608   3.996   1.507   2.945  0.1529 -0.0566  0.6136
  237MOL0     C32609   4.033   1.496   2.790  0.2972  0.4021  0.4832
  237MOL0     C32610   4.027   1.635   2.714 -0.4661  0.1678 -0.1406
  237MOL0     C32611   4.039   1.618   2.558 -0.3165  0.7896 -0.4081
  237MOL0     C32612   4.056   1.741   2.468  0.1642 -0.0382 -1.5492
  237MOL0    Cl32613   3.950   1.883   2.500 -0.6345 -0.0819  0.0109
  237MOL0     C32614   4.355   1.916   3.335  0.0438 -0.0626 -0.4633
  237MOL0     C32615   4.449   1.960   3.428  0.2331 -0.8620  0.4515
  237MOL0     O32616   4.453   2.061   3.729 -0.1368  0.2459 -0.0001
  237MOL0     C32617   4.810   2.018   3.755  0.0679  0.1717 -0.0176
  237MOL0     C32618   4.909   2.014   3.846  0.7744  0.1169  0.1695
  237MOL0     N32619   5.164   1.571   4.467 -0.1198  0.2666 -0.5314
  237MOL0     N32620   5.144   1.529   4.589 -0.5677 -0.6624  0.0601
  237MOL0     C32621   4.555   0.922   4.054  0.8957  0.3236  0.1966
  237MOL0     C32622   4.430   0.856   4.054  0.1056  0.3088  0.0970
  237MOL0     C32623   4.081   0.582   4.032  0.7554  0.6913 -0.0557
  237MOL0     C32624   4.071   0.507   4.148  0.1683 -0.6696  0.1220
  237MOL0     C32625   3.959   0.433   4.182  0.1948  0.1479  0.4071
  237MOL0     C32626   3.851   0.427   4.096 -0.2284 -0.4274 -0.2083
  237MOL0     O32627   3.747   0.343   4.113  0.0605 -0.0279 -0.3462
  237MOL0     C32628   3.651   0.322   4.015 -0.1435  1.0763 -0.2035
  237MOL0     C32629   3.539   0.431   4.008 -0.0602 -0.0346  0.2495
  237MOL0     C32630   3.470   0.427   3.870  1.3186  0.1446 -0.5401
  237MOL0     C32631   3.347   0.523   3.867 -0.8230 -1.1704 -0.0049
  237MOL0     C32632   3.293   0.514   3.735  0.0274  0.2405 -0.1426
  237MOL0     C32633   3.256   0.481   3.627 -0.6739  0.4523 -0.6045
  237MOL0     C32634   3.861   0.528   3.988 -0.2575  0.2573  0.0748
  237MOL0     C32635   3.975   0.597   3.955  1.0028 -0.2003  0.5645
  237MOL0     C32636   3.967   0.700   3.846 -0.1518 -0.4613  0.7187
  237MOL0     H32637   4.538   0.587   4.229  1.2886  0.5638  0.2292
  237MOL0     H32638   4.729   0.690   4.239 -0.2827  1.7261  2.5743
  237MOL0     H32639   4.993   0.976   4.158 -3.2601  3.1704 -0.6183
  237MOL0     H32640   4.921   0.813   4.192 -3.0239 -0.8764  0.0113
  237MOL0     H32641   4.800   0.909   4.373 -0.1683  1.8895  2.0155
  237MOL0     H32642   4.961   0.969   4.394  1.8157  4.1107  0.2071
  237MOL0     H32643   4.905   1.184   4.303  0.5797 -2.2606 -2.2490
  237MOL0     H32644   4.758   1.133   4.238  2.3646  2.6449 -1.3956
  237MOL0     H32645   4.736   1.253   4.461 -2.7650 -0.3736 -0.2362
  237MOL0     H32646   4.676   1.085   4.477 -0.8287  1.7922  1.2550
  237MOL0     H32647   4.827   1.008   4.620 -2.4619 -0.2087 -2.4028
  237MOL0     H32648   4.782   1.162   4.690 -2.1970 -1.3149 -0.3556
  237MOL0     H32649   5.039   1.077   4.611  0.9270  0.1697  0.0763
  237MOL0     H32650   5.011   1.208   4.510 -2.0354 -0.8838 -1.4234
  237MOL0     H32651   5.130   1.248   4.730 -0.1329 -0.3868  1.1973
  237MOL0     H32652   4.984   1.202   4.814  2.5525 -1.7797  1.0808
  237MOL0     H32653   4.862   1.390   4.706  0.6641 -0.9119 -0.7698
  237MOL0     H32654   5.000   1.446   4.809  1.7708 -1.1704 -0.7373
  237MOL0     H32655   4.857   1.454   4.446  0.2996 -2.3926  3.4749
  237MOL0     H32656   4.928   1.510   4.219  1.7799 -3.3593 -0.3597
  237MOL0     H32657   5.101   1.533   4.182  1.0721  1.1354  0.1306
  237MOL0     H32658   4.914   1.771   4.247  0.0172 -0.3262 -0.7423
  237MOL0     H32659   5.089   1.767   4.278  0.6014  0.3707  0.5080
  237MOL0     H32660   5.104   1.686   4.031 -2.2241 -1.3719 -0.4113
  237MOL0     H32661   4.940   1.762   4.019 -1.3957 -1.0185  1.9216
  237MOL0     H32662   5.157   1.921   4.143  0.6486  0.0312  0.1270
  237MOL0     H32663   5.142   1.920   3.969  2.0347 -3.3584  0.0286
  237MOL0     H32664   4.754   2.089   4.133 -0.8593  1.7130 -0.4956
  237MOL0     H32665   4.501   2.228   3.940 -1.4826  0.0825  0.5457
  237MOL0     H32666   4.537   2.141   4.098  3.2679  1.2462  0.3350
  237MOL0     H32667   4.441   2.062   3.969  0.7169 -0.4248 -2.8222
  237MOL0     H32668   4.452   1.717   3.657 -0.3041 -1.0277 -0.1621
  237MOL0     H32669   4.250   1.645   3.515 -2.2639  1.5868 -2.4349
  237MOL0     H32670   4.212   1.872   3.117 -3.3601 -0.3652 -1.5735
  237MOL0     H32671   4.297   1.709   3.113 -2.6084 -4.2382  1.9466
  237MOL0     H32672   3.990   1.723   3.094 -0.2958 -0.5370 -0.1468
  237MOL0     H32673   4.089   1.781   2.961 -1.3520  1.2959  0.1825
  237MOL0     H32674   4.108   1.492   3.112  3.7171 -1.2976 -1.3764
  237MOL0     H32675   4.212   1.536   2.988  1.7727  1.0087  1.6719
  237MOL0     H32676   3.902   1.563   2.953 -0.4164 -0.9211  0.1392
  237MOL0     H32677   3.972   1.403   2.965  2.5180 -0.9119 -0.5672
  237MOL0     H32678   4.132   1.454   2.774  0.3378  0.6341  0.1075
  237MOL0     H32679   3.960   1.424   2.752  0.7062  1.1456 -1.8866
  237MOL0     H32680   4.111   1.693   2.754  1.9032 -2.5701 -0.7825
  237MOL0     H32681   3.930   1.680   2.735 -0.9275 -0.3057 -1.1815
  237MOL0     H32682   3.952   1.560   2.526  0.5323 -1.1911  0.6614
  237MOL0     H32683   4.125   1.554   2.535 -0.9934  0.1199 -1.1297
  237MOL0     H32684   4.029   1.713   2.366 -0.3677 -1.0835 -1.1366
  237MOL0     H32685   4.158   1.778   2.480  1.0594 -2.6921 -0.2445
  237MOL0     H32686   4.347   1.991   3.258 -0.7375 -0.7258 -1.0446
  237MOL0     H32687   4.506   2.047   3.397 -0.5116 -1.1566 -1.9751
  237MOL0     H32688   4.834   1.997   3.651  1.4469 -0.0236  0.3262
  237MOL0     H32689   5.015   2.001   3.828  0.9342  1.5598 -0.0376
  237MOL0     H32690   4.548   1.013   3.995  2.3615  0.5722  0.3582
  237MOL0     H32691   4.339   0.898   4.013 -0.5809 -0.7802  0.4878
  237MOL0     H32692   4.144   0.505   4.228 -1.1641  1.4518  1.4987
  237MOL0     H32693   3.968   0.361   4.263  1.2331  0.1609  0.3257
  237MOL0     H32694   3.706   0.317   3.921  0.7867 -1.5913  0.4050
  237MOL0     H32695   3.612   0.220   4.025 -0.9429  0.9743 -3.1501
  237MOL0     H32696   3.565   0.534   4.031 -1.5538  0.4914 -0.3108
  237MOL0     H32697   3.457   0.402   4.074  0.0606 -0.1428  0.3514
  237MOL0     H32698   3.548   0.457   3.800  1.0658  1.2781 -0.3630
  237MOL0     H32699   3.434   0.326   3.849 -0.8589  0.7748 -0.0991
  237MOL0     H32700   3.381   0.627   3.872 -0.4172 -1.3133  0.3046
  237MOL0     H32701   3.281   0.524   3.953  0.4158  3.0083  1.1223
  237MOL0     H32702   3.246   0.434   3.531  2.1068 -0.9564 -0.3250
  237MOL0     H32703   3.771   0.547   3.931 -2.3344 -2.6448  2.1087
  237MOL0     H32704   4.025   0.662   3.761 -1.6828  1.4179 -1.2984
  237MOL0     H32705   3.865   0.722   3.815 -0.4269  1.5486  2.7452
  237MOL0     H32706   4.013   0.794   3.880 -1.0860  0.1438  0.3502
  238MOL0     O32707   8.438   8.953   0.735 -0.7755 -0.0786  0.1095
  238MOL0     C32708   8.321   8.968   0.710  0.4981 -0.0636 -0.7312
  238MOL0     O32709   8.225   9.007   0.805 -0.0314  0.3450 -0.1128
  238MOL0     C32710   8.266   8.984   0.931  0.0558 -0.8839 -0.4707
  238MOL0     C32711   8.357   9.080   0.990  1.2384 -0.1433 -0.1166
  238MOL0     C32712   8.411   9.057   1.114  0.1361 -0.1512 -0.5365
  238MOL0     C32713   8.362   8.950   1.193 -0.6296 -0.7146 -0.8428
  238MOL0     O32714   8.389   8.932   1.327  0.4309 -0.1194 -0.6719
  238MOL0     C32715   8.457   9.033   1.404  1.3946 -0.0204  0.5088
  238MOL0     C32716   8.455   9.009   1.553  0.6247  0.6287 -0.2235
  238MOL0     C32717   8.315   9.029   1.612  0.5367 -0.1384  0.0949
  238MOL0     C32718   8.292   9.046   1.759  0.0626  0.9654  0.0494
  238MOL0     C32719   8.142   9.062   1.804 -0.4940  0.0469 -0.1351
  238MOL0     C32720   8.116   9.071   1.962 -0.0312  0.0413  0.1377
  238MOL0     C32721   8.011   9.172   2.002  0.0997  0.2777 -0.1982
  238MOL0     C32722   7.866   9.139   1.970 -0.4373  0.2223 -0.1972
  238MOL0     N32723   7.817   9.136   1.825 -0.0204  0.1888 -0.0561
  238MOL0     C32724   7.843   9.218   1.722  0.3479  0.8994  0.6231
  238MOL0     C32725   7.787   9.161   1.613 -0.5997 -0.2480  0.1363
  238MOL0     C32726   7.800   9.237   1.485  0.4966  0.1171 -0.5362
  238MOL0     C32727   7.906   9.188   1.384 -0.4147 -1.0079 -0.1981
  238MOL0     C32728   7.900   9.042   1.348  0.3859  0.4072  1.0448
  238MOL0     C32729   8.014   9.010   1.254 -0.7489  0.9584 -0.0963
  238MOL0     O32730   8.015   9.081   1.125 -0.4944 -0.2594 -0.4180
  238MOL0     C32731   7.922   9.054   1.039  0.2704  0.6732 -0.3726
  238MOL0     C32732   7.888   8.922   1.000 -0.5950 -0.2106 -0.0447
  238MOL0     C32733   7.787   8.892   0.907 -0.5345 -0.1909  0.8952
  238MOL0     C32734   7.746   8.751   0.884 -1.1382  0.1091  0.2117
  238MOL0     C32735   7.735   8.997   0.831  1.5694 -0.0380  0.4564
  238MOL0     C32736   7.641   8.980   0.712 -0.8466 -0.2679 -0.4633
  238MOL0     O32737   7.584   9.095   0.662 -1.1131 -0.4488  0.4191
  238MOL0     C32738   7.491   9.074   0.564  0.7767 -0.4840  0.6214
  238MOL0     C32739   7.532   9.025   0.442  0.2048 -0.0064  0.7044
  238MOL0     C32740   7.444   8.994   0.333  0.9776  0.0446  0.0105
  238MOL0     C32741   7.316   9.039   0.345 -0.2914 -0.3642 -0.9636
  238MOL0     O32742   7.229   9.031   0.240 -0.6734 -0.4710  0.0928
  238MOL0     C32743   7.192   9.163   0.192  0.0278 -0.3763 -0.3613
  238MOL0     C32744   7.043   9.167   0.177  0.5546 -0.5588  0.1634
  238MOL0     C32745   7.007   9.277   0.081 -0.3781 -0.2251  0.2040
  238MOL0     C32746   6.855   9.294   0.064 -1.0490 -0.0905 -0.3284
  238MOL0     C32747   6.800   9.368  -0.050  1.2341 -0.3760  0.5814
  238MOL0     C32748   6.825   9.291  -0.175  0.2784  0.8945  0.6175
  238MOL0     C32749   6.763   9.372  -0.290  0.1976  0.7932  0.3322
  238MOL0     C32750   6.788   9.300  -0.412  0.6738 -0.4647 -0.3506
  238MOL0    Cl32751   6.971   9.259  -0.447  0.0909 -0.1772 -0.1222
  238MOL0     C32752   7.269   9.092   0.467  0.0479  0.5723 -0.4619
  238MOL0     C32753   7.355   9.105   0.583 -0.4767 -0.2912  0.6172
  238MOL0     O32754   7.626   8.867   0.669 -0.0321 -0.6957  0.1794
  238MOL0     C32755   7.769   9.129   0.870  0.1761  0.8080 -0.2581
  238MOL0     C32756   7.857   9.161   0.974  0.5425 -0.0691  0.4913
  238MOL0     N32757   7.732   9.037   1.651  0.1481 -0.2551  0.2987
  238MOL0     N32758   7.761   9.021   1.773  0.2271  0.7854 -0.2987
  238MOL0     C32759   8.263   8.861   1.130 -0.5229 -0.1112  0.5118
  238MOL0     C32760   8.220   8.872   1.000 -0.1428 -0.3285 -0.3973
  238MOL0     C32761   8.285   8.953   0.571  1.0276  0.1633  2.2830
  238MOL0     C32762   8.390   8.939   0.471 -0.5938 -0.2271  0.3281
  238MOL0     C32763   8.360   8.920   0.337  0.9880  0.3207 -0.2011
  238MOL0     C32764   8.227   8.929   0.287 -0.4734  0.3993  1.2318
  238MOL0     O32765   8.217   8.915   0.156  0.5875  0.1896  0.6048
  238MOL0     C32766   8.088   8.894   0.091 -0.7637  0.5711 -0.2712
  238MOL0     C32767   8.056   8.746   0.084 -0.0072 -0.0168 -0.1130
  238MOL0     C32768   7.912   8.723   0.019 -0.0827 -0.8259  0.6693
  238MOL0     C32769   7.787   8.782   0.087  0.4968  0.1013 -0.6781
  238MOL0     C32770   7.782   8.772   0.236 -0.3993 -0.5264 -0.8587
  238MOL0     C32771   7.774   8.776   0.359 -0.4550 -0.0024 -0.3093
  238MOL0     C32772   8.125   8.935   0.374  0.2287 -0.6708 -0.1855
  238MOL0     C32773   8.147   8.953   0.513  0.5733  0.0707 -0.5131
  238MOL0     C32774   8.030   8.964   0.602  0.5994  0.6663  0.0170
  238MOL0     H32775   8.391   9.168   0.936  1.4735  0.4817  1.0276
  238MOL0     H32776   8.469   9.135   1.163  2.3595 -2.4826  0.7468
  238MOL0     H32777   8.415   9.134   1.390  2.9199  0.4772 -0.7222
  238MOL0     H32778   8.559   9.040   1.367  1.2223  3.8978  0.3054
  238MOL0     H32779   8.488   8.911   1.589  0.4988  0.8943  0.6288
  238MOL0     H32780   8.516   9.087   1.600 -0.0740  1.1375 -0.1538
  238MOL0     H32781   8.264   9.115   1.567 -2.4136 -1.1388  1.2376
  238MOL0     H32782   8.247   8.948   1.583 -0.9265  0.9760  0.3071
  238MOL0     H32783   8.338   8.965   1.815  0.3453  0.6363 -0.6461
  238MOL0     H32784   8.335   9.140   1.794  0.6142  1.3982 -1.6750
  238MOL0     H32785   8.088   8.976   1.764  0.2410  0.0347 -1.1356
  238MOL0     H32786   8.113   9.154   1.752  4.7369  0.6638 -2.5969
  238MOL0     H32787   8.096   8.980   2.018  3.1836  0.6019  2.4738
  238MOL0     H32788   8.216   9.090   2.004  0.1474 -1.5171  0.4608
  238MOL0     H32789   8.029   9.271   1.959 -1.4368  0.2297 -1.0385
  238MOL0     H32790   8.023   9.178   2.111  0.9316  0.1981 -0.2793
  238MOL0     H32791   7.858   9.033   1.994  0.0980  0.0549 -0.7250
  238MOL0     H32792   7.795   9.196   2.030  0.3830  0.1106  0.8984
  238MOL0     H32793   7.910   9.304   1.713  0.3481  0.7473 -1.1903
  238MOL0     H32794   7.812   9.344   1.505  1.0728  0.2957 -1.7412
  238MOL0     H32795   7.698   9.236   1.447  0.0758  2.5126  0.3296
  238MOL0     H32796   7.887   9.248   1.295 -3.5716  0.5156  1.3427
  238MOL0     H32797   8.010   9.209   1.412 -1.0550  2.7371 -0.0945
  238MOL0     H32798   7.900   8.984   1.441 -1.5239 -0.5286  0.5264
  238MOL0     H32799   7.807   9.015   1.297  0.0802  0.2020  1.6953
  238MOL0     H32800   8.104   9.030   1.314 -3.6507  1.6135  4.5361
  238MOL0     H32801   8.003   8.904   1.230 -0.9073  0.2644  2.6655
  238MOL0     H32802   7.936   8.837   1.047 -1.2987  0.8239  2.7184
  238MOL0     H32803   7.806   8.713   0.801  0.4336  1.5729  0.6444
  238MOL0     H32804   7.641   8.740   0.854 -0.4880  2.1925 -3.3485
  238MOL0     H32805   7.780   8.693   0.970  3.1265  0.2067 -1.2152
  238MOL0     H32806   7.637   9.004   0.423 -0.4127 -2.1544 -0.6694
  238MOL0     H32807   7.476   8.934   0.248  3.9315  0.3501  0.8250
  238MOL0     H32808   7.221   9.244   0.260 -0.4321 -1.2425  0.9131
  238MOL0     H32809   7.238   9.195   0.098  1.8237 -0.5862  0.4087
  238MOL0     H32810   7.000   9.077   0.132 -2.6122  1.0212 -0.2593
  238MOL0     H32811   7.006   9.161   0.280  0.5291 -2.0493  0.0917
  238MOL0     H32812   7.051   9.255  -0.017  1.0349 -0.5950  0.8891
  238MOL0     H32813   7.056   9.370   0.114 -0.0999  0.0944 -1.0452
  238MOL0     H32814   6.819   9.353   0.148  1.2606 -1.2320  1.6026
  238MOL0     H32815   6.810   9.196   0.084  2.4944 -1.6718  0.9555
  238MOL0     H32816   6.691   9.373  -0.038  0.6876  1.4983 -3.4310
  238MOL0     H32817   6.840   9.469  -0.059  1.8381 -0.5183  1.5715
  238MOL0     H32818   6.778   9.193  -0.160  0.1189  0.8264 -0.2939
  238MOL0     H32819   6.928   9.269  -0.203  0.9527  0.5846  3.1080
  238MOL0     H32820   6.813   9.469  -0.301  2.0624 -0.1469  0.1321
  238MOL0     H32821   6.657   9.386  -0.272  0.3318 -0.4123  2.4041
  238MOL0     H32822   6.754   9.358  -0.498 -1.1809  0.5210  0.9876
  238MOL0     H32823   6.719   9.215  -0.417 -2.3840  1.8266  0.4237
  238MOL0     H32824   7.172   9.140   0.476  0.2602  0.9367 -0.0348
  238MOL0     H32825   7.328   9.149   0.678 -0.8701  0.7008  0.0694
  238MOL0     H32826   7.723   9.218   0.829  1.0495  0.8897 -1.0906
  238MOL0     H32827   7.874   9.267   0.994  1.5894  0.2600 -1.7998
  238MOL0     H32828   8.212   8.792   1.196 -0.0954 -1.2005 -0.2825
  238MOL0     H32829   8.148   8.798   0.965 -1.2679 -0.0900  1.3182
  238MOL0     H32830   8.494   8.944   0.499 -0.8899  0.1903  1.3962
  238MOL0     H32831   8.441   8.898   0.269  0.1936 -1.6724 -0.5713
  238MOL0     H32832   8.003   8.948   0.134 -0.6880  1.7723 -1.5437
  238MOL0     H32833   8.095   8.931  -0.012 -0.6497 -2.0286 -1.2635
  238MOL0     H32834   8.062   8.696   0.181  1.6924  1.6227  0.6861
  238MOL0     H32835   8.133   8.701   0.020 -0.1358  0.5769 -0.6934
  238MOL0     H32836   7.906   8.769  -0.080 -0.2937  0.6143  1.3221
  238MOL0     H32837   7.903   8.616  -0.005  0.0323 -0.1575 -2.9963
  238MOL0     H32838   7.700   8.724   0.055  1.2400 -0.9691 -0.8030
  238MOL0     H32839   7.775   8.885   0.051 -1.1927  0.3044  0.3451
  238MOL0     H32840   7.759   8.761   0.464 -0.5596 -3.1208 -0.6758
  238MOL0     H32841   8.020   8.941   0.344  1.0260  0.4415 -3.0723
  238MOL0     H32842   8.028   9.067   0.639  1.0180  2.2477 -3.8316
  238MOL0     H32843   7.929   8.943   0.566  0.5048 -1.9240  1.5191
  238MOL0     H32844   8.047   8.899   0.689 -1.5553  1.0588  0.7900
  239MOL0     O32845   8.283   9.189   4.620  0.5768  0.2589 -0.0952
  239MOL0     C32846   8.269   9.181   4.496 -0.0586  0.1679  0.0602
  239MOL0     O32847   8.328   9.089   4.416 -1.2944 -0.3329 -0.6168
  239MOL0     C32848   8.407   9.001   4.483 -0.0315  0.0141  0.3644
  239MOL0     C32849   8.353   8.887   4.536  0.9316  0.3517  0.4521
  239MOL0     C32850   8.430   8.798   4.604  0.8694 -0.6980 -0.3552
  239MOL0     C32851   8.565   8.820   4.619 -0.6384 -0.0514  0.6983
  239MOL0     O32852   8.644   8.737   4.683  0.3953 -0.6139  0.2960
  239MOL0     C32853   8.606   8.705   4.816 -0.2169  0.0084  0.2647
  239MOL0     C32854   8.732   8.645   4.877  0.0472  1.0776  0.5791
  239MOL0     C32855   8.833   8.748   4.925  0.0826 -0.1648  0.0914
  239MOL0     C32856   8.800   8.784   5.072 -0.1425  0.0514 -0.2164
  239MOL0     C32857   8.908   8.877   5.132  0.4877  0.1718 -0.1371
  239MOL0     C32858   8.870   8.931   5.270 -0.4793  0.2936 -1.4196
  239MOL0     C32859   8.744   9.020   5.262  0.3725 -0.1738 -0.8308
  239MOL0     C32860   8.732   9.097   5.396  0.3262  0.3367 -0.6508
  239MOL0     N32861   8.697   9.013   5.507 -0.9308  0.5444  0.4966
  239MOL0     C32862   8.593   8.926   5.512 -0.9519 -0.8677  0.8084
  239MOL0     C32863   8.608   8.859   5.627 -0.7054  1.2891  0.4896
  239MOL0     C32864   8.508   8.750   5.671  0.1050 -0.1655 -0.9566
  239MOL0     C32865   8.564   8.615   5.633  0.0116  0.2152 -0.6802
  239MOL0     C32866   8.561   8.584   5.484 -0.8119 -0.0154  0.2345
  239MOL0     C32867   8.621   8.448   5.436  0.1385 -1.0791 -0.2665
  239MOL0     O32868   8.765   8.453   5.444  0.4202  0.8935 -0.2788
  239MOL0     C32869   8.813   8.358   5.528  0.2954 -0.4116  0.4643
  239MOL0     C32870   8.798   8.219   5.503 -0.5290  0.5763 -0.2713
  239MOL0     C32871   8.863   8.132   5.599  0.3214 -0.6157  0.1085
  239MOL0     C32872   8.879   7.992   5.554 -0.0175  0.0221  0.0160
  239MOL0     C32873   8.927   8.179   5.714  0.1644 -1.0072 -0.6171
  239MOL0     C32874   9.001   8.101   5.810 -0.5996 -0.9560  0.2171
  239MOL0     O32875   9.137   8.128   5.837 -0.0767 -0.1638  0.2356
  239MOL0     C32876   9.204   8.049   5.924 -0.3764  0.3786 -0.3730
  239MOL0     C32877   9.172   8.038   6.062 -0.9948 -0.0091 -1.2219
  239MOL0     C32878   9.246   7.958   6.150 -0.2261 -0.0153 -0.7116
  239MOL0     C32879   9.351   7.890   6.098  0.1301 -0.0865  0.3222
  239MOL0     O32880   9.432   7.813   6.182 -0.2773  0.6675  0.4400
  239MOL0     C32881   9.502   7.883   6.292  0.3543  0.3269 -0.6870
  239MOL0     C32882   9.540   7.793   6.406  0.0587  0.3638  0.3570
  239MOL0     C32883   9.574   7.872   6.529  0.1720  0.6750 -0.2102
  239MOL0     C32884   9.600   7.798   6.653  0.1110  0.0124 -0.3064
  239MOL0     C32885   9.731   7.709   6.650 -0.0676  0.2710 -0.4548
  239MOL0     C32886   9.766   7.642   6.790 -0.1845 -0.2062 -0.3212
  239MOL0     C32887   9.909   7.577   6.787  0.4252 -0.4157 -0.0186
  239MOL0     C32888   9.981   7.632   6.902  0.2207  0.4946  1.2499
  239MOL0    Cl32889  10.123   7.536   6.931  0.0269 -0.4801  0.1716
  239MOL0     C32890   9.379   7.892   5.962 -0.6359  0.0402  0.1882
  239MOL0     C32891   9.307   7.973   5.873  0.3731  0.2489  0.6570
  239MOL0     O32892   8.936   8.013   5.864  0.0698 -0.0797  0.2538
  239MOL0     C32893   8.934   8.318   5.737  0.4149 -0.8335  0.2249
  239MOL0     C32894   8.869   8.401   5.648  0.1333  1.0443  0.2977
  239MOL0     N32895   8.726   8.902   5.683  0.3121  0.3273  1.5059
  239MOL0     N32896   8.783   9.002   5.609  0.4954 -0.2618  0.7531
  239MOL0     C32897   8.621   8.937   4.557  0.7271  0.0541  0.0895
  239MOL0     C32898   8.539   9.028   4.492  0.3309  0.4283  0.1542
  239MOL0     C32899   8.181   9.286   4.441 -1.3548  0.1055  0.4363
  239MOL0     C32900   8.132   9.261   4.311  0.0080  0.9493  0.0861
  239MOL0     C32901   8.067   9.350   4.229 -0.3031 -0.3283  0.6840
  239MOL0     C32902   8.041   9.482   4.282  0.3317  0.6159  0.3384
  239MOL0     O32903   7.969   9.587   4.222 -0.1344 -0.1923 -0.0403
  239MOL0     C32904   7.908   9.579   4.086 -0.1613  0.9181  0.2907
  239MOL0     C32905   7.988   9.642   3.970  0.0383  0.1199  0.4248
  239MOL0     C32906   8.029   9.791   4.000  0.7926 -0.2480  0.5673
  239MOL0     C32907   7.914   9.884   4.044  0.3995  0.7430 -0.4875
  239MOL0     C32908   7.940  10.022   4.022  1.0799 -0.1410  0.2534
  239MOL0     C32909   7.950  10.134   3.990 -0.1013 -0.3019  0.2165
  239MOL0     C32910   8.085   9.508   4.414 -0.5336  0.0841 -0.6246
  239MOL0     C32911   8.143   9.413   4.499  0.1348  0.4980 -0.0029
  239MOL0     C32912   8.167   9.449   4.647 -0.1530  0.9089  0.3150
  239MOL0     H32913   8.245   8.876   4.533  0.9527  0.1496  0.4728
  239MOL0     H32914   8.389   8.707   4.646  3.1236 -1.7609 -0.3101
  239MOL0     H32915   8.528   8.630   4.804 -0.9844  0.8993 -0.4166
  239MOL0     H32916   8.572   8.798   4.864  4.0514  0.9247  2.0516
  239MOL0     H32917   8.686   8.595   4.963 -3.7426  1.3970 -1.0631
  239MOL0     H32918   8.771   8.567   4.812 -0.7331  0.1514  1.1959
  239MOL0     H32919   8.932   8.701   4.927  0.0606 -0.1970  0.8959
  239MOL0     H32920   8.831   8.840   4.866  1.9885  0.4367  0.8693
  239MOL0     H32921   8.706   8.838   5.082  1.4257  3.2152 -1.4122
  239MOL0     H32922   8.798   8.691   5.130  2.6300  1.3996  2.2809
  239MOL0     H32923   8.924   8.961   5.065 -0.8673 -0.4052 -1.2268
  239MOL0     H32924   9.009   8.834   5.138  1.0883  1.5547  0.2240
  239MOL0     H32925   8.855   8.858   5.350  0.2216  3.6141  2.0018
  239MOL0     H32926   8.952   8.991   5.308 -0.9806 -0.0764  0.3281
  239MOL0     H32927   8.648   8.973   5.241  0.3511 -0.6657  0.2651
  239MOL0     H32928   8.760   9.085   5.175 -3.6740 -1.2660 -2.6047
  239MOL0     H32929   8.828   9.145   5.415 -0.0968  0.5178  1.2393
  239MOL0     H32930   8.656   9.174   5.382  0.3349  0.8041  1.4353
  239MOL0     H32931   8.520   8.915   5.432  0.4600  1.8285 -1.0017
  239MOL0     H32932   8.404   8.770   5.643  0.4292  2.1250 -0.6594
  239MOL0     H32933   8.511   8.773   5.778  1.9015  1.7774 -1.3539
  239MOL0     H32934   8.666   8.606   5.670 -0.1150  0.2633 -0.3125
  239MOL0     H32935   8.500   8.539   5.679  2.1491 -1.9166 -1.0665
  239MOL0     H32936   8.463   8.585   5.434  1.0631 -1.4383 -3.9453
  239MOL0     H32937   8.622   8.664   5.441 -0.9811  0.7970  1.4636
  239MOL0     H32938   8.586   8.366   5.499 -2.9528 -0.1819 -0.6945
  239MOL0     H32939   8.582   8.438   5.334 -0.9343 -0.1647  0.0412
  239MOL0     H32940   8.753   8.190   5.409 -2.4474  1.8590  0.1975
  239MOL0     H32941   8.982   7.983   5.519  1.3539 -0.6765  3.7767
  239MOL0     H32942   8.807   7.971   5.474  1.4615  1.1728 -1.6867
  239MOL0     H32943   8.865   7.920   5.636 -0.6511  1.1349  0.9137
  239MOL0     H32944   9.084   8.085   6.106 -1.1427 -0.6232 -0.8482
  239MOL0     H32945   9.209   7.954   6.253  2.1855  1.2924  0.2651
  239MOL0     H32946   9.600   7.922   6.263  1.4345 -0.1631  2.0269
  239MOL0     H32947   9.446   7.970   6.327 -0.8539  0.0382 -1.8347
  239MOL0     H32948   9.457   7.727   6.435  0.3025  0.2926  0.8978
  239MOL0     H32949   9.626   7.733   6.374 -0.7920 -0.0037 -1.3935
  239MOL0     H32950   9.496   7.945   6.553  1.2230  1.7296  0.1018
  239MOL0     H32951   9.663   7.931   6.506  1.3546 -0.7682  0.5005
  239MOL0     H32952   9.513   7.735   6.676  0.9661 -1.7542 -1.6904
  239MOL0     H32953   9.609   7.871   6.733 -3.5166  2.7193 -2.0418
  239MOL0     H32954   9.717   7.636   6.570 -1.0527  0.6864 -0.6771
  239MOL0     H32955   9.818   7.769   6.620 -0.3152  0.6962 -0.3379
  239MOL0     H32956   9.693   7.566   6.818  0.2414 -0.3733  0.3567
  239MOL0     H32957   9.765   7.721   6.865 -0.1766  0.6300 -1.1799
  239MOL0     H32958   9.955   7.595   6.689 -0.5600 -0.5493 -0.5188
  239MOL0     H32959   9.898   7.468   6.790 -2.1537 -0.2390 -0.6521
  239MOL0     H32960   9.930   7.648   6.998 -0.5580 -0.6015  1.0422
  239MOL0     H32961   9.990   7.737   6.873 -2.8987  0.2466 -1.0885
  239MOL0     H32962   9.454   7.823   5.924  0.7501  0.8743  1.3028
  239MOL0     H32963   9.317   7.969   5.765  3.2905 -1.8511  0.8896
  239MOL0     H32964   8.994   8.351   5.821  0.8125  1.3513 -0.8311
  239MOL0     H32965   8.878   8.508   5.663 -0.9672  1.2790 -0.5604
  239MOL0     H32966   8.729   8.945   4.555  0.6880  0.5333 -0.2543
  239MOL0     H32967   8.571   9.113   4.433 -0.6182 -0.1776 -1.3010
  239MOL0     H32968   8.149   9.164   4.266  2.0160  0.7460  1.1649
  239MOL0     H32969   8.034   9.324   4.129  1.2151  2.9117 -0.8238
  239MOL0     H32970   7.874   9.479   4.058 -1.6636  0.5456  3.0595
  239MOL0     H32971   7.813   9.631   4.105  0.8000  1.6088  4.3121
  239MOL0     H32972   7.926   9.641   3.880  0.0924  2.9668  0.2516
  239MOL0     H32973   8.073   9.577   3.950 -1.7569 -2.4174  0.5779
  239MOL0     H32974   8.107   9.783   4.077 -1.0555 -3.8598  2.3401
  239MOL0     H32975   8.064   9.836   3.907 -1.5285  2.4724  0.8529
  239MOL0     H32976   7.909   9.864   4.151  1.8978  0.7217 -0.3934
  239MOL0     H32977   7.822   9.848   3.997  1.4279 -3.9782  0.5829
  239MOL0     H32978   7.963  10.230   3.945  1.0400 -0.8989 -0.7917
  239MOL0     H32979   8.061   9.608   4.448  2.1832  1.4117 -2.2643
  239MOL0     H32980   8.139   9.364   4.710  3.4190 -0.1773  0.7061
  239MOL0     H32981   8.274   9.464   4.662 -0.1730  2.0069 -0.5021
  239MOL0     H32982   8.102   9.533   4.672  1.1134  2.6857 -1.9644
  240MOL0     O32983  11.271   4.032  10.924 -0.4145  0.4413  0.1434
  240MOL0     C32984  11.190   4.111  10.974 -0.5982 -1.0134  0.0859
  240MOL0     O32985  11.178   4.129  11.110  0.8425  0.2410  0.1787
  240MOL0     C32986  11.291   4.142  11.187 -0.3300  0.3294  0.2852
  240MOL0     C32987  11.292   4.089  11.311  0.3416 -0.0512  0.8817
  240MOL0     C32988  11.397   4.090  11.403 -0.3679  0.4380  0.5201
  240MOL0     C32989  11.522   4.156  11.362 -0.6552 -0.2475 -0.0030
  240MOL0     O32990  11.637   4.158  11.441  0.1922 -0.1443 -0.7915
  240MOL0     C32991  11.763   4.211  11.399 -0.9092 -0.7479  0.1306
  240MOL0     C32992  11.878   4.189  11.489 -0.3293 -0.1238 -0.0460
  240MOL0     C32993  12.016   4.204  11.430  0.1650  0.4259 -0.2803
  240MOL0     C32994  12.047   4.343  11.367 -0.5224 -0.1968  0.0619
  240MOL0     C32995  12.203   4.348  11.351  0.6079  0.0610 -0.8780
  240MOL0     C32996  12.225   4.492  11.300  0.2798 -0.2486 -0.1713
  240MOL0     C32997  12.376   4.517  11.282  0.7822  0.1969 -0.2891
  240MOL0     C32998  12.435   4.462  11.153 -0.2153  0.0125  0.0503
  240MOL0     N32999  12.378   4.524  11.033  0.8778 -0.3070 -0.3860
  240MOL0     C33000  12.359   4.653  11.002 -0.3866 -0.5520  0.6624
  240MOL0     C33001  12.266   4.655  10.899  0.0116 -0.8384 -0.3162
  240MOL0     C33002  12.217   4.777  10.826  0.3653  0.1156  0.6748
  240MOL0     C33003  12.188   4.757  10.670  0.2584  0.2497 -0.4924
  240MOL0     C33004  12.330   4.741  10.591 -0.8855 -1.6518  0.3225
  240MOL0     C33005  12.392   4.597  10.581 -0.6549 -0.9648  0.6628
  240MOL0     O33006  12.513   4.613  10.511 -0.5455 -0.2486  1.3836
  240MOL0     C33007  12.519   4.547  10.390  0.5655 -1.0560  0.6258
  240MOL0     C33008  12.584   4.425  10.383  0.6311 -0.6984 -0.9252
  240MOL0     C33009  12.576   4.350  10.276  0.1418  0.1534  0.0570
  240MOL0     C33010  12.609   4.201  10.282  1.0172 -0.7005  0.8621
  240MOL0     C33011  12.530   4.408  10.160 -0.4360 -0.4478  0.6297
  240MOL0     C33012  12.532   4.336  10.030 -1.0477  0.2601 -0.0802
  240MOL0     O33013  12.450   4.376   9.930 -1.0943  0.1589 -0.2426
  240MOL0     C33014  12.420   4.294   9.825  0.0585 -0.8886 -0.9268
  240MOL0     C33015  12.354   4.350   9.714  0.2669 -0.0861  0.3343
  240MOL0     C33016  12.309   4.267   9.609  1.5597 -0.2984 -0.5569
  240MOL0     C33017  12.307   4.129   9.628  0.3734  0.3951  0.6710
  240MOL0     O33018  12.232   4.065   9.531 -0.6995 -0.3974 -0.0168
  240MOL0     C33019  12.168   3.938   9.558  0.2837 -0.5401  0.8767
  240MOL0     C33020  12.260   3.835   9.498 -0.2076  0.4420 -0.7743
  240MOL0     C33021  12.229   3.684   9.556  1.0965  0.0329 -0.0178
  240MOL0     C33022  12.313   3.577   9.473 -0.0944 -0.1121 -1.2559
  240MOL0     C33023  12.276   3.430   9.500 -0.8085  0.1405  0.2853
  240MOL0     C33024  12.124   3.394   9.492 -0.2992  0.3759  0.0687
  240MOL0     C33025  12.090   3.244   9.480 -0.5662  0.1562  0.0667
  240MOL0     C33026  11.940   3.205   9.462  0.2409  0.0932 -0.4649
  240MOL0    Cl33027  11.874   3.222   9.294 -0.1670 -0.0836  0.3592
  240MOL0     C33028  12.364   4.075   9.737 -0.2157 -0.1475 -0.7179
  240MOL0     C33029  12.427   4.156   9.831 -0.5676  0.1965  1.0346
  240MOL0     O33030  12.621   4.254  10.010 -0.5898  1.2403 -0.3044
  240MOL0     C33031  12.467   4.537  10.155  0.4345  0.4493  0.1666
  240MOL0     C33032  12.456   4.598  10.277 -0.0016 -0.7874 -0.3913
  240MOL0     N33033  12.237   4.529  10.869  0.0432 -0.0432 -0.1733
  240MOL0     N33034  12.307   4.453  10.942  0.2082  0.3792 -0.3067
  240MOL0     C33035  11.517   4.217  11.233 -0.7987  0.1205 -0.1446
  240MOL0     C33036  11.410   4.208  11.143  0.0017  0.1989  0.0574
  240MOL0     C33037  11.075   4.156  10.879 -0.2257  0.3028  0.5002
  240MOL0     C33038  10.951   4.154  10.935 -0.8561 -0.7884  0.4814
  240MOL0     C33039  10.842   4.219  10.869 -0.0069 -0.6465 -0.2906
  240MOL0     C33040  10.857   4.264  10.737  0.1384 -0.1416 -0.3127
  240MOL0     O33041  10.749   4.320  10.666  0.1551  0.2319  0.7187
  240MOL0     C33042  10.667   4.219  10.599 -0.3638  0.5206 -0.3273
  240MOL0     C33043  10.737   4.179  10.470  0.5995  0.3725 -0.5875
  240MOL0     C33044  10.786   4.303  10.391  0.5239 -0.2292  0.2165
  240MOL0     C33045  10.855   4.251  10.257 -0.2204 -0.0348  0.3920
  240MOL0     C33046  10.988   4.206  10.283 -0.5174 -0.4601 -0.2202
  240MOL0     C33047  11.103   4.207  10.318 -0.3873  1.7546  0.5256
  240MOL0     C33048  10.981   4.251  10.677 -0.5993  0.6391  0.9519
  240MOL0     C33049  11.092   4.197  10.743  0.4934 -0.7862 -0.1207
  240MOL0     C33050  11.222   4.196  10.669  0.0519  0.8153 -0.6239
  240MOL0     H33051  11.200   4.039  11.342 -2.5812  1.4147 -4.2503
  240MOL0     H33052  11.395   4.045  11.502 -3.1415 -1.4133 -0.2446
  240MOL0     H33053  11.754   4.315  11.368  5.6391 -0.1079 -1.1517
  240MOL0     H33054  11.793   4.150  11.313 -0.3386 -0.4615  0.1270
  240MOL0     H33055  11.871   4.258  11.574  3.2321  1.3427 -0.7732
  240MOL0     H33056  11.875   4.086  11.526  0.3389  0.6541  2.3630
  240MOL0     H33057  12.073   4.183  11.521 -0.0328 -1.2400 -0.5267
  240MOL0     H33058  12.042   4.131  11.354  0.0437 -2.3116  2.1601
  240MOL0     H33059  11.995   4.351  11.271  1.1750 -1.1127 -0.9762
  240MOL0     H33060  12.016   4.427  11.431 -1.8771 -0.7292  0.1348
  240MOL0     H33061  12.226   4.275  11.272 -4.0268 -1.1543 -1.3951
  240MOL0     H33062  12.249   4.333  11.449  0.9566  0.1616 -1.0252
  240MOL0     H33063  12.174   4.504  11.204  0.8932 -1.8170 -0.7282
  240MOL0     H33064  12.184   4.556  11.378 -1.6911 -3.4412  1.6052
  240MOL0     H33065  12.410   4.467  11.373 -2.0535  1.3265  1.5327
  240MOL0     H33066  12.396   4.624  11.295  0.0205  0.2294  0.8062
  240MOL0     H33067  12.543   4.477  11.162 -0.6489  2.7416  1.7992
  240MOL0     H33068  12.415   4.355  11.144 -0.1399  0.0131 -0.1412
  240MOL0     H33069  12.382   4.746  11.053 -1.3102  0.3087 -0.4233
  240MOL0     H33070  12.267   4.873  10.846  2.4272 -0.9244  0.7683
  240MOL0     H33071  12.114   4.789  10.861  0.3343 -1.3451  1.1371
  240MOL0     H33072  12.132   4.666  10.646 -0.6647  0.3158  1.2736
  240MOL0     H33073  12.117   4.834  10.639 -3.1560 -2.0525  0.9333
  240MOL0     H33074  12.323   4.784  10.491  1.7663 -0.5263  0.5559
  240MOL0     H33075  12.405   4.788  10.655 -3.1508 -1.4187  3.0138
  240MOL0     H33076  12.416   4.553  10.679 -0.3869 -0.1855  0.9589
  240MOL0     H33077  12.326   4.535  10.521  1.4547 -1.4730 -1.2392
  240MOL0     H33078  12.623   4.388  10.478  1.7026  1.5888 -0.4033
  240MOL0     H33079  12.620   4.164  10.384 -1.3603 -2.4637  0.5469
  240MOL0     H33080  12.702   4.192  10.225 -0.0357 -2.6206 -0.6415
  240MOL0     H33081  12.525   4.150  10.235 -1.7233  2.1232  2.3132
  240MOL0     H33082  12.346   4.456   9.690  0.3231  0.0371  0.8459
  240MOL0     H33083  12.259   4.319   9.528  0.0346  0.2559  0.6851
  240MOL0     H33084  12.142   3.938   9.664  0.6046 -1.0291  0.9605
  240MOL0     H33085  12.068   3.937   9.513 -0.0773  1.5680  1.5603
  240MOL0     H33086  12.247   3.835   9.390  0.7887 -3.6808 -1.0776
  240MOL0     H33087  12.366   3.862   9.508 -0.8222  2.3367  1.3945
  240MOL0     H33088  12.124   3.666   9.534  0.6184  2.3933  0.0819
  240MOL0     H33089  12.262   3.687   9.661  2.3881  0.4371 -0.4162
  240MOL0     H33090  12.422   3.587   9.479 -0.1108 -0.6175  0.8134
  240MOL0     H33091  12.285   3.600   9.370  0.6805  3.1621 -0.8205
  240MOL0     H33092  12.336   3.365   9.435  1.1717  0.2822  1.8621
  240MOL0     H33093  12.293   3.413   9.607  0.6271  0.5338  0.1464
  240MOL0     H33094  12.098   3.445   9.399  1.2329  0.3681 -0.3952
  240MOL0     H33095  12.066   3.438   9.574 -3.8856 -1.7045 -1.1129
  240MOL0     H33096  12.125   3.187   9.566  1.9430 -2.8389 -2.6571
  240MOL0     H33097  12.141   3.217   9.387 -1.5923  2.8430 -1.3729
  240MOL0     H33098  11.881   3.266   9.531  0.3148 -0.0017 -0.3177
  240MOL0     H33099  11.925   3.099   9.487 -0.4032  0.4119  0.5691
  240MOL0     H33100  12.374   3.968   9.749  2.3939 -0.0086 -0.8836
  240MOL0     H33101  12.456   4.098   9.918  0.1118 -0.5390  0.3374
  240MOL0     H33102  12.423   4.580  10.066 -0.1653  1.0883  0.7537
  240MOL0     H33103  12.402   4.692  10.278 -2.6017 -2.1515 -1.3888
  240MOL0     H33104  11.599   4.282  11.204 -0.4981  0.2031  0.8549
  240MOL0     H33105  11.402   4.254  11.045 -3.0857 -0.3217 -0.0427
  240MOL0     H33106  10.932   4.135  11.040 -2.1121  3.3407  1.2008
  240MOL0     H33107  10.745   4.234  10.916  0.7905 -2.0416  1.9659
  240MOL0     H33108  10.659   4.132  10.665  2.0090 -0.5014 -1.2812
  240MOL0     H33109  10.568   4.254  10.570 -1.2727 -0.5259  1.3574
  240MOL0     H33110  10.666   4.118  10.413  2.0685 -2.3718  0.3329
  240MOL0     H33111  10.821   4.119  10.506 -0.4441 -0.0206  1.3462
  240MOL0     H33112  10.700   4.350  10.343  2.8044  1.0961 -2.9032
  240MOL0     H33113  10.850   4.367  10.453 -1.0332 -1.0305  2.8010
  240MOL0     H33114  10.862   4.344  10.200 -2.8498 -1.5324 -2.7229
  240MOL0     H33115  10.790   4.179  10.205  2.3719 -0.3822 -2.6616
  240MOL0     H33116  11.200   4.185  10.358 -0.1363  1.6389 -0.1328
  240MOL0     H33117  10.989   4.268  10.570  0.6660  1.7782  1.2019
  240MOL0     H33118  11.240   4.093  10.639  1.4306 -0.6666  4.3231
  240MOL0     H33119  11.229   4.267  10.586 -1.5284 -1.3802 -2.7342
  240MOL0     H33120  11.304   4.210  10.741 -2.5118  0.3909  2.6324
  241MOL0     O33121   0.844   4.224   0.577  0.2201  0.0831 -0.0903
  241MOL0     C33122   0.734   4.187   0.618  0.5366  0.1198 -0.3946
  241MOL0     O33123   0.711   4.138   0.739  0.3097 -1.1000 -0.5877
  241MOL0     C33124   0.823   4.137   0.815 -0.2958 -0.0456  0.3943
  241MOL0     C33125   0.881   4.010   0.851  0.2971 -0.2270 -0.1385
  241MOL0     C33126   1.004   3.999   0.912 -0.2303  0.8507 -0.1748
  241MOL0     C33127   1.067   4.116   0.959  0.2671 -0.1041  0.4507
  241MOL0     O33128   1.183   4.137   1.026  0.7482  0.7152 -0.1747
  241MOL0     C33129   1.273   4.023   1.048  0.3361 -0.0502 -0.1003
  241MOL0     C33130   1.261   3.985   1.194 -0.6901  0.0484 -0.5923
  241MOL0     C33131   1.342   3.861   1.241 -0.2607  0.7002 -0.1649
  241MOL0     C33132   1.310   3.832   1.396  0.5603 -0.6689  0.2304
  241MOL0     C33133   1.387   3.704   1.438  0.7327 -0.3513 -0.4685
  241MOL0     C33134   1.310   3.581   1.390  0.0689 -0.2517  0.0818
  241MOL0     C33135   1.360   3.453   1.452  0.4956 -0.4558 -0.2067
  241MOL0     C33136   1.280   3.333   1.405  0.1471  0.0456  0.2156
  241MOL0     N33137   1.336   3.208   1.458  0.3404  0.8269  0.1958
  241MOL0     C33138   1.262   3.095   1.489  0.6073  0.2827  0.2892
  241MOL0     C33139   1.361   3.008   1.516 -0.4935  0.3536 -0.3402
  241MOL0     C33140   1.345   2.859   1.522  0.7025  0.3447  0.7603
  241MOL0     C33141   1.313   2.784   1.386 -0.6799  0.5481  0.2629
  241MOL0     C33142   1.379   2.843   1.259  0.0685 -0.5773  0.2936
  241MOL0     C33143   1.339   2.759   1.125 -0.4026  0.1631 -0.4537
  241MOL0     O33144   1.214   2.687   1.122 -0.5356 -0.6632 -0.2594
  241MOL0     C33145   1.094   2.762   1.120  0.3400 -1.0593 -0.7577
  241MOL0     C33146   0.980   2.681   1.117  0.2342 -0.4149 -0.4334
  241MOL0     C33147   0.850   2.740   1.112  0.3039  0.0872  0.3070
  241MOL0     C33148   0.734   2.645   1.106 -1.0965 -0.5048 -0.2914
  241MOL0     C33149   0.839   2.881   1.108  0.0542 -0.4269 -0.1168
  241MOL0     C33150   0.710   2.946   1.129 -0.1649  0.0096 -0.4258
  241MOL0     O33151   0.626   2.892   1.225 -0.3094  0.5204 -0.1434
  241MOL0     C33152   0.516   2.957   1.254 -0.0065 -0.8762  0.3470
  241MOL0     C33153   0.492   3.024   1.377  0.1315  0.0466  0.6695
  241MOL0     C33154   0.371   3.087   1.396  0.4994  0.7278  0.0479
  241MOL0     C33155   0.273   3.090   1.301  1.0081  0.3350 -0.6464
  241MOL0     O33156   0.166   3.174   1.315 -0.8952  0.9350  0.1297
  241MOL0     C33157   0.037   3.126   1.276  1.3906  1.1251  0.9983
  241MOL0     C33158  -0.058   3.240   1.320  0.0054 -0.2719 -0.0375
  241MOL0     C33159  -0.193   3.247   1.247 -0.4432  0.0217 -0.3486
  241MOL0     C33160  -0.257   3.387   1.259  0.9947 -0.3247  0.9390
  241MOL0     C33161  -0.402   3.392   1.212  1.2508 -0.3477  0.8844
  241MOL0     C33162  -0.419   3.381   1.059 -0.2137  0.1155  0.2391
  241MOL0     C33163  -0.559   3.446   1.019 -0.1399  0.3647  0.3525
  241MOL0     C33164  -0.615   3.367   0.906  0.7660 -0.0045 -0.5556
  241MOL0    Cl33165  -0.685   3.215   0.965  0.0823 -0.1671 -0.6792
  241MOL0     C33166   0.286   3.015   1.178 -0.2232  0.4054 -1.5269
  241MOL0     C33167   0.403   2.945   1.171 -0.0338 -0.1409  0.6828
  241MOL0     O33168   0.680   3.042   1.061  0.5680  0.8071 -0.4348
  241MOL0     C33169   0.960   2.961   1.113  0.3168  0.0708 -0.3798
  241MOL0     C33170   1.083   2.902   1.125  0.3218 -0.2693  0.0646
  241MOL0     N33171   1.488   3.068   1.510  0.8139 -0.2206  0.6895
  241MOL0     N33172   1.473   3.186   1.475  0.8838 -0.5229 -0.3585
  241MOL0     C33173   0.998   4.241   0.947 -0.3258  0.3412 -0.2680
  241MOL0     C33174   0.880   4.248   0.876  0.4527  0.0419  0.7433
  241MOL0     C33175   0.610   4.203   0.535  0.1987  0.5023  0.4855
  241MOL0     C33176   0.485   4.203   0.599  0.6838  0.1414 -0.4595
  241MOL0     C33177   0.369   4.225   0.533 -0.3612  0.1936 -0.4026
  241MOL0     C33178   0.363   4.245   0.401 -0.9800 -0.9900 -0.7089
  241MOL0     O33179   0.244   4.275   0.332 -0.0532  0.5570  0.6766
  241MOL0     C33180   0.125   4.197   0.372  0.4409 -0.6598 -0.2937
  241MOL0     C33181   0.012   4.235   0.282  0.3142 -0.0532  0.9111
  241MOL0     C33182  -0.034   4.390   0.285  0.0490  0.2825 -0.0077
  241MOL0     C33183  -0.138   4.441   0.183  0.8645  0.3241  0.2637
  241MOL0     C33184  -0.251   4.352   0.165  0.1718  0.8696 -0.7419
  241MOL0     C33185  -0.340   4.274   0.144 -0.8620  0.2266 -0.5445
  241MOL0     C33186   0.489   4.249   0.327 -0.4982 -0.1929 -0.3176
  241MOL0     C33187   0.611   4.227   0.388 -0.2683  1.3793  0.4533
  241MOL0     C33188   0.733   4.257   0.306  0.1794  0.5109 -0.3995
  241MOL0     H33189   0.821   3.922   0.829  1.4766 -1.3584  1.0038
  241MOL0     H33190   1.045   3.900   0.930  0.5899  0.8459 -1.8810
  241MOL0     H33191   1.376   4.054   1.027 -0.2668  1.4795 -0.9705
  241MOL0     H33192   1.238   3.936   0.991 -1.3286  0.0800  0.6516
  241MOL0     H33193   1.275   4.076   1.253 -2.1629 -0.7444  1.0626
  241MOL0     H33194   1.157   3.974   1.226 -0.6960  2.4228  0.3380
  241MOL0     H33195   1.315   3.784   1.169  0.3901  0.1958  0.1188
  241MOL0     H33196   1.448   3.879   1.219  0.7187 -3.8076 -0.0139
  241MOL0     H33197   1.343   3.913   1.462 -4.3190  0.6787  1.3837
  241MOL0     H33198   1.205   3.824   1.423  0.6954  2.6910  2.3231
  241MOL0     H33199   1.391   3.704   1.548 -3.3798 -0.4396 -0.1490
  241MOL0     H33200   1.488   3.706   1.398  0.8910  1.1445 -0.0618
  241MOL0     H33201   1.203   3.588   1.409  0.2322 -0.0575  0.9649
  241MOL0     H33202   1.309   3.581   1.280  2.5212 -1.8118 -0.0038
  241MOL0     H33203   1.347   3.445   1.561 -1.6939 -0.1425 -0.3882
  241MOL0     H33204   1.466   3.449   1.426  0.7299  1.1590  0.3802
  241MOL0     H33205   1.173   3.325   1.426  0.6826  0.8324  3.8739
  241MOL0     H33206   1.292   3.333   1.296  1.9819  1.6300  0.3625
  241MOL0     H33207   1.158   3.067   1.472  1.2426 -2.4667  0.6198
  241MOL0     H33208   1.259   2.841   1.587 -0.3250  2.2505  0.0083
  241MOL0     H33209   1.432   2.811   1.568 -1.0221 -1.4952  2.2686
  241MOL0     H33210   1.342   2.678   1.380  0.8443  0.9922 -0.9969
  241MOL0     H33211   1.209   2.805   1.363 -0.7516 -0.4442 -0.4095
  241MOL0     H33212   1.348   2.948   1.255  0.2816 -0.5038  0.6330
  241MOL0     H33213   1.487   2.850   1.267 -0.1307  1.9325  2.0973
  241MOL0     H33214   1.336   2.833   1.044 -5.8482  0.0471 -0.6975
  241MOL0     H33215   1.419   2.685   1.117 -0.9440 -0.5680  0.7563
  241MOL0     H33216   0.989   2.572   1.115  1.0718 -0.4513  1.7359
  241MOL0     H33217   0.739   2.557   1.040 -2.3051  1.1427 -2.7496
  241MOL0     H33218   0.650   2.697   1.059 -0.1994  0.9698 -0.3060
  241MOL0     H33219   0.706   2.613   1.207  0.5266 -2.3204 -0.3672
  241MOL0     H33220   0.568   3.035   1.455  1.4867  0.7719 -0.7085
  241MOL0     H33221   0.351   3.155   1.478  0.4399  2.8536 -1.6530
  241MOL0     H33222   0.039   3.108   1.168  2.0029 -0.2655  1.2242
  241MOL0     H33223   0.001   3.039   1.333  1.4786  1.7189  1.9794
  241MOL0     H33224  -0.069   3.221   1.427  3.3852 -2.0983  0.1244
  241MOL0     H33225  -0.008   3.336   1.309 -0.0608 -0.4389 -2.3060
  241MOL0     H33226  -0.271   3.172   1.266 -1.3769  1.2165  0.7318
  241MOL0     H33227  -0.179   3.235   1.139  0.8227  1.1555 -0.3366
  241MOL0     H33228  -0.198   3.461   1.204 -2.4056  1.0517 -1.2150
  241MOL0     H33229  -0.268   3.411   1.365  0.0773 -0.4603  0.8796
  241MOL0     H33230  -0.452   3.311   1.266 -0.7828  0.8152  0.8450
  241MOL0     H33231  -0.433   3.491   1.247 -1.3947 -0.3120 -1.2259
  241MOL0     H33232  -0.427   3.275   1.036  1.8826 -0.1854  0.6913
  241MOL0     H33233  -0.342   3.425   0.995  1.4664 -2.1949  0.5540
  241MOL0     H33234  -0.538   3.549   0.987  0.9402  0.7071  2.0761
  241MOL0     H33235  -0.621   3.454   1.108 -0.3374  1.8965  0.1168
  241MOL0     H33236  -0.532   3.355   0.835  1.3886  0.3671  0.0962
  241MOL0     H33237  -0.698   3.420   0.858  0.4211  0.5863  0.6434
  241MOL0     H33238   0.214   3.019   1.097  0.1500 -0.1757 -1.8951
  241MOL0     H33239   0.423   2.893   1.078  0.8924 -0.2795  0.9484
  241MOL0     H33240   0.957   3.070   1.107  0.0410 -0.0027 -2.1487
  241MOL0     H33241   1.175   2.958   1.117  0.3308 -0.4588 -1.3590
  241MOL0     H33242   1.014   4.329   1.009  0.9147 -1.1702  1.6552
  241MOL0     H33243   0.835   4.347   0.868  1.0044  0.6405  3.8861
  241MOL0     H33244   0.489   4.189   0.706 -1.0290  1.6583 -0.1417
  241MOL0     H33245   0.284   4.236   0.600  0.7336  0.5853  0.9741
  241MOL0     H33246   0.145   4.091   0.388  1.1797 -0.5941 -0.7629
  241MOL0     H33247   0.092   4.239   0.467 -0.0389 -0.9261 -0.3400
  241MOL0     H33248  -0.074   4.170   0.305  0.2216  0.8006  3.2794
  241MOL0     H33249   0.052   4.223   0.181 -1.0690  1.5474  0.1202
  241MOL0     H33250  -0.061   4.423   0.385  2.2950 -0.4971  0.9291
  241MOL0     H33251   0.058   4.441   0.256  0.4721 -1.6649 -2.4559
  241MOL0     H33252  -0.080   4.432   0.091  0.0664 -0.8068 -0.1548
  241MOL0     H33253  -0.158   4.549   0.186  2.8922  0.7326  0.0790
  241MOL0     H33254  -0.424   4.208   0.139 -1.0936  0.2671  1.8282
  241MOL0     H33255   0.492   4.284   0.224  1.9625 -2.6990 -1.2418
  241MOL0     H33256   0.714   4.283   0.201  1.1695 -2.9884 -1.5822
  241MOL0     H33257   0.800   4.330   0.352  1.6478  0.1548 -1.8816
  241MOL0     H33258   0.800   4.170   0.306 -1.2278 -0.6074  0.1785
  242MOL0     O33259   5.484   5.518   1.293  0.2156  0.2684 -0.3419
  242MOL0     C33260   5.562   5.584   1.366 -0.7528 -0.8944  0.8645
  242MOL0     O33261   5.634   5.687   1.324 -0.5010 -0.3202 -0.7439
  242MOL0     C33262   5.650   5.725   1.188  0.1241  0.7939 -0.2693
  242MOL0     C33263   5.691   5.627   1.100 -0.6776  0.2991  0.1803
  242MOL0     C33264   5.733   5.663   0.975 -1.1940  0.0344  1.2984
  242MOL0     C33265   5.727   5.800   0.932 -0.0605  0.3761  0.0385
  242MOL0     O33266   5.771   5.828   0.808 -0.3338 -0.5811 -0.1866
  242MOL0     C33267   5.675   5.827   0.703  0.6476  0.6042 -0.5083
  242MOL0     C33268   5.607   5.963   0.672 -0.2765  0.2087  0.1038
  242MOL0     C33269   5.704   6.046   0.580  0.0056  0.1469  0.3808
  242MOL0     C33270   5.676   6.195   0.556  0.2934 -0.5297 -0.1286
  242MOL0     C33271   5.751   6.262   0.439 -0.2037 -0.5342 -0.1979
  242MOL0     C33272   5.895   6.238   0.438  0.0938 -0.1134 -0.2654
  242MOL0     C33273   5.959   6.300   0.302  0.4290  0.2782  0.0415
  242MOL0     C33274   6.103   6.335   0.321 -0.0579 -0.5754 -0.2551
  242MOL0     N33275   6.142   6.411   0.208 -0.0749 -0.2555  0.5206
  242MOL0     C33276   6.165   6.543   0.202  0.0665  0.2685  0.6132
  242MOL0     C33277   6.191   6.572   0.070 -0.5166 -1.1008  0.3823
  242MOL0     C33278   6.215   6.710   0.028 -0.7537 -1.1791 -0.3109
  242MOL0     C33279   6.356   6.750   0.058 -0.3068 -0.9148  0.4520
  242MOL0     C33280   6.401   6.889   0.020  0.7936 -0.8991 -0.1446
  242MOL0     C33281   6.342   6.986   0.118 -0.8319 -0.1444  0.2366
  242MOL0     O33282   6.430   7.102   0.133  0.4872  0.8339  0.3953
  242MOL0     C33283   6.392   7.199   0.229 -0.1507 -0.3122 -0.7777
  242MOL0     C33284   6.316   7.185   0.345 -0.6633 -0.4594  0.0963
  242MOL0     C33285   6.309   7.289   0.437 -0.0710 -0.4103 -0.3035
  242MOL0     C33286   6.236   7.265   0.566  0.5524 -0.3409  1.2273
  242MOL0     C33287   6.369   7.417   0.413 -0.6895  0.8609 -0.6920
  242MOL0     C33288   6.352   7.532   0.498 -0.2093 -0.6498 -0.5264
  242MOL0     O33289   6.356   7.650   0.432  0.2474  0.4595  0.1410
  242MOL0     C33290   6.414   7.751   0.509  0.3848  0.1656  0.3135
  242MOL0     C33291   6.330   7.805   0.610 -0.1163 -0.3553  0.4953
  242MOL0     C33292   6.371   7.917   0.680  0.5536  0.2076 -0.3950
  242MOL0     C33293   6.501   7.963   0.664 -0.6050 -0.0503 -0.1819
  242MOL0     O33294   6.528   8.061   0.752  0.1382  0.3982 -0.2943
  242MOL0     C33295   6.646   8.132   0.727 -0.2556 -0.7223 -0.1419
  242MOL0     C33296   6.767   8.062   0.787 -0.3958 -0.6323 -0.3626
  242MOL0     C33297   6.765   8.050   0.937  0.7090  0.8701 -0.1357
  242MOL0     C33298   6.787   8.183   1.016 -0.0487 -0.1723  0.0201
  242MOL0     C33299   6.823   8.186   1.168  0.3315 -0.2474  0.3483
  242MOL0     C33300   6.833   8.321   1.254 -0.0113  0.5587  0.8981
  242MOL0     C33301   6.710   8.399   1.244  0.2311 -1.0899  0.0608
  242MOL0     C33302   6.742   8.530   1.316  0.6258 -0.5178 -0.4534
  242MOL0    Cl33303   6.596   8.641   1.308 -0.5555  0.2968 -0.2682
  242MOL0     C33304   6.585   7.908   0.565  0.1237  0.6694  0.4255
  242MOL0     C33305   6.537   7.806   0.481  0.5450 -0.8609  0.3952
  242MOL0     O33306   6.347   7.525   0.621  0.0844  0.4950  0.2377
  242MOL0     C33307   6.434   7.432   0.289  0.5790  0.5960  0.4565
  242MOL0     C33308   6.446   7.323   0.198  0.1237  0.0961  0.2292
  242MOL0     N33309   6.191   6.453   0.005  0.5836  0.5554 -0.7301
  242MOL0     N33310   6.153   6.358   0.083  0.0414 -0.5098 -0.4253
  242MOL0     C33311   5.679   5.893   1.017 -0.3981 -0.9544 -1.8141
  242MOL0     C33312   5.631   5.852   1.142  0.3410  0.2408 -0.3775
  242MOL0     C33313   5.562   5.549   1.517  0.4807  0.3352  0.3796
  242MOL0     C33314   5.518   5.642   1.616  0.6022 -0.5034 -0.1992
  242MOL0     C33315   5.527   5.598   1.750  0.9324  0.3828  1.1130
  242MOL0     C33316   5.591   5.482   1.783  0.1005  0.1799  0.6460
  242MOL0     O33317   5.590   5.450   1.916 -0.0529 -0.2385 -0.2254
  242MOL0     C33318   5.670   5.337   1.969 -0.4592 -0.8881  0.3721
  242MOL0     C33319   5.607   5.203   1.946  0.3787 -0.2079  0.6408
  242MOL0     C33320   5.459   5.180   2.000 -0.1011 -0.6921  0.6909
  242MOL0     C33321   5.445   5.177   2.154 -1.2799  0.1896 -0.6125
  242MOL0     C33322   5.310   5.191   2.216 -0.2439 -0.7482  0.4911
  242MOL0     C33323   5.207   5.183   2.286 -0.1311 -0.2120  0.4352
  242MOL0     C33324   5.635   5.395   1.679 -0.0975 -0.4085 -0.9707
  242MOL0     C33325   5.612   5.421   1.546  0.7506 -1.0585 -0.7257
  242MOL0     C33326   5.657   5.326   1.442 -0.1777  0.2308  0.1624
  242MOL0     H33327   5.684   5.521   1.123 -3.3103  0.5564  0.8521
  242MOL0     H33328   5.779   5.593   0.906 -1.4197  1.6334 -0.5783
  242MOL0     H33329   5.593   5.765   0.739  2.6479 -2.4261 -0.8323
  242MOL0     H33330   5.714   5.785   0.610  0.1774  0.3589 -0.6003
  242MOL0     H33331   5.511   5.938   0.627 -0.6998 -0.4239  1.3286
  242MOL0     H33332   5.587   6.022   0.761 -1.1842  0.8904 -0.5347
  242MOL0     H33333   5.808   6.039   0.614  1.7930  0.4066 -4.2612
  242MOL0     H33334   5.694   6.009   0.477 -1.0520 -0.3091  0.6380
  242MOL0     H33335   5.569   6.208   0.543  0.2347  0.7088  1.3905
  242MOL0     H33336   5.721   6.250   0.639  0.8348  0.0158 -0.7663
  242MOL0     H33337   5.730   6.369   0.450 -0.6108 -0.6954  0.6630
  242MOL0     H33338   5.703   6.231   0.345 -4.0466 -0.1009  1.4365
  242MOL0     H33339   5.948   6.281   0.523 -1.3836  0.3713  0.4406
  242MOL0     H33340   5.910   6.130   0.445 -0.8096 -0.1237  2.3703
  242MOL0     H33341   5.905   6.394   0.283  1.2307  0.7118 -0.1526
  242MOL0     H33342   5.952   6.237   0.213 -2.3809  0.3947  0.1057
  242MOL0     H33343   6.105   6.387   0.417 -3.9678  0.3835 -0.4964
  242MOL0     H33344   6.162   6.244   0.333  3.3219  1.7605  2.4897
  242MOL0     H33345   6.166   6.611   0.286  0.2058  1.3244 -0.2122
  242MOL0     H33346   6.146   6.779   0.076 -0.5492  1.0322 -2.9495
  242MOL0     H33347   6.210   6.711  -0.081 -0.4739  1.9671 -0.3819
  242MOL0     H33348   6.358   6.739   0.167 -2.2869  1.2454  0.7700
  242MOL0     H33349   6.424   6.687   0.000  0.9666  0.1051  0.7886
  242MOL0     H33350   6.509   6.900   0.033  0.6016 -0.2530  1.0507
  242MOL0     H33351   6.366   6.929  -0.075 -2.8640 -1.1196  0.9436
  242MOL0     H33352   6.249   7.024   0.076 -1.4167 -2.2050 -0.4684
  242MOL0     H33353   6.331   6.937   0.216 -1.1902  2.0976  1.3839
  242MOL0     H33354   6.268   7.091   0.372 -1.6202 -0.5346 -1.6990
  242MOL0     H33355   6.302   7.261   0.653  1.2455 -2.7885  0.6646
  242MOL0     H33356   6.174   7.176   0.567 -2.8762  1.7346 -1.8140
  242MOL0     H33357   6.172   7.348   0.595  2.0094  0.3137  2.7685
  242MOL0     H33358   6.236   7.764   0.645  0.2648 -0.9054  0.8886
  242MOL0     H33359   6.312   7.967   0.756  0.4207 -2.3259  1.2618
  242MOL0     H33360   6.661   8.154   0.621 -0.0241  1.4249  0.2972
  242MOL0     H33361   6.651   8.229   0.777 -0.8867 -1.4972  1.4906
  242MOL0     H33362   6.783   7.959   0.755  0.1334 -0.5819 -0.2663
  242MOL0     H33363   6.859   8.105   0.747  0.7786 -1.2950  1.4989
  242MOL0     H33364   6.841   7.980   0.972  0.6389  0.8588 -0.0066
  242MOL0     H33365   6.667   8.007   0.955 -0.0711  1.7166 -2.0164
  242MOL0     H33366   6.690   8.232   1.004 -0.3462  0.0797  2.7832
  242MOL0     H33367   6.865   8.242   0.966  0.8795  0.5680  2.2160
  242MOL0     H33368   6.745   8.122   1.211 -0.2863  1.8704  2.5881
  242MOL0     H33369   6.919   8.136   1.189 -2.0664 -3.7379  4.7120
  242MOL0     H33370   6.919   8.376   1.214 -0.6830  0.6107 -0.5037
  242MOL0     H33371   6.852   8.297   1.359  0.7720  1.3134  0.9460
  242MOL0     H33372   6.635   8.332   1.288  0.2993 -1.7358 -0.7710
  242MOL0     H33373   6.677   8.416   1.141 -0.8662  1.0328  0.7136
  242MOL0     H33374   6.828   8.582   1.275 -0.4698  0.8095 -1.1413
  242MOL0     H33375   6.763   8.508   1.421  3.2812  1.6241 -0.4111
  242MOL0     H33376   6.681   7.953   0.543  1.4030 -0.8863  2.4851
  242MOL0     H33377   6.609   7.768   0.408 -1.3828  0.2367 -2.2502
  242MOL0     H33378   6.467   7.527   0.249 -0.0748 -0.2381 -2.2530
  242MOL0     H33379   6.491   7.331   0.100  0.1292 -3.0600 -0.1178
  242MOL0     H33380   5.666   5.998   0.992  3.7931  0.4175  0.7780
  242MOL0     H33381   5.588   5.931   1.204  1.1630  1.0429 -0.7997
  242MOL0     H33382   5.483   5.742   1.592  1.0464 -0.4903 -0.8397
  242MOL0     H33383   5.482   5.660   1.827 -3.0430 -0.7976 -0.0136
  242MOL0     H33384   5.765   5.335   1.916 -0.6748 -1.8109  0.0090
  242MOL0     H33385   5.681   5.358   2.076  0.6856 -2.1785  0.5199
  242MOL0     H33386   5.679   5.132   1.986  1.3579  0.7480  0.6369
  242MOL0     H33387   5.599   5.170   1.842 -4.9637 -0.8310  0.9750
  242MOL0     H33388   5.404   5.264   1.957  0.0519 -1.2428 -0.6268
  242MOL0     H33389   5.422   5.091   1.948 -1.6521 -1.0689  2.3291
  242MOL0     H33390   5.510   5.257   2.193 -1.1421  0.1963 -0.8557
  242MOL0     H33391   5.479   5.080   2.191  0.6090  1.0838  0.1816
  242MOL0     H33392   5.120   5.167   2.346 -0.7010  1.4476  0.0890
  242MOL0     H33393   5.697   5.310   1.704 -0.0089  0.3550  1.7221
  242MOL0     H33394   5.711   5.246   1.494 -2.4475 -1.3071  0.3168
  242MOL0     H33395   5.566   5.289   1.395 -0.5891 -0.7725  1.6792
  242MOL0     H33396   5.720   5.376   1.367  0.6767  3.5203  2.8270
  243MOL0     O33397   4.517   2.890   7.625  0.2517  0.1927  0.4938
  243MOL0     C33398   4.476   2.995   7.676  0.8332 -0.1111  0.2807
  243MOL0     O33399   4.385   3.008   7.784 -0.2738  0.1926 -0.0929
  243MOL0     C33400   4.341   2.890   7.844 -0.3277 -0.5324 -0.0245
  243MOL0     C33401   4.431   2.802   7.899 -0.1981  0.5004  1.2203
  243MOL0     C33402   4.385   2.685   7.963 -0.0485 -0.4064 -0.0075
  243MOL0     C33403   4.245   2.672   7.974 -0.2053  0.1099  1.1381
  243MOL0     O33404   4.188   2.570   8.037  0.4553 -0.8610  0.2061
  243MOL0     C33405   4.229   2.444   7.987  0.2757  0.4310  0.4396
  243MOL0     C33406   4.156   2.331   8.059  0.4403  0.7554  0.1120
  243MOL0     C33407   4.013   2.315   8.012  0.1937  0.7337 -0.8017
  243MOL0     C33408   3.903   2.399   8.097 -1.4174 -0.0646  0.5118
  243MOL0     C33409   3.757   2.368   8.064 -0.2238  0.2269 -0.1147
  243MOL0     C33410   3.654   2.438   8.160 -0.4668  0.1018  0.0661
  243MOL0     C33411   3.503   2.434   8.121  0.9396 -0.2212  0.5411
  243MOL0     C33412   3.447   2.297   8.158 -0.7242  0.3333 -0.5272
  243MOL0     N33413   3.322   2.264   8.087 -0.0325 -0.5924 -0.5938
  243MOL0     C33414   3.198   2.314   8.118  0.5933  0.3798  0.8040
  243MOL0     C33415   3.123   2.283   8.010 -0.5764 -0.5390 -0.2248
  243MOL0     C33416   2.983   2.331   7.986 -0.4278  0.1161  0.2178
  243MOL0     C33417   2.889   2.210   8.000 -0.4739 -0.6497 -0.0029
  243MOL0     C33418   2.739   2.241   7.977 -0.5599 -0.4086  0.4711
  243MOL0     C33419   2.661   2.133   8.041 -0.6376  0.0205 -0.7589
  243MOL0     O33420   2.524   2.164   8.062  0.4657 -0.0902  0.3732
  243MOL0     C33421   2.438   2.174   7.952 -0.1015  0.0112  0.4598
  243MOL0     C33422   2.334   2.263   7.965  0.4754  1.0112  0.6978
  243MOL0     C33423   2.246   2.294   7.848 -0.2339  0.8190  0.3036
  243MOL0     C33424   2.136   2.402   7.867 -0.2144  0.5012 -0.0558
  243MOL0     C33425   2.270   2.218   7.726 -0.9052  0.4640  0.2138
  243MOL0     C33426   2.182   2.235   7.608  0.0964  0.0297 -0.0675
  243MOL0     O33427   2.189   2.132   7.519  0.7881 -0.0336 -0.1945
  243MOL0     C33428   2.112   2.142   7.405 -0.5245  0.3067  0.4489
  243MOL0     C33429   1.978   2.153   7.410  0.7193 -0.0550 -0.5857
  243MOL0     C33430   1.896   2.151   7.299  0.6760 -0.0915 -0.3885
  243MOL0     C33431   1.952   2.123   7.173 -0.8949  1.1535 -0.2393
  243MOL0     O33432   1.887   2.110   7.056 -0.4144 -0.6315 -0.0123
  243MOL0     C33433   1.744   2.083   7.064  0.1989  0.1246  0.1217
  243MOL0     C33434   1.668   2.067   6.933  0.3207 -0.5632  0.0395
  243MOL0     C33435   1.658   2.203   6.856  0.5761  0.7554 -0.1428
  243MOL0     C33436   1.588   2.314   6.937  1.5237  0.1196 -0.1667
  243MOL0     C33437   1.550   2.432   6.853 -0.7314  0.0815 -0.1547
  243MOL0     C33438   1.463   2.531   6.924 -0.3873  0.8676  0.0141
  243MOL0     C33439   1.533   2.637   7.013 -0.8106 -0.6671 -0.0530
  243MOL0     C33440   1.471   2.780   6.992 -0.2997  0.0811 -0.6749
  243MOL0    Cl33441   1.286   2.757   7.011 -0.7325  0.5269  0.5159
  243MOL0     C33442   2.097   2.125   7.162  1.2733 -0.2300 -0.4062
  243MOL0     C33443   2.176   2.128   7.280  0.2164 -0.4634 -1.0155
  243MOL0     O33444   2.117   2.346   7.587  0.0281  0.2959 -0.5623
  243MOL0     C33445   2.367   2.119   7.725 -0.0211 -0.2599 -0.3762
  243MOL0     C33446   2.450   2.097   7.837  1.0017 -0.2661 -0.1811
  243MOL0     N33447   3.200   2.216   7.913 -0.6258 -0.2196 -0.7366
  243MOL0     N33448   3.318   2.205   7.964 -0.5471  0.8892 -0.1391
  243MOL0     C33449   4.154   2.772   7.939 -0.4143 -0.1210  0.4283
  243MOL0     C33450   4.205   2.879   7.866  0.0961  0.3198 -0.0731
  243MOL0     C33451   4.524   3.122   7.608  0.1450  0.0698 -0.2424
  243MOL0     C33452   4.443   3.237   7.637 -0.0259  0.1280 -1.0949
  243MOL0     C33453   4.469   3.355   7.570  1.1267 -0.3826  1.0821
  243MOL0     C33454   4.578   3.381   7.483  0.5655 -0.6865  0.5563
  243MOL0     O33455   4.589   3.506   7.426 -0.7301  0.1417  0.1859
  243MOL0     C33456   4.702   3.541   7.335 -0.1659  0.3273 -0.1910
  243MOL0     C33457   4.830   3.554   7.418  0.6592  0.6171  0.3519
  243MOL0     C33458   4.886   3.698   7.403 -0.6072 -1.3996 -0.3025
  243MOL0     C33459   5.006   3.751   7.496 -0.2228 -0.0985  0.3044
  243MOL0     C33460   5.135   3.674   7.484 -0.3367 -0.3105 -0.1722
  243MOL0     C33461   5.245   3.614   7.477 -0.8279  0.6182  0.7425
  243MOL0     C33462   4.656   3.267   7.464  0.0153  0.0909  0.5909
  243MOL0     C33463   4.625   3.139   7.511 -0.3462  0.4497 -0.5468
  243MOL0     C33464   4.717   3.028   7.469 -0.1359  0.0906 -0.4511
  243MOL0     H33465   4.533   2.838   7.887 -1.0639  3.1180  1.1177
  243MOL0     H33466   4.462   2.617   8.000  0.1713  0.4085  1.0603
  243MOL0     H33467   4.338   2.436   7.991  0.3494  1.4833  0.9901
  243MOL0     H33468   4.204   2.434   7.881  2.6981  0.0652 -0.1467
  243MOL0     H33469   4.211   2.239   8.036  2.8671  2.2185 -0.2863
  243MOL0     H33470   4.151   2.350   8.167 -4.5277  1.5227  0.0206
  243MOL0     H33471   4.008   2.330   7.903 -1.1522 -2.3354 -1.2627
  243MOL0     H33472   3.979   2.211   8.021 -0.6372  0.6181 -3.8574
  243MOL0     H33473   3.926   2.362   8.197 -0.8312 -2.0908 -0.3057
  243MOL0     H33474   3.920   2.507   8.098  1.5261 -0.4455  1.5992
  243MOL0     H33475   3.747   2.259   8.067  0.2728  0.0429 -2.7077
  243MOL0     H33476   3.751   2.405   7.961 -0.3835 -0.4965 -0.3727
  243MOL0     H33477   3.651   2.400   8.262  1.9139  7.1611  3.4686
  243MOL0     H33478   3.682   2.544   8.163 -1.5517  0.3891  0.9703
  243MOL0     H33479   3.491   2.447   8.013 -1.9866  1.2744  0.9646
  243MOL0     H33480   3.447   2.505   8.181  3.0250  2.6661 -0.7088
  243MOL0     H33481   3.520   2.219   8.135  0.8026  1.3227  0.7444
  243MOL0     H33482   3.422   2.296   8.265  1.0942  0.4415 -0.0761
  243MOL0     H33483   3.159   2.369   8.203 -2.9073  2.1089 -1.6395
  243MOL0     H33484   2.972   2.374   7.886 -2.2908  2.0914  1.1806
  243MOL0     H33485   2.965   2.416   8.053 -3.8126  0.8164 -1.3623
  243MOL0     H33486   2.907   2.131   7.928 -0.6885  0.4902 -1.3473
  243MOL0     H33487   2.902   2.179   8.104  0.3771 -1.9181 -0.4682
  243MOL0     H33488   2.717   2.341   8.015  0.6337  0.1778 -0.3389
  243MOL0     H33489   2.744   2.228   7.869 -0.9387 -1.1698  0.5320
  243MOL0     H33490   2.675   2.039   7.987  1.7828 -1.6232  2.3648
  243MOL0     H33491   2.706   2.112   8.139  0.2798  1.1765 -0.9136
  243MOL0     H33492   2.323   2.318   8.058  0.1899  2.6541 -0.2741
  243MOL0     H33493   2.043   2.361   7.825  0.1476 -0.4461  0.0598
  243MOL0     H33494   2.166   2.495   7.817 -1.3307  0.3141 -1.1414
  243MOL0     H33495   2.132   2.410   7.976  1.4048 -2.7169  0.3450
  243MOL0     H33496   1.928   2.161   7.507 -1.8363 -3.5603 -1.4113
  243MOL0     H33497   1.789   2.158   7.316  1.0044  1.7954  1.2650
  243MOL0     H33498   1.728   1.994   7.126  2.4696  0.3840  1.1630
  243MOL0     H33499   1.701   2.159   7.129  2.7189  1.0058  0.8598
  243MOL0     H33500   1.711   1.994   6.864  1.7047 -2.0305  2.3404
  243MOL0     H33501   1.565   2.035   6.951  0.1291 -1.2690 -2.0570
  243MOL0     H33502   1.606   2.180   6.763  2.7133 -3.8137 -0.4402
  243MOL0     H33503   1.755   2.237   6.820  0.0829  0.4520 -1.8417
  243MOL0     H33504   1.645   2.353   7.022  1.8232 -0.6872  0.0181
  243MOL0     H33505   1.500   2.274   6.989  1.3116 -1.2172 -1.4873
  243MOL0     H33506   1.641   2.477   6.816  1.0720 -1.6143  1.8826
  243MOL0     H33507   1.489   2.405   6.766  0.0638 -0.2413 -0.6204
  243MOL0     H33508   1.398   2.476   6.992 -0.6134  2.1318  0.8613
  243MOL0     H33509   1.403   2.582   6.848 -1.6760 -0.2705  0.2277
  243MOL0     H33510   1.639   2.648   6.988 -1.3180  2.5067 -1.4023
  243MOL0     H33511   1.519   2.622   7.120  2.0314  4.0708  1.3088
  243MOL0     H33512   1.488   2.815   6.890 -0.1897 -1.9878 -1.4250
  243MOL0     H33513   1.521   2.853   7.056  0.6083 -0.0193 -1.2443
  243MOL0     H33514   2.134   2.117   7.060  0.7962 -0.7220 -0.5428
  243MOL0     H33515   2.282   2.106   7.278  0.4600 -0.3127  2.9261
  243MOL0     H33516   2.395   2.066   7.635  0.1659 -0.4637 -0.2001
  243MOL0     H33517   2.539   2.034   7.842  1.1944  0.0111 -0.0959
  243MOL0     H33518   4.051   2.756   7.968 -0.4161  0.4895  0.7918
  243MOL0     H33519   4.144   2.965   7.839 -1.1879 -0.8595 -1.0519
  243MOL0     H33520   4.353   3.229   7.696  1.7100  1.2512  1.9091
  243MOL0     H33521   4.396   3.434   7.583  0.5355 -0.7302  0.0282
  243MOL0     H33522   4.721   3.464   7.259  0.7232 -0.0624  0.4050
  243MOL0     H33523   4.688   3.639   7.289  0.9199  2.7224  4.0342
  243MOL0     H33524   4.901   3.473   7.395  1.3755 -0.2381  4.5877
  243MOL0     H33525   4.800   3.535   7.522 -3.0011 -2.2905 -1.0216
  243MOL0     H33526   4.922   3.706   7.300  0.6742  1.7358  0.2577
  243MOL0     H33527   4.801   3.762   7.430 -0.8154 -2.6321  2.2693
  243MOL0     H33528   4.968   3.744   7.598  0.4837 -2.3541  0.4607
  243MOL0     H33529   5.027   3.853   7.463 -2.2071  0.7760  1.5008
  243MOL0     H33530   5.330   3.550   7.470  0.3458  1.8852  2.4446
  243MOL0     H33531   4.740   3.285   7.397 -1.0445  1.3800 -0.4464
  243MOL0     H33532   4.779   3.055   7.382  2.4392 -1.9525  0.5875
  243MOL0     H33533   4.791   3.010   7.547  2.2026  2.3924 -1.9435
  243MOL0     H33534   4.672   2.931   7.443  0.3100 -0.5141  0.9221
  244MOL0     O33535   7.953   2.223   2.998  1.1144  0.6948 -0.1161
  244MOL0     C33536   8.018   2.238   3.100  0.4679  0.1291 -0.0285
  244MOL0     O33537   7.963   2.283   3.212  0.2311  0.5940  0.0296
  244MOL0     C33538   7.826   2.303   3.223 -0.5737  0.0930  0.1035
  244MOL0     C33539   7.751   2.226   3.307 -0.2617 -0.2526 -0.5806
  244MOL0     C33540   7.610   2.243   3.327 -0.2648 -0.5115 -0.4653
  244MOL0     C33541   7.545   2.342   3.259 -0.5125 -0.1397  0.2419
  244MOL0     O33542   7.408   2.351   3.273  0.5422 -0.2404  0.1770
  244MOL0     C33543   7.331   2.460   3.219  0.2486 -1.4057  0.3363
  244MOL0     C33544   7.191   2.449   3.280  0.6616 -0.1815  0.3450
  244MOL0     C33545   7.096   2.572   3.238  0.1724  1.7583 -0.3866
  244MOL0     C33546   6.958   2.552   3.307  0.2866  0.2832 -0.5349
  244MOL0     C33547   6.869   2.676   3.294  0.3791 -0.1020 -0.6873
  244MOL0     C33548   6.906   2.781   3.401  0.0176  0.2094 -0.3807
  244MOL0     C33549   6.838   2.917   3.388  0.8417  0.4568  0.6296
  244MOL0     C33550   6.899   2.990   3.278  0.8475 -0.1405  0.4679
  244MOL0     N33551   6.857   3.131   3.310 -0.4620  0.3934 -0.3829
  244MOL0     C33552   6.946   3.233   3.323 -0.2027 -0.6896 -0.4856
  244MOL0     C33553   6.866   3.345   3.309 -0.5281  0.5438 -0.4340
  244MOL0     C33554   6.901   3.497   3.306 -0.8839  0.4428 -0.1733
  244MOL0     C33555   6.854   3.582   3.182  0.1360  0.3664 -0.9038
  244MOL0     C33556   6.900   3.730   3.182 -0.1327  0.0825 -0.0513
  244MOL0     C33557   6.831   3.808   3.292  0.4024  0.6539  0.0897
  244MOL0     O33558   6.691   3.780   3.281 -0.5421  1.0282  0.4270
  244MOL0     C33559   6.619   3.792   3.392 -0.3639  0.4366 -0.3452
  244MOL0     C33560   6.666   3.789   3.520  0.2880 -0.9997 -0.6550
  244MOL0     C33561   6.600   3.828   3.633  0.5520  0.4850 -0.4332
  244MOL0     C33562   6.676   3.836   3.759  0.6910 -0.6888  0.2536
  244MOL0     C33563   6.466   3.854   3.617 -0.4289 -1.1013  0.0410
  244MOL0     C33564   6.371   3.907   3.723  0.5471  0.1156  0.5151
  244MOL0     O33565   6.246   3.880   3.690 -0.1799  0.2065 -0.5167
  244MOL0     C33566   6.141   3.943   3.763  0.4349  0.5237 -0.6842
  244MOL0     C33567   6.114   3.893   3.890 -0.5811 -0.5061  0.0601
  244MOL0     C33568   6.012   3.944   3.968 -0.9217 -0.5809 -0.0155
  244MOL0     C33569   5.934   4.054   3.921  0.3526  0.3746  0.6745
  244MOL0     O33570   5.831   4.104   4.002 -0.7786 -0.4551  0.2722
  244MOL0     C33571   5.806   4.249   3.990 -0.1159 -0.3184  0.1390
  244MOL0     C33572   5.674   4.266   3.908 -0.5007 -0.5017  0.4067
  244MOL0     C33573   5.556   4.198   3.972 -0.1571 -0.6333  0.7322
  244MOL0     C33574   5.515   4.280   4.096 -0.1846 -0.1696  1.1347
  244MOL0     C33575   5.358   4.269   4.108 -1.0903  0.3504 -0.0207
  244MOL0     C33576   5.316   4.127   4.148  0.4742 -0.0564 -0.6032
  244MOL0     C33577   5.159   4.113   4.174  0.0616  0.0394 -0.5375
  244MOL0     C33578   5.104   4.156   4.313  0.1071  0.6287 -0.0666
  244MOL0    Cl33579   5.160   4.056   4.454  0.4482  0.2900 -0.0556
  244MOL0     C33580   5.956   4.096   3.793  0.2463 -0.2060  0.5112
  244MOL0     C33581   6.061   4.042   3.707 -0.3748 -0.4312 -0.1343
  244MOL0     O33582   6.408   3.952   3.827  0.1621  0.2952  0.9246
  244MOL0     C33583   6.415   3.861   3.486 -0.1060 -0.2235 -0.4722
  244MOL0     C33584   6.491   3.840   3.372  0.7139  0.5226 -0.0464
  244MOL0     N33585   6.735   3.312   3.276  0.1200  0.0649  1.1373
  244MOL0     N33586   6.734   3.180   3.279  0.4784 -0.6054  0.5305
  244MOL0     C33587   7.624   2.430   3.183 -0.0756 -0.9597 -0.1699
  244MOL0     C33588   7.760   2.412   3.163  0.5010  0.3545  0.0547
  244MOL0     C33589   8.157   2.189   3.110  0.4337  0.1063  0.5992
  244MOL0     C33590   8.217   2.164   3.234 -0.3917  0.2093 -0.2008
  244MOL0     C33591   8.330   2.084   3.246  0.3951  0.0897 -0.5289
  244MOL0     C33592   8.418   2.058   3.137  0.4189 -0.2934 -0.1285
  244MOL0     O33593   8.539   2.000   3.157  0.0141  0.3895 -0.7367
  244MOL0     C33594   8.663   2.074   3.129 -0.2413 -0.5920 -0.0584
  244MOL0     C33595   8.766   1.991   3.069  0.4488 -0.2982  0.2019
  244MOL0     C33596   8.895   2.067   3.039  0.6812 -0.3613  0.0283
  244MOL0     C33597   8.939   2.047   2.889 -0.0670  0.1559 -0.6478
  244MOL0     C33598   8.843   2.106   2.795  0.3485 -0.4860 -0.1867
  244MOL0     C33599   8.762   2.166   2.708  0.5272 -0.3506  0.1016
  244MOL0     C33600   8.375   2.098   3.015  0.2602  0.4787  0.2844
  244MOL0     C33601   8.242   2.151   2.997 -0.3987  0.1567  0.5820
  244MOL0     C33602   8.204   2.182   2.854 -0.0025 -0.0809 -0.4712
  244MOL0     H33603   7.801   2.149   3.364  0.9303  0.8992 -0.0225
  244MOL0     H33604   7.539   2.186   3.386  1.2895 -0.4926  1.4938
  244MOL0     H33605   7.331   2.459   3.109 -2.2944  2.8160  0.0591
  244MOL0     H33606   7.367   2.556   3.257 -0.5105 -2.5414  4.3710
  244MOL0     H33607   7.138   2.357   3.254 -1.5641  1.3883 -1.0536
  244MOL0     H33608   7.208   2.459   3.388  1.3948  3.1566  0.0073
  244MOL0     H33609   7.145   2.662   3.277  0.9480  1.7565 -1.3259
  244MOL0     H33610   7.090   2.585   3.130 -2.2465 -1.5019 -0.8038
  244MOL0     H33611   6.910   2.473   3.249 -0.2324  1.3538 -1.6090
  244MOL0     H33612   6.973   2.512   3.407 -0.2204 -4.8688 -2.2302
  244MOL0     H33613   6.770   2.637   3.320  1.9286 -3.0800  1.2731
  244MOL0     H33614   6.869   2.726   3.197  2.5897  5.0784  1.5729
  244MOL0     H33615   6.868   2.753   3.500  2.8979  3.2709  1.8080
  244MOL0     H33616   7.012   2.795   3.421 -0.5052  0.5470  2.6566
  244MOL0     H33617   6.860   2.976   3.478 -0.2620  1.0880  0.5110
  244MOL0     H33618   6.730   2.899   3.382  0.7812 -1.5918  4.7276
  244MOL0     H33619   7.007   2.975   3.270  0.6338 -1.3184 -0.4017
  244MOL0     H33620   6.849   2.968   3.184 -1.5330 -0.1408  1.6575
  244MOL0     H33621   7.054   3.220   3.327 -0.4586 -2.9145  1.3844
  244MOL0     H33622   7.010   3.502   3.305 -0.9092  1.2813 -1.7612
  244MOL0     H33623   6.868   3.531   3.405  0.6246 -0.6924  0.7674
  244MOL0     H33624   6.903   3.547   3.091  0.5829 -1.8114  0.1251
  244MOL0     H33625   6.746   3.576   3.166 -0.5749  0.5263  2.9213
  244MOL0     H33626   7.008   3.738   3.199 -0.2806 -2.4839  3.0688
  244MOL0     H33627   6.883   3.787   3.090 -1.0454  0.4708  0.3582
  244MOL0     H33628   6.886   3.782   3.383  1.8939  1.6921 -0.4662
  244MOL0     H33629   6.842   3.917   3.282  3.5163  0.3891 -0.2165
  244MOL0     H33630   6.768   3.757   3.537  0.4453  0.1393  0.7491
  244MOL0     H33631   6.769   3.779   3.756 -1.7140 -5.1423  1.5782
  244MOL0     H33632   6.603   3.784   3.821 -2.3199 -0.6304 -2.9148
  244MOL0     H33633   6.678   3.939   3.796 -2.3082 -0.0267 -1.0988
  244MOL0     H33634   6.176   3.822   3.945  0.4253 -0.0263 -0.4341
  244MOL0     H33635   5.987   3.912   4.068  2.1807  3.2994  2.2988
  244MOL0     H33636   5.785   4.296   4.086  0.8460 -0.8195  0.6118
  244MOL0     H33637   5.900   4.287   3.948  0.4853  0.3008  1.9729
  244MOL0     H33638   5.657   4.371   3.881  0.6428 -1.2316 -3.7907
  244MOL0     H33639   5.697   4.214   3.815  0.5972 -0.5519  0.6830
  244MOL0     H33640   5.575   4.099   4.015  1.8960 -1.4002 -1.7029
  244MOL0     H33641   5.472   4.195   3.901 -1.1523 -1.3634  1.8932
  244MOL0     H33642   5.533   4.386   4.075  2.3703 -1.2897 -3.7009
  244MOL0     H33643   5.570   4.249   4.186  0.6632 -1.9622  0.0529
  244MOL0     H33644   5.315   4.331   4.186 -4.0602 -1.9790  0.3725
  244MOL0     H33645   5.315   4.298   4.012  1.3922  4.4396 -0.1410
  244MOL0     H33646   5.359   4.093   4.242  0.8858 -3.7399 -1.9705
  244MOL0     H33647   5.334   4.061   4.063 -1.6269 -1.1445 -0.2813
  244MOL0     H33648   5.123   4.010   4.165 -1.5445  0.6887 -2.1236
  244MOL0     H33649   5.103   4.160   4.093  1.8040  0.9130 -1.2850
  244MOL0     H33650   4.994   4.163   4.314 -0.1774 -2.3333  1.0987
  244MOL0     H33651   5.143   4.257   4.328  1.2433  0.0182  1.2385
  244MOL0     H33652   5.895   4.179   3.759 -0.9104 -0.8675  0.9015
  244MOL0     H33653   6.096   4.078   3.611  1.9294  0.4712  0.9613
  244MOL0     H33654   6.311   3.882   3.462 -0.7847  0.8396  2.9071
  244MOL0     H33655   6.440   3.841   3.276 -1.0541  2.8773  0.8133
  244MOL0     H33656   7.597   2.525   3.137  2.1051 -0.8568 -1.3472
  244MOL0     H33657   7.816   2.484   3.103  1.3586 -0.5942 -0.3085
  244MOL0     H33658   8.169   2.193   3.327 -0.9643 -1.3633  0.0279
  244MOL0     H33659   8.358   2.067   3.350 -0.2399 -0.4123 -0.4408
  244MOL0     H33660   8.645   2.159   3.062  0.0151 -0.3364  0.1935
  244MOL0     H33661   8.706   2.124   3.217  0.8871  0.1109 -0.9725
  244MOL0     H33662   8.715   1.961   2.977  1.8110  1.8011 -1.3452
  244MOL0     H33663   8.785   1.902   3.129  0.8298 -2.4960 -2.9042
  244MOL0     H33664   8.892   2.172   3.068 -0.7370 -0.3323 -0.1894
  244MOL0     H33665   8.975   2.029   3.104 -0.6045  1.4043  2.8117
  244MOL0     H33666   8.960   1.941   2.870  3.9091  0.6149  0.3290
  244MOL0     H33667   9.035   2.099   2.882 -1.5604  3.2930  0.4222
  244MOL0     H33668   8.689   2.219   2.650  1.9379  2.9867  1.1331
  244MOL0     H33669   8.448   2.093   2.935 -1.5415 -3.0151 -1.3353
  244MOL0     H33670   8.287   2.185   2.782  0.8270  1.9225  0.4726
  244MOL0     H33671   8.131   2.115   2.809  0.8523  0.2343 -2.4254
  244MOL0     H33672   8.159   2.282   2.849 -1.0183 -0.5851 -2.9331
  245MOL0     O33673   6.104   8.994  10.954  0.6998 -0.5737  0.3512
  245MOL0     C33674   6.063   9.089  10.893  1.0215  0.2182 -0.1658
  245MOL0     O33675   5.958   9.161  10.934  0.4028  0.1167  0.7382
  245MOL0     C33676   5.892   9.141  11.061 -0.0042 -0.3764 -0.3183
  245MOL0     C33677   5.946   9.079  11.176  0.2771 -0.4529 -0.0785
  245MOL0     C33678   5.880   9.079  11.294  0.1201 -1.1128 -0.1018
  245MOL0     C33679   5.744   9.122  11.300  0.4376 -0.1253  0.3090
  245MOL0     O33680   5.676   9.114  11.427 -0.0202  0.1159 -0.0886
  245MOL0     C33681   5.540   9.126  11.440  0.5278  0.4029  0.0872
  245MOL0     C33682   5.503   9.279  11.447  0.1447  0.0674 -0.6154
  245MOL0     C33683   5.578   9.347  11.568 -0.3517 -0.2909 -0.1795
  245MOL0     C33684   5.512   9.477  11.623  0.0218  0.3805  0.0562
  245MOL0     C33685   5.521   9.492  11.772  0.9236 -0.1633 -0.6097
  245MOL0     C33686   5.653   9.529  11.823  0.0060 -0.0573  0.1191
  245MOL0     C33687   5.667   9.546  11.968  0.3387 -0.4365 -1.3732
  245MOL0     C33688   5.687   9.413  12.041  0.5492  0.8946 -0.2936
  245MOL0     N33689   5.572   9.332  12.059 -1.0301  0.1992 -0.6421
  245MOL0     C33690   5.562   9.213  11.986 -1.2748  0.8112 -0.5840
  245MOL0     C33691   5.480   9.128  12.055  0.6798 -0.0931 -0.3631
  245MOL0     C33692   5.442   8.986  12.012 -0.0238 -0.1638  0.0019
  245MOL0     C33693   5.547   8.915  11.913 -0.3011 -0.4428 -0.9855
  245MOL0     C33694   5.536   8.768  11.911 -0.1556  0.0920 -0.7749
  245MOL0     C33695   5.620   8.688  11.814 -0.2382  0.3890  0.7442
  245MOL0     O33696   5.591   8.740  11.685  0.1937  0.1656 -0.3995
  245MOL0     C33697   5.665   8.703  11.577  0.3024  0.0432  0.0987
  245MOL0     C33698   5.625   8.758  11.455 -0.8990 -0.0729 -0.3929
  245MOL0     C33699   5.694   8.715  11.337  0.0933 -0.5678 -0.4308
  245MOL0     C33700   5.630   8.765  11.213  0.4238  0.3330 -0.0614
  245MOL0     C33701   5.812   8.637  11.345  0.1001 -0.8520 -0.6857
  245MOL0     C33702   5.887   8.600  11.234  0.1260  0.7419  0.1873
  245MOL0     O33703   6.025   8.598  11.231 -0.3382 -0.4020 -0.2713
  245MOL0     C33704   6.082   8.567  11.117  0.2043 -0.1403  0.0740
  245MOL0     C33705   6.147   8.674  11.060  0.1962  0.5845 -0.5055
  245MOL0     C33706   6.198   8.657  10.936 -0.7968 -0.2917 -0.0193
  245MOL0     C33707   6.186   8.546  10.864  0.1009  0.8370  0.2179
  245MOL0     O33708   6.221   8.548  10.733  0.1707  0.1337 -0.2101
  245MOL0     C33709   6.241   8.435  10.653 -0.2910 -0.3280 -0.5737
  245MOL0     C33710   6.340   8.471  10.545  0.1006 -0.6345 -0.0978
  245MOL0     C33711   6.297   8.602  10.473  0.8842  0.2346 -0.5350
  245MOL0     C33712   6.173   8.575  10.384 -0.0643  0.2316  0.1958
  245MOL0     C33713   6.110   8.702  10.324  0.5112  0.1149  0.3457
  245MOL0     C33714   5.956   8.677  10.292 -0.2760 -0.0255 -0.4016
  245MOL0     C33715   5.910   8.802  10.216  0.5023 -0.0713 -0.2419
  245MOL0     C33716   5.768   8.783  10.175 -0.0270  0.1826 -0.0918
  245MOL0    Cl33717   5.635   8.813  10.287 -0.1728 -0.0369 -0.2897
  245MOL0     C33718   6.122   8.434  10.925 -0.2431 -0.2448 -0.2762
  245MOL0     C33719   6.082   8.443  11.059  0.0891 -0.0995 -0.0833
  245MOL0     O33720   5.813   8.561  11.140 -0.6216  0.2352 -1.0266
  245MOL0     C33721   5.858   8.598  11.470 -0.0003  0.0603 -0.2195
  245MOL0     C33722   5.780   8.621  11.585  0.0361 -0.6649  0.7768
  245MOL0     N33723   5.429   9.206  12.159  0.6788  0.3516 -0.2792
  245MOL0     N33724   5.487   9.328  12.167  0.1473  0.8058  0.3977
  245MOL0     C33725   5.686   9.162  11.183 -1.0783  0.6497 -0.2874
  245MOL0     C33726   5.757   9.170  11.060 -0.0816 -0.2407  0.0590
  245MOL0     C33727   6.127   9.138  10.761 -0.2058  0.1142  0.6084
  245MOL0     C33728   6.075   9.243  10.695  0.5509 -0.1243 -0.1219
  245MOL0     C33729   6.131   9.298  10.571  0.7653  0.3689 -0.5439
  245MOL0     C33730   6.232   9.226  10.515 -0.1738 -0.2091 -0.5677
  245MOL0     O33731   6.281   9.267  10.401 -0.0760 -0.0538 -0.7892
  245MOL0     C33732   6.285   9.164  10.301 -0.2536  0.6757  0.7324
  245MOL0     C33733   6.201   9.186  10.179 -0.7225  0.7516 -0.0203
  245MOL0     C33734   6.057   9.194  10.200 -0.5878 -0.6450 -0.9206
  245MOL0     C33735   5.982   9.169  10.068 -0.7076 -0.0066 -0.5350
  245MOL0     C33736   5.856   9.235  10.076  0.5443  0.8203 -0.3618
  245MOL0     C33737   5.749   9.289  10.083 -0.8555 -0.4931 -0.0879
  245MOL0     C33738   6.289   9.114  10.574  0.2808 -0.8970 -0.7256
  245MOL0     C33739   6.240   9.072  10.704  0.9606 -0.3729 -0.1777
  245MOL0     C33740   6.317   8.959  10.760  0.1783  0.4993  0.0283
  245MOL0     H33741   6.043   9.032  11.173  0.2390 -0.5030 -1.1086
  245MOL0     H33742   5.940   9.052  11.381 -0.6891  1.4199  1.3595
  245MOL0     H33743   5.512   9.075  11.532 -1.0175  2.1271  0.6313
  245MOL0     H33744   5.480   9.067  11.371 -0.6617 -0.0042  1.4151
  245MOL0     H33745   5.506   9.330  11.350 -0.9622 -1.5522 -1.5441
  245MOL0     H33746   5.395   9.274  11.466  0.4697 -0.4503  1.2667
  245MOL0     H33747   5.577   9.271  11.648  1.5204  0.4331  0.6001
  245MOL0     H33748   5.683   9.372  11.550  0.0443 -1.9986 -0.4102
  245MOL0     H33749   5.536   9.567  11.565  1.5352 -1.6446 -2.7166
  245MOL0     H33750   5.404   9.476  11.603  0.2629  0.0187 -1.3370
  245MOL0     H33751   5.484   9.398  11.816  1.5457 -0.5962 -0.9988
  245MOL0     H33752   5.457   9.576  11.801  1.7923  0.4936 -0.5879
  245MOL0     H33753   5.735   9.460  11.800  0.1485 -0.5052  1.8366
  245MOL0     H33754   5.676   9.616  11.761  1.2426 -1.6597 -1.8058
  245MOL0     H33755   5.586   9.602  12.014  3.8384  2.0899  2.4543
  245MOL0     H33756   5.762   9.596  11.990  1.5500 -3.5784  1.5295
  245MOL0     H33757   5.769   9.363  11.989  1.9870  1.0709  1.6672
  245MOL0     H33758   5.718   9.433  12.144 -1.6777 -1.9110  1.0841
  245MOL0     H33759   5.611   9.197  11.891 -2.7977  3.9216 -2.0535
  245MOL0     H33760   5.347   8.991  11.958 -0.1459  2.1611  0.3260
  245MOL0     H33761   5.432   8.928  12.104 -1.1193  2.8650  1.9540
  245MOL0     H33762   5.525   8.950  11.812 -2.4597 -2.8207 -1.4223
  245MOL0     H33763   5.647   8.957  11.930 -0.6829  1.9785 -3.8086
  245MOL0     H33764   5.567   8.740  12.012  1.2524 -0.2862 -1.2797
  245MOL0     H33765   5.432   8.755  11.880 -0.7220  1.1737  0.6010
  245MOL0     H33766   5.726   8.704  11.835  0.3772 -3.9481  1.9944
  245MOL0     H33767   5.614   8.579  11.824 -2.2110  0.4748  0.9086
  245MOL0     H33768   5.531   8.812  11.458 -0.5946  0.5698 -1.6931
  245MOL0     H33769   5.712   8.802  11.150 -0.2294  2.4803  0.2831
  245MOL0     H33770   5.555   8.845  11.217 -1.8299 -1.6706  0.0003
  245MOL0     H33771   5.573   8.679  11.174  1.1260 -0.5817  0.8933
  245MOL0     H33772   6.155   8.773  11.103 -2.6811  0.4140  0.6382
  245MOL0     H33773   6.248   8.740  10.887  0.2194 -0.6963  0.3140
  245MOL0     H33774   6.285   8.358  10.716 -3.3330  0.2907  2.6475
  245MOL0     H33775   6.149   8.396  10.609 -0.9787 -0.0000  0.5236
  245MOL0     H33776   6.439   8.480  10.589 -0.3005 -1.9279  1.1389
  245MOL0     H33777   6.350   8.382  10.484 -0.7348  0.0139 -1.2222
  245MOL0     H33778   6.372   8.638  10.402 -1.2473  1.2799 -2.3852
  245MOL0     H33779   6.272   8.675  10.550 -0.4907 -2.3332  1.6290
  245MOL0     H33780   6.092   8.523  10.436 -0.4525 -0.2631 -0.8660
  245MOL0     H33781   6.197   8.506  10.303 -1.8799  1.8971 -1.8710
  245MOL0     H33782   6.122   8.780  10.400  0.0358 -1.4000  2.0435
  245MOL0     H33783   6.173   8.723  10.237 -0.2259  2.0521  0.2236
  245MOL0     H33784   5.899   8.655  10.382  2.8843 -0.7768  1.5836
  245MOL0     H33785   5.961   8.598  10.217  1.4501  1.9658 -2.5459
  245MOL0     H33786   5.968   8.807  10.123  0.6913 -3.0109 -0.3864
  245MOL0     H33787   5.914   8.896  10.272  0.6785 -0.8092  1.0230
  245MOL0     H33788   5.760   8.681  10.136  2.6762 -1.6710  3.5766
  245MOL0     H33789   5.751   8.853  10.093  0.8182  1.9530  1.1560
  245MOL0     H33790   6.100   8.341  10.873 -1.3441  0.1235 -0.4971
  245MOL0     H33791   6.028   8.362  11.108 -0.4214  0.8505  0.9992
  245MOL0     H33792   5.953   8.546  11.473 -0.4329 -0.7918 -0.7555
  245MOL0     H33793   5.823   8.574  11.673  1.5612  0.6815  0.7937
  245MOL0     H33794   5.583   9.197  11.176 -0.9325  1.0118 -0.6846
  245MOL0     H33795   5.699   9.197  10.972 -1.0216 -0.9407  0.4498
  245MOL0     H33796   5.982   9.286  10.732 -0.5298 -4.3197  2.6496
  245MOL0     H33797   6.086   9.381  10.519 -1.7309 -0.4223  0.2114
  245MOL0     H33798   6.391   9.148  10.278 -0.2045  1.6520  0.2100
  245MOL0     H33799   6.255   9.066  10.338  2.8602  0.3434  2.7561
  245MOL0     H33800   6.217   9.106  10.107  0.3761 -1.1572  2.2063
  245MOL0     H33801   6.240   9.271  10.123  3.4696 -0.9931 -0.1275
  245MOL0     H33802   6.040   9.121  10.280  4.3365 -2.2205 -0.9396
  245MOL0     H33803   6.029   9.293  10.236  0.3610 -0.1863 -1.4294
  245MOL0     H33804   5.971   9.061  10.049  0.2806 -0.1148 -0.5364
  245MOL0     H33805   6.048   9.201   9.987  0.9739  0.7227  1.0533
  245MOL0     H33806   5.655   9.336  10.104 -0.2660 -0.1357  2.0322
  245MOL0     H33807   6.381   9.067  10.543 -0.4158 -3.4198  0.7860
  245MOL0     H33808   6.282   8.863  10.719  1.0067 -0.2135  0.9408
  245MOL0     H33809   6.421   8.978  10.731 -0.5568  1.5947 -2.1044
  245MOL0     H33810   6.305   8.945  10.868 -1.2057 -2.3033 -0.3742
  246MOL0     O33811   9.485   0.876   8.975  0.0937  0.2518  0.2550
  246MOL0     C33812   9.439   0.830   9.076 -0.7251  0.1857 -0.2481
  246MOL0     O33813   9.477   0.852   9.203 -0.2269  0.2431  0.1569
  246MOL0     C33814   9.554   0.966   9.234 -0.3389  0.1108  0.2715
  246MOL0     C33815   9.523   1.098   9.194 -0.1283  0.5889  0.0351
  246MOL0     C33816   9.608   1.205   9.215  0.8361 -0.0874  0.1355
  246MOL0     C33817   9.727   1.183   9.283 -0.3234 -0.6075  0.1131
  246MOL0     O33818   9.815   1.292   9.300  0.1158  0.9374  0.1604
  246MOL0     C33819   9.887   1.305   9.423 -0.0485 -0.5745 -0.6357
  246MOL0     C33820  10.035   1.278   9.415 -0.3886  0.1439 -0.0976
  246MOL0     C33821  10.094   1.342   9.539 -0.4789 -0.4445 -0.2037
  246MOL0     C33822  10.245   1.319   9.541  0.1168 -0.2993 -0.1780
  246MOL0     C33823  10.305   1.340   9.680  0.5073  0.4046  0.0248
  246MOL0     C33824  10.460   1.335   9.674  0.3248  1.2084 -0.0916
  246MOL0     C33825  10.506   1.466   9.604 -0.4985  1.2180 -0.8494
  246MOL0     C33826  10.655   1.495   9.635 -0.0168 -1.1119 -0.3990
  246MOL0     N33827  10.746   1.394   9.575 -0.2449  0.2064 -0.7223
  246MOL0     C33828  10.782   1.386   9.447 -0.6920 -0.8416 -0.0040
  246MOL0     C33829  10.876   1.290   9.449  0.0365 -0.7188  0.3544
  246MOL0     C33830  10.962   1.238   9.335  0.2049 -0.2365 -0.3495
  246MOL0     C33831  10.963   1.088   9.340  0.1951 -0.6957  0.4229
  246MOL0     C33832  11.023   1.020   9.222 -0.1898 -1.0373 -0.0076
  246MOL0     C33833  10.968   0.869   9.220  0.0041 -0.4224 -0.3981
  246MOL0     O33834  10.821   0.867   9.212  0.4984 -0.0706 -0.1555
  246MOL0     C33835  10.749   0.781   9.297 -0.2825 -0.6079  0.0779
  246MOL0     C33836  10.639   0.720   9.237 -0.9342  1.2768  0.6339
  246MOL0     C33837  10.562   0.615   9.290  0.7785 -0.3206 -0.5172
  246MOL0     C33838  10.437   0.556   9.217  0.3668 -0.6626 -0.1840
  246MOL0     C33839  10.593   0.599   9.432 -0.5929 -0.3092  0.9825
  246MOL0     C33840  10.527   0.494   9.507  0.5019  1.0462 -0.4751
  246MOL0     O33841  10.487   0.390   9.439 -1.1516  1.0491  0.0118
  246MOL0     C33842  10.397   0.304   9.507 -0.2558 -0.3754  0.2270
  246MOL0     C33843  10.271   0.336   9.522 -0.2748 -0.7531 -0.9137
  246MOL0     C33844  10.186   0.251   9.583  0.9757  1.1335 -0.8590
  246MOL0     C33845  10.218   0.116   9.624 -0.0284 -0.7793 -0.2873
  246MOL0     O33846  10.119   0.045   9.677  0.7902 -0.2198  0.8730
  246MOL0     C33847  10.115  -0.097   9.686  0.2027  0.3989  0.0096
  246MOL0     C33848   9.973  -0.140   9.733 -0.5502  0.2814  1.4560
  246MOL0     C33849   9.859  -0.119   9.630 -0.3456 -0.7463  0.3209
  246MOL0     C33850   9.713  -0.096   9.686 -0.5733 -0.2708 -0.1730
  246MOL0     C33851   9.604  -0.118   9.579 -0.3688 -0.3578  0.6274
  246MOL0     C33852   9.467  -0.101   9.640 -0.1989 -0.0053  0.8527
  246MOL0     C33853   9.357  -0.108   9.524 -0.8167  0.0904 -0.5128
  246MOL0     C33854   9.353   0.023   9.451 -0.2914 -0.0014  0.8505
  246MOL0    Cl33855   9.237   0.138   9.546  0.0228 -0.1849  0.3143
  246MOL0     C33856  10.350   0.075   9.595 -0.2972  0.9595 -0.7018
  246MOL0     C33857  10.433   0.171   9.532 -0.0859 -0.3925 -0.8039
  246MOL0     O33858  10.501   0.508   9.627  0.0673  0.1253 -0.2638
  246MOL0     C33859  10.687   0.680   9.510 -0.3249  0.2280  1.2482
  246MOL0     C33860  10.764   0.768   9.437 -0.3587 -1.0598  1.1765
  246MOL0     N33861  10.886   1.237   9.578  0.0860 -0.7206  0.1321
  246MOL0     N33862  10.814   1.302   9.652 -0.1210 -0.2473 -0.2774
  246MOL0     C33863   9.756   1.054   9.333  0.7481  0.4696  1.1202
  246MOL0     C33864   9.668   0.946   9.308 -0.1101  0.0898 -0.2391
  246MOL0     C33865   9.299   0.778   9.060  0.6641  0.0012  0.0277
  246MOL0     C33866   9.203   0.804   9.162 -0.1123  0.3529  0.6407
  246MOL0     C33867   9.066   0.778   9.150  0.4435 -0.8407 -0.1413
  246MOL0     C33868   9.017   0.735   9.024  0.1985 -0.5690  1.1659
  246MOL0     O33869   8.881   0.717   8.984 -0.4621 -0.2725  0.5770
  246MOL0     C33870   8.781   0.768   9.067  0.1794 -0.3570 -0.7846
  246MOL0     C33871   8.645   0.775   8.999 -0.3869  0.3276 -0.2468
  246MOL0     C33872   8.536   0.836   9.092 -1.0338 -0.0862 -1.0680
  246MOL0     C33873   8.408   0.845   9.020  0.4135  0.5210 -0.0200
  246MOL0     C33874   8.304   0.915   9.095  1.2174 -0.2583 -0.1719
  246MOL0     C33875   8.234   0.979   9.178  0.0904  0.2224  0.5476
  246MOL0     C33876   9.109   0.715   8.915  0.4716 -0.8781 -0.4437
  246MOL0     C33877   9.246   0.727   8.935 -0.8225 -0.2426 -0.4120
  246MOL0     C33878   9.345   0.703   8.820  0.8351 -0.2021  0.3446
  246MOL0     H33879   9.435   1.100   9.131  0.6666  1.0310 -1.0825
  246MOL0     H33880   9.561   1.293   9.173 -1.4439 -1.1195  0.4199
  246MOL0     H33881   9.862   1.240   9.508  2.9217  1.6025  2.1400
  246MOL0     H33882   9.880   1.409   9.456  0.8319 -0.0058 -2.1694
  246MOL0     H33883  10.053   1.170   9.408  2.9702  0.6463 -1.2171
  246MOL0     H33884  10.089   1.320   9.330 -0.6169 -1.7856 -1.2669
  246MOL0     H33885  10.084   1.451   9.540 -1.5690 -0.5301  0.0377
  246MOL0     H33886  10.046   1.289   9.622  0.0993  0.3653  0.6692
  246MOL0     H33887  10.271   1.223   9.494  1.0143  0.1597 -0.6619
  246MOL0     H33888  10.290   1.401   9.484 -0.3418  0.7217  0.9022
  246MOL0     H33889  10.266   1.257   9.739 -0.6633 -0.3587 -1.7339
  246MOL0     H33890  10.272   1.434   9.725 -2.6593 -1.5910  2.2609
  246MOL0     H33891  10.497   1.336   9.777 -1.1425  1.1405  0.4641
  246MOL0     H33892  10.500   1.246   9.625  3.0012  1.4356  1.5201
  246MOL0     H33893  10.442   1.549   9.635  0.3914  1.5083  0.3171
  246MOL0     H33894  10.496   1.462   9.496  1.2882 -0.6261 -1.0013
  246MOL0     H33895  10.688   1.596   9.608  3.2407 -2.1488 -0.6894
  246MOL0     H33896  10.665   1.491   9.744  0.0502  1.1238 -0.2715
  246MOL0     H33897  10.757   1.449   9.362  0.9665 -0.0372  0.0657
  246MOL0     H33898  11.061   1.285   9.332 -0.2969  0.8201 -3.0390
  246MOL0     H33899  10.918   1.270   9.241 -0.0166  1.8612  0.4156
  246MOL0     H33900  11.022   1.057   9.427  1.7997  1.9550  0.3915
  246MOL0     H33901  10.859   1.057   9.349  0.2111 -2.1027 -2.7989
  246MOL0     H33902  10.991   1.079   9.136 -2.4105  1.9298  2.6144
  246MOL0     H33903  11.131   1.019   9.209  0.2139  0.9162  2.3837
  246MOL0     H33904  11.026   0.815   9.144  0.5416  1.7971 -1.6582
  246MOL0     H33905  10.989   0.831   9.321 -1.4177 -1.1086 -0.3372
  246MOL0     H33906  10.626   0.731   9.130  1.7204 -3.3953 -0.4757
  246MOL0     H33907  10.398   0.628   9.144  4.2822 -0.4768 -2.3580
  246MOL0     H33908  10.361   0.525   9.289  0.3907  1.9120  1.0552
  246MOL0     H33909  10.457   0.467   9.157 -0.6765  0.6769 -2.6623
  246MOL0     H33910  10.240   0.435   9.490  0.5441  0.4561  1.7252
  246MOL0     H33911  10.080   0.263   9.602  1.2689  0.0055  1.9330
  246MOL0     H33912  10.135  -0.127   9.583 -2.5384 -0.9009 -0.2445
  246MOL0     H33913  10.187  -0.124   9.763 -3.9559  1.7122  4.9027
  246MOL0     H33914   9.985  -0.243   9.766  0.9986 -0.2462 -0.5493
  246MOL0     H33915   9.953  -0.086   9.826 -2.0317  0.5242  1.0294
  246MOL0     H33916   9.861  -0.206   9.563 -0.5081  0.5496 -1.4397
  246MOL0     H33917   9.883  -0.027   9.577 -3.0630 -0.3917 -0.4163
  246MOL0     H33918   9.704   0.009   9.714 -3.1881 -0.5120  0.1228
  246MOL0     H33919   9.698  -0.167   9.767  1.7597 -0.2699  0.3363
  246MOL0     H33920   9.615  -0.038   9.506  1.7243  0.1788  1.4502
  246MOL0     H33921   9.605  -0.215   9.529 -0.8551  0.2112 -0.5278
  246MOL0     H33922   9.454  -0.002   9.686 -1.1892 -0.5820  1.8776
  246MOL0     H33923   9.446  -0.183   9.709 -2.1650  1.0140  1.5686
  246MOL0     H33924   9.254  -0.122   9.559 -0.9758  2.8860  0.3353
  246MOL0     H33925   9.375  -0.190   9.454 -4.4505 -0.3022 -1.1849
  246MOL0     H33926   9.317   0.016   9.348  2.1091 -1.1159 -0.0079
  246MOL0     H33927   9.449   0.076   9.448 -1.0258  1.3343  0.3978
  246MOL0     H33928  10.401  -0.018   9.617 -0.6564  0.7704 -0.6559
  246MOL0     H33929  10.537   0.150   9.509  0.2907  2.4448 -2.1435
  246MOL0     H33930  10.694   0.685   9.618  1.2133  0.1952  1.1728
  246MOL0     H33931  10.823   0.844   9.488 -0.6881  0.1487 -0.1695
  246MOL0     H33932   9.839   1.044   9.401  0.5089 -0.7799  1.2514
  246MOL0     H33933   9.667   0.851   9.359  1.2198  0.1510 -0.0693
  246MOL0     H33934   9.232   0.859   9.251 -0.9581  2.5245 -0.3585
  246MOL0     H33935   9.006   0.808   9.235  3.8143  4.8544  0.7731
  246MOL0     H33936   8.767   0.701   9.152  1.2445 -3.6892 -3.0322
  246MOL0     H33937   8.816   0.861   9.113  0.1767 -1.3507  1.3146
  246MOL0     H33938   8.617   0.687   8.939 -0.5853  0.9712 -1.1243
  246MOL0     H33939   8.655   0.853   8.923  1.2563  0.2277 -0.1652
  246MOL0     H33940   8.528   0.777   9.185  1.8800 -0.1794 -0.7794
  246MOL0     H33941   8.579   0.935   9.107  1.1512 -0.8862 -1.6243
  246MOL0     H33942   8.367   0.755   8.973 -0.7082  1.4423 -0.8653
  246MOL0     H33943   8.429   0.910   8.935  0.3817  2.0674  1.1151
  246MOL0     H33944   8.177   1.048   9.238 -0.2127 -0.8880  1.5810
  246MOL0     H33945   9.052   0.688   8.826 -1.8169  0.1066  0.6472
  246MOL0     H33946   9.434   0.650   8.854  1.7603 -0.4535 -2.2710
  246MOL0     H33947   9.305   0.635   8.744  3.3244 -0.1770 -1.0954
  246MOL0     H33948   9.374   0.792   8.765 -1.1177  1.1645  1.3884
  247MOL0     O33949   9.209  10.838   3.789 -0.0236 -0.0683  0.3727
  247MOL0     C33950   9.089  10.830   3.798  0.2900  0.0712  0.0112
  247MOL0     O33951   8.998  10.930   3.786  0.1009  0.1190  0.0218
  247MOL0     C33952   9.017  11.067   3.789 -0.4753 -0.4719 -1.4306
  247MOL0     C33953   9.143  11.126   3.817  0.3289  0.1073  0.0447
  247MOL0     C33954   9.158  11.262   3.832 -0.0196 -0.2204 -0.3319
  247MOL0     C33955   9.045  11.346   3.795 -0.4824 -0.4620  0.2034
  247MOL0     O33956   9.050  11.479   3.764  0.7482  0.0877  0.5180
  247MOL0     C33957   9.177  11.543   3.739  0.1924 -0.0030  0.4632
  247MOL0     C33958   9.171  11.690   3.716  0.8517 -0.7389 -1.0236
  247MOL0     C33959   9.270  11.740   3.612 -0.6216 -0.5653  0.7686
  247MOL0     C33960   9.421  11.698   3.631 -0.5690  0.4182  0.4302
  247MOL0     C33961   9.520  11.809   3.585 -0.2343  0.2094 -0.6111
  247MOL0     C33962   9.532  11.825   3.432 -0.9223 -0.0945  0.6198
  247MOL0     C33963   9.638  11.934   3.379 -0.8224  0.0394  0.2999
  247MOL0     C33964   9.657  11.937   3.224  1.1056  1.3173  0.0559
  247MOL0     N33965   9.780  12.011   3.186  0.0867 -0.4866  0.6186
  247MOL0     C33966   9.902  11.971   3.241  0.4063 -0.4736 -0.4536
  247MOL0     C33967   9.983  12.077   3.196 -0.1587 -0.1089 -0.7766
  247MOL0     C33968  10.124  12.081   3.224  0.0426 -0.1579 -0.1264
  247MOL0     C33969  10.199  11.997   3.128  0.4748  1.1077 -0.2637
  247MOL0     C33970  10.352  12.016   3.143 -0.3750 -0.7804 -0.4169
  247MOL0     C33971  10.394  11.976   3.291  0.2429  0.0695  0.2573
  247MOL0     O33972  10.540  11.988   3.305  0.6603 -0.1153  0.5183
  247MOL0     C33973  10.613  11.929   3.401  0.0454 -0.3889  0.1347
  247MOL0     C33974  10.697  11.818   3.374 -0.6182 -0.2313  0.5299
  247MOL0     C33975  10.798  11.779   3.460  0.2064  0.6545  0.1157
  247MOL0     C33976  10.881  11.651   3.411 -0.7515 -0.5202  0.6711
  247MOL0     C33977  10.825  11.850   3.582  0.4142 -0.8248  0.1216
  247MOL0     C33978  10.930  11.817   3.678 -0.8158  0.4006 -0.0092
  247MOL0     O33979  11.030  11.725   3.642  0.0365 -0.1387  1.6269
  247MOL0     C33980  11.123  11.694   3.742  0.1372  0.5024 -0.0458
  247MOL0     C33981  11.221  11.788   3.766 -0.6994 -1.1213 -0.4808
  247MOL0     C33982  11.323  11.765   3.852 -0.0154 -0.2227  0.1415
  247MOL0     C33983  11.330  11.649   3.929 -1.0269  0.4869 -0.7382
  247MOL0     O33984  11.435  11.644   4.026  0.0643  0.6395 -0.0921
  247MOL0     C33985  11.459  11.524   4.095  0.0398 -0.5975 -0.8458
  247MOL0     C33986  11.586  11.526   4.169 -0.6519  0.3100 -0.5840
  247MOL0     C33987  11.584  11.474   4.313 -0.2078  0.0294  0.2319
  247MOL0     C33988  11.717  11.510   4.388  0.0105  0.4470  0.1458
  247MOL0     C33989  11.731  11.460   4.532  1.3356 -0.5274 -0.2988
  247MOL0     C33990  11.619  11.496   4.630 -0.0765  0.1817 -0.6495
  247MOL0     C33991  11.663  11.484   4.776 -0.8522 -0.4521  1.3323
  247MOL0     C33992  11.551  11.527   4.873  0.2465 -0.4300 -0.3466
  247MOL0    Cl33993  11.616  11.492   5.041  0.0587  0.4985  0.5352
  247MOL0     C33994  11.236  11.549   3.899  0.2243 -0.0420  0.1995
  247MOL0     C33995  11.130  11.575   3.810 -0.1931  0.0264 -0.4664
  247MOL0     O33996  10.929  11.881   3.783  0.1585 -0.1199  0.6167
  247MOL0     C33997  10.741  11.959   3.608  1.0315  0.4178  0.0971
  247MOL0     C33998  10.640  12.003   3.519  0.0019 -0.0196 -0.2182
  247MOL0     N33999   9.901  12.180   3.145 -0.1686  0.0776  0.0800
  247MOL0     N34000   9.780  12.145   3.147 -0.4587  0.0403  0.3655
  247MOL0     C34001   8.920  11.286   3.777 -0.1044 -0.9513 -0.4568
  247MOL0     C34002   8.906  11.151   3.779  0.1022  0.4915 -1.1041
  247MOL0     C34003   9.038  10.693   3.802  0.1057 -0.2494  1.0248
  247MOL0     C34004   8.939  10.675   3.706  0.7504  0.0586  0.2439
  247MOL0     C34005   8.868  10.552   3.689 -0.3832 -0.7604  0.4798
  247MOL0     C34006   8.919  10.439   3.753 -1.0350 -0.0415  0.3141
  247MOL0     O34007   8.848  10.319   3.742 -0.0041  0.5858 -0.0063
  247MOL0     C34008   8.876  10.208   3.825 -0.4678  0.2561 -0.2886
  247MOL0     C34009   8.802  10.089   3.751 -0.2678  0.5733 -1.1986
  247MOL0     C34010   8.809   9.967   3.839 -0.9510 -0.4697  0.1429
  247MOL0     C34011   8.780   9.838   3.756 -1.1142  0.1570 -0.0629
  247MOL0     C34012   8.895   9.817   3.669 -0.0082 -0.3336 -0.0600
  247MOL0     C34013   8.989   9.798   3.596  0.2523 -0.3112  0.4713
  247MOL0     C34014   9.028  10.454   3.834  0.0474 -0.4891 -0.0829
  247MOL0     C34015   9.091  10.575   3.864 -0.0614 -0.8854  1.4060
  247MOL0     C34016   9.197  10.583   3.962 -0.5323  1.1998 -0.4158
  247MOL0     H34017   9.233  11.065   3.812  1.4564  1.7761 -0.5679
  247MOL0     H34018   9.252  11.312   3.852 -0.0100  0.7349 -2.5251
  247MOL0     H34019   9.220  11.504   3.646 -1.1319  1.1255 -0.6648
  247MOL0     H34020   9.248  11.516   3.818  0.3303  0.0784  0.3681
  247MOL0     H34021   9.071  11.722   3.688  0.7538  1.0097  1.0908
  247MOL0     H34022   9.185  11.739   3.813  1.0768 -0.9339 -0.9560
  247MOL0     H34023   9.231  11.706   3.516 -2.5592  0.5557  1.0913
  247MOL0     H34024   9.267  11.849   3.609  1.1531 -0.5059  0.3849
  247MOL0     H34025   9.439  11.680   3.738  0.0965  1.5503  0.5303
  247MOL0     H34026   9.442  11.607   3.574  1.9760  0.5179  1.0674
  247MOL0     H34027   9.619  11.794   3.629 -0.8329 -1.2823  0.3480
  247MOL0     H34028   9.485  11.902   3.631 -3.5247 -0.2218 -1.9803
  247MOL0     H34029   9.573  11.728   3.400 -0.0156  0.5443 -0.2325
  247MOL0     H34030   9.435  11.832   3.382 -1.0070 -0.1343  0.7765
  247MOL0     H34031   9.736  11.918   3.424 -0.9533  0.4001  0.7140
  247MOL0     H34032   9.611  12.037   3.402  0.9136  0.2889  1.3694
  247MOL0     H34033   9.667  11.832   3.197  1.4912  1.2707  0.3711
  247MOL0     H34034   9.563  11.976   3.184  0.9075 -0.6004 -1.4545
  247MOL0     H34035   9.933  11.877   3.284  0.2803 -0.6781 -0.8114
  247MOL0     H34036  10.137  12.050   3.328  2.0593  1.2994  0.1174
  247MOL0     H34037  10.161  12.183   3.208  2.0213 -0.3656  2.4942
  247MOL0     H34038  10.172  11.891   3.130  0.7549  1.0344 -0.3429
  247MOL0     H34039  10.170  12.028   3.027  1.7501  0.8398 -0.7351
  247MOL0     H34040  10.407  11.951   3.075 -1.6085  1.0670 -3.3469
  247MOL0     H34041  10.372  12.121   3.121 -0.0499 -0.9965 -1.1738
  247MOL0     H34042  10.351  12.044   3.365  1.9099  0.5171  0.8445
  247MOL0     H34043  10.358  11.873   3.300  0.3109 -0.1535 -1.5508
  247MOL0     H34044  10.674  11.764   3.283  1.1122  0.4154 -0.3474
  247MOL0     H34045  10.967  11.674   3.348 -2.7716 -0.7294 -2.3614
  247MOL0     H34046  10.816  11.590   3.348  0.6963  1.0030 -2.5167
  247MOL0     H34047  10.914  11.596   3.500 -0.0536 -0.2279  0.5995
  247MOL0     H34048  11.213  11.885   3.719 -1.5413  0.4922  2.7081
  247MOL0     H34049  11.404  11.837   3.861 -0.6962  0.5311  0.3434
  247MOL0     H34050  11.382  11.497   4.167  1.6598 -0.4554  1.0389
  247MOL0     H34051  11.468  11.444   4.021 -0.5190 -1.7025  0.2352
  247MOL0     H34052  11.655  11.458   4.119 -1.5481  1.1401 -3.1257
  247MOL0     H34053  11.625  11.628   4.163  0.1030  0.0153 -0.8314
  247MOL0     H34054  11.560  11.368   4.304 -2.4350  0.5644 -0.8633
  247MOL0     H34055  11.503  11.523   4.368  1.6938  2.6616  0.9174
  247MOL0     H34056  11.711  11.620   4.387 -0.7201  0.4283  1.1238
  247MOL0     H34057  11.812  11.479   4.345 -0.1013  0.8684 -0.4242
  247MOL0     H34058  11.743  11.351   4.532 -0.5674 -0.7875 -1.9737
  247MOL0     H34059  11.824  11.499   4.575  0.9500 -0.8086  0.8258
  247MOL0     H34060  11.530  11.437   4.605 -0.8914  2.2961 -3.1118
  247MOL0     H34061  11.581  11.598   4.621 -1.6888 -0.4948 -1.8795
  247MOL0     H34062  11.750  11.550   4.777 -0.9475 -0.3022  0.5486
  247MOL0     H34063  11.695  11.384   4.805 -1.2591 -0.5910  1.3150
  247MOL0     H34064  11.462  11.467   4.854  0.7054 -0.5403 -2.3225
  247MOL0     H34065  11.529  11.634   4.868  0.9635 -0.1374  1.5973
  247MOL0     H34066  11.229  11.452   3.946  0.9212  0.2198  0.8776
  247MOL0     H34067  11.057  11.498   3.789  1.7169 -1.3866 -2.4504
  247MOL0     H34068  10.747  12.007   3.705  1.0921  3.3146 -1.2421
  247MOL0     H34069  10.581  12.088   3.552  1.2120 -0.0171  2.1436
  247MOL0     H34070   8.839  11.358   3.783 -0.7236 -1.7177  0.7866
  247MOL0     H34071   8.815  11.093   3.777 -0.9452  1.7860  1.9933
  247MOL0     H34072   8.889  10.755   3.652 -0.4550 -0.8124  0.0374
  247MOL0     H34073   8.794  10.543   3.610  0.2834  1.0875 -0.4327
  247MOL0     H34074   8.983  10.186   3.831 -0.5943 -0.0530  1.1298
  247MOL0     H34075   8.840  10.219   3.927 -2.1250 -0.2881 -0.7737
  247MOL0     H34076   8.861  10.072   3.660  0.0815 -4.8975 -0.2732
  247MOL0     H34077   8.697  10.108   3.729 -1.4753 -1.1765  2.3899
  247MOL0     H34078   8.909   9.956   3.882 -0.6708 -0.9721 -0.6075
  247MOL0     H34079   8.731   9.982   3.914 -0.5392 -0.4620  0.5772
  247MOL0     H34080   8.696   9.870   3.693 -0.9336  0.6504 -0.0573
  247MOL0     H34081   8.755   9.749   3.815 -0.9706  0.2309  0.1064
  247MOL0     H34082   9.079   9.779   3.541 -1.0381 -2.6211 -0.9930
  247MOL0     H34083   9.063  10.367   3.889 -0.1313 -1.4725 -1.4946
  247MOL0     H34084   9.293  10.626   3.931  0.5233  0.2900  1.3884
  247MOL0     H34085   9.168  10.648   4.045 -1.2165 -1.6537  1.7642
  247MOL0     H34086   9.213  10.481   3.998 -1.4400  1.7181  1.6004
  248MOL0     O34087  11.217   8.104   3.607 -0.0742  0.8263  0.1377
  248MOL0     C34088  11.124   8.051   3.550  0.1406 -0.9997  0.1152
  248MOL0     O34089  11.040   8.110   3.455  0.1559 -0.1168  0.6282
  248MOL0     C34090  11.032   8.246   3.440  0.4392 -0.2801  0.8144
  248MOL0     C34091  11.042   8.343   3.540 -0.2498  0.2393 -0.3543
  248MOL0     C34092  11.013   8.480   3.516  0.3374 -0.2135  0.6757
  248MOL0     C34093  10.955   8.517   3.394 -0.0097  0.6083  0.0667
  248MOL0     O34094  10.915   8.648   3.391 -0.4551 -0.3892 -0.1756
  248MOL0     C34095  10.872   8.705   3.267  0.0607 -0.0093 -0.3455
  248MOL0     C34096  10.782   8.822   3.274 -0.1789  0.9994 -0.3635
  248MOL0     C34097  10.646   8.777   3.338 -0.0649 -0.8484  0.6224
  248MOL0     C34098  10.547   8.894   3.321  0.2766 -0.5837 -0.5277
  248MOL0     C34099  10.403   8.843   3.361  0.3178 -0.7287 -0.7315
  248MOL0     C34100  10.344   8.729   3.275  0.1879 -0.4108 -0.4381
  248MOL0     C34101  10.250   8.644   3.362 -0.0647  0.1840  0.1136
  248MOL0     C34102  10.307   8.561   3.473 -0.2639 -0.2706 -0.1071
  248MOL0     N34103  10.205   8.533   3.575  0.3773  0.2533 -0.1571
  248MOL0     C34104  10.208   8.572   3.710  0.0694 -0.5923 -0.2915
  248MOL0     C34105  10.095   8.512   3.761 -0.8391 -0.9187  0.0031
  248MOL0     C34106  10.057   8.534   3.901  0.8972  0.3789 -0.5566
  248MOL0     C34107  10.164   8.553   4.023 -0.2136 -0.4556  0.4765
  248MOL0     C34108  10.094   8.564   4.161  1.5769  0.4257 -0.6557
  248MOL0     C34109  10.201   8.594   4.267  1.0722  0.3617  0.2954
  248MOL0     O34110  10.253   8.468   4.301  0.5694  0.0782  0.3138
  248MOL0     C34111  10.338   8.469   4.405  0.4926 -0.0462 -0.0262
  248MOL0     C34112  10.371   8.346   4.449 -0.3119  0.4876 -0.2145
  248MOL0     C34113  10.446   8.308   4.566 -0.2241  0.0520  0.0192
  248MOL0     C34114  10.504   8.162   4.564 -0.1633 -0.2747 -0.9731
  248MOL0     C34115  10.485   8.414   4.652 -0.1891 -0.3752 -0.7560
  248MOL0     C34116  10.570   8.396   4.778  0.7431 -0.4380  0.6397
  248MOL0     O34117  10.566   8.280   4.849 -0.1197 -0.4349 -0.4569
  248MOL0     C34118  10.689   8.239   4.895  0.1361 -0.1038 -0.2606
  248MOL0     C34119  10.724   8.267   5.025  0.0879  0.2255 -1.0913
  248MOL0     C34120  10.853   8.232   5.068 -0.6319  0.3955 -0.5646
  248MOL0     C34121  10.954   8.184   4.984  0.6335 -0.4585  0.0811
  248MOL0     O34122  11.088   8.182   5.032 -0.0062  0.1833  0.5550
  248MOL0     C34123  11.161   8.053   5.006 -0.0301 -0.2124 -0.0249
  248MOL0     C34124  11.277   8.044   5.105 -0.3716 -0.6163 -0.1293
  248MOL0     C34125  11.416   8.121   5.076 -0.5451 -0.6367 -0.1134
  248MOL0     C34126  11.525   8.096   5.184 -1.3118  0.1694 -0.0759
  248MOL0     C34127  11.657   8.157   5.136 -0.8049 -0.2207 -0.2800
  248MOL0     C34128  11.763   8.142   5.247 -0.1607  0.2080  0.3001
  248MOL0     C34129  11.899   8.196   5.210 -0.4767 -0.3698  0.2858
  248MOL0     C34130  11.995   8.204   5.329  0.1016  0.3288 -0.1713
  248MOL0    Cl34131  11.932   8.253   5.486  0.3754 -0.2613 -0.1489
  248MOL0     C34132  10.919   8.148   4.853 -0.3102  0.0380  0.1031
  248MOL0     C34133  10.787   8.176   4.813 -0.2153 -0.0244 -0.1708
  248MOL0     O34134  10.627   8.499   4.811  0.0322 -0.4937  0.3927
  248MOL0     C34135  10.452   8.549   4.600 -0.6877  0.6874 -0.0378
  248MOL0     C34136  10.381   8.577   4.483  0.5371  0.4139  0.0763
  248MOL0     N34137  10.025   8.442   3.665 -0.5156 -0.1856  0.0347
  248MOL0     N34138  10.099   8.454   3.557 -0.1501 -0.6562  0.3840
  248MOL0     C34139  10.943   8.428   3.293  0.2649  0.7259 -0.4584
  248MOL0     C34140  10.969   8.292   3.315 -0.5347 -0.1710 -0.7795
  248MOL0     C34141  11.110   7.908   3.585  0.6503  0.8764 -0.3093
  248MOL0     C34142  11.195   7.857   3.695  0.1988  0.6623 -0.5348
  248MOL0     C34143  11.183   7.725   3.737 -0.2697  0.1451 -0.0482
  248MOL0     C34144  11.106   7.629   3.665 -0.1912 -0.0831 -0.2749
  248MOL0     O34145  11.106   7.495   3.703 -0.2950  0.4784 -0.3056
  248MOL0     C34146  11.022   7.394   3.654 -0.1577  0.9972 -0.7807
  248MOL0     C34147  11.063   7.264   3.723  0.5287 -0.3144  0.0897
  248MOL0     C34148  11.086   7.251   3.874 -0.6894  0.2417  0.1118
  248MOL0     C34149  10.990   7.330   3.968 -0.0464  0.7721  0.0242
  248MOL0     C34150  11.064   7.353   4.090  0.1811  0.0330 -0.8588
  248MOL0     C34151  11.141   7.395   4.178  0.6205  0.0992 -0.4839
  248MOL0     C34152  11.024   7.684   3.571 -0.1816 -0.3631 -0.1508
  248MOL0     C34153  11.027   7.814   3.522  0.3293 -0.0463  0.3326
  248MOL0     C34154  10.940   7.852   3.415  0.0417  0.2595 -0.8353
  248MOL0     H34155  11.091   8.304   3.629 -2.1531 -0.6619  0.3382
  248MOL0     H34156  11.024   8.540   3.606 -1.3274 -0.1048  0.8255
  248MOL0     H34157  10.803   8.639   3.213 -0.0042  0.4856 -0.8766
  248MOL0     H34158  10.965   8.731   3.215  1.1938  0.9849  2.0302
  248MOL0     H34159  10.823   8.902   3.337 -1.8567  2.6913 -1.3132
  248MOL0     H34160  10.778   8.852   3.170  4.3673  2.1427 -0.3773
  248MOL0     H34161  10.605   8.702   3.271  1.7819 -0.7143 -0.7143
  248MOL0     H34162  10.661   8.751   3.443  2.3429  0.5067  0.6957
  248MOL0     H34163  10.567   8.974   3.392  1.4080  0.1147 -1.5973
  248MOL0     H34164  10.561   8.938   3.222  0.6649  0.1343 -0.1604
  248MOL0     H34165  10.329   8.923   3.362  1.9100  0.8781  2.1962
  248MOL0     H34166  10.411   8.809   3.465 -0.7241 -1.4500 -0.8718
  248MOL0     H34167  10.292   8.784   3.196  3.3060  1.0277 -1.6580
  248MOL0     H34168  10.420   8.660   3.236  2.3157 -0.1507  2.9253
  248MOL0     H34169  10.189   8.581   3.296 -0.4556  0.1875  0.4586
  248MOL0     H34170  10.178   8.713   3.407 -0.3087  0.6676 -1.0035
  248MOL0     H34171  10.354   8.466   3.445  2.6781 -0.0431  3.3062
  248MOL0     H34172  10.379   8.614   3.536 -1.3604  0.9958  0.1188
  248MOL0     H34173  10.281   8.639   3.752 -0.2747  0.5535 -1.4660
  248MOL0     H34174  10.005   8.442   3.931 -0.0846  1.2252  0.4014
  248MOL0     H34175   9.988   8.619   3.904  1.3213  0.7216  2.4260
  248MOL0     H34176  10.242   8.476   4.021  1.5915  1.3069  0.5788
  248MOL0     H34177  10.216   8.644   3.994 -0.2067 -0.4910  0.3796
  248MOL0     H34178  10.017   8.641   4.156  0.9858  0.1953  2.7111
  248MOL0     H34179  10.042   8.474   4.195 -1.0024  1.9560 -0.2822
  248MOL0     H34180  10.290   8.650   4.237 -0.0280  1.8018 -0.3647
  248MOL0     H34181  10.161   8.651   4.351  1.2740 -0.1703  0.7584
  248MOL0     H34182  10.342   8.269   4.377  0.1612 -0.5541  0.6830
  248MOL0     H34183  10.544   8.126   4.468  1.1252 -0.7497 -0.2725
  248MOL0     H34184  10.417   8.102   4.593 -1.9932  2.3923 -0.6563
  248MOL0     H34185  10.578   8.155   4.644 -2.1168 -0.7496  0.8860
  248MOL0     H34186  10.644   8.299   5.090 -1.3852 -1.9832 -1.7013
  248MOL0     H34187  10.873   8.257   5.172 -0.8313 -1.3196 -0.0714
  248MOL0     H34188  11.095   7.966   5.002 -1.5269  0.8869 -0.0581
  248MOL0     H34189  11.199   8.050   4.903 -0.9895  0.3688 -0.4135
  248MOL0     H34190  11.238   8.067   5.204 -0.1182 -0.0030 -0.1705
  248MOL0     H34191  11.308   7.939   5.109  0.2006 -0.4549 -0.2594
  248MOL0     H34192  11.389   8.227   5.084 -0.5289 -0.7114  1.1732
  248MOL0     H34193  11.457   8.097   4.978 -0.3658 -1.4971  0.1614
  248MOL0     H34194  11.552   7.990   5.197  0.4823  0.1095 -3.3044
  248MOL0     H34195  11.478   8.136   5.274 -3.4700  4.4593 -2.7708
  248MOL0     H34196  11.697   8.109   5.046  2.3055 -0.9267  1.3224
  248MOL0     H34197  11.658   8.261   5.103 -1.3694 -0.8084 -2.3319
  248MOL0     H34198  11.778   8.039   5.282  1.6944  0.4048  0.1992
  248MOL0     H34199  11.724   8.193   5.336 -1.2539 -0.0559 -0.0203
  248MOL0     H34200  11.887   8.294   5.165  0.1544 -0.8620 -1.0116
  248MOL0     H34201  11.956   8.130   5.144  0.4316  0.9396 -0.2646
  248MOL0     H34202  12.085   8.264   5.309  0.0969  0.8585  1.2254
  248MOL0     H34203  12.033   8.103   5.348  0.8159  0.5714 -0.2556
  248MOL0     H34204  10.990   8.113   4.778  0.6720  0.6705  0.7284
  248MOL0     H34205  10.759   8.160   4.709 -2.7291  0.7727  0.3234
  248MOL0     H34206  10.499   8.625   4.662  1.9829 -1.4250  0.7161
  248MOL0     H34207  10.345   8.676   4.458  0.2922  0.1970 -0.4491
  248MOL0     H34208  10.898   8.462   3.200 -1.3521  2.7862  0.9938
  248MOL0     H34209  10.960   8.224   3.231 -0.0147  0.5498 -1.4372
  248MOL0     H34210  11.268   7.916   3.749 -0.2674 -1.1582  2.3159
  248MOL0     H34211  11.238   7.686   3.822  0.3189  0.0966 -0.4462
  248MOL0     H34212  10.921   7.424   3.684 -0.2899 -0.4009  0.2577
  248MOL0     H34213  11.033   7.388   3.545  0.2543 -1.5336 -0.6616
  248MOL0     H34214  11.153   7.230   3.671 -1.0116 -0.5178 -2.6418
  248MOL0     H34215  10.984   7.192   3.700 -2.2367  2.8199 -1.0597
  248MOL0     H34216  11.109   7.154   3.917 -0.7221 -0.0545 -0.5259
  248MOL0     H34217  11.188   7.288   3.887 -0.7217  0.8714 -1.2764
  248MOL0     H34218  10.898   7.273   3.989 -1.5191  3.2248  0.6547
  248MOL0     H34219  10.945   7.419   3.923 -0.0795  0.2256 -1.0548
  248MOL0     H34220  11.201   7.435   4.257  2.3543 -2.0883 -0.6303
  248MOL0     H34221  10.954   7.616   3.523 -1.4688 -1.1100  2.5643
  248MOL0     H34222  10.873   7.933   3.445  4.4190  3.7727  0.4565
  248MOL0     H34223  10.997   7.885   3.328  1.3558  0.1242 -0.0452
  248MOL0     H34224  10.876   7.771   3.376  0.8607 -0.3928 -0.8663
  249MOL0     O34225  10.098   4.191   5.278 -0.3473  0.3944 -0.1729
  249MOL0     C34226  10.020   4.130   5.353  0.6984 -0.1881  0.3038
  249MOL0     O34227   9.879   4.124   5.341  0.1661 -0.1195 -0.9881
  249MOL0     C34228   9.814   4.138   5.224 -0.1474  0.1812 -0.4227
  249MOL0     C34229   9.726   4.243   5.205 -0.2378  0.0240 -0.1341
  249MOL0     C34230   9.666   4.252   5.079  0.3087  0.4992  1.0341
  249MOL0     C34231   9.694   4.162   4.975  0.4108  0.2083  0.1525
  249MOL0     O34232   9.629   4.190   4.858  0.1051 -0.6178  0.0044
  249MOL0     C34233   9.636   4.091   4.762 -1.1097 -0.1011  0.0238
  249MOL0     C34234   9.756   4.131   4.667  0.8780  0.7137  0.2966
  249MOL0     C34235   9.749   4.243   4.563  0.2143  0.1709 -0.1059
  249MOL0     C34236   9.667   4.204   4.431  0.0589 -0.3538 -0.0831
  249MOL0     C34237   9.675   4.291   4.308  0.6612  0.5738  0.3755
  249MOL0     C34238   9.809   4.300   4.240  0.2798 -0.0884 -0.1818
  249MOL0     C34239   9.850   4.159   4.185 -1.2598  0.6830  0.0439
  249MOL0     C34240   9.754   4.090   4.095 -1.1567 -0.4795 -0.6632
  249MOL0     N34241   9.819   3.984   4.030  0.4491  0.6529 -0.2897
  249MOL0     C34242   9.822   3.854   4.073  0.6075  0.7988  1.0132
  249MOL0     C34243   9.914   3.798   3.991  0.2285 -0.1732  0.1635
  249MOL0     C34244   9.959   3.659   3.996  0.9762 -1.2321 -0.4066
  249MOL0     C34245   9.987   3.589   4.130 -0.2092  0.3947 -0.5269
  249MOL0     C34246  10.074   3.670   4.220  0.5134 -0.0265  0.4738
  249MOL0     C34247  10.100   3.596   4.350 -0.0177  0.5561 -0.0932
  249MOL0     O34248  10.033   3.657   4.457  0.6667  0.3224 -0.3155
  249MOL0     C34249  10.051   3.592   4.585  0.3300  0.4708 -0.0617
  249MOL0     C34250  10.013   3.663   4.695  0.5904  0.5640  1.4866
  249MOL0     C34251  10.038   3.620   4.827 -0.8811  0.3245  0.4884
  249MOL0     C34252  10.000   3.723   4.931  0.4192  0.5298 -0.1179
  249MOL0     C34253  10.105   3.489   4.849  0.3974 -0.2554  0.0938
  249MOL0     C34254  10.140   3.437   4.985 -0.0761  0.1912  0.6989
  249MOL0     O34255  10.219   3.319   4.990 -0.5306  0.1548  0.1674
  249MOL0     C34256  10.254   3.258   5.108 -0.4703  0.2065 -0.3820
  249MOL0     C34257  10.245   3.117   5.108 -0.0397 -1.2478 -0.0894
  249MOL0     C34258  10.261   3.051   5.225 -0.0517 -0.1587 -0.2582
  249MOL0     C34259  10.310   3.113   5.340 -0.0871  0.0174 -0.8324
  249MOL0     O34260  10.322   3.040   5.458 -0.5613 -0.7373  0.1288
  249MOL0     C34261  10.259   2.913   5.467 -0.4555 -0.2586  0.1532
  249MOL0     C34262  10.242   2.851   5.607  0.3471 -0.0455  0.0274
  249MOL0     C34263  10.374   2.838   5.683 -0.3585 -1.0452 -0.6408
  249MOL0     C34264  10.383   2.773   5.826  0.4475 -0.7231 -0.8874
  249MOL0     C34265  10.349   2.627   5.815  0.6199 -0.1435 -0.3731
  249MOL0     C34266  10.330   2.567   5.944  0.9717  0.7844  0.3545
  249MOL0     C34267  10.295   2.414   5.922 -0.4692 -0.8660  0.1955
  249MOL0     C34268  10.263   2.347   6.058 -0.1260  0.3661  0.5311
  249MOL0    Cl34269  10.238   2.172   6.030 -0.6264  0.2502 -0.0010
  249MOL0     C34270  10.336   3.250   5.342  0.1124  0.4544  0.2109
  249MOL0     C34271  10.299   3.322   5.223 -0.1216 -0.4537  0.5856
  249MOL0     O34272  10.116   3.508   5.085 -0.2424 -0.2138  0.5172
  249MOL0     C34273  10.140   3.415   4.732 -0.3447 -0.6214 -0.5035
  249MOL0     C34274  10.109   3.467   4.608  0.8977  0.0557  0.4583
  249MOL0     N34275   9.956   3.892   3.895 -0.1772  0.1566  0.2551
  249MOL0     N34276   9.884   4.001   3.912  0.7380 -0.2029 -0.4531
  249MOL0     C34277   9.785   4.061   5.001 -0.7918 -0.3941 -0.2045
  249MOL0     C34278   9.851   4.050   5.121 -0.3315 -0.6849 -0.2574
  249MOL0     C34279  10.056   4.079   5.488 -0.4426  0.4846  0.6527
  249MOL0     C34280   9.967   4.041   5.588  0.1830 -0.1296  0.3780
  249MOL0     C34281  10.002   4.005   5.712 -0.9989  0.1489  0.6722
  249MOL0     C34282  10.140   3.988   5.748  0.2161 -0.0865 -0.4229
  249MOL0     O34283  10.194   3.947   5.872 -0.3566  0.1949  0.2473
  249MOL0     C34284  10.100   3.939   5.983  0.4564  0.7856  0.7090
  249MOL0     C34285  10.034   3.796   5.986  0.2404 -0.9185 -0.0708
  249MOL0     C34286  10.135   3.687   5.936  0.0469  0.7354 -0.2210
  249MOL0     C34287  10.248   3.658   6.045  0.5746 -0.5065  0.1186
  249MOL0     C34288  10.346   3.535   6.027 -1.1258 -0.1357  0.1283
  249MOL0     C34289  10.424   3.440   6.038  0.4667 -0.6414 -1.2074
  249MOL0     C34290  10.233   4.011   5.647  0.3348  0.4205  0.8269
  249MOL0     C34291  10.199   4.047   5.512 -0.1308 -0.9452  0.1433
  249MOL0     C34292  10.316   4.068   5.415  0.7530 -0.4221 -0.4083
  249MOL0     H34293   9.716   4.311   5.288  0.7376 -2.7115  2.4009
  249MOL0     H34294   9.592   4.326   5.048  1.3815  0.9586 -0.5349
  249MOL0     H34295   9.549   4.095   4.696 -1.8343 -0.8736  0.9003
  249MOL0     H34296   9.648   3.992   4.807 -0.9102 -0.1004 -0.0260
  249MOL0     H34297   9.845   4.156   4.725 -0.5544  1.4626  2.2688
  249MOL0     H34298   9.788   4.037   4.620  2.4949  1.2441  0.2792
  249MOL0     H34299   9.707   4.335   4.604 -0.4077  1.4893 -3.3468
  249MOL0     H34300   9.851   4.249   4.525 -0.1739 -3.4911 -2.3134
  249MOL0     H34301   9.687   4.102   4.397  1.3646  0.6132 -2.4739
  249MOL0     H34302   9.560   4.206   4.453 -0.0778  0.9917 -0.7727
  249MOL0     H34303   9.648   4.390   4.345  1.0318  0.1292  1.8984
  249MOL0     H34304   9.589   4.262   4.247  0.2692 -1.2320  1.7000
  249MOL0     H34305   9.805   4.373   4.158 -0.4432  1.8138  1.4791
  249MOL0     H34306   9.895   4.321   4.305 -1.0636 -1.1579  2.0669
  249MOL0     H34307   9.859   4.090   4.269  4.8244 -1.0199 -1.5398
  249MOL0     H34308   9.944   4.161   4.130 -0.1596 -0.2820  1.7929
  249MOL0     H34309   9.673   4.056   4.159 -0.5473 -0.6212  0.0423
  249MOL0     H34310   9.713   4.170   4.033 -3.8900  2.8655  4.7340
  249MOL0     H34311   9.782   3.808   4.163  1.4511 -2.0527  0.0408
  249MOL0     H34312  10.053   3.663   3.940 -0.0662  3.4139 -2.3446
  249MOL0     H34313   9.893   3.601   3.931 -0.3462  0.2724 -0.4806
  249MOL0     H34314   9.893   3.562   4.178 -0.7275 -0.7026 -2.0819
  249MOL0     H34315  10.042   3.498   4.102  1.4219  0.8555  0.9763
  249MOL0     H34316  10.170   3.686   4.170  1.9926 -0.6692  2.9101
  249MOL0     H34317  10.038   3.769   4.252  0.6010 -0.2005  1.1267
  249MOL0     H34318  10.068   3.492   4.335 -1.1458  1.1938 -2.5720
  249MOL0     H34319  10.207   3.604   4.368  0.1466  2.9144 -1.7391
  249MOL0     H34320   9.973   3.760   4.671 -0.9323 -0.1092  1.2204
  249MOL0     H34321   9.964   3.672   5.020  1.8698 -0.9725 -0.3260
  249MOL0     H34322   9.916   3.777   4.887  2.4490  2.7676 -1.5370
  249MOL0     H34323  10.076   3.795   4.963 -0.1577 -0.0371  2.7994
  249MOL0     H34324  10.222   3.076   5.011  2.2347 -0.0669 -1.1986
  249MOL0     H34325  10.251   2.943   5.211  0.9884 -0.0770 -1.8423
  249MOL0     H34326  10.161   2.911   5.420 -0.6669  0.1071  0.5726
  249MOL0     H34327  10.314   2.838   5.408  2.8573  2.3093 -0.3644
  249MOL0     H34328  10.177   2.925   5.655 -0.1330 -0.2572 -0.2920
  249MOL0     H34329  10.179   2.762   5.613 -1.2383  1.1072  1.3106
  249MOL0     H34330  10.414   2.940   5.684 -1.5200 -0.5786 -0.6419
  249MOL0     H34331  10.445   2.782   5.620  1.2321 -0.6930  0.7613
  249MOL0     H34332  10.303   2.813   5.890 -0.5513 -0.9428 -1.9708
  249MOL0     H34333  10.484   2.790   5.866  0.5469 -3.9757  0.5834
  249MOL0     H34334  10.256   2.611   5.760  1.5635 -1.7908 -1.5769
  249MOL0     H34335  10.428   2.566   5.770  1.5860  1.6223 -1.1660
  249MOL0     H34336  10.244   2.613   5.995 -1.1124 -2.6898  0.2584
  249MOL0     H34337  10.421   2.574   6.004  0.3743 -1.4660  1.6463
  249MOL0     H34338  10.383   2.377   5.870 -0.4732  1.3848 -1.5761
  249MOL0     H34339  10.215   2.410   5.848  0.3368 -0.4244 -0.7135
  249MOL0     H34340  10.170   2.388   6.098 -1.8652 -0.2571 -2.5771
  249MOL0     H34341  10.347   2.360   6.127  0.9568  1.7948 -0.9577
  249MOL0     H34342  10.383   3.295   5.429  0.0858 -4.5709  3.1872
  249MOL0     H34343  10.322   3.428   5.223  0.0720 -0.4738  2.0373
  249MOL0     H34344  10.194   3.322   4.745 -0.3534 -0.3007  2.4264
  249MOL0     H34345  10.127   3.394   4.529  0.8118  0.2567  0.2528
  249MOL0     H34346   9.824   4.006   4.916  0.2270 -0.9773  0.6071
  249MOL0     H34347   9.924   3.971   5.128  2.0653  1.4911  0.9146
  249MOL0     H34348   9.859   4.052   5.576  0.0761 -0.8210  0.6928
  249MOL0     H34349   9.939   3.989   5.799 -0.3786  2.3170  1.6075
  249MOL0     H34350  10.150   3.943   6.079 -0.5091 -2.6912  1.5283
  249MOL0     H34351  10.024   4.017   5.987  0.2419  0.6695 -0.5479
  249MOL0     H34352   9.952   3.796   5.913 -0.6156  0.5730  0.8242
  249MOL0     H34353   9.982   3.775   6.079 -1.1187  1.3224 -0.2279
  249MOL0     H34354  10.084   3.590   5.937  1.8082 -0.2411 -0.8577
  249MOL0     H34355  10.179   3.701   5.837  0.2720 -3.2851 -0.8426
  249MOL0     H34356  10.205   3.641   6.144  1.7281 -2.5065  0.3097
  249MOL0     H34357  10.311   3.748   6.047  2.1742 -1.5642 -0.7588
  249MOL0     H34358  10.486   3.353   6.030  1.1992  0.0013 -3.0921
  249MOL0     H34359  10.335   3.998   5.682 -0.4093  1.8008  3.8618
  249MOL0     H34360  10.348   4.173   5.419  1.3562 -0.6197  2.1730
  249MOL0     H34361  10.402   4.008   5.445  0.9156  0.3269  0.7151
  249MOL0     H34362  10.289   4.030   5.316 -1.2363  1.2731 -0.5894
  250MOL0     O34363   9.196   2.534   4.448  0.1160  0.2564 -0.5151
  250MOL0     C34364   9.116   2.467   4.495  0.7180  0.3332 -1.0583
  250MOL0     O34365   9.131   2.349   4.567  0.2479 -0.9329  0.4418
  250MOL0     C34366   9.246   2.277   4.589 -0.4712 -0.5646  0.7340
  250MOL0     C34367   9.372   2.290   4.520  0.1272  0.9955 -0.2719
  250MOL0     C34368   9.490   2.228   4.576  0.4887  0.5206 -1.4836
  250MOL0     C34369   9.481   2.142   4.686  0.0921  0.4345  0.6043
  250MOL0     O34370   9.600   2.101   4.738 -0.1491 -0.9141 -0.7981
  250MOL0     C34371   9.614   1.966   4.799  0.1777 -0.3909  0.6500
  250MOL0     C34372   9.753   1.915   4.749 -0.1691 -0.7793  0.3485
  250MOL0     C34373   9.776   1.923   4.598 -0.3706  0.4704 -0.1010
  250MOL0     C34374   9.917   1.867   4.568  0.2714  0.6579  0.2185
  250MOL0     C34375  10.012   1.982   4.545  0.4151  0.2377 -0.7323
  250MOL0     C34376  10.152   1.939   4.500  0.1076  0.7974  1.1356
  250MOL0     C34377  10.244   2.060   4.488  0.1108  0.0999  0.5301
  250MOL0     C34378  10.311   2.082   4.628  0.3420  0.1666 -0.9911
  250MOL0     N34379  10.431   2.165   4.631  0.5882 -0.2907 -0.4866
  250MOL0     C34380  10.479   2.237   4.736  0.2052 -0.1067  0.2682
  250MOL0     C34381  10.590   2.304   4.689  0.2863  0.3150 -0.4345
  250MOL0     C34382  10.698   2.386   4.759 -0.1690  0.6601  0.1376
  250MOL0     C34383  10.666   2.530   4.743 -0.2572  0.5079 -0.9015
  250MOL0     C34384  10.552   2.573   4.845  0.8607 -0.3494 -0.5803
  250MOL0     C34385  10.618   2.604   4.979  1.0639  0.5480  1.0478
  250MOL0     O34386  10.521   2.629   5.087 -0.7665 -0.6929  0.1654
  250MOL0     C34387  10.451   2.538   5.152 -0.0662  0.3847  0.0728
  250MOL0     C34388  10.488   2.402   5.138 -0.1786 -0.0362  0.3350
  250MOL0     C34389  10.424   2.311   5.222 -0.5645 -0.2412 -0.4524
  250MOL0     C34390  10.479   2.174   5.204 -0.2597  0.6888  0.5631
  250MOL0     C34391  10.331   2.351   5.315 -1.4106 -0.7378 -0.3793
  250MOL0     C34392  10.266   2.258   5.412  0.8990 -0.3997  0.4034
  250MOL0     O34393  10.311   2.126   5.430  0.7331 -0.0107  0.8464
  250MOL0     C34394  10.238   2.063   5.519  0.2113  0.7659  0.1424
  250MOL0     C34395  10.296   2.044   5.644 -0.2402 -0.1203 -0.0965
  250MOL0     C34396  10.219   1.969   5.734 -0.0154  0.6420 -0.1597
  250MOL0     C34397  10.092   1.918   5.705  0.8225 -0.2924 -0.8594
  250MOL0     O34398  10.015   1.834   5.787  0.4305 -0.5698 -0.3486
  250MOL0     C34399  10.059   1.813   5.926 -0.5133 -0.4315  1.3444
  250MOL0     C34400   9.990   1.715   6.013  0.8866 -0.6329 -0.4280
  250MOL0     C34401   9.849   1.770   6.045 -0.3557  0.2600 -0.1228
  250MOL0     C34402   9.773   1.669   6.142  0.6764  0.1397  1.2041
  250MOL0     C34403   9.628   1.719   6.161 -0.1554  0.0235  0.9022
  250MOL0     C34404   9.611   1.814   6.279  0.7170  0.0539  0.2645
  250MOL0     C34405   9.470   1.866   6.289  0.0171  0.4821  0.5317
  250MOL0     C34406   9.450   1.902   6.436  0.2260 -0.0673  0.8928
  250MOL0    Cl34407   9.548   2.036   6.488 -0.2329  0.0717 -0.5946
  250MOL0     C34408  10.045   1.948   5.578  0.3415 -0.2081 -0.0522
  250MOL0     C34409  10.119   2.014   5.478 -0.2504  0.6605  0.3818
  250MOL0     O34410  10.167   2.306   5.466  0.5203  0.1075  0.1557
  250MOL0     C34411  10.295   2.490   5.322 -0.5219  0.4211 -0.2825
  250MOL0     C34412  10.358   2.581   5.244 -0.6452 -0.4431  0.0596
  250MOL0     N34413  10.598   2.273   4.552 -0.0334  0.8178 -0.0746
  250MOL0     N34414  10.502   2.196   4.518  0.1704  0.1995  0.7116
  250MOL0     C34415   9.369   2.131   4.763  0.6035 -0.0707  0.4455
  250MOL0     C34416   9.249   2.193   4.697  0.1353  0.7013 -0.4181
  250MOL0     C34417   8.969   2.503   4.489 -0.4025  0.1821  0.8882
  250MOL0     C34418   8.918   2.537   4.357  0.0803  0.2150 -0.5090
  250MOL0     C34419   8.786   2.577   4.338 -0.0940  0.6398 -0.6782
  250MOL0     C34420   8.708   2.609   4.457  0.1799 -0.2995 -0.2426
  250MOL0     O34421   8.583   2.664   4.444 -0.1629  0.2055  0.3481
  250MOL0     C34422   8.573   2.773   4.348  0.6196 -0.3279  0.0845
  250MOL0     C34423   8.556   2.904   4.433 -0.7872  0.0078  0.4457
  250MOL0     C34424   8.534   3.025   4.337  0.1329 -0.8614  0.5409
  250MOL0     C34425   8.658   3.051   4.240 -0.3669  0.3361  0.6647
  250MOL0     C34426   8.621   3.163   4.149  0.7266  0.6663 -1.0515
  250MOL0     C34427   8.600   3.255   4.078 -0.2273 -0.0261  0.4177
  250MOL0     C34428   8.760   2.594   4.591 -0.6843  0.4065  0.6619
  250MOL0     C34429   8.893   2.544   4.606 -0.4055 -0.5400  0.3997
  250MOL0     C34430   8.957   2.554   4.743 -0.3639  0.5901  0.5436
  250MOL0     H34431   9.389   2.357   4.437  0.0687  0.3122 -0.8490
  250MOL0     H34432   9.590   2.254   4.543  2.6130 -2.9900  1.4551
  250MOL0     H34433   9.528   1.904   4.772  0.7535 -0.8913 -0.0893
  250MOL0     H34434   9.625   1.986   4.906 -1.6912 -2.2363  1.2528
  250MOL0     H34435   9.830   1.974   4.800 -0.9428 -1.8987  2.9967
  250MOL0     H34436   9.765   1.807   4.767 -1.1437 -1.5806 -3.1567
  250MOL0     H34437   9.701   1.871   4.538  2.5497  0.9989 -4.6492
  250MOL0     H34438   9.775   2.030   4.578 -1.0402  0.8651  1.7595
  250MOL0     H34439   9.968   1.805   4.642  0.3736 -1.9629 -1.9025
  250MOL0     H34440   9.913   1.805   4.478 -2.8519 -1.1745  1.4690
  250MOL0     H34441  10.029   2.037   4.638  0.4153 -0.1165 -0.5193
  250MOL0     H34442   9.971   2.055   4.476 -0.9054 -0.0639 -0.2890
  250MOL0     H34443  10.194   1.863   4.568  4.2224  1.0947 -0.7823
  250MOL0     H34444  10.145   1.889   4.403 -2.0350  0.9557  1.1662
  250MOL0     H34445  10.191   2.154   4.468  1.8326  1.2060  0.9664
  250MOL0     H34446  10.319   2.045   4.410 -1.7272 -2.2523 -0.8979
  250MOL0     H34447  10.236   2.117   4.699 -2.5803 -2.1745 -2.6728
  250MOL0     H34448  10.337   1.985   4.671  0.0451  1.1482  1.5452
  250MOL0     H34449  10.438   2.235   4.837  0.5571  2.2194  0.5169
  250MOL0     H34450  10.788   2.352   4.708 -2.2144 -1.1427 -2.5426
  250MOL0     H34451  10.714   2.355   4.863 -1.0699  0.8332  0.3460
  250MOL0     H34452  10.758   2.582   4.770  0.3729 -1.9442  2.1679
  250MOL0     H34453  10.631   2.569   4.647 -0.8563  1.0436 -0.4725
  250MOL0     H34454  10.502   2.667   4.816 -0.0788 -0.8584 -0.6650
  250MOL0     H34455  10.468   2.503   4.852 -0.1688  0.9956  1.5198
  250MOL0     H34456  10.674   2.514   5.005  0.2636 -0.2180  0.1938
  250MOL0     H34457  10.684   2.691   4.979  0.7557  0.7888  0.2258
  250MOL0     H34458  10.549   2.363   5.057  0.3360  1.1211  0.1426
  250MOL0     H34459  10.414   2.125   5.130  0.9759 -1.0682  0.5863
  250MOL0     H34460  10.489   2.107   5.289 -4.0735 -0.3742  0.3372
  250MOL0     H34461  10.572   2.163   5.147 -1.1808  2.2013 -1.3897
  250MOL0     H34462  10.391   2.093   5.662 -0.6174  1.0156 -1.0382
  250MOL0     H34463  10.249   1.957   5.837  0.0740  0.3514 -0.2186
  250MOL0     H34464  10.166   1.790   5.920 -0.1645  1.2020  0.5177
  250MOL0     H34465  10.067   1.907   5.982  1.9067  1.0253 -1.1307
  250MOL0     H34466   9.965   1.622   5.962  0.3123 -1.5351  1.3894
  250MOL0     H34467  10.029   1.683   6.110 -4.9398 -2.9277  1.6136
  250MOL0     H34468   9.792   1.786   5.953 -1.7197 -2.5811  0.1157
  250MOL0     H34469   9.850   1.865   6.099 -2.9184  0.7606 -0.8119
  250MOL0     H34470   9.834   1.660   6.233 -0.2433 -0.5049  1.7781
  250MOL0     H34471   9.758   1.572   6.094 -1.0910  0.6961  0.5567
  250MOL0     H34472   9.594   1.767   6.069 -1.7436  2.7260  2.7419
  250MOL0     H34473   9.570   1.628   6.179  0.4770 -0.3120  1.2646
  250MOL0     H34474   9.680   1.899   6.267  0.1327  0.5246  0.1939
  250MOL0     H34475   9.644   1.768   6.373  3.0008 -2.7713 -1.7477
  250MOL0     H34476   9.402   1.784   6.264  1.2714  0.0990 -1.8776
  250MOL0     H34477   9.451   1.946   6.218 -0.0596 -1.2202 -1.4358
  250MOL0     H34478   9.480   1.822   6.504  0.2447 -0.6161  0.2462
  250MOL0     H34479   9.342   1.919   6.445  0.4178  1.2982  0.8392
  250MOL0     H34480   9.942   1.920   5.561  0.3236 -0.7226  0.8250
  250MOL0     H34481  10.082   2.020   5.376  1.1553  0.4057 -0.1623
  250MOL0     H34482  10.232   2.535   5.399  2.9742  0.9957  2.4819
  250MOL0     H34483  10.336   2.687   5.247  2.8149  0.3487  1.1698
  250MOL0     H34484   9.372   2.076   4.856 -1.3397  0.3863  0.8263
  250MOL0     H34485   9.155   2.166   4.744  1.4114 -0.6541  1.4830
  250MOL0     H34486   8.975   2.515   4.268  0.9791  1.2746 -0.2129
  250MOL0     H34487   8.739   2.596   4.243 -2.5500  2.6844  0.8185
  250MOL0     H34488   8.654   2.782   4.275  0.0404  0.7364 -0.4664
  250MOL0     H34489   8.484   2.764   4.284  1.9297  3.2963 -2.6662
  250MOL0     H34490   8.640   2.929   4.500 -1.3068  3.2543  0.0500
  250MOL0     H34491   8.463   2.911   4.489 -2.1350  1.8538 -1.8395
  250MOL0     H34492   8.454   2.980   4.278 -3.6896  1.0074  3.7572
  250MOL0     H34493   8.499   3.112   4.395  0.5529 -0.2345 -0.1255
  250MOL0     H34494   8.676   2.967   4.173 -1.9209  0.7492 -0.3151
  250MOL0     H34495   8.755   3.081   4.282  0.0349 -1.3183  1.0238
  250MOL0     H34496   8.579   3.346   4.025  1.8033  0.1932 -0.0823
  250MOL0     H34497   8.701   2.624   4.676 -2.0131  3.2453 -1.1111
  250MOL0     H34498   8.873   2.538   4.811 -1.3971 -2.3461 -1.2601
  250MOL0     H34499   9.019   2.466   4.761 -1.2881  0.1103  1.4523
  250MOL0     H34500   9.011   2.644   4.775  1.5650 -0.7091  1.1098
  251MOL0     O34501   5.563   8.936   1.700 -0.2830  0.0684  0.2668
  251MOL0     C34502   5.552   8.988   1.809  0.2590 -0.3772  0.6577
  251MOL0     O34503   5.653   9.060   1.874  0.2694 -0.4683 -0.4378
  251MOL0     C34504   5.781   9.063   1.828 -0.3035 -0.1985  0.2206
  251MOL0     C34505   5.821   9.122   1.708  0.5195  0.9579  0.0845
  251MOL0     C34506   5.958   9.131   1.674 -0.5676  0.4545  0.1445
  251MOL0     C34507   6.057   9.093   1.772 -0.8202  0.3753 -0.5888
  251MOL0     O34508   6.188   9.114   1.763 -0.6950  0.4222 -0.6549
  251MOL0     C34509   6.260   9.040   1.665  0.0991  0.7023 -0.5804
  251MOL0     C34510   6.416   9.082   1.678 -0.0435  0.1580 -0.3892
  251MOL0     C34511   6.495   8.987   1.579  0.0918  0.4798 -0.0134
  251MOL0     C34512   6.647   9.010   1.588  0.2250  0.0366  0.1534
  251MOL0     C34513   6.738   8.911   1.509  0.3801  0.3051  0.8379
  251MOL0     C34514   6.889   8.928   1.540  0.2581  0.7956 -0.9634
  251MOL0     C34515   6.974   8.842   1.446  0.6054 -0.1316  0.4975
  251MOL0     C34516   6.947   8.874   1.292  0.4361 -0.2118  0.0381
  251MOL0     N34517   6.953   9.020   1.247  0.1221 -1.3511 -0.7233
  251MOL0     C34518   7.051   9.109   1.279  0.2927  0.3571 -0.5595
  251MOL0     C34519   7.001   9.230   1.255  0.9273  0.7382  0.5004
  251MOL0     C34520   7.073   9.359   1.299  0.1244 -0.3853  0.7109
  251MOL0     C34521   6.994   9.440   1.407 -0.5418  0.4169 -0.5873
  251MOL0     C34522   7.081   9.537   1.479  0.4359  0.6775  0.8303
  251MOL0     C34523   7.200   9.603   1.401 -0.7353 -0.8129  0.2675
  251MOL0     O34524   7.147   9.709   1.318 -0.2083 -0.0895  0.2880
  251MOL0     C34525   7.216   9.747   1.201  0.3376  0.2599  0.7824
  251MOL0     C34526   7.352   9.711   1.193 -0.2309 -0.8821 -0.7035
  251MOL0     C34527   7.435   9.750   1.084 -0.8994  0.0329  0.9369
  251MOL0     C34528   7.582   9.734   1.091 -0.2709 -0.1029 -0.1542
  251MOL0     C34529   7.358   9.810   0.975  0.2866 -0.0515 -0.1373
  251MOL0     C34530   7.424   9.845   0.847  1.3481  0.6446 -0.4295
  251MOL0     O34531   7.354   9.914   0.759 -1.0398 -0.3874  0.9325
  251MOL0     C34532   7.426   9.935   0.642 -0.2599  0.3212  0.6360
  251MOL0     C34533   7.541  10.005   0.631  0.5177 -0.6134  1.0466
  251MOL0     C34534   7.605  10.023   0.506  0.2606  1.0663 -0.7878
  251MOL0     C34535   7.537   9.977   0.392  0.8448  0.6505  0.3940
  251MOL0     O34536   7.596   9.984   0.271 -0.2309  0.4777  0.4405
  251MOL0     C34537   7.596   9.866   0.189 -0.3869 -0.0457 -0.4019
  251MOL0     C34538   7.714   9.882   0.090  0.4403  0.7936  0.4624
  251MOL0     C34539   7.672   9.885  -0.054  0.3923 -0.2975  0.1636
  251MOL0     C34540   7.583  10.013  -0.081  0.2602  0.6484  0.4206
  251MOL0     C34541   7.520  10.019  -0.225  0.1766  0.2432  0.4167
  251MOL0     C34542   7.442  10.147  -0.253 -0.5008  0.6231  0.7824
  251MOL0     C34543   7.338  10.120  -0.364  0.0957  0.3957 -0.4818
  251MOL0     C34544   7.257  10.245  -0.386  0.4779  0.2132  0.2005
  251MOL0    Cl34545   7.167  10.213  -0.540 -0.0776 -0.7593  0.1176
  251MOL0     C34546   7.421   9.897   0.407  0.7220 -0.5288 -0.5370
  251MOL0     C34547   7.365   9.881   0.529  0.0086  0.1280  0.2520
  251MOL0     O34548   7.512   9.765   0.825  0.0333 -0.6598  0.6310
  251MOL0     C34549   7.214   9.835   0.974 -0.1678  0.1999 -0.8916
  251MOL0     C34550   7.145   9.804   1.095 -0.5014 -0.3262  0.2237
  251MOL0     N34551   6.871   9.210   1.200 -0.4424 -0.5608 -0.1386
  251MOL0     N34552   6.848   9.087   1.194  0.5567  0.7345 -0.0465
  251MOL0     C34553   6.015   9.048   1.897 -0.6227 -0.0120 -0.3162
  251MOL0     C34554   5.881   9.037   1.921  0.0623  0.4611 -0.6542
  251MOL0     C34555   5.415   8.976   1.866  0.0947 -0.5907  0.4142
  251MOL0     C34556   5.305   8.971   1.772  0.7807 -0.5342 -0.1169
  251MOL0     C34557   5.170   8.967   1.818  0.1869 -0.1580 -0.0865
  251MOL0     C34558   5.140   8.975   1.952 -0.0194  0.1383 -0.3591
  251MOL0     O34559   5.007   8.972   1.989 -0.5730  0.4485 -0.0148
  251MOL0     C34560   4.970   8.961   2.128  0.4793 -0.0897 -0.6400
  251MOL0     C34561   4.823   8.955   2.138 -0.3285  0.7923  0.3483
  251MOL0     C34562   4.767   8.839   2.044 -0.2454 -0.5141 -0.6505
  251MOL0     C34563   4.808   8.695   2.079  0.6298  0.6689  0.2835
  251MOL0     C34564   4.732   8.608   1.987  0.4157  0.2677  0.2010
  251MOL0     C34565   4.657   8.524   1.928 -0.2407  0.1314 -0.3461
  251MOL0     C34566   5.249   8.984   2.047 -1.1002  0.5243  0.5401
  251MOL0     C34567   5.386   8.996   2.005  0.3679  0.2896  0.8143
  251MOL0     C34568   5.492   9.008   2.106  0.4264 -0.1618 -0.1637
  251MOL0     H34569   5.759   9.159   1.627  0.7648 -2.2662 -1.7530
  251MOL0     H34570   6.002   9.176   1.586  1.0672 -0.1540  0.6077
  251MOL0     H34571   6.213   9.058   1.568 -1.1009  3.4181  0.3863
  251MOL0     H34572   6.240   8.935   1.688  0.8562  0.3858 -1.3097
  251MOL0     H34573   6.420   9.188   1.649 -1.1734  0.4675  0.4899
  251MOL0     H34574   6.453   9.083   1.781  1.6213  0.7582 -0.9722
  251MOL0     H34575   6.459   8.890   1.613 -3.5218  1.6761 -0.0644
  251MOL0     H34576   6.465   9.011   1.477  2.7567 -0.4713 -1.1105
  251MOL0     H34577   6.679   9.107   1.549  1.8726  0.9025  3.2807
  251MOL0     H34578   6.670   9.006   1.695 -1.0246  1.5004  0.5148
  251MOL0     H34579   6.718   8.933   1.404 -0.4066  0.1678  0.9577
  251MOL0     H34580   6.693   8.816   1.538 -0.1528  0.9966  2.3938
  251MOL0     H34581   6.903   9.035   1.529 -3.5708  1.4115 -1.3595
  251MOL0     H34582   6.910   8.903   1.644  0.7804  0.7054 -1.0878
  251MOL0     H34583   6.953   8.736   1.458  0.9565 -0.4769 -1.5840
  251MOL0     H34584   7.079   8.860   1.470  0.6124  3.5929 -1.4984
  251MOL0     H34585   7.013   8.818   1.225  2.6900  3.5554 -1.1769
  251MOL0     H34586   6.848   8.833   1.271  0.8060 -1.4315  0.5681
  251MOL0     H34587   7.143   9.082   1.330 -0.3308  1.2198  1.1282
  251MOL0     H34588   7.100   9.421   1.213  1.4890  0.7380  1.9096
  251MOL0     H34589   7.168   9.323   1.339  0.9733 -1.0871 -1.7359
  251MOL0     H34590   6.913   9.479   1.345  1.7031  1.1394 -3.2761
  251MOL0     H34591   6.954   9.375   1.485 -0.4365 -0.9634 -1.6484
  251MOL0     H34592   7.029   9.615   1.535  2.0164  0.2335  3.0681
  251MOL0     H34593   7.131   9.480   1.558  1.9373  0.5049 -0.2125
  251MOL0     H34594   7.262   9.647   1.481  2.4312 -2.2918 -1.1931
  251MOL0     H34595   7.261   9.530   1.347 -2.7119 -1.6684 -0.8980
  251MOL0     H34596   7.393   9.671   1.285 -2.2026 -1.0132  0.1718
  251MOL0     H34597   7.627   9.806   1.023 -1.6315  0.7532 -0.1865
  251MOL0     H34598   7.603   9.634   1.050  0.0013  0.8819 -2.5440
  251MOL0     H34599   7.620   9.748   1.193 -0.5761 -0.5463  0.0256
  251MOL0     H34600   7.576  10.048   0.724 -3.5565  2.9743  1.2210
  251MOL0     H34601   7.702  10.070   0.510  1.1492 -0.7190 -0.2793
  251MOL0     H34602   7.612   9.769   0.236 -1.2273 -1.3257 -2.6001
  251MOL0     H34603   7.504   9.864   0.130  1.6329  1.1930 -3.9321
  251MOL0     H34604   7.778   9.967   0.118  0.6104  0.4828  1.0309
  251MOL0     H34605   7.782   9.797   0.105 -1.4256 -0.6778  0.9545
  251MOL0     H34606   7.620   9.797  -0.093 -2.7341  2.3217 -2.1311
  251MOL0     H34607   7.764   9.900  -0.110  0.7514 -2.1768  0.1842
  251MOL0     H34608   7.651  10.098  -0.094 -3.9462  4.4208  0.5374
  251MOL0     H34609   7.519  10.036   0.005  0.0639  1.2619  0.1169
  251MOL0     H34610   7.594  10.007  -0.304 -0.8273 -1.0473 -0.3645
  251MOL0     H34611   7.445   9.941  -0.242  0.7378  0.1443 -1.9189
  251MOL0     H34612   7.511  10.225  -0.287 -1.0602  0.5897 -0.4935
  251MOL0     H34613   7.375  10.163  -0.168 -3.2522 -1.5447 -0.8270
  251MOL0     H34614   7.267  10.046  -0.326 -0.6312  0.7806 -1.0649
  251MOL0     H34615   7.385  10.093  -0.459  0.6041  2.7675 -0.9936
  251MOL0     H34616   7.319  10.335  -0.393  0.3191  0.2114 -1.8760
  251MOL0     H34617   7.175  10.258  -0.314  0.1253 -0.2510 -0.1131
  251MOL0     H34618   7.365   9.852   0.326  3.1341 -2.0469 -1.4879
  251MOL0     H34619   7.271   9.830   0.549  0.8173 -0.0720  4.4096
  251MOL0     H34620   7.158   9.872   0.889  0.8382 -0.8531 -2.0487
  251MOL0     H34621   7.037   9.812   1.102 -0.4451  1.3507 -0.4750
  251MOL0     H34622   6.092   9.019   1.968  1.0418  2.9340 -0.7305
  251MOL0     H34623   5.849   8.996   2.016  0.7411  2.5866  0.5472
  251MOL0     H34624   5.307   8.971   1.663  3.1925 -2.3479 -0.1560
  251MOL0     H34625   5.098   8.958   1.737  1.4311 -0.1270 -1.2470
  251MOL0     H34626   5.019   8.869   2.163  1.0445 -0.1843 -1.6592
  251MOL0     H34627   5.001   9.046   2.190 -0.2746 -0.1871 -0.1020
  251MOL0     H34628   4.778   9.047   2.100 -0.7758 -0.0797 -1.2917
  251MOL0     H34629   4.784   8.933   2.238  1.1077 -2.7620  0.2761
  251MOL0     H34630   4.658   8.836   2.046 -0.2211 -1.5576 -0.1574
  251MOL0     H34631   4.792   8.861   1.939  2.1113  3.1131  0.4954
  251MOL0     H34632   4.762   8.680   2.177 -1.6892  0.3851 -0.7609
  251MOL0     H34633   4.915   8.680   2.065  0.4903 -0.0121 -0.0811
  251MOL0     H34634   4.599   8.462   1.863  0.0578 -0.4598 -0.0586
  251MOL0     H34635   5.223   9.003   2.150 -0.2465 -0.4957  0.9694
  251MOL0     H34636   5.434   9.018   2.198  0.6377 -1.8221  0.1843
  251MOL0     H34637   5.552   8.918   2.120  1.4031  0.4216 -0.5014
  251MOL0     H34638   5.560   9.092   2.092  0.9476 -0.7479 -1.2824
  252MOL0     O34639  10.227   2.735   4.710  0.3856  0.5641  0.0138
  252MOL0     C34640  10.122   2.698   4.758 -0.0993  0.3295 -0.0479
  252MOL0     O34641  10.008   2.780   4.782 -0.5236 -1.0017 -0.1652
  252MOL0     C34642  10.003   2.909   4.735 -0.2968 -0.4881  0.1907
  252MOL0     C34643  10.064   2.954   4.618 -0.2860 -0.6843  0.2163
  252MOL0     C34644  10.038   3.083   4.572  0.8076  0.0523 -0.0302
  252MOL0     C34645   9.939   3.162   4.634  0.1678 -0.9766  0.4700
  252MOL0     O34646   9.891   3.282   4.572  0.2671  0.5315 -0.2072
  252MOL0     C34647   9.840   3.259   4.445 -0.0935  1.1236  0.2259
  252MOL0     C34648   9.723   3.355   4.421  0.7034  0.6544  0.6043
  252MOL0     C34649   9.600   3.289   4.494 -0.9553  0.2033  0.2348
  252MOL0     C34650   9.470   3.368   4.484  0.7426 -0.2160 -0.3467
  252MOL0     C34651   9.346   3.294   4.538 -0.6653  0.7282  0.5736
  252MOL0     C34652   9.216   3.363   4.509  0.4210  0.2550  0.6712
  252MOL0     C34653   9.177   3.380   4.362 -0.7631  0.2143 -0.5714
  252MOL0     C34654   9.034   3.420   4.340 -0.7780 -0.0494 -0.5688
  252MOL0     N34655   9.004   3.547   4.413  0.4251  0.5711  0.7460
  252MOL0     C34656   9.046   3.669   4.360  0.0842 -0.3928  0.3027
  252MOL0     C34657   9.016   3.765   4.440 -0.3142  0.1249  0.1051
  252MOL0     C34658   9.058   3.913   4.439  0.0460  0.7367 -0.2173
  252MOL0     C34659   8.977   4.002   4.337 -0.3392 -0.0627  0.2133
  252MOL0     C34660   8.835   3.996   4.380 -1.0503 -0.2666  0.4945
  252MOL0     C34661   8.821   4.119   4.471  0.4560  0.3445 -0.4156
  252MOL0     O34662   8.704   4.111   4.558  0.0516 -0.5439 -0.4293
  252MOL0     C34663   8.576   4.092   4.501  0.3000  0.0373  0.0585
  252MOL0     C34664   8.527   4.158   4.389 -0.1635 -0.5168  0.1717
  252MOL0     C34665   8.391   4.137   4.346 -0.1682  0.2890  0.1643
  252MOL0     C34666   8.348   4.196   4.208  1.0807  1.0108 -0.0069
  252MOL0     C34667   8.311   4.050   4.416  0.1735  0.7293 -1.0934
  252MOL0     C34668   8.171   4.014   4.365 -0.1191  0.1944 -0.7618
  252MOL0     O34669   8.139   3.885   4.383 -0.0983  0.2031 -0.8101
  252MOL0     C34670   8.017   3.823   4.362 -0.6021 -0.7151 -0.0183
  252MOL0     C34671   7.906   3.861   4.431  0.7457  1.0964 -0.2640
  252MOL0     C34672   7.783   3.791   4.418  0.8011 -0.5253  0.4464
  252MOL0     C34673   7.770   3.693   4.317  0.3266  0.3613 -0.0130
  252MOL0     O34674   7.658   3.622   4.279 -0.5085  0.3375 -0.4399
  252MOL0     C34675   7.550   3.611   4.372  0.3659 -0.8923  0.5990
  252MOL0     C34676   7.425   3.704   4.341  0.0746 -0.2226 -0.4569
  252MOL0     C34677   7.294   3.637   4.377 -0.8426 -0.1648  1.2365
  252MOL0     C34678   7.176   3.726   4.377 -0.2394  0.2358 -0.4257
  252MOL0     C34679   7.045   3.657   4.409  0.6962 -0.1180 -0.2502
  252MOL0     C34680   7.059   3.554   4.522 -0.5490  0.5563 -0.2303
  252MOL0     C34681   6.926   3.518   4.578 -0.3929  0.3338  1.0409
  252MOL0     C34682   6.868   3.401   4.489 -0.9795  0.9386  0.6123
  252MOL0    Cl34683   6.702   3.341   4.534 -0.2608  0.0393 -0.6922
  252MOL0     C34684   7.885   3.665   4.243 -0.3882  0.8675  0.4315
  252MOL0     C34685   8.012   3.725   4.266  0.4197 -0.3249  0.3965
  252MOL0     O34686   8.101   4.096   4.318  0.2624  0.5756  0.2933
  252MOL0     C34687   8.362   3.983   4.534  0.5436 -0.7644 -0.6703
  252MOL0     C34688   8.495   4.010   4.572  0.8341  0.3860 -0.4603
  252MOL0     N34689   8.975   3.698   4.557 -0.1061 -0.6031 -0.2802
  252MOL0     N34690   8.966   3.568   4.537  0.8190 -0.7131 -0.3639
  252MOL0     C34691   9.881   3.116   4.753 -0.7207 -0.7561 -0.9738
  252MOL0     C34692   9.915   2.993   4.812  0.0176  0.3259  0.6261
  252MOL0     C34693  10.113   2.565   4.799 -0.0796  1.1228 -0.3423
  252MOL0     C34694  10.177   2.526   4.917 -0.0233 -0.3644  0.9438
  252MOL0     C34695  10.172   2.391   4.957  0.1451  1.0855 -0.1220
  252MOL0     C34696  10.131   2.303   4.870 -0.7017  1.2104 -0.2798
  252MOL0     O34697  10.137   2.168   4.902  0.4463 -0.1745  0.0680
  252MOL0     C34698  10.023   2.127   4.982 -1.3065  0.0363 -1.1059
  252MOL0     C34699  10.074   2.000   5.052  1.0569 -0.0373 -0.8544
  252MOL0     C34700  10.131   1.901   4.955 -0.3033 -0.4651  0.2257
  252MOL0     C34701  10.110   1.756   5.007  0.5717  0.0383 -0.6923
  252MOL0     C34702  10.188   1.729   5.127 -0.4812 -0.6539 -0.0433
  252MOL0     C34703  10.268   1.711   5.219 -0.0864  0.3175  1.0299
  252MOL0     C34704  10.071   2.335   4.748 -0.0967  0.3673 -0.2083
  252MOL0     C34705  10.049   2.474   4.716  0.2949 -0.4448  1.0707
  252MOL0     C34706   9.966   2.513   4.603 -0.1670  0.0488  0.0722
  252MOL0     H34707  10.120   2.893   4.548 -0.1134  0.8535 -1.0343
  252MOL0     H34708  10.087   3.122   4.483  1.6801  1.0240  0.8382
  252MOL0     H34709   9.800   3.159   4.429  0.7728  1.1272 -2.4813
  252MOL0     H34710   9.906   3.289   4.363  0.2963  3.7733  1.3920
  252MOL0     H34711   9.740   3.455   4.460  0.3801  0.0156  2.5104
  252MOL0     H34712   9.708   3.363   4.313 -2.0564 -2.6161  0.5548
  252MOL0     H34713   9.586   3.192   4.445  3.8717  0.2109 -1.7152
  252MOL0     H34714   9.623   3.282   4.601  0.3471 -0.5218 -0.0739
  252MOL0     H34715   9.465   3.454   4.553  0.7539 -0.3425 -0.1876
  252MOL0     H34716   9.464   3.414   4.385  2.4826 -1.4857 -1.0908
  252MOL0     H34717   9.362   3.281   4.645 -0.3621 -0.8330  0.3528
  252MOL0     H34718   9.349   3.200   4.482 -0.6004  0.6907  0.6396
  252MOL0     H34719   9.153   3.291   4.563  3.0956 -0.0489  3.6782
  252MOL0     H34720   9.211   3.457   4.565  0.3167  1.8465 -1.8386
  252MOL0     H34721   9.192   3.281   4.319 -0.7859  0.3644 -0.9287
  252MOL0     H34722   9.244   3.454   4.318  0.4947 -0.6779 -0.2123
  252MOL0     H34723   9.033   3.422   4.231 -0.9207 -1.2857 -0.5965
  252MOL0     H34724   8.965   3.341   4.369  0.3332 -1.6086 -2.0059
  252MOL0     H34725   9.100   3.665   4.266 -3.0454 -1.9588 -1.6122
  252MOL0     H34726   9.167   3.904   4.428  0.2434 -1.2178  2.3562
  252MOL0     H34727   9.049   3.952   4.541  1.3008 -1.0902  0.6622
  252MOL0     H34728   9.025   4.100   4.342  1.0090 -0.7328  1.4477
  252MOL0     H34729   8.985   3.962   4.236 -0.8378 -0.4531  0.3259
  252MOL0     H34730   8.774   4.018   4.292  1.5659  0.6810 -1.1861
  252MOL0     H34731   8.811   3.902   4.430 -0.4157 -0.9733 -0.5208
  252MOL0     H34732   8.907   4.128   4.537 -1.8621  2.7552  2.5992
  252MOL0     H34733   8.820   4.216   4.421  1.6874  1.2034  1.1207
  252MOL0     H34734   8.599   4.221   4.338 -1.0391 -0.5605 -1.1887
  252MOL0     H34735   8.312   4.117   4.140  0.1469  0.4008  1.1639
  252MOL0     H34736   8.436   4.226   4.151  2.4362 -1.0540  0.8731
  252MOL0     H34737   8.267   4.267   4.224 -1.1127 -1.4092  0.3492
  252MOL0     H34738   7.917   3.945   4.499 -5.2372  1.5970  0.6208
  252MOL0     H34739   7.698   3.823   4.478  1.2091 -0.7458  1.1553
  252MOL0     H34740   7.524   3.505   4.362 -0.0208 -0.6130 -2.0663
  252MOL0     H34741   7.583   3.629   4.475  0.3533  2.4213  0.1499
  252MOL0     H34742   7.435   3.785   4.413  1.2662 -1.3765  0.7315
  252MOL0     H34743   7.429   3.743   4.239  1.6567 -0.9382 -0.6977
  252MOL0     H34744   7.321   3.601   4.477 -1.1213 -0.0478  1.3549
  252MOL0     H34745   7.281   3.544   4.320 -0.9286  0.3027  0.4813
  252MOL0     H34746   7.170   3.770   4.277  1.0302 -3.6664 -2.4170
  252MOL0     H34747   7.185   3.799   4.458 -1.2085 -1.1028  0.9456
  252MOL0     H34748   6.978   3.737   4.441  3.2470  1.7479  0.7490
  252MOL0     H34749   6.998   3.602   4.327 -0.7135 -3.1749  2.3867
  252MOL0     H34750   7.128   3.595   4.596 -0.7749  1.8076 -0.6902
  252MOL0     H34751   7.112   3.465   4.489  3.3787  2.3517  0.6933
  252MOL0     H34752   6.861   3.605   4.588  0.8535  1.1567  2.2383
  252MOL0     H34753   6.944   3.477   4.678 -1.6719 -2.2833  0.2963
  252MOL0     H34754   6.926   3.308   4.489  0.5032  1.8190 -0.5783
  252MOL0     H34755   6.853   3.428   4.384 -1.9110 -2.2939 -0.1850
  252MOL0     H34756   7.886   3.590   4.165 -2.2834  2.2459 -1.0214
  252MOL0     H34757   8.102   3.715   4.207 -0.4731 -4.0646 -0.5889
  252MOL0     H34758   8.316   3.911   4.602  0.3144  0.5658  0.6280
  252MOL0     H34759   8.543   3.953   4.650  0.8420 -0.4619 -1.0679
  252MOL0     H34760   9.813   3.180   4.809 -1.9009 -3.0325  0.3132
  252MOL0     H34761   9.859   2.965   4.901  2.9500  0.0420  2.5360
  252MOL0     H34762  10.231   2.589   4.987  1.2874 -1.9222  1.4120
  252MOL0     H34763  10.205   2.361   5.056 -1.3328  1.3285  0.4660
  252MOL0     H34764   9.999   2.200   5.060 -1.9517 -0.9241 -0.3837
  252MOL0     H34765   9.928   2.102   4.934 -3.9499  1.1618  3.0351
  252MOL0     H34766   9.991   1.952   5.105 -1.1499 -1.5999 -5.2441
  252MOL0     H34767  10.152   2.020   5.126  0.3934 -0.8135  0.0821
  252MOL0     H34768  10.086   1.929   4.859  2.4136 -0.2133 -1.0611
  252MOL0     H34769  10.238   1.918   4.949 -0.7309  2.5733 -0.7523
  252MOL0     H34770  10.120   1.682   4.928 -2.9179  0.7964 -2.0209
  252MOL0     H34771  10.005   1.740   5.030  1.1509 -3.8331  0.0162
  252MOL0     H34772  10.333   1.692   5.302  0.6729  0.1897  0.4258
  252MOL0     H34773  10.037   2.256   4.682  1.5382 -0.1485 -0.4934
  252MOL0     H34774   9.893   2.588   4.635 -0.1549  0.2067 -0.2627
  252MOL0     H34775  10.036   2.560   4.533 -2.2087  0.8656 -1.5383
  252MOL0     H34776   9.921   2.432   4.544  3.4050 -2.7311  0.8194
  253MOL0     O34777   7.025   3.121   7.934  0.1740  0.4691  0.4433
  253MOL0     C34778   6.962   3.215   7.978  0.0304  0.0736  0.2772
  253MOL0     O34779   6.828   3.203   8.004 -0.4746 -0.5800  0.1036
  253MOL0     C34780   6.757   3.088   7.982  0.1861  0.5340  0.3275
  253MOL0     C34781   6.730   2.995   8.080 -0.5607  0.0437 -0.9171
  253MOL0     C34782   6.692   2.854   8.052 -0.1158 -0.8203 -0.3143
  253MOL0     C34783   6.680   2.824   7.913  0.3782  0.3535 -0.1926
  253MOL0     O34784   6.619   2.716   7.865  0.7374  0.9365 -0.4574
  253MOL0     C34785   6.522   2.648   7.950 -0.2080  0.1576 -0.0987
  253MOL0     C34786   6.424   2.557   7.874 -0.6581  0.0328 -0.4115
  253MOL0     C34787   6.327   2.470   7.958 -0.4013 -0.2535  0.2149
  253MOL0     C34788   6.297   2.341   7.872 -0.3060  0.0910  0.8490
  253MOL0     C34789   6.183   2.264   7.940  0.0593 -1.0067 -0.1510
  253MOL0     C34790   6.237   2.152   8.033  0.5576 -0.8428  0.0858
  253MOL0     C34791   6.126   2.064   8.082  1.0899 -0.2327 -0.0306
  253MOL0     C34792   6.030   2.147   8.164 -0.5816 -0.6762  0.1494
  253MOL0     N34793   6.091   2.234   8.272 -0.5777  0.0065  0.5484
  253MOL0     C34794   6.141   2.194   8.392 -0.1508  0.1096  0.9198
  253MOL0     C34795   6.167   2.312   8.456  1.0631 -0.9004  0.2761
  253MOL0     C34796   6.218   2.332   8.596 -0.1793  0.1896  0.1000
  253MOL0     C34797   6.112   2.373   8.700 -0.5138  0.2647 -0.2570
  253MOL0     C34798   6.162   2.414   8.844 -0.5662  0.5933  0.8512
  253MOL0     C34799   6.044   2.458   8.932 -0.1384  0.0199  0.2336
  253MOL0     O34800   6.002   2.594   8.911 -0.4310 -0.1816  0.9049
  253MOL0     C34801   6.103   2.682   8.946 -0.6642 -0.6985  1.6007
  253MOL0     C34802   6.167   2.695   9.066  0.3792  0.1674 -0.6871
  253MOL0     C34803   6.269   2.784   9.096 -0.4357 -0.0582  0.7362
  253MOL0     C34804   6.351   2.770   9.223  0.2581  0.0254 -0.7242
  253MOL0     C34805   6.289   2.880   8.994  0.9907  0.0409 -0.4977
  253MOL0     C34806   6.385   2.987   9.024  0.5740 -0.5103 -0.4683
  253MOL0     O34807   6.391   3.034   9.152 -0.2792 -0.3360  0.1223
  253MOL0     C34808   6.451   3.154   9.169  0.0663 -0.8806  0.0026
  253MOL0     C34809   6.589   3.166   9.166 -0.5106 -0.3668 -0.2458
  253MOL0     C34810   6.633   3.301   9.170  0.5415 -0.3548  1.1712
  253MOL0     C34811   6.547   3.411   9.194 -0.0829  0.6469  0.0953
  253MOL0     O34812   6.595   3.543   9.198 -0.0855  0.2574  0.2981
  253MOL0     C34813   6.714   3.567   9.132  0.3813  0.5687  0.0770
  253MOL0     C34814   6.738   3.714   9.165 -0.3163  0.1603 -1.1111
  253MOL0     C34815   6.663   3.812   9.066 -0.5148 -0.2995  0.1807
  253MOL0     C34816   6.756   3.930   9.023 -0.1003  0.7087  0.4230
  253MOL0     C34817   6.681   4.054   8.974 -0.4376 -0.3712 -0.0506
  253MOL0     C34818   6.650   4.138   9.102 -0.3619  0.7670  0.3466
  253MOL0     C34819   6.563   4.258   9.060 -0.3149 -0.5398 -0.1482
  253MOL0     C34820   6.631   4.351   8.960  0.3606  0.6208  0.0048
  253MOL0    Cl34821   6.793   4.399   9.006  0.4696  0.2237  0.2200
  253MOL0     C34822   6.415   3.393   9.224 -0.1662  0.2977 -0.0979
  253MOL0     C34823   6.365   3.265   9.194 -0.3495 -0.0280 -0.1017
  253MOL0     O34824   6.436   3.034   8.930 -0.5627  0.0650  0.9382
  253MOL0     C34825   6.229   2.877   8.862 -0.5251 -0.0962 -1.4171
  253MOL0     C34826   6.135   2.775   8.847 -0.3093  0.3604  0.5902
  253MOL0     N34827   6.134   2.417   8.375  0.1109  0.0649 -0.0837
  253MOL0     N34828   6.082   2.372   8.270  0.3372  0.1674 -0.5802
  253MOL0     C34829   6.684   2.924   7.814  0.1428  0.1717 -0.1190
  253MOL0     C34830   6.724   3.048   7.853 -0.4845  0.4356  0.7747
  253MOL0     C34831   7.029   3.347   7.993  0.4254  0.5616  0.4151
  253MOL0     C34832   6.945   3.455   8.029 -0.3972 -0.9116 -0.1908
  253MOL0     C34833   7.000   3.587   8.053 -0.7372 -0.3512  0.0292
  253MOL0     C34834   7.136   3.613   8.060 -0.5723  0.2539 -0.2364
  253MOL0     O34835   7.194   3.734   8.089  0.3351  0.3265 -0.7714
  253MOL0     C34836   7.113   3.843   8.119 -0.8160 -0.4254 -0.0753
  253MOL0     C34837   7.204   3.958   8.160 -0.4723  0.5691  0.3090
  253MOL0     C34838   7.248   3.950   8.302  0.1441 -1.1980 -0.6539
  253MOL0     C34839   7.382   4.021   8.344 -0.7918 -0.1324 -0.9794
  253MOL0     C34840   7.428   4.024   8.492 -0.1196 -0.1260  0.1763
  253MOL0     C34841   7.480   4.034   8.603  0.3988  0.9732  0.9037
  253MOL0     C34842   7.217   3.500   8.022  0.5172 -0.1805 -0.8102
  253MOL0     C34843   7.169   3.377   7.988 -0.1444  0.4084  0.3420
  253MOL0     C34844   7.279   3.283   7.961  0.2258  0.7608 -0.0309
  253MOL0     H34845   6.739   3.029   8.182 -3.8411 -1.6526  0.0826
  253MOL0     H34846   6.681   2.779   8.129  1.7716 -3.1024 -2.0819
  253MOL0     H34847   6.454   2.723   7.990 -0.4911 -0.5629  0.8152
  253MOL0     H34848   6.565   2.593   8.034  0.1826 -3.0785 -2.2182
  253MOL0     H34849   6.359   2.612   7.805 -0.8827  1.6796  1.0433
  253MOL0     H34850   6.490   2.487   7.822  0.2937 -1.3416  2.4256
  253MOL0     H34851   6.370   2.434   8.052 -0.6947 -1.8181 -0.2226
  253MOL0     H34852   6.231   2.518   7.978 -0.0458  0.7226 -0.3350
  253MOL0     H34853   6.268   2.370   7.771  3.5253 -1.8370 -1.0256
  253MOL0     H34854   6.381   2.273   7.859 -1.7017 -1.2239 -2.3079
  253MOL0     H34855   6.115   2.218   7.868  0.3471  0.1009 -1.1494
  253MOL0     H34856   6.122   2.336   7.995 -1.4983 -1.7571 -0.8498
  253MOL0     H34857   6.314   2.088   7.990  0.2371 -0.9508 -0.3305
  253MOL0     H34858   6.294   2.200   8.113  1.9919 -0.5677 -1.0644
  253MOL0     H34859   6.151   1.986   8.155  2.4774  0.2828  0.0673
  253MOL0     H34860   6.067   2.026   7.998  2.4240  2.2748 -2.2316
  253MOL0     H34861   5.985   2.217   8.092 -0.7868 -1.6108 -0.6483
  253MOL0     H34862   5.941   2.092   8.196 -1.6165  1.2392  0.7784
  253MOL0     H34863   6.172   2.101   8.439  1.4046 -0.6626 -1.4806
  253MOL0     H34864   6.301   2.404   8.600 -0.0028 -0.0172  0.1681
  253MOL0     H34865   6.249   2.230   8.619 -0.2355  0.6421  2.4268
  253MOL0     H34866   6.066   2.460   8.652  2.6300  1.1963 -1.8515
  253MOL0     H34867   6.046   2.288   8.720  1.9201 -1.5302  0.5895
  253MOL0     H34868   6.212   2.325   8.884 -0.3354 -1.5298 -3.5792
  253MOL0     H34869   6.238   2.493   8.847  1.7739 -1.4430 -0.7752
  253MOL0     H34870   5.965   2.389   8.903  1.3744 -1.5150 -0.4210
  253MOL0     H34871   6.066   2.440   9.038  0.1472 -3.5039 -0.3129
  253MOL0     H34872   6.144   2.626   9.146  0.8025  0.5927 -0.1872
  253MOL0     H34873   6.285   2.804   9.303 -0.2796 -1.9842 -0.2723
  253MOL0     H34874   6.450   2.818   9.220 -0.5925  1.9282 -0.0467
  253MOL0     H34875   6.363   2.663   9.244  0.7942 -0.4074 -3.0027
  253MOL0     H34876   6.650   3.080   9.141 -0.6213 -1.2106  2.1541
  253MOL0     H34877   6.734   3.323   9.139  0.5984 -2.0983 -0.0362
  253MOL0     H34878   6.799   3.517   9.180  0.2663  1.5915  1.4026
  253MOL0     H34879   6.722   3.540   9.027  0.3781  2.2140 -0.3707
  253MOL0     H34880   6.724   3.730   9.272 -0.3527 -1.2007 -0.8996
  253MOL0     H34881   6.846   3.730   9.156  0.3084 -3.4878 -1.9310
  253MOL0     H34882   6.577   3.840   9.128 -0.4422 -1.6580  0.9336
  253MOL0     H34883   6.624   3.745   8.988  0.6603 -0.7782 -0.0092
  253MOL0     H34884   6.835   3.906   8.951  0.7522  1.6371  1.0350
  253MOL0     H34885   6.803   3.943   9.121 -1.7203 -2.8860  1.8760
  253MOL0     H34886   6.746   4.113   8.909  2.0063 -4.1936 -1.4259
  253MOL0     H34887   6.590   4.033   8.917 -1.1687 -0.5563  1.1430
  253MOL0     H34888   6.740   4.170   9.156 -1.0960  1.6618  1.0740
  253MOL0     H34889   6.593   4.080   9.176  0.3637  2.6168  2.4725
  253MOL0     H34890   6.558   4.319   9.150  0.1850  1.4448 -1.3887
  253MOL0     H34891   6.459   4.239   9.031 -1.0271  0.0314  1.8747
  253MOL0     H34892   6.569   4.441   8.962 -0.5624  0.0122  1.9682
  253MOL0     H34893   6.625   4.300   8.863  0.8990 -1.0292  0.7916
  253MOL0     H34894   6.356   3.478   9.254 -0.1430  1.1802 -2.3656
  253MOL0     H34895   6.261   3.243   9.214  0.7093 -3.2159  2.9956
  253MOL0     H34896   6.255   2.954   8.791  0.2929 -0.0858 -1.1154
  253MOL0     H34897   6.086   2.782   8.750 -0.4497  0.5530  0.6744
  253MOL0     H34898   6.648   2.891   7.717  1.2958 -2.4316  0.2632
  253MOL0     H34899   6.742   3.121   7.775 -1.6432 -0.9700 -0.8920
  253MOL0     H34900   6.838   3.436   8.029 -0.4164 -1.5308  3.4330
  253MOL0     H34901   6.928   3.667   8.065  0.4446  0.6666  0.6192
  253MOL0     H34902   7.054   3.865   8.029 -1.3286 -2.2493 -0.2154
  253MOL0     H34903   7.045   3.825   8.202 -1.9923  2.1465 -0.3811
  253MOL0     H34904   7.154   4.052   8.137 -1.1389  0.4660  1.2654
  253MOL0     H34905   7.294   3.952   8.097 -1.8798  3.7023 -2.2774
  253MOL0     H34906   7.166   3.985   8.365  0.8576 -4.4645  2.4508
  253MOL0     H34907   7.257   3.851   8.348  2.2668 -0.1034  1.5670
  253MOL0     H34908   7.379   4.126   8.315  1.8027 -0.1168 -1.4095
  253MOL0     H34909   7.455   3.964   8.286 -1.4638  0.0690 -2.0585
  253MOL0     H34910   7.520   4.043   8.702  1.9455  1.4840  0.2684
  253MOL0     H34911   7.322   3.524   8.011  0.3233  0.8899 -0.4052
  253MOL0     H34912   7.384   3.311   7.947  0.8751 -0.4573  1.9295
  253MOL0     H34913   7.280   3.207   8.040  0.5235  0.3396 -0.4357
  253MOL0     H34914   7.257   3.230   7.867 -0.6704 -0.8778  1.0416
  254MOL0     O34915   9.122  10.314   8.288  0.1391  0.2196 -0.6359
  254MOL0     C34916   9.034  10.236   8.261 -0.4251 -0.9281 -0.1983
  254MOL0     O34917   8.898  10.252   8.283  0.1298  0.0726 -0.4423
  254MOL0     C34918   8.866  10.384   8.293 -0.6869 -0.8363  0.2140
  254MOL0     C34919   8.762  10.434   8.220  0.2754  1.1844  0.3452
  254MOL0     C34920   8.717  10.561   8.235  0.4348  0.7453 -0.3008
  254MOL0     C34921   8.787  10.648   8.323  0.0271 -0.6915  0.5205
  254MOL0     O34922   8.758  10.785   8.316 -0.5427  0.3214 -0.6390
  254MOL0     C34923   8.698  10.836   8.200  0.3586 -0.9555 -0.8504
  254MOL0     C34924   8.724  10.985   8.198 -0.4604  0.5301 -0.3572
  254MOL0     C34925   8.872  11.027   8.161 -0.6652 -1.1011  0.4387
  254MOL0     C34926   8.877  11.181   8.123  0.8144 -0.2810  0.9826
  254MOL0     C34927   9.024  11.220   8.117 -0.7760 -0.0067 -0.5909
  254MOL0     C34928   9.055  11.363   8.059  0.4672  0.9726 -0.1264
  254MOL0     C34929   9.036  11.364   7.906 -0.1625  0.3537  0.1328
  254MOL0     C34930   9.047  11.502   7.847 -0.7081 -0.3679  0.2576
  254MOL0     N34931   8.943  11.593   7.886  1.7530 -1.2160 -1.2064
  254MOL0     C34932   8.945  11.734   7.870  0.3796  0.5897 -0.1292
  254MOL0     C34933   8.812  11.764   7.890 -0.0653  0.3708 -0.0554
  254MOL0     C34934   8.756  11.902   7.896 -0.6184  0.1684  0.4344
  254MOL0     C34935   8.657  11.927   8.008  0.5019 -0.5225  1.2742
  254MOL0     C34936   8.511  11.866   7.990 -0.0133  0.8605  0.4336
  254MOL0     C34937   8.414  11.929   8.090 -0.3496 -0.3783  0.1837
  254MOL0     O34938   8.290  11.859   8.092 -0.4670 -0.0674  0.7528
  254MOL0     C34939   8.188  11.927   8.149 -0.3060  0.8988  0.4645
  254MOL0     C34940   8.060  11.889   8.105  0.1785 -0.3641  0.8992
  254MOL0     C34941   7.942  11.945   8.155  1.0699  1.1364 -0.5707
  254MOL0     C34942   7.798  11.885   8.128 -0.4385  0.3655 -0.2068
  254MOL0     C34943   7.951  12.040   8.260 -1.1534 -0.2520  0.5175
  254MOL0     C34944   7.845  12.111   8.328 -0.8191  0.4329  0.8175
  254MOL0     O34945   7.860  12.128   8.462 -0.0531  0.0129 -0.8027
  254MOL0     C34946   7.759  12.190   8.534 -0.6176  0.8924  0.3869
  254MOL0     C34947   7.799  12.260   8.647  0.0582 -0.8320 -0.2333
  254MOL0     C34948   7.711  12.313   8.733  1.1097  0.8485 -1.0422
  254MOL0     C34949   7.570  12.285   8.716 -0.0318 -0.3304  0.5314
  254MOL0     O34950   7.474  12.341   8.802 -0.1219  0.3067 -0.0776
  254MOL0     C34951   7.339  12.297   8.785 -0.1060 -0.2926 -0.0995
  254MOL0     C34952   7.275  12.302   8.924  0.1425 -0.6220  0.7569
  254MOL0     C34953   7.237  12.450   8.941 -0.2636  0.1423 -0.5962
  254MOL0     C34954   7.168  12.460   9.073  0.0775  1.0515 -0.0875
  254MOL0     C34955   7.162  12.610   9.121 -0.8903 -0.8311  0.3544
  254MOL0     C34956   7.082  12.618   9.254  0.9237  0.5163  0.1750
  254MOL0     C34957   6.925  12.609   9.243 -0.4331 -0.6292  0.4282
  254MOL0     C34958   6.855  12.618   9.381 -0.1081 -0.3016  0.6628
  254MOL0    Cl34959   6.888  12.472   9.472  0.1754 -0.0788 -0.1942
  254MOL0     C34960   7.529  12.227   8.600 -0.2547 -0.0191  0.7895
  254MOL0     C34961   7.618  12.178   8.512  0.0098 -0.5676  0.1691
  254MOL0     O34962   7.774  12.181   8.256 -0.5323  0.3049  0.5776
  254MOL0     C34963   8.085  12.086   8.308  0.0859  0.5162 -0.3297
  254MOL0     C34964   8.200  12.027   8.249 -0.4838 -0.3500 -0.3006
  254MOL0     N34965   8.733  11.653   7.912  0.1533 -0.1221  0.1913
  254MOL0     N34966   8.813  11.560   7.909  0.1405 -0.6885  0.4976
  254MOL0     C34967   8.882  10.595   8.410  0.7138 -1.0040  0.2710
  254MOL0     C34968   8.911  10.465   8.396 -0.6288 -0.5061 -0.9547
  254MOL0     C34969   9.071  10.112   8.186 -0.0583 -0.3892  0.4598
  254MOL0     C34970   8.976  10.065   8.097  0.3935  0.0249  0.4197
  254MOL0     C34971   8.996   9.935   8.043  0.6932 -0.9068 -0.1644
  254MOL0     C34972   9.102   9.858   8.075  0.5593 -1.1142  0.6137
  254MOL0     O34973   9.101   9.736   8.014 -0.1689  0.7256  0.2684
  254MOL0     C34974   9.186   9.627   8.058  0.8349  0.2858  0.7109
  254MOL0     C34975   9.308   9.603   7.958 -1.0888  0.1984 -0.6147
  254MOL0     C34976   9.375   9.472   7.989  0.4798  0.4224  0.6255
  254MOL0     C34977   9.415   9.438   8.130 -0.1116 -1.2241  0.2470
  254MOL0     C34978   9.445   9.298   8.159  0.2108  0.2225  0.8425
  254MOL0     C34979   9.457   9.188   8.211  0.4027  0.4458  0.4689
  254MOL0     C34980   9.204   9.908   8.154 -0.0275  0.0883 -0.2545
  254MOL0     C34981   9.191  10.037   8.212 -0.1294  0.3019 -0.1085
  254MOL0     C34982   9.305  10.084   8.306  0.5495  0.2144  0.0304
  254MOL0     H34983   8.733  10.379   8.132  1.0210  0.5505  0.4826
  254MOL0     H34984   8.636  10.597   8.172 -2.1399 -1.5432  1.4903
  254MOL0     H34985   8.589  10.825   8.200 -0.6067  5.0761  0.8117
  254MOL0     H34986   8.735  10.782   8.112  0.8211  0.8480 -1.7970
  254MOL0     H34987   8.647  11.030   8.135 -0.1011  1.0083 -0.4612
  254MOL0     H34988   8.705  11.008   8.304 -3.5790 -1.2316 -0.4101
  254MOL0     H34989   8.937  11.007   8.247  1.3606  0.1356 -0.7045
  254MOL0     H34990   8.900  10.954   8.083 -1.0080 -3.1998  2.1769
  254MOL0     H34991   8.835  11.188   8.022  2.0220 -4.0251  0.0683
  254MOL0     H34992   8.820  11.238   8.197  0.6357 -0.9286  1.3488
  254MOL0     H34993   9.082  11.157   8.049 -0.5628 -0.1397 -0.2903
  254MOL0     H34994   9.068  11.214   8.217 -0.1003 -1.4852 -0.9526
  254MOL0     H34995   8.983  11.437   8.093 -0.3489  0.1409  0.0087
  254MOL0     H34996   9.156  11.385   8.096  0.8205 -0.4738 -0.1339
  254MOL0     H34997   8.937  11.317   7.893  0.0479 -0.7641  2.1434
  254MOL0     H34998   9.108  11.303   7.851 -0.4942 -0.0792  0.1694
  254MOL0     H34999   9.139  11.553   7.878 -1.0148  1.6338 -1.8524
  254MOL0     H35000   9.060  11.505   7.738 -2.5642 -0.4851 -0.0006
  254MOL0     H35001   9.027  11.801   7.849  0.1322  1.2363  0.8616
  254MOL0     H35002   8.734  11.953   7.802  2.0066  0.4485 -0.1138
  254MOL0     H35003   8.843  11.951   7.943  2.1662 -3.5454 -0.3918
  254MOL0     H35004   8.698  11.886   8.101  1.5036 -1.2432  0.5422
  254MOL0     H35005   8.654  12.034   8.027 -2.9290 -0.1448 -0.6423
  254MOL0     H35006   8.475  11.882   7.888  2.0220 -0.2273 -0.5046
  254MOL0     H35007   8.518  11.759   8.008 -0.0869  0.5275 -1.3009
  254MOL0     H35008   8.463  11.898   8.183  1.1793 -1.1071 -0.8236
  254MOL0     H35009   8.390  12.033   8.068  0.2116 -0.6016 -1.6512
  254MOL0     H35010   8.057  11.821   8.021  0.7980  3.0951 -2.1801
  254MOL0     H35011   7.800  11.835   8.030  0.4897  4.2115 -2.3691
  254MOL0     H35012   7.715  11.956   8.126  0.4927  1.5191  0.7115
  254MOL0     H35013   7.776  11.821   8.213 -0.4087  0.8506  0.1664
  254MOL0     H35014   7.904  12.290   8.650 -0.7414  3.1226 -3.2337
  254MOL0     H35015   7.732  12.377   8.818  0.0197 -1.2728  0.9188
  254MOL0     H35016   7.287  12.367   8.719  4.7714  1.0289 -3.0454
  254MOL0     H35017   7.328  12.195   8.746 -0.8839  0.0633 -0.8267
  254MOL0     H35018   7.191  12.232   8.930 -1.6173  1.1466 -1.5040
  254MOL0     H35019   7.352  12.284   8.999  2.0898 -1.9742 -1.4493
  254MOL0     H35020   7.179  12.487   8.856  0.3164  2.2424 -0.1309
  254MOL0     H35021   7.329  12.508   8.959 -0.5748  1.2693 -2.3916
  254MOL0     H35022   7.212  12.406   9.157 -3.8497  0.9053  2.1116
  254MOL0     H35023   7.066  12.424   9.056 -0.4567  2.5473 -0.1947
  254MOL0     H35024   7.263  12.646   9.141 -1.2674  0.3732  0.1385
  254MOL0     H35025   7.116  12.669   9.041  0.7061 -0.0578 -0.0151
  254MOL0     H35026   7.102  12.716   9.300 -2.0207  0.6990  1.3055
  254MOL0     H35027   7.121  12.553   9.333 -2.3171 -0.4681  1.1233
  254MOL0     H35028   6.921  12.510   9.197  1.8818  0.6094 -2.8389
  254MOL0     H35029   6.875  12.684   9.181 -1.9107 -0.2219  2.0462
  254MOL0     H35030   6.748  12.603   9.364 -0.6143  0.2786  3.0041
  254MOL0     H35031   6.873  12.711   9.435  0.1895  1.4233 -2.2002
  254MOL0     H35032   7.426  12.199   8.579 -0.9937  1.4935  2.2087
  254MOL0     H35033   7.591  12.113   8.429 -1.0537 -0.8532  0.7208
  254MOL0     H35034   8.096  12.165   8.382  1.9396  0.9077 -0.9675
  254MOL0     H35035   8.293  12.065   8.289 -1.8169  1.6990  1.1116
  254MOL0     H35036   8.935  10.649   8.489  1.0583 -2.5346  1.1242
  254MOL0     H35037   8.983  10.425   8.466 -3.2007 -1.5540  1.2956
  254MOL0     H35038   8.888  10.115   8.057  0.6311 -1.0090 -1.4760
  254MOL0     H35039   8.918   9.892   7.981  0.6472 -0.4037 -0.4617
  254MOL0     H35040   9.219   9.625   8.162 -2.2365 -4.9054  1.9542
  254MOL0     H35041   9.131   9.535   8.037  2.4982 -0.4213 -0.7953
  254MOL0     H35042   9.377   9.688   7.961  0.4755 -1.0679  0.6763
  254MOL0     H35043   9.280   9.598   7.852  0.1832  0.8005 -0.9977
  254MOL0     H35044   9.322   9.384   7.952  1.5319 -0.2238  0.6401
  254MOL0     H35045   9.463   9.475   7.923 -0.6956  1.2267 -0.9862
  254MOL0     H35046   9.327   9.453   8.194 -0.6339 -1.1503 -0.4787
  254MOL0     H35047   9.496   9.505   8.162  0.4250 -1.7747  0.0664
  254MOL0     H35048   9.445   9.098   8.268 -1.7667 -0.4155 -1.2010
  254MOL0     H35049   9.297   9.855   8.171 -0.4923  0.3278  4.2595
  254MOL0     H35050   9.345  10.181   8.274 -0.1071  0.1483 -1.0555
  254MOL0     H35051   9.265  10.079   8.407 -0.9266 -1.5503 -0.5758
  254MOL0     H35052   9.382  10.006   8.309 -0.2122 -0.5265  1.1184
  255MOL0     O35053   7.411   3.506   6.704 -0.5628 -0.2311  0.3925
  255MOL0     C35054   7.530   3.475   6.704  0.3777  0.4515  0.2423
  255MOL0     O35055   7.590   3.368   6.638  0.1373 -0.9005  0.8383
  255MOL0     C35056   7.525   3.254   6.598  0.3277  0.3217  0.1656
  255MOL0     C35057   7.595   3.164   6.520  0.5418  0.0835 -0.2149
  255MOL0     C35058   7.543   3.045   6.478  0.3400  0.5515  0.9654
  255MOL0     C35059   7.417   2.999   6.513  0.6581 -0.4950 -1.0073
  255MOL0     O35060   7.358   2.895   6.444 -0.2261 -0.1094  0.2112
  255MOL0     C35061   7.389   2.764   6.496 -0.6088  0.2480  0.3616
  255MOL0     C35062   7.538   2.716   6.481  0.2734 -0.0335  0.2348
  255MOL0     C35063   7.589   2.693   6.340  0.2987  0.1251  0.3164
  255MOL0     C35064   7.738   2.722   6.326  0.0343  1.2422 -1.0063
  255MOL0     C35065   7.830   2.619   6.391  0.2599  0.2225 -0.3984
  255MOL0     C35066   7.972   2.620   6.346  0.1776 -0.3023 -0.8783
  255MOL0     C35067   8.054   2.750   6.362 -0.4999  0.2366 -0.2194
  255MOL0     C35068   8.098   2.762   6.505 -0.6074  0.0293  0.6596
  255MOL0     N35069   8.210   2.673   6.559  0.8918 -0.7221  0.5107
  255MOL0     C35070   8.337   2.694   6.545  0.5853 -0.0030  0.4278
  255MOL0     C35071   8.395   2.573   6.571  0.4252 -0.0616 -1.2680
  255MOL0     C35072   8.546   2.542   6.550  0.0925  0.1531 -0.8353
  255MOL0     C35073   8.598   2.539   6.403 -0.2087 -0.2274 -0.1240
  255MOL0     C35074   8.750   2.548   6.390  0.6681 -0.1280 -0.2149
  255MOL0     C35075   8.776   2.523   6.246 -0.0723 -0.8700  0.6460
  255MOL0     O35076   8.919   2.520   6.221 -0.5890  0.2345 -0.6503
  255MOL0     C35077   8.982   2.626   6.159 -0.6419 -0.4668  0.0453
  255MOL0     C35078   8.937   2.760   6.164 -0.2468 -0.1891 -1.0184
  255MOL0     C35079   9.001   2.864   6.092 -0.4067 -0.5780  0.1049
  255MOL0     C35080   8.942   3.004   6.083  0.2294 -0.1111 -0.6411
  255MOL0     C35081   9.118   2.829   6.011 -0.0475 -0.3258 -1.4578
  255MOL0     C35082   9.196   2.933   5.921 -0.3379  0.6091 -0.1830
  255MOL0     O35083   9.249   2.892   5.803  0.8073  0.2188  0.0845
  255MOL0     C35084   9.364   2.951   5.765  0.0531  0.4365  0.4472
  255MOL0     C35085   9.359   3.067   5.695 -0.2070 -0.1383  1.1445
  255MOL0     C35086   9.476   3.128   5.657 -0.0784  0.6366  0.7938
  255MOL0     C35087   9.599   3.077   5.695 -0.4330  1.0357  0.2678
  255MOL0     O35088   9.721   3.138   5.678 -0.3521 -0.1446 -0.5924
  255MOL0     C35089   9.721   3.263   5.609  0.2286 -0.5014 -0.6639
  255MOL0     C35090   9.855   3.320   5.585  0.4145  0.2711  0.2081
  255MOL0     C35091   9.904   3.407   5.706  0.2560  0.0129  0.4541
  255MOL0     C35092  10.055   3.429   5.699  0.0180 -0.6639  1.0862
  255MOL0     C35093  10.145   3.350   5.789 -0.2133  0.1188 -0.5835
  255MOL0     C35094  10.146   3.203   5.764 -1.0854  0.5226 -0.8049
  255MOL0     C35095  10.260   3.142   5.853  0.3166 -0.2722 -0.1718
  255MOL0     C35096  10.219   3.131   5.999 -0.2549  0.0142  0.2974
  255MOL0    Cl35097  10.348   3.053   6.099  0.1694 -0.7214  0.1350
  255MOL0     C35098   9.608   2.960   5.773  0.1591 -0.4615  0.7335
  255MOL0     C35099   9.483   2.894   5.809 -1.5057  0.4953  0.9200
  255MOL0     O35100   9.202   3.043   5.963 -0.1939  0.1914 -0.2767
  255MOL0     C35101   9.153   2.695   6.011  0.1341 -0.3356  0.8169
  255MOL0     C35102   9.084   2.598   6.078 -0.3760 -0.7133 -0.1712
  255MOL0     N35103   8.301   2.487   6.614  0.9365 -0.7301 -0.2662
  255MOL0     N35104   8.191   2.544   6.604  1.8622 -0.5717 -0.3861
  255MOL0     C35105   7.337   3.076   6.602 -0.4973 -1.5633 -0.5922
  255MOL0     C35106   7.392   3.209   6.645  0.5461 -0.3394  0.6842
  255MOL0     C35107   7.618   3.584   6.746  0.8479  0.6103  0.1381
  255MOL0     C35108   7.758   3.574   6.727  0.7839  0.0993 -0.8175
  255MOL0     C35109   7.847   3.676   6.766  0.8458  0.4138 -0.2247
  255MOL0     C35110   7.792   3.788   6.830  0.4347 -0.7153  0.4557
  255MOL0     O35111   7.871   3.894   6.872  0.2131 -0.4790 -1.2183
  255MOL0     C35112   8.014   3.913   6.846  0.1085  0.3182  0.6478
  255MOL0     C35113   8.030   4.019   6.741 -0.1254  0.1136  0.0078
  255MOL0     C35114   7.967   3.986   6.608 -0.5921 -0.1110  0.8973
  255MOL0     C35115   7.941   4.116   6.522  0.5914 -0.1698 -0.1590
  255MOL0     C35116   7.883   4.079   6.397 -0.8860  0.0970 -0.0260
  255MOL0     C35117   7.832   4.040   6.288  0.0652 -0.4021 -0.2908
  255MOL0     C35118   7.660   3.804   6.847  0.3540 -0.4402  0.0774
  255MOL0     C35119   7.573   3.701   6.810  0.6319  0.1851 -0.2204
  255MOL0     C35120   7.428   3.735   6.847 -0.3139  0.7664 -0.8529
  255MOL0     H35121   7.694   3.190   6.484 -0.8537  3.0808 -2.2697
  255MOL0     H35122   7.613   2.992   6.414  0.6772  2.0210  0.0679
  255MOL0     H35123   7.332   2.690   6.440  0.8744 -0.8659  0.2688
  255MOL0     H35124   7.364   2.755   6.602 -1.0693  1.8746  0.4178
  255MOL0     H35125   7.596   2.786   6.542 -0.5933 -0.0717  1.1327
  255MOL0     H35126   7.549   2.620   6.531  1.1709 -0.1440 -0.1505
  255MOL0     H35127   7.570   2.592   6.302  1.8263 -0.0381 -0.0915
  255MOL0     H35128   7.541   2.772   6.281  3.8670  3.3809  1.2998
  255MOL0     H35129   7.757   2.725   6.218 -1.5180 -4.9103 -1.8628
  255MOL0     H35130   7.764   2.813   6.380 -0.6193  0.2188  1.1557
  255MOL0     H35131   7.796   2.517   6.374  1.1946 -0.4375  1.4281
  255MOL0     H35132   7.818   2.629   6.500  0.4728 -0.1700 -0.3350
  255MOL0     H35133   8.024   2.531   6.385 -2.6093 -0.9954  1.6015
  255MOL0     H35134   7.961   2.603   6.238 -1.9312 -1.7034 -0.5008
  255MOL0     H35135   7.988   2.834   6.337  1.5340  1.0174 -3.5110
  255MOL0     H35136   8.143   2.752   6.298  0.7987  2.1936  1.5056
  255MOL0     H35137   8.120   2.868   6.521 -0.4162  0.1490 -0.3024
  255MOL0     H35138   8.006   2.749   6.563 -1.5921 -0.5983 -0.9789
  255MOL0     H35139   8.386   2.787   6.518 -2.9005  1.7064 -0.6751
  255MOL0     H35140   8.556   2.437   6.576 -1.3059  0.2716  0.3609
  255MOL0     H35141   8.617   2.594   6.615 -3.1893 -0.1022  3.4192
  255MOL0     H35142   8.543   2.455   6.359 -4.2263  2.7056 -1.3112
  255MOL0     H35143   8.569   2.629   6.347  0.2273 -0.3828 -0.6093
  255MOL0     H35144   8.762   2.649   6.432 -0.6442 -0.2166  0.4157
  255MOL0     H35145   8.813   2.475   6.442  1.5397 -1.2546 -2.7009
  255MOL0     H35146   8.731   2.425   6.225  0.3775 -1.0069  0.3010
  255MOL0     H35147   8.727   2.595   6.179 -1.6440 -2.7485 -0.3268
  255MOL0     H35148   8.866   2.787   6.241  0.9370  2.6255 -0.8125
  255MOL0     H35149   8.949   3.039   5.980 -0.2125  1.3422 -0.1887
  255MOL0     H35150   9.015   3.065   6.137  0.2899 -1.5061  0.9438
  255MOL0     H35151   8.839   3.006   6.120  0.8751  3.1327  1.4192
  255MOL0     H35152   9.256   3.084   5.666  0.4496 -3.3576 -4.8769
  255MOL0     H35153   9.467   3.217   5.596  1.0255  1.1870  1.4099
  255MOL0     H35154   9.690   3.240   5.507 -1.4035  0.8673 -0.5100
  255MOL0     H35155   9.650   3.334   5.652  0.8607 -0.9869  1.3001
  255MOL0     H35156   9.917   3.236   5.553 -1.3302 -0.7189 -0.6866
  255MOL0     H35157   9.841   3.387   5.499  1.8966  0.0854 -0.2103
  255MOL0     H35158   9.887   3.345   5.795 -0.6179 -1.5001 -0.7325
  255MOL0     H35159   9.857   3.506   5.701 -0.9768 -0.5140  1.2129
  255MOL0     H35160  10.067   3.536   5.720 -1.2495 -0.4007  0.5636
  255MOL0     H35161  10.096   3.419   5.598  0.0250  1.6130  0.8056
  255MOL0     H35162  10.243   3.397   5.784  0.5276 -1.4597 -1.9579
  255MOL0     H35163  10.115   3.367   5.893 -0.6984  1.0793 -0.8736
  255MOL0     H35164  10.169   3.183   5.659  2.0058 -0.3484 -0.0625
  255MOL0     H35165  10.050   3.163   5.799 -0.2638 -0.3719  0.5170
  255MOL0     H35166  10.343   3.200   5.812 -0.2696  0.0104 -0.9920
  255MOL0     H35167  10.280   3.037   5.826 -1.2389  0.1722 -3.6086
  255MOL0     H35168  10.131   3.067   6.011 -0.5568  0.4790  0.5912
  255MOL0     H35169  10.197   3.231   6.039  0.7057  0.9473 -1.4058
  255MOL0     H35170   9.700   2.926   5.819 -1.3883 -2.3229  2.6994
  255MOL0     H35171   9.493   2.796   5.854  0.9016 -0.2627 -1.0091
  255MOL0     H35172   9.236   2.670   5.945  0.6076 -1.2247  1.7291
  255MOL0     H35173   9.104   2.499   6.039  2.4822  0.7043 -2.6845
  255MOL0     H35174   7.243   3.043   6.644 -1.3942 -1.4942 -2.4146
  255MOL0     H35175   7.321   3.262   6.707  1.6808 -2.2101  3.8238
  255MOL0     H35176   7.807   3.494   6.672  0.2893 -0.9031  0.1872
  255MOL0     H35177   7.954   3.662   6.754  0.7283  1.2106 -2.9919
  255MOL0     H35178   8.055   3.960   6.936  2.8527 -0.6799  0.0289
  255MOL0     H35179   8.072   3.823   6.825  0.0600  0.4814 -0.2303
  255MOL0     H35180   8.138   4.030   6.732 -0.3312  0.5739 -2.8288
  255MOL0     H35181   7.972   4.105   6.777 -1.4404 -0.5167 -0.5236
  255MOL0     H35182   8.047   3.931   6.557  0.3720  1.4244  0.7047
  255MOL0     H35183   7.879   3.922   6.620 -1.8709  1.7987  2.4180
  255MOL0     H35184   8.036   4.168   6.507  1.0208 -1.1727 -1.0486
  255MOL0     H35185   7.875   4.177   6.585  0.5142 -2.2519  1.9266
  255MOL0     H35186   7.794   4.001   6.196 -0.4453  1.0432 -0.7166
  255MOL0     H35187   7.629   3.900   6.887 -0.8066 -0.5928 -0.4174
  255MOL0     H35188   7.423   3.817   6.919  1.6830  0.3816 -0.2174
  255MOL0     H35189   7.372   3.758   6.756 -1.7766 -2.4251 -0.8905
  255MOL0     H35190   7.372   3.654   6.895 -0.8957  1.6344 -0.0272
  256MOL0     O35191   4.639   1.586   0.122 -0.1895 -0.6284 -0.2823
  256MOL0     C35192   4.551   1.670   0.128  0.0718 -0.0829  0.9464
  256MOL0     O35193   4.567   1.789   0.190  0.1426  0.4971 -0.0956
  256MOL0     C35194   4.690   1.824   0.246 -0.4597 -0.8527  0.2615
  256MOL0     C35195   4.680   1.873   0.374 -0.2229 -0.5552 -0.3856
  256MOL0     C35196   4.802   1.912   0.443  1.0462 -1.0421 -0.2988
  256MOL0     C35197   4.925   1.921   0.378 -0.2453  0.1634 -0.3492
  256MOL0     O35198   5.049   1.926   0.431 -0.3803 -0.0464 -0.3206
  256MOL0     C35199   5.057   2.011   0.546 -0.4808  0.4060 -0.8418
  256MOL0     C35200   5.199   2.084   0.529  0.4907  0.8893 -0.4887
  256MOL0     C35201   5.228   2.183   0.652  0.4184 -0.8500  0.3367
  256MOL0     C35202   5.242   2.106   0.781 -0.4379 -1.0437  0.1580
  256MOL0     C35203   5.355   2.145   0.875  0.4442  0.6307  0.2783
  256MOL0     C35204   5.319   2.259   0.975 -0.4770 -0.0272 -0.0376
  256MOL0     C35205   5.335   2.401   0.927 -0.1589  0.2504 -0.2781
  256MOL0     C35206   5.463   2.423   0.847  0.4064 -0.0880  0.1465
  256MOL0     N35207   5.476   2.565   0.807 -0.1246  0.0529 -0.0458
  256MOL0     C35208   5.494   2.670   0.888 -0.4897 -0.5185  0.1788
  256MOL0     C35209   5.527   2.776   0.807  0.1955  0.4636  0.3856
  256MOL0     C35210   5.543   2.913   0.850 -0.4784  0.3518 -0.4100
  256MOL0     C35211   5.644   2.976   0.763 -1.2414 -0.6886 -0.3896
  256MOL0     C35212   5.794   2.952   0.797 -0.5848 -0.9522 -0.9376
  256MOL0     C35213   5.875   3.084   0.792  0.0765 -0.8516  0.3096
  256MOL0     O35214   5.855   3.159   0.663  0.8720  0.5998 -0.0714
  256MOL0     C35215   5.924   3.277   0.639 -0.5886 -0.3404 -0.1982
  256MOL0     C35216   5.987   3.348   0.742  0.9806  0.0567 -0.1565
  256MOL0     C35217   6.061   3.465   0.708 -0.5828  0.2502 -0.1474
  256MOL0     C35218   6.111   3.532   0.828  0.2615 -0.2088 -0.0926
  256MOL0     C35219   6.065   3.512   0.569  0.0690 -0.2767 -0.5082
  256MOL0     C35220   6.145   3.638   0.533  0.9809  0.3185  0.1760
  256MOL0     O35221   6.151   3.682   0.400 -0.2237 -0.1594 -0.6298
  256MOL0     C35222   6.196   3.809   0.370 -0.9513  0.2282 -0.0109
  256MOL0     C35223   6.113   3.919   0.375 -1.5115  0.3619 -0.0323
  256MOL0     C35224   6.162   4.040   0.322  0.3332 -0.1443 -0.5602
  256MOL0     C35225   6.289   4.058   0.266 -0.1711  0.0367 -0.8764
  256MOL0     O35226   6.331   4.166   0.205 -0.1431 -0.0948 -0.3759
  256MOL0     C35227   6.404   4.166   0.081 -0.1557 -0.0604  0.5645
  256MOL0     C35228   6.338   4.255  -0.018  0.1161  1.6466  0.9414
  256MOL0     C35229   6.401   4.387  -0.032  0.6889  0.1869  0.2992
  256MOL0     C35230   6.392   4.473   0.096 -0.8901  1.0404  0.0032
  256MOL0     C35231   6.467   4.604   0.094  0.3403  0.2963  0.8246
  256MOL0     C35232   6.460   4.677   0.232  0.3907  0.3481 -0.1718
  256MOL0     C35233   6.563   4.789   0.250  1.1006  0.0068 -0.7488
  256MOL0     C35234   6.559   4.863   0.394  0.5096  0.2206 -0.2541
  256MOL0    Cl35235   6.408   4.951   0.428  0.5573 -0.2668 -0.2542
  256MOL0     C35236   6.377   3.939   0.274 -0.3094 -0.1565  1.2002
  256MOL0     C35237   6.327   3.815   0.311  1.0889 -0.3779  1.0998
  256MOL0     O35238   6.204   3.697   0.623 -0.5625  0.2598 -0.2813
  256MOL0     C35239   6.006   3.426   0.472  0.9554  0.3108 -0.0682
  256MOL0     C35240   5.934   3.312   0.506  0.0631  0.3183  0.0954
  256MOL0     N35241   5.531   2.730   0.675  0.9006 -0.4382  0.0159
  256MOL0     N35242   5.503   2.599   0.680 -0.2182  0.9734 -0.0063
  256MOL0     C35243   4.924   1.866   0.246 -0.9453  0.1500  1.1394
  256MOL0     C35244   4.812   1.817   0.184 -0.1413  0.2053 -0.1172
  256MOL0     C35245   4.417   1.647   0.073  0.9156 -0.6914 -0.2436
  256MOL0     C35246   4.311   1.739   0.096  0.8103  0.0240 -0.1210
  256MOL0     C35247   4.178   1.718   0.078 -0.1834 -0.0375  0.7734
  256MOL0     C35248   4.145   1.603   0.003 -0.7169 -0.0738  0.4769
  256MOL0     O35249   4.013   1.561  -0.032  0.0910  0.5033  0.7592
  256MOL0     C35250   3.912   1.661  -0.031 -0.8439  0.5857  0.1393
  256MOL0     C35251   3.849   1.679   0.109 -0.2382  1.3190  0.7482
  256MOL0     C35252   3.802   1.545   0.172 -0.0189  1.2568 -0.3517
  256MOL0     C35253   3.736   1.559   0.306  0.8869 -0.1217 -0.1678
  256MOL0     C35254   3.817   1.585   0.423 -0.6194  0.3090  0.0100
  256MOL0     C35255   3.900   1.593   0.512 -0.0769 -0.8319  0.6854
  256MOL0     C35256   4.237   1.510  -0.043  0.4796 -0.6856 -1.3009
  256MOL0     C35257   4.368   1.531  -0.009 -0.6079  0.5029 -0.4996
  256MOL0     C35258   4.467   1.422  -0.045 -0.0940  0.1677  0.7794
  256MOL0     H35259   4.585   1.872   0.425  0.1973  0.2809  0.4412
  256MOL0     H35260   4.799   1.928   0.550 -1.3267 -0.2188 -0.4163
  256MOL0     H35261   5.054   1.942   0.630 -1.7197  1.1965 -0.1984
  256MOL0     H35262   4.973   2.080   0.558 -0.9082  0.1275 -2.0398
  256MOL0     H35263   5.284   2.016   0.518  0.0963  0.3174 -0.0696
  256MOL0     H35264   5.194   2.142   0.436 -2.3811  1.0798 -0.3227
  256MOL0     H35265   5.321   2.232   0.621 -0.0836 -0.0786  0.0248
  256MOL0     H35266   5.149   2.259   0.646 -1.4610 -2.7056  0.4145
  256MOL0     H35267   5.146   2.102   0.833  0.9943 -0.3272  3.0232
  256MOL0     H35268   5.264   2.006   0.743 -0.3540 -1.0707  0.2763
  256MOL0     H35269   5.459   2.153   0.842  1.2368 -0.2784  2.3193
  256MOL0     H35270   5.364   2.054   0.935 -2.5380  0.8530  1.2129
  256MOL0     H35271   5.219   2.248   1.017 -0.3139 -0.5924  0.2071
  256MOL0     H35272   5.377   2.244   1.066  0.7239 -0.8170 -0.9054
  256MOL0     H35273   5.332   2.468   1.013 -3.1028 -1.2337  0.9042
  256MOL0     H35274   5.245   2.423   0.870 -0.0555 -0.9661 -0.9443
  256MOL0     H35275   5.550   2.417   0.912  2.7441  2.9276 -2.3756
  256MOL0     H35276   5.488   2.363   0.759  3.2128  2.7046 -1.1406
  256MOL0     H35277   5.478   2.656   0.994 -0.5721  0.5687  0.3209
  256MOL0     H35278   5.561   2.916   0.958 -2.3061  2.5274 -0.0746
  256MOL0     H35279   5.447   2.959   0.824 -0.4021  0.1469 -1.0685
  256MOL0     H35280   5.634   2.956   0.656  2.6544  0.5428 -1.1772
  256MOL0     H35281   5.622   3.083   0.768 -1.4836 -0.7528 -0.0692
  256MOL0     H35282   5.801   2.908   0.896 -3.4802  1.1321  0.3566
  256MOL0     H35283   5.847   2.880   0.735  3.5139 -4.2118  5.4000
  256MOL0     H35284   5.828   3.150   0.865 -1.2064  0.6687 -1.7616
  256MOL0     H35285   5.978   3.071   0.824  1.1805  1.9130 -1.6915
  256MOL0     H35286   5.969   3.318   0.844 -0.2310 -0.8385 -0.6174
  256MOL0     H35287   6.080   3.637   0.830  0.3850 -0.1682 -0.2659
  256MOL0     H35288   6.220   3.525   0.830  0.3794  1.4686  1.5881
  256MOL0     H35289   6.083   3.483   0.921  0.1215 -2.1448 -1.1049
  256MOL0     H35290   6.015   3.924   0.419 -1.5027  1.1147 -0.0936
  256MOL0     H35291   6.094   4.125   0.322 -0.6196 -0.8538  1.2628
  256MOL0     H35292   6.506   4.202   0.091  1.0512 -2.0460 -2.7829
  256MOL0     H35293   6.405   4.066   0.035  0.4011  1.6393 -3.4998
  256MOL0     H35294   6.337   4.207  -0.116  0.0939  0.1508  1.6541
  256MOL0     H35295   6.235   4.274   0.011  0.1328  3.2660  0.0663
  256MOL0     H35296   6.361   4.436  -0.122  3.1207  1.5495 -0.1308
  256MOL0     H35297   6.507   4.380  -0.054  0.0207 -0.6977 -3.3307
  256MOL0     H35298   6.442   4.412   0.172  0.0579 -0.0379 -1.4262
  256MOL0     H35299   6.287   4.490   0.122 -1.1371 -2.8166  2.2274
  256MOL0     H35300   6.568   4.573   0.066 -0.1292  0.2446 -0.9772
  256MOL0     H35301   6.434   4.664   0.009 -0.7482 -2.1501 -0.6033
  256MOL0     H35302   6.454   4.607   0.315  0.8701 -0.5434 -0.8625
  256MOL0     H35303   6.362   4.724   0.241  0.8296  1.3826 -0.5866
  256MOL0     H35304   6.567   4.862   0.169  1.0227 -0.2353 -0.9728
  256MOL0     H35305   6.664   4.747   0.246  1.2445  0.4457 -1.8711
  256MOL0     H35306   6.643   4.933   0.395  1.7943 -1.2456 -0.9927
  256MOL0     H35307   6.578   4.790   0.473 -0.0176  0.3704  0.0129
  256MOL0     H35308   6.473   3.960   0.228 -0.8507 -0.0720  0.0860
  256MOL0     H35309   6.383   3.725   0.288 -1.1758 -1.4615 -0.5618
  256MOL0     H35310   6.008   3.456   0.368  1.2836 -2.4774 -0.9355
  256MOL0     H35311   5.872   3.258   0.435 -1.2546  0.6862  0.9258
  256MOL0     H35312   5.020   1.861   0.195 -0.3815 -2.5208  2.3121
  256MOL0     H35313   4.813   1.772   0.085  0.5213 -1.4481  0.6199
  256MOL0     H35314   4.336   1.831   0.148  0.7194  0.4368 -0.7856
  256MOL0     H35315   4.107   1.797   0.102 -0.9563  0.1617 -1.8761
  256MOL0     H35316   3.949   1.757  -0.069 -0.4135  1.0408  1.5967
  256MOL0     H35317   3.827   1.633  -0.093  1.1999  0.6511 -2.9207
  256MOL0     H35318   3.765   1.748   0.097 -0.4444  0.8473 -0.8434
  256MOL0     H35319   3.919   1.729   0.177 -0.9875  0.6417  2.0522
  256MOL0     H35320   3.738   1.484   0.108 -0.6669 -0.1975  1.5885
  256MOL0     H35321   3.886   1.475   0.181 -2.2820 -1.7025 -0.9091
  256MOL0     H35322   3.686   1.462   0.321 -2.2054  1.0715 -1.8853
  256MOL0     H35323   3.665   1.642   0.315 -0.3117 -1.1699  0.5908
  256MOL0     H35324   3.976   1.604   0.586 -0.1295 -0.0418  0.6297
  256MOL0     H35325   4.206   1.417  -0.089  0.4080 -1.5351  0.3737
  256MOL0     H35326   4.423   1.354  -0.118  0.7715  3.4849 -3.1895
  256MOL0     H35327   4.559   1.465  -0.086  0.4851  0.3773  2.2342
  256MOL0     H35328   4.492   1.360   0.043 -0.7838  0.4429  1.1728
  257MOL0     O35329   4.342   9.791   3.705 -0.6273 -0.4761 -0.2538
  257MOL0     C35330   4.342   9.671   3.675 -0.1229  0.2736 -0.2856
  257MOL0     O35331   4.259   9.615   3.589  0.9463  0.5822 -0.2777
  257MOL0     C35332   4.168   9.685   3.507  0.1894 -0.4849 -0.2412
  257MOL0     C35333   4.202   9.808   3.443  0.4044  0.6794  0.2654
  257MOL0     C35334   4.098   9.870   3.365 -0.5990 -0.0552 -0.0201
  257MOL0     C35335   3.976   9.814   3.347  0.0031 -0.0523 -0.4714
  257MOL0     O35336   3.878   9.855   3.253 -0.0119  0.3457 -0.5910
  257MOL0     C35337   3.909   9.950   3.154  0.3784  0.1798 -0.6533
  257MOL0     C35338   3.810   9.951   3.046  0.1917 -0.2756  0.2203
  257MOL0     C35339   3.669   9.957   3.102  1.1302  0.4452 -0.5236
  257MOL0     C35340   3.579   9.993   2.989  0.4967  0.8738  0.3268
  257MOL0     C35341   3.434   9.957   3.051 -0.4073  0.0719  0.0233
  257MOL0     C35342   3.304  10.027   3.008 -0.6574  0.7068 -0.1787
  257MOL0     C35343   3.260  10.011   2.864 -0.5524  0.0717 -0.6257
  257MOL0     C35344   3.142  10.105   2.846 -0.9045  0.2520  0.1448
  257MOL0     N35345   3.054  10.071   2.732  0.2630 -0.8072 -0.5296
  257MOL0     C35346   3.091  10.047   2.602  0.1434  0.6061 -0.5339
  257MOL0     C35347   2.977  10.036   2.538  1.0171 -0.1454 -0.1002
  257MOL0     C35348   2.948   9.998   2.394  0.1520  0.4670  0.4092
  257MOL0     C35349   3.081   9.979   2.314  1.0226  0.2255  0.3529
  257MOL0     C35350   3.047   9.923   2.175  0.2789 -0.1749 -0.1744
  257MOL0     C35351   3.175   9.923   2.099 -0.0794 -0.2784  0.8961
  257MOL0     O35352   3.229  10.057   2.086  0.6272  0.1961  0.6972
  257MOL0     C35353   3.356  10.085   2.067 -0.4718 -0.9198 -0.9600
  257MOL0     C35354   3.439  10.000   1.999 -0.8568  0.3879  0.1250
  257MOL0     C35355   3.573  10.037   1.979  0.0734  0.6981  0.0899
  257MOL0     C35356   3.660   9.939   1.907  0.8015 -0.6854  0.1600
  257MOL0     C35357   3.626  10.155   2.049  0.1729  0.6357  0.1664
  257MOL0     C35358   3.765  10.195   2.049  0.0392 -0.8162  0.1717
  257MOL0     O35359   3.856  10.137   1.956  0.1152  1.2048 -0.0454
  257MOL0     C35360   3.988  10.169   1.994  0.4778 -0.5931  0.0581
  257MOL0     C35361   4.055  10.285   1.946 -0.0087  0.4895 -0.2073
  257MOL0     C35362   4.190  10.301   1.955 -0.1762  0.3210  0.0119
  257MOL0     C35363   4.266  10.206   2.017 -0.3287  0.0436 -0.0444
  257MOL0     O35364   4.403  10.238   2.029 -0.3908 -0.0537 -1.1081
  257MOL0     C35365   4.481  10.133   2.087 -1.8000  0.4590  0.4194
  257MOL0     C35366   4.630  10.173   2.131 -0.1234  0.3943 -0.1355
  257MOL0     C35367   4.716  10.198   2.012 -0.4381 -0.7187 -0.5674
  257MOL0     C35368   4.856  10.235   2.065  0.4206  0.5255  0.0194
  257MOL0     C35369   4.933  10.263   1.941 -0.2634  0.2311 -0.2673
  257MOL0     C35370   4.974  10.146   1.855 -0.0473  0.6633  0.4099
  257MOL0     C35371   5.089  10.194   1.752 -0.3524  0.6325  0.0098
  257MOL0     C35372   5.088  10.112   1.625 -0.1190  1.0721  0.0379
  257MOL0    Cl35373   5.237  10.135   1.537 -0.0358  0.1103  0.2981
  257MOL0     C35374   4.207  10.097   2.082  0.2608  0.1908  0.4751
  257MOL0     C35375   4.065  10.078   2.058 -0.8554 -0.5643  0.5631
  257MOL0     O35376   3.789  10.306   2.100  0.9261  0.4536 -1.0250
  257MOL0     C35377   3.535  10.222   2.128 -0.1006 -0.1611 -0.0209
  257MOL0     C35378   3.406  10.191   2.138  0.0743 -0.6188  0.1187
  257MOL0     N35379   2.869  10.047   2.628 -0.0621 -0.4430 -0.0311
  257MOL0     N35380   2.921  10.080   2.738 -1.0256 -0.7947 -0.0764
  257MOL0     C35381   3.942   9.698   3.417  0.2869 -0.4034  0.2438
  257MOL0     C35382   4.040   9.633   3.501  0.1577  0.1155  0.6864
  257MOL0     C35383   4.440   9.585   3.738  0.8043  0.1221 -0.4123
  257MOL0     C35384   4.396   9.463   3.786  0.2670  1.1414  0.3057
  257MOL0     C35385   4.478   9.359   3.818  0.8653 -0.0176 -0.3629
  257MOL0     C35386   4.613   9.378   3.811 -0.0650 -0.3205  0.3775
  257MOL0     O35387   4.698   9.272   3.832  0.2183 -0.0358  0.1387
  257MOL0     C35388   4.672   9.155   3.911 -0.0694 -0.5260  0.9334
  257MOL0     C35389   4.658   9.177   4.058 -0.1516 -0.4658  0.2077
  257MOL0     C35390   4.762   9.279   4.117  0.6739 -0.2894  0.4276
  257MOL0     C35391   4.900   9.203   4.145 -0.0250 -0.6645  0.1962
  257MOL0     C35392   4.884   9.113   4.264  0.6163 -0.1768 -0.4073
  257MOL0     C35393   4.879   9.054   4.370 -0.0547 -0.2364  0.0702
  257MOL0     C35394   4.664   9.496   3.761 -0.1530  0.1738  0.6699
  257MOL0     C35395   4.580   9.605   3.726  0.5842  0.1304 -0.3419
  257MOL0     C35396   4.647   9.723   3.665  0.4458  0.0202 -0.5468
  257MOL0     H35397   4.303   9.845   3.437  0.2662  1.0784  0.3494
  257MOL0     H35398   4.125   9.954   3.302 -1.8141 -0.4480 -1.1160
  257MOL0     H35399   4.009   9.943   3.109  1.4986  3.8195  0.8879
  257MOL0     H35400   3.919  10.045   3.208  1.6604 -0.7742  0.8668
  257MOL0     H35401   3.827  10.040   2.985 -3.2716  1.6035  1.7147
  257MOL0     H35402   3.818   9.866   2.977 -0.6877  0.0823 -0.3365
  257MOL0     H35403   3.639   9.861   3.146 -0.0797  1.7722  1.7055
  257MOL0     H35404   3.665  10.026   3.186 -0.8879 -0.1317 -0.1057
  257MOL0     H35405   3.598  10.096   2.957  2.2306  0.2609 -0.7361
  257MOL0     H35406   3.599   9.937   2.897  1.1155 -1.8642  2.0214
  257MOL0     H35407   3.436   9.971   3.160 -0.1634  0.8411 -0.0719
  257MOL0     H35408   3.420   9.853   3.023  0.7903 -1.2761  3.7996
  257MOL0     H35409   3.223   9.990   3.071  0.0967 -0.1645  0.3162
  257MOL0     H35410   3.324  10.130   3.040  1.7486 -0.0982  1.1928
  257MOL0     H35411   3.218   9.911   2.851  1.1736 -1.5442  4.0562
  257MOL0     H35412   3.342  10.053   2.805  1.8575  0.5634  2.7306
  257MOL0     H35413   3.080  10.117   2.935  0.8953 -0.1192  1.5183
  257MOL0     H35414   3.181  10.207   2.839 -1.8900  0.6277  0.0358
  257MOL0     H35415   3.188  10.026   2.560  0.3032 -1.1064  0.5764
  257MOL0     H35416   2.879  10.074   2.357 -2.0884 -0.8606  1.6873
  257MOL0     H35417   2.894   9.903   2.395 -0.6458  0.8678 -1.2479
  257MOL0     H35418   3.111  10.084   2.308  0.1220  0.5911  1.7566
  257MOL0     H35419   3.153   9.919   2.370  2.5980 -1.1323 -2.8837
  257MOL0     H35420   3.013   9.819   2.175  2.2311 -0.8546 -0.5192
  257MOL0     H35421   2.971   9.983   2.124  0.7052 -0.3740 -1.0565
  257MOL0     H35422   3.249   9.850   2.131  0.9306 -0.2472 -1.2068
  257MOL0     H35423   3.146   9.889   1.999 -0.7549  1.1465  0.5708
  257MOL0     H35424   3.404   9.910   1.950 -3.0317  1.5325 -0.5436
  257MOL0     H35425   3.608   9.847   1.877 -0.4533 -0.2202  0.8321
  257MOL0     H35426   3.750   9.913   1.965  0.3834 -1.0304  0.6626
  257MOL0     H35427   3.700   9.989   1.818  0.0331 -0.6988 -0.1960
  257MOL0     H35428   3.995  10.362   1.897  0.7142  1.3658  0.2412
  257MOL0     H35429   4.226  10.393   1.912  0.9928  0.0885  0.4623
  257MOL0     H35430   4.431  10.097   2.177  0.9334 -1.9481  1.1138
  257MOL0     H35431   4.474  10.057   2.009 -3.1081  0.0135  0.9412
  257MOL0     H35432   4.622  10.265   2.189  0.3878  1.0142 -1.0057
  257MOL0     H35433   4.678  10.104   2.200  1.7029  0.9747 -0.7674
  257MOL0     H35434   4.669  10.274   1.949 -3.4601  0.7018  3.0357
  257MOL0     H35435   4.724  10.104   1.956  1.2607 -0.4656 -0.8126
  257MOL0     H35436   4.914  10.168   2.130 -1.6238  0.1129  1.5328
  257MOL0     H35437   4.858  10.336   2.107  1.4617  0.0574  1.1764
  257MOL0     H35438   4.875  10.329   1.877 -0.5957  0.7020  0.5019
  257MOL0     H35439   5.018  10.326   1.965 -1.1640  1.2204  0.3959
  257MOL0     H35440   4.881  10.124   1.801  0.4997  0.1348 -0.3371
  257MOL0     H35441   5.005  10.056   1.908  0.3893  0.6595  0.1514
  257MOL0     H35442   5.185  10.173   1.799 -1.2738  2.0088  2.7482
  257MOL0     H35443   5.066  10.300   1.736  0.8213  0.6852 -1.6012
  257MOL0     H35444   5.016  10.152   1.553  2.2404  0.7460 -2.6982
  257MOL0     H35445   5.080  10.005   1.644  1.1753  0.8915 -0.3273
  257MOL0     H35446   4.251  10.023   2.149 -1.7863  0.3358  2.0912
  257MOL0     H35447   4.015   9.984   2.082  1.3233 -2.0670 -0.4079
  257MOL0     H35448   3.563  10.320   2.166  1.1200 -0.8763  0.9821
  257MOL0     H35449   3.347  10.262   2.196 -0.4293  0.0356 -1.1629
  257MOL0     H35450   3.845   9.651   3.411 -1.5865  2.8302  2.3978
  257MOL0     H35451   4.022   9.543   3.558  5.5021 -1.4989  0.3620
  257MOL0     H35452   4.291   9.436   3.793 -0.0231  1.0142 -3.1085
  257MOL0     H35453   4.437   9.261   3.838  1.4798 -0.9445 -3.1806
  257MOL0     H35454   4.585   9.104   3.870 -0.3281  1.2894 -0.9505
  257MOL0     H35455   4.759   9.092   3.891 -1.6478 -2.0018 -1.8560
  257MOL0     H35456   4.681   9.087   4.117 -0.5214 -0.1589  0.8307
  257MOL0     H35457   4.552   9.197   4.078  0.6832  2.5400  2.2761
  257MOL0     H35458   4.769   9.372   4.059  0.3702 -1.0491 -0.8735
  257MOL0     H35459   4.726   9.307   4.216 -1.1423 -1.3821  0.1159
  257MOL0     H35460   4.976   9.274   4.178  1.7997 -0.8254 -3.1370
  257MOL0     H35461   4.952   9.161   4.058  0.7514 -1.5790  1.0826
  257MOL0     H35462   4.865   8.998   4.460 -1.9007  1.4451  0.9010
  257MOL0     H35463   4.771   9.500   3.745 -0.4042 -0.5986 -1.4394
  257MOL0     H35464   4.604   9.819   3.694  1.2899  0.7885 -1.7589
  257MOL0     H35465   4.754   9.729   3.684  0.0140  2.1208  1.7020
  257MOL0     H35466   4.614   9.717   3.561 -4.7470  0.3621  0.7984
  258MOL0     O35467   5.171   1.508   8.817 -0.0161 -0.5522 -0.2910
  258MOL0     C35468   5.247   1.418   8.852  0.6997 -0.2705 -0.4279
  258MOL0     O35469   5.233   1.286   8.815  0.9196  0.4149  0.7628
  258MOL0     C35470   5.141   1.251   8.718  0.4403 -0.1631  0.6971
  258MOL0     C35471   5.001   1.284   8.722 -0.0555  0.3559 -0.4002
  258MOL0     C35472   4.909   1.231   8.632 -0.0734  0.4218  0.2085
  258MOL0     C35473   4.957   1.170   8.512 -0.7632 -0.7849  0.1789
  258MOL0     O35474   4.897   1.153   8.393  0.0381 -0.7995 -0.1279
  258MOL0     C35475   4.763   1.196   8.387  0.4114 -0.0932 -0.4926
  258MOL0     C35476   4.676   1.088   8.433 -0.0656  0.7528 -0.6335
  258MOL0     C35477   4.526   1.124   8.417 -0.6612  0.8315  0.7395
  258MOL0     C35478   4.452   1.008   8.350 -0.5960 -0.3732 -0.7514
  258MOL0     C35479   4.482   1.006   8.206  0.9339  0.0766 -0.4716
  258MOL0     C35480   4.457   1.125   8.108 -0.2798  0.4678 -0.3280
  258MOL0     C35481   4.427   1.097   7.959 -0.8456 -1.1585 -0.0690
  258MOL0     C35482   4.540   1.014   7.891 -0.1573  0.2218 -0.4810
  258MOL0     N35483   4.671   1.086   7.887  0.0387  0.0350 -0.3072
  258MOL0     C35484   4.704   1.200   7.814 -0.6301 -0.2852  0.0859
  258MOL0     C35485   4.825   1.240   7.861 -0.1762 -0.7077 -0.3788
  258MOL0     C35486   4.891   1.366   7.808  0.5831  0.1523 -1.1005
  258MOL0     C35487   4.928   1.359   7.665 -0.0429  0.5081 -0.4138
  258MOL0     C35488   5.032   1.455   7.610 -0.2105 -0.3776 -0.9224
  258MOL0     C35489   5.163   1.415   7.656 -1.1819 -0.2175 -0.0556
  258MOL0     O35490   5.230   1.544   7.653 -0.1276 -0.4767 -0.5228
  258MOL0     C35491   5.333   1.570   7.747 -0.4054  0.5829 -0.1483
  258MOL0     C35492   5.459   1.611   7.695  0.1250  0.8128  0.1746
  258MOL0     C35493   5.570   1.624   7.780  1.4348 -0.6091 -0.5084
  258MOL0     C35494   5.691   1.651   7.703 -0.5494 -1.0335 -0.0013
  258MOL0     C35495   5.557   1.627   7.922  0.3006  0.4594 -0.0432
  258MOL0     C35496   5.669   1.652   8.022 -0.2193 -0.2138  0.6846
  258MOL0     O35497   5.652   1.611   8.149 -0.1023  0.2301  0.1491
  258MOL0     C35498   5.750   1.642   8.241 -0.3275  0.6112  0.1063
  258MOL0     C35499   5.761   1.545   8.337  0.7173 -0.9771 -0.7643
  258MOL0     C35500   5.856   1.553   8.441  0.0786 -0.6554 -0.1028
  258MOL0     C35501   5.941   1.667   8.448 -0.0986  0.0158  0.1790
  258MOL0     O35502   6.030   1.662   8.552 -0.3278  0.3713 -0.2530
  258MOL0     C35503   6.141   1.749   8.543 -0.2253  0.3128 -0.3306
  258MOL0     C35504   6.230   1.709   8.662 -1.0595 -0.1380  0.6364
  258MOL0     C35505   6.318   1.581   8.669  0.0666 -0.3629  0.6228
  258MOL0     C35506   6.434   1.595   8.770  0.3723 -0.3560 -0.1214
  258MOL0     C35507   6.492   1.458   8.804  0.8689 -0.0643  0.6974
  258MOL0     C35508   6.597   1.447   8.912  0.1021 -0.3275  0.5985
  258MOL0     C35509   6.716   1.540   8.883  0.0101 -0.1494 -0.2578
  258MOL0     C35510   6.827   1.518   8.985 -0.0637 -0.0604 -0.3590
  258MOL0    Cl35511   6.875   1.346   8.988  0.2494 -0.1754 -0.2320
  258MOL0     C35512   5.913   1.774   8.364 -0.7454  0.1278  0.3002
  258MOL0     C35513   5.828   1.762   8.261 -0.0435  0.8919  0.7205
  258MOL0     O35514   5.772   1.697   7.977  0.1005 -0.8061  0.1707
  258MOL0     C35515   5.424   1.608   7.969 -1.2311  0.3363  0.3475
  258MOL0     C35516   5.319   1.591   7.885 -0.4862  0.0477  0.8884
  258MOL0     N35517   4.863   1.149   7.965  0.2765  0.1592  0.2106
  258MOL0     N35518   4.773   1.063   7.971 -0.4783  0.6175 -1.1303
  258MOL0     C35519   5.095   1.148   8.505 -0.8335  0.0935 -0.6369
  258MOL0     C35520   5.189   1.174   8.608  0.2675 -0.0451  0.7054
  258MOL0     C35521   5.386   1.456   8.903  0.4420 -0.3860  0.3519
  258MOL0     C35522   5.483   1.358   8.901 -1.0432  0.4856 -0.0963
  258MOL0     C35523   5.610   1.386   8.957  0.1396  0.9826 -0.1895
  258MOL0     C35524   5.645   1.504   9.029  1.0845 -0.3499  0.2525
  258MOL0     O35525   5.762   1.544   9.076 -0.0485  0.7474  0.4910
  258MOL0     C35526   5.880   1.458   9.055  0.3687 -0.1749  0.0177
  258MOL0     C35527   5.931   1.490   8.920  0.0659  0.0316  0.8124
  258MOL0     C35528   6.042   1.408   8.858 -0.4884 -0.3474  0.0056
  258MOL0     C35529   6.000   1.263   8.834  0.9343 -0.5919 -0.1904
  258MOL0     C35530   5.884   1.235   8.751  0.6082 -0.0245  0.1598
  258MOL0     C35531   5.783   1.237   8.682  0.4901  0.1952  0.0993
  258MOL0     C35532   5.537   1.602   9.031 -0.6110  0.7127 -0.8226
  258MOL0     C35533   5.413   1.580   8.964  0.1914 -0.6127  0.0421
  258MOL0     C35534   5.314   1.692   8.997  0.8088 -0.6638  0.3550
  258MOL0     H35535   4.964   1.327   8.815 -1.3656 -2.7074  0.6539
  258MOL0     H35536   4.802   1.248   8.638 -0.4221 -0.5157 -2.1874
  258MOL0     H35537   4.739   1.218   8.283  1.4873  3.5980 -0.1052
  258MOL0     H35538   4.737   1.285   8.445  0.6438  0.0210 -0.5620
  258MOL0     H35539   4.700   1.001   8.370  1.2101  0.4093  0.2941
  258MOL0     H35540   4.702   1.079   8.538  2.4148  2.5734 -1.0135
  258MOL0     H35541   4.474   1.136   8.512  1.2043 -1.6353  2.1917
  258MOL0     H35542   4.512   1.211   8.352  1.3935 -0.6030 -1.8639
  258MOL0     H35543   4.478   0.912   8.396 -1.1265 -1.8499 -3.3500
  258MOL0     H35544   4.343   1.018   8.350 -0.9533 -2.5634  2.5310
  258MOL0     H35545   4.413   0.927   8.174  0.3939  0.2542  0.2337
  258MOL0     H35546   4.584   0.970   8.192  0.5859 -0.6323 -1.3065
  258MOL0     H35547   4.377   1.181   8.157 -0.4523  1.6231 -1.8694
  258MOL0     H35548   4.544   1.191   8.114 -1.6163  2.1832  1.6321
  258MOL0     H35549   4.425   1.194   7.909  2.9855 -1.7300 -1.6807
  258MOL0     H35550   4.334   1.040   7.946 -2.0172  0.8959 -1.0274
  258MOL0     H35551   4.548   0.918   7.943  1.8072  0.9220  0.5799
  258MOL0     H35552   4.503   0.997   7.789 -1.3284  0.3644 -0.0875
  258MOL0     H35553   4.661   1.250   7.728  3.5010  4.3717  0.2342
  258MOL0     H35554   4.972   1.406   7.870 -0.5958  2.2419 -0.8103
  258MOL0     H35555   4.820   1.448   7.817  3.1991  2.3037  3.0193
  258MOL0     H35556   4.956   1.254   7.655  1.1556  0.5924  1.5915
  258MOL0     H35557   4.837   1.386   7.610 -0.4233  2.1627  0.9409
  258MOL0     H35558   5.034   1.442   7.501 -1.6683  0.1349 -1.0284
  258MOL0     H35559   5.014   1.560   7.635  1.7680 -0.5316  1.6172
  258MOL0     H35560   5.174   1.368   7.754  0.2915  1.3555  0.5974
  258MOL0     H35561   5.211   1.351   7.582 -1.0571  1.4239 -1.4570
  258MOL0     H35562   5.464   1.620   7.587  0.2657  0.0310  0.1102
  258MOL0     H35563   5.700   1.620   7.599  0.1260  0.8832 -0.5647
  258MOL0     H35564   5.777   1.599   7.746 -0.0283  0.0028  0.2338
  258MOL0     H35565   5.697   1.760   7.704 -3.6346 -0.6920  3.5747
  258MOL0     H35566   5.697   1.457   8.335 -2.2973  1.0253  0.3841
  258MOL0     H35567   5.872   1.478   8.517  1.7450 -0.3016 -0.0703
  258MOL0     H35568   6.197   1.746   8.449  0.4625 -2.4657  0.0825
  258MOL0     H35569   6.109   1.853   8.559 -0.4539  0.0372  1.1657
  258MOL0     H35570   6.302   1.792   8.658 -0.5197 -0.6439 -2.4786
  258MOL0     H35571   6.181   1.708   8.760  0.7337 -1.6405  1.5601
  258MOL0     H35572   6.363   1.560   8.571  1.8095  4.2188  0.1797
  258MOL0     H35573   6.253   1.497   8.695  0.7892 -2.3873 -3.3899
  258MOL0     H35574   6.394   1.631   8.864  1.7227  1.1858 -0.0919
  258MOL0     H35575   6.503   1.675   8.741 -1.6332  1.4537 -0.1078
  258MOL0     H35576   6.408   1.392   8.824 -0.7934  2.1473  1.4214
  258MOL0     H35577   6.551   1.420   8.720  1.6364 -1.0226  1.6435
  258MOL0     H35578   6.636   1.345   8.914  1.6463  0.2019  3.5201
  258MOL0     H35579   6.551   1.464   9.010  1.7379 -2.8911  1.9507
  258MOL0     H35580   6.681   1.644   8.884 -1.1401 -0.4934 -1.3310
  258MOL0     H35581   6.759   1.513   8.786 -1.3563  2.4328 -1.7023
  258MOL0     H35582   6.793   1.546   9.085  2.8722  2.4951  0.0930
  258MOL0     H35583   6.911   1.585   8.964 -0.3309  0.7907  1.1364
  258MOL0     H35584   5.960   1.872   8.365 -0.9430  0.2211  0.3451
  258MOL0     H35585   5.820   1.840   8.185  1.8495  2.2273  1.8110
  258MOL0     H35586   5.394   1.619   8.072 -0.1581  2.7844  0.4782
  258MOL0     H35587   5.218   1.580   7.925 -0.5778 -0.2468  0.5774
  258MOL0     H35588   5.140   1.111   8.413  2.0812 -0.0380  0.7243
  258MOL0     H35589   5.293   1.156   8.584  0.3020  0.2438  0.6386
  258MOL0     H35590   5.468   1.256   8.868  1.9993 -0.2209  0.4448
  258MOL0     H35591   5.684   1.307   8.944 -0.4709  0.5574 -1.1200
  258MOL0     H35592   5.948   1.493   9.133  2.0686  1.0563 -1.8946
  258MOL0     H35593   5.852   1.353   9.067  2.8506 -0.8007  1.0655
  258MOL0     H35594   5.959   1.596   8.914 -1.9383  0.6075  1.0732
  258MOL0     H35595   5.849   1.475   8.849  0.6826 -0.1465  0.1212
  258MOL0     H35596   6.064   1.445   8.757  2.4415 -3.2548 -0.6003
  258MOL0     H35597   6.132   1.420   8.919 -0.0770  0.9617 -0.8034
  258MOL0     H35598   5.965   1.226   8.931  0.5025  0.8394  0.2231
  258MOL0     H35599   6.081   1.204   8.791  0.6865  0.0679 -1.6306
  258MOL0     H35600   5.687   1.234   8.633 -1.4067 -2.9356  3.4567
  258MOL0     H35601   5.542   1.685   9.102 -0.3072 -2.6560  3.4866
  258MOL0     H35602   5.353   1.786   8.959 -0.8690  2.1001  4.6634
  258MOL0     H35603   5.210   1.668   8.970  0.1826  0.4619  1.6388
  258MOL0     H35604   5.311   1.698   9.106 -0.1918  2.4022  0.2526
  259MOL0     O35605   4.238  10.887   3.058  0.9110  0.1808  0.5759
  259MOL0     C35606   4.266  10.985   3.127 -0.6884  1.0850  0.3576
  259MOL0     O35607   4.207  11.029   3.241  0.0973  0.3987  0.7137
  259MOL0     C35608   4.130  10.940   3.309  1.2355  0.0010 -0.3093
  259MOL0     C35609   4.148  10.932   3.455  0.1883 -0.2776  0.0991
  259MOL0     C35610   4.074  10.842   3.530 -0.5001  0.4808 -0.0687
  259MOL0     C35611   3.975  10.771   3.469  0.4770  0.4614 -0.2198
  259MOL0     O35612   3.913  10.687   3.554 -0.8234  0.5108 -0.4288
  259MOL0     C35613   3.795  10.624   3.516 -0.0171  0.9184  0.0545
  259MOL0     C35614   3.741  10.571   3.659 -0.6028 -0.1876  0.8226
  259MOL0     C35615   3.594  10.538   3.644 -0.7694  0.6613  0.0802
  259MOL0     C35616   3.521  10.572   3.772  0.0876  0.2745  0.3883
  259MOL0     C35617   3.386  10.513   3.765 -0.1701  0.0231  0.5786
  259MOL0     C35618   3.296  10.573   3.878  1.1587 -0.2584  0.2934
  259MOL0     C35619   3.148  10.555   3.848  0.0191  0.2603  0.0243
  259MOL0     C35620   3.090  10.416   3.866 -0.1420  0.0512  0.2464
  259MOL0     N35621   3.068  10.389   4.010  0.4184 -0.2678  0.4431
  259MOL0     C35622   3.148  10.303   4.083  1.0609  1.1110 -0.5181
  259MOL0     C35623   3.085  10.288   4.201 -0.2220 -0.3396  0.3432
  259MOL0     C35624   3.129  10.210   4.324 -0.7719 -1.1043 -0.7631
  259MOL0     C35625   3.082  10.063   4.302  0.5723  0.2731  0.6135
  259MOL0     C35626   2.924  10.054   4.311  0.2155  0.4819  0.3293
  259MOL0     C35627   2.872   9.915   4.277 -0.7852 -1.2691  0.7332
  259MOL0     O35628   2.863   9.901   4.131  0.2900  0.0572 -0.2237
  259MOL0     C35629   2.853   9.776   4.077  0.2227  0.0015  0.0282
  259MOL0     C35630   2.804   9.663   4.146 -0.2840  0.5541 -0.6283
  259MOL0     C35631   2.788   9.535   4.093  0.2880 -0.2201  0.9938
  259MOL0     C35632   2.769   9.423   4.177  0.3094  0.1605  0.5020
  259MOL0     C35633   2.813   9.514   3.953  0.0190 -0.7702 -0.3328
  259MOL0     C35634   2.801   9.385   3.875 -0.3802 -0.7422 -0.2135
  259MOL0     O35635   2.868   9.382   3.750 -0.1226 -0.0999  0.1057
  259MOL0     C35636   2.818   9.288   3.659 -0.3538  0.8036  0.2887
  259MOL0     C35637   2.903   9.211   3.580 -0.1620  0.0329  0.1504
  259MOL0     C35638   2.854   9.141   3.469  0.3934 -0.0880 -0.9686
  259MOL0     C35639   2.721   9.120   3.449 -0.8163 -0.4244  0.2712
  259MOL0     O35640   2.694   9.034   3.343 -0.2231 -0.0519  0.5711
  259MOL0     C35641   2.573   8.957   3.359  0.5227 -0.1829  0.8237
  259MOL0     C35642   2.599   8.825   3.283 -0.2346 -0.2762 -0.4664
  259MOL0     C35643   2.493   8.728   3.312  0.2746 -0.0157 -0.1098
  259MOL0     C35644   2.494   8.655   3.444  0.1804  0.0663  0.6256
  259MOL0     C35645   2.379   8.562   3.470 -0.2706  0.9837  0.0617
  259MOL0     C35646   2.356   8.461   3.360  0.4221 -0.3373  0.1290
  259MOL0     C35647   2.238   8.358   3.392 -0.4007  0.1900  0.4880
  259MOL0     C35648   2.209   8.270   3.268  0.7158 -0.7539 -0.2381
  259MOL0    Cl35649   2.317   8.126   3.257  0.1243  0.2659 -0.0362
  259MOL0     C35650   2.626   9.179   3.538 -0.7283 -0.7437  0.4142
  259MOL0     C35651   2.678   9.272   3.630  0.7739 -0.3924  0.5503
  259MOL0     O35652   2.714   9.305   3.913  0.5215 -0.9359  0.3720
  259MOL0     C35653   2.850   9.629   3.884 -1.0196 -0.7101 -0.1455
  259MOL0     C35654   2.877   9.752   3.942  1.0042 -0.3245 -0.3190
  259MOL0     N35655   2.978  10.370   4.199  0.5018  0.1297  0.2158
  259MOL0     N35656   2.958  10.424   4.084  0.7775  0.4522 -0.1711
  259MOL0     C35657   3.949  10.780   3.331 -0.1144  0.0445  0.0425
  259MOL0     C35658   4.021  10.869   3.251  0.0859  0.0970 -0.8610
  259MOL0     C35659   4.372  11.084   3.079  0.7204 -0.4187 -0.2716
  259MOL0     C35660   4.490  11.031   3.022  0.3738  0.0517 -0.2308
  259MOL0     C35661   4.590  11.112   2.963  0.0964  0.8834  0.3138
  259MOL0     C35662   4.575  11.252   2.966  0.8927 -0.7796  0.4978
  259MOL0     O35663   4.666  11.350   2.920 -0.2354  0.3273  0.3812
  259MOL0     C35664   4.753  11.326   2.809  1.6280  0.4810 -0.6874
  259MOL0     C35665   4.900  11.330   2.863  0.6119  0.1394  0.8591
  259MOL0     C35666   4.938  11.228   2.971  0.5810  0.1118  0.2293
  259MOL0     C35667   5.043  11.278   3.078 -0.7315  0.1390  0.3247
  259MOL0     C35668   5.015  11.412   3.134  0.0363  0.9859 -0.5357
  259MOL0     C35669   5.002  11.514   3.198  1.1146 -0.2416 -0.2511
  259MOL0     C35670   4.470  11.304   3.034  0.4096 -0.5006  0.3748
  259MOL0     C35671   4.364  11.227   3.094 -0.3713 -0.2947 -0.7541
  259MOL0     C35672   4.256  11.299   3.161  0.6467  0.2193  0.0815
  259MOL0     H35673   4.223  10.991   3.506  3.6440 -0.8147 -3.7579
  259MOL0     H35674   4.097  10.839   3.636 -1.1998  0.8729  0.1063
  259MOL0     H35675   3.803  10.544   3.442  0.3476  2.5994 -1.8253
  259MOL0     H35676   3.715  10.690   3.481 -0.0452  0.6150 -0.4573
  259MOL0     H35677   3.796  10.480   3.685 -0.2228 -0.3062 -0.3064
  259MOL0     H35678   3.757  10.658   3.724  2.7117  1.5658 -1.9691
  259MOL0     H35679   3.548  10.586   3.557 -0.2162  1.5221  0.2470
  259MOL0     H35680   3.580  10.430   3.630 -1.1383  0.5566  1.1764
  259MOL0     H35681   3.564  10.545   3.868 -2.9333  3.0490  2.7593
  259MOL0     H35682   3.502  10.680   3.773 -0.5167  0.1696  1.0586
  259MOL0     H35683   3.386  10.405   3.778 -0.4436 -0.6317 -3.5167
  259MOL0     H35684   3.337  10.526   3.668 -2.6724 -2.4796  1.3845
  259MOL0     H35685   3.318  10.518   3.970  1.5676  0.1314  0.4342
  259MOL0     H35686   3.312  10.681   3.889 -0.1613 -0.1917  2.2495
  259MOL0     H35687   3.121  10.593   3.749 -1.2047  0.4448  0.4173
  259MOL0     H35688   3.104  10.631   3.913  1.3232 -0.1658  1.4617
  259MOL0     H35689   2.992  10.411   3.817  0.7157 -2.7275 -1.3968
  259MOL0     H35690   3.140  10.324   3.832 -1.0189 -0.1165 -0.6555
  259MOL0     H35691   3.247  10.263   4.062 -0.4013 -3.7440  0.4185
  259MOL0     H35692   3.083  10.247   4.416  0.2993 -1.9242  0.1209
  259MOL0     H35693   3.238  10.214   4.327 -0.7240  0.3291 -2.4855
  259MOL0     H35694   3.118  10.031   4.204 -1.3006  0.6932 -0.2416
  259MOL0     H35695   3.128   9.993   4.373  0.8632 -1.0882 -0.8640
  259MOL0     H35696   2.889  10.079   4.412 -0.5781  1.2157 -0.1081
  259MOL0     H35697   2.874  10.126   4.246  0.2343 -0.2278 -0.4839
  259MOL0     H35698   2.942   9.840   4.317 -0.8822 -0.8520  1.7009
  259MOL0     H35699   2.774   9.902   4.324 -0.9284 -0.2223  0.7327
  259MOL0     H35700   2.780   9.673   4.251 -0.6388 -1.4198 -0.4805
  259MOL0     H35701   2.667   9.387   4.169  0.8758 -1.4012 -0.0253
  259MOL0     H35702   2.788   9.437   4.284  1.8534  1.0532  0.1519
  259MOL0     H35703   2.839   9.344   4.147 -0.5687 -0.0372 -1.1419
  259MOL0     H35704   3.010   9.218   3.598 -0.3131  3.1660  0.4462
  259MOL0     H35705   2.924   9.100   3.397  2.8930  5.4743 -2.2218
  259MOL0     H35706   2.555   8.936   3.465 -0.8947  0.8141  0.8098
  259MOL0     H35707   2.484   9.010   3.324  1.1015  1.9134  2.3025
  259MOL0     H35708   2.598   8.848   3.177  0.6177  0.2640 -0.3644
  259MOL0     H35709   2.692   8.788   3.328 -2.0881  0.1042  4.3012
  259MOL0     H35710   2.499   8.648   3.238  0.0932 -2.2742  2.1715
  259MOL0     H35711   2.402   8.786   3.295  0.5479  0.4326 -0.0439
  259MOL0     H35712   2.502   8.722   3.530  0.1633 -0.0939  0.7522
  259MOL0     H35713   2.583   8.592   3.454 -0.3455 -0.8392 -0.2414
  259MOL0     H35714   2.401   8.511   3.565 -1.6771  3.1532  1.6493
  259MOL0     H35715   2.295   8.629   3.493 -0.8694  1.1724 -2.3841
  259MOL0     H35716   2.449   8.406   3.343 -0.2326 -1.1284 -1.1140
  259MOL0     H35717   2.319   8.507   3.268  2.1552 -2.2071 -1.6199
  259MOL0     H35718   2.152   8.418   3.424  0.8486  0.6616  3.2545
  259MOL0     H35719   2.271   8.295   3.474 -1.0961  2.2035  2.4127
  259MOL0     H35720   2.202   8.349   3.192  2.0279  1.1289  1.4709
  259MOL0     H35721   2.107   8.230   3.272  0.4831 -0.0803  1.4632
  259MOL0     H35722   2.518   9.175   3.540 -0.7463 -0.2588  1.6010
  259MOL0     H35723   2.614   9.336   3.691  0.0850  0.2677 -0.8160
  259MOL0     H35724   2.886   9.624   3.781  1.8713  3.4800  0.3861
  259MOL0     H35725   2.901   9.840   3.884 -1.7559  0.5754 -0.2363
  259MOL0     H35726   3.864  10.720   3.300 -0.9029 -1.4366  4.3558
  259MOL0     H35727   4.007  10.862   3.144 -2.9165 -0.8998 -0.5029
  259MOL0     H35728   4.492  10.923   3.013  1.0166 -0.0111  0.5578
  259MOL0     H35729   4.670  11.058   2.913 -0.5672 -0.9223  1.0877
  259MOL0     H35730   4.734  11.232   2.757 -1.3702  0.2563  0.5839
  259MOL0     H35731   4.735  11.404   2.734  3.7131  1.0590 -0.6406
  259MOL0     H35732   4.904  11.429   2.910  0.7849 -0.5984  2.4461
  259MOL0     H35733   4.963  11.324   2.774 -1.6768  3.3216 -1.2165
  259MOL0     H35734   4.849  11.192   3.023 -0.6869  2.6283 -0.0293
  259MOL0     H35735   4.983  11.140   2.924  0.4082  0.6423 -0.9852
  259MOL0     H35736   5.143  11.282   3.034 -0.1723 -0.2331  1.5365
  259MOL0     H35737   5.046  11.205   3.158  1.4774 -0.2123 -0.0178
  259MOL0     H35738   4.980  11.610   3.241 -0.7337 -2.0439  3.3280
  259MOL0     H35739   4.456  11.411   3.039 -1.2316 -0.6461 -0.2676
  259MOL0     H35740   4.274  11.287   3.269  2.1159  0.6135 -0.1007
  259MOL0     H35741   4.259  11.397   3.114 -0.0448 -1.3604 -3.6266
  259MOL0     H35742   4.155  11.263   3.138  0.6569  1.3302 -1.8555
  260MOL0     O35743   1.092   7.120  10.521  0.2161 -0.3312  0.0357
  260MOL0     C35744   1.101   7.153  10.634 -0.1575 -0.3977  0.3790
  260MOL0     O35745   1.101   7.281  10.676  0.5990  0.2312 -0.8134
  260MOL0     C35746   1.101   7.393  10.586  0.1866  0.6555  0.1545
  260MOL0     C35747   1.005   7.486  10.605  0.3099 -0.3767 -0.4575
  260MOL0     C35748   0.998   7.599  10.517  0.1453 -0.1423 -0.1087
  260MOL0     C35749   1.093   7.611  10.421 -0.5705  0.3564 -0.1779
  260MOL0     O35750   1.094   7.733  10.354 -0.2789 -0.1473 -0.6235
  260MOL0     C35751   1.123   7.731  10.210 -0.2299  0.0614 -0.3407
  260MOL0     C35752   1.080   7.856  10.141 -0.1436  0.6480 -0.3814
  260MOL0     C35753   0.929   7.872  10.138 -0.1038  0.9146  0.4505
  260MOL0     C35754   0.875   7.898   9.996 -0.3625 -0.0888 -0.3545
  260MOL0     C35755   0.724   7.876   9.967 -0.0281 -0.6647  0.6212
  260MOL0     C35756   0.640   7.921  10.081  0.8580 -0.3112 -0.3095
  260MOL0     C35757   0.492   7.934  10.040  0.0734 -0.5019  1.1937
  260MOL0     C35758   0.453   8.068   9.975 -0.1722  0.2235  0.9763
  260MOL0     N35759   0.307   8.091   9.956  0.4875  0.0528 -0.6308
  260MOL0     C35760   0.219   8.004   9.893 -0.1108 -0.2078 -0.7365
  260MOL0     C35761   0.102   8.073   9.884 -0.1837 -0.2944 -0.0593
  260MOL0     C35762  -0.038   8.033   9.818 -0.8831  0.0521 -0.8204
  260MOL0     C35763  -0.047   8.073   9.677  0.6434  0.1987  0.0482
  260MOL0     C35764  -0.194   8.055   9.615 -0.7970 -0.0605  0.1336
  260MOL0     C35765  -0.199   8.089   9.467  0.6670 -0.6990  0.7873
  260MOL0     O35766  -0.111   8.003   9.389  0.1818  0.3637 -0.2780
  260MOL0     C35767  -0.131   7.979   9.252 -0.3015  0.5634  0.2457
  260MOL0     C35768  -0.015   7.951   9.185 -0.3365  0.1342  0.7195
  260MOL0     C35769  -0.001   7.931   9.044 -0.4101  0.7859 -0.6959
  260MOL0     C35770   0.132   7.915   8.971 -0.0249  0.8267 -0.6527
  260MOL0     C35771  -0.121   7.943   8.967  0.9102  0.2436  0.2576
  260MOL0     C35772  -0.129   7.930   8.818 -0.2886  0.0928 -0.3827
  260MOL0     O35773  -0.242   7.981   8.764  0.2224  0.2956  0.7738
  260MOL0     C35774  -0.274   7.941   8.638 -0.2906 -0.9494  0.2379
  260MOL0     C35775  -0.282   7.808   8.597  0.3120  0.5073 -0.2066
  260MOL0     C35776  -0.316   7.768   8.471  0.5635 -0.1771  0.7512
  260MOL0     C35777  -0.360   7.855   8.376 -0.2203 -0.6830  0.1983
  260MOL0     O35778  -0.409   7.820   8.255  0.0757  0.0403 -0.6427
  260MOL0     C35779  -0.486   7.702   8.238  0.4028 -0.0466  0.0457
  260MOL0     C35780  -0.393   7.602   8.177 -0.0539  0.5420  0.6820
  260MOL0     C35781  -0.320   7.638   8.043  0.3697  1.0524  0.0088
  260MOL0     C35782  -0.171   7.676   8.058 -0.7644 -0.2307  0.4680
  260MOL0     C35783  -0.103   7.731   7.935  0.5365 -0.1243  0.3018
  260MOL0     C35784  -0.098   7.623   7.827  0.8202 -0.5266 -0.2482
  260MOL0     C35785  -0.152   7.656   7.690 -0.5513  0.6974 -0.1706
  260MOL0     C35786  -0.104   7.792   7.631  1.6068 -0.3485  0.7604
  260MOL0    Cl35787   0.070   7.824   7.640  0.0082 -0.6238  0.2210
  260MOL0     C35788  -0.358   7.995   8.407 -0.6151  0.4334  0.6513
  260MOL0     C35789  -0.315   8.034   8.538  0.1050  0.3172 -0.4020
  260MOL0     O35790  -0.036   7.872   8.755  0.2901  0.4853 -0.8099
  260MOL0     C35791  -0.245   7.962   9.035 -0.4500  0.6207  0.7278
  260MOL0     C35792  -0.250   7.977   9.178 -0.6303 -0.1122 -0.7164
  260MOL0     N35793   0.115   8.185   9.954  0.2354 -0.2393 -0.0664
  260MOL0     N35794   0.232   8.197   9.998 -0.5228  0.2761  0.5280
  260MOL0     C35795   1.184   7.516  10.397 -1.1571  0.1376  0.2344
  260MOL0     C35796   1.191   7.410  10.484  0.6667 -0.1890 -0.0948
  260MOL0     C35797   1.110   7.038  10.726  0.4439 -0.9216 -0.4773
  260MOL0     C35798   1.160   7.077  10.861  0.4804  0.1924 -0.3128
  260MOL0     C35799   1.168   6.992  10.970 -0.5995  0.7643 -0.4610
  260MOL0     C35800   1.142   6.856  10.952 -0.8847  0.5006  0.5157
  260MOL0     O35801   1.158   6.783  11.062 -0.0684 -0.4614  0.0042
  260MOL0     C35802   1.245   6.663  11.035  0.1098  0.2412 -0.9122
  260MOL0     C35803   1.293   6.606  11.170  0.0392 -0.4648  0.0559
  260MOL0     C35804   1.401   6.699  11.233 -0.0104  0.3267 -0.0927
  260MOL0     C35805   1.426   6.663  11.376 -0.2288  0.4060  0.5214
  260MOL0     C35806   1.469   6.528  11.373 -0.4257  1.1450  0.0735
  260MOL0     C35807   1.521   6.419  11.350  0.3422  0.4167 -0.2135
  260MOL0     C35808   1.100   6.799  10.824  0.3050  0.8408 -0.3519
  260MOL0     C35809   1.072   6.893  10.717 -0.3574 -0.2376  1.4578
  260MOL0     C35810   1.030   6.834  10.588 -1.2569  0.9719 -0.5535
  260MOL0     H35811   0.936   7.478  10.689  2.0151  0.5576  1.0938
  260MOL0     H35812   0.929   7.682  10.520  0.2377 -0.0640 -0.1373
  260MOL0     H35813   1.084   7.642  10.160  1.7953 -1.8940  1.3568
  260MOL0     H35814   1.231   7.721  10.195  0.3801 -0.0596  3.2811
  260MOL0     H35815   1.130   7.940  10.191  2.5079 -0.5945 -0.7810
  260MOL0     H35816   1.122   7.870  10.040 -0.3894  1.0677 -0.4280
  260MOL0     H35817   0.890   7.779  10.180 -0.1631  1.9979  2.9420
  260MOL0     H35818   0.910   7.957  10.203  2.1583  1.0727  0.9831
  260MOL0     H35819   0.908   7.991   9.947  1.6466 -0.9207 -0.6655
  260MOL0     H35820   0.923   7.825   9.930  1.8072  3.2382 -2.8498
  260MOL0     H35821   0.693   7.771   9.961 -2.5713 -0.0440  1.4500
  260MOL0     H35822   0.692   7.918   9.871 -1.8030 -1.0580  1.0109
  260MOL0     H35823   0.639   7.836  10.150 -3.3792 -3.1688 -3.3924
  260MOL0     H35824   0.677   8.010  10.132 -0.4691 -1.5800  3.2101
  260MOL0     H35825   0.431   7.920  10.130  0.7978  0.1699  1.8029
  260MOL0     H35826   0.473   7.850   9.972  0.5831  0.7338 -0.5584
  260MOL0     H35827   0.492   8.144  10.043 -1.1105  0.5177  1.1989
  260MOL0     H35828   0.518   8.088   9.889 -0.8170  1.0486  0.6698
  260MOL0     H35829   0.229   7.898   9.874  0.3162 -0.4197  0.5333
  260MOL0     H35830  -0.120   8.086   9.867 -1.1355  0.8698 -2.0786
  260MOL0     H35831  -0.071   7.928   9.820  2.1280 -1.0061 -1.3481
  260MOL0     H35832  -0.017   8.177   9.659  3.0987 -0.2687  1.0489
  260MOL0     H35833   0.022   8.016   9.614  1.8140  1.3400  0.2639
  260MOL0     H35834  -0.229   7.953   9.630 -1.6568  0.3793  1.2110
  260MOL0     H35835  -0.265   8.115   9.672 -0.8230 -0.5816  0.6638
  260MOL0     H35836  -0.303   8.085   9.434 -0.0397 -1.2771  2.9328
  260MOL0     H35837  -0.160   8.191   9.469 -1.2847  0.1833 -1.5292
  260MOL0     H35838   0.078   7.944   9.240 -0.4494  0.7639  1.0039
  260MOL0     H35839   0.163   7.993   8.901  2.7131 -1.2923 -1.9918
  260MOL0     H35840   0.130   7.817   8.922  0.9118 -0.1460  1.1824
  260MOL0     H35841   0.211   7.907   9.046 -1.2858 -2.7535  0.4840
  260MOL0     H35842  -0.241   7.731   8.661  0.2503  2.9101  2.9781
  260MOL0     H35843  -0.322   7.663   8.446 -1.3320  0.0571  0.1103
  260MOL0     H35844  -0.518   7.656   8.331 -1.7506 -2.0366 -1.5585
  260MOL0     H35845  -0.572   7.724   8.174  0.3006  2.3419  0.8906
  260MOL0     H35846  -0.330   7.545   8.246  1.8676  0.1393 -1.2749
  260MOL0     H35847  -0.458   7.520   8.146  1.1215 -0.4956  0.8441
  260MOL0     H35848  -0.377   7.712   7.985 -2.1667  0.4047  1.5124
  260MOL0     H35849  -0.326   7.555   7.972 -1.3158  2.0865 -1.1477
  260MOL0     H35850  -0.104   7.594   8.085  0.2281  0.8640  1.4372
  260MOL0     H35851  -0.169   7.756   8.133  0.8902  1.8235 -1.6380
  260MOL0     H35852  -0.168   7.813   7.904 -1.7963 -2.0135 -0.0820
  260MOL0     H35853  -0.001   7.767   7.952  0.5032  0.4395 -0.6243
  260MOL0     H35854  -0.152   7.536   7.865 -1.2341  1.5880  1.9914
  260MOL0     H35855   0.000   7.579   7.807 -0.0234 -2.7263  0.2149
  260MOL0     H35856  -0.261   7.642   7.698 -0.5126 -0.7244 -1.5150
  260MOL0     H35857  -0.115   7.579   7.622  0.3402 -2.1722  3.2520
  260MOL0     H35858  -0.159   7.871   7.684 -2.7085 -2.2846 -0.4057
  260MOL0     H35859  -0.146   7.786   7.530 -0.4541 -0.4202  1.5721
  260MOL0     H35860  -0.397   8.064   8.333 -2.8090  0.6696  1.9283
  260MOL0     H35861  -0.313   8.142   8.555  2.1841 -0.1213  2.9019
  260MOL0     H35862  -0.330   7.969   8.968  2.8468  1.6191 -3.7499
  260MOL0     H35863  -0.353   7.979   9.214 -2.1036 -0.4313 -4.4458
  260MOL0     H35864   1.254   7.517  10.314  1.5227 -0.3634  2.3491
  260MOL0     H35865   1.261   7.329  10.466  0.5664 -0.0875 -1.0050
  260MOL0     H35866   1.190   7.181  10.869 -0.2592  0.3738  0.1896
  260MOL0     H35867   1.198   7.020  11.071 -0.4839 -1.6099  0.2104
  260MOL0     H35868   1.191   6.584  10.983  2.0572 -1.6197 -0.2335
  260MOL0     H35869   1.335   6.688  10.979 -0.3256  2.4785 -0.7335
  260MOL0     H35870   1.341   6.514  11.137  1.8568  0.8455 -1.1974
  260MOL0     H35871   1.208   6.579  11.234 -1.5504  0.1539 -1.7056
  260MOL0     H35872   1.491   6.693  11.172  0.1583 -0.9045  0.2578
  260MOL0     H35873   1.372   6.805  11.230  0.0989  0.4061  1.1075
  260MOL0     H35874   1.344   6.681  11.446 -1.3730  0.0396 -0.6841
  260MOL0     H35875   1.511   6.723  11.410  0.4377  0.3487 -0.9286
  260MOL0     H35876   1.580   6.334  11.324  0.5865 -0.1662  1.9975
  260MOL0     H35877   1.079   6.695  10.805 -4.0117  1.2800  0.9467
  260MOL0     H35878   0.938   6.881  10.551 -2.9006  0.1885  2.2304
  260MOL0     H35879   1.115   6.854  10.523 -0.3070  0.7742  0.5986
  260MOL0     H35880   1.026   6.725  10.593  0.8838  0.7809 -1.8681
  261MOL0     O35881   7.257   1.717   7.272 -0.0566 -0.1455 -0.3122
  261MOL0     C35882   7.200   1.788   7.190 -0.2306  0.7050  0.0520
  261MOL0     O35883   7.190   1.921   7.205 -0.3405 -0.1070 -0.0556
  261MOL0     C35884   7.177   1.972   7.335  0.1960 -0.1098  0.3354
  261MOL0     C35885   7.272   2.078   7.364 -0.2234  0.2325  0.3220
  261MOL0     C35886   7.248   2.143   7.486  0.6907 -0.4784  0.5926
  261MOL0     C35887   7.153   2.098   7.579 -0.5014 -0.8283 -0.1527
  261MOL0     O35888   7.119   2.178   7.685  0.1313 -0.4074  0.0758
  261MOL0     C35889   6.986   2.245   7.681 -0.9995  0.6208 -0.7101
  261MOL0     C35890   6.984   2.376   7.597 -0.3093 -0.9134 -0.0836
  261MOL0     C35891   6.862   2.460   7.635  0.7996 -0.1668 -0.0013
  261MOL0     C35892   6.856   2.563   7.525 -0.8030  1.0146  0.6958
  261MOL0     C35893   6.909   2.698   7.570 -0.0986 -1.5997 -1.2903
  261MOL0     C35894   6.895   2.807   7.459  0.1508 -0.5218 -0.1919
  261MOL0     C35895   6.957   2.945   7.498 -0.4925 -0.5716  0.4837
  261MOL0     C35896   7.106   2.979   7.480  0.1797 -0.4624  0.2692
  261MOL0     N35897   7.197   2.886   7.550  0.5163 -0.7654  0.0598
  261MOL0     C35898   7.215   2.887   7.687 -0.1648  0.4915  0.2323
  261MOL0     C35899   7.289   2.784   7.720 -0.1564  0.3388  0.2076
  261MOL0     C35900   7.316   2.742   7.856 -0.9620 -0.1604 -0.3076
  261MOL0     C35901   7.192   2.664   7.912 -0.0338  0.3622  0.4894
  261MOL0     C35902   7.062   2.740   7.916  0.3642  0.2566 -0.3966
  261MOL0     C35903   7.058   2.835   8.037 -1.3232 -0.1696 -0.6338
  261MOL0     O35904   7.060   2.768   8.161  0.0765  0.1205 -0.9906
  261MOL0     C35905   7.061   2.840   8.280 -0.0487  0.3945  0.6177
  261MOL0     C35906   7.070   2.774   8.399  0.2192 -0.5518  0.2150
  261MOL0     C35907   7.082   2.844   8.525  0.1198 -0.0281  0.3362
  261MOL0     C35908   7.063   2.765   8.646 -0.3466 -0.4514 -1.0236
  261MOL0     C35909   7.068   2.985   8.526  0.5560  1.1376  0.0170
  261MOL0     C35910   7.089   3.063   8.647  1.0913 -1.0779  0.9586
  261MOL0     O35911   7.011   3.172   8.651  0.3795  0.2489 -0.9410
  261MOL0     C35912   7.073   3.285   8.698 -0.4162 -0.1031 -0.2232
  261MOL0     C35913   7.178   3.337   8.625  0.8842  0.6447  0.2137
  261MOL0     C35914   7.232   3.458   8.643 -0.3124  0.9641 -0.7275
  261MOL0     C35915   7.187   3.526   8.756  0.0577 -0.1845  0.3241
  261MOL0     O35916   7.254   3.641   8.791 -0.3864 -0.8951 -0.7758
  261MOL0     C35917   7.217   3.728   8.899  0.1513 -0.1823 -0.7428
  261MOL0     C35918   7.310   3.853   8.923  0.6265 -0.3062 -0.2004
  261MOL0     C35919   7.455   3.807   8.930 -0.5382 -0.7733  0.2239
  261MOL0     C35920   7.543   3.886   9.027 -0.1967 -0.6502 -0.2175
  261MOL0     C35921   7.680   3.941   8.974  0.2245 -0.3809 -0.9849
  261MOL0     C35922   7.766   3.830   8.937  0.3104 -0.8531  0.0723
  261MOL0     C35923   7.913   3.886   8.905  0.4565 -0.7181  0.7550
  261MOL0     C35924   7.967   3.845   8.774  0.4240  0.1880 -0.4908
  261MOL0    Cl35925   7.858   3.930   8.643 -0.2483  0.2630 -0.1536
  261MOL0     C35926   7.072   3.482   8.821 -0.9305 -0.9107 -0.4534
  261MOL0     C35927   7.004   3.372   8.781  0.5255  0.5742  0.1924
  261MOL0     O35928   7.178   3.035   8.730 -0.2664  0.1564  0.8330
  261MOL0     C35929   7.054   3.056   8.401  0.6556 -0.2784  0.6914
  261MOL0     C35930   7.050   2.984   8.279 -1.3711  0.7759  0.5676
  261MOL0     N35931   7.335   2.732   7.599  0.7869 -0.9273 -1.3224
  261MOL0     N35932   7.281   2.799   7.502 -0.2726 -0.0605  0.3478
  261MOL0     C35933   7.072   1.993   7.549  0.8410  0.1629 -0.1781
  261MOL0     C35934   7.080   1.928   7.430 -0.9836  0.0751  0.4841
  261MOL0     C35935   7.181   1.739   7.055 -0.1494  0.5830 -0.4466
  261MOL0     C35936   7.280   1.653   7.005  0.4506  0.8814  0.3265
  261MOL0     C35937   7.286   1.613   6.882 -0.4179  0.0310  0.6549
  261MOL0     C35938   7.191   1.657   6.786  0.3283 -0.6482  0.5070
  261MOL0     O35939   7.201   1.618   6.651 -0.1372 -0.1036  0.6529
  261MOL0     C35940   7.318   1.557   6.599  0.3704 -0.4020  0.4105
  261MOL0     C35941   7.318   1.597   6.455 -0.3336  0.6086 -0.2943
  261MOL0     C35942   7.458   1.612   6.404 -0.9736 -1.1129  0.1377
  261MOL0     C35943   7.540   1.481   6.399 -0.2224  0.6039 -0.0420
  261MOL0     C35944   7.661   1.515   6.322 -0.8049  1.4196 -0.3764
  261MOL0     C35945   7.762   1.538   6.254  0.0060  1.0566 -1.0520
  261MOL0     C35946   7.074   1.723   6.840  0.0867  0.3103 -1.0124
  261MOL0     C35947   7.063   1.764   6.973  0.1833 -0.6813 -0.2676
  261MOL0     C35948   6.935   1.834   7.027 -0.6281  0.4432  0.7057
  261MOL0     H35949   7.353   2.115   7.302  0.4333  1.5754  1.9142
  261MOL0     H35950   7.301   2.237   7.497  2.2041 -0.9443 -1.9062
  261MOL0     H35951   6.973   2.266   7.788  4.7098  2.6185 -0.0403
  261MOL0     H35952   6.913   2.166   7.661 -0.0844  0.3191 -3.2964
  261MOL0     H35953   7.065   2.449   7.608 -1.8574  0.9395 -0.4391
  261MOL0     H35954   6.968   2.340   7.495 -0.1323  0.6048 -0.6763
  261MOL0     H35955   6.775   2.394   7.648 -0.0899  1.2833  2.1169
  261MOL0     H35956   6.874   2.511   7.732  1.0682  3.8357 -1.9446
  261MOL0     H35957   6.907   2.531   7.434  0.1467  0.6005  1.3593
  261MOL0     H35958   6.749   2.574   7.503 -0.9219 -0.2761  0.5734
  261MOL0     H35959   7.013   2.693   7.604 -0.3681 -1.8213 -0.4778
  261MOL0     H35960   6.851   2.735   7.654  1.5443 -0.8771 -0.4159
  261MOL0     H35961   6.942   2.765   7.370 -0.8070  2.6086 -2.3196
  261MOL0     H35962   6.791   2.822   7.431  0.9993  0.7483 -3.0265
  261MOL0     H35963   6.940   2.959   7.606  0.1863  1.6552  0.3480
  261MOL0     H35964   6.898   3.020   7.445  1.5100 -0.7911 -2.2359
  261MOL0     H35965   7.132   2.971   7.374 -0.5778  0.3765  0.0061
  261MOL0     H35966   7.118   3.083   7.511  1.7794  0.6793 -3.5014
  261MOL0     H35967   7.175   2.962   7.755 -2.9815 -0.0808 -0.6700
  261MOL0     H35968   7.321   2.834   7.914 -0.7653 -0.9580  0.9706
  261MOL0     H35969   7.408   2.684   7.870  2.3948  4.6299 -0.3230
  261MOL0     H35970   7.174   2.572   7.855 -1.2284 -0.5094  2.1551
  261MOL0     H35971   7.215   2.624   8.011  2.8212  1.4771  0.3707
  261MOL0     H35972   7.031   2.787   7.823  0.2517  0.2109 -0.3824
  261MOL0     H35973   6.986   2.663   7.932  2.3531 -2.2450 -2.1515
  261MOL0     H35974   7.143   2.903   8.029  0.7679 -2.2310  1.9598
  261MOL0     H35975   6.971   2.901   8.038 -1.4217 -0.2938  0.4821
  261MOL0     H35976   7.096   2.668   8.404 -3.3499 -1.5066  1.0932
  261MOL0     H35977   7.162   2.750   8.691 -0.4657 -1.3530 -1.0451
  261MOL0     H35978   7.010   2.674   8.618 -0.7292 -0.9519  1.1257
  261MOL0     H35979   7.004   2.808   8.728  0.9706 -0.2720 -0.1405
  261MOL0     H35980   7.214   3.284   8.538 -1.3446  0.2579 -0.5356
  261MOL0     H35981   7.304   3.510   8.581  0.8831  0.2101 -0.0191
  261MOL0     H35982   7.119   3.768   8.871  0.1391 -0.7782 -1.5879
  261MOL0     H35983   7.202   3.674   8.993  1.5302  2.8128  1.3441
  261MOL0     H35984   7.289   3.926   8.844 -0.8260  0.4601  0.8478
  261MOL0     H35985   7.291   3.902   9.020  0.4714  2.7736 -1.6483
  261MOL0     H35986   7.495   3.828   8.831 -0.2762 -1.3654  0.1945
  261MOL0     H35987   7.460   3.700   8.955 -3.0007 -1.7217 -2.7226
  261MOL0     H35988   7.567   3.818   9.110 -1.3622 -1.8977 -0.8610
  261MOL0     H35989   7.496   3.977   9.065  1.5672 -0.0957  0.7692
  261MOL0     H35990   7.666   4.009   8.890  3.8543  0.8753 -0.7257
  261MOL0     H35991   7.731   3.993   9.056  1.6875 -1.2790 -1.2906
  261MOL0     H35992   7.724   3.797   8.842  2.6599 -0.8954 -1.0070
  261MOL0     H35993   7.783   3.749   9.009 -0.6635  0.4631  1.8642
  261MOL0     H35994   7.979   3.849   8.985  3.3932  1.5139 -0.4492
  261MOL0     H35995   7.914   3.996   8.899 -0.3301 -0.7865 -2.8320
  261MOL0     H35996   7.971   3.736   8.766  1.1432 -0.4117  4.6870
  261MOL0     H35997   8.071   3.879   8.770  0.1716  0.9055 -3.4414
  261MOL0     H35998   7.020   3.554   8.883  0.2385 -1.4310  1.2215
  261MOL0     H35999   6.905   3.339   8.811  1.3931 -3.4620 -0.6804
  261MOL0     H36000   7.041   3.164   8.404  0.4529 -0.3178  3.1135
  261MOL0     H36001   7.042   3.033   8.182 -0.7586 -2.5546 -1.3339
  261MOL0     H36002   6.997   1.958   7.618 -1.3225 -0.5651 -2.7047
  261MOL0     H36003   7.008   1.853   7.400  1.0867 -1.1615 -1.7282
  261MOL0     H36004   7.363   1.616   7.065  0.8918  1.5826  0.1511
  261MOL0     H36005   7.369   1.548   6.857 -0.3452  0.7198 -1.0236
  261MOL0     H36006   7.404   1.596   6.653  0.3406  1.9860 -1.1404
  261MOL0     H36007   7.310   1.448   6.610  1.1224 -0.3275  1.9524
  261MOL0     H36008   7.273   1.696   6.448 -0.6975  0.3399 -2.3792
  261MOL0     H36009   7.261   1.528   6.392  0.2944  0.2821 -0.5119
  261MOL0     H36010   7.453   1.652   6.302  1.7696 -1.8837 -0.3896
  261MOL0     H36011   7.501   1.698   6.457  0.4836  0.5982 -3.4021
  261MOL0     H36012   7.484   1.403   6.345 -0.7832  0.2569  1.0150
  261MOL0     H36013   7.568   1.440   6.497 -3.6459 -1.0543  0.4063
  261MOL0     H36014   7.854   1.562   6.204 -0.1769  2.1772 -0.8830
  261MOL0     H36015   6.992   1.745   6.774 -0.1484 -1.5461 -1.3885
  261MOL0     H36016   6.958   1.938   7.050  1.8243  0.9711 -3.2157
  261MOL0     H36017   6.852   1.829   6.956  0.6811 -1.3600 -0.8128
  261MOL0     H36018   6.904   1.787   7.121 -0.3922  1.0494  1.0963
  262MOL0     O36019   2.816  11.049   7.702  0.6024 -0.7629  0.8141
  262MOL0     C36020   2.910  11.042   7.628 -0.3348  0.1406  0.8583
  262MOL0     O36021   2.945  10.934   7.546  0.2857  0.4240 -0.4297
  262MOL0     C36022   2.869  10.818   7.531 -1.2183 -0.5267 -0.2384
  262MOL0     C36023   2.894  10.703   7.607 -1.2466  0.4085  0.3469
  262MOL0     C36024   2.805  10.598   7.613 -0.1370  0.6586 -0.2386
  262MOL0     C36025   2.689  10.606   7.534 -0.1187 -0.3716  0.2096
  262MOL0     O36026   2.604  10.504   7.540 -0.0082  0.4380 -0.2633
  262MOL0     C36027   2.485  10.490   7.464  0.9881  0.6786  0.5417
  262MOL0     C36028   2.430  10.350   7.478  0.5223  0.8597 -0.5973
  262MOL0     C36029   2.385  10.311   7.625 -0.8247 -0.5929  0.1804
  262MOL0     C36030   2.295  10.185   7.636 -0.1805 -0.3050 -0.3088
  262MOL0     C36031   2.209  10.183   7.763  0.2340  0.2076  0.6803
  262MOL0     C36032   2.299  10.152   7.890 -0.4307  0.2764 -1.4720
  262MOL0     C36033   2.236  10.149   8.030 -0.7354  0.1807  0.1438
  262MOL0     C36034   2.346  10.137   8.134  0.8500  0.3725 -0.0812
  262MOL0     N36035   2.282  10.170   8.261 -0.9694 -0.0671 -0.6764
  262MOL0     C36036   2.326  10.272   8.336  0.9090 -0.5300 -0.1656
  262MOL0     C36037   2.267  10.257   8.454  0.3561 -0.3064 -0.4909
  262MOL0     C36038   2.292  10.347   8.568 -0.7848 -0.1626  0.8511
  262MOL0     C36039   2.280  10.272   8.693 -0.9497  0.5369  0.5657
  262MOL0     C36040   2.384  10.308   8.801  0.1237  1.1444  0.8237
  262MOL0     C36041   2.358  10.442   8.870 -0.2572 -0.6761  0.7363
  262MOL0     O36042   2.234  10.431   8.951 -0.0341 -0.4725  0.2826
  262MOL0     C36043   2.211  10.503   9.061  0.4311 -1.0594 -0.7944
  262MOL0     C36044   2.286  10.611   9.108  0.0773  0.2565  0.0456
  262MOL0     C36045   2.257  10.673   9.227 -0.2430 -0.0145 -0.1354
  262MOL0     C36046   2.347  10.795   9.260 -0.0899 -0.3484  0.8078
  262MOL0     C36047   2.163  10.617   9.313 -0.3425  0.1234 -1.0677
  262MOL0     C36048   2.142  10.654   9.457  0.8751  1.4898  0.3035
  262MOL0     O36049   2.012  10.663   9.511 -0.8719 -0.2815 -0.2085
  262MOL0     C36050   1.999  10.693   9.651  0.5144 -0.2544 -0.3917
  262MOL0     C36051   1.975  10.591   9.747  1.0558 -0.1326  0.3026
  262MOL0     C36052   1.948  10.630   9.875  0.2529  0.4205 -0.4631
  262MOL0     C36053   1.959  10.761   9.918 -1.3492  0.4605  0.2675
  262MOL0     O36054   1.928  10.760  10.054 -0.8636 -0.5883 -0.4150
  262MOL0     C36055   1.986  10.854  10.140  0.0138  0.6290 -0.6170
  262MOL0     C36056   1.904  10.984  10.167  0.0364  0.0177 -0.0929
  262MOL0     C36057   1.761  10.947  10.221  1.2529 -0.5410 -0.9401
  262MOL0     C36058   1.680  11.063  10.294  0.0758 -0.0566 -0.5249
  262MOL0     C36059   1.524  11.043  10.295 -0.2278  0.0171 -0.1889
  262MOL0     C36060   1.447  11.058  10.166 -0.0708  0.2092  0.6547
  262MOL0     C36061   1.457  11.199  10.110  0.5406 -0.1214 -0.5795
  262MOL0     C36062   1.333  11.209  10.018  0.8114  0.5349 -0.4693
  262MOL0    Cl36063   1.325  11.085   9.883 -0.2143 -0.0524  0.0988
  262MOL0     C36064   1.999  10.862   9.829 -0.0071  0.2552  0.4023
  262MOL0     C36065   2.006  10.828   9.691 -0.2030  0.3460 -0.0529
  262MOL0     O36066   2.244  10.685   9.518  0.4693 -0.1660  0.4855
  262MOL0     C36067   2.069  10.524   9.253  0.2572 -0.0607 -0.3135
  262MOL0     C36068   2.101  10.473   9.130 -0.4228 -0.0038 -0.0356
  262MOL0     N36069   2.184  10.138   8.453 -0.5247 -0.3185  0.2269
  262MOL0     N36070   2.208  10.083   8.336  1.0748 -0.1399 -0.1247
  262MOL0     C36071   2.677  10.714   7.443  0.2510  0.5329 -1.0872
  262MOL0     C36072   2.761  10.823   7.439  0.7646  1.6158  0.3406
  262MOL0     C36073   3.000  11.162   7.608 -0.4713  0.0271  0.2627
  262MOL0     C36074   3.076  11.167   7.485 -0.3200  0.2373  0.4592
  262MOL0     C36075   3.168  11.271   7.452  0.0390  0.1289  0.2038
  262MOL0     C36076   3.174  11.375   7.540  1.0873  0.4432 -0.0259
  262MOL0     O36077   3.261  11.488   7.528  0.2849  0.1657  0.8698
  262MOL0     C36078   3.326  11.510   7.405  0.1089 -0.2616  0.4670
  262MOL0     C36079   3.367  11.662   7.397 -0.1255 -0.2919 -0.6208
  262MOL0     C36080   3.498  11.684   7.480 -0.6357 -0.7763 -0.3279
  262MOL0     C36081   3.546  11.824   7.496  0.4455 -0.3797  0.2696
  262MOL0     C36082   3.636  11.833   7.612 -0.0010  0.1178  0.0558
  262MOL0     C36083   3.703  11.835   7.717  0.2939  0.6374 -0.6659
  262MOL0     C36084   3.090  11.379   7.653 -1.5964  0.5159 -0.4107
  262MOL0     C36085   3.000  11.278   7.686 -0.2139  0.2002  0.3933
  262MOL0     C36086   2.919  11.318   7.805 -0.0510  0.4837 -0.7284
  262MOL0     H36087   2.985  10.703   7.666  2.6339  0.6187 -4.9118
  262MOL0     H36088   2.821  10.519   7.686  0.5013  0.2937 -0.7565
  262MOL0     H36089   2.506  10.512   7.359 -0.9009  2.1775  0.4187
  262MOL0     H36090   2.413  10.560   7.507  0.3833  0.1352  0.4377
  262MOL0     H36091   2.342  10.346   7.414 -0.3283  2.8783  0.3470
  262MOL0     H36092   2.501  10.277   7.440 -1.2680 -1.7058  0.6768
  262MOL0     H36093   2.468  10.294   7.695  3.0751  1.0399 -3.5758
  262MOL0     H36094   2.335  10.400   7.665 -0.3628  0.5809 -1.7301
  262MOL0     H36095   2.233  10.174   7.547 -0.0519 -2.3387 -0.2003
  262MOL0     H36096   2.366  10.102   7.634 -1.0009 -1.1043  1.3151
  262MOL0     H36097   2.130  10.108   7.755 -1.2145  1.5493  1.7653
  262MOL0     H36098   2.149  10.274   7.759  0.7386  0.4800 -1.4110
  262MOL0     H36099   2.347  10.057   7.864 -1.2181  0.1725 -2.6346
  262MOL0     H36100   2.371  10.234   7.895 -2.6848  2.3010 -0.4454
  262MOL0     H36101   2.166  10.065   8.040 -2.6173  1.3153 -2.3489
  262MOL0     H36102   2.187  10.246   8.040  0.0338  0.3856  2.4820
  262MOL0     H36103   2.390  10.038   8.145  1.9885  0.7012 -1.3659
  262MOL0     H36104   2.433  10.201   8.115  0.6951  0.2873 -1.1713
  262MOL0     H36105   2.382  10.361   8.311 -4.0269  4.3605  3.8087
  262MOL0     H36106   2.217  10.427   8.568 -0.3447  0.2586  1.3985
  262MOL0     H36107   2.384  10.400   8.544 -0.9154  0.0418  0.7955
  262MOL0     H36108   2.185  10.281   8.745 -0.4930 -0.9136  1.7112
  262MOL0     H36109   2.278  10.164   8.675 -1.4598  0.8745 -1.8965
  262MOL0     H36110   2.391  10.230   8.877  1.1827 -1.5319 -1.8420
  262MOL0     H36111   2.477  10.308   8.742 -2.7358  0.1311 -4.1989
  262MOL0     H36112   2.448  10.467   8.927  0.2827 -0.4803 -0.1905
  262MOL0     H36113   2.329  10.508   8.789 -0.4943 -3.2615 -1.4286
  262MOL0     H36114   2.357  10.645   9.033  0.3346  1.6695  0.9031
  262MOL0     H36115   2.389  10.835   9.167 -0.7839 -0.2066  0.5534
  262MOL0     H36116   2.433  10.755   9.315 -0.3174 -1.9261  0.0689
  262MOL0     H36117   2.285  10.865   9.317 -1.1856 -0.5793 -0.0712
  262MOL0     H36118   1.970  10.487   9.716  0.4703 -0.3050  0.9744
  262MOL0     H36119   1.912  10.554   9.943 -2.0823  0.3959 -1.6421
  262MOL0     H36120   2.001  10.798  10.233  1.2764  1.3569 -0.3461
  262MOL0     H36121   2.084  10.892  10.108 -0.5068  1.7242 -0.9284
  262MOL0     H36122   1.956  11.052  10.236 -0.3688 -1.4404  1.7319
  262MOL0     H36123   1.906  11.031  10.068 -1.4135 -0.1186 -0.2064
  262MOL0     H36124   1.767  10.863  10.290 -0.3158  0.6441  0.7409
  262MOL0     H36125   1.705  10.912  10.134  0.6834 -3.7761  0.6027
  262MOL0     H36126   1.709  11.153  10.239  2.1545  2.2679  3.8782
  262MOL0     H36127   1.721  11.079  10.394  1.2289 -3.2999 -0.3562
  262MOL0     H36128   1.498  10.950  10.346  1.4504 -0.2946  0.1562
  262MOL0     H36129   1.499  11.122  10.366  2.4786 -1.1943  2.3302
  262MOL0     H36130   1.344  11.034  10.194 -0.2334  2.0059  1.8505
  262MOL0     H36131   1.481  10.991  10.088  2.2643 -1.1216  2.6787
  262MOL0     H36132   1.539  11.223  10.042 -0.2382  3.7805 -0.3772
  262MOL0     H36133   1.433  11.268  10.191 -0.4456 -0.9318 -0.1579
  262MOL0     H36134   1.342  11.308   9.974 -1.1819  1.2345  0.5717
  262MOL0     H36135   1.243  11.204  10.080  0.4209 -0.8541 -1.1014
  262MOL0     H36136   2.022  10.964   9.860 -2.8105  2.2759 -3.3342
  262MOL0     H36137   2.024  10.903   9.615  2.4858  1.0158  1.1199
  262MOL0     H36138   1.972  10.491   9.290  1.1643 -2.4944  0.0948
  262MOL0     H36139   2.037  10.399   9.085  0.8786  0.1326 -2.2633
  262MOL0     H36140   2.583  10.713   7.389 -0.0134  1.0157 -0.6474
  262MOL0     H36141   2.733  10.910   7.380 -2.8192 -0.0779 -0.6917
  262MOL0     H36142   3.064  11.084   7.416  0.6699  0.6506 -0.2201
  262MOL0     H36143   3.231  11.264   7.364 -0.1206 -0.2813  0.1158
  262MOL0     H36144   3.416  11.448   7.391 -0.6058 -1.1582 -0.3411
  262MOL0     H36145   3.257  11.483   7.324  3.9117  0.9202 -3.6269
  262MOL0     H36146   3.282  11.716   7.437 -0.8538 -0.2690 -2.1213
  262MOL0     H36147   3.380  11.679   7.290 -2.5683 -3.2160 -1.5421
  262MOL0     H36148   3.478  11.644   7.579 -1.9980 -1.7377 -0.9551
  262MOL0     H36149   3.584  11.634   7.433 -1.2538  0.5104 -3.0918
  262MOL0     H36150   3.458  11.888   7.510 -0.3301 -0.5935 -2.8173
  262MOL0     H36151   3.590  11.851   7.399 -3.6182  1.7045 -1.2463
  262MOL0     H36152   3.760  11.838   7.808 -0.9422  0.5381  0.1343
  262MOL0     H36153   3.091  11.463   7.723  0.2847 -0.7972  1.2397
  262MOL0     H36154   2.972  11.305   7.900 -2.2499 -0.8388  0.3995
  262MOL0     H36155   2.886  11.421   7.791  2.1198  1.4912  1.0710
  262MOL0     H36156   2.831  11.252   7.802 -0.9877  1.6633  0.0341
  263MOL0     O36157   4.383   2.589   6.518 -0.2327 -0.3022 -0.1756
  263MOL0     C36158   4.415   2.590   6.401 -0.6747  0.1479 -0.3309
  263MOL0     O36159   4.334   2.633   6.297  0.5700 -0.4102  0.0819
  263MOL0     C36160   4.202   2.655   6.315 -0.5491  0.3081  0.1088
  263MOL0     C36161   4.146   2.722   6.420 -0.4240 -0.9843 -0.7617
  263MOL0     C36162   4.017   2.762   6.408  0.7303  0.4936 -0.2515
  263MOL0     C36163   3.937   2.721   6.305  0.6202  0.3802  0.4846
  263MOL0     O36164   3.813   2.772   6.295  0.2242  0.2138 -0.6070
  263MOL0     C36165   3.723   2.700   6.388  0.1632 -0.3995 -0.2518
  263MOL0     C36166   3.590   2.786   6.388 -0.5249  0.0487 -0.5601
  263MOL0     C36167   3.528   2.793   6.260 -0.1422 -0.1198  0.8245
  263MOL0     C36168   3.386   2.852   6.259 -0.3412 -0.4389 -0.1301
  263MOL0     C36169   3.307   2.814   6.131 -1.1913 -0.4861 -0.7454
  263MOL0     C36170   3.315   2.913   6.019 -1.1330 -0.5309 -0.4226
  263MOL0     C36171   3.242   2.878   5.889 -0.9660  0.5332  0.8541
  263MOL0     C36172   3.317   2.764   5.810 -0.1089  0.2819 -0.1453
  263MOL0     N36173   3.284   2.761   5.666 -0.0996  0.4076  0.7421
  263MOL0     C36174   3.378   2.727   5.567 -0.0450 -0.3082 -0.1396
  263MOL0     C36175   3.301   2.665   5.468 -0.1093  0.2027  0.2195
  263MOL0     C36176   3.343   2.591   5.346  0.1241  0.1867 -0.4285
  263MOL0     C36177   3.479   2.527   5.371  0.1122 -0.0222 -0.3785
  263MOL0     C36178   3.508   2.426   5.258  0.4793  0.0505 -1.0092
  263MOL0     C36179   3.636   2.357   5.268 -0.3644  0.1599 -0.3652
  263MOL0     O36180   3.660   2.296   5.142 -0.0590  0.7098 -0.6745
  263MOL0     C36181   3.783   2.277   5.097  0.0908 -0.0635  0.5395
  263MOL0     C36182   3.793   2.200   4.984 -0.8148  0.4447 -0.4263
  263MOL0     C36183   3.919   2.164   4.923 -0.0541 -0.1693  0.2643
  263MOL0     C36184   3.912   2.055   4.823  0.2522  0.3050 -0.1538
  263MOL0     C36185   4.039   2.220   4.980  0.3470  0.9948 -0.7722
  263MOL0     C36186   4.174   2.176   4.935 -0.3334 -0.4253 -1.2550
  263MOL0     O36187   4.280   2.237   5.004  0.3866  0.6537  0.2285
  263MOL0     C36188   4.406   2.231   4.962  0.6058  0.3223  0.2332
  263MOL0     C36189   4.505   2.296   5.045 -0.0957 -0.2886  0.6245
  263MOL0     C36190   4.643   2.298   5.024  0.2498 -0.1393 -0.8733
  263MOL0     C36191   4.685   2.232   4.917 -0.0211  0.9343  0.4232
  263MOL0     O36192   4.824   2.227   4.884  0.3311 -0.3821  0.3085
  263MOL0     C36193   4.863   2.235   4.751  0.4947 -0.1872  0.1752
  263MOL0     C36194   5.006   2.287   4.737 -0.0109 -0.2402 -0.6210
  263MOL0     C36195   5.029   2.433   4.792  0.0181  0.0290 -0.1554
  263MOL0     C36196   5.082   2.423   4.940 -0.0650  0.4839 -0.5177
  263MOL0     C36197   5.136   2.559   4.990 -0.1768 -0.6684 -0.1431
  263MOL0     C36198   5.200   2.561   5.130  0.3291 -0.2923 -0.4001
  263MOL0     C36199   5.289   2.682   5.150 -0.7728 -0.5200 -0.5239
  263MOL0     C36200   5.213   2.809   5.157 -0.5640  0.7901 -0.8536
  263MOL0    Cl36201   5.128   2.817   5.314 -0.1187  0.5701 -0.1798
  263MOL0     C36202   4.591   2.184   4.817  0.6309 -0.1181 -0.4843
  263MOL0     C36203   4.457   2.197   4.839 -0.8851  1.2975 -0.2814
  263MOL0     O36204   4.184   2.103   4.840 -0.3477  0.3756  0.1578
  263MOL0     C36205   4.026   2.288   5.101  0.2561 -0.6088 -0.3603
  263MOL0     C36206   3.902   2.317   5.153  0.0700  0.5723 -0.7590
  263MOL0     N36207   3.166   2.697   5.504 -0.2366 -0.0016  0.2894
  263MOL0     N36208   3.155   2.748   5.624  0.2502  0.2244  0.3491
  263MOL0     C36209   3.985   2.632   6.209 -0.2938  0.7696 -0.3141
  263MOL0     C36210   4.125   2.606   6.211  0.1143  1.1528  0.3148
  263MOL0     C36211   4.553   2.542   6.369 -1.4999 -0.3227 -0.0523
  263MOL0     C36212   4.605   2.557   6.242  0.2457  0.2118 -0.4667
  263MOL0     C36213   4.735   2.524   6.207 -0.4223  0.1213  0.5711
  263MOL0     C36214   4.808   2.436   6.275 -0.6136 -0.6990 -0.6355
  263MOL0     O36215   4.920   2.376   6.236  0.3630  0.0933  1.0376
  263MOL0     C36216   4.929   2.289   6.120  0.2650 -0.9284 -0.5857
  263MOL0     C36217   5.066   2.219   6.114  0.2956  0.3086 -0.4613
  263MOL0     C36218   5.183   2.319   6.141 -0.9243 -0.3492 -0.1942
  263MOL0     C36219   5.189   2.435   6.037  0.5355 -0.1453  0.1713
  263MOL0     C36220   5.218   2.378   5.907 -1.3458 -0.4019  0.0410
  263MOL0     C36221   5.248   2.347   5.793  0.1974 -0.0084 -0.8913
  263MOL0     C36222   4.758   2.411   6.412 -0.0897 -0.7575  0.6336
  263MOL0     C36223   4.641   2.471   6.460  0.2070  0.6894 -0.1974
  263MOL0     C36224   4.620   2.454   6.609  0.4092 -0.1822 -0.0686
  263MOL0     H36225   4.206   2.759   6.503  0.1064  0.3574 -1.7137
  263MOL0     H36226   3.971   2.838   6.471 -0.3335 -1.2383  1.1541
  263MOL0     H36227   3.768   2.695   6.487 -0.5505  1.3015  0.1886
  263MOL0     H36228   3.693   2.605   6.343  0.6734 -0.2286 -0.9710
  263MOL0     H36229   3.516   2.732   6.447  1.1431  0.3770  1.9702
  263MOL0     H36230   3.611   2.876   6.446  0.3021 -1.6658  1.9552
  263MOL0     H36231   3.582   2.859   6.191 -1.5517  2.3899  1.9508
  263MOL0     H36232   3.522   2.693   6.218 -1.4434  0.8157 -1.4122
  263MOL0     H36233   3.331   2.814   6.345 -0.1317 -0.6369 -0.0838
  263MOL0     H36234   3.385   2.961   6.261 -3.2046 -0.3703 -0.5456
  263MOL0     H36235   3.201   2.814   6.158 -1.3015 -0.1654 -1.1667
  263MOL0     H36236   3.329   2.710   6.105 -0.5755 -0.9166  1.3446
  263MOL0     H36237   3.278   3.008   6.059  2.2961 -0.1214  2.3391
  263MOL0     H36238   3.421   2.940   6.011 -1.2145  2.5859  4.4991
  263MOL0     H36239   3.241   2.973   5.836  0.4919  0.5639  0.8192
  263MOL0     H36240   3.137   2.857   5.911 -0.5649  1.0007  3.6220
  263MOL0     H36241   3.425   2.779   5.816  0.3148 -2.7982  2.1902
  263MOL0     H36242   3.295   2.668   5.858  1.0180 -0.4153 -0.9679
  263MOL0     H36243   3.486   2.736   5.561 -0.2578  1.8618 -2.7491
  263MOL0     H36244   3.355   2.660   5.262 -0.2486  1.5186  0.5627
  263MOL0     H36245   3.268   2.513   5.329  0.7527 -0.0086 -2.6234
  263MOL0     H36246   3.557   2.605   5.370  0.4964 -0.4029 -0.6244
  263MOL0     H36247   3.476   2.477   5.468  3.1830  1.2510  0.5004
  263MOL0     H36248   3.417   2.367   5.273 -0.9162  1.8703 -1.8384
  263MOL0     H36249   3.501   2.472   5.159 -1.2230 -0.3046 -1.0892
  263MOL0     H36250   3.716   2.423   5.304 -0.4294 -1.7527  3.8556
  263MOL0     H36251   3.629   2.273   5.339 -1.9069  0.6249  0.0719
  263MOL0     H36252   3.699   2.171   4.937  0.6241 -5.1301 -0.5928
  263MOL0     H36253   3.985   2.062   4.741  1.3534  0.2078  0.8030
  263MOL0     H36254   3.810   2.054   4.782  0.7195 -0.4937 -1.3733
  263MOL0     H36255   3.921   1.963   4.881 -1.1892  0.9286  1.1227
  263MOL0     H36256   4.477   2.344   5.138  0.9390  0.1359  0.7319
  263MOL0     H36257   4.717   2.326   5.098  2.0512 -0.6537 -2.4152
  263MOL0     H36258   4.860   2.136   4.706 -1.5790 -0.1917  0.2531
  263MOL0     H36259   4.804   2.307   4.694  2.9839  3.0819  1.3387
  263MOL0     H36260   5.071   2.214   4.786 -0.1663 -0.4842 -0.7770
  263MOL0     H36261   5.020   2.284   4.629 -2.0824  2.1271 -1.0823
  263MOL0     H36262   4.948   2.506   4.790  0.1993  0.3336  1.6303
  263MOL0     H36263   5.102   2.485   4.729  0.3620  0.3696  0.5175
  263MOL0     H36264   5.150   2.338   4.944 -0.7213 -0.0294  0.2201
  263MOL0     H36265   4.996   2.401   5.005  0.5094 -0.3014 -0.0043
  263MOL0     H36266   5.193   2.600   4.906 -2.6172 -1.1021 -2.1018
  263MOL0     H36267   5.054   2.631   4.996  0.2856 -0.2137  1.2686
  263MOL0     H36268   5.265   2.473   5.128 -1.8048 -1.9729 -0.1024
  263MOL0     H36269   5.126   2.554   5.211  1.6197  0.4050  0.8782
  263MOL0     H36270   5.363   2.690   5.070  1.3047 -0.7322  1.2630
  263MOL0     H36271   5.347   2.669   5.243  1.6734 -0.2913 -1.9295
  263MOL0     H36272   5.152   2.833   5.070  1.2175  2.1504 -1.7974
  263MOL0     H36273   5.283   2.893   5.145  0.7199 -0.2846 -1.2309
  263MOL0     H36274   4.620   2.138   4.723 -0.4810  1.0529 -1.4284
  263MOL0     H36275   4.392   2.159   4.759 -2.0185 -2.4583  2.1346
  263MOL0     H36276   4.111   2.314   5.164  0.3908  0.9341 -1.1274
  263MOL0     H36277   3.899   2.360   5.253 -1.2907  3.2117 -1.8377
  263MOL0     H36278   3.926   2.592   6.128  2.0761 -1.3567 -1.1419
  263MOL0     H36279   4.180   2.555   6.133  1.4630  0.0360  1.9079
  263MOL0     H36280   4.552   2.616   6.168 -0.3229  3.8037  2.4746
  263MOL0     H36281   4.754   2.534   6.100 -0.8523 -1.2669  0.3489
  263MOL0     H36282   4.857   2.207   6.130 -0.6015 -0.2269 -0.9460
  263MOL0     H36283   4.896   2.354   6.038 -1.9611  0.5181  1.3276
  263MOL0     H36284   5.077   2.168   6.018 -2.7221 -0.0257 -0.7135
  263MOL0     H36285   5.061   2.140   6.189 -0.7123  2.0370  1.3897
  263MOL0     H36286   5.179   2.362   6.241 -0.1953  4.0576 -1.8277
  263MOL0     H36287   5.277   2.265   6.137  0.1045  1.4335 -1.7712
  263MOL0     H36288   5.263   2.509   6.071 -1.8375  2.1104  0.6859
  263MOL0     H36289   5.099   2.496   6.047  0.4540 -0.1840 -0.2871
  263MOL0     H36290   5.284   2.296   5.705  1.6319 -0.9653  0.2044
  263MOL0     H36291   4.811   2.339   6.473  2.1869  0.3686  0.0856
  263MOL0     H36292   4.517   2.425   6.631  0.6373 -1.6143 -0.8101
  263MOL0     H36293   4.670   2.366   6.651  0.9439 -0.4385 -1.1953
  263MOL0     H36294   4.646   2.545   6.664  1.1602  0.4289 -1.3670
  264MOL0     O36295   1.345   7.529   4.378  0.2126 -0.0168 -0.1743
  264MOL0     C36296   1.373   7.501   4.496  0.5448  0.3634  0.2110
  264MOL0     O36297   1.292   7.492   4.599 -0.5147  0.2696  0.4963
  264MOL0     C36298   1.158   7.494   4.582  0.0466 -0.7012  0.4897
  264MOL0     C36299   1.080   7.618   4.582 -0.1611  1.5126 -0.2759
  264MOL0     C36300   0.938   7.601   4.572  0.2423 -0.1410  0.4323
  264MOL0     C36301   0.873   7.483   4.564  0.1744 -0.5917 -0.1362
  264MOL0     O36302   0.738   7.466   4.546  0.7467 -0.1672 -0.2663
  264MOL0     C36303   0.646   7.577   4.558  0.4971 -0.9071  0.0638
  264MOL0     C36304   0.510   7.523   4.525 -0.3168 -0.4386 -0.4403
  264MOL0     C36305   0.502   7.499   4.369 -0.3708  0.7799  0.2483
  264MOL0     C36306   0.481   7.620   4.276  0.5194  0.1370 -0.4105
  264MOL0     C36307   0.475   7.576   4.131  0.1034 -0.6684 -0.5014
  264MOL0     C36308   0.428   7.694   4.034  1.1196  0.2769 -0.4853
  264MOL0     C36309   0.508   7.829   4.048 -0.0065  0.0970  0.1229
  264MOL0     C36310   0.453   7.928   3.942  0.6027 -0.8549 -0.4021
  264MOL0     N36311   0.480   8.066   3.992  0.2933  0.8186  0.5773
  264MOL0     C36312   0.394   8.159   4.037  0.2897 -0.6888 -0.5966
  264MOL0     C36313   0.464   8.266   4.079  0.0831 -0.2801  0.3497
  264MOL0     C36314   0.415   8.393   4.121  0.5125 -1.4343  0.3337
  264MOL0     C36315   0.404   8.497   4.004  0.6847  0.2995 -0.2751
  264MOL0     C36316   0.530   8.571   3.959 -0.2954 -0.1573 -0.8549
  264MOL0     C36317   0.568   8.692   4.050  0.1015 -0.2668  0.6778
  264MOL0     O36318   0.582   8.651   4.185  0.0732 -1.2988 -0.1352
  264MOL0     C36319   0.620   8.743   4.281 -0.6293 -0.2813  0.0514
  264MOL0     C36320   0.626   8.884   4.264  0.4398  0.8268  0.1691
  264MOL0     C36321   0.687   8.964   4.363  0.4231  0.0420  0.0367
  264MOL0     C36322   0.679   9.119   4.335  0.3684 -0.0359 -0.3484
  264MOL0     C36323   0.741   8.906   4.474 -0.2565 -0.9056 -0.7076
  264MOL0     C36324   0.802   8.973   4.587  1.0450  0.1812  0.9608
  264MOL0     O36325   0.775   8.938   4.719  0.2149  0.5799  0.2782
  264MOL0     C36326   0.877   8.946   4.813  0.6028  0.9749 -0.5828
  264MOL0     C36327   0.833   8.957   4.947  0.4070  0.4782  0.3118
  264MOL0     C36328   0.926   8.929   5.050  0.0353  0.5411 -0.0098
  264MOL0     C36329   1.063   8.913   5.019 -0.0317  0.8424  0.2581
  264MOL0     O36330   1.151   8.873   5.113  0.0962  0.5620  0.3015
  264MOL0     C36331   1.260   8.956   5.142  0.2975 -0.2299  0.7049
  264MOL0     C36332   1.301   8.949   5.287  0.1215  0.9827  0.2410
  264MOL0     C36333   1.415   9.032   5.327 -0.7084  0.5282 -0.3831
  264MOL0     C36334   1.494   8.966   5.442 -0.1607 -0.2973  0.1642
  264MOL0     C36335   1.613   9.047   5.462  0.5345  0.4332 -1.1009
  264MOL0     C36336   1.712   8.982   5.566  0.8933 -0.3550 -0.4502
  264MOL0     C36337   1.824   9.090   5.598  0.5723 -0.2714 -0.7315
  264MOL0     C36338   1.940   9.024   5.673 -0.0208  0.2258  0.6080
  264MOL0    Cl36339   2.072   9.136   5.714 -0.4085  0.4169 -0.0018
  264MOL0     C36340   1.106   8.922   4.883  0.0682  0.4237  0.1940
  264MOL0     C36341   1.008   8.930   4.782 -0.0910 -0.7759  0.7573
  264MOL0     O36342   0.885   9.057   4.553 -0.1188  0.2350 -1.2360
  264MOL0     C36343   0.733   8.770   4.494  1.0702 -0.2759  0.5543
  264MOL0     C36344   0.664   8.691   4.409  0.3062 -0.0472  0.5973
  264MOL0     N36345   0.594   8.239   4.062  0.6037  0.7682 -0.1477
  264MOL0     N36346   0.602   8.127   4.001  0.9229  0.5594 -0.2134
  264MOL0     C36347   0.946   7.366   4.579 -0.7439 -0.4655  0.3441
  264MOL0     C36348   1.091   7.375   4.572 -1.1866 -0.5073 -0.1869
  264MOL0     C36349   1.520   7.490   4.516 -0.7860  0.2919 -0.1191
  264MOL0     C36350   1.588   7.401   4.427 -0.9888 -0.4802 -0.1625
  264MOL0     C36351   1.724   7.372   4.439  0.1952  0.1335 -0.2291
  264MOL0     C36352   1.797   7.435   4.542 -0.3305 -0.0926  0.1025
  264MOL0     O36353   1.937   7.419   4.571  0.4785  0.0877  0.1077
  264MOL0     C36354   2.030   7.344   4.496 -0.5836 -0.6160 -1.0951
  264MOL0     C36355   2.182   7.392   4.510 -0.3525  0.5690 -0.7021
  264MOL0     C36356   2.231   7.342   4.649 -0.1392 -0.1491  0.1542
  264MOL0     C36357   2.381   7.387   4.669  0.7240 -0.3698  0.8320
  264MOL0     C36358   2.442   7.341   4.796  0.2727  0.2395 -0.3670
  264MOL0     C36359   2.487   7.292   4.893  0.1913  0.9055  0.2881
  264MOL0     C36360   1.723   7.522   4.631 -0.9778  0.4282  0.0167
  264MOL0     C36361   1.589   7.544   4.625 -0.1576 -0.0389 -0.4823
  264MOL0     C36362   1.525   7.642   4.713 -0.1105 -0.2520 -0.2027
  264MOL0     H36363   1.142   7.707   4.590  2.1795 -0.1196  0.6940
  264MOL0     H36364   0.881   7.691   4.554  0.0320 -0.7780 -2.6483
  264MOL0     H36365   0.662   7.657   4.485 -0.6506 -0.0074  0.7740
  264MOL0     H36366   0.641   7.616   4.660 -1.1233 -2.9480  0.8389
  264MOL0     H36367   0.501   7.422   4.568 -0.8505 -0.2137 -0.0026
  264MOL0     H36368   0.425   7.580   4.563 -1.7177 -2.8299  0.2373
  264MOL0     H36369   0.591   7.444   4.337 -1.1821  0.2072 -1.0762
  264MOL0     H36370   0.423   7.424   4.361  1.3108 -1.2405  1.3710
  264MOL0     H36371   0.391   7.678   4.300  1.6032  1.3012  1.0327
  264MOL0     H36372   0.569   7.685   4.287 -0.1797  0.9394  0.7174
  264MOL0     H36373   0.398   7.500   4.117 -0.7536 -0.3003  1.8525
  264MOL0     H36374   0.580   7.548   4.120  1.2129  2.3688  1.1234
  264MOL0     H36375   0.423   7.657   3.932 -1.7105 -0.4943 -0.1514
  264MOL0     H36376   0.323   7.713   4.058  1.2252  3.2292 -1.8706
  264MOL0     H36377   0.616   7.809   4.045  0.0818  0.6653 -0.6648
  264MOL0     H36378   0.495   7.871   4.148  0.9006 -0.6649  0.5869
  264MOL0     H36379   0.510   7.903   3.852  0.3418 -4.0434  0.2118
  264MOL0     H36380   0.344   7.916   3.935  0.7169 -3.4849  1.0794
  264MOL0     H36381   0.285   8.157   4.038  0.2454 -1.7501 -2.5623
  264MOL0     H36382   0.477   8.422   4.206  1.6224  1.5433 -1.3384
  264MOL0     H36383   0.310   8.376   4.147  0.6598  0.6983  2.8213
  264MOL0     H36384   0.358   8.438   3.924  0.9606 -3.0016  1.8067
  264MOL0     H36385   0.340   8.578   4.041  2.2777  1.6074 -0.2721
  264MOL0     H36386   0.608   8.496   3.976 -1.6728 -1.8361 -1.6977
  264MOL0     H36387   0.525   8.605   3.855 -1.6542  1.2511 -0.3698
  264MOL0     H36388   0.656   8.738   4.004  1.5914 -1.4573  2.1940
  264MOL0     H36389   0.493   8.770   4.038  0.4487 -0.3680 -3.2688
  264MOL0     H36390   0.594   8.915   4.165  0.1645 -0.0724 -0.0374
  264MOL0     H36391   0.629   9.154   4.244 -0.4479  1.7462  0.7256
  264MOL0     H36392   0.783   9.151   4.322  0.2434 -0.2257 -1.9746
  264MOL0     H36393   0.636   9.166   4.424  0.5086 -1.6725  0.6294
  264MOL0     H36394   0.725   8.956   4.959  0.1180 -0.5098 -2.0183
  264MOL0     H36395   0.897   8.929   5.155  3.0306  0.8343  0.8883
  264MOL0     H36396   1.342   8.927   5.076 -0.6206 -3.1322  0.6916
  264MOL0     H36397   1.248   9.064   5.127  0.8868 -0.1547  0.7551
  264MOL0     H36398   1.213   8.987   5.341 -1.3331 -1.0844 -0.5369
  264MOL0     H36399   1.320   8.847   5.321 -1.1160  0.9430  0.8765
  264MOL0     H36400   1.381   9.132   5.356  0.8493  1.0072 -0.0931
  264MOL0     H36401   1.489   9.041   5.246  0.5913 -3.5529  0.1457
  264MOL0     H36402   1.515   8.863   5.415 -1.0285 -0.3522 -0.3692
  264MOL0     H36403   1.434   8.965   5.533  2.1391  0.9366  1.7925
  264MOL0     H36404   1.658   9.051   5.363  2.0069 -1.6374 -0.5930
  264MOL0     H36405   1.584   9.147   5.497 -0.9471 -0.2050 -0.3712
  264MOL0     H36406   1.762   8.892   5.528  2.1936 -0.0926  0.5455
  264MOL0     H36407   1.654   8.959   5.656  0.1711 -1.0994 -1.0930
  264MOL0     H36408   1.795   9.174   5.662 -0.3335 -1.7681  0.9229
  264MOL0     H36409   1.856   9.136   5.504 -0.2044  0.2468 -0.7542
  264MOL0     H36410   1.978   8.947   5.605 -1.2610 -1.6628  1.9441
  264MOL0     H36411   1.896   8.987   5.766 -1.2763 -1.1184 -0.4802
  264MOL0     H36412   1.214   8.929   4.873  0.2585 -1.8422  0.1684
  264MOL0     H36413   1.053   8.933   4.683  1.8465  2.5759  1.5744
  264MOL0     H36414   0.777   8.743   4.590 -0.2894  4.4994  2.8895
  264MOL0     H36415   0.650   8.586   4.437 -0.6318  0.4681  2.2661
  264MOL0     H36416   0.898   7.269   4.581  0.0041 -1.2021 -4.3692
  264MOL0     H36417   1.154   7.287   4.563  0.4140  0.7894 -2.7558
  264MOL0     H36418   1.526   7.355   4.351  1.0727 -1.7988 -1.1551
  264MOL0     H36419   1.772   7.302   4.371  1.2419 -0.6718  1.2979
  264MOL0     H36420   2.009   7.241   4.524 -3.1855  0.8902  3.5216
  264MOL0     H36421   2.004   7.369   4.393 -1.2428  0.0931 -0.7722
  264MOL0     H36422   2.175   7.501   4.508  1.4069  0.7117 -0.4491
  264MOL0     H36423   2.250   7.356   4.433 -0.7801  0.3890 -0.9990
  264MOL0     H36424   2.169   7.382   4.730 -2.1826 -2.3915 -0.2046
  264MOL0     H36425   2.235   7.234   4.634  1.6005  0.2892 -3.8861
  264MOL0     H36426   2.389   7.496   4.661 -2.6913 -0.0942 -0.9921
  264MOL0     H36427   2.437   7.336   4.591  0.4012 -3.1850  2.3325
  264MOL0     H36428   2.506   7.257   4.993 -2.7284  1.5921  1.1915
  264MOL0     H36429   1.790   7.568   4.703  0.3592 -0.8788 -0.3311
  264MOL0     H36430   1.496   7.606   4.812  1.0896 -0.3654  0.1275
  264MOL0     H36431   1.596   7.718   4.744  2.0603 -2.3700  0.3499
  264MOL0     H36432   1.434   7.684   4.669  1.6141  2.2393 -1.6504
  265MOL0     O36433   0.260   2.008   3.483 -0.3198 -0.6452  0.4941
  265MOL0     C36434   0.364   2.076   3.491  0.4572 -0.1691 -0.8002
  265MOL0     O36435   0.365   2.204   3.486  0.0213 -0.0447 -0.7883
  265MOL0     C36436   0.253   2.280   3.467  0.1693  0.0233 -0.7765
  265MOL0     C36437   0.272   2.401   3.398  0.6201 -0.3446  0.9609
  265MOL0     C36438   0.165   2.490   3.365  0.3966 -0.0045  0.4695
  265MOL0     C36439   0.033   2.458   3.398 -0.9485 -0.5094  0.6198
  265MOL0     O36440  -0.064   2.553   3.358  0.1070 -0.1803  0.3657
  265MOL0     C36441  -0.204   2.525   3.379 -0.5392 -0.0747 -0.2339
  265MOL0     C36442  -0.284   2.648   3.340 -0.7847  0.6145 -0.8671
  265MOL0     C36443  -0.294   2.766   3.442 -0.4780  0.5907 -0.0824
  265MOL0     C36444  -0.174   2.861   3.436 -0.0812 -0.4285  0.0445
  265MOL0     C36445  -0.193   2.967   3.542  0.3523  0.1871 -0.0818
  265MOL0     C36446  -0.101   3.089   3.525  0.0758  0.8197 -0.1627
  265MOL0     C36447  -0.120   3.182   3.648  1.1717  0.1283  0.4689
  265MOL0     C36448  -0.056   3.319   3.621  0.3173 -0.1839  0.3607
  265MOL0     N36449  -0.028   3.395   3.750  0.2478 -0.0962 -0.3070
  265MOL0     C36450  -0.103   3.410   3.861  0.0822 -0.2764  1.1451
  265MOL0     C36451  -0.046   3.495   3.945 -0.1070 -0.6933 -0.4773
  265MOL0     C36452  -0.105   3.548   4.068 -0.4581  0.6099  0.0685
  265MOL0     C36453  -0.041   3.682   4.118  0.7420  0.3754 -0.3787
  265MOL0     C36454  -0.105   3.724   4.249  0.3734 -0.0774 -0.2565
  265MOL0     C36455  -0.016   3.815   4.338  0.5358 -0.6250 -0.1715
  265MOL0     O36456  -0.093   3.855   4.448  0.2300  0.5561  0.9833
  265MOL0     C36457  -0.021   3.907   4.556 -0.0235 -0.2170 -0.0872
  265MOL0     C36458   0.030   3.817   4.647 -0.8168  0.1454 -0.1081
  265MOL0     C36459   0.087   3.874   4.764 -0.4806  0.9878  0.4260
  265MOL0     C36460   0.156   3.776   4.859  0.1093  0.3718  0.0792
  265MOL0     C36461   0.091   4.018   4.780  0.1783  0.2726 -0.1438
  265MOL0     C36462   0.139   4.075   4.907  0.3516  0.5102  0.3998
  265MOL0     O36463   0.076   4.022   5.019  0.0914 -0.8541 -0.7175
  265MOL0     C36464   0.094   4.082   5.137  0.0345 -0.8548  1.0355
  265MOL0     C36465   0.207   4.060   5.220  1.2172 -0.1533  0.2278
  265MOL0     C36466   0.217   4.141   5.339 -0.0850  0.7205 -1.1004
  265MOL0     C36467   0.122   4.235   5.362  0.9158 -0.5999 -0.6056
  265MOL0     O36468   0.116   4.327   5.461 -0.5805 -0.1991  0.6035
  265MOL0     C36469   0.140   4.276   5.594 -0.2228 -0.1541 -0.6124
  265MOL0     C36470   0.137   4.382   5.712 -0.0256  0.4573  0.2965
  265MOL0     C36471  -0.008   4.421   5.731 -0.1462  0.2401 -0.2004
  265MOL0     C36472  -0.038   4.514   5.849  0.0411 -0.6538  0.3384
  265MOL0     C36473  -0.037   4.429   5.976  0.0626  0.3305  0.5835
  265MOL0     C36474  -0.104   4.512   6.088 -0.2648 -0.1810  0.6464
  265MOL0     C36475  -0.109   4.460   6.225  0.3801 -0.0070 -0.4346
  265MOL0     C36476  -0.207   4.532   6.317  0.1265  0.8952 -0.0299
  265MOL0    Cl36477  -0.383   4.531   6.263 -0.0171 -0.1133  0.1745
  265MOL0     C36478   0.019   4.257   5.276  1.0679  0.1117  0.6679
  265MOL0     C36479  -0.003   4.180   5.158 -0.2963 -1.0145 -0.0142
  265MOL0     O36480   0.219   4.165   4.911  0.5679 -0.7028  0.3521
  265MOL0     C36481   0.037   4.107   4.682  0.5089 -0.0248  0.5107
  265MOL0     C36482  -0.011   4.047   4.559 -0.3459  0.1622 -0.0665
  265MOL0     N36483   0.072   3.532   3.893  0.5127 -0.5820  0.8214
  265MOL0     N36484   0.084   3.461   3.784 -0.2166  0.4496 -1.0239
  265MOL0     C36485   0.016   2.341   3.469  0.1574 -1.0553  0.3675
  265MOL0     C36486   0.122   2.257   3.513  0.7085  0.0227 -0.5245
  265MOL0     C36487   0.490   1.990   3.483 -0.6418 -0.3076  0.3630
  265MOL0     C36488   0.478   1.855   3.451 -0.4017  0.1939  0.2077
  265MOL0     C36489   0.584   1.768   3.433 -0.7380  0.3494 -0.2613
  265MOL0     C36490   0.715   1.808   3.470 -0.0513  0.7658  0.4698
  265MOL0     O36491   0.821   1.720   3.450 -0.3597 -0.4180  0.7054
  265MOL0     C36492   0.959   1.765   3.427  0.1950  1.0569 -0.6364
  265MOL0     C36493   1.038   1.634   3.420 -0.1726 -0.9307 -0.1175
  265MOL0     C36494   1.193   1.657   3.435  0.3252 -0.1646 -0.1234
  265MOL0     C36495   1.235   1.719   3.562 -1.1986 -0.3899 -0.2011
  265MOL0     C36496   1.382   1.702   3.587  0.5238  0.5377  0.4659
  265MOL0     C36497   1.500   1.727   3.601 -0.4246 -0.2423 -0.4490
  265MOL0     C36498   0.731   1.941   3.515 -0.1833  0.7776  0.2578
  265MOL0     C36499   0.628   2.034   3.507  0.4872 -0.7650  0.5914
  265MOL0     C36500   0.657   2.175   3.556  1.3499 -0.2155 -0.3458
  265MOL0     H36501   0.372   2.436   3.373  0.7660 -0.2926  1.5911
  265MOL0     H36502   0.180   2.582   3.311  1.3074 -0.1200  0.5153
  265MOL0     H36503  -0.215   2.514   3.487 -6.0794  0.1996 -0.4877
  265MOL0     H36504  -0.232   2.426   3.342  0.9460 -0.8381  0.5675
  265MOL0     H36505  -0.235   2.697   3.255 -1.0839  2.3987 -0.0574
  265MOL0     H36506  -0.386   2.624   3.311 -1.8116  2.3832  0.9888
  265MOL0     H36507  -0.391   2.816   3.432 -1.0379  0.0201  2.0941
  265MOL0     H36508  -0.303   2.726   3.543 -3.4849 -2.2407 -1.2982
  265MOL0     H36509  -0.079   2.809   3.452  0.6329  0.1174 -2.0719
  265MOL0     H36510  -0.175   2.906   3.336  3.3895 -0.6757 -0.2215
  265MOL0     H36511  -0.171   2.935   3.645  0.7758  4.6643  1.4347
  265MOL0     H36512  -0.297   2.999   3.552 -1.4377 -5.1818  2.8592
  265MOL0     H36513   0.004   3.063   3.511 -0.5510 -1.6556 -0.7114
  265MOL0     H36514  -0.134   3.143   3.435 -0.0363  1.4469  0.2475
  265MOL0     H36515  -0.065   3.135   3.731  1.0468  3.0292  2.3380
  265MOL0     H36516  -0.223   3.205   3.677  0.7496  0.1849 -0.9927
  265MOL0     H36517   0.037   3.292   3.570 -0.0739 -2.5784  0.7824
  265MOL0     H36518  -0.118   3.376   3.551  1.1288 -2.3201 -2.2539
  265MOL0     H36519  -0.192   3.354   3.887 -1.5077  2.1929  1.3092
  265MOL0     H36520  -0.082   3.470   4.141 -1.9103  0.8663  0.8371
  265MOL0     H36521  -0.214   3.554   4.060 -0.8427 -1.5144  2.4516
  265MOL0     H36522   0.068   3.682   4.124  0.8261  0.6629 -1.5572
  265MOL0     H36523  -0.061   3.753   4.037 -2.0762 -0.0383 -0.1372
  265MOL0     H36524  -0.205   3.768   4.243 -0.1248 -1.2403 -1.0622
  265MOL0     H36525  -0.116   3.635   4.312  3.0138  1.1014  2.0817
  265MOL0     H36526   0.074   3.769   4.379  0.8748 -1.1492 -1.4655
  265MOL0     H36527   0.008   3.907   4.283 -1.9617  1.1194  1.4477
  265MOL0     H36528   0.024   3.710   4.634 -2.3544  0.0704  0.8999
  265MOL0     H36529   0.249   3.809   4.906  1.2361  0.5920 -2.1675
  265MOL0     H36530   0.160   3.681   4.804 -1.0596  0.7062 -0.6268
  265MOL0     H36531   0.087   3.740   4.936 -0.5578  0.9342 -0.2338
  265MOL0     H36532   0.290   3.993   5.198  1.2185  0.3904 -1.5798
  265MOL0     H36533   0.303   4.134   5.404 -1.1800  3.7858  0.8949
  265MOL0     H36534   0.057   4.207   5.613 -1.9595  2.1652  0.8892
  265MOL0     H36535   0.233   4.220   5.596 -0.2862 -0.4783  4.1037
  265MOL0     H36536   0.179   4.345   5.805 -0.9918  0.5767  0.7922
  265MOL0     H36537   0.185   4.474   5.677  1.8902 -0.9823 -1.1082
  265MOL0     H36538  -0.070   4.332   5.734  2.1663 -1.4381  0.1460
  265MOL0     H36539  -0.038   4.479   5.643 -0.3320  2.9759  1.5415
  265MOL0     H36540  -0.132   4.569   5.835  1.9370  2.7692  0.1201
  265MOL0     H36541   0.037   4.592   5.860 -3.1613  2.4766  2.0309
  265MOL0     H36542  -0.111   4.349   5.970 -0.7220  1.0874 -0.0826
  265MOL0     H36543   0.064   4.390   5.995 -0.8074 -3.7243 -2.0418
  265MOL0     H36544  -0.210   4.513   6.061 -0.2970  0.4835  0.7684
  265MOL0     H36545  -0.073   4.617   6.082  3.0065 -1.0893 -1.1659
  265MOL0     H36546  -0.010   4.468   6.270  1.2783 -2.8213 -1.6355
  265MOL0     H36547  -0.137   4.354   6.229 -0.1632  0.1221 -0.7342
  265MOL0     H36548  -0.164   4.633   6.325  0.6265  1.5359 -5.8190
  265MOL0     H36549  -0.214   4.485   6.415  0.7465  3.7422  1.4846
  265MOL0     H36550  -0.038   4.347   5.299  0.1426  0.5752 -2.8956
  265MOL0     H36551  -0.090   4.198   5.095 -3.0027 -0.3321  3.5505
  265MOL0     H36552   0.026   4.214   4.699 -1.5794 -0.3850  1.7282
  265MOL0     H36553  -0.049   4.116   4.485  0.0294 -1.1771 -1.5475
  265MOL0     H36554  -0.085   2.308   3.491  0.4953 -2.6738 -0.3975
  265MOL0     H36555   0.107   2.172   3.579  0.7401  1.5314  1.5335
  265MOL0     H36556   0.380   1.818   3.424  0.7984 -1.1238 -2.7970
  265MOL0     H36557   0.572   1.667   3.397  1.5682  0.9069 -2.9106
  265MOL0     H36558   0.967   1.811   3.329 -3.6193 -0.7488 -1.9968
  265MOL0     H36559   0.997   1.836   3.501 -1.6054 -1.2396  2.7675
  265MOL0     H36560   1.015   1.587   3.324 -1.0489  1.1423 -0.9874
  265MOL0     H36561   1.005   1.558   3.492  2.2807 -1.3846  0.6207
  265MOL0     H36562   1.241   1.559   3.423 -1.6553 -1.1531 -0.3149
  265MOL0     H36563   1.224   1.715   3.348  2.1415 -2.0243 -0.8058
  265MOL0     H36564   1.187   1.675   3.649 -2.1322 -0.7734 -0.8943
  265MOL0     H36565   1.213   1.826   3.568 -2.3872 -0.7053  2.2115
  265MOL0     H36566   1.606   1.740   3.613 -0.3174 -3.0244  3.5272
  265MOL0     H36567   0.828   1.981   3.542  0.0123  0.4347  0.0700
  265MOL0     H36568   0.620   2.258   3.495 -0.2883  0.1990  1.1619
  265MOL0     H36569   0.617   2.188   3.656  2.5291  0.3222  0.0766
  265MOL0     H36570   0.765   2.189   3.555  1.2495  0.6847 -1.2352
  266MOL0     O36571   0.923   5.425   3.711  0.5593 -0.3987  0.0652
  266MOL0     C36572   0.827   5.486   3.747 -1.0876  0.0400  0.1292
  266MOL0     O36573   0.807   5.538   3.867  0.0530 -1.0899  1.0270
  266MOL0     C36574   0.897   5.510   3.966  0.1090  0.1176 -0.4760
  266MOL0     C36575   0.910   5.607   4.067  0.5036 -0.4548  0.2728
  266MOL0     C36576   0.985   5.585   4.190 -0.4759 -0.2973 -0.1631
  266MOL0     C36577   1.045   5.458   4.214  0.3223 -1.1358  0.0100
  266MOL0     O36578   1.107   5.418   4.330 -0.5157  0.3050  0.2165
  266MOL0     C36579   1.082   5.484   4.453 -0.4524 -0.8595  0.2447
  266MOL0     C36580   0.953   5.447   4.516 -0.6739  0.8559 -0.1748
  266MOL0     C36581   0.905   5.537   4.622 -0.1400  0.6673 -0.1498
  266MOL0     C36582   0.776   5.490   4.683 -0.3349 -0.4768  0.3233
  266MOL0     C36583   0.653   5.509   4.583 -0.0941  0.4198  0.0726
  266MOL0     C36584   0.648   5.650   4.519  0.0723 -0.5553  0.3692
  266MOL0     C36585   0.630   5.762   4.628 -0.0232  0.4966  0.4863
  266MOL0     C36586   0.585   5.893   4.567 -0.7070  1.0002 -0.8695
  266MOL0     N36587   0.706   5.944   4.502  0.0435  0.0885 -0.8420
  266MOL0     C36588   0.728   5.953   4.370 -0.1505  0.4758  0.4391
  266MOL0     C36589   0.859   5.990   4.355 -0.5024  1.3356 -1.1896
  266MOL0     C36590   0.940   6.007   4.227  0.0507 -0.7534 -0.4067
  266MOL0     C36591   0.860   6.029   4.099  0.0975 -0.3569  0.4577
  266MOL0     C36592   0.945   6.051   3.980  0.8257 -0.0441 -0.6646
  266MOL0     C36593   1.040   5.931   3.948  0.0287  0.4385 -0.4436
  266MOL0     O36594   1.094   5.945   3.815 -0.3862  0.0900 -1.0075
  266MOL0     C36595   1.176   5.846   3.776  0.8674 -0.0616 -0.0037
  266MOL0     C36596   1.308   5.868   3.742 -0.2697 -0.2956  0.5994
  266MOL0     C36597   1.404   5.772   3.713  0.4302 -0.6925  0.3107
  266MOL0     C36598   1.534   5.824   3.663 -0.1640  0.6496  0.2786
  266MOL0     C36599   1.373   5.637   3.726  0.7373  0.2951  0.1167
  266MOL0     C36600   1.463   5.519   3.700 -0.1549 -0.2760  0.5836
  266MOL0     O36601   1.414   5.391   3.700  0.9242  1.0796 -0.2880
  266MOL0     C36602   1.504   5.286   3.705  0.8537  0.0197 -0.2616
  266MOL0     C36603   1.524   5.227   3.829  0.1143 -0.1789  0.2305
  266MOL0     C36604   1.606   5.118   3.841 -0.3472 -0.1567 -0.0440
  266MOL0     C36605   1.675   5.067   3.727  0.2614  0.2601 -0.7201
  266MOL0     O36606   1.764   4.967   3.742  0.1250  0.6324  0.2393
  266MOL0     C36607   1.799   4.896   3.621  0.1297  0.8878  0.0603
  266MOL0     C36608   1.931   4.962   3.554  1.0309 -0.1859 -1.1206
  266MOL0     C36609   1.972   4.889   3.422 -0.6252 -0.6507 -0.5669
  266MOL0     C36610   2.022   4.743   3.449  0.4031 -0.4735 -0.2098
  266MOL0     C36611   2.066   4.665   3.327 -0.6541 -0.3119  1.1085
  266MOL0     C36612   1.952   4.637   3.223 -0.6966  0.0249  0.4217
  266MOL0     C36613   2.043   4.593   3.095  0.1303  0.3245  0.4782
  266MOL0     C36614   2.013   4.450   3.064  0.0462  0.1801 -0.7718
  266MOL0    Cl36615   2.104   4.409   2.913 -0.4631  0.5057  0.1842
  266MOL0     C36616   1.648   5.134   3.603 -0.1713 -0.1886  0.2919
  266MOL0     C36617   1.573   5.242   3.601 -0.8409  0.5363  0.4103
  266MOL0     O36618   1.582   5.539   3.693  0.0650 -0.6452 -0.3709
  266MOL0     C36619   1.237   5.610   3.766  0.5009  0.2709 -0.1565
  266MOL0     C36620   1.138   5.710   3.782  0.3244  0.5862 -0.2699
  266MOL0     N36621   0.910   6.016   4.485  0.0422  0.5940 -0.1356
  266MOL0     N36622   0.820   5.989   4.568  1.3165  0.7754 -0.6229
  266MOL0     C36623   1.030   5.360   4.111  0.6679 -0.1650  1.0655
  266MOL0     C36624   0.954   5.386   3.993  0.8739  0.2560  0.5942
  266MOL0     C36625   0.705   5.481   3.658 -0.3760 -0.6959  1.0955
  266MOL0     C36626   0.580   5.512   3.724 -0.4444 -0.3860  0.1359
  266MOL0     C36627   0.464   5.527   3.647  0.0878  0.2841 -0.0052
  266MOL0     C36628   0.463   5.466   3.521  0.1612 -0.4576  0.3484
  266MOL0     O36629   0.349   5.480   3.447  1.5172 -0.2451 -0.0719
  266MOL0     C36630   0.353   5.440   3.309  0.0293  0.0187 -0.4487
  266MOL0     C36631   0.222   5.457   3.237  0.6140  0.4352 -0.3901
  266MOL0     C36632   0.222   5.584   3.150  0.2140  0.5042 -0.4309
  266MOL0     C36633   0.085   5.612   3.090  0.0099  0.4285 -0.3334
  266MOL0     C36634  -0.008   5.656   3.195  0.2894  0.0839 -0.0067
  266MOL0     C36635  -0.074   5.716   3.264  0.4021 -0.2005 -0.3144
  266MOL0     C36636   0.584   5.419   3.455  0.6257 -0.2131 -0.0950
  266MOL0     C36637   0.707   5.435   3.516  0.5922 -0.0537 -0.4179
  266MOL0     C36638   0.827   5.385   3.448 -0.8601  0.6855  0.9466
  266MOL0     H36639   0.860   5.703   4.061  1.0264 -0.2494 -1.1079
  266MOL0     H36640   0.995   5.671   4.256  1.8318 -0.3037 -0.4352
  266MOL0     H36641   1.106   5.589   4.436  2.5720 -1.2491  1.4194
  266MOL0     H36642   1.166   5.458   4.519  1.1409  0.4777 -1.1620
  266MOL0     H36643   0.886   5.449   4.429  1.3451 -1.2308 -1.9022
  266MOL0     H36644   0.955   5.343   4.550 -0.1372 -0.1542 -3.0148
  266MOL0     H36645   0.981   5.528   4.700 -2.0803 -1.9659  1.6401
  266MOL0     H36646   0.893   5.642   4.592 -5.4192  0.1459 -0.8514
  266MOL0     H36647   0.781   5.389   4.726  0.6588 -0.6715 -0.2233
  266MOL0     H36648   0.771   5.568   4.760  4.5057  3.2046 -2.5418
  266MOL0     H36649   0.558   5.502   4.637 -0.0573  0.7147  0.1747
  266MOL0     H36650   0.662   5.428   4.510  1.2567 -1.2075  1.9392
  266MOL0     H36651   0.728   5.663   4.446 -1.8598  2.0833 -1.4848
  266MOL0     H36652   0.558   5.654   4.457  0.9681  0.0760 -0.9164
  266MOL0     H36653   0.727   5.772   4.678 -1.0524 -0.0300  2.7510
  266MOL0     H36654   0.551   5.726   4.694  0.3544 -2.0518 -0.3274
  266MOL0     H36655   0.499   5.890   4.499 -1.8385 -0.5882  0.5392
  266MOL0     H36656   0.562   5.955   4.654 -0.8696  2.5061 -1.9421
  266MOL0     H36657   0.643   5.938   4.304 -0.4844  0.1635  0.9383
  266MOL0     H36658   0.995   5.912   4.229  0.4475 -0.5153  0.4412
  266MOL0     H36659   1.011   6.090   4.231 -0.9334  0.1151 -0.4598
  266MOL0     H36660   0.784   5.953   4.079  1.5097 -1.5488 -0.6431
  266MOL0     H36661   0.801   6.120   4.110 -2.1583 -1.5745 -0.7401
  266MOL0     H36662   0.869   6.073   3.903  0.5945 -2.5253 -1.2207
  266MOL0     H36663   1.001   6.142   4.006 -1.9118  1.8212 -0.8143
  266MOL0     H36664   1.120   5.922   4.022 -0.7721  2.6026  0.7725
  266MOL0     H36665   0.979   5.840   3.951 -1.3849  1.3771  1.0365
  266MOL0     H36666   1.331   5.973   3.735 -2.6030  0.1849 -1.1188
  266MOL0     H36667   1.604   5.800   3.744 -1.8247  0.4161  1.7011
  266MOL0     H36668   1.538   5.931   3.639 -1.3582  0.2996 -1.7582
  266MOL0     H36669   1.550   5.756   3.579  1.6539 -1.4579  2.1984
  266MOL0     H36670   1.465   5.258   3.915 -1.6236 -3.1225  0.2501
  266MOL0     H36671   1.615   5.064   3.936 -0.5277  2.0209  1.2732
  266MOL0     H36672   1.815   4.789   3.641 -0.6299  0.3084 -2.1240
  266MOL0     H36673   1.719   4.893   3.546 -0.6965 -0.5678  0.9423
  266MOL0     H36674   1.907   5.066   3.529  0.2127  0.4249  1.8849
  266MOL0     H36675   2.015   4.965   3.623 -0.2716 -2.6022  0.7380
  266MOL0     H36676   2.051   4.949   3.376 -1.6823 -0.5655 -2.3692
  266MOL0     H36677   1.884   4.899   3.358 -0.9892  0.3582  0.0659
  266MOL0     H36678   1.946   4.686   3.503  0.2453 -0.2146 -0.1571
  266MOL0     H36679   2.108   4.748   3.517  0.2375  3.2716 -0.0547
  266MOL0     H36680   2.148   4.721   3.281 -2.1005  1.0074  0.0420
  266MOL0     H36681   2.105   4.566   3.353  0.8225 -0.5111 -1.4558
  266MOL0     H36682   1.897   4.731   3.213 -0.2067  0.3886  1.0367
  266MOL0     H36683   1.882   4.561   3.260  2.2016 -3.0942 -0.0107
  266MOL0     H36684   2.151   4.614   3.095  0.5656 -1.3702 -2.4201
  266MOL0     H36685   1.989   4.655   3.024 -0.7640  0.2369  1.0695
  266MOL0     H36686   1.905   4.437   3.052 -0.2884  1.0664  1.0161
  266MOL0     H36687   2.043   4.387   3.148  0.2699 -1.8322 -2.2884
  266MOL0     H36688   1.707   5.106   3.517 -0.1891 -0.4792  0.3722
  266MOL0     H36689   1.558   5.283   3.502 -1.0504 -2.6060 -0.9597
  266MOL0     H36690   1.206   5.508   3.788  0.7695  0.0114 -0.9770
  266MOL0     H36691   1.035   5.689   3.807  0.6787  1.6855  2.4080
  266MOL0     H36692   1.085   5.267   4.114 -0.2199 -0.8301 -1.2845
  266MOL0     H36693   0.945   5.302   3.925  2.0297  0.0101  0.7351
  266MOL0     H36694   0.574   5.547   3.826  2.0265 -0.7729  0.4816
  266MOL0     H36695   0.371   5.557   3.693 -1.8721 -2.2428 -1.9851
  266MOL0     H36696   0.426   5.496   3.250 -1.6435 -0.0081 -2.6972
  266MOL0     H36697   0.375   5.333   3.303  1.0709  0.1685  0.5330
  266MOL0     H36698   0.142   5.463   3.312  1.8562 -0.7067  1.0825
  266MOL0     H36699   0.215   5.364   3.180  2.3891 -1.7491  2.6261
  266MOL0     H36700   0.249   5.680   3.194 -1.7490  0.2366  1.5663
  266MOL0     H36701   0.283   5.566   3.062 -1.4644  0.5510 -1.6593
  266MOL0     H36702   0.035   5.528   3.042  0.6716 -1.0239  1.3748
  266MOL0     H36703   0.094   5.691   3.015 -0.4139 -0.2197 -1.0790
  266MOL0     H36704  -0.150   5.768   3.320  0.3385  0.0904 -0.6647
  266MOL0     H36705   0.586   5.366   3.360 -0.0067 -1.1601  0.4143
  266MOL0     H36706   0.827   5.403   3.340  4.8308  0.0358  0.5166
  266MOL0     H36707   0.922   5.434   3.473  0.8675  0.1741 -3.6382
  266MOL0     H36708   0.833   5.277   3.458  0.7312  0.6354 -0.1688
  267MOL0     O36709   1.001   9.587  10.434 -0.2033 -0.2608  0.2898
  267MOL0     C36710   0.971   9.612  10.548 -1.3442  0.0935 -0.7337
  267MOL0     O36711   0.981   9.729  10.606 -0.2003  0.1505 -0.0558
  267MOL0     C36712   0.999   9.838  10.530  0.4574 -0.2519  0.6788
  267MOL0     C36713   0.888   9.894  10.469 -0.4215  0.9871  0.0754
  267MOL0     C36714   0.896  10.013  10.390 -0.4372  0.3947  0.4016
  267MOL0     C36715   1.022  10.060  10.347  0.2368 -0.2886  0.8796
  267MOL0     O36716   1.024  10.167  10.254 -0.0678  0.2234 -0.3717
  267MOL0     C36717   1.150  10.232  10.215  0.9009  0.2185 -0.5107
  267MOL0     C36718   1.118  10.319  10.093  1.0892 -0.6109 -0.5688
  267MOL0     C36719   1.026  10.250   9.990 -0.0175 -0.7822 -0.3127
  267MOL0     C36720   0.994  10.341   9.867  0.8214  0.5191 -0.3645
  267MOL0     C36721   0.913  10.269   9.754 -0.2703  0.2874  0.5051
  267MOL0     C36722   0.869  10.362   9.645  0.1947 -0.9123  0.4696
  267MOL0     C36723   0.926  10.325   9.507 -0.3687  0.3094  0.2452
  267MOL0     C36724   1.060  10.388   9.499 -0.3024 -0.6668 -0.7123
  267MOL0     N36725   1.151  10.334   9.400  0.4503 -0.7358  0.5250
  267MOL0     C36726   1.190  10.207   9.370 -0.2018  0.3831  0.6016
  267MOL0     C36727   1.285  10.208   9.265 -0.4582  0.2034  1.1030
  267MOL0     C36728   1.333  10.082   9.191  0.1356  0.9433  0.0257
  267MOL0     C36729   1.479  10.091   9.134 -0.5491  0.4257 -0.3713
  267MOL0     C36730   1.518   9.952   9.068 -0.0902  0.1380 -0.9278
  267MOL0     C36731   1.486   9.826   9.154 -0.1713 -1.3994  0.5044
  267MOL0     O36732   1.532   9.834   9.290 -0.0943  0.3324 -0.4127
  267MOL0     C36733   1.669   9.853   9.322  0.1839 -0.5950 -0.6574
  267MOL0     C36734   1.704   9.879   9.451  0.1827  0.1366  0.0121
  267MOL0     C36735   1.836   9.883   9.501 -1.0183  0.0890  0.4717
  267MOL0     C36736   1.855   9.919   9.643  0.8435  0.0701  0.5485
  267MOL0     C36737   1.946   9.852   9.411 -0.0399 -0.7929  0.1442
  267MOL0     C36738   2.084   9.823   9.459  0.5083 -0.3992  0.0116
  267MOL0     O36739   2.093   9.763   9.584 -0.3914  0.5283  0.4245
  267MOL0     C36740   2.210   9.742   9.642 -0.4901  0.5423 -0.4682
  267MOL0     C36741   2.298   9.652   9.582 -0.8733 -0.0235  0.5061
  267MOL0     C36742   2.417   9.629   9.641 -0.1559  0.6351 -0.9114
  267MOL0     C36743   2.444   9.686   9.770  0.5953  1.3697  0.1501
  267MOL0     O36744   2.574   9.655   9.822  0.4689 -0.3566 -0.1324
  267MOL0     C36745   2.641   9.755   9.899  0.3132  0.3793  0.8763
  267MOL0     C36746   2.794   9.723   9.918  0.1648 -0.3709 -0.7885
  267MOL0     C36747   2.811   9.613  10.026  1.1685  0.2896 -0.9924
  267MOL0     C36748   2.953   9.582  10.072  0.3874 -0.8121  0.1636
  267MOL0     C36749   2.952   9.481  10.188  0.2018 -1.0126 -0.3159
  267MOL0     C36750   3.099   9.469  10.240  0.2142 -0.4437 -0.6752
  267MOL0     C36751   3.099   9.350  10.327 -0.2809 -0.2130  0.0752
  267MOL0     C36752   3.241   9.291  10.315  0.2999  0.3220 -0.3329
  267MOL0    Cl36753   3.267   9.222  10.152 -0.5260 -0.2637 -0.1809
  267MOL0     C36754   2.359   9.775   9.824  0.3908  0.5174 -1.1177
  267MOL0     C36755   2.240   9.810   9.763 -0.6031 -0.0673  0.2862
  267MOL0     O36756   2.178   9.843   9.383 -0.3595 -0.0088  0.2655
  267MOL0     C36757   1.909   9.840   9.277 -0.1152  0.3224 -0.0069
  267MOL0     C36758   1.777   9.826   9.237 -0.3935 -0.5841 -0.0043
  267MOL0     N36759   1.304  10.337   9.236  0.2008  0.4183 -0.0481
  267MOL0     N36760   1.223  10.411   9.316 -0.2332  0.1860  0.5289
  267MOL0     C36761   1.135  10.000  10.412  0.4479  0.1853  0.2995
  267MOL0     C36762   1.122   9.886  10.499 -0.1089 -1.0656 -0.5457
  267MOL0     C36763   0.945   9.488  10.637 -0.4086  0.2595  1.1848
  267MOL0     C36764   0.856   9.385  10.592 -0.5426  0.0202  0.0543
  267MOL0     C36765   0.847   9.264  10.669 -0.3294 -0.3939 -0.6141
  267MOL0     C36766   0.930   9.245  10.781  0.1698 -0.8694  0.0248
  267MOL0     O36767   0.936   9.133  10.852 -0.2549 -0.7667  0.3397
  267MOL0     C36768   0.994   9.034  10.770  0.0524 -0.5956 -0.3045
  267MOL0     C36769   1.105   8.969  10.855  0.1108  0.7683  0.9009
  267MOL0     C36770   1.073   8.882  10.984 -0.8531  0.7049  0.2780
  267MOL0     C36771   0.994   8.761  10.952 -0.3932 -0.3475  0.0970
  267MOL0     C36772   0.945   8.702  11.076 -0.8002 -0.4611 -0.6298
  267MOL0     C36773   0.917   8.654  11.184 -0.7941 -0.1596 -0.9802
  267MOL0     C36774   1.005   9.350  10.822  0.0334  0.3129  0.1690
  267MOL0     C36775   1.028   9.470  10.750  0.2808  0.0022 -0.6820
  267MOL0     C36776   1.124   9.571  10.803  0.4444 -0.8003 -0.4369
  267MOL0     H36777   0.786   9.865  10.494 -0.3241  2.2959  2.2970
  267MOL0     H36778   0.814  10.065  10.340  1.2794  1.6801 -1.2068
  267MOL0     H36779   1.217  10.152  10.184  0.8092 -0.5015  1.0430
  267MOL0     H36780   1.182  10.296  10.299  0.7979 -1.0994  0.5597
  267MOL0     H36781   1.073  10.413  10.128  1.3301 -1.5535  2.5837
  267MOL0     H36782   1.206  10.359  10.042  0.7180 -0.0544 -0.7852
  267MOL0     H36783   1.059  10.153   9.953 -2.5121 -0.3775 -4.1549
  267MOL0     H36784   0.929  10.237  10.039 -0.3440 -0.2101 -0.7973
  267MOL0     H36785   0.945  10.434   9.897 -0.2781  0.8820 -2.9913
  267MOL0     H36786   1.090  10.376   9.827  1.7176  1.6417  2.5262
  267MOL0     H36787   0.821  10.226   9.795  2.0151 -3.2225  2.4287
  267MOL0     H36788   0.974  10.187   9.716  1.8608  2.5035 -1.1845
  267MOL0     H36789   0.761  10.360   9.631  0.3918 -0.8939 -1.2339
  267MOL0     H36790   0.901  10.465   9.666 -1.4161 -0.7049  2.1610
  267MOL0     H36791   0.871  10.348   9.415  0.1322 -1.6859 -0.6172
  267MOL0     H36792   0.935  10.216   9.496 -0.6839  0.0010  2.6127
  267MOL0     H36793   1.039  10.493   9.480 -0.5450 -0.6121 -0.1698
  267MOL0     H36794   1.103  10.371   9.598  3.6748 -0.5424 -2.2357
  267MOL0     H36795   1.157  10.117   9.421  2.5334 -0.2240  1.4680
  267MOL0     H36796   1.261  10.055   9.113  0.8403 -1.9670  0.2707
  267MOL0     H36797   1.330   9.994   9.256  2.7495 -1.1815 -2.4350
  267MOL0     H36798   1.495  10.167   9.056  1.6486 -1.8740 -2.3327
  267MOL0     H36799   1.547  10.118   9.216 -0.9042  2.2334 -0.6194
  267MOL0     H36800   1.462   9.951   8.975  0.4746 -0.5332 -1.2681
  267MOL0     H36801   1.618   9.954   9.024 -0.4323  1.3213 -1.7191
  267MOL0     H36802   1.378   9.813   9.144 -0.3903  0.5955 -0.1363
  267MOL0     H36803   1.543   9.741   9.115  0.2718 -2.5787  3.4004
  267MOL0     H36804   1.624   9.896   9.523  0.7270 -0.6988  0.8347
  267MOL0     H36805   1.880   9.829   9.700  1.1497  0.7106  1.4434
  267MOL0     H36806   1.762   9.963   9.681 -1.0628 -1.5201 -1.9275
  267MOL0     H36807   1.936   9.991   9.658 -0.5365  1.0120  5.3126
  267MOL0     H36808   2.280   9.606   9.485  0.2441 -3.1546  1.6505
  267MOL0     H36809   2.478   9.560   9.585  0.0426  0.2783 -0.2646
  267MOL0     H36810   2.644   9.846   9.839  1.1687  0.1298  0.5254
  267MOL0     H36811   2.590   9.773   9.994 -0.8999  1.0916  0.1154
  267MOL0     H36812   2.833   9.691   9.821 -0.7844 -3.0797 -0.3457
  267MOL0     H36813   2.837   9.819   9.950 -3.4152  1.0762  0.1981
  267MOL0     H36814   2.753   9.524  10.001 -0.6615  0.8094  1.0922
  267MOL0     H36815   2.750   9.648  10.110 -0.7092 -3.8000 -0.4139
  267MOL0     H36816   2.995   9.680  10.095 -1.4027 -0.1363  0.8011
  267MOL0     H36817   3.005   9.554   9.980 -0.7859  1.7665 -1.4172
  267MOL0     H36818   2.879   9.501  10.267  0.7957 -3.6016  0.9842
  267MOL0     H36819   2.918   9.385  10.148 -0.2750 -0.5140 -1.1312
  267MOL0     H36820   3.129   9.550  10.306 -1.5994  0.9515 -1.4919
  267MOL0     H36821   3.171   9.466  10.157 -0.0633 -1.7135 -0.8893
  267MOL0     H36822   3.028   9.269  10.307 -0.6804  0.1445  0.0420
  267MOL0     H36823   3.072   9.378  10.430  2.3234 -1.1200  1.1035
  267MOL0     H36824   3.249   9.203  10.379 -1.2265  1.3942  1.4079
  267MOL0     H36825   3.314   9.367  10.343 -0.3069  1.2960 -1.3210
  267MOL0     H36826   2.387   9.826   9.916  2.3774 -4.4237  1.4310
  267MOL0     H36827   2.174   9.889   9.798  0.7893  0.4155  1.9551
  267MOL0     H36828   1.986   9.807   9.208 -0.4115 -1.3931  0.4509
  267MOL0     H36829   1.763   9.806   9.132 -0.9630  0.2958 -0.1028
  267MOL0     H36830   1.236  10.035  10.391 -0.7014  3.1123 -0.9707
  267MOL0     H36831   1.208   9.833  10.538 -1.4272 -2.0451  1.1786
  267MOL0     H36832   0.818   9.404  10.492  0.9439  1.7268 -0.2228
  267MOL0     H36833   0.798   9.176  10.630  0.8834 -2.9044  2.9690
  267MOL0     H36834   0.918   8.959  10.745  1.4368 -2.0374 -0.3120
  267MOL0     H36835   1.032   9.073  10.675 -1.5073  1.4517 -0.1650
  267MOL0     H36836   1.181   9.043  10.882  1.9988 -1.0415  0.8511
  267MOL0     H36837   1.158   8.906  10.783 -3.3187  0.2066 -1.3343
  267MOL0     H36838   1.170   8.856  11.027 -0.9119  2.3209  1.4754
  267MOL0     H36839   1.027   8.941  11.064  3.0488  0.0713  3.3053
  267MOL0     H36840   1.057   8.692  10.894  3.7224  1.4970  1.9804
  267MOL0     H36841   0.915   8.785  10.881 -0.0532 -0.7686 -0.4362
  267MOL0     H36842   0.874   8.627  11.278 -1.4267  1.6696 -0.7007
  267MOL0     H36843   1.074   9.327  10.903  0.1872  1.7789  0.4963
  267MOL0     H36844   1.191   9.509  10.864  0.0476 -2.5886 -1.7425
  267MOL0     H36845   1.179   9.637  10.736 -1.3468  2.6005  1.1836
  267MOL0     H36846   1.066   9.640  10.866 -2.9255 -0.6810 -3.3451
  268MOL0     O36847   4.761   7.944  10.582 -0.3680  0.8199 -0.6256
  268MOL0     C36848   4.680   7.854  10.602 -0.0304 -0.1229 -1.1725
  268MOL0     O36849   4.681   7.721  10.550 -0.5484  0.8945 -0.5002
  268MOL0     C36850   4.748   7.689  10.431  0.9202  0.1471 -0.1514
  268MOL0     C36851   4.740   7.775  10.314  0.2351 -0.2965 -0.4526
  268MOL0     C36852   4.782   7.737  10.191 -0.1491  0.1060  0.3916
  268MOL0     C36853   4.844   7.610  10.178  0.2706 -0.2049 -0.2846
  268MOL0     O36854   4.889   7.550  10.058  0.8114 -0.9694 -0.2332
  268MOL0     C36855   4.829   7.602   9.935 -0.0316 -0.7595  0.0704
  268MOL0     C36856   4.863   7.510   9.823 -0.1275  0.3358  0.8196
  268MOL0     C36857   5.015   7.513   9.800  0.2947  0.4327 -0.1675
  268MOL0     C36858   5.093   7.413   9.888 -0.0793 -0.9264  0.0831
  268MOL0     C36859   5.245   7.426   9.878  0.8986 -0.0056 -0.4892
  268MOL0     C36860   5.290   7.362   9.744 -0.0298 -0.3099  0.2392
  268MOL0     C36861   5.441   7.396   9.731 -0.3708 -0.4849  0.7730
  268MOL0     C36862   5.486   7.400   9.586 -0.1404 -0.9417 -1.0346
  268MOL0     N36863   5.481   7.272   9.509  0.3249 -0.6553  0.3986
  268MOL0     C36864   5.384   7.180   9.490  0.7139  0.2439  0.5053
  268MOL0     C36865   5.430   7.093   9.391  0.4625 -0.3624  0.0428
  268MOL0     C36866   5.345   6.990   9.330  0.5247 -0.3839 -0.7017
  268MOL0     C36867   5.366   6.850   9.373  0.0880  0.1937  0.2678
  268MOL0     C36868   5.374   6.818   9.527 -0.8114 -0.3634  0.7345
  268MOL0     C36869   5.448   6.687   9.555 -0.9423 -0.2311 -0.1141
  268MOL0     O36870   5.352   6.583   9.548 -0.6772 -0.2420  0.6671
  268MOL0     C36871   5.265   6.554   9.647  0.2512  0.7719  1.2669
  268MOL0     C36872   5.166   6.458   9.613  0.1400 -0.4375  0.2160
  268MOL0     C36873   5.072   6.413   9.706 -0.0373 -0.2630 -0.3981
  268MOL0     C36874   4.971   6.315   9.661 -0.1229 -0.0912  0.5502
  268MOL0     C36875   5.078   6.467   9.836 -1.2201  0.2424 -0.7153
  268MOL0     C36876   4.990   6.414   9.948 -0.4005  0.9282  0.8147
  268MOL0     O36877   5.025   6.464  10.065 -0.2470 -0.0988 -0.1009
  268MOL0     C36878   4.970   6.408  10.178  0.1982 -0.3133  0.0420
  268MOL0     C36879   4.869   6.476  10.244 -0.1547  0.5799 -0.4746
  268MOL0     C36880   4.815   6.424  10.356 -0.5799  0.7503  0.0649
  268MOL0     C36881   4.860   6.301  10.409  0.4871  0.2989  0.0303
  268MOL0     O36882   4.817   6.248  10.531  0.1115 -0.0563 -0.1007
  268MOL0     C36883   4.799   6.101  10.534 -0.6359 -0.8484  1.4699
  268MOL0     C36884   4.674   6.071  10.603 -0.6224  0.2553  0.6447
  268MOL0     C36885   4.688   6.057  10.755 -0.0655 -0.4623 -0.3491
  268MOL0     C36886   4.552   6.067  10.825  0.5345 -0.0597 -0.1501
  268MOL0     C36887   4.487   5.937  10.841 -0.1347  0.8387  0.0220
  268MOL0     C36888   4.344   5.947  10.900 -0.8613 -0.4073 -0.1292
  268MOL0     C36889   4.266   5.818  10.921  0.1633  0.5822 -0.0167
  268MOL0     C36890   4.331   5.716  11.020  0.1656 -0.5420  0.1924
  268MOL0    Cl36891   4.218   5.590  11.026  0.4552  0.1439  0.1028
  268MOL0     C36892   4.965   6.238  10.347 -0.0296  0.2447 -0.0695
  268MOL0     C36893   5.015   6.288  10.228  0.0610 -0.7794  1.1150
  268MOL0     O36894   4.898   6.327   9.927 -0.5351 -1.0564 -0.0783
  268MOL0     C36895   5.179   6.552   9.873 -0.1177 -0.7245 -0.0255
  268MOL0     C36896   5.273   6.595   9.779  0.2607 -0.0449  0.1410
  268MOL0     N36897   5.548   7.144   9.338  0.3976  0.8463  0.4995
  268MOL0     N36898   5.580   7.241   9.418 -0.1712  0.0591  1.0809
  268MOL0     C36899   4.860   7.527  10.293 -0.4460 -0.8063  0.5640
  268MOL0     C36900   4.798   7.565  10.417 -0.1618  0.2264  0.3465
  268MOL0     C36901   4.563   7.889  10.693  0.0656  0.2429  0.4907
  268MOL0     C36902   4.446   7.822  10.659  1.1542  0.1442 -0.3377
  268MOL0     C36903   4.334   7.837  10.749 -0.0804 -0.8077 -0.3541
  268MOL0     C36904   4.344   7.931  10.856  0.7549  0.3944 -0.8263
  268MOL0     O36905   4.241   7.944  10.936  0.7320 -0.3276  0.0318
  268MOL0     C36906   4.235   8.023  11.055 -0.4138 -0.1983  0.2489
  268MOL0     C36907   4.110   7.990  11.136  0.5026 -0.7093  0.0128
  268MOL0     C36908   4.117   8.069  11.267 -1.0237 -0.0162 -0.8668
  268MOL0     C36909   3.988   8.051  11.350  0.2332 -0.1738 -0.8967
  268MOL0     C36910   4.011   7.953  11.458  0.4481  0.1767  0.6184
  268MOL0     C36911   4.037   7.880  11.556 -0.0165  0.4998  0.0333
  268MOL0     C36912   4.463   8.000  10.882 -0.4063  0.6173  1.0358
  268MOL0     C36913   4.575   7.977  10.802  1.3242 -1.6513  0.3542
  268MOL0     C36914   4.703   8.044  10.861  0.0846 -0.2231 -0.9083
  268MOL0     H36915   4.674   7.861  10.330 -2.8127 -2.6643  0.8009
  268MOL0     H36916   4.757   7.791  10.100 -0.9947 -1.0977 -0.1225
  268MOL0     H36917   4.876   7.699   9.918  1.4005 -1.2169  1.2212
  268MOL0     H36918   4.721   7.604   9.951 -0.3361 -0.6619 -1.8838
  268MOL0     H36919   4.820   7.410   9.829 -4.9019  2.0213 -0.6532
  268MOL0     H36920   4.821   7.562   9.737  0.3654  2.3662  1.7357
  268MOL0     H36921   5.034   7.497   9.694  0.1112 -1.4831  0.0473
  268MOL0     H36922   5.049   7.611   9.832 -1.7964  0.3021  2.8968
  268MOL0     H36923   5.079   7.439   9.994  2.5312  1.2748 -0.0004
  268MOL0     H36924   5.066   7.307   9.885  1.7138 -1.3869 -1.0579
  268MOL0     H36925   5.295   7.373   9.959  1.2003  1.3303  0.2342
  268MOL0     H36926   5.267   7.532   9.898 -2.8447  0.6979  0.7256
  268MOL0     H36927   5.268   7.256   9.733 -2.7063  0.2260 -0.3388
  268MOL0     H36928   5.222   7.403   9.668  0.6515 -0.7813 -0.6494
  268MOL0     H36929   5.492   7.315   9.783 -0.9767 -0.8838  0.7575
  268MOL0     H36930   5.454   7.495   9.777  2.5699 -1.2297  1.7227
  268MOL0     H36931   5.435   7.485   9.539  1.2108 -0.4651 -1.6970
  268MOL0     H36932   5.592   7.427   9.577  0.2754 -1.7070  0.9466
  268MOL0     H36933   5.285   7.183   9.534  0.1083  1.6622 -0.8540
  268MOL0     H36934   5.358   7.006   9.222 -2.3603 -0.3442 -1.1444
  268MOL0     H36935   5.241   7.022   9.346  0.7193 -1.2991  3.3107
  268MOL0     H36936   5.288   6.790   9.325  0.8166  1.4625 -2.7653
  268MOL0     H36937   5.459   6.817   9.326 -0.9476 -1.3607 -0.7844
  268MOL0     H36938   5.430   6.898   9.576 -2.6874  0.2984  1.8988
  268MOL0     H36939   5.275   6.821   9.573 -1.8902  1.3545 -1.5047
  268MOL0     H36940   5.535   6.654   9.498 -2.2731 -1.5031 -1.4866
  268MOL0     H36941   5.487   6.703   9.656 -1.6989 -0.5845  0.2445
  268MOL0     H36942   5.168   6.413   9.515 -1.4887  0.6126 -0.3430
  268MOL0     H36943   5.009   6.220   9.701 -3.5510 -1.2403  1.3781
  268MOL0     H36944   4.961   6.316   9.552 -0.8731 -2.2418  0.5555
  268MOL0     H36945   4.870   6.337   9.695 -0.3176  2.1126 -1.2500
  268MOL0     H36946   4.826   6.567  10.203 -1.6889  0.1937  0.2061
  268MOL0     H36947   4.732   6.471  10.407 -0.2164  0.4341  0.9693
  268MOL0     H36948   4.790   6.067  10.430  0.2171  3.3391 -0.1582
  268MOL0     H36949   4.882   6.046  10.580 -0.6750 -2.4423 -0.2277
  268MOL0     H36950   4.612   6.160  10.589  1.3894  1.6531  0.0550
  268MOL0     H36951   4.621   5.987  10.557 -0.7666  1.6886 -2.0421
  268MOL0     H36952   4.744   6.142  10.795  0.3012 -1.0067  0.3285
  268MOL0     H36953   4.739   5.961  10.769  0.6498 -0.0287  0.0590
  268MOL0     H36954   4.489   6.133  10.764 -1.2620 -2.9644 -1.6605
  268MOL0     H36955   4.562   6.108  10.926  0.5799 -0.7114  0.1157
  268MOL0     H36956   4.489   5.895  10.740  0.1618  0.5524  0.1448
  268MOL0     H36957   4.562   5.883  10.900  0.8705  3.4043  1.2669
  268MOL0     H36958   4.282   6.006  10.832 -1.7155 -0.3985  0.6518
  268MOL0     H36959   4.357   6.001  10.994  0.1675  2.3194 -1.7088
  268MOL0     H36960   4.249   5.771  10.824  0.0719  1.2932 -0.3547
  268MOL0     H36961   4.165   5.842  10.956  0.3840  0.9601  0.3786
  268MOL0     H36962   4.342   5.766  11.117  2.8463  1.8607 -1.1719
  268MOL0     H36963   4.427   5.677  10.986  1.6632  3.6960 -1.0533
  268MOL0     H36964   5.009   6.145  10.381  2.5931  1.8543  1.2741
  268MOL0     H36965   5.099   6.236  10.181 -0.7949 -1.3305  0.1591
  268MOL0     H36966   5.207   6.582   9.973 -0.0068  0.1845 -0.3220
  268MOL0     H36967   5.344   6.671   9.809  0.7002  0.0954 -1.1688
  268MOL0     H36968   4.915   7.434  10.293 -0.3120 -0.8618  4.1235
  268MOL0     H36969   4.794   7.498  10.502  2.9944 -1.1004 -0.4249
  268MOL0     H36970   4.437   7.755  10.574 -1.3652  2.0869 -1.7581
  268MOL0     H36971   4.239   7.785  10.743 -1.0853  1.0356 -1.2840
  268MOL0     H36972   4.324   7.993  11.111  0.0627 -1.5996 -1.1988
  268MOL0     H36973   4.245   8.131  11.036 -2.6051  0.1551  0.7906
  268MOL0     H36974   4.111   7.881  11.147 -0.3100 -0.7937 -0.6661
  268MOL0     H36975   4.020   8.022  11.082  0.0337 -1.8896  0.0800
  268MOL0     H36976   4.204   8.021  11.312 -1.6299 -0.2628  0.0752
  268MOL0     H36977   4.145   8.172  11.244  1.0683 -0.6963 -1.6089
  268MOL0     H36978   3.907   8.007  11.290  0.7685 -0.5679 -1.3330
  268MOL0     H36979   3.959   8.149  11.389 -2.0395 -2.3831  3.7909
  268MOL0     H36980   4.055   7.814  11.638 -2.0484 -0.0898  0.0468
  268MOL0     H36981   4.467   8.066  10.969  1.5114  0.0206  1.4445
  268MOL0     H36982   4.770   8.080  10.782 -0.2708  1.6765 -0.4022
  268MOL0     H36983   4.672   8.131  10.920  3.0510  1.3975 -1.5097
  268MOL0     H36984   4.761   7.969  10.916 -0.2485 -0.8083 -1.3562
  269MOL0     O36985   3.265   7.231   3.583  0.7604  1.6108 -0.0685
  269MOL0     C36986   3.279   7.315   3.672  0.5867  0.5756  0.0349
  269MOL0     O36987   3.280   7.289   3.803  0.3455 -0.1683 -0.1789
  269MOL0     C36988   3.233   7.170   3.848 -0.2788  0.8308  0.2325
  269MOL0     C36989   3.315   7.105   3.942 -0.5213  0.3055  0.3484
  269MOL0     C36990   3.275   6.989   4.017 -0.0978  0.5483  1.0532
  269MOL0     C36991   3.144   6.928   3.990 -0.0305 -0.1559  0.6456
  269MOL0     O36992   3.115   6.805   4.042 -0.3297  0.0791 -0.2314
  269MOL0     C36993   3.080   6.805   4.186  0.4579 -0.1019 -0.4078
  269MOL0     C36994   2.942   6.865   4.219 -0.8258  0.1488 -0.1558
  269MOL0     C36995   2.831   6.817   4.127 -0.8002 -0.6620 -0.1665
  269MOL0     C36996   2.806   6.657   4.138 -0.6106  0.1468  0.7766
  269MOL0     C36997   2.737   6.634   4.278  1.0119 -0.1473  0.4751
  269MOL0     C36998   2.670   6.494   4.296 -0.8251 -0.3663  0.2437
  269MOL0     C36999   2.607   6.499   4.436 -0.3843  0.9560  1.2754
  269MOL0     C37000   2.576   6.363   4.490  0.1685 -1.2144 -0.1711
  269MOL0     N37001   2.578   6.381   4.638 -0.2686 -0.3092 -0.6601
  269MOL0     C37002   2.464   6.431   4.701 -0.2295 -0.0872 -0.1970
  269MOL0     C37003   2.478   6.401   4.830 -0.8196 -0.4724  0.0772
  269MOL0     C37004   2.391   6.458   4.941 -0.3989  0.2276 -0.2213
  269MOL0     C37005   2.433   6.597   5.004  0.8464 -0.2082  0.6414
  269MOL0     C37006   2.355   6.621   5.129  0.8464  0.3656 -0.6167
  269MOL0     C37007   2.401   6.525   5.237  0.8355  0.0208 -0.2173
  269MOL0     O37008   2.353   6.584   5.362  0.2328  0.5460 -0.5755
  269MOL0     C37009   2.427   6.684   5.429  0.9318 -0.3568  0.5603
  269MOL0     C37010   2.367   6.752   5.532  0.2918 -0.6312  0.1179
  269MOL0     C37011   2.431   6.840   5.615  1.3910  0.2817  0.5606
  269MOL0     C37012   2.349   6.896   5.745 -0.2066  1.1695 -0.2993
  269MOL0     C37013   2.567   6.874   5.602 -0.0070 -0.8940  0.3116
  269MOL0     C37014   2.648   6.972   5.678  0.6321  0.1664 -0.7926
  269MOL0     O37015   2.779   6.979   5.661 -0.0201  0.1906  0.0154
  269MOL0     C37016   2.851   7.061   5.741  0.3308 -0.3280 -0.4888
  269MOL0     C37017   2.850   7.201   5.719  0.2615  0.6932 -0.3534
  269MOL0     C37018   2.926   7.286   5.795  0.6049  1.2552 -0.9887
  269MOL0     C37019   3.007   7.233   5.898  0.6578  0.7784 -0.1464
  269MOL0     O37020   3.094   7.304   5.988 -0.0946 -0.2910 -0.0868
  269MOL0     C37021   3.082   7.447   5.970 -0.3936 -0.8817 -0.6872
  269MOL0     C37022   3.179   7.518   6.076  0.4207  0.1564  0.3399
  269MOL0     C37023   3.125   7.485   6.216  0.1105 -0.3812 -0.9913
  269MOL0     C37024   3.166   7.608   6.313 -0.9135  0.2351 -0.6393
  269MOL0     C37025   3.104   7.560   6.453 -1.1210  0.6862 -0.3024
  269MOL0     C37026   3.120   7.666   6.555  0.6525 -0.2845 -0.0517
  269MOL0     C37027   3.020   7.781   6.522 -0.0978  1.3127 -0.1555
  269MOL0     C37028   3.036   7.882   6.638  0.9868  0.1824 -0.5027
  269MOL0    Cl37029   2.933   8.026   6.599  0.0434 -0.2611  0.1051
  269MOL0     C37030   2.991   7.091   5.932 -0.7098  0.6966  0.7350
  269MOL0     C37031   2.921   7.009   5.845 -0.3783  0.2331 -0.9196
  269MOL0     O37032   2.585   7.028   5.771 -0.1607  0.1695 -0.5286
  269MOL0     C37033   2.631   6.821   5.486  0.0415  1.1631  0.2803
  269MOL0     C37034   2.562   6.726   5.403 -0.1966  0.2751 -0.2339
  269MOL0     N37035   2.609   6.359   4.848  0.0019  0.1143 -0.0797
  269MOL0     N37036   2.663   6.342   4.732 -0.5316 -0.4532 -0.6288
  269MOL0     C37037   3.062   6.992   3.896  0.6730 -0.7804  0.5642
  269MOL0     C37038   3.100   7.121   3.842 -0.6139 -0.5110  0.1959
  269MOL0     C37039   3.247   7.459   3.649 -1.4444  0.0561  0.6305
  269MOL0     C37040   3.220   7.538   3.756 -0.7332  0.4859 -0.0093
  269MOL0     C37041   3.186   7.672   3.746 -1.1470  0.4386  0.3207
  269MOL0     C37042   3.174   7.734   3.622  0.1941 -0.0395  1.1929
  269MOL0     O37043   3.134   7.863   3.603  0.5532 -0.2060  0.3797
  269MOL0     C37044   3.102   7.954   3.713 -0.8617  0.4794 -0.7149
  269MOL0     C37045   3.101   8.096   3.666 -0.0856  1.2336 -1.3898
  269MOL0     C37046   3.051   8.188   3.780 -0.5602  0.5532 -0.2887
  269MOL0     C37047   3.130   8.177   3.916  0.5572  0.8620  0.0124
  269MOL0     C37048   3.069   8.283   3.996 -0.1130 -0.3524  0.6474
  269MOL0     C37049   3.045   8.372   4.076  0.1935  0.3683 -0.3208
  269MOL0     C37050   3.224   7.663   3.511  0.3854  0.3143 -0.4676
  269MOL0     C37051   3.260   7.527   3.524  0.3155 -0.4069 -0.5473
  269MOL0     C37052   3.317   7.461   3.404 -0.4425  0.3228 -0.2036
  269MOL0     H37053   3.406   7.162   3.962 -1.7152  2.1346  0.9089
  269MOL0     H37054   3.350   6.935   4.074  1.2691 -0.1080 -1.2178
  269MOL0     H37055   3.159   6.858   4.240 -0.8141 -0.0192  1.4473
  269MOL0     H37056   3.076   6.703   4.226 -1.5352 -0.0630 -0.4146
  269MOL0     H37057   2.918   6.840   4.323 -0.8851  0.3878 -0.1122
  269MOL0     H37058   2.942   6.974   4.216 -4.9961  0.3260 -1.7168
  269MOL0     H37059   2.733   6.865   4.137  0.3001  1.8599 -0.6814
  269MOL0     H37060   2.851   6.832   4.021  2.1090  3.7597  0.7477
  269MOL0     H37061   2.739   6.619   4.061 -2.1657 -0.1213  2.1957
  269MOL0     H37062   2.900   6.601   4.139 -1.1971 -1.2224  5.4285
  269MOL0     H37063   2.655   6.705   4.293 -0.6315 -2.0772  0.9939
  269MOL0     H37064   2.806   6.651   4.361 -0.0905 -1.0929  1.6199
  269MOL0     H37065   2.597   6.483   4.216  0.6123 -0.1419 -1.1526
  269MOL0     H37066   2.745   6.415   4.295 -0.1971  0.2194 -0.9928
  269MOL0     H37067   2.525   6.572   4.433 -0.1219  1.2265 -0.4413
  269MOL0     H37068   2.686   6.533   4.504 -0.0068  2.1981  0.2546
  269MOL0     H37069   2.479   6.325   4.454 -0.2119 -0.9462  0.5629
  269MOL0     H37070   2.653   6.293   4.454  4.8978  2.7843  1.1188
  269MOL0     H37071   2.388   6.498   4.660  0.5078  1.0926  0.3085
  269MOL0     H37072   2.394   6.392   5.028  0.2528 -0.9250 -1.0884
  269MOL0     H37073   2.290   6.473   4.900 -0.8611 -0.2515  0.7149
  269MOL0     H37074   2.542   6.594   5.013  1.1153  1.9414 -1.0166
  269MOL0     H37075   2.411   6.675   4.931 -1.8628 -0.3620  1.1851
  269MOL0     H37076   2.377   6.725   5.152 -1.8948  1.0546 -0.7759
  269MOL0     H37077   2.248   6.603   5.115  1.2317 -2.3504 -0.6065
  269MOL0     H37078   2.379   6.420   5.213  5.9067 -1.1628 -0.9362
  269MOL0     H37079   2.510   6.528   5.233  0.8739  2.4335  0.8009
  269MOL0     H37080   2.265   6.721   5.554  0.6070 -1.1088  0.9452
  269MOL0     H37081   2.411   6.893   5.835  1.6733 -1.7795 -1.5238
  269MOL0     H37082   2.271   6.821   5.761  3.9026 -3.4546  0.8155
  269MOL0     H37083   2.301   6.993   5.732  0.7136  1.3823 -2.6024
  269MOL0     H37084   2.790   7.244   5.639  0.5119 -1.8865 -2.0462
  269MOL0     H37085   2.918   7.390   5.767 -0.3972  2.7215  3.8747
  269MOL0     H37086   3.118   7.462   5.867  3.4840 -2.5141  0.2628
  269MOL0     H37087   2.982   7.490   5.982  0.8991  1.5538  3.1021
  269MOL0     H37088   3.280   7.481   6.056 -0.3368 -2.0504  0.3490
  269MOL0     H37089   3.175   7.626   6.059 -0.3112 -0.2699 -2.7019
  269MOL0     H37090   3.173   7.395   6.257 -1.7334 -1.1475 -0.3599
  269MOL0     H37091   3.018   7.464   6.231  0.5570 -1.3629  1.3973
  269MOL0     H37092   3.118   7.700   6.279 -0.2161  0.2231 -1.7114
  269MOL0     H37093   3.275   7.612   6.307 -0.9628 -0.1410 -3.1186
  269MOL0     H37094   3.001   7.525   6.453 -0.7940 -0.4155  1.5448
  269MOL0     H37095   3.158   7.467   6.477 -2.1961  0.0677 -0.2169
  269MOL0     H37096   3.223   7.704   6.552  0.6342 -0.2840 -1.5849
  269MOL0     H37097   3.111   7.622   6.655 -0.4098  0.4621  0.1950
  269MOL0     H37098   2.914   7.759   6.511  0.1472 -0.4206  0.7198
  269MOL0     H37099   3.040   7.830   6.426 -2.7301  2.6112 -0.1428
  269MOL0     H37100   3.143   7.906   6.639  1.0057  0.1370 -1.3308
  269MOL0     H37101   2.993   7.838   6.729  1.6908  0.0462 -0.2284
  269MOL0     H37102   3.056   7.041   6.004  2.0716  0.8828 -1.4820
  269MOL0     H37103   2.915   6.902   5.863  0.4768  0.5068  1.2331
  269MOL0     H37104   2.737   6.830   5.467 -0.2147  0.3756 -1.7353
  269MOL0     H37105   2.607   6.663   5.327 -0.0828 -0.3217  0.3192
  269MOL0     H37106   2.971   6.936   3.882  3.2064 -5.1322 -0.2561
  269MOL0     H37107   3.038   7.185   3.781  0.3600 -1.2957 -1.6823
  269MOL0     H37108   3.220   7.499   3.857 -0.2831 -2.9573 -1.2004
  269MOL0     H37109   3.177   7.734   3.834 -0.6720 -1.3899  1.7087
  269MOL0     H37110   3.006   7.922   3.756  0.0895 -3.3700 -1.1288
  269MOL0     H37111   3.183   7.949   3.787 -1.2720  0.1893 -0.2777
  269MOL0     H37112   3.059   8.101   3.565  0.7742  0.9849 -1.7762
  269MOL0     H37113   3.208   8.120   3.661  0.2902  0.8979  2.5507
  269MOL0     H37114   3.073   8.293   3.757  0.2289  1.2960  3.3284
  269MOL0     H37115   2.942   8.181   3.793 -1.0377  3.6634 -1.6870
  269MOL0     H37116   3.238   8.191   3.901  0.9241  1.1815  2.5357
  269MOL0     H37117   3.106   8.083   3.967 -4.3156  2.5619  1.3238
  269MOL0     H37118   3.015   8.462   4.127 -0.2512  1.3385 -2.1809
  269MOL0     H37119   3.236   7.715   3.417  2.7656  0.5214 -0.1141
  269MOL0     H37120   3.388   7.385   3.438 -2.7018 -1.2385  1.3649
  269MOL0     H37121   3.251   7.419   3.327  4.9256  0.2017 -5.4317
  269MOL0     H37122   3.376   7.538   3.354  0.2249 -0.1514 -0.1564
  270MOL0     O37123   6.773   0.414   6.756 -0.0285  0.4158  0.2510
  270MOL0     C37124   6.823   0.474   6.661  0.9532  0.1709 -0.0051
  270MOL0     O37125   6.759   0.539   6.563 -0.5581  0.8567 -0.0937
  270MOL0     C37126   6.633   0.569   6.583  0.5273  0.4562  0.0718
  270MOL0     C37127   6.532   0.475   6.563  0.4381  0.3276 -0.6938
  270MOL0     C37128   6.394   0.505   6.569  1.0726 -0.3407 -0.7047
  270MOL0     C37129   6.350   0.628   6.598 -0.4621  0.2009  0.1320
  270MOL0     O37130   6.215   0.650   6.614 -0.7689 -0.9048  0.6969
  270MOL0     C37131   6.180   0.787   6.641  1.0965  0.4661 -0.1282
  270MOL0     C37132   6.028   0.800   6.657  0.5231  0.0381 -0.5633
  270MOL0     C37133   5.958   0.802   6.524 -0.0013  0.2244 -0.1389
  270MOL0     C37134   5.805   0.828   6.543  0.5891  0.6578 -0.4217
  270MOL0     C37135   5.732   0.772   6.421 -0.6411  0.2598  0.0201
  270MOL0     C37136   5.585   0.800   6.423  0.8622 -0.1102  0.8600
  270MOL0     C37137   5.561   0.955   6.399 -0.3428  0.2512 -0.0650
  270MOL0     C37138   5.428   0.984   6.348  0.8157  0.3481  0.2998
  270MOL0     N37139   5.410   0.926   6.212  0.1398 -0.5302 -0.1508
  270MOL0     C37140   5.473   0.981   6.102 -0.4514 -0.7930 -0.0586
  270MOL0     C37141   5.451   0.897   5.998 -0.8327 -0.5563  0.2345
  270MOL0     C37142   5.509   0.918   5.856 -0.2808 -0.0505 -0.3584
  270MOL0     C37143   5.396   0.898   5.748  0.3365  0.0540  0.2555
  270MOL0     C37144   5.278   0.991   5.760  0.1080 -0.7800  0.3634
  270MOL0     C37145   5.191   1.010   5.635  0.8454 -0.1685 -0.3493
  270MOL0     O37146   5.077   1.082   5.674  0.3420 -0.2668 -0.1727
  270MOL0     C37147   4.991   1.140   5.591 -0.0029 -1.2551  0.1275
  270MOL0     C37148   4.980   1.104   5.455 -0.2390 -0.1177  0.3380
  270MOL0     C37149   4.900   1.176   5.369 -0.6030 -0.6550  0.6622
  270MOL0     C37150   4.916   1.142   5.226  0.2036 -0.3702  0.0648
  270MOL0     C37151   4.808   1.271   5.416  0.1184 -0.1049  0.0360
  270MOL0     C37152   4.707   1.357   5.337 -0.9037  0.1956  0.2324
  270MOL0     O37153   4.610   1.415   5.407  0.7940  0.0056 -1.0614
  270MOL0     C37154   4.522   1.496   5.341  0.3198 -0.3577 -0.1971
  270MOL0     C37155   4.379   1.495   5.353 -0.3914  1.0113  0.9469
  270MOL0     C37156   4.291   1.579   5.291 -0.2456  0.4266 -1.1096
  270MOL0     C37157   4.347   1.692   5.223 -0.9276  0.4291 -0.4877
  270MOL0     O37158   4.274   1.782   5.152  0.0010 -0.2702 -0.6645
  270MOL0     C37159   4.325   1.884   5.054  0.5863  0.1939 -0.0785
  270MOL0     C37160   4.372   1.823   4.920  0.2469  0.5732  1.1950
  270MOL0     C37161   4.256   1.734   4.872 -0.8078  0.0183 -0.3807
  270MOL0     C37162   4.287   1.703   4.727  0.0452 -0.0335  1.0905
  270MOL0     C37163   4.176   1.644   4.639 -0.4323 -0.1725  0.1355
  270MOL0     C37164   4.114   1.506   4.678 -0.0109 -0.7905 -0.0164
  270MOL0     C37165   4.028   1.440   4.572  0.3048 -0.2792  0.2923
  270MOL0     C37166   4.025   1.496   4.425 -0.7580  0.2155  0.4587
  270MOL0    Cl37167   3.946   1.391   4.304  0.4630 -0.1286 -0.8510
  270MOL0     C37168   4.484   1.705   5.219 -0.0499  0.4767  0.6782
  270MOL0     C37169   4.567   1.608   5.276  0.4271  0.1302 -0.7747
  270MOL0     O37170   4.720   1.371   5.213  0.3935  0.0989  0.0900
  270MOL0     C37171   4.816   1.307   5.552 -0.2377  0.1540  0.2711
  270MOL0     C37172   4.908   1.239   5.645 -0.6291 -0.6829 -0.0358
  270MOL0     N37173   5.372   0.790   6.040  0.1054 -0.0836  1.1510
  270MOL0     N37174   5.351   0.806   6.170 -0.7779 -0.1270 -0.6160
  270MOL0     C37175   6.453   0.731   6.599  0.0329  0.4786  0.0650
  270MOL0     C37176   6.590   0.700   6.588  0.7771  0.3903 -0.0880
  270MOL0     C37177   6.970   0.468   6.646  0.3587  0.5591 -1.0227
  270MOL0     C37178   7.045   0.348   6.620  0.1403 -0.2372 -0.1282
  270MOL0     C37179   7.186   0.359   6.615  0.2629 -0.8504  0.1709
  270MOL0     C37180   7.252   0.489   6.597 -0.1136  0.0282 -0.3337
  270MOL0     O37181   7.384   0.521   6.573  0.2839 -0.3492  0.0787
  270MOL0     C37182   7.467   0.413   6.543  0.8143  0.2657 -0.2598
  270MOL0     C37183   7.589   0.462   6.459 -0.2161 -0.1596  0.3358
  270MOL0     C37184   7.567   0.593   6.364  0.3105  0.1263  0.0705
  270MOL0     C37185   7.452   0.562   6.257  0.1654  0.0947 -0.0912
  270MOL0     C37186   7.452   0.665   6.156  0.5135  0.6216  1.3501
  270MOL0     C37187   7.465   0.744   6.060 -0.3954  0.1745  0.5432
  270MOL0     C37188   7.181   0.596   6.617 -0.5320 -0.3449  0.4813
  270MOL0     C37189   7.040   0.591   6.650 -0.0071 -0.9184  0.3205
  270MOL0     C37190   6.967   0.718   6.687 -0.0927  0.6436  0.0643
  270MOL0     H37191   6.564   0.372   6.555 -2.6866 -1.0215  1.7161
  270MOL0     H37192   6.322   0.425   6.563 -0.2189  0.7446 -0.1364
  270MOL0     H37193   6.211   0.850   6.558 -0.5355  1.6125  0.0800
  270MOL0     H37194   6.227   0.821   6.734 -1.1251 -0.8065  1.5676
  270MOL0     H37195   5.989   0.714   6.712  1.0195 -1.4829 -2.4460
  270MOL0     H37196   5.994   0.890   6.708 -0.1805 -1.1108  1.0583
  270MOL0     H37197   6.001   0.880   6.461  0.8590 -0.7302 -0.7544
  270MOL0     H37198   5.971   0.700   6.486 -2.8594 -0.9000  1.5036
  270MOL0     H37199   5.770   0.783   6.637  1.6748  0.5687 -0.0355
  270MOL0     H37200   5.783   0.934   6.552  2.2701  0.8663  2.7632
  270MOL0     H37201   5.735   0.662   6.427  0.3556  0.2379 -0.7171
  270MOL0     H37202   5.782   0.807   6.331 -0.2851  1.0439  0.5152
  270MOL0     H37203   5.536   0.757   6.335 -3.1401  0.4414  2.5898
  270MOL0     H37204   5.527   0.768   6.510 -1.1369 -0.7689 -0.6449
  270MOL0     H37205   5.635   0.980   6.322 -0.4043  0.3246 -0.1000
  270MOL0     H37206   5.572   1.025   6.483 -0.1514 -1.8049  1.7013
  270MOL0     H37207   5.351   0.943   6.413  1.2644  1.6794  1.7389
  270MOL0     H37208   5.412   1.092   6.338  2.0891  0.4564 -0.8487
  270MOL0     H37209   5.536   1.069   6.097 -2.7598  1.0007  0.6017
  270MOL0     H37210   5.597   0.857   5.833 -0.3784 -0.3897  0.1481
  270MOL0     H37211   5.553   1.018   5.851  0.9296 -0.3328  2.4715
  270MOL0     H37212   5.441   0.919   5.651 -1.1120 -1.6074 -0.8406
  270MOL0     H37213   5.368   0.793   5.755  1.2058 -0.4550 -2.7756
  270MOL0     H37214   5.214   0.965   5.845 -0.8770  0.4740  0.0502
  270MOL0     H37215   5.316   1.091   5.783 -0.4956 -0.8486  1.7373
  270MOL0     H37216   5.245   1.070   5.561  1.4777 -0.3033 -0.0076
  270MOL0     H37217   5.157   0.912   5.601 -1.8137  0.3767  0.4646
  270MOL0     H37218   5.030   1.028   5.397 -3.6254 -4.1028  2.1150
  270MOL0     H37219   4.999   1.079   5.190 -0.2189  0.3490 -2.3600
  270MOL0     H37220   4.894   1.224   5.157 -3.6511  1.3447  2.9887
  270MOL0     H37221   4.830   1.074   5.218  0.6254 -0.6795 -2.8904
  270MOL0     H37222   4.330   1.421   5.416 -1.5255  2.5876  1.9966
  270MOL0     H37223   4.183   1.570   5.294 -0.1901 -0.1238  0.4209
  270MOL0     H37224   4.262   1.972   5.038 -0.1960 -0.0602  1.4143
  270MOL0     H37225   4.408   1.933   5.106 -2.9456  2.4595  4.0218
  270MOL0     H37226   4.390   1.897   4.842 -1.4445  1.0218  1.1799
  270MOL0     H37227   4.461   1.760   4.929  0.1825 -1.2508 -5.4155
  270MOL0     H37228   4.170   1.802   4.872  1.6930  3.5102 -2.3935
  270MOL0     H37229   4.239   1.643   4.930 -0.8196 -0.2691 -0.8212
  270MOL0     H37230   4.369   1.632   4.714 -0.0859 -0.0147  0.0800
  270MOL0     H37231   4.316   1.799   4.684  1.6852 -0.8054  0.4046
  270MOL0     H37232   4.095   1.716   4.630  0.5142  0.8735 -0.1924
  270MOL0     H37233   4.219   1.637   4.538  2.2437 -1.3278  1.2418
  270MOL0     H37234   4.063   1.529   4.772  2.1638  1.7386  0.6492
  270MOL0     H37235   4.199   1.443   4.704 -0.6208 -2.1249 -1.1085
  270MOL0     H37236   3.923   1.449   4.604  0.9021  2.0484  1.8686
  270MOL0     H37237   4.052   1.334   4.566  0.5568 -0.3747  2.2739
  270MOL0     H37238   4.128   1.511   4.392 -0.9860 -2.2956 -1.7501
  270MOL0     H37239   3.961   1.584   4.428 -1.2277 -0.0730 -0.6048
  270MOL0     H37240   4.538   1.786   5.171  0.1832 -0.8508 -1.4429
  270MOL0     H37241   4.675   1.612   5.269  0.4060 -1.0361 -2.5196
  270MOL0     H37242   4.737   1.364   5.601 -1.6490 -1.7869  0.3507
  270MOL0     H37243   4.921   1.274   5.746 -0.1156 -1.7687  0.2954
  270MOL0     H37244   6.426   0.834   6.621 -2.2894 -0.1297  0.3161
  270MOL0     H37245   6.670   0.773   6.589  1.4737 -0.3137 -1.6758
  270MOL0     H37246   7.000   0.249   6.612  0.5664 -0.6070  1.7496
  270MOL0     H37247   7.247   0.269   6.623  3.5537  1.0060 -1.8538
  270MOL0     H37248   7.496   0.352   6.629  1.6477  1.2444  0.1680
  270MOL0     H37249   7.414   0.347   6.474 -0.0426 -0.0751  0.7042
  270MOL0     H37250   7.627   0.384   6.393  1.5012  0.4570  0.5585
  270MOL0     H37251   7.671   0.477   6.529  0.3072  0.3765 -0.3867
  270MOL0     H37252   7.547   0.678   6.430  1.2031  1.2920 -1.1216
  270MOL0     H37253   7.664   0.615   6.320  0.0880  0.2637 -0.3601
  270MOL0     H37254   7.355   0.562   6.307 -0.4311 -0.3587 -1.2372
  270MOL0     H37255   7.457   0.457   6.226 -1.4016 -0.1252  0.3408
  270MOL0     H37256   7.480   0.800   5.970  2.2099 -1.4019 -0.1123
  270MOL0     H37257   7.216   0.699   6.611 -2.8250  0.4186 -1.3692
  270MOL0     H37258   6.907   0.756   6.604 -0.7871 -1.1827 -0.3151
  270MOL0     H37259   6.901   0.694   6.770  2.8954  2.1349  3.1190
  270MOL0     H37260   7.038   0.794   6.721 -4.0688  4.8237  0.0503
  271MOL0     O37261   8.701   3.759   1.436 -0.3055 -0.9101 -0.1996
  271MOL0     C37262   8.665   3.666   1.500 -0.1066  0.6492  0.1487
  271MOL0     O37263   8.536   3.653   1.545  0.2051 -0.0940  0.3782
  271MOL0     C37264   8.438   3.756   1.538  0.5168  0.2765 -0.5423
  271MOL0     C37265   8.310   3.696   1.569 -0.5285  0.8600  1.2546
  271MOL0     C37266   8.210   3.783   1.598  0.9884 -1.6505  0.2169
  271MOL0     C37267   8.231   3.926   1.589 -0.7643 -0.1934 -0.1026
  271MOL0     O37268   8.127   4.010   1.621  1.0861  0.0438 -0.5942
  271MOL0     C37269   8.135   4.153   1.592 -0.2143  0.0525 -0.1939
  271MOL0     C37270   8.017   4.223   1.665  0.3678 -0.3144  0.1935
  271MOL0     C37271   8.050   4.271   1.804 -0.3891 -0.1620 -0.3549
  271MOL0     C37272   8.041   4.160   1.911 -0.2188  0.5522  0.1099
  271MOL0     C37273   8.038   4.206   2.062  0.0302  0.0525  0.1064
  271MOL0     C37274   8.042   4.091   2.150  0.7252 -0.2573 -0.6183
  271MOL0     C37275   7.914   3.996   2.145 -0.5122 -0.4494 -0.6625
  271MOL0     C37276   7.909   3.857   2.217 -0.7606 -0.1017 -0.5758
  271MOL0     N37277   7.865   3.871   2.360 -0.5482  0.2531  0.5440
  271MOL0     C37278   7.744   3.855   2.412 -0.2322  0.7471 -0.6449
  271MOL0     C37279   7.760   3.910   2.535 -0.3157  0.7383  0.1153
  271MOL0     C37280   7.654   3.921   2.645 -0.5264  0.6541  1.0391
  271MOL0     C37281   7.627   4.066   2.665 -0.1342  0.4834  0.7248
  271MOL0     C37282   7.523   4.132   2.571 -0.7292 -0.5567 -0.9675
  271MOL0     C37283   7.590   4.195   2.453 -0.8383 -0.8099 -0.6783
  271MOL0     O37284   7.487   4.237   2.368 -0.3714  0.3119  0.0472
  271MOL0     C37285   7.513   4.331   2.272  0.0157  0.2015 -0.8130
  271MOL0     C37286   7.404   4.388   2.202 -0.1907  0.3221  0.0876
  271MOL0     C37287   7.424   4.462   2.084 -0.0861  0.4466  0.1140
  271MOL0     C37288   7.302   4.504   2.014  0.7306 -0.1339  0.6432
  271MOL0     C37289   7.551   4.499   2.041 -0.5203  1.0043  0.2493
  271MOL0     C37290   7.583   4.564   1.912  1.0457  0.1708 -0.5219
  271MOL0     O37291   7.679   4.659   1.917  0.2493  0.3791  0.3976
  271MOL0     C37292   7.671   4.760   1.822 -0.0479 -0.8005 -0.4061
  271MOL0     C37293   7.724   4.726   1.697  0.0058  0.0827 -0.0329
  271MOL0     C37294   7.710   4.815   1.594 -0.8512 -0.0536  1.2410
  271MOL0     C37295   7.648   4.939   1.611  0.1842  0.5041 -1.0945
  271MOL0     O37296   7.634   5.038   1.520 -0.5939  0.6275  0.1703
  271MOL0     C37297   7.739   5.072   1.430 -0.2510 -0.0483  0.2660
  271MOL0     C37298   7.694   5.201   1.346 -0.5279  0.5461 -0.7886
  271MOL0     C37299   7.580   5.142   1.260  0.1730 -0.4160  0.6601
  271MOL0     C37300   7.545   5.234   1.150 -0.5210 -0.1559  0.1300
  271MOL0     C37301   7.414   5.210   1.075  0.4131 -1.0399 -0.2515
  271MOL0     C37302   7.402   5.323   0.974 -0.1617  0.0314 -0.1769
  271MOL0     C37303   7.276   5.298   0.887 -0.3122  0.3541  0.4941
  271MOL0     C37304   7.270   5.408   0.781 -0.9128  1.0591  0.1632
  271MOL0    Cl37305   7.260   5.566   0.856  0.0759 -0.5269 -0.1915
  271MOL0     C37306   7.595   4.970   1.740  0.0104  0.3156  0.0290
  271MOL0     C37307   7.605   4.885   1.846  0.4783 -0.3950 -0.0469
  271MOL0     O37308   7.513   4.537   1.812  0.1735  0.0684  0.4103
  271MOL0     C37309   7.664   4.453   2.122  0.6279  0.3263  0.1528
  271MOL0     C37310   7.645   4.357   2.228  0.1313 -0.3239 -0.1728
  271MOL0     N37311   7.886   3.952   2.560 -0.5462 -0.1577  0.2231
  271MOL0     N37312   7.950   3.923   2.454  0.8779 -0.1559  0.0382
  271MOL0     C37313   8.351   3.980   1.547  0.1024 -0.0427  0.4247
  271MOL0     C37314   8.460   3.894   1.536 -0.2819 -1.1747 -0.4601
  271MOL0     C37315   8.759   3.570   1.551 -0.6151  0.7855 -0.3235
  271MOL0     C37316   8.890   3.588   1.524 -0.0418 -0.0373 -0.0655
  271MOL0     C37317   8.983   3.508   1.573 -0.0161  0.2294  0.7366
  271MOL0     C37318   8.960   3.405   1.656 -0.8737 -0.5501 -1.4038
  271MOL0     O37319   9.056   3.317   1.711  0.8120 -0.4895 -0.2481
  271MOL0     C37320   9.129   3.370   1.825 -0.2820 -0.1761  0.8843
  271MOL0     C37321   9.272   3.318   1.843  0.4700 -0.9369  0.0231
  271MOL0     C37322   9.261   3.176   1.892  0.2975 -0.6102  0.2169
  271MOL0     C37323   9.396   3.134   1.952 -0.5619 -0.4959  0.7442
  271MOL0     C37324   9.385   2.987   1.985  0.5625  0.7069  0.7859
  271MOL0     C37325   9.383   2.864   1.983 -0.3295  0.0183 -0.0391
  271MOL0     C37326   8.822   3.372   1.687 -0.0752 -0.2783  0.4851
  271MOL0     C37327   8.724   3.452   1.625  0.0948  0.2669 -0.9083
  271MOL0     C37328   8.586   3.404   1.658 -0.5667 -0.5711  0.1903
  271MOL0     H37329   8.309   3.590   1.549  1.4970  1.1414 -0.7637
  271MOL0     H37330   8.109   3.757   1.627  0.9162 -2.4361 -0.7053
  271MOL0     H37331   8.127   4.172   1.484  2.5791  0.9502 -0.3431
  271MOL0     H37332   8.224   4.199   1.636 -0.5377 -0.2404  0.7869
  271MOL0     H37333   7.983   4.312   1.611  0.5112 -0.0775  0.4898
  271MOL0     H37334   7.932   4.154   1.679 -1.0435  0.9399 -1.6998
  271MOL0     H37335   8.147   4.319   1.816 -1.6038  2.5376 -0.6750
  271MOL0     H37336   7.979   4.353   1.818 -0.6936 -0.5522  0.4466
  271MOL0     H37337   7.961   4.096   1.873  2.1766 -3.5298  1.3276
  271MOL0     H37338   8.131   4.099   1.894  0.4447  0.7701  2.5358
  271MOL0     H37339   7.951   4.271   2.077  0.0059  0.3836 -1.2653
  271MOL0     H37340   8.123   4.274   2.077 -2.7419  3.3339  2.7604
  271MOL0     H37341   8.138   4.040   2.142 -0.1000 -2.0623  0.4345
  271MOL0     H37342   8.049   4.121   2.255 -1.4902 -1.3881 -0.0764
  271MOL0     H37343   7.901   3.970   2.040  1.1906  1.1331 -1.3164
  271MOL0     H37344   7.836   4.064   2.180  2.1591  1.8180  1.2814
  271MOL0     H37345   7.831   3.794   2.174 -1.8064  1.0693 -0.4750
  271MOL0     H37346   8.008   3.812   2.215  0.2014  1.8310  0.3356
  271MOL0     H37347   7.657   3.801   2.374 -2.2525  2.1648  1.6053
  271MOL0     H37348   7.696   3.873   2.734 -0.4283 -1.5378 -0.1190
  271MOL0     H37349   7.566   3.861   2.622  1.5887 -2.6651  0.9038
  271MOL0     H37350   7.573   4.070   2.760 -1.8536  2.6936 -0.2368
  271MOL0     H37351   7.723   4.117   2.676 -0.2994  0.8087  0.6536
  271MOL0     H37352   7.440   4.073   2.533 -1.8451  1.0828 -1.2155
  271MOL0     H37353   7.478   4.213   2.630 -3.9367 -2.3044 -0.8272
  271MOL0     H37354   7.654   4.278   2.484 -1.7093 -0.1240 -0.6675
  271MOL0     H37355   7.645   4.119   2.397  1.7885 -1.7419  2.8334
  271MOL0     H37356   7.305   4.368   2.242 -1.0367  3.3654 -0.2406
  271MOL0     H37357   7.212   4.494   2.075 -0.2325  0.9817 -0.5299
  271MOL0     H37358   7.295   4.448   1.920  1.1465 -2.1251  1.7678
  271MOL0     H37359   7.306   4.611   1.990 -1.6240 -0.3947 -1.3298
  271MOL0     H37360   7.785   4.636   1.698  2.7789  1.8409  1.4121
  271MOL0     H37361   7.764   4.799   1.501  0.5513 -2.3787  2.3489
  271MOL0     H37362   7.826   5.095   1.492 -0.2649 -1.5847  0.8991
  271MOL0     H37363   7.762   4.991   1.360  4.9120  2.2359 -1.1490
  271MOL0     H37364   7.656   5.271   1.420  0.9488 -0.5570  1.0988
  271MOL0     H37365   7.771   5.254   1.289  1.0587 -1.8973 -1.0470
  271MOL0     H37366   7.491   5.128   1.321 -1.8671 -0.9405 -2.2284
  271MOL0     H37367   7.608   5.045   1.218  1.9181  0.0574  0.6388
  271MOL0     H37368   7.626   5.237   1.076 -2.2397 -0.8277 -1.8956
  271MOL0     H37369   7.557   5.336   1.188  2.2080  0.4922 -2.1022
  271MOL0     H37370   7.425   5.112   1.026 -0.9751  0.2031 -3.3357
  271MOL0     H37371   7.329   5.207   1.144 -0.0557  1.7283 -0.6046
  271MOL0     H37372   7.493   5.311   0.913  1.3943 -1.0459  2.1950
  271MOL0     H37373   7.402   5.420   1.023 -1.9400 -0.3845  0.7303
  271MOL0     H37374   7.184   5.305   0.945 -0.8945 -0.0606 -0.3660
  271MOL0     H37375   7.274   5.204   0.830 -1.1109  0.2854  0.6269
  271MOL0     H37376   7.186   5.393   0.713 -1.8515 -4.6152  2.0951
  271MOL0     H37377   7.369   5.416   0.734 -0.6602 -2.8433 -0.3018
  271MOL0     H37378   7.550   5.069   1.743  1.2940  1.0994 -2.6733
  271MOL0     H37379   7.571   4.913   1.945  1.0320  0.7915 -0.1688
  271MOL0     H37380   7.769   4.465   2.097  0.5226  2.2154  0.4853
  271MOL0     H37381   7.736   4.312   2.267 -0.7017  0.6987  3.3382
  271MOL0     H37382   8.363   4.087   1.532 -0.9039 -0.0853 -0.8989
  271MOL0     H37383   8.557   3.942   1.526 -0.6414 -0.0459  1.0608
  271MOL0     H37384   8.922   3.674   1.467 -1.0757 -0.4378 -1.3255
  271MOL0     H37385   9.088   3.524   1.553 -0.3077 -0.4220 -1.7711
  271MOL0     H37386   9.130   3.477   1.804  0.0028 -0.2931  0.2842
  271MOL0     H37387   9.074   3.356   1.918 -0.0579  3.1061  1.6182
  271MOL0     H37388   9.317   3.390   1.911 -2.5551  0.1773  1.0150
  271MOL0     H37389   9.319   3.317   1.744 -2.3260 -0.5338 -1.4165
  271MOL0     H37390   9.189   3.166   1.975 -1.1016  0.9744 -0.7462
  271MOL0     H37391   9.218   3.116   1.811 -0.2146  1.8485 -1.4228
  271MOL0     H37392   9.410   3.194   2.043  0.1490 -0.3015  0.5146
  271MOL0     H37393   9.479   3.145   1.883 -2.3412  0.3006 -1.3815
  271MOL0     H37394   9.395   2.758   1.973 -2.8227 -0.4905  1.3923
  271MOL0     H37395   8.789   3.283   1.739 -0.6833 -0.8171 -0.7907
  271MOL0     H37396   8.526   3.398   1.567 -0.0655 -2.4561 -0.0774
  271MOL0     H37397   8.587   3.307   1.709 -0.8302 -0.8729 -0.3677
  271MOL0     H37398   8.537   3.474   1.726 -3.1516 -0.9178 -1.2037
  272MOL0     O37399   0.233   4.010   1.418 -0.2676  0.7352 -0.2242
  272MOL0     C37400   0.204   4.056   1.307 -0.0197  0.0427  0.3334
  272MOL0     O37401   0.279   4.040   1.189 -1.1849  0.3181 -0.8111
  272MOL0     C37402   0.400   3.971   1.182 -0.1002 -0.1196  0.4436
  272MOL0     C37403   0.435   3.926   1.049 -0.5423 -0.1892  0.2856
  272MOL0     C37404   0.556   3.861   1.032 -0.2749  0.8712 -0.6978
  272MOL0     C37405   0.648   3.832   1.132  0.4273 -0.3914  0.2151
  272MOL0     O37406   0.760   3.754   1.101 -0.2781 -0.0551 -0.1974
  272MOL0     C37407   0.847   3.723   1.214  0.2544  0.0874  0.6095
  272MOL0     C37408   0.984   3.678   1.163  0.0252 -0.6275 -0.2713
  272MOL0     C37409   0.997   3.572   1.055  0.3873  0.4519  0.0636
  272MOL0     C37410   1.139   3.560   1.004  0.1522 -0.2347  1.2645
  272MOL0     C37411   1.133   3.465   0.878  0.7498  0.5905  0.2343
  272MOL0     C37412   1.267   3.454   0.810  1.2852  0.4547 -0.2357
  272MOL0     C37413   1.256   3.338   0.709  0.1489  0.9711  0.1857
  272MOL0     C37414   1.236   3.195   0.760  1.3054 -0.6461  0.1765
  272MOL0     N37415   1.322   3.162   0.874  0.2447  0.3319  0.8335
  272MOL0     C37416   1.454   3.135   0.873  0.3656 -0.7550 -0.2171
  272MOL0     C37417   1.484   3.119   1.009  0.5618  0.0643  0.0256
  272MOL0     C37418   1.614   3.085   1.073  0.2246  1.2214 -0.0629
  272MOL0     C37419   1.681   3.193   1.154 -0.1795  0.8803  0.3301
  272MOL0     C37420   1.815   3.148   1.209  0.7573  0.2705  0.2695
  272MOL0     C37421   1.867   3.231   1.327 -0.2565  0.4922 -0.2734
  272MOL0     O37422   1.982   3.162   1.386 -0.0456  0.1143 -0.0729
  272MOL0     C37423   1.944   3.058   1.476  0.2086  0.4460 -0.3814
  272MOL0     C37424   2.048   3.000   1.551 -1.0309  0.7372  0.9281
  272MOL0     C37425   2.025   2.904   1.653 -0.2870  0.5103  0.2631
  272MOL0     C37426   2.149   2.833   1.712 -0.0907 -0.1048  1.0148
  272MOL0     C37427   1.887   2.871   1.685  0.5230 -0.0259 -0.0321
  272MOL0     C37428   1.856   2.783   1.803 -0.4601 -0.8571  0.0112
  272MOL0     O37429   1.729   2.734   1.812 -0.0721  0.9892  0.4048
  272MOL0     C37430   1.683   2.664   1.920 -0.0959  0.7088  0.2343
  272MOL0     C37431   1.727   2.677   2.052  0.3845  0.4559 -0.6977
  272MOL0     C37432   1.654   2.616   2.150  0.0092  0.0930 -0.4571
  272MOL0     C37433   1.540   2.538   2.111 -0.6284 -0.4093 -1.4667
  272MOL0     O37434   1.479   2.465   2.202  1.3255 -0.2129 -0.7621
  272MOL0     C37435   1.404   2.546   2.289 -0.1457 -0.4605  0.0720
  272MOL0     C37436   1.268   2.479   2.309  0.2121  0.4384  0.4261
  272MOL0     C37437   1.182   2.563   2.409  0.4272 -0.5240 -0.0401
  272MOL0     C37438   1.113   2.677   2.331 -1.0667  0.2221 -0.1740
  272MOL0     C37439   1.036   2.762   2.427 -0.5921 -0.1111  0.5783
  272MOL0     C37440   0.928   2.848   2.359  0.1069  0.1270  0.3439
  272MOL0     C37441   0.928   2.995   2.419 -0.6063  0.3847  0.3086
  272MOL0     C37442   0.806   3.079   2.386 -0.0681 -0.0441  0.9577
  272MOL0    Cl37443   0.828   3.100   2.210  0.1933  0.0160 -0.2745
  272MOL0     C37444   1.500   2.530   1.980  0.3231  0.4852  0.0913
  272MOL0     C37445   1.574   2.590   1.877  0.0283  0.8121  0.0510
  272MOL0     O37446   1.938   2.784   1.894  0.2869  0.0893  0.0244
  272MOL0     C37447   1.789   2.928   1.609  0.1177 -0.2510 -0.2747
  272MOL0     C37448   1.815   3.025   1.516 -0.7828  0.4942  0.7735
  272MOL0     N37449   1.376   3.147   1.086  0.0199 -0.5488 -0.5526
  272MOL0     N37450   1.273   3.175   1.000  0.5246 -0.2500 -0.2142
  272MOL0     C37451   0.604   3.878   1.263  0.4644  0.1091 -0.7633
  272MOL0     C37452   0.488   3.940   1.284  0.5565  0.5766 -0.1582
  272MOL0     C37453   0.086   4.143   1.298 -0.4255  0.1611 -0.1338
  272MOL0     C37454   0.069   4.213   1.178 -0.1699 -0.1461  0.0605
  272MOL0     C37455  -0.040   4.301   1.169 -0.2181 -1.0588  0.5480
  272MOL0     C37456  -0.143   4.322   1.265  0.1497  0.6830  0.5083
  272MOL0     O37457  -0.258   4.393   1.250  0.5704 -0.5079 -0.4807
  272MOL0     C37458  -0.260   4.495   1.151  0.1687  0.2265  0.5372
  272MOL0     C37459  -0.399   4.557   1.138  0.4872  0.3497  0.0015
  272MOL0     C37460  -0.412   4.681   1.223  0.6431  0.6903  0.6625
  272MOL0     C37461  -0.543   4.757   1.196 -0.2507  1.0574 -0.1098
  272MOL0     C37462  -0.663   4.676   1.206  0.6663  0.6237  0.3906
  272MOL0     C37463  -0.753   4.585   1.194  0.0942 -0.4469 -0.1072
  272MOL0     C37464  -0.135   4.234   1.373 -0.0465 -0.6105  0.7956
  272MOL0     C37465  -0.018   4.154   1.397 -0.6205  0.0130  1.5504
  272MOL0     C37466  -0.010   4.088   1.533 -0.2452  0.2945  0.0425
  272MOL0     H37467   0.362   3.946   0.970  1.3895  1.0185 -1.2814
  272MOL0     H37468   0.588   3.826   0.934  1.2723 -2.3747  0.8399
  272MOL0     H37469   0.799   3.647   1.277 -2.8721  0.6882 -0.8653
  272MOL0     H37470   0.860   3.806   1.284 -0.0515 -0.4961  1.3746
  272MOL0     H37471   1.027   3.770   1.123 -0.8767 -1.1612 -2.5992
  272MOL0     H37472   1.037   3.638   1.251  1.1236  0.5895 -0.3521
  272MOL0     H37473   0.975   3.472   1.093  1.1078  1.3834  3.2805
  272MOL0     H37474   0.941   3.597   0.965  0.8720 -1.9425 -0.9766
  272MOL0     H37475   1.179   3.659   0.982 -0.5075 -0.2056  0.1219
  272MOL0     H37476   1.211   3.508   1.069  0.7586 -1.3369 -0.2062
  272MOL0     H37477   1.063   3.504   0.804  1.0797 -2.1748 -1.6785
  272MOL0     H37478   1.098   3.365   0.904  0.8903  0.1462 -1.2130
  272MOL0     H37479   1.277   3.550   0.759 -3.8583  0.7608 -1.1950
  272MOL0     H37480   1.349   3.428   0.878  0.6053  3.6329  2.0511
  272MOL0     H37481   1.359   3.325   0.673  0.4956  0.9209  1.1700
  272MOL0     H37482   1.184   3.346   0.627 -0.5945  0.8242  0.8201
  272MOL0     H37483   1.128   3.184   0.771  0.8448  3.1253  0.5360
  272MOL0     H37484   1.256   3.124   0.679  1.6076 -1.1646  0.6953
  272MOL0     H37485   1.516   3.124   0.785 -1.0407  2.6430 -1.8142
  272MOL0     H37486   1.674   3.055   0.986 -1.6124 -4.1796  0.1276
  272MOL0     H37487   1.593   3.002   1.141 -0.2581 -1.1829 -2.9248
  272MOL0     H37488   1.697   3.280   1.090  0.7648  0.4333 -0.0550
  272MOL0     H37489   1.608   3.211   1.234  0.2097 -2.4906  1.5937
  272MOL0     H37490   1.807   3.044   1.243 -1.1146  0.8028  1.6465
  272MOL0     H37491   1.889   3.148   1.129 -1.4107  0.2582 -1.8287
  272MOL0     H37492   1.882   3.333   1.291  2.5905 -0.2615 -1.5356
  272MOL0     H37493   1.793   3.250   1.405 -0.6929 -1.0290 -0.2908
  272MOL0     H37494   2.151   3.019   1.522 -1.0058 -2.0043 -1.2331
  272MOL0     H37495   2.234   2.850   1.644  1.5011 -3.1414  2.0546
  272MOL0     H37496   2.127   2.727   1.725  1.4675 -0.5095  0.5958
  272MOL0     H37497   2.192   2.857   1.810 -0.9496 -0.7257  1.5573
  272MOL0     H37498   1.809   2.733   2.097  0.9034 -3.1416  3.6351
  272MOL0     H37499   1.684   2.632   2.253 -1.8694  0.1243  0.1289
  272MOL0     H37500   1.454   2.542   2.387  1.8272 -2.3272 -0.9204
  272MOL0     H37501   1.419   2.651   2.261  2.1951 -1.7477 -4.4164
  272MOL0     H37502   1.214   2.468   2.214  1.0577 -1.9739  0.1533
  272MOL0     H37503   1.272   2.382   2.359  0.2287 -0.5553 -1.4028
  272MOL0     H37504   1.234   2.594   2.500  0.6185 -0.3328 -0.2131
  272MOL0     H37505   1.113   2.499   2.465  2.8599 -1.5950  1.9078
  272MOL0     H37506   1.042   2.627   2.264 -1.5107 -2.5004  2.1137
  272MOL0     H37507   1.188   2.730   2.272 -0.2587  0.0650  0.6900
  272MOL0     H37508   0.989   2.696   2.501 -1.6870  1.1554  1.0488
  272MOL0     H37509   1.108   2.819   2.487 -1.2305  1.4398 -0.0796
  272MOL0     H37510   0.825   2.810   2.363  0.9148 -2.1229  2.1694
  272MOL0     H37511   0.945   2.854   2.251  1.5655  0.3370  0.5701
  272MOL0     H37512   1.022   3.044   2.392  0.0683 -0.4863  0.9934
  272MOL0     H37513   0.924   2.991   2.528  0.5075  0.8422  0.3786
  272MOL0     H37514   0.800   3.175   2.439  2.9137 -0.3482  2.0653
  272MOL0     H37515   0.711   3.032   2.412  0.0919  0.5558  2.7577
  272MOL0     H37516   1.417   2.473   1.939  1.5106  0.4114 -2.4143
  272MOL0     H37517   1.549   2.583   1.771 -0.9097  3.6669 -0.0122
  272MOL0     H37518   1.685   2.906   1.630  0.3282 -0.0635  1.0486
  272MOL0     H37519   1.728   3.075   1.475  0.1281  1.8205  0.4199
  272MOL0     H37520   0.668   3.834   1.339 -1.4867 -2.0757 -0.2730
  272MOL0     H37521   0.473   3.954   1.391 -1.2717  1.5547 -0.5109
  272MOL0     H37522   0.152   4.207   1.107  1.0341 -1.0221  1.4760
  272MOL0     H37523  -0.053   4.351   1.073  1.1404  0.2293  1.0063
  272MOL0     H37524  -0.188   4.572   1.181  1.1265 -0.6992  0.6505
  272MOL0     H37525  -0.237   4.441   1.059  1.2553 -1.4629  1.7362
  272MOL0     H37526  -0.478   4.484   1.161 -1.2607  2.2980  0.4736
  272MOL0     H37527  -0.428   4.590   1.038 -3.7814 -3.3162 -0.3157
  272MOL0     H37528  -0.422   4.641   1.324 -3.4631  0.6845  0.3917
  272MOL0     H37529  -0.326   4.749   1.214  1.4105 -0.2084  0.9467
  272MOL0     H37530  -0.546   4.805   1.098 -0.2063  2.4604  0.5518
  272MOL0     H37531  -0.546   4.841   1.265 -0.4676  2.1868 -1.4440
  272MOL0     H37532  -0.814   4.499   1.178  1.5584 -1.3622 -0.9808
  272MOL0     H37533  -0.218   4.242   1.442 -0.3760 -0.6245  0.4057
  272MOL0     H37534   0.064   4.140   1.594 -2.1494  1.8541  1.1434
  272MOL0     H37535  -0.109   4.086   1.580 -1.0483 -1.1236 -1.5665
  272MOL0     H37536   0.011   3.981   1.517  0.4115  0.6885 -2.0702
  273MOL0     O37537   6.462   0.229   8.185  0.0632 -0.0688 -0.3057
  273MOL0     C37538   6.479   0.134   8.105  0.0367 -0.3648 -0.4548
  273MOL0     O37539   6.593   0.058   8.096 -0.4448  0.2779  0.1596
  273MOL0     C37540   6.689   0.096   8.189 -0.1856  1.1007 -0.9270
  273MOL0     C37541   6.685   0.051   8.322 -0.0417  0.2751  0.0548
  273MOL0     C37542   6.776   0.119   8.406  1.0206  0.6568  0.0284
  273MOL0     C37543   6.888   0.197   8.355  0.4313 -0.6142  0.1325
  273MOL0     O37544   6.986   0.247   8.444 -0.2531 -0.8242 -0.9199
  273MOL0     C37545   6.939   0.305   8.569 -0.4671  0.7217 -0.3648
  273MOL0     C37546   7.049   0.368   8.642  0.7519 -1.3461  0.6802
  273MOL0     C37547   7.168   0.268   8.662 -0.3429  0.2495 -0.3907
  273MOL0     C37548   7.300   0.352   8.682  0.1128  0.0492  0.0070
  273MOL0     C37549   7.422   0.256   8.692  0.5113 -0.0921  0.0391
  273MOL0     C37550   7.564   0.323   8.681 -0.7076  0.4622 -0.6125
  273MOL0     C37551   7.658   0.226   8.604  0.5835  0.7087  0.0352
  273MOL0     C37552   7.680   0.096   8.677  0.3411  0.6720  0.2220
  273MOL0     N37553   7.743   0.104   8.809 -0.7484 -0.2025  0.3862
  273MOL0     C37554   7.869   0.151   8.827  0.1938 -0.0206  0.8822
  273MOL0     C37555   7.894   0.145   8.958 -0.1652 -1.1993 -0.4817
  273MOL0     C37556   8.028   0.175   9.024  0.2121 -0.6212 -0.3319
  273MOL0     C37557   8.160   0.153   8.938  0.4727  0.4892  1.3891
  273MOL0     C37558   8.182   0.004   8.898  0.4795  0.9787 -0.6003
  273MOL0     C37559   8.222  -0.086   9.012  0.3279  0.5623  0.1070
  273MOL0     O37560   8.326  -0.035   9.083 -0.0117  0.0742  0.2055
  273MOL0     C37561   8.451  -0.020   9.019 -0.5487 -0.6155  0.3753
  273MOL0     C37562   8.498  -0.109   8.920  0.7792 -0.4115 -0.4883
  273MOL0     C37563   8.610  -0.082   8.853 -0.1843 -0.5463 -0.1852
  273MOL0     C37564   8.650  -0.179   8.745 -0.9508 -0.4348  0.8178
  273MOL0     C37565   8.698   0.024   8.896 -0.2701  0.7407  0.9608
  273MOL0     C37566   8.834   0.057   8.840 -0.2113 -0.2501 -0.3974
  273MOL0     O37567   8.881   0.186   8.840  0.6322 -0.3252  0.3262
  273MOL0     C37568   9.013   0.188   8.790  0.2414  0.5114 -0.7135
  273MOL0     C37569   9.119   0.136   8.855 -0.3199  0.2428 -0.7773
  273MOL0     C37570   9.248   0.146   8.811  0.0311 -0.2644 -0.4824
  273MOL0     C37571   9.276   0.226   8.700  0.9117 -0.9932 -0.9139
  273MOL0     O37572   9.398   0.235   8.635  0.8819 -0.0421  0.8766
  273MOL0     C37573   9.506   0.143   8.653 -0.4749 -0.2641  1.0304
  273MOL0     C37574   9.591   0.107   8.519  0.2133  0.1814  0.0845
  273MOL0     C37575   9.620  -0.041   8.490  0.0060 -0.4701  0.1468
  273MOL0     C37576   9.486  -0.115   8.452  0.5288  0.7948 -0.0005
  273MOL0     C37577   9.501  -0.267   8.444  0.3249 -1.3034  0.1802
  273MOL0     C37578   9.512  -0.332   8.588 -0.8488  0.0903 -0.7548
  273MOL0     C37579   9.515  -0.493   8.592  0.9709 -0.7322  0.4606
  273MOL0     C37580   9.557  -0.536   8.738  0.3292 -0.1569  0.3482
  273MOL0    Cl37581   9.719  -0.465   8.787 -0.0909  0.2154  0.0655
  273MOL0     C37582   9.171   0.273   8.622 -0.1981 -0.8693  0.1934
  273MOL0     C37583   9.043   0.250   8.673  0.2447  0.8874  0.7818
  273MOL0     O37584   8.899  -0.045   8.801  0.2067  0.8421 -0.3700
  273MOL0     C37585   8.648   0.111   8.987 -0.2262 -0.4058 -0.7905
  273MOL0     C37586   8.525   0.098   9.054 -0.0451  1.1449  0.2285
  273MOL0     N37587   7.780   0.097   9.025  0.1041 -0.3324 -0.1153
  273MOL0     N37588   7.686   0.084   8.933 -0.2992 -0.1606 -0.2817
  273MOL0     C37589   6.909   0.221   8.221 -0.4560  0.0153  0.2327
  273MOL0     C37590   6.795   0.184   8.145 -0.4605 -0.9073 -0.4268
  273MOL0     C37591   6.358   0.111   8.025  0.4827  0.7237 -0.3387
  273MOL0     C37592   6.364   0.130   7.887  0.5139  0.3432 -0.0028
  273MOL0     C37593   6.263   0.093   7.798  0.8110  0.0637 -0.3280
  273MOL0     C37594   6.146   0.034   7.851 -0.5395  0.3185  0.1561
  273MOL0     O37595   6.035  -0.016   7.778 -0.8109  0.9254 -0.0515
  273MOL0     C37596   6.001   0.048   7.651  0.6522  0.2642 -0.6479
  273MOL0     C37597   6.041  -0.044   7.540  0.2064 -0.3324 -0.9265
  273MOL0     C37598   5.987   0.008   7.407  0.6822 -0.5832  1.1027
  273MOL0     C37599   5.835   0.034   7.411  0.0381 -0.6393 -0.5680
  273MOL0     C37600   5.794   0.076   7.280 -1.5459  0.0022 -0.4938
  273MOL0     C37601   5.760   0.119   7.172  0.4752 -0.1458 -0.7098
  273MOL0     C37602   6.140   0.008   7.990  0.3344  0.4745  0.2795
  273MOL0     C37603   6.242   0.051   8.072 -0.6135  0.0524  0.5342
  273MOL0     C37604   6.227   0.024   8.208  0.5525  0.1021 -0.5023
  273MOL0     H37605   6.600  -0.010   8.347  2.7299 -3.7520  0.5049
  273MOL0     H37606   6.766   0.108   8.513 -0.5913  4.0291  0.3437
  273MOL0     H37607   6.903   0.229   8.639 -0.0331  0.3604 -0.5304
  273MOL0     H37608   6.853   0.368   8.544 -0.5985 -0.8416 -4.5686
  273MOL0     H37609   7.083   0.445   8.571  0.3017 -1.5192  0.2732
  273MOL0     H37610   7.016   0.425   8.729 -0.7000 -0.0339 -0.6645
  273MOL0     H37611   7.144   0.212   8.753  0.4917  2.2079  1.1217
  273MOL0     H37612   7.183   0.203   8.576 -1.1705 -0.1035 -0.2709
  273MOL0     H37613   7.304   0.417   8.594 -0.4585 -1.9725 -1.5915
  273MOL0     H37614   7.290   0.408   8.775 -0.4863  1.6634 -0.9813
  273MOL0     H37615   7.410   0.171   8.624 -0.3180 -0.4646  0.6345
  273MOL0     H37616   7.415   0.221   8.796  6.5022  4.7297  2.7001
  273MOL0     H37617   7.554   0.418   8.628 -2.3549 -0.1312 -1.4463
  273MOL0     H37618   7.602   0.354   8.779 -1.9119  4.2092 -1.1459
  273MOL0     H37619   7.760   0.263   8.591  1.4384 -1.5603 -0.1904
  273MOL0     H37620   7.626   0.209   8.501  3.1725  2.8818 -1.2534
  273MOL0     H37621   7.588   0.040   8.692  0.7264 -0.8649 -2.6153
  273MOL0     H37622   7.742   0.030   8.615 -2.9392 -3.1605  0.6490
  273MOL0     H37623   7.940   0.180   8.749 -0.7660  2.1698  0.7611
  273MOL0     H37624   8.034   0.111   9.112  0.8471  0.8526  0.7303
  273MOL0     H37625   8.029   0.275   9.068  0.4125 -1.2342  1.1079
  273MOL0     H37626   8.159   0.212   8.846 -0.6053 -3.4416 -1.3862
  273MOL0     H37627   8.246   0.184   8.998  0.8602  1.7547  0.2127
  273MOL0     H37628   8.093  -0.043   8.855  0.4368  1.0471 -0.5872
  273MOL0     H37629   8.257   0.011   8.818  1.2026 -2.3328 -0.3879
  273MOL0     H37630   8.139  -0.103   9.081 -1.1306  0.7293 -1.5376
  273MOL0     H37631   8.254  -0.185   8.978  3.3030  0.2925  3.1619
  273MOL0     H37632   8.443  -0.203   8.917 -1.7967  0.9479  0.5488
  273MOL0     H37633   8.726  -0.244   8.789 -0.1704 -0.2650 -0.2506
  273MOL0     H37634   8.680  -0.135   8.650  0.9275 -0.6770  1.2643
  273MOL0     H37635   8.571  -0.249   8.717 -2.4379 -0.1031  3.7590
  273MOL0     H37636   9.095   0.075   8.941 -0.3166 -0.8309 -1.5134
  273MOL0     H37637   9.324   0.089   8.862  0.3145  2.4951  2.5226
  273MOL0     H37638   9.578   0.177   8.729 -1.1659  0.7163  1.2683
  273MOL0     H37639   9.460   0.051   8.690 -3.5229  0.2809 -1.0421
  273MOL0     H37640   9.532   0.146   8.436 -0.0017 -2.1383 -0.9517
  273MOL0     H37641   9.689   0.155   8.516  1.5500 -2.3931 -0.1559
  273MOL0     H37642   9.668  -0.079   8.581  3.0754  1.5467 -0.4852
  273MOL0     H37643   9.688  -0.049   8.404 -1.5620 -1.6480 -1.0445
  273MOL0     H37644   9.441  -0.086   8.357 -1.8103  3.9349  1.8470
  273MOL0     H37645   9.412  -0.101   8.531  0.2543  1.5891 -0.3850
  273MOL0     H37646   9.401  -0.298   8.411 -1.3476  2.8995  0.6592
  273MOL0     H37647   9.569  -0.306   8.369 -1.4374 -2.1611 -1.0358
  273MOL0     H37648   9.439  -0.282   8.651  0.3221 -0.9947  1.6062
  273MOL0     H37649   9.610  -0.294   8.618 -1.1521  1.0178 -0.9195
  273MOL0     H37650   9.583  -0.534   8.518  0.3311  0.0126 -0.5631
  273MOL0     H37651   9.413  -0.525   8.569  0.6523  0.8802 -0.5272
  273MOL0     H37652   9.561  -0.645   8.741  2.1924 -0.2093 -1.2535
  273MOL0     H37653   9.483  -0.497   8.808 -0.3177  1.8210 -1.3323
  273MOL0     H37654   9.194   0.320   8.527 -2.0298 -1.5593 -0.6224
  273MOL0     H37655   8.964   0.288   8.610  0.9550 -1.1335 -1.4502
  273MOL0     H37656   8.697   0.206   9.001 -1.3112  0.3548 -1.9587
  273MOL0     H37657   8.475   0.176   9.111 -0.8364  1.1140 -0.4161
  273MOL0     H37658   6.994   0.275   8.181  0.9046 -1.5087  0.8970
  273MOL0     H37659   6.785   0.219   8.043 -0.8291  1.2540  0.2833
  273MOL0     H37660   6.447   0.177   7.834 -1.6070  1.9644 -2.0671
  273MOL0     H37661   6.278   0.114   7.693 -0.4499  0.4630 -0.4383
  273MOL0     H37662   5.894   0.052   7.671  1.1591  0.1721  2.5239
  273MOL0     H37663   6.053   0.144   7.643  0.8746  0.7451  3.9702
  273MOL0     H37664   6.000  -0.145   7.555  1.7387 -0.8936 -0.2827
  273MOL0     H37665   6.150  -0.039   7.529  0.2664  0.0177 -0.2415
  273MOL0     H37666   6.041   0.101   7.388  2.0944 -1.4320  0.7813
  273MOL0     H37667   6.009  -0.056   7.321 -2.1170 -0.4017  0.1375
  273MOL0     H37668   5.809   0.108   7.487  2.6273 -1.3967  1.1989
  273MOL0     H37669   5.774  -0.056   7.426 -2.8842  0.1478 -5.3808
  273MOL0     H37670   5.715   0.154   7.081  1.7569  1.2254 -0.8443
  273MOL0     H37671   6.055  -0.052   8.021 -0.6495  0.6698 -1.8249
  273MOL0     H37672   6.219  -0.085   8.210 -0.8667  0.1322 -2.1840
  273MOL0     H37673   6.303   0.066   8.276 -1.7869 -0.3133  2.6042
  273MOL0     H37674   6.130   0.060   8.244 -0.2630  0.2062 -2.6717
  274MOL0     O37675   7.263   3.701   5.140 -0.4862 -0.1828  0.7786
  274MOL0     C37676   7.269   3.587   5.189  0.6862  1.0339 -0.0935
  274MOL0     O37677   7.291   3.554   5.320  0.0252  0.0785 -0.0581
  274MOL0     C37678   7.290   3.646   5.420 -0.9095  0.8039 -0.1239
  274MOL0     C37679   7.250   3.601   5.546 -0.3021  0.3537  0.1066
  274MOL0     C37680   7.243   3.693   5.656  0.2717  0.0109  0.4372
  274MOL0     C37681   7.284   3.828   5.652  0.2862 -0.9570  0.1552
  274MOL0     O37682   7.287   3.907   5.769  0.6698 -0.8165  0.1085
  274MOL0     C37683   7.404   3.991   5.771 -0.2081  1.1786  0.4832
  274MOL0     C37684   7.416   4.046   5.913 -0.3867  0.4628 -0.1014
  274MOL0     C37685   7.505   4.167   5.921  0.0304 -0.1579 -0.2213
  274MOL0     C37686   7.506   4.221   6.064 -0.0728  0.0781  0.4421
  274MOL0     C37687   7.585   4.352   6.062 -0.6105 -0.7619 -0.0497
  274MOL0     C37688   7.531   4.457   6.164 -1.0039  0.2631 -0.0476
  274MOL0     C37689   7.598   4.595   6.151 -0.0085  0.4493  0.2918
  274MOL0     C37690   7.541   4.693   6.253  0.0682 -0.3406  0.5351
  274MOL0     N37691   7.626   4.809   6.283  0.5464 -0.4820  0.7688
  274MOL0     C37692   7.645   4.851   6.415  0.2492  0.9211  0.8388
  274MOL0     C37693   7.705   4.972   6.400  0.8233 -0.4401 -0.3582
  274MOL0     C37694   7.734   5.070   6.510  0.5471  0.2568 -0.5190
  274MOL0     C37695   7.837   5.002   6.605  0.5122  0.6992 -0.3155
  274MOL0     C37696   7.964   4.944   6.542  0.8062 -0.0094 -0.3224
  274MOL0     C37697   8.070   5.043   6.502 -0.4598  0.5153  0.0696
  274MOL0     O37698   8.183   4.979   6.438  0.8864  0.8238  0.0302
  274MOL0     C37699   8.187   4.952   6.300 -0.1331 -0.7342 -0.1789
  274MOL0     C37700   8.090   4.964   6.206  1.1465  0.3008 -0.1011
  274MOL0     C37701   8.109   4.932   6.074  0.9259 -0.4188  0.6794
  274MOL0     C37702   7.985   4.942   5.978  0.8629  0.4585 -0.9899
  274MOL0     C37703   8.232   4.874   6.038  0.3417  0.0966  0.5094
  274MOL0     C37704   8.286   4.843   5.906 -0.5541 -0.7875  0.1539
  274MOL0     O37705   8.417   4.806   5.902  0.1232  0.0444 -0.0483
  274MOL0     C37706   8.482   4.813   5.786 -0.0894  0.0770  0.8236
  274MOL0     C37707   8.450   4.723   5.676  1.1228  0.7243  0.1735
  274MOL0     C37708   8.534   4.721   5.567  0.0710 -0.2762 -0.9542
  274MOL0     C37709   8.649   4.802   5.555  0.9469 -0.2704  0.7451
  274MOL0     O37710   8.722   4.799   5.438 -0.3537 -0.3997  0.3764
  274MOL0     C37711   8.800   4.916   5.411  0.4603 -1.2813  0.2423
  274MOL0     C37712   8.825   4.909   5.259  0.0489 -0.0657  0.4826
  274MOL0     C37713   8.918   5.020   5.219 -0.3334  0.2133  0.6060
  274MOL0     C37714   9.064   5.023   5.281  0.3535 -0.3663 -0.5573
  274MOL0     C37715   9.162   5.125   5.219 -0.5240  0.2952  0.2927
  274MOL0     C37716   9.254   5.061   5.113  0.2542  0.4015  0.6594
  274MOL0     C37717   9.315   5.157   5.011 -0.5679 -0.1589  0.7798
  274MOL0     C37718   9.474   5.158   5.036  0.5886 -0.2675  0.2632
  274MOL0    Cl37719   9.562   5.274   4.931  0.0109  0.2326 -0.2351
  274MOL0     C37720   8.670   4.885   5.666 -0.7607 -0.2735  1.1020
  274MOL0     C37721   8.596   4.890   5.779  0.4233 -0.0044 -0.7078
  274MOL0     O37722   8.212   4.857   5.811 -0.3975 -0.4175 -0.1778
  274MOL0     C37723   8.328   4.860   6.140  0.0216  0.1013  0.6317
  274MOL0     C37724   8.308   4.912   6.262  0.8103  1.0780  0.1962
  274MOL0     N37725   7.730   4.991   6.270  0.3915  0.1979  0.1848
  274MOL0     N37726   7.698   4.888   6.202  0.3796  1.3607  0.8293
  274MOL0     C37727   7.338   3.864   5.530 -0.5876  0.1968  0.8457
  274MOL0     C37728   7.340   3.782   5.415  0.2732  0.8370  0.4603
  274MOL0     C37729   7.285   3.477   5.088  0.1941  0.6034 -0.1314
  274MOL0     C37730   7.407   3.418   5.085 -0.2737  0.3361 -0.1527
  274MOL0     C37731   7.437   3.332   4.983 -0.7357  0.0754  0.8793
  274MOL0     C37732   7.344   3.276   4.901  0.2913 -1.1760  0.1540
  274MOL0     O37733   7.389   3.209   4.796 -0.1840  0.6296 -0.4589
  274MOL0     C37734   7.287   3.139   4.721 -0.2607  0.8064  0.3355
  274MOL0     C37735   7.249   3.215   4.597 -0.4374 -0.0134 -0.2379
  274MOL0     C37736   7.176   3.130   4.487  0.3528  0.0797 -0.0359
  274MOL0     C37737   7.255   3.026   4.413  0.3648 -0.1035  0.4800
  274MOL0     C37738   7.326   3.081   4.300 -0.4076 -0.9767 -0.0463
  274MOL0     C37739   7.361   3.113   4.187  0.4444  0.2499 -0.5635
  274MOL0     C37740   7.206   3.322   4.910 -0.4803 -0.3576 -0.9959
  274MOL0     C37741   7.185   3.431   4.996 -0.0128 -0.2249  0.9724
  274MOL0     C37742   7.050   3.504   4.958  0.7988  0.3315  0.0941
  274MOL0     H37743   7.210   3.503   5.570 -3.3702  1.9354  2.2908
  274MOL0     H37744   7.201   3.663   5.752  0.1365 -0.5558  0.2063
  274MOL0     H37745   7.387   4.072   5.700 -1.9112 -0.0730 -0.6118
  274MOL0     H37746   7.495   3.947   5.727 -2.3650 -0.0972 -3.1709
  274MOL0     H37747   7.315   4.069   5.949  0.7025  3.8204  1.1641
  274MOL0     H37748   7.455   3.969   5.980 -2.6813 -1.6558 -1.0409
  274MOL0     H37749   7.610   4.159   5.890  0.0699  1.0875 -0.4481
  274MOL0     H37750   7.454   4.241   5.859 -3.1990  0.3453  2.6828
  274MOL0     H37751   7.405   4.240   6.100  0.0292  0.6112  0.4455
  274MOL0     H37752   7.559   4.154   6.132 -1.2370 -2.6056 -1.1120
  274MOL0     H37753   7.593   4.416   5.974 -3.4105  2.7653  1.9714
  274MOL0     H37754   7.684   4.322   6.096 -1.4054 -4.0504 -0.3030
  274MOL0     H37755   7.423   4.467   6.155 -1.0655  1.0754  1.3083
  274MOL0     H37756   7.558   4.418   6.262  4.8194  0.1860 -1.3326
  274MOL0     H37757   7.577   4.638   6.053  0.5352  0.5091  0.2022
  274MOL0     H37758   7.706   4.597   6.166 -0.2288  0.6597  2.0913
  274MOL0     H37759   7.446   4.738   6.223  0.8518 -0.0997 -1.7853
  274MOL0     H37760   7.527   4.639   6.348  1.9399 -0.5547  0.7174
  274MOL0     H37761   7.616   4.801   6.507 -0.8137  0.8823  0.4980
  274MOL0     H37762   7.648   5.092   6.574 -1.4165  1.2734 -3.3061
  274MOL0     H37763   7.779   5.162   6.472 -0.6400  0.3903 -1.6716
  274MOL0     H37764   7.866   5.076   6.681  1.2984 -0.2098  0.2924
  274MOL0     H37765   7.782   4.918   6.648 -0.6140 -0.9074 -4.4671
  274MOL0     H37766   8.011   4.885   6.621  1.0985  4.5720  3.3384
  274MOL0     H37767   7.941   4.874   6.461  0.9959  0.3485 -0.6907
  274MOL0     H37768   8.038   5.134   6.450 -0.8145  0.5114  0.2738
  274MOL0     H37769   8.115   5.084   6.593 -1.5477  0.6335  0.5754
  274MOL0     H37770   7.997   5.009   6.239  0.2302  0.4295 -2.6575
  274MOL0     H37771   7.907   4.993   6.036  2.9218  1.8497  0.7246
  274MOL0     H37772   7.938   4.849   5.944  1.5064 -0.8076  1.3941
  274MOL0     H37773   8.013   5.010   5.896  0.4348  3.3664  1.0993
  274MOL0     H37774   8.365   4.656   5.680 -0.9773  3.0540 -1.4410
  274MOL0     H37775   8.511   4.643   5.495  2.2830 -2.5303  0.5988
  274MOL0     H37776   8.758   5.014   5.437  1.9296 -1.3940  3.5158
  274MOL0     H37777   8.898   4.917   5.459 -0.1241  1.9106  1.6531
  274MOL0     H37778   8.865   4.808   5.246 -0.3531 -0.2331  0.5295
  274MOL0     H37779   8.733   4.937   5.207 -0.6370  1.9098  2.5901
  274MOL0     H37780   8.859   5.111   5.232 -2.8665 -1.3754  0.8666
  274MOL0     H37781   8.923   5.019   5.110  2.8135 -3.4041  0.5856
  274MOL0     H37782   9.110   4.923   5.274  0.3055 -0.3197 -1.9897
  274MOL0     H37783   9.051   5.041   5.388 -1.8348 -0.4773 -0.7666
  274MOL0     H37784   9.094   5.194   5.168  0.6985  0.0175 -1.8452
  274MOL0     H37785   9.221   5.176   5.295 -0.6926  3.1532 -1.3671
  274MOL0     H37786   9.192   4.992   5.055 -0.4221  0.0397  1.7784
  274MOL0     H37787   9.335   4.999   5.152  0.0789  0.7604  1.6415
  274MOL0     H37788   9.285   5.260   5.031 -1.5223 -0.1539 -0.5337
  274MOL0     H37789   9.294   5.130   4.907 -0.2101  1.3511  0.2870
  274MOL0     H37790   9.527   5.064   5.021  0.8405  0.0953 -1.2736
  274MOL0     H37791   9.485   5.191   5.140  1.5137 -1.1469  0.4575
  274MOL0     H37792   8.758   4.949   5.664 -1.1314  0.2354  0.9796
  274MOL0     H37793   8.620   4.944   5.870  0.0524 -2.2785  0.8438
  274MOL0     H37794   8.431   4.831   6.119 -0.5575 -0.3182 -2.1023
  274MOL0     H37795   8.390   4.902   6.332  1.4810  2.5348 -0.3458
  274MOL0     H37796   7.374   3.966   5.521  0.6142 -0.3980 -2.0699
  274MOL0     H37797   7.383   3.812   5.320 -0.6165  0.0580 -0.2059
  274MOL0     H37798   7.481   3.432   5.163 -0.5725  2.4366 -0.1855
  274MOL0     H37799   7.533   3.282   4.976 -1.3790 -1.0396 -0.4291
  274MOL0     H37800   7.332   3.045   4.686  1.9619  2.6150 -2.0932
  274MOL0     H37801   7.211   3.101   4.789  2.9039 -0.9603  3.2190
  274MOL0     H37802   7.342   3.245   4.548  0.7465 -1.8107  0.7718
  274MOL0     H37803   7.194   3.305   4.627  1.5059  0.5668  1.8747
  274MOL0     H37804   7.105   3.067   4.542  1.5496  0.9664  2.6833
  274MOL0     H37805   7.125   3.199   4.419 -0.0496 -0.2826 -0.1079
  274MOL0     H37806   7.186   2.947   4.381  0.2155 -1.4444  3.7200
  274MOL0     H37807   7.322   2.976   4.483 -1.8467  0.6223  3.3014
  274MOL0     H37808   7.391   3.154   4.092  0.7165  1.1920 -0.0814
  274MOL0     H37809   7.131   3.283   4.842 -1.1122 -3.0592  1.0877
  274MOL0     H37810   7.066   3.599   4.905  1.7457  0.5661  0.7561
  274MOL0     H37811   6.995   3.431   4.899  0.4351 -2.4014  3.4928
  274MOL0     H37812   6.990   3.511   5.050  0.5461  2.0260 -0.1697
  275MOL0     O37813   5.850   1.237   3.006 -0.0007 -0.4406 -0.3067
  275MOL0     C37814   5.839   1.358   3.030  0.3599  0.4556  0.4331
  275MOL0     O37815   5.893   1.461   2.963 -0.3340 -0.1413  0.2623
  275MOL0     C37816   5.991   1.427   2.871  0.5684  0.5102 -0.7562
  275MOL0     C37817   6.116   1.365   2.906 -1.0299 -0.8428  0.0321
  275MOL0     C37818   6.215   1.351   2.806  0.5553 -1.1105  0.6089
  275MOL0     C37819   6.196   1.400   2.673 -0.5526 -0.1911 -0.6215
  275MOL0     O37820   6.292   1.403   2.571 -0.1857  0.3366 -0.1360
  275MOL0     C37821   6.431   1.357   2.596  0.8390 -0.2330  0.1679
  275MOL0     C37822   6.498   1.478   2.650 -0.5628 -0.2762 -0.2858
  275MOL0     C37823   6.472   1.609   2.582 -0.1309 -0.7383  0.1953
  275MOL0     C37824   6.503   1.616   2.428 -0.2980 -0.4123 -0.0435
  275MOL0     C37825   6.559   1.758   2.390 -0.4005  0.3198 -0.0002
  275MOL0     C37826   6.455   1.852   2.349  0.4035  0.1413  0.2800
  275MOL0     C37827   6.516   1.994   2.320 -0.3620 -0.5452 -0.0533
  275MOL0     C37828   6.566   2.067   2.434  0.0123 -0.8816 -0.2260
  275MOL0     N37829   6.467   2.086   2.541 -0.1541 -0.7165 -0.3406
  275MOL0     C37830   6.355   2.167   2.520 -0.3322  0.6799 -0.6428
  275MOL0     C37831   6.316   2.181   2.645 -0.6127 -0.7624 -0.6964
  275MOL0     C37832   6.190   2.260   2.695  0.2897  0.8458 -0.1924
  275MOL0     C37833   6.221   2.407   2.742  0.5600  0.2306 -0.3450
  275MOL0     C37834   6.092   2.483   2.785  0.3512 -0.2009 -0.2836
  275MOL0     C37835   6.035   2.443   2.930 -0.1588 -0.8743  0.2797
  275MOL0     O37836   6.140   2.476   3.022  0.7954  0.3069 -0.0687
  275MOL0     C37837   6.103   2.455   3.150 -0.4951  0.6893 -0.5658
  275MOL0     C37838   5.990   2.391   3.200 -0.0425 -1.0841 -0.4134
  275MOL0     C37839   5.969   2.378   3.336 -1.0994 -0.1386 -0.3725
  275MOL0     C37840   5.844   2.318   3.389 -0.1085  0.4015  0.6507
  275MOL0     C37841   6.067   2.429   3.423  0.4764 -0.4665 -1.0663
  275MOL0     C37842   6.054   2.433   3.576  0.1470  0.2205  0.1002
  275MOL0     O37843   6.164   2.421   3.644  0.6561 -0.7379  0.0078
  275MOL0     C37844   6.185   2.433   3.779  0.2483  0.3425  0.4472
  275MOL0     C37845   6.081   2.440   3.876  0.0283 -0.0892  0.8030
  275MOL0     C37846   6.108   2.447   4.017  0.3959  0.4166  0.4119
  275MOL0     C37847   6.245   2.463   4.058  1.4576  0.2807 -0.4550
  275MOL0     O37848   6.274   2.485   4.191 -0.2523  0.6913  0.0174
  275MOL0     C37849   6.253   2.617   4.221 -0.0008 -0.5928  0.1143
  275MOL0     C37850   6.387   2.678   4.270 -0.3774  0.3316  0.1772
  275MOL0     C37851   6.419   2.622   4.413  0.9003  0.1109 -0.0245
  275MOL0     C37852   6.562   2.641   4.440 -0.4725  0.6221  0.1580
  275MOL0     C37853   6.585   2.588   4.578  0.3112 -0.3610 -0.2626
  275MOL0     C37854   6.725   2.618   4.649  0.4340  0.0037 -0.0803
  275MOL0     C37855   6.719   2.760   4.705  0.5048  0.4111  0.0886
  275MOL0     C37856   6.851   2.838   4.717 -0.1703 -0.2608 -0.7631
  275MOL0    Cl37857   6.801   2.997   4.775  0.1342 -0.2658  0.6165
  275MOL0     C37858   6.342   2.461   3.958  0.8091  0.6530  0.0004
  275MOL0     C37859   6.311   2.435   3.827  0.5381 -0.7012 -0.4591
  275MOL0     O37860   5.944   2.466   3.616 -0.2384  0.4445 -0.0692
  275MOL0     C37861   6.182   2.493   3.374 -0.2171 -0.5616  1.0137
  275MOL0     C37862   6.192   2.505   3.240  0.4893 -0.1819 -1.1616
  275MOL0     N37863   6.399   2.117   2.742 -0.4920 -0.1441 -0.2359
  275MOL0     N37864   6.497   2.064   2.672  0.4702  0.1415  0.7766
  275MOL0     C37865   6.066   1.437   2.643  0.9841 -0.6797  0.2169
  275MOL0     C37866   5.960   1.456   2.734  0.0409  0.2015  0.0714
  275MOL0     C37867   5.738   1.387   3.129  0.3322 -1.0664 -0.6291
  275MOL0     C37868   5.759   1.508   3.194 -0.6451  0.5700  0.2212
  275MOL0     C37869   5.680   1.549   3.294  0.9303 -0.4797  1.0607
  275MOL0     C37870   5.552   1.496   3.319 -0.1722 -0.7312 -0.1517
  275MOL0     O37871   5.470   1.572   3.405  0.5593  0.3155  0.3791
  275MOL0     C37872   5.338   1.523   3.441  0.3795 -0.6824  0.4758
  275MOL0     C37873   5.290   1.597   3.558  0.2447  0.7932  0.6802
  275MOL0     C37874   5.148   1.569   3.583 -0.6443 -0.0346  0.7344
  275MOL0     C37875   5.086   1.700   3.647 -0.3548  0.4200  0.0954
  275MOL0     C37876   4.956   1.680   3.713 -0.2728 -0.1508  0.3249
  275MOL0     C37877   4.847   1.669   3.753 -0.1916 -0.6294 -0.5418
  275MOL0     C37878   5.523   1.380   3.251  0.0253  0.7247  0.6577
  275MOL0     C37879   5.617   1.312   3.164  0.2283  0.0839 -0.2252
  275MOL0     C37880   5.569   1.188   3.094 -0.5238  1.1663  0.1512
  275MOL0     H37881   6.129   1.340   3.011 -0.3194  3.7475  1.2686
  275MOL0     H37882   6.305   1.303   2.844  0.3426 -0.4738  1.9714
  275MOL0     H37883   6.478   1.329   2.502  1.7108  1.6607 -0.0209
  275MOL0     H37884   6.438   1.268   2.660 -0.0836 -0.9900 -0.7548
  275MOL0     H37885   6.474   1.485   2.757 -1.3350 -1.6263 -0.3552
  275MOL0     H37886   6.605   1.459   2.641 -0.9722 -2.0191 -2.0557
  275MOL0     H37887   6.367   1.632   2.601 -0.3655 -1.6111 -0.0033
  275MOL0     H37888   6.533   1.682   2.637 -2.3305  0.2034  1.5269
  275MOL0     H37889   6.577   1.540   2.403 -0.7643 -0.9903  0.2922
  275MOL0     H37890   6.411   1.600   2.370 -2.3743  2.8760  2.0717
  275MOL0     H37891   6.625   1.752   2.303  0.1126  0.1259  0.3975
  275MOL0     H37892   6.611   1.802   2.476 -1.4287  0.2818  0.6489
  275MOL0     H37893   6.385   1.823   2.271 -0.2094  1.6679  0.2202
  275MOL0     H37894   6.380   1.869   2.427  0.5642  0.8851  0.2865
  275MOL0     H37895   6.448   2.057   2.262 -1.2037 -0.6620  0.7850
  275MOL0     H37896   6.597   1.968   2.251  0.2012  3.3141 -1.0744
  275MOL0     H37897   6.665   2.037   2.472  0.4277  1.1955  0.4305
  275MOL0     H37898   6.596   2.167   2.400  2.6986 -1.2331  0.7941
  275MOL0     H37899   6.315   2.199   2.424 -0.4392  2.5170 -0.0217
  275MOL0     H37900   6.134   2.205   2.771  1.0664  0.2135 -0.0691
  275MOL0     H37901   6.130   2.296   2.611 -1.2555  2.1494  1.4022
  275MOL0     H37902   6.285   2.404   2.830  0.8630 -1.0644 -0.5877
  275MOL0     H37903   6.269   2.455   2.655  1.3927 -1.1994 -0.6972
  275MOL0     H37904   6.103   2.591   2.773 -3.3799  0.3053 -0.2053
  275MOL0     H37905   6.016   2.442   2.717  2.2613 -1.7206 -1.6062
  275MOL0     H37906   5.938   2.485   2.956  1.2294  0.0215  5.0150
  275MOL0     H37907   6.020   2.335   2.932 -1.2427 -0.7673 -0.7710
  275MOL0     H37908   5.914   2.366   3.126 -0.0173  1.0317 -1.2217
  275MOL0     H37909   5.781   2.401   3.424 -1.1008  1.0091 -2.2768
  275MOL0     H37910   5.861   2.236   3.460 -4.1452 -2.4027 -1.1893
  275MOL0     H37911   5.793   2.274   3.303 -1.9822  0.1568  1.8186
  275MOL0     H37912   5.976   2.416   3.862  0.5845 -2.6483  0.4400
  275MOL0     H37913   6.025   2.457   4.087 -0.6721 -3.1570 -0.1333
  275MOL0     H37914   6.225   2.665   4.127  1.8521 -1.8819 -1.1607
  275MOL0     H37915   6.176   2.622   4.299 -2.9064 -1.4993 -2.5051
  275MOL0     H37916   6.454   2.656   4.187 -0.1671  0.1677  0.3895
  275MOL0     H37917   6.381   2.787   4.272  2.6502  0.5679  0.6413
  275MOL0     H37918   6.394   2.516   4.416  2.3963 -0.2959 -0.8279
  275MOL0     H37919   6.357   2.676   4.485  0.2778 -1.5726  0.7502
  275MOL0     H37920   6.593   2.746   4.448  2.0255 -0.2022  2.5825
  275MOL0     H37921   6.608   2.591   4.354 -1.2851  0.0197  0.0562
  275MOL0     H37922   6.512   2.642   4.639 -0.1417  0.3942 -1.4354
  275MOL0     H37923   6.552   2.484   4.582 -2.8944  0.5271 -0.7452
  275MOL0     H37924   6.802   2.611   4.572 -0.8821 -0.5995 -1.3725
  275MOL0     H37925   6.760   2.541   4.719  2.3943  2.6589  2.1181
  275MOL0     H37926   6.658   2.756   4.795  1.1095  1.5602  0.5856
  275MOL0     H37927   6.665   2.834   4.645 -0.6670  3.2344  4.2362
  275MOL0     H37928   6.903   2.847   4.622  0.6023  1.4383 -0.2266
  275MOL0     H37929   6.933   2.809   4.783  2.2310  3.4232 -1.8308
  275MOL0     H37930   6.443   2.462   3.996 -0.0267  0.7513  2.3890
  275MOL0     H37931   6.392   2.428   3.754  1.6283  0.2577  0.6184
  275MOL0     H37932   6.253   2.539   3.442  0.6620  0.8240 -0.7466
  275MOL0     H37933   6.279   2.563   3.213  1.3278 -1.2686 -0.8419
  275MOL0     H37934   6.052   1.496   2.553  0.4419  1.0911  1.4024
  275MOL0     H37935   5.865   1.503   2.709  0.9182  1.0554 -1.9264
  275MOL0     H37936   5.843   1.572   3.168 -1.4336  0.8890 -1.6707
  275MOL0     H37937   5.710   1.642   3.341  0.3892 -0.0890  0.6358
  275MOL0     H37938   5.277   1.538   3.352 -0.8448  1.3138  1.5810
  275MOL0     H37939   5.336   1.416   3.463  1.9902 -0.7138  0.6258
  275MOL0     H37940   5.309   1.703   3.539  1.0522  0.8596  1.7730
  275MOL0     H37941   5.345   1.569   3.649  0.6966  0.2848  0.2632
  275MOL0     H37942   5.099   1.541   3.489  0.9816 -1.7410  0.3246
  275MOL0     H37943   5.142   1.481   3.648  1.1350 -4.7093 -4.5960
  275MOL0     H37944   5.072   1.767   3.562 -1.2998 -0.8310 -0.7843
  275MOL0     H37945   5.146   1.746   3.725 -0.3682 -0.4826  0.6498
  275MOL0     H37946   4.749   1.658   3.793 -0.6965  0.6623 -1.3488
  275MOL0     H37947   5.425   1.334   3.259  0.9584 -1.2329  1.4792
  275MOL0     H37948   5.468   1.156   3.124  0.3100 -0.7439  1.1461
  275MOL0     H37949   5.567   1.214   2.988  1.0268 -0.4400 -0.3154
  275MOL0     H37950   5.641   1.106   3.101  1.5456  2.8177 -0.6077
  276MOL0     O37951   0.363   7.225   8.228  0.4479 -0.0159 -0.2086
  276MOL0     C37952   0.341   7.186   8.348 -0.5163 -0.8322 -0.7379
  276MOL0     O37953   0.429   7.117   8.419 -0.0929 -0.0858 -0.8954
  276MOL0     C37954   0.543   7.070   8.356 -0.1259  0.3850  1.3088
  276MOL0     C37955   0.665   7.135   8.351  0.3103 -0.4024 -0.3289
  276MOL0     C37956   0.785   7.080   8.294  0.6739  0.4648  0.3261
  276MOL0     C37957   0.780   6.944   8.252  0.6452 -0.4548  0.4320
  276MOL0     O37958   0.893   6.894   8.189  0.0829  0.2980 -0.0430
  276MOL0     C37959   1.018   6.908   8.255 -0.0508  0.0667  0.4208
  276MOL0     C37960   1.115   6.845   8.166  0.4681 -0.9706  0.1735
  276MOL0     C37961   1.258   6.895   8.200 -0.4027  0.3385 -0.0431
  276MOL0     C37962   1.362   6.818   8.119  0.4434 -0.4011  0.3862
  276MOL0     C37963   1.498   6.815   8.183 -0.2715  0.8431  0.0335
  276MOL0     C37964   1.581   6.712   8.099 -0.2493 -0.4887  0.7804
  276MOL0     C37965   1.642   6.759   7.962 -0.3669 -0.0533 -0.6139
  276MOL0     C37966   1.747   6.865   7.982  0.5962  0.7416 -0.8061
  276MOL0     N37967   1.828   6.889   7.860 -0.4529 -0.3033 -0.0843
  276MOL0     C37968   1.777   6.912   7.738  0.0680  0.3140 -0.5752
  276MOL0     C37969   1.885   6.941   7.658  0.4055 -0.2191 -0.6201
  276MOL0     C37970   1.890   6.966   7.510 -0.0438 -0.1782 -0.7498
  276MOL0     C37971   2.033   6.994   7.454  0.0895 -0.4699  0.8037
  276MOL0     C37972   2.045   7.044   7.312 -0.0873 -0.2719 -0.2346
  276MOL0     C37973   1.993   6.940   7.209  0.3504 -0.6572 -0.4762
  276MOL0     O37974   2.006   6.988   7.077 -0.0185 -0.0904 -0.5372
  276MOL0     C37975   2.121   6.948   7.005 -0.1349 -0.4014  0.0910
  276MOL0     C37976   2.112   6.955   6.867  0.0923 -0.7180  0.5431
  276MOL0     C37977   2.228   6.951   6.786  0.2772  0.5088 -0.4462
  276MOL0     C37978   2.202   6.984   6.643 -0.3661 -0.0372  0.1913
  276MOL0     C37979   2.356   6.910   6.841 -0.7063  0.5099  0.1187
  276MOL0     C37980   2.476   6.890   6.770  0.8660  0.7698  0.3661
  276MOL0     O37981   2.545   6.772   6.787 -0.5292  0.1996  0.4320
  276MOL0     C37982   2.662   6.736   6.727 -0.3389  0.6245 -0.1413
  276MOL0     C37983   2.703   6.763   6.601 -0.2863 -0.1091 -0.8455
  276MOL0     C37984   2.826   6.729   6.540  1.8234  0.5747 -0.6182
  276MOL0     C37985   2.917   6.658   6.617 -0.3647 -0.1311 -0.1707
  276MOL0     O37986   3.036   6.621   6.555  0.4178  0.3764 -0.3666
  276MOL0     C37987   3.121   6.515   6.613  0.2621 -0.2664  0.0132
  276MOL0     C37988   3.229   6.565   6.719  0.9564 -1.7348 -0.1702
  276MOL0     C37989   3.314   6.674   6.665  0.8518  1.1073 -0.6960
  276MOL0     C37990   3.426   6.698   6.760 -0.5822  0.1466  0.1817
  276MOL0     C37991   3.528   6.794   6.730  0.0797 -1.0517 -0.0184
  276MOL0     C37992   3.481   6.941   6.758  0.6107  0.1033  0.9644
  276MOL0     C37993   3.519   7.001   6.885  0.5900 -0.1904  0.0163
  276MOL0     C37994   3.644   7.093   6.858 -0.4050  0.5304 -0.5603
  276MOL0    Cl37995   3.712   7.141   7.020  0.0712  0.2603  0.2148
  276MOL0     C37996   2.889   6.626   6.754  0.4123 -0.1767  0.1437
  276MOL0     C37997   2.760   6.666   6.801 -0.4662 -0.8380 -0.2645
  276MOL0     O37998   2.517   6.984   6.701 -0.5313  0.8741 -0.3431
  276MOL0     C37999   2.356   6.887   6.978 -0.3908 -0.5222 -0.3034
  276MOL0     C38000   2.243   6.904   7.055  0.0884 -0.9207  0.4646
  276MOL0     N38001   1.991   6.960   7.739 -0.1867  1.1183  0.4047
  276MOL0     N38002   1.954   6.938   7.865 -0.7738  0.2831  0.0561
  276MOL0     C38003   0.658   6.881   8.257  0.3674 -0.8970 -0.5900
  276MOL0     C38004   0.537   6.940   8.303  0.3470  0.7605  0.0011
  276MOL0     C38005   0.212   7.226   8.403  0.2158  0.4719 -0.8549
  276MOL0     C38006   0.139   7.134   8.480 -0.9852 -0.9660  0.7079
  276MOL0     C38007   0.014   7.174   8.536  1.1260  1.2570 -0.5338
  276MOL0     C38008  -0.040   7.304   8.510  0.5719  0.9544 -0.3913
  276MOL0     O38009  -0.160   7.362   8.556  0.0851 -0.2660  0.3187
  276MOL0     C38010  -0.246   7.267   8.625  0.6504 -0.0692 -0.4200
  276MOL0     C38011  -0.383   7.319   8.660 -1.0234 -0.6466  0.3145
  276MOL0     C38012  -0.473   7.352   8.543  0.1611 -0.0933  0.8535
  276MOL0     C38013  -0.590   7.436   8.598  0.9411 -0.3744  0.9975
  276MOL0     C38014  -0.691   7.445   8.487  1.0968 -1.4020 -0.2141
  276MOL0     C38015  -0.783   7.459   8.409  0.0998  0.5963  0.2108
  276MOL0     C38016   0.026   7.384   8.421 -0.2601  0.2947 -0.3921
  276MOL0     C38017   0.158   7.352   8.375  0.3540  0.0042 -0.1281
  276MOL0     C38018   0.221   7.464   8.291  0.5397  0.3020  1.3816
  276MOL0     H38019   0.652   7.226   8.410  0.5619 -0.9863  0.6502
  276MOL0     H38020   0.873   7.144   8.291  1.0427 -0.0076  0.8126
  276MOL0     H38021   1.024   6.866   8.356  3.6431 -1.7929 -0.4102
  276MOL0     H38022   1.050   7.013   8.257 -2.8131  1.0046 -0.4483
  276MOL0     H38023   1.105   6.737   8.173  0.4437 -0.8828  4.0856
  276MOL0     H38024   1.096   6.891   8.069 -2.4227 -1.7507  0.2761
  276MOL0     H38025   1.270   7.002   8.180 -1.8668  0.5854  0.2435
  276MOL0     H38026   1.288   6.892   8.305  0.4426  3.9583 -0.0408
  276MOL0     H38027   1.322   6.716   8.115  3.3335 -1.6513  0.4330
  276MOL0     H38028   1.369   6.843   8.013 -2.0332 -3.0143 -0.5464
  276MOL0     H38029   1.491   6.792   8.290  1.8461  1.9525  0.4450
  276MOL0     H38030   1.550   6.911   8.179  1.9304 -0.3364 -1.3744
  276MOL0     H38031   1.670   6.693   8.160 -1.2525  0.3705  2.6091
  276MOL0     H38032   1.529   6.618   8.082  1.8481 -1.4189 -0.9028
  276MOL0     H38033   1.575   6.786   7.880 -0.4636 -2.3584 -1.3638
  276MOL0     H38034   1.703   6.675   7.927 -0.7714 -0.5218 -0.2033
  276MOL0     H38035   1.684   6.953   7.992 -1.0766 -0.2954 -1.7912
  276MOL0     H38036   1.798   6.864   8.079 -1.5173  0.7031  0.3549
  276MOL0     H38037   1.681   6.881   7.699  0.0246 -0.9554  0.4540
  276MOL0     H38038   1.827   7.050   7.480  0.1235 -0.7117 -2.7237
  276MOL0     H38039   1.853   6.876   7.460  0.2874 -0.6479 -0.1651
  276MOL0     H38040   2.080   7.067   7.520  0.9624 -0.4620  0.1808
  276MOL0     H38041   2.095   6.904   7.459  3.6962  1.8791  1.9028
  276MOL0     H38042   2.000   7.144   7.309  1.4256  0.4418 -0.2478
  276MOL0     H38043   2.153   7.060   7.303  1.0380 -4.4796  2.8357
  276MOL0     H38044   2.041   6.843   7.222  1.1799 -0.4164 -1.5503
  276MOL0     H38045   1.890   6.910   7.231 -0.2759  1.1782 -0.6724
  276MOL0     H38046   2.020   6.996   6.827  1.3269  1.8069  0.0556
  276MOL0     H38047   2.219   7.090   6.620 -2.6299  0.2848 -0.2257
  276MOL0     H38048   2.100   6.964   6.609  0.6008  0.8775 -3.7546
  276MOL0     H38049   2.265   6.914   6.587  0.3646 -0.3429  1.3410
  276MOL0     H38050   2.643   6.820   6.530 -2.1164 -1.7431 -0.6828
  276MOL0     H38051   2.850   6.782   6.449 -0.4032  4.5893  0.8997
  276MOL0     H38052   3.062   6.429   6.647  2.1960 -1.8608 -0.5434
  276MOL0     H38053   3.181   6.477   6.531 -0.3861 -0.6239 -0.3020
  276MOL0     H38054   3.180   6.595   6.813 -2.1209  0.0119 -2.1485
  276MOL0     H38055   3.288   6.477   6.744  1.4029 -1.3769  0.0464
  276MOL0     H38056   3.251   6.758   6.634 -1.7485 -0.5586 -0.2278
  276MOL0     H38057   3.360   6.629   6.577 -0.7518  2.7998 -2.5029
  276MOL0     H38058   3.471   6.598   6.769 -0.3447 -0.0421 -2.4040
  276MOL0     H38059   3.371   6.727   6.850 -0.4982  1.9839 -0.3202
  276MOL0     H38060   3.607   6.779   6.805 -0.4631 -2.2624  0.3288
  276MOL0     H38061   3.560   6.771   6.628 -1.4856 -0.0265 -0.7742
  276MOL0     H38062   3.373   6.930   6.754  0.6468  0.0426 -0.4542
  276MOL0     H38063   3.517   7.004   6.675  1.2267 -0.2717  0.9377
  276MOL0     H38064   3.526   6.924   6.963 -0.2853 -0.0705  0.2314
  276MOL0     H38065   3.434   7.065   6.912 -0.0762 -0.6191 -1.0002
  276MOL0     H38066   3.613   7.176   6.793  0.4726  0.1470 -1.4926
  276MOL0     H38067   3.721   7.036   6.806 -0.8516 -2.4575  1.8153
  276MOL0     H38068   2.952   6.565   6.818 -0.9162  0.2904  1.9809
  276MOL0     H38069   2.734   6.640   6.904 -2.5927 -1.6811 -0.9609
  276MOL0     H38070   2.448   6.848   7.020  0.2336 -0.8709 -1.9481
  276MOL0     H38071   2.246   6.907   7.164  0.0598 -1.0889  0.4699
  276MOL0     H38072   0.657   6.784   8.208  2.8601 -0.9725 -0.6189
  276MOL0     H38073   0.446   6.882   8.294  0.1149  1.1839 -0.3784
  276MOL0     H38074   0.182   7.036   8.495 -0.2710 -1.1650 -2.1124
  276MOL0     H38075  -0.018   7.109   8.618 -1.9190  2.8020 -0.3750
  276MOL0     H38076  -0.274   7.182   8.563 -0.9880 -0.5939  0.9800
  276MOL0     H38077  -0.190   7.241   8.716 -2.1044  1.4091  1.8619
  276MOL0     H38078  -0.380   7.408   8.724 -0.6395 -1.4321  1.4320
  276MOL0     H38079  -0.433   7.243   8.721 -0.4901 -0.7536  0.6254
  276MOL0     H38080  -0.413   7.408   8.471 -1.1735 -0.0684 -0.2664
  276MOL0     H38081  -0.519   7.261   8.504  1.4313 -0.2806 -0.2516
  276MOL0     H38082  -0.551   7.534   8.626 -0.2159  0.9156 -1.4785
  276MOL0     H38083  -0.637   7.390   8.685  2.5804 -0.0019  2.1132
  276MOL0     H38084  -0.869   7.464   8.347 -1.5333 -1.4823  2.1095
  276MOL0     H38085  -0.020   7.481   8.403 -1.0610  0.0811  0.4496
  276MOL0     H38086   0.330   7.474   8.297  0.6480  1.2110 -0.9215
  276MOL0     H38087   0.194   7.450   8.186  1.6072 -0.5861  1.2120
  276MOL0     H38088   0.175   7.558   8.323 -0.5312 -0.4688  2.1812
  277MOL0     O38089  11.327   6.199   7.085  0.5467  0.4195  0.4000
  277MOL0     C38090  11.358   6.315   7.098 -0.1904  0.5758  0.9084
  277MOL0     O38091  11.474   6.351   7.139  0.1525 -0.8578 -0.6627
  277MOL0     C38092  11.526   6.283   7.249 -0.4753  0.0972  1.1342
  277MOL0     C38093  11.455   6.240   7.366  0.0579 -0.0602 -0.4495
  277MOL0     C38094  11.516   6.198   7.483  0.2015  0.7176  0.3759
  277MOL0     C38095  11.655   6.180   7.480  0.1327 -0.0382 -1.1230
  277MOL0     O38096  11.730   6.141   7.587 -0.5056 -0.5439 -1.0955
  277MOL0     C38097  11.666   6.107   7.708  0.0902 -0.0861  0.6783
  277MOL0     C38098  11.762   6.061   7.818  0.3661 -0.5372 -0.0355
  277MOL0     C38099  11.796   6.171   7.916  0.3632 -0.4583 -0.4072
  277MOL0     C38100  11.688   6.191   8.024 -0.2154  0.9878 -0.0098
  277MOL0     C38101  11.751   6.286   8.133 -0.5189  0.0429 -0.2168
  277MOL0     C38102  11.645   6.320   8.251  0.1397  0.1353  0.8250
  277MOL0     C38103  11.523   6.396   8.201  0.1624 -0.1001  0.7965
  277MOL0     C38104  11.427   6.440   8.311  0.4251 -0.4951 -0.2297
  277MOL0     N38105  11.346   6.321   8.343 -0.3859 -0.2510 -0.2205
  277MOL0     C38106  11.247   6.272   8.269 -0.0771  0.1210 -0.0614
  277MOL0     C38107  11.194   6.159   8.334 -0.2378  0.0487  0.5974
  277MOL0     C38108  11.078   6.087   8.287  0.6056 -0.6761  0.4752
  277MOL0     C38109  10.942   6.132   8.349  0.4246 -0.4785  0.1337
  277MOL0     C38110  10.847   6.006   8.365 -0.1691  0.8539  0.6063
  277MOL0     C38111  10.705   6.045   8.369 -0.1507 -0.8321 -0.5169
  277MOL0     O38112  10.691   6.117   8.491  0.1652  0.1894  0.7253
  277MOL0     C38113  10.579   6.193   8.496 -0.5971  0.3811  0.6726
  277MOL0     C38114  10.470   6.189   8.412  0.1231  0.7533 -0.0261
  277MOL0     C38115  10.353   6.263   8.443  0.2414  0.4374 -0.3114
  277MOL0     C38116  10.243   6.252   8.336  0.4527  0.4826 -0.0524
  277MOL0     C38117  10.349   6.340   8.558  0.4637 -0.6502  0.2669
  277MOL0     C38118  10.235   6.433   8.594  0.4734  0.0203 -0.4770
  277MOL0     O38119  10.189   6.425   8.724 -0.4919 -0.4017 -0.0423
  277MOL0     C38120  10.087   6.513   8.758  0.6818  0.1847 -0.4222
  277MOL0     C38121   9.950   6.469   8.751 -1.4729 -0.2901 -0.4915
  277MOL0     C38122   9.849   6.555   8.790 -1.0053 -0.1381 -0.0790
  277MOL0     C38123   9.876   6.680   8.835 -0.4285 -0.0733  0.6417
  277MOL0     O38124   9.782   6.756   8.898 -0.3411 -0.8600  0.3521
  277MOL0     C38125   9.639   6.724   8.894 -1.1969  0.1587  0.6931
  277MOL0     C38126   9.539   6.838   8.904 -0.3208  0.3649  0.8831
  277MOL0     C38127   9.571   6.927   9.020  0.1692  0.0004  0.1274
  277MOL0     C38128   9.460   7.015   9.083 -0.0383 -0.6135  0.3102
  277MOL0     C38129   9.523   7.090   9.208 -0.3494  1.1835  0.1475
  277MOL0     C38130   9.430   7.211   9.240 -0.5179  0.3306  0.1516
  277MOL0     C38131   9.472   7.295   9.364 -0.3100  0.0478 -0.2669
  277MOL0     C38132   9.370   7.387   9.397  0.7726 -0.2039 -0.5484
  277MOL0    Cl38133   9.394   7.444   9.562 -0.1862  0.2755 -0.4452
  277MOL0     C38134  10.004   6.726   8.834  0.3809 -0.0889 -0.5157
  277MOL0     C38135  10.110   6.645   8.792  0.7211 -0.2329 -0.1304
  277MOL0     O38136  10.168   6.485   8.509 -0.2060  0.5581 -0.0108
  277MOL0     C38137  10.456   6.330   8.648  0.0758  0.2475 -0.8226
  277MOL0     C38138  10.568   6.260   8.610  0.3253  0.6965 -0.8589
  277MOL0     N38139  11.260   6.148   8.449 -0.7161 -0.2192  0.1783
  277MOL0     N38140  11.352   6.239   8.449 -0.0630  0.0315 -0.7962
  277MOL0     C38141  11.730   6.230   7.365  0.4000  0.9331  0.8097
  277MOL0     C38142  11.665   6.274   7.244 -0.0180  0.4461 -0.6140
  277MOL0     C38143  11.266   6.424   7.051 -0.6293  0.1960  0.1875
  277MOL0     C38144  11.323   6.550   7.012 -1.1470  0.0685  0.4273
  277MOL0     C38145  11.239   6.663   7.010  0.0841  0.3203  0.6530
  277MOL0     C38146  11.105   6.652   7.047  0.4081 -0.1844 -0.2035
  277MOL0     O38147  11.035   6.772   7.060  0.7206  0.7358 -0.3047
  277MOL0     C38148  10.898   6.758   7.072 -0.2474 -0.2369  0.3202
  277MOL0     C38149  10.827   6.897   7.073 -0.5614 -0.0422  0.4829
  277MOL0     C38150  10.858   6.983   7.194 -0.0526  0.3294 -0.2933
  277MOL0     C38151  10.845   7.136   7.174  0.4778 -0.8030  0.2506
  277MOL0     C38152  10.842   7.204   7.307  0.4362 -0.5525 -0.6207
  277MOL0     C38153  10.827   7.248   7.421 -0.3749  0.1861  0.1922
  277MOL0     C38154  11.050   6.528   7.061 -0.5660 -0.7009  0.5018
  277MOL0     C38155  11.128   6.416   7.060  0.4773  0.0375 -0.5021
  277MOL0     C38156  11.058   6.277   7.069 -0.3441  0.2439  0.6496
  277MOL0     H38157  11.346   6.238   7.369  0.0485 -0.4689 -0.8593
  277MOL0     H38158  11.457   6.156   7.564 -0.8534 -0.9704 -1.1795
  277MOL0     H38159  11.584   6.035   7.695 -1.1442  0.4178  4.5089
  277MOL0     H38160  11.617   6.200   7.739 -1.5904 -0.7245  0.0575
  277MOL0     H38161  11.698   5.987   7.868 -2.6093  0.3873 -2.1530
  277MOL0     H38162  11.847   6.003   7.783  1.5051  0.8030  0.4303
  277MOL0     H38163  11.892   6.150   7.963 -0.1221  1.1556  1.4847
  277MOL0     H38164  11.815   6.271   7.876  0.1809 -0.6147 -0.8934
  277MOL0     H38165  11.601   6.248   7.990 -0.2200  1.2266  0.3909
  277MOL0     H38166  11.644   6.099   8.064  0.3527  1.3090  1.4216
  277MOL0     H38167  11.792   6.372   8.080 -3.6095  1.3114 -0.8003
  277MOL0     H38168  11.838   6.238   8.177  0.7623  2.8188  0.4826
  277MOL0     H38169  11.615   6.225   8.296  0.3129  1.5729  4.3334
  277MOL0     H38170  11.705   6.375   8.324  1.0147 -1.8911  1.6981
  277MOL0     H38171  11.477   6.346   8.116  0.3840  1.7790 -0.5047
  277MOL0     H38172  11.567   6.486   8.155 -0.0809 -0.8480 -0.9752
  277MOL0     H38173  11.483   6.482   8.395  0.0907  2.2541 -1.2671
  277MOL0     H38174  11.355   6.515   8.277 -1.4460 -2.5199 -0.9721
  277MOL0     H38175  11.208   6.307   8.174  2.8138  1.0515 -0.9817
  277MOL0     H38176  11.100   5.983   8.313  3.4177 -0.0527  0.9168
  277MOL0     H38177  11.071   6.076   8.178 -0.8732 -1.8521  0.6488
  277MOL0     H38178  10.957   6.195   8.437  0.8050 -1.7739  1.0436
  277MOL0     H38179  10.883   6.195   8.283  0.9215 -1.6210 -1.4583
  277MOL0     H38180  10.863   5.942   8.278 -2.1849 -0.4762  1.1514
  277MOL0     H38181  10.873   5.948   8.454 -3.3907 -1.8037 -0.0217
  277MOL0     H38182  10.674   6.112   8.288 -4.6837  0.4997  1.9891
  277MOL0     H38183  10.649   5.952   8.380 -2.7720  0.9484  4.3236
  277MOL0     H38184  10.469   6.118   8.330 -0.1245  1.3413 -0.5418
  277MOL0     H38185  10.251   6.319   8.250 -2.4464  0.7022 -0.2338
  277MOL0     H38186  10.146   6.283   8.375  1.9348  2.5538  2.3419
  277MOL0     H38187  10.232   6.147   8.308  3.6372 -0.1108  0.4895
  277MOL0     H38188   9.956   6.371   8.704  2.7890 -1.4272  1.9166
  277MOL0     H38189   9.752   6.510   8.777 -0.4541 -1.6574  0.7981
  277MOL0     H38190   9.622   6.678   8.796  1.5880 -0.0746  0.2226
  277MOL0     H38191   9.615   6.656   8.976 -2.0158  0.7810  0.9773
  277MOL0     H38192   9.539   6.905   8.817  0.6743  1.8905  2.0125
  277MOL0     H38193   9.444   6.784   8.909  0.8222 -1.8317  0.3978
  277MOL0     H38194   9.655   6.992   8.994 -1.8961  2.9379  0.4198
  277MOL0     H38195   9.592   6.860   9.104 -1.6414 -0.9140 -0.0869
  277MOL0     H38196   9.368   6.959   9.100 -1.1109 -1.0698 -5.1277
  277MOL0     H38197   9.452   7.085   8.999  1.0140  1.5598  1.9150
  277MOL0     H38198   9.529   7.023   9.294 -0.7263 -1.8606 -2.0416
  277MOL0     H38199   9.623   7.123   9.179  0.2430  0.1684  0.9772
  277MOL0     H38200   9.329   7.170   9.250 -1.1304  1.8661  0.5828
  277MOL0     H38201   9.428   7.273   9.150  0.2204  1.6879  1.0385
  277MOL0     H38202   9.561   7.354   9.340 -0.2435 -0.0158 -0.1776
  277MOL0     H38203   9.496   7.228   9.447  0.1005  1.4804  0.8145
  277MOL0     H38204   9.271   7.343   9.389  0.5144  0.3587 -0.4946
  277MOL0     H38205   9.372   7.469   9.324  1.2823 -0.6163 -1.0082
  277MOL0     H38206  10.026   6.821   8.880  1.1164  0.7735 -2.5434
  277MOL0     H38207  10.214   6.675   8.788  0.5347  0.7632  1.4083
  277MOL0     H38208  10.453   6.385   8.741  0.0260  0.3337 -0.8751
  277MOL0     H38209  10.649   6.262   8.682 -0.0618  0.0126 -0.3889
  277MOL0     H38210  11.838   6.230   7.355  0.2768 -0.7801 -1.2945
  277MOL0     H38211  11.714   6.305   7.152 -1.2009  2.6330 -0.5754
  277MOL0     H38212  11.428   6.553   6.985 -1.2667 -1.2926 -0.2965
  277MOL0     H38213  11.273   6.763   6.984 -3.7581  1.7607  0.5048
  277MOL0     H38214  10.848   6.706   6.989 -2.4095  2.5517 -0.2780
  277MOL0     H38215  10.861   6.708   7.162 -1.5301  2.0503  1.1474
  277MOL0     H38216  10.720   6.878   7.076 -0.7228  0.7564 -0.1536
  277MOL0     H38217  10.847   6.952   6.981 -0.1874 -0.1493  0.4960
  277MOL0     H38218  10.796   6.949   7.277  1.5459  0.6637  1.1053
  277MOL0     H38219  10.961   6.962   7.226  0.4283  0.7943 -1.4791
  277MOL0     H38220  10.749   7.159   7.128  0.5842 -0.9018 -0.0254
  277MOL0     H38221  10.926   7.169   7.109 -0.0281 -2.3729 -1.2491
  277MOL0     H38222  10.804   7.273   7.523 -0.1856  0.9815  0.0462
  277MOL0     H38223  10.942   6.516   7.064 -0.6661 -2.0050 -3.1694
  277MOL0     H38224  10.950   6.289   7.052 -0.3942  2.1840  2.0574
  277MOL0     H38225  11.093   6.204   6.995 -0.0632  2.1551 -1.2148
  277MOL0     H38226  11.069   6.226   7.165 -3.2992 -1.0938  0.4030
  278MOL0     O38227   5.231   4.557  10.406 -0.1793  0.4375  0.6099
  278MOL0     C38228   5.114   4.568  10.433 -0.2481  0.3423  0.9382
  278MOL0     O38229   5.040   4.688  10.414 -0.0167  0.3575  0.1444
  278MOL0     C38230   5.107   4.799  10.367  0.6284 -0.4229 -0.2801
  278MOL0     C38231   5.192   4.797  10.256  0.7546 -0.5467  0.1615
  278MOL0     C38232   5.250   4.914  10.211  0.2500 -0.3435  0.1891
  278MOL0     C38233   5.211   5.037  10.270  0.2931 -0.3003  0.0399
  278MOL0     O38234   5.249   5.155  10.207 -0.3207 -0.0424 -0.7768
  278MOL0     C38235   5.271   5.262  10.298 -0.3784 -0.5992  0.1781
  278MOL0     C38236   5.379   5.342  10.228 -0.0104  0.7128 -0.5413
  278MOL0     C38237   5.393   5.486  10.283 -0.0438  0.4853  0.8056
  278MOL0     C38238   5.420   5.577  10.160  1.1391  0.2379 -0.4357
  278MOL0     C38239   5.295   5.611  10.078 -0.5875  0.4237 -0.5615
  278MOL0     C38240   5.316   5.698   9.954 -0.2756 -0.3917  0.0384
  278MOL0     C38241   5.432   5.642   9.869  0.1090 -0.3135  0.7519
  278MOL0     C38242   5.430   5.675   9.718  0.4878 -0.3476  0.8505
  278MOL0     N38243   5.547   5.613   9.650  0.4255 -0.1424 -0.2426
  278MOL0     C38244   5.565   5.472   9.652  0.1882 -0.0902  0.8520
  278MOL0     C38245   5.684   5.456   9.587  1.0445 -1.1154 -0.7220
  278MOL0     C38246   5.744   5.314   9.555 -0.4292 -0.3867  0.3076
  278MOL0     C38247   5.655   5.196   9.501  0.1063 -0.3767 -0.6693
  278MOL0     C38248   5.722   5.060   9.528  0.1961 -1.2817  0.0157
  278MOL0     C38249   5.841   5.051   9.432  0.0298  0.1603 -0.3077
  278MOL0     O38250   5.958   5.110   9.496 -0.0521 -0.7506 -0.5611
  278MOL0     C38251   6.043   5.175   9.413 -0.6517 -0.4214  0.0796
  278MOL0     C38252   6.090   5.125   9.293 -0.0094 -0.9516  0.2674
  278MOL0     C38253   6.172   5.194   9.197  0.5214 -0.7765 -0.2448
  278MOL0     C38254   6.212   5.141   9.070 -0.3230  0.4921 -0.3941
  278MOL0     C38255   6.213   5.328   9.243 -0.0419 -0.5767 -0.6906
  278MOL0     C38256   6.287   5.427   9.152 -0.0074  0.1192  0.2014
  278MOL0     O38257   6.322   5.396   9.021 -0.2562  0.2814 -0.5401
  278MOL0     C38258   6.420   5.467   8.961  0.0649 -0.8968 -0.0634
  278MOL0     C38259   6.535   5.394   8.938 -0.6120 -0.4954 -0.3990
  278MOL0     C38260   6.637   5.447   8.861 -0.1015 -0.1539  0.0613
  278MOL0     C38261   6.632   5.575   8.820  0.0697 -0.1756  0.6261
  278MOL0     O38262   6.750   5.629   8.760 -0.0892 -0.0226  0.2521
  278MOL0     C38263   6.752   5.774   8.735  0.0354  0.1800 -0.7694
  278MOL0     C38264   6.896   5.818   8.706  0.4111 -0.3241  0.2890
  278MOL0     C38265   6.999   5.741   8.793 -0.1129  0.5739 -0.6918
  278MOL0     C38266   7.152   5.764   8.752 -0.0352 -0.3104  0.2312
  278MOL0     C38267   7.248   5.669   8.830  0.8536  0.5700  0.4825
  278MOL0     C38268   7.392   5.699   8.793  0.0759  0.1139  0.0333
  278MOL0     C38269   7.500   5.617   8.859 -0.9316  0.0478 -0.3589
  278MOL0     C38270   7.633   5.626   8.785  0.1262 -1.1171  0.0281
  278MOL0    Cl38271   7.754   5.528   8.859  0.7107 -0.1070 -0.4771
  278MOL0     C38272   6.513   5.648   8.840  0.0368 -0.0348  0.1922
  278MOL0     C38273   6.413   5.596   8.911  0.6392  0.2256  0.2145
  278MOL0     O38274   6.342   5.515   9.215  0.2444  0.1732  0.3452
  278MOL0     C38275   6.173   5.367   9.373  0.7446  0.3042  1.0288
  278MOL0     C38276   6.086   5.297   9.459 -0.2208 -0.5106 -0.4953
  278MOL0     N38277   5.740   5.578   9.564  0.2185 -0.0532 -0.5078
  278MOL0     N38278   5.648   5.676   9.588 -1.7368 -0.0166 -0.1475
  278MOL0     C38279   5.124   5.042  10.386  0.1033  0.2568 -0.3193
  278MOL0     C38280   5.084   4.921  10.441 -0.3676  0.1114  0.0419
  278MOL0     C38281   5.042   4.457  10.492 -0.4702  0.5452 -1.1121
  278MOL0     C38282   4.907   4.465  10.498  0.7263 -0.4103  0.9776
  278MOL0     C38283   4.829   4.361  10.541  0.6008 -0.3165 -0.3802
  278MOL0     C38284   4.880   4.236  10.577  0.2305  0.0233  0.2667
  278MOL0     O38285   4.803   4.127  10.605 -0.0153 -0.2950  0.6495
  278MOL0     C38286   4.663   4.143  10.644  0.0353 -0.0922  0.6710
  278MOL0     C38287   4.641   4.227  10.780 -0.2459 -0.2116  1.2895
  278MOL0     C38288   4.681   4.148  10.903  0.5610  0.2369  0.3361
  278MOL0     C38289   4.645   4.210  11.043 -1.7385  0.3462 -0.7390
  278MOL0     C38290   4.507   4.230  11.043  0.5383 -0.7911  0.2574
  278MOL0     C38291   4.390   4.250  11.051 -0.0263 -0.2200  0.0558
  278MOL0     C38292   5.022   4.227  10.575 -0.4280 -0.1106  0.4664
  278MOL0     C38293   5.108   4.334  10.546  0.2808  0.4732  0.4288
  278MOL0     C38294   5.258   4.307  10.555  0.3487 -0.2294  0.7710
  278MOL0     H38295   5.219   4.702  10.211  1.7695 -1.7528  3.0707
  278MOL0     H38296   5.325   4.907  10.133  0.4396 -1.7451  0.4616
  278MOL0     H38297   5.309   5.235  10.397 -0.6822  0.7034  0.6684
  278MOL0     H38298   5.177   5.318  10.308 -1.3201 -2.2682  1.1777
  278MOL0     H38299   5.477   5.303  10.257 -0.7762 -2.0652 -1.4042
  278MOL0     H38300   5.381   5.334  10.119  2.5398  0.9570 -0.5785
  278MOL0     H38301   5.303   5.499  10.345 -0.5084 -2.9780  1.0537
  278MOL0     H38302   5.473   5.494  10.356  0.3923  0.1362  0.3692
  278MOL0     H38303   5.461   5.676  10.184 -1.4277  1.4292 -0.5581
  278MOL0     H38304   5.493   5.529  10.094 -2.1030 -5.1756 -0.6507
  278MOL0     H38305   5.235   5.677  10.142  0.3496  1.9470 -1.1952
  278MOL0     H38306   5.245   5.517  10.052  2.3656 -1.3886 -0.1400
  278MOL0     H38307   5.224   5.691   9.894 -0.2159 -5.2778  0.1441
  278MOL0     H38308   5.340   5.801   9.983 -1.4407  0.3182 -1.3848
  278MOL0     H38309   5.428   5.532   9.869 -0.0229 -0.3111  0.4127
  278MOL0     H38310   5.525   5.683   9.909 -0.1185  2.1863 -1.0473
  278MOL0     H38311   5.335   5.633   9.684  0.9801 -0.8650  0.0838
  278MOL0     H38312   5.430   5.782   9.698  1.3218 -0.4938 -0.0195
  278MOL0     H38313   5.507   5.399   9.707 -0.2964 -0.9183 -0.7089
  278MOL0     H38314   5.802   5.282   9.641  0.6873  4.3287  1.6026
  278MOL0     H38315   5.826   5.341   9.488 -1.3631  2.4247  0.1552
  278MOL0     H38316   5.563   5.197   9.559 -1.0304  0.0290 -2.3933
  278MOL0     H38317   5.632   5.215   9.395 -0.1592  0.7013 -0.4282
  278MOL0     H38318   5.750   5.054   9.634 -0.2866 -2.4567  0.0937
  278MOL0     H38319   5.665   4.967   9.518  0.5221 -1.4837  0.0366
  278MOL0     H38320   5.865   4.948   9.404  0.7963  0.7494 -1.9396
  278MOL0     H38321   5.823   5.106   9.340  2.0354 -0.8858 -1.4085
  278MOL0     H38322   6.057   5.027   9.259  1.4518 -0.7214 -2.0178
  278MOL0     H38323   6.177   5.038   9.070 -2.2955  1.1195 -0.7895
  278MOL0     H38324   6.322   5.144   9.064 -0.3393 -0.3574 -1.2440
  278MOL0     H38325   6.170   5.190   8.982 -0.7317  1.8402  0.5259
  278MOL0     H38326   6.529   5.293   8.978 -1.6703  0.3280  1.6622
  278MOL0     H38327   6.715   5.384   8.820 -0.7313 -1.4263  0.7258
  278MOL0     H38328   6.691   5.804   8.648 -3.6466  0.8017  1.7836
  278MOL0     H38329   6.724   5.833   8.822  1.5481  2.2584 -1.6054
  278MOL0     H38330   6.912   5.813   8.598 -0.9332 -1.3140  0.1180
  278MOL0     H38331   6.911   5.925   8.723 -1.0132  0.3433 -2.2167
  278MOL0     H38332   6.982   5.635   8.774  2.7854  0.1254 -1.2193
  278MOL0     H38333   6.972   5.766   8.896 -3.4537 -2.2583 -0.7234
  278MOL0     H38334   7.175   5.870   8.766  1.7238 -0.5002 -0.8914
  278MOL0     H38335   7.155   5.748   8.644 -2.9623 -0.3966  0.0788
  278MOL0     H38336   7.235   5.686   8.937  0.7418 -2.5422  1.0537
  278MOL0     H38337   7.222   5.569   8.794  0.4180  1.2441 -1.1474
  278MOL0     H38338   7.416   5.802   8.818  0.4578 -0.3831  1.9004
  278MOL0     H38339   7.394   5.678   8.685  3.4807  0.8383 -0.1691
  278MOL0     H38340   7.471   5.512   8.861  2.4908 -1.0112 -0.1008
  278MOL0     H38341   7.503   5.648   8.964 -0.4443  0.9417 -0.6252
  278MOL0     H38342   7.678   5.726   8.784 -0.8794 -0.6500 -1.6824
  278MOL0     H38343   7.625   5.583   8.685  0.1362 -0.5832 -0.2058
  278MOL0     H38344   6.508   5.750   8.801 -2.0016 -0.3190 -0.4083
  278MOL0     H38345   6.320   5.653   8.915  0.3793 -0.0612 -1.1481
  278MOL0     H38346   6.194   5.468   9.409  2.7679 -0.0434  0.9399
  278MOL0     H38347   6.052   5.317   9.559 -0.7565 -1.0004 -0.5742
  278MOL0     H38348   5.098   5.138  10.430 -0.6789  0.9166 -2.1032
  278MOL0     H38349   5.023   4.917  10.531 -1.9438 -1.1110 -1.0328
  278MOL0     H38350   4.846   4.552  10.474 -0.0213 -1.9182 -3.5468
  278MOL0     H38351   4.721   4.371  10.545  0.4470 -2.0476  2.0978
  278MOL0     H38352   4.609   4.182  10.557 -1.8121 -1.6137  1.0750
  278MOL0     H38353   4.624   4.041  10.648  1.8853 -0.9027 -0.4464
  278MOL0     H38354   4.535   4.255  10.773 -0.0066  0.1978 -2.2510
  278MOL0     H38355   4.692   4.323  10.786 -1.0907  0.4669 -1.2989
  278MOL0     H38356   4.643   4.045  10.901  2.9162 -0.7049 -2.0182
  278MOL0     H38357   4.787   4.121  10.903  0.5757  0.2909  0.1064
  278MOL0     H38358   4.700   4.305  11.042  0.1253 -0.6805 -2.2979
  278MOL0     H38359   4.680   4.153  11.129  0.0827  1.2865 -0.8023
  278MOL0     H38360   4.287   4.271  11.070 -0.2142 -1.1606  0.1057
  278MOL0     H38361   5.073   4.135  10.601  2.1587  0.7320 -1.2359
  278MOL0     H38362   5.279   4.200  10.565 -0.7568 -0.5254  0.1379
  278MOL0     H38363   5.310   4.341  10.465 -0.6151  0.5560  0.4883
  278MOL0     H38364   5.316   4.358  10.632  0.8728  0.0680  0.1918
  279MOL0     O38365   2.337   7.393   2.398  0.5148 -0.7320  0.6004
  279MOL0     C38366   2.417   7.310   2.422  0.8577 -0.0591 -0.9202
  279MOL0     O38367   2.457   7.203   2.341 -0.3385 -0.4498 -0.7877
  279MOL0     C38368   2.390   7.205   2.223  0.7950  0.3029  0.2714
  279MOL0     C38369   2.272   7.147   2.212 -0.0395 -0.1919 -0.4235
  279MOL0     C38370   2.213   7.140   2.085  0.0354  1.1260  1.1997
  279MOL0     C38371   2.278   7.184   1.965 -0.2470 -0.5267  0.5944
  279MOL0     O38372   2.246   7.157   1.833 -0.0373  0.7947  0.0605
  279MOL0     C38373   2.171   7.040   1.812  0.2826 -0.3707 -0.4974
  279MOL0     C38374   2.148   7.044   1.661  1.0125  0.3377 -0.1050
  279MOL0     C38375   2.009   6.991   1.615 -0.1310  0.3378 -0.1816
  279MOL0     C38376   2.008   6.838   1.626  0.2124  0.2772 -0.0367
  279MOL0     C38377   1.897   6.767   1.541  0.3100 -0.8469 -0.0712
  279MOL0     C38378   1.910   6.613   1.541 -0.6076  0.0498 -0.9877
  279MOL0     C38379   1.916   6.536   1.686  0.1666 -1.0352 -0.5752
  279MOL0     C38380   1.789   6.551   1.761 -0.1162 -0.0090  0.2875
  279MOL0     N38381   1.795   6.511   1.901 -0.7375 -0.6623  1.3198
  279MOL0     C38382   1.894   6.540   1.990  0.4735 -0.0884  0.2682
  279MOL0     C38383   1.860   6.462   2.100  0.1941 -0.7596  0.2940
  279MOL0     C38384   1.950   6.460   2.216  0.1591  0.4332 -0.7656
  279MOL0     C38385   2.078   6.383   2.176  0.4003  0.4794 -0.2936
  279MOL0     C38386   2.211   6.449   2.230 -0.4335 -0.1244 -0.1375
  279MOL0     C38387   2.244   6.578   2.152  0.1612  0.9887  0.1849
  279MOL0     O38388   2.324   6.556   2.038 -0.4686  0.4476  0.1346
  279MOL0     C38389   2.406   6.664   2.003 -0.8470  0.2316  0.5981
  279MOL0     C38390   2.519   6.626   1.933 -0.3850 -0.2893  0.1636
  279MOL0     C38391   2.617   6.716   1.902  0.4635 -0.0092 -0.2845
  279MOL0     C38392   2.736   6.666   1.824 -0.1107  0.5398  0.4379
  279MOL0     C38393   2.591   6.852   1.931  0.5316  0.0140  0.3892
  279MOL0     C38394   2.696   6.957   1.908  0.6201 -0.5977  0.1320
  279MOL0     O38395   2.644   7.078   1.853  0.2862  0.2799  0.1994
  279MOL0     C38396   2.711   7.197   1.835 -0.8676  0.1335 -0.6821
  279MOL0     C38397   2.654   7.298   1.756  0.4365  0.7081  0.6985
  279MOL0     C38398   2.704   7.423   1.746 -0.5854  0.3430  0.5857
  279MOL0     C38399   2.808   7.464   1.824 -1.1267  0.1752  0.3201
  279MOL0     O38400   2.857   7.587   1.803  0.2149 -0.0857 -0.3542
  279MOL0     C38401   2.952   7.635   1.897 -0.6863  0.3368  0.2412
  279MOL0     C38402   2.922   7.786   1.931  0.0237 -0.1793 -0.0456
  279MOL0     C38403   2.817   7.788   2.049 -0.4368 -0.1197  0.0792
  279MOL0     C38404   2.679   7.735   2.010  0.5465 -0.1364  0.1075
  279MOL0     C38405   2.568   7.764   2.109  0.2495  0.2789 -1.0622
  279MOL0     C38406   2.435   7.688   2.079  0.1167  0.1871  0.1108
  279MOL0     C38407   2.332   7.702   2.179  1.2136 -0.5528  0.1127
  279MOL0     C38408   2.217   7.610   2.160 -0.8838  0.3937  0.7619
  279MOL0    Cl38409   2.130   7.650   2.010  0.8344  0.0587  0.2047
  279MOL0     C38410   2.875   7.369   1.899 -0.2037 -0.7586  0.2748
  279MOL0     C38411   2.828   7.237   1.903 -0.4510 -0.2195 -0.1177
  279MOL0     O38412   2.804   6.939   1.955  0.2689 -0.3160 -0.5454
  279MOL0     C38413   2.471   6.886   1.995 -0.6314  0.0091  0.4087
  279MOL0     C38414   2.381   6.799   2.028  1.3564  1.2040 -0.2961
  279MOL0     N38415   1.755   6.379   2.066  0.0716  0.3081  0.7975
  279MOL0     N38416   1.715   6.409   1.942  0.3943  0.0679 -0.1688
  279MOL0     C38417   2.385   7.260   1.987  0.4479 -0.1393  0.1735
  279MOL0     C38418   2.451   7.263   2.113 -0.3523  0.4784 -0.9579
  279MOL0     C38419   2.489   7.318   2.545 -0.9224  0.7790 -0.0610
  279MOL0     C38420   2.563   7.199   2.585 -0.6647 -0.5867  0.1432
  279MOL0     C38421   2.634   7.184   2.705  0.0102  0.2850 -0.2707
  279MOL0     C38422   2.643   7.292   2.795 -0.4685 -0.4819 -0.1848
  279MOL0     O38423   2.728   7.274   2.906 -1.0261  0.3304  0.2834
  279MOL0     C38424   2.732   7.382   2.996  0.1554  0.0179 -0.8523
  279MOL0     C38425   2.868   7.386   3.072  0.2883  0.5167 -0.9621
  279MOL0     C38426   2.979   7.435   2.975 -1.0688  0.0320  0.2777
  279MOL0     C38427   3.112   7.447   3.043  0.3859 -0.6159  0.0737
  279MOL0     C38428   3.181   7.318   3.081  0.5902 -0.3729  0.2610
  279MOL0     C38429   3.239   7.216   3.108  1.0672 -0.2934 -0.9137
  279MOL0     C38430   2.573   7.410   2.764  0.2848  0.6481 -0.3266
  279MOL0     C38431   2.490   7.417   2.645  0.3079 -1.1595  0.1502
  279MOL0     C38432   2.404   7.542   2.632  0.2258  0.2974 -0.1771
  279MOL0     H38433   2.220   7.125   2.304 -0.1946 -1.9118 -0.8786
  279MOL0     H38434   2.116   7.098   2.062  1.6462 -0.6846 -3.4962
  279MOL0     H38435   2.074   7.047   1.863  0.0927 -0.1734 -0.8802
  279MOL0     H38436   2.221   6.946   1.835  1.7916  0.0535 -1.8592
  279MOL0     H38437   2.154   7.147   1.625  3.0085 -0.2169 -1.4738
  279MOL0     H38438   2.230   6.983   1.624 -1.1303 -3.8866  1.4007
  279MOL0     H38439   1.927   7.031   1.675 -0.1313 -0.6701  0.5287
  279MOL0     H38440   2.013   7.019   1.510  4.2522  0.0427 -0.2969
  279MOL0     H38441   2.111   6.806   1.608  0.9037  1.8496  0.8764
  279MOL0     H38442   1.981   6.823   1.731 -1.0341  3.3141  0.1886
  279MOL0     H38443   1.906   6.803   1.438 -0.0678  0.0958  0.2114
  279MOL0     H38444   1.793   6.795   1.563 -0.0742  0.4169 -2.9817
  279MOL0     H38445   1.832   6.568   1.479 -0.5354 -0.0364 -1.0152
  279MOL0     H38446   2.010   6.591   1.503 -0.9557 -3.4235 -0.2853
  279MOL0     H38447   2.002   6.575   1.742  1.2953 -1.1718 -2.1350
  279MOL0     H38448   1.931   6.430   1.665  2.7206 -1.1255  1.2026
  279MOL0     H38449   1.743   6.649   1.745 -0.9022 -0.7685 -3.0564
  279MOL0     H38450   1.721   6.479   1.713 -0.9556  0.2928  0.9826
  279MOL0     H38451   1.976   6.608   1.969  2.2286 -1.9651  0.8252
  279MOL0     H38452   1.901   6.421   2.306 -1.1415  4.3949  0.4466
  279MOL0     H38453   1.971   6.566   2.232 -2.5928  0.9155  0.0681
  279MOL0     H38454   2.073   6.288   2.230  2.0794  1.2241  1.2805
  279MOL0     H38455   2.083   6.358   2.069  0.6361 -0.4271 -0.0781
  279MOL0     H38456   2.202   6.470   2.337  2.9789 -2.0330  0.6903
  279MOL0     H38457   2.291   6.375   2.225  1.2829  1.6917 -1.0868
  279MOL0     H38458   2.149   6.618   2.114 -0.9368 -2.0372 -0.5600
  279MOL0     H38459   2.295   6.646   2.220  1.2523  1.7108 -1.2766
  279MOL0     H38460   2.530   6.525   1.895  1.6103  0.0136 -0.1755
  279MOL0     H38461   2.728   6.559   1.805  0.9660  0.6432 -0.7501
  279MOL0     H38462   2.833   6.691   1.868 -0.0825 -0.5075  1.0026
  279MOL0     H38463   2.744   6.719   1.729 -1.0723 -1.2972 -0.7246
  279MOL0     H38464   2.565   7.269   1.701  2.2848 -0.0435 -2.1478
  279MOL0     H38465   2.654   7.501   1.689 -0.3915 -2.2318 -3.5301
  279MOL0     H38466   2.946   7.584   1.994 -4.1559  0.9190  0.4667
  279MOL0     H38467   3.058   7.622   1.874 -0.9117 -1.0562 -0.0521
  279MOL0     H38468   3.011   7.837   1.968 -0.3936  0.9047 -0.5035
  279MOL0     H38469   2.881   7.840   1.845  2.7092 -0.1406 -1.4267
  279MOL0     H38470   2.804   7.887   2.093  0.8431 -0.5746  1.5741
  279MOL0     H38471   2.871   7.726   2.122  4.5977  0.7044 -2.4992
  279MOL0     H38472   2.683   7.627   1.990 -0.6562 -0.4483  1.3427
  279MOL0     H38473   2.642   7.774   1.914 -4.4686 -2.2285  0.8486
  279MOL0     H38474   2.598   7.741   2.212  0.8325 -1.7459 -1.6450
  279MOL0     H38475   2.545   7.871   2.108  0.2529  0.2914 -2.9397
  279MOL0     H38476   2.453   7.580   2.073  1.5131  0.4093 -0.0915
  279MOL0     H38477   2.411   7.713   1.975 -2.6423 -5.0912 -0.8859
  279MOL0     H38478   2.284   7.800   2.174 -0.6121 -1.3252  1.2629
  279MOL0     H38479   2.354   7.688   2.285  0.0682  1.4732  0.6657
  279MOL0     H38480   2.142   7.624   2.238 -2.0372  2.8206 -0.6484
  279MOL0     H38481   2.247   7.505   2.160 -2.2765 -0.0524  2.6546
  279MOL0     H38482   2.965   7.397   1.954 -0.6817  1.8498 -0.1268
  279MOL0     H38483   2.875   7.173   1.977 -2.2478 -1.0305  0.3833
  279MOL0     H38484   2.468   6.993   2.011 -0.7521 -0.0174  0.5698
  279MOL0     H38485   2.289   6.840   2.069  2.1240  1.3897  1.2964
  279MOL0     H38486   2.426   7.312   1.901 -1.7176  1.8478  0.2380
  279MOL0     H38487   2.552   7.305   2.113 -1.9221  4.7468 -1.3521
  279MOL0     H38488   2.568   7.120   2.510 -0.3896  2.3072 -3.1642
  279MOL0     H38489   2.691   7.094   2.730 -1.1540 -0.2083  0.6649
  279MOL0     H38490   2.734   7.479   2.947  2.2518 -0.3175 -1.5168
  279MOL0     H38491   2.644   7.363   3.059 -0.9105 -0.0735 -2.3088
  279MOL0     H38492   2.896   7.289   3.114 -0.6859  0.6632  0.0638
  279MOL0     H38493   2.854   7.461   3.150 -0.3395 -0.2015 -0.3724
  279MOL0     H38494   2.989   7.376   2.884  2.1671 -0.4039  0.7992
  279MOL0     H38495   2.952   7.534   2.938 -1.7261  0.6165  2.1634
  279MOL0     H38496   3.102   7.519   3.125 -1.0985  0.8625 -1.3327
  279MOL0     H38497   3.189   7.491   2.979 -0.6740  1.7770  0.3179
  279MOL0     H38498   3.279   7.123   3.143 -2.2649 -1.1769  1.0448
  279MOL0     H38499   2.562   7.493   2.834 -2.1777  0.7497 -0.7192
  279MOL0     H38500   2.426   7.608   2.547  1.8685  0.0507  0.0268
  279MOL0     H38501   2.304   7.502   2.612  0.2828 -1.3128  2.3089
  279MOL0     H38502   2.396   7.592   2.729  2.5309 -0.0145  0.2179
  280MOL0     O38503   6.416   1.871   8.433 -0.0943 -0.4008 -0.2453
  280MOL0     C38504   6.482   1.944   8.508 -0.2869 -0.3797  0.1533
  280MOL0     O38505   6.426   2.023   8.619 -0.0440  0.3177  0.8327
  280MOL0     C38506   6.509   2.126   8.665  0.0986 -0.0234  0.2090
  280MOL0     C38507   6.576   2.222   8.597  0.5892  0.2499  0.8001
  280MOL0     C38508   6.635   2.336   8.654 -0.9976  0.0707 -0.6406
  280MOL0     C38509   6.633   2.348   8.797  0.6462  0.3883 -0.3566
  280MOL0     O38510   6.679   2.463   8.853 -0.2855  0.3267 -1.1150
  280MOL0     C38511   6.590   2.576   8.839  0.9038  0.4663  0.2102
  280MOL0     C38512   6.591   2.681   8.957 -0.6739  0.4382 -0.4062
  280MOL0     C38513   6.744   2.724   8.961  0.3246  0.8704  0.3633
  280MOL0     C38514   6.756   2.862   9.036  0.0918  0.3754  0.2810
  280MOL0     C38515   6.890   2.933   9.036 -0.0789 -0.2635  0.3599
  280MOL0     C38516   7.003   2.840   9.103  0.4351  0.8988  0.2258
  280MOL0     C38517   7.141   2.909   9.105  0.0741  0.1410 -0.8142
  280MOL0     C38518   7.243   2.817   9.156 -0.2441  0.6583 -0.4381
  280MOL0     N38519   7.382   2.866   9.137 -0.1262 -0.8422 -0.4212
  280MOL0     C38520   7.438   2.914   9.013  0.4177 -0.0906 -0.1479
  280MOL0     C38521   7.572   2.918   9.041  0.3942  0.5918  0.3349
  280MOL0     C38522   7.678   2.949   8.937  0.0017  0.0614  0.4415
  280MOL0     C38523   7.702   2.835   8.830 -0.3363  0.0607  0.5029
  280MOL0     C38524   7.841   2.797   8.784  0.1516  0.5880 -0.4363
  280MOL0     C38525   7.836   2.669   8.702  0.8142  0.1601 -0.5790
  280MOL0     O38526   7.965   2.633   8.669  0.1160 -0.2536  0.9437
  280MOL0     C38527   7.988   2.517   8.598 -0.3696 -0.5746 -0.3664
  280MOL0     C38528   7.900   2.419   8.557 -0.5195  0.3842  0.8929
  280MOL0     C38529   7.945   2.291   8.519  0.7056 -1.2450  0.4268
  280MOL0     C38530   7.831   2.201   8.481  0.3372 -0.0657  0.1941
  280MOL0     C38531   8.084   2.261   8.513  0.0780 -0.3983  1.0904
  280MOL0     C38532   8.135   2.140   8.446  0.1677 -0.4873  0.6798
  280MOL0     O38533   8.048   2.055   8.371 -1.0249  0.3272 -0.0199
  280MOL0     C38534   8.109   1.961   8.284  0.4648 -0.5763 -0.0775
  280MOL0     C38535   8.230   1.988   8.217 -0.0632 -0.3349  0.0793
  280MOL0     C38536   8.280   1.894   8.137 -0.5001 -0.3583 -0.3772
  280MOL0     C38537   8.239   1.766   8.139 -0.1014  0.2410  0.2705
  280MOL0     O38538   8.312   1.664   8.083 -0.4353 -1.0663  0.2438
  280MOL0     C38539   8.270   1.529   8.102  0.5290  0.7171 -0.4892
  280MOL0     C38540   8.354   1.424   8.043  0.4818 -0.1167 -0.4058
  280MOL0     C38541   8.296   1.272   8.061 -0.2432 -0.0314 -0.7863
  280MOL0     C38542   8.149   1.265   8.026  0.3301  0.5271  0.6857
  280MOL0     C38543   8.093   1.318   7.890  0.3045  0.1636  0.0040
  280MOL0     C38544   7.934   1.334   7.898 -0.1782  0.8194 -0.1986
  280MOL0     C38545   7.858   1.199   7.907  0.0009 -0.1653  0.5141
  280MOL0     C38546   7.707   1.222   7.914 -0.2377 -0.1469  0.4546
  280MOL0    Cl38547   7.615   1.079   7.848  0.2216  0.3249  0.3538
  280MOL0     C38548   8.121   1.732   8.207  0.1483 -0.3837 -0.0997
  280MOL0     C38549   8.056   1.833   8.283  0.3366  0.3053  0.1491
  280MOL0     O38550   8.247   2.114   8.473  0.0628 -0.0828 -0.5685
  280MOL0     C38551   8.170   2.357   8.563 -0.4118  0.3624  0.1709
  280MOL0     C38552   8.128   2.486   8.600 -0.0285  1.0367 -0.6922
  280MOL0     N38553   7.591   2.880   9.178 -0.4272 -0.5897  0.3864
  280MOL0     N38554   7.482   2.850   9.231 -0.2482  0.9399  0.8754
  280MOL0     C38555   6.563   2.252   8.870  0.1592  1.0343 -0.1065
  280MOL0     C38556   6.503   2.145   8.806  0.2697 -0.3255  0.0725
  280MOL0     C38557   6.630   1.933   8.497 -0.2897 -0.0316  0.1186
  280MOL0     C38558   6.709   1.899   8.613 -0.0579 -0.3851  0.3485
  280MOL0     C38559   6.850   1.890   8.609  0.7815  0.0399  0.4450
  280MOL0     C38560   6.914   1.902   8.489  1.1855  0.1285  0.0120
  280MOL0     O38561   7.053   1.890   8.485  0.2670  0.0057 -1.0029
  280MOL0     C38562   7.097   1.798   8.385  0.2425 -0.3764  0.0272
  280MOL0     C38563   7.059   1.652   8.424 -0.4541 -0.6053  0.2291
  280MOL0     C38564   7.158   1.550   8.361  0.0746  0.1323 -0.0479
  280MOL0     C38565   7.292   1.535   8.431 -0.1220  0.5758 -0.4903
  280MOL0     C38566   7.284   1.512   8.572 -0.2687 -0.6416 -0.6853
  280MOL0     C38567   7.273   1.494   8.690 -1.4060 -0.0085 -0.4818
  280MOL0     C38568   6.839   1.955   8.376 -0.5009 -0.2460 -0.6923
  280MOL0     C38569   6.701   1.967   8.374 -0.0822 -0.2618  0.9571
  280MOL0     C38570   6.641   2.021   8.246 -0.1232  0.2821  0.8018
  280MOL0     H38571   6.572   2.200   8.491 -2.8537  0.6259  0.7463
  280MOL0     H38572   6.690   2.403   8.589  1.3225 -0.6921  0.4356
  280MOL0     H38573   6.484   2.553   8.827  0.5875  2.3505 -1.1157
  280MOL0     H38574   6.618   2.625   8.745 -0.6954 -0.5353 -0.8420
  280MOL0     H38575   6.530   2.767   8.930  0.3077  0.8583 -1.3473
  280MOL0     H38576   6.552   2.641   9.051  2.6711 -0.8071  0.6063
  280MOL0     H38577   6.801   2.643   9.007 -2.7299  0.1071  3.2312
  280MOL0     H38578   6.785   2.745   8.862 -1.9367  2.1102 -0.3971
  280MOL0     H38579   6.690   2.944   9.007  0.2975  1.8712  3.6018
  280MOL0     H38580   6.733   2.844   9.142 -3.2794 -0.6828 -0.4938
  280MOL0     H38581   6.889   3.024   9.096  1.0571 -0.6501  1.0152
  280MOL0     H38582   6.920   2.961   8.935 -2.0831 -2.9748 -1.1176
  280MOL0     H38583   6.982   2.810   9.206  1.7835  2.5475  1.0359
  280MOL0     H38584   6.998   2.747   9.047 -2.6059  0.1796  1.4816
  280MOL0     H38585   7.145   2.991   9.178  0.1251  0.4769 -1.1914
  280MOL0     H38586   7.166   2.951   9.007  2.6055 -0.5505 -0.5590
  280MOL0     H38587   7.233   2.807   9.264  0.1006  1.9945 -0.2668
  280MOL0     H38588   7.233   2.719   9.109 -0.3707  1.4489 -2.1684
  280MOL0     H38589   7.398   2.947   8.917  4.7438  1.2588 -1.7266
  280MOL0     H38590   7.770   2.965   8.993 -0.6440 -1.8355  2.1395
  280MOL0     H38591   7.648   3.040   8.884  0.6621 -0.8726 -1.6675
  280MOL0     H38592   7.651   2.745   8.867  1.3436 -0.8254  0.7279
  280MOL0     H38593   7.646   2.874   8.744 -1.1512 -0.9382  0.5532
  280MOL0     H38594   7.905   2.873   8.738  2.9690 -1.4788 -0.1800
  280MOL0     H38595   7.891   2.768   8.877  1.0159 -2.0023 -1.6152
  280MOL0     H38596   7.797   2.589   8.766  0.5687  1.8449  1.4735
  280MOL0     H38597   7.778   2.681   8.610  1.7474  0.7853 -1.0896
  280MOL0     H38598   7.796   2.448   8.556 -1.0868 -1.4411  2.1222
  280MOL0     H38599   7.855   2.096   8.496  2.4653  0.4039  0.3898
  280MOL0     H38600   7.801   2.216   8.377  1.3123 -0.0429 -0.0970
  280MOL0     H38601   7.742   2.234   8.536  0.8372  1.7396 -0.0168
  280MOL0     H38602   8.273   2.087   8.232  1.2715 -0.6228 -1.5582
  280MOL0     H38603   8.383   1.909   8.107 -0.2530  1.7014  1.2801
  280MOL0     H38604   8.265   1.510   8.210 -1.6574  0.3433 -0.6137
  280MOL0     H38605   8.169   1.526   8.059 -0.6191 -0.4631  2.0913
  280MOL0     H38606   8.361   1.440   7.935  0.1467  0.3820 -0.3596
  280MOL0     H38607   8.450   1.421   8.093 -1.6127 -1.9349  4.0141
  280MOL0     H38608   8.309   1.244   8.167 -2.3161  2.3847  0.2147
  280MOL0     H38609   8.359   1.207   8.000  2.0843 -1.0292  2.3972
  280MOL0     H38610   8.092   1.320   8.102  1.7905  1.2996  1.2422
  280MOL0     H38611   8.118   1.160   8.035 -2.0828  1.2057  1.1972
  280MOL0     H38612   8.129   1.420   7.879  1.9260 -0.5812 -2.1331
  280MOL0     H38613   8.127   1.259   7.805 -0.9686 -0.6850  0.0598
  280MOL0     H38614   7.894   1.372   7.804 -0.7297 -2.9045 -1.6211
  280MOL0     H38615   7.909   1.381   7.994 -0.0179 -3.3460  2.0813
  280MOL0     H38616   7.895   1.148   7.996 -2.0678 -0.5948  1.1897
  280MOL0     H38617   7.875   1.143   7.815 -4.4253  2.0611 -2.0075
  280MOL0     H38618   7.676   1.315   7.867 -0.9790  0.8273  2.7447
  280MOL0     H38619   7.679   1.229   8.019  0.2522 -0.0496  0.5803
  280MOL0     H38620   8.074   1.637   8.185 -0.7782  0.2876 -1.1548
  280MOL0     H38621   7.966   1.814   8.340  0.3782  1.1015  0.5088
  280MOL0     H38622   8.276   2.342   8.578 -0.4401 -2.2928 -1.6365
  280MOL0     H38623   8.186   2.569   8.638 -0.3192 -0.4117  3.4054
  280MOL0     H38624   6.553   2.252   8.978 -0.2018  0.9466 -0.1388
  280MOL0     H38625   6.454   2.066   8.862  2.6666 -1.7755  0.2599
  280MOL0     H38626   6.656   1.865   8.701  1.5458 -0.3289  1.3774
  280MOL0     H38627   6.897   1.859   8.702  1.9162  2.2174  0.6535
  280MOL0     H38628   7.049   1.825   8.290 -0.1548  0.6566  0.5006
  280MOL0     H38629   7.205   1.809   8.372 -0.0178  0.7379 -1.5808
  280MOL0     H38630   6.960   1.639   8.380  0.5811  1.0683 -2.9116
  280MOL0     H38631   7.055   1.640   8.532  2.8388 -0.3253  0.4963
  280MOL0     H38632   7.108   1.453   8.352 -1.9529  1.0148  1.0463
  280MOL0     H38633   7.193   1.575   8.260  2.1575 -0.5790  0.4479
  280MOL0     H38634   7.344   1.630   8.418  0.8362  0.3143  1.1951
  280MOL0     H38635   7.352   1.455   8.386  1.6612  1.3649  0.3583
  280MOL0     H38636   7.277   1.490   8.797 -1.4591  1.3186 -0.4158
  280MOL0     H38637   6.882   1.996   8.286 -4.1147 -0.8926 -2.8959
  280MOL0     H38638   6.626   1.936   8.179 -0.1599  0.7469  0.2054
  280MOL0     H38639   6.547   2.077   8.258 -1.9207 -2.0434 -1.2414
  280MOL0     H38640   6.713   2.084   8.194  0.5445 -0.5275  0.7336
  281MOL0     O38641   3.525   9.875   6.437  0.5462  0.5192  0.3546
  281MOL0     C38642   3.631   9.933   6.413  0.1992  1.1463  0.2248
  281MOL0     O38643   3.762   9.892   6.440  0.5159 -1.2245 -0.3402
  281MOL0     C38644   3.771   9.780   6.521 -0.3838  0.1294  0.3164
  281MOL0     C38645   3.808   9.657   6.470  0.2666 -0.4273 -0.0687
  281MOL0     C38646   3.823   9.542   6.556  0.5112 -0.1697 -0.5238
  281MOL0     C38647   3.813   9.553   6.698  0.1776 -0.2758  0.8341
  281MOL0     O38648   3.830   9.443   6.770 -0.4965 -0.3507  0.0285
  281MOL0     C38649   3.883   9.452   6.906 -0.0093  0.1700  0.1364
  281MOL0     C38650   4.030   9.481   6.900 -0.4770 -0.6317 -0.3201
  281MOL0     C38651   4.095   9.470   7.041  0.5086  0.8084  0.1108
  281MOL0     C38652   4.239   9.512   7.048 -0.0797  0.0476 -0.1138
  281MOL0     C38653   4.263   9.659   7.028 -0.6146  0.2211 -0.0760
  281MOL0     C38654   4.411   9.692   7.058 -0.0157  0.3472 -0.3810
  281MOL0     C38655   4.478   9.826   7.036 -0.0833  0.0861  0.2657
  281MOL0     C38656   4.449   9.929   7.152 -0.8557  0.9425  0.3828
  281MOL0     N38657   4.536  10.057   7.134 -0.2153 -0.4422 -0.6352
  281MOL0     C38658   4.559  10.123   7.013  0.9310 -0.6485  0.1295
  281MOL0     C38659   4.646  10.223   7.045 -0.2220 -0.4114 -0.7569
  281MOL0     C38660   4.720  10.303   6.936  0.5743  0.3172  0.3116
  281MOL0     C38661   4.622  10.384   6.853 -0.3766  0.4527 -0.4580
  281MOL0     C38662   4.698  10.507   6.808 -0.5816 -0.5635  0.8413
  281MOL0     C38663   4.624  10.584   6.705  0.7322 -0.1048  0.2541
  281MOL0     O38664   4.633  10.514   6.577 -0.3230 -0.7916 -0.2827
  281MOL0     C38665   4.709  10.556   6.471 -0.0924  0.9297 -0.0096
  281MOL0     C38666   4.832  10.625   6.491 -0.1524 -0.8878  0.1122
  281MOL0     C38667   4.917  10.651   6.388 -0.9757 -0.4462 -0.3069
  281MOL0     C38668   5.048  10.728   6.417 -0.4234  0.4950 -0.1615
  281MOL0     C38669   4.883  10.617   6.259 -0.3309 -0.8245  1.0073
  281MOL0     C38670   4.963  10.645   6.138  0.1579 -0.3810  0.7945
  281MOL0     O38671   5.034  10.755   6.137  0.1283  0.7653 -0.1250
  281MOL0     C38672   5.109  10.774   6.025  0.1525  0.3570  0.5741
  281MOL0     C38673   5.249  10.767   6.049  0.5918  0.1157  0.3014
  281MOL0     C38674   5.331  10.809   5.943 -0.5184 -0.6777  0.0658
  281MOL0     C38675   5.282  10.878   5.832  0.1830  0.6039  0.9016
  281MOL0     O38676   5.353  10.912   5.724  0.3269  0.0569  0.2609
  281MOL0     C38677   5.486  10.954   5.760  0.0245 -0.2632  0.5105
  281MOL0     C38678   5.539  11.024   5.631 -0.5432 -0.2851  0.4633
  281MOL0     C38679   5.490  11.163   5.602 -0.4688  0.4159  0.0029
  281MOL0     C38680   5.353  11.167   5.538  0.2855 -0.0496  1.0009
  281MOL0     C38681   5.330  11.302   5.458  0.3634  0.7598  0.1037
  281MOL0     C38682   5.347  11.421   5.547  0.3865 -0.2537 -0.2954
  281MOL0     C38683   5.258  11.532   5.495  0.0248 -0.7841 -0.5625
  281MOL0     C38684   5.305  11.603   5.368  0.1299 -1.4430 -1.5732
  281MOL0    Cl38685   5.486  11.647   5.386 -0.5648  0.0842  0.1919
  281MOL0     C38686   5.140  10.892   5.816 -0.9845  0.7351  0.4338
  281MOL0     C38687   5.058  10.833   5.915 -1.0799  0.1750 -0.9614
  281MOL0     O38688   4.928  10.583   6.038 -0.1115  0.6076 -0.0728
  281MOL0     C38689   4.758  10.554   6.231 -1.0683 -0.5285 -0.5456
  281MOL0     C38690   4.675  10.532   6.339  0.6245  0.3019  0.4727
  281MOL0     N38691   4.669  10.220   7.185 -0.6761  0.3303 -0.2185
  281MOL0     N38692   4.592  10.126   7.233 -0.0729  0.6488  0.3289
  281MOL0     C38693   3.795   9.681   6.755  0.7032 -0.2263  0.2513
  281MOL0     C38694   3.765   9.785   6.666 -0.1245  0.2142  0.0918
  281MOL0     C38695   3.623  10.061   6.343  0.1936 -0.2129 -0.2691
  281MOL0     C38696   3.689  10.167   6.395 -0.2280 -0.3941 -0.1488
  281MOL0     C38697   3.659  10.298   6.352  0.4202 -0.0352  0.1689
  281MOL0     C38698   3.577  10.318   6.245 -0.8353 -0.2444  0.0429
  281MOL0     O38699   3.532  10.440   6.193 -0.6383  0.3029  0.0514
  281MOL0     C38700   3.563  10.555   6.275  0.2935 -0.2691 -0.1420
  281MOL0     C38701   3.685  10.623   6.208  0.1451  0.2444  0.1630
  281MOL0     C38702   3.706  10.766   6.261 -0.1214  0.9310 -0.6212
  281MOL0     C38703   3.597  10.870   6.215 -0.9492  0.0692  0.5095
  281MOL0     C38704   3.594  10.992   6.303 -0.2026  0.5280 -0.3637
  281MOL0     C38705   3.588  11.093   6.357  0.3515 -0.7993 -1.0992
  281MOL0     C38706   3.529  10.215   6.179  0.8104 -0.9304  0.0581
  281MOL0     C38707   3.543  10.085   6.224  0.8650  0.0225 -0.1471
  281MOL0     C38708   3.464   9.982   6.147 -0.9345 -0.2322  0.1343
  281MOL0     H38709   3.825   9.636   6.365  0.6735  0.8338 -0.2763
  281MOL0     H38710   3.848   9.445   6.514 -3.2369 -1.1916 -0.7088
  281MOL0     H38711   3.880   9.349   6.943  4.2829  0.1455  0.9459
  281MOL0     H38712   3.831   9.524   6.970 -0.7034 -1.4994  1.5224
  281MOL0     H38713   4.076   9.410   6.830 -2.1896 -0.0690 -2.1206
  281MOL0     H38714   4.042   9.578   6.852  0.7987  1.3815  3.6307
  281MOL0     H38715   4.041   9.524   7.120  0.7108 -0.5058  1.1862
  281MOL0     H38716   4.076   9.368   7.075  0.3154  0.6330 -0.5197
  281MOL0     H38717   4.283   9.478   7.143  3.0506  1.1504 -1.0486
  281MOL0     H38718   4.297   9.461   6.971  1.1534  0.4734  0.5032
  281MOL0     H38719   4.196   9.720   7.090 -2.1553 -0.3026 -1.1857
  281MOL0     H38720   4.251   9.690   6.924 -0.0573 -1.6494 -0.7289
  281MOL0     H38721   4.430   9.655   7.159 -0.5178  2.5679  0.5786
  281MOL0     H38722   4.472   9.621   7.001  0.7373  1.5749 -1.1588
  281MOL0     H38723   4.451   9.875   6.941  1.9276  1.4399  0.3216
  281MOL0     H38724   4.585   9.806   7.029 -0.2734 -0.4880 -1.9376
  281MOL0     H38725   4.341   9.943   7.163 -0.8611  0.2739  1.3008
  281MOL0     H38726   4.487   9.883   7.243  1.6709 -0.6479 -1.3338
  281MOL0     H38727   4.527  10.100   6.912  3.1567  3.0982 -1.7006
  281MOL0     H38728   4.780  10.236   6.874 -0.8620 -1.4613  0.7531
  281MOL0     H38729   4.794  10.368   6.984  3.7482 -1.6716 -1.5380
  281MOL0     H38730   4.583  10.326   6.769  0.5670  3.7143 -3.4176
  281MOL0     H38731   4.536  10.401   6.917  0.1722  0.8617  0.1887
  281MOL0     H38732   4.718  10.570   6.895  3.8421 -4.6425  3.2366
  281MOL0     H38733   4.795  10.474   6.768 -0.7104 -0.2237  0.2374
  281MOL0     H38734   4.515  10.581   6.710  0.5005 -2.5140 -2.9351
  281MOL0     H38735   4.673  10.679   6.686  0.6630 -0.4418 -1.8234
  281MOL0     H38736   4.866  10.641   6.593  3.2109 -2.4079 -0.6069
  281MOL0     H38737   5.032  10.835   6.406 -0.1595  0.7267  1.4913
  281MOL0     H38738   5.140  10.711   6.360  0.4326  1.0172  1.0073
  281MOL0     H38739   5.073  10.706   6.522 -0.7905  3.0149  0.5150
  281MOL0     H38740   5.285  10.717   6.139  0.5433  0.0371  0.2774
  281MOL0     H38741   5.439  10.797   5.944 -0.3520  0.2821 -2.3010
  281MOL0     H38742   5.505  11.022   5.844 -1.4153  0.8705 -0.0480
  281MOL0     H38743   5.551  10.867   5.775 -0.0971 -1.0286 -2.7550
  281MOL0     H38744   5.646  11.018   5.652 -0.7303 -1.5812  1.1654
  281MOL0     H38745   5.521  10.963   5.542  0.2334  0.2383 -0.0685
  281MOL0     H38746   5.564  11.221   5.548  0.9058  0.3496  1.7210
  281MOL0     H38747   5.472  11.214   5.697 -1.0887  2.1645 -1.0122
  281MOL0     H38748   5.277  11.154   5.615  2.1661  0.9109  3.1148
  281MOL0     H38749   5.351  11.086   5.463  0.8965 -1.0769  2.0639
  281MOL0     H38750   5.389  11.301   5.366 -1.1037  0.1341 -0.8837
  281MOL0     H38751   5.226  11.296   5.423  1.1626 -2.1535 -2.2062
  281MOL0     H38752   5.451  11.453   5.550  0.0510  0.9268  2.9363
  281MOL0     H38753   5.326  11.395   5.651  1.0522 -0.7303 -0.2731
  281MOL0     H38754   5.239  11.605   5.574  1.4176  0.6765 -1.4877
  281MOL0     H38755   5.163  11.480   5.481 -1.1693  1.5644 -1.8271
  281MOL0     H38756   5.240  11.690   5.356  2.2434  0.9341  2.2475
  281MOL0     H38757   5.279  11.536   5.286 -2.8140 -0.5219 -1.4938
  281MOL0     H38758   5.097  10.936   5.728 -0.5798  1.6873  0.7006
  281MOL0     H38759   4.950  10.832   5.907 -1.1388  3.3777 -2.3467
  281MOL0     H38760   4.721  10.528   6.132 -0.1012 -4.5256 -0.0295
  281MOL0     H38761   4.580  10.480   6.339 -1.4898  3.7584  3.0473
  281MOL0     H38762   3.796   9.702   6.862 -1.0286  1.1741  0.0302
  281MOL0     H38763   3.754   9.887   6.704 -0.7104 -0.2822  1.3177
  281MOL0     H38764   3.738  10.157   6.491 -1.9864 -1.1377  0.7122
  281MOL0     H38765   3.702  10.384   6.402 -1.5047  0.2396  1.4637
  281MOL0     H38766   3.473  10.614   6.260  2.0337  2.4910 -0.4580
  281MOL0     H38767   3.568  10.565   6.384 -1.6618  3.6970 -0.2373
  281MOL0     H38768   3.668  10.631   6.100 -1.0214 -1.6540  0.1465
  281MOL0     H38769   3.774  10.561   6.223  0.1957 -0.1417 -1.5810
  281MOL0     H38770   3.692  10.744   6.368  0.8454 -1.8026 -0.9805
  281MOL0     H38771   3.807  10.807   6.249  1.0502 -1.1541  1.3137
  281MOL0     H38772   3.500  10.820   6.216 -0.7347 -0.4788 -1.4625
  281MOL0     H38773   3.629  10.904   6.116  1.4062  1.3795  1.6344
  281MOL0     H38774   3.571  11.190   6.397  2.5722 -1.4869  1.8956
  281MOL0     H38775   3.467  10.229   6.091 -0.0064  0.7765  0.8682
  281MOL0     H38776   3.364   9.962   6.187 -1.5087  0.9711 -0.6463
  281MOL0     H38777   3.453  10.009   6.041  0.2527  4.1443  0.9281
  281MOL0     H38778   3.524   9.891   6.139  3.2219  2.3766 -2.7181
  282MOL0     O38779  10.852   1.329   2.113 -0.2339 -1.0030 -0.2308
  282MOL0     C38780  10.769   1.417   2.142  0.5663  0.7170 -0.4021
  282MOL0     O38781  10.796   1.538   2.202  1.3349  0.2017  0.7196
  282MOL0     C38782  10.922   1.550   2.255  0.6428 -0.7907 -0.4852
  282MOL0     C38783  10.950   1.567   2.392 -0.3616 -0.6000 -0.1260
  282MOL0     C38784  11.083   1.573   2.444  0.0833  0.4476  0.0240
  282MOL0     C38785  11.194   1.544   2.355  0.9925  0.1489  1.1601
  282MOL0     O38786  11.318   1.541   2.412  0.2398 -0.0385  0.1390
  282MOL0     C38787  11.429   1.491   2.343 -0.2044  0.2524  0.4007
  282MOL0     C38788  11.415   1.334   2.346  0.0614  0.0983 -0.6170
  282MOL0     C38789  11.393   1.269   2.485 -0.4348  0.4785 -1.0088
  282MOL0     C38790  11.501   1.292   2.585 -0.0516  0.6267  0.5987
  282MOL0     C38791  11.461   1.201   2.712 -0.2496 -0.5443 -0.6309
  282MOL0     C38792  11.579   1.193   2.824  0.4717 -0.2008  0.0407
  282MOL0     C38793  11.701   1.126   2.780  0.6378 -0.2003  0.5246
  282MOL0     C38794  11.800   1.131   2.893 -0.9037  0.7743  0.1988
  282MOL0     N38795  11.932   1.071   2.871 -0.3836  0.0211  0.9002
  282MOL0     C38796  11.973   1.018   2.752 -0.0005  0.5679  1.0174
  282MOL0     C38797  12.090   0.955   2.774  0.3507  0.6376  0.3785
  282MOL0     C38798  12.161   0.876   2.670 -0.1203 -0.6470 -0.0886
  282MOL0     C38799  12.299   0.847   2.721  0.4834 -0.9122  0.9928
  282MOL0     C38800  12.361   0.758   2.625 -0.0377  0.3703 -0.2886
  282MOL0     C38801  12.505   0.719   2.658 -0.6242 -0.1318 -0.2872
  282MOL0     O38802  12.502   0.616   2.758 -0.0811  0.3640  0.5858
  282MOL0     C38803  12.594   0.639   2.857 -0.0139 -0.1653 -0.6340
  282MOL0     C38804  12.724   0.648   2.822 -0.6010 -0.6692 -0.3118
  282MOL0     C38805  12.828   0.648   2.913 -0.3020  0.9829  0.2869
  282MOL0     C38806  12.973   0.657   2.868  0.0938 -0.0002  1.1147
  282MOL0     C38807  12.798   0.638   3.052  0.5503 -0.7469 -0.0802
  282MOL0     C38808  12.896   0.641   3.162 -0.2536  0.5894  0.0782
  282MOL0     O38809  12.881   0.562   3.276 -0.1569  0.9576  0.0247
  282MOL0     C38810  12.983   0.539   3.362  0.4365 -0.5093  0.2644
  282MOL0     C38811  13.111   0.505   3.327 -0.1577  0.2554 -0.1404
  282MOL0     C38812  13.209   0.455   3.421  0.4190 -0.1189 -0.2517
  282MOL0     C38813  13.173   0.449   3.559 -0.0218 -0.5249 -0.0895
  282MOL0     O38814  13.275   0.397   3.636 -0.1564  0.2625 -0.0598
  282MOL0     C38815  13.255   0.378   3.780 -0.2663  0.6091 -0.9034
  282MOL0     C38816  13.394   0.389   3.843 -0.4614  0.1460 -0.6381
  282MOL0     C38817  13.505   0.281   3.822  0.2764 -0.2029  0.5979
  282MOL0     C38818  13.497   0.158   3.915  0.4282 -0.3838  0.3074
  282MOL0     C38819  13.595   0.050   3.874 -0.5371  0.4067 -0.0806
  282MOL0     C38820  13.609  -0.053   3.989 -0.0104  0.5992 -0.0154
  282MOL0     C38821  13.701  -0.161   3.955  0.7607  1.2571 -0.0652
  282MOL0     C38822  13.820  -0.169   4.053  0.9896 -0.1995 -0.8331
  282MOL0    Cl38823  13.752  -0.221   4.216  0.1408 -0.0792 -0.0033
  282MOL0     C38824  13.051   0.506   3.603 -0.0908  0.4662  0.5099
  282MOL0     C38825  12.959   0.534   3.499  0.4536 -0.5187  1.7036
  282MOL0     O38826  12.982   0.725   3.152  0.7308 -0.2435  0.4600
  282MOL0     C38827  12.666   0.619   3.089 -0.2576  0.7896  0.4500
  282MOL0     C38828  12.562   0.626   2.994 -0.6158  0.2555  0.2784
  282MOL0     N38829  12.114   0.958   2.913  0.2703 -0.5813  0.1142
  282MOL0     N38830  12.029   1.037   2.971 -0.6035 -0.0556 -0.7260
  282MOL0     C38831  11.167   1.519   2.219 -0.2523 -0.0765  0.4248
  282MOL0     C38832  11.033   1.536   2.171 -0.0546  0.2493  0.3603
  282MOL0     C38833  10.625   1.378   2.120  0.0198  0.0847  0.6685
  282MOL0     C38834  10.596   1.283   2.016 -0.4355 -0.8492 -0.6117
  282MOL0     C38835  10.467   1.256   1.982 -0.5692  0.3788 -0.0474
  282MOL0     C38836  10.358   1.314   2.041  0.6836  0.6033 -1.3571
  282MOL0     O38837  10.231   1.286   1.999 -0.7779 -0.9154  0.1751
  282MOL0     C38838  10.120   1.350   2.050  0.3270 -0.2203 -0.8769
  282MOL0     C38839  10.003   1.274   1.983 -0.2476  0.1587  0.3835
  282MOL0     C38840   9.877   1.326   2.042 -0.5087  1.0749  0.6061
  282MOL0     C38841   9.753   1.249   1.984 -0.0238  0.5767 -0.7461
  282MOL0     C38842   9.633   1.281   2.054  0.4603 -0.7917  0.0246
  282MOL0     C38843   9.526   1.312   2.108  0.2711  0.2677 -0.6100
  282MOL0     C38844  10.389   1.403   2.143 -0.2537  0.1438 -0.5106
  282MOL0     C38845  10.516   1.437   2.190 -0.2813 -0.5940  0.0575
  282MOL0     C38846  10.525   1.535   2.315 -0.2749 -0.3896  0.0293
  282MOL0     H38847  10.861   1.572   2.454  0.3520 -0.7431  0.9345
  282MOL0     H38848  11.113   1.583   2.548 -0.4649 -0.6083  0.2991
  282MOL0     H38849  11.520   1.527   2.394 -0.3526  2.2686 -0.6447
  282MOL0     H38850  11.425   1.524   2.239  1.3494 -2.0634 -0.4779
  282MOL0     H38851  11.332   1.295   2.286 -0.0126 -1.4130  0.4204
  282MOL0     H38852  11.503   1.290   2.296  0.2151  0.4423 -0.6494
  282MOL0     H38853  11.297   1.298   2.529  0.1786 -0.2240  0.8698
  282MOL0     H38854  11.401   1.160   2.474  0.1828  0.7087 -3.6956
  282MOL0     H38855  11.595   1.254   2.543  0.9880  0.8177  2.6031
  282MOL0     H38856  11.512   1.399   2.604  0.0929  0.5841  0.7641
  282MOL0     H38857  11.434   1.098   2.685 -0.8244 -0.0944 -1.8750
  282MOL0     H38858  11.368   1.244   2.750  1.3003  2.9849 -0.4552
  282MOL0     H38859  11.610   1.290   2.866  0.3606  0.0406 -0.4327
  282MOL0     H38860  11.542   1.142   2.913 -3.7758  0.4247 -1.1633
  282MOL0     H38861  11.743   1.176   2.692  1.4139 -1.6680  0.0180
  282MOL0     H38862  11.675   1.024   2.749  2.1833 -0.0771 -1.3878
  282MOL0     H38863  11.809   1.232   2.933 -2.4556  1.9308 -2.1816
  282MOL0     H38864  11.761   1.070   2.976  1.0564 -0.4179  0.3192
  282MOL0     H38865  11.918   1.022   2.659  0.4565 -0.7232  0.6682
  282MOL0     H38866  12.151   0.935   2.578 -1.4444 -2.2044 -0.9977
  282MOL0     H38867  12.099   0.787   2.658 -2.5911  0.6120  2.1726
  282MOL0     H38868  12.360   0.935   2.741  1.5402 -1.5775  0.8113
  282MOL0     H38869  12.283   0.789   2.812  0.0328 -2.7120 -0.1807
  282MOL0     H38870  12.297   0.672   2.602  0.3971  0.6803 -3.0089
  282MOL0     H38871  12.364   0.813   2.530 -1.3866 -0.6324 -0.9540
  282MOL0     H38872  12.560   0.693   2.567  0.1159  2.1196 -0.5358
  282MOL0     H38873  12.562   0.803   2.700 -0.4084 -0.3837 -0.0738
  282MOL0     H38874  12.742   0.638   2.715  1.1262 -0.5352 -0.0631
  282MOL0     H38875  13.018   0.753   2.895 -0.4471  0.7876 -0.6559
  282MOL0     H38876  12.982   0.638   2.761  0.4995  0.0157  1.1430
  282MOL0     H38877  13.038   0.580   2.912  1.2374  0.2652 -0.0643
  282MOL0     H38878  13.134   0.497   3.221  0.6506 -0.7312  0.1002
  282MOL0     H38879  13.302   0.414   3.384  1.1536  2.1264 -1.0938
  282MOL0     H38880  13.189   0.453   3.825 -0.4533 -0.6763  1.0912
  282MOL0     H38881  13.216   0.283   3.817  0.9254  1.1760  2.1295
  282MOL0     H38882  13.426   0.490   3.814 -2.6723  0.6802 -1.4084
  282MOL0     H38883  13.391   0.393   3.952 -1.7099  3.7825 -0.6571
  282MOL0     H38884  13.601   0.333   3.822  0.4404 -0.4878 -0.5243
  282MOL0     H38885  13.498   0.249   3.718  2.5688  0.1347  0.2958
  282MOL0     H38886  13.403   0.104   3.917  0.6119 -0.6810  1.1047
  282MOL0     H38887  13.524   0.193   4.015 -0.7966 -0.4280  0.6606
  282MOL0     H38888  13.552   0.006   3.784  1.3158  0.0999 -0.8539
  282MOL0     H38889  13.695   0.078   3.842  0.6048 -2.2422  0.9428
  282MOL0     H38890  13.506  -0.084   4.011 -0.5466 -0.4140 -3.4296
  282MOL0     H38891  13.644   0.002   4.077  0.6372 -0.8760  0.6885
  282MOL0     H38892  13.724  -0.155   3.848 -1.6340 -0.1161 -0.7419
  282MOL0     H38893  13.658  -0.262   3.957  3.5771 -0.1540 -2.3794
  282MOL0     H38894  13.859  -0.067   4.047  1.0742 -0.2512 -1.1457
  282MOL0     H38895  13.897  -0.238   4.017  0.2299 -1.3323 -0.3451
  282MOL0     H38896  13.023   0.511   3.708  2.2412  0.8176  1.1954
  282MOL0     H38897  12.859   0.564   3.531  0.3496  1.9568 -0.6226
  282MOL0     H38898  12.640   0.615   3.195  3.5586  0.9164  1.5348
  282MOL0     H38899  12.459   0.606   3.022 -0.2169 -0.6796  1.1030
  282MOL0     H38900  11.243   1.498   2.144 -1.2977  0.5330 -0.8571
  282MOL0     H38901  11.010   1.518   2.067  0.2754  0.2025  0.2932
  282MOL0     H38902  10.675   1.228   1.966 -0.2223 -1.5273  0.4426
  282MOL0     H38903  10.464   1.175   1.910  0.1688  0.0197  0.3030
  282MOL0     H38904  10.121   1.349   2.160  3.9276  1.2844 -0.7634
  282MOL0     H38905  10.115   1.454   2.016  1.7054  1.1088  2.4972
  282MOL0     H38906  10.006   1.167   2.003 -0.0387 -0.1341 -1.1287
  282MOL0     H38907  10.002   1.280   1.874 -4.0937 -2.8539  0.0179
  282MOL0     H38908   9.891   1.321   2.151 -0.8133  2.7403  0.7568
  282MOL0     H38909   9.864   1.431   2.014 -2.2866  0.7313  0.0757
  282MOL0     H38910   9.758   1.139   1.976 -1.8834  0.4376 -0.3679
  282MOL0     H38911   9.737   1.277   1.880 -0.8710  3.9269  0.1619
  282MOL0     H38912   9.432   1.332   2.156 -0.2763  1.4201 -2.0813
  282MOL0     H38913  10.311   1.462   2.189  0.7083  2.8539 -2.1029
  282MOL0     H38914  10.428   1.553   2.364  0.3862  0.5771  1.0359
  282MOL0     H38915  10.571   1.482   2.399 -0.9926  0.5328  1.0535
  282MOL0     H38916  10.563   1.635   2.294 -2.2741  0.9058  2.0539
  283MOL0     O38917   2.333   6.719   2.625 -0.8459 -0.6158  0.4039
  283MOL0     C38918   2.401   6.815   2.602  0.3050 -0.2000  0.2497
  283MOL0     O38919   2.363   6.938   2.563 -0.1760  0.3609  0.4309
  283MOL0     C38920   2.231   6.975   2.592  0.0573  0.9973  0.2109
  283MOL0     C38921   2.221   7.065   2.694  0.8275  0.9690  0.4145
  283MOL0     C38922   2.096   7.117   2.728 -0.6765 -0.4096  0.5859
  283MOL0     C38923   1.980   7.069   2.666  1.0929 -0.3532 -1.0009
  283MOL0     O38924   1.856   7.119   2.689  0.6130  0.2061  0.5977
  283MOL0     C38925   1.848   7.255   2.727 -0.0605  0.2888 -0.3817
  283MOL0     C38926   1.712   7.325   2.703 -0.4296  0.8016  0.4558
  283MOL0     C38927   1.712   7.377   2.554  0.2037  0.7954 -0.4629
  283MOL0     C38928   1.577   7.448   2.525  0.0834  0.1495 -0.4136
  283MOL0     C38929   1.588   7.511   2.387 -0.3958  0.0102  0.2499
  283MOL0     C38930   1.672   7.647   2.366 -0.1090 -0.3913 -0.6473
  283MOL0     C38931   1.634   7.708   2.232 -0.3385 -0.3537  0.2209
  283MOL0     C38932   1.690   7.847   2.220  0.5405 -0.1627 -0.6901
  283MOL0     N38933   1.635   7.922   2.106 -0.5627  0.1984 -0.1113
  283MOL0     C38934   1.679   7.938   1.981  0.1190 -1.0906 -0.4821
  283MOL0     C38935   1.590   8.005   1.907 -0.3141  0.5081 -0.0774
  283MOL0     C38936   1.597   8.019   1.761 -0.2471  0.3059  0.1770
  283MOL0     C38937   1.530   7.900   1.691 -0.8018  0.8343  0.3051
  283MOL0     C38938   1.471   7.937   1.549 -0.0383 -0.5357 -0.3334
  283MOL0     C38939   1.377   7.833   1.498  0.2452 -0.5861  0.6881
  283MOL0     O38940   1.350   7.860   1.360 -0.7914  0.3025 -0.4526
  283MOL0     C38941   1.256   7.794   1.295  0.6734 -0.0917 -0.3518
  283MOL0     C38942   1.213   7.666   1.327  0.2084  0.5286  0.8957
  283MOL0     C38943   1.088   7.624   1.267  0.5065  0.2153  0.2061
  283MOL0     C38944   1.043   7.487   1.310 -0.5556  0.3633 -0.4898
  283MOL0     C38945   1.031   7.691   1.161 -1.0960  0.8184  0.5500
  283MOL0     C38946   0.910   7.649   1.085 -0.7185  1.1577 -0.7207
  283MOL0     O38947   0.876   7.722   0.978  0.6304  0.4100 -0.4572
  283MOL0     C38948   0.772   7.677   0.899 -0.3871 -1.5441  0.1021
  283MOL0     C38949   0.649   7.747   0.920  0.7572 -0.0894  0.0911
  283MOL0     C38950   0.535   7.696   0.859 -0.1434  1.3275 -0.1773
  283MOL0     C38951   0.532   7.586   0.777  0.3803 -1.0119 -0.4725
  283MOL0     O38952   0.410   7.551   0.723  0.3732  0.9505 -1.1897
  283MOL0     C38953   0.401   7.464   0.611 -0.5851  0.0928  0.6923
  283MOL0     C38954   0.406   7.540   0.483  0.1198  0.9966  0.0160
  283MOL0     C38955   0.360   7.461   0.349  0.1269  0.6181 -0.9885
  283MOL0     C38956   0.315   7.555   0.238  0.8759  0.2164 -0.7046
  283MOL0     C38957   0.210   7.512   0.141  0.4593 -0.5488 -0.8758
  283MOL0     C38958   0.261   7.433   0.025 -0.4986  0.6784  0.2254
  283MOL0     C38959   0.156   7.371  -0.067  1.0841 -0.7016  0.5683
  283MOL0     C38960   0.073   7.264   0.015 -0.7950 -0.3088  0.6150
  283MOL0    Cl38961  -0.035   7.193  -0.107 -0.0204  0.3020 -0.2882
  283MOL0     C38962   0.660   7.521   0.755  0.1749 -0.4518 -0.4617
  283MOL0     C38963   0.776   7.576   0.802 -0.0639 -0.2787 -0.6105
  283MOL0     O38964   0.847   7.546   1.118  0.0811 -0.6951 -0.1221
  283MOL0     C38965   1.093   7.805   1.113 -0.8774 -0.3282  0.5344
  283MOL0     C38966   1.198   7.862   1.193 -0.7993 -0.2325  0.3593
  283MOL0     N38967   1.487   8.039   1.993 -0.5324 -0.4844  0.0686
  283MOL0     N38968   1.518   7.986   2.106  0.3828  0.3029 -0.8316
  283MOL0     C38969   1.988   6.980   2.559  0.6491 -0.6667 -0.5641
  283MOL0     C38970   2.120   6.934   2.515  0.1710  0.3470 -0.1881
  283MOL0     C38971   2.549   6.797   2.597  0.3082  0.6284 -0.2015
  283MOL0     C38972   2.625   6.814   2.710 -0.7948  1.2252 -0.5292
  283MOL0     C38973   2.761   6.792   2.715 -0.4231 -0.1204 -1.1766
  283MOL0     C38974   2.826   6.786   2.596 -0.3520 -0.4410 -0.0357
  283MOL0     O38975   2.963   6.790   2.587  0.0234  0.0293 -0.2888
  283MOL0     C38976   3.026   6.673   2.535 -0.4295  1.0403  0.0673
  283MOL0     C38977   3.100   6.603   2.639  0.1342  0.5489 -0.8068
  283MOL0     C38978   3.032   6.568   2.778  0.1243 -1.1512  0.3002
  283MOL0     C38979   3.133   6.480   2.857 -0.6261 -0.1633 -0.8241
  283MOL0     C38980   3.102   6.340   2.828 -0.7214  1.5292  0.7384
  283MOL0     C38981   3.083   6.220   2.804  0.0665 -0.1460  0.5082
  283MOL0     C38982   2.752   6.784   2.481  0.0225 -0.5413  0.1328
  283MOL0     C38983   2.611   6.776   2.475  0.1385  0.4317 -0.1014
  283MOL0     C38984   2.536   6.764   2.340  0.6347 -0.7155 -0.6703
  283MOL0     H38985   2.313   7.096   2.742 -0.2644  0.1020  3.2954
  283MOL0     H38986   2.098   7.178   2.817  3.5726  1.3733 -0.4695
  283MOL0     H38987   1.933   7.304   2.679  0.8717 -1.2477 -0.3701
  283MOL0     H38988   1.859   7.266   2.835 -0.5242  0.6195 -0.3647
  283MOL0     H38989   1.625   7.260   2.717 -0.7864  0.5461 -2.3975
  283MOL0     H38990   1.702   7.408   2.774 -2.8051  0.5380  0.5023
  283MOL0     H38991   1.791   7.447   2.527 -0.7231  3.1235  2.3423
  283MOL0     H38992   1.727   7.289   2.491  0.4230 -0.5730  1.4304
  283MOL0     H38993   1.495   7.379   2.546  1.3521 -0.9799  1.0876
  283MOL0     H38994   1.574   7.530   2.597 -2.9215  0.5766 -0.8756
  283MOL0     H38995   1.484   7.529   2.361 -0.3550  1.4124  0.9682
  283MOL0     H38996   1.627   7.448   2.306 -1.2154  1.5269 -1.3860
  283MOL0     H38997   1.661   7.715   2.451  0.0963  1.0098 -1.7035
  283MOL0     H38998   1.775   7.610   2.359 -0.8543 -2.2940 -3.7245
  283MOL0     H38999   1.525   7.704   2.220 -0.3099 -2.5234  0.3223
  283MOL0     H39000   1.678   7.642   2.157 -0.0746 -1.7252  1.5328
  283MOL0     H39001   1.649   7.895   2.309  0.6177 -2.8147  0.8499
  283MOL0     H39002   1.799   7.844   2.212  0.4406  0.4824 -5.9497
  283MOL0     H39003   1.772   7.901   1.940  0.1173 -0.0792 -1.4276
  283MOL0     H39004   1.695   8.037   1.715 -0.7775  4.1689  0.2466
  283MOL0     H39005   1.543   8.111   1.735 -4.6078 -1.6006  1.5620
  283MOL0     H39006   1.619   7.838   1.685  1.1565  3.3029  1.7215
  283MOL0     H39007   1.456   7.850   1.755 -1.0668  1.4749  0.5098
  283MOL0     H39008   1.416   8.031   1.557  0.6454 -0.2425  5.4315
  283MOL0     H39009   1.561   7.955   1.489 -0.7315  1.8451 -0.7675
  283MOL0     H39010   1.428   7.738   1.515 -0.3785 -0.4448  4.1491
  283MOL0     H39011   1.289   7.840   1.563 -0.9677  1.6123 -1.0233
  283MOL0     H39012   1.264   7.608   1.403 -2.1154 -1.0572  1.3190
  283MOL0     H39013   1.104   7.439   1.387 -2.3952 -2.7462 -0.7721
  283MOL0     H39014   1.054   7.406   1.237  3.3030 -0.7062  1.0203
  283MOL0     H39015   0.942   7.480   1.350 -1.1722 -0.0655 -2.0496
  283MOL0     H39016   0.645   7.830   0.989  2.3579 -0.5226  0.7303
  283MOL0     H39017   0.437   7.724   0.898 -1.9527 -1.0300 -2.6139
  283MOL0     H39018   0.477   7.386   0.611  1.5710  2.0583 -0.8135
  283MOL0     H39019   0.296   7.434   0.618 -1.2915  2.1634 -0.0301
  283MOL0     H39020   0.340   7.626   0.497  2.1289  2.6481 -0.0616
  283MOL0     H39021   0.505   7.584   0.466  0.4585  1.0349  1.9235
  283MOL0     H39022   0.274   7.405   0.388  1.5364  0.6563  2.5445
  283MOL0     H39023   0.444   7.395   0.323  0.2820  0.2457  0.3834
  283MOL0     H39024   0.402   7.606   0.196  1.9803  0.2603  1.4697
  283MOL0     H39025   0.260   7.632   0.294 -0.0395 -1.2126  0.4127
  283MOL0     H39026   0.132   7.458   0.196 -0.0625  1.2575  0.2235
  283MOL0     H39027   0.172   7.606   0.101  0.2765 -0.1008  0.3206
  283MOL0     H39028   0.326   7.348   0.052  0.4730  1.2686 -0.2039
  283MOL0     H39029   0.334   7.495  -0.027 -0.6507 -0.4493 -1.4130
  283MOL0     H39030   0.219   7.332  -0.147  1.1706  3.0602 -1.3882
  283MOL0     H39031   0.096   7.444  -0.121  2.7587  1.1642  1.1337
  283MOL0     H39032   0.014   7.327   0.082 -0.5409 -0.3830  0.9121
  283MOL0     H39033   0.134   7.194   0.073 -0.0239  0.7196  1.0868
  283MOL0     H39034   0.670   7.445   0.678 -1.5484  0.2163 -1.4140
  283MOL0     H39035   0.880   7.545   0.790  0.7290  1.8481  0.2008
  283MOL0     H39036   1.050   7.857   1.028 -0.0847  1.1623  1.0149
  283MOL0     H39037   1.230   7.963   1.166 -0.4244 -0.6432 -0.8219
  283MOL0     H39038   1.898   6.948   2.509  0.2409 -2.9916  1.4319
  283MOL0     H39039   2.125   6.866   2.431  0.7990 -1.6646  1.4253
  283MOL0     H39040   2.567   6.848   2.795  1.8542 -2.0869  2.9199
  283MOL0     H39041   2.817   6.797   2.808 -1.3738 -0.7819 -0.5501
  283MOL0     H39042   2.964   6.604   2.477 -0.2445 -0.0897  1.1596
  283MOL0     H39043   3.095   6.702   2.456  0.9091  3.5029  1.9864
  283MOL0     H39044   3.183   6.673   2.655 -0.6904  1.4015 -0.1593
  283MOL0     H39045   3.125   6.512   2.584 -2.4274 -0.0983 -1.0201
  283MOL0     H39046   3.008   6.659   2.833 -0.5229 -1.7263  0.9822
  283MOL0     H39047   2.937   6.514   2.769  0.2489 -1.8000  2.4359
  283MOL0     H39048   3.122   6.490   2.965  1.3803 -1.3074 -0.4648
  283MOL0     H39049   3.235   6.511   2.834 -0.8528  0.5094 -0.9509
  283MOL0     H39050   3.078   6.113   2.798  2.4648 -0.4161  1.9468
  283MOL0     H39051   2.815   6.794   2.393  0.4981  3.2523  0.7244
  283MOL0     H39052   2.430   6.738   2.343 -0.5390  3.2300 -1.3654
  283MOL0     H39053   2.529   6.866   2.302  1.5643  0.5461  2.2330
  283MOL0     H39054   2.599   6.701   2.277  1.6534 -0.8164  0.4118
  284MOL0     O39055   1.295   9.512   2.373  0.3648  0.6319  0.4501
  284MOL0     C39056   1.361   9.421   2.427 -0.4112 -0.4387 -1.0668
  284MOL0     O39057   1.328   9.283   2.430 -0.2890 -0.9965 -0.4245
  284MOL0     C39058   1.230   9.239   2.352 -0.4295  0.4727  0.1757
  284MOL0     C39059   1.159   9.133   2.414 -0.0654 -0.3304  0.3076
  284MOL0     C39060   1.063   9.077   2.326  0.5118 -0.5436  0.4679
  284MOL0     C39061   1.035   9.103   2.196 -0.6322 -0.2813  1.1489
  284MOL0     O39062   0.936   9.046   2.114 -0.0894 -0.2636 -0.5865
  284MOL0     C39063   0.815   8.989   2.172  0.2790  0.0982 -0.0274
  284MOL0     C39064   0.727   8.941   2.061 -0.3497  0.8227 -0.8353
  284MOL0     C39065   0.697   9.061   1.967  0.8771  0.0759  0.4492
  284MOL0     C39066   0.596   9.041   1.848  0.4161  0.3973 -0.7386
  284MOL0     C39067   0.587   9.153   1.745 -0.5082 -0.7804 -0.2380
  284MOL0     C39068   0.530   9.279   1.802  0.3513 -1.0788  0.8251
  284MOL0     C39069   0.515   9.395   1.691  0.5007  0.2063 -0.3252
  284MOL0     C39070   0.380   9.442   1.665  0.0925  0.2604  0.3434
  284MOL0     N39071   0.301   9.336   1.603 -0.2129 -0.4776 -1.2498
  284MOL0     C39072   0.318   9.302   1.471  0.6301 -0.3112 -0.6210
  284MOL0     C39073   0.226   9.202   1.459  0.2006  0.1166  0.8918
  284MOL0     C39074   0.201   9.126   1.334 -0.1513 -0.7734  0.0151
  284MOL0     C39075   0.099   9.007   1.336  1.3120 -0.3045  0.7708
  284MOL0     C39076   0.154   8.889   1.261 -0.1399 -0.5921  0.0505
  284MOL0     C39077   0.056   8.780   1.259 -0.7445 -0.2284  0.4849
  284MOL0     O39078   0.119   8.675   1.177  0.5789 -0.2252 -0.2476
  284MOL0     C39079   0.072   8.552   1.223 -0.1091 -0.6951  0.5013
  284MOL0     C39080  -0.062   8.520   1.205 -0.0788 -0.0610 -0.3941
  284MOL0     C39081  -0.117   8.402   1.253 -0.0684 -0.7026  0.1422
  284MOL0     C39082  -0.266   8.382   1.241 -1.5210 -0.5910  0.0778
  284MOL0     C39083  -0.033   8.307   1.314 -0.7091  0.9306 -0.7477
  284MOL0     C39084  -0.080   8.174   1.355  0.0797  1.4146  0.3212
  284MOL0     O39085  -0.002   8.109   1.440  0.5880 -0.6335 -0.5327
  284MOL0     C39086   0.021   7.976   1.457  0.9186 -0.2292 -1.6488
  284MOL0     C39087   0.048   7.929   1.586 -0.0040 -0.4249 -0.3573
  284MOL0     C39088   0.081   7.795   1.600  1.0231  0.3215  0.3822
  284MOL0     C39089   0.066   7.698   1.504  0.4582 -0.0925 -0.5069
  284MOL0     O39090   0.090   7.560   1.525  0.0625  0.1916  0.4967
  284MOL0     C39091   0.193   7.522   1.620 -0.2349  0.0430 -0.7014
  284MOL0     C39092   0.265   7.391   1.578  0.0881 -0.6672 -0.8071
  284MOL0     C39093   0.183   7.263   1.588  0.9873 -0.3701 -0.2735
  284MOL0     C39094   0.254   7.137   1.564 -0.4662  0.4577 -0.1990
  284MOL0     C39095   0.296   7.108   1.422  0.1803  0.3660  0.1528
  284MOL0     C39096   0.362   6.967   1.429 -1.0344  0.3925 -0.1917
  284MOL0     C39097   0.421   6.926   1.291  0.2849  0.0508 -0.6235
  284MOL0     C39098   0.542   6.844   1.293  0.8615 -0.7589 -0.1820
  284MOL0    Cl39099   0.508   6.674   1.337 -0.1565  0.4300  0.2150
  284MOL0     C39100   0.021   7.747   1.378 -0.0893  0.5332 -0.4182
  284MOL0     C39101  -0.004   7.883   1.362  0.1813  0.4851  0.0596
  284MOL0     O39102  -0.172   8.117   1.303 -0.2211 -0.3049 -0.4316
  284MOL0     C39103   0.108   8.334   1.331 -0.1284  0.3851  0.2810
  284MOL0     C39104   0.160   8.455   1.275 -0.3575  1.2484  0.6106
  284MOL0     N39105   0.162   9.177   1.579  1.0877 -0.4044  0.1088
  284MOL0     N39106   0.203   9.260   1.663 -0.4217  0.3373  0.2259
  284MOL0     C39107   1.112   9.202   2.143  0.4856 -1.0606 -0.1415
  284MOL0     C39108   1.206   9.276   2.215 -0.0223  0.0304  0.5161
  284MOL0     C39109   1.478   9.470   2.509 -0.1671 -0.0974 -0.2163
  284MOL0     C39110   1.472   9.418   2.633 -0.6421  0.6043  0.6464
  284MOL0     C39111   1.576   9.436   2.728 -0.6481  0.1684  0.0273
  284MOL0     C39112   1.684   9.532   2.697  1.1110  0.1708  0.1033
  284MOL0     O39113   1.768   9.543   2.809  0.5584  0.0698 -0.4531
  284MOL0     C39114   1.888   9.617   2.796  0.2335  0.7255 -0.5616
  284MOL0     C39115   2.002   9.517   2.823 -0.6194  0.0716  0.1170
  284MOL0     C39116   2.146   9.579   2.799  0.2667  0.5965 -0.3250
  284MOL0     C39117   2.262   9.476   2.794 -0.1208  0.5385 -0.9559
  284MOL0     C39118   2.273   9.405   2.661  0.9113 -0.1765  0.4617
  284MOL0     C39119   2.271   9.329   2.560  0.4205 -0.6599  0.0830
  284MOL0     C39120   1.681   9.586   2.565 -0.9603 -1.0032 -0.0477
  284MOL0     C39121   1.582   9.556   2.474 -0.6702 -0.2804 -0.2876
  284MOL0     C39122   1.589   9.626   2.339 -0.0058 -0.5646  0.5875
  284MOL0     H39123   1.168   9.097   2.516  0.5667 -0.2143  0.2940
  284MOL0     H39124   0.998   8.991   2.346  0.7840 -1.3222 -1.7513
  284MOL0     H39125   0.767   9.068   2.231  1.0363 -0.3465  1.2344
  284MOL0     H39126   0.837   8.907   2.242 -2.0986 -1.5804 -1.1080
  284MOL0     H39127   0.783   8.876   1.994 -0.3071 -0.0736  0.0523
  284MOL0     H39128   0.636   8.896   2.101 -0.2500  2.5911  1.6902
  284MOL0     H39129   0.672   9.148   2.029 -0.9003 -0.0941  0.0257
  284MOL0     H39130   0.787   9.087   1.910 -0.0973  3.1314  0.0654
  284MOL0     H39131   0.625   8.945   1.804  0.9593  0.3883 -0.3753
  284MOL0     H39132   0.492   9.023   1.877  0.3138  0.2002 -1.2238
  284MOL0     H39133   0.513   9.131   1.667  1.6386 -1.6847 -2.1451
  284MOL0     H39134   0.683   9.163   1.693 -0.9057  0.3292 -0.8005
  284MOL0     H39135   0.434   9.247   1.843 -0.4348 -1.1612 -0.9776
  284MOL0     H39136   0.589   9.310   1.889  1.0328 -4.0632  1.5313
  284MOL0     H39137   0.568   9.364   1.600  2.6601 -0.1209  0.9671
  284MOL0     H39138   0.580   9.472   1.733  3.7499 -2.8307  0.7658
  284MOL0     H39139   0.335   9.473   1.760  1.7048  1.2645  0.8260
  284MOL0     H39140   0.379   9.531   1.603  1.0417  0.3248  0.4132
  284MOL0     H39141   0.395   9.343   1.406  0.2801  0.2973 -0.6607
  284MOL0     H39142   0.305   9.101   1.312 -0.6973 -1.7233 -1.6331
  284MOL0     H39143   0.183   9.195   1.251 -1.0831  0.8255  1.4453
  284MOL0     H39144   0.073   8.980   1.438 -0.1712  0.9752  0.7671
  284MOL0     H39145   0.002   9.033   1.292  1.8216 -0.8534 -0.7595
  284MOL0     H39146   0.175   8.919   1.158 -0.6058  0.3137  0.2083
  284MOL0     H39147   0.234   8.854   1.327  0.5833  0.2555 -0.3504
  284MOL0     H39148   0.057   8.747   1.363 -2.0893  1.2425  1.0013
  284MOL0     H39149  -0.039   8.814   1.217  0.5468 -0.5707 -3.0484
  284MOL0     H39150  -0.126   8.590   1.153  0.3844 -0.0404 -0.9542
  284MOL0     H39151  -0.293   8.312   1.161 -0.1139 -0.1008 -0.8630
  284MOL0     H39152  -0.320   8.478   1.234  2.8151  2.0765 -0.5453
  284MOL0     H39153  -0.302   8.347   1.338  0.1391  1.9446  1.7302
  284MOL0     H39154   0.074   8.001   1.663  0.9354 -1.1564  0.0231
  284MOL0     H39155   0.118   7.753   1.693 -1.5410 -2.7541  0.1786
  284MOL0     H39156   0.277   7.592   1.620 -0.9932  0.9813 -0.8903
  284MOL0     H39157   0.153   7.531   1.722 -0.1570 -0.6526 -0.6110
  284MOL0     H39158   0.293   7.405   1.473  0.8034  2.2245 -0.3228
  284MOL0     H39159   0.359   7.371   1.630 -1.4026 -2.1889  1.5141
  284MOL0     H39160   0.107   7.266   1.509 -0.0930 -1.1100  0.6996
  284MOL0     H39161   0.140   7.267   1.689  0.6357  0.2448 -0.4389
  284MOL0     H39162   0.197   7.050   1.597 -0.3252  1.1201  1.9376
  284MOL0     H39163   0.348   7.140   1.621  1.3472  0.8448 -2.9894
  284MOL0     H39164   0.209   7.096   1.356 -0.4039 -0.7810  1.0760
  284MOL0     H39165   0.373   7.171   1.378 -0.8927  1.0030 -0.8603
  284MOL0     H39166   0.285   6.894   1.455 -0.9537 -0.0866 -1.2394
  284MOL0     H39167   0.444   6.967   1.502  1.2747  3.8370 -2.4746
  284MOL0     H39168   0.452   7.018   1.241 -4.3119  1.1402 -1.9391
  284MOL0     H39169   0.349   6.873   1.229 -0.2993 -0.5535  0.5264
  284MOL0     H39170   0.613   6.890   1.362  1.0396 -2.1516  0.6005
  284MOL0     H39171   0.591   6.855   1.196  1.3568 -3.8560 -0.4084
  284MOL0     H39172   0.002   7.672   1.302  3.9244 -1.5863  0.3416
  284MOL0     H39173  -0.040   7.909   1.263 -4.9151 -0.3756  1.3936
  284MOL0     H39174   0.168   8.265   1.389 -3.1990 -0.6996  2.3771
  284MOL0     H39175   0.268   8.466   1.277 -0.2253  0.0077  1.5861
  284MOL0     H39176   1.085   9.228   2.041  1.7589  1.1461  0.0156
  284MOL0     H39177   1.253   9.363   2.170 -1.2359 -0.7354 -2.4664
  284MOL0     H39178   1.401   9.338   2.649  1.1592 -1.0412  0.8041
  284MOL0     H39179   1.563   9.378   2.819 -2.9182  0.7811  0.1705
  284MOL0     H39180   1.898   9.657   2.695  0.7864  0.7061 -0.5150
  284MOL0     H39181   1.890   9.694   2.874  0.8702 -1.4541  1.7135
  284MOL0     H39182   1.985   9.431   2.758  0.2030 -1.5878  2.0032
  284MOL0     H39183   1.997   9.482   2.926  3.5156 -0.1431  0.4312
  284MOL0     H39184   2.163   9.628   2.703  2.6264  1.2774  0.3508
  284MOL0     H39185   2.157   9.654   2.877  0.4691 -2.1644  2.5202
  284MOL0     H39186   2.269   9.403   2.875 -1.3233 -1.3496 -2.4810
  284MOL0     H39187   2.348   9.544   2.796  0.7279 -0.5178 -0.2904
  284MOL0     H39188   2.262   9.271   2.471  0.0633  0.6958 -0.8013
  284MOL0     H39189   1.761   9.653   2.536 -0.3304 -1.2792  1.0398
  284MOL0     H39190   1.564   9.732   2.348  1.3902 -0.3038  1.8050
  284MOL0     H39191   1.689   9.626   2.294 -1.5300 -2.1981 -3.2048
  284MOL0     H39192   1.521   9.576   2.270 -2.0211  0.0113  2.0577
  285MOL0     O39193   2.551   3.062   5.991  0.2642  0.6770  0.4714
  285MOL0     C39194   2.588   2.962   6.054  0.5772  0.4221 -1.0725
  285MOL0     O39195   2.710   2.911   6.048  0.1135  0.2927  0.3341
  285MOL0     C39196   2.808   2.989   5.998 -0.0188  0.9000  0.4514
  285MOL0     C39197   2.834   2.986   5.857 -0.2639  0.4413  0.2474
  285MOL0     C39198   2.936   3.066   5.810 -0.4103 -0.2018  1.3651
  285MOL0     C39199   3.014   3.140   5.895 -0.2565 -0.2282 -0.4019
  285MOL0     O39200   3.124   3.197   5.833  0.1659 -0.2925 -0.7776
  285MOL0     C39201   3.166   3.329   5.873  1.0327  0.3288  0.3576
  285MOL0     C39202   3.310   3.325   5.924  0.2557 -1.2155 -0.6953
  285MOL0     C39203   3.399   3.451   5.911 -0.2134  0.5631  0.4254
  285MOL0     C39204   3.330   3.594   5.924  0.3853  0.3187 -0.0942
  285MOL0     C39205   3.431   3.707   5.905 -0.1108  0.0647  0.2046
  285MOL0     C39206   3.529   3.732   6.015 -0.0076  0.7248  0.5805
  285MOL0     C39207   3.635   3.826   5.984 -1.0877 -1.3810  1.2443
  285MOL0     C39208   3.731   3.851   6.098 -1.0851 -0.2241  0.2804
  285MOL0     N39209   3.688   3.948   6.197  0.4460  0.0247 -0.9180
  285MOL0     C39210   3.659   4.085   6.168  0.4847  1.1197  0.5849
  285MOL0     C39211   3.603   4.141   6.271  0.1375  0.5808  0.2102
  285MOL0     C39212   3.559   4.281   6.273  0.4270 -0.5874 -0.0044
  285MOL0     C39213   3.414   4.295   6.214 -0.4278 -0.4140  1.0962
  285MOL0     C39214   3.302   4.227   6.291  0.6238 -0.0602 -0.4558
  285MOL0     C39215   3.156   4.243   6.240  1.5715  0.2647  0.3174
  285MOL0     O39216   3.069   4.209   6.353  0.2447  0.5070  0.3310
  285MOL0     C39217   2.936   4.238   6.361  0.1360 -0.2480 -1.2436
  285MOL0     C39218   2.883   4.336   6.281  0.1815 -0.3049 -1.2781
  285MOL0     C39219   2.746   4.377   6.287  0.0135 -0.3562 -0.9084
  285MOL0     C39220   2.687   4.480   6.186  0.0984  0.5168 -1.2022
  285MOL0     C39221   2.667   4.318   6.380 -0.4053  0.2358 -0.1621
  285MOL0     C39222   2.529   4.353   6.409  0.6806  1.4471 -0.3759
  285MOL0     O39223   2.506   4.484   6.449  0.2108  0.1979 -0.4027
  285MOL0     C39224   2.386   4.543   6.467  0.2066 -0.0347  1.0853
  285MOL0     C39225   2.359   4.656   6.386 -0.9286  0.4593  0.3493
  285MOL0     C39226   2.227   4.720   6.407  0.6277  0.9132 -0.8757
  285MOL0     C39227   2.130   4.657   6.488 -0.6375  0.0697 -0.2345
  285MOL0     O39228   2.010   4.714   6.518  0.0666  0.0179  0.0962
  285MOL0     C39229   1.937   4.749   6.395  0.0820 -0.2844  0.1773
  285MOL0     C39230   1.804   4.805   6.442  0.0421 -0.1541  0.6746
  285MOL0     C39231   1.747   4.867   6.302  0.4242  0.4593  0.3844
  285MOL0     C39232   1.612   4.931   6.308 -0.1277 -0.3644  0.1982
  285MOL0     C39233   1.589   5.021   6.179 -0.0513 -0.7297  0.6149
  285MOL0     C39234   1.438   5.037   6.150  0.3583  0.1015  0.1826
  285MOL0     C39235   1.398   5.075   6.007  1.2112  0.1213 -0.5859
  285MOL0     C39236   1.496   5.176   5.944 -0.5869  0.1867  0.4845
  285MOL0    Cl39237   1.480   5.328   6.024  0.1901  0.3235  0.5046
  285MOL0     C39238   2.167   4.542   6.550 -0.1571  0.1643 -0.4456
  285MOL0     C39239   2.291   4.478   6.539 -0.2823 -0.1319  0.2745
  285MOL0     O39240   2.439   4.265   6.392 -0.5831 -0.8841 -0.2117
  285MOL0     C39241   2.719   4.227   6.477 -0.2607 -0.0927  0.9522
  285MOL0     C39242   2.852   4.189   6.462 -0.7519  0.0989  0.6852
  285MOL0     N39243   3.583   4.038   6.363  0.6718  0.2675 -0.8820
  285MOL0     N39244   3.628   3.927   6.319  0.2451  0.4533 -0.2540
  285MOL0     C39245   2.980   3.147   6.028  0.5686 -0.5759  0.1210
  285MOL0     C39246   2.871   3.076   6.078 -0.2717 -0.1739 -0.4361
  285MOL0     C39247   2.486   2.892   6.148 -0.4557 -0.5484  0.6141
  285MOL0     C39248   2.523   2.764   6.186  0.4004 -0.0631 -0.0608
  285MOL0     C39249   2.443   2.690   6.277  0.0393  0.5804 -0.0474
  285MOL0     C39250   2.315   2.736   6.308 -0.0073  1.2315  1.3788
  285MOL0     O39251   2.225   2.657   6.375  0.7348  0.0633 -0.5623
  285MOL0     C39252   2.221   2.513   6.359  0.2858 -0.1712  0.1940
  285MOL0     C39253   2.084   2.457   6.387 -0.1143  0.2718  0.0034
  285MOL0     C39254   2.028   2.474   6.518  0.1401 -0.3823  0.3227
  285MOL0     C39255   1.886   2.408   6.529  0.4540  0.2502  1.2515
  285MOL0     C39256   1.906   2.262   6.566 -0.3836 -1.2454 -0.2639
  285MOL0     C39257   1.925   2.149   6.588 -0.5388 -0.5061 -0.2085
  285MOL0     C39258   2.281   2.858   6.273  0.1528  1.0365 -0.1271
  285MOL0     C39259   2.362   2.943   6.192  0.1077  1.0885 -0.1201
  285MOL0     C39260   2.312   3.076   6.162 -0.4409  0.4004  0.0674
  285MOL0     H39261   2.783   2.924   5.783  0.8037 -1.3794  0.9634
  285MOL0     H39262   2.956   3.071   5.703  1.3873  1.0049  1.7186
  285MOL0     H39263   3.099   3.375   5.946  2.3560 -0.7151  2.3168
  285MOL0     H39264   3.163   3.390   5.782  1.0943  1.2493  0.9581
  285MOL0     H39265   3.311   3.290   6.028  1.6024 -0.3862 -0.4140
  285MOL0     H39266   3.369   3.246   5.878 -0.0871 -0.8965 -1.7055
  285MOL0     H39267   3.473   3.439   5.991 -1.1932  0.6939  1.3589
  285MOL0     H39268   3.453   3.449   5.815  2.2005 -0.3391  1.7088
  285MOL0     H39269   3.245   3.605   5.856 -0.7170 -0.5063  1.0930
  285MOL0     H39270   3.276   3.614   6.017 -0.3411  3.3100 -1.0556
  285MOL0     H39271   3.377   3.802   5.898 -0.2878  0.0483  1.2160
  285MOL0     H39272   3.489   3.686   5.815  0.4218  1.4848  0.1912
  285MOL0     H39273   3.472   3.765   6.103 -0.1585 -0.2713  0.8622
  285MOL0     H39274   3.581   3.642   6.048  0.8492  0.8955 -0.2730
  285MOL0     H39275   3.597   3.922   5.947  2.5634  0.2141  1.2046
  285MOL0     H39276   3.691   3.782   5.901  0.6523  0.3495  1.4078
  285MOL0     H39277   3.766   3.757   6.141 -1.9974 -0.7225 -0.0418
  285MOL0     H39278   3.819   3.890   6.046 -1.0737 -2.5991 -1.6056
  285MOL0     H39279   3.673   4.135   6.072 -1.6493  0.5767 -0.0552
  285MOL0     H39280   3.622   4.343   6.208 -0.9884 -0.4285 -1.2788
  285MOL0     H39281   3.568   4.311   6.378  1.9725 -1.2680  0.0823
  285MOL0     H39282   3.388   4.401   6.202  0.4194 -0.2681  0.4177
  285MOL0     H39283   3.408   4.253   6.113  3.5783 -0.7180  0.8242
  285MOL0     H39284   3.318   4.119   6.281  0.8069  0.1874 -4.2228
  285MOL0     H39285   3.294   4.255   6.397 -1.7787  0.2807 -0.6816
  285MOL0     H39286   3.142   4.347   6.209 -0.3188  0.5398  1.9196
  285MOL0     H39287   3.133   4.165   6.167  0.5634 -0.1253  1.0243
  285MOL0     H39288   2.938   4.375   6.197 -0.1518  0.1925 -1.2692
  285MOL0     H39289   2.721   4.579   6.218 -0.9669  0.7653 -0.7655
  285MOL0     H39290   2.577   4.480   6.187  0.0502 -1.8491 -0.1280
  285MOL0     H39291   2.718   4.452   6.086  0.1984  1.2361 -1.3794
  285MOL0     H39292   2.436   4.704   6.327 -0.1011  0.2665  1.2331
  285MOL0     H39293   2.199   4.812   6.358  1.7246  0.6963 -1.9812
  285MOL0     H39294   1.983   4.831   6.338 -1.1333 -0.5507 -1.2649
  285MOL0     H39295   1.927   4.667   6.324  1.3972  1.6820 -2.4916
  285MOL0     H39296   1.734   4.730   6.478 -0.6051  0.3640  0.5063
  285MOL0     H39297   1.823   4.883   6.517 -0.3574  2.0846 -1.4453
  285MOL0     H39298   1.754   4.790   6.225  2.8671 -0.3111  1.2679
  285MOL0     H39299   1.810   4.948   6.265 -1.2410  0.9140 -1.5844
  285MOL0     H39300   1.598   4.991   6.398  2.7426 -0.2215  0.6520
  285MOL0     H39301   1.544   4.847   6.324 -0.2244  0.0356  2.0273
  285MOL0     H39302   1.638   5.118   6.173 -2.3509  0.4299 -0.6939
  285MOL0     H39303   1.635   4.964   6.098 -1.1377 -1.4848  0.4985
  285MOL0     H39304   1.391   5.113   6.214 -2.5569  1.2979 -3.1108
  285MOL0     H39305   1.389   4.941   6.166  0.4835 -0.7329 -3.6203
  285MOL0     H39306   1.292   5.102   6.007 -0.7140 -5.8403 -2.3555
  285MOL0     H39307   1.397   4.978   5.955  2.9577 -0.9913  1.3143
  285MOL0     H39308   1.470   5.185   5.838 -1.3033  0.6981  0.6946
  285MOL0     H39309   1.599   5.140   5.952 -0.3706  0.4728 -0.8047
  285MOL0     H39310   2.085   4.484   6.591  0.0512 -0.8416 -1.4137
  285MOL0     H39311   2.321   4.389   6.593  4.7978  1.2218  0.2329
  285MOL0     H39312   2.660   4.178   6.554 -2.9442  1.5235  0.0625
  285MOL0     H39313   2.897   4.119   6.533 -1.1865 -2.6321 -1.5645
  285MOL0     H39314   3.044   3.197   6.100 -0.8502  1.6262 -0.0520
  285MOL0     H39315   2.865   3.080   6.187  0.8508  0.4206 -0.3802
  285MOL0     H39316   2.617   2.715   6.166 -0.7486 -1.8268 -1.4387
  285MOL0     H39317   2.477   2.597   6.322 -0.8930  0.4298  0.3525
  285MOL0     H39318   2.247   2.470   6.262 -3.7589  0.9342 -1.5804
  285MOL0     H39319   2.277   2.457   6.434 -1.6997 -1.0045  1.1087
  285MOL0     H39320   2.089   2.350   6.366  1.3494  0.7085 -2.2654
  285MOL0     H39321   2.012   2.506   6.320 -0.7870  1.1494  1.3284
  285MOL0     H39322   2.093   2.439   6.599  1.4280 -1.8515 -1.2772
  285MOL0     H39323   2.020   2.583   6.527  1.6993 -0.3767  2.4289
  285MOL0     H39324   1.830   2.420   6.436  3.6346  1.9699 -0.6138
  285MOL0     H39325   1.833   2.446   6.617 -0.8007  2.0161 -0.1840
  285MOL0     H39326   1.934   2.043   6.600 -1.1077 -0.3124  2.3846
  285MOL0     H39327   2.186   2.900   6.306 -0.0359 -1.3395  2.7047
  285MOL0     H39328   2.295   3.084   6.055 -0.5167  0.0861  0.0558
  285MOL0     H39329   2.212   3.098   6.200  0.3154  0.3737  2.2157
  285MOL0     H39330   2.389   3.147   6.194  1.2959  0.9115 -4.5464
  286MOL0     O39331   3.879   6.238   0.129 -0.4439  0.2472 -0.0277
  286MOL0     C39332   3.769   6.224   0.067  0.4785 -0.3083  0.3141
  286MOL0     O39333   3.740   6.291  -0.048  0.5592  1.3299  0.2052
  286MOL0     C39334   3.778   6.408  -0.074  0.8454 -0.0753 -0.8464
  286MOL0     C39335   3.709   6.471  -0.176  0.0135 -0.0813  0.3558
  286MOL0     C39336   3.739   6.608  -0.216  0.2596  0.1324  0.6928
  286MOL0     C39337   3.847   6.676  -0.163 -0.2492 -0.3417  0.0647
  286MOL0     O39338   3.891   6.801  -0.195 -0.6206 -0.0173  0.0245
  286MOL0     C39339   3.859   6.860  -0.321 -0.1073  0.3977  0.3128
  286MOL0     C39340   3.974   6.952  -0.367  0.6183  0.3834  0.0118
  286MOL0     C39341   4.110   6.863  -0.367 -0.3599  0.2808 -0.0360
  286MOL0     C39342   4.146   6.826  -0.515 -0.1133  0.6410 -0.1371
  286MOL0     C39343   4.244   6.930  -0.575  0.5591  0.2355  0.2988
  286MOL0     C39344   4.280   6.916  -0.722  0.0636 -1.2506 -0.0086
  286MOL0     C39345   4.353   7.042  -0.791  0.9269  0.5846 -0.0234
  286MOL0     C39346   4.496   7.068  -0.763  0.0932  0.6088 -0.6311
  286MOL0     N39347   4.512   7.102  -0.619  0.2581 -0.1232  0.0136
  286MOL0     C39348   4.450   7.212  -0.565 -0.1819 -0.0406 -0.6147
  286MOL0     C39349   4.514   7.227  -0.438  0.6503  0.2958 -0.2273
  286MOL0     C39350   4.480   7.331  -0.344  0.5249 -0.2557 -0.4380
  286MOL0     C39351   4.486   7.297  -0.194  0.4991 -0.4086  0.2402
  286MOL0     C39352   4.398   7.168  -0.170  0.3558 -0.8033 -0.1262
  286MOL0     C39353   4.262   7.170  -0.241  0.5839 -0.3661  1.0501
  286MOL0     O39354   4.205   7.303  -0.223 -0.5853  0.5663 -0.2594
  286MOL0     C39355   4.101   7.332  -0.135  0.4863  0.2571  0.5154
  286MOL0     C39356   4.016   7.438  -0.162 -1.2610  0.4744 -0.8111
  286MOL0     C39357   3.916   7.476  -0.074  0.7380 -0.6530  0.5799
  286MOL0     C39358   3.844   7.600  -0.119 -0.5019  0.5182  0.9263
  286MOL0     C39359   3.885   7.406   0.037 -0.3319 -0.3556  0.2979
  286MOL0     C39360   3.762   7.419   0.127 -0.6571 -0.0519  0.4405
  286MOL0     O39361   3.673   7.514   0.097 -0.3880  0.3738  0.3425
  286MOL0     C39362   3.539   7.502   0.138 -0.5055 -0.2705 -0.0051
  286MOL0     C39363   3.450   7.392   0.095 -1.0500 -0.9995  0.8626
  286MOL0     C39364   3.336   7.375   0.167  0.3410 -0.4743  0.1913
  286MOL0     C39365   3.285   7.477   0.254  0.8913  0.0721  0.6339
  286MOL0     O39366   3.162   7.470   0.316  0.0925  0.6327  0.7216
  286MOL0     C39367   3.080   7.361   0.292 -0.7374  0.2225  0.5878
  286MOL0     C39368   2.935   7.393   0.342  0.3534  0.6606  0.6724
  286MOL0     C39369   2.928   7.399   0.492  0.1357 -0.4681 -0.3439
  286MOL0     C39370   2.944   7.256   0.547 -0.0251  0.1744 -0.3255
  286MOL0     C39371   2.929   7.253   0.703  0.1357  0.4891 -0.3475
  286MOL0     C39372   2.789   7.212   0.744 -0.0298  0.4743  0.4690
  286MOL0     C39373   2.757   7.243   0.897  0.6047  0.1115 -0.1346
  286MOL0     C39374   2.726   7.393   0.928 -0.8534 -0.2372  1.1212
  286MOL0    Cl39375   2.692   7.418   1.102 -0.2238  0.9040 -0.4941
  286MOL0     C39376   3.361   7.588   0.276 -0.8015 -0.0907 -0.4334
  286MOL0     C39377   3.484   7.604   0.217 -0.0177 -1.0798  0.2109
  286MOL0     O39378   3.745   7.346   0.223  0.0151 -0.0066  0.4635
  286MOL0     C39379   3.982   7.302   0.072  0.7508  0.4404 -0.2345
  286MOL0     C39380   4.084   7.265  -0.016 -0.3745  0.3066  0.0414
  286MOL0     N39381   4.613   7.133  -0.431 -0.5746  0.5183 -0.4867
  286MOL0     N39382   4.612   7.056  -0.533 -0.1700  0.3056  0.1170
  286MOL0     C39383   3.912   6.608  -0.061 -0.7487 -0.2972  0.2355
  286MOL0     C39384   3.876   6.488  -0.014 -0.1652  0.3042  0.1117
  286MOL0     C39385   3.665   6.130   0.127  0.5232 -0.1014 -0.2422
  286MOL0     C39386   3.536   6.181   0.118  0.6581  0.0326  0.4128
  286MOL0     C39387   3.429   6.123   0.177 -0.6932 -0.5601 -0.6726
  286MOL0     C39388   3.448   5.991   0.234 -0.0769 -0.0697  0.2831
  286MOL0     O39389   3.350   5.914   0.299  0.9271 -0.1000  0.9401
  286MOL0     C39390   3.249   5.989   0.373 -0.4294  1.5017  1.0783
  286MOL0     C39391   3.155   5.896   0.433 -0.2680  0.5506  0.5748
  286MOL0     C39392   3.038   5.974   0.499  1.4351  0.1413  0.0823
  286MOL0     C39393   2.932   5.887   0.560 -0.4708  0.4050 -0.6230
  286MOL0     C39394   2.979   5.780   0.652 -0.0605  0.1132  0.5878
  286MOL0     C39395   2.997   5.687   0.723 -0.7740 -0.0106 -0.7098
  286MOL0     C39396   3.575   5.936   0.228 -1.3811  0.8833  0.2053
  286MOL0     C39397   3.688   5.998   0.170  0.9182  0.5882  0.9476
  286MOL0     C39398   3.823   5.922   0.157 -0.5379 -0.3436 -0.9621
  286MOL0     H39399   3.626   6.428  -0.230  1.7093 -0.0198 -2.4770
  286MOL0     H39400   3.663   6.655  -0.278  0.8009 -0.8843 -0.7762
  286MOL0     H39401   3.771   6.925  -0.312 -1.4603 -0.8659 -2.5069
  286MOL0     H39402   3.834   6.781  -0.393  0.7344  1.9728 -1.8171
  286MOL0     H39403   3.941   6.993  -0.463 -1.8540  0.5118  0.8385
  286MOL0     H39404   3.986   7.038  -0.301 -2.0953 -0.5746  1.9524
  286MOL0     H39405   4.201   6.912  -0.334 -1.1232  3.6253 -2.3368
  286MOL0     H39406   4.097   6.769  -0.313 -0.9549  0.4855  0.1939
  286MOL0     H39407   4.194   6.729  -0.523  3.7970  2.4987 -1.7359
  286MOL0     H39408   4.055   6.836  -0.575  0.1002  0.9748 -0.4079
  286MOL0     H39409   4.333   6.904  -0.518  0.4494 -1.6455 -0.3078
  286MOL0     H39410   4.205   7.027  -0.544  1.7756  1.2613 -1.2261
  286MOL0     H39411   4.346   6.830  -0.734  0.4958 -0.8192 -0.7797
  286MOL0     H39412   4.183   6.904  -0.770  0.1502 -1.3587 -0.1553
  286MOL0     H39413   4.296   7.130  -0.760  0.5615 -1.0535  4.8101
  286MOL0     H39414   4.352   7.027  -0.899 -2.6018 -1.1595  0.1334
  286MOL0     H39415   4.574   6.998  -0.794  1.3918  1.1866  1.1504
  286MOL0     H39416   4.530   7.156  -0.818  2.5408  0.9298  1.2166
  286MOL0     H39417   4.374   7.273  -0.612 -1.5529 -0.4639  0.9631
  286MOL0     H39418   4.384   7.377  -0.368  0.0483 -1.4453 -0.8642
  286MOL0     H39419   4.560   7.406  -0.354 -0.6002  1.3231  1.6390
  286MOL0     H39420   4.588   7.291  -0.155  0.5348  0.5489  0.3060
  286MOL0     H39421   4.435   7.386  -0.156  0.1113 -1.5327  2.5642
  286MOL0     H39422   4.451   7.080  -0.208  0.2938 -0.6500 -0.5729
  286MOL0     H39423   4.377   7.163  -0.063 -0.8432  0.1471 -0.3026
  286MOL0     H39424   4.283   7.150  -0.347 -0.2987  1.0275  0.5889
  286MOL0     H39425   4.190   7.094  -0.208 -2.3799  1.1089 -1.5188
  286MOL0     H39426   4.032   7.497  -0.252 -0.0599  1.3313 -0.0734
  286MOL0     H39427   3.823   7.661  -0.030 -1.4342 -0.3830  1.3457
  286MOL0     H39428   3.749   7.570  -0.163 -0.4199  0.5138  0.7506
  286MOL0     H39429   3.904   7.657  -0.191  0.3800 -0.5487  0.7955
  286MOL0     H39430   3.482   7.322   0.020  0.1669  0.0356  0.3824
  286MOL0     H39431   3.275   7.286   0.155  0.5218 -1.0778  3.0477
  286MOL0     H39432   3.074   7.362   0.183  2.9599  2.7001  0.2343
  286MOL0     H39433   3.135   7.268   0.309  2.3664  1.1055 -3.2495
  286MOL0     H39434   2.904   7.491   0.304 -1.3361 -0.0474  0.1261
  286MOL0     H39435   2.856   7.331   0.299  0.7470  2.4242 -3.0559
  286MOL0     H39436   2.830   7.438   0.522  0.1815  0.3566 -1.2385
  286MOL0     H39437   2.997   7.479   0.520  0.1393 -1.1051  1.6389
  286MOL0     H39438   3.037   7.208   0.515  0.6300 -0.6131  2.4796
  286MOL0     H39439   2.860   7.201   0.505  0.1784  0.5312 -1.2320
  286MOL0     H39440   3.009   7.189   0.740  1.8823  3.0963  0.7198
  286MOL0     H39441   2.950   7.351   0.747 -0.2663  0.1588  0.5939
  286MOL0     H39442   2.764   7.109   0.718  0.8049  0.9679 -2.7256
  286MOL0     H39443   2.717   7.267   0.684  1.3435  0.6497 -1.0849
  286MOL0     H39444   2.852   7.229   0.950  0.3962  1.5592  0.6901
  286MOL0     H39445   2.689   7.181   0.956  2.0154 -0.0799  1.3790
  286MOL0     H39446   2.633   7.408   0.873 -0.2803  0.4415  0.3141
  286MOL0     H39447   2.803   7.458   0.884  0.5147 -2.5184 -0.0260
  286MOL0     H39448   3.328   7.664   0.346 -0.4789  1.0734 -1.5041
  286MOL0     H39449   3.545   7.691   0.241 -0.3324 -1.1963  1.5243
  286MOL0     H39450   3.969   7.256   0.170  3.4456  3.5783  1.8148
  286MOL0     H39451   4.134   7.174   0.018 -2.3634 -0.9191 -0.1357
  286MOL0     H39452   3.991   6.658  -0.005 -0.3860 -2.1429  1.4886
  286MOL0     H39453   3.935   6.445   0.067 -1.0276  2.8058  2.2042
  286MOL0     H39454   3.525   6.279   0.072 -0.2068 -0.7898 -1.2228
  286MOL0     H39455   3.331   6.169   0.166 -1.0740 -0.9078  1.0127
  286MOL0     H39456   3.290   6.052   0.453  0.6163  1.6881  0.4203
  286MOL0     H39457   3.202   6.063   0.309 -0.1562  2.6053  2.1243
  286MOL0     H39458   3.209   5.843   0.511  0.6553  0.2373 -0.2579
  286MOL0     H39459   3.104   5.829   0.363 -1.0798  4.0853 -2.6051
  286MOL0     H39460   3.077   6.044   0.573  1.2194  0.7688 -0.3893
  286MOL0     H39461   3.004   6.051   0.429  1.2341  1.2258  1.3476
  286MOL0     H39462   2.877   5.833   0.483  2.1901 -2.9435 -0.4244
  286MOL0     H39463   2.866   5.954   0.616 -1.7467 -1.5583  0.3456
  286MOL0     H39464   2.997   5.604   0.791  0.0371  0.5309 -0.0244
  286MOL0     H39465   3.590   5.836   0.268  0.9673 -0.1758 -2.9371
  286MOL0     H39466   3.847   5.881   0.255 -4.2320 -0.2048  0.1809
  286MOL0     H39467   3.801   5.829   0.103  2.6162 -3.6922  2.9319
  286MOL0     H39468   3.909   5.976   0.118  1.0219 -1.4859  0.7444
  287MOL0     O39469   6.026  10.092   5.906  0.0094  0.1501  0.8867
  287MOL0     C39470   6.095  10.035   5.982 -0.9687 -0.9975 -1.7090
  287MOL0     O39471   6.097   9.899   5.986  0.4198 -0.5161 -0.0873
  287MOL0     C39472   6.038   9.820   5.889  0.5290  0.0185  0.5947
  287MOL0     C39473   5.975   9.707   5.932  0.0378  0.0557 -0.6930
  287MOL0     C39474   5.920   9.619   5.839  0.3093  0.0341 -0.5495
  287MOL0     C39475   5.915   9.643   5.700  1.0418 -0.0724 -0.4876
  287MOL0     O39476   5.858   9.545   5.615 -0.3633 -0.4025  0.6249
  287MOL0     C39477   5.862   9.568   5.473 -0.2182 -0.3006  1.1629
  287MOL0     C39478   5.797   9.448   5.408 -0.1917 -0.1652 -1.0668
  287MOL0     C39479   5.784   9.466   5.254 -0.2520  0.8766  0.7196
  287MOL0     C39480   5.781   9.337   5.165 -0.5634  0.4818  0.3546
  287MOL0     C39481   5.782   9.364   5.020  0.1871 -0.6346 -0.5574
  287MOL0     C39482   5.736   9.245   4.938  0.3054  0.3179  0.8736
  287MOL0     C39483   5.727   9.279   4.786 -0.1343  0.6057  0.2127
  287MOL0     C39484   5.688   9.156   4.704  0.4166  0.0703  0.2079
  287MOL0     N39485   5.704   9.174   4.561 -1.1290 -0.8834 -0.2261
  287MOL0     C39486   5.620   9.220   4.464  0.5712 -0.2185  0.4485
  287MOL0     C39487   5.692   9.227   4.351 -0.9979 -0.5129  0.9154
  287MOL0     C39488   5.646   9.296   4.225 -0.2307 -0.4335 -0.9959
  287MOL0     C39489   5.763   9.321   4.130  1.0164 -0.3871 -0.1375
  287MOL0     C39490   5.712   9.366   3.996  0.2408  0.2366  0.5293
  287MOL0     C39491   5.803   9.478   3.936 -0.6718 -0.7646 -0.3920
  287MOL0     O39492   5.764   9.495   3.798  0.1495 -0.3245 -0.3250
  287MOL0     C39493   5.857   9.462   3.706  0.6802 -0.3673  0.0052
  287MOL0     C39494   5.983   9.519   3.704  0.2571  0.2175  0.3417
  287MOL0     C39495   6.078   9.487   3.605  0.1153 -0.3727  0.9627
  287MOL0     C39496   6.194   9.579   3.604 -0.8646 -0.4209 -0.0590
  287MOL0     C39497   6.053   9.391   3.512 -0.0815  0.5879 -0.2192
  287MOL0     C39498   6.148   9.345   3.395 -0.2138  0.9825 -0.5935
  287MOL0     O39499   6.262   9.408   3.373 -0.2956 -0.1223  0.3042
  287MOL0     C39500   6.324   9.396   3.243 -0.4492  0.0512  0.3374
  287MOL0     C39501   6.247   9.394   3.120  0.1766 -0.4376  0.4483
  287MOL0     C39502   6.310   9.405   2.998  0.0509 -1.3714 -0.2899
  287MOL0     C39503   6.452   9.403   2.993  0.5262  0.1548 -0.5883
  287MOL0     O39504   6.525   9.386   2.880 -0.3275 -0.4181  0.3808
  287MOL0     C39505   6.540   9.248   2.844  0.1892  0.5244  0.6809
  287MOL0     C39506   6.649   9.225   2.735 -0.1897  0.1642  0.4233
  287MOL0     C39507   6.667   9.077   2.690 -0.2651 -0.1504  0.6288
  287MOL0     C39508   6.786   9.073   2.590  0.8001  0.6432  0.8898
  287MOL0     C39509   6.856   8.938   2.582  0.2788  0.1931 -0.0130
  287MOL0     C39510   6.954   8.925   2.703 -0.1115  0.1947 -1.4180
  287MOL0     C39511   7.056   8.803   2.697  0.4600  0.6504  0.2716
  287MOL0     C39512   6.988   8.662   2.710  0.2734  0.9487  1.1545
  287MOL0    Cl39513   7.118   8.547   2.719  0.0192  0.3081 -0.1949
  287MOL0     C39514   6.525   9.408   3.111 -0.3224  0.7586  0.1898
  287MOL0     C39515   6.458   9.401   3.234 -0.0415  0.5039  0.3922
  287MOL0     O39516   6.124   9.236   3.347  0.1953 -0.3115 -0.3819
  287MOL0     C39517   5.930   9.321   3.530 -0.4279  0.2138  0.2527
  287MOL0     C39518   5.832   9.358   3.629 -0.2693  0.2223  0.0797
  287MOL0     N39519   5.816   9.179   4.379  0.5733 -0.0706  0.5701
  287MOL0     N39520   5.825   9.152   4.504  0.2464 -0.7867  0.3149
  287MOL0     C39521   5.980   9.758   5.661  0.1976 -0.1596  1.0305
  287MOL0     C39522   6.040   9.843   5.750  0.1424 -0.4751  1.3785
  287MOL0     C39523   6.155  10.115   6.097  0.2527 -0.3126 -0.5367
  287MOL0     C39524   6.169  10.061   6.226  0.1274  0.3543  0.0261
  287MOL0     C39525   6.209  10.125   6.344 -0.0068 -0.3440  0.1323
  287MOL0     C39526   6.257  10.260   6.331  0.5359  0.8797  0.0204
  287MOL0     O39527   6.300  10.342   6.435  0.7638  0.3123  0.7457
  287MOL0     C39528   6.369  10.284   6.549  0.0400  0.4746  0.4856
  287MOL0     C39529   6.374  10.396   6.662  0.2836  0.3379 -1.3212
  287MOL0     C39530   6.456  10.532   6.636  0.4614  0.1165 -0.5448
  287MOL0     C39531   6.481  10.619   6.759  0.4616  0.4183 -0.4918
  287MOL0     C39532   6.360  10.686   6.813  0.4458 -0.9412 -1.2250
  287MOL0     C39533   6.272  10.728   6.888 -0.2693 -0.1806  0.2099
  287MOL0     C39534   6.266  10.312   6.204  0.0790 -0.4370 -0.2243
  287MOL0     C39535   6.197  10.254   6.090 -0.2943  0.5243  1.3367
  287MOL0     C39536   6.211  10.316   5.944 -0.0496  0.2227  0.2290
  287MOL0     H39537   5.974   9.679   6.037 -1.1012  1.2487 -0.3571
  287MOL0     H39538   5.880   9.523   5.870 -3.2773  1.6872  0.5537
  287MOL0     H39539   5.964   9.589   5.441 -0.5804  0.8880  0.7420
  287MOL0     H39540   5.809   9.662   5.459 -0.8656 -0.4062  2.6961
  287MOL0     H39541   5.861   9.360   5.414  0.2945  0.2819  0.9875
  287MOL0     H39542   5.707   9.419   5.463 -0.2339  2.5224  0.4738
  287MOL0     H39543   5.689   9.520   5.242 -0.5765  0.3578  0.9362
  287MOL0     H39544   5.872   9.519   5.218  0.1970 -0.5483 -0.3574
  287MOL0     H39545   5.850   9.259   5.199 -0.7733 -0.8867 -2.1373
  287MOL0     H39546   5.694   9.274   5.186 -0.9939  0.1008 -2.2804
  287MOL0     H39547   5.876   9.399   4.976 -0.1659  0.3760 -0.5331
  287MOL0     H39548   5.712   9.447   5.006  2.5793  1.5552 -0.2040
  287MOL0     H39549   5.802   9.160   4.957  1.5385  1.1647  0.5096
  287MOL0     H39550   5.635   9.218   4.969  0.5311 -1.9531 -0.1933
  287MOL0     H39551   5.819   9.327   4.753 -1.4384  4.0561  1.2261
  287MOL0     H39552   5.647   9.353   4.784 -1.6728 -0.9707 -2.3374
  287MOL0     H39553   5.764   9.079   4.721 -0.6836 -0.6572  2.0836
  287MOL0     H39554   5.595   9.110   4.738  0.9491 -0.7242  0.6271
  287MOL0     H39555   5.514   9.247   4.467  0.0801 -1.8670 -0.6731
  287MOL0     H39556   5.600   9.389   4.260 -1.4413 -1.4909  0.3730
  287MOL0     H39557   5.568   9.236   4.177  0.7110 -2.1996 -0.4015
  287MOL0     H39558   5.842   9.390   4.160  1.2040 -1.1673  1.2606
  287MOL0     H39559   5.824   9.233   4.107  3.9687  1.1083  1.4183
  287MOL0     H39560   5.716   9.270   3.944 -0.3835 -0.0717  1.0276
  287MOL0     H39561   5.609   9.403   3.991 -0.2517 -1.1320  0.0754
  287MOL0     H39562   5.775   9.571   3.988 -1.2377 -1.7422  1.1111
  287MOL0     H39563   5.910   9.468   3.953 -0.8549  0.9363  2.5681
  287MOL0     H39564   6.018   9.596   3.772  2.7410 -1.5562  1.2399
  287MOL0     H39565   6.286   9.520   3.603  0.9197  1.9277  3.4982
  287MOL0     H39566   6.197   9.649   3.689 -1.0990  0.0644 -0.4447
  287MOL0     H39567   6.208   9.637   3.512  1.4398 -0.3526  0.2884
  287MOL0     H39568   6.139   9.383   3.127 -0.0486  0.5330 -1.0294
  287MOL0     H39569   6.250   9.414   2.909 -2.8609  1.8412  1.7549
  287MOL0     H39570   6.567   9.212   2.944 -1.7132  4.0579  2.6640
  287MOL0     H39571   6.441   9.209   2.818  1.1497 -1.8837  0.3948
  287MOL0     H39572   6.613   9.278   2.646  0.1471 -1.6191 -0.8430
  287MOL0     H39573   6.748   9.261   2.766  0.7985 -1.7671 -0.3090
  287MOL0     H39574   6.583   9.035   2.636 -0.2705  1.1274 -0.4029
  287MOL0     H39575   6.682   9.024   2.785 -1.4127  1.5415  1.8159
  287MOL0     H39576   6.854   9.155   2.615  2.0432  0.7286 -2.2923
  287MOL0     H39577   6.749   9.091   2.488  1.9235  0.5400  0.4482
  287MOL0     H39578   6.785   8.855   2.578  1.2482 -0.6719  0.0713
  287MOL0     H39579   6.913   8.929   2.489 -1.8274 -1.3391 -1.2490
  287MOL0     H39580   6.882   8.901   2.782 -0.0256  0.0114 -1.3955
  287MOL0     H39581   7.007   9.019   2.717  1.8951 -1.0107 -0.4742
  287MOL0     H39582   7.123   8.808   2.783  0.6028  3.0575  0.0818
  287MOL0     H39583   7.110   8.802   2.602 -1.6887 -1.9732 -1.0785
  287MOL0     H39584   6.931   8.626   2.624  1.3236  0.1861  0.7418
  287MOL0     H39585   6.927   8.659   2.801 -0.0084 -1.3131  0.9616
  287MOL0     H39586   6.632   9.411   3.097  0.1803 -1.5861  2.6143
  287MOL0     H39587   6.502   9.406   3.333 -0.2211 -0.6687  0.5477
  287MOL0     H39588   5.912   9.258   3.443 -4.6174  0.6721  0.5923
  287MOL0     H39589   5.731   9.319   3.635 -1.0543  2.2551  1.0820
  287MOL0     H39590   5.985   9.773   5.554  0.7801 -1.9162  0.7646
  287MOL0     H39591   6.087   9.936   5.718 -1.4789 -1.2871 -4.8269
  287MOL0     H39592   6.125   9.962   6.230  0.5657  0.1720  0.4239
  287MOL0     H39593   6.181  10.093   6.444 -1.2115  1.4414  0.4063
  287MOL0     H39594   6.310  10.203   6.592 -1.7438  1.6531  0.3462
  287MOL0     H39595   6.464  10.241   6.514  0.8015  0.7310  2.1265
  287MOL0     H39596   6.406  10.346   6.754  0.0164  1.6123 -0.4946
  287MOL0     H39597   6.273  10.435   6.683  0.5884  1.5770 -2.0826
  287MOL0     H39598   6.554  10.492   6.611  0.6496  1.3923 -1.9403
  287MOL0     H39599   6.400  10.588   6.560 -0.4993 -1.2519 -0.8976
  287MOL0     H39600   6.553  10.698   6.736  1.4627  0.3558  2.1222
  287MOL0     H39601   6.522  10.560   6.841 -0.0749  0.0595 -0.4750
  287MOL0     H39602   6.195  10.760   6.956  2.1519  1.8154  2.2171
  287MOL0     H39603   6.301  10.413   6.183  0.7128 -1.1944 -3.3730
  287MOL0     H39604   6.283  10.262   5.882 -2.0533 -0.6630 -1.4447
  287MOL0     H39605   6.111  10.315   5.900  0.2900 -2.0785 -0.6289
  287MOL0     H39606   6.243  10.417   5.970 -0.2500 -0.5415  4.0536
  288MOL0     O39607   1.232   1.408   1.510  0.1456  0.4469 -0.7554
  288MOL0     C39608   1.135   1.329   1.509  0.0685  0.5340 -0.1537
  288MOL0     O39609   1.130   1.196   1.454 -0.2074 -1.0951 -0.9159
  288MOL0     C39610   1.238   1.171   1.375 -1.1022  0.3781  0.5828
  288MOL0     C39611   1.367   1.165   1.428  0.4734 -0.2112  0.2494
  288MOL0     C39612   1.469   1.106   1.351  0.4773 -0.1564  0.4037
  288MOL0     C39613   1.453   1.071   1.215  0.4682  0.1288  0.5145
  288MOL0     O39614   1.554   1.012   1.134 -0.9729  0.1929 -0.3535
  288MOL0     C39615   1.530   0.980   0.998  0.0395 -0.4797 -0.2731
  288MOL0     C39616   1.650   0.906   0.944  0.1977 -0.1453 -0.1918
  288MOL0     C39617   1.625   0.860   0.803 -0.1976 -0.7033 -0.4030
  288MOL0     C39618   1.515   0.751   0.787  0.2532  0.3711  1.0401
  288MOL0     C39619   1.502   0.691   0.644 -0.0617 -0.6470  0.3152
  288MOL0     C39620   1.448   0.544   0.649 -0.1036  0.1435  0.5957
  288MOL0     C39621   1.426   0.484   0.506 -0.0216 -0.2204  0.0808
  288MOL0     C39622   1.349   0.353   0.508  0.6371 -0.5772 -0.0731
  288MOL0     N39623   1.395   0.261   0.618 -0.1028  0.1699 -0.4835
  288MOL0     C39624   1.331   0.244   0.735  0.4821 -0.1548 -0.3917
  288MOL0     C39625   1.406   0.173   0.819  0.7847  0.4038 -0.6233
  288MOL0     C39626   1.364   0.138   0.964 -0.1433  0.1452  0.8332
  288MOL0     C39627   1.436   0.235   1.067  0.5723  0.1980  0.4016
  288MOL0     C39628   1.577   0.187   1.098 -1.1370  0.3363 -0.2526
  288MOL0     C39629   1.628   0.286   1.202 -0.7549 -0.1877 -0.0082
  288MOL0     O39630   1.660   0.401   1.122  0.8085 -0.4579 -0.0366
  288MOL0     C39631   1.782   0.411   1.063  0.0979  0.3260 -1.1056
  288MOL0     C39632   1.816   0.536   1.025  1.1388 -0.1010  0.2503
  288MOL0     C39633   1.937   0.570   0.960 -0.1024 -0.0610  0.6096
  288MOL0     C39634   1.967   0.713   0.905  0.1905 -0.7203 -0.8115
  288MOL0     C39635   2.036   0.470   0.937 -0.0209  0.1747  0.3906
  288MOL0     C39636   2.181   0.486   0.879 -0.9537 -0.0926  0.8184
  288MOL0     O39637   2.274   0.388   0.898  1.0348 -0.0111  0.5624
  288MOL0     C39638   2.402   0.402   0.843  0.1490 -0.4419  0.6340
  288MOL0     C39639   2.474   0.521   0.856 -0.7598 -0.8473  0.3524
  288MOL0     C39640   2.609   0.528   0.810  0.3143 -0.5545  0.0259
  288MOL0     C39641   2.677   0.415   0.760  1.1973 -0.3044  0.0406
  288MOL0     O39642   2.807   0.399   0.727 -0.2059 -0.0962 -0.3660
  288MOL0     C39643   2.873   0.519   0.676  0.4664 -0.1597  0.3533
  288MOL0     C39644   2.809   0.582   0.550 -0.2345 -0.2053  0.5443
  288MOL0     C39645   2.839   0.498   0.430  0.2078  0.0712 -0.5695
  288MOL0     C39646   2.765   0.560   0.314 -0.2940 -0.2799 -0.1599
  288MOL0     C39647   2.822   0.528   0.184  0.1498  0.9581  0.6634
  288MOL0     C39648   2.738   0.591   0.071 -0.2756  0.6480 -0.0169
  288MOL0     C39649   2.774   0.533  -0.075  0.0234  0.7111 -0.3750
  288MOL0     C39650   2.902   0.590  -0.122  0.9247  0.9588  0.1577
  288MOL0    Cl39651   2.901   0.633  -0.296 -0.0992 -0.0606 -0.0744
  288MOL0     C39652   2.601   0.298   0.746  0.7427 -0.1293  1.0822
  288MOL0     C39653   2.464   0.290   0.773  1.3709  0.8246 -0.9298
  288MOL0     O39654   2.197   0.574   0.798  0.8951 -0.4679  0.0918
  288MOL0     C39655   1.999   0.338   0.983  0.5855 -0.1280 -0.2692
  288MOL0     C39656   1.875   0.309   1.044 -0.0777  0.3728 -0.0046
  288MOL0     N39657   1.517   0.146   0.751 -0.2095 -0.7041  0.2533
  288MOL0     N39658   1.522   0.205   0.630  0.9848  0.6456 -0.4448
  288MOL0     C39659   1.325   1.089   1.163 -0.8881 -0.1608  0.0978
  288MOL0     C39660   1.224   1.129   1.247  0.3680 -0.3463 -0.4600
  288MOL0     C39661   1.034   1.362   1.607 -0.2655 -0.4520 -0.0218
  288MOL0     C39662   0.975   1.259   1.685 -0.8794  0.0122  0.3281
  288MOL0     C39663   0.849   1.283   1.750  0.2299  0.8396  0.7995
  288MOL0     C39664   0.790   1.406   1.765 -0.5603  0.1862 -0.2435
  288MOL0     O39665   0.668   1.422   1.826  0.5115  0.2031  0.2718
  288MOL0     C39666   0.665   1.437   1.967  0.2443  0.1178 -0.6013
  288MOL0     C39667   0.687   1.583   2.006  0.5777  0.4555 -0.1924
  288MOL0     C39668   0.560   1.669   2.015 -1.1020 -0.8793 -0.0901
  288MOL0     C39669   0.588   1.823   1.986  0.6622  0.0301 -0.2391
  288MOL0     C39670   0.706   1.873   2.055 -0.4529 -0.5484  0.4356
  288MOL0     C39671   0.803   1.915   2.110  0.2271 -0.4339 -0.5325
  288MOL0     C39672   0.861   1.514   1.713  0.4216  0.5743  0.3377
  288MOL0     C39673   0.974   1.489   1.626  0.0679 -0.3289  0.9753
  288MOL0     C39674   1.035   1.606   1.558 -0.6032 -0.0482 -0.2908
  288MOL0     H39675   1.384   1.191   1.532  2.2465  1.7851 -0.4778
  288MOL0     H39676   1.572   1.087   1.380  0.4530 -0.0836  0.5373
  288MOL0     H39677   1.502   1.070   0.942  1.7642  0.7676  0.7594
  288MOL0     H39678   1.453   0.903   0.997  2.7042 -3.3358  0.1903
  288MOL0     H39679   1.749   0.951   0.952 -1.1329  2.9428  0.3350
  288MOL0     H39680   1.659   0.822   1.013  2.6206 -0.6963 -1.1010
  288MOL0     H39681   1.603   0.953   0.749  4.5530  0.1715 -1.2944
  288MOL0     H39682   1.720   0.827   0.760  0.3792  0.6705 -0.2310
  288MOL0     H39683   1.535   0.676   0.864 -1.1431  1.0847  2.1554
  288MOL0     H39684   1.417   0.779   0.827 -0.7468  1.0979 -1.6811
  288MOL0     H39685   1.600   0.690   0.597 -0.5932  1.3745 -0.9431
  288MOL0     H39686   1.431   0.752   0.587 -0.0480 -0.8755  0.0523
  288MOL0     H39687   1.510   0.482   0.714 -1.9780 -3.0678 -0.4475
  288MOL0     H39688   1.354   0.555   0.703 -0.3058  0.9248  0.1011
  288MOL0     H39689   1.529   0.472   0.472 -0.5279 -0.9832 -1.2284
  288MOL0     H39690   1.376   0.558   0.443  5.1009  4.6985  0.9573
  288MOL0     H39691   1.245   0.381   0.520  0.6782 -0.8643  1.1287
  288MOL0     H39692   1.365   0.308   0.410  0.1587  1.8853 -1.3334
  288MOL0     H39693   1.245   0.301   0.770  1.1087 -0.2346  1.3810
  288MOL0     H39694   1.394   0.034   0.980 -1.3439 -0.6495 -1.5242
  288MOL0     H39695   1.255   0.136   0.972 -0.1514  0.1315  0.7265
  288MOL0     H39696   1.432   0.338   1.032  0.1135 -0.2943 -1.0769
  288MOL0     H39697   1.373   0.231   1.156  0.3761  1.8066  0.3528
  288MOL0     H39698   1.576   0.088   1.144 -2.4115  0.9295  1.0709
  288MOL0     H39699   1.637   0.204   1.008 -4.4770  3.0196 -2.2132
  288MOL0     H39700   1.549   0.309   1.275 -1.6232  2.9305 -1.7347
  288MOL0     H39701   1.712   0.249   1.261  1.5051  2.1512 -1.5709
  288MOL0     H39702   1.742   0.613   1.042  1.5570  0.1977  0.7179
  288MOL0     H39703   1.904   0.787   0.956  0.9360 -1.1312  0.7817
  288MOL0     H39704   1.954   0.717   0.797  0.3501 -0.7084 -0.8303
  288MOL0     H39705   2.068   0.748   0.927 -0.9212  1.4790  1.3536
  288MOL0     H39706   2.442   0.616   0.899  1.0762 -0.8043  1.7488
  288MOL0     H39707   2.670   0.617   0.813 -0.1175 -0.1933 -1.3560
  288MOL0     H39708   2.881   0.603   0.745  2.1346  1.4390 -1.6281
  288MOL0     H39709   2.976   0.493   0.650 -0.9750 -2.6284 -4.0267
  288MOL0     H39710   2.704   0.597   0.574  0.8108  1.4420  4.9738
  288MOL0     H39711   2.859   0.679   0.539  1.1704 -0.8238  1.2321
  288MOL0     H39712   2.805   0.396   0.448 -4.2853  0.8850 -2.7630
  288MOL0     H39713   2.947   0.493   0.418  0.1187 -1.3144 -0.8912
  288MOL0     H39714   2.771   0.669   0.318 -1.4733 -0.2352  0.8097
  288MOL0     H39715   2.665   0.522   0.335 -0.6071  1.2712  1.3044
  288MOL0     H39716   2.928   0.556   0.184  0.3399  0.4340 -1.4448
  288MOL0     H39717   2.830   0.421   0.163 -1.1401  1.3193 -2.0001
  288MOL0     H39718   2.757   0.698   0.068 -3.0405  1.3531  2.8207
  288MOL0     H39719   2.632   0.583   0.095  0.1595  0.1353  1.8947
  288MOL0     H39720   2.697   0.571  -0.144 -1.1932  0.5725  0.8663
  288MOL0     H39721   2.779   0.424  -0.070  1.9301  0.7969  0.3071
  288MOL0     H39722   2.973   0.507  -0.112  0.9718  1.0299  0.4327
  288MOL0     H39723   2.939   0.671  -0.059 -0.7953  1.5816  0.4462
  288MOL0     H39724   2.651   0.213   0.701 -1.0385 -1.2620  1.1481
  288MOL0     H39725   2.406   0.200   0.752 -0.1667  1.8315 -1.2285
  288MOL0     H39726   2.050   0.243   0.969 -2.8304 -1.9375 -1.4886
  288MOL0     H39727   1.854   0.205   1.063 -2.9955  1.0364  0.9149
  288MOL0     H39728   1.294   1.076   1.060  0.6361  0.3737 -0.4519
  288MOL0     H39729   1.129   1.144   1.197  0.9045  0.0757 -1.3838
  288MOL0     H39730   1.017   1.159   1.695 -1.2536 -0.2232 -0.3868
  288MOL0     H39731   0.807   1.197   1.802 -1.7347  0.6469 -0.9575
  288MOL0     H39732   0.582   1.405   2.030  1.3640 -0.1460  0.7840
  288MOL0     H39733   0.745   1.374   2.007 -1.0280 -3.3027 -2.9232
  288MOL0     H39734   0.757   1.631   1.937 -1.0435  1.2138 -1.3464
  288MOL0     H39735   0.735   1.579   2.104 -0.5827  0.8259  0.3995
  288MOL0     H39736   0.488   1.636   1.941  0.5123 -3.1161 -0.7701
  288MOL0     H39737   0.536   1.672   2.122  2.9743 -0.2167  0.9821
  288MOL0     H39738   0.497   1.869   2.024 -0.1036 -0.3249 -1.5666
  288MOL0     H39739   0.590   1.845   1.879 -0.7928  2.2251  0.1081
  288MOL0     H39740   0.891   1.958   2.153 -1.0598 -2.0139  4.2879
  288MOL0     H39741   0.823   1.615   1.725  0.3014  1.0304 -2.8145
  288MOL0     H39742   1.127   1.624   1.615  0.7572 -1.6752 -1.8706
  288MOL0     H39743   1.069   1.585   1.456 -1.3667 -3.2321 -0.0006
  288MOL0     H39744   0.972   1.695   1.547  0.5581  0.4934 -4.5469
  289MOL0     O39745   5.619   2.652   7.087  0.0842 -0.6820  0.9608
  289MOL0     C39746   5.627   2.642   7.211  0.3029  0.8005 -0.6500
  289MOL0     O39747   5.731   2.705   7.278 -0.1377 -0.5214  0.0331
  289MOL0     C39748   5.836   2.750   7.209  0.3426 -0.4055 -0.6334
  289MOL0     C39749   5.879   2.883   7.223 -0.6619 -0.8056  0.3048
  289MOL0     C39750   5.986   2.942   7.148  0.3931  0.1440 -0.1225
  289MOL0     C39751   6.060   2.855   7.058  0.3907 -0.5754 -0.6131
  289MOL0     O39752   6.166   2.885   6.979  0.0104  0.6685 -1.1192
  289MOL0     C39753   6.228   3.016   7.004 -0.3967  0.7117  1.0282
  289MOL0     C39754   6.352   3.012   6.930 -0.3047 -0.0668  0.9702
  289MOL0     C39755   6.435   3.136   6.963 -0.3388 -0.2797  0.1179
  289MOL0     C39756   6.385   3.264   6.890  0.4559 -0.0697  0.0036
  289MOL0     C39757   6.395   3.268   6.735 -0.2113 -0.0823  0.9581
  289MOL0     C39758   6.525   3.229   6.677 -1.2341  0.4900  0.3395
  289MOL0     C39759   6.540   3.269   6.531  0.3376  0.4654  1.0976
  289MOL0     C39760   6.679   3.255   6.473  0.2320 -0.0642  0.6429
  289MOL0     N39761   6.673   3.286   6.329 -0.7397 -0.3197 -0.0889
  289MOL0     C39762   6.678   3.202   6.225  0.0081 -0.0862 -0.0546
  289MOL0     C39763   6.643   3.275   6.116  0.9924  0.0204  0.2611
  289MOL0     C39764   6.669   3.234   5.981  0.7011  0.6999  0.6695
  289MOL0     C39765   6.785   3.145   5.948  0.2954  0.0788 -0.9085
  289MOL0     C39766   6.921   3.222   5.924  0.4477  0.0096 -1.2235
  289MOL0     C39767   7.039   3.128   5.926 -0.5582 -0.7194  0.1826
  289MOL0     O39768   7.044   3.033   5.814  0.0168 -0.1650  0.2747
  289MOL0     C39769   7.164   2.949   5.802 -0.0816 -0.6641 -0.3493
  289MOL0     C39770   7.292   2.975   5.864  0.3664 -0.4060 -0.4444
  289MOL0     C39771   7.406   2.897   5.833  0.8691  0.0545  0.0373
  289MOL0     C39772   7.532   2.939   5.910 -0.1172 -0.2137 -0.8578
  289MOL0     C39773   7.392   2.798   5.740  0.8937  0.6290 -0.1418
  289MOL0     C39774   7.511   2.715   5.699  0.1966 -0.6834  0.0218
  289MOL0     O39775   7.513   2.686   5.567 -0.2631  0.8845  0.1764
  289MOL0     C39776   7.615   2.601   5.508  0.1825 -0.2106  0.3795
  289MOL0     C39777   7.680   2.634   5.391 -0.6972  0.3197 -0.3690
  289MOL0     C39778   7.750   2.535   5.320  0.7866 -0.5890  0.0692
  289MOL0     C39779   7.772   2.409   5.375 -0.7626  0.3365  0.1686
  289MOL0     O39780   7.867   2.343   5.303  0.1472  0.2727  0.2624
  289MOL0     C39781   7.902   2.205   5.322 -0.1383 -0.0274  0.0991
  289MOL0     C39782   8.000   2.150   5.432  0.8992 -1.1307  0.1586
  289MOL0     C39783   8.141   2.209   5.405 -0.6659 -0.3286 -0.6931
  289MOL0     C39784   8.246   2.146   5.485 -0.5750 -0.1568 -0.0314
  289MOL0     C39785   8.280   1.998   5.455  0.4467  0.6065  0.4680
  289MOL0     C39786   8.352   1.979   5.323 -0.3437  0.0252 -0.8443
  289MOL0     C39787   8.365   1.821   5.279  0.5742  0.4852  0.2108
  289MOL0     C39788   8.474   1.756   5.368  0.4339 -0.2314  0.4028
  289MOL0    Cl39789   8.383   1.704   5.513 -0.2282 -0.3043  0.2735
  289MOL0     C39790   7.714   2.376   5.505 -0.7914 -0.2246  0.5399
  289MOL0     C39791   7.631   2.469   5.564 -1.1610  0.2250 -1.2098
  289MOL0     O39792   7.601   2.688   5.784  0.3744 -0.7848  0.6323
  289MOL0     C39793   7.267   2.774   5.684 -0.5735 -0.1529  0.0451
  289MOL0     C39794   7.158   2.849   5.708 -0.3212 -0.4772  1.1596
  289MOL0     N39795   6.626   3.401   6.154  0.6228  0.9953 -0.4139
  289MOL0     N39796   6.636   3.410   6.283 -0.0340 -0.6421  0.0524
  289MOL0     C39797   6.022   2.718   7.049 -0.3529 -0.0018 -0.1989
  289MOL0     C39798   5.912   2.662   7.124  0.3070 -0.0083  0.0911
  289MOL0     C39799   5.545   2.541   7.276  0.1481 -0.8795  0.7902
  289MOL0     C39800   5.592   2.483   7.396  0.1371  0.4168  0.0613
  289MOL0     C39801   5.508   2.399   7.474 -1.6043  0.0605 -0.4650
  289MOL0     C39802   5.392   2.359   7.427  0.0989  0.4405 -1.0902
  289MOL0     O39803   5.304   2.281   7.498  0.5192  0.1263 -0.2752
  289MOL0     C39804   5.338   2.237   7.635 -0.3215 -0.3065 -0.6541
  289MOL0     C39805   5.219   2.164   7.704  0.4148 -0.2248 -0.0379
  289MOL0     C39806   5.091   2.256   7.725  0.1465  0.4205  0.2927
  289MOL0     C39807   5.100   2.406   7.727  0.8569  0.3907  0.1789
  289MOL0     C39808   5.125   2.450   7.861 -1.1624  0.7530  0.3448
  289MOL0     C39809   5.145   2.489   7.968 -0.4312 -0.3710 -0.9246
  289MOL0     C39810   5.339   2.416   7.309 -0.1047 -0.2962  0.4879
  289MOL0     C39811   5.411   2.511   7.230  0.3741  0.3114 -0.2484
  289MOL0     C39812   5.337   2.541   7.105 -0.7250 -0.3954  0.3738
  289MOL0     H39813   5.814   2.935   7.292 -0.5835  1.3948 -1.1804
  289MOL0     H39814   6.002   3.046   7.175 -2.3611  0.3339  1.1307
  289MOL0     H39815   6.251   3.034   7.109  4.0783 -0.5915  0.4640
  289MOL0     H39816   6.155   3.086   6.962 -1.9809 -1.5412 -0.2394
  289MOL0     H39817   6.410   2.928   6.969 -0.7730 -0.9834 -0.2497
  289MOL0     H39818   6.339   3.001   6.822  0.2078 -0.9440  0.9894
  289MOL0     H39819   6.434   3.141   7.073 -0.5899 -3.1197  0.3143
  289MOL0     H39820   6.536   3.113   6.929  0.4076  1.3891  1.0683
  289MOL0     H39821   6.282   3.299   6.907  0.9674  1.3231  0.3555
  289MOL0     H39822   6.457   3.332   6.935  0.9088 -0.8743  0.5227
  289MOL0     H39823   6.382   3.374   6.711 -0.8814  0.3886  3.1564
  289MOL0     H39824   6.307   3.214   6.697 -1.6306  0.8199  2.8124
  289MOL0     H39825   6.604   3.288   6.726  0.7202  0.7590 -2.8077
  289MOL0     H39826   6.541   3.122   6.690 -0.6850  0.4789 -0.3370
  289MOL0     H39827   6.512   3.373   6.516 -1.7669 -0.1068  0.7442
  289MOL0     H39828   6.471   3.203   6.478 -0.5395  1.5659  0.8465
  289MOL0     H39829   6.745   3.328   6.522  1.4317  0.7580 -2.0390
  289MOL0     H39830   6.712   3.151   6.472  1.2454  0.2121 -2.2218
  289MOL0     H39831   6.700   3.096   6.227  0.9596  0.1100  0.0773
  289MOL0     H39832   6.662   3.320   5.914 -2.5155  0.6063  0.7461
  289MOL0     H39833   6.582   3.172   5.955 -1.1085  3.2195  0.3549
  289MOL0     H39834   6.801   3.075   6.031  2.5354 -0.0525 -1.3942
  289MOL0     H39835   6.770   3.098   5.851  0.5695 -3.3683  0.5707
  289MOL0     H39836   6.913   3.286   5.835  0.5627  0.9351 -0.5906
  289MOL0     H39837   6.931   3.287   6.012  1.6255 -2.9861  1.0111
  289MOL0     H39838   7.128   3.191   5.931 -0.7576 -0.4954  1.0809
  289MOL0     H39839   7.024   3.065   6.015  0.1663 -1.4105 -0.1701
  289MOL0     H39840   7.302   3.063   5.927  0.1173  0.0198 -0.9881
  289MOL0     H39841   7.602   3.001   5.853  2.5405 -1.4001  0.9351
  289MOL0     H39842   7.590   2.853   5.944 -0.9918 -0.7348 -0.6336
  289MOL0     H39843   7.497   2.991   6.000  2.2843  0.4508 -0.2445
  289MOL0     H39844   7.668   2.736   5.355  2.1191  0.8652 -0.0008
  289MOL0     H39845   7.803   2.565   5.230  0.0839 -0.0172 -0.1674
  289MOL0     H39846   7.818   2.135   5.336  1.1080 -1.3346  1.3486
  289MOL0     H39847   7.948   2.167   5.230  0.7252 -3.9777  1.9479
  289MOL0     H39848   7.977   2.183   5.534  2.2532 -0.6289  0.3115
  289MOL0     H39849   7.996   2.041   5.437  3.2775 -1.2463  0.5078
  289MOL0     H39850   8.148   2.313   5.439 -0.5275 -0.7951  0.7967
  289MOL0     H39851   8.165   2.201   5.299 -2.5047  0.4049 -1.2050
  289MOL0     H39852   8.224   2.145   5.593 -0.0809 -0.2287  0.0719
  289MOL0     H39853   8.339   2.201   5.467 -0.5454  0.0262  0.6464
  289MOL0     H39854   8.351   1.957   5.527  2.4457  1.4434 -0.9388
  289MOL0     H39855   8.186   1.941   5.450  0.8865 -0.0411 -3.4038
  289MOL0     H39856   8.455   2.016   5.320 -0.3892  0.2978  0.4678
  289MOL0     H39857   8.302   2.037   5.244 -0.5055  1.3089  0.1664
  289MOL0     H39858   8.402   1.820   5.176  1.8931 -0.5411  0.6723
  289MOL0     H39859   8.279   1.754   5.288  0.6096  0.1467 -1.5892
  289MOL0     H39860   8.564   1.811   5.398  1.5941 -0.8997 -1.6538
  289MOL0     H39861   8.504   1.666   5.313 -0.9410 -0.5115  0.0807
  289MOL0     H39862   7.717   2.279   5.555 -2.3475 -1.7211 -2.0149
  289MOL0     H39863   7.569   2.429   5.642 -0.4752  0.9497 -0.2719
  289MOL0     H39864   7.263   2.701   5.604 -0.1109 -0.0401 -0.0853
  289MOL0     H39865   7.071   2.823   5.649  0.3774  2.3398 -1.3389
  289MOL0     H39866   6.078   2.649   6.988  3.1887 -2.4349  5.0398
  289MOL0     H39867   5.883   2.558   7.120 -1.1533  0.2851  1.8950
  289MOL0     H39868   5.690   2.478   7.442 -0.2505 -0.4243  0.8242
  289MOL0     H39869   5.548   2.366   7.569 -3.1242  1.0773  0.5555
  289MOL0     H39870   5.422   2.169   7.623  3.5282  3.8172  0.3386
  289MOL0     H39871   5.364   2.320   7.701  0.0758 -1.6313  0.9310
  289MOL0     H39872   5.255   2.142   7.805 -1.8636  0.5982  1.0299
  289MOL0     H39873   5.195   2.070   7.653 -1.4757  0.0607  0.2498
  289MOL0     H39874   5.043   2.232   7.630  2.0987 -0.3128 -0.5712
  289MOL0     H39875   5.046   2.214   7.816  1.0009 -0.4250  0.3469
  289MOL0     H39876   5.008   2.446   7.684  3.4118  1.8621 -4.5918
  289MOL0     H39877   5.178   2.446   7.662  0.8116 -1.6569 -1.2524
  289MOL0     H39878   5.151   2.530   8.067  1.7459  0.1467 -1.2124
  289MOL0     H39879   5.243   2.370   7.288  1.6997 -4.4567  0.2838
  289MOL0     H39880   5.228   2.533   7.113 -1.0831  2.5147 -0.5238
  289MOL0     H39881   5.351   2.646   7.081  0.2976 -0.0795  2.1333
  289MOL0     H39882   5.378   2.486   7.020  0.9034 -1.4297  1.7538
  290MOL0     O39883   1.248   1.879   6.514 -0.3052 -0.3535  0.2724
  290MOL0     C39884   1.366   1.915   6.518 -0.4391 -0.0931 -0.2821
  290MOL0     O39885   1.420   1.985   6.622 -0.4099  0.0450  0.0757
  290MOL0     C39886   1.334   2.007   6.718 -0.2003  0.6358 -0.1719
  290MOL0     C39887   1.315   2.147   6.746  0.2488  0.4138 -0.1487
  290MOL0     C39888   1.239   2.183   6.856  0.2344  0.2448 -0.1873
  290MOL0     C39889   1.183   2.084   6.937 -0.5268 -0.8733  0.3752
  290MOL0     O39890   1.116   2.109   7.052 -0.7390 -0.5791  0.4616
  290MOL0     C39891   1.027   2.221   7.069  0.6930 -0.3579  0.7204
  290MOL0     C39892   1.095   2.327   7.161 -1.0217  0.5826  1.0364
  290MOL0     C39893   1.094   2.291   7.314  0.6756  0.4903 -0.6433
  290MOL0     C39894   1.131   2.418   7.398  0.1137 -0.1269 -0.6404
  290MOL0     C39895   1.272   2.475   7.369 -0.3920 -0.2906 -0.1031
  290MOL0     C39896   1.314   2.588   7.457 -0.2235  0.1750  0.7181
  290MOL0     C39897   1.259   2.725   7.392 -0.5022  0.2157 -0.2944
  290MOL0     C39898   1.275   2.851   7.468  0.2886  0.0642  0.9645
  290MOL0     N39899   1.379   2.876   7.566 -0.1741 -0.1182 -0.7588
  290MOL0     C39900   1.360   2.877   7.703 -0.4640 -0.2070 -0.2938
  290MOL0     C39901   1.479   2.915   7.763  0.3904 -0.7963  0.4079
  290MOL0     C39902   1.517   2.924   7.906 -0.3357  0.1155 -1.0244
  290MOL0     C39903   1.604   3.045   7.934  0.1318  0.4187 -0.1998
  290MOL0     C39904   1.548   3.181   7.893 -0.1173  0.5104 -0.3442
  290MOL0     C39905   1.649   3.292   7.907 -0.8043 -0.1061 -0.3663
  290MOL0     O39906   1.583   3.417   7.869 -0.6472 -0.4900  0.3192
  290MOL0     C39907   1.610   3.447   7.741 -0.0967  0.9985 -0.5168
  290MOL0     C39908   1.736   3.454   7.682  0.0553  0.5561  0.7826
  290MOL0     C39909   1.768   3.494   7.550  0.8530 -1.4425 -0.0446
  290MOL0     C39910   1.908   3.527   7.505 -0.0020 -0.1227 -0.5560
  290MOL0     C39911   1.659   3.535   7.473 -0.5877  0.2029  1.1743
  290MOL0     C39912   1.661   3.583   7.329 -0.1767 -0.4346  0.4675
  290MOL0     O39913   1.553   3.563   7.244 -0.3767  0.1521 -0.4284
  290MOL0     C39914   1.537   3.642   7.141 -0.2014 -0.1969  1.5318
  290MOL0     C39915   1.448   3.744   7.148 -0.3444 -1.0388  1.2137
  290MOL0     C39916   1.437   3.843   7.049  0.5630  0.1398 -0.6851
  290MOL0     C39917   1.534   3.855   6.944 -0.0067  0.3310  0.0299
  290MOL0     O39918   1.531   3.967   6.857 -0.9289 -0.2057 -0.3527
  290MOL0     C39919   1.627   3.966   6.748 -0.1916 -0.3188 -0.6832
  290MOL0     C39920   1.572   3.882   6.640  0.4927 -0.8331  0.4264
  290MOL0     C39921   1.452   3.959   6.583 -0.7424 -0.3473 -0.2560
  290MOL0     C39922   1.396   3.858   6.480  0.2599 -0.0309  0.4472
  290MOL0     C39923   1.295   3.915   6.381  0.1919 -0.1454  0.1256
  290MOL0     C39924   1.266   3.805   6.273  0.1552  0.1066 -0.0231
  290MOL0     C39925   1.189   3.871   6.160 -0.6267 -0.3849 -0.9872
  290MOL0     C39926   1.133   3.779   6.056  0.4288  0.6525 -0.5878
  290MOL0    Cl39927   1.232   3.686   5.945  0.3950  0.0322  0.5484
  290MOL0     C39928   1.637   3.755   6.949  0.9190 -0.0114 -0.0533
  290MOL0     C39929   1.629   3.644   7.037  0.1065 -0.1618 -1.0329
  290MOL0     O39930   1.766   3.640   7.297  0.1272  0.4834 -0.4971
  290MOL0     C39931   1.529   3.533   7.527 -0.3047  0.6591  0.0467
  290MOL0     C39932   1.502   3.496   7.658  0.6087 -0.2956 -0.6713
  290MOL0     N39933   1.566   2.926   7.656 -0.1727 -0.3853 -0.5441
  290MOL0     N39934   1.509   2.889   7.543 -0.0602 -0.0999 -0.4181
  290MOL0     C39935   1.206   1.947   6.914 -0.2342 -0.1084 -0.1623
  290MOL0     C39936   1.289   1.913   6.813  0.9992  0.4595  0.4628
  290MOL0     C39937   1.448   1.887   6.396  0.0249  0.6756  0.5996
  290MOL0     C39938   1.382   1.850   6.272 -0.1345  0.5891  0.5808
  290MOL0     C39939   1.453   1.829   6.157  0.8736 -0.2249  0.9065
  290MOL0     C39940   1.584   1.837   6.153  0.7652 -0.6234 -0.0936
  290MOL0     O39941   1.635   1.807   6.034  0.1119 -0.2779 -0.8925
  290MOL0     C39942   1.681   1.926   5.967  0.4121 -0.3495 -0.5317
  290MOL0     C39943   1.693   1.900   5.818  0.2588  0.3619 -0.1057
  290MOL0     C39944   1.830   1.961   5.763  0.5535 -0.3726  0.0648
  290MOL0     C39945   1.832   1.953   5.612  0.0942  0.9957  0.5255
  290MOL0     C39946   1.947   2.017   5.549  0.1123 -0.1536 -0.2245
  290MOL0     C39947   2.049   2.066   5.497 -0.0048  0.2369  0.4397
  290MOL0     C39948   1.656   1.855   6.275  1.3259 -0.4381  0.1034
  290MOL0     C39949   1.589   1.880   6.397  0.2452  0.5127 -0.1354
  290MOL0     C39950   1.663   1.901   6.526 -0.9857  0.1919  0.0378
  290MOL0     H39951   1.350   2.228   6.683  2.1605 -0.3984 -0.1832
  290MOL0     H39952   1.241   2.288   6.883  2.0449 -0.2359  1.7683
  290MOL0     H39953   0.932   2.187   7.111  0.1101  0.5865  0.1986
  290MOL0     H39954   1.014   2.268   6.972  2.4932  1.7425  1.4240
  290MOL0     H39955   1.196   2.337   7.122 -0.1296 -2.8035  2.1942
  290MOL0     H39956   1.041   2.421   7.143  0.2212  1.0354 -0.4541
  290MOL0     H39957   0.992   2.257   7.337  1.3427 -0.8654  0.4226
  290MOL0     H39958   1.159   2.215   7.358 -0.3718  1.1877  2.3580
  290MOL0     H39959   1.063   2.502   7.384 -1.4262 -1.4885 -1.6466
  290MOL0     H39960   1.126   2.383   7.501 -1.4274 -4.0937 -1.8797
  290MOL0     H39961   1.280   2.513   7.267  0.7543  0.8880  0.3931
  290MOL0     H39962   1.346   2.399   7.393 -2.4399 -1.3010  4.0729
  290MOL0     H39963   1.294   2.595   7.564  0.3589 -0.7413  0.8916
  290MOL0     H39964   1.423   2.599   7.451 -0.2563  0.8369  1.1848
  290MOL0     H39965   1.152   2.714   7.374 -0.4274  0.9938 -1.3253
  290MOL0     H39966   1.319   2.750   7.304  1.8442 -0.0292  1.1416
  290MOL0     H39967   1.261   2.937   7.402 -3.9300  0.8708  2.5750
  290MOL0     H39968   1.180   2.849   7.522 -1.0434 -1.4108 -1.2422
  290MOL0     H39969   1.273   2.849   7.762  0.5672 -1.4789  0.7010
  290MOL0     H39970   1.565   2.832   7.940 -2.0231 -0.1823  0.7238
  290MOL0     H39971   1.427   2.938   7.967 -0.9351 -0.0432 -1.8505
  290MOL0     H39972   1.618   3.048   8.043  1.7202 -0.6491 -0.3390
  290MOL0     H39973   1.698   3.034   7.878  1.8996 -1.3894  2.8348
  290MOL0     H39974   1.521   3.175   7.787 -0.4396  0.3415 -0.2553
  290MOL0     H39975   1.456   3.209   7.946 -0.2200  2.3438 -1.4351
  290MOL0     H39976   1.674   3.300   8.013 -0.2848 -0.4202 -0.4611
  290MOL0     H39977   1.743   3.264   7.858 -1.4365 -2.6521 -0.2866
  290MOL0     H39978   1.821   3.446   7.749  1.1551  1.7634 -0.3863
  290MOL0     H39979   1.920   3.492   7.402 -2.0398  0.5177 -1.0693
  290MOL0     H39980   1.988   3.496   7.573  1.2794  1.2937 -1.3468
  290MOL0     H39981   1.913   3.636   7.495  0.7968 -0.0460  0.5133
  290MOL0     H39982   1.361   3.749   7.213 -1.1016 -2.4626  0.3682
  290MOL0     H39983   1.360   3.918   7.068  0.7518  0.3825 -0.8654
  290MOL0     H39984   1.656   4.067   6.720  1.1504 -0.7229 -0.8121
  290MOL0     H39985   1.729   3.936   6.773 -0.5629 -1.0651  0.0088
  290MOL0     H39986   1.639   3.857   6.557 -0.5490 -1.8457 -0.1332
  290MOL0     H39987   1.537   3.788   6.684 -2.1848 -0.1792 -0.1104
  290MOL0     H39988   1.468   4.056   6.536 -2.0731 -0.0226 -0.0737
  290MOL0     H39989   1.378   3.967   6.663 -2.2270 -1.7880 -1.3856
  290MOL0     H39990   1.357   3.775   6.540  0.5490 -0.2848  0.2796
  290MOL0     H39991   1.479   3.826   6.417 -0.0442  0.2091 -0.0809
  290MOL0     H39992   1.204   3.949   6.430 -0.4911  0.2739 -1.3945
  290MOL0     H39993   1.335   4.006   6.336  2.2036 -0.5893  0.8857
  290MOL0     H39994   1.207   3.730   6.326 -0.2268  0.3021 -0.1713
  290MOL0     H39995   1.360   3.764   6.234  0.5503 -2.6553  3.3153
  290MOL0     H39996   1.259   3.936   6.108  2.4588 -1.3810  1.5489
  290MOL0     H39997   1.104   3.926   6.202  0.8433  1.6130 -0.5111
  290MOL0     H39998   1.061   3.837   5.997  0.3138  0.2008 -0.8978
  290MOL0     H39999   1.064   3.707   6.102  0.3189 -0.9175 -2.9956
  290MOL0     H40000   1.713   3.763   6.872  1.5840 -0.8365  0.5021
  290MOL0     H40001   1.709   3.570   7.036 -1.5936 -2.1045 -1.4682
  290MOL0     H40002   1.447   3.572   7.468 -1.4502  1.3179  1.9681
  290MOL0     H40003   1.408   3.482   7.709  1.6725  1.6614  2.0965
  290MOL0     H40004   1.155   1.885   6.987 -5.3983  3.8192  0.1083
  290MOL0     H40005   1.327   1.814   6.793 -0.3294 -0.0388  0.2809
  290MOL0     H40006   1.275   1.845   6.261 -0.2035  2.6340 -0.0223
  290MOL0     H40007   1.397   1.825   6.063 -0.6950 -0.8422  1.8298
  290MOL0     H40008   1.614   2.011   5.981  1.6285  0.5045  0.2816
  290MOL0     H40009   1.781   1.948   6.006 -0.8383  0.6454  2.3773
  290MOL0     H40010   1.612   1.948   5.763  3.4981  2.5954 -3.4060
  290MOL0     H40011   1.708   1.793   5.799  3.1000  0.5447  0.7285
  290MOL0     H40012   1.842   2.066   5.790  0.5308 -0.9460  2.4601
  290MOL0     H40013   1.919   1.907   5.795  1.3011 -0.1636 -1.5440
  290MOL0     H40014   1.741   2.002   5.574 -1.2150 -0.6367  1.3999
  290MOL0     H40015   1.824   1.849   5.580 -5.2487  1.5136 -0.8096
  290MOL0     H40016   2.142   2.096   5.453 -0.0870 -1.2241 -0.8027
  290MOL0     H40017   1.765   1.858   6.272  1.3190 -0.6700 -0.4400
  290MOL0     H40018   1.622   1.860   6.619 -1.5005  3.3632  1.3643
  290MOL0     H40019   1.769   1.876   6.531 -1.2916 -1.0348  0.9282
  290MOL0     H40020   1.671   2.009   6.543  0.6913  0.1567 -0.3465
  291MOL0     O40021   0.346   5.036   1.108 -0.1527 -0.1370  0.5174
  291MOL0     C40022   0.367   4.983   0.996 -0.4419 -0.5629 -0.2491
  291MOL0     O40023   0.297   5.012   0.874  0.5143 -0.6364 -0.3071
  291MOL0     C40024   0.202   5.112   0.863  0.7314  0.4414  0.3457
  291MOL0     C40025   0.203   5.229   0.940  0.4580  0.1969 -0.0200
  291MOL0     C40026   0.109   5.323   0.932  0.9630 -0.9924 -0.5445
  291MOL0     C40027   0.023   5.326   0.832  0.2889 -0.2979  0.3003
  291MOL0     O40028  -0.056   5.435   0.817 -0.6500 -0.2935 -0.2173
  291MOL0     C40029  -0.188   5.413   0.755 -0.5565 -0.0603 -0.3111
  291MOL0     C40030  -0.189   5.456   0.606 -0.6013  0.1443  0.4081
  291MOL0     C40031  -0.328   5.432   0.540  0.2793  1.0714  0.1664
  291MOL0     C40032  -0.359   5.543   0.441  0.5724  0.2026 -0.0667
  291MOL0     C40033  -0.512   5.534   0.400 -0.0058 -0.6804  0.1790
  291MOL0     C40034  -0.524   5.627   0.271  0.3128 -0.0658 -0.0999
  291MOL0     C40035  -0.448   5.775   0.287  0.0913 -0.1730  1.2467
  291MOL0     C40036  -0.493   5.869   0.183  0.9129 -1.0031 -0.9536
  291MOL0     N40037  -0.612   5.950   0.229 -0.9192 -0.1419  0.6273
  291MOL0     C40038  -0.614   6.069   0.299  0.2604 -0.6681  0.0465
  291MOL0     C40039  -0.742   6.083   0.338  0.2574 -0.6445 -0.0124
  291MOL0     C40040  -0.788   6.206   0.402  0.5839 -0.2800 -0.1821
  291MOL0     C40041  -0.797   6.318   0.299 -0.4789 -0.9014  0.3637
  291MOL0     C40042  -0.853   6.449   0.362 -0.2822  0.4335  0.0034
  291MOL0     C40043  -0.990   6.434   0.427 -0.0348  0.2382  0.1067
  291MOL0     O40044  -1.071   6.553   0.417 -0.3148  0.2306 -0.8018
  291MOL0     C40045  -1.163   6.567   0.520 -0.0355 -0.4338  0.2746
  291MOL0     C40046  -1.152   6.670   0.622  0.4612 -0.9719  0.6599
  291MOL0     C40047  -1.245   6.706   0.715 -0.4808  1.0860  0.0672
  291MOL0     C40048  -1.208   6.831   0.799 -0.1330 -0.0603  0.5780
  291MOL0     C40049  -1.357   6.617   0.725  0.1131 -0.9292  0.2602
  291MOL0     C40050  -1.458   6.640   0.834 -0.5709  0.9313  0.3138
  291MOL0     O40051  -1.446   6.745   0.914 -0.3314  1.0581 -0.3358
  291MOL0     C40052  -1.525   6.754   1.025  0.2206 -0.4338  0.6176
  291MOL0     C40053  -1.493   6.708   1.154 -0.0262 -1.3581 -0.5260
  291MOL0     C40054  -1.586   6.750   1.250  0.9044 -0.8176 -1.4217
  291MOL0     C40055  -1.699   6.819   1.230 -0.7032 -0.2461  0.1874
  291MOL0     O40056  -1.777   6.856   1.340 -0.6817  0.1309  0.3514
  291MOL0     C40057  -1.854   6.976   1.340  0.4404 -0.3974 -0.5636
  291MOL0     C40058  -1.988   6.948   1.286  0.0841 -0.3294  0.2297
  291MOL0     C40059  -2.075   7.077   1.307  0.3513  0.6555 -0.5036
  291MOL0     C40060  -2.107   7.128   1.161  0.1966 -0.9329 -0.3117
  291MOL0     C40061  -2.169   7.265   1.144  0.3687 -0.6692  0.4376
  291MOL0     C40062  -2.186   7.305   0.996  0.0999  0.0152  0.0109
  291MOL0     C40063  -2.236   7.450   0.973 -0.5029 -0.0460 -0.9300
  291MOL0     C40064  -2.198   7.497   0.834  0.8229  0.3313 -1.5219
  291MOL0    Cl40065  -2.313   7.397   0.705  0.0180 -0.0933 -0.6715
  291MOL0     C40066  -1.735   6.842   1.096  0.4172 -0.9256 -0.3881
  291MOL0     C40067  -1.644   6.830   0.993 -0.1278  0.7982 -0.0900
  291MOL0     O40068  -1.558   6.566   0.836 -0.3743 -0.0255  0.1337
  291MOL0     C40069  -1.361   6.503   0.639  0.3675 -0.3865 -0.2424
  291MOL0     C40070  -1.274   6.481   0.537  0.4003  0.2027  0.1538
  291MOL0     N40071  -0.816   5.972   0.294  0.5470 -0.1886 -0.2097
  291MOL0     N40072  -0.739   5.895   0.221  0.5852 -0.3618  0.2646
  291MOL0     C40073   0.014   5.214   0.747  0.8615  0.8176 -0.7693
  291MOL0     C40074   0.103   5.105   0.766  0.0083 -0.1068 -0.0275
  291MOL0     C40075   0.474   4.887   0.979 -0.2642  0.0409 -0.4266
  291MOL0     C40076   0.524   4.874   0.851  0.9822 -0.0350  0.6371
  291MOL0     C40077   0.637   4.783   0.819 -0.1045 -0.8159  0.3393
  291MOL0     C40078   0.687   4.708   0.927 -0.7427  0.2535  0.2085
  291MOL0     O40079   0.784   4.615   0.891  0.1925 -0.0258 -0.0600
  291MOL0     C40080   0.894   4.612   0.987 -0.2674 -0.4849  0.4864
  291MOL0     C40081   0.979   4.741   1.003 -0.5056 -0.8035 -0.5800
  291MOL0     C40082   1.129   4.703   1.042  0.4311 -0.5600  0.1960
  291MOL0     C40083   1.198   4.831   1.091 -0.9007 -0.6136 -0.2094
  291MOL0     C40084   1.140   4.876   1.217  0.4828 -0.1526  0.2760
  291MOL0     C40085   1.093   4.917   1.314  0.8440  0.1234 -0.6849
  291MOL0     C40086   0.639   4.733   1.058  0.6059  0.7082  0.2476
  291MOL0     C40087   0.535   4.818   1.080  0.2131 -1.0666 -0.4172
  291MOL0     C40088   0.474   4.808   1.222  0.0399  0.3551  0.2165
  291MOL0     H40089   0.276   5.242   1.020  0.0277  2.7275  0.0158
  291MOL0     H40090   0.115   5.404   1.004  1.5767  0.6059 -2.3183
  291MOL0     H40091  -0.264   5.473   0.807 -1.0164  0.7203 -1.8244
  291MOL0     H40092  -0.212   5.307   0.764 -0.6785 -0.0451 -0.4678
  291MOL0     H40093  -0.164   5.562   0.604  2.1282 -0.3651 -2.8894
  291MOL0     H40094  -0.114   5.391   0.559 -2.8719 -0.6720 -2.3998
  291MOL0     H40095  -0.325   5.333   0.493  2.8431  1.3088 -0.3181
  291MOL0     H40096  -0.403   5.429   0.620 -3.0214 -2.1574 -2.6929
  291MOL0     H40097  -0.343   5.640   0.490  1.8224 -0.5364  1.0860
  291MOL0     H40098  -0.296   5.535   0.352 -0.4124 -1.8400 -0.6473
  291MOL0     H40099  -0.571   5.577   0.481 -2.2907 -1.0264 -1.2147
  291MOL0     H40100  -0.542   5.434   0.368 -0.9944 -0.1190 -0.7446
  291MOL0     H40101  -0.470   5.592   0.183  0.3454  0.2617 -0.2109
  291MOL0     H40102  -0.632   5.633   0.254  0.0355 -1.5619  0.9478
  291MOL0     H40103  -0.338   5.778   0.287  0.0754  1.5095  2.3315
  291MOL0     H40104  -0.466   5.815   0.387 -1.1489 -1.1953  1.4527
  291MOL0     H40105  -0.420   5.944   0.151  0.2300 -0.4147 -1.1774
  291MOL0     H40106  -0.530   5.811   0.097 -0.8235 -0.3926 -0.6582
  291MOL0     H40107  -0.533   6.135   0.330 -1.3143  0.3585  2.2825
  291MOL0     H40108  -0.723   6.244   0.482  1.3182 -0.5610 -0.6370
  291MOL0     H40109  -0.886   6.187   0.445  1.5982 -2.0751  1.4943
  291MOL0     H40110  -0.698   6.331   0.255 -1.1168  0.7707 -0.6644
  291MOL0     H40111  -0.851   6.289   0.209  0.5960  0.9240 -0.9389
  291MOL0     H40112  -0.776   6.474   0.435  0.8676 -1.8346 -0.3371
  291MOL0     H40113  -0.868   6.526   0.286 -0.0131 -2.3379 -3.0828
  291MOL0     H40114  -1.045   6.363   0.364  1.5429  0.2681 -1.3734
  291MOL0     H40115  -0.991   6.386   0.525 -3.1962  0.2420  0.1943
  291MOL0     H40116  -1.064   6.732   0.613  0.1118 -0.7654 -2.8384
  291MOL0     H40117  -1.102   6.857   0.801  0.1531 -1.2322  1.6308
  291MOL0     H40118  -1.228   6.809   0.904 -2.4006  2.6018  0.8144
  291MOL0     H40119  -1.274   6.915   0.776 -1.4259 -1.4277 -1.0340
  291MOL0     H40120  -1.399   6.659   1.177  1.1636  1.9143  2.5354
  291MOL0     H40121  -1.550   6.744   1.352 -0.7551  2.2066 -0.5329
  291MOL0     H40122  -1.857   7.008   1.444  0.6284 -0.7286 -0.4544
  291MOL0     H40123  -1.810   7.058   1.282  3.4503 -0.2553  1.6842
  291MOL0     H40124  -1.992   6.914   1.182 -1.5293  0.2962  0.0563
  291MOL0     H40125  -2.039   6.874   1.349 -0.2053  1.1911  1.8926
  291MOL0     H40126  -2.020   7.150   1.367  1.1591 -0.1427 -0.2407
  291MOL0     H40127  -2.163   7.051   1.366  2.5577  0.5264  2.9980
  291MOL0     H40128  -2.164   7.051   1.109  1.2865 -0.3669 -2.4453
  291MOL0     H40129  -2.012   7.131   1.107 -0.0882 -0.9114 -0.8183
  291MOL0     H40130  -2.263   7.269   1.201 -0.2703  1.7883 -0.6386
  291MOL0     H40131  -2.103   7.344   1.179 -0.3500  0.6428 -1.0560
  291MOL0     H40132  -2.265   7.248   0.946  0.0868  1.1566 -1.3130
  291MOL0     H40133  -2.090   7.291   0.944  1.3028  6.7120 -0.3795
  291MOL0     H40134  -2.182   7.513   1.045  0.6762 -1.4257 -0.5727
  291MOL0     H40135  -2.343   7.459   0.997  0.0961  0.8511  1.6439
  291MOL0     H40136  -2.091   7.485   0.811  0.4951 -2.4250 -1.9345
  291MOL0     H40137  -2.222   7.604   0.836 -1.4000 -0.1256  0.9961
  291MOL0     H40138  -1.821   6.904   1.072  1.5520  1.1055  0.4899
  291MOL0     H40139  -1.664   6.865   0.893  1.3431 -1.3948 -1.2277
  291MOL0     H40140  -1.431   6.421   0.651 -1.4228  1.0550 -0.3083
  291MOL0     H40141  -1.283   6.394   0.472 -1.0368  0.1469  0.3988
  291MOL0     H40142  -0.053   5.210   0.662 -2.2745  0.9704  1.5389
  291MOL0     H40143   0.084   5.020   0.700 -0.5446 -0.7752  0.9552
  291MOL0     H40144   0.482   4.918   0.761  0.4784 -4.6577 -1.6629
  291MOL0     H40145   0.674   4.757   0.720  1.2071 -2.3838  1.1803
  291MOL0     H40146   0.858   4.577   1.085  0.0290 -3.8498 -0.4893
  291MOL0     H40147   0.965   4.537   0.952 -1.2427 -0.6411 -1.2470
  291MOL0     H40148   0.933   4.801   1.081 -1.8588  0.4216 -2.2350
  291MOL0     H40149   0.974   4.794   0.907 -1.0369  1.5209  0.6523
  291MOL0     H40150   1.109   4.635   1.126 -2.3630  2.5623  2.3308
  291MOL0     H40151   1.190   4.659   0.963  0.7645 -0.1517  0.2219
  291MOL0     H40152   1.184   4.914   1.021  3.4471 -0.3220 -0.9780
  291MOL0     H40153   1.305   4.819   1.107 -1.0210  1.1047  2.5209
  291MOL0     H40154   1.062   4.957   1.408 -0.6824 -2.0608 -0.1877
  291MOL0     H40155   0.678   4.671   1.138 -0.2289 -0.7740 -0.4541
  291MOL0     H40156   0.494   4.896   1.285  1.0197 -0.5272  1.1642
  291MOL0     H40157   0.365   4.814   1.222  0.0567  1.5931 -1.5631
  291MOL0     H40158   0.518   4.727   1.280 -1.3874  1.4096  2.9252
  292MOL0     O40159   7.326   7.660   9.179  0.2070 -0.3073 -0.2194
  292MOL0     C40160   7.337   7.710   9.292  0.7090 -0.2244 -0.5471
  292MOL0     O40161   7.245   7.773   9.366  0.0761  0.1397 -0.4888
  292MOL0     C40162   7.157   7.850   9.300 -0.3824 -0.2551  0.0140
  292MOL0     C40163   7.159   7.992   9.319 -0.8950  0.4058  0.5383
  292MOL0     C40164   7.041   8.073   9.295 -1.1366 -0.1390  0.3239
  292MOL0     C40165   6.934   8.017   9.227 -0.0506  0.5347  0.0367
  292MOL0     O40166   6.813   8.079   9.207  0.1003  0.7025  0.6384
  292MOL0     C40167   6.775   8.211   9.261  0.3064 -1.0239 -0.0709
  292MOL0     C40168   6.623   8.218   9.253 -1.0423 -0.8294  1.0129
  292MOL0     C40169   6.580   8.253   9.113 -0.0565  0.4284  0.0688
  292MOL0     C40170   6.430   8.273   9.101  0.0496 -0.3664 -0.0112
  292MOL0     C40171   6.385   8.302   8.958 -0.2896  0.4926  0.3815
  292MOL0     C40172   6.426   8.432   8.906 -0.2348  0.0383 -0.1571
  292MOL0     C40173   6.350   8.474   8.774 -0.7786 -0.8348 -0.2146
  292MOL0     C40174   6.408   8.603   8.724  0.3035 -0.6023  0.0804
  292MOL0     N40175   6.372   8.637   8.586 -0.0466  0.1264 -0.2379
  292MOL0     C40176   6.352   8.548   8.478 -0.3155  0.1236 -0.8292
  292MOL0     C40177   6.354   8.617   8.369  0.5776  0.5446  0.1190
  292MOL0     C40178   6.355   8.560   8.234  0.9628 -0.3809 -0.1261
  292MOL0     C40179   6.239   8.613   8.147 -0.2379 -0.2729 -0.0344
  292MOL0     C40180   6.221   8.516   8.029  0.3545 -0.2049  0.6425
  292MOL0     C40181   6.098   8.533   7.943  0.2548 -0.3957 -0.4148
  292MOL0     O40182   6.126   8.660   7.881 -0.0791 -0.0392  1.2892
  292MOL0     C40183   6.087   8.691   7.750 -0.8327  0.5538  0.8405
  292MOL0     C40184   6.127   8.809   7.693  1.1658  0.1986 -0.9208
  292MOL0     C40185   6.119   8.844   7.563 -0.5060  0.5070  0.1899
  292MOL0     C40186   6.176   8.976   7.522  0.8949  0.5684 -0.3503
  292MOL0     C40187   6.032   8.753   7.484 -0.1837 -0.3662 -0.4870
  292MOL0     C40188   6.000   8.789   7.338  0.5744  0.0706 -0.9973
  292MOL0     O40189   5.904   8.709   7.281  0.1456 -0.5565  0.5083
  292MOL0     C40190   5.878   8.729   7.148  0.2421  0.4096  0.1167
  292MOL0     C40191   5.923   8.632   7.055  0.2105 -0.1635 -0.1343
  292MOL0     C40192   5.900   8.656   6.920 -0.7034  0.5069  0.7170
  292MOL0     C40193   5.855   8.778   6.862  0.7904  0.2921 -0.1736
  292MOL0     O40194   5.851   8.786   6.730  0.2415  0.4151 -0.0500
  292MOL0     C40195   5.796   8.904   6.665  0.6121 -0.1891  0.2100
  292MOL0     C40196   5.758   8.864   6.519  0.2383  0.1902 -0.2160
  292MOL0     C40197   5.618   8.801   6.500 -0.8188 -0.4723 -0.0502
  292MOL0     C40198   5.581   8.694   6.597  0.4692 -0.3515 -1.4296
  292MOL0     C40199   5.455   8.613   6.544 -0.5763  0.1549  0.7999
  292MOL0     C40200   5.318   8.684   6.570  0.0276 -1.0830  0.2687
  292MOL0     C40201   5.192   8.627   6.504 -0.5521  0.8721 -0.0286
  292MOL0     C40202   5.066   8.719   6.530 -1.3232 -0.0270 -0.2852
  292MOL0    Cl40203   5.070   8.853   6.406  0.0515 -0.3015  0.2277
  292MOL0     C40204   5.807   8.868   6.958 -0.9399  0.5753  0.3281
  292MOL0     C40205   5.816   8.846   7.094 -1.3284  0.2803  0.2660
  292MOL0     O40206   6.051   8.887   7.287  0.0732 -0.4392 -0.3281
  292MOL0     C40207   5.979   8.637   7.540 -0.1795 -0.6307  0.6384
  292MOL0     C40208   6.006   8.607   7.676  0.0917  0.0134  0.4821
  292MOL0     N40209   6.363   8.750   8.402  0.5944 -0.1909  0.2467
  292MOL0     N40210   6.381   8.765   8.526  0.0103 -0.0788  0.5243
  292MOL0     C40211   6.926   7.880   9.206 -0.5164  0.0450  0.0324
  292MOL0     C40212   7.034   7.794   9.244  0.0088 -0.2719  0.2616
  292MOL0     C40213   7.464   7.696   9.366  0.5303 -0.3346  0.1672
  292MOL0     C40214   7.489   7.788   9.472 -0.0862  0.2339 -0.9128
  292MOL0     C40215   7.602   7.784   9.553  0.5434  0.1464 -0.6440
  292MOL0     C40216   7.697   7.684   9.528 -0.6895 -0.9303  0.4209
  292MOL0     O40217   7.807   7.670   9.608 -0.6489  0.5463  0.7165
  292MOL0     C40218   7.903   7.775   9.586  0.0588  0.0208 -0.4509
  292MOL0     C40219   8.022   7.742   9.680  0.2274 -0.0795 -1.0998
  292MOL0     C40220   8.107   7.629   9.624  0.3346 -0.7348  0.1325
  292MOL0     C40221   8.214   7.578   9.716 -0.2023 -0.3054  0.2070
  292MOL0     C40222   8.324   7.672   9.747  0.2533 -0.3612 -0.2376
  292MOL0     C40223   8.419   7.745   9.767  0.6394 -0.3086  0.2522
  292MOL0     C40224   7.675   7.594   9.422 -0.0629 -0.1772 -0.0214
  292MOL0     C40225   7.564   7.603   9.338  0.5757  0.4274  0.1689
  292MOL0     C40226   7.545   7.486   9.240 -0.2486  0.3133  0.3361
  292MOL0     H40227   7.238   8.035   9.379 -0.9877 -1.4715  2.1086
  292MOL0     H40228   7.038   8.175   9.333  2.6128 -0.3670  1.6646
  292MOL0     H40229   6.838   8.288   9.217  0.7043 -0.1761  1.8942
  292MOL0     H40230   6.796   8.219   9.368  1.4061  0.4662 -0.3618
  292MOL0     H40231   6.583   8.128   9.300 -1.4981 -1.1243  0.0893
  292MOL0     H40232   6.595   8.310   9.306  1.9424  1.1590 -0.5546
  292MOL0     H40233   6.627   8.348   9.086 -0.1981 -0.0029 -1.8720
  292MOL0     H40234   6.616   8.178   9.042 -0.3853  0.8254 -0.5294
  292MOL0     H40235   6.383   8.177   9.125 -0.0155 -0.5662 -0.9130
  292MOL0     H40236   6.388   8.349   9.168 -0.8275 -0.5463 -0.3478
  292MOL0     H40237   6.276   8.308   8.966 -0.5013  1.0636 -2.1582
  292MOL0     H40238   6.415   8.227   8.885 -4.1946 -1.2718  0.3529
  292MOL0     H40239   6.413   8.510   8.981  1.3983  0.7454 -0.5618
  292MOL0     H40240   6.533   8.446   8.888 -0.4561  1.6833 -0.3876
  292MOL0     H40241   6.241   8.481   8.786 -0.7278 -1.2023  0.5506
  292MOL0     H40242   6.366   8.391   8.705 -3.8613 -2.0473  0.3539
  292MOL0     H40243   6.384   8.692   8.784  0.5544 -0.6296  0.2250
  292MOL0     H40244   6.518   8.602   8.729  0.3250  0.9050  0.3855
  292MOL0     H40245   6.348   8.439   8.481 -0.0141 -0.0506 -4.0542
  292MOL0     H40246   6.345   8.451   8.241 -0.5199 -0.1795  1.2977
  292MOL0     H40247   6.447   8.587   8.180  0.8983  1.8500  0.7680
  292MOL0     H40248   6.145   8.615   8.204 -0.9835 -1.9829 -1.1231
  292MOL0     H40249   6.266   8.712   8.110 -3.5537  1.5242  1.8097
  292MOL0     H40250   6.304   8.526   7.958 -0.5698 -0.5486 -0.5103
  292MOL0     H40251   6.210   8.416   8.072  0.7826 -1.8354 -2.7215
  292MOL0     H40252   6.078   8.449   7.876 -0.6983 -1.7312  1.4539
  292MOL0     H40253   6.003   8.541   7.995  0.7367  1.6080  0.2432
  292MOL0     H40254   6.175   8.875   7.765 -0.9821  0.5550  0.2642
  292MOL0     H40255   6.243   9.010   7.602  2.0397 -1.4778 -0.3528
  292MOL0     H40256   6.101   9.052   7.499  0.4706  0.1864 -0.2278
  292MOL0     H40257   6.232   8.966   7.429  2.1819 -0.5871  0.4919
  292MOL0     H40258   5.969   8.538   7.082  0.5910 -0.2512 -1.0545
  292MOL0     H40259   5.939   8.584   6.848  0.5947  1.7192  0.1599
  292MOL0     H40260   5.700   8.934   6.709 -0.1841 -1.2172 -0.7590
  292MOL0     H40261   5.863   8.990   6.672  0.9098 -0.3437 -0.6227
  292MOL0     H40262   5.778   8.950   6.454 -1.1755 -0.9285 -2.2226
  292MOL0     H40263   5.831   8.794   6.479 -0.2895 -0.1557 -0.5860
  292MOL0     H40264   5.629   8.762   6.399 -1.9270  0.2677 -0.4644
  292MOL0     H40265   5.550   8.887   6.501  1.2826  1.2973  0.8231
  292MOL0     H40266   5.555   8.749   6.689  2.0685 -1.2308 -0.4081
  292MOL0     H40267   5.660   8.625   6.627 -0.3236 -0.7826 -0.2639
  292MOL0     H40268   5.458   8.609   6.434 -0.6695 -0.3953  0.8150
  292MOL0     H40269   5.439   8.509   6.572  1.1492  0.2282  2.1584
  292MOL0     H40270   5.332   8.790   6.545  2.4846 -1.1596  1.0495
  292MOL0     H40271   5.299   8.690   6.678  0.0619 -0.3617  0.2443
  292MOL0     H40272   5.173   8.527   6.545 -0.0605 -0.3285 -2.5259
  292MOL0     H40273   5.204   8.614   6.396  2.6770 -0.2541  0.3509
  292MOL0     H40274   5.065   8.767   6.628 -3.3474  1.5914 -1.0187
  292MOL0     H40275   4.979   8.652   6.523  0.4068 -2.8498  2.4421
  292MOL0     H40276   5.756   8.957   6.924 -1.7947  0.4478  1.2457
  292MOL0     H40277   5.792   8.929   7.159  2.3111  2.7291 -1.2273
  292MOL0     H40278   5.914   8.576   7.479  0.0884  0.6715 -1.0282
  292MOL0     H40279   5.958   8.517   7.712 -0.5626  0.5621  1.0056
  292MOL0     H40280   6.834   7.837   9.169  0.4417 -1.6356 -0.5041
  292MOL0     H40281   7.037   7.686   9.241  1.0271 -0.3018  1.4889
  292MOL0     H40282   7.412   7.860   9.495 -1.0096 -1.0166  0.0813
  292MOL0     H40283   7.627   7.858   9.628  1.4126  1.7967 -2.4796
  292MOL0     H40284   7.943   7.779   9.484 -1.5422  0.2393 -1.0973
  292MOL0     H40285   7.856   7.869   9.616  0.3182 -0.0042  0.0441
  292MOL0     H40286   7.987   7.723   9.782  0.4333 -1.6692 -1.2909
  292MOL0     H40287   8.080   7.834   9.690  2.0007 -1.2908  0.5621
  292MOL0     H40288   8.051   7.539   9.593 -0.8432 -0.7763  2.2180
  292MOL0     H40289   8.161   7.667   9.536  0.5785 -0.2765  0.4786
  292MOL0     H40290   8.254   7.484   9.676  1.1801 -0.0854  1.0329
  292MOL0     H40291   8.168   7.551   9.812 -2.1027  0.7819 -0.3513
  292MOL0     H40292   8.497   7.816   9.786 -0.7042  1.6379 -1.0751
  292MOL0     H40293   7.750   7.517   9.410 -0.5872 -0.3457 -2.7835
  292MOL0     H40294   7.642   7.447   9.210 -0.0060 -1.3201  2.8962
  292MOL0     H40295   7.485   7.409   9.290 -1.0777 -1.7089 -3.4313
  292MOL0     H40296   7.491   7.510   9.148  2.5224 -3.4126 -2.5417
  293MOL0     O40297   0.497   1.729   1.254 -0.4496 -0.3296  0.1802
  293MOL0     C40298   0.465   1.845   1.236  0.5659 -0.2148  0.6162
  293MOL0     O40299   0.547   1.945   1.188  0.3910 -0.3238 -0.4359
  293MOL0     C40300   0.678   1.904   1.174  0.3150  0.2015  0.3237
  293MOL0     C40301   0.753   1.849   1.285 -0.1370 -0.7292  0.4154
  293MOL0     C40302   0.889   1.827   1.278 -0.3047  0.0710  0.4045
  293MOL0     C40303   0.947   1.831   1.155 -0.4573 -0.4880  0.7692
  293MOL0     O40304   1.083   1.817   1.150  0.4869 -0.1056 -0.1656
  293MOL0     C40305   1.144   1.766   1.035  0.1791 -0.5187 -0.7439
  293MOL0     C40306   1.270   1.697   1.083  0.5287  0.1011 -0.3746
  293MOL0     C40307   1.375   1.781   1.162 -0.1000  0.0155  0.0837
  293MOL0     C40308   1.467   1.690   1.246  0.1823 -0.4504 -0.0688
  293MOL0     C40309   1.538   1.586   1.157  0.1597  0.0647 -0.1171
  293MOL0     C40310   1.647   1.515   1.231  0.1704  0.2156 -0.1518
  293MOL0     C40311   1.702   1.391   1.158 -0.0450  0.5798  0.5265
  293MOL0     C40312   1.729   1.393   1.004  1.3105  0.0907  0.3147
  293MOL0     N40313   1.824   1.291   0.963 -0.1978  1.1505 -0.3830
  293MOL0     C40314   1.818   1.215   0.845  0.1173 -0.0437  0.1727
  293MOL0     C40315   1.925   1.140   0.839 -0.1815  0.8209  0.4347
  293MOL0     C40316   1.961   1.058   0.716 -0.7274 -1.1246  1.0507
  293MOL0     C40317   2.095   1.111   0.647 -0.1248 -0.3899  0.1747
  293MOL0     C40318   2.072   1.242   0.567 -0.3560 -0.3268  0.3425
  293MOL0     C40319   2.194   1.295   0.509 -1.3469 -0.1673 -0.5350
  293MOL0     O40320   2.145   1.392   0.412  0.4418 -0.6993  0.0953
  293MOL0     C40321   2.212   1.427   0.298 -0.2501 -0.1492 -0.1760
  293MOL0     C40322   2.338   1.377   0.271  0.0882 -0.4029  0.7775
  293MOL0     C40323   2.408   1.414   0.155 -1.1427 -0.1027  0.1050
  293MOL0     C40324   2.553   1.358   0.141 -0.0149  0.9123  0.4990
  293MOL0     C40325   2.346   1.497   0.053  0.0095 -0.0292 -0.8257
  293MOL0     C40326   2.405   1.536  -0.079  0.0523  0.6165  0.3641
  293MOL0     O40327   2.327   1.619  -0.150 -0.6383  0.5387  0.0899
  293MOL0     C40328   2.339   1.641  -0.284  0.6740  0.3921  0.5912
  293MOL0     C40329   2.297   1.766  -0.331 -0.7569  0.0229 -0.5354
  293MOL0     C40330   2.308   1.803  -0.474  0.4364  0.1708 -0.4805
  293MOL0     C40331   2.364   1.711  -0.562 -0.1145 -0.3773 -0.3764
  293MOL0     O40332   2.399   1.737  -0.689 -0.1669 -0.0085 -0.8630
  293MOL0     C40333   2.460   1.868  -0.711 -0.3416  0.4069 -1.0350
  293MOL0     C40334   2.570   1.863  -0.809  0.4011  0.0759 -0.4701
  293MOL0     C40335   2.534   1.790  -0.938  0.5487 -0.9707 -0.1005
  293MOL0     C40336   2.633   1.828  -1.047  0.5112 -0.4094  0.6774
  293MOL0     C40337   2.571   1.778  -1.177  0.4968 -0.5165 -0.5302
  293MOL0     C40338   2.665   1.787  -1.294  0.5767  1.4158 -0.0426
  293MOL0     C40339   2.772   1.672  -1.288  0.3478  0.3392 -0.7111
  293MOL0     C40340   2.865   1.698  -1.411  0.1742  0.6436 -0.2314
  293MOL0    Cl40341   2.804   1.658  -1.583  0.0473  0.5287  0.1742
  293MOL0     C40342   2.403   1.577  -0.514  0.4915 -1.1354 -0.2421
  293MOL0     C40343   2.391   1.553  -0.378  0.0994 -0.1549  0.0066
  293MOL0     O40344   2.519   1.501  -0.105  0.1568  0.4587 -0.5018
  293MOL0     C40345   2.220   1.550   0.085  0.5815  0.7692 -0.2758
  293MOL0     C40346   2.164   1.517   0.209  0.6539 -0.8232 -0.1619
  293MOL0     N40347   1.996   1.150   0.958  0.7605  0.1262  0.5270
  293MOL0     N40348   1.941   1.250   1.025 -0.6951  0.3432 -0.6279
  293MOL0     C40349   0.879   1.891   1.044 -0.0311  0.4351 -0.5033
  293MOL0     C40350   0.744   1.923   1.051 -0.2764 -0.1142 -0.6338
  293MOL0     C40351   0.334   1.883   1.288  0.0549 -0.2180  1.6264
  293MOL0     C40352   0.249   1.961   1.211  0.7802  0.1217 -0.1974
  293MOL0     C40353   0.123   2.010   1.261  0.2874  0.1135  1.4126
  293MOL0     C40354   0.084   1.978   1.390  0.5658  0.0349 -1.1676
  293MOL0     O40355  -0.040   2.018   1.439 -0.2233  0.2201  0.0021
  293MOL0     C40356  -0.116   2.104   1.372 -0.2608 -0.0155 -0.1044
  293MOL0     C40357  -0.238   2.131   1.449  0.3735 -0.5842  0.8944
  293MOL0     C40358  -0.323   2.005   1.427 -0.2358 -0.5892  0.5253
  293MOL0     C40359  -0.457   2.011   1.504  0.3166 -0.1470 -0.1492
  293MOL0     C40360  -0.454   2.107   1.613 -0.0280 -0.1053 -0.2935
  293MOL0     C40361  -0.459   2.173   1.712 -0.6408 -0.2749 -0.3933
  293MOL0     C40362   0.168   1.905   1.468 -0.4793 -0.4075  0.3526
  293MOL0     C40363   0.296   1.863   1.420  0.2507 -0.2173 -0.4515
  293MOL0     C40364   0.381   1.786   1.515 -0.0978  0.9292 -0.5234
  293MOL0     H40365   0.709   1.833   1.383 -0.2026 -2.5414  0.1241
  293MOL0     H40366   0.955   1.810   1.362 -0.3337  0.0063  0.4149
  293MOL0     H40367   1.161   1.849   0.967 -1.7608  0.6038  0.0474
  293MOL0     H40368   1.084   1.690   0.983  0.6188 -1.1684 -0.3273
  293MOL0     H40369   1.235   1.625   1.157  0.6561  0.8721  0.4470
  293MOL0     H40370   1.311   1.645   0.996 -0.2262 -0.2464 -0.5329
  293MOL0     H40371   1.431   1.830   1.081  1.5792 -1.5305  0.2296
  293MOL0     H40372   1.329   1.861   1.221 -0.5416  1.1950 -1.7684
  293MOL0     H40373   1.541   1.757   1.292  0.8620  0.7843 -2.7630
  293MOL0     H40374   1.405   1.638   1.320 -1.6920 -1.1243 -2.0327
  293MOL0     H40375   1.576   1.640   1.070 -1.7542 -0.3380 -1.2845
  293MOL0     H40376   1.462   1.511   1.130  0.1753 -0.6474  1.6993
  293MOL0     H40377   1.729   1.588   1.243  0.4216  0.0635 -0.8858
  293MOL0     H40378   1.609   1.479   1.326 -2.0046 -2.0223 -1.7400
  293MOL0     H40379   1.628   1.311   1.166 -1.6543  1.2076 -4.6993
  293MOL0     H40380   1.786   1.353   1.217 -2.1741 -2.9888  1.5696
  293MOL0     H40381   1.634   1.368   0.955  1.7207 -0.3260 -0.2818
  293MOL0     H40382   1.776   1.485   0.969 -3.0247  1.1438 -3.9482
  293MOL0     H40383   1.742   1.208   0.768 -1.1874  1.0232  1.3104
  293MOL0     H40384   1.874   1.072   0.651 -0.4584 -3.4422  0.1174
  293MOL0     H40385   1.986   0.959   0.755 -0.2236 -0.8053  1.5559
  293MOL0     H40386   2.178   1.133   0.715  1.8352 -1.6832 -1.6898
  293MOL0     H40387   2.128   1.043   0.568 -2.8947 -3.4668  1.4126
  293MOL0     H40388   2.002   1.218   0.487  0.2155  0.5182 -0.4205
  293MOL0     H40389   2.023   1.320   0.626  0.3433 -0.0888  0.6129
  293MOL0     H40390   2.260   1.351   0.576  0.2638  3.9569 -4.9403
  293MOL0     H40391   2.244   1.213   0.457 -0.9790  1.4119 -2.8525
  293MOL0     H40392   2.386   1.297   0.328 -0.4787  0.2520  2.2267
  293MOL0     H40393   2.555   1.287   0.058  0.1506  2.8303 -1.2065
  293MOL0     H40394   2.578   1.308   0.235  0.0863 -1.4923 -0.7163
  293MOL0     H40395   2.625   1.434   0.112  0.1260  0.8500  0.6835
  293MOL0     H40396   2.251   1.830  -0.256  0.9192 -2.0067  2.4823
  293MOL0     H40397   2.272   1.900  -0.505 -2.2671 -0.6325 -0.0863
  293MOL0     H40398   2.369   1.921  -0.742 -0.2519  1.0385 -0.2563
  293MOL0     H40399   2.492   1.920  -0.620 -1.1454  1.4217 -1.3053
  293MOL0     H40400   2.587   1.968  -0.835  1.3700 -0.3051 -1.4764
  293MOL0     H40401   2.661   1.840  -0.753 -0.5217  0.2516  1.1709
  293MOL0     H40402   2.436   1.824  -0.974  0.6553  1.0175  1.3310
  293MOL0     H40403   2.528   1.683  -0.916 -0.6044 -0.4328  2.5401
  293MOL0     H40404   2.729   1.778  -1.031  0.8544 -1.1273 -2.9175
  293MOL0     H40405   2.650   1.936  -1.047  0.9824 -0.4781  1.1532
  293MOL0     H40406   2.529   1.678  -1.170 -0.8474  0.1439  3.6017
  293MOL0     H40407   2.485   1.844  -1.190  0.2274 -0.5423  0.9341
  293MOL0     H40408   2.715   1.884  -1.286 -1.3863  2.3776  1.8171
  293MOL0     H40409   2.616   1.769  -1.390  1.0607  0.7348 -0.1689
  293MOL0     H40410   2.712   1.582  -1.304 -0.1520  1.0160 -2.9059
  293MOL0     H40411   2.824   1.674  -1.191  0.7069  0.0364 -0.8926
  293MOL0     H40412   2.953   1.633  -1.407  1.4092  2.3051  2.2132
  293MOL0     H40413   2.896   1.803  -1.414  4.8578 -0.5646 -2.3420
  293MOL0     H40414   2.460   1.515  -0.583  0.9062  0.5172 -1.4749
  293MOL0     H40415   2.427   1.458  -0.340 -2.4559 -0.0344  3.1830
  293MOL0     H40416   2.184   1.633   0.025  2.2881 -0.1564 -2.7559
  293MOL0     H40417   2.067   1.555   0.238  0.4829 -2.3845  1.4635
  293MOL0     H40418   0.927   1.901   0.947 -0.8599 -0.4844 -1.0276
  293MOL0     H40419   0.683   1.953   0.966 -2.6725 -1.9054  0.3158
  293MOL0     H40420   0.282   1.988   1.111 -1.9743  0.1985 -1.1710
  293MOL0     H40421   0.073   2.060   1.179  1.6108 -2.1736 -0.9349
  293MOL0     H40422  -0.055   2.195   1.376 -3.5700  2.3462  1.0258
  293MOL0     H40423  -0.139   2.066   1.272 -0.3064  0.5973 -0.3311
  293MOL0     H40424  -0.287   2.221   1.411  0.6488 -0.2484  1.3302
  293MOL0     H40425  -0.209   2.149   1.553 -2.6047 -1.2005  1.9303
  293MOL0     H40426  -0.350   2.003   1.321 -0.1081  2.2483  0.3530
  293MOL0     H40427  -0.265   1.919   1.462  1.7244  0.3375 -0.3116
  293MOL0     H40428  -0.467   1.910   1.547  1.5199  0.6504  2.2127
  293MOL0     H40429  -0.543   2.043   1.445  0.3785  1.9374  0.8212
  293MOL0     H40430  -0.456   2.233   1.801  0.4481 -3.1727  1.6621
  293MOL0     H40431   0.152   1.885   1.574 -1.2944 -0.9089  0.1389
  293MOL0     H40432   0.345   1.777   1.618  4.4760 -1.9756  1.1569
  293MOL0     H40433   0.400   1.685   1.478  2.1084  1.1252 -0.0527
  293MOL0     H40434   0.485   1.821   1.523  0.5904 -1.1444  0.1684
  294MOL0     O40435   7.019   9.069   0.659  0.4840 -0.4064 -0.4424
  294MOL0     C40436   7.048   8.949   0.653 -0.1825 -0.4341  0.1231
  294MOL0     O40437   6.987   8.860   0.568 -0.4185 -0.2947  0.2952
  294MOL0     C40438   6.883   8.916   0.496  0.0621 -0.2427 -0.1347
  294MOL0     C40439   6.897   8.931   0.352  0.3360  0.3126 -0.2370
  294MOL0     C40440   6.793   8.982   0.281 -0.2323 -0.5178  0.4422
  294MOL0     C40441   6.670   9.018   0.331  0.6196 -1.2888  0.7099
  294MOL0     O40442   6.561   9.037   0.243 -0.4582  0.0051 -0.6368
  294MOL0     C40443   6.502   9.163   0.249  0.1282  0.3435 -0.2215
  294MOL0     C40444   6.396   9.184   0.142  0.3306  0.3653  0.0206
  294MOL0     C40445   6.440   9.163  -0.002  0.6676 -0.7305 -1.0633
  294MOL0     C40446   6.317   9.192  -0.092  0.5754  0.4006 -0.6685
  294MOL0     C40447   6.344   9.184  -0.243 -0.0381 -0.7284  0.4244
  294MOL0     C40448   6.433   9.073  -0.286 -0.2499 -0.7815 -0.4835
  294MOL0     C40449   6.459   9.064  -0.430  0.2131  0.2680  0.1120
  294MOL0     C40450   6.538   8.937  -0.448 -0.2684  0.8491  0.5690
  294MOL0     N40451   6.585   8.912  -0.582 -1.1075  0.8615  0.5137
  294MOL0     C40452   6.633   9.006  -0.672  0.2678  0.3364 -0.2212
  294MOL0     C40453   6.698   8.940  -0.763 -0.1952  0.7892 -0.4990
  294MOL0     C40454   6.771   8.988  -0.881 -0.0679 -0.2077 -0.6174
  294MOL0     C40455   6.697   8.950  -1.014 -0.2017 -0.3543 -0.2139
  294MOL0     C40456   6.785   8.949  -1.134 -0.4889 -0.6159  0.4061
  294MOL0     C40457   6.701   8.949  -1.269 -1.0203 -0.1175  0.1640
  294MOL0     O40458   6.637   9.077  -1.270  0.3396 -0.2022  0.5357
  294MOL0     C40459   6.616   9.136  -1.392  0.0266  0.4735 -0.4958
  294MOL0     C40460   6.574   9.074  -1.508 -0.6296  0.8804  0.3006
  294MOL0     C40461   6.574   9.133  -1.636  0.8520 -0.6546  0.6551
  294MOL0     C40462   6.522   9.062  -1.752  0.3061  0.1505  0.2571
  294MOL0     C40463   6.620   9.273  -1.639  0.5244  0.7139 -0.4764
  294MOL0     C40464   6.648   9.346  -1.767  0.0621  0.2454 -1.0018
  294MOL0     O40465   6.664   9.476  -1.761  0.1568  0.2634  0.3794
  294MOL0     C40466   6.696   9.546  -1.870  0.1033  0.1362  0.2399
  294MOL0     C40467   6.755   9.506  -1.988 -1.1130  0.1553 -0.3462
  294MOL0     C40468   6.799   9.593  -2.088 -0.7623 -0.5378  0.2087
  294MOL0     C40469   6.762   9.727  -2.095  0.4469 -0.0087  0.8222
  294MOL0     O40470   6.784   9.811  -2.209  0.0007 -1.0388 -0.5544
  294MOL0     C40471   6.717   9.775  -2.331 -0.4581  0.4337 -0.8456
  294MOL0     C40472   6.792   9.816  -2.458  0.5881  0.4941 -0.0225
  294MOL0     C40473   6.936   9.759  -2.472  0.3954  0.3721 -0.3430
  294MOL0     C40474   7.007   9.813  -2.598 -0.0816  0.1206 -0.1474
  294MOL0     C40475   7.157   9.788  -2.609 -0.2176  0.0460 -0.1611
  294MOL0     C40476   7.199   9.640  -2.609  0.0572 -0.0850  1.1805
  294MOL0     C40477   7.350   9.626  -2.598 -0.8715 -0.1145  0.0636
  294MOL0     C40478   7.428   9.677  -2.717  0.4800  0.4995 -0.4858
  294MOL0    Cl40479   7.444   9.848  -2.751  0.1478  0.0090 -0.2902
  294MOL0     C40480   6.682   9.767  -1.981  1.1529  1.6909  0.4806
  294MOL0     C40481   6.658   9.682  -1.873  0.4985  0.3639  0.3446
  294MOL0     O40482   6.652   9.278  -1.870 -0.2985  0.0595 -0.9454
  294MOL0     C40483   6.639   9.343  -1.522  0.1110 -0.3255  0.2431
  294MOL0     C40484   6.643   9.271  -1.399  0.1164  0.0981 -0.3540
  294MOL0     N40485   6.665   8.795  -0.751  0.4314  0.1262  0.2606
  294MOL0     N40486   6.591   8.795  -0.650 -0.2079  0.5282 -1.0547
  294MOL0     C40487   6.655   9.011   0.475  0.6010 -0.7928 -0.5631
  294MOL0     C40488   6.761   8.963   0.555 -0.2030 -0.3422 -0.4943
  294MOL0     C40489   7.161   8.909   0.734  0.6072 -0.0042 -0.7558
  294MOL0     C40490   7.178   8.989   0.854  0.9288  1.2369  0.0462
  294MOL0     C40491   7.276   8.950   0.946 -1.2861  0.5560  1.0468
  294MOL0     C40492   7.350   8.834   0.927 -0.3776 -0.0592  0.1402
  294MOL0     O40493   7.425   8.784   1.026  0.0388 -0.0965 -0.2626
  294MOL0     C40494   7.415   8.840   1.159  0.0815 -0.1085 -0.1480
  294MOL0     C40495   7.493   8.761   1.261  0.2357  0.5825  0.2454
  294MOL0     C40496   7.626   8.706   1.241 -0.3107 -0.7525  0.5194
  294MOL0     C40497   7.625   8.572   1.171 -0.5395  0.2739 -0.0430
  294MOL0     C40498   7.762   8.524   1.157 -0.2670  0.5916  0.1475
  294MOL0     C40499   7.875   8.487   1.138 -0.3458  0.6447  0.5558
  294MOL0     C40500   7.344   8.766   0.802  0.1514 -0.7427  0.1936
  294MOL0     C40501   7.249   8.803   0.704  0.0031 -0.5106 -0.1950
  294MOL0     C40502   7.264   8.723   0.578 -0.1603 -1.0666  0.6761
  294MOL0     H40503   6.986   8.891   0.306  0.4824  2.0397 -1.5466
  294MOL0     H40504   6.793   8.983   0.173 -0.7638 -2.2521  0.3936
  294MOL0     H40505   6.574   9.245   0.244  1.7572 -1.1122 -1.7425
  294MOL0     H40506   6.443   9.168   0.341 -1.7661 -0.0851 -1.3472
  294MOL0     H40507   6.302   9.133   0.164 -0.8716  2.4016 -0.1684
  294MOL0     H40508   6.369   9.289   0.152  0.2459  0.4766 -1.2377
  294MOL0     H40509   6.525   9.231  -0.012 -0.7644  1.0723 -1.8097
  294MOL0     H40510   6.475   9.061  -0.016 -1.2962 -1.3252 -2.1226
  294MOL0     H40511   6.241   9.117  -0.067 -0.8286  1.2697 -2.1675
  294MOL0     H40512   6.261   9.283  -0.068 -2.6738 -1.8375  0.9386
  294MOL0     H40513   6.396   9.275  -0.276 -3.6191  0.1868 -3.5240
  294MOL0     H40514   6.257   9.186  -0.309  1.6722 -1.4132 -2.0071
  294MOL0     H40515   6.531   9.083  -0.238 -0.2214  0.4457 -0.7837
  294MOL0     H40516   6.381   8.983  -0.252 -3.2854  0.3842 -1.6925
  294MOL0     H40517   6.500   9.154  -0.477  3.3454 -1.9014 -1.7553
  294MOL0     H40518   6.364   9.039  -0.479 -0.1585  3.4518 -1.0010
  294MOL0     H40519   6.632   8.948  -0.394  1.5702  0.0714 -2.3049
  294MOL0     H40520   6.501   8.838  -0.417  2.9270 -1.4462 -2.2557
  294MOL0     H40521   6.627   9.114  -0.665  0.8865  0.5310 -2.1343
  294MOL0     H40522   6.873   8.947  -0.885  0.0444 -0.1704  1.0980
  294MOL0     H40523   6.790   9.096  -0.875 -0.3248 -0.0525 -2.2157
  294MOL0     H40524   6.626   8.868  -0.999 -0.9502  0.1740 -0.8068
  294MOL0     H40525   6.632   9.035  -1.032 -0.4802 -0.4464  0.3388
  294MOL0     H40526   6.834   9.047  -1.133 -0.5403 -0.5788 -0.1988
  294MOL0     H40527   6.857   8.867  -1.139  2.9432  1.9542  3.1903
  294MOL0     H40528   6.775   8.946  -1.349 -0.5558 -0.6484  0.6103
  294MOL0     H40529   6.631   8.865  -1.271 -0.2346 -0.8935  2.4085
  294MOL0     H40530   6.554   8.969  -1.489 -0.3610  0.7787  0.0209
  294MOL0     H40531   6.592   9.008  -1.816  0.0501  0.0514  0.0582
  294MOL0     H40532   6.462   9.130  -1.813 -1.0911 -2.4663 -1.4679
  294MOL0     H40533   6.449   8.992  -1.710  1.8995 -0.1580  2.7230
  294MOL0     H40534   6.783   9.402  -2.000 -1.6072  0.1312 -1.3811
  294MOL0     H40535   6.851   9.552  -2.175  1.2726 -0.7597  1.4580
  294MOL0     H40536   6.699   9.668  -2.340  0.4909  0.4065 -3.2061
  294MOL0     H40537   6.621   9.826  -2.346 -0.7870  0.7669  1.8327
  294MOL0     H40538   6.740   9.791  -2.551  1.1430 -2.6539  0.4322
  294MOL0     H40539   6.813   9.924  -2.456  0.2202  0.6259 -1.8421
  294MOL0     H40540   6.942   9.650  -2.480  1.7792  0.1747  2.3047
  294MOL0     H40541   6.993   9.788  -2.383 -0.9313 -0.2357  0.7408
  294MOL0     H40542   6.995   9.922  -2.600 -0.7686  0.1931  2.8503
  294MOL0     H40543   6.975   9.769  -2.693 -0.0621  2.4104 -1.2828
  294MOL0     H40544   7.190   9.829  -2.705 -2.1840 -0.1676 -0.9773
  294MOL0     H40545   7.206   9.847  -2.531  0.0175  0.7263 -0.8082
  294MOL0     H40546   7.179   9.589  -2.704  4.9665 -0.9314  0.3173
  294MOL0     H40547   7.142   9.587  -2.533 -3.4881  5.0320  2.6514
  294MOL0     H40548   7.372   9.519  -2.589  0.8906  0.1883 -0.2422
  294MOL0     H40549   7.385   9.677  -2.508  4.2004  2.0171 -2.7114
  294MOL0     H40550   7.382   9.639  -2.809 -3.4130 -0.7281  1.7074
  294MOL0     H40551   7.527   9.631  -2.713 -0.2993 -1.7536 -3.4073
  294MOL0     H40552   6.643   9.868  -1.970  1.1840  1.8238 -0.5651
  294MOL0     H40553   6.603   9.725  -1.790  1.3090 -0.2206  1.2113
  294MOL0     H40554   6.675   9.445  -1.525 -0.6952 -0.0478 -1.0881
  294MOL0     H40555   6.676   9.309  -1.303 -2.6745 -0.2021  0.8425
  294MOL0     H40556   6.569   9.059   0.519  1.5776  0.4038  0.1105
  294MOL0     H40557   6.757   8.958   0.663 -0.3030 -2.7649 -0.5457
  294MOL0     H40558   7.108   9.063   0.892  1.2736  1.4493  0.2673
  294MOL0     H40559   7.296   9.009   1.034  0.6247 -0.1601  1.1321
  294MOL0     H40560   7.461   8.939   1.162  0.2926 -0.2178  0.8126
  294MOL0     H40561   7.315   8.848   1.203 -1.0174 -4.9468 -1.1775
  294MOL0     H40562   7.424   8.682   1.293  1.5787 -0.9737 -0.5472
  294MOL0     H40563   7.508   8.823   1.350  1.9224  0.5007  0.0500
  294MOL0     H40564   7.665   8.784   1.175 -0.9756  1.6480  2.7910
  294MOL0     H40565   7.699   8.698   1.322  1.6594 -0.3225 -1.1134
  294MOL0     H40566   7.575   8.578   1.074 -0.5200  3.0886  0.0342
  294MOL0     H40567   7.573   8.510   1.244  1.0802  0.9104  1.7371
  294MOL0     H40568   7.972   8.458   1.102 -0.5059 -2.9783  2.4953
  294MOL0     H40569   7.410   8.688   0.767 -1.1835 -0.0275 -4.6916
  294MOL0     H40570   7.308   8.623   0.591 -0.2200 -1.9216 -3.8803
  294MOL0     H40571   7.172   8.716   0.519 -0.2454  2.0731  0.2911
  294MOL0     H40572   7.334   8.770   0.507 -3.6252  1.0076 -1.6818
  295MOL0     O40573   3.672   7.650   1.202 -0.5217 -0.6547  0.4309
  295MOL0     C40574   3.565   7.614   1.240  0.1647 -0.0275 -0.3858
  295MOL0     O40575   3.450   7.698   1.261  0.1603 -0.5158 -0.4052
  295MOL0     C40576   3.470   7.830   1.221 -0.0564  0.1453  0.1425
  295MOL0     C40577   3.558   7.924   1.289 -0.8621 -0.4142 -0.5303
  295MOL0     C40578   3.561   8.057   1.244 -0.9561  0.2244  0.1992
  295MOL0     C40579   3.494   8.105   1.140  0.6213 -0.0466  0.1416
  295MOL0     O40580   3.523   8.237   1.107  0.7365 -0.2984 -0.5844
  295MOL0     C40581   3.600   8.253   0.985  0.7830 -0.0790 -1.2334
  295MOL0     C40582   3.752   8.277   0.995 -0.2724  0.2994  0.1110
  295MOL0     C40583   3.839   8.282   0.867  0.0537  0.7050 -0.1701
  295MOL0     C40584   3.803   8.390   0.768 -1.5587 -1.0161 -0.0688
  295MOL0     C40585   3.896   8.402   0.653  0.7269 -0.0375  0.1494
  295MOL0     C40586   3.878   8.285   0.551 -0.0135  0.0246 -0.2627
  295MOL0     C40587   3.947   8.327   0.424  0.2478  0.8034  0.8162
  295MOL0     C40588   3.930   8.207   0.321  1.1719  0.2387  0.1676
  295MOL0     N40589   3.792   8.207   0.261  0.1482  0.3561 -0.1019
  295MOL0     C40590   3.748   8.267   0.145 -0.8834 -0.2349 -0.1823
  295MOL0     C40591   3.629   8.215   0.118  0.6139  0.1191  0.5406
  295MOL0     C40592   3.547   8.245  -0.002 -0.2579  0.5884  0.1223
  295MOL0     C40593   3.420   8.317   0.039 -0.2257 -0.5330  0.0734
  295MOL0     C40594   3.345   8.348  -0.085  0.5031 -0.3002 -0.2698
  295MOL0     C40595   3.205   8.411  -0.063 -0.1217 -0.5658  0.4209
  295MOL0     O40596   3.206   8.501   0.044 -0.2458 -0.0158 -0.1134
  295MOL0     C40597   3.224   8.634   0.015  1.6338  0.5260  0.4187
  295MOL0     C40598   3.156   8.725   0.088  0.1258 -0.4998 -0.0658
  295MOL0     C40599   3.171   8.861   0.080 -0.0607 -0.1527 -0.3685
  295MOL0     C40600   3.091   8.948   0.163 -0.1322 -0.4994  0.6560
  295MOL0     C40601   3.253   8.915  -0.021  0.2522  0.0471  0.3225
  295MOL0     C40602   3.284   9.063  -0.065  0.5392  0.4143 -0.5340
  295MOL0     O40603   3.364   9.082  -0.174  0.4173 -0.6664  0.0981
  295MOL0     C40604   3.408   9.213  -0.179  1.1137 -0.0267 -0.9568
  295MOL0     C40605   3.505   9.272  -0.095  0.0236 -0.1815 -0.6836
  295MOL0     C40606   3.539   9.401  -0.107 -0.1163  0.0270  1.0304
  295MOL0     C40607   3.488   9.475  -0.218  0.0123  0.1581  0.2403
  295MOL0     O40608   3.530   9.609  -0.231  0.6992 -0.3273  0.1735
  295MOL0     C40609   3.533   9.687  -0.112 -0.3675  0.6434  0.8903
  295MOL0     C40610   3.642   9.793  -0.147 -0.1809  0.2806 -0.4183
  295MOL0     C40611   3.635   9.922  -0.052 -0.0059  0.0102  0.6199
  295MOL0     C40612   3.749  10.028  -0.088 -0.0414  0.3169 -0.5698
  295MOL0     C40613   3.893   9.975  -0.083  0.1241  0.2114 -1.2634
  295MOL0     C40614   3.997  10.097  -0.063 -1.2358  0.3432 -0.0144
  295MOL0     C40615   3.978  10.215  -0.157 -0.1822 -0.5057  0.3032
  295MOL0     C40616   4.105  10.297  -0.179  0.1065 -0.5018 -0.1543
  295MOL0    Cl40617   4.144  10.383  -0.018  0.0154  0.1765  0.5635
  295MOL0     C40618   3.388   9.429  -0.293  0.1895  0.1394  0.3183
  295MOL0     C40619   3.341   9.298  -0.274 -0.7253 -0.4329 -0.2736
  295MOL0     O40620   3.243   9.147   0.014 -0.6839 -0.3943  0.2693
  295MOL0     C40621   3.324   8.825  -0.104  0.2178 -0.0566  0.8351
  295MOL0     C40622   3.312   8.690  -0.086  0.0418 -0.0635 -0.6942
  295MOL0     N40623   3.611   8.132   0.217 -0.5057 -0.0096 -1.0273
  295MOL0     N40624   3.699   8.125   0.307  0.5451  0.1252  0.0894
  295MOL0     C40625   3.413   8.012   1.067 -0.8734 -0.4419  0.1554
  295MOL0     C40626   3.391   7.881   1.118 -0.2152 -0.1617  0.2105
  295MOL0     C40627   3.545   7.474   1.262  0.0936  0.2391  0.1060
  295MOL0     C40628   3.496   7.434   1.393 -0.5190  0.3524 -1.2361
  295MOL0     C40629   3.492   7.290   1.431  0.0296 -0.2950 -0.5687
  295MOL0     C40630   3.522   7.197   1.330 -0.7444 -0.4577  0.2389
  295MOL0     O40631   3.503   7.066   1.367  1.0602  0.0572  0.5404
  295MOL0     C40632   3.528   6.963   1.272 -0.2251  0.2822  0.3514
  295MOL0     C40633   3.666   6.900   1.292 -0.7384  0.8995  0.0757
  295MOL0     C40634   3.660   6.806   1.413 -0.1344  0.0476  1.3420
  295MOL0     C40635   3.783   6.730   1.457 -0.5988 -0.3638 -0.1580
  295MOL0     C40636   3.892   6.813   1.502 -0.6461 -0.2217 -0.0723
  295MOL0     C40637   3.976   6.892   1.536 -0.3635 -0.0472 -0.0672
  295MOL0     C40638   3.574   7.243   1.204  0.0410 -0.5597  0.7356
  295MOL0     C40639   3.583   7.379   1.168  0.4146  0.3625  0.1237
  295MOL0     C40640   3.640   7.412   1.029  0.6541  0.3914  0.1361
  295MOL0     H40641   3.628   7.879   1.359 -0.2374 -1.5823 -1.8681
  295MOL0     H40642   3.624   8.124   1.301  1.5098 -3.2618  1.9555
  295MOL0     H40643   3.557   8.340   0.934 -0.7245  0.5074  0.9270
  295MOL0     H40644   3.598   8.158   0.930  3.4602 -1.9059  1.5587
  295MOL0     H40645   3.760   8.377   1.040  0.6662  0.8367 -1.1821
  295MOL0     H40646   3.802   8.203   1.059 -0.7005  0.7988  1.0496
  295MOL0     H40647   3.946   8.294   0.890 -0.4079  2.2404  1.4660
  295MOL0     H40648   3.832   8.187   0.813  2.0551  0.1004  0.5465
  295MOL0     H40649   3.702   8.382   0.725 -0.8373  2.1129 -2.7378
  295MOL0     H40650   3.809   8.485   0.822  0.6613 -0.0460 -1.8870
  295MOL0     H40651   4.000   8.409   0.686  0.4314 -1.7294  1.6228
  295MOL0     H40652   3.873   8.495   0.600  0.8095 -1.5084 -2.6517
  295MOL0     H40653   3.907   8.187   0.589  2.0063 -0.1712 -2.1066
  295MOL0     H40654   3.770   8.273   0.535 -0.0896 -0.1327  0.3553
  295MOL0     H40655   4.055   8.341   0.431  0.3055  1.6070 -1.1011
  295MOL0     H40656   3.908   8.419   0.379  1.5955  0.5481 -0.9886
  295MOL0     H40657   3.996   8.221   0.234 -0.4471 -0.9302 -1.3289
  295MOL0     H40658   3.952   8.112   0.370  0.7884  1.0610  2.0076
  295MOL0     H40659   3.801   8.344   0.089  0.2771 -1.9356 -1.5316
  295MOL0     H40660   3.530   8.161  -0.070  0.2384  1.3082 -0.9361
  295MOL0     H40661   3.601   8.321  -0.060 -0.2579 -0.9594 -2.0561
  295MOL0     H40662   3.358   8.246   0.094 -0.1808  0.0024  0.8370
  295MOL0     H40663   3.436   8.404   0.103 -3.4097 -0.8841  1.5906
  295MOL0     H40664   3.412   8.416  -0.139  1.4869 -0.3727  0.8147
  295MOL0     H40665   3.319   8.262  -0.146  1.4674  0.4546 -1.8198
  295MOL0     H40666   3.177   8.470  -0.151  1.6293  2.8060  1.9157
  295MOL0     H40667   3.130   8.333  -0.050 -0.4244  0.0748  2.8833
  295MOL0     H40668   3.094   8.690   0.171  1.8522  0.2572  1.6216
  295MOL0     H40669   3.002   8.976   0.106 -0.2385  0.8961  1.4702
  295MOL0     H40670   3.145   9.032   0.206 -1.5471  0.6850  0.1946
  295MOL0     H40671   3.049   8.902   0.253 -0.6246  2.7288  2.2282
  295MOL0     H40672   3.553   9.206  -0.024 -2.1658 -0.8683  0.2305
  295MOL0     H40673   3.614   9.443  -0.041  1.1828 -0.2944 -0.1968
  295MOL0     H40674   3.434   9.732  -0.101 -0.6704  0.4534 -0.7965
  295MOL0     H40675   3.556   9.634  -0.019 -4.0903 -3.7006 -0.2942
  295MOL0     H40676   3.744   9.754  -0.148 -0.2519  0.0376  0.6051
  295MOL0     H40677   3.617   9.819  -0.251 -2.5990 -2.0502 -0.5440
  295MOL0     H40678   3.645   9.889   0.052 -0.6872 -0.5689  0.5114
  295MOL0     H40679   3.541   9.971  -0.077  0.3757  0.4383  0.0126
  295MOL0     H40680   3.730  10.104  -0.011  0.3629 -1.7980  1.7595
  295MOL0     H40681   3.735  10.056  -0.193 -2.1738  0.7734 -0.2165
  295MOL0     H40682   3.907   9.893  -0.012  0.2096 -1.4202 -3.0578
  295MOL0     H40683   3.936   9.934  -0.175 -2.5032 -1.4637 -1.8621
  295MOL0     H40684   4.101  10.066  -0.076 -1.4817 -0.2799 -0.5658
  295MOL0     H40685   4.000  10.122   0.043 -1.8545  0.9094 -0.1274
  295MOL0     H40686   3.895  10.273  -0.114 -2.9540 -3.6518 -0.3183
  295MOL0     H40687   3.941  10.192  -0.257 -4.0637  1.5898  1.0410
  295MOL0     H40688   4.090  10.372  -0.257  0.0460 -1.3319 -0.9586
  295MOL0     H40689   4.195  10.243  -0.209  1.8810  0.7148  2.5853
  295MOL0     H40690   3.346   9.494  -0.369 -0.7711 -1.2084 -0.3308
  295MOL0     H40691   3.255   9.266  -0.331 -1.1826  0.7223 -0.2712
  295MOL0     H40692   3.392   8.849  -0.186 -1.8331  0.4756 -0.7957
  295MOL0     H40693   3.371   8.624  -0.149  1.3221  0.2853  0.1022
  295MOL0     H40694   3.364   8.032   0.972 -1.2505 -0.3969  0.3583
  295MOL0     H40695   3.325   7.810   1.069  1.4355 -1.8884  0.3605
  295MOL0     H40696   3.456   7.498   1.471 -1.7780 -0.9122 -0.8025
  295MOL0     H40697   3.457   7.262   1.530 -1.4179  0.3798 -0.8639
  295MOL0     H40698   3.454   6.882   1.283  1.4462 -0.9874  3.7070
  295MOL0     H40699   3.508   7.000   1.171  1.0417 -1.8327 -0.7347
  295MOL0     H40700   3.742   6.979   1.300  0.5506  0.1847 -3.4045
  295MOL0     H40701   3.689   6.833   1.208  0.5777 -0.4414  1.4571
  295MOL0     H40702   3.614   6.863   1.495 -0.8883  2.6995 -0.7662
  295MOL0     H40703   3.585   6.729   1.393 -0.0728  0.2013  0.4806
  295MOL0     H40704   3.824   6.693   1.362  0.4177 -1.9727  0.8742
  295MOL0     H40705   3.749   6.652   1.525 -1.6974 -1.6679 -2.1016
  295MOL0     H40706   4.054   6.957   1.571  0.3188 -1.7153  1.6565
  295MOL0     H40707   3.604   7.174   1.126 -0.3388 -0.3758  0.4243
  295MOL0     H40708   3.568   7.460   0.962  1.8356 -0.6890 -2.0077
  295MOL0     H40709   3.724   7.480   1.049  0.9650 -0.3397  1.4391
  295MOL0     H40710   3.684   7.336   0.964  2.2761  1.9991 -0.7288
  296MOL0     O40711   1.265   4.904  11.061 -0.5584 -0.3667 -0.0317
  296MOL0     C40712   1.255   4.782  11.086 -0.1027 -0.0295  0.6096
  296MOL0     O40713   1.280   4.679  10.996 -0.4482 -0.3641  0.5906
  296MOL0     C40714   1.295   4.712  10.857 -0.8441  0.7313 -0.7333
  296MOL0     C40715   1.420   4.718  10.809  1.4193  0.0725 -0.4540
  296MOL0     C40716   1.447   4.744  10.680  0.2087 -1.0923  0.3602
  296MOL0     C40717   1.336   4.786  10.591 -0.5404  0.5864 -0.9256
  296MOL0     O40718   1.369   4.818  10.463  0.3668  0.1648  0.5675
  296MOL0     C40719   1.343   4.707  10.370  0.0269  0.0704  0.2527
  296MOL0     C40720   1.445   4.701  10.261  0.2985 -0.5197 -0.7455
  296MOL0     C40721   1.417   4.599  10.160 -0.6334 -0.4062  0.0300
  296MOL0     C40722   1.530   4.594  10.056  0.0831  0.2280 -0.3091
  296MOL0     C40723   1.509   4.478   9.948 -0.2146  0.2448 -1.2030
  296MOL0     C40724   1.617   4.459   9.837 -0.0546 -0.1803 -0.1053
  296MOL0     C40725   1.633   4.577   9.748 -0.1839 -0.6139  0.1989
  296MOL0     C40726   1.749   4.559   9.648  0.5362 -0.1616  0.2058
  296MOL0     N40727   1.872   4.615   9.698 -0.5253 -0.5394  0.2134
  296MOL0     C40728   1.971   4.567   9.777  0.1599  0.3682  0.1150
  296MOL0     C40729   2.052   4.664   9.798 -0.3115  0.0950 -0.7106
  296MOL0     C40730   2.183   4.661   9.879  0.9364 -0.2747 -0.3221
  296MOL0     C40731   2.263   4.540   9.842 -0.1598 -0.2657  0.4668
  296MOL0     C40732   2.300   4.528   9.691  1.0707  0.2210 -1.5175
  296MOL0     C40733   2.377   4.656   9.647  0.1952  0.4185 -0.3047
  296MOL0     O40734   2.416   4.632   9.522 -0.1154  0.7926 -0.3795
  296MOL0     C40735   2.318   4.650   9.422  0.0300  0.9999  0.6202
  296MOL0     C40736   2.368   4.605   9.292 -0.0492 -0.7507 -0.7948
  296MOL0     C40737   2.292   4.616   9.178  0.6201  0.1772  0.5905
  296MOL0     C40738   2.360   4.598   9.045 -0.3120 -0.0675  0.1048
  296MOL0     C40739   2.153   4.650   9.188  0.5871 -0.7698 -0.2677
  296MOL0     C40740   2.049   4.668   9.081 -0.2149  0.3063  0.7132
  296MOL0     O40741   2.081   4.610   8.962  0.2803  0.6935  0.6836
  296MOL0     C40742   2.076   4.692   8.855 -1.2710  0.2667  0.2355
  296MOL0     C40743   2.151   4.816   8.842  0.9494 -0.1833 -0.2751
  296MOL0     C40744   2.154   4.885   8.724 -0.7960 -0.1068 -0.3568
  296MOL0     C40745   2.110   4.830   8.601  0.1347 -0.0741 -0.0667
  296MOL0     O40746   2.149   4.891   8.485  0.3592  0.1518 -0.0618
  296MOL0     C40747   2.156   4.815   8.354  1.1088 -0.2673 -0.5796
  296MOL0     C40748   2.227   4.899   8.240 -0.3232 -0.3216 -0.6747
  296MOL0     C40749   2.371   4.925   8.272 -0.2624  0.2085  0.6839
  296MOL0     C40750   2.457   4.790   8.271  0.4587  0.1308 -0.7532
  296MOL0     C40751   2.496   4.746   8.412  0.0009  0.7088 -0.2910
  296MOL0     C40752   2.580   4.626   8.413 -0.4348  0.6224  0.3066
  296MOL0     C40753   2.660   4.604   8.535 -0.2550  0.2019 -0.1321
  296MOL0     C40754   2.753   4.484   8.516 -0.0459  0.6066 -0.0636
  296MOL0    Cl40755   2.645   4.333   8.488 -0.1785 -0.2554  0.7098
  296MOL0     C40756   2.042   4.702   8.612 -0.1633 -0.1065 -0.4056
  296MOL0     C40757   2.025   4.641   8.740 -0.2791 -0.3320  0.7139
  296MOL0     O40758   1.950   4.735   9.091  0.1654  0.2243  0.0829
  296MOL0     C40759   2.105   4.699   9.314  0.5614  0.4160  0.4262
  296MOL0     C40760   2.179   4.696   9.433 -0.4314  0.2551 -0.2292
  296MOL0     N40761   2.002   4.779   9.754 -0.5628 -0.5718  0.6429
  296MOL0     N40762   1.895   4.752   9.687  0.0542  0.0327 -0.0116
  296MOL0     C40763   1.204   4.779  10.643 -0.1265  0.0080 -0.2691
  296MOL0     C40764   1.191   4.746  10.776  0.3231  0.0600  0.5560
  296MOL0     C40765   1.215   4.738  11.225  0.3350 -0.2315  0.1084
  296MOL0     C40766   1.245   4.608  11.258  0.2684 -0.8289  0.1338
  296MOL0     C40767   1.197   4.556  11.379  0.1659  0.5733 -0.2063
  296MOL0     C40768   1.130   4.628  11.476 -0.1746  0.4747  1.0492
  296MOL0     O40769   1.107   4.564  11.585 -0.1767  0.5214 -0.3313
  296MOL0     C40770   1.022   4.632  11.672 -0.2235  0.2854 -0.7829
  296MOL0     C40771   0.997   4.547  11.793  0.4352 -0.5493 -0.8383
  296MOL0     C40772   0.939   4.641  11.910 -0.3378  0.3980  0.0448
  296MOL0     C40773   0.923   4.576  12.048 -0.0057  0.2559 -0.1646
  296MOL0     C40774   1.033   4.626  12.133  0.7036  0.4541 -0.0598
  296MOL0     C40775   1.129   4.648  12.197 -0.3151 -0.4992 -0.3964
  296MOL0     C40776   1.106   4.764  11.443 -0.0238 -0.1644 -0.1662
  296MOL0     C40777   1.133   4.815  11.317  0.7510 -1.2338 -0.0788
  296MOL0     C40778   1.120   4.971  11.297 -0.3055  0.2916 -0.1454
  296MOL0     H40779   1.506   4.717  10.876  1.2697  0.9388 -0.2479
  296MOL0     H40780   1.550   4.738  10.647 -0.4921 -3.0129 -1.7896
  296MOL0     H40781   1.241   4.727  10.336  0.7332  0.9218 -1.4652
  296MOL0     H40782   1.334   4.614  10.426 -1.7715 -0.6778 -1.2177
  296MOL0     H40783   1.465   4.802  10.224  5.1567  0.1151  2.6094
  296MOL0     H40784   1.536   4.674  10.316  0.0869  0.6667  0.2138
  296MOL0     H40785   1.418   4.498  10.202 -1.4484 -1.4340 -2.2465
  296MOL0     H40786   1.324   4.630  10.109 -0.8062 -0.4337  0.3273
  296MOL0     H40787   1.535   4.695  10.014 -1.4979  1.5691  2.4398
  296MOL0     H40788   1.617   4.570  10.117  0.1537 -1.1786 -0.9007
  296MOL0     H40789   1.416   4.515   9.902 -0.8698  3.0363  1.9405
  296MOL0     H40790   1.475   4.390  10.003 -2.9921  1.5471 -0.6020
  296MOL0     H40791   1.716   4.446   9.882  0.0831  1.3417  0.0953
  296MOL0     H40792   1.593   4.367   9.784 -0.3206  0.7589 -1.6592
  296MOL0     H40793   1.648   4.672   9.799  2.8243 -0.7905 -0.1726
  296MOL0     H40794   1.546   4.579   9.682 -0.0385  1.4744  0.0138
  296MOL0     H40795   1.752   4.456   9.614 -1.3846 -0.8163  1.8387
  296MOL0     H40796   1.739   4.625   9.561  1.4622  1.3773  1.2124
  296MOL0     H40797   1.985   4.466   9.814 -0.7238  1.4660  3.8369
  296MOL0     H40798   2.152   4.656   9.984  1.9872  0.6887  0.0527
  296MOL0     H40799   2.231   4.758   9.863 -2.5102  2.0534  1.8991
  296MOL0     H40800   2.357   4.543   9.898 -1.0162  2.9154  1.9689
  296MOL0     H40801   2.197   4.458   9.872  0.6734 -0.1997  2.6201
  296MOL0     H40802   2.362   4.439   9.675  2.6651  0.8214  0.7443
  296MOL0     H40803   2.208   4.527   9.633  1.4476 -2.1932 -2.1936
  296MOL0     H40804   2.313   4.744   9.650  0.2908  0.4846  2.6526
  296MOL0     H40805   2.456   4.665   9.723 -0.5686  1.4304  0.3972
  296MOL0     H40806   2.472   4.573   9.288  0.3678  0.3289  0.6106
  296MOL0     H40807   2.377   4.491   9.033  3.0144  0.4460 -0.5012
  296MOL0     H40808   2.455   4.651   9.051 -0.4508  0.4358 -1.4681
  296MOL0     H40809   2.311   4.638   8.955 -2.9365 -1.4714  0.8068
  296MOL0     H40810   2.194   4.875   8.923  1.8384  0.8060 -1.4266
  296MOL0     H40811   2.214   4.975   8.719  0.5879 -0.9410  0.6202
  296MOL0     H40812   2.213   4.725   8.378  1.9421  0.8113  1.7202
  296MOL0     H40813   2.053   4.798   8.322  0.7082  0.8533  0.0406
  296MOL0     H40814   2.211   4.853   8.142 -0.5695 -0.5466 -0.5323
  296MOL0     H40815   2.162   4.987   8.243 -1.4633 -1.0803 -1.8891
  296MOL0     H40816   2.391   4.988   8.359  3.4615  0.7842 -0.4314
  296MOL0     H40817   2.414   4.974   8.184  2.0618 -1.9847  0.4988
  296MOL0     H40818   2.548   4.805   8.212  0.4042 -1.1763 -1.1844
  296MOL0     H40819   2.406   4.706   8.223 -1.5398 -0.6320  2.4344
  296MOL0     H40820   2.555   4.826   8.457 -1.4137  2.7512 -1.8498
  296MOL0     H40821   2.407   4.733   8.475 -0.9211  3.4559 -0.8527
  296MOL0     H40822   2.646   4.619   8.326 -4.2186  1.2662 -2.9088
  296MOL0     H40823   2.501   4.551   8.421 -0.6816  1.0393  2.2070
  296MOL0     H40824   2.599   4.582   8.623 -2.7626  0.3405 -1.7269
  296MOL0     H40825   2.723   4.691   8.554 -0.9227  1.1755 -2.0658
  296MOL0     H40826   2.819   4.468   8.602  1.5033 -0.8616 -1.4275
  296MOL0     H40827   2.807   4.491   8.421 -0.9703 -3.1157 -1.0236
  296MOL0     H40828   2.004   4.644   8.529 -1.8677  0.2081  0.1130
  296MOL0     H40829   1.976   4.544   8.738  2.4154 -1.8443 -3.3154
  296MOL0     H40830   2.010   4.750   9.329  0.4197  0.8527 -1.7286
  296MOL0     H40831   2.142   4.739   9.526 -0.2313  0.7354 -0.3689
  296MOL0     H40832   1.122   4.809  10.579 -1.3584  0.2347  1.3493
  296MOL0     H40833   1.089   4.737  10.811  0.0930  0.7589  0.0804
  296MOL0     H40834   1.308   4.544  11.197  0.8188  1.1379 -1.4914
  296MOL0     H40835   1.219   4.453  11.407 -0.0172  1.2640  2.7846
  296MOL0     H40836   1.061   4.727  11.709  2.3641 -2.4332  4.5517
  296MOL0     H40837   0.922   4.657  11.635 -0.4025  2.1238  0.8072
  296MOL0     H40838   1.093   4.507  11.827 -0.2362  0.9223  3.3517
  296MOL0     H40839   0.917   4.473  11.775 -1.4331  0.9971  0.6264
  296MOL0     H40840   1.012   4.721  11.922  0.4663 -0.3486  0.2772
  296MOL0     H40841   0.847   4.678  11.864 -0.7748 -0.7190 -0.0258
  296MOL0     H40842   0.929   4.467  12.045  0.4600  0.2979 -1.2479
  296MOL0     H40843   0.830   4.602  12.099  0.7210  0.0174  1.3658
  296MOL0     H40844   1.214   4.680  12.254 -0.3294 -3.6032  1.6014
  296MOL0     H40845   1.057   4.831  11.513  1.0660  1.0732 -0.5539
  296MOL0     H40846   1.106   5.018  11.395  1.3527 -2.6186  1.6282
  296MOL0     H40847   1.208   5.018  11.252  0.3189 -2.3117 -1.8926
  296MOL0     H40848   1.031   4.987  11.234  0.7543  0.8212 -1.5740
  297MOL0     O40849   3.612   3.610   4.935  0.6454 -0.3121 -0.0294
  297MOL0     C40850   3.665   3.720   4.905 -0.2903 -0.9410 -0.5159
  297MOL0     O40851   3.594   3.836   4.868 -0.6795 -0.3426 -0.0208
  297MOL0     C40852   3.464   3.810   4.840 -0.2341 -0.3527  0.2887
  297MOL0     C40853   3.436   3.776   4.712  0.2328 -0.7204  0.6124
  297MOL0     C40854   3.298   3.777   4.664  0.9905  0.8840  0.0556
  297MOL0     C40855   3.195   3.793   4.757 -0.0121  0.3514  0.1099
  297MOL0     O40856   3.067   3.806   4.706  0.4553 -0.3596 -0.5205
  297MOL0     C40857   2.952   3.776   4.788  0.6354 -0.5180 -0.1548
  297MOL0     C40858   2.832   3.780   4.707  0.1647 -0.3054  0.9436
  297MOL0     C40859   2.709   3.737   4.780 -0.2612 -0.5714  0.0404
  297MOL0     C40860   2.584   3.819   4.730  0.1894  0.1494 -0.1850
  297MOL0     C40861   2.444   3.770   4.775 -0.8465 -0.8197  0.6926
  297MOL0     C40862   2.340   3.883   4.760 -0.3943 -0.3295  0.0663
  297MOL0     C40863   2.342   3.988   4.868 -0.5000 -0.0429  0.2950
  297MOL0     C40864   2.298   3.934   5.012 -0.3304  0.2747  0.1981
  297MOL0     N40865   2.172   3.857   5.006 -0.1624 -0.1142 -0.4840
  297MOL0     C40866   2.058   3.911   4.979  1.2593 -0.9167  1.3216
  297MOL0     C40867   1.967   3.809   4.983 -0.3880  0.2655  1.0554
  297MOL0     C40868   1.818   3.808   4.961 -0.2023 -0.5957 -0.6432
  297MOL0     C40869   1.740   3.826   5.091  0.1863  0.5819 -0.0354
  297MOL0     C40870   1.676   3.693   5.131 -0.2011 -0.0978  0.0660
  297MOL0     C40871   1.606   3.712   5.266  0.0996  0.9893  0.6396
  297MOL0     O40872   1.568   3.580   5.311  0.0452 -0.0451  1.0711
  297MOL0     C40873   1.436   3.551   5.275 -0.1904  0.1307  0.1068
  297MOL0     C40874   1.412   3.441   5.192  0.0558  0.1207  0.9933
  297MOL0     C40875   1.281   3.402   5.146 -0.7138 -0.0597  0.0048
  297MOL0     C40876   1.281   3.286   5.041  0.1926  0.3021 -0.6266
  297MOL0     C40877   1.168   3.462   5.206 -0.3359  0.2912 -0.2656
  297MOL0     C40878   1.020   3.423   5.185 -0.5082  0.1681  0.1019
  297MOL0     O40879   0.937   3.512   5.245  0.1137 -0.7007  0.1507
  297MOL0     C40880   0.800   3.496   5.236  0.0892  0.4864  0.6177
  297MOL0     C40881   0.727   3.482   5.116  0.1149  0.1058  0.2196
  297MOL0     C40882   0.592   3.495   5.108  0.5431 -0.8449 -0.9468
  297MOL0     C40883   0.513   3.519   5.225 -0.5952 -0.4866 -0.2463
  297MOL0     O40884   0.384   3.532   5.226 -0.2230 -0.0763  0.2504
  297MOL0     C40885   0.324   3.446   5.129  1.1116 -0.1960  0.9355
  297MOL0     C40886   0.193   3.516   5.092  1.2763 -0.6644  0.8261
  297MOL0     C40887   0.127   3.445   4.981  0.7413 -0.3636  0.1715
  297MOL0     C40888  -0.024   3.455   4.991 -0.0560  0.1763 -0.2305
  297MOL0     C40889  -0.091   3.346   4.918 -0.7867 -0.5603 -0.1798
  297MOL0     C40890  -0.238   3.351   4.946 -0.2077  0.2212  0.1467
  297MOL0     C40891  -0.307   3.265   4.839  0.0594 -0.0471 -0.7246
  297MOL0     C40892  -0.450   3.290   4.834  0.4668 -0.5972  0.0285
  297MOL0    Cl40893  -0.534   3.288   5.003  0.1695 -0.0336 -0.1816
  297MOL0     C40894   0.583   3.527   5.349  0.3287 -0.5702 -0.4798
  297MOL0     C40895   0.725   3.516   5.358  0.3980 -1.2787  0.2984
  297MOL0     O40896   0.987   3.316   5.127  0.9694 -0.1374 -0.0744
  297MOL0     C40897   1.193   3.567   5.298 -0.2350 -0.0011  0.6462
  297MOL0     C40898   1.321   3.609   5.329  0.0861  0.8199  0.3396
  297MOL0     N40899   2.040   3.691   4.998 -0.4046 -0.0938  0.0934
  297MOL0     N40900   2.159   3.724   5.027 -0.3230  0.5047 -0.7912
  297MOL0     C40901   3.225   3.811   4.893  0.5487  0.0911  0.0065
  297MOL0     C40902   3.363   3.816   4.931  0.1292 -0.4500 -0.3514
  297MOL0     C40903   3.815   3.724   4.891  0.0669 -0.5075 -0.1856
  297MOL0     C40904   3.864   3.756   4.764 -0.6806 -0.2987  0.2927
  297MOL0     C40905   4.000   3.742   4.746 -0.1608 -0.2052 -0.1428
  297MOL0     C40906   4.085   3.691   4.846 -0.2338  0.4243 -0.7549
  297MOL0     O40907   4.217   3.657   4.804 -0.0374 -1.0873  0.0533
  297MOL0     C40908   4.325   3.612   4.892 -0.5185  0.1244 -0.1517
  297MOL0     C40909   4.368   3.739   4.970  0.5899  0.0170 -0.3919
  297MOL0     C40910   4.468   3.699   5.080  0.2313 -0.7438 -0.1588
  297MOL0     C40911   4.608   3.664   5.023 -0.3200 -0.2122 -0.1125
  297MOL0     C40912   4.685   3.774   4.957  1.1445  0.0917  0.6367
  297MOL0     C40913   4.752   3.851   4.900 -0.2215  0.3874  0.0636
  297MOL0     C40914   4.039   3.660   4.974 -0.2304  0.0777  0.3187
  297MOL0     C40915   3.898   3.671   4.999 -0.3391 -0.2728  1.5797
  297MOL0     C40916   3.844   3.634   5.136 -0.0830  0.4918  0.4979
  297MOL0     H40917   3.518   3.769   4.641 -0.6599  0.1490 -0.5531
  297MOL0     H40918   3.272   3.787   4.559  2.6597  2.3674 -0.2645
  297MOL0     H40919   2.946   3.856   4.864 -0.0316 -1.8021  1.1907
  297MOL0     H40920   2.969   3.689   4.851  0.0724  1.3308  2.7601
  297MOL0     H40921   2.829   3.878   4.658  2.6883 -1.6644 -2.2734
  297MOL0     H40922   2.862   3.715   4.625  0.7589 -0.3850  1.2230
  297MOL0     H40923   2.687   3.632   4.758  1.5358 -0.6894 -1.4153
  297MOL0     H40924   2.718   3.756   4.887 -1.4575 -3.7151  0.8330
  297MOL0     H40925   2.601   3.918   4.775 -0.9388  0.0164  0.5672
  297MOL0     H40926   2.583   3.822   4.620 -0.6702 -1.6390 -0.2527
  297MOL0     H40927   2.436   3.732   4.877 -1.0437  0.2600  1.1044
  297MOL0     H40928   2.417   3.689   4.708  3.4720 -0.6105 -1.6064
  297MOL0     H40929   2.360   3.927   4.662 -1.9692 -1.0726 -0.6252
  297MOL0     H40930   2.239   3.840   4.757 -0.5188 -0.5019  3.0799
  297MOL0     H40931   2.276   4.070   4.837  0.8763  2.5317  3.5114
  297MOL0     H40932   2.438   4.040   4.869 -1.1819  1.6892  5.3888
  297MOL0     H40933   2.383   3.871   5.039  0.4935  0.8183 -0.9885
  297MOL0     H40934   2.288   4.021   5.078  0.1474 -2.2402  3.8431
  297MOL0     H40935   2.040   4.003   4.926 -0.9337 -2.0678 -0.0933
  297MOL0     H40936   1.793   3.708   4.923  1.2124 -1.2068 -0.0308
  297MOL0     H40937   1.790   3.893   4.898  2.7728  0.2380 -1.0301
  297MOL0     H40938   1.808   3.860   5.170 -0.9576 -0.8290  1.6485
  297MOL0     H40939   1.656   3.897   5.093  1.1711  1.7525  1.4895
  297MOL0     H40940   1.595   3.653   5.069 -1.5716 -1.4434  2.5741
  297MOL0     H40941   1.753   3.616   5.138 -1.2272 -0.9875  2.1727
  297MOL0     H40942   1.681   3.749   5.336  2.2409 -5.7548  2.6728
  297MOL0     H40943   1.523   3.783   5.260 -1.4350 -0.7806 -0.3262
  297MOL0     H40944   1.498   3.398   5.142 -0.1984  1.9826 -1.2520
  297MOL0     H40945   1.381   3.243   5.030  1.3205  2.3046  1.1087
  297MOL0     H40946   1.259   3.329   4.943  0.6790  0.9044 -0.4727
  297MOL0     H40947   1.217   3.200   5.066  1.1032 -0.9071 -2.2417
  297MOL0     H40948   0.785   3.473   5.025 -1.8457  1.4454 -1.2301
  297MOL0     H40949   0.550   3.492   5.008  0.0402 -2.1564 -0.7183
  297MOL0     H40950   0.371   3.432   5.031 -3.6970  0.0445 -1.7097
  297MOL0     H40951   0.314   3.347   5.175 -0.4223  0.7376  2.7290
  297MOL0     H40952   0.133   3.523   5.182  1.2605  2.6757  0.6628
  297MOL0     H40953   0.203   3.622   5.066 -4.2492 -0.0187  0.2345
  297MOL0     H40954   0.152   3.339   4.974 -0.6655 -1.0484  3.4581
  297MOL0     H40955   0.160   3.485   4.885 -0.1237 -2.3360 -1.0157
  297MOL0     H40956  -0.058   3.549   4.948 -0.2294  0.0380 -0.3969
  297MOL0     H40957  -0.052   3.448   5.097  3.4433  1.2336  0.9093
  297MOL0     H40958  -0.075   3.362   4.811 -0.3251  0.1690 -0.0065
  297MOL0     H40959  -0.040   3.250   4.928 -2.3417 -1.7311 -2.6278
  297MOL0     H40960  -0.269   3.451   4.916  1.9665 -0.5890 -6.4801
  297MOL0     H40961  -0.273   3.315   5.043  1.5402 -2.0721  0.0236
  297MOL0     H40962  -0.279   3.160   4.855  7.7692  1.6529  0.4570
  297MOL0     H40963  -0.271   3.289   4.739 -0.8483 -1.0488 -1.3200
  297MOL0     H40964  -0.502   3.223   4.765  1.2346 -0.0986 -1.0686
  297MOL0     H40965  -0.452   3.392   4.795  2.0669 -0.7838 -0.6170
  297MOL0     H40966   0.524   3.547   5.438  1.3251 -1.4293  0.3971
  297MOL0     H40967   0.769   3.543   5.453 -1.2795  1.5278  0.3914
  297MOL0     H40968   1.118   3.628   5.347  0.5816  3.8088 -2.3175
  297MOL0     H40969   1.340   3.685   5.404 -0.0076  0.3412  0.8589
  297MOL0     H40970   3.144   3.812   4.965  0.3854 -1.3678 -0.1244
  297MOL0     H40971   3.375   3.840   5.037 -0.3953  0.8207 -0.5592
  297MOL0     H40972   3.797   3.791   4.686 -1.9386  1.3853  2.0293
  297MOL0     H40973   4.041   3.761   4.648  2.0375  0.0536  0.7868
  297MOL0     H40974   4.287   3.529   4.952 -2.6691  1.8608  1.0446
  297MOL0     H40975   4.404   3.573   4.827 -0.7667 -0.6749  0.0161
  297MOL0     H40976   4.276   3.773   5.019  0.5457 -0.3612 -0.2088
  297MOL0     H40977   4.393   3.829   4.914  0.7714  0.8681  1.0089
  297MOL0     H40978   4.508   3.785   5.135 -0.7889  0.0119 -0.5706
  297MOL0     H40979   4.425   3.627   5.150 -0.7765 -1.0598 -1.0872
  297MOL0     H40980   4.600   3.581   4.953 -1.0036 -0.8020  0.6556
  297MOL0     H40981   4.676   3.631   5.102 -1.9146 -3.2213  0.1166
  297MOL0     H40982   4.810   3.925   4.848 -0.9259  0.6384 -0.3744
  297MOL0     H40983   4.108   3.619   5.047  0.5059  0.8084  0.0429
  297MOL0     H40984   3.755   3.694   5.154 -0.9392 -0.7256  0.4612
  297MOL0     H40985   3.807   3.532   5.124  3.3810 -0.8988  0.2717
  297MOL0     H40986   3.925   3.635   5.210  1.0480 -2.8553 -0.4566
  298MOL0     O40987  10.148  10.882  10.005 -0.1310  0.0385  0.4354
  298MOL0     C40988  10.201  10.973   9.961  0.8382  0.2014  0.2003
  298MOL0     O40989  10.147  11.099   9.970 -1.1735 -0.1092  0.2857
  298MOL0     C40990  10.031  11.130  10.036 -0.3164  0.4263 -0.2206
  298MOL0     C40991  10.007  11.261  10.039 -0.0215  0.6773 -0.1110
  298MOL0     C40992   9.889  11.317  10.080  0.8099  0.4886  0.2531
  298MOL0     C40993   9.791  11.240  10.132 -0.4314 -0.1252 -0.4227
  298MOL0     O40994   9.687  11.297  10.200 -0.4087  0.0512 -0.1710
  298MOL0     C40995   9.625  11.394  10.111  0.5398 -0.5091  0.3889
  298MOL0     C40996   9.484  11.401  10.154  0.3588 -0.0144  0.7257
  298MOL0     C40997   9.406  11.499  10.065  0.1858  0.4370 -0.3894
  298MOL0     C40998   9.258  11.529  10.108 -0.6257  0.1995 -0.4061
  298MOL0     C40999   9.168  11.607  10.012 -0.4090 -0.4572 -0.7843
  298MOL0     C41000   9.141  11.545   9.872 -0.1320 -0.3566  0.5211
  298MOL0     C41001   9.089  11.400   9.869 -0.2106  0.2235  0.2105
  298MOL0     C41002   8.996  11.393   9.752  0.1876  0.4659  0.9512
  298MOL0     N41003   8.976  11.257   9.703  0.1341  0.4442  0.0508
  298MOL0     C41004   9.074  11.174   9.661  0.0372 -0.0626 -0.7439
  298MOL0     C41005   9.010  11.077   9.594  0.0587 -0.1784 -0.1939
  298MOL0     C41006   9.059  10.972   9.508  1.1007  0.4815 -0.4095
  298MOL0     C41007   9.106  10.839   9.571  0.8068 -0.9723 -0.1199
  298MOL0     C41008   9.186  10.856   9.699 -0.2604  0.4886  0.4181
  298MOL0     C41009   9.277  10.737   9.714 -0.5542  0.1682 -0.0460
  298MOL0     O41010   9.383  10.742   9.612 -0.5819 -0.5865 -0.3279
  298MOL0     C41011   9.448  10.621   9.590 -0.5662  0.6811 -0.8817
  298MOL0     C41012   9.453  10.514   9.687 -0.4510 -0.0579  0.3746
  298MOL0     C41013   9.516  10.390   9.659 -0.2259 -0.1313 -0.2709
  298MOL0     C41014   9.520  10.287   9.767  0.8313  0.5100 -0.1838
  298MOL0     C41015   9.572  10.372   9.523 -0.0092  0.0732  0.2877
  298MOL0     C41016   9.649  10.250   9.482 -0.3472 -1.1374 -1.3451
  298MOL0     O41017   9.698  10.242   9.352 -0.1835 -1.0544 -0.2245
  298MOL0     C41018   9.785  10.139   9.325 -0.0426  0.0399  0.5546
  298MOL0     C41019   9.738  10.007   9.279  1.0709 -0.7589 -0.5202
  298MOL0     C41020   9.834   9.906   9.270 -0.2779 -0.5764  0.0193
  298MOL0     C41021   9.969   9.932   9.290  0.2738  0.2188 -0.1991
  298MOL0     O41022  10.063   9.829   9.282  0.6170  0.4449  0.2944
  298MOL0     C41023  10.189   9.870   9.217 -0.3203 -0.5894  0.3901
  298MOL0     C41024  10.307   9.854   9.321 -0.5309 -0.5210  0.6653
  298MOL0     C41025  10.446   9.930   9.273  0.6553 -0.0344 -0.4492
  298MOL0     C41026  10.444  10.065   9.349 -0.2840  0.1967 -0.2351
  298MOL0     C41027  10.554  10.152   9.307 -0.0732  0.0424  0.0363
  298MOL0     C41028  10.600  10.263   9.410  0.1447  0.2187  0.2543
  298MOL0     C41029  10.680  10.207   9.514  0.7107 -0.3520 -0.6281
  298MOL0     C41030  10.772  10.318   9.571  0.1793 -0.3496  0.1363
  298MOL0    Cl41031  10.671  10.435   9.671  0.1187  0.0479 -0.2061
  298MOL0     C41032  10.010  10.057   9.344 -0.1238 -0.0254  0.2782
  298MOL0     C41033   9.920  10.162   9.347  0.0157 -0.0896 -0.2837
  298MOL0     O41034   9.663  10.163   9.563 -0.4108  0.3765 -0.2657
  298MOL0     C41035   9.562  10.475   9.430  0.2813  0.1589 -0.7940
  298MOL0     C41036   9.511  10.601   9.463  0.0270 -0.4810 -1.0571
  298MOL0     N41037   8.878  11.087   9.616  0.6683  0.2466 -0.4191
  298MOL0     N41038   8.856  11.202   9.667  0.2004  0.5056 -0.0661
  298MOL0     C41039   9.806  11.102  10.139 -0.5011 -0.6434 -0.2374
  298MOL0     C41040   9.928  11.048  10.099  0.4751  0.5191 -0.2714
  298MOL0     C41041  10.334  10.958   9.892  0.0409 -0.5503 -0.2381
  298MOL0     C41042  10.402  11.076   9.850 -0.7333 -0.2247 -0.4007
  298MOL0     C41043  10.531  11.064   9.796  0.1558  0.3932  0.2381
  298MOL0     C41044  10.593  10.952   9.766 -0.0581  0.0846 -0.7266
  298MOL0     O41045  10.711  10.960   9.692 -0.5085 -0.1171 -0.6233
  298MOL0     C41046  10.790  10.849   9.673 -0.1579 -0.2418  0.7659
  298MOL0     C41047  10.928  10.893   9.619  0.6826  0.1339  0.0941
  298MOL0     C41048  11.006  10.767   9.593  0.8643 -0.0044 -0.8074
  298MOL0     C41049  11.151  10.807   9.554  1.5385 -1.0419 -0.1957
  298MOL0     C41050  11.234  10.690   9.570  0.0335 -0.7076  0.2658
  298MOL0     C41051  11.307  10.594   9.584 -0.8774  0.9205 -0.3166
  298MOL0     C41052  10.537  10.834   9.818 -0.0575 -0.3730 -0.0027
  298MOL0     C41053  10.408  10.830   9.876  0.7345 -1.3114  0.1207
  298MOL0     C41054  10.347  10.687   9.902  0.5573  0.7472 -0.1653
  298MOL0     H41055  10.066  11.326   9.974 -2.7716  1.6292 -1.8358
  298MOL0     H41056   9.878  11.425  10.074 -4.7089  0.2680  0.7802
  298MOL0     H41057   9.635  11.367  10.005  0.0929 -2.6013  0.8371
  298MOL0     H41058   9.674  11.492  10.115  0.7605 -0.5476 -0.8246
  298MOL0     H41059   9.441  11.301  10.142 -0.0626  0.3791 -1.6744
  298MOL0     H41060   9.478  11.444  10.254 -0.1031  1.5097  0.0694
  298MOL0     H41061   9.460  11.593  10.053  2.4245 -0.3382  2.4276
  298MOL0     H41062   9.394  11.451   9.967 -2.2451  1.5905 -0.7208
  298MOL0     H41063   9.201  11.440  10.134  2.8243 -2.3097 -0.6887
  298MOL0     H41064   9.260  11.597  10.193 -1.1417 -2.1640  1.5985
  298MOL0     H41065   9.207  11.708  10.005  2.0728 -1.4760 -4.2533
  298MOL0     H41066   9.076  11.610  10.072 -0.6756  0.9981 -1.2257
  298MOL0     H41067   9.079  11.612   9.812 -0.8936 -2.0767 -0.6819
  298MOL0     H41068   9.235  11.556   9.817  1.2223  1.5533  3.0092
  298MOL0     H41069   9.038  11.361   9.958  1.8783 -1.2017  0.8542
  298MOL0     H41070   9.165  11.323   9.851 -0.9952 -0.4198 -0.4999
  298MOL0     H41071   8.891  11.424   9.762 -0.5007 -1.2945 -0.3295
  298MOL0     H41072   9.042  11.453   9.674 -0.6220  1.2637  1.0758
  298MOL0     H41073   9.182  11.173   9.659  0.0746 -1.4261  0.6210
  298MOL0     H41074   9.141  11.026   9.460 -1.0209  1.8039 -2.8012
  298MOL0     H41075   8.988  10.962   9.426  1.7556  0.2480 -0.9591
  298MOL0     H41076   9.030  10.761   9.585 -0.5034  0.2705 -0.1033
  298MOL0     H41077   9.180  10.805   9.497  1.1860 -2.0559  0.7185
  298MOL0     H41078   9.251  10.941   9.680 -0.6841  0.2686 -2.5381
  298MOL0     H41079   9.122  10.856   9.788 -0.9219 -2.0104  0.0224
  298MOL0     H41080   9.319  10.719   9.814 -1.9616 -5.0726 -0.1054
  298MOL0     H41081   9.210  10.654   9.692  1.2023 -1.1641 -0.6271
  298MOL0     H41082   9.406  10.524   9.784  0.1418  0.3825  0.6266
  298MOL0     H41083   9.472  10.317   9.861  0.7662 -1.1716  0.3523
  298MOL0     H41084   9.615  10.241   9.796 -1.5087 -3.7891  1.5958
  298MOL0     H41085   9.455  10.202   9.744 -2.2196  2.1506  1.5457
  298MOL0     H41086   9.633   9.986   9.265  0.0217  2.8567  0.8187
  298MOL0     H41087   9.820   9.814   9.213  1.1411  0.6214 -2.4417
  298MOL0     H41088  10.207   9.826   9.119 -0.1060  2.7647 -1.2296
  298MOL0     H41089  10.174   9.971   9.177 -2.1537 -0.0736  2.1554
  298MOL0     H41090  10.276   9.885   9.421 -3.0911  0.5624 -0.3863
  298MOL0     H41091  10.334   9.747   9.320  1.2446 -0.1470 -1.5181
  298MOL0     H41092  10.438   9.947   9.165  1.0267 -3.4397 -1.1252
  298MOL0     H41093  10.538   9.873   9.282  0.0692 -0.8886  0.3216
  298MOL0     H41094  10.459  10.031   9.452 -1.9518 -1.6705 -0.5365
  298MOL0     H41095  10.346  10.111   9.333  0.1961  1.3570  0.0609
  298MOL0     H41096  10.642  10.094   9.279  1.1389  1.8402 -0.0202
  298MOL0     H41097  10.515  10.200   9.216  0.7624  1.9452  0.6352
  298MOL0     H41098  10.509  10.307   9.450 -0.8982  1.8871 -3.5469
  298MOL0     H41099  10.652  10.340   9.353 -0.8270  1.3299  0.8263
  298MOL0     H41100  10.750  10.130   9.482 -1.1324 -1.3999 -2.3192
  298MOL0     H41101  10.617  10.171   9.596  3.7911 -1.2670  1.5697
  298MOL0     H41102  10.816  10.372   9.487 -2.7535  0.2712 -1.1475
  298MOL0     H41103  10.844  10.265   9.634  0.2534 -0.1779  0.1956
  298MOL0     H41104  10.103  10.086   9.391  1.3314 -1.1078 -1.7927
  298MOL0     H41105   9.952  10.262   9.376 -0.0096  0.3036 -1.5356
  298MOL0     H41106   9.601  10.460   9.330  2.0183 -0.7861 -0.0159
  298MOL0     H41107   9.500  10.670   9.380 -1.8456  0.8287  0.2133
  298MOL0     H41108   9.726  11.040  10.178 -1.6439  0.9416  0.0685
  298MOL0     H41109   9.935  10.940  10.104  3.4451  0.6572  0.9193
  298MOL0     H41110  10.339  11.164   9.862 -1.3426 -0.5384 -1.1845
  298MOL0     H41111  10.583  11.149   9.752  1.1369 -2.4336 -4.7979
  298MOL0     H41112  10.803  10.803   9.772 -1.2313 -1.9313  0.1726
  298MOL0     H41113  10.741  10.772   9.613  1.4004 -0.3315 -0.4542
  298MOL0     H41114  10.964  10.956   9.701  1.0109  1.3361 -0.9257
  298MOL0     H41115  10.907  10.953   9.530  1.1638 -0.0021 -0.1162
  298MOL0     H41116  11.005  10.708   9.685  2.2158 -1.9672 -1.9728
  298MOL0     H41117  10.958  10.703   9.518 -0.3702 -2.9392  2.2240
  298MOL0     H41118  11.191  10.880   9.624 -1.8291  2.7407 -1.7816
  298MOL0     H41119  11.151  10.853   9.454 -2.6762 -0.7918 -0.2589
  298MOL0     H41120  11.363  10.507   9.615 -0.7538  1.1551  0.1303
  298MOL0     H41121  10.580  10.735   9.822 -2.1207 -1.3767 -0.7250
  298MOL0     H41122  10.415  10.605   9.878 -2.9651 -1.7301 -2.4960
  298MOL0     H41123  10.307  10.672  10.003  1.5222  0.5634  0.2021
  298MOL0     H41124  10.266  10.669   9.831 -1.1396  1.0050  1.6313
  299MOL0     O41125   2.522  10.417   1.003  0.9089 -0.2420  0.0545
  299MOL0     C41126   2.501  10.417   0.880 -0.0998 -0.6797  0.9009
  299MOL0     O41127   2.591  10.416   0.780  0.3765  0.4014  0.2328
  299MOL0     C41128   2.719  10.434   0.814 -0.2318 -0.7889  0.5338
  299MOL0     C41129   2.766  10.565   0.822  0.5018  0.6604  0.8805
  299MOL0     C41130   2.894  10.587   0.863 -1.2673 -0.6729 -0.3500
  299MOL0     C41131   2.975  10.483   0.900 -1.2569  0.0943  0.0186
  299MOL0     O41132   3.110  10.517   0.948  0.5317 -0.2591  0.8771
  299MOL0     C41133   3.181  10.416   1.006 -0.4711 -0.3698  0.8594
  299MOL0     C41134   3.309  10.470   1.068  0.4222  0.8733  1.0859
  299MOL0     C41135   3.289  10.539   1.208  0.0978 -0.3543  0.3323
  299MOL0     C41136   3.190  10.663   1.200 -0.4018 -0.0580 -0.1916
  299MOL0     C41137   3.234  10.774   1.305  0.1588 -0.5380 -0.0575
  299MOL0     C41138   3.162  10.900   1.282 -0.4777 -0.6159  0.4433
  299MOL0     C41139   3.220  11.008   1.384  0.0250  0.1765 -0.8403
  299MOL0     C41140   3.193  11.161   1.373 -0.6120  0.3800  0.2253
  299MOL0     N41141   3.047  11.191   1.386 -0.9557  0.7528  0.7265
  299MOL0     C41142   2.956  11.177   1.280 -0.3079  0.6166  0.5514
  299MOL0     C41143   2.843  11.243   1.326 -0.2522 -0.4180 -0.2128
  299MOL0     C41144   2.723  11.261   1.230  0.3836 -0.1025 -0.2868
  299MOL0     C41145   2.599  11.214   1.301  0.0696 -0.5914 -0.0266
  299MOL0     C41146   2.470  11.225   1.227 -0.4954 -0.2002 -0.3613
  299MOL0     C41147   2.361  11.129   1.281 -0.1523  0.1621  1.0499
  299MOL0     O41148   2.307  11.190   1.399 -0.0496 -0.3479 -0.3094
  299MOL0     C41149   2.194  11.262   1.388  0.7063 -0.3643  0.0707
  299MOL0     C41150   2.158  11.333   1.504  1.3524  0.8241  0.3977
  299MOL0     C41151   2.030  11.393   1.525  0.1846 -0.3326  0.9647
  299MOL0     C41152   1.995  11.462   1.654 -0.7035  0.7173  0.0680
  299MOL0     C41153   1.934  11.392   1.416  0.2663  0.0127  0.1864
  299MOL0     C41154   1.809  11.468   1.421  0.1679  0.0628  0.5264
  299MOL0     O41155   1.746  11.484   1.545 -0.4923  0.3098  0.2483
  299MOL0     C41156   1.627  11.546   1.557  1.2976  0.2231  0.5014
  299MOL0     C41157   1.604  11.607   1.681  0.0095 -0.1918 -0.3313
  299MOL0     C41158   1.504  11.694   1.707 -0.1147 -0.5525 -0.0728
  299MOL0     C41159   1.417  11.739   1.603 -0.2093  0.2978  0.4253
  299MOL0     O41160   1.323  11.829   1.614  0.2474 -0.2259  0.4254
  299MOL0     C41161   1.278  11.869   1.742 -0.4175  0.0794 -0.3203
  299MOL0     C41162   1.212  12.001   1.730 -1.0229 -0.5103 -0.9365
  299MOL0     C41163   1.078  12.005   1.653 -0.3219  0.1141  0.2946
  299MOL0     C41164   0.978  11.898   1.700  0.3735 -0.5771  0.0827
  299MOL0     C41165   0.852  11.927   1.626 -0.5808  0.2179  0.7858
  299MOL0     C41166   0.738  11.846   1.684 -0.2588 -1.1049 -0.3773
  299MOL0     C41167   0.599  11.887   1.626  1.2455 -0.0657 -0.2672
  299MOL0     C41168   0.577  12.032   1.665  0.4323  0.5471  0.1188
  299MOL0    Cl41169   0.408  12.082   1.646  0.3109 -0.1265 -0.1452
  299MOL0     C41170   1.432  11.672   1.481  1.0050  0.3397 -0.4143
  299MOL0     C41171   1.528  11.574   1.462  0.5513  0.2840  0.4013
  299MOL0     O41172   1.789  11.528   1.315 -0.6100 -0.9534  0.5493
  299MOL0     C41173   1.970  11.321   1.300 -0.2618  0.2373 -0.5486
  299MOL0     C41174   2.086  11.243   1.295 -0.1049 -0.9468  0.1065
  299MOL0     N41175   2.878  11.297   1.449  0.1869  0.3339 -0.1635
  299MOL0     N41176   2.992  11.262   1.491  0.0202  0.1327  0.4439
  299MOL0     C41177   2.927  10.354   0.883  0.5466 -0.5372  0.0019
  299MOL0     C41178   2.801  10.324   0.832  0.0003 -0.2994  0.2353
  299MOL0     C41179   2.358  10.404   0.836  1.2132  0.0708 -0.5153
  299MOL0     C41180   2.259  10.482   0.907  0.4465  0.0924  0.3827
  299MOL0     C41181   2.125  10.481   0.875  0.6865  0.2071 -0.1063
  299MOL0     C41182   2.074  10.390   0.780  0.4027 -0.6908 -0.6959
  299MOL0     O41183   1.937  10.391   0.782  0.2580  0.5721 -0.9814
  299MOL0     C41184   1.869  10.290   0.710 -0.4328 -0.1910  0.3325
  299MOL0     C41185   1.743  10.242   0.781  0.0097  0.2755 -0.2054
  299MOL0     C41186   1.666  10.128   0.711 -0.9934  0.3090 -0.0811
  299MOL0     C41187   1.575  10.052   0.811 -0.8523 -0.2405 -0.1892
  299MOL0     C41188   1.517   9.938   0.740  0.0730  0.5592 -0.7115
  299MOL0     C41189   1.483   9.835   0.683 -0.1743  0.9074  0.1176
  299MOL0     C41190   2.169  10.306   0.717  0.2520  0.7397 -0.8164
  299MOL0     C41191   2.312  10.309   0.756 -0.1979 -0.1822  0.0426
  299MOL0     C41192   2.399  10.198   0.695  0.3337  0.6173 -0.5146
  299MOL0     H41193   2.692  10.633   0.782 -2.4024 -2.1410  1.0357
  299MOL0     H41194   2.933  10.688   0.872  1.4505 -1.6488 -0.0966
  299MOL0     H41195   3.215  10.350   0.926  0.1540  1.7734 -0.7462
  299MOL0     H41196   3.130  10.361   1.086 -0.4462 -0.0032  1.1304
  299MOL0     H41197   3.384  10.390   1.076 -0.4117 -0.7076 -3.4658
  299MOL0     H41198   3.347  10.538   0.991 -3.7083 -0.2676 -2.3192
  299MOL0     H41199   3.251  10.472   1.285  2.4640  2.0344  3.9265
  299MOL0     H41200   3.382  10.577   1.251  0.2821 -2.6978  2.1621
  299MOL0     H41201   3.211  10.711   1.104 -1.2075  3.1434  1.0810
  299MOL0     H41202   3.090  10.620   1.205 -1.3627  2.1670  1.3196
  299MOL0     H41203   3.341  10.789   1.294 -0.2253  1.6208 -1.4242
  299MOL0     H41204   3.220  10.735   1.406 -0.4331 -0.1069  0.0371
  299MOL0     H41205   3.180  10.931   1.178  1.2468 -0.2549  0.8083
  299MOL0     H41206   3.054  10.895   1.296 -0.8708  4.3224  1.0977
  299MOL0     H41207   3.330  11.011   1.384  0.1852  0.5603  3.7714
  299MOL0     H41208   3.199  10.998   1.491  4.2789 -1.6960  0.0568
  299MOL0     H41209   3.252  11.215   1.447 -0.2147  2.6293 -1.6116
  299MOL0     H41210   3.239  11.193   1.279  2.3739 -2.4106  0.5496
  299MOL0     H41211   2.970  11.130   1.184 -1.9406  0.1818  0.4977
  299MOL0     H41212   2.739  11.213   1.133  1.4253 -1.8528  0.7100
  299MOL0     H41213   2.704  11.367   1.213 -0.2094  0.0838  1.3604
  299MOL0     H41214   2.613  11.107   1.321 -0.8256 -0.9381 -1.1876
  299MOL0     H41215   2.586  11.267   1.396 -0.7974 -1.1287  0.1656
  299MOL0     H41216   2.440  11.330   1.234  2.3374  0.6379  0.6359
  299MOL0     H41217   2.478  11.209   1.119 -1.6970 -1.3107 -0.3094
  299MOL0     H41218   2.288  11.112   1.201  0.4200 -3.6324  1.1507
  299MOL0     H41219   2.406  11.032   1.306 -0.4326  0.3853  2.4855
  299MOL0     H41220   2.227  11.336   1.587 -1.7493 -0.5780  3.2771
  299MOL0     H41221   2.092  11.491   1.695  2.1892 -0.0121 -5.2928
  299MOL0     H41222   1.943  11.389   1.717 -2.9675  0.4034 -2.0232
  299MOL0     H41223   1.933  11.551   1.644 -0.9357  0.5638  0.1425
  299MOL0     H41224   1.679  11.583   1.756  2.1592 -0.5894 -2.4935
  299MOL0     H41225   1.494  11.739   1.805  1.9464  3.3609 -1.4429
  299MOL0     H41226   1.210  11.795   1.785  1.0462 -1.1223  0.0256
  299MOL0     H41227   1.363  11.877   1.810 -1.1240 -0.5824  0.6708
  299MOL0     H41228   1.191  12.044   1.829 -0.8525 -2.1306 -0.1691
  299MOL0     H41229   1.283  12.070   1.683 -0.3662 -0.7818 -0.3500
  299MOL0     H41230   1.102  11.983   1.549  2.8891  0.1330  0.9384
  299MOL0     H41231   1.026  12.101   1.655 -2.0300 -0.7192 -1.0605
  299MOL0     H41232   0.966  11.911   1.808  0.3242 -1.3072  0.1710
  299MOL0     H41233   1.024  11.799   1.687 -0.2185 -1.3734  3.2241
  299MOL0     H41234   0.849  12.036   1.618  3.9204  0.5841  1.5079
  299MOL0     H41235   0.866  11.890   1.524  1.4138 -1.0786  1.4725
  299MOL0     H41236   0.737  11.857   1.793 -0.6807  0.6768 -0.5261
  299MOL0     H41237   0.751  11.741   1.657 -2.0899 -1.0109 -1.7686
  299MOL0     H41238   0.516  11.834   1.675 -0.9969  4.6523  1.6155
  299MOL0     H41239   0.599  11.864   1.520  5.2308 -1.6386 -0.1003
  299MOL0     H41240   0.640  12.101   1.608  2.9506 -2.1986 -0.7103
  299MOL0     H41241   0.597  12.052   1.771  0.7321  1.0182 -0.0234
  299MOL0     H41242   1.363  11.694   1.400 -0.1621 -2.2331 -0.2261
  299MOL0     H41243   1.530  11.532   1.362 -2.0025 -1.2132  0.8659
  299MOL0     H41244   1.909  11.331   1.210 -0.4372  0.1082 -0.4433
  299MOL0     H41245   2.092  11.178   1.208 -2.7704 -1.0428 -0.0823
  299MOL0     H41246   2.996  10.270   0.890 -1.1837 -2.1298 -1.0404
  299MOL0     H41247   2.773  10.222   0.809  2.0755 -0.6334 -1.0701
  299MOL0     H41248   2.287  10.552   0.985 -4.4594  4.2046 -0.9546
  299MOL0     H41249   2.060  10.550   0.928  0.4516  0.5072 -0.7861
  299MOL0     H41250   1.859  10.320   0.606 -1.7764 -1.1788  0.1465
  299MOL0     H41251   1.937  10.205   0.705 -1.2058 -0.8287  0.3697
  299MOL0     H41252   1.679  10.328   0.803  1.8491  1.4806  0.7141
  299MOL0     H41253   1.776  10.209   0.880  0.3822 -3.1596 -1.3395
  299MOL0     H41254   1.610  10.172   0.628  0.7932  1.6588 -0.6376
  299MOL0     H41255   1.746  10.059   0.680  0.5068 -0.8513  5.3665
  299MOL0     H41256   1.498  10.124   0.840 -1.0159 -0.9612  1.2842
  299MOL0     H41257   1.633  10.012   0.895  2.7935 -0.6451 -2.6454
  299MOL0     H41258   1.450   9.750   0.627  0.8208  0.2717  0.4593
  299MOL0     H41259   2.141  10.222   0.654 -1.9787 -0.4806  1.6202
  299MOL0     H41260   2.486  10.240   0.645  0.5998  0.2172 -0.3912
  299MOL0     H41261   2.448  10.131   0.767 -1.6654 -0.5405 -0.1631
  299MOL0     H41262   2.348  10.140   0.618  0.1326 -1.0179  0.7977
  300MOL0     O41263   6.109   9.919   3.701 -0.5662  0.6294 -0.2300
  300MOL0     C41264   6.021   9.981   3.763 -0.5696  0.0064  0.3826
  300MOL0     O41265   5.972   9.952   3.887  0.3286 -0.3678 -0.4840
  300MOL0     C41266   6.034   9.859   3.969  0.6670 -0.2512  0.0341
  300MOL0     C41267   6.166   9.799   3.971  1.2183  0.1653  0.5947
  300MOL0     C41268   6.212   9.710   4.059  0.3811  0.3329  0.7960
  300MOL0     C41269   6.130   9.679   4.164  0.1984  0.2706 -0.1399
  300MOL0     O41270   6.190   9.588   4.258  0.7495  0.1484  0.3809
  300MOL0     C41271   6.103   9.540   4.368 -0.6092 -0.5221  0.4633
  300MOL0     C41272   6.189   9.445   4.464  0.1415 -0.2210 -0.5176
  300MOL0     C41273   6.101   9.383   4.577  0.4398  0.3261  0.0830
  300MOL0     C41274   6.173   9.288   4.673 -0.1726 -0.4030 -0.6500
  300MOL0     C41275   6.082   9.212   4.771  1.2856 -0.8804  0.0055
  300MOL0     C41276   6.159   9.103   4.843 -1.1930 -0.0455 -0.2097
  300MOL0     C41277   6.086   9.018   4.953 -1.0760  0.5216 -0.3202
  300MOL0     C41278   6.187   8.929   5.025 -0.6583 -0.6209  0.3020
  300MOL0     N41279   6.257   8.997   5.136  0.3825 -0.2079  0.7483
  300MOL0     C41280   6.185   9.018   5.248 -0.7430  0.1989  0.0492
  300MOL0     C41281   6.275   9.088   5.323 -0.1932  0.5364  0.0146
  300MOL0     C41282   6.250   9.127   5.464  0.4756 -0.0265 -0.3147
  300MOL0     C41283   6.259   9.020   5.572  0.0168 -0.5574  1.5844
  300MOL0     C41284   6.250   9.084   5.711 -0.2058  0.2590 -0.8606
  300MOL0     C41285   6.395   9.123   5.755  0.7493 -0.6997 -0.5296
  300MOL0     O41286   6.403   9.187   5.884 -0.2721 -0.0307  0.0610
  300MOL0     C41287   6.468   9.136   5.990 -1.2919  0.7999 -0.4419
  300MOL0     C41288   6.577   9.042   5.991  0.6687  0.7977 -0.2535
  300MOL0     C41289   6.638   9.003   6.112 -0.5674  0.3185 -0.2645
  300MOL0     C41290   6.738   8.890   6.113 -0.2701  0.2562 -0.1427
  300MOL0     C41291   6.589   9.061   6.234 -0.2938 -0.4746 -0.5347
  300MOL0     C41292   6.646   9.027   6.368  0.6974 -1.0455 -0.3551
  300MOL0     O41293   6.593   9.091   6.475  0.5930  0.2991 -0.3208
  300MOL0     C41294   6.660   9.063   6.594  1.1204  0.1317 -0.1882
  300MOL0     C41295   6.601   8.998   6.700  0.6105 -0.5594 -0.0896
  300MOL0     C41296   6.672   8.960   6.812 -0.0782  1.1226  0.3904
  300MOL0     C41297   6.809   8.983   6.825  1.0046 -0.1645  0.2625
  300MOL0     O41298   6.888   8.942   6.930  0.2257 -0.2818  0.5092
  300MOL0     C41299   6.834   8.964   7.063 -0.4616 -0.6783  0.3580
  300MOL0     C41300   6.937   8.940   7.173  0.3431 -0.1205  0.1256
  300MOL0     C41301   6.871   8.957   7.309 -0.0663 -0.5551 -0.4305
  300MOL0     C41302   6.846   9.110   7.355 -0.2374 -0.6841  0.4831
  300MOL0     C41303   6.797   9.129   7.503  0.0620 -0.2308 -0.2393
  300MOL0     C41304   6.655   9.079   7.521 -0.4253  1.2387  0.4928
  300MOL0     C41305   6.613   9.074   7.667  0.0432  0.0440  0.3974
  300MOL0     C41306   6.618   9.208   7.750 -0.5423  0.7539  0.2609
  300MOL0    Cl41307   6.630   9.376   7.684 -0.2665  0.4390 -0.3397
  300MOL0     C41308   6.866   9.065   6.737 -0.3196 -0.7439  0.0931
  300MOL0     C41309   6.798   9.109   6.624 -0.4760 -0.3288  0.7409
  300MOL0     O41310   6.737   8.954   6.377  0.5417  0.5054  0.1955
  300MOL0     C41311   6.476   9.151   6.235  0.0298  0.9234  0.5818
  300MOL0     C41312   6.427   9.191   6.111  0.8239  0.3566  0.0414
  300MOL0     N41313   6.393   9.100   5.267 -0.8968  0.1703  0.2398
  300MOL0     N41314   6.390   9.040   5.153  0.5885 -0.7886  0.1715
  300MOL0     C41315   6.001   9.740   4.181 -0.9745 -0.6163  0.4012
  300MOL0     C41316   5.952   9.831   4.079 -0.0880  1.0601  0.8459
  300MOL0     C41317   5.958  10.103   3.696 -0.1140 -0.5806  0.0297
  300MOL0     C41318   5.893  10.203   3.771  0.8503 -0.7005  0.2154
  300MOL0     C41319   5.824  10.309   3.710 -0.6294  0.6613  0.4287
  300MOL0     C41320   5.836  10.331   3.575  0.1120 -0.8096 -0.1216
  300MOL0     O41321   5.774  10.432   3.496  0.0308  0.3415  0.1844
  300MOL0     C41322   5.695  10.518   3.569 -0.4152 -0.6968 -0.1738
  300MOL0     C41323   5.645  10.638   3.487 -0.6971 -0.7575 -0.0295
  300MOL0     C41324   5.499  10.610   3.435 -0.0685 -0.3006 -0.0194
  300MOL0     C41325   5.433  10.733   3.376 -0.7004 -0.8888  0.1450
  300MOL0     C41326   5.310  10.674   3.321 -0.3731 -0.4425  0.2426
  300MOL0     C41327   5.214  10.617   3.272 -0.0080  0.5648  0.0553
  300MOL0     C41328   5.922  10.245   3.506  0.1896 -0.2582 -0.3788
  300MOL0     C41329   5.976  10.130   3.559 -1.4170 -0.5089 -0.0080
  300MOL0     C41330   6.064  10.046   3.464 -0.7803 -0.0961 -0.3144
  300MOL0     H41331   6.234   9.830   3.892 -1.1857 -2.7721 -2.9534
  300MOL0     H41332   6.308   9.665   4.035  0.2849  0.7254 -0.4175
  300MOL0     H41333   6.016   9.487   4.329  0.2620 -1.1754 -0.6425
  300MOL0     H41334   6.075   9.630   4.423 -0.8947 -0.3761  0.0785
  300MOL0     H41335   6.232   9.359   4.411  2.0735  0.1743  0.3028
  300MOL0     H41336   6.267   9.505   4.511 -1.1426  1.7139 -0.7587
  300MOL0     H41337   6.062   9.461   4.642 -1.1026 -1.1705  1.0302
  300MOL0     H41338   6.024   9.323   4.527 -0.3348 -1.4379  3.1496
  300MOL0     H41339   6.234   9.223   4.610 -0.1286 -0.1167 -0.9033
  300MOL0     H41340   6.246   9.345   4.730 -1.8343 -0.6684  1.9219
  300MOL0     H41341   5.995   9.186   4.710  0.7437  0.8887 -0.0379
  300MOL0     H41342   6.041   9.284   4.843 -2.4069 -0.5645 -2.1432
  300MOL0     H41343   6.178   9.029   4.765 -0.1987  0.3005 -0.3169
  300MOL0     H41344   6.252   9.139   4.888 -1.4920  2.4362 -1.3946
  300MOL0     H41345   5.999   8.966   4.910 -2.3280  1.4472  0.9937
  300MOL0     H41346   6.049   9.095   5.022  1.0438  2.5882 -1.3500
  300MOL0     H41347   6.129   8.854   5.080 -0.1631 -0.3305  1.2409
  300MOL0     H41348   6.260   8.885   4.956 -0.3488  0.7282 -0.2548
  300MOL0     H41349   6.088   8.990   5.288 -1.5839  2.1324 -0.5025
  300MOL0     H41350   6.152   9.175   5.462 -0.2716 -1.5259 -1.8513
  300MOL0     H41351   6.319   9.201   5.505 -0.1846 -0.2412  1.2750
  300MOL0     H41352   6.176   8.951   5.556 -2.2800  2.8307 -3.3838
  300MOL0     H41353   6.347   8.960   5.547 -1.3126 -1.2241 -2.0784
  300MOL0     H41354   6.190   9.174   5.702  1.3718  1.3932 -0.4754
  300MOL0     H41355   6.205   9.017   5.785  3.3337 -2.7200 -1.0867
  300MOL0     H41356   6.465   9.039   5.753  1.1012 -0.3953 -0.9987
  300MOL0     H41357   6.433   9.201   5.689  2.8126 -0.4967  0.8050
  300MOL0     H41358   6.617   9.019   5.893  3.1667  0.7809  0.7040
  300MOL0     H41359   6.837   8.916   6.153  0.0814  2.1983 -2.1410
  300MOL0     H41360   6.751   8.866   6.007 -0.7159  1.8959 -0.5854
  300MOL0     H41361   6.695   8.796   6.151 -0.9840 -0.5661 -2.8007
  300MOL0     H41362   6.494   8.981   6.699  0.5587 -0.5947 -2.8204
  300MOL0     H41363   6.613   8.903   6.884  1.7976 -0.4169  0.7840
  300MOL0     H41364   6.799   9.067   7.076  0.2117 -0.4817  0.6540
  300MOL0     H41365   6.751   8.897   7.087  0.4617 -1.9720  0.0703
  300MOL0     H41366   6.984   8.841   7.165  1.9174  0.5197  0.9074
  300MOL0     H41367   7.012   9.018   7.158  0.4846  0.0187  1.4305
  300MOL0     H41368   6.941   8.899   7.371 -0.6805 -2.5785 -1.5525
  300MOL0     H41369   6.778   8.901   7.317 -0.3061  0.0712  2.3902
  300MOL0     H41370   6.767   9.132   7.283 -0.6319 -2.8822  0.1763
  300MOL0     H41371   6.926   9.181   7.332  1.1114 -1.4992  2.3323
  300MOL0     H41372   6.871   9.081   7.567  0.5261 -0.1738 -0.7285
  300MOL0     H41373   6.801   9.235   7.531  1.4541 -0.6267  1.1697
  300MOL0     H41374   6.651   8.977   7.484 -1.1911  2.2171 -2.3549
  300MOL0     H41375   6.583   9.134   7.460 -2.3258  1.5361  2.8191
  300MOL0     H41376   6.673   8.997   7.716  1.7089  1.4273  0.6372
  300MOL0     H41377   6.509   9.039   7.664  0.5798 -1.5633 -1.5778
  300MOL0     H41378   6.717   9.205   7.796 -1.7652  1.4779  3.2094
  300MOL0     H41379   6.536   9.202   7.822 -2.9040  0.0287 -2.3183
  300MOL0     H41380   6.970   9.084   6.762 -0.6808 -1.5841  2.5224
  300MOL0     H41381   6.865   9.155   6.552  0.3405 -2.9143 -0.2971
  300MOL0     H41382   6.427   9.193   6.322 -0.9818 -0.3413  0.6647
  300MOL0     H41383   6.346   9.262   6.114 -0.1135 -0.7161  0.5489
  300MOL0     H41384   5.943   9.721   4.270 -0.7864 -0.4292  0.5663
  300MOL0     H41385   5.849   9.863   4.074 -1.5031 -3.0282 -0.2755
  300MOL0     H41386   5.878  10.190   3.878  3.2322  3.1802  1.2066
  300MOL0     H41387   5.754  10.361   3.774 -0.3698 -1.7051  2.7994
  300MOL0     H41388   5.608  10.474   3.617 -0.1673 -0.1752  0.7776
  300MOL0     H41389   5.759  10.555   3.649 -0.6705  1.6077 -0.9375
  300MOL0     H41390   5.713  10.664   3.405 -0.8413  2.3233  0.6855
  300MOL0     H41391   5.648  10.731   3.545  5.1109  0.4580 -1.6063
  300MOL0     H41392   5.491  10.530   3.361 -4.7831 -0.5555  0.4497
  300MOL0     H41393   5.444  10.572   3.521  0.5286 -3.1878 -0.8145
  300MOL0     H41394   5.491  10.761   3.287 -2.2033  1.2257 -0.2482
  300MOL0     H41395   5.435  10.820   3.442  1.1088 -0.8476  0.0898
  300MOL0     H41396   5.131  10.591   3.210 -0.0328  1.2591 -0.2041
  300MOL0     H41397   5.911  10.261   3.399 -0.5474 -0.3301 -0.3161
  300MOL0     H41398   6.164  10.091   3.469 -0.0088 -1.6431 -1.1113
  300MOL0     H41399   6.075   9.937   3.473  3.0085  0.2296  0.9680
  300MOL0     H41400   6.028  10.058   3.362 -0.4425 -0.8333 -0.5282
  301MOL0     O41401   5.092   0.836   0.102 -0.2299  0.0811  0.0470
  301MOL0     C41402   5.062   0.868   0.219 -1.2096  0.4841  0.2466
  301MOL0     O41403   5.156   0.905   0.314 -1.3119 -0.2356  0.8824
  301MOL0     C41404   5.291   0.917   0.289  1.1730 -0.6309  0.2976
  301MOL0     C41405   5.366   0.899   0.402 -0.5543 -1.1164 -0.3224
  301MOL0     C41406   5.508   0.904   0.395 -0.2844 -0.5280  0.2291
  301MOL0     C41407   5.581   0.918   0.284  0.6692  0.7572  0.0926
  301MOL0     O41408   5.722   0.911   0.270  0.1238 -0.5365 -0.4606
  301MOL0     C41409   5.800   0.935   0.387 -0.0657  0.1183  0.7797
  301MOL0     C41410   5.945   0.964   0.357  0.0921  0.8563 -0.2461
  301MOL0     C41411   6.000   0.852   0.270 -0.9435 -0.4198  0.5711
  301MOL0     C41412   6.147   0.855   0.262 -0.1119 -0.2150  0.1609
  301MOL0     C41413   6.213   0.967   0.179  0.2369  0.4828 -0.3743
  301MOL0     C41414   6.361   0.957   0.162 -0.4305 -0.5154  0.2099
  301MOL0     C41415   6.417   1.070   0.072  0.2947  0.8278  0.1160
  301MOL0     C41416   6.411   1.045  -0.082 -0.2578 -0.4237 -0.9292
  301MOL0     N41417   6.487   1.150  -0.171  0.4775 -0.7368 -0.4520
  301MOL0     C41418   6.575   1.108  -0.273 -0.3628 -0.4445  0.0809
  301MOL0     C41419   6.644   1.221  -0.299  0.2564  0.0752  0.1426
  301MOL0     C41420   6.770   1.232  -0.378  0.0195  0.2516 -0.4438
  301MOL0     C41421   6.751   1.331  -0.492 -0.7498 -0.4635  0.4314
  301MOL0     C41422   6.845   1.451  -0.488 -0.8119 -0.2469 -0.1679
  301MOL0     C41423   6.997   1.422  -0.516 -0.1581 -0.6725  0.0359
  301MOL0     O41424   7.008   1.373  -0.650  0.4176 -0.2066 -0.5226
  301MOL0     C41425   7.133   1.339  -0.686 -0.6371 -0.3821  0.8130
  301MOL0     C41426   7.258   1.374  -0.621  0.3454 -1.3329  0.5572
  301MOL0     C41427   7.379   1.305  -0.648  0.2127  0.3560  0.2444
  301MOL0     C41428   7.497   1.351  -0.566 -0.0603 -0.3626  0.1066
  301MOL0     C41429   7.380   1.208  -0.747  0.4880 -0.4731  0.0537
  301MOL0     C41430   7.504   1.149  -0.800 -0.5691 -0.5103 -0.6180
  301MOL0     O41431   7.499   1.012  -0.822  0.0321  0.5837 -0.8366
  301MOL0     C41432   7.583   0.939  -0.904  0.3014  0.2266 -0.1718
  301MOL0     C41433   7.598   0.992  -1.033 -0.5895 -1.0060  0.0890
  301MOL0     C41434   7.685   0.932  -1.124 -0.2052 -0.2903 -1.5385
  301MOL0     C41435   7.764   0.823  -1.089  0.5452 -0.0961 -0.2683
  301MOL0     O41436   7.836   0.748  -1.184 -0.0910 -0.2658 -0.1818
  301MOL0     C41437   7.922   0.823  -1.279 -0.2553  0.5380  0.2139
  301MOL0     C41438   8.026   0.912  -1.220  0.1272 -0.0237 -0.5144
  301MOL0     C41439   8.115   0.850  -1.120 -0.1925  0.1888  0.4696
  301MOL0     C41440   8.170   0.713  -1.164 -0.5952  0.3313  0.4774
  301MOL0     C41441   8.283   0.655  -1.079 -0.4008 -0.3991  0.0146
  301MOL0     C41442   8.414   0.728  -1.092  0.1464 -0.6108  0.0326
  301MOL0     C41443   8.527   0.658  -1.017 -0.6187  0.7371 -0.3092
  301MOL0     C41444   8.653   0.740  -1.034 -0.9715 -0.3704 -0.5057
  301MOL0    Cl41445   8.795   0.625  -1.045 -0.4701  0.0796 -0.2571
  301MOL0     C41446   7.763   0.777  -0.956 -0.0598 -0.3398 -0.0539
  301MOL0     C41447   7.664   0.823  -0.868 -0.6636 -0.4636 -0.2946
  301MOL0     O41448   7.595   1.220  -0.840  0.3625  0.4139 -0.2018
  301MOL0     C41449   7.263   1.172  -0.814  0.4044  0.0375  0.7289
  301MOL0     C41450   7.144   1.245  -0.782  0.2327 -0.1068  0.2330
  301MOL0     N41451   6.613   1.311  -0.201 -0.3301  0.2084 -0.1623
  301MOL0     N41452   6.524   1.273  -0.129  0.6909  0.1154 -0.6722
  301MOL0     C41453   5.503   0.948   0.165 -0.2492 -0.1931  0.1007
  301MOL0     C41454   5.362   0.945   0.169  0.3706  0.5764  0.1490
  301MOL0     C41455   4.926   0.840   0.263  0.0265  0.3232  0.8725
  301MOL0     C41456   4.837   0.775   0.179 -0.2293 -0.5017  0.4097
  301MOL0     C41457   4.707   0.740   0.218  0.2972  0.3935  0.0453
  301MOL0     C41458   4.657   0.756   0.340 -0.1503 -0.1281  0.6904
  301MOL0     O41459   4.523   0.722   0.371 -1.0570  0.0672 -0.0695
  301MOL0     C41460   4.423   0.690   0.271  0.2442 -0.4140 -0.2432
  301MOL0     C41461   4.418   0.533   0.248  0.4612 -0.3363 -0.4634
  301MOL0     C41462   4.315   0.465   0.328 -0.0051  0.3006  0.4797
  301MOL0     C41463   4.187   0.427   0.239 -0.0043  0.0222  0.6157
  301MOL0     C41464   4.133   0.544   0.179  0.0781 -0.9176 -0.1944
  301MOL0     C41465   4.095   0.649   0.131 -0.8811  0.0372 -0.5969
  301MOL0     C41466   4.744   0.817   0.426 -0.3338  0.4556  0.0884
  301MOL0     C41467   4.877   0.870   0.393 -0.8816 -0.8720 -0.1670
  301MOL0     C41468   4.950   0.948   0.502 -0.3998  0.5925  0.1398
  301MOL0     H41469   5.330   0.883   0.503  2.0450  2.0409  1.2844
  301MOL0     H41470   5.565   0.870   0.481 -2.1896 -1.0811  1.3124
  301MOL0     H41471   5.798   0.862   0.468  1.0824  1.6074  2.2137
  301MOL0     H41472   5.775   1.032   0.431 -0.5751  0.6224 -0.5690
  301MOL0     H41473   5.943   1.055   0.297 -2.1100 -0.2946 -2.1191
  301MOL0     H41474   5.997   0.984   0.451  1.4439  5.1259 -1.6905
  301MOL0     H41475   5.963   0.757   0.311  0.9977 -1.6352 -0.3826
  301MOL0     H41476   5.967   0.866   0.167  1.7018  0.7933 -0.1724
  301MOL0     H41477   6.182   0.856   0.366 -1.6431  1.1938  0.7098
  301MOL0     H41478   6.175   0.758   0.220  0.4486 -0.6747  1.5267
  301MOL0     H41479   6.193   1.063   0.227 -3.6447 -0.1666 -0.3723
  301MOL0     H41480   6.157   0.976   0.086  1.0448  3.8633 -0.6556
  301MOL0     H41481   6.408   0.960   0.261  0.8045 -2.7423 -0.2439
  301MOL0     H41482   6.392   0.863   0.116  2.0393  0.3653 -0.1093
  301MOL0     H41483   6.525   1.076   0.092 -0.0125  0.3808  2.1024
  301MOL0     H41484   6.385   1.168   0.106 -0.7027  0.4222  0.3707
  301MOL0     H41485   6.475   0.957  -0.098  1.7317  1.2286 -2.7868
  301MOL0     H41486   6.305   1.035  -0.105 -0.7743 -1.6282  1.5878
  301MOL0     H41487   6.592   1.004  -0.298  2.8542 -0.2016  0.7690
  301MOL0     H41488   6.794   1.136  -0.425 -0.9206  0.8171 -2.1756
  301MOL0     H41489   6.850   1.260  -0.309 -1.7574  2.6447  0.7897
  301MOL0     H41490   6.756   1.282  -0.590 -3.3418  0.2487 -0.1415
  301MOL0     H41491   6.650   1.371  -0.497 -0.4395  0.4209  0.9183
  301MOL0     H41492   6.812   1.518  -0.569 -2.4722 -2.1401 -1.1522
  301MOL0     H41493   6.830   1.494  -0.389 -2.5739  0.1074 -0.5568
  301MOL0     H41494   7.060   1.510  -0.499 -2.5321  0.9430  0.9623
  301MOL0     H41495   7.042   1.344  -0.453 -1.5410 -1.6793 -0.1834
  301MOL0     H41496   7.257   1.462  -0.557 -0.7515  1.5535 -3.0578
  301MOL0     H41497   7.482   1.342  -0.458  2.7777  0.5700  0.6792
  301MOL0     H41498   7.518   1.454  -0.598 -0.1307 -0.8459 -1.5546
  301MOL0     H41499   7.588   1.295  -0.591  1.1574  0.5370  2.2171
  301MOL0     H41500   7.552   1.085  -1.063  1.8804 -0.6322 -3.0858
  301MOL0     H41501   7.673   0.979  -1.220 -0.3255 -1.3516 -2.0591
  301MOL0     H41502   7.973   0.746  -1.337 -2.7705 -3.5793  2.8976
  301MOL0     H41503   7.850   0.870  -1.347 -2.2019 -3.7143 -1.0103
  301MOL0     H41504   8.085   0.956  -1.302  0.7151  1.3276  0.5919
  301MOL0     H41505   7.969   0.996  -1.181  2.2273  1.3147 -0.1310
  301MOL0     H41506   8.057   0.852  -1.027 -3.1902  1.5767 -1.2789
  301MOL0     H41507   8.200   0.917  -1.101  0.9592 -1.0993 -0.0071
  301MOL0     H41508   8.206   0.724  -1.267  1.9877  1.4397  1.4259
  301MOL0     H41509   8.079   0.651  -1.167 -0.1724 -0.4791 -4.0312
  301MOL0     H41510   8.254   0.663  -0.974  3.0572 -2.0442  1.2476
  301MOL0     H41511   8.290   0.548  -1.102 -0.6010 -0.2639 -0.7070
  301MOL0     H41512   8.407   0.832  -1.058 -0.4234  0.8138 -3.8637
  301MOL0     H41513   8.428   0.736  -1.200 -2.6808  0.2176 -0.3585
  301MOL0     H41514   8.544   0.557  -1.054  0.9360  0.4316  1.0925
  301MOL0     H41515   8.496   0.644  -0.913  0.3709  0.6528 -0.0124
  301MOL0     H41516   8.658   0.813  -0.953  2.0131 -1.5394  0.5115
  301MOL0     H41517   8.646   0.794  -1.129 -0.6404  0.3193 -0.1431
  301MOL0     H41518   7.825   0.695  -0.921 -0.1326  0.9006  3.4137
  301MOL0     H41519   7.662   0.787  -0.766 -2.9209  0.9996  0.2608
  301MOL0     H41520   7.260   1.093  -0.890 -0.0817 -0.4033  1.1937
  301MOL0     H41521   7.053   1.212  -0.830 -0.3022 -2.7887  2.7707
  301MOL0     H41522   5.558   0.943   0.071 -1.2299 -1.5925 -0.4514
  301MOL0     H41523   5.308   0.948   0.076  0.1126  0.0226  0.2749
  301MOL0     H41524   4.868   0.745   0.079  0.8394 -0.9411  0.8586
  301MOL0     H41525   4.649   0.699   0.136  1.2985 -0.5660 -0.2116
  301MOL0     H41526   4.330   0.726   0.317  0.3953  0.6987 -0.7876
  301MOL0     H41527   4.430   0.755   0.184 -1.2496 -1.8719 -1.5227
  301MOL0     H41528   4.518   0.498   0.276  0.1638 -2.7916 -2.2036
  301MOL0     H41529   4.413   0.515   0.140  0.6528 -2.2951 -0.1880
  301MOL0     H41530   4.360   0.372   0.364  0.6684  0.3187 -0.3020
  301MOL0     H41531   4.274   0.525   0.410 -1.8186  1.9080 -1.4773
  301MOL0     H41532   4.113   0.370   0.296 -0.1934 -0.7752 -0.4041
  301MOL0     H41533   4.221   0.356   0.163  0.6203 -0.9946  1.8035
  301MOL0     H41534   4.097   0.741   0.076  1.3709 -0.2622 -1.0848
  301MOL0     H41535   4.717   0.848   0.526  3.9781  1.8363  1.0512
  301MOL0     H41536   4.991   1.043   0.467 -2.6144  1.6439  0.2529
  301MOL0     H41537   4.897   0.956   0.598  0.3653 -2.3129  0.9239
  301MOL0     H41538   5.015   0.870   0.545 -1.7348 -0.0315  1.1377
  302MOL0     O41539   8.617   4.755   9.751 -0.8609  0.6681 -0.5171
  302MOL0     C41540   8.528   4.749   9.833 -0.4757  0.1358  0.1208
  302MOL0     O41541   8.448   4.639   9.860  0.6742 -0.7795  0.5102
  302MOL0     C41542   8.464   4.518   9.805  0.0927  0.5981 -0.7008
  302MOL0     C41543   8.445   4.403   9.882 -0.1026  0.7463 -0.3617
  302MOL0     C41544   8.429   4.275   9.834  0.3157  0.4498 -0.6343
  302MOL0     C41545   8.448   4.253   9.693 -1.5319  0.0327  0.4873
  302MOL0     O41546   8.429   4.124   9.644  0.0082 -0.6623 -0.2319
  302MOL0     C41547   8.516   4.072   9.540 -0.0448 -0.3511  0.0905
  302MOL0     C41548   8.429   4.036   9.418 -0.7282  0.5466  0.1237
  302MOL0     C41549   8.336   3.915   9.453 -0.1777 -0.2793 -0.2116
  302MOL0     C41550   8.318   3.828   9.330  0.4855 -0.5314 -0.4723
  302MOL0     C41551   8.218   3.714   9.352  0.0258  0.3678 -0.6685
  302MOL0     C41552   8.193   3.626   9.232 -0.2032  0.1362  0.2153
  302MOL0     C41553   8.156   3.486   9.272  0.0091 -0.0051  0.6875
  302MOL0     C41554   8.036   3.476   9.368  0.7793 -0.2033  0.5316
  302MOL0     N41555   7.898   3.497   9.315  1.0045 -0.4762  0.0202
  302MOL0     C41556   7.836   3.483   9.183  1.1364  0.4766 -0.4776
  302MOL0     C41557   7.704   3.476   9.207 -0.1532 -0.4063  0.6345
  302MOL0     C41558   7.605   3.456   9.102  0.4800 -0.4648 -0.5533
  302MOL0     C41559   7.542   3.317   9.101  0.0837  0.0061  0.7270
  302MOL0     C41560   7.431   3.295   8.996 -0.1825  0.8835  0.0598
  302MOL0     C41561   7.468   3.355   8.856 -0.5471  0.0252 -0.1091
  302MOL0     O41562   7.615   3.321   8.834  0.3501 -0.1766 -0.1285
  302MOL0     C41563   7.680   3.393   8.740 -0.9799 -0.0699  0.4414
  302MOL0     C41564   7.627   3.488   8.653 -0.2562  0.2034  0.1471
  302MOL0     C41565   7.704   3.570   8.560 -0.1098  0.4938 -0.9851
  302MOL0     C41566   7.614   3.659   8.474 -0.3906  0.3358 -0.2446
  302MOL0     C41567   7.843   3.557   8.564  0.4986 -0.3292 -0.6120
  302MOL0     C41568   7.931   3.625   8.477 -0.1852 -0.2842  0.5431
  302MOL0     O41569   8.065   3.636   8.513 -0.3091  0.2957  0.0068
  302MOL0     C41570   8.155   3.686   8.424  0.0998 -0.0963 -0.2514
  302MOL0     C41571   8.184   3.614   8.309  0.1060  0.1877 -0.5568
  302MOL0     C41572   8.287   3.659   8.223  0.3825 -0.1716  0.1179
  302MOL0     C41573   8.356   3.777   8.242  0.9520 -1.1710 -0.1447
  302MOL0     O41574   8.450   3.813   8.148  0.2820  0.5138 -0.1583
  302MOL0     C41575   8.521   3.935   8.164  0.6641 -0.3792  1.1890
  302MOL0     C41576   8.657   3.908   8.093  0.3956 -0.0210  0.3343
  302MOL0     C41577   8.649   3.873   7.947  0.4681  0.2122  0.0987
  302MOL0     C41578   8.603   3.998   7.870  0.2431 -0.0522 -0.2517
  302MOL0     C41579   8.720   4.079   7.820 -0.0226 -1.4903 -0.5391
  302MOL0     C41580   8.818   4.005   7.729 -0.0789  0.3570  0.3771
  302MOL0     C41581   8.876   4.104   7.630 -0.5260 -0.0013  0.0147
  302MOL0     C41582   8.994   4.039   7.555  0.4391  0.1928  0.2524
  302MOL0    Cl41583   9.043   4.146   7.424  0.1517  0.7838 -0.1816
  302MOL0     C41584   8.315   3.852   8.355  0.8409 -0.1164  0.3925
  302MOL0     C41585   8.212   3.809   8.446  0.3210 -1.1996 -0.3175
  302MOL0     O41586   7.889   3.653   8.369 -0.0184  0.5058 -0.4842
  302MOL0     C41587   7.907   3.468   8.650 -0.4132  0.6657  0.4958
  302MOL0     C41588   7.820   3.390   8.742 -1.2107  0.9001 -0.0754
  302MOL0     N41589   7.688   3.530   9.340 -0.1366 -0.4708 -0.4152
  302MOL0     N41590   7.807   3.539   9.399 -0.1640 -0.5596  0.4131
  302MOL0     C41591   8.467   4.369   9.611 -0.2602  0.8443 -0.1254
  302MOL0     C41592   8.478   4.493   9.672 -0.0470 -0.6251  0.0577
  302MOL0     C41593   8.485   4.895   9.875 -0.0630  0.8899  0.3498
  302MOL0     C41594   8.475   4.999   9.781 -0.0097  0.0209  0.8954
  302MOL0     C41595   8.441   5.133   9.819  1.4529  0.4744 -0.3157
  302MOL0     C41596   8.401   5.156   9.957 -0.7040  0.4236 -0.1781
  302MOL0     O41597   8.367   5.276   9.997  0.1571 -0.0608  0.2129
  302MOL0     C41598   8.343   5.386   9.912 -0.2374 -0.2606  0.5443
  302MOL0     C41599   8.468   5.478   9.910 -0.0509  0.6211 -0.0459
  302MOL0     C41600   8.448   5.607   9.825 -0.1917  1.1937  0.1683
  302MOL0     C41601   8.366   5.710   9.896  0.8246  0.7687 -0.6565
  302MOL0     C41602   8.339   5.839   9.831 -0.4592 -0.2489  0.8757
  302MOL0     C41603   8.323   5.953   9.782  0.4549  0.7696 -0.0794
  302MOL0     C41604   8.407   5.053  10.049 -0.0405  0.1948  0.5063
  302MOL0     C41605   8.456   4.924  10.010  0.5131 -0.4068 -0.5022
  302MOL0     C41606   8.465   4.820  10.116  0.2892  0.5644  0.5388
  302MOL0     H41607   8.428   4.409   9.989 -0.5687 -0.9079 -0.3213
  302MOL0     H41608   8.398   4.189   9.892  0.6195  0.1002 -0.9821
  302MOL0     H41609   8.562   3.980   9.577  4.3270  2.0524  1.2959
  302MOL0     H41610   8.589   4.151   9.520 -1.1457  0.3952 -1.1450
  302MOL0     H41611   8.371   4.122   9.385  0.1973  0.9601 -0.4681
  302MOL0     H41612   8.492   4.013   9.331  0.1360 -0.9264  1.0901
  302MOL0     H41613   8.391   3.855   9.526 -0.1623 -0.3516 -0.2813
  302MOL0     H41614   8.244   3.950   9.502  0.4807 -0.2333  1.0405
  302MOL0     H41615   8.268   3.887   9.253 -2.6087 -2.1889  0.0712
  302MOL0     H41616   8.414   3.800   9.287 -0.5703 -0.5852 -2.9379
  302MOL0     H41617   8.121   3.747   9.389 -0.7721 -2.0177 -0.5139
  302MOL0     H41618   8.260   3.644   9.424 -0.8184 -1.2651 -1.7216
  302MOL0     H41619   8.120   3.658   9.157  0.5021 -2.7837 -1.9267
  302MOL0     H41620   8.283   3.604   9.173 -1.2053 -0.8443 -1.0079
  302MOL0     H41621   8.233   3.432   9.328  2.3377  0.6065 -1.7035
  302MOL0     H41622   8.145   3.417   9.187 -0.8776 -1.0769  1.6316
  302MOL0     H41623   8.036   3.373   9.405  0.4308 -0.0096  1.0787
  302MOL0     H41624   8.049   3.542   9.455  0.6870 -1.0587  1.2085
  302MOL0     H41625   7.887   3.462   9.090  1.9923  1.3187 -0.2093
  302MOL0     H41626   7.666   3.475   9.013  2.0657  1.7403  0.8844
  302MOL0     H41627   7.523   3.529   9.095  1.4856  0.7306 -0.1444
  302MOL0     H41628   7.624   3.244   9.093  0.8760  0.8541  0.9163
  302MOL0     H41629   7.492   3.299   9.197  0.5774  0.1282  1.0136
  302MOL0     H41630   7.431   3.186   8.985  1.1726  1.1407 -3.9900
  302MOL0     H41631   7.329   3.323   9.026 -0.9422 -1.0880 -0.4846
  302MOL0     H41632   7.414   3.300   8.779  0.1131 -0.0201 -0.5472
  302MOL0     H41633   7.461   3.464   8.847 -2.2044 -0.2671 -3.9662
  302MOL0     H41634   7.522   3.515   8.652  0.1174  1.8181  0.5937
  302MOL0     H41635   7.512   3.667   8.511 -0.6296 -0.9005 -0.5961
  302MOL0     H41636   7.614   3.619   8.372  1.2024 -3.2392  0.9815
  302MOL0     H41637   7.653   3.761   8.475 -2.9046  1.4006 -1.7969
  302MOL0     H41638   8.140   3.517   8.288 -0.2784 -0.0693  1.2963
  302MOL0     H41639   8.325   3.606   8.137  0.5511 -0.3922  0.3263
  302MOL0     H41640   8.462   4.018   8.125  0.8056 -1.1074 -0.6771
  302MOL0     H41641   8.539   3.964   8.268  0.4181 -0.1445  1.1689
  302MOL0     H41642   8.730   3.989   8.096  3.5536 -2.5746 -0.9331
  302MOL0     H41643   8.698   3.817   8.140  2.2631 -0.8056 -2.5754
  302MOL0     H41644   8.580   3.789   7.930  2.2768 -1.1000 -1.1346
  302MOL0     H41645   8.743   3.839   7.903 -0.2119 -2.8283  0.7487
  302MOL0     H41646   8.546   4.072   7.927 -2.6912  0.0293 -2.9826
  302MOL0     H41647   8.540   3.962   7.788  0.6797 -3.0772  0.6303
  302MOL0     H41648   8.673   4.158   7.760  1.2331  1.2652  1.8235
  302MOL0     H41649   8.783   4.123   7.898  0.4179  1.0221 -2.2061
  302MOL0     H41650   8.760   3.929   7.675 -1.3282  1.0327  0.7270
  302MOL0     H41651   8.898   3.959   7.789 -1.5327 -0.9667  1.3757
  302MOL0     H41652   8.916   4.192   7.681 -3.4327  0.5593  1.5764
  302MOL0     H41653   8.800   4.142   7.561 -0.8262  2.6247  1.6544
  302MOL0     H41654   8.981   3.939   7.513  2.0590  0.5667 -1.2901
  302MOL0     H41655   9.079   4.040   7.624  0.2591 -1.1119  0.5139
  302MOL0     H41656   8.351   3.953   8.366  0.1040  0.1384  0.5459
  302MOL0     H41657   8.174   3.860   8.533 -0.1711  0.2461 -1.3475
  302MOL0     H41658   8.012   3.442   8.659 -0.7339 -1.7376 -1.6475
  302MOL0     H41659   7.873   3.329   8.814 -1.2381 -1.2779 -1.8059
  302MOL0     H41660   8.468   4.366   9.503 -1.1910 -0.7644 -0.1224
  302MOL0     H41661   8.511   4.579   9.614 -1.1492 -1.1238 -1.3893
  302MOL0     H41662   8.504   5.000   9.676  0.3814  0.0538  1.0049
  302MOL0     H41663   8.441   5.213   9.745  0.7767  0.3970 -0.4058
  302MOL0     H41664   8.300   5.357   9.816 -3.6742  0.4755  1.7185
  302MOL0     H41665   8.262   5.449   9.953 -0.3535 -1.0706  1.6150
  302MOL0     H41666   8.543   5.412   9.864 -0.7141  0.3918 -0.8145
  302MOL0     H41667   8.509   5.502  10.009  2.5553 -0.0262 -0.8747
  302MOL0     H41668   8.547   5.647   9.800 -0.0935  0.5486 -0.4919
  302MOL0     H41669   8.404   5.595   9.726  2.4121  0.9771 -1.0510
  302MOL0     H41670   8.418   5.730   9.990  0.3154 -3.5535  0.7510
  302MOL0     H41671   8.267   5.676   9.926 -1.1585  2.8506 -4.0767
  302MOL0     H41672   8.303   6.049   9.740 -2.7758 -0.5369 -1.8545
  302MOL0     H41673   8.372   5.061  10.151  3.6609 -0.0725  1.9467
  302MOL0     H41674   8.386   4.747  10.093  1.2717 -0.3994  0.1419
  302MOL0     H41675   8.563   4.773  10.106 -0.6632 -1.3342 -0.5906
  302MOL0     H41676   8.465   4.870  10.213 -1.8614 -0.5343  1.1755
  303MOL0     O41677   9.884   5.219   3.045  0.6077 -0.1096 -0.5676
  303MOL0     C41678   9.948   5.120   3.011  0.5214  1.2316 -0.1709
  303MOL0     O41679   9.903   4.996   2.971  0.0505 -0.1572 -0.5775
  303MOL0     C41680   9.766   4.967   2.986  0.0205 -0.0523  0.0144
  303MOL0     C41681   9.754   4.836   2.948 -0.3672 -0.5357 -0.3108
  303MOL0     C41682   9.638   4.768   2.935 -0.3745  0.9131 -0.5658
  303MOL0     C41683   9.519   4.835   2.976 -0.0701  0.6254 -0.7293
  303MOL0     O41684   9.397   4.780   2.962 -0.2467  1.1065  0.0599
  303MOL0     C41685   9.373   4.699   2.848 -0.0416 -0.3573 -0.5918
  303MOL0     C41686   9.220   4.669   2.839 -0.3146 -0.6388  0.2367
  303MOL0     C41687   9.180   4.557   2.932 -0.6914 -0.2098  0.0710
  303MOL0     C41688   9.034   4.550   2.961 -0.2489  0.8630  0.3260
  303MOL0     C41689   8.992   4.430   3.044  0.2543  0.8549 -0.0375
  303MOL0     C41690   9.069   4.395   3.162  0.0618 -1.3339 -0.8114
  303MOL0     C41691   9.066   4.519   3.258  0.7845 -0.2169 -0.7949
  303MOL0     C41692   9.127   4.498   3.401  0.5281  0.2696  0.2508
  303MOL0     N41693   9.053   4.375   3.456 -0.4949  0.0698 -0.4728
  303MOL0     C41694   9.111   4.253   3.458 -0.7694  0.2258  0.4774
  303MOL0     C41695   9.013   4.164   3.497 -0.0768  0.3161  0.3062
  303MOL0     C41696   9.012   4.013   3.514  0.5267 -0.4974  1.2178
  303MOL0     C41697   9.102   3.964   3.631  0.4491  0.4731  0.1109
  303MOL0     C41698   9.250   3.999   3.613 -0.4514  0.1430  0.1076
  303MOL0     C41699   9.338   3.951   3.732  0.2527 -0.6526  0.1399
  303MOL0     O41700   9.339   4.051   3.834  0.2040  0.0033 -0.2097
  303MOL0     C41701   9.377   3.989   3.957  1.0743 -0.4749  0.0571
  303MOL0     C41702   9.438   3.868   3.976 -0.4256  0.1814  0.1667
  303MOL0     C41703   9.444   3.816   4.101  0.1019  0.0944 -0.1080
  303MOL0     C41704   9.516   3.681   4.106  0.0952  0.2907  0.9718
  303MOL0     C41705   9.398   3.878   4.216  0.0336 -0.4409 -0.1774
  303MOL0     C41706   9.419   3.818   4.347 -0.0399  0.5817 -0.6469
  303MOL0     O41707   9.512   3.861   4.438  0.0854 -0.8206  0.5320
  303MOL0     C41708   9.519   3.784   4.551  0.2424 -0.2725  0.5578
  303MOL0     C41709   9.644   3.723   4.565 -0.3025  0.4232 -0.2167
  303MOL0     C41710   9.658   3.638   4.670  0.1912  0.6207 -0.0080
  303MOL0     C41711   9.557   3.612   4.768 -0.6679  0.5441 -0.9490
  303MOL0     O41712   9.552   3.510   4.860 -0.1953 -0.1826 -0.9390
  303MOL0     C41713   9.686   3.458   4.887 -0.0132  0.7124 -0.2120
  303MOL0     C41714   9.673   3.361   5.010  0.5082 -0.3026 -0.5038
  303MOL0     C41715   9.808   3.347   5.090  0.3264 -0.2639  0.3468
  303MOL0     C41716   9.814   3.244   5.207  0.5935  0.6628 -0.0807
  303MOL0     C41717   9.797   3.092   5.168  0.1191 -0.3467 -0.7591
  303MOL0     C41718   9.810   3.001   5.288  0.9572  0.1418 -0.3741
  303MOL0     C41719   9.760   2.860   5.259 -0.0304  0.4035  0.9057
  303MOL0     C41720   9.838   2.793   5.143  1.6992  1.3730 -0.0082
  303MOL0    Cl41721  10.010   2.790   5.168 -0.4608  0.0929 -0.5753
  303MOL0     C41722   9.438   3.670   4.740  0.8625  0.2146 -0.2760
  303MOL0     C41723   9.417   3.759   4.640  0.7640  1.1186 -0.2173
  303MOL0     O41724   9.331   3.740   4.376  0.3888  0.2694 -0.3691
  303MOL0     C41725   9.350   4.004   4.203 -0.6712  0.5418  0.6154
  303MOL0     C41726   9.332   4.061   4.073  0.0986  1.0733  0.3092
  303MOL0     N41727   8.898   4.242   3.521  0.4292 -0.3977  0.5720
  303MOL0     N41728   8.924   4.363   3.501  0.0363  0.3217  0.1878
  303MOL0     C41729   9.529   4.969   3.023  0.8170 -0.1352 -0.2169
  303MOL0     C41730   9.652   5.032   3.034  0.5157 -0.6744 -0.7329
  303MOL0     C41731  10.094   5.142   3.008 -0.7112 -1.0158 -0.5636
  303MOL0     C41732  10.166   5.163   2.890  0.8278  0.3214  0.0669
  303MOL0     C41733  10.307   5.168   2.903  0.2736  0.2487 -0.3222
  303MOL0     C41734  10.377   5.166   3.030 -0.4611 -0.7040 -0.2701
  303MOL0     O41735  10.512   5.185   3.051  0.8133 -0.1060  0.1051
  303MOL0     C41736  10.583   5.244   2.947 -0.2303  0.1148 -0.1059
  303MOL0     C41737  10.739   5.242   2.981 -0.1443 -0.1861 -0.1733
  303MOL0     C41738  10.791   5.116   2.912 -0.4958 -0.5060 -0.3835
  303MOL0     C41739  10.939   5.086   2.946  0.1636  1.0057 -0.3185
  303MOL0     C41740  10.986   4.974   2.852  0.0971  0.2840  0.5425
  303MOL0     C41741  11.005   4.876   2.780 -0.2058 -0.4788  0.3040
  303MOL0     C41742  10.296   5.173   3.141  0.5900 -0.9311  0.0040
  303MOL0     C41743  10.160   5.158   3.135  0.8980  0.1281 -0.1176
  303MOL0     C41744  10.085   5.119   3.259  0.7662  1.2328 -0.7689
  303MOL0     H41745   9.844   4.789   2.910 -0.5254 -1.2863  0.2014
  303MOL0     H41746   9.645   4.666   2.897  2.3384  1.2561 -1.1872
  303MOL0     H41747   9.432   4.607   2.857  4.2318  2.2532  0.9538
  303MOL0     H41748   9.391   4.752   2.754 -0.9391 -1.4481 -1.4089
  303MOL0     H41749   9.167   4.759   2.870 -0.2015 -0.4845 -0.0126
  303MOL0     H41750   9.191   4.650   2.735  0.9849  0.1642 -0.2959
  303MOL0     H41751   9.211   4.468   2.877  2.0023  0.7867 -0.2032
  303MOL0     H41752   9.234   4.561   3.028 -0.7864  1.0488  0.0830
  303MOL0     H41753   8.998   4.645   3.001  0.5593  0.8767  1.0553
  303MOL0     H41754   8.980   4.541   2.866 -1.8211 -2.7578  1.4252
  303MOL0     H41755   9.015   4.336   2.993  0.0145  0.2322  0.9545
  303MOL0     H41756   8.886   4.428   3.071  0.9038  0.0767  2.8660
  303MOL0     H41757   9.034   4.306   3.214 -0.0115 -0.3860  0.8473
  303MOL0     H41758   9.168   4.375   3.119  0.4349 -1.1180 -0.0715
  303MOL0     H41759   8.963   4.557   3.263  0.2885 -1.6138  0.9308
  303MOL0     H41760   9.115   4.602   3.209 -0.1188  0.1364 -1.1202
  303MOL0     H41761   9.234   4.479   3.406  0.3389 -0.5037  2.6766
  303MOL0     H41762   9.101   4.578   3.471  0.1470  1.9514 -1.7411
  303MOL0     H41763   9.218   4.240   3.449 -0.6235  2.0676 -1.4295
  303MOL0     H41764   9.050   3.973   3.419 -2.0832 -0.0300 -0.1329
  303MOL0     H41765   8.908   3.981   3.528  0.6420 -1.8218 -0.5948
  303MOL0     H41766   9.070   4.014   3.723  0.9343  1.5580 -0.2963
  303MOL0     H41767   9.087   3.856   3.647 -1.9664  0.6214 -0.7039
  303MOL0     H41768   9.300   3.945   3.531 -2.4859 -1.0989 -0.3784
  303MOL0     H41769   9.262   4.107   3.598 -2.1960  0.6673  1.9830
  303MOL0     H41770   9.296   3.863   3.781 -1.9505  0.8577  1.1060
  303MOL0     H41771   9.441   3.925   3.704  1.0067 -0.9441  2.8427
  303MOL0     H41772   9.457   3.804   3.891 -1.7178 -1.1086  0.8090
  303MOL0     H41773   9.447   3.609   4.061  0.3923  0.8910 -0.5070
  303MOL0     H41774   9.556   3.665   4.207  0.2498 -0.1581  0.8430
  303MOL0     H41775   9.608   3.688   4.046 -0.8505 -1.6974 -0.8491
  303MOL0     H41776   9.730   3.756   4.508 -0.2246 -0.6953 -0.7668
  303MOL0     H41777   9.753   3.587   4.680  0.1504  0.8932  2.5491
  303MOL0     H41778   9.726   3.399   4.804  2.2019  2.3610 -0.3897
  303MOL0     H41779   9.746   3.546   4.912  0.3458  0.3475  0.2285
  303MOL0     H41780   9.601   3.410   5.075 -0.9916 -1.0995 -1.5042
  303MOL0     H41781   9.628   3.266   4.980 -1.7227  0.7313 -0.5983
  303MOL0     H41782   9.851   3.441   5.125  0.8639 -1.1608  2.2049
  303MOL0     H41783   9.885   3.313   5.020  1.5195  1.0574  0.9838
  303MOL0     H41784   9.724   3.268   5.264  0.0811 -0.9291 -0.1765
  303MOL0     H41785   9.903   3.265   5.267  2.4449  0.2770 -2.5271
  303MOL0     H41786   9.700   3.073   5.122  0.0879 -2.3012  0.0200
  303MOL0     H41787   9.881   3.073   5.101 -0.1288  2.4070 -1.9831
  303MOL0     H41788   9.756   3.044   5.373  1.5804 -3.4039  2.0367
  303MOL0     H41789   9.912   3.001   5.327  0.1989  2.5154  1.9220
  303MOL0     H41790   9.653   2.871   5.242  0.0113 -0.3906  0.0478
  303MOL0     H41791   9.771   2.799   5.349  1.4693 -2.3223 -0.9824
  303MOL0     H41792   9.820   2.859   5.057  1.2820  0.8463 -0.3339
  303MOL0     H41793   9.793   2.697   5.117  4.4120 -0.1388  0.5443
  303MOL0     H41794   9.354   3.632   4.797 -1.2711  2.0312 -2.0564
  303MOL0     H41795   9.322   3.810   4.629 -0.0839 -0.5098 -0.8136
  303MOL0     H41796   9.321   4.057   4.292 -0.6483  3.3205 -0.9165
  303MOL0     H41797   9.297   4.163   4.059 -0.9425  0.9582  1.8720
  303MOL0     H41798   9.441   5.029   3.043  1.2326  0.0516  1.1429
  303MOL0     H41799   9.661   5.136   3.064 -2.0713 -0.3626 -0.8015
  303MOL0     H41800  10.127   5.197   2.794 -0.3910  2.3739  1.2111
  303MOL0     H41801  10.359   5.178   2.808  2.4121  0.4931  0.8111
  303MOL0     H41802  10.573   5.187   2.854  1.2555 -3.5828  1.7878
  303MOL0     H41803  10.556   5.348   2.927 -0.6158  0.4001  1.7213
  303MOL0     H41804  10.754   5.241   3.089 -1.8946  1.9260  0.1638
  303MOL0     H41805  10.793   5.329   2.943  0.9015  0.1520  1.9504
  303MOL0     H41806  10.734   5.030   2.949 -0.9667 -0.8931 -1.9173
  303MOL0     H41807  10.773   5.116   2.804 -1.0145 -2.9592 -0.3512
  303MOL0     H41808  10.939   5.047   3.048 -2.5551 -0.4147 -0.7674
  303MOL0     H41809  11.010   5.166   2.926 -2.1457  2.6652 -2.4965
  303MOL0     H41810  11.030   4.786   2.728 -1.4686  0.0910 -1.4142
  303MOL0     H41811  10.342   5.187   3.238 -3.0817  1.3395  1.6088
  303MOL0     H41812  10.064   5.013   3.272 -4.6975  2.3023  1.7434
  303MOL0     H41813  10.143   5.139   3.350 -0.7655 -0.8969  0.7585
  303MOL0     H41814   9.993   5.176   3.270  0.2175  0.0037  1.6681
  304MOL0     O41815   3.255   8.977   1.443 -0.0025 -0.2160 -0.5721
  304MOL0     C41816   3.228   9.009   1.333 -0.2992 -0.5567 -0.1088
  304MOL0     O41817   3.299   9.103   1.260  0.4469 -0.7508 -0.0785
  304MOL0     C41818   3.398   9.169   1.320  0.0797  1.2272 -0.0152
  304MOL0     C41819   3.519   9.160   1.265 -0.6875 -0.6036 -0.1627
  304MOL0     C41820   3.626   9.237   1.320 -0.2462  0.4365  1.1856
  304MOL0     C41821   3.614   9.320   1.425 -0.4965  0.4950  0.0232
  304MOL0     O41822   3.714   9.391   1.487  0.0408 -0.0470 -0.2682
  304MOL0     C41823   3.846   9.393   1.423 -0.4270 -0.4617  0.5783
  304MOL0     C41824   3.943   9.473   1.510 -0.7360  0.5345 -0.0917
  304MOL0     C41825   4.061   9.533   1.427  0.4030 -0.7797 -0.0277
  304MOL0     C41826   4.136   9.629   1.522  0.9610  0.3184  0.6984
  304MOL0     C41827   4.271   9.699   1.481 -1.1270  0.5319 -0.5448
  304MOL0     C41828   4.260   9.769   1.341  0.7338  0.3615  0.0065
  304MOL0     C41829   4.396   9.805   1.281 -0.1595 -0.0655 -0.7164
  304MOL0     C41830   4.395   9.817   1.128 -1.0234 -0.5281 -0.1468
  304MOL0     N41831   4.317   9.927   1.071 -0.7403 -0.1580  0.7098
  304MOL0     C41832   4.177   9.934   1.068 -1.8049  0.3673  0.6456
  304MOL0     C41833   4.160  10.035   0.980 -0.1714 -0.7037  0.1968
  304MOL0     C41834   4.024  10.081   0.942  0.0898  0.0954 -0.2278
  304MOL0     C41835   3.964  10.187   1.042 -0.3758 -1.4562 -0.2362
  304MOL0     C41836   3.809  10.188   1.018 -0.2919 -0.1613  0.2950
  304MOL0     C41837   3.756  10.241   0.886 -0.6431  0.4983  0.3495
  304MOL0     O41838   3.619  10.229   0.881  0.2932 -0.1062 -0.2816
  304MOL0     C41839   3.554  10.193   0.757 -0.0632  0.4286  0.3950
  304MOL0     C41840   3.412  10.185   0.763  0.3396 -0.0508 -0.1800
  304MOL0     C41841   3.337  10.161   0.649 -1.5530 -0.7965 -0.0440
  304MOL0     C41842   3.190  10.149   0.665 -0.6484 -1.2520 -0.2898
  304MOL0     C41843   3.403  10.142   0.529  0.4405 -0.8717  0.0768
  304MOL0     C41844   3.341  10.110   0.404  1.0926  0.1868 -0.5100
  304MOL0     O41845   3.411  10.114   0.289 -0.1988 -1.2477  0.4589
  304MOL0     C41846   3.345  10.085   0.171 -0.1148  0.5247 -0.4028
  304MOL0     C41847   3.346   9.958   0.102  0.2444  0.2880  0.3589
  304MOL0     C41848   3.254   9.930   0.003  1.0333 -0.5687 -0.0910
  304MOL0     C41849   3.158  10.029  -0.041 -0.6684  0.6505  0.8933
  304MOL0     O41850   3.050  10.009  -0.120 -0.4373 -0.2230  0.0756
  304MOL0     C41851   3.023   9.868  -0.122  0.3409 -0.0221 -0.0873
  304MOL0     C41852   2.888   9.843  -0.206 -0.3625 -0.2290 -0.1505
  304MOL0     C41853   2.780   9.927  -0.144  0.9454  0.3353 -0.0358
  304MOL0     C41854   2.701   9.860  -0.027 -0.7762 -0.2906  0.7818
  304MOL0     C41855   2.559   9.907  -0.034 -0.3329 -0.0109 -0.0231
  304MOL0     C41856   2.529  10.041   0.036 -0.1359  0.6738 -0.7370
  304MOL0     C41857   2.392  10.111   0.030  0.3291  0.0388  0.4283
  304MOL0     C41858   2.336  10.166   0.154  0.6826 -0.1763 -0.0347
  304MOL0    Cl41859   2.479  10.260   0.222 -0.1197 -0.4195 -0.4005
  304MOL0     C41860   3.157  10.154   0.026  0.6575 -0.4732  0.6429
  304MOL0     C41861   3.250  10.177   0.124  0.0043 -0.2787  1.0383
  304MOL0     O41862   3.217  10.087   0.405 -0.0983  0.6077 -0.4261
  304MOL0     C41863   3.543  10.160   0.520  0.3061 -0.4440 -1.0448
  304MOL0     C41864   3.618  10.174   0.628 -0.1032 -0.7135 -1.0443
  304MOL0     N41865   4.280  10.085   0.930  0.4614  1.2796 -0.2125
  304MOL0     N41866   4.380  10.022   0.992  0.0222  0.2477 -0.0803
  304MOL0     C41867   3.484   9.339   1.472 -0.4311  0.1226 -0.0809
  304MOL0     C41868   3.379   9.254   1.432  0.3995 -0.3488  1.2571
  304MOL0     C41869   3.100   8.955   1.262 -0.4210  0.0681 -0.5376
  304MOL0     C41870   3.086   8.976   1.124  0.0107 -0.0725  0.0716
  304MOL0     C41871   2.974   8.934   1.050  0.0740  0.1009  0.3333
  304MOL0     C41872   2.881   8.849   1.100 -0.4783  0.0404 -0.4133
  304MOL0     O41873   2.774   8.813   1.026  0.5793  0.8198  0.0440
  304MOL0     C41874   2.799   8.693   0.944 -0.2540  0.2328  0.2869
  304MOL0     C41875   2.689   8.659   0.842 -0.7426  0.4235  0.3300
  304MOL0     C41876   2.678   8.779   0.752  0.5373  0.2866  0.1974
  304MOL0     C41877   2.543   8.797   0.680 -0.8852 -0.7773 -0.8268
  304MOL0     C41878   2.421   8.788   0.769 -0.1332  0.4033  0.2431
  304MOL0     C41879   2.325   8.779   0.842  0.4841  0.1395 -0.9862
  304MOL0     C41880   2.892   8.821   1.232  0.1753  0.7928 -0.2124
  304MOL0     C41881   2.999   8.861   1.315 -0.6169 -0.8790 -0.0650
  304MOL0     C41882   3.001   8.815   1.461  0.1128  0.1331 -0.2367
  304MOL0     H41883   3.542   9.084   1.191 -1.2017  2.2791 -3.5912
  304MOL0     H41884   3.725   9.213   1.282  0.2626  1.0271  2.1078
  304MOL0     H41885   3.832   9.446   1.328 -2.0185 -2.5788 -0.4590
  304MOL0     H41886   3.886   9.293   1.400 -2.6501 -0.6387 -3.5347
  304MOL0     H41887   3.889   9.547   1.571  0.6517  1.7452 -0.2951
  304MOL0     H41888   3.988   9.395   1.572  3.7201  0.6340 -2.8222
  304MOL0     H41889   4.134   9.457   1.395 -0.2388 -1.1068 -0.7589
  304MOL0     H41890   4.027   9.585   1.337 -1.5955 -0.4441  0.8739
  304MOL0     H41891   4.064   9.710   1.531 -2.7409 -2.8752  3.8860
  304MOL0     H41892   4.148   9.588   1.622  2.0259 -1.4086 -0.0761
  304MOL0     H41893   4.338   9.612   1.483 -3.4453 -1.3609 -0.5982
  304MOL0     H41894   4.302   9.773   1.555 -1.9909 -0.7966  1.2273
  304MOL0     H41895   4.225   9.699   1.265  0.0885  1.6531 -0.9358
  304MOL0     H41896   4.191   9.854   1.341 -0.9736 -0.9642 -0.3730
  304MOL0     H41897   4.473   9.733   1.309  1.5259  2.1689  0.7424
  304MOL0     H41898   4.437   9.893   1.332  2.3427 -1.1847 -0.6434
  304MOL0     H41899   4.498   9.814   1.090 -1.0314 -1.0301 -0.1402
  304MOL0     H41900   4.354   9.724   1.087 -0.7977 -0.1165 -1.3464
  304MOL0     H41901   4.102   9.869   1.112 -2.3501  0.5314 -0.0153
  304MOL0     H41902   3.955   9.996   0.937 -2.3742  2.0277 -1.3833
  304MOL0     H41903   4.021  10.127   0.842 -0.1776  0.1913 -0.1758
  304MOL0     H41904   3.979  10.160   1.147 -0.4635  1.5761  0.6383
  304MOL0     H41905   4.006  10.287   1.029 -2.7180 -0.7335 -3.2726
  304MOL0     H41906   3.761  10.095   1.049 -0.1181 -0.3654 -0.0426
  304MOL0     H41907   3.765  10.264   1.084 -2.8763 -0.1574 -1.3011
  304MOL0     H41908   3.798  10.341   0.869 -2.4872  1.1392 -0.6702
  304MOL0     H41909   3.812  10.180   0.814  1.2891  0.9267  1.4111
  304MOL0     H41910   3.360  10.196   0.857 -0.1676  0.0761 -0.4723
  304MOL0     H41911   3.164  10.161   0.771  0.1193 -1.8362 -0.0235
  304MOL0     H41912   3.159  10.048   0.636 -0.4754 -1.0136 -1.3458
  304MOL0     H41913   3.138  10.225   0.607  2.2573  2.3807  1.3823
  304MOL0     H41914   3.425   9.892   0.136  0.7910  1.9637  2.6282
  304MOL0     H41915   3.248   9.832  -0.043 -3.6285 -0.4242 -0.3102
  304MOL0     H41916   3.099   9.816  -0.180  2.4176 -0.2978  2.7117
  304MOL0     H41917   3.011   9.827  -0.022 -1.6130  0.8336  0.0934
  304MOL0     H41918   2.922   9.883  -0.302  2.0845  0.8414  1.0462
  304MOL0     H41919   2.854   9.739  -0.209  2.1431 -1.1403  0.5876
  304MOL0     H41920   2.707   9.941  -0.225  2.1112  1.8691 -0.8918
  304MOL0     H41921   2.829  10.016  -0.103  2.1638  0.5852 -1.9182
  304MOL0     H41922   2.747   9.888   0.069 -0.3463 -0.4296  0.6205
  304MOL0     H41923   2.696   9.752  -0.038 -0.2229 -0.3437  1.0071
  304MOL0     H41924   2.524   9.898  -0.137 -0.2276 -0.2817 -0.0361
  304MOL0     H41925   2.505   9.822   0.010  0.6947 -1.4370 -1.3930
  304MOL0     H41926   2.614  10.104   0.008  2.2948 -1.8302  0.4539
  304MOL0     H41927   2.542  10.021   0.143 -3.4471 -1.4997 -0.6173
  304MOL0     H41928   2.317  10.042  -0.008  0.1722  0.1064  0.6128
  304MOL0     H41929   2.398  10.190  -0.045  1.0319 -1.4865 -1.1852
  304MOL0     H41930   2.314  10.083   0.222  2.7991 -2.1271 -1.5392
  304MOL0     H41931   2.249  10.227   0.130  1.4324  1.0577  0.2741
  304MOL0     H41932   3.076  10.224   0.010  0.3938 -0.5686  1.5093
  304MOL0     H41933   3.249  10.269   0.183  1.3114 -1.4183  2.9531
  304MOL0     H41934   3.606  10.147   0.433  2.1010  1.0094 -0.0415
  304MOL0     H41935   3.726  10.181   0.616 -0.1845  1.8178 -0.8792
  304MOL0     H41936   3.473   9.412   1.551 -1.7999  0.1217 -0.2513
  304MOL0     H41937   3.279   9.262   1.474 -0.0736 -2.4595  0.6852
  304MOL0     H41938   3.161   9.042   1.083  1.7850 -0.6379  2.1874
  304MOL0     H41939   2.957   8.966   0.947 -0.3503 -2.7738 -0.5813
  304MOL0     H41940   2.897   8.706   0.898  0.1953 -0.4618  1.0163
  304MOL0     H41941   2.812   8.600   1.001  0.2966 -1.2255 -2.1021
  304MOL0     H41942   2.592   8.646   0.891 -0.6219  0.5000  0.5880
  304MOL0     H41943   2.727   8.569   0.793 -0.0974  1.3688 -0.9679
  304MOL0     H41944   2.697   8.871   0.809  3.9227 -1.3632  2.0250
  304MOL0     H41945   2.752   8.771   0.671 -0.5196  3.7582 -1.2977
  304MOL0     H41946   2.536   8.725   0.599 -0.0626 -1.2175 -0.5211
  304MOL0     H41947   2.546   8.897   0.636 -0.2306 -0.2916  0.2742
  304MOL0     H41948   2.238   8.787   0.903  0.4380  3.6805 -1.2776
  304MOL0     H41949   2.813   8.756   1.271  0.0722  0.3144 -1.1808
  304MOL0     H41950   2.904   8.776   1.492  0.7100 -1.2518 -0.0256
  304MOL0     H41951   3.077   8.738   1.479 -0.4217 -0.4630 -0.4645
  304MOL0     H41952   3.015   8.901   1.527 -1.3012  1.3299 -1.4375
  305MOL0     O41953   7.069  11.353  10.495  0.1282 -0.0222  0.4956
  305MOL0     C41954   7.118  11.434  10.414 -0.8365  0.0556 -0.3684
  305MOL0     O41955   7.219  11.411  10.325  0.4763  0.4252 -0.3218
  305MOL0     C41956   7.242  11.288  10.295  0.7322  0.2502 -0.3111
  305MOL0     C41957   7.151  11.193  10.241  0.1371 -0.6042  1.0106
  305MOL0     C41958   7.192  11.056  10.216  0.8504  0.3682 -0.1104
  305MOL0     C41959   7.306  11.007  10.279 -0.1696 -0.4561 -0.0071
  305MOL0     O41960   7.357  10.881  10.286 -0.8335  0.6453  0.3351
  305MOL0     C41961   7.273  10.767  10.252 -0.3436  0.5045 -0.0483
  305MOL0     C41962   7.347  10.633  10.277 -0.5104  0.1708 -0.4433
  305MOL0     C41963   7.245  10.521  10.324 -0.2970 -0.0470  0.0273
  305MOL0     C41964   7.325  10.399  10.337 -1.4039 -0.2738  0.0980
  305MOL0     C41965   7.232  10.281  10.401 -0.3965 -0.6015  0.2013
  305MOL0     C41966   7.318  10.153  10.391 -1.2170  0.3099  0.6234
  305MOL0     C41967   7.237  10.041  10.449  1.3805  0.0899  0.6284
  305MOL0     C41968   7.329   9.919  10.491 -0.0536 -0.0514 -0.1040
  305MOL0     N41969   7.407   9.929  10.617  0.4519  0.5422  0.9502
  305MOL0     C41970   7.487   9.830  10.673 -0.3590  0.5222 -0.4905
  305MOL0     C41971   7.520   9.866  10.799  0.1843  1.0797  0.5872
  305MOL0     C41972   7.581   9.811  10.925  1.0255  0.2610  0.3269
  305MOL0     C41973   7.694   9.883  10.979  0.9893 -1.6553 -0.2326
  305MOL0     C41974   7.753   9.823  11.109  0.2647 -0.0942 -0.3573
  305MOL0     C41975   7.844   9.703  11.066  0.3433  0.2862  0.8150
  305MOL0     O41976   7.863   9.603  11.162  0.6835 -0.0543  1.0293
  305MOL0     C41977   7.914   9.630  11.286  1.0144 -0.3003  0.0266
  305MOL0     C41978   7.979   9.742  11.316  0.2904  0.5118 -0.3141
  305MOL0     C41979   8.046   9.761  11.441  0.1191 -0.2633  0.5667
  305MOL0     C41980   8.152   9.872  11.452  1.0380  0.6358 -0.1586
  305MOL0     C41981   8.018   9.665  11.543  0.2469  0.7688 -0.5659
  305MOL0     C41982   8.064   9.689  11.686  1.0468 -0.0623  0.7586
  305MOL0     O41983   8.107   9.809  11.717  0.1456 -0.8318  0.0330
  305MOL0     C41984   8.137   9.840  11.848 -1.3779  0.1067 -0.5237
  305MOL0     C41985   8.042   9.876  11.937  0.2574 -0.3302 -0.1744
  305MOL0     C41986   8.081   9.895  12.073 -0.1516  0.7619  0.3494
  305MOL0     C41987   8.214   9.867  12.114  0.0413 -0.7335  0.2478
  305MOL0     O41988   8.257   9.860  12.248 -0.1684  0.6254 -0.1887
  305MOL0     C41989   8.266   9.989  12.300  0.2756 -1.4099 -0.7968
  305MOL0     C41990   8.327   9.994  12.449 -0.8761 -0.0938  0.7595
  305MOL0     C41991   8.230   9.953  12.559  0.0368 -0.5800 -0.3370
  305MOL0     C41992   8.311   9.949  12.693  0.1914 -0.0969  0.4666
  305MOL0     C41993   8.227   9.886  12.800  1.1804 -0.2436 -0.3701
  305MOL0     C41994   8.298   9.879  12.938 -0.6739  0.6773 -0.4968
  305MOL0     C41995   8.435   9.811  12.952 -0.9684 -0.1585 -0.0446
  305MOL0     C41996   8.480   9.804  13.108  0.3056 -0.5400 -0.0143
  305MOL0    Cl41997   8.580   9.949  13.159  0.1817 -0.3571  0.3713
  305MOL0     C41998   8.314   9.846  12.020 -0.1209  1.1633  0.0742
  305MOL0     C41999   8.273   9.821  11.888 -0.2832 -0.5787 -0.0424
  305MOL0     O42000   8.058   9.594  11.764 -0.4928  0.2560  0.6141
  305MOL0     C42001   7.946   9.549  11.512  0.1794 -0.3613  0.3423
  305MOL0     C42002   7.888   9.535  11.383 -0.4405 -0.0761 -0.3205
  305MOL0     N42003   7.476  10.002  10.802  0.3550  0.3161 -0.4484
  305MOL0     N42004   7.409  10.037  10.700  0.5794  0.1647  0.3964
  305MOL0     C42005   7.394  11.105  10.339  0.5168  0.2115 -0.1068
  305MOL0     C42006   7.360  11.244  10.345 -0.3488  0.0113 -0.1660
  305MOL0     C42007   7.061  11.570  10.437 -0.4491 -0.1535  0.6291
  305MOL0     C42008   7.080  11.627  10.560  0.6333  0.7049 -0.9575
  305MOL0     C42009   7.044  11.751  10.583  0.2815 -0.2252  0.5127
  305MOL0     C42010   6.988  11.830  10.487  0.0260 -0.7522 -0.9661
  305MOL0     O42011   6.962  11.964  10.527 -1.0543  0.0251  0.0344
  305MOL0     C42012   6.918  12.054  10.428  1.1106 -0.2745 -0.0216
  305MOL0     C42013   6.944  12.203  10.473 -0.2268 -0.1255  0.6286
  305MOL0     C42014   6.851  12.245  10.594  0.1801 -0.0785 -0.0390
  305MOL0     C42015   6.888  12.382  10.651  0.5074 -0.0123  0.5068
  305MOL0     C42016   6.799  12.437  10.752 -0.1317 -0.3473 -0.1319
  305MOL0     C42017   6.710  12.500  10.817  0.4196  0.0502 -0.5771
  305MOL0     C42018   6.968  11.775  10.362 -0.0305  0.7819  0.1732
  305MOL0     C42019   7.009  11.645  10.334  0.5139  0.2035 -0.0747
  305MOL0     C42020   6.979  11.592  10.196 -0.3677  0.3935 -1.0207
  305MOL0     H42021   7.045  11.213  10.225 -0.1356 -1.1133  2.0667
  305MOL0     H42022   7.131  10.992  10.153 -0.6692  0.5852  1.0990
  305MOL0     H42023   7.250  10.763  10.145  3.3676 -2.6461 -0.9546
  305MOL0     H42024   7.179  10.762  10.308 -2.0636  0.7309 -2.7493
  305MOL0     H42025   7.390  10.600  10.183 -0.9746 -0.5319 -0.4197
  305MOL0     H42026   7.421  10.636  10.357 -0.6470  1.8481 -0.3402
  305MOL0     H42027   7.200  10.558  10.416 -2.3640 -2.5156  0.1093
  305MOL0     H42028   7.161  10.496  10.259 -0.3042 -1.9656  0.7324
  305MOL0     H42029   7.372  10.376  10.241 -2.0427  2.4206 -0.9254
  305MOL0     H42030   7.410  10.411  10.405 -2.1466 -1.2347  1.2397
  305MOL0     H42031   7.138  10.270  10.345 -0.6299 -2.1888  0.8738
  305MOL0     H42032   7.204  10.307  10.503  3.2163  3.4976  0.4273
  305MOL0     H42033   7.350  10.136  10.288  1.1267  3.4593  0.6801
  305MOL0     H42034   7.410  10.173  10.447 -1.4813  1.1217  0.7755
  305MOL0     H42035   7.168  10.006  10.373 -1.0196  1.4503  2.0742
  305MOL0     H42036   7.176  10.066  10.536  0.9022 -2.3433  1.0610
  305MOL0     H42037   7.267   9.833  10.518  0.3583 -0.1584  0.5201
  305MOL0     H42038   7.384   9.892  10.400 -0.8363  3.5324 -1.8042
  305MOL0     H42039   7.500   9.732  10.629 -0.2564  1.1810 -1.9716
  305MOL0     H42040   7.604   9.705  10.912 -3.1285 -1.0939  2.3398
  305MOL0     H42041   7.497   9.800  10.994 -0.7678  2.7124 -1.2971
  305MOL0     H42042   7.768   9.892  10.899 -0.7962  0.1311 -1.7719
  305MOL0     H42043   7.659   9.985  10.992  0.7681 -1.3565 -2.7384
  305MOL0     H42044   7.804   9.894  11.175 -3.8085  2.0077  0.8929
  305MOL0     H42045   7.671   9.789  11.174 -0.0354  1.5905  0.1998
  305MOL0     H42046   7.803   9.644  10.983  1.0878 -0.8157  1.1982
  305MOL0     H42047   7.943   9.734  11.030 -0.4584 -1.3318 -3.3986
  305MOL0     H42048   7.998   9.809  11.232  0.4444 -2.6989 -3.0566
  305MOL0     H42049   8.246   9.826  11.482  0.6751  0.4806  0.7931
  305MOL0     H42050   8.132   9.947  11.530  0.6200 -0.6620  1.0236
  305MOL0     H42051   8.167   9.916  11.353  1.0923  0.8476 -0.0563
  305MOL0     H42052   7.937   9.886  11.910  0.7010  0.0057 -1.8130
  305MOL0     H42053   8.016   9.918  12.157  1.9871 -0.4915  2.4676
  305MOL0     H42054   8.337  10.048  12.242  0.3586 -0.2148  0.4879
  305MOL0     H42055   8.173  10.047  12.295  1.4235  1.2545  3.6248
  305MOL0     H42056   8.419   9.934  12.443 -0.6763  0.0629  2.0893
  305MOL0     H42057   8.363  10.092  12.480 -0.8082 -0.3695  1.5719
  305MOL0     H42058   8.192   9.852  12.543 -0.1884 -0.6844  0.8039
  305MOL0     H42059   8.141  10.015  12.574  1.1861  0.5394  2.5237
  305MOL0     H42060   8.343  10.051  12.713 -0.9155  0.0729  1.4431
  305MOL0     H42061   8.404   9.894  12.674 -0.4435 -0.6048 -1.3773
  305MOL0     H42062   8.137   9.947  12.812  1.4415  0.1008 -0.1526
  305MOL0     H42063   8.185   9.790  12.768 -2.1566  0.3046  1.8211
  305MOL0     H42064   8.226   9.823  12.999  1.4263 -0.3717  1.1547
  305MOL0     H42065   8.307   9.980  12.979  0.1554  0.3712  0.1070
  305MOL0     H42066   8.524   9.855  12.906 -0.8733 -0.6245 -0.3124
  305MOL0     H42067   8.433   9.709  12.912  1.2098 -1.2906  2.4165
  305MOL0     H42068   8.544   9.718  13.126  1.1794  0.4265  1.7814
  305MOL0     H42069   8.392   9.793  13.173  0.4579 -1.9208 -0.0201
  305MOL0     H42070   8.417   9.819  12.042  0.3051  2.8548  0.2768
  305MOL0     H42071   8.339   9.791  11.807 -0.4386  0.9574 -0.7777
  305MOL0     H42072   7.925   9.471  11.586 -0.0438 -2.0266 -1.3956
  305MOL0     H42073   7.821   9.454  11.356 -2.7419  2.3555 -2.4900
  305MOL0     H42074   7.488  11.074  10.383  0.3747 -0.1543 -0.0587
  305MOL0     H42075   7.433  11.294  10.408 -2.0502 -1.0051  2.8509
  305MOL0     H42076   7.123  11.567  10.640 -1.4721  0.4651  0.0704
  305MOL0     H42077   7.070  11.793  10.679 -0.2518 -0.6766  0.8585
  305MOL0     H42078   6.976  12.043  10.336  1.2551 -1.3990  0.1969
  305MOL0     H42079   6.815  12.028  10.403  0.5685  2.6737 -1.3019
  305MOL0     H42080   6.924  12.271  10.389  1.4586  0.1142  0.3892
  305MOL0     H42081   7.052  12.197  10.489  0.0463 -0.2752 -1.0410
  305MOL0     H42082   6.746  12.248  10.562 -0.1711 -2.7901  0.6415
  305MOL0     H42083   6.861  12.176  10.678  1.9307 -0.6192 -0.6619
  305MOL0     H42084   6.895  12.444  10.562 -0.7570 -1.0243 -0.3348
  305MOL0     H42085   6.987  12.380  10.699  1.0282  2.2604 -0.3439
  305MOL0     H42086   6.639  12.557  10.873  1.1307 -0.0269  0.4181
  305MOL0     H42087   6.927  11.832  10.279  1.1909  1.7153  0.1750
  305MOL0     H42088   7.028  11.644  10.114  1.7149  0.0537 -0.0519
  305MOL0     H42089   7.007  11.488  10.177 -2.9406 -0.3877 -1.0295
  305MOL0     H42090   6.875  11.573  10.169  0.1781 -4.3882 -0.5302
  306MOL0     O42091   0.305   9.460   2.484 -0.8252  0.1358 -0.3243
  306MOL0     C42092   0.294   9.504   2.597 -0.1675  0.7266 -0.4931
  306MOL0     O42093   0.231   9.443   2.702  0.0172 -0.5425 -0.9721
  306MOL0     C42094   0.210   9.309   2.719  0.3614 -0.0423  0.2745
  306MOL0     C42095   0.146   9.275   2.832  0.1107  0.1059  0.2639
  306MOL0     C42096   0.117   9.153   2.871  0.4664  0.3255 -1.0695
  306MOL0     C42097   0.141   9.046   2.785 -0.9006  0.3673 -0.3964
  306MOL0     O42098   0.101   8.919   2.806  0.4486 -0.1487  0.4616
  306MOL0     C42099   0.016   8.895   2.912 -0.4112 -0.4710 -0.5618
  306MOL0     C42100  -0.033   8.749   2.898  0.3685  0.6031 -0.2751
  306MOL0     C42101   0.066   8.634   2.938  0.0419 -0.5651 -1.1652
  306MOL0     C42102   0.197   8.652   2.867  0.6161 -0.3579 -0.9071
  306MOL0     C42103   0.289   8.526   2.896  0.2181  0.0522 -0.2442
  306MOL0     C42104   0.429   8.552   2.874 -0.1346 -0.5643  0.4035
  306MOL0     C42105   0.461   8.605   2.726 -0.3082  0.4182 -0.1933
  306MOL0     C42106   0.413   8.519   2.610  0.4628  0.6680 -0.3900
  306MOL0     N42107   0.477   8.387   2.617 -0.7137  1.3942 -0.3337
  306MOL0     C42108   0.424   8.267   2.655 -0.6259  0.2193  0.1372
  306MOL0     C42109   0.510   8.172   2.627 -0.1721  0.4738 -0.0168
  306MOL0     C42110   0.510   8.029   2.655  1.0146 -0.8506  0.9485
  306MOL0     C42111   0.604   7.976   2.763 -0.0163 -0.3975 -0.1222
  306MOL0     C42112   0.579   7.830   2.789  0.5806 -0.4952 -0.5657
  306MOL0     C42113   0.680   7.791   2.894  0.7775 -0.3615 -0.6139
  306MOL0     O42114   0.669   7.649   2.935  0.3901 -0.3134 -0.2672
  306MOL0     C42115   0.768   7.593   3.011  0.9193 -0.2876  0.2403
  306MOL0     C42116   0.738   7.461   3.034 -0.4696 -0.4759  0.5800
  306MOL0     C42117   0.837   7.383   3.108  0.6167 -0.3159  1.2676
  306MOL0     C42118   0.794   7.241   3.135 -0.1722 -0.4035  0.1025
  306MOL0     C42119   0.957   7.440   3.166  1.2044 -0.3139  0.6549
  306MOL0     C42120   1.059   7.381   3.257  0.1559  0.0113  0.9271
  306MOL0     O42121   1.155   7.463   3.303  0.2554  0.1330  0.7659
  306MOL0     C42122   1.272   7.418   3.361 -0.0074  0.0690  0.9121
  306MOL0     C42123   1.315   7.482   3.473  0.1909 -0.3963 -0.1583
  306MOL0     C42124   1.433   7.433   3.535 -0.8203 -0.6249  0.2431
  306MOL0     C42125   1.510   7.333   3.477  0.9638 -0.0881  0.2586
  306MOL0     O42126   1.608   7.264   3.542  0.4008 -0.3908  0.2532
  306MOL0     C42127   1.676   7.323   3.647 -0.4165 -0.1611 -0.6811
  306MOL0     C42128   1.812   7.266   3.679  0.1602  0.8373 -0.8452
  306MOL0     C42129   1.914   7.271   3.561  0.0914  0.9076 -0.2949
  306MOL0     C42130   1.969   7.404   3.520  0.3244  0.6010 -0.4242
  306MOL0     C42131   2.072   7.387   3.414  1.0243 -0.3243  1.2369
  306MOL0     C42132   2.013   7.334   3.280  0.5273  1.2798 -0.4663
  306MOL0     C42133   2.086   7.390   3.156 -0.2311 -0.0290 -0.0149
  306MOL0     C42134   2.220   7.327   3.148 -0.4474  0.4039  0.6443
  306MOL0    Cl42135   2.290   7.361   2.993 -0.4770  0.3111  0.2323
  306MOL0     C42136   1.471   7.272   3.355  0.0461 -0.6418  1.0496
  306MOL0     C42137   1.347   7.315   3.305  0.5308 -0.1305  0.0153
  306MOL0     O42138   1.049   7.264   3.279 -0.0769  0.3633 -0.2460
  306MOL0     C42139   0.968   7.578   3.133 -0.0722 -0.6067  0.3555
  306MOL0     C42140   0.879   7.655   3.056 -0.7016 -0.0133 -0.0492
  306MOL0     N42141   0.619   8.228   2.563  0.2952 -0.0095  0.1730
  306MOL0     N42142   0.601   8.350   2.559 -0.0846 -0.1152 -0.4896
  306MOL0     C42143   0.210   9.070   2.667 -1.2574 -0.8975  0.0209
  306MOL0     C42144   0.247   9.203   2.637  0.4913 -1.0930  0.1885
  306MOL0     C42145   0.335   9.646   2.624 -1.2573  0.7768  0.8941
  306MOL0     C42146   0.392   9.678   2.745  0.0043 -0.0618  0.3248
  306MOL0     C42147   0.444   9.800   2.786 -0.3181  0.6828  0.2900
  306MOL0     C42148   0.441   9.910   2.699 -1.0293 -0.8108 -0.0362
  306MOL0     O42149   0.489  10.038   2.720 -0.5454  0.2991  1.0368
  306MOL0     C42150   0.563  10.064   2.832  0.8793 -0.3113 -1.0170
  306MOL0     C42151   0.468  10.119   2.944  0.2602  0.2697 -0.2664
  306MOL0     C42152   0.530  10.142   3.080 -0.0276 -0.4243  0.1462
  306MOL0     C42153   0.439  10.176   3.203  0.5798  0.1360 -0.8883
  306MOL0     C42154   0.438  10.324   3.217 -0.4457 -1.4515 -0.2129
  306MOL0     C42155   0.442  10.442   3.236 -0.0276 -0.2585 -0.1107
  306MOL0     C42156   0.394   9.879   2.564  0.2430 -0.6831  0.7232
  306MOL0     C42157   0.346   9.754   2.526  0.1864  0.1838 -0.2203
  306MOL0     C42158   0.281   9.733   2.384 -0.1320  0.3425  0.2181
  306MOL0     H42159   0.117   9.350   2.905 -1.9644  0.2261 -0.5959
  306MOL0     H42160   0.072   9.129   2.967  1.1322 -1.2677 -1.1131
  306MOL0     H42161  -0.073   8.957   2.923 -0.2988 -0.4732  0.5144
  306MOL0     H42162   0.068   8.896   3.008  1.1210  4.2400 -1.2244
  306MOL0     H42163  -0.129   8.736   2.949  0.2294  2.8588  0.1479
  306MOL0     H42164  -0.055   8.723   2.794 -1.7183 -1.6824  0.6366
  306MOL0     H42165   0.085   8.635   3.045 -2.2122 -1.4086 -0.6873
  306MOL0     H42166   0.025   8.535   2.916 -0.2136 -0.1204 -2.8674
  306MOL0     H42167   0.182   8.672   2.760 -2.3109  1.3244 -0.2818
  306MOL0     H42168   0.246   8.741   2.908  0.5273 -2.1328  3.6439
  306MOL0     H42169   0.248   8.447   2.833 -1.0906  1.3206 -1.0416
  306MOL0     H42170   0.295   8.503   3.003  1.4907  0.9437 -0.0939
  306MOL0     H42171   0.468   8.627   2.944  3.0306 -1.3276 -0.3876
  306MOL0     H42172   0.486   8.461   2.893  0.0091 -0.1715  1.9922
  306MOL0     H42173   0.562   8.644   2.720 -0.3123  0.2111 -3.2106
  306MOL0     H42174   0.405   8.696   2.703  2.7584  1.8323 -2.8383
  306MOL0     H42175   0.305   8.501   2.614  0.5835 -0.2598 -0.9018
  306MOL0     H42176   0.438   8.560   2.512  2.4694  0.7161  0.0962
  306MOL0     H42177   0.325   8.260   2.700 -1.1728 -1.6821 -1.2283
  306MOL0     H42178   0.542   7.981   2.562  0.6974  0.8609 -0.0944
  306MOL0     H42179   0.409   7.990   2.669  1.5555 -3.3929 -1.3317
  306MOL0     H42180   0.703   8.002   2.726 -0.6478  1.4903 -0.5564
  306MOL0     H42181   0.580   8.030   2.855 -0.2347  2.4843 -1.7637
  306MOL0     H42182   0.475   7.811   2.818  0.4373 -0.6202 -1.1440
  306MOL0     H42183   0.600   7.781   2.693  2.4826  0.6921 -0.8141
  306MOL0     H42184   0.778   7.826   2.860  0.0778  0.9504 -1.3783
  306MOL0     H42185   0.652   7.840   2.987 -2.7148 -0.2609 -1.5854
  306MOL0     H42186   0.651   7.411   2.992  0.0101 -1.0523  0.2575
  306MOL0     H42187   0.869   7.170   3.099  0.7462  0.7910 -0.4037
  306MOL0     H42188   0.704   7.207   3.085  0.0320 -1.6668  0.5611
  306MOL0     H42189   0.773   7.222   3.241 -0.0192 -0.1901  0.1725
  306MOL0     H42190   1.268   7.570   3.515  2.8493  0.4272  1.3852
  306MOL0     H42191   1.456   7.479   3.630  0.9259 -0.7188 -0.1139
  306MOL0     H42192   1.693   7.429   3.625 -0.4739  0.2633  1.1194
  306MOL0     H42193   1.624   7.323   3.743  3.1276 -0.3118  1.4011
  306MOL0     H42194   1.855   7.324   3.761 -0.8224  2.0186 -1.1365
  306MOL0     H42195   1.797   7.164   3.715  3.2947  0.7212  0.4129
  306MOL0     H42196   1.865   7.225   3.475 -1.3366  0.4377  0.7337
  306MOL0     H42197   1.993   7.203   3.597  0.4460  0.2082 -2.2719
  306MOL0     H42198   2.016   7.459   3.602  1.1473  1.9903 -1.7833
  306MOL0     H42199   1.887   7.467   3.486 -1.8001 -2.3775 -1.2339
  306MOL0     H42200   2.106   7.491   3.408 -0.8133  0.2408 -1.0580
  306MOL0     H42201   2.155   7.324   3.448  0.2093 -1.0538  1.9042
  306MOL0     H42202   1.911   7.372   3.275 -1.2592 -2.9883 -1.0037
  306MOL0     H42203   1.999   7.225   3.284 -0.3336  1.2552 -2.9044
  306MOL0     H42204   2.087   7.499   3.158 -2.1136  0.0307 -0.0742
  306MOL0     H42205   2.020   7.359   3.074  0.3403 -2.1063  0.2464
  306MOL0     H42206   2.212   7.220   3.170  4.1418  0.1390  2.0529
  306MOL0     H42207   2.292   7.360   3.224 -0.4532  0.2846  0.7022
  306MOL0     H42208   1.528   7.190   3.313  2.3397  1.2644  0.2679
  306MOL0     H42209   1.311   7.286   3.207 -0.0274  0.2680  0.1010
  306MOL0     H42210   1.046   7.637   3.180 -0.6003  0.2509  0.1913
  306MOL0     H42211   0.918   7.757   3.057 -1.8091  0.5241 -2.6432
  306MOL0     H42212   0.236   8.990   2.599 -0.0375  0.8667 -1.6617
  306MOL0     H42213   0.287   9.203   2.536  0.3258  1.4884  0.0639
  306MOL0     H42214   0.403   9.598   2.818  0.2993  1.0923  1.5716
  306MOL0     H42215   0.478   9.811   2.889  2.1873  0.5530 -0.4518
  306MOL0     H42216   0.632   9.987   2.867  0.5911  1.3729  4.0594
  306MOL0     H42217   0.634  10.141   2.799  0.3498 -0.0881 -1.6633
  306MOL0     H42218   0.391  10.043   2.959  0.4435  0.5193  2.3125
  306MOL0     H42219   0.430  10.217   2.914  0.7661  2.0854  4.2367
  306MOL0     H42220   0.574  10.046   3.109 -1.7751 -1.4023 -0.3100
  306MOL0     H42221   0.604  10.221   3.065 -1.8845  1.0394 -1.8547
  306MOL0     H42222   0.484  10.146   3.298 -2.6908  2.3826  1.5954
  306MOL0     H42223   0.339  10.132   3.206 -0.9028  3.0885 -2.2493
  306MOL0     H42224   0.451  10.546   3.260  0.0430 -0.9739  3.6379
  306MOL0     H42225   0.396   9.961   2.492  1.4995  1.6475  3.2216
  306MOL0     H42226   0.256   9.834   2.350 -1.2233  0.8506  2.3282
  306MOL0     H42227   0.346   9.680   2.314 -0.5044 -0.4350  0.4485
  306MOL0     H42228   0.186   9.679   2.378  0.7934 -1.1857 -1.9979
  307MOL0     O42229  10.851   5.977   7.141 -0.3751  0.4235  1.1006
  307MOL0     C42230  10.745   5.966   7.080  0.6039  0.1006 -0.5621
  307MOL0     O42231  10.667   6.069   7.036  0.8082  0.7024  0.0618
  307MOL0     C42232  10.666   6.176   7.117 -0.5243 -0.4967 -0.2002
  307MOL0     C42233  10.653   6.299   7.061  0.5567 -0.6926 -0.6601
  307MOL0     C42234  10.635   6.423   7.140  0.1123  0.3017 -0.0538
  307MOL0     C42235  10.643   6.416   7.280 -0.5034 -0.1697 -0.4005
  307MOL0     O42236  10.633   6.524   7.359 -0.0359 -0.2165  0.6436
  307MOL0     C42237  10.539   6.521   7.461  0.3282 -0.0344  0.2192
  307MOL0     C42238  10.503   6.665   7.504  0.9314  0.7354 -0.3663
  307MOL0     C42239  10.606   6.750   7.564  0.3777 -0.7592  1.2179
  307MOL0     C42240  10.551   6.871   7.641 -0.7060 -0.0247  0.7602
  307MOL0     C42241  10.663   6.969   7.673  1.0914 -0.3829 -0.7775
  307MOL0     C42242  10.760   6.905   7.775 -0.4669  0.6879 -1.1285
  307MOL0     C42243  10.859   7.009   7.836  0.3478  0.1033  0.7343
  307MOL0     C42244  10.936   6.978   7.961 -0.5884 -0.2433 -0.4476
  307MOL0     N42245  11.039   7.077   7.992  0.0710 -1.0545 -0.1237
  307MOL0     C42246  11.165   7.052   8.046  0.9471 -0.5789 -0.3719
  307MOL0     C42247  11.217   7.175   8.075 -0.1971  0.1636  0.9552
  307MOL0     C42248  11.345   7.209   8.134 -1.0514 -0.7462  0.3149
  307MOL0     C42249  11.464   7.141   8.068 -0.0472  0.5042 -0.1476
  307MOL0     C42250  11.504   7.193   7.924 -0.8566  0.3237  0.1993
  307MOL0     C42251  11.598   7.104   7.850  1.6806 -0.4266  0.7187
  307MOL0     O42252  11.722   7.094   7.921  0.1807 -0.0385  0.1325
  307MOL0     C42253  11.834   7.057   7.858  0.3992  0.4290 -0.3227
  307MOL0     C42254  11.956   7.078   7.925  0.1848  0.8215  0.0899
  307MOL0     C42255  12.079   7.036   7.876  0.5598 -0.5244  0.1393
  307MOL0     C42256  12.206   7.097   7.946  0.8086 -0.1493 -1.2552
  307MOL0     C42257  12.080   6.948   7.762  0.1867 -0.7114 -0.7813
  307MOL0     C42258  12.205   6.888   7.715  0.7118 -0.1262 -0.3285
  307MOL0     O42259  12.316   6.892   7.797  0.1105  0.7283 -0.7024
  307MOL0     C42260  12.434   6.824   7.757  0.5433  0.0251  0.6189
  307MOL0     C42261  12.518   6.772   7.848  0.2556  1.1857 -0.5993
  307MOL0     C42262  12.629   6.693   7.808 -0.5639  0.7788 -0.4448
  307MOL0     C42263  12.670   6.689   7.675  0.0560 -0.3439 -0.2786
  307MOL0     O42264  12.774   6.612   7.637  0.2134  0.2850  0.2504
  307MOL0     C42265  12.895   6.637   7.706  0.1584  1.0427  0.5008
  307MOL0     C42266  13.005   6.629   7.598  0.0806 -1.2903 -0.2444
  307MOL0     C42267  12.992   6.737   7.493  0.3135 -0.7112  0.3762
  307MOL0     C42268  13.097   6.723   7.371  0.5390 -0.3802 -0.8591
  307MOL0     C42269  13.073   6.822   7.260 -0.4922 -0.5908  0.2996
  307MOL0     C42270  13.163   6.785   7.142 -0.2329 -0.8327  0.2088
  307MOL0     C42271  13.174   6.889   7.030  0.2352  0.4144 -0.0630
  307MOL0     C42272  13.250   6.848   6.896 -0.2924  0.1315  0.4116
  307MOL0    Cl42273  13.171   6.697   6.842 -0.0194  0.0300 -0.0666
  307MOL0     C42274  12.594   6.759   7.583  0.1772 -0.4320 -0.2556
  307MOL0     C42275  12.476   6.822   7.622 -0.1157 -0.9136 -0.3307
  307MOL0     O42276  12.204   6.831   7.602 -0.8140  0.2045 -0.9216
  307MOL0     C42277  11.961   6.934   7.690 -0.3298 -0.0065  0.1809
  307MOL0     C42278  11.842   6.983   7.735 -0.1151 -0.3944 -0.5513
  307MOL0     N42279  11.110   7.274   8.056  0.1481  0.3355  0.4005
  307MOL0     N42280  11.009   7.210   8.003  0.2529  0.1047 -0.1830
  307MOL0     C42281  10.649   6.283   7.334  0.4321  0.8644  0.8129
  307MOL0     C42282  10.656   6.170   7.255 -1.0643 -0.3648 -0.4496
  307MOL0     C42283  10.693   5.831   7.060  0.0673  1.2909 -0.5423
  307MOL0     C42284  10.736   5.765   6.941 -0.2304 -1.3250 -0.0634
  307MOL0     C42285  10.681   5.643   6.899  0.2912  1.1018  0.3930
  307MOL0     C42286  10.581   5.583   6.976 -0.1500  0.1878 -0.0217
  307MOL0     O42287  10.529   5.463   6.933  0.4036 -0.3334 -0.3078
  307MOL0     C42288  10.426   5.476   6.835 -0.7073  0.0507  0.5220
  307MOL0     C42289  10.484   5.422   6.697 -0.4488 -0.3035 -0.9039
  307MOL0     C42290  10.370   5.393   6.594 -0.0913 -0.2223  0.2206
  307MOL0     C42291  10.410   5.299   6.482 -0.0178 -0.1037 -0.5163
  307MOL0     C42292  10.306   5.290   6.373  0.2400 -0.8172  0.8773
  307MOL0     C42293  10.240   5.278   6.273  0.2027 -0.1487 -0.7944
  307MOL0     C42294  10.545   5.635   7.098  0.0263  0.3559 -0.2372
  307MOL0     C42295  10.597   5.754   7.141  0.0418 -0.3334  0.0660
  307MOL0     C42296  10.526   5.821   7.256 -0.8176 -0.0457  0.3074
  307MOL0     H42297  10.654   6.308   6.953  2.0443  1.8681 -0.5108
  307MOL0     H42298  10.623   6.520   7.093  1.5124  0.8700  0.7084
  307MOL0     H42299  10.597   6.470   7.539  3.6646 -0.9762 -2.5958
  307MOL0     H42300  10.457   6.458   7.425 -0.1368  0.9083 -0.4246
  307MOL0     H42301  10.472   6.723   7.416 -0.9008 -1.8154 -1.5162
  307MOL0     H42302  10.412   6.653   7.563  1.0039  2.8137  0.2747
  307MOL0     H42303  10.669   6.675   7.614  0.6584 -3.1304 -2.2661
  307MOL0     H42304  10.650   6.798   7.476 -0.3245 -0.6017  0.9477
  307MOL0     H42305  10.490   6.934   7.575  0.2956 -0.7307 -0.9040
  307MOL0     H42306  10.493   6.842   7.729 -0.1800  3.5182  2.4549
  307MOL0     H42307  10.607   7.048   7.724  2.3963 -0.5031  0.9567
  307MOL0     H42308  10.713   7.007   7.584 -2.6173  0.5075 -2.6556
  307MOL0     H42309  10.694   6.872   7.856  1.1682  4.5519  2.1054
  307MOL0     H42310  10.811   6.820   7.730  0.2114  0.9055 -0.7899
  307MOL0     H42311  10.808   7.102   7.864 -0.3978  1.0427 -3.1957
  307MOL0     H42312  10.928   7.040   7.758 -0.5232  0.4932  0.1042
  307MOL0     H42313  10.858   6.972   8.038 -1.7094 -2.2061 -1.6613
  307MOL0     H42314  10.987   6.882   7.952 -1.0787 -0.4516 -1.0964
  307MOL0     H42315  11.217   6.958   8.064  2.6873  0.3972 -0.1013
  307MOL0     H42316  11.358   7.182   8.240 -0.8087 -0.1831  0.4321
  307MOL0     H42317  11.348   7.318   8.140 -2.2675 -0.7476  1.3714
  307MOL0     H42318  11.545   7.161   8.138  0.5262  0.6326 -0.8374
  307MOL0     H42319  11.442   7.034   8.060 -0.3378  0.6501 -1.6393
  307MOL0     H42320  11.415   7.210   7.862 -0.0548  0.9108 -0.8164
  307MOL0     H42321  11.550   7.291   7.932  4.0135 -1.1335 -4.2822
  307MOL0     H42322  11.555   7.004   7.842 -2.0238  1.1547 -2.4131
  307MOL0     H42323  11.628   7.142   7.751  1.9573  1.7004  1.5698
  307MOL0     H42324  11.953   7.125   8.023  1.7406  0.6509  0.2389
  307MOL0     H42325  12.172   7.176   8.013  0.3409 -1.8818  0.6612
  307MOL0     H42326  12.269   7.144   7.870  0.4659  0.4610 -1.1583
  307MOL0     H42327  12.266   7.027   8.007  0.7612  1.1125  0.3124
  307MOL0     H42328  12.487   6.776   7.952  0.8592  0.2875 -0.3722
  307MOL0     H42329  12.685   6.636   7.882 -1.8824 -1.1150 -0.8431
  307MOL0     H42330  12.891   6.732   7.760 -0.4154  0.5660  1.3223
  307MOL0     H42331  12.899   6.556   7.779 -1.8419  2.5111  2.3601
  307MOL0     H42332  13.099   6.625   7.652  0.6574  0.8730 -1.0083
  307MOL0     H42333  12.999   6.539   7.536  1.0742  0.3586 -2.9023
  307MOL0     H42334  13.010   6.836   7.535  0.3274  0.1686 -1.6083
  307MOL0     H42335  12.897   6.719   7.441  0.1061 -1.1400  0.8993
  307MOL0     H42336  13.090   6.625   7.322  1.4068 -0.3553 -1.0447
  307MOL0     H42337  13.195   6.738   7.416  0.0317  1.6217 -0.2897
  307MOL0     H42338  12.969   6.827   7.228 -0.5232  1.8438  0.5478
  307MOL0     H42339  13.102   6.921   7.298  2.8444 -1.7274  1.0735
  307MOL0     H42340  13.113   6.701   7.093  1.7426 -1.9606  0.0291
  307MOL0     H42341  13.266   6.763   7.171  1.3017 -1.0653 -4.5231
  307MOL0     H42342  13.218   6.982   7.067  2.0274  0.3460 -1.7891
  307MOL0     H42343  13.073   6.915   6.999  0.5274  0.6241 -0.8842
  307MOL0     H42344  13.356   6.831   6.917 -0.1264 -1.6899 -1.5969
  307MOL0     H42345  13.237   6.933   6.828  1.9041  0.4983  0.3526
  307MOL0     H42346  12.629   6.756   7.480 -1.8961  2.7247 -1.1997
  307MOL0     H42347  12.435   6.878   7.539 -0.3167 -0.0014  0.3548
  307MOL0     H42348  11.966   6.880   7.596 -1.2682  2.3549 -1.2954
  307MOL0     H42349  11.751   6.956   7.682 -0.9836  2.1223 -0.4623
  307MOL0     H42350  10.622   6.277   7.439  1.1171  3.0220  1.1592
  307MOL0     H42351  10.638   6.073   7.302  2.2852 -1.5388 -1.2833
  307MOL0     H42352  10.803   5.828   6.883 -1.0590 -0.9470 -0.6259
  307MOL0     H42353  10.703   5.592   6.806 -0.2409  0.7996  0.4275
  307MOL0     H42354  10.336   5.419   6.860  0.1726 -1.6536 -0.0809
  307MOL0     H42355  10.400   5.583   6.834  1.1358  0.5554  1.4579
  307MOL0     H42356  10.535   5.330   6.728  1.4742  1.2558  0.7900
  307MOL0     H42357  10.563   5.480   6.649  1.4196 -2.5263 -0.6950
  307MOL0     H42358  10.278   5.351   6.636 -0.6910 -0.4075 -1.2399
  307MOL0     H42359  10.344   5.483   6.539 -0.3774  0.0745  0.8405
  307MOL0     H42360  10.449   5.208   6.527  1.9941  0.5855 -0.7461
  307MOL0     H42361  10.499   5.331   6.427  2.3293 -2.8241  1.3965
  307MOL0     H42362  10.179   5.255   6.188  1.5626  1.5101 -2.2975
  307MOL0     H42363  10.479   5.578   7.163  0.4576  0.9229  0.7161
  307MOL0     H42364  10.601   5.813   7.335  0.4186  1.3997 -0.6550
  307MOL0     H42365  10.509   5.924   7.224 -0.8474 -0.3808 -0.7969
  307MOL0     H42366  10.430   5.777   7.285 -1.0781  0.0811 -0.3416
  308MOL0     O42367   9.400   8.694   6.767  1.1173  0.3882  0.2199
  308MOL0     C42368   9.313   8.758   6.704  0.4894 -0.0561 -1.0555
  308MOL0     O42369   9.345   8.847   6.599 -0.6008 -0.4712 -0.6837
  308MOL0     C42370   9.467   8.826   6.549 -1.3253 -0.5689 -0.5948
  308MOL0     C42371   9.585   8.870   6.620 -0.5778  1.0736  0.5810
  308MOL0     C42372   9.706   8.860   6.554  0.3332  0.6348 -0.4689
  308MOL0     C42373   9.724   8.794   6.435  0.6322 -0.0250 -0.4401
  308MOL0     O42374   9.851   8.774   6.390  0.6076 -0.2934 -0.6312
  308MOL0     C42375   9.879   8.840   6.271 -0.3368  0.9743 -0.2907
  308MOL0     C42376  10.033   8.819   6.227 -0.1270 -0.1036 -0.2692
  308MOL0     C42377  10.082   8.678   6.215  0.5672  0.0939  0.3043
  308MOL0     C42378  10.031   8.623   6.070  0.2920 -0.4477 -0.0930
  308MOL0     C42379  10.066   8.472   6.062  0.1729 -0.7285 -0.1776
  308MOL0     C42380  10.213   8.446   6.037 -0.4571 -0.2330 -0.5900
  308MOL0     C42381  10.227   8.292   6.025 -0.3320 -0.4756  0.0824
  308MOL0     C42382  10.370   8.238   6.052  0.5712 -0.1185 -0.5532
  308MOL0     N42383  10.466   8.316   5.981 -0.1331  0.3517  0.2306
  308MOL0     C42384  10.466   8.313   5.840 -0.4519  0.3448 -0.7053
  308MOL0     C42385  10.541   8.419   5.808  0.7622  0.6451 -0.0784
  308MOL0     C42386  10.578   8.463   5.671 -0.1823 -0.5004 -0.3680
  308MOL0     C42387  10.460   8.528   5.602  0.3938 -0.6629  0.8549
  308MOL0     C42388  10.425   8.667   5.666 -0.2845 -0.1575  0.3286
  308MOL0     C42389  10.327   8.739   5.571 -0.2526  0.2973  0.5327
  308MOL0     O42390  10.396   8.803   5.463 -0.3932  0.1015  0.5854
  308MOL0     C42391  10.314   8.862   5.366  0.0918 -0.2612 -0.0216
  308MOL0     C42392  10.362   8.968   5.306 -0.8489 -0.5023 -0.2064
  308MOL0     C42393  10.286   9.034   5.211 -0.4124 -0.2246  0.1782
  308MOL0     C42394  10.359   9.138   5.136 -0.3747 -0.2255 -0.1852
  308MOL0     C42395  10.155   8.991   5.171  0.2204 -0.5293  0.1157
  308MOL0     C42396  10.061   9.064   5.084 -0.5365 -0.5714  0.4462
  308MOL0     O42397   9.963   8.988   5.024 -0.0762  0.2384  0.6054
  308MOL0     C42398   9.868   9.048   4.948 -0.3522 -0.3558 -0.6555
  308MOL0     C42399   9.847   9.013   4.810  0.1729 -0.2777  0.1256
  308MOL0     C42400   9.742   9.075   4.734  0.2452 -0.6683 -0.2100
  308MOL0     C42401   9.655   9.166   4.794  0.2718 -0.0770  0.3757
  308MOL0     O42402   9.551   9.203   4.710 -0.1209  0.5079 -0.8655
  308MOL0     C42403   9.485   9.332   4.745 -0.5674 -0.7439  0.4689
  308MOL0     C42404   9.575   9.453   4.713  1.0545 -0.3663  0.1599
  308MOL0     C42405   9.514   9.582   4.761  0.2575 -0.5678 -0.5541
  308MOL0     C42406   9.588   9.706   4.734 -0.1232 -0.0988  0.7579
  308MOL0     C42407   9.516   9.838   4.781  0.4944  0.4116 -1.0466
  308MOL0     C42408   9.505   9.841   4.938  0.3053  0.2696 -0.1310
  308MOL0     C42409   9.641   9.829   5.005  0.1233  0.0649  0.1632
  308MOL0     C42410   9.749   9.931   4.960 -0.2915  0.4362  1.9647
  308MOL0    Cl42411   9.702  10.105   4.966  0.1479 -0.1284  0.0936
  308MOL0     C42412   9.671   9.195   4.927 -0.2387 -0.0799  0.1734
  308MOL0     C42413   9.777   9.137   5.005 -0.5752 -0.5935 -0.5703
  308MOL0     O42414  10.079   9.184   5.071  0.2257 -0.9896 -0.0680
  308MOL0     C42415  10.110   8.881   5.231  0.1920  0.6879  0.1080
  308MOL0     C42416  10.186   8.813   5.322  0.2119 -0.1575  0.3770
  308MOL0     N42417  10.586   8.484   5.918 -0.1086  0.0087 -0.3513
  308MOL0     N42418  10.534   8.424   6.019 -0.0640 -0.0463 -0.1624
  308MOL0     C42419   9.607   8.754   6.365  0.1720 -0.0767  0.6203
  308MOL0     C42420   9.483   8.770   6.419  1.0873 -0.5379  0.0193
  308MOL0     C42421   9.178   8.760   6.753 -0.1525 -0.6542 -0.7365
  308MOL0     C42422   9.071   8.792   6.665  0.4141  0.0357  0.7578
  308MOL0     C42423   8.938   8.800   6.704 -0.1237 -0.3051  0.9942
  308MOL0     C42424   8.897   8.755   6.828 -0.4975  0.7207  0.1603
  308MOL0     O42425   8.766   8.726   6.846 -0.2270 -0.3750  0.7225
  308MOL0     C42426   8.716   8.670   6.971 -0.2995  1.0388  0.1788
  308MOL0     C42427   8.564   8.681   6.982 -0.3836  0.4538 -0.0353
  308MOL0     C42428   8.489   8.562   6.924 -0.5945  0.4202 -0.0583
  308MOL0     C42429   8.342   8.555   6.981 -0.2335  0.3688  0.7244
  308MOL0     C42430   8.258   8.664   6.937  0.6830  0.2069 -0.0186
  308MOL0     C42431   8.175   8.750   6.896  0.2807 -0.1854 -0.9306
  308MOL0     C42432   9.002   8.719   6.920 -0.2140 -0.8548  0.5698
  308MOL0     C42433   9.136   8.720   6.887  0.9140 -0.7012  0.0259
  308MOL0     C42434   9.224   8.678   7.000  0.1099 -0.5978 -0.6721
  308MOL0     H42435   9.595   8.922   6.714 -0.9931 -1.1213  1.8928
  308MOL0     H42436   9.798   8.905   6.591 -0.1183  0.4364  0.9484
  308MOL0     H42437   9.865   8.948   6.285  2.3512  1.1698  1.8985
  308MOL0     H42438   9.809   8.806   6.195  0.6123 -1.7105 -0.0831
  308MOL0     H42439  10.061   8.871   6.135 -1.5614  1.0324 -0.1037
  308MOL0     H42440  10.092   8.859   6.310 -2.7906  1.6427  0.9464
  308MOL0     H42441  10.191   8.673   6.207  0.8251 -0.0228  3.0251
  308MOL0     H42442  10.050   8.627   6.306 -0.9180  4.2508  2.3760
  308MOL0     H42443   9.922   8.630   6.079  0.1473 -1.8089 -0.5418
  308MOL0     H42444  10.073   8.677   5.985  0.1624 -1.7161 -0.9987
  308MOL0     H42445  10.006   8.436   5.978  0.9750  0.0087 -1.0924
  308MOL0     H42446  10.051   8.431   6.162  2.9436 -0.7399  0.3227
  308MOL0     H42447  10.247   8.497   5.946  1.8441 -1.0555 -0.2510
  308MOL0     H42448  10.274   8.484   6.119  1.0151 -5.9067  1.4142
  308MOL0     H42449  10.199   8.262   5.924 -2.1112 -0.7561  0.6237
  308MOL0     H42450  10.162   8.244   6.099  2.1633 -1.2239  1.9376
  308MOL0     H42451  10.376   8.248   6.161  5.4047  0.0153 -0.6319
  308MOL0     H42452  10.375   8.136   6.013 -0.8068 -0.3301 -0.2281
  308MOL0     H42453  10.403   8.257   5.771  0.5973  0.7045 -2.0031
  308MOL0     H42454  10.626   8.377   5.624 -3.6209 -3.0445  0.3819
  308MOL0     H42455  10.655   8.540   5.680 -1.8611  1.2436 -0.2903
  308MOL0     H42456  10.492   8.533   5.497 -0.6655  0.1315  0.5554
  308MOL0     H42457  10.377   8.458   5.607 -0.7886  0.7784  2.2773
  308MOL0     H42458  10.381   8.644   5.764 -0.8674 -1.3146 -0.1776
  308MOL0     H42459  10.519   8.722   5.677  0.1630 -0.7638 -0.3321
  308MOL0     H42460  10.253   8.663   5.545  0.0329 -0.1292  0.9460
  308MOL0     H42461  10.271   8.808   5.635 -1.4944 -2.9286  3.2448
  308MOL0     H42462  10.458   9.009   5.336 -0.5312  0.6412 -2.5472
  308MOL0     H42463  10.328   9.241   5.155 -0.8111 -0.3137 -0.4084
  308MOL0     H42464  10.356   9.123   5.027  2.9440  0.6169 -0.4890
  308MOL0     H42465  10.464   9.129   5.167 -0.4107 -0.1777 -0.0477
  308MOL0     H42466   9.920   8.948   4.763  0.7803  1.0629 -0.8516
  308MOL0     H42467   9.731   9.045   4.631 -1.3054 -6.0148  1.1953
  308MOL0     H42468   9.390   9.344   4.692 -1.0129 -0.9452  1.2095
  308MOL0     H42469   9.462   9.332   4.852 -1.6104 -1.6023  0.2615
  308MOL0     H42470   9.669   9.439   4.767  1.6301 -2.4279 -1.2663
  308MOL0     H42471   9.589   9.457   4.605 -2.7142  1.0274 -0.4258
  308MOL0     H42472   9.498   9.557   4.866 -1.4698 -1.0065 -0.8995
  308MOL0     H42473   9.418   9.604   4.714  1.2893 -0.1197 -2.5650
  308MOL0     H42474   9.602   9.711   4.625  0.1201  0.4733  0.8118
  308MOL0     H42475   9.689   9.697   4.776 -0.0025 -0.5825  0.3824
  308MOL0     H42476   9.561   9.924   4.731  1.0623 -0.5912 -2.3351
  308MOL0     H42477   9.412   9.840   4.744  0.7161  1.7134 -1.6679
  308MOL0     H42478   9.443   9.757   4.970  1.3230 -0.7258 -0.6890
  308MOL0     H42479   9.446   9.930   4.962 -1.2895 -0.0747 -2.4059
  308MOL0     H42480   9.686   9.729   5.007  2.5135  1.0722  0.7796
  308MOL0     H42481   9.622   9.850   5.110 -2.3375 -0.1792 -0.1865
  308MOL0     H42482   9.790   9.917   4.860 -0.2630  2.3336  1.6687
  308MOL0     H42483   9.823   9.920   5.040 -0.0551  2.4275  2.0584
  308MOL0     H42484   9.597   9.252   4.982  0.8518 -1.6389  3.4752
  308MOL0     H42485   9.796   9.165   5.109  2.0046  0.1033 -1.1514
  308MOL0     H42486  10.012   8.840   5.213  0.4447 -2.0607  3.8120
  308MOL0     H42487  10.143   8.718   5.351 -2.4867  1.3751  1.8724
  308MOL0     H42488   9.619   8.712   6.265 -0.5376 -0.8537  0.8541
  308MOL0     H42489   9.399   8.738   6.358  0.9610 -0.6576  0.2559
  308MOL0     H42490   9.103   8.816   6.564 -0.6574  0.3734  0.4861
  308MOL0     H42491   8.860   8.832   6.635 -1.8308  0.1601  3.0436
  308MOL0     H42492   8.753   8.567   6.972 -0.0909  1.0988 -0.4533
  308MOL0     H42493   8.762   8.712   7.061 -0.4438 -1.5202  1.5173
  308MOL0     H42494   8.527   8.775   6.940  2.7573  1.2398 -1.3529
  308MOL0     H42495   8.533   8.685   7.087 -1.7693  0.8330 -0.4381
  308MOL0     H42496   8.481   8.568   6.815  0.6256  2.0627 -0.1014
  308MOL0     H42497   8.549   8.475   6.953  0.9519  1.2179 -0.7303
  308MOL0     H42498   8.350   8.555   7.090  0.2729 -0.1756  0.6886
  308MOL0     H42499   8.294   8.461   6.951  0.5643  0.5957 -1.4357
  308MOL0     H42500   8.114   8.825   6.850  1.6721 -0.7010 -3.8612
  308MOL0     H42501   8.972   8.673   7.014 -0.3450 -2.3419 -0.1582
  308MOL0     H42502   9.260   8.575   6.998  0.9812 -0.3146 -0.3038
  308MOL0     H42503   9.309   8.747   6.999 -1.6747  1.8603  1.6003
  308MOL0     H42504   9.173   8.707   7.092  1.9775  1.5242 -0.2169
  309MOL0     O42505   3.701   2.368   9.674 -0.1999  0.2774 -0.6374
  309MOL0     C42506   3.637   2.262   9.707  0.3099  0.2266 -0.3690
  309MOL0     O42507   3.500   2.239   9.681  0.1044  0.6746  0.0156
  309MOL0     C42508   3.449   2.315   9.576 -0.2247  0.5054  0.5090
  309MOL0     C42509   3.516   2.314   9.454 -0.4589  0.4245  0.0926
  309MOL0     C42510   3.477   2.404   9.354  0.3379 -0.5416 -0.1215
  309MOL0     C42511   3.371   2.485   9.377  0.3650  0.3378 -0.4205
  309MOL0     O42512   3.337   2.566   9.275  0.5349  0.0831  0.1155
  309MOL0     C42513   3.210   2.544   9.219  0.0536  0.3639 -0.2183
  309MOL0     C42514   3.232   2.458   9.094 -0.1241  0.1145 -0.0260
  309MOL0     C42515   3.100   2.411   9.039 -0.8205 -0.3899  0.1924
  309MOL0     C42516   3.116   2.302   8.934 -0.2735  0.5071  0.2130
  309MOL0     C42517   2.995   2.216   8.907  0.2466 -0.1137 -0.2828
  309MOL0     C42518   2.895   2.292   8.826  0.5370  0.4688  0.8323
  309MOL0     C42519   2.786   2.191   8.772  0.1736 -0.5823  0.0811
  309MOL0     C42520   2.695   2.141   8.885 -0.0141  0.0565 -0.3445
  309MOL0     N42521   2.615   2.022   8.847 -0.3581 -0.0915  0.0715
  309MOL0     C42522   2.484   2.027   8.805  0.7521  0.4369  0.1512
  309MOL0     C42523   2.453   1.900   8.768 -0.1804 -0.1086 -0.5289
  309MOL0     C42524   2.339   1.862   8.690  0.3222  0.2531 -0.0671
  309MOL0     C42525   2.276   1.738   8.729  0.5895  0.5813 -0.5623
  309MOL0     C42526   2.163   1.709   8.635  0.5059 -0.7763 -0.3065
  309MOL0     C42527   2.079   1.588   8.673 -0.2514  0.7827  0.2709
  309MOL0     O42528   2.021   1.599   8.798 -0.0460 -0.4877 -0.5845
  309MOL0     C42529   1.905   1.669   8.811 -0.0771 -0.3043 -0.1848
  309MOL0     C42530   1.855   1.672   8.940  0.1350  0.7059 -0.4081
  309MOL0     C42531   1.737   1.741   8.963  0.3195 -0.1845 -0.4451
  309MOL0     C42532   1.690   1.737   9.116 -0.7981  1.1073  0.1069
  309MOL0     C42533   1.655   1.799   8.864 -0.4788 -1.5067  0.0310
  309MOL0     C42534   1.509   1.848   8.885 -0.4804  0.5552  0.0387
  309MOL0     O42535   1.458   1.942   8.797 -0.0581  0.0062  0.8126
  309MOL0     C42536   1.327   1.980   8.803 -0.4803  0.2091 -0.8950
  309MOL0     C42537   1.257   1.960   8.690  0.9287 -0.3151 -0.9242
  309MOL0     C42538   1.126   1.988   8.685 -0.5918 -0.0147 -0.2914
  309MOL0     C42539   1.057   2.043   8.794  0.3108  0.0663 -0.9283
  309MOL0     O42540   0.929   2.084   8.776  0.1932 -0.0061  0.2603
  309MOL0     C42541   0.830   2.090   8.887 -0.3502  0.3243  1.0240
  309MOL0     C42542   0.694   2.045   8.841  0.2680 -0.4529 -0.0162
  309MOL0     C42543   0.607   2.138   8.760 -0.4120  0.6291  1.1927
  309MOL0     C42544   0.455   2.089   8.754 -1.1359  0.2555  0.4106
  309MOL0     C42545   0.363   2.206   8.722 -0.7452  1.1241  0.4549
  309MOL0     C42546   0.224   2.152   8.708 -0.0936 -0.2543  0.5101
  309MOL0     C42547   0.139   2.270   8.685 -0.4064  0.9434  0.0139
  309MOL0     C42548  -0.000   2.229   8.693  0.3811 -0.3907 -0.4042
  309MOL0    Cl42549  -0.145   2.333   8.638 -0.0791  0.5756  0.6402
  309MOL0     C42550   1.126   2.066   8.913  0.7425 -0.4146 -0.2829
  309MOL0     C42551   1.266   2.032   8.911 -0.1614 -0.1057  0.4034
  309MOL0     O42552   1.442   1.796   8.973  0.2436 -0.1803  0.7392
  309MOL0     C42553   1.717   1.815   8.744 -0.5970  0.0411  0.1473
  309MOL0     C42554   1.832   1.745   8.719 -0.8925 -0.3490  0.5300
  309MOL0     N42555   2.554   1.815   8.817  0.0473  0.1206  0.5752
  309MOL0     N42556   2.652   1.888   8.857 -0.5813 -0.1706  0.0596
  309MOL0     C42557   3.292   2.480   9.500  0.2493 -0.2286  0.5134
  309MOL0     C42558   3.332   2.391   9.600 -0.4199 -0.2401 -0.5029
  309MOL0     C42559   3.702   2.156   9.793  0.3345  0.2909  0.4985
  309MOL0     C42560   3.622   2.067   9.865  0.5665  0.1880  1.2481
  309MOL0     C42561   3.678   1.972   9.949 -0.7441  0.4556  0.3029
  309MOL0     C42562   3.816   1.958   9.957 -0.7279  0.3294 -0.3742
  309MOL0     O42563   3.875   1.862  10.035 -0.0471 -0.1077 -0.5468
  309MOL0     C42564   3.855   1.881  10.181  0.1823  0.5978 -0.1731
  309MOL0     C42565   3.894   1.750  10.261  0.6220 -0.4787 -0.6574
  309MOL0     C42566   4.044   1.712  10.259 -0.5692  1.2320  0.7944
  309MOL0     C42567   4.046   1.565  10.315  1.2887  0.1473 -0.0368
  309MOL0     C42568   4.180   1.505  10.297 -0.4521  0.6191  1.2407
  309MOL0     C42569   4.298   1.457  10.290  0.3258  0.0457  0.6403
  309MOL0     C42570   3.896   2.054   9.894 -0.9526  0.0833 -0.8151
  309MOL0     C42571   3.845   2.143   9.804 -0.2077 -1.0643 -0.1037
  309MOL0     C42572   3.953   2.232   9.731 -0.0414 -0.2297 -0.4459
  309MOL0     H42573   3.603   2.250   9.446 -2.3759 -2.5493  1.3856
  309MOL0     H42574   3.531   2.416   9.260  2.9930 -2.5105  1.0071
  309MOL0     H42575   3.166   2.638   9.183  0.7768 -0.0845 -2.4405
  309MOL0     H42576   3.139   2.496   9.288  1.7919 -4.6963 -1.5373
  309MOL0     H42577   3.292   2.517   9.023 -0.7210  2.4967  1.3213
  309MOL0     H42578   3.292   2.372   9.126 -4.5140 -3.0481  0.5014
  309MOL0     H42579   3.030   2.367   9.110 -1.4981  0.6468  0.1852
  309MOL0     H42580   3.046   2.497   8.999 -0.8143  0.5732  2.1444
  309MOL0     H42581   3.157   2.336   8.838  0.5970 -0.3807  0.2532
  309MOL0     H42582   3.205   2.249   8.969  0.5435  1.2885 -0.6094
  309MOL0     H42583   2.948   2.185   9.001 -0.3764 -4.2083 -1.7723
  309MOL0     H42584   3.033   2.130   8.852  2.8086 -0.1786  1.3976
  309MOL0     H42585   2.844   2.366   8.887  0.5049 -0.2328  1.6654
  309MOL0     H42586   2.951   2.348   8.751  0.9379 -0.7358  0.1914
  309MOL0     H42587   2.839   2.110   8.722  2.7627  2.1180 -1.9471
  309MOL0     H42588   2.733   2.237   8.688 -2.2052 -1.0725  1.2317
  309MOL0     H42589   2.745   2.123   8.981  1.2283  0.2731 -0.9428
  309MOL0     H42590   2.623   2.221   8.908  0.5085  0.5346 -0.3527
  309MOL0     H42591   2.423   2.115   8.787  1.5927  0.7672 -1.2844
  309MOL0     H42592   2.379   1.832   8.592  0.9495 -2.3826  0.9170
  309MOL0     H42593   2.271   1.946   8.669  1.6638  1.6700  1.1081
  309MOL0     H42594   2.343   1.652   8.725 -0.5029 -0.2742 -1.1992
  309MOL0     H42595   2.245   1.744   8.834  0.8123 -1.7055 -0.3139
  309MOL0     H42596   2.098   1.797   8.639  1.1362 -0.3276  1.8952
  309MOL0     H42597   2.191   1.687   8.532 -2.1879  0.1923 -1.3284
  309MOL0     H42598   2.007   1.576   8.591  2.2293  3.4677 -2.5366
  309MOL0     H42599   2.139   1.497   8.669  0.9012  1.4938  0.8240
  309MOL0     H42600   1.890   1.621   9.029 -1.0828 -0.3367 -0.4826
  309MOL0     H42601   1.769   1.704   9.184 -0.6027  0.0756 -0.5894
  309MOL0     H42602   1.609   1.666   9.129  0.5078 -0.3902  0.3842
  309MOL0     H42603   1.654   1.836   9.145 -3.4972  0.1736  0.1784
  309MOL0     H42604   1.310   1.909   8.610  0.8799  1.4455 -2.1440
  309MOL0     H42605   1.088   1.964   8.586  0.2435 -2.3351 -0.1107
  309MOL0     H42606   0.858   2.027   8.972 -0.7716 -0.4344  0.6099
  309MOL0     H42607   0.829   2.195   8.917  0.7178  0.7550 -0.3145
  309MOL0     H42608   0.702   1.943   8.803 -2.2516 -0.6089 -0.2709
  309MOL0     H42609   0.633   2.020   8.928  0.7209  2.4299  1.2725
  309MOL0     H42610   0.641   2.146   8.656  1.2005  1.2523  1.7392
  309MOL0     H42611   0.625   2.237   8.803  0.5751  1.4062 -0.8728
  309MOL0     H42612   0.419   2.045   8.847 -0.9655  1.9553  1.3253
  309MOL0     H42613   0.442   2.014   8.675 -0.1482  1.6750 -1.1697
  309MOL0     H42614   0.370   2.288   8.794  2.8021  1.0206  0.4120
  309MOL0     H42615   0.389   2.256   8.629 -0.1598 -0.8007 -0.4761
  309MOL0     H42616   0.205   2.091   8.796  3.2252  0.6336  2.0156
  309MOL0     H42617   0.208   2.082   8.626 -1.2737  0.7458 -0.1405
  309MOL0     H42618   0.151   2.300   8.580 -1.7796 -1.5999 -0.9539
  309MOL0     H42619   0.158   2.360   8.745 -0.6454  0.9609  0.0646
  309MOL0     H42620  -0.025   2.206   8.797  0.1003  1.4253 -0.0380
  309MOL0     H42621  -0.006   2.137   8.636  0.9603 -1.2336  0.8539
  309MOL0     H42622   1.097   2.121   9.002  4.5822  2.4785 -0.5697
  309MOL0     H42623   1.331   2.065   8.992 -1.3088 -0.6158  1.5799
  309MOL0     H42624   1.671   1.882   8.673  2.8650  1.0563 -1.3665
  309MOL0     H42625   1.881   1.764   8.624  1.0919 -1.2822  1.2966
  309MOL0     H42626   3.209   2.548   9.520 -0.7321 -0.7919 -1.3094
  309MOL0     H42627   3.270   2.389   9.688 -2.0294  0.2062 -1.5836
  309MOL0     H42628   3.516   2.079   9.844  0.5075 -4.9315 -4.0204
  309MOL0     H42629   3.603   1.913  10.000 -0.4304  1.1153  1.5733
  309MOL0     H42630   3.929   1.953  10.218 -1.1389  1.8991  0.0320
  309MOL0     H42631   3.752   1.913  10.200 -0.6369 -1.9231  0.0735
  309MOL0     H42632   3.832   1.667  10.227 -1.0265 -0.4606  1.9956
  309MOL0     H42633   3.864   1.780  10.362 -0.7414  1.9635 -1.7130
  309MOL0     H42634   4.087   1.709  10.159 -0.5649  0.1780  0.8250
  309MOL0     H42635   4.108   1.773  10.324  2.3855 -2.1590  1.3413
  309MOL0     H42636   3.969   1.508  10.262  0.6955  0.1237  0.8148
  309MOL0     H42637   4.021   1.575  10.422 -0.8819  2.3181 -0.6564
  309MOL0     H42638   4.393   1.409  10.286 -0.8694 -2.4241 -0.2911
  309MOL0     H42639   4.003   2.060   9.911 -1.0250  2.8982 -0.8597
  309MOL0     H42640   3.994   2.308   9.798 -0.1917  1.0036 -1.7119
  309MOL0     H42641   4.035   2.162   9.712 -1.9709 -2.1979 -2.1630
  309MOL0     H42642   3.913   2.273   9.637 -0.3552  0.2505 -0.1098
  310MOL0     O42643   0.982   6.032   1.692 -0.2748 -0.8654  0.5040
  310MOL0     C42644   0.911   5.928   1.693  0.5042 -0.0277  0.7394
  310MOL0     O42645   0.771   5.923   1.695 -0.3798  0.1279  0.9145
  310MOL0     C42646   0.691   6.036   1.717 -0.2417  0.1216 -0.6624
  310MOL0     C42647   0.590   6.061   1.629  0.5826 -0.3230  0.2315
  310MOL0     C42648   0.499   6.167   1.649 -0.5662  0.1545 -0.2365
  310MOL0     C42649   0.529   6.266   1.748  0.5651  0.8111 -0.0322
  310MOL0     O42650   0.467   6.384   1.761  0.0076 -0.2708  0.1508
  310MOL0     C42651   0.355   6.421   1.677  0.2398 -0.0208 -0.3464
  310MOL0     C42652   0.285   6.551   1.716 -0.3242  0.0645 -0.2264
  310MOL0     C42653   0.366   6.679   1.697 -0.3543 -0.1762 -0.3117
  310MOL0     C42654   0.487   6.689   1.788  0.9251  0.0730  0.5498
  310MOL0     C42655   0.554   6.825   1.778 -0.3298 -0.7716 -1.0643
  310MOL0     C42656   0.675   6.846   1.870 -0.0427  0.3525 -0.5025
  310MOL0     C42657   0.743   6.985   1.852  0.3353 -0.1015 -0.0640
  310MOL0     C42658   0.672   7.084   1.941  0.5815 -0.1039  0.2205
  310MOL0     N42659   0.669   7.057   2.086  0.2694 -0.0757  0.1533
  310MOL0     C42660   0.780   7.067   2.159 -0.3513 -0.1524  0.6306
  310MOL0     C42661   0.744   7.039   2.288 -0.4520  0.1532 -0.6589
  310MOL0     C42662   0.854   7.016   2.400 -0.9748 -0.0085 -0.2922
  310MOL0     C42663   0.889   6.860   2.379 -0.5169  0.1907 -0.4702
  310MOL0     C42664   0.992   6.813   2.490  1.6383 -0.4752  0.2726
  310MOL0     C42665   1.006   6.663   2.498 -0.4254 -0.3004 -0.0539
  310MOL0     O42666   1.077   6.624   2.377 -0.1350  0.3220  0.3643
  310MOL0     C42667   1.071   6.486   2.359 -0.2968 -0.5251 -0.3477
  310MOL0     C42668   1.064   6.445   2.229 -0.2135  0.3993  0.6656
  310MOL0     C42669   1.025   6.314   2.191  0.5741  0.4599 -0.0871
  310MOL0     C42670   1.014   6.285   2.045 -0.6489 -0.3912  1.0906
  310MOL0     C42671   0.996   6.225   2.296 -0.0765 -0.4278 -0.0418
  310MOL0     C42672   0.939   6.089   2.268 -0.7328 -0.7699  0.0177
  310MOL0     O42673   0.943   6.008   2.372 -0.4371 -0.0701 -0.0019
  310MOL0     C42674   0.872   5.892   2.373 -0.2036 -0.0608 -0.1140
  310MOL0     C42675   0.741   5.879   2.414 -0.6705 -0.0363 -0.1308
  310MOL0     C42676   0.679   5.756   2.409 -0.5646  0.8063  0.1425
  310MOL0     C42677   0.744   5.636   2.377 -0.4802 -1.2124 -0.9615
  310MOL0     O42678   0.685   5.511   2.389 -0.7896 -0.0632 -0.1605
  310MOL0     C42679   0.550   5.490   2.412 -0.6808  0.5033  0.2949
  310MOL0     C42680   0.536   5.339   2.408  0.3571  1.3551 -0.8936
  310MOL0     C42681   0.385   5.284   2.409  0.2221 -0.5212  0.2697
  310MOL0     C42682   0.380   5.133   2.455 -0.7131  0.1697  0.0432
  310MOL0     C42683   0.236   5.083   2.471 -0.0026  0.0048  0.7154
  310MOL0     C42684   0.225   4.940   2.529 -0.0617  0.5679 -0.2957
  310MOL0     C42685   0.268   4.941   2.676  0.3415  0.2057  0.4736
  310MOL0     C42686   0.286   4.796   2.722  0.6110 -0.0712  0.2692
  310MOL0    Cl42687   0.129   4.697   2.714 -0.3559 -0.1638 -0.2737
  310MOL0     C42688   0.880   5.645   2.334  1.0163 -0.0068  1.0614
  310MOL0     C42689   0.938   5.773   2.330 -0.1364  0.6186 -0.1928
  310MOL0     O42690   0.880   6.058   2.161 -0.0448 -0.3725  0.7306
  310MOL0     C42691   1.014   6.276   2.427  0.0898  0.5941  0.0761
  310MOL0     C42692   1.054   6.399   2.467 -0.2109 -0.5503 -0.2709
  310MOL0     N42693   0.611   7.002   2.290 -0.0684 -0.2917  0.3356
  310MOL0     N42694   0.564   7.022   2.171 -0.6775 -0.0596  0.0214
  310MOL0     C42695   0.636   6.245   1.826  0.0458  1.0779  0.4646
  310MOL0     C42696   0.708   6.126   1.819 -0.4982  0.1875  0.3417
  310MOL0     C42697   0.965   5.785   1.675  0.3067 -0.5479 -0.3059
  310MOL0     C42698   0.897   5.675   1.733  0.5775 -1.0088  0.1232
  310MOL0     C42699   0.962   5.550   1.741  0.0605 -0.2054 -0.7775
  310MOL0     C42700   1.090   5.526   1.690 -0.3990 -0.5509 -0.2015
  310MOL0     O42701   1.155   5.404   1.683 -0.3281 -0.3355  0.2303
  310MOL0     C42702   1.080   5.288   1.681  0.2340 -0.0571  0.5369
  310MOL0     C42703   1.161   5.178   1.619 -0.1578 -0.0928  0.3772
  310MOL0     C42704   1.299   5.161   1.685 -0.1515  0.6702  0.4564
  310MOL0     C42705   1.378   5.054   1.608 -0.1497 -0.5013 -0.2209
  310MOL0     C42706   1.318   4.917   1.616 -0.2060  0.2161  0.1456
  310MOL0     C42707   1.273   4.799   1.624 -0.3270  0.2927 -0.2989
  310MOL0     C42708   1.157   5.629   1.631 -0.1581 -0.0602 -0.3035
  310MOL0     C42709   1.088   5.757   1.612 -0.2726  0.5367  0.7860
  310MOL0     C42710   1.170   5.863   1.549 -0.3719  0.4931  0.1539
  310MOL0     H42711   0.570   5.997   1.544  0.2192 -4.8510  3.3663
  310MOL0     H42712   0.417   6.189   1.581  2.0261  0.4685 -3.5056
  310MOL0     H42713   0.284   6.338   1.670  1.5121 -1.1877  0.1450
  310MOL0     H42714   0.399   6.432   1.578  4.4354  1.8495  1.4776
  310MOL0     H42715   0.199   6.557   1.648 -0.9825  2.9206  0.6996
  310MOL0     H42716   0.248   6.536   1.818 -0.1697  2.1436  0.1819
  310MOL0     H42717   0.385   6.684   1.590 -0.8446 -0.6561 -0.4316
  310MOL0     H42718   0.301   6.760   1.731  1.9880  0.6274  2.6584
  310MOL0     H42719   0.448   6.663   1.886 -1.1056 -1.2966 -0.5391
  310MOL0     H42720   0.564   6.616   1.761 -1.0366 -2.2041  0.7808
  310MOL0     H42721   0.489   6.910   1.801  2.3992  0.8112  1.4493
  310MOL0     H42722   0.596   6.837   1.678  1.9896 -0.7809 -0.1474
  310MOL0     H42723   0.661   6.823   1.976  1.7866  3.9807  0.6803
  310MOL0     H42724   0.749   6.775   1.832 -2.5109 -2.0006 -1.3005
  310MOL0     H42725   0.743   7.011   1.745  2.5186 -0.8208 -0.2907
  310MOL0     H42726   0.846   6.988   1.890 -0.3630  3.1161  1.9600
  310MOL0     H42727   0.716   7.184   1.931 -0.6990  0.7825  2.5975
  310MOL0     H42728   0.567   7.097   1.914  1.3622 -0.8703 -3.7293
  310MOL0     H42729   0.877   7.095   2.117 -0.6795  0.2792  0.1543
  310MOL0     H42730   0.807   7.043   2.495  0.2907  0.6562  0.1641
  310MOL0     H42731   0.936   7.088   2.390 -1.6302  0.8566  0.3846
  310MOL0     H42732   0.795   6.805   2.375  1.1496 -2.7747 -1.6575
  310MOL0     H42733   0.939   6.841   2.283 -0.6751 -0.4769 -0.4242
  310MOL0     H42734   1.091   6.857   2.473  1.0788 -0.3420 -3.4131
  310MOL0     H42735   0.946   6.853   2.581  1.3964  2.0553 -0.8667
  310MOL0     H42736   1.060   6.632   2.588  0.0291 -2.4845 -0.9938
  310MOL0     H42737   0.908   6.617   2.514 -0.2090 -0.1526  1.8752
  310MOL0     H42738   1.075   6.522   2.154 -2.9504  0.8024  0.6016
  310MOL0     H42739   1.048   6.181   2.033 -0.1166 -0.2782  1.6172
  310MOL0     H42740   1.074   6.347   1.978  0.9816 -1.5057  1.4604
  310MOL0     H42741   0.911   6.294   2.009 -2.1013  0.5692  5.0476
  310MOL0     H42742   0.689   5.969   2.444  2.0897  1.5733  0.1758
  310MOL0     H42743   0.578   5.758   2.447 -2.2600  1.7110 -3.9127
  310MOL0     H42744   0.516   5.537   2.505 -0.1832  0.6498  0.4052
  310MOL0     H42745   0.492   5.539   2.333 -1.4441  0.3687  0.7612
  310MOL0     H42746   0.591   5.285   2.331 -1.2425 -2.8328  0.6092
  310MOL0     H42747   0.580   5.299   2.500 -2.4853 -1.8928 -0.7684
  310MOL0     H42748   0.351   5.314   2.310 -0.4181 -0.4590  0.5073
  310MOL0     H42749   0.340   5.337   2.493  0.7042 -3.5563  2.6291
  310MOL0     H42750   0.437   5.126   2.549 -2.0438 -1.5572  0.7743
  310MOL0     H42751   0.432   5.079   2.376 -0.7186 -1.7809  1.3153
  310MOL0     H42752   0.184   5.164   2.524  2.0774  0.3733  2.2905
  310MOL0     H42753   0.188   5.071   2.373 -2.7197  1.0869  1.7942
  310MOL0     H42754   0.286   4.873   2.468 -1.4585 -0.3815 -0.7007
  310MOL0     H42755   0.123   4.899   2.528 -0.3344  0.8354  3.1717
  310MOL0     H42756   0.194   4.987   2.742 -3.4814 -3.2792 -0.9842
  310MOL0     H42757   0.365   4.990   2.690  0.8590  1.1087 -4.3303
  310MOL0     H42758   0.315   4.795   2.828 -2.4507  2.8570  1.3008
  310MOL0     H42759   0.364   4.741   2.668 -0.3748 -1.8185  0.5433
  310MOL0     H42760   0.940   5.560   2.303 -0.7007 -1.6054  1.9269
  310MOL0     H42761   1.046   5.778   2.321 -0.1513 -0.5752 -1.2694
  310MOL0     H42762   1.000   6.198   2.501 -0.6647  1.1970  0.5880
  310MOL0     H42763   1.069   6.422   2.572 -0.3663  3.6794 -1.0261
  310MOL0     H42764   0.652   6.319   1.904  2.0975 -0.7601  1.8862
  310MOL0     H42765   0.784   6.090   1.887 -1.1339 -1.8097  0.0623
  310MOL0     H42766   0.797   5.689   1.774  0.3122 -3.0345  0.2777
  310MOL0     H42767   0.905   5.471   1.789  3.5776 -2.2449  0.4292
  310MOL0     H42768   1.061   5.257   1.784 -0.6376 -1.0710  0.0904
  310MOL0     H42769   0.984   5.298   1.631 -0.4826 -0.4463  1.7780
  310MOL0     H42770   1.171   5.199   1.512  1.2694  1.5973  0.7903
  310MOL0     H42771   1.112   5.081   1.629  0.0659 -0.3790 -1.0779
  310MOL0     H42772   1.356   5.254   1.692 -0.5425  1.0849 -1.3743
  310MOL0     H42773   1.285   5.136   1.791  0.0363  0.2402  0.3795
  310MOL0     H42774   1.482   5.053   1.643  0.1055  0.0825 -0.9436
  310MOL0     H42775   1.390   5.083   1.503  0.0104  2.7719  0.5872
  310MOL0     H42776   1.233   4.703   1.650 -1.8183  0.8036 -0.6179
  310MOL0     H42777   1.258   5.612   1.595  0.4059  1.5315  0.4425
  310MOL0     H42778   1.108   5.936   1.496 -1.6954 -1.2377 -0.7980
  310MOL0     H42779   1.241   5.905   1.621 -1.2524  1.2291  0.6171
  310MOL0     H42780   1.225   5.838   1.458  0.2050  2.9835 -0.2557
  311MOL0     O42781  10.437   5.722   1.749  0.8672 -0.4819 -0.3881
  311MOL0     C42782  10.552   5.726   1.719 -0.6543 -0.0949  0.3693
  311MOL0     O42783  10.637   5.843   1.710  0.0728 -0.1436 -0.6066
  311MOL0     C42784  10.617   5.972   1.749  0.3263 -0.6538 -0.0832
  311MOL0     C42785  10.544   5.992   1.863  0.2685  0.2902 -0.2336
  311MOL0     C42786  10.525   6.121   1.909 -0.0346 -0.3460  0.2787
  311MOL0     C42787  10.575   6.232   1.831  0.4315  0.5762 -0.0928
  311MOL0     O42788  10.570   6.357   1.887 -1.1846 -0.3725 -0.1641
  311MOL0     C42789  10.654   6.363   2.000 -0.6451  0.2402 -0.7403
  311MOL0     C42790  10.688   6.512   2.034 -0.4735  0.2965  1.0859
  311MOL0     C42791  10.582   6.572   2.120 -0.1406  0.5639 -0.8159
  311MOL0     C42792  10.628   6.696   2.181 -0.7301 -0.7986 -0.1230
  311MOL0     C42793  10.508   6.784   2.231  0.4691  0.2814  0.1458
  311MOL0     C42794  10.470   6.883   2.126  0.5962  0.1616  0.1155
  311MOL0     C42795  10.353   6.965   2.170  0.9345  0.4863  0.3609
  311MOL0     C42796  10.306   7.059   2.048 -0.0423  0.6095  0.8861
  311MOL0     N42797  10.190   7.133   2.075 -0.3832  0.0069 -1.1946
  311MOL0     C42798  10.127   7.213   1.983 -0.0205 -0.4715 -0.4297
  311MOL0     C42799  10.009   7.246   2.043 -0.0093 -0.6825 -0.1647
  311MOL0     C42800   9.927   7.337   1.962  0.1616  0.7687  0.1949
  311MOL0     C42801   9.995   7.473   1.943  0.1712  0.3959  0.1902
  311MOL0     C42802  10.068   7.509   1.805  0.2761 -0.8077 -0.7879
  311MOL0     C42803  10.133   7.651   1.805 -0.2491 -0.6875  0.5189
  311MOL0     O42804  10.133   7.702   1.669  0.7741  0.6827 -0.1462
  311MOL0     C42805  10.234   7.661   1.580  0.6239  0.2186  0.8939
  311MOL0     C42806  10.192   7.640   1.458 -0.8863  0.4761  0.1753
  311MOL0     C42807  10.274   7.588   1.351 -0.2335 -0.2538 -0.0393
  311MOL0     C42808  10.203   7.580   1.224 -0.8671 -1.0041  0.7399
  311MOL0     C42809  10.407   7.554   1.381 -0.1484  0.5314 -0.4982
  311MOL0     C42810  10.481   7.473   1.276 -0.7906 -0.1836 -0.7942
  311MOL0     O42811  10.611   7.497   1.272  0.3641 -0.1646  0.6335
  311MOL0     C42812  10.680   7.431   1.174 -0.1191  1.5186  0.4354
  311MOL0     C42813  10.647   7.393   1.045 -0.5532  0.0618 -0.6007
  311MOL0     C42814  10.731   7.304   0.977  0.1061  0.0348  0.3510
  311MOL0     C42815  10.854   7.266   1.024 -0.2372 -0.5969 -0.2805
  311MOL0     O42816  10.929   7.178   0.949  0.0339 -0.5228  0.6427
  311MOL0     C42817  11.075   7.201   0.942  0.4651 -0.6133  0.5145
  311MOL0     C42818  11.120   7.121   0.824 -0.7292 -1.1387  0.1432
  311MOL0     C42819  11.114   6.973   0.854 -0.5044 -0.2517  0.4751
  311MOL0     C42820  11.181   6.906   0.733  0.5177  0.2917  0.4186
  311MOL0     C42821  11.173   6.760   0.757 -0.6100  0.3693  0.5365
  311MOL0     C42822  11.259   6.682   0.653  0.2276  0.0498  0.6182
  311MOL0     C42823  11.226   6.534   0.675  0.4372 -0.3215  0.6028
  311MOL0     C42824  11.253   6.457   0.537  0.0659  0.8534  0.0872
  311MOL0    Cl42825  11.092   6.399   0.487 -0.3048 -0.3369  0.1155
  311MOL0     C42826  10.898   7.316   1.152  0.6958  0.3896  0.4885
  311MOL0     C42827  10.805   7.389   1.223 -0.1131  0.4219 -0.1495
  311MOL0     O42828  10.418   7.378   1.221  0.4765 -0.6431 -0.1485
  311MOL0     C42829  10.451   7.584   1.514 -0.2769  0.3666 -0.0387
  311MOL0     C42830  10.360   7.620   1.618  0.3676 -0.2436 -0.3388
  311MOL0     N42831  10.006   7.197   2.172  0.5307  0.0894  0.3224
  311MOL0     N42832  10.117   7.130   2.187 -0.1020 -0.0978 -0.3392
  311MOL0     C42833  10.631   6.207   1.707  0.0941  0.2005  0.2615
  311MOL0     C42834  10.665   6.078   1.659  0.7745 -0.1128 -0.7595
  311MOL0     C42835  10.621   5.607   1.671 -0.0908 -0.0791 -0.3801
  311MOL0     C42836  10.751   5.596   1.710 -0.9376 -0.1091 -0.1556
  311MOL0     C42837  10.828   5.477   1.695  0.0080 -0.4776  0.5930
  311MOL0     C42838  10.776   5.369   1.626 -0.3898  0.0149  0.6227
  311MOL0     O42839  10.839   5.252   1.600 -0.6054 -0.3360  0.1224
  311MOL0     C42840  10.845   5.208   1.458  0.8587 -0.1877  0.5615
  311MOL0     C42841  10.965   5.129   1.434  0.2308 -0.1704 -0.1022
  311MOL0     C42842  11.086   5.191   1.515 -0.0321  0.5390 -0.1320
  311MOL0     C42843  11.231   5.126   1.477 -0.2051 -0.7304  0.3463
  311MOL0     C42844  11.246   4.982   1.480  0.3426 -0.1391  0.2835
  311MOL0     C42845  11.256   4.858   1.483 -0.0301 -0.5726 -0.2500
  311MOL0     C42846  10.645   5.379   1.590 -0.1741  0.3216 -0.4568
  311MOL0     C42847  10.569   5.499   1.605  0.4852 -0.7106 -0.6757
  311MOL0     C42848  10.431   5.497   1.538 -0.4412  0.1184 -0.3249
  311MOL0     H42849  10.506   5.905   1.915 -0.0888  0.1125 -0.7722
  311MOL0     H42850  10.475   6.156   1.999 -0.5372  1.1500 -0.5527
  311MOL0     H42851  10.743   6.304   1.978  0.7867  1.5319  1.1542
  311MOL0     H42852  10.624   6.318   2.095  0.4997  1.0800  0.0435
  311MOL0     H42853  10.778   6.512   2.096  0.8604  0.6279 -0.7935
  311MOL0     H42854  10.708   6.564   1.940  1.9050 -0.5586  1.0632
  311MOL0     H42855  10.486   6.581   2.069 -1.2511 -1.4388  0.7731
  311MOL0     H42856  10.551   6.500   2.196 -0.4954  0.6891 -0.8406
  311MOL0     H42857  10.701   6.668   2.257 -0.1835 -0.7193 -0.6043
  311MOL0     H42858  10.699   6.749   2.117 -1.6233  0.2904 -0.2494
  311MOL0     H42859  10.537   6.840   2.320 -0.8100  0.2504  0.6056
  311MOL0     H42860  10.421   6.721   2.251  0.6887  0.0110  0.2665
  311MOL0     H42861  10.563   6.932   2.097  0.9218 -0.9851 -0.8687
  311MOL0     H42862  10.428   6.822   2.046 -0.5501 -1.3831  1.8067
  311MOL0     H42863  10.372   7.022   2.261 -0.3674  1.3337  0.1227
  311MOL0     H42864  10.271   6.895   2.187  1.7484 -0.9936 -1.4369
  311MOL0     H42865  10.384   7.131   2.022  1.5400 -1.9086 -1.9473
  311MOL0     H42866  10.305   6.994   1.960 -0.7537  0.6702  0.8376
  311MOL0     H42867  10.153   7.233   1.880 -3.9035  0.0012 -1.4870
  311MOL0     H42868   9.837   7.361   2.019 -0.4821  0.0700 -0.5084
  311MOL0     H42869   9.895   7.289   1.869  1.0258  0.2172  0.1691
  311MOL0     H42870   9.923   7.552   1.964  0.4744  0.6163  0.4079
  311MOL0     H42871  10.076   7.486   2.016 -1.9345 -0.1379  2.7609
  311MOL0     H42872  10.142   7.432   1.781  3.5323  1.5179  0.9786
  311MOL0     H42873   9.980   7.505   1.741 -1.1719  5.0063  0.2629
  311MOL0     H42874  10.080   7.717   1.874 -1.0960 -0.6647 -0.1294
  311MOL0     H42875  10.235   7.651   1.844  1.2435 -1.6640 -2.9787
  311MOL0     H42876  10.091   7.671   1.431 -1.2743  0.6030  1.7225
  311MOL0     H42877  10.117   7.648   1.217 -0.1569 -0.1507  0.0928
  311MOL0     H42878  10.172   7.476   1.212  0.9714 -1.5804  0.7425
  311MOL0     H42879  10.280   7.602   1.150 -0.1819 -0.7192  1.5250
  311MOL0     H42880  10.559   7.432   0.996  1.1013 -0.4043 -4.3171
  311MOL0     H42881  10.687   7.255   0.890 -0.5818 -1.9424  1.7577
  311MOL0     H42882  11.089   7.307   0.915 -2.8639 -0.4858 -1.3273
  311MOL0     H42883  11.132   7.175   1.031 -1.6923 -0.7029  1.9562
  311MOL0     H42884  11.071   7.150   0.731  0.4512 -1.7960 -0.7233
  311MOL0     H42885  11.226   7.143   0.808 -1.0441  2.2936  1.8465
  311MOL0     H42886  11.011   6.938   0.870 -0.5213 -0.2848  0.2929
  311MOL0     H42887  11.175   6.952   0.943  2.1604 -0.4149 -1.2903
  311MOL0     H42888  11.287   6.933   0.736  1.1944 -2.1945  0.9872
  311MOL0     H42889  11.122   6.929   0.645 -2.0567 -0.0087  1.9559
  311MOL0     H42890  11.209   6.735   0.857 -0.1557 -1.2452  0.0013
  311MOL0     H42891  11.072   6.723   0.736  0.1170  0.7260 -5.0617
  311MOL0     H42892  11.368   6.692   0.663  0.5406 -1.3475 -0.9035
  311MOL0     H42893  11.237   6.722   0.554  6.2723  2.5119 -0.1889
  311MOL0     H42894  11.120   6.528   0.702 -0.1437  0.0799 -1.3898
  311MOL0     H42895  11.291   6.495   0.753  2.2167  0.0021 -0.6355
  311MOL0     H42896  11.315   6.368   0.549  0.7417  1.4577  1.1767
  311MOL0     H42897  11.305   6.519   0.464  1.1684 -0.3325 -0.1664
  311MOL0     H42898  10.990   7.279   1.195  3.1215  0.5702 -4.0159
  311MOL0     H42899  10.829   7.420   1.324 -0.8845 -0.8696  0.4527
  311MOL0     H42900  10.556   7.564   1.528 -0.6946 -3.0668 -0.9182
  311MOL0     H42901  10.381   7.630   1.724 -1.6730 -1.2543  0.1948
  311MOL0     H42902  10.661   6.297   1.653  0.4902 -0.8102 -1.2595
  311MOL0     H42903  10.710   6.055   1.562  0.6958 -0.2900 -0.7551
  311MOL0     H42904  10.787   5.675   1.776 -0.9600 -1.0442  1.0025
  311MOL0     H42905  10.929   5.478   1.735 -0.5387  3.7712  2.4104
  311MOL0     H42906  10.759   5.145   1.433  1.1909 -1.3503  2.1470
  311MOL0     H42907  10.844   5.296   1.394  2.0042 -1.7469 -1.7355
  311MOL0     H42908  10.983   5.117   1.326  1.1473 -0.7283  0.0975
  311MOL0     H42909  10.939   5.030   1.474 -0.2277 -0.0550 -0.1196
  311MOL0     H42910  11.085   5.300   1.509  0.2130  0.7516  2.6172
  311MOL0     H42911  11.078   5.155   1.618  0.3979  0.1411 -0.2329
  311MOL0     H42912  11.310   5.182   1.528  0.5008 -2.4274  1.2061
  311MOL0     H42913  11.242   5.157   1.373  3.1470 -2.0837  0.1490
  311MOL0     H42914  11.251   4.751   1.478 -1.3192 -0.4933 -1.5160
  311MOL0     H42915  10.601   5.290   1.544 -0.9106  1.0730 -1.2468
  311MOL0     H42916  10.421   5.586   1.475 -0.1251  0.5685  0.2369
  311MOL0     H42917  10.386   5.414   1.485  0.7175 -0.5777 -0.2629
  311MOL0     H42918  10.356   5.517   1.615 -2.8749 -0.2753 -2.4588
  312MOL0     O42919   4.747   3.685   0.561  1.1776  0.5203  0.8098
  312MOL0     C42920   4.819   3.657   0.467 -0.5848  0.1078  0.1779
  312MOL0     O42921   4.941   3.714   0.455  0.3253  0.1062 -0.0206
  312MOL0     C42922   4.993   3.820   0.525 -0.3756 -0.2696  0.1125
  312MOL0     C42923   5.117   3.878   0.480  0.2177 -0.0146 -0.3688
  312MOL0     C42924   5.186   3.974   0.553 -0.2699 -0.1382  0.0860
  312MOL0     C42925   5.120   4.037   0.657  0.0920  0.3843  0.4848
  312MOL0     O42926   5.169   4.143   0.726  0.2188 -0.4805 -0.2170
  312MOL0     C42927   5.282   4.215   0.697 -1.1234  0.5625  0.2032
  312MOL0     C42928   5.285   4.356   0.752  1.1257  0.5685 -1.2295
  312MOL0     C42929   5.402   4.432   0.722 -0.4105  0.5950  0.0967
  312MOL0     C42930   5.411   4.450   0.573  0.1457 -0.7278  0.1076
  312MOL0     C42931   5.511   4.558   0.533  0.1859  0.5756 -0.1874
  312MOL0     C42932   5.501   4.576   0.385  0.4008 -0.1105  0.3572
  312MOL0     C42933   5.540   4.721   0.348  0.0969 -0.0750 -0.8076
  312MOL0     C42934   5.686   4.728   0.303 -0.2913 -0.1969 -0.6588
  312MOL0     N42935   5.716   4.678   0.172  0.7166  0.1413  0.9368
  312MOL0     C42936   5.837   4.687   0.099 -0.6300  0.5908  0.2920
  312MOL0     C42937   5.826   4.618  -0.018  0.1757  0.6783 -0.0631
  312MOL0     C42938   5.941   4.605  -0.112 -0.8135 -0.3108 -0.7006
  312MOL0     C42939   5.908   4.525  -0.240 -0.6535  0.4813  0.3534
  312MOL0     C42940   6.044   4.482  -0.292 -0.0417 -0.1049  0.5717
  312MOL0     C42941   6.044   4.473  -0.448  0.1092 -0.7151 -0.1191
  312MOL0     O42942   6.034   4.609  -0.494  0.0758  0.0106 -0.3414
  312MOL0     C42943   6.049   4.612  -0.631 -0.5204 -0.3941 -0.8912
  312MOL0     C42944   6.014   4.510  -0.719  0.0617 -0.1321 -0.5153
  312MOL0     C42945   6.021   4.537  -0.856 -0.2758 -0.8505  0.9855
  312MOL0     C42946   5.990   4.421  -0.943  0.3654  0.0209 -0.3801
  312MOL0     C42947   6.050   4.669  -0.915  0.2489 -0.1975  0.3317
  312MOL0     C42948   6.063   4.693  -1.062 -0.0443  0.1557 -0.0830
  312MOL0     O42949   6.045   4.598  -1.165 -0.0436 -0.6832  0.3090
  312MOL0     C42950   6.086   4.649  -1.292 -0.3180 -0.0265  0.8427
  312MOL0     C42951   6.195   4.594  -1.364  0.1448 -0.2062 -0.3354
  312MOL0     C42952   6.227   4.646  -1.488 -0.2834 -0.5079  0.3454
  312MOL0     C42953   6.137   4.733  -1.551 -0.4792  0.0475  0.2331
  312MOL0     O42954   6.179   4.765  -1.675 -0.3004  0.1775 -0.3220
  312MOL0     C42955   6.075   4.815  -1.768  1.1881 -0.4306 -0.0767
  312MOL0     C42956   6.149   4.855  -1.902  0.7436 -0.1313  0.6023
  312MOL0     C42957   6.254   4.970  -1.878  0.7159 -0.1344 -1.1604
  312MOL0     C42958   6.333   5.009  -1.998 -0.4704 -1.1879 -0.5240
  312MOL0     C42959   6.413   5.143  -1.975 -0.0252  0.2720  0.0800
  312MOL0     C42960   6.497   5.188  -2.097  0.3176  0.4112  0.1699
  312MOL0     C42961   6.579   5.304  -2.055 -0.9565 -0.7194 -0.2686
  312MOL0     C42962   6.620   5.384  -2.177 -0.6678  0.0583  0.6153
  312MOL0    Cl42963   6.754   5.295  -2.270  0.4189 -0.2255 -0.4501
  312MOL0     C42964   6.017   4.766  -1.496  0.4770  0.2154  0.9678
  312MOL0     C42965   5.999   4.735  -1.360  0.1051 -1.1921  0.5016
  312MOL0     O42966   6.108   4.810  -1.077  0.2132  0.7309 -0.1323
  312MOL0     C42967   6.091   4.767  -0.812  0.8263  0.3497 -0.0639
  312MOL0     C42968   6.084   4.732  -0.679 -0.0258 -0.2817 -0.1817
  312MOL0     N42969   5.702   4.553  -0.013 -0.7622  0.4229 -0.7311
  312MOL0     N42970   5.638   4.596   0.098 -0.1584 -0.5592  0.3927
  312MOL0     C42971   4.991   3.994   0.704 -0.8221  0.1975 -0.9821
  312MOL0     C42972   4.932   3.880   0.643 -0.0832 -0.1615 -0.5799
  312MOL0     C42973   4.788   3.539   0.380 -0.0631  0.8477  0.2726
  312MOL0     C42974   4.893   3.492   0.303 -0.1200  0.0356 -0.5743
  312MOL0     C42975   4.879   3.392   0.207  0.3110  0.6791  0.5815
  312MOL0     C42976   4.751   3.330   0.184 -0.6788 -0.1807 -0.0085
  312MOL0     O42977   4.737   3.241   0.083  0.0613 -0.4286 -0.3776
  312MOL0     C42978   4.654   3.295  -0.026  0.3173  0.0428  0.2228
  312MOL0     C42979   4.689   3.217  -0.155  0.2964  0.4673  0.1257
  312MOL0     C42980   4.658   3.071  -0.133  0.2456 -0.6256  0.3883
  312MOL0     C42981   4.669   2.996  -0.268  0.0878 -0.5010  0.1203
  312MOL0     C42982   4.620   2.863  -0.247 -0.1389 -1.0256 -0.2519
  312MOL0     C42983   4.579   2.754  -0.238 -0.4351  0.7571 -0.2630
  312MOL0     C42984   4.651   3.371   0.263  1.0412  0.4328 -0.6182
  312MOL0     C42985   4.663   3.476   0.363  0.4651  0.2765  0.0058
  312MOL0     C42986   4.542   3.517   0.446 -0.7227  0.2576 -0.5863
  312MOL0     H42987   5.167   3.826   0.399  1.1863  0.8214 -0.3332
  312MOL0     H42988   5.289   3.986   0.520  1.4429 -3.4580  3.3623
  312MOL0     H42989   5.287   4.229   0.588  0.2674 -2.9326 -0.3059
  312MOL0     H42990   5.370   4.162   0.735 -0.4075  0.8506 -0.9986
  312MOL0     H42991   5.198   4.408   0.711  2.2807  2.0145 -1.9888
  312MOL0     H42992   5.261   4.351   0.858  1.7414  0.9885 -1.0593
  312MOL0     H42993   5.397   4.530   0.771  2.1358  2.3383 -2.6994
  312MOL0     H42994   5.495   4.394   0.765  1.2480  1.9873 -2.0229
  312MOL0     H42995   5.450   4.363   0.520 -0.4255  0.2079 -1.9356
  312MOL0     H42996   5.312   4.473   0.534  0.1630 -0.9038 -0.0423
  312MOL0     H42997   5.612   4.536   0.570  0.4272  1.5922 -0.2119
  312MOL0     H42998   5.487   4.652   0.584  1.0845  1.2791 -0.9880
  312MOL0     H42999   5.569   4.501   0.343  0.3461 -1.5291  2.6138
  312MOL0     H43000   5.398   4.555   0.355  0.4213 -1.6314  1.2502
  312MOL0     H43001   5.532   4.793   0.429 -3.1641 -1.0235 -0.1372
  312MOL0     H43002   5.488   4.757   0.259  3.1457 -1.8457 -3.5511
  312MOL0     H43003   5.703   4.835   0.289 -1.7884  0.4233  1.7749
  312MOL0     H43004   5.751   4.680   0.376  0.6664  0.2262 -1.2113
  312MOL0     H43005   5.923   4.743   0.133 -1.0779  1.1159  0.5813
  312MOL0     H43006   6.022   4.561  -0.053 -2.2364 -1.1664  0.7127
  312MOL0     H43007   5.970   4.707  -0.139 -0.1725 -0.2498  0.1958
  312MOL0     H43008   5.845   4.439  -0.216 -0.3192  0.1830  0.1709
  312MOL0     H43009   5.853   4.591  -0.307  3.1980  1.2225 -2.3674
  312MOL0     H43010   6.120   4.553  -0.259  0.1281  0.3576 -0.7473
  312MOL0     H43011   6.070   4.386  -0.245 -1.4778 -1.6899 -1.6643
  312MOL0     H43012   6.134   4.425  -0.487 -0.4967 -0.0608 -2.4559
  312MOL0     H43013   5.956   4.412  -0.471 -1.0040  1.4028 -1.8710
  312MOL0     H43014   5.983   4.414  -0.679  1.2090 -0.7447 -1.0528
  312MOL0     H43015   6.071   4.408  -1.015  2.7788 -3.2708  2.5606
  312MOL0     H43016   5.896   4.441  -0.996 -0.6646 -1.8486  0.6185
  312MOL0     H43017   5.973   4.331  -0.884  1.5894 -0.8120 -1.2617
  312MOL0     H43018   6.252   4.522  -1.306  1.6904 -0.2132 -1.7763
  312MOL0     H43019   6.326   4.620  -1.525  0.9693 -0.5944  3.4701
  312MOL0     H43020   5.997   4.741  -1.788  0.5351  0.6299 -1.6699
  312MOL0     H43021   6.026   4.900  -1.719  0.1915  0.2430 -2.1292
  312MOL0     H43022   6.195   4.764  -1.940  2.7969  1.2369 -0.3880
  312MOL0     H43023   6.079   4.900  -1.974  0.7549  0.1929  0.7922
  312MOL0     H43024   6.316   4.939  -1.793 -2.0707  0.8537  1.4529
  312MOL0     H43025   6.195   5.056  -1.845 -0.5271 -1.0599 -0.8739
  312MOL0     H43026   6.267   5.015  -2.085 -0.6220  0.5139 -0.3294
  312MOL0     H43027   6.397   4.921  -2.007 -2.5276 -3.1260  2.1020
  312MOL0     H43028   6.347   5.226  -1.946  1.2379  1.7634 -1.1797
  312MOL0     H43029   6.476   5.126  -1.887  0.4070  1.1456 -0.0539
  312MOL0     H43030   6.429   5.209  -2.180 -0.0243  3.5248  1.0949
  312MOL0     H43031   6.565   5.107  -2.120  0.8256  0.9022 -0.0770
  312MOL0     H43032   6.677   5.282  -2.013  0.4066  1.2989 -2.1489
  312MOL0     H43033   6.536   5.376  -1.985  1.2192 -1.7891  2.3307
  312MOL0     H43034   6.663   5.478  -2.141 -1.0346 -0.8329  3.6460
  312MOL0     H43035   6.534   5.393  -2.245  0.0283 -2.0583 -0.6320
  312MOL0     H43036   5.941   4.829  -1.541  2.1832 -0.1859 -2.7917
  312MOL0     H43037   5.918   4.782  -1.304 -0.9169 -0.2702 -1.6249
  312MOL0     H43038   6.119   4.865  -0.850  3.7460  0.0023  0.9478
  312MOL0     H43039   6.113   4.806  -0.605 -0.5721  0.0532 -0.2993
  312MOL0     H43040   4.933   4.048   0.779  2.2086  0.7937  1.1149
  312MOL0     H43041   4.834   3.840   0.671 -0.8389 -0.3419 -3.2371
  312MOL0     H43042   4.995   3.528   0.312  1.1607 -3.3468  0.0856
  312MOL0     H43043   4.964   3.362   0.146  1.1084  2.6533  0.6565
  312MOL0     H43044   4.546   3.293  -0.011  0.5764 -0.6412  2.3995
  312MOL0     H43045   4.675   3.399  -0.051  0.3341 -0.6869 -3.3795
  312MOL0     H43046   4.797   3.215  -0.171  0.0680 -1.8186 -1.5702
  312MOL0     H43047   4.634   3.256  -0.242  1.2362 -1.6782 -1.5074
  312MOL0     H43048   4.731   3.029  -0.062  0.7961  0.9544  0.7924
  312MOL0     H43049   4.559   3.077  -0.088  0.4029  0.0126  0.6521
  312MOL0     H43050   4.771   3.004  -0.306 -0.5850  2.6811 -1.4138
  312MOL0     H43051   4.604   3.046  -0.341  3.0704  0.2205 -2.2449
  312MOL0     H43052   4.545   2.659  -0.201  4.0443 -1.2326 -0.6203
  312MOL0     H43053   4.555   3.323   0.255  0.6704  0.9955  0.2685
  312MOL0     H43054   4.496   3.613   0.419 -1.9959 -0.0393  0.4003
  312MOL0     H43055   4.455   3.451   0.437 -1.4008  0.9519  0.5359
  312MOL0     H43056   4.572   3.515   0.551  0.9868 -2.9236 -1.0370
  313MOL0     O43057  10.504   4.246   3.236 -0.4969  0.0780 -0.3090
  313MOL0     C43058  10.585   4.333   3.269 -0.1365 -0.5105  0.1742
  313MOL0     O43059  10.574   4.402   3.379  0.1039  0.4794  0.0942
  313MOL0     C43060  10.463   4.400   3.459  0.0175 -0.5308  0.0085
  313MOL0     C43061  10.331   4.382   3.417 -0.0994 -0.2658 -0.5024
  313MOL0     C43062  10.221   4.378   3.506  0.0603  0.2129  0.6517
  313MOL0     C43063  10.246   4.396   3.641  0.0062 -0.8967 -0.4634
  313MOL0     O43064  10.159   4.391   3.743 -0.1957  1.3778  0.4743
  313MOL0     C43065  10.023   4.366   3.708 -0.1643  0.0362  0.8872
  313MOL0     C43066   9.934   4.406   3.833  0.7372 -0.4839  0.0502
  313MOL0     C43067   9.790   4.348   3.828 -0.1566 -0.2176 -0.3603
  313MOL0     C43068   9.717   4.407   3.711  0.2376  0.6358  0.2117
  313MOL0     C43069   9.576   4.355   3.706 -0.1122 -1.2908  0.0735
  313MOL0     C43070   9.490   4.430   3.806 -0.2810  0.4900 -0.9385
  313MOL0     C43071   9.343   4.389   3.799 -0.5435 -0.0979  0.2320
  313MOL0     C43072   9.259   4.506   3.844  0.0044  0.3866 -1.0417
  313MOL0     N43073   9.137   4.449   3.909  0.5432 -0.4371 -0.1182
  313MOL0     C43074   9.027   4.389   3.848 -1.0216 -0.1708  0.3361
  313MOL0     C43075   8.959   4.328   3.949  0.9077 -0.1455 -0.3311
  313MOL0     C43076   8.828   4.252   3.921 -0.3303 -0.4556 -0.0181
  313MOL0     C43077   8.717   4.353   3.894  0.4309 -0.3308 -1.1360
  313MOL0     C43078   8.689   4.441   4.019 -0.3772 -0.4005  0.7999
  313MOL0     C43079   8.574   4.539   4.015 -0.0924 -0.7796 -0.0307
  313MOL0     O43080   8.458   4.477   3.957  0.1296  0.2171  0.3638
  313MOL0     C43081   8.329   4.509   4.001 -0.3203 -0.3537 -0.0282
  313MOL0     C43082   8.225   4.411   4.017  0.6037  0.3142  0.3399
  313MOL0     C43083   8.095   4.446   4.058 -0.8012 -0.3038 -0.0011
  313MOL0     C43084   8.000   4.335   4.072  0.4701 -0.2522 -0.3950
  313MOL0     C43085   8.074   4.581   4.096  0.4749  0.8218 -0.0578
  313MOL0     C43086   7.945   4.634   4.152 -0.3148 -0.6133 -0.3018
  313MOL0     O43087   7.937   4.775   4.168 -0.1508  0.2152  0.6616
  313MOL0     C43088   7.816   4.822   4.206 -0.7064 -0.6857  0.0929
  313MOL0     C43089   7.803   4.879   4.328  0.1688 -0.5030 -0.1876
  313MOL0     C43090   7.680   4.927   4.381 -0.0650 -0.0817  0.0055
  313MOL0     C43091   7.567   4.919   4.299  0.7466 -0.4228 -0.1947
  313MOL0     O43092   7.449   4.971   4.352 -0.2204  0.4436  0.3445
  313MOL0     C43093   7.324   4.979   4.279 -0.2810  0.1635  0.3134
  313MOL0     C43094   7.189   5.016   4.348  0.4336  0.3514 -0.2479
  313MOL0     C43095   7.187   5.128   4.445 -0.1594 -0.1588  0.0355
  313MOL0     C43096   7.223   5.260   4.382 -0.0209 -0.0720 -0.7457
  313MOL0     C43097   7.107   5.327   4.298 -1.4187  0.5124 -0.3725
  313MOL0     C43098   7.158   5.456   4.243  0.8979 -0.4485  0.5936
  313MOL0     C43099   7.092   5.487   4.108 -0.2318 -0.4394 -1.2188
  313MOL0     C43100   7.165   5.602   4.040  0.3774 -0.6259  0.0907
  313MOL0    Cl43101   7.314   5.550   3.960  0.0781  0.1683  0.3497
  313MOL0     C43102   7.574   4.861   4.172  0.5988  1.0301  0.2826
  313MOL0     C43103   7.705   4.817   4.127  1.0105  0.5903 -0.2965
  313MOL0     O43104   7.851   4.556   4.166  0.3172  0.1371 -0.2078
  313MOL0     C43105   8.177   4.669   4.086  0.2039 -1.0985  0.9372
  313MOL0     C43106   8.309   4.635   4.045  0.4661 -0.3698  0.3277
  313MOL0     N43107   9.027   4.357   4.072 -0.6904 -0.6368  0.4610
  313MOL0     N43108   9.137   4.429   4.044  0.1902 -0.1212  0.3641
  313MOL0     C43109  10.375   4.436   3.678  0.3157  0.0211  0.1319
  313MOL0     C43110  10.481   4.428   3.595  0.0149 -0.4709  0.0861
  313MOL0     C43111  10.712   4.358   3.199 -0.2094 -0.4319  0.9535
  313MOL0     C43112  10.747   4.497   3.177  0.2499  0.4574 -0.7418
  313MOL0     C43113  10.861   4.526   3.098  0.7817 -0.5146 -1.2318
  313MOL0     C43114  10.940   4.422   3.056 -1.3831 -0.6096  0.1830
  313MOL0     O43115  11.068   4.443   2.996 -0.3461  0.2454  0.4183
  313MOL0     C43116  11.155   4.551   3.030 -0.2868 -0.2995  0.0350
  313MOL0     C43117  11.189   4.569   3.184  0.1707  1.0303 -0.1129
  313MOL0     C43118  11.301   4.672   3.218  0.5224  0.4042 -0.0032
  313MOL0     C43119  11.283   4.715   3.369 -0.4636 -0.3833  0.0252
  313MOL0     C43120  11.409   4.780   3.409 -1.3393  0.4394  0.1078
  313MOL0     C43121  11.508   4.855   3.441  0.2208  0.3788 -0.1732
  313MOL0     C43122  10.906   4.287   3.084  0.1667 -0.5234 -0.5340
  313MOL0     C43123  10.790   4.256   3.145 -0.8664  0.4161  0.2614
  313MOL0     C43124  10.754   4.109   3.149  0.0701 -1.5347  0.1804
  313MOL0     H43125  10.320   4.370   3.310  0.4017 -1.7096 -0.4040
  313MOL0     H43126  10.128   4.348   3.460 -0.4952  0.1121  1.8040
  313MOL0     H43127  10.016   4.259   3.689 -0.4664  0.6261 -3.1318
  313MOL0     H43128   9.990   4.421   3.620  1.3750 -0.0734  0.2233
  313MOL0     H43129   9.972   4.375   3.930  2.2072 -0.6162 -0.5494
  313MOL0     H43130   9.930   4.514   3.851 -0.1010 -0.4286 -0.3945
  313MOL0     H43131   9.798   4.240   3.814 -1.1108 -0.3521  0.0707
  313MOL0     H43132   9.735   4.387   3.914 -0.0046  0.6863 -0.6586
  313MOL0     H43133   9.727   4.516   3.718 -2.6155  1.1159 -1.4703
  313MOL0     H43134   9.786   4.389   3.628  2.1149  3.7903  0.9177
  313MOL0     H43135   9.578   4.249   3.729 -0.3146 -1.0437  1.3111
  313MOL0     H43136   9.536   4.366   3.605 -0.2527  3.2627  0.3840
  313MOL0     H43137   9.526   4.421   3.909 -1.3574  5.4134  0.1158
  313MOL0     H43138   9.491   4.538   3.786  1.4005  0.5924 -0.4304
  313MOL0     H43139   9.318   4.305   3.865 -2.7769  0.4179  0.1079
  313MOL0     H43140   9.306   4.372   3.698 -0.9873  1.5273  0.0999
  313MOL0     H43141   9.322   4.552   3.920  0.1069  0.2039 -1.0147
  313MOL0     H43142   9.233   4.578   3.767  0.3580 -0.4099 -1.9274
  313MOL0     H43143   9.011   4.382   3.741  2.3289 -0.0146 -0.2864
  313MOL0     H43144   8.798   4.213   4.018 -0.4219  2.6529  1.3424
  313MOL0     H43145   8.837   4.181   3.838 -2.1684 -1.8534  0.8957
  313MOL0     H43146   8.737   4.408   3.801 -0.5680  0.9211 -0.6314
  313MOL0     H43147   8.623   4.304   3.867  0.2550 -1.9902  2.0737
  313MOL0     H43148   8.663   4.378   4.105  4.6836 -0.4005  2.6477
  313MOL0     H43149   8.780   4.493   4.049 -1.4845  2.6133 -0.6596
  313MOL0     H43150   8.555   4.576   4.116 -0.8500 -0.9158 -0.1163
  313MOL0     H43151   8.592   4.628   3.955 -0.2739 -0.7835 -0.0916
  313MOL0     H43152   8.240   4.305   3.997  1.5049  0.2596  1.1969
  313MOL0     H43153   7.904   4.363   4.026 -0.0608 -0.7140  0.4230
  313MOL0     H43154   7.985   4.313   4.178  1.2879  0.4559 -0.1253
  313MOL0     H43155   8.037   4.244   4.023 -1.0646  0.6059 -3.4210
  313MOL0     H43156   7.890   4.878   4.392 -0.0953 -1.1268  0.1724
  313MOL0     H43157   7.673   4.960   4.484 -0.3997 -1.8689  0.5857
  313MOL0     H43158   7.335   5.045   4.192 -0.7779 -0.7547 -0.4588
  313MOL0     H43159   7.312   4.880   4.236 -3.6514  1.2884 -1.6969
  313MOL0     H43160   7.112   5.040   4.274  1.1967 -0.0533 -1.2036
  313MOL0     H43161   7.157   4.926   4.400 -0.6990 -0.0396 -1.5634
  313MOL0     H43162   7.235   5.100   4.540 -1.0497 -2.9916 -0.2584
  313MOL0     H43163   7.084   5.141   4.479 -0.4587  0.9834 -1.2375
  313MOL0     H43164   7.315   5.249   4.324 -0.6469 -3.4710 -1.3059
  313MOL0     H43165   7.247   5.329   4.463  2.4311 -0.7941 -0.7735
  313MOL0     H43166   7.104   5.253   4.217  0.6836  0.9113 -0.8836
  313MOL0     H43167   7.013   5.345   4.351 -1.1109 -5.7971  3.3013
  313MOL0     H43168   7.267   5.456   4.238  0.9449 -0.0084  1.3708
  313MOL0     H43169   7.128   5.534   4.313  2.1003  0.4470  0.1335
  313MOL0     H43170   6.985   5.507   4.117  0.0036  0.8669 -1.0737
  313MOL0     H43171   7.103   5.403   4.039  3.6468 -2.5445  1.6480
  313MOL0     H43172   7.177   5.690   4.103  2.5891 -0.9643  0.2014
  313MOL0     H43173   7.111   5.634   3.950  0.9617 -0.2094 -0.1164
  313MOL0     H43174   7.487   4.864   4.108 -0.0146  4.7856  1.0708
  313MOL0     H43175   7.713   4.790   4.022 -0.3151  0.2838 -0.3325
  313MOL0     H43176   8.171   4.772   4.119  0.3607 -1.9401  3.9336
  313MOL0     H43177   8.372   4.724   4.041 -0.0843  0.0620  1.0285
  313MOL0     H43178  10.395   4.457   3.782  2.6714  1.1010 -0.4646
  313MOL0     H43179  10.580   4.440   3.640  0.4762 -0.0068 -1.0215
  313MOL0     H43180  10.694   4.563   3.245  2.2017 -1.0766  2.4823
  313MOL0     H43181  10.887   4.631   3.087  2.2469 -0.4294  2.0193
  313MOL0     H43182  11.257   4.537   2.993 -0.1843  0.1128  0.1494
  313MOL0     H43183  11.125   4.647   2.987  0.7554 -0.1513 -0.3971
  313MOL0     H43184  11.218   4.468   3.213  0.2579 -0.1065 -3.6216
  313MOL0     H43185  11.100   4.598   3.240 -1.4147 -2.1773 -0.7468
  313MOL0     H43186  11.400   4.626   3.211  0.2113 -0.2872  0.0722
  313MOL0     H43187  11.286   4.757   3.150 -2.3197 -3.4211 -4.7853
  313MOL0     H43188  11.264   4.622   3.424 -0.8555 -1.4317 -1.8030
  313MOL0     H43189  11.189   4.770   3.378 -2.5429 -3.8287  1.4856
  313MOL0     H43190  11.584   4.923   3.474 -0.8029 -0.0323  3.4251
  313MOL0     H43191  10.977   4.208   3.061 -0.7413 -1.0286 -1.7224
  313MOL0     H43192  10.686   4.089   3.066  1.1085  3.1452 -2.1155
  313MOL0     H43193  10.848   4.054   3.140  2.2325  2.1526 -2.4354
  313MOL0     H43194  10.702   4.089   3.243 -0.8964 -3.8883 -0.7694
  314MOL0     O43195   5.689   6.022   7.660 -0.0121 -0.4632 -0.2398
  314MOL0     C43196   5.608   6.090   7.723 -0.3610  0.1551 -0.1481
  314MOL0     O43197   5.605   6.118   7.858 -0.1694  0.0174  0.1186
  314MOL0     C43198   5.702   6.077   7.943 -0.5117  0.2647  0.2074
  314MOL0     C43199   5.743   5.943   7.941 -0.8262 -1.3217  0.5557
  314MOL0     C43200   5.825   5.883   8.037 -0.6331 -0.2003 -0.2676
  314MOL0     C43201   5.871   5.959   8.144 -0.4215 -0.4004  0.1544
  314MOL0     O43202   5.935   5.903   8.251  0.3832 -0.0765  0.3715
  314MOL0     C43203   6.065   5.842   8.213 -0.5188  0.1897 -0.1254
  314MOL0     C43204   6.167   5.944   8.178  0.1740  0.2344  0.5770
  314MOL0     C43205   6.204   6.060   8.271  0.8990  0.0853  0.3231
  314MOL0     C43206   6.293   6.156   8.207  0.7640  0.2336 -0.0417
  314MOL0     C43207   6.303   6.279   8.297  0.7097  0.3764  1.3876
  314MOL0     C43208   6.406   6.378   8.241 -0.4252 -0.4634  0.4338
  314MOL0     C43209   6.421   6.498   8.328  0.6473 -0.5130  0.4255
  314MOL0     C43210   6.494   6.461   8.449 -0.2727 -0.3638 -0.4458
  314MOL0     N43211   6.634   6.448   8.418 -0.3466  0.0264 -0.3242
  314MOL0     C43212   6.702   6.333   8.394 -0.6686 -0.5712  0.0709
  314MOL0     C43213   6.832   6.358   8.362  1.1359 -0.9698  0.0891
  314MOL0     C43214   6.946   6.272   8.342  0.3047  0.0246  0.1582
  314MOL0     C43215   6.933   6.140   8.268 -0.8996  0.3333 -0.4253
  314MOL0     C43216   7.019   6.023   8.328  0.5404 -0.4731 -0.6243
  314MOL0     C43217   6.989   5.884   8.274  0.9418  0.4658 -0.0888
  314MOL0     O43218   6.859   5.843   8.331 -0.6237  0.8615 -0.1266
  314MOL0     C43219   6.768   5.799   8.242  0.8226 -0.4495 -0.6796
  314MOL0     C43220   6.802   5.695   8.158 -0.1794  0.9942  0.8916
  314MOL0     C43221   6.713   5.646   8.063 -0.1577  0.1788  0.1795
  314MOL0     C43222   6.771   5.542   7.967  0.2746  0.1876 -0.6362
  314MOL0     C43223   6.581   5.702   8.045  0.6310  0.0254 -0.2581
  314MOL0     C43224   6.479   5.652   7.950  1.1676 -0.0776 -0.2068
  314MOL0     O43225   6.344   5.673   7.992  0.2314 -0.1568 -0.2960
  314MOL0     C43226   6.244   5.635   7.897 -1.0730 -1.1141 -0.5125
  314MOL0     C43227   6.179   5.751   7.851 -1.0923  0.4963  0.3862
  314MOL0     C43228   6.089   5.747   7.744  0.6982  0.4297  0.5430
  314MOL0     C43229   6.080   5.621   7.674  0.3620 -0.7434  0.9314
  314MOL0     O43230   5.997   5.607   7.563  0.3863  0.3398  0.3178
  314MOL0     C43231   5.939   5.721   7.492 -0.0864  0.3038 -0.2571
  314MOL0     C43232   5.803   5.761   7.542  0.2800  0.0880  0.7329
  314MOL0     C43233   5.698   5.670   7.499  0.7371  0.9901  0.4047
  314MOL0     C43234   5.563   5.683   7.568  0.2351  0.4423  1.9139
  314MOL0     C43235   5.555   5.629   7.706 -0.4483 -0.4800 -0.6644
  314MOL0     C43236   5.413   5.606   7.760  0.2923  0.5449 -0.1914
  314MOL0     C43237   5.416   5.551   7.901 -0.4246 -0.3703  0.2186
  314MOL0     C43238   5.279   5.488   7.936  0.4419  0.3382 -0.8296
  314MOL0    Cl43239   5.232   5.350   7.827 -0.4603  0.1691 -0.4735
  314MOL0     C43240   6.138   5.508   7.718  0.2017 -0.1976  0.0098
  314MOL0     C43241   6.219   5.515   7.833 -0.6766  0.4525 -0.5199
  314MOL0     O43242   6.512   5.624   7.834 -0.4643  0.2447 -0.1651
  314MOL0     C43243   6.552   5.812   8.140  0.1443 -0.3428 -0.1701
  314MOL0     C43244   6.644   5.858   8.230 -0.0249  0.3269  0.5000
  314MOL0     N43245   6.841   6.500   8.350  0.7017 -0.5311 -0.7270
  314MOL0     N43246   6.728   6.550   8.392  0.9537  0.0242 -0.5920
  314MOL0     C43247   5.822   6.093   8.158  0.1217  0.1650 -0.1344
  314MOL0     C43248   5.741   6.147   8.058  0.0552  0.6867  0.1360
  314MOL0     C43249   5.502   6.149   7.651  0.6489  0.4521  0.3016
  314MOL0     C43250   5.404   6.224   7.725 -0.7807 -0.1310 -0.2916
  314MOL0     C43251   5.299   6.294   7.660 -0.1130 -0.1264 -0.5922
  314MOL0     C43252   5.285   6.296   7.524  0.5761 -0.3278 -1.0939
  314MOL0     O43253   5.168   6.362   7.483  0.2511 -0.1047 -0.4676
  314MOL0     C43254   5.113   6.338   7.357 -0.1162  0.4305  0.7407
  314MOL0     C43255   4.970   6.386   7.343  0.8154  0.0448  0.0566
  314MOL0     C43256   4.910   6.374   7.203  0.7382 -0.0784 -0.5828
  314MOL0     C43257   4.768   6.440   7.208 -0.3384 -0.1708 -0.4773
  314MOL0     C43258   4.767   6.586   7.229  0.0907  0.1154 -0.7368
  314MOL0     C43259   4.757   6.698   7.270 -0.7468  0.6301 -1.0435
  314MOL0     C43260   5.364   6.213   7.455  0.3351 -0.4342 -0.6838
  314MOL0     C43261   5.467   6.141   7.516 -0.1328  0.1916 -0.6644
  314MOL0     C43262   5.549   6.063   7.427 -0.6432  0.2953 -1.3754
  314MOL0     H43263   5.723   5.874   7.859  1.0469 -2.3194  0.8708
  314MOL0     H43264   5.856   5.780   8.022 -1.3921 -0.7153  1.4362
  314MOL0     H43265   6.065   5.767   8.133  1.7110  0.3112 -0.3035
  314MOL0     H43266   6.095   5.802   8.310 -4.3944  0.8507  1.5250
  314MOL0     H43267   6.258   5.886   8.163  1.4172  1.9290  1.2265
  314MOL0     H43268   6.138   5.988   8.082  4.6822  0.6658 -0.7998
  314MOL0     H43269   6.110   6.102   8.306  1.2979 -0.7343  2.4943
  314MOL0     H43270   6.254   6.001   8.349  1.5757  0.1201 -0.0712
  314MOL0     H43271   6.395   6.120   8.197  2.3138  4.3569 -0.9301
  314MOL0     H43272   6.254   6.181   8.108 -1.2905 -1.7904  0.1403
  314MOL0     H43273   6.341   6.250   8.396  3.8175 -0.9494 -0.0731
  314MOL0     H43274   6.205   6.327   8.307 -0.2921 -1.4565  0.7964
  314MOL0     H43275   6.495   6.316   8.227 -0.3242 -0.1337 -0.3970
  314MOL0     H43276   6.373   6.399   8.139  1.5740  0.0895 -0.1356
  314MOL0     H43277   6.320   6.536   8.344  0.9697 -0.4172  2.5283
  314MOL0     H43278   6.472   6.584   8.282  0.6951 -0.6984  0.1270
  314MOL0     H43279   6.472   6.534   8.528 -1.1405 -0.9467 -0.1396
  314MOL0     H43280   6.456   6.364   8.480  1.2764 -0.9817 -0.3987
  314MOL0     H43281   6.648   6.240   8.409 -1.4694 -0.4884 -2.0561
  314MOL0     H43282   6.988   6.245   8.440 -0.5191 -2.5279 -0.0952
  314MOL0     H43283   7.028   6.323   8.292  3.0991 -3.4368  0.7589
  314MOL0     H43284   6.830   6.110   8.291  0.0634 -0.9481  2.7365
  314MOL0     H43285   6.956   6.161   8.163 -0.6047  2.7587  0.0490
  314MOL0     H43286   7.124   6.052   8.320  0.7281 -1.2023 -0.8131
  314MOL0     H43287   7.001   6.020   8.436 -1.0433  0.7310 -0.8039
  314MOL0     H43288   6.993   5.872   8.165 -1.5653 -0.5442 -0.1507
  314MOL0     H43289   7.072   5.822   8.311 -0.6945 -2.5812 -1.1484
  314MOL0     H43290   6.904   5.657   8.160 -0.6424 -0.4607 -0.9697
  314MOL0     H43291   6.858   5.492   8.008  0.0245 -2.6292 -3.1484
  314MOL0     H43292   6.796   5.598   7.876  3.9656  2.4212  1.5385
  314MOL0     H43293   6.704   5.456   7.952  0.8201 -0.4368  0.4442
  314MOL0     H43294   6.218   5.850   7.877  0.6239  0.3390 -1.3438
  314MOL0     H43295   6.047   5.832   7.692  3.4403 -0.7200 -4.1462
  314MOL0     H43296   6.014   5.801   7.492  1.3766 -0.9498  1.9645
  314MOL0     H43297   5.920   5.697   7.388  1.1206  1.1080 -0.6958
  314MOL0     H43298   5.813   5.764   7.651 -3.6188 -0.8689  1.2436
  314MOL0     H43299   5.772   5.856   7.498 -0.2837 -0.7965 -0.8265
  314MOL0     H43300   5.728   5.569   7.528  0.8484  0.9505  0.1490
  314MOL0     H43301   5.685   5.673   7.390 -1.3148 -0.7836  0.5302
  314MOL0     H43302   5.498   5.624   7.503  0.8125 -0.5121  2.1839
  314MOL0     H43303   5.527   5.786   7.558 -1.0250 -0.1761 -1.1936
  314MOL0     H43304   5.604   5.531   7.713 -0.0550 -0.1642  2.2405
  314MOL0     H43305   5.601   5.703   7.771 -2.5632 -0.7016  1.1834
  314MOL0     H43306   5.371   5.526   7.697  1.3218  0.0965 -0.3425
  314MOL0     H43307   5.359   5.700   7.769  1.5306  1.2596 -0.0482
  314MOL0     H43308   5.435   5.636   7.967 -0.7932  0.9805 -1.3398
  314MOL0     H43309   5.494   5.476   7.917  0.5610  0.4152 -0.7642
  314MOL0     H43310   5.208   5.569   7.919 -0.0546  0.5512  1.8774
  314MOL0     H43311   5.261   5.453   8.038  0.6077 -2.4592 -1.6931
  314MOL0     H43312   6.118   5.414   7.669  0.4552 -1.3529  1.9997
  314MOL0     H43313   6.262   5.423   7.872 -1.2163  1.2318  2.1048
  314MOL0     H43314   6.460   5.869   8.147  1.1896  1.6274 -1.4130
  314MOL0     H43315   6.615   5.950   8.280 -1.5057 -0.0615  0.4000
  314MOL0     H43316   5.842   6.160   8.241  3.4677 -0.9936  0.1432
  314MOL0     H43317   5.714   6.251   8.072  1.1660  1.2810 -1.7792
  314MOL0     H43318   5.413   6.239   7.833 -0.2423  0.7043 -0.4425
  314MOL0     H43319   5.233   6.368   7.703 -1.2902  0.0232 -2.5620
  314MOL0     H43320   5.171   6.403   7.292 -1.7277  1.5570  0.3528
  314MOL0     H43321   5.117   6.236   7.319 -1.5616  0.1039  1.3861
  314MOL0     H43322   4.971   6.491   7.371 -0.0581  0.3530 -0.9795
  314MOL0     H43323   4.911   6.324   7.411 -1.0788 -0.1085 -1.6241
  314MOL0     H43324   4.972   6.418   7.125 -0.3875  0.2552 -1.3125
  314MOL0     H43325   4.897   6.267   7.182  2.1883 -1.0501  2.7813
  314MOL0     H43326   4.710   6.398   7.291 -3.8034  0.4718 -2.3966
  314MOL0     H43327   4.725   6.408   7.113  0.1230 -2.6632  0.0966
  314MOL0     H43328   4.737   6.781   7.334 -1.1675 -0.9463  0.9706
  314MOL0     H43329   5.337   6.197   7.351 -0.6912 -0.9274 -0.3489
  314MOL0     H43330   5.644   6.114   7.415 -1.2372  1.3802 -1.5846
  314MOL0     H43331   5.574   5.959   7.452 -1.6771  0.4065  0.3181
  314MOL0     H43332   5.504   6.057   7.327 -2.6098  1.0434 -0.6024
  315MOL0     O43333   4.787   4.594   5.632  0.2070 -1.0288 -0.5189
  315MOL0     C43334   4.667   4.609   5.613 -0.1364 -0.3645  0.5217
  315MOL0     O43335   4.587   4.701   5.679  0.2062 -0.3131 -0.3218
  315MOL0     C43336   4.645   4.816   5.738  0.3544 -0.2194  0.2672
  315MOL0     C43337   4.722   4.818   5.853 -0.4996  0.3620 -0.0918
  315MOL0     C43338   4.781   4.945   5.891 -0.6735  0.2939 -0.0580
  315MOL0     C43339   4.755   5.066   5.823 -0.4436  0.3105  0.2807
  315MOL0     O43340   4.821   5.188   5.850  0.1979 -0.0609 -1.0808
  315MOL0     C43341   4.871   5.208   5.985 -1.0914 -0.6788 -1.1183
  315MOL0     C43342   4.941   5.345   5.996 -0.5305  0.6469  0.2406
  315MOL0     C43343   5.016   5.356   6.134  0.1033  0.1226  0.3572
  315MOL0     C43344   5.113   5.479   6.129 -0.0045  0.1858 -0.9981
  315MOL0     C43345   5.152   5.526   6.271  0.1686  0.4606 -0.1098
  315MOL0     C43346   5.252   5.644   6.268 -0.8877  0.0216  0.6161
  315MOL0     C43347   5.313   5.674   6.409  0.5942 -0.0645  0.2374
  315MOL0     C43348   5.425   5.578   6.449  0.5839  0.1677  0.0755
  315MOL0     N43349   5.504   5.638   6.553  0.0144  0.0683 -0.9609
  315MOL0     C43350   5.598   5.729   6.522  0.3493  0.8486  0.6208
  315MOL0     C43351   5.645   5.774   6.637 -0.6271  0.6556 -0.4606
  315MOL0     C43352   5.760   5.871   6.640  0.4836  0.2105  0.4368
  315MOL0     C43353   5.898   5.812   6.598  0.0971  0.7406 -0.2437
  315MOL0     C43354   6.000   5.929   6.593  0.2822 -0.1797  1.1966
  315MOL0     C43355   6.135   5.868   6.563 -0.2191 -0.0967 -0.9808
  315MOL0     O43356   6.224   5.986   6.556 -0.1759  0.4448  0.3169
  315MOL0     C43357   6.253   6.018   6.430 -0.4218 -1.0356  0.4253
  315MOL0     C43358   6.204   6.134   6.368  0.6892 -0.5043 -1.1325
  315MOL0     C43359   6.239   6.171   6.239  0.4290  0.5213 -0.7856
  315MOL0     C43360   6.158   6.278   6.183  0.7063 -0.0567 -1.0734
  315MOL0     C43361   6.312   6.079   6.166  0.0449  0.2767  0.9107
  315MOL0     C43362   6.338   6.095   6.015  0.0252 -0.5122 -0.9051
  315MOL0     O43363   6.342   5.978   5.955 -0.7313 -0.1221  0.8341
  315MOL0     C43364   6.320   5.965   5.821 -0.1671  0.1659  0.1018
  315MOL0     C43365   6.266   6.062   5.736 -0.2131 -0.0767  0.2255
  315MOL0     C43366   6.255   6.038   5.599 -0.1631 -0.2582  0.3342
  315MOL0     C43367   6.276   5.907   5.552 -0.8199  0.1553  0.7937
  315MOL0     O43368   6.272   5.883   5.416 -0.1155  0.0793  0.4117
  315MOL0     C43369   6.206   5.968   5.322 -0.3592 -1.1304  0.9412
  315MOL0     C43370   6.307   6.069   5.252 -0.8299 -0.0213  0.0193
  315MOL0     C43371   6.378   5.996   5.131  0.5999 -0.3075  0.2561
  315MOL0     C43372   6.474   6.093   5.062 -0.2112  0.9672 -0.0966
  315MOL0     C43373   6.523   6.034   4.926  0.2577 -0.3648  0.4016
  315MOL0     C43374   6.648   6.110   4.871 -0.9417 -0.0388  0.1543
  315MOL0     C43375   6.740   6.026   4.783  0.1687  0.4722 -0.3137
  315MOL0     C43376   6.871   6.102   4.758  0.1913  0.0355 -0.1076
  315MOL0    Cl43377   6.877   6.205   4.600 -0.4151 -0.1202  0.3915
  315MOL0     C43378   6.321   5.805   5.638  0.5929 -0.1886  0.0735
  315MOL0     C43379   6.356   5.840   5.771  0.7938 -0.3665  1.0809
  315MOL0     O43380   6.349   6.212   5.972 -0.0759 -0.1239  0.2249
  315MOL0     C43381   6.362   5.963   6.221 -0.0497 -0.6057 -0.3148
  315MOL0     C43382   6.344   5.936   6.359  0.5877  0.3475  0.2800
  315MOL0     N43383   5.585   5.714   6.746 -0.6713 -0.6460  1.0975
  315MOL0     N43384   5.501   5.636   6.696  0.7139  0.4157  0.3422
  315MOL0     C43385   4.665   5.064   5.721 -0.3250  0.0006  0.6948
  315MOL0     C43386   4.624   4.936   5.669  0.0946  0.2068 -0.2334
  315MOL0     C43387   4.586   4.504   5.538 -0.2796 -0.0108 -0.5200
  315MOL0     C43388   4.447   4.498   5.559  0.4927  0.6867  1.2604
  315MOL0     C43389   4.362   4.432   5.472  0.3374  0.2162 -0.2260
  315MOL0     C43390   4.418   4.375   5.352 -0.2716  0.3277  0.2951
  315MOL0     O43391   4.341   4.307   5.256  0.2563  0.5000  0.1843
  315MOL0     C43392   4.204   4.350   5.230 -1.2167 -1.2832 -0.2321
  315MOL0     C43393   4.137   4.255   5.131  0.1922 -0.0091  0.4113
  315MOL0     C43394   4.146   4.116   5.196  0.4396  0.1348  1.2015
  315MOL0     C43395   4.075   4.010   5.106  0.3431  0.3576  0.6805
  315MOL0     C43396   4.135   4.020   4.967 -0.0481 -0.6195 -0.5835
  315MOL0     C43397   4.177   4.031   4.849 -0.1992 -0.1497  0.3812
  315MOL0     C43398   4.557   4.372   5.338  0.0481  0.1426  0.2322
  315MOL0     C43399   4.643   4.431   5.428  0.4646 -0.5208 -0.0749
  315MOL0     C43400   4.783   4.436   5.388 -1.0087  0.4249 -0.0156
  315MOL0     H43401   4.756   4.726   5.898 -0.8731  0.2087 -0.1293
  315MOL0     H43402   4.862   4.942   5.963 -0.2255 -4.0027 -0.4701
  315MOL0     H43403   4.956   5.139   5.994  0.6236  1.5793  2.0397
  315MOL0     H43404   4.797   5.183   6.061 -1.6405  0.9999 -1.0781
  315MOL0     H43405   5.017   5.354   5.918  0.0530 -1.8185  0.4545
  315MOL0     H43406   4.864   5.423   5.984 -0.0596  0.7359 -2.9616
  315MOL0     H43407   4.954   5.358   6.224 -0.0848  1.9754  0.2106
  315MOL0     H43408   5.082   5.268   6.138 -1.0102 -0.7196  0.5346
  315MOL0     H43409   5.191   5.431   6.070 -0.2600 -0.1444 -1.0731
  315MOL0     H43410   5.061   5.558   6.074 -2.2413  0.5069  1.3984
  315MOL0     H43411   5.188   5.438   6.326 -1.4966 -0.5060 -0.4982
  315MOL0     H43412   5.062   5.561   6.322 -0.3334 -0.5834 -0.2541
  315MOL0     H43413   5.340   5.623   6.205 -0.4850  2.2649  0.3673
  315MOL0     H43414   5.203   5.729   6.220  0.2020 -0.5718 -1.6690
  315MOL0     H43415   5.235   5.669   6.486  2.3233  3.2745  2.4808
  315MOL0     H43416   5.355   5.775   6.406  0.8290 -0.1552 -3.1035
  315MOL0     H43417   5.381   5.481   6.476  1.2294 -0.2672 -0.3772
  315MOL0     H43418   5.496   5.560   6.368  0.2451 -3.5196  0.4072
  315MOL0     H43419   5.635   5.759   6.424  0.5735 -1.4726 -0.0613
  315MOL0     H43420   5.790   5.905   6.739  1.6545  3.0837 -0.8162
  315MOL0     H43421   5.736   5.964   6.588  4.2887 -0.0646 -2.1939
  315MOL0     H43422   5.923   5.739   6.675  0.1342  0.0567 -0.9024
  315MOL0     H43423   5.904   5.757   6.504  0.1621  1.5836 -0.7458
  315MOL0     H43424   5.973   5.993   6.508 -0.3421 -2.4153 -0.3806
  315MOL0     H43425   6.005   5.981   6.689  1.9541  0.3762  0.8474
  315MOL0     H43426   6.171   5.806   6.646 -1.4636  0.5078  0.0528
  315MOL0     H43427   6.138   5.796   6.480  0.5377 -0.7252 -0.4201
  315MOL0     H43428   6.130   6.191   6.422  1.1564 -0.8039 -0.1326
  315MOL0     H43429   6.220   6.355   6.136  0.5010  0.9621  0.2549
  315MOL0     H43430   6.097   6.323   6.262 -1.4126 -2.8093 -0.9770
  315MOL0     H43431   6.093   6.236   6.105 -2.4530  2.4985 -0.0716
  315MOL0     H43432   6.242   6.160   5.775  0.0266  0.4121 -0.8142
  315MOL0     H43433   6.208   6.119   5.544 -1.0804  0.2055  1.7607
  315MOL0     H43434   6.158   5.905   5.247 -3.4270  0.6994  1.1989
  315MOL0     H43435   6.119   6.016   5.367 -1.5232 -0.6928 -1.6070
  315MOL0     H43436   6.261   6.165   5.227  0.5373  1.2286  1.9330
  315MOL0     H43437   6.375   6.108   5.329 -2.0529  1.2995  0.4688
  315MOL0     H43438   6.298   5.965   5.063  2.7051  0.0405 -2.5870
  315MOL0     H43439   6.434   5.908   5.162  0.0046 -1.9023 -2.7914
  315MOL0     H43440   6.554   6.088   5.137  1.9393 -0.3605 -2.3263
  315MOL0     H43441   6.426   6.190   5.052  0.1648  1.7115  3.6710
  315MOL0     H43442   6.556   5.933   4.950  0.9492 -0.3041 -0.2636
  315MOL0     H43443   6.437   6.043   4.859 -1.8246  2.9993  3.1651
  315MOL0     H43444   6.708   6.144   4.956 -1.3049  1.0984 -0.0183
  315MOL0     H43445   6.614   6.204   4.826 -0.2221  1.3317  2.3261
  315MOL0     H43446   6.697   5.989   4.690 -0.1409 -0.3424  0.1400
  315MOL0     H43447   6.755   5.935   4.842 -0.6373  1.0761  0.8693
  315MOL0     H43448   6.956   6.034   4.747  2.2981  2.0459  2.4046
  315MOL0     H43449   6.885   6.160   4.850  2.4590  0.4487 -0.6424
  315MOL0     H43450   6.331   5.705   5.597 -4.6186 -0.1073 -2.2453
  315MOL0     H43451   6.405   5.762   5.829  0.3869 -2.5191 -1.3098
  315MOL0     H43452   6.423   5.893   6.164  1.0888 -0.1365  0.2926
  315MOL0     H43453   6.388   5.849   6.407  0.1176 -0.9562 -1.5138
  315MOL0     H43454   4.649   5.160   5.674  2.2526  0.9163  1.5128
  315MOL0     H43455   4.565   4.944   5.579 -1.0203  0.9560  0.5411
  315MOL0     H43456   4.400   4.550   5.641  1.6462 -0.9250  3.0253
  315MOL0     H43457   4.256   4.438   5.492  0.2458  0.3242 -0.7319
  315MOL0     H43458   4.155   4.356   5.328  2.8478  1.6647  1.9103
  315MOL0     H43459   4.218   4.449   5.185  0.0933 -0.5245  1.7160
  315MOL0     H43460   4.181   4.252   5.031  0.0372 -6.3005  0.1063
  315MOL0     H43461   4.033   4.276   5.106  0.1772 -2.1334 -1.6357
  315MOL0     H43462   4.246   4.079   5.222 -0.1704 -2.9642 -0.3069
  315MOL0     H43463   4.098   4.117   5.294 -2.2308 -1.1324  0.0201
  315MOL0     H43464   3.969   4.040   5.106  0.4183  0.9153  3.5899
  315MOL0     H43465   4.076   3.909   5.150 -0.3995 -0.6030 -1.3448
  315MOL0     H43466   4.231   4.046   4.758  2.2875  3.0219  2.1505
  315MOL0     H43467   4.593   4.317   5.251  0.8188  1.4433 -0.2952
  315MOL0     H43468   4.801   4.381   5.296 -5.2589  0.7645 -1.2756
  315MOL0     H43469   4.817   4.539   5.372  1.2058  0.0936  1.9909
  315MOL0     H43470   4.846   4.414   5.475 -2.8017  0.3548  1.3419
  316MOL0     O43471  10.159   7.904   3.334 -0.2375 -0.1555 -0.0364
  316MOL0     C43472  10.251   7.825   3.356 -0.1947 -0.0652 -0.1179
  316MOL0     O43473  10.361   7.861   3.431  0.1441 -0.2330  0.5812
  316MOL0     C43474  10.368   7.968   3.512 -0.4101 -0.3820 -0.2294
  316MOL0     C43475  10.268   8.051   3.578  0.1590  0.0047  0.5264
  316MOL0     C43476  10.296   8.168   3.655  0.1911 -0.1623  0.0626
  316MOL0     C43477  10.428   8.205   3.658 -0.4285  0.6529 -0.9190
  316MOL0     O43478  10.445   8.317   3.740 -0.7588 -0.2969  0.6292
  316MOL0     C43479  10.574   8.388   3.734  0.0950 -0.7057  0.0363
  316MOL0     C43480  10.561   8.530   3.789 -0.2967 -0.1423 -0.2954
  316MOL0     C43481  10.682   8.618   3.750 -0.3654  0.0845 -0.6254
  316MOL0     C43482  10.651   8.764   3.780  0.1831  0.6003  0.3436
  316MOL0     C43483  10.778   8.857   3.776 -0.0196  0.2315  0.2798
  316MOL0     C43484  10.747   9.011   3.792 -0.1342 -0.1080  0.1770
  316MOL0     C43485  10.725   9.037   3.942  0.4281 -0.2765  1.2835
  316MOL0     C43486  10.618   9.148   3.971 -0.8480 -0.3117  0.2543
  316MOL0     N43487  10.603   9.200   4.106  1.0015 -0.2365 -0.5332
  316MOL0     C43488  10.497   9.274   4.149  0.2187  0.7282  0.8899
  316MOL0     C43489  10.532   9.315   4.274  0.0157 -0.3080 -0.3537
  316MOL0     C43490  10.456   9.389   4.365  0.3136 -0.3673  1.4583
  316MOL0     C43491  10.361   9.490   4.292  0.0918 -0.0412  0.5288
  316MOL0     C43492  10.437   9.611   4.224 -0.1249  0.6460 -0.1343
  316MOL0     C43493  10.341   9.703   4.143  0.2976 -0.2757  0.0382
  316MOL0     O43494  10.255   9.631   4.044  0.6805  0.2739  0.1664
  316MOL0     C43495  10.321   9.567   3.943 -0.1147  0.3446  1.3232
  316MOL0     C43496  10.294   9.434   3.905 -0.4716  0.1211  0.2338
  316MOL0     C43497  10.359   9.371   3.794  1.0422 -0.2898 -0.1914
  316MOL0     C43498  10.289   9.240   3.744 -0.5190 -0.8670 -1.0132
  316MOL0     C43499  10.468   9.434   3.728  0.5128  0.2141 -0.2715
  316MOL0     C43500  10.554   9.378   3.616 -0.0150 -0.5178  0.0900
  316MOL0     O43501  10.625   9.462   3.544 -0.5218  0.2933  0.6431
  316MOL0     C43502  10.684   9.418   3.425 -0.0659  0.0355 -0.7795
  316MOL0     C43503  10.628   9.331   3.329 -0.6497  0.3548 -0.9577
  316MOL0     C43504  10.706   9.267   3.220  0.9388  0.4593  0.4609
  316MOL0     C43505  10.843   9.301   3.214 -0.9029  0.6321 -0.5216
  316MOL0     O43506  10.918   9.257   3.108 -0.2950  0.7650 -0.9629
  316MOL0     C43507  10.916   9.120   3.096  0.7016 -0.9172 -0.1499
  316MOL0     C43508  11.047   9.072   3.020  0.1889  0.1989  0.5534
  316MOL0     C43509  11.148   9.045   3.132 -0.8217  0.9746  0.1073
  316MOL0     C43510  11.227   9.167   3.156 -0.2563  0.4541 -0.2876
  316MOL0     C43511  11.359   9.134   3.230  0.2968  0.1913 -0.5137
  316MOL0     C43512  11.460   9.256   3.222  0.1369 -0.1092 -0.8719
  316MOL0     C43513  11.405   9.393   3.262 -0.6290 -0.4373 -0.0552
  316MOL0     C43514  11.330   9.380   3.402  0.2192 -0.3852 -0.1104
  316MOL0    Cl43515  11.214   9.518   3.463  0.2528  0.0827  0.0647
  316MOL0     C43516  10.894   9.389   3.306  0.1997 -0.1470 -0.9544
  316MOL0     C43517  10.819   9.444   3.413  0.2882 -0.7309 -0.4788
  316MOL0     O43518  10.562   9.255   3.610 -0.1638 -0.3670 -0.1452
  316MOL0     C43519  10.496   9.556   3.774  0.6311 -0.3915 -0.8815
  316MOL0     C43520  10.423   9.630   3.871 -0.1462  0.2218 -0.5575
  316MOL0     N43521  10.652   9.267   4.304 -0.3263  0.1730  0.3568
  316MOL0     N43522  10.694   9.197   4.202  0.4394  0.3345  0.4850
  316MOL0     C43523  10.531   8.127   3.605  0.2051  0.1556  0.0425
  316MOL0     C43524  10.503   8.008   3.536  0.0618  0.2659  0.1674
  316MOL0     C43525  10.283   7.708   3.265 -0.3421  1.6025  0.3437
  316MOL0     C43526  10.406   7.640   3.286  0.1744 -0.3605  0.0818
  316MOL0     C43527  10.449   7.538   3.202 -0.4983  0.5090  0.1745
  316MOL0     C43528  10.377   7.497   3.093  0.1639 -0.4548  0.0030
  316MOL0     O43529  10.429   7.392   3.022  0.1441  0.9372 -0.0949
  316MOL0     C43530  10.368   7.359   2.890  0.9699  0.8374  0.2106
  316MOL0     C43531  10.266   7.248   2.915  0.1989  0.0621 -0.5816
  316MOL0     C43532  10.204   7.181   2.791  0.1475  0.3564 -0.3388
  316MOL0     C43533  10.069   7.110   2.826  0.3875  0.1080  1.0545
  316MOL0     C43534  10.003   7.050   2.707 -0.5321 -0.2794  0.2156
  316MOL0     C43535   9.945   6.992   2.623 -0.5141  1.1785  0.0022
  316MOL0     C43536  10.257   7.562   3.076  0.3335 -0.9520  0.2243
  316MOL0     C43537  10.203   7.666   3.154 -0.5006  0.5473  0.0568
  316MOL0     C43538  10.067   7.731   3.124  0.1966  0.0918 -0.0013
  316MOL0     H43539  10.167   8.015   3.564  0.8756 -1.7403 -0.5990
  316MOL0     H43540  10.220   8.217   3.713  0.5896  1.7701 -0.9723
  316MOL0     H43541  10.606   8.400   3.630 -0.5637  2.1650  0.0925
  316MOL0     H43542  10.654   8.335   3.787  1.4145  0.6397 -0.5565
  316MOL0     H43543  10.472   8.577   3.745 -0.5250  0.4065  0.7247
  316MOL0     H43544  10.539   8.522   3.896 -3.0607  0.5621 -0.7156
  316MOL0     H43545  10.765   8.585   3.814  0.9124  0.5888 -1.9642
  316MOL0     H43546  10.699   8.604   3.643 -2.6186  0.6069 -1.0895
  316MOL0     H43547  10.569   8.806   3.721  0.2931  0.7512  0.2984
  316MOL0     H43548  10.612   8.760   3.883  1.2659 -0.0542  0.7464
  316MOL0     H43549  10.844   8.842   3.689  1.5943  0.8594  1.3491
  316MOL0     H43550  10.833   8.825   3.864  0.4150 -0.4953 -0.2455
  316MOL0     H43551  10.832   9.066   3.751 -1.1318  0.4207 -1.2842
  316MOL0     H43552  10.660   9.048   3.737 -1.3503 -0.6910  1.6584
  316MOL0     H43553  10.821   9.066   3.987  1.9159 -3.1379  0.2240
  316MOL0     H43554  10.689   8.941   3.982 -2.8159 -0.6374 -1.9755
  316MOL0     H43555  10.654   9.233   3.913  0.6157 -2.5023 -2.3388
  316MOL0     H43556  10.518   9.134   3.929 -0.5817 -0.3298 -0.3887
  316MOL0     H43557  10.405   9.293   4.094  1.1583 -0.1511 -1.0734
  316MOL0     H43558  10.521   9.448   4.429 -0.9973 -0.3061  2.7914
  316MOL0     H43559  10.407   9.318   4.433 -1.6172 -0.2457  0.3006
  316MOL0     H43560  10.290   9.437   4.228 -0.7988 -2.6213  3.4188
  316MOL0     H43561  10.298   9.532   4.371  0.1066  0.9917  0.0055
  316MOL0     H43562  10.489   9.673   4.297 -0.1772  1.3961 -0.7149
  316MOL0     H43563  10.513   9.569   4.157  1.4363  2.2634  0.5676
  316MOL0     H43564  10.277   9.763   4.208  0.9951  2.5674 -1.7370
  316MOL0     H43565  10.407   9.775   4.096 -0.7137  0.5933 -0.0900
  316MOL0     H43566  10.205   9.402   3.959  0.5664  0.1957  2.1003
  316MOL0     H43567  10.181   9.259   3.741 -0.5050 -0.8722 -1.7609
  316MOL0     H43568  10.308   9.152   3.805 -1.6627 -0.7927 -0.5377
  316MOL0     H43569  10.323   9.222   3.641  2.0056  1.1799 -0.6545
  316MOL0     H43570  10.532   9.288   3.353  0.4277 -1.1179  0.9626
  316MOL0     H43571  10.667   9.198   3.146  0.7667  1.0049  0.0281
  316MOL0     H43572  10.901   9.080   3.197  3.5230 -0.8607  0.3735
  316MOL0     H43573  10.833   9.098   3.028  3.2359  1.4698 -4.4420
  316MOL0     H43574  11.036   8.975   2.970  0.3276 -0.6427  2.0984
  316MOL0     H43575  11.074   9.147   2.946  0.6481  1.3917  1.8905
  316MOL0     H43576  11.206   8.958   3.101 -1.4549  0.4609  0.3351
  316MOL0     H43577  11.106   9.027   3.232  4.6357  0.1725  2.5871
  316MOL0     H43578  11.168   9.248   3.200 -0.0634  1.3600 -1.6381
  316MOL0     H43579  11.264   9.200   3.058  1.1833 -2.1855 -0.7234
  316MOL0     H43580  11.335   9.111   3.334 -0.4498  0.5327 -0.6079
  316MOL0     H43581  11.409   9.043   3.194 -4.2382 -2.3770 -1.1222
  316MOL0     H43582  11.512   9.254   3.126  2.8823 -0.2145  0.4957
  316MOL0     H43583  11.541   9.227   3.289 -2.0720  1.2570  2.6763
  316MOL0     H43584  11.328   9.426   3.192 -0.7579  0.2259  0.3936
  316MOL0     H43585  11.488   9.464   3.260  0.7998 -1.9654  1.5430
  316MOL0     H43586  11.404   9.361   3.480  1.0262 -1.0075 -0.9962
  316MOL0     H43587  11.257   9.300   3.386 -0.2855 -0.1976  1.1520
  316MOL0     H43588  10.998   9.417   3.293  1.2656 -3.8364 -1.3654
  316MOL0     H43589  10.860   9.513   3.486  0.1719 -0.0008 -1.0902
  316MOL0     H43590  10.565   9.616   3.715  2.1329 -0.7933  0.3930
  316MOL0     H43591  10.464   9.730   3.887  4.5081 -1.9004  3.1661
  316MOL0     H43592  10.630   8.170   3.602  0.6422 -0.8650 -2.9021
  316MOL0     H43593  10.579   7.945   3.492  1.2321  0.5060  1.7423
  316MOL0     H43594  10.462   7.663   3.377 -0.7297 -1.3674  0.9279
  316MOL0     H43595  10.543   7.484   3.213 -0.8557 -0.2149 -0.2273
  316MOL0     H43596  10.314   7.440   2.840 -0.9151 -1.5190 -1.8845
  316MOL0     H43597  10.452   7.331   2.825  0.1050 -0.1437 -0.5266
  316MOL0     H43598  10.182   7.303   2.959 -2.1065 -2.2844 -1.7351
  316MOL0     H43599  10.309   7.174   2.983 -2.2422  0.6300  1.7510
  316MOL0     H43600  10.182   7.267   2.727  0.4278 -0.8964 -2.1882
  316MOL0     H43601  10.281   7.115   2.749 -0.0251 -0.4172  0.5184
  316MOL0     H43602  10.001   7.176   2.880  4.6311  3.0094  3.5304
  316MOL0     H43603  10.083   7.026   2.894 -1.2601 -0.6595  0.4752
  316MOL0     H43604   9.878   6.961   2.545  1.2697 -1.4175 -0.5919
  316MOL0     H43605  10.191   7.525   2.998 -2.5333 -2.6143  3.1681
  316MOL0     H43606   9.994   7.718   3.204 -1.0611 -4.6159 -1.5561
  316MOL0     H43607  10.075   7.837   3.099  1.5145  0.4180  1.5663
  316MOL0     H43608  10.029   7.685   3.033  0.6706  0.4023 -0.3616
  317MOL0     O43609   5.324   3.793   6.865  0.0888  0.1412 -0.8818
  317MOL0     C43610   5.270   3.682   6.887 -0.3481 -0.0539 -0.2417
  317MOL0     O43611   5.320   3.562   6.854  0.0083  0.3966 -0.1529
  317MOL0     C43612   5.455   3.545   6.835 -0.2784  0.1618  1.0843
  317MOL0     C43613   5.561   3.638   6.817 -0.5696  0.4997  0.3900
  317MOL0     C43614   5.695   3.589   6.809  0.7208 -0.8913  0.3189
  317MOL0     C43615   5.726   3.454   6.823  0.1297 -0.1438 -0.6193
  317MOL0     O43616   5.854   3.429   6.791  0.0099  0.2091  0.4887
  317MOL0     C43617   5.891   3.285   6.781  0.3238 -0.6723  0.0445
  317MOL0     C43618   6.008   3.253   6.687  0.1755 -1.0663 -0.1878
  317MOL0     C43619   5.980   3.308   6.545  0.5708 -0.7849  0.3519
  317MOL0     C43620   6.109   3.319   6.459  0.6770 -0.5068  0.9139
  317MOL0     C43621   6.048   3.361   6.322 -0.2438  0.0186  0.2476
  317MOL0     C43622   6.161   3.415   6.222  1.4761  0.3860  0.0143
  317MOL0     C43623   6.091   3.511   6.133 -0.1237  0.6650 -0.6516
  317MOL0     C43624   5.982   3.453   6.040 -0.9815  0.4390  0.4015
  317MOL0     N43625   5.880   3.547   6.012 -0.3120  0.1108  0.8323
  317MOL0     C43626   5.884   3.636   5.907 -0.3632  0.3767 -0.1466
  317MOL0     C43627   5.768   3.704   5.914 -0.0392 -0.5860  0.4348
  317MOL0     C43628   5.721   3.824   5.838 -0.0836 -0.0092  1.0341
  317MOL0     C43629   5.594   3.884   5.889 -0.2163  1.3414  0.0300
  317MOL0     C43630   5.572   4.028   5.837  0.0165 -0.6653  0.7935
  317MOL0     C43631   5.422   4.080   5.822  0.8081  0.1002 -1.1652
  317MOL0     O43632   5.370   4.113   5.947  0.5015  0.5388 -0.1065
  317MOL0     C43633   5.420   4.233   6.001  0.3055  0.0733  0.0545
  317MOL0     C43634   5.483   4.335   5.928  0.6576 -0.6844 -0.1525
  317MOL0     C43635   5.525   4.452   5.994  0.3796  0.6979  0.9203
  317MOL0     C43636   5.581   4.548   5.893 -0.3862 -0.2119 -0.1231
  317MOL0     C43637   5.492   4.468   6.128 -0.2219  0.5758 -0.3213
  317MOL0     C43638   5.544   4.580   6.207  0.3828 -0.1611  0.5243
  317MOL0     O43639   5.667   4.616   6.172 -0.5727 -0.3074  0.6315
  317MOL0     C43640   5.749   4.610   6.280 -0.6654 -0.1635 -0.4984
  317MOL0     C43641   5.795   4.732   6.331 -0.1383 -0.9726 -0.1953
  317MOL0     C43642   5.859   4.730   6.460  0.0174  0.7731  0.0750
  317MOL0     C43643   5.885   4.608   6.520  0.2519 -0.2023  0.3847
  317MOL0     O43644   5.976   4.610   6.625 -0.0711  0.4072 -0.0593
  317MOL0     C43645   5.977   4.513   6.732 -0.0746  0.3473  1.4219
  317MOL0     C43646   6.102   4.520   6.816 -0.6526 -0.6844 -0.2892
  317MOL0     C43647   6.100   4.625   6.922  0.2056  0.5754 -0.1046
  317MOL0     C43648   6.225   4.609   7.005 -0.2664  0.0987  0.9427
  317MOL0     C43649   6.244   4.712   7.119 -0.5479  0.3590 -0.2150
  317MOL0     C43650   6.264   4.857   7.079  0.2385  0.4981 -0.4118
  317MOL0     C43651   6.320   4.941   7.193  0.0505 -0.2926 -0.1705
  317MOL0     C43652   6.334   5.095   7.153  1.0583  0.7214  0.1358
  317MOL0    Cl43653   6.436   5.122   7.006  0.4136  0.0978  0.0624
  317MOL0     C43654   5.833   4.493   6.471  0.8710  0.6192  0.2494
  317MOL0     C43655   5.764   4.492   6.345  0.3584 -0.3634 -0.9938
  317MOL0     O43656   5.484   4.621   6.304 -0.1909  0.8512 -0.7023
  317MOL0     C43657   5.416   4.370   6.192 -0.4294 -0.0525 -0.4519
  317MOL0     C43658   5.386   4.250   6.129  0.5400  0.7023 -0.1008
  317MOL0     N43659   5.696   3.644   6.015 -0.2546  0.6286 -0.0940
  317MOL0     N43660   5.768   3.555   6.073 -0.9634  0.0972  0.2276
  317MOL0     C43661   5.619   3.369   6.847 -0.2086  0.9706  0.7681
  317MOL0     C43662   5.491   3.407   6.851  0.0884  0.0317 -0.3098
  317MOL0     C43663   5.126   3.690   6.923 -0.6980 -0.3083 -0.6755
  317MOL0     C43664   5.082   3.805   7.004 -0.9808  0.2227  0.5364
  317MOL0     C43665   4.959   3.824   7.056 -0.4076  0.7649 -0.0515
  317MOL0     C43666   4.867   3.731   7.028 -0.1438 -0.0851  0.6753
  317MOL0     O43667   4.735   3.758   7.057  0.1554 -0.1852  0.7786
  317MOL0     C43668   4.668   3.876   7.013  0.6453  0.0241  0.1344
  317MOL0     C43669   4.551   3.819   6.924 -0.6663 -0.1553 -0.5128
  317MOL0     C43670   4.579   3.762   6.784  0.5599 -0.4555  0.0958
  317MOL0     C43671   4.448   3.680   6.748  0.2384  0.6865 -0.3588
  317MOL0     C43672   4.336   3.776   6.737 -1.1427 -0.0138 -0.7511
  317MOL0     C43673   4.255   3.863   6.734 -0.0097 -0.0176  0.1579
  317MOL0     C43674   4.900   3.617   6.955 -0.8366  0.0584 -0.1634
  317MOL0     C43675   5.027   3.593   6.897 -0.7450 -0.0425  0.1326
  317MOL0     C43676   5.043   3.486   6.787  0.5484 -0.1446 -0.5758
  317MOL0     H43677   5.538   3.742   6.800 -1.3719  0.2458 -0.1767
  317MOL0     H43678   5.778   3.658   6.800  1.8597 -2.4352 -2.1705
  317MOL0     H43679   5.810   3.226   6.740  0.0248 -0.2912  0.0818
  317MOL0     H43680   5.913   3.244   6.880  2.4442 -0.4782 -0.2836
  317MOL0     H43681   6.098   3.301   6.725 -0.3374  0.8129 -1.1691
  317MOL0     H43682   6.006   3.145   6.675  0.1799 -0.9428 -1.5792
  317MOL0     H43683   5.908   3.240   6.498 -1.7734  2.5887 -1.3902
  317MOL0     H43684   5.917   3.397   6.547 -1.6622 -2.0304 -3.7323
  317MOL0     H43685   6.183   3.392   6.491 -0.3305  1.1416 -0.3457
  317MOL0     H43686   6.158   3.222   6.468  2.0135  0.2125  1.6906
  317MOL0     H43687   5.972   3.439   6.329 -0.4261 -0.1990  0.7484
  317MOL0     H43688   6.000   3.271   6.283 -1.3738  0.4592  0.5792
  317MOL0     H43689   6.251   3.456   6.269  1.0601  2.6371 -1.0118
  317MOL0     H43690   6.192   3.333   6.157 -1.3622  0.4895 -1.6514
  317MOL0     H43691   6.160   3.567   6.069 -1.3176  2.2635 -0.6022
  317MOL0     H43692   6.047   3.591   6.193 -0.0110 -0.1131  0.4890
  317MOL0     H43693   6.033   3.424   5.947  2.2312  0.9248  1.8748
  317MOL0     H43694   5.925   3.366   6.076 -2.7133  1.6633  0.7511
  317MOL0     H43695   5.973   3.658   5.850 -0.4366 -1.3450 -0.9760
  317MOL0     H43696   5.696   3.781   5.740  1.2768  2.3082 -0.4562
  317MOL0     H43697   5.796   3.901   5.816 -1.0134  1.4129  2.6493
  317MOL0     H43698   5.512   3.822   5.852 -0.0122 -0.4905  2.3999
  317MOL0     H43699   5.589   3.882   5.998 -0.2292 -2.3348  0.1027
  317MOL0     H43700   5.639   4.100   5.886  1.4957 -0.8285 -0.8462
  317MOL0     H43701   5.601   4.022   5.731  0.5392 -0.9424  0.9470
  317MOL0     H43702   5.412   4.161   5.750  1.6057  1.7889  0.5366
  317MOL0     H43703   5.365   3.992   5.791  0.5498 -1.4872  3.0694
  317MOL0     H43704   5.491   4.328   5.820  0.4669  2.1288 -0.4108
  317MOL0     H43705   5.660   4.497   5.838  0.5752  0.0309  0.9794
  317MOL0     H43706   5.623   4.643   5.928 -2.6506  0.3568  1.3014
  317MOL0     H43707   5.507   4.578   5.819  0.4497 -1.1146 -1.3560
  317MOL0     H43708   5.780   4.826   6.280  4.1934  0.2462  0.4535
  317MOL0     H43709   5.894   4.819   6.511 -0.4696  0.9347  0.1302
  317MOL0     H43710   5.886   4.529   6.791 -2.0808  1.1675 -1.6721
  317MOL0     H43711   5.978   4.412   6.691  0.8222  0.7786  0.3371
  317MOL0     H43712   6.121   4.420   6.857 -0.6106 -1.4526 -2.0832
  317MOL0     H43713   6.187   4.541   6.751 -2.1633  1.2258 -1.7253
  317MOL0     H43714   6.008   4.633   6.980 -0.4305 -0.6698 -0.8994
  317MOL0     H43715   6.101   4.719   6.867 -0.6773 -1.0288 -3.0367
  317MOL0     H43716   6.304   4.625   6.931 -2.4636 -2.0710 -2.0924
  317MOL0     H43717   6.233   4.507   7.043  1.1514  0.0316  0.5260
  317MOL0     H43718   6.161   4.713   7.189 -0.5503  0.5664 -0.2210
  317MOL0     H43719   6.326   4.669   7.177  0.0492 -0.6692 -1.7386
  317MOL0     H43720   6.172   4.904   7.044 -0.0394  1.8167  1.8557
  317MOL0     H43721   6.337   4.869   6.999  0.3045  3.7901  0.0041
  317MOL0     H43722   6.423   4.905   7.200 -0.3667 -2.9635 -4.1084
  317MOL0     H43723   6.280   4.936   7.294  1.1206  1.4105  0.3760
  317MOL0     H43724   6.372   5.158   7.234  1.9882  1.5618 -0.9233
  317MOL0     H43725   6.236   5.142   7.140  0.7782  0.2148  0.3391
  317MOL0     H43726   5.847   4.396   6.517  1.6646 -0.7270 -2.5850
  317MOL0     H43727   5.733   4.394   6.309  1.9722 -0.3936 -2.4245
  317MOL0     H43728   5.400   4.376   6.299  3.8923 -1.1028  0.4202
  317MOL0     H43729   5.319   4.177   6.174  0.2035  1.8457  1.3549
  317MOL0     H43730   5.633   3.261   6.846 -1.2717  0.8167 -0.3283
  317MOL0     H43731   5.422   3.323   6.858 -0.0245  0.2427  1.7566
  317MOL0     H43732   5.157   3.882   7.019 -0.8313  0.6503 -1.8818
  317MOL0     H43733   4.916   3.905   7.114 -3.4934  1.1609 -2.5797
  317MOL0     H43734   4.617   3.928   7.095  0.0720  0.0560 -0.2386
  317MOL0     H43735   4.728   3.954   6.965  0.0901  0.4300  0.0865
  317MOL0     H43736   4.480   3.901   6.913  0.3648  0.9044  0.4239
  317MOL0     H43737   4.491   3.747   6.980  0.9437 -1.4070 -0.3056
  317MOL0     H43738   4.616   3.844   6.722  2.5175 -0.8571  0.6535
  317MOL0     H43739   4.662   3.694   6.802 -1.9321 -3.1957  2.0857
  317MOL0     H43740   4.412   3.612   6.826 -2.1627 -0.4299 -2.2984
  317MOL0     H43741   4.456   3.624   6.654  0.5458  0.7214 -0.3557
  317MOL0     H43742   4.189   3.947   6.733 -0.1353 -0.1084  0.7438
  317MOL0     H43743   4.809   3.575   6.913  0.2917 -0.1196 -2.5940
  317MOL0     H43744   4.947   3.439   6.763  0.5017 -0.1386 -0.3999
  317MOL0     H43745   5.087   3.530   6.697  1.6993  2.3175  1.0712
  317MOL0     H43746   5.116   3.412   6.822 -0.0344 -0.1616  0.6500
  318MOL0     O43747  10.021   8.788   6.841  0.0958  0.1934  0.3587
  318MOL0     C43748  10.004   8.911   6.838 -0.1209 -0.2716  0.2238
  318MOL0     O43749  10.091   9.001   6.785  0.4536  0.6458 -0.1424
  318MOL0     C43750  10.208   8.956   6.723  0.3365  0.2614  0.3395
  318MOL0     C43751  10.330   9.007   6.765  0.2109 -0.8750 -0.2793
  318MOL0     C43752  10.449   8.971   6.700 -0.3863 -0.8996  0.5562
  318MOL0     C43753  10.442   8.879   6.588  0.0448 -0.7309 -0.1217
  318MOL0     O43754  10.562   8.836   6.527 -0.1035 -0.2479 -0.0551
  318MOL0     C43755  10.691   8.904   6.550  0.7294  0.1382 -0.5271
  318MOL0     C43756  10.793   8.828   6.477 -0.4428 -0.2554  0.2962
  318MOL0     C43757  10.771   8.836   6.324  1.3031  0.4334 -0.1376
  318MOL0     C43758  10.863   8.740   6.248  0.8551 -0.8148 -0.1076
  318MOL0     C43759  10.825   8.723   6.098 -0.8025  0.1877 -0.3623
  318MOL0     C43760  10.920   8.629   6.021 -0.3020 -0.1481  0.5047
  318MOL0     C43761  10.890   8.632   5.874 -0.3575 -0.5958  0.3040
  318MOL0     C43762  10.960   8.522   5.799 -0.2449 -0.4342  0.4334
  318MOL0     N43763  11.107   8.546   5.808  0.2661 -0.6361  0.4787
  318MOL0     C43764  11.191   8.488   5.896 -0.2727 -0.0693  1.1400
  318MOL0     C43765  11.314   8.532   5.855 -0.2440 -0.3013  0.5654
  318MOL0     C43766  11.440   8.474   5.907  0.7051 -0.2047 -0.0856
  318MOL0     C43767  11.564   8.565   5.884  1.6541  0.0412 -0.2980
  318MOL0     C43768  11.630   8.530   5.752  0.1934  0.5048  0.8957
  318MOL0     C43769  11.748   8.634   5.727 -0.3983  0.6897 -0.3233
  318MOL0     O43770  11.871   8.573   5.667  0.0269 -0.1918 -0.8359
  318MOL0     C43771  11.997   8.636   5.675 -0.4131  0.4244  0.0911
  318MOL0     C43772  12.102   8.561   5.628  0.1446 -0.0094 -0.6823
  318MOL0     C43773  12.237   8.605   5.639  0.1605 -0.0189 -0.3871
  318MOL0     C43774  12.336   8.507   5.594  1.1330  0.2752  0.7190
  318MOL0     C43775  12.261   8.719   5.705  0.2767 -0.0332 -0.5443
  318MOL0     C43776  12.395   8.786   5.713 -0.2778 -0.0898  0.8524
  318MOL0     O43777  12.384   8.922   5.701 -0.1051  0.8305  1.4066
  318MOL0     C43778  12.488   9.000   5.726 -0.4218 -0.0929  0.0834
  318MOL0     C43779  12.588   9.022   5.627 -0.6280  0.5525  0.5351
  318MOL0     C43780  12.693   9.110   5.645 -0.0839  0.0012  0.2415
  318MOL0     C43781  12.711   9.181   5.767  0.1298 -0.0919  0.4310
  318MOL0     O43782  12.826   9.253   5.778 -1.0649 -0.8009 -0.8978
  318MOL0     C43783  12.903   9.222   5.893 -0.3529 -0.2648  0.8234
  318MOL0     C43784  13.051   9.248   5.866 -0.3987 -0.3794 -0.0509
  318MOL0     C43785  13.136   9.217   5.988  0.0909 -0.3781 -0.5922
  318MOL0     C43786  13.285   9.241   5.974  0.8620 -0.4764 -0.1587
  318MOL0     C43787  13.362   9.262   6.104 -0.1620 -0.1738  0.4129
  318MOL0     C43788  13.511   9.279   6.072  0.5412 -0.9641 -0.3381
  318MOL0     C43789  13.585   9.356   6.178 -0.0961  0.7874  0.5526
  318MOL0     C43790  13.733   9.318   6.179 -0.1061  0.6749 -0.8737
  318MOL0    Cl43791  13.795   9.351   6.014  0.2845  0.1452  0.0153
  318MOL0     C43792  12.621   9.146   5.869  0.4353 -0.1723  0.4196
  318MOL0     C43793  12.509   9.071   5.846 -0.4483 -0.4989 -0.4116
  318MOL0     O43794  12.501   8.723   5.724 -0.4266  1.2945  0.4335
  318MOL0     C43795  12.152   8.787   5.761 -0.4418  0.2865  0.3936
  318MOL0     C43796  12.023   8.752   5.748 -0.9463  0.2177  0.1563
  318MOL0     N43797  11.297   8.628   5.753 -0.0140 -0.7225 -0.2987
  318MOL0     N43798  11.165   8.633   5.734  0.0239 -0.1884 -0.0942
  318MOL0     C43799  10.316   8.839   6.535  0.0985  0.5748  0.1998
  318MOL0     C43800  10.201   8.886   6.599 -0.5497 -0.5738  0.2191
  318MOL0     C43801   9.881   8.962   6.910 -0.2890  0.0925  0.3015
  318MOL0     C43802   9.779   8.870   6.917  0.9831  0.1624  0.7707
  318MOL0     C43803   9.651   8.906   6.970 -1.2105  0.6741 -0.1594
  318MOL0     C43804   9.636   9.026   7.033 -0.2820 -0.9767 -0.1841
  318MOL0     O43805   9.517   9.074   7.081 -1.1603 -0.1510 -0.4304
  318MOL0     C43806   9.393   9.015   7.050  0.1649  0.3716 -0.4689
  318MOL0     C43807   9.282   9.101   7.104 -1.6450 -0.5323  0.1313
  318MOL0     C43808   9.137   9.047   7.077 -0.1378 -0.3005  1.0597
  318MOL0     C43809   9.037   9.158   7.106  0.2364  0.3044 -0.4230
  318MOL0     C43810   8.912   9.108   7.148 -0.4611  0.5153 -0.0432
  318MOL0     C43811   8.801   9.084   7.191 -0.0968  0.4136  0.0684
  318MOL0     C43812   9.746   9.109   7.041  0.4089 -0.1827 -0.0240
  318MOL0     C43813   9.868   9.081   6.979  0.1865  0.3470  0.3704
  318MOL0     C43814   9.978   9.183   6.978 -1.0025  0.5593 -0.1175
  318MOL0     H43815  10.310   9.074   6.848 -0.0040  0.1181 -1.1082
  318MOL0     H43816  10.547   9.011   6.722  0.5347 -2.2080 -0.9557
  318MOL0     H43817  10.719   8.890   6.655  0.8981 -1.2780 -0.7357
  318MOL0     H43818  10.691   9.008   6.516  1.4117 -0.0909 -1.2655
  318MOL0     H43819  10.892   8.866   6.504  1.0243 -1.5589 -2.7817
  318MOL0     H43820  10.792   8.721   6.503  1.6576 -0.5276 -0.5570
  318MOL0     H43821  10.665   8.839   6.297  0.8358  0.4692  1.6197
  318MOL0     H43822  10.800   8.938   6.298  0.4970  1.0677  1.3411
  318MOL0     H43823  10.967   8.772   6.262 -0.3061  2.2526  2.7848
  318MOL0     H43824  10.856   8.638   6.287  0.5158 -0.9861 -0.6090
  318MOL0     H43825  10.813   8.820   6.048  1.4209  0.2515 -0.8503
  318MOL0     H43826  10.727   8.675   6.093 -1.2814  0.8422  1.5718
  318MOL0     H43827  11.026   8.658   6.031 -0.6468  1.1869  0.5388
  318MOL0     H43828  10.907   8.526   6.055 -1.0028 -1.0655 -2.2774
  318MOL0     H43829  10.922   8.723   5.823 -1.2459 -1.5218 -2.0438
  318MOL0     H43830  10.782   8.614   5.865 -0.1881 -1.0408 -1.0691
  318MOL0     H43831  10.943   8.422   5.839  0.7323 -1.0418 -0.5825
  318MOL0     H43832  10.926   8.531   5.695 -0.9568 -0.6888  0.6388
  318MOL0     H43833  11.173   8.403   5.961 -0.1732 -1.2130 -0.2877
  318MOL0     H43834  11.464   8.374   5.868  1.3582 -1.9524  4.1575
  318MOL0     H43835  11.430   8.455   6.014 -0.4968 -1.8149 -0.4437
  318MOL0     H43836  11.520   8.665   5.884 -0.7885 -0.9202  1.6330
  318MOL0     H43837  11.636   8.568   5.967  0.2041 -1.0519  1.0667
  318MOL0     H43838  11.668   8.428   5.762 -3.4099 -0.8677  2.1526
  318MOL0     H43839  11.558   8.530   5.669  1.5321  0.7862 -0.3227
  318MOL0     H43840  11.716   8.706   5.651  1.0393  0.2544 -1.3831
  318MOL0     H43841  11.775   8.682   5.821  1.2990 -0.0226 -0.4076
  318MOL0     H43842  12.081   8.466   5.580  2.3005 -0.7143 -0.3199
  318MOL0     H43843  12.340   8.435   5.677  3.1623 -0.9047 -0.3428
  318MOL0     H43844  12.431   8.557   5.578  2.1092 -0.8510  2.6026
  318MOL0     H43845  12.304   8.455   5.503  2.3274 -1.3262  1.1707
  318MOL0     H43846  12.588   8.962   5.536  0.3651 -0.9174  1.4637
  318MOL0     H43847  12.759   9.139   5.563  0.7785 -0.6872  0.6755
  318MOL0     H43848  12.869   9.279   5.980 -2.2695 -3.2480  2.1631
  318MOL0     H43849  12.882   9.121   5.928 -3.3525  1.0246  3.1113
  318MOL0     H43850  13.085   9.196   5.775  0.7656  1.6269 -0.8226
  318MOL0     H43851  13.067   9.356   5.855  2.4069 -0.8362 -1.4342
  318MOL0     H43852  13.140   9.113   6.019 -0.5803  0.4769  2.7419
  318MOL0     H43853  13.087   9.275   6.067  1.3105  0.0866 -0.1535
  318MOL0     H43854  13.286   9.331   5.912  0.0623 -1.1526 -1.1908
  318MOL0     H43855  13.325   9.153   5.922 -0.9572 -0.3267 -1.9691
  318MOL0     H43856  13.323   9.350   6.154 -1.7323 -0.6192  0.0090
  318MOL0     H43857  13.360   9.170   6.164 -1.6970 -1.4426 -1.4607
  318MOL0     H43858  13.514   9.335   5.978  0.4134  0.6106  0.5645
  318MOL0     H43859  13.550   9.177   6.063  3.1411  0.0724 -2.0215
  318MOL0     H43860  13.541   9.318   6.271 -0.2004 -3.0021 -0.8846
  318MOL0     H43861  13.571   9.464   6.165  0.1940  0.6553 -0.9372
  318MOL0     H43862  13.739   9.211   6.200 -2.9393  0.8060  1.2292
  318MOL0     H43863  13.784   9.379   6.254  3.3559  0.5486 -2.9301
  318MOL0     H43864  12.635   9.190   5.967  0.0846  1.7990 -0.3687
  318MOL0     H43865  12.431   9.051   5.918  0.3921 -2.4655  0.0155
  318MOL0     H43866  12.180   8.876   5.818 -0.9470  1.7832 -1.5881
  318MOL0     H43867  11.948   8.822   5.782 -0.8243  0.5716 -0.2934
  318MOL0     H43868  10.301   8.779   6.446 -0.6103  0.0695  0.6524
  318MOL0     H43869  10.105   8.841   6.574 -1.9701  1.4695  1.7104
  318MOL0     H43870   9.775   8.766   6.887  2.1247 -0.6371  3.1097
  318MOL0     H43871   9.565   8.840   6.965  1.2081 -2.6322 -1.2464
  318MOL0     H43872   9.381   9.002   6.942  1.5408 -0.3119 -0.5606
  318MOL0     H43873   9.376   8.919   7.098  1.8083 -0.2618 -1.0675
  318MOL0     H43874   9.293   9.197   7.053  0.7211 -0.0472  1.4123
  318MOL0     H43875   9.307   9.120   7.208  0.2641 -1.0663 -0.1885
  318MOL0     H43876   9.133   9.016   6.972  0.9797 -2.0049  1.4731
  318MOL0     H43877   9.117   8.960   7.140 -3.8112 -0.4998 -0.1266
  318MOL0     H43878   9.029   9.213   7.011  1.8828 -0.2503 -0.9258
  318MOL0     H43879   9.076   9.223   7.185  2.2218 -1.2205 -0.0718
  318MOL0     H43880   8.702   9.077   7.232 -0.9744  1.4668 -1.7035
  318MOL0     H43881   9.740   9.194   7.108  0.5254 -1.4594  1.6914
  318MOL0     H43882  10.072   9.133   7.005 -0.5024  1.0365 -0.9488
  318MOL0     H43883   9.985   9.234   6.882  0.3206 -1.1028 -0.9586
  318MOL0     H43884   9.966   9.249   7.065 -2.3038  0.8016 -0.4627
  319MOL0     O43885  10.200   7.407   7.337 -0.1743  0.1372  0.7941
  319MOL0     C43886  10.193   7.528   7.319 -0.6096  0.2911 -0.4253
  319MOL0     O43887  10.078   7.602   7.311 -0.5825 -0.3887  0.5809
  319MOL0     C43888   9.950   7.561   7.267 -0.2508 -0.2527 -0.1052
  319MOL0     C43889   9.914   7.436   7.229 -0.2731 -0.0187  1.2093
  319MOL0     C43890   9.788   7.419   7.173  0.1610 -0.2934  0.8079
  319MOL0     C43891   9.691   7.525   7.164  0.4791 -0.0479 -0.1542
  319MOL0     O43892   9.573   7.492   7.104 -0.7416 -0.0255 -0.4802
  319MOL0     C43893   9.450   7.534   7.161 -0.7959  0.6017  0.9064
  319MOL0     C43894   9.337   7.485   7.078  0.1394 -0.1798 -1.4259
  319MOL0     C43895   9.278   7.584   6.987  0.0578  0.5151 -0.0444
  319MOL0     C43896   9.168   7.523   6.906  0.0692  0.0419  0.6159
  319MOL0     C43897   9.053   7.607   6.861  0.5953 -0.3367 -1.2168
  319MOL0     C43898   9.075   7.701   6.747 -0.9539  0.0212  0.1400
  319MOL0     C43899   9.100   7.648   6.611  0.2137 -0.1618  0.5169
  319MOL0     C43900   9.163   7.754   6.514 -0.2094  0.2967  0.6162
  319MOL0     N43901   9.054   7.839   6.462 -0.5007  0.0625 -0.3470
  319MOL0     C43902   8.946   7.798   6.400  0.1348  0.6449  0.3899
  319MOL0     C43903   8.863   7.903   6.388 -0.5400 -0.7918  0.4690
  319MOL0     C43904   8.730   7.921   6.311 -0.4001 -0.7476  1.0103
  319MOL0     C43905   8.653   8.050   6.326 -1.1372  0.2895 -0.9727
  319MOL0     C43906   8.551   8.068   6.213 -0.1464 -0.3866 -0.6019
  319MOL0     C43907   8.472   7.946   6.174  0.6532 -0.6666 -0.3944
  319MOL0     O43908   8.395   7.889   6.283 -0.0562  0.0650 -0.2403
  319MOL0     C43909   8.292   7.798   6.259  0.4687  0.6066 -0.5714
  319MOL0     C43910   8.262   7.733   6.143  0.1517 -0.3567  0.4571
  319MOL0     C43911   8.149   7.649   6.133 -0.1308  0.0066  0.2695
  319MOL0     C43912   8.129   7.589   5.992 -0.0680 -0.4443 -0.3000
  319MOL0     C43913   8.078   7.605   6.247  0.5315 -0.5993 -0.1646
  319MOL0     C43914   7.964   7.507   6.247  0.0324  0.2308 -0.5651
  319MOL0     O43915   7.888   7.510   6.360  0.9815  0.5272 -0.4106
  319MOL0     C43916   7.784   7.429   6.387 -0.7166  0.1600 -0.2359
  319MOL0     C43917   7.709   7.339   6.303  0.1579 -0.6229  0.6026
  319MOL0     C43918   7.586   7.293   6.340  0.2765 -0.0833  0.7248
  319MOL0     C43919   7.537   7.311   6.474  0.0185 -0.3630  0.4935
  319MOL0     O43920   7.416   7.248   6.503  0.4414 -0.1090 -0.3812
  319MOL0     C43921   7.361   7.262   6.635 -0.0850 -0.6248  0.3346
  319MOL0     C43922   7.253   7.162   6.640  1.0136  0.2224 -0.2990
  319MOL0     C43923   7.178   7.159   6.771 -0.5406  0.4798 -0.3969
  319MOL0     C43924   7.250   7.085   6.884 -0.0418  0.2273 -0.7812
  319MOL0     C43925   7.167   7.057   7.019 -1.4328 -1.3293  0.6486
  319MOL0     C43926   7.258   7.006   7.127  0.1512 -0.3782  0.0905
  319MOL0     C43927   7.179   7.033   7.256 -0.3978  0.6408  0.0053
  319MOL0     C43928   7.241   6.939   7.355  0.1771 -0.6414  0.3391
  319MOL0    Cl43929   7.208   6.768   7.324 -0.1487  0.2133 -0.2957
  319MOL0     C43930   7.611   7.391   6.561 -0.5605 -0.9746 -0.0859
  319MOL0     C43931   7.734   7.435   6.517 -0.2750 -0.1179 -0.5240
  319MOL0     O43932   7.956   7.428   6.155 -0.3260  0.1996 -0.5515
  319MOL0     C43933   8.099   7.678   6.365  0.4726 -0.7177 -0.0667
  319MOL0     C43934   8.213   7.768   6.366  0.7309 -0.9623  0.0097
  319MOL0     N43935   8.919   8.009   6.457 -0.1271  1.2490  0.5296
  319MOL0     N43936   9.024   7.958   6.511 -1.2611 -0.6575  0.0884
  319MOL0     C43937   9.729   7.648   7.205 -0.5561 -0.6959 -0.5265
  319MOL0     C43938   9.864   7.665   7.257  0.3766 -0.5978 -0.1026
  319MOL0     C43939  10.328   7.602   7.303  0.1001  0.6825 -0.2331
  319MOL0     C43940  10.322   7.720   7.232  0.6621  0.9585  0.3176
  319MOL0     C43941  10.424   7.810   7.210 -0.6834  0.0049  0.1585
  319MOL0     C43942  10.549   7.766   7.255 -0.8385 -0.3324 -0.8510
  319MOL0     O43943  10.663   7.854   7.252 -0.1251 -0.3873  0.3140
  319MOL0     C43944  10.681   7.949   7.148 -0.2244  0.1710  0.1815
  319MOL0     C43945  10.628   8.092   7.180 -0.5321 -0.1485  0.0864
  319MOL0     C43946  10.671   8.183   7.064 -0.3847  0.5495 -0.1703
  319MOL0     C43947  10.826   8.210   7.052  1.2646 -0.0611 -0.1689
  319MOL0     C43948  10.891   8.110   6.969  0.1412 -0.0196 -0.9557
  319MOL0     C43949  10.944   8.027   6.899 -0.1032  0.2077  0.0573
  319MOL0     C43950  10.565   7.647   7.317  0.0376 -0.0342 -0.1396
  319MOL0     C43951  10.459   7.561   7.340 -1.1627  0.1397  0.4249
  319MOL0     C43952  10.498   7.429   7.405 -0.0760 -0.0709  0.9585
  319MOL0     H43953   9.984   7.355   7.247  0.8727  0.0601 -2.2609
  319MOL0     H43954   9.761   7.318   7.143 -2.2046  0.3490  0.5650
  319MOL0     H43955   9.454   7.642   7.176 -0.0778  0.6223  0.5589
  319MOL0     H43956   9.442   7.486   7.259  2.6025  0.2842  1.1168
  319MOL0     H43957   9.362   7.384   7.045 -0.6933 -0.4887 -1.1428
  319MOL0     H43958   9.261   7.460   7.153  1.4919 -0.0491  0.0292
  319MOL0     H43959   9.244   7.663   7.055  0.4685  1.4840 -0.9413
  319MOL0     H43960   9.364   7.611   6.927  0.7984 -2.2542 -0.3718
  319MOL0     H43961   9.224   7.479   6.823  0.3664 -0.4886  1.0843
  319MOL0     H43962   9.123   7.428   6.937  0.2846 -0.6752 -1.1454
  319MOL0     H43963   9.026   7.667   6.948  0.6001 -1.1236 -0.6528
  319MOL0     H43964   8.964   7.543   6.852  2.0739 -3.7828  3.9077
  319MOL0     H43965   8.982   7.760   6.747 -0.5213  0.7281  0.9961
  319MOL0     H43966   9.158   7.763   6.781 -0.8342 -0.6978  1.2107
  319MOL0     H43967   9.015   7.599   6.561 -0.2978  1.4539 -0.2652
  319MOL0     H43968   9.167   7.563   6.626 -0.2825 -0.6823 -0.1218
  319MOL0     H43969   9.238   7.815   6.565  0.5843 -0.8040  0.7967
  319MOL0     H43970   9.209   7.700   6.431 -2.8265 -1.1344 -0.0098
  319MOL0     H43971   8.934   7.692   6.380 -0.5658  0.8863 -0.5165
  319MOL0     H43972   8.670   7.841   6.355 -0.4585 -1.1591  0.2068
  319MOL0     H43973   8.747   7.894   6.207 -0.7607  2.7582 -0.0907
  319MOL0     H43974   8.596   8.048   6.419 -0.6483 -1.1815 -0.6836
  319MOL0     H43975   8.721   8.136   6.318  1.1225 -1.4656 -1.9202
  319MOL0     H43976   8.484   8.150   6.240  1.1381 -0.1134  2.0048
  319MOL0     H43977   8.610   8.106   6.129  1.4765  0.6223  0.9199
  319MOL0     H43978   8.398   7.991   6.107 -0.1269 -0.9376  0.2783
  319MOL0     H43979   8.530   7.863   6.131 -1.3467 -4.2120  3.1341
  319MOL0     H43980   8.320   7.765   6.057 -0.9089 -0.8271 -0.4562
  319MOL0     H43981   8.023   7.586   5.963 -0.5210  2.3292  0.7486
  319MOL0     H43982   8.167   7.487   5.986  1.4047  0.1618 -2.7982
  319MOL0     H43983   8.169   7.655   5.914  1.3714 -2.0868 -1.0036
  319MOL0     H43984   7.742   7.324   6.201 -0.8834  2.1497 -0.2607
  319MOL0     H43985   7.520   7.229   6.282  1.1141 -1.4910  1.2642
  319MOL0     H43986   7.433   7.235   6.713 -0.1058 -3.7352 -0.5855
  319MOL0     H43987   7.318   7.360   6.653  0.3908 -0.1395 -1.0300
  319MOL0     H43988   7.177   7.183   6.564 -0.3763  1.7325  1.4165
  319MOL0     H43989   7.286   7.060   6.615 -0.5684 -0.1859 -0.8900
  319MOL0     H43990   7.088   7.103   6.744 -0.3796  1.5542 -3.6484
  319MOL0     H43991   7.153   7.262   6.801  2.3900  1.1345  0.0993
  319MOL0     H43992   7.338   7.143   6.912 -1.2468  1.6388  0.2561
  319MOL0     H43993   7.296   6.989   6.858  4.4063  1.5695  1.2937
  319MOL0     H43994   7.130   7.156   7.046 -3.6581 -0.3367 -4.6880
  319MOL0     H43995   7.078   6.995   7.001 -1.7631 -1.4843  2.5740
  319MOL0     H43996   7.343   7.074   7.137 -0.8057  0.6029  2.0709
  319MOL0     H43997   7.284   6.901   7.110  0.5004 -0.5048  1.3281
  319MOL0     H43998   7.073   7.006   7.258 -0.1553 -0.3296  0.0347
  319MOL0     H43999   7.188   7.137   7.288 -1.4058  1.1507 -1.2545
  319MOL0     H44000   7.229   6.968   7.460 -0.0002 -0.7505  0.3498
  319MOL0     H44001   7.349   6.936   7.337  0.1616  1.6368 -0.3943
  319MOL0     H44002   7.593   7.423   6.664  3.1037  1.4665 -0.0132
  319MOL0     H44003   7.794   7.489   6.589 -1.8946  1.5131 -0.3199
  319MOL0     H44004   8.034   7.665   6.451  0.2646 -0.9148 -0.2538
  319MOL0     H44005   8.218   7.820   6.461 -0.8730 -0.8393  0.0446
  319MOL0     H44006   9.664   7.735   7.209  1.1481  0.6710 -1.3181
  319MOL0     H44007   9.892   7.766   7.285  2.8367 -0.3523 -3.0050
  319MOL0     H44008  10.226   7.754   7.193  0.7853  1.8394  0.7646
  319MOL0     H44009  10.404   7.905   7.161  0.6020  1.6680  2.6609
  319MOL0     H44010  10.785   7.943   7.115 -0.6060  1.2055 -1.2930
  319MOL0     H44011  10.620   7.911   7.066 -1.9075  1.4361  0.7846
  319MOL0     H44012  10.666   8.115   7.280  1.4169 -1.0739 -0.3951
  319MOL0     H44013  10.519   8.086   7.176 -0.4617 -1.1031 -2.4323
  319MOL0     H44014  10.629   8.139   6.973  0.1445 -0.1980 -0.0555
  319MOL0     H44015  10.616   8.277   7.078 -0.5301  1.1022 -3.4715
  319MOL0     H44016  10.857   8.193   7.156 -1.6659  0.5918  0.9128
  319MOL0     H44017  10.831   8.317   7.031  1.2561  0.5460  2.5455
  319MOL0     H44018  11.006   7.952   6.854  0.9425 -1.5836  4.0173
  319MOL0     H44019  10.661   7.624   7.363 -0.2887 -0.4106  0.3624
  319MOL0     H44020  10.455   7.427   7.506 -2.5852  1.0091 -0.0005
  319MOL0     H44021  10.458   7.344   7.349  0.1256 -0.0651  0.8094
  319MOL0     H44022  10.605   7.422   7.427 -0.4571 -2.1765  2.3840
  320MOL0     O44023   6.246   4.249   5.312  0.7926  0.7401 -0.8091
  320MOL0     C44024   6.318   4.168   5.367  0.2371  0.3664 -0.0311
  320MOL0     O44025   6.289   4.035   5.362 -0.2849 -0.0977 -0.3145
  320MOL0     C44026   6.222   3.985   5.251 -0.2997 -0.6871 -0.1043
  320MOL0     C44027   6.126   3.886   5.272 -0.7926  0.4834 -1.0395
  320MOL0     C44028   6.086   3.807   5.166 -0.1394 -0.1449 -0.1855
  320MOL0     C44029   6.118   3.833   5.036 -0.3195 -0.9139 -0.7947
  320MOL0     O44030   6.056   3.759   4.945  0.4053  0.1490 -0.0070
  320MOL0     C44031   6.033   3.816   4.814 -0.9123 -0.5672  0.2166
  320MOL0     C44032   5.922   3.744   4.748  0.2217 -0.0072 -0.8061
  320MOL0     C44033   5.912   3.778   4.604  0.1126 -0.1959 -0.0177
  320MOL0     C44034   5.795   3.685   4.552 -0.0033 -0.2663  0.1576
  320MOL0     C44035   5.795   3.686   4.404 -1.1279 -0.2608 -1.0887
  320MOL0     C44036   5.750   3.812   4.340  0.0536  0.2309  0.7451
  320MOL0     C44037   5.784   3.806   4.192  0.2789 -0.2520  0.3228
  320MOL0     C44038   5.706   3.700   4.111  0.3957  0.0478 -0.7624
  320MOL0     N44039   5.559   3.710   4.126  0.3934  1.3974 -0.3301
  320MOL0     C44040   5.479   3.636   4.216  0.7920  0.6229  0.2054
  320MOL0     C44041   5.358   3.698   4.224  0.1835 -0.0963 -1.0250
  320MOL0     C44042   5.243   3.652   4.310  0.3318 -0.1487  0.3808
  320MOL0     C44043   5.237   3.698   4.454 -0.0003  0.3049 -0.4225
  320MOL0     C44044   5.374   3.667   4.530 -0.4843 -0.9439  0.6306
  320MOL0     C44045   5.344   3.679   4.686  0.6377  0.5144  0.7354
  320MOL0     O44046   5.464   3.673   4.767 -0.3739  0.0624  0.3689
  320MOL0     C44047   5.456   3.677   4.905  0.2028 -0.1577  0.2313
  320MOL0     C44048   5.574   3.673   4.978 -1.0584  0.7666  0.7491
  320MOL0     C44049   5.581   3.670   5.117 -0.2542 -0.7548  0.2914
  320MOL0     C44050   5.713   3.654   5.176  0.0081  0.3550  0.1834
  320MOL0     C44051   5.460   3.696   5.181 -0.3616  0.1807 -0.1104
  320MOL0     C44052   5.447   3.710   5.335  0.4001  0.3780 -0.0617
  320MOL0     O44053   5.319   3.717   5.386  0.2435  1.2430 -0.1334
  320MOL0     C44054   5.293   3.735   5.518  0.2201  0.5255 -0.6226
  320MOL0     C44055   5.209   3.835   5.554  0.5398 -0.4917 -0.1920
  320MOL0     C44056   5.164   3.851   5.686  0.6180  0.4784 -0.0771
  320MOL0     C44057   5.208   3.758   5.779 -0.4793 -0.2616 -0.0498
  320MOL0     O44058   5.169   3.787   5.906  0.4327  0.4060 -0.6857
  320MOL0     C44059   5.235   3.747   6.023  0.3144 -0.7376  0.0866
  320MOL0     C44060   5.173   3.807   6.150 -0.2775 -0.4171  0.6687
  320MOL0     C44061   5.026   3.772   6.165  0.9283 -0.1038 -0.4946
  320MOL0     C44062   5.005   3.629   6.202  0.2256  0.1843  0.3919
  320MOL0     C44063   5.032   3.597   6.349  0.7370 -0.3620  0.7051
  320MOL0     C44064   4.924   3.493   6.395  0.3660  0.1730  0.2924
  320MOL0     C44065   4.959   3.347   6.349 -0.0910  0.1330  0.1370
  320MOL0     C44066   4.856   3.250   6.407 -0.1266 -0.6008 -0.5817
  320MOL0    Cl44067   4.698   3.306   6.360 -0.1241  0.3253 -0.2292
  320MOL0     C44068   5.282   3.647   5.741  0.3153 -0.5595  0.3750
  320MOL0     C44069   5.327   3.640   5.615 -0.3921 -0.0618  0.2659
  320MOL0     O44070   5.541   3.701   5.405 -0.2771  0.0005  0.7198
  320MOL0     C44071   5.340   3.702   5.108 -0.5207 -0.3036 -0.3077
  320MOL0     C44072   5.337   3.688   4.971 -0.3047  0.3172  0.0441
  320MOL0     N44073   5.361   3.807   4.137 -0.2585 -0.0745  0.3360
  320MOL0     N44074   5.483   3.813   4.084  0.3220  0.2781  0.8542
  320MOL0     C44075   6.209   3.944   5.016 -0.4487 -0.2999 -1.0887
  320MOL0     C44076   6.265   4.011   5.122 -0.1817 -0.4962  0.0722
  320MOL0     C44077   6.454   4.214   5.412 -0.4690 -0.5289 -0.0664
  320MOL0     C44078   6.475   4.350   5.417 -0.3458 -0.7167 -0.2705
  320MOL0     C44079   6.597   4.411   5.430  0.3039  0.2933  0.0528
  320MOL0     C44080   6.706   4.329   5.462  0.3540 -1.3405 -0.7439
  320MOL0     O44081   6.813   4.406   5.502  0.1837 -0.0879 -0.7353
  320MOL0     C44082   6.925   4.339   5.566  0.2619  1.2177 -0.3482
  320MOL0     C44083   7.034   4.448   5.587 -0.2364 -0.5948  0.2736
  320MOL0     C44084   7.153   4.408   5.674  0.2006  0.2272 -0.0101
  320MOL0     C44085   7.262   4.514   5.667  0.0621 -0.3663  0.4046
  320MOL0     C44086   7.321   4.529   5.533  0.6120 -0.7857  0.2473
  320MOL0     C44087   7.375   4.519   5.421  0.2330  0.9183 -0.6012
  320MOL0     C44088   6.691   4.192   5.459 -0.2633 -0.6189  0.9394
  320MOL0     C44089   6.568   4.129   5.433 -0.0672 -1.0386  0.1143
  320MOL0     C44090   6.572   3.974   5.426 -1.2614 -1.3193  0.1644
  320MOL0     H44091   6.096   3.865   5.374 -0.9134 -3.1126 -1.6981
  320MOL0     H44092   6.032   3.715   5.185 -3.0077  1.6277  0.9855
  320MOL0     H44093   6.123   3.797   4.755 -0.8241 -2.0191  0.7810
  320MOL0     H44094   6.016   3.924   4.821  0.1844 -0.1849 -2.0462
  320MOL0     H44095   5.917   3.636   4.762  1.5917 -0.1888 -1.6241
  320MOL0     H44096   5.836   3.783   4.804  0.6541 -0.5537  0.2682
  320MOL0     H44097   5.891   3.885   4.601 -1.1129 -0.4300 -1.1798
  320MOL0     H44098   6.009   3.764   4.555  0.8781 -0.3103  1.4833
  320MOL0     H44099   5.795   3.580   4.583  1.9301 -0.6921 -1.1423
  320MOL0     H44100   5.701   3.722   4.594 -0.6288 -0.6514 -0.8456
  320MOL0     H44101   5.723   3.612   4.367  0.6129 -0.0889 -5.3139
  320MOL0     H44102   5.901   3.672   4.382 -0.5893  0.8089  0.6592
  320MOL0     H44103   5.647   3.836   4.367 -0.4300 -0.2860 -0.5535
  320MOL0     H44104   5.814   3.893   4.379  1.1383 -0.3760  0.2838
  320MOL0     H44105   5.890   3.784   4.174  1.2093  3.1286  0.9975
  320MOL0     H44106   5.786   3.909   4.156  1.1304 -0.2268  0.4076
  320MOL0     H44107   5.737   3.713   4.007 -0.0352  3.0916 -0.5960
  320MOL0     H44108   5.735   3.601   4.149  1.4673  0.4468 -0.5146
  320MOL0     H44109   5.501   3.548   4.275 -0.2702 -0.1167 -0.4797
  320MOL0     H44110   5.239   3.542   4.310  0.3826 -0.1845 -1.3669
  320MOL0     H44111   5.165   3.703   4.252  2.4693  3.8378  0.6868
  320MOL0     H44112   5.235   3.807   4.443  1.6655  0.3634 -0.4571
  320MOL0     H44113   5.152   3.659   4.511 -0.1416 -2.8711 -2.5591
  320MOL0     H44114   5.418   3.570   4.504  2.3988  0.4593 -0.1129
  320MOL0     H44115   5.449   3.745   4.512  2.9871 -3.8494  1.4020
  320MOL0     H44116   5.287   3.770   4.707  1.6396  1.6154 -1.0335
  320MOL0     H44117   5.275   3.596   4.705 -2.1646  2.7857  1.0538
  320MOL0     H44118   5.661   3.662   4.913 -2.1465 -3.2449 -0.3284
  320MOL0     H44119   5.713   3.579   5.256  0.0300  0.4888  0.3081
  320MOL0     H44120   5.745   3.746   5.226 -2.4085  0.9606  0.7465
  320MOL0     H44121   5.779   3.625   5.093 -1.2366  4.0692 -2.3260
  320MOL0     H44122   5.172   3.903   5.477  0.4475  0.8013  0.9700
  320MOL0     H44123   5.108   3.939   5.716 -1.6882  0.0454 -2.7822
  320MOL0     H44124   5.244   3.639   6.037 -3.5050 -1.2439 -0.1555
  320MOL0     H44125   5.338   3.781   6.011  0.7334 -0.8404  2.7588
  320MOL0     H44126   5.228   3.764   6.234  0.3685 -2.1634 -0.5939
  320MOL0     H44127   5.194   3.914   6.143  2.4927 -1.0080 -1.6616
  320MOL0     H44128   4.968   3.791   6.075 -0.6523 -1.8065  0.0915
  320MOL0     H44129   4.988   3.835   6.246 -1.7931 -1.6271 -0.4712
  320MOL0     H44130   5.053   3.553   6.140 -2.7991 -1.5511 -0.0089
  320MOL0     H44131   4.897   3.620   6.186  0.4372 -1.0977 -0.5435
  320MOL0     H44132   5.136   3.565   6.357  0.9394  0.2695  0.6620
  320MOL0     H44133   5.012   3.689   6.406  2.4890  1.0839 -0.8516
  320MOL0     H44134   4.828   3.526   6.354  0.5440 -0.4070 -0.6356
  320MOL0     H44135   4.913   3.498   6.504 -0.7012  0.7248  0.1739
  320MOL0     H44136   5.057   3.311   6.384  0.3132 -1.7221 -2.5486
  320MOL0     H44137   4.948   3.338   6.241 -1.6558  0.0731  0.2882
  320MOL0     H44138   4.865   3.257   6.516  1.2371 -1.5021 -0.6059
  320MOL0     H44139   4.883   3.151   6.369 -0.9312 -1.5257  1.0931
  320MOL0     H44140   5.329   3.575   5.808  2.7878  0.6342  0.0406
  320MOL0     H44141   5.390   3.552   5.599  0.2073  0.1150  1.4967
  320MOL0     H44142   5.246   3.712   5.161 -0.1856 -1.0132  0.4279
  320MOL0     H44143   5.242   3.681   4.921 -0.2221  3.1394 -0.6694
  320MOL0     H44144   6.235   3.977   4.916  0.1316 -0.5017 -1.0080
  320MOL0     H44145   6.344   4.085   5.104  0.2526 -1.0286 -0.2478
  320MOL0     H44146   6.387   4.412   5.403  0.7008  1.1127  0.8181
  320MOL0     H44147   6.610   4.518   5.422 -2.8357  0.9715  2.2923
  320MOL0     H44148   6.908   4.286   5.660  1.2366 -1.6603 -1.6642
  320MOL0     H44149   6.967   4.265   5.497  1.8409  1.7455 -0.0068
  320MOL0     H44150   6.980   4.536   5.622  0.9492 -1.3701  4.6375
  320MOL0     H44151   7.079   4.475   5.491 -1.4457  1.9923  0.3707
  320MOL0     H44152   7.121   4.401   5.779 -0.0012  2.3318  0.1129
  320MOL0     H44153   7.192   4.308   5.654  0.1146 -0.0452  1.1155
  320MOL0     H44154   7.342   4.486   5.735 -0.4959 -1.5387  0.6081
  320MOL0     H44155   7.214   4.608   5.694  0.5265 -0.6139  2.2568
  320MOL0     H44156   7.409   4.520   5.320 -0.0822  1.4216 -0.7044
  320MOL0     H44157   6.774   4.127   5.486 -0.0402 -1.9956 -2.5280
  320MOL0     H44158   6.675   3.945   5.449 -1.8281 -2.0059  1.9787
  320MOL0     H44159   6.505   3.919   5.493 -1.1508 -0.2066  1.2207
  320MOL0     H44160   6.564   3.938   5.323  1.5576 -4.6217  0.9111
  321MOL0     O44161   5.589   7.676   7.618  0.0600 -0.1073 -0.2979
  321MOL0     C44162   5.707   7.713   7.634  0.1148  0.2811  0.1597
  321MOL0     O44163   5.747   7.828   7.695  0.0539 -0.2486 -0.3673
  321MOL0     C44164   5.659   7.899   7.771 -0.2020 -0.3326 -0.9125
  321MOL0     C44165   5.530   7.942   7.724  0.2410  0.4353  0.8967
  321MOL0     C44166   5.442   8.003   7.816 -0.3178  0.3187 -0.3982
  321MOL0     C44167   5.491   8.057   7.939  0.4945 -0.5429  0.6918
  321MOL0     O44168   5.401   8.128   8.012  0.8488  0.6796  0.5913
  321MOL0     C44169   5.418   8.135   8.152  0.3564  0.5644  0.3576
  321MOL0     C44170   5.311   8.188   8.243  0.1350  0.2529  0.4479
  321MOL0     C44171   5.281   8.340   8.237 -0.3725  0.9707 -0.0316
  321MOL0     C44172   5.160   8.380   8.327 -1.2170  1.2595  0.5720
  321MOL0     C44173   5.141   8.531   8.331 -0.4987  0.5687  0.6623
  321MOL0     C44174   5.052   8.587   8.221 -0.0994 -0.1811  0.0017
  321MOL0     C44175   5.033   8.739   8.223 -0.5332 -0.2857  0.4967
  321MOL0     C44176   4.983   8.804   8.093  0.7139 -0.4649  0.1001
  321MOL0     N44177   5.062   8.806   7.976  0.3509 -0.6000 -0.3777
  321MOL0     C44178   5.180   8.870   7.958  0.2534  1.0543 -0.7945
  321MOL0     C44179   5.235   8.835   7.845 -0.2174  0.2224 -0.6984
  321MOL0     C44180   5.376   8.869   7.784 -0.1239 -0.3461 -0.0141
  321MOL0     C44181   5.447   8.728   7.763  0.3191  0.3058  0.0761
  321MOL0     C44182   5.440   8.642   7.889  0.5397 -0.5513  0.7803
  321MOL0     C44183   5.530   8.526   7.889  0.1007  0.7288  0.4345
  321MOL0     O44184   5.664   8.564   7.903 -0.5313  0.7274 -0.6318
  321MOL0     C44185   5.719   8.502   8.012 -0.7043  0.0029  0.3272
  321MOL0     C44186   5.737   8.554   8.135  0.1322 -0.6604 -0.1777
  321MOL0     C44187   5.811   8.503   8.241  0.5792  0.3570  0.1280
  321MOL0     C44188   5.798   8.565   8.375 -0.3401  0.2340 -0.1940
  321MOL0     C44189   5.888   8.388   8.216  0.8289 -0.3558  1.2646
  321MOL0     C44190   5.982   8.332   8.301 -0.5597 -0.0863  0.2612
  321MOL0     O44191   5.999   8.195   8.280 -0.7444 -0.0534  0.0523
  321MOL0     C44192   6.094   8.136   8.361 -0.1375 -1.1825 -0.0551
  321MOL0     C44193   6.226   8.184   8.385  0.7114 -0.4786 -0.3444
  321MOL0     C44194   6.316   8.108   8.464  1.0110 -0.4792 -0.0631
  321MOL0     C44195   6.265   7.989   8.538 -0.9042  0.3463  0.2889
  321MOL0     O44196   6.326   7.913   8.639  0.3132 -0.1121  0.2579
  321MOL0     C44197   6.451   7.956   8.682 -0.2571  0.5668 -0.2723
  321MOL0     C44198   6.532   7.838   8.737 -0.1411  0.4696  0.1059
  321MOL0     C44199   6.542   7.837   8.889 -0.2988 -1.3466 -0.3485
  321MOL0     C44200   6.419   7.768   8.953  0.1265  0.4598  0.3019
  321MOL0     C44201   6.398   7.798   9.103 -0.1909  0.6103  0.5630
  321MOL0     C44202   6.530   7.789   9.176 -0.7115 -0.1785 -0.1390
  321MOL0     C44203   6.505   7.780   9.329  0.7788 -0.7790  0.2885
  321MOL0     C44204   6.629   7.821   9.403 -0.1770 -0.4417  1.1160
  321MOL0    Cl44205   6.724   7.685   9.424 -0.2656  0.3297  0.2969
  321MOL0     C44206   6.139   7.943   8.496  0.2508 -0.5409  0.5786
  321MOL0     C44207   6.057   8.022   8.415  0.2451  0.2960 -0.3291
  321MOL0     O44208   6.045   8.408   8.374 -0.4925 -0.2584  0.9955
  321MOL0     C44209   5.878   8.326   8.086  0.3334  0.3340 -0.1710
  321MOL0     C44210   5.785   8.381   7.990 -0.3932 -0.7351 -0.6261
  321MOL0     N44211   5.149   8.745   7.794  0.4494  0.1897  0.3183
  321MOL0     N44212   5.048   8.731   7.868 -0.2425 -0.0514 -0.2576
  321MOL0     C44213   5.623   8.036   7.977 -0.4402  0.0129  0.0926
  321MOL0     C44214   5.705   7.954   7.894 -0.2590  0.3410 -0.1680
  321MOL0     C44215   5.810   7.622   7.587 -0.0223 -0.4317 -0.7654
  321MOL0     C44216   5.794   7.540   7.477 -0.1416  0.5812 -0.4971
  321MOL0     C44217   5.878   7.440   7.431  0.4402  0.5172 -0.6097
  321MOL0     C44218   6.001   7.436   7.499 -0.3484  0.2290 -0.2591
  321MOL0     O44219   6.104   7.355   7.472 -0.1448 -0.8340  0.3316
  321MOL0     C44220   6.077   7.248   7.378  0.0804  0.5945  0.5013
  321MOL0     C44221   5.996   7.136   7.445 -0.2157 -0.3076 -0.2573
  321MOL0     C44222   6.027   7.004   7.375  0.5964  0.4961 -0.1786
  321MOL0     C44223   5.910   6.896   7.388  0.0464 -0.1354  0.8048
  321MOL0     C44224   5.872   6.872   7.531 -0.8397  0.2028  0.1122
  321MOL0     C44225   5.874   6.852   7.653 -0.1148  0.8414  1.0873
  321MOL0     C44226   6.032   7.521   7.608 -1.1413 -0.6289 -0.3605
  321MOL0     C44227   5.938   7.616   7.647 -0.2718 -0.4593 -0.0706
  321MOL0     C44228   5.995   7.697   7.767  0.0110  0.4030  0.4321
  321MOL0     H44229   5.496   7.912   7.626 -1.9541 -2.0095  2.2684
  321MOL0     H44230   5.337   8.014   7.791 -0.2524 -2.0084 -2.0485
  321MOL0     H44231   5.514   8.184   8.173 -1.1643  3.6062  0.6648
  321MOL0     H44232   5.420   8.030   8.184 -1.7994  0.3292 -0.1415
  321MOL0     H44233   5.218   8.139   8.215  2.3406 -3.6629 -0.7741
  321MOL0     H44234   5.331   8.157   8.346 -0.4554 -0.2037  0.4275
  321MOL0     H44235   5.374   8.386   8.270 -0.6100 -0.3082  2.7377
  321MOL0     H44236   5.261   8.379   8.137 -1.1851  2.5316  0.7112
  321MOL0     H44237   5.077   8.334   8.274  0.8036  0.7329 -2.4145
  321MOL0     H44238   5.178   8.350   8.431  2.7778  1.5175  0.1319
  321MOL0     H44239   5.236   8.585   8.321 -0.0403  0.4129  3.3543
  321MOL0     H44240   5.108   8.573   8.426  0.5604  2.3107  0.2958
  321MOL0     H44241   5.094   8.560   8.123 -2.7779  0.9660 -1.5663
  321MOL0     H44242   4.956   8.538   8.240 -0.0793 -1.9370 -3.5741
  321MOL0     H44243   5.131   8.781   8.246  0.9712 -3.3765  0.2188
  321MOL0     H44244   4.962   8.750   8.306 -1.4810 -0.9185 -0.2092
  321MOL0     H44245   4.885   8.761   8.073  0.9807 -1.5659  1.0639
  321MOL0     H44246   4.974   8.911   8.117  0.8903 -0.0744 -1.4263
  321MOL0     H44247   5.237   8.920   8.036 -1.1687  1.2473  0.1652
  321MOL0     H44248   5.423   8.930   7.862 -3.4470 -0.6628  2.4205
  321MOL0     H44249   5.365   8.919   7.687 -0.1826 -3.8701 -2.0015
  321MOL0     H44250   5.400   8.664   7.688  1.6236 -2.1869  1.2785
  321MOL0     H44251   5.554   8.744   7.743 -0.0644 -0.9104 -3.7925
  321MOL0     H44252   5.446   8.698   7.982  2.1069  0.2727  0.2175
  321MOL0     H44253   5.345   8.589   7.875  0.0886  0.3002  0.5612
  321MOL0     H44254   5.495   8.445   7.953  0.3509  0.5085  0.2934
  321MOL0     H44255   5.530   8.479   7.791 -0.1776  0.8344  0.3839
  321MOL0     H44256   5.691   8.651   8.143  1.1388 -0.2489  0.9895
  321MOL0     H44257   5.801   8.491   8.454  0.3801  0.4740  0.0118
  321MOL0     H44258   5.692   8.593   8.380 -0.9773 -1.0168 -3.7383
  321MOL0     H44259   5.872   8.645   8.386 -0.2572  0.2517 -0.8098
  321MOL0     H44260   6.256   8.279   8.341 -0.5375  0.6405  1.0742
  321MOL0     H44261   6.415   8.153   8.472  0.1561  1.2102  1.5781
  321MOL0     H44262   6.506   8.010   8.604 -0.6265  0.1924 -0.8040
  321MOL0     H44263   6.452   8.036   8.755  2.3990  0.2839  0.1000
  321MOL0     H44264   6.505   7.742   8.694  1.5065  1.6792 -4.1624
  321MOL0     H44265   6.636   7.846   8.702  0.3594 -0.5803  1.2580
  321MOL0     H44266   6.555   7.943   8.912 -1.5436 -1.2131 -0.1876
  321MOL0     H44267   6.632   7.785   8.922 -0.2684  0.9134  3.9023
  321MOL0     H44268   6.424   7.661   8.933  0.1036  0.3769  0.7291
  321MOL0     H44269   6.337   7.814   8.897  0.1652  2.3630  1.6967
  321MOL0     H44270   6.348   7.893   9.123 -0.8955  0.8761 -2.0431
  321MOL0     H44271   6.327   7.722   9.136  1.6014 -0.3611  2.4035
  321MOL0     H44272   6.606   7.863   9.149 -1.2570  0.3442 -0.2657
  321MOL0     H44273   6.582   7.698   9.146 -0.2854 -0.8700  2.4574
  321MOL0     H44274   6.470   7.681   9.360  1.2984 -0.9406  0.3694
  321MOL0     H44275   6.424   7.852   9.344  0.1525 -0.9739 -1.8111
  321MOL0     H44276   6.615   7.852   9.507  5.3427 -1.3645  2.4547
  321MOL0     H44277   6.692   7.898   9.358  2.2999 -2.8608  0.1726
  321MOL0     H44278   6.102   7.851   8.539  0.8778 -0.8214  0.5361
  321MOL0     H44279   5.958   7.985   8.390  0.0111  0.8786 -0.2725
  321MOL0     H44280   5.928   8.237   8.048 -3.2980 -1.0746 -2.1906
  321MOL0     H44281   5.773   8.340   7.890  0.6668  0.9767 -1.5010
  321MOL0     H44282   5.675   8.063   8.069  3.2697 -3.0581 -0.8011
  321MOL0     H44283   5.802   7.926   7.935 -0.5940  0.1639  0.5135
  321MOL0     H44284   5.699   7.545   7.424 -0.4775  0.3767  0.0762
  321MOL0     H44285   5.843   7.371   7.355 -0.6628  0.6834 -0.2813
  321MOL0     H44286   6.028   7.292   7.291  0.5182  2.6780  1.2675
  321MOL0     H44287   6.171   7.205   7.341  0.3942 -0.0041  1.9581
  321MOL0     H44288   5.892   7.166   7.439 -0.4710 -0.9245  0.8230
  321MOL0     H44289   6.024   7.116   7.549 -0.2370  1.9799  0.2323
  321MOL0     H44290   6.036   7.020   7.267  1.5196  0.5090 -0.1072
  321MOL0     H44291   6.121   6.965   7.415  0.5729 -2.0726 -2.2909
  321MOL0     H44292   5.945   6.801   7.347 -1.3865 -1.1238  1.7770
  321MOL0     H44293   5.824   6.928   7.328  0.5355 -3.7292 -2.2053
  321MOL0     H44294   5.860   6.833   7.757 -0.8291 -0.7112  0.7292
  321MOL0     H44295   6.136   7.513   7.640 -1.3564 -1.6414  0.1486
  321MOL0     H44296   6.001   7.795   7.719  0.6739 -1.5832 -3.9655
  321MOL0     H44297   5.922   7.697   7.849  3.0896  0.2488  3.3768
  321MOL0     H44298   6.095   7.664   7.795  1.1159  0.3134 -3.1774
  322MOL0     O44299   9.585   1.926   9.090 -0.2690 -0.1292  0.1271
  322MOL0     C44300   9.681   1.848   9.078  0.2666 -0.3187  0.2185
  322MOL0     O44301   9.669   1.709   9.088 -0.1180 -0.3148 -0.2952
  322MOL0     C44302   9.539   1.663   9.116 -0.7148  0.4996 -0.6158
  322MOL0     C44303   9.426   1.702   9.050  0.1841  0.1960 -0.1399
  322MOL0     C44304   9.299   1.649   9.091  0.0259  0.3290  0.1580
  322MOL0     C44305   9.299   1.548   9.188  1.0326  0.1960 -0.0723
  322MOL0     O44306   9.173   1.490   9.226 -0.1355 -0.9445 -0.1552
  322MOL0     C44307   9.174   1.382   9.325  0.8984  0.4708  0.0273
  322MOL0     C44308   9.028   1.329   9.364 -0.6119 -0.2304  0.1356
  322MOL0     C44309   8.951   1.425   9.448  0.6442 -0.6599  0.4411
  322MOL0     C44310   8.888   1.542   9.388  0.0005  0.6115 -0.1483
  322MOL0     C44311   8.809   1.625   9.503  0.4027  0.1941  0.6606
  322MOL0     C44312   8.755   1.752   9.444  0.0627 -0.2944 -0.6273
  322MOL0     C44313   8.672   1.824   9.549  0.9381 -0.1827 -1.1672
  322MOL0     C44314   8.748   1.922   9.636 -0.5890 -0.4296 -0.7582
  322MOL0     N44315   8.653   1.965   9.742  0.3021 -0.0453  0.0012
  322MOL0     C44316   8.601   2.097   9.726  0.2351  0.0541  0.7381
  322MOL0     C44317   8.490   2.098   9.806 -0.4237  0.9440  0.0256
  322MOL0     C44318   8.392   2.209   9.816  0.4821 -0.1639  0.2075
  322MOL0     C44319   8.263   2.195   9.908  0.0789 -0.1502  0.3028
  322MOL0     C44320   8.145   2.295   9.878  0.8780 -0.5630  0.3871
  322MOL0     C44321   8.004   2.252   9.937  0.0143 -0.4869 -0.1289
  322MOL0     O44322   7.901   2.344   9.906  0.4293 -0.1839  0.3067
  322MOL0     C44323   7.774   2.307   9.935  0.8939 -0.2697 -0.0592
  322MOL0     C44324   7.730   2.177   9.953  0.4190 -1.0007  0.1435
  322MOL0     C44325   7.593   2.148   9.990  0.0533  0.4142 -0.6564
  322MOL0     C44326   7.566   1.999  10.001  0.2487 -0.0450 -0.0895
  322MOL0     C44327   7.499   2.247  10.012 -0.5692 -1.4633  1.3383
  322MOL0     C44328   7.354   2.221  10.025 -0.8918  0.3993 -0.2181
  322MOL0     O44329   7.325   2.150  10.137  0.7881  0.3158  0.3215
  322MOL0     C44330   7.203   2.093  10.140 -0.3410 -0.2096 -0.6780
  322MOL0     C44331   7.139   2.117  10.264 -1.0364  0.0978  0.1163
  322MOL0     C44332   7.015   2.051  10.286 -0.0954  0.5953  0.7449
  322MOL0     C44333   6.948   1.982  10.181  0.7729 -0.7257 -0.2784
  322MOL0     O44334   6.829   1.920  10.198 -0.3572  0.0555 -0.1309
  322MOL0     C44335   6.730   1.988  10.267  0.1456 -1.3034 -0.0379
  322MOL0     C44336   6.596   1.927  10.257 -0.1754 -0.9527  0.4360
  322MOL0     C44337   6.497   2.003  10.360  0.1055  0.2355  0.3464
  322MOL0     C44338   6.363   1.934  10.403  0.3038 -0.2585  0.2326
  322MOL0     C44339   6.288   1.878  10.281  0.1092  0.0160  0.1147
  322MOL0     C44340   6.144   1.863  10.303  0.5667 -0.3989  0.4757
  322MOL0     C44341   6.065   1.857  10.167  0.1621 -0.4218 -0.2299
  322MOL0     C44342   5.920   1.806  10.184 -0.6571 -0.2916  0.2618
  322MOL0    Cl44343   5.846   1.770  10.025  0.2439  0.0723 -0.4188
  322MOL0     C44344   7.007   1.972  10.057 -0.4710  0.4176 -0.0072
  322MOL0     C44345   7.136   2.022  10.042 -0.3423 -0.9207  0.3358
  322MOL0     O44346   7.267   2.273   9.950  0.4772  1.0391  0.1788
  322MOL0     C44347   7.539   2.377   9.975 -0.2064  0.0420 -0.1212
  322MOL0     C44348   7.670   2.408   9.942  0.3338 -0.9566 -0.6420
  322MOL0     N44349   8.484   1.966   9.862 -0.3768 -0.5320  0.0836
  322MOL0     N44350   8.569   1.888   9.815 -1.2201 -0.4618 -0.1949
  322MOL0     C44351   9.412   1.531   9.264  0.5120 -0.3880 -0.9181
  322MOL0     C44352   9.528   1.583   9.231  0.3687 -1.0495  0.5946
  322MOL0     C44353   9.817   1.907   9.039  0.5544  1.0663 -0.3086
  322MOL0     C44354   9.817   2.024   8.964 -0.3966  0.1464  0.6820
  322MOL0     C44355   9.940   2.074   8.913 -0.4338  0.2563  0.8016
  322MOL0     C44356  10.060   2.003   8.942 -0.0740 -0.2675  0.9033
  322MOL0     O44357  10.177   2.052   8.880  0.5357  0.2302 -0.1467
  322MOL0     C44358  10.199   2.191   8.898 -0.3777 -0.6228  0.1415
  322MOL0     C44359  10.353   2.219   8.871  0.2463 -0.1288  0.6181
  322MOL0     C44360  10.380   2.195   8.720  0.6497 -0.3068  0.0895
  322MOL0     C44361  10.522   2.208   8.678 -0.2491  1.0130 -0.1782
  322MOL0     C44362  10.608   2.099   8.734 -0.8080  0.7236  0.4454
  322MOL0     C44363  10.688   2.014   8.764 -0.3442  0.2207 -0.9276
  322MOL0     C44364  10.059   1.890   9.019  0.7617  0.6932  1.0393
  322MOL0     C44365   9.939   1.830   9.064 -0.7953 -0.1551  0.7040
  322MOL0     C44366   9.944   1.697   9.139 -1.0121 -0.2473 -0.2835
  322MOL0     H44367   9.437   1.780   8.975  0.3588  2.4816  2.1253
  322MOL0     H44368   9.205   1.680   9.047  0.5862  1.2236 -0.4330
  322MOL0     H44369   9.228   1.411   9.416  2.9317 -0.4135 -0.8250
  322MOL0     H44370   9.222   1.295   9.280  0.5454 -0.5718  1.5839
  322MOL0     H44371   8.981   1.307   9.268 -0.7929  3.9990 -0.9476
  322MOL0     H44372   9.054   1.244   9.426  1.1162  1.9648  2.6310
  322MOL0     H44373   8.866   1.365   9.482 -0.1002  0.2892  0.2813
  322MOL0     H44374   9.009   1.458   9.535 -0.0901  1.2596  0.2527
  322MOL0     H44375   8.955   1.605   9.328  1.5106 -1.5565 -0.8658
  322MOL0     H44376   8.810   1.512   9.317  0.6723  0.7305 -0.9486
  322MOL0     H44377   8.873   1.660   9.585  0.3217  0.7212  0.5049
  322MOL0     H44378   8.727   1.565   9.544  1.4928 -0.4856  1.9526
  322MOL0     H44379   8.837   1.814   9.408 -0.0202  0.7473  0.8844
  322MOL0     H44380   8.704   1.729   9.350 -2.2482  0.2473  0.3962
  322MOL0     H44381   8.627   1.750   9.615  1.8258  0.4850  0.2387
  322MOL0     H44382   8.590   1.874   9.497 -0.3521 -0.5417  0.4615
  322MOL0     H44383   8.843   1.890   9.680 -0.7933  0.8551  0.7234
  322MOL0     H44384   8.791   2.004   9.577  2.7377 -1.4510  0.0204
  322MOL0     H44385   8.654   2.158   9.653 -0.8289 -0.4219 -0.4515
  322MOL0     H44386   8.360   2.228   9.713 -4.2632  0.0712  1.4789
  322MOL0     H44387   8.439   2.298   9.859 -2.0164  0.9079  0.9471
  322MOL0     H44388   8.222   2.094   9.914 -2.1648  0.5681 -1.5450
  322MOL0     H44389   8.283   2.209  10.015  0.3679 -6.8101  1.5249
  322MOL0     H44390   8.167   2.399   9.900  0.4773 -0.3906 -0.0117
  322MOL0     H44391   8.134   2.291   9.769  1.3628  0.1383  0.3060
  322MOL0     H44392   7.987   2.151   9.898  1.3191 -0.5730 -0.5132
  322MOL0     H44393   8.008   2.248  10.047 -1.3854  0.1375 -0.0216
  322MOL0     H44394   7.809   2.103   9.955 -0.7383 -2.2814  0.1705
  322MOL0     H44395   7.463   1.981   9.972  0.4273 -0.1134 -0.6797
  322MOL0     H44396   7.572   1.977  10.108 -1.7429 -1.1848 -0.1749
  322MOL0     H44397   7.635   1.940   9.941  0.2869 -1.8562  1.6171
  322MOL0     H44398   7.196   2.167  10.341  2.5851 -0.0672 -2.2436
  322MOL0     H44399   6.954   2.044  10.376 -1.8193 -0.4812 -0.4494
  322MOL0     H44400   6.760   1.978  10.372 -0.0862 -2.7807 -0.0918
  322MOL0     H44401   6.723   2.096  10.246 -1.8875 -1.0655  1.4696
  322MOL0     H44402   6.564   1.927  10.152 -2.0394 -1.5086  0.9692
  322MOL0     H44403   6.623   1.827  10.291  1.1546  0.0634  2.5842
  322MOL0     H44404   6.477   2.093  10.301  2.5999  1.6004  1.4432
  322MOL0     H44405   6.558   2.025  10.448  1.2389 -0.3122 -0.2797
  322MOL0     H44406   6.305   2.013  10.451  3.2646  3.4347 -1.6996
  322MOL0     H44407   6.396   1.855  10.471 -1.0400 -1.6587 -0.7027
  322MOL0     H44408   6.313   1.940  10.194  1.7220  1.2578  1.4028
  322MOL0     H44409   6.329   1.779  10.262 -0.1943  0.0922 -1.0606
  322MOL0     H44410   6.107   1.947  10.362 -0.8888 -0.3325 -0.4770
  322MOL0     H44411   6.138   1.769  10.357  0.4340 -0.9502 -0.4643
  322MOL0     H44412   6.128   1.794  10.102 -0.4407  0.0478 -1.2959
  322MOL0     H44413   6.055   1.954  10.117 -3.7787 -1.5749 -2.0968
  322MOL0     H44414   5.855   1.879  10.234 -1.9797 -1.8089  0.8685
  322MOL0     H44415   5.917   1.719  10.250 -1.6574  0.0691  0.7244
  322MOL0     H44416   6.956   1.922   9.976  2.0847  0.0085 -1.4503
  322MOL0     H44417   7.179   1.999   9.945 -2.4394  1.9637 -1.4447
  322MOL0     H44418   7.466   2.457   9.984 -0.0396  0.1742  0.0760
  322MOL0     H44419   7.694   2.513   9.932  0.7135 -0.9920 -0.1722
  322MOL0     H44420   9.406   1.466   9.352  0.2888  0.6818 -0.1218
  322MOL0     H44421   9.612   1.584   9.299  0.3718 -0.4649  0.5921
  322MOL0     H44422   9.726   2.079   8.941 -0.2244 -0.2587 -1.1154
  322MOL0     H44423   9.946   2.161   8.849 -1.9120  1.9495  2.8109
  322MOL0     H44424  10.143   2.243   8.820  1.2188 -0.6208 -1.0716
  322MOL0     H44425  10.176   2.220   9.001 -2.2295  1.7471 -0.8667
  322MOL0     H44426  10.411   2.147   8.930 -0.3165 -0.3835  0.8683
  322MOL0     H44427  10.373   2.324   8.892  1.7164 -0.6172  1.8271
  322MOL0     H44428  10.350   2.093   8.691  2.0832  0.0118 -2.8896
  322MOL0     H44429  10.323   2.259   8.653 -0.2358 -3.7033 -2.7402
  322MOL0     H44430  10.562   2.308   8.698  0.0593  1.6080 -3.3045
  322MOL0     H44431  10.519   2.189   8.571  2.2770  0.6154 -0.2522
  322MOL0     H44432  10.755   1.941   8.806 -0.8948 -0.0360 -0.4843
  322MOL0     H44433  10.149   1.831   9.035  1.5534  2.1524  2.2062
  322MOL0     H44434  10.043   1.694   9.185 -1.0588  1.6765  0.0482
  322MOL0     H44435   9.870   1.690   9.219 -0.6529 -0.8048  0.0063
  322MOL0     H44436   9.924   1.608   9.079 -3.3098 -0.1173  0.2003
  323MOL0     O44437   9.552   0.034   4.481  0.5300 -0.1078  0.2844
  323MOL0     C44438   9.457   0.048   4.400  0.5288 -0.3986  0.0028
  323MOL0     O44439   9.461   0.112   4.273  0.5590 -0.3854 -0.1612
  323MOL0     C44440   9.578   0.160   4.227  0.2817  0.0379  0.1787
  323MOL0     C44441   9.594   0.290   4.193  0.2021 -0.2159 -1.4598
  323MOL0     C44442   9.716   0.338   4.152  1.0529 -0.2965 -0.5071
  323MOL0     C44443   9.833   0.259   4.132  0.2757 -0.4691  0.0561
  323MOL0     O44444   9.952   0.299   4.087 -0.2502 -0.8164 -0.4643
  323MOL0     C44445  10.067   0.219   4.112  0.9697  0.8708  0.7601
  323MOL0     C44446  10.191   0.313   4.115  0.0957  0.5570  0.4405
  323MOL0     C44447  10.319   0.229   4.115  0.0556  0.3901  0.2521
  323MOL0     C44448  10.439   0.314   4.123  0.0541  0.4175 -0.7820
  323MOL0     C44449  10.575   0.231   4.113 -0.9032  0.3446  0.8898
  323MOL0     C44450  10.619   0.188   3.965 -0.1399 -0.1347 -0.5313
  323MOL0     C44451  10.754   0.118   3.971  0.1962  0.0901 -0.3151
  323MOL0     C44452  10.757  -0.024   4.026  0.6310 -0.2812  0.1481
  323MOL0     N44453  10.764  -0.116   3.919  0.7882 -0.2786 -0.0964
  323MOL0     C44454  10.702  -0.124   3.794 -0.3369  1.3499 -0.2137
  323MOL0     C44455  10.747  -0.247   3.740  0.0693 -1.5394 -0.5551
  323MOL0     C44456  10.717  -0.293   3.600  0.1088  1.3555  0.5037
  323MOL0     C44457  10.642  -0.424   3.599 -0.5480  1.1072 -0.9576
  323MOL0     C44458  10.508  -0.425   3.673  0.2695 -0.3978  0.1363
  323MOL0     C44459  10.435  -0.560   3.663  1.0738 -0.3349  0.3704
  323MOL0     O44460  10.403  -0.586   3.521 -0.0218 -0.2849 -0.6687
  323MOL0     C44461  10.376  -0.719   3.493 -0.2905  0.4270 -0.1945
  323MOL0     C44462  10.371  -0.757   3.356 -1.3455 -0.3914 -0.1261
  323MOL0     C44463  10.357  -0.893   3.323 -0.2188 -0.0128  0.1990
  323MOL0     C44464  10.346  -0.919   3.172 -0.2258  0.3644 -0.2770
  323MOL0     C44465  10.329  -0.985   3.424 -0.3647  0.1694  0.8110
  323MOL0     C44466  10.294  -1.123   3.410 -1.6448 -0.5650  0.2500
  323MOL0     O44467  10.261  -1.193   3.526  0.0291  1.1255  0.2463
  323MOL0     C44468  10.258  -1.324   3.516  0.1301 -0.5258  0.3706
  323MOL0     C44469  10.150  -1.389   3.464  0.2768  0.4475  0.0578
  323MOL0     C44470  10.132  -1.527   3.475 -0.3436  0.5610 -0.2704
  323MOL0     C44471  10.231  -1.605   3.528  1.0131 -0.6172  0.9556
  323MOL0     O44472  10.221  -1.739   3.527  0.3520 -0.1671 -0.4693
  323MOL0     C44473  10.101  -1.801   3.590  0.1769 -0.2362  0.8592
  323MOL0     C44474  10.055  -1.734   3.725 -0.0930 -0.8246 -0.1370
  323MOL0     C44475   9.943  -1.820   3.790 -0.7084  0.6927 -0.1504
  323MOL0     C44476   9.879  -1.753   3.911 -0.1445 -0.5998  0.6880
  323MOL0     C44477   9.972  -1.767   4.042 -0.6197 -0.1612  0.0399
  323MOL0     C44478   9.895  -1.753   4.164 -0.5378  0.2053  0.4622
  323MOL0     C44479   9.975  -1.767   4.294 -0.4957  0.6918  0.7631
  323MOL0     C44480  10.057  -1.651   4.331 -0.7234 -0.4751 -0.2121
  323MOL0    Cl44481   9.950  -1.523   4.375  0.0435  0.2582 -0.5355
  323MOL0     C44482  10.355  -1.542   3.561  0.2752 -0.4491  0.5515
  323MOL0     C44483  10.367  -1.404   3.555 -0.4277  0.0322  0.9079
  323MOL0     O44484  10.309  -1.181   3.297 -0.0001  0.1070  0.3956
  323MOL0     C44485  10.326  -0.942   3.556 -0.5750 -0.1487 -0.8981
  323MOL0     C44486  10.356  -0.814   3.588  0.1317  0.2711 -0.5699
  323MOL0     N44487  10.840  -0.299   3.823  0.1100  0.4829  0.8049
  323MOL0     N44488  10.844  -0.225   3.931 -0.3808 -0.1698 -0.4066
  323MOL0     C44489   9.807   0.125   4.151 -0.5718 -0.0628 -0.4608
  323MOL0     C44490   9.683   0.075   4.194  0.3361 -1.0244  0.1901
  323MOL0     C44491   9.319   0.011   4.439 -0.1251  0.0171 -0.6818
  323MOL0     C44492   9.240   0.077   4.535  0.4956 -0.9231  0.2768
  323MOL0     C44493   9.119   0.027   4.570  0.7735 -0.5400  0.1386
  323MOL0     C44494   9.072  -0.097   4.522  0.1341 -0.8424 -0.2139
  323MOL0     O44495   8.954  -0.158   4.555  0.4050 -0.6769  0.0211
  323MOL0     C44496   8.849  -0.096   4.632 -1.1355  0.1802 -0.2912
  323MOL0     C44497   8.778   0.031   4.560 -0.2320 -0.2787 -0.5461
  323MOL0     C44498   8.719  -0.016   4.428  0.0582  0.4683  0.1437
  323MOL0     C44499   8.608   0.076   4.370 -0.1223 -0.0598 -0.2962
  323MOL0     C44500   8.651   0.130   4.238 -0.1697  0.9086 -0.1111
  323MOL0     C44501   8.712   0.176   4.142  0.3827 -0.5826  0.2863
  323MOL0     C44502   9.143  -0.160   4.424 -0.2425 -0.3634  0.0310
  323MOL0     C44503   9.268  -0.110   4.379 -0.2165  0.4099 -0.2741
  323MOL0     C44504   9.353  -0.197   4.283 -0.3853 -0.0032  0.5944
  323MOL0     H44505   9.512   0.358   4.213 -2.5810 -4.0003  1.5695
  323MOL0     H44506   9.721   0.440   4.116  2.5444 -0.3302 -0.4609
  323MOL0     H44507  10.079   0.138   4.039  0.3837  0.5864  0.9740
  323MOL0     H44508  10.062   0.182   4.215 -0.0120  1.7105  1.0379
  323MOL0     H44509  10.195   0.364   4.018  1.1025 -0.1397  0.0975
  323MOL0     H44510  10.171   0.391   4.190 -2.1147  1.4390 -0.9571
  323MOL0     H44511  10.319   0.144   4.184  0.7379  1.2723  1.3738
  323MOL0     H44512  10.314   0.179   4.018  1.3414  1.4865 -0.4082
  323MOL0     H44513  10.443   0.392   4.047  3.6656 -0.0336 -1.2391
  323MOL0     H44514  10.430   0.365   4.220 -1.0602 -0.0631 -0.6171
  323MOL0     H44515  10.544   0.140   4.166 -1.9617 -2.2785 -3.6924
  323MOL0     H44516  10.652   0.282   4.171  1.6520  0.3088 -2.2439
  323MOL0     H44517  10.543   0.123   3.921  1.0946 -3.4839  1.8524
  323MOL0     H44518  10.633   0.277   3.904 -2.4241 -0.3062 -1.3875
  323MOL0     H44519  10.822   0.175   4.035  0.9420  0.7400 -1.6417
  323MOL0     H44520  10.800   0.124   3.872  1.0181  1.2153  0.1147
  323MOL0     H44521  10.833  -0.034   4.104  3.8884 -1.0082 -2.8722
  323MOL0     H44522  10.658  -0.046   4.068 -0.4431  0.8667 -1.6211
  323MOL0     H44523  10.633  -0.056   3.745  0.3817  1.0449 -1.7149
  323MOL0     H44524  10.812  -0.308   3.547 -0.3113 -0.5223  0.2394
  323MOL0     H44525  10.658  -0.216   3.549  0.0687  0.0869 -1.4780
  323MOL0     H44526  10.620  -0.438   3.493 -0.6147 -0.7845 -0.7212
  323MOL0     H44527  10.715  -0.504   3.616  0.2235  1.6554 -1.6154
  323MOL0     H44528  10.521  -0.407   3.780  0.1207  0.9022 -0.0400
  323MOL0     H44529  10.453  -0.338   3.634  3.4523  0.7978 -2.0801
  323MOL0     H44530  10.512  -0.629   3.701 -0.7765 -3.0977 -0.5669
  323MOL0     H44531  10.351  -0.566   3.733  1.2331 -3.1982  0.4346
  323MOL0     H44532  10.380  -0.679   3.281 -1.4823 -1.5494 -1.3875
  323MOL0     H44533  10.404  -0.849   3.111  1.5833 -2.3117 -1.8454
  323MOL0     H44534  10.241  -0.909   3.145 -0.7439  0.3470  1.6060
  323MOL0     H44535  10.378  -1.019   3.140 -0.1376  1.4085 -3.8522
  323MOL0     H44536  10.074  -1.322   3.424  2.9101  1.6359 -3.4531
  323MOL0     H44537  10.041  -1.576   3.440  0.7874 -0.9016 -1.2824
  323MOL0     H44538  10.028  -1.789   3.509  0.4423  1.1414  0.8014
  323MOL0     H44539  10.116  -1.908   3.604  0.5971 -0.1692  0.9269
  323MOL0     H44540  10.143  -1.712   3.787  2.1491 -1.2636 -2.9810
  323MOL0     H44541  10.003  -1.640   3.700 -0.5879 -0.0805  3.1374
  323MOL0     H44542   9.980  -1.919   3.820 -1.1643  0.2498 -1.0047
  323MOL0     H44543   9.875  -1.859   3.714 -0.9703 -1.0318  0.9109
  323MOL0     H44544   9.778  -1.794   3.917 -0.1542 -1.3473 -2.5070
  323MOL0     H44545   9.852  -1.649   3.887  1.0659 -0.1773  1.0899
  323MOL0     H44546  10.022  -1.864   4.036  0.1021  0.2232 -0.3746
  323MOL0     H44547  10.047  -1.688   4.036 -1.4570  0.7775  1.5340
  323MOL0     H44548   9.814  -1.826   4.161 -2.4519  2.2344 -2.2126
  323MOL0     H44549   9.839  -1.659   4.159  0.8539  1.0047 -2.1883
  323MOL0     H44550  10.040  -1.854   4.281 -0.0850  1.0821  0.1487
  323MOL0     H44551   9.911  -1.783   4.382  0.3648  1.4232  1.5488
  323MOL0     H44552  10.107  -1.608   4.243 -0.8968 -0.2993 -0.2243
  323MOL0     H44553  10.135  -1.663   4.406  1.1997  2.0279 -1.6628
  323MOL0     H44554  10.431  -1.605   3.607  0.9814  0.1421  0.2085
  323MOL0     H44555  10.462  -1.362   3.585 -0.8135  2.0233 -0.5116
  323MOL0     H44556  10.312  -1.012   3.638  1.8456  1.7198  1.2651
  323MOL0     H44557  10.344  -0.777   3.690 -1.1389  1.0423 -0.9788
  323MOL0     H44558   9.895   0.061   4.149  2.3518  3.4711  1.7261
  323MOL0     H44559   9.669  -0.031   4.209  1.7777 -1.2918 -0.2264
  323MOL0     H44560   9.271   0.160   4.598  2.3674 -0.1799 -1.4975
  323MOL0     H44561   9.062   0.078   4.648  2.1095  1.5815 -0.1894
  323MOL0     H44562   8.773  -0.164   4.672 -0.9693  1.9414  3.3390
  323MOL0     H44563   8.893  -0.070   4.728 -0.0595 -0.2232 -0.6597
  323MOL0     H44564   8.856   0.107   4.550  0.3715 -0.5645  1.5520
  323MOL0     H44565   8.695   0.067   4.622 -1.9211 -1.7195 -1.8418
  323MOL0     H44566   8.793  -0.034   4.350  0.9810 -0.5641  1.2222
  323MOL0     H44567   8.671  -0.112   4.453  3.5362 -1.5266 -0.1986
  323MOL0     H44568   8.582   0.154   4.442  0.0467 -1.0625  0.8806
  323MOL0     H44569   8.526   0.006   4.353  1.1949 -1.1371 -2.7936
  323MOL0     H44570   8.751   0.229   4.058  1.4730 -2.9810 -0.8071
  323MOL0     H44571   9.101  -0.249   4.378  1.0441 -1.5693  1.0911
  323MOL0     H44572   9.442  -0.242   4.328 -1.4085 -0.4689  2.2666
  323MOL0     H44573   9.295  -0.280   4.242  1.4572 -1.0016 -0.0913
  323MOL0     H44574   9.367  -0.136   4.193 -0.4722 -1.1650 -0.2326
  324MOL0     O44575  10.863   4.315   6.570 -0.6590 -0.6456 -0.4765
  324MOL0     C44576  10.800   4.411   6.609 -0.0899  0.2627 -0.7350
  324MOL0     O44577  10.823   4.473   6.734  0.0940 -0.1432  0.0603
  324MOL0     C44578  10.836   4.410   6.855 -0.4229  0.1030 -0.9349
  324MOL0     C44579  10.851   4.270   6.879 -0.8138  0.5915 -0.2963
  324MOL0     C44580  10.846   4.215   7.011  0.4751  0.0555  0.3272
  324MOL0     C44581  10.842   4.300   7.128 -0.2093 -0.7816 -0.2062
  324MOL0     O44582  10.827   4.270   7.260  0.1805  0.0884 -0.5029
  324MOL0     C44583  10.798   4.132   7.287 -0.5433 -0.1792  0.2563
  324MOL0     C44584  10.835   4.094   7.426 -0.5408  0.1117  0.6188
  324MOL0     C44585  10.855   3.947   7.438 -0.0302  0.0871  0.7889
  324MOL0     C44586  10.875   3.912   7.586 -0.2352 -0.9078  0.1186
  324MOL0     C44587  10.827   3.776   7.625  0.5529  0.0416  0.3720
  324MOL0     C44588  10.913   3.663   7.569 -0.8124  0.3658 -0.5168
  324MOL0     C44589  10.910   3.530   7.643  0.6478  0.2825 -0.2713
  324MOL0     C44590  11.001   3.431   7.579  0.9719 -0.4616 -0.5170
  324MOL0     N44591  11.140   3.459   7.604  0.6890 -0.7212  0.1675
  324MOL0     C44592  11.206   3.473   7.723 -0.1027 -0.8040 -0.7214
  324MOL0     C44593  11.333   3.516   7.690 -0.0561  0.7037  0.8086
  324MOL0     C44594  11.440   3.553   7.782 -0.5939 -0.0013  0.2750
  324MOL0     C44595  11.587   3.532   7.737  0.2434  0.0022  0.1235
  324MOL0     C44596  11.684   3.629   7.816 -0.2564 -1.4276  0.3905
  324MOL0     C44597  11.835   3.624   7.782  0.0826 -0.1669 -0.7705
  324MOL0     O44598  11.904   3.695   7.880 -0.1139 -0.4749  0.3887
  324MOL0     C44599  11.989   3.798   7.844  0.1586 -0.6159  0.0272
  324MOL0     C44600  11.991   3.918   7.927  0.1711 -0.1223  0.4248
  324MOL0     C44601  12.054   4.038   7.879 -0.1570  0.0622  0.5170
  324MOL0     C44602  12.027   4.157   7.955 -0.1867 -1.0262  0.2168
  324MOL0     C44603  12.121   4.035   7.746  0.1122 -0.0714  0.7300
  324MOL0     C44604  12.197   4.150   7.690 -0.0972 -0.9084  0.0185
  324MOL0     O44605  12.220   4.141   7.551  0.7027  0.4868  0.0878
  324MOL0     C44606  12.302   4.224   7.487  0.3607  0.5887 -0.3185
  324MOL0     C44607  12.258   4.238   7.360 -0.1191 -0.3732  0.7638
  324MOL0     C44608  12.340   4.298   7.261 -0.2915 -0.2018 -0.4619
  324MOL0     C44609  12.459   4.358   7.298  0.0599 -0.0921 -0.5182
  324MOL0     O44610  12.541   4.423   7.208  0.7072 -0.4321 -0.9616
  324MOL0     C44611  12.575   4.562   7.233  1.4483 -0.2846 -0.3667
  324MOL0     C44612  12.454   4.654   7.197 -0.6694  0.6790  0.6467
  324MOL0     C44613  12.422   4.631   7.042  0.2280 -0.1691  0.3450
  324MOL0     C44614  12.300   4.715   7.009  0.6288 -0.4689 -0.6366
  324MOL0     C44615  12.157   4.644   7.011  0.6177  0.5140  0.3453
  324MOL0     C44616  12.096   4.630   7.164  0.1846  0.1758  0.0149
  324MOL0     C44617  11.942   4.610   7.179  0.6690 -0.4163  0.4428
  324MOL0     C44618  11.888   4.504   7.081 -0.3539 -0.3888 -0.0306
  324MOL0    Cl44619  11.976   4.366   7.137  0.1910  0.1067  0.3105
  324MOL0     C44620  12.500   4.346   7.430  0.0389 -0.0687 -0.4378
  324MOL0     C44621  12.425   4.280   7.526 -0.5316  0.8122 -0.0724
  324MOL0     O44622  12.256   4.228   7.760 -0.1439  0.1955 -0.0499
  324MOL0     C44623  12.128   3.909   7.678 -1.4295  0.7477  0.5327
  324MOL0     C44624  12.068   3.797   7.729 -0.3812  0.2515 -0.6518
  324MOL0     N44625  11.338   3.524   7.556 -0.3500  0.5662  0.6005
  324MOL0     N44626  11.226   3.490   7.507 -0.8917  0.7703  0.0522
  324MOL0     C44627  10.837   4.436   7.098 -0.6719  0.4312 -0.2364
  324MOL0     C44628  10.837   4.487   6.967  0.8887  0.3298 -0.2734
  324MOL0     C44629  10.716   4.471   6.501 -0.3026 -0.3964 -0.4541
  324MOL0     C44630  10.760   4.450   6.371  0.2458 -1.7468 -0.3710
  324MOL0     C44631  10.679   4.485   6.264 -0.4633  0.2395 -0.1985
  324MOL0     C44632  10.552   4.550   6.283  0.5529  1.0861 -0.2229
  324MOL0     O44633  10.472   4.593   6.176  0.1058 -0.8740  0.4830
  324MOL0     C44634  10.515   4.575   6.041 -0.5010  0.0806 -0.9674
  324MOL0     C44635  10.619   4.687   6.001  0.3044 -0.0797  0.1460
  324MOL0     C44636  10.672   4.678   5.850 -0.2873 -0.3889 -1.0744
  324MOL0     C44637  10.786   4.580   5.844 -0.4342  0.2520 -0.1471
  324MOL0     C44638  10.907   4.612   5.926 -0.3115 -0.2599  0.1044
  324MOL0     C44639  11.006   4.649   5.978 -0.4714  0.7096 -0.0155
  324MOL0     C44640  10.510   4.561   6.410  0.5740  0.1309 -0.0480
  324MOL0     C44641  10.588   4.526   6.519 -0.0969 -0.3303  0.0482
  324MOL0     C44642  10.525   4.554   6.654 -0.1130  0.0552  0.2308
  324MOL0     H44643  10.852   4.208   6.790 -7.2371 -1.4200  0.5123
  324MOL0     H44644  10.849   4.107   7.022  0.5627  0.0903  0.6345
  324MOL0     H44645  10.867   4.081   7.219  0.5827  1.1660  0.3467
  324MOL0     H44646  10.695   4.110   7.260 -0.0925  0.3206 -2.0901
  324MOL0     H44647  10.928   4.147   7.447 -0.8987  1.2588 -0.5471
  324MOL0     H44648  10.749   4.132   7.481  0.2928 -0.1388  2.1441
  324MOL0     H44649  10.769   3.896   7.394 -0.0470  0.7454  0.0353
  324MOL0     H44650  10.950   3.929   7.387  0.2328  0.2984  1.1992
  324MOL0     H44651  10.982   3.922   7.608 -0.0340 -2.4763 -0.0315
  324MOL0     H44652  10.817   3.989   7.638 -1.5924 -0.5907 -1.7753
  324MOL0     H44653  10.721   3.765   7.602  0.9601 -3.0021 -0.4396
  324MOL0     H44654  10.826   3.770   7.735  0.7375 -0.0709  0.3689
  324MOL0     H44655  10.895   3.657   7.461 -0.4154  0.6403 -0.6004
  324MOL0     H44656  11.014   3.705   7.570  0.3605 -2.2553 -0.1918
  324MOL0     H44657  10.805   3.498   7.647  0.6942  0.0127 -1.0837
  324MOL0     H44658  10.943   3.543   7.746  0.8008 -0.8814 -0.1590
  324MOL0     H44659  10.983   3.330   7.618 -2.2158  0.2046 -0.0486
  324MOL0     H44660  10.979   3.417   7.473 -1.4937 -4.3443  0.3160
  324MOL0     H44661  11.162   3.451   7.820 -0.9540  0.4017 -0.8168
  324MOL0     H44662  11.430   3.482   7.865 -1.1997  0.4879  0.6302
  324MOL0     H44663  11.421   3.655   7.815  0.5409  0.7103 -1.1680
  324MOL0     H44664  11.621   3.428   7.742 -0.0141 -0.3671 -3.3184
  324MOL0     H44665  11.599   3.556   7.631  3.0205  2.9349  0.9238
  324MOL0     H44666  11.650   3.730   7.790 -0.5435 -1.2563  1.3664
  324MOL0     H44667  11.680   3.612   7.924  3.1728 -0.2517  0.8308
  324MOL0     H44668  11.873   3.522   7.784 -0.9518 -0.6286  2.8560
  324MOL0     H44669  11.835   3.672   7.684 -0.9932 -0.2935 -0.8512
  324MOL0     H44670  11.918   3.923   8.007 -0.2821  2.5552 -0.0816
  324MOL0     H44671  12.107   4.175   8.028  0.7825 -1.1458 -0.8039
  324MOL0     H44672  11.927   4.149   7.999 -1.7805  1.4013 -2.6201
  324MOL0     H44673  12.014   4.237   7.882 -1.1783 -2.9720 -1.8418
  324MOL0     H44674  12.167   4.186   7.329  1.3882 -3.1938  0.6739
  324MOL0     H44675  12.297   4.301   7.162 -0.4366  1.8287 -0.3795
  324MOL0     H44676  12.594   4.574   7.340 -2.9048  2.5817  0.3350
  324MOL0     H44677  12.656   4.598   7.169 -0.2411  2.5018 -1.0808
  324MOL0     H44678  12.367   4.612   7.249 -1.3333 -2.1709 -2.3830
  324MOL0     H44679  12.474   4.759   7.218  0.8755  0.7547 -0.9698
  324MOL0     H44680  12.396   4.527   7.019 -0.3755  0.1641 -0.4889
  324MOL0     H44681  12.511   4.652   6.982  1.9565 -3.4856  1.4730
  324MOL0     H44682  12.314   4.762   6.911  1.5351  0.5878 -0.0243
  324MOL0     H44683  12.291   4.800   7.078  0.8427  0.2374 -1.4626
  324MOL0     H44684  12.087   4.712   6.961 -0.8844 -0.9682  0.3092
  324MOL0     H44685  12.158   4.545   6.965  0.9958  0.8832 -0.4791
  324MOL0     H44686  12.122   4.718   7.224  2.7390 -0.2459 -0.3322
  324MOL0     H44687  12.144   4.541   7.206 -0.0876 -1.3875 -2.7438
  324MOL0     H44688  11.887   4.702   7.159  0.4527 -1.0416 -2.1232
  324MOL0     H44689  11.918   4.576   7.280 -3.9199  3.1372  0.8454
  324MOL0     H44690  11.913   4.522   6.976  4.4858  0.3625  1.0014
  324MOL0     H44691  11.782   4.477   7.090 -0.1081 -1.0792  0.8450
  324MOL0     H44692  12.594   4.391   7.464 -1.7376  1.9223  2.3134
  324MOL0     H44693  12.463   4.266   7.627  0.2740  0.3160 -0.4334
  324MOL0     H44694  12.173   3.901   7.579 -0.0984  0.6287  1.1378
  324MOL0     H44695  12.073   3.717   7.656  1.4052  0.2151 -0.5233
  324MOL0     H44696  10.810   4.510   7.173 -0.4419 -0.8994  1.2216
  324MOL0     H44697  10.825   4.595   6.958 -0.4640  0.2713  0.5344
  324MOL0     H44698  10.849   4.399   6.336  0.0385  0.4540 -4.9346
  324MOL0     H44699  10.714   4.460   6.164 -3.5159 -1.8872 -0.8743
  324MOL0     H44700  10.561   4.476   6.030  2.1152  1.2094 -1.0794
  324MOL0     H44701  10.436   4.569   5.966  2.5703 -0.0482 -4.4415
  324MOL0     H44702  10.701   4.684   6.073  0.8028  2.2819 -0.2276
  324MOL0     H44703  10.561   4.779   6.006 -1.0789 -0.8805 -0.3501
  324MOL0     H44704  10.594   4.641   5.784 -1.2656 -2.8424  1.2554
  324MOL0     H44705  10.706   4.777   5.819 -2.5848  1.3553  1.5108
  324MOL0     H44706  10.822   4.573   5.742  3.5263  1.2198  1.0257
  324MOL0     H44707  10.747   4.481   5.873  1.8429 -0.9265 -0.9014
  324MOL0     H44708  11.103   4.670   6.018  1.1810 -1.7285 -2.3981
  324MOL0     H44709  10.414   4.610   6.422  0.0341 -0.9110 -0.0159
  324MOL0     H44710  10.492   4.469   6.715  0.8464  0.4536  1.3346
  324MOL0     H44711  10.604   4.598   6.716  0.3603 -0.3056 -0.1095
  324MOL0     H44712  10.439   4.621   6.643 -0.5901 -0.7120 -0.9875
  325MOL0     O44713   8.688   9.050   4.119  0.0839 -0.0864 -0.0394
  325MOL0     C44714   8.638   8.950   4.177  0.2060 -0.7038 -0.8380
  325MOL0     O44715   8.503   8.919   4.174 -0.1722  0.3666  0.0468
  325MOL0     C44716   8.421   8.945   4.074 -0.8958 -0.3692  1.1611
  325MOL0     C44717   8.296   8.984   4.107 -0.5605 -0.8333 -0.1165
  325MOL0     C44718   8.212   9.033   4.015 -0.4968  0.0804  0.2299
  325MOL0     C44719   8.253   9.046   3.873 -0.5468  0.7106 -0.0018
  325MOL0     O44720   8.169   9.092   3.781  0.7614  0.2382 -0.2262
  325MOL0     C44721   8.209   9.215   3.714  0.2263 -0.0536 -0.1135
  325MOL0     C44722   8.133   9.326   3.780  0.0860  0.1495  0.6051
  325MOL0     C44723   7.987   9.335   3.736  0.3312 -0.2449 -0.4769
  325MOL0     C44724   7.947   9.385   3.592 -0.0684  0.5018 -0.3091
  325MOL0     C44725   7.794   9.421   3.568  0.1648  0.6876 -0.8151
  325MOL0     C44726   7.764   9.480   3.431 -0.7993  0.4365 -0.3045
  325MOL0     C44727   7.766   9.371   3.325  0.3815  0.8562 -0.2034
  325MOL0     C44728   7.676   9.248   3.341  0.3559 -0.5416  0.7525
  325MOL0     N44729   7.538   9.304   3.347 -0.0334  0.2879  1.0455
  325MOL0     C44730   7.460   9.301   3.455  0.6892  0.5829 -0.3137
  325MOL0     C44731   7.333   9.297   3.404 -0.1425 -0.0935  0.0788
  325MOL0     C44732   7.206   9.275   3.477 -0.1768  0.0966 -0.1886
  325MOL0     C44733   7.163   9.126   3.483  0.1089  0.7356  0.2183
  325MOL0     C44734   7.252   9.044   3.577 -0.0270  0.1604  0.8384
  325MOL0     C44735   7.383   8.990   3.515 -0.5053  1.1964  0.6228
  325MOL0     O44736   7.501   9.016   3.598  0.4281  0.2490 -0.1703
  325MOL0     C44737   7.616   8.961   3.555 -0.3849  0.1107  0.5505
  325MOL0     C44738   7.621   8.883   3.435  0.2291 -0.9646  0.6352
  325MOL0     C44739   7.740   8.843   3.383 -0.3662 -0.3484  0.2032
  325MOL0     C44740   7.726   8.757   3.257 -0.0991  0.9203  0.7030
  325MOL0     C44741   7.858   8.888   3.440  0.1336 -0.2697  1.2584
  325MOL0     C44742   7.996   8.864   3.378  0.3049  0.4136 -1.2241
  325MOL0     O44743   8.107   8.913   3.446  0.1466  0.1399 -0.7658
  325MOL0     C44744   8.232   8.862   3.417  0.6758  0.3266 -0.0465
  325MOL0     C44745   8.322   8.823   3.520  1.0373 -0.3024 -0.3714
  325MOL0     C44746   8.449   8.778   3.488 -0.0427  0.1649 -0.6632
  325MOL0     C44747   8.501   8.782   3.355  0.3235 -1.3268 -0.2022
  325MOL0     O44748   8.628   8.742   3.317  0.9019 -0.6425 -0.5269
  325MOL0     C44749   8.742   8.785   3.400  0.3313  0.2891  0.8885
  325MOL0     C44750   8.778   8.937   3.413  0.7427  0.6970 -0.6243
  325MOL0     C44751   8.767   9.010   3.278  0.0171  0.0199 -0.6061
  325MOL0     C44752   8.826   9.157   3.272  0.1166  0.3162 -0.0929
  325MOL0     C44753   8.769   9.266   3.360  0.1811  0.4650  0.3577
  325MOL0     C44754   8.828   9.403   3.318 -0.1866 -0.2998 -0.6259
  325MOL0     C44755   8.736   9.518   3.374  0.1868 -0.4240 -0.5241
  325MOL0     C44756   8.763   9.665   3.315  0.2961  1.1911  0.5544
  325MOL0    Cl44757   8.639   9.782   3.371 -0.4178  0.1895  0.7286
  325MOL0     C44758   8.408   8.828   3.252 -1.0452  0.6232 -0.0253
  325MOL0     C44759   8.284   8.870   3.288  0.8310  0.3692 -0.2307
  325MOL0     O44760   8.008   8.793   3.271  0.6747 -0.7193 -1.4166
  325MOL0     C44761   7.855   8.966   3.561 -0.1913 -0.4443 -0.8827
  325MOL0     C44762   7.730   8.998   3.620 -0.4395  0.6360  0.6198
  325MOL0     N44763   7.345   9.300   3.265 -0.4813 -0.8617 -0.4164
  325MOL0     N44764   7.470   9.308   3.231  0.2425  0.3845 -0.0094
  325MOL0     C44765   8.384   9.006   3.840  0.3185 -0.2394 -0.3334
  325MOL0     C44766   8.465   8.946   3.940  0.4277 -0.6779  0.4548
  325MOL0     C44767   8.731   8.856   4.240 -0.5024  0.1220  0.1394
  325MOL0     C44768   8.849   8.911   4.298 -0.0292 -0.2927  0.6637
  325MOL0     C44769   8.952   8.828   4.342  0.5197  0.5244 -0.2567
  325MOL0     C44770   8.940   8.689   4.330  0.2350  1.4781 -0.6168
  325MOL0     O44771   9.049   8.617   4.367  0.5296 -0.0016  0.7291
  325MOL0     C44772   9.152   8.591   4.273 -0.2095  0.0246  0.0660
  325MOL0     C44773   9.121   8.469   4.194 -0.4185  0.4262 -0.3004
  325MOL0     C44774   9.211   8.441   4.076  1.0798 -0.4382 -0.5780
  325MOL0     C44775   9.356   8.430   4.130 -0.6037  0.3839 -0.3170
  325MOL0     C44776   9.429   8.336   4.042 -0.9509  0.0843 -0.7963
  325MOL0     C44777   9.495   8.268   3.970  0.2725  0.3640 -0.1836
  325MOL0     C44778   8.829   8.626   4.272 -0.7120  0.1443  0.0743
  325MOL0     C44779   8.728   8.716   4.225  0.0060  0.6184  0.3581
  325MOL0     C44780   8.622   8.656   4.149  0.0378  0.2879 -0.5585
  325MOL0     H44781   8.256   8.966   4.207 -3.4034 -0.4985 -1.1019
  325MOL0     H44782   8.109   9.053   4.042 -1.2960  2.4465 -3.6436
  325MOL0     H44783   8.182   9.219   3.608  1.1279  0.0230 -0.3443
  325MOL0     H44784   8.317   9.228   3.708  0.0977  0.6156 -1.1955
  325MOL0     H44785   8.139   9.326   3.889 -2.5808 -3.5394  0.9520
  325MOL0     H44786   8.186   9.415   3.745  1.6856 -0.2666  1.8933
  325MOL0     H44787   7.937   9.238   3.746  0.8689 -0.6094 -1.3382
  325MOL0     H44788   7.944   9.408   3.806  1.4937  0.5818 -0.5987
  325MOL0     H44789   7.999   9.474   3.557 -2.5452  1.0639 -2.9083
  325MOL0     H44790   7.979   9.307   3.523  0.9025  2.6229 -2.3793
  325MOL0     H44791   7.773   9.494   3.646 -1.7324  0.1956 -0.8344
  325MOL0     H44792   7.740   9.329   3.593 -0.2005  1.7980  3.1775
  325MOL0     H44793   7.668   9.530   3.442 -2.1601 -2.1427  0.3825
  325MOL0     H44794   7.843   9.552   3.407  3.1074 -3.8088 -1.6594
  325MOL0     H44795   7.870   9.336   3.321 -0.5469 -2.0855 -1.0706
  325MOL0     H44796   7.755   9.412   3.224 -1.9220 -3.0288 -1.7292
  325MOL0     H44797   7.689   9.181   3.255  2.4216 -1.3996  1.6553
  325MOL0     H44798   7.700   9.191   3.432  0.3907  1.6912  2.2332
  325MOL0     H44799   7.478   9.294   3.561 -0.9831  1.5346  0.0706
  325MOL0     H44800   7.123   9.334   3.436  0.3089 -0.4224 -2.0150
  325MOL0     H44801   7.216   9.308   3.581  0.9957 -1.0059  0.0656
  325MOL0     H44802   7.064   9.107   3.527  0.7080 -2.8386  0.2761
  325MOL0     H44803   7.157   9.081   3.384  1.2615 -3.6249  1.9145
  325MOL0     H44804   7.290   9.097   3.665 -0.5416  1.0142  0.5571
  325MOL0     H44805   7.194   8.957   3.608  1.8415 -1.7310 -0.6535
  325MOL0     H44806   7.368   8.882   3.507  0.4253  0.6729  4.3695
  325MOL0     H44807   7.409   9.034   3.418  1.8632 -2.6376 -0.6975
  325MOL0     H44808   7.539   8.851   3.372  1.3519 -1.9819 -0.3721
  325MOL0     H44809   7.795   8.672   3.267 -0.1296  0.6894 -0.8147
  325MOL0     H44810   7.755   8.819   3.173  3.9003  0.1820  1.3482
  325MOL0     H44811   7.626   8.714   3.248 -0.4761  1.8958  0.1696
  325MOL0     H44812   8.274   8.829   3.617  1.3796 -0.3315 -0.1982
  325MOL0     H44813   8.533   8.764   3.554  1.3605 -0.1003 -2.4264
  325MOL0     H44814   8.727   8.740   3.499  2.3569 -0.0952  1.0810
  325MOL0     H44815   8.831   8.733   3.362  0.1041  0.8753 -0.4818
  325MOL0     H44816   8.727   8.992   3.492 -1.3564 -0.5886 -1.0154
  325MOL0     H44817   8.880   8.930   3.453 -0.0175 -0.0513  1.2715
  325MOL0     H44818   8.659   9.016   3.263 -0.2687  0.9312  1.4701
  325MOL0     H44819   8.816   8.960   3.194  4.3411  2.5776  0.0857
  325MOL0     H44820   8.817   9.193   3.170 -0.1771  2.3867  0.6125
  325MOL0     H44821   8.932   9.143   3.298  0.1831  1.0074  0.0199
  325MOL0     H44822   8.660   9.263   3.347  0.3272  0.4008 -1.0357
  325MOL0     H44823   8.785   9.248   3.467 -0.6771 -0.3039  0.3717
  325MOL0     H44824   8.825   9.415   3.209  1.9073 -0.3219 -0.7276
  325MOL0     H44825   8.928   9.410   3.362 -0.2456 -1.1769 -0.3264
  325MOL0     H44826   8.746   9.523   3.483 -0.1442  0.0028 -0.5091
  325MOL0     H44827   8.633   9.489   3.350  0.3229 -1.9788  0.5608
  325MOL0     H44828   8.754   9.663   3.206  1.4210  0.3677  0.4485
  325MOL0     H44829   8.859   9.696   3.358 -0.1033  0.9164  1.6589
  325MOL0     H44830   8.433   8.826   3.146  0.3157  0.1357  0.2858
  325MOL0     H44831   8.222   8.905   3.206  1.3955  0.4528 -0.6275
  325MOL0     H44832   7.949   8.984   3.612 -1.9321  0.9127  2.1217
  325MOL0     H44833   7.725   9.056   3.712 -1.2407  1.8984 -0.1714
  325MOL0     H44834   8.414   9.024   3.737  3.9464 -1.5974  0.3229
  325MOL0     H44835   8.569   8.920   3.926  0.1364 -0.6827 -2.1618
  325MOL0     H44836   8.866   9.019   4.297 -0.4211 -0.2221  1.0585
  325MOL0     H44837   9.045   8.863   4.385  0.5881  0.2705 -0.1927
  325MOL0     H44838   9.153   8.683   4.214 -2.2674  0.0163 -0.0522
  325MOL0     H44839   9.248   8.595   4.325  3.1033 -0.2433 -5.2947
  325MOL0     H44840   9.019   8.470   4.153  1.1940 -0.2270 -4.9793
  325MOL0     H44841   9.111   8.385   4.264 -4.2365  0.5963 -0.4410
  325MOL0     H44842   9.178   8.355   4.017 -0.6154 -1.1940  1.3595
  325MOL0     H44843   9.205   8.531   4.015 -2.6587  1.1690  1.7887
  325MOL0     H44844   9.360   8.402   4.235  0.4321 -1.6852 -0.8458
  325MOL0     H44845   9.395   8.531   4.117 -0.0757  0.1828 -0.3427
  325MOL0     H44846   9.550   8.211   3.898 -0.0063  1.1188 -1.0121
  325MOL0     H44847   8.823   8.521   4.247  0.0651  0.2970 -0.7873
  325MOL0     H44848   8.615   8.685   4.044 -2.1911 -0.1364 -0.5835
  325MOL0     H44849   8.632   8.547   4.142 -0.2388  0.3737 -6.2533
  325MOL0     H44850   8.527   8.675   4.201  0.5325  0.8760  0.1510
  326MOL0     O44851   1.066   3.172   7.613  1.1294  0.7539  0.9763
  326MOL0     C44852   1.012   3.107   7.706  1.3227  0.0397  0.5778
  326MOL0     O44853   0.891   3.037   7.691 -0.3949  0.0831 -0.6768
  326MOL0     C44854   0.826   3.052   7.570  0.8396  0.0350  1.1101
  326MOL0     C44855   0.684   3.064   7.583  0.1382  0.5455 -0.3289
  326MOL0     C44856   0.597   3.083   7.470  0.3679 -0.6896 -1.0007
  326MOL0     C44857   0.651   3.079   7.339  0.1591  0.5597  0.4505
  326MOL0     O44858   0.566   3.073   7.231 -0.2325 -0.0904  0.5868
  326MOL0     C44859   0.593   2.985   7.128 -0.6311  0.5088  0.4090
  326MOL0     C44860   0.514   3.033   7.004 -1.1802 -0.1009 -0.4014
  326MOL0     C44861   0.371   3.066   7.034 -0.6257  0.9417 -0.1469
  326MOL0     C44862   0.285   3.055   6.907  0.5996 -0.4175 -0.1100
  326MOL0     C44863   0.140   3.071   6.950 -0.5624  0.2106  0.2480
  326MOL0     C44864   0.047   3.080   6.833 -0.3291  0.4427  0.3616
  326MOL0     C44865  -0.099   3.102   6.893  0.1475  0.2693  0.1963
  326MOL0     C44866  -0.188   3.176   6.784 -0.1302  1.1006 -0.8007
  326MOL0     N44867  -0.311   3.227   6.843  0.1219  0.1202  0.0641
  326MOL0     C44868  -0.421   3.153   6.879 -0.8587 -0.0881  0.0749
  326MOL0     C44869  -0.489   3.248   6.949  0.2686 -0.2590 -0.6576
  326MOL0     C44870  -0.626   3.230   7.011 -0.5597  0.3250  0.4620
  326MOL0     C44871  -0.608   3.216   7.164 -0.0820 -0.9018  0.0700
  326MOL0     C44872  -0.548   3.097   7.230 -0.5145  0.4719  0.3865
  326MOL0     C44873  -0.641   2.975   7.233  1.0252  0.0879  0.0884
  326MOL0     O44874  -0.772   3.008   7.285  0.7021  1.1900  0.0676
  326MOL0     C44875  -0.867   2.909   7.276  0.1891  1.0378 -0.0059
  326MOL0     C44876  -0.841   2.778   7.314 -0.1486  0.5628 -0.1178
  326MOL0     C44877  -0.940   2.674   7.288 -0.4861 -0.2931 -0.6097
  326MOL0     C44878  -0.898   2.526   7.326 -0.1051  0.0441 -0.4309
  326MOL0     C44879  -1.071   2.710   7.248 -1.0109 -0.8824  0.0760
  326MOL0     C44880  -1.194   2.622   7.269  0.7445 -1.1773  0.5120
  326MOL0     O44881  -1.317   2.681   7.250 -0.3100  0.0303  0.3876
  326MOL0     C44882  -1.426   2.602   7.277  0.5551 -0.7603 -0.2494
  326MOL0     C44883  -1.470   2.531   7.176 -0.2960 -0.1697  0.2311
  326MOL0     C44884  -1.591   2.465   7.180 -1.5238 -0.0116 -1.4168
  326MOL0     C44885  -1.660   2.439   7.297  0.8643 -0.4841 -0.4277
  326MOL0     O44886  -1.770   2.352   7.294  0.4794 -0.1553  0.7109
  326MOL0     C44887  -1.885   2.400   7.373 -0.3947 -0.5726 -0.2596
  326MOL0     C44888  -2.012   2.389   7.293  0.0106 -0.5782  0.1109
  326MOL0     C44889  -2.046   2.512   7.206 -0.3862  0.2885  0.2889
  326MOL0     C44890  -2.084   2.457   7.068 -0.2566 -0.1280  0.5113
  326MOL0     C44891  -1.964   2.395   7.000  0.4847  0.1493 -0.0632
  326MOL0     C44892  -2.007   2.349   6.860 -0.1779  0.0591  0.3773
  326MOL0     C44893  -2.024   2.472   6.764  0.3807  0.1811 -0.4557
  326MOL0     C44894  -1.985   2.430   6.622  0.2764  0.0822  0.0979
  326MOL0    Cl44895  -2.008   2.573   6.526 -0.0921  0.5005 -0.3194
  326MOL0     C44896  -1.620   2.511   7.415  0.3328 -0.3024 -0.0121
  326MOL0     C44897  -1.505   2.600   7.398 -0.2373  0.5381 -0.6383
  326MOL0     O44898  -1.180   2.507   7.287 -0.4861  0.0954  0.1447
  326MOL0     C44899  -1.087   2.844   7.207  0.2119 -0.1140 -0.5620
  326MOL0     C44900  -0.982   2.936   7.213 -0.8553 -0.4432 -0.3731
  326MOL0     N44901  -0.429   3.370   6.936  0.0327 -0.5897 -0.0242
  326MOL0     N44902  -0.320   3.360   6.870 -0.6640  0.3522  0.1816
  326MOL0     C44903   0.791   3.087   7.323  0.2650  0.3970  1.3855
  326MOL0     C44904   0.872   3.075   7.436  0.2019  0.5350  1.0593
  326MOL0     C44905   1.077   3.108   7.842  0.3343 -0.1413  0.3916
  326MOL0     C44906   1.038   3.005   7.921  0.0092  0.5095  0.7026
  326MOL0     C44907   1.077   2.993   8.055 -0.1444 -0.1680  0.0725
  326MOL0     C44908   1.153   3.090   8.108  0.4799  0.1065  0.0289
  326MOL0     O44909   1.175   3.095   8.241  0.4405 -0.0788 -1.6362
  326MOL0     C44910   1.291   3.026   8.283  0.9393 -0.2745  0.4112
  326MOL0     C44911   1.364   3.095   8.397 -0.1791  0.8784 -0.1238
  326MOL0     C44912   1.253   3.101   8.520  0.0268  0.0947  1.0727
  326MOL0     C44913   1.154   3.221   8.506  0.1647  0.0405  0.1854
  326MOL0     C44914   1.225   3.350   8.502 -0.3771  0.9666  0.8433
  326MOL0     C44915   1.283   3.450   8.533  0.0677 -0.3969  0.4731
  326MOL0     C44916   1.197   3.200   8.024  0.4045 -0.2667  0.6584
  326MOL0     C44917   1.154   3.213   7.897 -0.9422 -0.3738 -0.6870
  326MOL0     C44918   1.190   3.332   7.828 -0.0379 -0.1279 -0.6992
  326MOL0     H44919   0.635   3.061   7.679  0.6880 -3.6550  0.0204
  326MOL0     H44920   0.490   3.084   7.487  0.4295  0.3527 -0.6371
  326MOL0     H44921   0.565   2.884   7.160  1.5852  0.6352  3.1340
  326MOL0     H44922   0.697   2.995   7.096 -0.1906 -0.6451  1.4168
  326MOL0     H44923   0.564   3.120   6.959 -0.1044 -1.6705 -2.4127
  326MOL0     H44924   0.528   2.953   6.931  2.4284 -0.3319  0.3308
  326MOL0     H44925   0.332   2.986   7.099 -0.5490  0.9382 -0.1041
  326MOL0     H44926   0.364   3.167   7.076 -0.8013  1.2295 -0.8613
  326MOL0     H44927   0.310   3.140   6.844  0.2865  0.4997  0.9610
  326MOL0     H44928   0.293   2.958   6.858 -1.4349 -1.5626  1.6693
  326MOL0     H44929   0.138   3.166   7.005  1.2254  0.0248  0.7175
  326MOL0     H44930   0.119   2.993   7.023  1.6850  1.1251  2.0049
  326MOL0     H44931   0.083   3.159   6.767 -1.5650  0.5441 -0.2298
  326MOL0     H44932   0.039   2.991   6.769 -2.0674  0.7254  0.1418
  326MOL0     H44933  -0.100   3.159   6.987 -2.2566  0.6491  0.0138
  326MOL0     H44934  -0.134   3.001   6.917  1.0687 -0.0919  0.0419
  326MOL0     H44935  -0.127   3.250   6.732  3.1872 -1.7919 -1.3610
  326MOL0     H44936  -0.212   3.097   6.712 -0.7778  1.8460 -1.4318
  326MOL0     H44937  -0.454   3.051   6.858  1.5216 -0.3337 -3.2533
  326MOL0     H44938  -0.663   3.144   6.955  4.2181  0.9276 -4.5951
  326MOL0     H44939  -0.679   3.324   6.991 -2.2332 -0.1280  2.4613
  326MOL0     H44940  -0.544   3.301   7.189  2.2268 -1.0178 -4.3391
  326MOL0     H44941  -0.707   3.237   7.206  0.2166 -0.7634  0.6993
  326MOL0     H44942  -0.448   3.073   7.194 -0.0114 -1.8703  3.0452
  326MOL0     H44943  -0.511   3.127   7.328 -0.8623 -0.4543  0.8054
  326MOL0     H44944  -0.672   2.948   7.131 -0.6694  1.3403  0.2194
  326MOL0     H44945  -0.594   2.894   7.289  0.0864  0.6405  1.7485
  326MOL0     H44946  -0.743   2.758   7.358 -0.6507  0.4919  1.0115
  326MOL0     H44947  -0.941   2.461   7.249  1.8747  0.9064 -2.3903
  326MOL0     H44948  -0.924   2.509   7.431 -0.7367  2.4296 -0.1300
  326MOL0     H44949  -0.789   2.514   7.318  0.0844  1.2034  0.2094
  326MOL0     H44950  -1.420   2.548   7.082  0.0231  0.0526  0.4389
  326MOL0     H44951  -1.610   2.399   7.096  0.6248 -0.2719 -1.7655
  326MOL0     H44952  -1.888   2.337   7.462 -1.4140 -2.5862 -1.6359
  326MOL0     H44953  -1.862   2.500   7.412  3.6522 -1.4711  0.0391
  326MOL0     H44954  -2.026   2.296   7.237 -3.4649 -0.6664  0.9203
  326MOL0     H44955  -2.088   2.372   7.370  0.0737  1.0140  0.5652
  326MOL0     H44956  -1.969   2.589   7.193 -1.4113  1.0942 -1.3771
  326MOL0     H44957  -2.138   2.554   7.248 -1.6466 -3.7379  1.9966
  326MOL0     H44958  -2.107   2.550   7.015  2.2757  1.5882  2.1784
  326MOL0     H44959  -2.168   2.388   7.074  0.1666 -0.7290 -0.2019
  326MOL0     H44960  -1.882   2.468   6.996  0.0298  0.6474 -0.5398
  326MOL0     H44961  -1.926   2.314   7.062 -0.5862 -0.3369 -0.0209
  326MOL0     H44962  -2.098   2.288   6.863  0.9095 -1.6751 -0.3971
  326MOL0     H44963  -1.930   2.279   6.826 -1.2743 -1.1773  0.3712
  326MOL0     H44964  -1.972   2.561   6.800 -1.0128 -0.3180  3.1243
  326MOL0     H44965  -2.128   2.505   6.761  0.2300  0.0890  1.9727
  326MOL0     H44966  -2.068   2.366   6.589 -1.4009  1.6386  1.1375
  326MOL0     H44967  -1.886   2.385   6.610  1.0978  1.7477  0.2884
  326MOL0     H44968  -1.653   2.476   7.513  0.9093 -1.8854 -0.3526
  326MOL0     H44969  -1.464   2.644   7.488  0.2850 -2.1616  0.5392
  326MOL0     H44970  -1.185   2.870   7.168  0.4239  0.7503 -0.5487
  326MOL0     H44971  -0.993   3.041   7.188  0.7117  0.6341  2.9316
  326MOL0     H44972   0.837   3.090   7.225  0.3002 -0.6408  1.3562
  326MOL0     H44973   0.979   3.076   7.414  0.1781  3.1680  0.7408
  326MOL0     H44974   0.981   2.922   7.881  1.9933 -0.8510  0.5250
  326MOL0     H44975   1.039   2.911   8.116 -3.1297  3.2063  3.2873
  326MOL0     H44976   1.277   2.922   8.312  2.5765 -0.8146 -0.5597
  326MOL0     H44977   1.363   3.037   8.201 -0.2331 -1.7171 -0.8580
  326MOL0     H44978   1.385   3.193   8.355 -1.5744  0.7434 -1.1791
  326MOL0     H44979   1.448   3.031   8.426 -1.6173 -1.4500 -0.7749
  326MOL0     H44980   1.199   3.007   8.531  1.8031 -1.1014  0.0807
  326MOL0     H44981   1.318   3.108   8.607  1.2185  0.5541  0.1732
  326MOL0     H44982   1.097   3.223   8.600  0.9112 -2.8630  0.8126
  326MOL0     H44983   1.079   3.222   8.426  0.2001  3.1885  0.0809
  326MOL0     H44984   1.331   3.542   8.560  0.8617 -1.4013  2.7467
  326MOL0     H44985   1.253   3.277   8.076  0.8210 -0.6755  0.8244
  326MOL0     H44986   1.264   3.395   7.877 -3.1714  2.3764  1.2129
  326MOL0     H44987   1.244   3.293   7.741 -0.1918  2.2213 -1.9188
  326MOL0     H44988   1.100   3.386   7.797 -0.6767 -1.0369 -0.4902
  327MOL0     O44989   1.786  11.165   2.272 -0.6566 -0.3301 -0.2642
  327MOL0     C44990   1.804  11.207   2.157  0.0494 -0.2825 -0.2625
  327MOL0     O44991   1.925  11.246   2.111  0.1735 -0.0648  0.3675
  327MOL0     C44992   2.035  11.253   2.197 -1.0302 -0.0197  0.8955
  327MOL0     C44993   2.058  11.202   2.330  0.6763 -0.3550  0.6772
  327MOL0     C44994   2.185  11.204   2.377  0.5827  0.4997  0.1145
  327MOL0     C44995   2.289  11.255   2.310  0.0699 -0.9104 -1.2332
  327MOL0     O44996   2.406  11.232   2.378 -0.0027 -0.2398  0.4132
  327MOL0     C44997   2.526  11.236   2.297  0.1066  0.5241  0.3749
  327MOL0     C44998   2.643  11.252   2.396  0.2800  0.0472  0.3632
  327MOL0     C44999   2.630  11.380   2.479  0.4731  0.5101  0.3903
  327MOL0     C45000   2.767  11.425   2.534  0.8317  0.6195 -0.8872
  327MOL0     C45001   2.735  11.492   2.669  0.2452  0.6570  0.3864
  327MOL0     C45002   2.632  11.603   2.662  0.6650  0.2554 -0.4662
  327MOL0     C45003   2.640  11.696   2.787  0.1612 -0.7266 -0.3635
  327MOL0     C45004   2.500  11.766   2.774 -0.6506  0.8030 -0.3384
  327MOL0     N45005   2.492  11.886   2.859  0.1878 -0.6884  0.0836
  327MOL0     C45006   2.504  11.899   3.000 -0.4245  0.8446  0.0792
  327MOL0     C45007   2.482  12.028   3.019 -0.1503  0.4735 -0.2008
  327MOL0     C45008   2.480  12.100   3.150  0.8913 -0.1178  0.9071
  327MOL0     C45009   2.596  12.201   3.153  0.0097 -0.6677 -0.0967
  327MOL0     C45010   2.586  12.275   3.285  0.3495  0.3358 -0.0532
  327MOL0     C45011   2.697  12.237   3.386  0.0553 -0.0098  0.3553
  327MOL0     O45012   2.692  12.103   3.425 -0.4968  0.4439 -0.1692
  327MOL0     C45013   2.767  12.069   3.539 -0.3752 -0.1963 -0.8379
  327MOL0     C45014   2.760  12.126   3.668  0.0673 -0.5218  1.1181
  327MOL0     C45015   2.845  12.072   3.772  0.1917  0.1475  0.0556
  327MOL0     C45016   2.854  12.153   3.903  1.0368  0.2560  0.5026
  327MOL0     C45017   2.922  11.956   3.750 -0.1507  0.2124  0.2195
  327MOL0     C45018   3.012  11.883   3.852 -0.1029  0.9448  1.1287
  327MOL0     O45019   3.077  11.774   3.805 -0.4115  0.3922 -0.0216
  327MOL0     C45020   3.175  11.698   3.871 -0.4225  0.6282  0.0733
  327MOL0     C45021   3.173  11.666   4.010 -0.5043 -0.0325  0.0024
  327MOL0     C45022   3.264  11.569   4.060 -1.0984 -0.6811 -0.2908
  327MOL0     C45023   3.370  11.522   3.988 -0.0951 -0.5333  0.2750
  327MOL0     O45024   3.465  11.444   4.043  0.8081  0.4125  0.0261
  327MOL0     C45025   3.478  11.424   4.186 -0.8029 -0.6898 -0.2671
  327MOL0     C45026   3.628  11.400   4.208  0.0988  0.4621 -0.3085
  327MOL0     C45027   3.669  11.436   4.354  0.9468 -0.7603  0.6383
  327MOL0     C45028   3.820  11.482   4.368  0.3301 -0.8440 -0.2596
  327MOL0     C45029   3.921  11.375   4.337 -0.0216 -0.0789 -0.1825
  327MOL0     C45030   4.069  11.435   4.346 -1.4178  0.1794  0.2471
  327MOL0     C45031   4.111  11.478   4.490  0.1093  0.6223  0.1853
  327MOL0     C45032   4.201  11.598   4.492 -0.3692 -0.1596  0.2215
  327MOL0    Cl45033   4.271  11.638   4.655  0.4155  0.0683  0.2249
  327MOL0     C45034   3.378  11.558   3.855 -0.2298  0.0709  0.2301
  327MOL0     C45035   3.283  11.636   3.799  0.7211  0.4866  0.0780
  327MOL0     O45036   3.014  11.924   3.969  0.0222 -0.1596  0.3471
  327MOL0     C45037   2.924  11.899   3.626 -0.3367 -0.4820  0.3275
  327MOL0     C45038   2.842  11.952   3.522 -1.1234  0.4192 -0.4138
  327MOL0     N45039   2.440  12.089   2.900 -0.4653 -0.2511 -0.0272
  327MOL0     N45040   2.447  12.007   2.799 -0.1127  0.0159 -0.4927
  327MOL0     C45041   2.271  11.317   2.190 -0.9110  0.1035  0.9490
  327MOL0     C45042   2.142  11.313   2.128  0.2808 -0.0619  0.4148
  327MOL0     C45043   1.698  11.231   2.059  0.6143 -0.2509 -0.2837
  327MOL0     C45044   1.732  11.277   1.934 -0.5033 -0.4208 -1.0734
  327MOL0     C45045   1.642  11.293   1.830 -0.1369  1.2623  0.0146
  327MOL0     C45046   1.509  11.250   1.844 -0.5879 -0.0880 -0.6729
  327MOL0     O45047   1.419  11.279   1.752  0.0575  0.4032 -0.1489
  327MOL0     C45048   1.367  11.158   1.694  0.2740  0.2195 -1.0475
  327MOL0     C45049   1.371  11.151   1.545  0.4056 -0.5050  0.1620
  327MOL0     C45050   1.511  11.195   1.500  0.0358  0.2395  0.7295
  327MOL0     C45051   1.529  11.184   1.338  0.6135  0.5715 -0.8501
  327MOL0     C45052   1.541  11.044   1.305  0.0453  0.2731  0.3655
  327MOL0     C45053   1.550  10.920   1.288  0.4519  0.7026  0.1268
  327MOL0     C45054   1.470  11.213   1.976  0.3143  1.1572 -0.2298
  327MOL0     C45055   1.562  11.197   2.080  0.0799  0.0138  0.1928
  327MOL0     C45056   1.505  11.138   2.207  0.0790 -0.2438 -0.6110
  327MOL0     H45057   1.980  11.160   2.394 -0.4013  4.0747  2.6445
  327MOL0     H45058   2.209  11.157   2.472  2.5746 -0.3556 -0.7473
  327MOL0     H45059   2.524  11.332   2.245 -0.8695  1.1030  1.4262
  327MOL0     H45060   2.534  11.146   2.234 -1.8830  0.1245  0.6112
  327MOL0     H45061   2.647  11.170   2.468  1.1652  1.8923  2.5724
  327MOL0     H45062   2.733  11.251   2.334 -0.1159 -1.5740 -0.2222
  327MOL0     H45063   2.598  11.459   2.409  1.7276  2.0883  1.5291
  327MOL0     H45064   2.553  11.351   2.551  1.0678  2.8774  2.1028
  327MOL0     H45065   2.844  11.348   2.542  1.3365  0.9879 -1.9934
  327MOL0     H45066   2.817  11.502   2.474  5.7666  0.0891  2.0063
  327MOL0     H45067   2.831  11.531   2.703  0.9743  0.5731 -1.4489
  327MOL0     H45068   2.723  11.414   2.745  0.6720  1.8302  1.7020
  327MOL0     H45069   2.650  11.663   2.573 -0.1393 -1.1065 -1.5983
  327MOL0     H45070   2.535  11.553   2.647  2.4460 -3.0358 -2.2301
  327MOL0     H45071   2.725  11.764   2.775 -0.8389  1.1299  2.0568
  327MOL0     H45072   2.651  11.655   2.888 -1.9264 -1.6037 -0.4456
  327MOL0     H45073   2.466  11.783   2.672 -1.4071 -1.3649 -0.5054
  327MOL0     H45074   2.438  11.683   2.809  0.9429 -0.8873 -1.3154
  327MOL0     H45075   2.537  11.830   3.077  0.6129  0.5081 -0.6466
  327MOL0     H45076   2.483  12.033   3.236  1.8112 -1.2045  0.0573
  327MOL0     H45077   2.385  12.153   3.160  0.4656 -0.7465  0.2384
  327MOL0     H45078   2.689  12.144   3.151  1.5509  1.6866 -2.7028
  327MOL0     H45079   2.589  12.271   3.069  0.3408  0.7100  0.9799
  327MOL0     H45080   2.621  12.376   3.262  2.8619  0.1637  2.4375
  327MOL0     H45081   2.481  12.282   3.316  0.2163 -2.0524  0.1702
  327MOL0     H45082   2.785  12.270   3.332 -0.7428 -0.1428 -1.0676
  327MOL0     H45083   2.675  12.303   3.471 -3.0250  0.6945 -0.8513
  327MOL0     H45084   2.690  12.207   3.680  0.4388  1.2337 -5.2233
  327MOL0     H45085   2.794  12.241   3.881  2.2803  1.0731  0.2666
  327MOL0     H45086   2.950  12.195   3.934  0.1575  1.7760  1.2981
  327MOL0     H45087   2.812  12.090   3.982  1.7505  0.2188  0.8687
  327MOL0     H45088   3.101  11.708   4.079  3.3597  2.9398  2.6101
  327MOL0     H45089   3.252  11.544   4.165 -1.3262  0.9986  0.1142
  327MOL0     H45090   3.444  11.512   4.242 -0.9423 -0.0555 -1.3181
  327MOL0     H45091   3.424  11.335   4.218 -2.9068  0.4263 -0.5151
  327MOL0     H45092   3.664  11.300   4.181 -0.2192  1.0884 -3.4267
  327MOL0     H45093   3.680  11.473   4.145 -0.5322  4.1617  3.0464
  327MOL0     H45094   3.649  11.346   4.414 -1.1959 -0.6292  0.1994
  327MOL0     H45095   3.599  11.512   4.388  0.5249 -0.7606 -0.2101
  327MOL0     H45096   3.840  11.528   4.465  0.1477  1.3954 -1.2282
  327MOL0     H45097   3.832  11.569   4.303  1.5240  1.2921  2.6090
  327MOL0     H45098   3.899  11.285   4.396 -0.7216 -0.3488 -0.8304
  327MOL0     H45099   3.908  11.336   4.236 -0.6395 -0.4462  0.0338
  327MOL0     H45100   4.077  11.516   4.273 -0.5433  0.8826  1.0917
  327MOL0     H45101   4.132  11.347   4.328  0.4615  0.6930  3.4513
  327MOL0     H45102   4.168  11.390   4.519 -0.3910  0.6006  1.1363
  327MOL0     H45103   4.032  11.495   4.564  0.6804  4.4431  0.1509
  327MOL0     H45104   4.153  11.685   4.446  0.3606 -1.3003 -2.9296
  327MOL0     H45105   4.289  11.586   4.429 -0.8805  0.7484 -0.6988
  327MOL0     H45106   3.465  11.523   3.801 -0.0868 -0.1144  0.5714
  327MOL0     H45107   3.283  11.635   3.691 -0.2190 -1.6858  0.0590
  327MOL0     H45108   2.997  11.823   3.601 -0.3292 -0.4086  0.1246
  327MOL0     H45109   2.855  11.913   3.422 -2.4458 -0.5468 -0.2310
  327MOL0     H45110   2.344  11.350   2.116 -0.2379 -1.2234  1.0012
  327MOL0     H45111   2.124  11.359   2.031  3.0960  0.9943  0.2940
  327MOL0     H45112   1.837  11.296   1.913 -0.2550 -2.6825 -2.1633
  327MOL0     H45113   1.663  11.334   1.731  0.1988  3.4432  0.9406
  327MOL0     H45114   1.404  11.067   1.742 -0.9044 -0.0227 -0.5611
  327MOL0     H45115   1.262  11.161   1.726  0.9164  0.9519  1.1476
  327MOL0     H45116   1.296  11.217   1.500  1.6293 -0.8185 -2.5520
  327MOL0     H45117   1.357  11.044   1.522 -0.8263 -0.5448  0.9697
  327MOL0     H45118   1.531  11.294   1.542 -6.2518  0.8090  3.5652
  327MOL0     H45119   1.589  11.132   1.544  1.3035  1.1552 -0.1228
  327MOL0     H45120   1.623  11.232   1.307  1.5685 -1.3659 -1.1086
  327MOL0     H45121   1.450  11.231   1.280 -0.6073 -1.4555 -0.9164
  327MOL0     H45122   1.558  10.815   1.269 -0.6345  0.2429  2.0695
  327MOL0     H45123   1.364  11.197   1.991  0.1258 -0.5366 -2.7674
  327MOL0     H45124   1.396  11.127   2.198 -0.1998  2.2708 -0.7965
  327MOL0     H45125   1.533  11.033   2.219 -2.4151 -0.9041  0.0011
  327MOL0     H45126   1.536  11.197   2.293  1.5657 -1.6515 -0.1302
  328MOL0     O45127   6.905   4.388   6.238 -0.2125 -0.5465 -0.4772
  328MOL0     C45128   6.946   4.355   6.126 -0.1648  0.5335  0.6445
  328MOL0     O45129   7.024   4.425   6.039 -0.3733 -0.3502 -0.8879
  328MOL0     C45130   7.067   4.555   6.067 -1.2359  0.2744 -0.0149
  328MOL0     C45131   7.193   4.588   6.012 -1.1672  0.1419 -0.2154
  328MOL0     C45132   7.255   4.711   6.038  0.4281 -0.3181 -1.5766
  328MOL0     C45133   7.184   4.795   6.119 -0.2291 -0.2660  0.6223
  328MOL0     O45134   7.231   4.909   6.162 -0.8748 -0.3246 -0.1545
  328MOL0     C45135   7.332   4.982   6.083  0.0926 -0.5356  0.6311
  328MOL0     C45136   7.390   5.115   6.148  0.2344  0.2898  0.1303
  328MOL0     C45137   7.514   5.160   6.064  0.1351  0.0114 -0.0588
  328MOL0     C45138   7.470   5.243   5.939  0.1585 -0.6387  0.9851
  328MOL0     C45139   7.592   5.300   5.858  0.2420 -0.8298  0.4725
  328MOL0     C45140   7.655   5.194   5.767  0.2711 -0.1770 -0.2682
  328MOL0     C45141   7.765   5.246   5.675 -0.4405  0.3533  0.7848
  328MOL0     C45142   7.807   5.146   5.565  0.4989 -0.7370  0.5746
  328MOL0     N45143   7.942   5.170   5.524  0.0825  1.1230 -0.1210
  328MOL0     C45144   8.052   5.089   5.534 -0.2257  0.3180 -1.0104
  328MOL0     C45145   8.163   5.163   5.515 -0.2804  0.3402  0.0565
  328MOL0     C45146   8.309   5.121   5.529  0.0480 -0.0167  0.1300
  328MOL0     C45147   8.381   5.063   5.402 -0.6535  0.2411 -0.0631
  328MOL0     C45148   8.335   4.925   5.357 -0.6842  0.7523  0.7840
  328MOL0     C45149   8.399   4.868   5.227  0.8067  0.6212 -0.3934
  328MOL0     O45150   8.400   4.974   5.128  0.2568  0.2454 -0.7982
  328MOL0     C45151   8.457   4.945   5.004 -0.8429  0.9911 -0.3132
  328MOL0     C45152   8.572   4.855   4.992 -0.1710 -0.0562  0.1844
  328MOL0     C45153   8.624   4.826   4.862  0.5001  0.3322  0.2713
  328MOL0     C45154   8.739   4.726   4.853  0.4420 -0.6079 -0.0382
  328MOL0     C45155   8.567   4.888   4.744 -0.2332 -0.2042 -0.0086
  328MOL0     C45156   8.620   4.880   4.614 -0.8246 -0.0065 -0.5702
  328MOL0     O45157   8.543   4.919   4.513  0.0968  0.6710 -0.8743
  328MOL0     C45158   8.584   4.940   4.387  0.9536  0.7751  0.1080
  328MOL0     C45159   8.531   4.877   4.268  0.0142  0.2665 -0.0754
  328MOL0     C45160   8.566   4.930   4.140  0.1064 -0.2424 -0.1292
  328MOL0     C45161   8.670   5.026   4.126 -0.1819  0.0661 -0.0829
  328MOL0     O45162   8.690   5.075   3.995 -0.5280  0.2291 -0.6700
  328MOL0     C45163   8.761   5.202   3.975 -0.3135 -0.0522 -0.2187
  328MOL0     C45164   8.832   5.191   3.836 -0.1430  0.9506 -0.1552
  328MOL0     C45165   8.731   5.189   3.716 -0.2935 -0.2355  1.1609
  328MOL0     C45166   8.735   5.326   3.657 -0.1393 -0.5148 -0.4400
  328MOL0     C45167   8.659   5.432   3.727 -0.5547  0.7612  0.4341
  328MOL0     C45168   8.648   5.553   3.630 -0.1562 -1.1896 -0.2057
  328MOL0     C45169   8.564   5.669   3.684  0.1516 -0.0283 -0.9420
  328MOL0     C45170   8.584   5.787   3.605 -0.2563  0.4459 -0.1842
  328MOL0    Cl45171   8.535   5.754   3.427 -0.3845 -0.2131  0.2287
  328MOL0     C45172   8.723   5.078   4.239  0.0996  0.2117  0.1056
  328MOL0     C45173   8.682   5.041   4.367 -0.2338 -0.0876  0.8808
  328MOL0     O45174   8.738   4.866   4.605 -0.1991 -0.0647 -0.5540
  328MOL0     C45175   8.456   4.972   4.762  0.3607  0.7795  0.4569
  328MOL0     C45176   8.404   5.004   4.893  1.2056  0.5412 -0.1133
  328MOL0     N45177   8.112   5.281   5.482 -0.3042  0.3818  0.3496
  328MOL0     N45178   7.982   5.297   5.494 -0.4851  0.7986 -0.3166
  328MOL0     C45179   7.056   4.762   6.169  0.4874  0.0494  0.1744
  328MOL0     C45180   6.997   4.639   6.149 -0.0324 -1.2821  0.1893
  328MOL0     C45181   6.896   4.222   6.070  0.2802  0.5260  0.7442
  328MOL0     C45182   6.964   4.171   5.948  0.0644 -1.2753 -0.0566
  328MOL0     C45183   6.935   4.052   5.903  0.3257  0.9391  0.3409
  328MOL0     C45184   6.842   3.965   5.959 -0.4861 -1.1716 -0.6013
  328MOL0     O45185   6.838   3.839   5.908  0.1713 -0.1874 -0.2834
  328MOL0     C45186   6.772   3.728   5.976 -0.0008 -0.5667  1.0658
  328MOL0     C45187   6.613   3.710   5.956 -0.6773 -0.9016  0.4835
  328MOL0     C45188   6.566   3.641   5.816  0.0376  0.3872  0.4376
  328MOL0     C45189   6.412   3.621   5.789  0.0925 -0.7084  0.0684
  328MOL0     C45190   6.359   3.493   5.844  0.7592 -0.2260  0.8551
  328MOL0     C45191   6.292   3.399   5.881  2.1967 -0.6429  0.4595
  328MOL0     C45192   6.766   4.018   6.063  0.0293 -0.9922  0.7779
  328MOL0     C45193   6.784   4.145   6.118  0.1936  1.0333  0.0439
  328MOL0     C45194   6.685   4.195   6.225 -0.7404  0.0839 -0.5471
  328MOL0     H45195   7.256   4.515   5.961  0.5381  0.4695  1.3182
  328MOL0     H45196   7.357   4.733   6.008  0.2763  1.5869 -0.8478
  328MOL0     H45197   7.278   5.014   5.993  0.2281 -1.6213  0.1561
  328MOL0     H45198   7.424   4.932   6.054  1.9753  2.6705  0.5588
  328MOL0     H45199   7.313   5.193   6.152  0.7193  0.8401 -0.7512
  328MOL0     H45200   7.426   5.110   6.251 -0.9175  0.7191  0.5735
  328MOL0     H45201   7.581   5.220   6.127  0.4663 -2.8958  2.6221
  328MOL0     H45202   7.570   5.071   6.034  2.4519  0.5987  2.0819
  328MOL0     H45203   7.405   5.190   5.869 -0.5413  2.1415 -0.6713
  328MOL0     H45204   7.411   5.331   5.966 -0.8074 -0.8069 -0.4136
  328MOL0     H45205   7.660   5.345   5.931 -2.0228  1.2525  1.4394
  328MOL0     H45206   7.550   5.380   5.795 -1.3828 -1.3137  0.8800
  328MOL0     H45207   7.687   5.106   5.823 -1.7597 -2.1301 -1.9914
  328MOL0     H45208   7.576   5.150   5.705 -0.6355  0.3937  0.4555
  328MOL0     H45209   7.855   5.270   5.732 -0.9902 -0.5876  2.1180
  328MOL0     H45210   7.739   5.333   5.614  4.0187  0.0510 -1.9743
  328MOL0     H45211   7.790   5.041   5.590  0.2776 -0.6255  0.9044
  328MOL0     H45212   7.760   5.165   5.468 -0.5529  0.1765  1.2338
  328MOL0     H45213   8.046   4.985   5.565  3.3406  0.1228 -0.5171
  328MOL0     H45214   8.325   5.064   5.621  1.5116  1.4548  0.8349
  328MOL0     H45215   8.365   5.213   5.546  1.5272 -0.7643 -0.4751
  328MOL0     H45216   8.378   5.138   5.322  1.8929 -0.3491 -0.8269
  328MOL0     H45217   8.487   5.053   5.428 -1.4828  1.7569  4.9310
  328MOL0     H45218   8.354   4.847   5.431  1.0274 -2.1246 -2.3865
  328MOL0     H45219   8.227   4.932   5.347 -0.5037  1.8396 -0.7858
  328MOL0     H45220   8.499   4.828   5.246  1.9317  1.8897 -3.0786
  328MOL0     H45221   8.340   4.785   5.188 -2.5007  1.2903  2.6863
  328MOL0     H45222   8.616   4.815   5.082 -1.4006 -1.5774  0.1472
  328MOL0     H45223   8.835   4.776   4.867  0.7750 -1.5962  1.4657
  328MOL0     H45224   8.740   4.676   4.755  0.9983  0.8922 -0.8201
  328MOL0     H45225   8.735   4.652   4.934  3.8068 -2.2175 -1.1634
  328MOL0     H45226   8.450   4.807   4.286  2.1962 -1.9140  1.9790
  328MOL0     H45227   8.513   4.891   4.054 -3.0073  2.4562  0.3643
  328MOL0     H45228   8.692   5.287   3.979  1.2104  1.1831  2.9750
  328MOL0     H45229   8.837   5.222   4.051 -0.1615  1.5400 -0.7426
  328MOL0     H45230   8.909   5.268   3.828  2.1612 -1.1341  0.7957
  328MOL0     H45231   8.877   5.092   3.832 -1.7253  0.1331  1.1031
  328MOL0     H45232   8.626   5.182   3.748  0.1992  1.2322  3.3768
  328MOL0     H45233   8.759   5.119   3.638  1.7415  3.4982 -1.7872
  328MOL0     H45234   8.703   5.304   3.554  1.5039 -1.4187 -0.7944
  328MOL0     H45235   8.841   5.350   3.643 -0.3928 -0.2822 -2.2482
  328MOL0     H45236   8.558   5.391   3.739  1.4132 -4.3251  2.4414
  328MOL0     H45237   8.688   5.452   3.831  2.0022  1.0406 -0.2674
  328MOL0     H45238   8.602   5.529   3.533 -0.1719  2.4613 -1.2554
  328MOL0     H45239   8.749   5.593   3.619 -1.1282  2.3856  2.3031
  328MOL0     H45240   8.591   5.694   3.788 -3.4090 -0.2667  0.1687
  328MOL0     H45241   8.458   5.645   3.682  0.1603 -0.0078 -2.1333
  328MOL0     H45242   8.690   5.814   3.611  0.0458 -0.6255 -0.4830
  328MOL0     H45243   8.525   5.871   3.642 -1.4794 -1.3896  2.3029
  328MOL0     H45244   8.795   5.159   4.230 -0.3872  0.6835  0.3583
  328MOL0     H45245   8.734   5.087   4.451 -0.3429  1.1326  0.3010
  328MOL0     H45246   8.421   5.020   4.671 -0.1736 -1.8321 -0.7939
  328MOL0     H45247   8.325   5.076   4.911  1.8719  1.4283 -0.6282
  328MOL0     H45248   7.005   4.820   6.245  3.1208  0.3200  1.8396
  328MOL0     H45249   6.902   4.621   6.199 -1.1485 -1.2016 -1.8222
  328MOL0     H45250   7.040   4.235   5.904  0.1013 -0.4317  1.1870
  328MOL0     H45251   6.991   4.020   5.816 -0.9510 -2.3906  0.6115
  328MOL0     H45252   6.816   3.640   5.931  1.2420 -1.2091  3.3627
  328MOL0     H45253   6.799   3.721   6.082  0.4760 -0.5526  0.9452
  328MOL0     H45254   6.572   3.812   5.952 -3.2425 -1.8890 -1.1956
  328MOL0     H45255   6.573   3.653   6.040 -0.3713  0.5167  1.6371
  328MOL0     H45256   6.608   3.706   5.738  0.3215  0.0349  0.2930
  328MOL0     H45257   6.615   3.548   5.786 -3.8448 -0.8878 -2.8012
  328MOL0     H45258   6.393   3.609   5.682 -1.7529 -1.1765  0.4106
  328MOL0     H45259   6.361   3.715   5.814  0.8777 -0.0888 -0.5896
  328MOL0     H45260   6.227   3.317   5.904 -0.3205  0.6904 -1.4606
  328MOL0     H45261   6.684   3.961   6.107  0.6901  0.1905  3.8070
  328MOL0     H45262   6.650   4.294   6.196 -0.3937  0.1318 -0.8025
  328MOL0     H45263   6.601   4.125   6.224 -0.8692  0.2175  0.1239
  328MOL0     H45264   6.733   4.195   6.324 -0.0505 -2.0338 -0.8230
  329MOL0     O45265   7.730   5.500   1.868  0.3518  0.1988 -0.3202
  329MOL0     C45266   7.668   5.438   1.778 -0.8158 -0.2245  0.2796
  329MOL0     O45267   7.680   5.303   1.763  0.0337 -0.3184  0.2936
  329MOL0     C45268   7.732   5.234   1.865 -1.3834  0.1339  0.1425
  329MOL0     C45269   7.843   5.158   1.829  0.0332  0.6421  0.3146
  329MOL0     C45270   7.897   5.074   1.925 -0.0575  0.3175 -0.1045
  329MOL0     C45271   7.848   5.059   2.053  0.8160  0.7042  0.9579
  329MOL0     O45272   7.900   4.973   2.151  0.1560  0.0201  0.9148
  329MOL0     C45273   7.873   4.834   2.114 -0.8886 -0.9588 -0.4581
  329MOL0     C45274   7.911   4.739   2.228 -0.0149 -0.9671  0.4069
  329MOL0     C45275   7.853   4.765   2.356  0.0631 -0.7388 -0.2549
  329MOL0     C45276   7.889   4.671   2.467 -0.2053 -0.0205 -0.0263
  329MOL0     C45277   7.813   4.707   2.595  0.3950  0.7000 -0.2894
  329MOL0     C45278   7.833   4.608   2.711 -0.4328  0.8930 -0.6445
  329MOL0     C45279   7.776   4.670   2.846 -0.7788 -0.2261  0.7853
  329MOL0     C45280   7.745   4.565   2.955  0.0570 -0.5076 -0.8627
  329MOL0     N45281   7.644   4.464   2.912 -0.2465 -0.4859 -0.1426
  329MOL0     C45282   7.512   4.485   2.867  0.3110  0.2839  0.2192
  329MOL0     C45283   7.453   4.364   2.867 -0.8052 -0.2539  0.1929
  329MOL0     C45284   7.302   4.348   2.856  0.3536 -0.0579 -0.1135
  329MOL0     C45285   7.248   4.292   2.994  0.3621 -0.0175 -0.3606
  329MOL0     C45286   7.299   4.152   3.018  0.5285  0.4178 -0.5925
  329MOL0     C45287   7.233   4.100   3.147  0.1020 -0.9710 -0.0758
  329MOL0     O45288   7.310   3.987   3.187 -0.6209 -0.2276  0.0255
  329MOL0     C45289   7.269   3.903   3.289  0.0031  0.2804  1.0086
  329MOL0     C45290   7.184   3.947   3.387 -0.8753 -0.1477  0.5085
  329MOL0     C45291   7.144   3.863   3.493  0.2689  0.2663  0.6095
  329MOL0     C45292   7.058   3.925   3.599 -0.1475 -0.3348  0.1982
  329MOL0     C45293   7.190   3.730   3.490 -0.4359  0.3351  0.8032
  329MOL0     C45294   7.145   3.631   3.584  0.3517  0.0377  0.0110
  329MOL0     O45295   7.140   3.501   3.527  0.2127 -0.8254  0.5982
  329MOL0     C45296   7.086   3.392   3.593 -0.8002  0.9955 -0.0498
  329MOL0     C45297   7.176   3.290   3.611 -0.3724 -0.3662 -0.1610
  329MOL0     C45298   7.150   3.185   3.687 -0.2504  0.1781  0.4018
  329MOL0     C45299   7.023   3.158   3.744  0.3814 -0.4786  0.2712
  329MOL0     O45300   6.984   3.046   3.806 -0.1706  0.1496  0.2148
  329MOL0     C45301   7.063   2.989   3.901 -0.0774 -0.8607  0.4978
  329MOL0     C45302   7.105   2.853   3.864  0.1808 -0.0082  0.0402
  329MOL0     C45303   7.209   2.773   3.954  0.4478 -0.3258  0.0444
  329MOL0     C45304   7.168   2.725   4.106 -1.2035  0.5537  0.3899
  329MOL0     C45305   7.283   2.643   4.166  0.4195 -0.2799  0.2393
  329MOL0     C45306   7.271   2.625   4.325 -0.3504  0.8791  0.1586
  329MOL0     C45307   7.130   2.601   4.385  0.4620  0.7339  0.1837
  329MOL0     C45308   7.139   2.564   4.532  0.6917 -0.5821 -0.0719
  329MOL0    Cl45309   7.171   2.709   4.632  0.3928  0.2494 -0.3824
  329MOL0     C45310   6.922   3.258   3.715  0.1873  0.1900 -0.7487
  329MOL0     C45311   6.955   3.370   3.642 -0.3739 -0.0844  0.0170
  329MOL0     O45312   7.135   3.648   3.705  0.4817 -0.3544  0.4796
  329MOL0     C45313   7.271   3.680   3.389  0.1745  0.0819  0.3665
  329MOL0     C45314   7.307   3.771   3.285  0.6589  0.0646 -0.0557
  329MOL0     N45315   7.557   4.274   2.898 -0.2496  0.1194 -0.0080
  329MOL0     N45316   7.669   4.335   2.922 -0.0235 -0.8303  0.6274
  329MOL0     C45317   7.738   5.144   2.088  0.4258  1.0712  0.5107
  329MOL0     C45318   7.675   5.226   1.993 -0.2081  0.6133 -0.1184
  329MOL0     C45319   7.574   5.520   1.694 -0.0247 -0.4319  0.6142
  329MOL0     C45320   7.484   5.448   1.610 -0.2137 -0.0636 -0.4138
  329MOL0     C45321   7.397   5.507   1.520 -0.5459 -0.0275 -0.4697
  329MOL0     C45322   7.389   5.648   1.513  0.1842 -0.0167 -1.1118
  329MOL0     O45323   7.326   5.729   1.424 -0.8870  0.3479  0.0831
  329MOL0     C45324   7.288   5.680   1.291  0.8153  0.5125 -0.3147
  329MOL0     C45325   7.130   5.660   1.285 -0.1869  0.0410  0.9044
  329MOL0     C45326   7.103   5.564   1.170  0.2330  0.2440  0.0170
  329MOL0     C45327   6.954   5.546   1.161 -0.1989 -0.2999 -0.4847
  329MOL0     C45328   6.902   5.458   1.267 -0.0103  0.2431 -0.2735
  329MOL0     C45329   6.864   5.384   1.360  0.1001 -1.1527 -0.6293
  329MOL0     C45330   7.481   5.720   1.593 -0.5430 -0.1306 -0.0363
  329MOL0     C45331   7.568   5.661   1.685 -0.9474 -0.4310 -0.8249
  329MOL0     C45332   7.661   5.754   1.763 -0.7235  0.3414 -0.6482
  329MOL0     H45333   7.902   5.172   1.739  0.6480  0.4056  0.6745
  329MOL0     H45334   7.982   5.011   1.901  0.9975  2.2633 -1.9038
  329MOL0     H45335   7.933   4.809   2.026 -1.1032  1.9861 -1.5746
  329MOL0     H45336   7.765   4.841   2.096 -1.0378  1.6243  0.9422
  329MOL0     H45337   7.873   4.640   2.199  3.7178 -1.7672 -2.4689
  329MOL0     H45338   8.020   4.734   2.224  0.1385  1.5617  0.3315
  329MOL0     H45339   7.892   4.864   2.382  1.0169  0.5281 -5.5047
  329MOL0     H45340   7.743   4.773   2.352 -0.0629 -1.8617  0.5497
  329MOL0     H45341   7.862   4.568   2.440  1.0341 -0.0564 -1.2471
  329MOL0     H45342   7.994   4.672   2.498 -0.3844  0.7913  0.5813
  329MOL0     H45343   7.707   4.714   2.573 -0.4373 -2.6185  1.9402
  329MOL0     H45344   7.840   4.805   2.636  0.0460  0.6024  0.1810
  329MOL0     H45345   7.774   4.518   2.695  1.1636 -0.7489  1.9718
  329MOL0     H45346   7.940   4.584   2.708 -0.5306  0.5575 -3.0555
  329MOL0     H45347   7.680   4.719   2.827 -1.2404 -1.6401 -0.7708
  329MOL0     H45348   7.847   4.747   2.879  1.3450 -1.6200 -0.2911
  329MOL0     H45349   7.832   4.501   2.977 -0.7373 -1.3079  0.0643
  329MOL0     H45350   7.694   4.612   3.039  0.0496 -1.4105 -0.3444
  329MOL0     H45351   7.463   4.577   2.836  0.3706 -0.5729 -2.7019
  329MOL0     H45352   7.266   4.278   2.780  1.5154 -2.0384  1.1004
  329MOL0     H45353   7.252   4.445   2.842 -0.9517 -0.7350 -0.3104
  329MOL0     H45354   7.271   4.364   3.073  0.9758 -1.7980  1.1674
  329MOL0     H45355   7.141   4.280   2.976  0.9389 -0.2382 -4.7701
  329MOL0     H45356   7.273   4.079   2.941  1.2637  1.5331 -1.9486
  329MOL0     H45357   7.407   4.157   3.035  0.4037  2.8131 -0.1382
  329MOL0     H45358   7.232   4.179   3.223  2.4435  1.0440 -1.9852
  329MOL0     H45359   7.130   4.065   3.131  0.1416 -2.4123  2.2408
  329MOL0     H45360   7.156   4.052   3.390 -0.0948  0.1018 -0.4598
  329MOL0     H45361   7.022   4.016   3.551  0.1321  0.0239  0.6612
  329MOL0     H45362   7.116   3.941   3.690  0.2267 -4.6690  0.9308
  329MOL0     H45363   6.971   3.865   3.628 -2.0440  2.2544  0.2763
  329MOL0     H45364   7.280   3.300   3.582 -0.0086 -2.0681  0.4585
  329MOL0     H45365   7.229   3.115   3.714 -0.3840  0.1734  0.7910
  329MOL0     H45366   7.151   3.050   3.922  0.0981 -0.1195 -2.1481
  329MOL0     H45367   7.008   2.984   3.996  1.0334  0.6276  1.2575
  329MOL0     H45368   7.013   2.796   3.852 -1.8087  2.9948  0.1152
  329MOL0     H45369   7.140   2.862   3.760 -0.0953  3.1689  0.1137
  329MOL0     H45370   7.281   2.852   3.976 -2.7002  3.1714 -1.0365
  329MOL0     H45371   7.243   2.693   3.888  4.7788  1.8357 -0.7133
  329MOL0     H45372   7.084   2.655   4.113 -0.7046  0.1119  3.5270
  329MOL0     H45373   7.145   2.808   4.173  0.1227  0.4164  1.0440
  329MOL0     H45374   7.272   2.543   4.123 -2.6525 -0.1455  0.5245
  329MOL0     H45375   7.372   2.695   4.129  1.2014 -0.6729  1.4963
  329MOL0     H45376   7.312   2.719   4.363  2.5240  0.0994 -0.7554
  329MOL0     H45377   7.339   2.545   4.355 -3.0232 -0.7403  2.4766
  329MOL0     H45378   7.078   2.518   4.336  3.9805 -0.8595 -1.2002
  329MOL0     H45379   7.062   2.686   4.372  1.0687  1.6940  2.7828
  329MOL0     H45380   7.219   2.489   4.540  3.5286  2.1908 -0.4154
  329MOL0     H45381   7.041   2.527   4.562  0.9938 -2.8060 -1.5848
  329MOL0     H45382   6.823   3.252   3.760  0.3088  1.6765 -0.2407
  329MOL0     H45383   6.884   3.451   3.631 -0.0840  0.0399 -1.0502
  329MOL0     H45384   7.306   3.577   3.388  0.7452  0.2292  2.0330
  329MOL0     H45385   7.364   3.744   3.196 -0.1836  1.0662 -0.9384
  329MOL0     H45386   7.704   5.135   2.190 -1.1136 -4.0095 -0.1841
  329MOL0     H45387   7.591   5.283   2.031 -2.2467 -1.3861 -1.3864
  329MOL0     H45388   7.494   5.340   1.606  0.2287 -0.1290  1.5141
  329MOL0     H45389   7.325   5.456   1.457 -0.7248  0.6859 -0.8565
  329MOL0     H45390   7.322   5.754   1.218  3.9774  1.5329  1.9897
  329MOL0     H45391   7.346   5.587   1.284 -0.1158 -0.3896  2.6121
  329MOL0     H45392   7.092   5.760   1.263  0.0161  0.3425  1.8892
  329MOL0     H45393   7.091   5.622   1.380  1.5629 -2.3999  0.7369
  329MOL0     H45394   7.141   5.606   1.077  2.9034 -0.1116  0.8451
  329MOL0     H45395   7.157   5.469   1.177  0.0428  0.1664  0.4417
  329MOL0     H45396   6.933   5.516   1.058 -3.0680  1.2906 -0.4684
  329MOL0     H45397   6.903   5.643   1.164 -1.0002 -0.6781 -1.3675
  329MOL0     H45398   6.851   5.335   1.454  2.0952 -2.1648 -0.8217
  329MOL0     H45399   7.503   5.822   1.565 -0.7624  0.0775  0.5465
  329MOL0     H45400   7.762   5.711   1.760 -2.4634 -4.2811 -0.5302
  329MOL0     H45401   7.662   5.854   1.719  1.7113 -0.6425 -3.1295
  329MOL0     H45402   7.636   5.741   1.868  2.8138  0.7093  0.3926
  330MOL0     O45403   9.131   6.783   4.287  0.9306 -0.0931 -0.1820
  330MOL0     C45404   9.199   6.756   4.195  0.3586  0.3922  0.7807
  330MOL0     O45405   9.175   6.643   4.124 -0.2479 -0.5468  0.6893
  330MOL0     C45406   9.045   6.589   4.136 -0.4837 -0.4145  0.0899
  330MOL0     C45407   9.012   6.514   4.251 -0.4719  0.1091  0.3770
  330MOL0     C45408   8.888   6.482   4.283  0.7058  0.8833  0.0777
  330MOL0     C45409   8.771   6.508   4.196 -1.3992 -0.4411 -0.4991
  330MOL0     O45410   8.644   6.453   4.211 -0.0374  0.4022 -0.4038
  330MOL0     C45411   8.630   6.337   4.291 -0.6563 -0.5711  0.4812
  330MOL0     C45412   8.487   6.287   4.253 -0.4516  0.5044 -0.1157
  330MOL0     C45413   8.479   6.141   4.314  0.4190  0.4000 -0.3264
  330MOL0     C45414   8.337   6.090   4.298  0.4973  0.6174 -0.4518
  330MOL0     C45415   8.250   6.128   4.419 -0.2482 -0.0063 -0.6805
  330MOL0     C45416   8.117   6.054   4.395  0.1727  0.2325 -0.4453
  330MOL0     C45417   8.009   6.120   4.482  0.8281 -0.0528  0.9294
  330MOL0     C45418   7.870   6.098   4.426 -0.1837 -1.1385 -0.1302
  330MOL0     N45419   7.858   5.949   4.418  0.0435 -0.4529 -0.8084
  330MOL0     C45420   7.860   5.864   4.525 -0.6317  0.4205  0.0923
  330MOL0     C45421   7.879   5.746   4.476 -0.8348  0.4615 -0.4118
  330MOL0     C45422   7.903   5.612   4.546  0.3136 -0.1719 -0.0911
  330MOL0     C45423   7.965   5.633   4.695 -0.2129  0.1714 -0.1238
  330MOL0     C45424   8.087   5.714   4.714  0.2632 -0.6191 -0.7111
  330MOL0     C45425   8.213   5.668   4.649  0.6952  0.2057  0.2345
  330MOL0     O45426   8.202   5.603   4.514 -0.1644 -0.9457 -0.2766
  330MOL0     C45427   8.289   5.653   4.417  1.4911 -0.7822  0.0312
  330MOL0     C45428   8.233   5.662   4.289 -0.1601  0.5255  0.6573
  330MOL0     C45429   8.309   5.701   4.176 -0.6210 -1.6563  0.9756
  330MOL0     C45430   8.247   5.700   4.035 -0.1507 -0.8858  0.0554
  330MOL0     C45431   8.444   5.758   4.201  0.0518 -0.5632  0.1340
  330MOL0     C45432   8.532   5.821   4.097 -0.6578 -1.0621 -0.7357
  330MOL0     O45433   8.656   5.848   4.146 -0.1768  0.1756  0.0771
  330MOL0     C45434   8.757   5.918   4.089  0.5404  0.8238 -0.8952
  330MOL0     C45435   8.890   5.881   4.114  0.0993 -0.1413 -0.4074
  330MOL0     C45436   8.992   5.951   4.057 -1.0732 -1.1670  0.0397
  330MOL0     C45437   8.973   6.067   3.983  0.4878  0.1046 -0.4099
  330MOL0     O45438   9.082   6.138   3.933  0.1081  0.1611 -1.1625
  330MOL0     C45439   9.096   6.269   3.989 -0.2863 -0.1137  0.4134
  330MOL0     C45440   9.242   6.297   3.991 -0.2805 -0.7140  0.1501
  330MOL0     C45441   9.298   6.301   3.844  0.1956 -0.4616 -0.6493
  330MOL0     C45442   9.417   6.397   3.840 -0.4098 -0.6231 -0.3236
  330MOL0     C45443   9.549   6.322   3.874 -0.3346  0.4220 -0.5220
  330MOL0     C45444   9.666   6.408   3.921  0.0794  0.3373 -0.9686
  330MOL0     C45445   9.729   6.489   3.811  0.2438  0.0742 -0.1866
  330MOL0     C45446   9.866   6.542   3.859  0.2471 -0.2061 -0.6237
  330MOL0    Cl45447   9.854   6.650   4.001 -0.1149  0.0648  0.3316
  330MOL0     C45448   8.841   6.104   3.952  0.2149  1.1437  0.3200
  330MOL0     C45449   8.734   6.032   4.005  0.4887  0.3083  1.1150
  330MOL0     O45450   8.497   5.823   3.975 -0.1664 -0.5126  0.1656
  330MOL0     C45451   8.493   5.737   4.334 -0.4070 -0.4342  1.0760
  330MOL0     C45452   8.417   5.695   4.436  0.1222 -0.3622 -0.3357
  330MOL0     N45453   7.883   5.758   4.338 -0.3632 -0.3785  0.2995
  330MOL0     N45454   7.879   5.879   4.306  0.1712  0.1399 -0.0345
  330MOL0     C45455   8.803   6.597   4.093 -1.0146  0.1773  0.0020
  330MOL0     C45456   8.935   6.641   4.065  0.0183 -0.2768 -0.1772
  330MOL0     C45457   9.330   6.824   4.184 -0.1130 -0.6102 -0.0505
  330MOL0     C45458   9.440   6.749   4.176  0.1608  1.0096  0.5733
  330MOL0     C45459   9.571   6.794   4.188  0.2670  0.2186 -0.5949
  330MOL0     C45460   9.591   6.925   4.202 -0.5898 -0.2052  0.1181
  330MOL0     O45461   9.716   6.984   4.222  0.4634  0.2671  0.4733
  330MOL0     C45462   9.832   6.923   4.163  0.2662 -0.0151 -0.6310
  330MOL0     C45463   9.953   7.020   4.177 -0.2737  0.9366 -0.3429
  330MOL0     C45464  10.060   6.978   4.076  0.1719  0.6616  0.2279
  330MOL0     C45465  10.172   7.079   4.082 -0.1399 -0.1198  0.1555
  330MOL0     C45466  10.293   7.027   4.018 -0.3975  0.5487  0.2984
  330MOL0     C45467  10.381   6.977   3.952  0.1992  0.1877 -0.2941
  330MOL0     C45468   9.483   7.011   4.219  0.2229 -0.3092  0.6903
  330MOL0     C45469   9.354   6.955   4.217  0.6285  0.1282 -0.2874
  330MOL0     C45470   9.241   7.056   4.218  0.6659  0.2483  0.7985
  330MOL0     H45471   9.088   6.494   4.325  0.5006 -5.7664 -1.7174
  330MOL0     H45472   8.868   6.420   4.370  0.6321  0.3509 -0.3219
  330MOL0     H45473   8.656   6.357   4.395  2.9393 -2.7605  0.1891
  330MOL0     H45474   8.712   6.268   4.269  1.4201  1.1879  2.2264
  330MOL0     H45475   8.413   6.351   4.303 -4.0386 -2.6602 -0.9501
  330MOL0     H45476   8.462   6.284   4.147 -0.5952 -2.6634 -0.0847
  330MOL0     H45477   8.551   6.072   4.269  0.7935 -0.7335  1.8630
  330MOL0     H45478   8.486   6.137   4.423 -2.2309 -4.5989 -0.0315
  330MOL0     H45479   8.293   6.138   4.210  0.0942  1.5763  0.2507
  330MOL0     H45480   8.335   5.981   4.288  4.0146  0.4159 -0.1392
  330MOL0     H45481   8.241   6.237   4.418  1.0704  0.1182 -2.1003
  330MOL0     H45482   8.289   6.098   4.517 -1.4650 -1.7466 -0.6957
  330MOL0     H45483   8.088   6.062   4.289  0.7904  0.2376 -0.6182
  330MOL0     H45484   8.129   5.950   4.427  1.5702  0.0681 -1.4199
  330MOL0     H45485   8.015   6.230   4.478  1.4960 -0.0940  0.5830
  330MOL0     H45486   8.022   6.092   4.587 -1.1184 -0.0732  1.2049
  330MOL0     H45487   7.793   6.137   4.493  1.9653  2.1568  0.6725
  330MOL0     H45488   7.845   6.148   4.332 -2.9044 -0.0072  1.0883
  330MOL0     H45489   7.839   5.893   4.627 -1.4167 -1.2878  0.4516
  330MOL0     H45490   7.974   5.564   4.478 -0.9790  0.0407 -1.6693
  330MOL0     H45491   7.813   5.551   4.538 -0.5135  1.0635 -0.5387
  330MOL0     H45492   7.885   5.670   4.760 -2.1995  1.5707 -3.1216
  330MOL0     H45493   8.003   5.539   4.736 -0.7728 -0.0710 -0.1455
  330MOL0     H45494   8.058   5.812   4.674 -0.2430 -0.5117 -0.0892
  330MOL0     H45495   8.106   5.735   4.819 -1.4664 -1.7615 -0.1284
  330MOL0     H45496   8.278   5.756   4.652  1.6540 -0.4723 -0.0843
  330MOL0     H45497   8.263   5.596   4.715  1.4281  0.6487  0.1803
  330MOL0     H45498   8.141   5.610   4.260 -0.1841  1.3424 -0.8492
  330MOL0     H45499   8.320   5.658   3.965 -1.1232  1.2212 -2.3730
  330MOL0     H45500   8.225   5.803   4.007  1.5541 -0.1138  1.3576
  330MOL0     H45501   8.152   5.646   4.038 -0.3203 -0.6456 -0.7115
  330MOL0     H45502   8.898   5.793   4.176 -0.3212  0.1557  0.0749
  330MOL0     H45503   9.094   5.925   4.082 -1.0075  0.0294  1.1478
  330MOL0     H45504   9.061   6.335   3.910 -3.7402 -3.2346 -0.9428
  330MOL0     H45505   9.050   6.281   4.088  1.9019 -0.3037  1.5181
  330MOL0     H45506   9.255   6.394   4.040  0.5753 -1.2584  1.0430
  330MOL0     H45507   9.287   6.222   4.057 -0.5148  0.0779  1.2326
  330MOL0     H45508   9.216   6.325   3.776 -0.8693  0.4433  0.9085
  330MOL0     H45509   9.325   6.199   3.815  1.3235  0.4973 -3.2710
  330MOL0     H45510   9.423   6.480   3.911  0.7930 -1.0181  0.0644
  330MOL0     H45511   9.429   6.442   3.741 -0.4586 -0.3442 -0.2029
  330MOL0     H45512   9.517   6.253   3.953 -2.8696  1.6492 -0.3659
  330MOL0     H45513   9.581   6.257   3.793 -0.1897 -0.7117  0.4180
  330MOL0     H45514   9.751   6.348   3.951  1.4198 -0.3624 -5.3611
  330MOL0     H45515   9.642   6.475   4.004  1.1298 -1.5322  0.9228
  330MOL0     H45516   9.663   6.574   3.789  0.7285  1.2441  2.4990
  330MOL0     H45517   9.740   6.443   3.713 -1.7385  2.0247 -1.4264
  330MOL0     H45518   9.904   6.606   3.778 -0.2047  1.1271  0.1869
  330MOL0     H45519   9.937   6.461   3.875  1.2604  0.5646 -1.0820
  330MOL0     H45520   8.814   6.193   3.897  1.9040  0.0753 -2.4338
  330MOL0     H45521   8.629   6.062   4.003 -0.0213 -1.4155 -0.0001
  330MOL0     H45522   8.598   5.746   4.361  0.1105 -1.0007 -0.6372
  330MOL0     H45523   8.460   5.681   4.535  3.1835 -0.1389 -1.5088
  330MOL0     H45524   8.732   6.637   4.021 -2.0424 -0.0502  0.8705
  330MOL0     H45525   8.951   6.702   3.976 -1.6198 -1.4002 -1.3222
  330MOL0     H45526   9.448   6.642   4.163 -0.9691  0.9845 -0.1031
  330MOL0     H45527   9.652   6.722   4.190 -0.1696 -0.2689 -0.1446
  330MOL0     H45528   9.855   6.821   4.195 -2.6944 -0.1068  1.5712
  330MOL0     H45529   9.795   6.922   4.060  0.3325 -0.0939 -0.6541
  330MOL0     H45530   9.994   7.009   4.278 -0.4633  2.4049 -0.0864
  330MOL0     H45531   9.924   7.124   4.163  1.5100  1.6208  0.7983
  330MOL0     H45532  10.099   6.876   4.085 -2.5487 -0.4844  0.1311
  330MOL0     H45533  10.005   6.977   3.981 -2.4921 -1.0943  1.6458
  330MOL0     H45534  10.208   7.092   4.185  2.1751  0.8118 -0.7137
  330MOL0     H45535  10.135   7.173   4.038 -0.9845 -1.6738 -2.6914
  330MOL0     H45536  10.460   6.931   3.896  2.5748  0.4313  2.5965
  330MOL0     H45537   9.498   7.117   4.238 -1.0540  0.1165 -0.4915
  330MOL0     H45538   9.258   7.145   4.279  1.8750  0.2397  0.4935
  330MOL0     H45539   9.221   7.092   4.116 -3.3705 -1.0662  0.9311
  330MOL0     H45540   9.151   7.005   4.253  1.2559 -1.2445  0.2043
  331MOL0     O45541  11.073   5.563   2.500 -0.2722  0.0124  0.1868
  331MOL0     C45542  11.019   5.597   2.610  0.1869 -0.6311  0.2124
  331MOL0     O45543  10.914   5.536   2.674 -0.5870  0.7818  0.2806
  331MOL0     C45544  10.861   5.416   2.630  0.3098 -0.0417  0.3602
  331MOL0     C45545  10.722   5.414   2.623 -0.8956  0.4842 -0.5269
  331MOL0     C45546  10.666   5.289   2.574 -0.4631 -0.6364  0.5553
  331MOL0     C45547  10.744   5.177   2.548  0.1596  0.4530 -0.6394
  331MOL0     O45548  10.698   5.051   2.489 -0.4499 -0.3558 -0.0192
  331MOL0     C45549  10.561   5.031   2.461 -0.5048 -0.4992 -1.0343
  331MOL0     C45550  10.533   5.113   2.336  0.8638 -0.0623  0.3678
  331MOL0     C45551  10.399   5.077   2.263  0.3425 -0.3929  0.2119
  331MOL0     C45552  10.280   5.158   2.311 -0.2406 -0.1057  0.0751
  331MOL0     C45553  10.150   5.139   2.229  0.2540 -0.1798 -0.4563
  331MOL0     C45554  10.074   5.007   2.237  0.5422  0.0201  0.3120
  331MOL0     C45555   9.947   5.007   2.152 -0.9541 -0.5523 -0.2338
  331MOL0     C45556   9.859   4.891   2.183 -0.1372 -0.4845  0.0675
  331MOL0     N45557   9.718   4.911   2.128  0.0780  0.4515 -0.4825
  331MOL0     C45558   9.691   4.915   1.990  0.0258  0.4145 -0.0469
  331MOL0     C45559   9.559   4.926   1.976 -0.3428  0.2047  0.1909
  331MOL0     C45560   9.502   4.963   1.842 -0.9691  0.4551 -0.7901
  331MOL0     C45561   9.533   4.854   1.743 -0.2460 -0.8591  0.6532
  331MOL0     C45562   9.451   4.865   1.617 -0.1458  0.0951  0.3825
  331MOL0     C45563   9.510   4.777   1.507  0.3317 -0.4748 -0.3947
  331MOL0     O45564   9.637   4.823   1.468  0.4342 -0.6402  0.0623
  331MOL0     C45565   9.688   4.780   1.350 -0.6269 -0.0880  0.8484
  331MOL0     C45566   9.694   4.649   1.299 -0.0399 -0.4556 -0.8284
  331MOL0     C45567   9.746   4.612   1.177  1.1720  0.7438 -0.4581
  331MOL0     C45568   9.741   4.461   1.140  0.4038 -0.2854 -0.2779
  331MOL0     C45569   9.809   4.709   1.099 -0.0226 -1.5349 -0.4520
  331MOL0     C45570   9.855   4.671   0.961 -0.1822  0.2606  0.1874
  331MOL0     O45571   9.975   4.735   0.932 -0.3294  0.2240  0.0589
  331MOL0     C45572  10.036   4.694   0.813 -0.7346 -0.0017 -0.5282
  331MOL0     C45573  10.135   4.781   0.767  0.2783 -0.0962  0.1988
  331MOL0     C45574  10.199   4.765   0.647 -0.2280 -0.6455  0.0070
  331MOL0     C45575  10.164   4.659   0.568  0.1315  0.4297 -1.4081
  331MOL0     O45576  10.226   4.635   0.454 -0.6048 -1.0984  0.2047
  331MOL0     C45577  10.203   4.728   0.353  0.2372 -0.5040  0.4726
  331MOL0     C45578  10.301   4.699   0.247 -0.1048 -0.7155 -0.7228
  331MOL0     C45579  10.273   4.767   0.114 -0.7656 -0.6386  0.5921
  331MOL0     C45580  10.403   4.782   0.034  0.6047 -0.5410 -0.7058
  331MOL0     C45581  10.466   4.646   0.001 -0.2829  0.3752  0.2150
  331MOL0     C45582  10.599   4.672  -0.076  0.7166 -0.0814  0.3575
  331MOL0     C45583  10.651   4.549  -0.135  0.0544 -0.2964  0.4137
  331MOL0     C45584  10.656   4.545  -0.282 -0.0583 -0.0529  0.4091
  331MOL0    Cl45585  10.676   4.369  -0.323  0.4091 -0.0866 -0.3781
  331MOL0     C45586  10.066   4.566   0.601  0.4358 -0.9640 -0.1517
  331MOL0     C45587  10.010   4.576   0.733 -0.3339  0.8636 -0.5359
  331MOL0     O45588   9.786   4.601   0.887 -0.2516 -0.5576  0.5833
  331MOL0     C45589   9.820   4.845   1.150 -0.0574 -0.4823  0.6277
  331MOL0     C45590   9.758   4.880   1.269 -0.5409  1.2688 -0.1651
  331MOL0     N45591   9.499   4.922   2.099 -0.5730  0.1014  0.0657
  331MOL0     N45592   9.592   4.904   2.181  1.0019 -0.0346 -0.9670
  331MOL0     C45593  10.876   5.188   2.565  0.2159  0.1637 -0.3607
  331MOL0     C45594  10.935   5.310   2.605 -0.3021  0.1948 -0.2418
  331MOL0     C45595  11.092   5.708   2.669  0.6444 -0.0954 -1.0892
  331MOL0     C45596  11.013   5.825   2.671 -0.6814 -1.2717  0.0020
  331MOL0     C45597  11.076   5.941   2.716 -0.4064  0.0455 -0.1720
  331MOL0     C45598  11.213   5.953   2.742 -0.2938  0.2192 -0.3093
  331MOL0     O45599  11.265   6.082   2.776 -0.0693 -0.1069  0.1834
  331MOL0     C45600  11.366   6.109   2.687 -0.9935 -0.6751  0.0396
  331MOL0     C45601  11.489   6.154   2.761 -0.7790  0.2143  0.3094
  331MOL0     C45602  11.533   6.063   2.872 -0.1442  0.5698 -0.7736
  331MOL0     C45603  11.579   6.144   2.992 -0.1434  0.2818 -0.3500
  331MOL0     C45604  11.614   6.055   3.098  0.7360 -0.1725 -0.3161
  331MOL0     C45605  11.632   5.971   3.183  0.3609  0.4238  0.8741
  331MOL0     C45606  11.284   5.834   2.730 -0.3453  0.0248 -0.4205
  331MOL0     C45607  11.231   5.709   2.696 -0.4417 -0.5575  0.7424
  331MOL0     C45608  11.305   5.578   2.695 -0.2515  0.5706 -0.4605
  331MOL0     H45609  10.656   5.498   2.642 -0.0268  0.5424  2.8964
  331MOL0     H45610  10.560   5.287   2.551 -0.6341  0.1558  1.2360
  331MOL0     H45611  10.487   5.050   2.539 -0.5119 -0.7202 -0.9859
  331MOL0     H45612  10.553   4.922   2.449 -1.7723 -0.5748  0.2314
  331MOL0     H45613  10.531   5.221   2.352 -1.1181  0.0139 -0.1020
  331MOL0     H45614  10.612   5.094   2.262  0.4914  0.4740 -0.1810
  331MOL0     H45615  10.416   5.099   2.157  1.8095 -1.3663  0.2213
  331MOL0     H45616  10.382   4.970   2.273 -3.7184  0.2838  3.7617
  331MOL0     H45617  10.264   5.151   2.419  0.8115  0.2923  0.2657
  331MOL0     H45618  10.300   5.266   2.305 -3.2136  0.4799 -1.8543
  331MOL0     H45619  10.166   5.165   2.124 -0.4315 -0.6163 -0.6776
  331MOL0     H45620  10.095   5.222   2.276 -0.9374 -1.3604  0.3192
  331MOL0     H45621  10.147   4.930   2.209  0.4511 -1.2336  3.1483
  331MOL0     H45622  10.050   5.002   2.344 -3.0898  3.1732 -0.1957
  331MOL0     H45623   9.967   4.998   2.045  1.2119 -0.0461  0.0698
  331MOL0     H45624   9.897   5.101   2.178  2.3965  1.4295 -0.2511
  331MOL0     H45625   9.908   4.802   2.143 -2.0086 -0.4432 -2.5979
  331MOL0     H45626   9.857   4.870   2.290 -0.2328 -0.6831  0.0276
  331MOL0     H45627   9.771   4.914   1.917  2.4332 -0.6537  2.4606
  331MOL0     H45628   9.538   5.056   1.798  1.0726 -0.7805 -1.8622
  331MOL0     H45629   9.393   4.973   1.849 -1.1248  0.7459 -2.9871
  331MOL0     H45630   9.639   4.853   1.715  0.6262  0.8908  3.4858
  331MOL0     H45631   9.520   4.759   1.796 -0.1426  0.0961  2.4738
  331MOL0     H45632   9.351   4.825   1.638 -0.1122 -1.6048 -2.2367
  331MOL0     H45633   9.446   4.967   1.576 -1.0860 -1.3768 -3.5901
  331MOL0     H45634   9.508   4.674   1.542 -1.4407 -2.4861 -5.5392
  331MOL0     H45635   9.438   4.778   1.424 -1.1536  0.9624  0.8313
  331MOL0     H45636   9.639   4.573   1.355 -2.1492 -1.1323 -3.5823
  331MOL0     H45637   9.713   4.445   1.035 -1.7758 -0.3703  0.2596
  331MOL0     H45638   9.664   4.406   1.194  0.7441  2.3806  3.2789
  331MOL0     H45639   9.835   4.405   1.133  1.2280  1.2222 -2.2666
  331MOL0     H45640  10.147   4.876   0.818 -3.2938  1.3341 -1.3455
  331MOL0     H45641  10.271   4.843   0.623  2.4821 -1.9803  3.0845
  331MOL0     H45642  10.100   4.710   0.321  1.2266 -1.0839 -2.6852
  331MOL0     H45643  10.217   4.832   0.384  1.7603  0.3034 -2.5304
  331MOL0     H45644  10.391   4.749   0.285 -0.9425  2.0252 -2.0944
  331MOL0     H45645  10.308   4.590   0.240 -1.3831 -0.8635 -0.0261
  331MOL0     H45646  10.226   4.866   0.114 -0.4350 -0.4595 -1.1773
  331MOL0     H45647  10.207   4.704   0.054 -0.3178 -1.8035  1.2929
  331MOL0     H45648  10.482   4.834   0.088  1.1388 -0.3727 -1.6324
  331MOL0     H45649  10.377   4.833  -0.059  1.6568 -2.5732 -2.2110
  331MOL0     H45650  10.484   4.604   0.100  2.0096  1.9627  0.5587
  331MOL0     H45651  10.394   4.587  -0.057 -1.8468  1.8834  0.5469
  331MOL0     H45652  10.665   4.724  -0.005 -0.1409  1.7299 -0.1102
  331MOL0     H45653  10.578   4.752  -0.147 -1.0076 -1.3630 -0.6194
  331MOL0     H45654  10.586   4.468  -0.101 -1.2237  0.4204 -0.2359
  331MOL0     H45655  10.753   4.527  -0.104 -0.0445 -1.6033 -0.1257
  331MOL0     H45656  10.735   4.610  -0.321 -0.1688 -1.0895 -1.7013
  331MOL0     H45657  10.565   4.587  -0.325  0.2561  0.1328 -0.0831
  331MOL0     H45658  10.046   4.475   0.545  1.4126 -1.2269 -0.0865
  331MOL0     H45659   9.938   4.497   0.755 -0.1876 -0.0737 -3.1008
  331MOL0     H45660   9.875   4.914   1.087 -0.9034 -0.6897 -0.3610
  331MOL0     H45661   9.766   4.985   1.296 -0.2988  1.7736 -2.0633
  331MOL0     H45662  10.948   5.114   2.532  2.0107  1.5556  0.2270
  331MOL0     H45663  11.042   5.320   2.622 -0.2923 -0.8875  0.4450
  331MOL0     H45664  10.905   5.819   2.665 -1.0251  0.5431  2.6406
  331MOL0     H45665  11.020   6.031   2.737 -0.9735 -0.1631 -0.7442
  331MOL0     H45666  11.397   6.028   2.621  0.0939 -2.2680  2.3829
  331MOL0     H45667  11.352   6.192   2.617  2.6640  2.0113  2.1151
  331MOL0     H45668  11.471   6.255   2.799  0.2513  0.7835 -0.6269
  331MOL0     H45669  11.565   6.163   2.682 -1.2404  1.4869 -0.0133
  331MOL0     H45670  11.448   6.002   2.903  0.2084 -0.0834 -1.0632
  331MOL0     H45671  11.612   5.991   2.847  0.6950  0.9539  0.6540
  331MOL0     H45672  11.497   6.207   3.027 -2.1058 -1.9725 -0.6456
  331MOL0     H45673  11.660   6.214   2.970 -0.2244  1.0209  1.5278
  331MOL0     H45674  11.661   5.889   3.247 -1.0105 -1.4198 -0.7472
  331MOL0     H45675  11.390   5.837   2.757  0.2505  4.0254 -2.3784
  331MOL0     H45676  11.306   5.546   2.590 -2.1155  1.4874 -0.7983
  331MOL0     H45677  11.406   5.587   2.735 -0.8547 -0.1810  1.3239
  331MOL0     H45678  11.242   5.502   2.742  0.0779 -0.5165 -1.6942
  332MOL0     O45679  10.321   4.494   7.799 -0.5651 -0.3573  0.2858
  332MOL0     C45680  10.407   4.578   7.786 -0.4511 -0.0842 -0.7274
  332MOL0     O45681  10.471   4.610   7.665  0.7654  0.6286 -0.3496
  332MOL0     C45682  10.438   4.540   7.556 -0.1241 -0.3936  0.2699
  332MOL0     C45683  10.541   4.478   7.493 -0.6824 -0.0337 -0.7813
  332MOL0     C45684  10.521   4.423   7.372 -0.1372  0.1168 -0.2836
  332MOL0     C45685  10.401   4.429   7.307  0.6160 -0.8501  0.7161
  332MOL0     O45686  10.367   4.388   7.173 -0.2263 -0.4547  0.5629
  332MOL0     C45687  10.470   4.344   7.086  0.6483  0.9039 -0.9491
  332MOL0     C45688  10.391   4.280   6.971  0.1768 -0.1883 -0.2296
  332MOL0     C45689  10.485   4.221   6.878 -0.1813  0.2213 -0.1705
  332MOL0     C45690  10.419   4.182   6.743  0.5661 -0.2109 -1.3488
  332MOL0     C45691  10.500   4.126   6.644 -0.3280  0.9236  0.3333
  332MOL0     C45692  10.405   4.105   6.523 -0.1917 -0.4498  0.1819
  332MOL0     C45693  10.397   4.241   6.450  0.3469  0.0068 -0.1354
  332MOL0     C45694  10.317   4.238   6.323  0.0287  0.1086 -0.5199
  332MOL0     N45695  10.178   4.199   6.351  0.7838  0.5981 -0.5236
  332MOL0     C45696  10.098   4.248   6.448  0.2264  1.4095 -0.9311
  332MOL0     C45697   9.997   4.156   6.453  0.4429 -0.6444 -0.5842
  332MOL0     C45698   9.878   4.149   6.545  0.1686 -0.1687  0.0592
  332MOL0     C45699   9.754   4.208   6.487  0.4314  0.0197 -0.0953
  332MOL0     C45700   9.622   4.178   6.555 -0.0872  0.1768  0.2033
  332MOL0     C45701   9.631   4.195   6.713 -0.5412  0.1794 -0.0335
  332MOL0     O45702   9.509   4.141   6.758 -0.2671 -0.5915 -0.1374
  332MOL0     C45703   9.481   4.152   6.891  0.1901 -0.1919 -0.4254
  332MOL0     C45704   9.382   4.065   6.951 -0.2175 -0.2962 -0.5022
  332MOL0     C45705   9.357   4.055   7.086  0.0783  0.5075 -1.2152
  332MOL0     C45706   9.242   3.959   7.119  0.0379  0.6772 -0.7599
  332MOL0     C45707   9.443   4.123   7.173  1.2215  0.6531 -0.2682
  332MOL0     C45708   9.432   4.108   7.313  0.3544 -0.0281  0.2193
  332MOL0     O45709   9.353   4.011   7.361 -0.1046 -0.7838  0.0476
  332MOL0     C45710   9.361   3.956   7.487 -0.0987 -0.6670 -0.1153
  332MOL0     C45711   9.280   3.835   7.498 -0.4902 -0.2366 -0.1085
  332MOL0     C45712   9.275   3.760   7.610 -0.4285  0.8873 -0.5962
  332MOL0     C45713   9.341   3.804   7.725 -0.3577  0.5308  0.6102
  332MOL0     O45714   9.338   3.729   7.842  0.6773 -0.0580  0.1665
  332MOL0     C45715   9.453   3.728   7.917  0.3340  0.7209  0.5409
  332MOL0     C45716   9.478   3.582   7.975  0.3403 -0.6080  0.5616
  332MOL0     C45717   9.598   3.565   8.061  0.1901  0.0407 -0.9721
  332MOL0     C45718   9.719   3.521   7.979 -0.2574  0.7182 -0.1881
  332MOL0     C45719   9.832   3.464   8.069  1.1046  0.3075 -0.3910
  332MOL0     C45720   9.864   3.544   8.199  0.9945 -0.3402  0.2555
  332MOL0     C45721   9.946   3.458   8.292 -0.7951  0.2794 -0.3159
  332MOL0     C45722  10.097   3.461   8.271  0.2983  0.4554  0.5533
  332MOL0    Cl45723  10.174   3.344   8.390  0.3314 -0.2241  0.1423
  332MOL0     C45724   9.405   3.933   7.722 -0.4825  0.4367 -0.7324
  332MOL0     C45725   9.428   4.001   7.599 -0.5559 -0.4432 -0.2672
  332MOL0     O45726   9.478   4.197   7.384  0.2586 -0.0566 -1.1849
  332MOL0     C45727   9.545   4.199   7.118 -0.6045 -0.6832 -0.2674
  332MOL0     C45728   9.560   4.216   6.980 -0.2253 -0.7978 -0.2037
  332MOL0     N45729  10.019   4.065   6.359 -0.6271  0.3185 -0.2844
  332MOL0     N45730  10.126   4.083   6.295  0.3143 -0.1451 -0.0651
  332MOL0     C45731  10.295   4.491   7.368  0.7281 -0.0519 -0.2304
  332MOL0     C45732  10.314   4.550   7.490 -0.2124  0.3992  0.8793
  332MOL0     C45733  10.465   4.636   7.909  1.5009 -0.1844  0.5114
  332MOL0     C45734  10.589   4.682   7.918  0.6180 -0.1130  0.6347
  332MOL0     C45735  10.645   4.712   8.040  0.2111 -0.8796  0.0292
  332MOL0     C45736  10.562   4.719   8.159 -0.1912 -0.1196  0.8694
  332MOL0     O45737  10.608   4.743   8.284  0.2886 -0.3819 -0.1441
  332MOL0     C45738  10.738   4.790   8.321  0.1567 -0.2023 -0.7758
  332MOL0     C45739  10.758   4.943   8.312  0.5166 -0.1228  0.7152
  332MOL0     C45740  10.647   5.021   8.372 -0.3407  0.0837  0.2911
  332MOL0     C45741  10.653   5.174   8.338  0.1710 -0.6763 -0.5664
  332MOL0     C45742  10.774   5.232   8.400  0.2963 -0.0107 -0.0558
  332MOL0     C45743  10.886   5.257   8.444 -0.0761  0.0124  0.2318
  332MOL0     C45744  10.427   4.682   8.147 -1.0889  0.9591  0.1206
  332MOL0     C45745  10.373   4.649   8.023 -0.3689  0.1248 -0.1919
  332MOL0     C45746  10.219   4.608   8.021 -0.8850 -0.1673 -0.4092
  332MOL0     H45747  10.637   4.478   7.543 -0.1018  4.4532 -1.5527
  332MOL0     H45748  10.599   4.368   7.323 -1.1032  0.1302 -1.9034
  332MOL0     H45749  10.546   4.282   7.134  1.1303  0.6350 -2.0261
  332MOL0     H45750  10.515   4.433   7.040  1.8075  0.2825 -1.0471
  332MOL0     H45751  10.325   4.206   7.018  0.2821 -0.4529 -0.4990
  332MOL0     H45752  10.326   4.352   6.921  0.2707  0.0326 -0.0351
  332MOL0     H45753  10.570   4.285   6.854 -1.2732  1.2786 -1.3781
  332MOL0     H45754  10.538   4.134   6.916  0.5078  0.1688 -1.2331
  332MOL0     H45755  10.335   4.113   6.752  1.0338 -0.5908  0.4685
  332MOL0     H45756  10.382   4.278   6.706 -0.8336 -0.2862 -0.2216
  332MOL0     H45757  10.555   4.037   6.677 -0.2827  1.9642  3.4038
  332MOL0     H45758  10.578   4.201   6.632 -0.4504  1.4452  2.3294
  332MOL0     H45759  10.449   4.030   6.456 -1.1868 -1.3590  0.5335
  332MOL0     H45760  10.307   4.064   6.548 -0.9444  0.9280 -0.3627
  332MOL0     H45761  10.498   4.277   6.427 -0.6137  2.3137 -1.0316
  332MOL0     H45762  10.349   4.318   6.512 -0.4198  1.9183 -2.8861
  332MOL0     H45763  10.329   4.340   6.283  0.2600 -0.2068 -1.2857
  332MOL0     H45764  10.367   4.162   6.262  0.5336 -0.4502  0.5622
  332MOL0     H45765  10.116   4.339   6.505  0.5162  0.2868  0.8221
  332MOL0     H45766   9.918   4.208   6.628  3.7838 -1.5900 -0.4782
  332MOL0     H45767   9.860   4.048   6.582  0.4889  0.7253  2.8964
  332MOL0     H45768   9.764   4.317   6.484 -0.3086  0.0698 -1.5303
  332MOL0     H45769   9.740   4.165   6.387  1.8021  2.0202 -1.2037
  332MOL0     H45770   9.547   4.247   6.516 -2.2146 -1.3969  1.3471
  332MOL0     H45771   9.593   4.074   6.536  2.6411 -0.4191 -1.3542
  332MOL0     H45772   9.732   4.166   6.746  1.7929  5.4300 -1.5262
  332MOL0     H45773   9.621   4.301   6.736  3.5461  0.4787  1.1962
  332MOL0     H45774   9.323   4.007   6.881 -0.6778  1.4549 -1.6225
  332MOL0     H45775   9.185   3.947   7.027  0.6993  2.2260 -1.4079
  332MOL0     H45776   9.174   4.008   7.190 -0.0393  0.5536 -0.7481
  332MOL0     H45777   9.275   3.860   7.151  1.4705  0.6976 -2.0620
  332MOL0     H45778   9.225   3.808   7.408 -0.2016 -0.3628 -0.2478
  332MOL0     H45779   9.200   3.683   7.618  0.2120  0.4241  1.3167
  332MOL0     H45780   9.540   3.754   7.857  0.6617 -0.0871  0.6616
  332MOL0     H45781   9.447   3.811   7.988  2.5158  2.4546 -1.1482
  332MOL0     H45782   9.394   3.561   8.041 -2.2814  3.6038 -0.9902
  332MOL0     H45783   9.478   3.508   7.895 -1.7299  0.0416 -0.1231
  332MOL0     H45784   9.582   3.484   8.133  5.4129 -1.8424 -1.4600
  332MOL0     H45785   9.624   3.647   8.128  0.5322  0.1011 -1.1774
  332MOL0     H45786   9.763   3.604   7.922 -0.9836  0.1545 -1.6043
  332MOL0     H45787   9.682   3.444   7.911  4.3292 -1.6885 -0.3670
  332MOL0     H45788   9.779   3.371   8.091 -1.9688  0.9213 -3.9777
  332MOL0     H45789   9.916   3.432   8.006 -0.6747 -2.1001 -1.7301
  332MOL0     H45790   9.775   3.578   8.252  1.0229  2.2756 -1.1631
  332MOL0     H45791   9.917   3.636   8.172  1.0592 -0.3161  0.4708
  332MOL0     H45792   9.918   3.353   8.275  1.0456 -0.3807  0.5144
  332MOL0     H45793   9.933   3.489   8.396  2.6680  0.6862  0.1109
  332MOL0     H45794  10.135   3.563   8.277 -1.1111  1.0068  0.4766
  332MOL0     H45795  10.137   3.427   8.175  0.3806  0.9449  0.4117
  332MOL0     H45796   9.445   3.963   7.819  1.9553 -2.0900 -0.8325
  332MOL0     H45797   9.466   4.103   7.600 -0.8957 -0.3056 -0.8230
  332MOL0     H45798   9.607   4.260   7.183 -1.5527  0.8904 -0.7831
  332MOL0     H45799   9.645   4.278   6.952 -1.5670  0.8040 -0.9099
  332MOL0     H45800  10.200   4.483   7.317 -0.5379 -0.9961  2.1426
  332MOL0     H45801  10.228   4.597   7.536  0.0526  1.6929  0.0915
  332MOL0     H45802  10.649   4.669   7.828 -1.4937  0.1968 -0.8979
  332MOL0     H45803  10.753   4.725   8.049  0.6003 -2.5003 -1.5208
  332MOL0     H45804  10.760   4.769   8.426  2.9336 -1.2684 -1.4866
  332MOL0     H45805  10.813   4.747   8.255 -1.5333 -1.3166 -2.0667
  332MOL0     H45806  10.765   4.971   8.206 -1.4453  0.3415  0.6768
  332MOL0     H45807  10.850   4.972   8.363 -0.2971  2.8994  0.6635
  332MOL0     H45808  10.551   4.979   8.343 -2.0386  1.7876  2.9415
  332MOL0     H45809  10.669   5.014   8.480 -0.1123  1.5006  0.3594
  332MOL0     H45810  10.568   5.237   8.368  2.2543  1.5379  1.0466
  332MOL0     H45811  10.667   5.192   8.231  2.7020  0.8966 -0.0617
  332MOL0     H45812  10.983   5.282   8.480 -0.0871 -2.9579  2.7859
  332MOL0     H45813  10.368   4.690   8.238 -1.9498  0.7028 -0.4124
  332MOL0     H45814  10.175   4.636   7.924  1.1415 -0.2121 -1.4057
  332MOL0     H45815  10.207   4.500   8.030 -1.5679  0.1078  4.1799
  332MOL0     H45816  10.173   4.664   8.103 -1.8350 -0.1852 -0.9134
  333MOL0     O45817   8.470   9.183   6.222 -0.3116 -0.0225 -0.3346
  333MOL0     C45818   8.372   9.195   6.294 -0.0356 -0.1703 -0.4647
  333MOL0     O45819   8.286   9.307   6.289  0.3372  0.2897  0.3313
  333MOL0     C45820   8.317   9.418   6.373 -0.4911  1.1263 -0.8839
  333MOL0     C45821   8.204   9.495   6.408 -0.1623  0.4125 -0.5562
  333MOL0     C45822   8.221   9.600   6.488 -0.5896  0.0660 -0.7165
  333MOL0     C45823   8.348   9.635   6.534  0.6581 -0.8294  0.2340
  333MOL0     O45824   8.347   9.751   6.607 -0.2376 -0.3796  0.7667
  333MOL0     C45825   8.479   9.820   6.618  0.9884  0.2836 -0.6317
  333MOL0     C45826   8.466   9.962   6.675 -0.0830 -0.8186  0.3766
  333MOL0     C45827   8.529  10.062   6.581  0.7937 -0.5121 -0.1844
  333MOL0     C45828   8.479  10.209   6.608  0.4410 -0.5235  0.2571
  333MOL0     C45829   8.573  10.300   6.530  0.8442 -0.2453  1.1529
  333MOL0     C45830   8.543  10.449   6.521 -0.2000 -0.6717  0.3333
  333MOL0     C45831   8.636  10.513   6.416 -0.5215 -0.0629 -0.9462
  333MOL0     C45832   8.783  10.527   6.465  0.0425  0.0386  0.3127
  333MOL0     N45833   8.861  10.621   6.379  0.2794  0.5109 -0.3115
  333MOL0     C45834   8.996  10.604   6.349  0.1089  0.8568  0.0151
  333MOL0     C45835   9.024  10.713   6.276  0.2749  0.1304 -0.0004
  333MOL0     C45836   9.164  10.734   6.229 -0.2754  0.2047  0.0798
  333MOL0     C45837   9.267  10.785   6.340  0.2765  0.2941  1.0953
  333MOL0     C45838   9.399  10.841   6.259  0.5038  0.8770  0.5127
  333MOL0     C45839   9.499  10.899   6.343  0.0939 -0.0270 -0.2796
  333MOL0     O45840   9.535  10.808   6.440 -0.0001  0.5370  0.7704
  333MOL0     C45841   9.611  10.846   6.545 -0.4058  0.6633 -0.7486
  333MOL0     C45842   9.657  10.974   6.569 -0.7441 -0.5757 -0.2664
  333MOL0     C45843   9.759  11.003   6.666 -0.0488 -0.2146  0.4864
  333MOL0     C45844   9.812  11.142   6.663 -0.1011  0.1686 -0.0635
  333MOL0     C45845   9.806  10.895   6.752 -0.5854 -0.2574  0.0027
  333MOL0     C45846   9.904  10.912   6.864 -0.3138 -0.2214 -0.1892
  333MOL0     O45847   9.979  11.024   6.873  1.1734  0.0332  0.1419
  333MOL0     C45848  10.074  11.030   6.972 -0.0917  1.1748 -0.8709
  333MOL0     C45849  10.043  10.999   7.105 -0.4471 -0.2438 -0.0762
  333MOL0     C45850  10.148  11.003   7.194 -0.1444  0.5033 -0.5163
  333MOL0     C45851  10.269  11.070   7.170 -0.0874  0.2906  1.5380
  333MOL0     O45852  10.347  11.104   7.282 -0.0774 -0.0934 -0.0115
  333MOL0     C45853  10.426  11.005   7.346 -0.1894 -0.1483  0.0958
  333MOL0     C45854  10.565  11.055   7.354 -0.5968 -0.9383 -0.9798
  333MOL0     C45855  10.642  10.967   7.462 -0.8561 -0.8321  0.3237
  333MOL0     C45856  10.655  10.829   7.422 -0.7062  0.5731 -1.0068
  333MOL0     C45857  10.772  10.753   7.493 -0.4114 -0.2929 -0.5257
  333MOL0     C45858  10.916  10.809   7.480  1.0260  0.4507 -0.2086
  333MOL0     C45859  11.009  10.723   7.562 -0.3179  0.8167 -0.2812
  333MOL0     C45860  11.159  10.762   7.545  0.2914 -1.0085 -0.2283
  333MOL0    Cl45861  11.268  10.682   7.671  0.4165 -0.3488 -0.0332
  333MOL0     C45862  10.294  11.122   7.045  1.2502  0.4676  0.8842
  333MOL0     C45863  10.197  11.089   6.936 -0.2483  0.7934 -0.6819
  333MOL0     O45864   9.906  10.821   6.943 -0.5033  0.7833  0.9033
  333MOL0     C45865   9.756  10.766   6.723  0.4864  0.1238  0.0512
  333MOL0     C45866   9.654  10.743   6.627 -0.2047  0.6881 -0.6549
  333MOL0     N45867   8.904  10.790   6.274 -0.8522  0.2225 -0.1944
  333MOL0     N45868   8.810  10.740   6.340  0.1252  0.2523 -0.0996
  333MOL0     C45869   8.452   9.553   6.513 -0.4795 -0.5748 -0.4124
  333MOL0     C45870   8.445   9.449   6.423 -0.0642  0.6941 -0.7003
  333MOL0     C45871   8.325   9.071   6.380 -0.2911 -0.5325 -0.7619
  333MOL0     C45872   8.189   9.051   6.388 -0.2759  0.5796 -0.8150
  333MOL0     C45873   8.133   8.943   6.433  0.5115  0.1018 -0.6251
  333MOL0     C45874   8.214   8.832   6.479  0.2723 -0.6963  0.0112
  333MOL0     O45875   8.161   8.718   6.531  0.1504 -0.3859  0.0752
  333MOL0     C45876   8.026   8.679   6.498 -0.1684  0.4790  1.3254
  333MOL0     C45877   7.996   8.545   6.555 -0.1095  0.6142 -0.5873
  333MOL0     C45878   8.105   8.442   6.514 -0.3025 -0.5196 -0.2455
  333MOL0     C45879   8.093   8.306   6.581 -0.3250 -0.6826 -0.1947
  333MOL0     C45880   8.171   8.206   6.510 -0.2706 -0.6139 -0.4903
  333MOL0     C45881   8.258   8.135   6.472  0.0151  0.2883 -0.0388
  333MOL0     C45882   8.346   8.839   6.469 -0.5558 -0.1540 -0.2245
  333MOL0     C45883   8.406   8.969   6.437 -0.3231  0.1678  0.2615
  333MOL0     C45884   8.548   8.987   6.472 -0.7343  0.3233 -0.3093
  333MOL0     H45885   8.104   9.473   6.371 -0.3585 -5.0337  2.1984
  333MOL0     H45886   8.137   9.667   6.500  0.1500  1.1129 -1.2657
  333MOL0     H45887   8.539   9.821   6.527  1.6611  2.4841 -0.2322
  333MOL0     H45888   8.543   9.767   6.689  1.8228 -2.3081 -3.1336
  333MOL0     H45889   8.362   9.995   6.688  0.9209  2.9614  0.0280
  333MOL0     H45890   8.519   9.975   6.769 -0.9086  0.2552  0.7211
  333MOL0     H45891   8.638  10.063   6.597  0.9045 -1.5606 -0.8220
  333MOL0     H45892   8.518  10.032   6.477  2.9743 -0.8296 -0.3647
  333MOL0     H45893   8.379  10.227   6.569  0.1663  0.8770  1.4910
  333MOL0     H45894   8.494  10.235   6.714  3.8184 -0.3689 -0.1382
  333MOL0     H45895   8.578  10.266   6.426 -0.4249  2.6633  0.0339
  333MOL0     H45896   8.678  10.286   6.557  1.4959  1.7345 -0.1471
  333MOL0     H45897   8.440  10.457   6.487 -0.1750  0.8194  0.5507
  333MOL0     H45898   8.570  10.498   6.616  1.4995  2.2561 -1.5087
  333MOL0     H45899   8.589  10.609   6.396 -1.3347 -0.7567 -2.5943
  333MOL0     H45900   8.636  10.463   6.318 -0.9187  1.2114 -1.6191
  333MOL0     H45901   8.765  10.559   6.569  1.6105  0.3005  0.5342
  333MOL0     H45902   8.822  10.425   6.466 -2.7173 -1.1202  0.1975
  333MOL0     H45903   9.058  10.528   6.394 -2.0832 -0.3950  1.0862
  333MOL0     H45904   9.160  10.798   6.140  2.4740 -0.0641 -0.2993
  333MOL0     H45905   9.204  10.636   6.201 -2.1951 -1.0605  1.5139
  333MOL0     H45906   9.229  10.867   6.403 -1.1274  0.3604  0.2072
  333MOL0     H45907   9.294  10.698   6.400 -2.3193 -2.5559 -1.5371
  333MOL0     H45908   9.441  10.758   6.200 -2.9690 -3.1388  3.1242
  333MOL0     H45909   9.382  10.920   6.186  2.0918 -1.1336 -2.2339
  333MOL0     H45910   9.593  10.919   6.291  0.2512 -0.8465 -0.3284
  333MOL0     H45911   9.472  10.997   6.384  0.0586  0.4148 -1.3267
  333MOL0     H45912   9.641  11.062   6.507 -0.6748  1.1267  2.0071
  333MOL0     H45913   9.921  11.137   6.656 -0.1502 -4.8994 -1.1649
  333MOL0     H45914   9.783  11.194   6.754 -0.9063  2.3268 -1.4806
  333MOL0     H45915   9.780  11.194   6.573  0.1514 -1.3201 -1.0567
  333MOL0     H45916   9.958  10.949   7.151 -2.6820  1.4431 -2.1371
  333MOL0     H45917  10.122  10.970   7.294 -1.4247 -2.9910 -1.8467
  333MOL0     H45918  10.384  10.970   7.441  2.6237 -3.3786  0.3491
  333MOL0     H45919  10.439  10.905   7.302  4.1482 -0.1962  0.9760
  333MOL0     H45920  10.614  11.059   7.257  1.5479  0.3346  0.0615
  333MOL0     H45921  10.570  11.157   7.394  0.0368 -2.0236  2.0189
  333MOL0     H45922  10.605  10.982   7.563 -1.3327  1.8209 -0.1485
  333MOL0     H45923  10.743  11.004   7.477  0.0946 -3.3418  0.5464
  333MOL0     H45924  10.659  10.821   7.313  0.0377 -1.2837 -0.8791
  333MOL0     H45925  10.570  10.770   7.457  2.1011 -1.7078  2.7571
  333MOL0     H45926  10.749  10.752   7.601 -1.7497  1.0236 -0.7584
  333MOL0     H45927  10.770  10.649   7.459 -3.6097 -0.6516  0.3396
  333MOL0     H45928  10.914  10.907   7.528 -1.5194  0.1295  0.4703
  333MOL0     H45929  10.949  10.818   7.376 -1.1120 -0.7192 -1.0633
  333MOL0     H45930  10.994  10.616   7.543  0.7179  0.7856 -1.0441
  333MOL0     H45931  11.004  10.737   7.670 -0.4165  2.0392 -0.4363
  333MOL0     H45932  11.165  10.871   7.552  1.4315 -1.0622 -0.1081
  333MOL0     H45933  11.198  10.756   7.443  0.5073 -1.0760 -0.1418
  333MOL0     H45934  10.380  11.184   7.021  0.8926 -0.0067 -1.9310
  333MOL0     H45935  10.222  11.121   6.836 -0.6247  0.4071 -0.9030
  333MOL0     H45936   9.807  10.678   6.760  1.9631  1.4042  1.2557
  333MOL0     H45937   9.633  10.640   6.598 -0.0686  0.8280 -1.2773
  333MOL0     H45938   8.553   9.571   6.549 -0.8804 -0.0311  0.4813
  333MOL0     H45939   8.533   9.389   6.400  1.1039  2.1512 -0.1897
  333MOL0     H45940   8.124   9.131   6.355 -1.4866  0.2351  0.6241
  333MOL0     H45941   8.024   8.940   6.434  0.5040 -1.9683 -2.0731
  333MOL0     H45942   7.954   8.749   6.541 -2.1296 -2.0195  2.3490
  333MOL0     H45943   8.011   8.677   6.390  0.3703  3.0578  1.1509
  333MOL0     H45944   7.893   8.516   6.532 -0.1840  1.4259 -1.3334
  333MOL0     H45945   8.003   8.541   6.664 -0.8644 -2.6369 -0.5715
  333MOL0     H45946   8.090   8.435   6.406 -0.6582  1.1191 -0.3212
  333MOL0     H45947   8.200   8.490   6.540 -2.4458  4.0451  0.1649
  333MOL0     H45948   7.991   8.266   6.587 -0.8420  0.7578  1.2486
  333MOL0     H45949   8.118   8.328   6.685  3.6056  0.8021 -1.2816
  333MOL0     H45950   8.340   8.071   6.443 -1.2851  0.0934 -3.7227
  333MOL0     H45951   8.407   8.752   6.492  0.3208  1.0605  2.3693
  333MOL0     H45952   8.602   8.963   6.380  1.3940 -0.2904  1.0288
  333MOL0     H45953   8.575   9.081   6.520 -3.1949 -0.7574  3.6265
  333MOL0     H45954   8.579   8.908   6.541 -0.0941  0.0666 -0.8771
  334MOL0     O45955  11.356   1.212   9.777  0.1438 -0.2138 -0.6360
  334MOL0     C45956  11.347   1.235   9.657 -0.1107 -1.0955  0.5388
  334MOL0     O45957  11.283   1.345   9.607 -0.1737 -0.2985 -0.5372
  334MOL0     C45958  11.212   1.423   9.693  0.2599  0.3544 -0.0715
  334MOL0     C45959  11.221   1.569   9.693 -0.0174  0.8363  0.7457
  334MOL0     C45960  11.137   1.646   9.770 -0.0750  0.5714 -0.0067
  334MOL0     C45961  11.038   1.589   9.848  0.1723  0.8847 -0.0158
  334MOL0     O45962  10.963   1.664   9.936  0.1816  0.6946 -0.6185
  334MOL0     C45963  10.929   1.610  10.064  0.8875 -0.2701  0.8137
  334MOL0     C45964  10.872   1.721  10.156 -0.8095  0.0926  1.0074
  334MOL0     C45965  10.977   1.827  10.177 -0.0698  0.1488  0.0807
  334MOL0     C45966  10.929   1.970  10.125 -0.5710 -0.1066  0.5208
  334MOL0     C45967  11.044   2.061  10.096 -0.5963  0.7030  0.4639
  334MOL0     C45968  11.003   2.205  10.051 -0.1113  0.4283 -0.4737
  334MOL0     C45969  11.110   2.309  10.083 -0.4796  0.3717 -0.1235
  334MOL0     C45970  11.059   2.458  10.076 -0.1631  0.1500 -0.1918
  334MOL0     N45971  11.002   2.481   9.941 -0.0478  0.3448  0.0988
  334MOL0     C45972  10.863   2.460   9.915  0.1178 -0.1765 -0.1512
  334MOL0     C45973  10.862   2.459   9.782 -1.0429 -0.2474 -0.1877
  334MOL0     C45974  10.744   2.443   9.700 -0.6600 -0.2999 -0.6764
  334MOL0     C45975  10.631   2.543   9.725 -0.1208 -0.1806 -0.7228
  334MOL0     C45976  10.487   2.492   9.700  0.7359  0.6193 -0.4911
  334MOL0     C45977  10.446   2.476   9.554 -0.3168  0.7399  0.2152
  334MOL0     O45978  10.304   2.473   9.535 -0.4033 -0.3458 -0.1115
  334MOL0     C45979  10.264   2.512   9.406 -0.8917 -0.2784 -0.3529
  334MOL0     C45980  10.136   2.552   9.402 -0.3276 -0.0397 -0.2451
  334MOL0     C45981  10.064   2.575   9.286  0.3765  0.1096  0.1728
  334MOL0     C45982   9.923   2.608   9.301  1.2414 -0.4763  0.4745
  334MOL0     C45983  10.135   2.579   9.166 -0.4153  0.6840 -0.7346
  334MOL0     C45984  10.081   2.604   9.031  0.3436  0.5032 -0.2978
  334MOL0     O45985  10.159   2.584   8.911 -0.1331 -0.2422  0.2070
  334MOL0     C45986  10.119   2.622   8.788  0.6334 -1.1295 -0.8690
  334MOL0     C45987  10.217   2.650   8.698 -0.5769 -0.0388  0.0221
  334MOL0     C45988  10.196   2.700   8.562  0.6760 -0.7651  0.1777
  334MOL0     C45989  10.066   2.711   8.513  0.5367  0.0263  0.8713
  334MOL0     O45990  10.034   2.741   8.375  0.4318 -0.2645  0.2870
  334MOL0     C45991   9.930   2.667   8.308  0.3127  0.0471  0.9171
  334MOL0     C45992   9.982   2.650   8.163 -0.5519  0.1160 -0.1369
  334MOL0     C45993   9.899   2.549   8.092  0.6561  0.4524  0.4766
  334MOL0     C45994   9.931   2.541   7.938  0.3568  0.5457 -0.0362
  334MOL0     C45995   9.897   2.668   7.862  1.4354  0.6963 -1.1894
  334MOL0     C45996   9.747   2.708   7.861  1.1739 -0.7964 -0.4719
  334MOL0     C45997   9.661   2.606   7.807 -0.6661 -0.2503  0.4453
  334MOL0     C45998   9.522   2.654   7.814  0.1752 -1.2997 -0.5453
  334MOL0    Cl45999   9.406   2.530   7.753  0.0592  0.3585  0.2276
  334MOL0     C46000   9.960   2.682   8.608  0.5172 -0.5903 -0.1949
  334MOL0     C46001   9.984   2.635   8.742 -0.4457 -0.8679  0.3779
  334MOL0     O46002   9.963   2.631   9.029 -0.4665 -0.1900  0.1402
  334MOL0     C46003  10.273   2.547   9.169  0.3662 -0.7225  0.6790
  334MOL0     C46004  10.338   2.519   9.286 -0.0700 -0.2904 -0.5295
  334MOL0     N46005  10.995   2.462   9.735 -0.5182  0.9928 -0.5816
  334MOL0     N46006  11.076   2.483   9.833  0.0560 -0.4322 -0.6432
  334MOL0     C46007  11.018   1.448   9.835  0.4937 -0.1733  0.6125
  334MOL0     C46008  11.101   1.368   9.759 -1.0127  0.4341 -0.3076
  334MOL0     C46009  11.434   1.167   9.557 -0.1494 -0.0525 -0.5031
  334MOL0     C46010  11.529   1.246   9.493 -0.0460 -1.0170  0.9216
  334MOL0     C46011  11.611   1.199   9.393  1.2501 -0.5535  0.7594
  334MOL0     C46012  11.615   1.063   9.369 -1.4410  0.5651 -0.6020
  334MOL0     O46013  11.703   1.008   9.276  0.2628 -0.2680 -0.3309
  334MOL0     C46014  11.811   0.946   9.340  0.0515 -0.5170  0.0787
  334MOL0     C46015  11.917   0.906   9.243 -0.6725  0.4003 -0.5279
  334MOL0     C46016  12.021   0.821   9.310  0.7172  0.4049 -0.5010
  334MOL0     C46017  12.123   0.760   9.216  0.7300 -0.0337 -0.1142
  334MOL0     C46018  12.213   0.686   9.305 -0.4143 -0.1678  0.0503
  334MOL0     C46019  12.286   0.605   9.364 -0.0504 -1.0680  0.9958
  334MOL0     C46020  11.520   0.980   9.432  1.1265 -0.1634 -0.4187
  334MOL0     C46021  11.432   1.030   9.532 -1.0728  0.5748  0.7602
  334MOL0     C46022  11.348   0.933   9.611 -0.2489 -0.1395 -0.5150
  334MOL0     H46023  11.300   1.603   9.628 -1.9101  0.2713 -2.0201
  334MOL0     H46024  11.138   1.754   9.771  3.4280  0.6629  1.5394
  334MOL0     H46025  11.025   1.574  10.102  0.8206  1.6050  2.9849
  334MOL0     H46026  10.848   1.536  10.060  0.9598 -0.3466  0.7822
  334MOL0     H46027  10.774   1.756  10.122 -0.8151 -1.9604 -1.3350
  334MOL0     H46028  10.854   1.659  10.245  3.0697  0.2867  2.1174
  334MOL0     H46029  10.998   1.840  10.283 -1.4688  0.6770  0.3154
  334MOL0     H46030  11.069   1.800  10.124  0.7541  0.2381  1.4291
  334MOL0     H46031  10.882   1.960  10.027 -0.8394  1.4830  0.4555
  334MOL0     H46032  10.867   2.020  10.200  2.2704  1.7904  1.8125
  334MOL0     H46033  11.106   2.018  10.017 -0.0333 -0.3194  1.4391
  334MOL0     H46034  11.105   2.080  10.185 -0.4853  0.4029  0.4532
  334MOL0     H46035  10.986   2.207   9.943 -1.6580  2.3219 -0.2465
  334MOL0     H46036  10.904   2.236  10.087 -0.0573 -0.7442  0.7460
  334MOL0     H46037  11.194   2.311  10.013  1.4694  3.0506  2.0956
  334MOL0     H46038  11.159   2.284  10.178 -0.8681  0.6094  0.1414
  334MOL0     H46039  10.975   2.464  10.145  0.7958 -0.4219  1.0537
  334MOL0     H46040  11.134   2.535  10.095  1.2384 -0.7209 -1.9411
  334MOL0     H46041  10.778   2.446   9.980  2.3565 -3.7228  2.3472
  334MOL0     H46042  10.711   2.342   9.724 -0.4923 -0.4385 -1.0195
  334MOL0     H46043  10.767   2.447   9.593  0.5091 -1.3525 -0.4883
  334MOL0     H46044  10.634   2.578   9.829 -2.9402  2.1407 -1.2918
  334MOL0     H46045  10.651   2.634   9.668 -0.8984  0.1476 -0.4881
  334MOL0     H46046  10.459   2.400   9.753 -0.4452 -0.3415 -2.6455
  334MOL0     H46047  10.402   2.555   9.729 -0.4711 -1.6717  1.4076
  334MOL0     H46048  10.475   2.563   9.495 -0.9659 -1.3342 -3.5193
  334MOL0     H46049  10.493   2.389   9.507  1.5194  0.5257  2.2849
  334MOL0     H46050  10.072   2.542   9.489  0.7634 -0.3202  0.5466
  334MOL0     H46051   9.889   2.632   9.402 -0.5888  0.0195 -0.2082
  334MOL0     H46052   9.853   2.531   9.266  3.5907 -2.3563 -0.3969
  334MOL0     H46053   9.895   2.700   9.248 -0.7253 -0.9434  0.6187
  334MOL0     H46054  10.321   2.649   8.730 -1.2101  2.5583  2.6367
  334MOL0     H46055  10.286   2.726   8.508  1.7478  0.8026  2.5682
  334MOL0     H46056   9.908   2.571   8.354  2.5368 -0.5508  0.8167
  334MOL0     H46057   9.832   2.716   8.314  0.5866  0.4796  1.9961
  334MOL0     H46058   9.985   2.746   8.111 -0.8312  1.5290  2.2911
  334MOL0     H46059  10.088   2.624   8.171 -0.0762  1.5292 -1.3650
  334MOL0     H46060   9.792   2.542   8.111  0.8516  0.5333  1.7056
  334MOL0     H46061   9.946   2.456   8.125  1.3074 -0.8055 -3.4460
  334MOL0     H46062   9.881   2.457   7.889 -1.9939  0.4795  2.2773
  334MOL0     H46063  10.038   2.523   7.924  0.8790  4.1841 -2.1391
  334MOL0     H46064   9.968   2.747   7.888  1.1727  0.6717 -0.3629
  334MOL0     H46065   9.911   2.644   7.756 -3.4583 -2.1423 -1.4905
  334MOL0     H46066   9.745   2.790   7.789 -0.4925 -1.7442 -1.5621
  334MOL0     H46067   9.713   2.748   7.957  2.0053  0.7907 -0.8037
  334MOL0     H46068   9.669   2.513   7.864 -1.9677 -0.7317 -0.1235
  334MOL0     H46069   9.690   2.589   7.702  0.6075 -1.8282  1.0125
  334MOL0     H46070   9.525   2.745   7.755 -0.3213 -1.1740 -0.3837
  334MOL0     H46071   9.490   2.681   7.915 -0.1061  1.4667 -1.2913
  334MOL0     H46072   9.857   2.707   8.585  0.8257 -1.2117 -2.4542
  334MOL0     H46073   9.902   2.595   8.800 -1.1910 -0.5909 -0.4653
  334MOL0     H46074  10.336   2.551   9.080  0.3510  0.2762  0.6983
  334MOL0     H46075  10.443   2.494   9.278 -0.3571 -1.6021 -0.5043
  334MOL0     H46076  10.926   1.409   9.878 -0.1534 -0.5339 -1.0382
  334MOL0     H46077  11.088   1.261   9.752  0.8181  0.2633 -2.0697
  334MOL0     H46078  11.534   1.354   9.507 -2.0567 -0.8027  0.3152
  334MOL0     H46079  11.673   1.267   9.336 -2.6698  0.7024 -2.4432
  334MOL0     H46080  11.863   1.020   9.401 -1.2638  1.7138 -1.3502
  334MOL0     H46081  11.771   0.859   9.394 -4.9931  1.0683 -0.5458
  334MOL0     H46082  11.976   0.987   9.199  0.8514  0.5326  1.6247
  334MOL0     H46083  11.886   0.843   9.160  3.0135  0.9550 -2.5517
  334MOL0     H46084  12.075   0.873   9.390  3.8990 -2.2104 -0.7844
  334MOL0     H46085  11.969   0.744   9.368 -0.4125  0.8283 -0.9177
  334MOL0     H46086  12.173   0.832   9.151 -3.9227  2.1216 -1.6980
  334MOL0     H46087  12.084   0.687   9.145  1.6788 -0.8028  0.1177
  334MOL0     H46088  12.343   0.524   9.405  0.8866 -0.6496  0.5766
  334MOL0     H46089  11.515   0.875   9.407 -2.4041  0.0926 -1.3598
  334MOL0     H46090  11.246   0.964   9.637  0.2058  1.4447 -0.5444
  334MOL0     H46091  11.338   0.836   9.561  4.3218 -1.0264 -0.1615
  334MOL0     H46092  11.408   0.905   9.699  1.2533  1.9867 -0.7832
  335MOL0     O46093   0.565   3.226   0.022  0.4188  0.7102  0.4860
  335MOL0     C46094   0.561   3.290  -0.082  0.2882 -0.7441 -0.2448
  335MOL0     O46095   0.667   3.376  -0.120  0.3626 -0.3181 -0.4024
  335MOL0     C46096   0.757   3.403  -0.018  0.0225  0.5175  0.2531
  335MOL0     C46097   0.753   3.517   0.055  0.0630 -0.6206 -0.3788
  335MOL0     C46098   0.860   3.541   0.142  0.1682 -0.3419 -0.0978
  335MOL0     C46099   0.966   3.457   0.152 -0.9380  0.0198 -0.1138
  335MOL0     O46100   1.074   3.485   0.229 -0.6114 -0.3856 -0.3719
  335MOL0     C46101   1.161   3.578   0.174  0.3292 -0.3188  0.4466
  335MOL0     C46102   1.127   3.713   0.229 -1.2526 -0.7645 -0.0027
  335MOL0     C46103   1.138   3.714   0.387  0.4509  0.6418 -0.3295
  335MOL0     C46104   1.128   3.851   0.446  0.7305 -0.2562  0.0559
  335MOL0     C46105   1.154   3.857   0.591  0.0926  0.1520 -0.5600
  335MOL0     C46106   1.300   3.907   0.634  0.4972 -0.6369  0.5533
  335MOL0     C46107   1.416   3.821   0.594 -0.0359 -0.5824 -0.2825
  335MOL0     C46108   1.554   3.867   0.638 -0.3944  0.2202  0.7220
  335MOL0     N46109   1.564   3.840   0.780  0.1886 -0.6768  0.5490
  335MOL0     C46110   1.610   3.729   0.830 -0.4219 -0.4396 -0.7087
  335MOL0     C46111   1.623   3.750   0.964  0.2983 -0.9085 -0.2692
  335MOL0     C46112   1.645   3.634   1.056  0.4763  0.0470 -0.1945
  335MOL0     C46113   1.786   3.634   1.111 -0.9280 -0.1187 -0.0728
  335MOL0     C46114   1.884   3.602   1.004 -0.1233 -0.3523  0.3001
  335MOL0     C46115   1.990   3.713   0.985 -0.1386  0.7997  0.6853
  335MOL0     O46116   1.940   3.842   0.941 -0.4455 -0.2346 -0.4083
  335MOL0     C46117   1.928   3.879   0.815  0.6167 -0.4321  0.7049
  335MOL0     C46118   1.907   4.013   0.774  0.5839 -0.3182 -0.1887
  335MOL0     C46119   1.905   4.062   0.642  0.2390 -0.2923 -0.8765
  335MOL0     C46120   1.855   4.205   0.605  0.9169  0.7295 -0.3382
  335MOL0     C46121   1.928   3.965   0.534  0.6600  0.3675  0.5724
  335MOL0     C46122   1.936   4.005   0.392  0.0693  1.0862 -0.4368
  335MOL0     O46123   2.017   3.912   0.330 -0.3988 -0.0039 -0.1343
  335MOL0     C46124   2.062   3.940   0.205  0.3174 -0.5488  0.2818
  335MOL0     C46125   2.147   4.050   0.180 -0.3543 -0.0205 -0.2332
  335MOL0     C46126   2.187   4.084   0.054  0.0940  0.7628  0.5287
  335MOL0     C46127   2.161   3.994  -0.050  0.2970  0.3496  0.0429
  335MOL0     O46128   2.194   4.013  -0.183 -0.2149 -0.2084  0.3667
  335MOL0     C46129   2.331   4.048  -0.211 -0.4298 -0.4146  0.1066
  335MOL0     C46130   2.369   4.053  -0.358 -0.4300 -0.6326 -0.7324
  335MOL0     C46131   2.299   4.163  -0.422  0.0484 -0.4656  0.8853
  335MOL0     C46132   2.327   4.171  -0.579  1.1525  0.0351  0.3063
  335MOL0     C46133   2.231   4.271  -0.654  0.9361  0.2616  0.5022
  335MOL0     C46134   2.077   4.242  -0.670 -0.4140 -1.1262  0.2621
  335MOL0     C46135   2.006   4.364  -0.742 -0.2925  0.1987 -0.5769
  335MOL0     C46136   2.016   4.377  -0.888 -0.0693  0.1942  0.1439
  335MOL0    Cl46137   1.920   4.256  -0.960 -0.2068  0.0019  0.4854
  335MOL0     C46138   2.077   3.883  -0.027 -0.7091  0.4587  0.4526
  335MOL0     C46139   2.031   3.861   0.102 -0.1619  0.6144  0.9762
  335MOL0     O46140   1.875   4.090   0.336  0.1912 -1.0800 -0.0235
  335MOL0     C46141   1.949   3.828   0.576 -0.5870 -0.1452  0.8258
  335MOL0     C46142   1.941   3.792   0.708 -0.1039  0.8651  0.4740
  335MOL0     N46143   1.589   3.878   0.986  0.6314  0.6996  0.3368
  335MOL0     N46144   1.551   3.935   0.879 -0.1192  0.9836 -0.3972
  335MOL0     C46145   0.970   3.335   0.083 -0.4479 -0.1630 -0.0322
  335MOL0     C46146   0.864   3.305  -0.004 -0.0698  0.0251  0.7787
  335MOL0     C46147   0.454   3.271  -0.178  0.6537  0.0844  0.7639
  335MOL0     C46148   0.446   3.367  -0.281 -0.1130  0.4483 -0.3293
  335MOL0     C46149   0.341   3.386  -0.357  0.4442  0.3095 -0.1296
  335MOL0     C46150   0.245   3.287  -0.360  1.0791 -0.3557 -0.5664
  335MOL0     O46151   0.153   3.272  -0.465 -0.4060 -0.8666 -0.7566
  335MOL0     C46152   0.015   3.315  -0.456 -0.7452 -0.2705  0.6803
  335MOL0     C46153   0.021   3.465  -0.471 -0.0309 -0.3087  0.7730
  335MOL0     C46154  -0.122   3.527  -0.471  0.4682  0.8194 -0.3535
  335MOL0     C46155  -0.136   3.682  -0.486 -0.1980  0.7262 -0.7647
  335MOL0     C46156  -0.277   3.708  -0.487  0.4825  0.8001 -0.8278
  335MOL0     C46157  -0.394   3.746  -0.475  0.7261 -0.5712 -0.0541
  335MOL0     C46158   0.240   3.188  -0.261 -0.4819  1.4246 -0.4260
  335MOL0     C46159   0.350   3.170  -0.171  0.2166  0.4033  0.4646
  335MOL0     C46160   0.336   3.057  -0.068  0.5378 -0.5697  0.3215
  335MOL0     H46161   0.666   3.580   0.045 -0.9226 -1.3254  2.6859
  335MOL0     H46162   0.846   3.622   0.213  2.3345 -0.8319  0.9715
  335MOL0     H46163   1.159   3.570   0.065 -1.8538 -1.2406  0.5037
  335MOL0     H46164   1.266   3.557   0.197 -0.0002 -0.0549  2.3971
  335MOL0     H46165   1.199   3.781   0.183 -2.5338 -0.5973 -1.8355
  335MOL0     H46166   1.026   3.743   0.201 -1.5260 -1.1506  0.5497
  335MOL0     H46167   1.055   3.649   0.414 -0.3721  1.6642 -0.3134
  335MOL0     H46168   1.233   3.666   0.411 -0.0878 -0.0071  0.5310
  335MOL0     H46169   1.200   3.922   0.403  2.1390 -1.9843 -0.5773
  335MOL0     H46170   1.025   3.884   0.432  1.1425  1.0732  0.0096
  335MOL0     H46171   1.141   3.764   0.647  0.0629  0.3058 -0.3136
  335MOL0     H46172   1.083   3.924   0.640  0.4233 -0.7134  1.1752
  335MOL0     H46173   1.325   4.000   0.581 -0.6196 -0.8804 -0.4598
  335MOL0     H46174   1.295   3.925   0.741 -4.9037 -0.0407  0.5036
  335MOL0     H46175   1.416   3.815   0.485 -0.8156 -1.3531 -0.2540
  335MOL0     H46176   1.398   3.717   0.625  1.5839 -1.8872 -3.2763
  335MOL0     H46177   1.635   3.819   0.583 -2.3400  0.8548 -3.0517
  335MOL0     H46178   1.568   3.974   0.627 -0.6459  0.0266 -2.3162
  335MOL0     H46179   1.628   3.636   0.778  1.1527 -1.0795  0.8814
  335MOL0     H46180   1.616   3.538   1.011 -1.2905 -0.5784  2.0731
  335MOL0     H46181   1.590   3.624   1.150  1.0800 -0.2279  0.1373
  335MOL0     H46182   1.812   3.732   1.153  0.7768 -2.0077  3.8401
  335MOL0     H46183   1.782   3.573   1.202  0.5982  1.6093  1.2659
  335MOL0     H46184   1.930   3.504   1.023 -1.3997 -1.0721 -0.1737
  335MOL0     H46185   1.840   3.590   0.905 -2.5089 -2.0258  1.4570
  335MOL0     H46186   2.029   3.730   1.086 -4.1094 -0.2693  2.5890
  335MOL0     H46187   2.069   3.681   0.917  1.9843  4.0557  1.3879
  335MOL0     H46188   1.904   4.092   0.848 -0.3824  1.2738 -1.8505
  335MOL0     H46189   1.942   4.256   0.563  2.4825 -1.8422 -0.4399
  335MOL0     H46190   1.811   4.255   0.692 -2.8624 -1.8299 -0.5099
  335MOL0     H46191   1.768   4.197   0.539  2.4434  0.9810 -2.4505
  335MOL0     H46192   2.163   4.107   0.271 -4.0091  0.0023  0.5185
  335MOL0     H46193   2.234   4.178   0.025  3.3642 -0.3389  1.8575
  335MOL0     H46194   2.348   4.147  -0.169  0.0911  0.6254 -2.3926
  335MOL0     H46195   2.399   3.985  -0.153 -0.6361  1.4983  2.5675
  335MOL0     H46196   2.475   4.071  -0.377  0.0014 -0.3248  1.6062
  335MOL0     H46197   2.346   3.958  -0.408  1.1019 -0.2536 -2.2331
  335MOL0     H46198   2.334   4.257  -0.380 -1.9931  1.1489 -0.8115
  335MOL0     H46199   2.191   4.146  -0.424 -0.0127 -0.0295 -0.1686
  335MOL0     H46200   2.306   4.076  -0.629 -1.1731 -0.2861  1.7361
  335MOL0     H46201   2.429   4.202  -0.604  0.7485 -0.3702 -2.1407
  335MOL0     H46202   2.238   4.361  -0.594 -1.8936 -0.2915  1.8494
  335MOL0     H46203   2.260   4.285  -0.759 -1.0138 -2.9314 -0.6135
  335MOL0     H46204   2.032   4.213  -0.574  1.1832  1.7997  2.0555
  335MOL0     H46205   2.057   4.152  -0.729 -0.2294 -2.7690  2.5756
  335MOL0     H46206   2.034   4.460  -0.697  2.1063 -1.2381  1.2499
  335MOL0     H46207   1.901   4.343  -0.721  0.3658 -1.8674  0.9755
  335MOL0     H46208   2.117   4.381  -0.931  0.8768  0.3313  2.2253
  335MOL0     H46209   1.975   4.473  -0.921 -0.9385  0.1907  1.1646
  335MOL0     H46210   2.035   3.824  -0.107  0.5628 -0.9535  0.7815
  335MOL0     H46211   1.967   3.777   0.121  0.4419  0.0905  0.7354
  335MOL0     H46212   1.967   3.750   0.504  0.0068  0.8155 -0.0933
  335MOL0     H46213   1.956   3.690   0.743  0.0576  1.2149  1.4601
  335MOL0     H46214   1.062   3.279   0.095 -0.2100  0.1088 -0.5482
  335MOL0     H46215   0.859   3.220  -0.072 -3.0122 -0.7753  1.8309
  335MOL0     H46216   0.524   3.442  -0.280  0.9168 -0.5787 -0.7851
  335MOL0     H46217   0.340   3.466  -0.430  3.2445 -0.8132 -1.5569
  335MOL0     H46218  -0.033   3.273  -0.546  1.5532 -0.1730 -0.6845
  335MOL0     H46219  -0.019   3.277  -0.360 -1.1188 -1.4796  0.0995
  335MOL0     H46220   0.060   3.499  -0.567 -0.7189 -0.5259  0.4093
  335MOL0     H46221   0.092   3.511  -0.401  0.6346  0.1889 -0.2087
  335MOL0     H46222  -0.171   3.493  -0.563 -1.3933  1.0681  0.4956
  335MOL0     H46223  -0.180   3.500  -0.383 -1.4343  2.1903 -1.0989
  335MOL0     H46224  -0.096   3.718  -0.581  1.9824  0.1334 -0.1296
  335MOL0     H46225  -0.076   3.736  -0.411 -0.3958 -0.3201  0.1680
  335MOL0     H46226  -0.495   3.778  -0.457  0.4916 -1.8596  1.0877
  335MOL0     H46227   0.171   3.106  -0.281  1.4821 -0.0017 -1.7372
  335MOL0     H46228   0.263   2.981  -0.099  0.9130 -1.2761  1.1423
  335MOL0     H46229   0.432   3.009  -0.049  1.6696  1.3259 -0.3880
  335MOL0     H46230   0.297   3.110   0.019 -0.9482 -1.3695  0.1844
  336MOL0     O46231   9.193   1.873   5.736  0.2475  0.4422  0.1071
  336MOL0     C46232   9.209   1.803   5.835 -0.9526  0.6156  0.8966
  336MOL0     O46233   9.302   1.831   5.930  0.8688  0.0050 -0.1887
  336MOL0     C46234   9.406   1.918   5.911 -0.3294  0.2193  1.4496
  336MOL0     C46235   9.411   2.047   5.963  0.4068  0.3341  0.1102
  336MOL0     C46236   9.520   2.126   5.964  0.5625  0.1248  0.4152
  336MOL0     C46237   9.634   2.088   5.899 -0.4014  0.8903  0.0264
  336MOL0     O46238   9.729   2.187   5.880 -0.6186 -0.2203 -0.0170
  336MOL0     C46239   9.846   2.155   5.811 -0.3174  0.0458 -0.8595
  336MOL0     C46240   9.942   2.277   5.794  0.2973 -0.4583  0.7150
  336MOL0     C46241   9.878   2.395   5.735  0.1513 -0.9653  1.5209
  336MOL0     C46242   9.894   2.527   5.816  0.5474 -0.5497  0.1893
  336MOL0     C46243   9.796   2.519   5.931 -0.2371  0.8956  0.4708
  336MOL0     C46244   9.822   2.634   6.034  1.0259 -1.1943  0.2948
  336MOL0     C46245   9.955   2.609   6.109 -1.0387  0.0405 -0.1207
  336MOL0     C46246   9.959   2.699   6.229 -0.3527 -0.0517  0.2720
  336MOL0     N46247  10.106   2.691   6.283 -0.2630 -0.6538 -0.3170
  336MOL0     C46248  10.207   2.791   6.272  0.1562  0.4427  0.2476
  336MOL0     C46249  10.315   2.734   6.353  0.0498  0.2519  0.5573
  336MOL0     C46250  10.444   2.796   6.388 -1.1435  0.0205  1.1602
  336MOL0     C46251  10.559   2.755   6.301  0.0338  0.9040 -0.0398
  336MOL0     C46252  10.625   2.614   6.322  0.0133 -0.5403 -0.8698
  336MOL0     C46253  10.741   2.576   6.231  0.1047 -0.7715 -0.1094
  336MOL0     O46254  10.736   2.630   6.097  1.5253 -0.0349 -0.6985
  336MOL0     C46255  10.848   2.596   6.027 -0.0346  0.2935  0.2781
  336MOL0     C46256  10.965   2.527   6.067  0.4925  0.3829 -0.2003
  336MOL0     C46257  11.074   2.512   5.978  0.0703  0.1991  0.9478
  336MOL0     C46258  11.200   2.457   6.034 -0.1507  0.5098 -0.5450
  336MOL0     C46259  11.070   2.566   5.853 -1.4048 -0.6815  0.7680
  336MOL0     C46260  11.187   2.583   5.764  0.1128 -0.3217 -0.3024
  336MOL0     O46261  11.160   2.543   5.638  0.3211 -0.0171  0.0983
  336MOL0     C46262  11.270   2.553   5.554 -0.6868 -0.4436  0.4173
  336MOL0     C46263  11.357   2.445   5.540 -0.1835  0.1920 -0.2664
  336MOL0     C46264  11.480   2.468   5.467  0.8325  0.2420  0.2192
  336MOL0     C46265  11.509   2.589   5.407 -0.3495 -0.3069  0.9070
  336MOL0     O46266  11.627   2.594   5.331 -0.2240  0.3110 -0.1386
  336MOL0     C46267  11.667   2.724   5.280 -0.4799  0.6902 -0.3437
  336MOL0     C46268  11.813   2.728   5.225  0.6713 -0.0121 -1.0666
  336MOL0     C46269  11.904   2.679   5.340 -0.7302 -0.4926 -0.5679
  336MOL0     C46270  12.048   2.683   5.278  0.4723 -1.2050  0.6065
  336MOL0     C46271  12.173   2.656   5.364  0.1031  0.1757 -0.6414
  336MOL0     C46272  12.165   2.530   5.456 -0.2782  0.0118 -0.1648
  336MOL0     C46273  12.144   2.400   5.370  0.2691  0.9909 -0.8388
  336MOL0     C46274  12.253   2.373   5.272  0.0966  0.3764  0.4114
  336MOL0    Cl46275  12.398   2.330   5.360 -0.1347  0.1405  0.0397
  336MOL0     C46276  11.414   2.700   5.408 -0.7074  0.3325  0.6172
  336MOL0     C46277  11.305   2.678   5.494 -0.2931  0.1729 -0.0989
  336MOL0     O46278  11.283   2.641   5.806 -0.3682 -0.9460  0.4897
  336MOL0     C46279  10.952   2.618   5.809 -0.2165 -0.3899  0.1671
  336MOL0     C46280  10.846   2.640   5.899 -0.1752  0.2987 -0.7170
  336MOL0     N46281  10.272   2.599   6.388  0.8087  0.4317 -0.4860
  336MOL0     N46282  10.160   2.578   6.342  0.1998  0.3369 -0.7723
  336MOL0     C46283   9.632   1.959   5.835  0.2366  0.1999 -0.1366
  336MOL0     C46284   9.523   1.872   5.842  0.3544  0.2860  0.1498
  336MOL0     C46285   9.113   1.692   5.858 -0.7030 -0.3507  0.3635
  336MOL0     C46286   8.983   1.715   5.811 -0.1862  0.2840  0.3770
  336MOL0     C46287   8.890   1.618   5.820  0.4570  0.6096 -0.6094
  336MOL0     C46288   8.923   1.501   5.881  0.6580 -0.6407 -0.4615
  336MOL0     O46289   8.827   1.408   5.911  0.0357 -0.8920 -0.0621
  336MOL0     C46290   8.698   1.405   5.859 -0.0975  0.1335 -0.1591
  336MOL0     C46291   8.621   1.285   5.922  0.4749  1.1597  0.2292
  336MOL0     C46292   8.610   1.305   6.075 -0.0191  0.1992  0.5635
  336MOL0     C46293   8.520   1.197   6.145  0.0116  0.4170 -0.0279
  336MOL0     C46294   8.573   1.066   6.125  0.8246 -0.3305 -0.3622
  336MOL0     C46295   8.623   0.958   6.118 -0.1030  0.0322  0.2133
  336MOL0     C46296   9.053   1.475   5.928  0.3385  0.0933 -0.6060
  336MOL0     C46297   9.156   1.571   5.902 -0.7125 -0.0565  0.3225
  336MOL0     C46298   9.301   1.527   5.936 -0.8327 -0.6332 -0.7496
  336MOL0     H46299   9.321   2.065   6.020  0.5111 -2.4084  1.2908
  336MOL0     H46300   9.516   2.211   6.032 -1.6548  2.3732 -2.2214
  336MOL0     H46301   9.825   2.124   5.708 -1.0728  3.6611 -1.9100
  336MOL0     H46302   9.896   2.070   5.859  0.8868  0.8089 -0.7392
  336MOL0     H46303   9.983   2.300   5.892 -0.9595  2.8278  0.5963
  336MOL0     H46304  10.017   2.239   5.723 -1.1005 -0.7427 -0.6837
  336MOL0     H46305   9.908   2.411   5.631 -1.1662  0.5754  1.3285
  336MOL0     H46306   9.773   2.371   5.714  0.6568 -1.3717 -0.8390
  336MOL0     H46307   9.999   2.542   5.843  0.4250 -0.0421  0.4044
  336MOL0     H46308   9.871   2.622   5.767 -0.8147 -1.9893 -2.1149
  336MOL0     H46309   9.796   2.415   5.966  0.1198 -0.5215 -3.1979
  336MOL0     H46310   9.698   2.529   5.884  0.3306 -1.5565 -1.4833
  336MOL0     H46311   9.815   2.730   5.982 -3.8020 -2.9111 -2.8898
  336MOL0     H46312   9.729   2.637   6.091 -0.3252  0.0869 -1.8447
  336MOL0     H46313  10.039   2.630   6.042  0.0914 -0.7723  1.0061
  336MOL0     H46314   9.955   2.502   6.133 -2.9883  0.1161  0.3740
  336MOL0     H46315   9.949   2.805   6.201 -2.3459  0.2810  2.0236
  336MOL0     H46316   9.882   2.671   6.301 -0.6148  0.6022  0.2522
  336MOL0     H46317  10.206   2.884   6.217 -0.2362  2.0323  2.7547
  336MOL0     H46318  10.471   2.770   6.491 -1.4041  0.1716  1.2682
  336MOL0     H46319  10.435   2.905   6.385  2.3991  0.5472  3.6096
  336MOL0     H46320  10.530   2.759   6.196  3.1464 -2.5821 -1.2512
  336MOL0     H46321  10.640   2.828   6.307  1.2861 -0.5022  1.0655
  336MOL0     H46322  10.661   2.599   6.424 -0.6374  1.6898 -0.2697
  336MOL0     H46323  10.540   2.545   6.311  0.4664 -1.0469 -1.2435
  336MOL0     H46324  10.829   2.609   6.288  0.1253  1.2162 -1.1773
  336MOL0     H46325  10.748   2.467   6.231  0.2512 -0.7841 -2.0439
  336MOL0     H46326  10.977   2.505   6.173  1.8259  5.7578  1.1227
  336MOL0     H46327  11.170   2.381   6.107 -4.6055  0.9343 -1.6842
  336MOL0     H46328  11.254   2.528   6.096  1.2122 -0.3231 -0.7262
  336MOL0     H46329  11.265   2.417   5.955  1.3829 -0.7051  1.2458
  336MOL0     H46330  11.329   2.344   5.569 -0.6636  0.4898  0.3319
  336MOL0     H46331  11.551   2.390   5.443 -2.7629 -3.0681 -0.5985
  336MOL0     H46332  11.608   2.766   5.198 -1.6270  0.1150  0.1602
  336MOL0     H46333  11.661   2.795   5.363  1.4580  0.0225  0.4276
  336MOL0     H46334  11.813   2.667   5.134 -1.8604  2.1118 -2.6305
  336MOL0     H46335  11.845   2.825   5.186  2.4771 -0.4206 -0.7085
  336MOL0     H46336  11.885   2.574   5.363  4.1620 -1.4623  0.0830
  336MOL0     H46337  11.904   2.756   5.417  1.5782  0.5492 -1.5014
  336MOL0     H46338  12.068   2.784   5.242  1.4131 -0.1049  3.8506
  336MOL0     H46339  12.043   2.628   5.183  1.1015 -0.4805  0.1447
  336MOL0     H46340  12.264   2.651   5.304  0.3297 -0.1088 -0.2775
  336MOL0     H46341  12.179   2.747   5.425 -1.8871  0.0117 -0.1199
  336MOL0     H46342  12.080   2.548   5.523  1.0096  0.7922  1.3385
  336MOL0     H46343  12.256   2.535   5.516 -0.7650  0.4068  0.5547
  336MOL0     H46344  12.043   2.409   5.328  0.1810  1.3089 -0.5660
  336MOL0     H46345  12.135   2.310   5.432  1.4374 -0.2964 -2.4632
  336MOL0     H46346  12.277   2.456   5.206 -0.5966 -0.7509 -1.3381
  336MOL0     H46347  12.215   2.283   5.223 -2.9605  1.8726 -0.1842
  336MOL0     H46348  11.420   2.797   5.361 -1.5116  0.7716  1.3817
  336MOL0     H46349  11.236   2.760   5.511  1.1773  1.8243 -1.6165
  336MOL0     H46350  10.937   2.658   5.709 -1.9367  1.7308  1.1766
  336MOL0     H46351  10.771   2.711   5.866 -2.3869  0.2847  3.5005
  336MOL0     H46352   9.721   1.922   5.785 -0.0355 -3.4334  1.7478
  336MOL0     H46353   9.532   1.772   5.801 -2.3435 -0.3387  0.8660
  336MOL0     H46354   8.949   1.808   5.768 -0.3921  0.1757  0.2991
  336MOL0     H46355   8.791   1.656   5.796  1.5591  4.5544  0.3034
  336MOL0     H46356   8.642   1.499   5.866 -1.5254 -0.6380 -0.8471
  336MOL0     H46357   8.693   1.376   5.754  0.1966  1.1575 -0.4705
  336MOL0     H46358   8.664   1.185   5.910  0.7466  1.3676 -0.6100
  336MOL0     H46359   8.521   1.273   5.878  0.0075  3.6806  0.4648
  336MOL0     H46360   8.711   1.301   6.118 -0.0224  3.2253  1.0482
  336MOL0     H46361   8.570   1.401   6.107  0.0260  0.1852  0.6601
  336MOL0     H46362   8.427   1.212   6.091 -0.5675  1.4357  1.1839
  336MOL0     H46363   8.501   1.228   6.249  1.8249  1.3716  0.0698
  336MOL0     H46364   8.650   0.855   6.103  2.5054  0.9462 -2.2209
  336MOL0     H46365   9.069   1.372   5.957  0.8615 -0.3849 -2.4822
  336MOL0     H46366   9.324   1.561   6.038  0.9119 -0.8197 -1.0397
  336MOL0     H46367   9.301   1.417   5.943 -0.3037 -0.6146 -0.4081
  336MOL0     H46368   9.387   1.572   5.886  2.1075 -1.3008  3.1613
  337MOL0     O46369   8.634   8.422   1.451 -0.2658  0.1808  0.0368
  337MOL0     C46370   8.664   8.461   1.564  0.3035 -0.3375  0.2329
  337MOL0     O46371   8.580   8.507   1.660  0.2200  0.2105 -0.4896
  337MOL0     C46372   8.455   8.530   1.620 -0.4775 -0.1794  0.2137
  337MOL0     C46373   8.348   8.430   1.650 -0.2745 -0.4009  0.2709
  337MOL0     C46374   8.209   8.452   1.603 -0.4218 -0.9148  0.8817
  337MOL0     C46375   8.179   8.570   1.529  0.2154 -0.1477  0.6823
  337MOL0     O46376   8.052   8.614   1.501 -0.7459 -0.8751 -0.7464
  337MOL0     C46377   7.941   8.541   1.544  0.2137 -0.3467  0.0815
  337MOL0     C46378   7.823   8.620   1.576  0.2156 -0.9806  0.4327
  337MOL0     C46379   7.702   8.542   1.613 -0.9126 -0.1947 -0.4225
  337MOL0     C46380   7.607   8.643   1.686  0.6333 -0.7886 -0.9321
  337MOL0     C46381   7.479   8.574   1.719 -0.3131  0.4155 -0.4099
  337MOL0     C46382   7.388   8.544   1.596 -0.4378  0.2436 -0.3988
  337MOL0     C46383   7.302   8.422   1.622  0.2226  0.2255 -0.3225
  337MOL0     C46384   7.173   8.441   1.545 -0.0843 -0.0216 -0.0546
  337MOL0     N46385   7.194   8.463   1.402 -1.2648 -0.0923  0.3573
  337MOL0     C46386   7.230   8.353   1.316  0.5081  1.0071 -0.1938
  337MOL0     C46387   7.224   8.399   1.192  0.5839 -0.1309 -0.2154
  337MOL0     C46388   7.244   8.330   1.057  0.1288  0.0790 -0.7423
  337MOL0     C46389   7.145   8.372   0.955 -0.6015  0.7318  0.0403
  337MOL0     C46390   7.130   8.280   0.833 -0.1773 -0.2254 -0.3140
  337MOL0     C46391   7.259   8.260   0.754 -0.2223 -0.3691  0.4887
  337MOL0     O46392   7.319   8.384   0.725  0.1218 -1.3092 -0.0348
  337MOL0     C46393   7.454   8.377   0.720  0.1360  0.2502  0.6136
  337MOL0     C46394   7.518   8.309   0.613 -0.6431  0.2044 -0.4755
  337MOL0     C46395   7.662   8.306   0.612  0.3729 -0.3122 -0.6433
  337MOL0     C46396   7.719   8.217   0.503  0.2472 -0.2851  0.3399
  337MOL0     C46397   7.739   8.365   0.722 -0.2684  0.5883  0.0658
  337MOL0     C46398   7.883   8.365   0.712 -0.3459  0.1859 -0.7598
  337MOL0     O46399   7.940   8.484   0.758 -0.7882  0.1337  0.4269
  337MOL0     C46400   8.072   8.495   0.730  0.4861 -0.3933 -0.2405
  337MOL0     C46401   8.117   8.558   0.614 -0.2168  0.7990  0.3658
  337MOL0     C46402   8.254   8.558   0.571 -0.1994 -0.9829 -0.1051
  337MOL0     C46403   8.356   8.511   0.655  0.1986 -0.2083 -0.1420
  337MOL0     O46404   8.487   8.538   0.617  0.2533 -0.2597 -0.5517
  337MOL0     C46405   8.587   8.582   0.714  0.3664  0.0042 -1.2176
  337MOL0     C46406   8.726   8.578   0.646  0.1265  0.2858  0.5792
  337MOL0     C46407   8.844   8.630   0.737  0.4173 -0.0189  0.1722
  337MOL0     C46408   8.858   8.778   0.734  0.4085  0.3506  0.2232
  337MOL0     C46409   8.988   8.828   0.793  0.5076 -0.2119  0.1425
  337MOL0     C46410   9.009   8.976   0.793 -0.1891 -0.7963 -0.4931
  337MOL0     C46411   8.908   9.075   0.861 -0.1178  0.8202 -0.5721
  337MOL0     C46412   8.888   9.070   1.014 -0.5107  0.5975 -0.3046
  337MOL0    Cl46413   8.889   9.239   1.081  0.2869 -0.6810 -0.1637
  337MOL0     C46414   8.316   8.456   0.777  0.4742  0.8515  0.5918
  337MOL0     C46415   8.175   8.443   0.806  0.1000 -0.0266 -0.4141
  337MOL0     O46416   7.944   8.267   0.660  0.9452 -0.2762 -0.8810
  337MOL0     C46417   7.668   8.434   0.816 -0.0523 -0.5892 -0.4730
  337MOL0     C46418   7.533   8.436   0.813 -1.0555 -0.0528 -1.2396
  337MOL0     N46419   7.181   8.529   1.208  0.3071 -0.5656  0.0653
  337MOL0     N46420   7.159   8.568   1.328 -0.2716  0.6109 -0.1433
  337MOL0     C46421   8.278   8.649   1.504 -0.5832 -0.6542  0.7455
  337MOL0     C46422   8.411   8.633   1.539 -0.6851  0.4555 -0.0736
  337MOL0     C46423   8.812   8.470   1.587  0.2715 -0.1208 -0.2770
  337MOL0     C46424   8.886   8.549   1.496  0.0943  0.2656 -0.4080
  337MOL0     C46425   9.025   8.565   1.507  0.4728 -0.3745 -0.7485
  337MOL0     C46426   9.096   8.506   1.612  0.4473 -0.1201  0.2098
  337MOL0     O46427   9.229   8.529   1.608  0.3311  0.4439  0.3453
  337MOL0     C46428   9.307   8.481   1.719 -0.1363  0.6096 -0.4208
  337MOL0     C46429   9.349   8.335   1.681 -0.4742  0.1236  0.1593
  337MOL0     C46430   9.408   8.262   1.813 -0.0527  0.0897  0.3604
  337MOL0     C46431   9.517   8.155   1.784 -0.4347  0.8019  0.5700
  337MOL0     C46432   9.451   8.037   1.717 -0.0809 -0.3149 -0.6897
  337MOL0     C46433   9.418   7.932   1.662 -0.6157 -0.3194 -0.9662
  337MOL0     C46434   9.024   8.433   1.704 -0.8227 -0.0524  0.6006
  337MOL0     C46435   8.881   8.424   1.695  0.4045  0.2291 -0.7861
  337MOL0     C46436   8.814   8.355   1.810 -0.0649 -0.2142  0.1020
  337MOL0     H46437   8.371   8.345   1.712  1.9709  2.7687  4.2471
  337MOL0     H46438   8.133   8.383   1.638  1.2161 -2.3428  1.7321
  337MOL0     H46439   7.954   8.488   1.639  0.6814 -0.9453 -0.3077
  337MOL0     H46440   7.924   8.470   1.462 -0.7386  0.1785 -0.1897
  337MOL0     H46441   7.844   8.693   1.655 -1.7776  1.9833 -1.5871
  337MOL0     H46442   7.809   8.690   1.494  1.6031 -0.1611  0.8601
  337MOL0     H46443   7.661   8.493   1.524 -0.5135 -2.0716  0.3701
  337MOL0     H46444   7.732   8.463   1.683 -1.8434 -0.7104 -0.5923
  337MOL0     H46445   7.657   8.675   1.778 -0.3075 -0.6103 -0.4619
  337MOL0     H46446   7.591   8.732   1.626 -0.4035  1.3137  2.2047
  337MOL0     H46447   7.424   8.621   1.801  0.1796 -0.3346  0.3733
  337MOL0     H46448   7.496   8.477   1.767 -4.9352  0.2028  1.3531
  337MOL0     H46449   7.335   8.632   1.558 -2.8988 -0.6537  0.7565
  337MOL0     H46450   7.447   8.509   1.511  0.7587  0.5010  0.2992
  337MOL0     H46451   7.287   8.401   1.728 -0.2927 -3.1379 -0.9406
  337MOL0     H46452   7.357   8.333   1.590  0.2772 -1.0216  2.8272
  337MOL0     H46453   7.108   8.358   1.570 -0.4931  0.0394 -0.8655
  337MOL0     H46454   7.122   8.532   1.576  0.1676  0.6991 -1.6188
  337MOL0     H46455   7.258   8.254   1.350 -1.3191  1.5772  3.4673
  337MOL0     H46456   7.258   8.222   1.066  3.1425  0.1950 -2.5367
  337MOL0     H46457   7.343   8.361   1.023  1.2303 -2.0623  0.3295
  337MOL0     H46458   7.047   8.381   1.002 -0.1219  2.0158  0.8515
  337MOL0     H46459   7.162   8.476   0.927  0.7725 -0.1036 -2.5115
  337MOL0     H46460   7.098   8.182   0.870 -1.8698  0.2809 -0.3123
  337MOL0     H46461   7.046   8.315   0.772  1.2721  1.4244 -1.4543
  337MOL0     H46462   7.325   8.195   0.812 -2.8703 -3.7106  0.1363
  337MOL0     H46463   7.239   8.203   0.663 -1.4841  1.3393 -0.3587
  337MOL0     H46464   7.460   8.259   0.537  0.0097  0.0829 -0.9029
  337MOL0     H46465   7.637   8.170   0.446 -2.3613 -1.1847  4.4219
  337MOL0     H46466   7.777   8.135   0.545  1.3368  0.7136  0.8330
  337MOL0     H46467   7.785   8.283   0.446 -0.7646  0.2614 -0.2350
  337MOL0     H46468   8.051   8.612   0.546 -1.7648 -0.9585  0.3960
  337MOL0     H46469   8.281   8.610   0.480 -0.7020 -0.3761  0.0834
  337MOL0     H46470   8.578   8.683   0.755  2.9127 -0.3808  0.4685
  337MOL0     H46471   8.576   8.506   0.791 -1.7426 -1.4121 -2.7865
  337MOL0     H46472   8.746   8.475   0.616 -2.0324 -0.3284  1.0591
  337MOL0     H46473   8.718   8.632   0.551 -2.3619  0.1136  0.6165
  337MOL0     H46474   8.929   8.593   0.678  0.4036 -0.0542  0.1747
  337MOL0     H46475   8.849   8.586   0.837 -1.0959 -0.0755  0.2368
  337MOL0     H46476   8.772   8.807   0.796  1.1278  1.2516  0.8386
  337MOL0     H46477   8.852   8.822   0.634  3.8567  0.4782 -0.0443
  337MOL0     H46478   8.983   8.788   0.895 -1.2968 -0.5645 -0.0399
  337MOL0     H46479   9.079   8.791   0.746  0.7983 -2.4161  2.2263
  337MOL0     H46480   9.027   9.003   0.689 -0.4626 -0.4265 -0.4465
  337MOL0     H46481   9.103   9.011   0.837  0.4885  2.1984 -3.8960
  337MOL0     H46482   8.805   9.060   0.827  1.0882 -0.8438 -3.9837
  337MOL0     H46483   8.937   9.173   0.822 -1.0253  0.2411 -2.9130
  337MOL0     H46484   8.965   9.014   1.069 -1.6305  0.2657  0.9674
  337MOL0     H46485   8.790   9.025   1.030  0.2115 -1.7908 -1.9169
  337MOL0     H46486   8.386   8.424   0.853  0.5225  0.6794  0.4729
  337MOL0     H46487   8.150   8.393   0.899  2.2073 -1.1851 -0.3968
  337MOL0     H46488   7.726   8.478   0.896  2.9299  0.4658 -2.9906
  337MOL0     H46489   7.484   8.483   0.898  0.4363  1.0099 -0.9240
  337MOL0     H46490   8.257   8.730   1.434 -0.2520 -2.6868 -1.8268
  337MOL0     H46491   8.481   8.713   1.516  0.9537 -0.1693  2.2988
  337MOL0     H46492   8.822   8.606   1.430 -0.7923  3.3734  2.7902
  337MOL0     H46493   9.072   8.632   1.435 -1.5019  0.0789 -1.6892
  337MOL0     H46494   9.396   8.544   1.728  1.2147 -1.3887  1.1345
  337MOL0     H46495   9.247   8.484   1.810 -0.4368 -0.7360 -0.5578
  337MOL0     H46496   9.429   8.339   1.607 -3.2350  1.0523 -2.9840
  337MOL0     H46497   9.260   8.283   1.646 -1.0010  1.3257 -0.3232
  337MOL0     H46498   9.463   8.341   1.865 -2.4709  1.0758  1.6172
  337MOL0     H46499   9.335   8.232   1.890 -1.3231 -0.5090 -1.0276
  337MOL0     H46500   9.581   8.129   1.869 -0.3748 -2.3540 -0.3014
  337MOL0     H46501   9.594   8.190   1.715 -0.4501 -0.7041 -0.2597
  337MOL0     H46502   9.402   7.838   1.614 -1.9245 -1.0127  0.7282
  337MOL0     H46503   9.082   8.388   1.785  1.4002  2.6048  0.6263
  337MOL0     H46504   8.872   8.264   1.830  2.8132  0.0949 -5.0288
  337MOL0     H46505   8.815   8.414   1.902 -2.4224 -4.0656  2.8959
  337MOL0     H46506   8.712   8.320   1.787  0.5786 -1.6163 -0.7676
  338MOL0     O46507   9.349   9.706   5.878  1.2620 -0.4648 -0.6633
  338MOL0     C46508   9.290   9.646   5.964 -0.3522  0.1950 -0.6250
  338MOL0     O46509   9.204   9.540   5.947  0.5708  0.2182 -0.0467
  338MOL0     C46510   9.141   9.503   5.830  0.7912  0.2556 -0.1308
  338MOL0     C46511   9.149   9.584   5.718 -0.4213 -0.7843 -0.6137
  338MOL0     C46512   9.082   9.552   5.598  0.2226 -0.7512  0.6946
  338MOL0     C46513   9.004   9.436   5.589  0.0475 -0.3657  0.5864
  338MOL0     O46514   8.921   9.404   5.490  0.5639  0.4875 -0.0651
  338MOL0     C46515   8.869   9.517   5.412  0.5977 -0.3111 -0.2993
  338MOL0     C46516   8.756   9.476   5.313  0.0388  0.2464  1.2598
  338MOL0     C46517   8.786   9.457   5.166  0.1738 -1.2261 -0.6675
  338MOL0     C46518   8.657   9.415   5.096  0.1943  0.3847  0.1775
  338MOL0     C46519   8.679   9.404   4.943 -0.6106 -0.6007  0.4704
  338MOL0     C46520   8.553   9.361   4.859  0.2302  0.1563  0.2973
  338MOL0     C46521   8.457   9.262   4.915 -0.1655 -0.5117  0.3838
  338MOL0     C46522   8.521   9.129   4.948  0.9594 -0.5593  1.0339
  338MOL0     N46523   8.425   9.029   4.995 -0.0360  1.0400  0.1753
  338MOL0     C46524   8.356   8.962   4.901 -0.7200  0.1324 -0.6272
  338MOL0     C46525   8.295   8.867   4.969  0.4363 -0.5874 -0.2716
  338MOL0     C46526   8.201   8.759   4.910 -0.5252 -0.4462  0.0183
  338MOL0     C46527   8.228   8.620   4.966 -0.0747 -1.3056  0.7785
  338MOL0     C46528   8.167   8.507   4.875 -0.3901 -0.5161 -0.7007
  338MOL0     C46529   8.257   8.381   4.882  0.1353 -0.0823 -0.9512
  338MOL0     O46530   8.300   8.347   5.016 -0.5715 -0.0396  0.0647
  338MOL0     C46531   8.409   8.272   5.031 -0.1795 -0.2431  0.1068
  338MOL0     C46532   8.534   8.335   5.041  0.0756  0.2715  0.6047
  338MOL0     C46533   8.641   8.260   5.090 -1.1074 -0.3382  0.4343
  338MOL0     C46534   8.764   8.347   5.117 -0.6535  0.5111 -0.5181
  338MOL0     C46535   8.629   8.120   5.110 -0.3882  0.0233 -0.3305
  338MOL0     C46536   8.742   8.032   5.158 -0.7518 -0.3447 -0.1726
  338MOL0     O46537   8.873   8.084   5.137  0.0387 -0.4402  0.3372
  338MOL0     C46538   8.982   7.992   5.143  0.2823 -0.4680 -0.6663
  338MOL0     C46539   9.103   8.033   5.087  0.7431  0.6938  1.2977
  338MOL0     C46540   9.215   7.952   5.097  0.2481 -0.2087  0.8110
  338MOL0     C46541   9.218   7.827   5.144 -0.3405 -0.6023 -0.2569
  338MOL0     O46542   9.324   7.744   5.144 -0.6806  0.0539 -1.1124
  338MOL0     C46543   9.385   7.725   5.011 -0.0454 -0.1088 -0.7684
  338MOL0     C46544   9.446   7.596   4.990  0.5739 -0.3416 -0.1826
  338MOL0     C46545   9.554   7.558   5.090 -0.9564  1.3015  0.4046
  338MOL0     C46546   9.588   7.410   5.076  0.5136 -0.6718 -0.6042
  338MOL0     C46547   9.718   7.377   5.157  0.0125 -0.1540  0.5206
  338MOL0     C46548   9.716   7.388   5.307 -0.3070  0.4668  0.4516
  338MOL0     C46549   9.586   7.322   5.355 -0.1892 -0.6392 -0.2839
  338MOL0     C46550   9.616   7.285   5.499 -0.7893 -0.0671 -0.6640
  338MOL0    Cl46551   9.477   7.198   5.559 -0.0245 -0.4691  0.0846
  338MOL0     C46552   9.095   7.776   5.195 -0.1766 -0.4185  0.7247
  338MOL0     C46553   8.979   7.869   5.199 -0.9323 -0.2393 -0.1810
  338MOL0     O46554   8.719   7.918   5.201  0.4149 -0.0410  0.1990
  338MOL0     C46555   8.500   8.066   5.096  0.0707 -0.1233 -0.8894
  338MOL0     C46556   8.387   8.139   5.050  0.0342 -0.2055 -0.8521
  338MOL0     N46557   8.343   8.866   5.103  0.7110 -0.2740 -0.3956
  338MOL0     N46558   8.417   8.969   5.119 -0.6999  1.0033  0.4025
  338MOL0     C46559   9.000   9.357   5.701  0.7402  0.2934 -0.7235
  338MOL0     C46560   9.070   9.383   5.818  0.1179  0.0653 -0.3663
  338MOL0     C46561   9.327   9.675   6.106  0.0565 -0.1710  0.6735
  338MOL0     C46562   9.319   9.571   6.203  0.4029 -0.4201 -0.7170
  338MOL0     C46563   9.345   9.591   6.335 -0.2410 -0.2456  0.7115
  338MOL0     C46564   9.397   9.712   6.376 -0.9814  0.1580 -0.5066
  338MOL0     O46565   9.418   9.741   6.511  0.3171  0.3605  0.4770
  338MOL0     C46566   9.372   9.660   6.619 -0.5261 -0.6850 -0.3775
  338MOL0     C46567   9.223   9.654   6.631 -0.0962  0.6344  0.3402
  338MOL0     C46568   9.160   9.791   6.594  0.5522 -0.3904  0.2353
  338MOL0     C46569   9.018   9.803   6.655 -0.5472 -0.0614  0.4375
  338MOL0     C46570   8.922   9.713   6.583 -0.4537 -0.5149 -0.3151
  338MOL0     C46571   8.842   9.635   6.534 -0.4677 -0.0769  0.9349
  338MOL0     C46572   9.404   9.818   6.287 -0.0607 -0.4724 -0.9281
  338MOL0     C46573   9.369   9.803   6.147  0.2192  0.7288 -0.4427
  338MOL0     C46574   9.380   9.925   6.062  0.6240  0.4752  0.7882
  338MOL0     H46575   9.211   9.673   5.718 -1.0444 -0.0752  4.2879
  338MOL0     H46576   9.094   9.616   5.511  5.8789 -1.1877  0.8151
  338MOL0     H46577   8.952   9.560   5.356  0.9866 -2.5874 -1.6058
  338MOL0     H46578   8.821   9.594   5.474 -1.3656  0.1821 -2.2881
  338MOL0     H46579   8.718   9.377   5.339 -2.5876  1.3794  2.0111
  338MOL0     H46580   8.674   9.547   5.327 -0.0743  0.5567 -0.6330
  338MOL0     H46581   8.828   9.545   5.116  1.0195 -1.8822 -1.1318
  338MOL0     H46582   8.867   9.383   5.166 -0.4570 -1.9593  1.0769
  338MOL0     H46583   8.629   9.324   5.149  0.4351  1.3242  1.9831
  338MOL0     H46584   8.576   9.486   5.116 -1.3553 -0.2906 -2.9712
  338MOL0     H46585   8.759   9.331   4.928  1.1600  1.2255  0.7262
  338MOL0     H46586   8.727   9.492   4.900 -0.5018 -1.5255 -1.3835
  338MOL0     H46587   8.487   9.446   4.843 -1.4624 -0.3588  3.6256
  338MOL0     H46588   8.575   9.329   4.757 -2.7705  0.6560 -0.6067
  338MOL0     H46589   8.385   9.251   4.834  0.0293 -0.3483  0.1856
  338MOL0     H46590   8.394   9.307   4.992  0.7135  2.2164 -0.3842
  338MOL0     H46591   8.559   9.092   4.851 -3.2159 -0.2592 -0.9202
  338MOL0     H46592   8.603   9.135   5.020  0.9201 -1.9931  1.2262
  338MOL0     H46593   8.338   8.982   4.796 -5.5876 -2.5611 -0.5590
  338MOL0     H46594   8.219   8.755   4.802  0.6209  2.3312  0.0172
  338MOL0     H46595   8.102   8.800   4.932  0.3887  0.8220  2.0546
  338MOL0     H46596   8.334   8.612   4.991  0.3941  1.4793  0.0479
  338MOL0     H46597   8.190   8.620   5.069 -2.4932  0.2246 -0.0139
  338MOL0     H46598   8.065   8.481   4.903 -0.0308 -1.4573 -0.2167
  338MOL0     H46599   8.159   8.545   4.772  1.0002  2.4496  0.1770
  338MOL0     H46600   8.206   8.305   4.823 -1.9374  0.8559 -0.4723
  338MOL0     H46601   8.350   8.396   4.827 -0.3324 -0.6378 -1.9115
  338MOL0     H46602   8.538   8.444   5.038  1.3674  0.2213 -2.4268
  338MOL0     H46603   8.735   8.452   5.107 -0.8975  0.9418  3.3888
  338MOL0     H46604   8.836   8.321   5.038  0.1118 -0.0355  0.3441
  338MOL0     H46605   8.782   8.328   5.223 -2.2828  1.6618  0.0027
  338MOL0     H46606   9.120   8.124   5.029  0.8224 -0.1396 -0.0186
  338MOL0     H46607   9.304   7.987   5.044 -1.2095  0.3135 -1.4238
  338MOL0     H46608   9.311   7.731   4.931 -0.5318 -0.5637 -0.3641
  338MOL0     H46609   9.456   7.807   4.997 -2.8979  2.2171 -2.8965
  338MOL0     H46610   9.370   7.518   5.002  0.2292  0.3466  2.8244
  338MOL0     H46611   9.494   7.588   4.892  0.4644  0.5259 -0.3104
  338MOL0     H46612   9.522   7.581   5.192 -0.2845 -1.5833  1.3515
  338MOL0     H46613   9.639   7.622   5.062  0.1438  0.0208  0.7334
  338MOL0     H46614   9.614   7.387   4.972  1.1774  0.0136 -0.5974
  338MOL0     H46615   9.494   7.366   5.108  0.0069  1.3119  0.8207
  338MOL0     H46616   9.753   7.277   5.131 -1.8618 -0.6603 -0.2038
  338MOL0     H46617   9.791   7.444   5.111 -0.6382 -0.6019 -1.2281
  338MOL0     H46618   9.711   7.493   5.336 -1.2985 -0.0482  2.3607
  338MOL0     H46619   9.803   7.337   5.349 -0.4777 -1.5391 -1.4179
  338MOL0     H46620   9.562   7.228   5.303  0.5783 -1.3008  0.5414
  338MOL0     H46621   9.498   7.388   5.355  0.3253  0.0577 -0.2056
  338MOL0     H46622   9.627   7.364   5.574 -5.3127 -2.1700  2.6761
  338MOL0     H46623   9.691   7.208   5.521 -1.3221 -0.6026 -0.7157
  338MOL0     H46624   9.078   7.671   5.217 -0.6727  0.0923  3.0487
  338MOL0     H46625   8.900   7.826   5.260  2.2990  0.2228  4.9630
  338MOL0     H46626   8.490   7.960   5.116  3.5850 -0.1787  1.4259
  338MOL0     H46627   8.289   8.093   5.044 -0.4120  0.6139 -0.1166
  338MOL0     H46628   8.933   9.272   5.701  1.0206 -0.0041  1.7736
  338MOL0     H46629   9.057   9.319   5.905  2.4368  1.2689  0.9493
  338MOL0     H46630   9.285   9.473   6.172  0.6310 -0.5790 -0.4720
  338MOL0     H46631   9.322   9.508   6.400  1.8241  0.4042  2.3978
  338MOL0     H46632   9.414   9.559   6.629  1.0114  0.1580  2.6392
  338MOL0     H46633   9.410   9.699   6.714  1.5477 -1.7573 -0.7163
  338MOL0     H46634   9.198   9.639   6.737  0.1512 -1.3266  0.1546
  338MOL0     H46635   9.180   9.579   6.564 -2.7970 -0.0415  2.6377
  338MOL0     H46636   9.216   9.876   6.634 -0.1104  1.0372 -1.7286
  338MOL0     H46637   9.156   9.809   6.486  0.9032 -0.5963  0.1871
  338MOL0     H46638   8.975   9.904   6.653 -0.8441 -0.1717 -2.3363
  338MOL0     H46639   9.033   9.775   6.760  2.0953  2.8720  1.0154
  338MOL0     H46640   8.779   9.553   6.505 -1.0964  0.4225  0.8658
  338MOL0     H46641   9.431   9.918   6.320 -0.9371 -0.4129 -0.3601
  338MOL0     H46642   9.301   9.930   5.987 -0.0555 -2.7090  1.1576
  338MOL0     H46643   9.372  10.014   6.126  0.4135  1.3522 -0.4177
  338MOL0     H46644   9.473   9.939   6.008 -0.0449  1.9053 -0.0664
  339MOL0     O46645   8.647   3.763   8.733 -0.2346  0.6211 -0.2227
  339MOL0     C46646   8.699   3.805   8.631 -0.0731 -0.1608 -0.5105
  339MOL0     O46647   8.766   3.723   8.545  0.1086  0.4465 -0.3798
  339MOL0     C46648   8.731   3.592   8.555  1.0355 -0.2352  0.2800
  339MOL0     C46649   8.819   3.511   8.624  0.1389 -0.0346  0.2267
  339MOL0     C46650   8.803   3.376   8.632 -0.0849  0.2319  0.1475
  339MOL0     C46651   8.684   3.321   8.585 -1.2175  0.8232  0.3402
  339MOL0     O46652   8.635   3.197   8.599 -0.6185 -0.1067 -0.3761
  339MOL0     C46653   8.720   3.091   8.663  0.3308  0.4669  0.6323
  339MOL0     C46654   8.627   2.974   8.686  0.2773  0.9326  0.4828
  339MOL0     C46655   8.705   2.842   8.731  0.2591  0.0124 -0.8210
  339MOL0     C46656   8.822   2.808   8.635  0.2480 -0.0944  0.2325
  339MOL0     C46657   8.887   2.669   8.648  0.5689 -0.3733 -0.0505
  339MOL0     C46658   8.965   2.662   8.777  0.4307  0.2931 -0.3340
  339MOL0     C46659   9.073   2.547   8.771 -0.1312 -1.3481 -0.2965
  339MOL0     C46660   9.003   2.416   8.797  0.1480 -0.4123  0.1501
  339MOL0     N46661   8.966   2.390   8.938  0.1261 -0.6881 -0.2933
  339MOL0     C46662   9.046   2.384   9.046 -0.2931 -0.9064  0.1033
  339MOL0     C46663   8.963   2.384   9.154 -0.3433  0.2466  0.1999
  339MOL0     C46664   9.008   2.367   9.301  0.3189 -0.4974 -0.3970
  339MOL0     C46665   9.157   2.352   9.324 -0.0839 -0.5645 -0.7329
  339MOL0     C46666   9.194   2.385   9.468  0.3127  0.1730  0.4819
  339MOL0     C46667   9.200   2.530   9.496 -0.3856  0.4473  0.1689
  339MOL0     O46668   9.321   2.576   9.427 -0.2174 -0.2554  0.1835
  339MOL0     C46669   9.424   2.616   9.505  0.5203  0.2138  0.9347
  339MOL0     C46670   9.477   2.741   9.473  0.8302 -0.6441  1.0183
  339MOL0     C46671   9.584   2.802   9.541 -0.1915  0.3839 -0.7131
  339MOL0     C46672   9.617   2.944   9.514  0.1812  0.5415  1.0365
  339MOL0     C46673   9.651   2.716   9.646  0.0417  0.2447  0.2309
  339MOL0     C46674   9.777   2.762   9.707  0.0537 -0.6601  0.2947
  339MOL0     O46675   9.798   2.739   9.836 -0.1520 -0.4928  0.0710
  339MOL0     C46676   9.933   2.736   9.878  0.1873 -0.9577 -0.0748
  339MOL0     C46677  10.039   2.677   9.809  1.0671  0.6561  0.1126
  339MOL0     C46678  10.167   2.693   9.858  0.1800 -1.2724  0.3248
  339MOL0     C46679  10.192   2.730   9.986 -0.0531  0.0884 -0.3831
  339MOL0     O46680  10.326   2.740  10.009 -0.2676 -0.0152  0.5083
  339MOL0     C46681  10.353   2.812  10.133  0.0532  0.0668 -0.3262
  339MOL0     C46682  10.504   2.845  10.124  0.4551  0.5236 -0.0757
  339MOL0     C46683  10.589   2.720  10.144 -0.4684 -0.3621 -0.5401
  339MOL0     C46684  10.744   2.756  10.166  0.9346 -0.6369 -0.2611
  339MOL0     C46685  10.816   2.805  10.043 -0.3469 -0.2205  0.0503
  339MOL0     C46686  10.962   2.827  10.079  0.8442 -0.5613  0.0069
  339MOL0     C46687  11.043   2.866   9.947 -1.1760 -0.6561 -0.3253
  339MOL0     C46688  11.030   3.010   9.907 -0.4814  0.5540  0.7590
  339MOL0    Cl46689  10.886   3.032   9.798 -0.5343 -0.4030 -0.5767
  339MOL0     C46690  10.079   2.768  10.067  0.2029 -0.2672 -0.8420
  339MOL0     C46691   9.954   2.782  10.010 -0.3367 -0.7602  0.0148
  339MOL0     O46692   9.853   2.812   9.627 -0.6706 -0.1597 -0.1499
  339MOL0     C46693   9.586   2.590   9.682  0.0314  0.3726  0.0580
  339MOL0     C46694   9.481   2.544   9.612  0.2401  0.2159 -0.7851
  339MOL0     N46695   8.836   2.363   9.109  0.6587 -0.5821 -0.2881
  339MOL0     N46696   8.837   2.378   8.979  0.2523 -0.0944  0.3959
  339MOL0     C46697   8.590   3.399   8.518  0.7998 -0.1031 -0.2030
  339MOL0     C46698   8.606   3.544   8.512 -0.2329  0.5590  0.3940
  339MOL0     C46699   8.687   3.953   8.602  0.0969 -0.1922 -0.0228
  339MOL0     C46700   8.750   4.006   8.484 -0.3936 -0.1115 -0.1807
  339MOL0     C46701   8.774   4.135   8.455  0.5651 -0.3040  0.4725
  339MOL0     C46702   8.721   4.231   8.539 -0.3273  0.2056 -0.4692
  339MOL0     O46703   8.756   4.370   8.530 -0.2617 -0.7598  0.0219
  339MOL0     C46704   8.730   4.474   8.628 -0.5396 -0.9111  0.2073
  339MOL0     C46705   8.828   4.587   8.624  0.0730 -0.1262 -0.2003
  339MOL0     C46706   8.833   4.652   8.758 -0.0228 -0.2655 -0.2379
  339MOL0     C46707   8.747   4.779   8.762 -0.2050 -1.0239  0.2129
  339MOL0     C46708   8.811   4.909   8.755 -0.0953 -0.8172  0.7808
  339MOL0     C46709   8.863   5.017   8.756  0.3767 -0.9542 -0.9590
  339MOL0     C46710   8.641   4.185   8.645  0.3531 -0.2190  0.5830
  339MOL0     C46711   8.628   4.053   8.682  0.4422  0.6155 -0.6411
  339MOL0     C46712   8.533   4.021   8.793  0.9217 -0.0258  0.0034
  339MOL0     H46713   8.910   3.547   8.670  1.0186  3.2365 -3.4678
  339MOL0     H46714   8.883   3.323   8.682  1.0074 -0.2796 -2.0060
  339MOL0     H46715   8.766   3.114   8.760 -0.1391 -0.1136  0.9944
  339MOL0     H46716   8.809   3.077   8.601  1.8640  2.1590  2.3139
  339MOL0     H46717   8.556   3.016   8.758 -1.4094  1.1318 -1.2299
  339MOL0     H46718   8.576   2.947   8.593  2.9737  0.6686 -1.0179
  339MOL0     H46719   8.731   2.848   8.837 -0.4838  1.7971 -0.7060
  339MOL0     H46720   8.621   2.772   8.728 -2.4118  2.7808  1.5307
  339MOL0     H46721   8.783   2.823   8.534  1.8076 -0.8652 -0.5112
  339MOL0     H46722   8.908   2.874   8.651  1.2349 -1.4377  0.6179
  339MOL0     H46723   8.946   2.653   8.558  1.8673  1.6199  0.3946
  339MOL0     H46724   8.816   2.587   8.635 -0.4778  0.6316 -0.8394
  339MOL0     H46725   9.017   2.758   8.786  1.0945 -0.2286  2.6192
  339MOL0     H46726   8.898   2.641   8.861  1.1676  4.2280  1.5007
  339MOL0     H46727   9.147   2.562   8.850 -1.4340  0.3356  0.6496
  339MOL0     H46728   9.126   2.560   8.676  0.5817 -0.7149  0.1791
  339MOL0     H46729   8.922   2.402   8.724  0.3354  3.8651 -1.1390
  339MOL0     H46730   9.073   2.336   8.772  0.3018 -0.1185 -0.3760
  339MOL0     H46731   9.154   2.397   9.051 -0.4770  0.3721  1.5753
  339MOL0     H46732   8.963   2.283   9.355 -0.2251  1.1864  1.8753
  339MOL0     H46733   8.967   2.457   9.347 -0.6255 -0.0618 -2.0126
  339MOL0     H46734   9.197   2.251   9.309  1.7607  0.0589 -0.2709
  339MOL0     H46735   9.214   2.422   9.263 -0.6645  0.2072 -0.4063
  339MOL0     H46736   9.116   2.342   9.531  0.0138  0.0626  0.0396
  339MOL0     H46737   9.285   2.330   9.495  0.3948  0.7651  1.4719
  339MOL0     H46738   9.111   2.583   9.460  0.8112  1.2848 -1.7428
  339MOL0     H46739   9.208   2.554   9.602  1.1260  1.0807 -0.0599
  339MOL0     H46740   9.435   2.792   9.386 -1.1453 -0.9725  1.7172
  339MOL0     H46741   9.707   2.949   9.452 -1.8741  0.4371 -2.1432
  339MOL0     H46742   9.640   3.004   9.603  1.3945  3.1693 -0.9452
  339MOL0     H46743   9.538   2.984   9.450  2.1208  1.1141 -1.1170
  339MOL0     H46744  10.020   2.630   9.713  2.2876  2.3340 -1.0287
  339MOL0     H46745  10.241   2.663   9.784 -0.5411 -1.7794 -0.2000
  339MOL0     H46746  10.294   2.902  10.148 -1.5506 -0.9082 -0.5844
  339MOL0     H46747  10.331   2.737  10.210  0.3441  0.3176  0.0083
  339MOL0     H46748  10.513   2.883  10.022 -4.1003  2.1575 -0.0970
  339MOL0     H46749  10.533   2.926  10.192 -3.0950  0.3118  1.9157
  339MOL0     H46750  10.580   2.646  10.064 -1.9262  0.4915 -1.2040
  339MOL0     H46751  10.542   2.677  10.233  2.7726  1.9877  2.6007
  339MOL0     H46752  10.780   2.658  10.200  0.7590 -0.4366  0.5306
  339MOL0     H46753  10.756   2.833  10.243 -0.1824  1.2768 -1.8952
  339MOL0     H46754  10.800   2.730   9.965 -1.2776  0.0894 -0.0613
  339MOL0     H46755  10.765   2.893  10.004 -4.0232 -3.0831 -2.2138
  339MOL0     H46756  11.003   2.741  10.132  1.1035 -0.9812 -0.8583
  339MOL0     H46757  10.963   2.906  10.155  0.2943 -1.0798  0.5705
  339MOL0     H46758  11.019   2.799   9.864  2.1596  0.1969 -2.1720
  339MOL0     H46759  11.149   2.849   9.968 -0.5925 -0.6786 -3.0037
  339MOL0     H46760  11.112   3.040   9.841 -1.5862 -0.7670 -1.3316
  339MOL0     H46761  11.035   3.067  10.000  2.1950 -0.2261  1.1727
  339MOL0     H46762  10.089   2.827  10.158  1.5407  2.6704 -2.7348
  339MOL0     H46763   9.877   2.807  10.082  2.7628 -2.5029  4.3957
  339MOL0     H46764   9.620   2.534   9.768 -1.8298 -2.0410 -0.6859
  339MOL0     H46765   9.434   2.450   9.637  0.7538  0.2089  0.2430
  339MOL0     H46766   8.490   3.365   8.498  0.7708 -1.1604  1.5341
  339MOL0     H46767   8.523   3.603   8.474 -0.1360  0.6096  0.2589
  339MOL0     H46768   8.786   3.937   8.409 -0.7368 -0.3567 -0.1230
  339MOL0     H46769   8.824   4.172   8.366 -3.7615  0.2489 -2.0388
  339MOL0     H46770   8.624   4.499   8.628  0.2380  2.9427 -0.5983
  339MOL0     H46771   8.743   4.426   8.726 -0.6977  0.2647  0.8173
  339MOL0     H46772   8.802   4.654   8.542 -0.3038 -1.8457 -1.5474
  339MOL0     H46773   8.929   4.549   8.606  0.6078  0.5466  1.2470
  339MOL0     H46774   8.805   4.591   8.844 -1.0862 -1.1331 -1.1715
  339MOL0     H46775   8.938   4.683   8.765  0.7491 -1.4941 -4.1409
  339MOL0     H46776   8.688   4.770   8.854 -1.4551  1.5574 -0.2600
  339MOL0     H46777   8.688   4.786   8.671  2.2516 -1.8580 -1.5500
  339MOL0     H46778   8.908   5.113   8.772  0.5753 -0.7041 -2.8298
  339MOL0     H46779   8.576   4.248   8.704 -2.6972 -4.7654  2.5795
  339MOL0     H46780   8.490   4.116   8.827  0.4898  0.2913 -1.3724
  339MOL0     H46781   8.465   3.942   8.758  0.8462  0.2614 -0.5159
  339MOL0     H46782   8.589   3.973   8.874  1.4530 -0.4080 -0.5839
  340MOL0     O46783   4.020   9.369   8.371 -0.6029 -0.5354 -0.8977
  340MOL0     C46784   4.111   9.429   8.321 -0.0992  0.6148  0.0686
  340MOL0     O46785   4.247   9.393   8.335 -1.2690 -1.0029  0.9925
  340MOL0     C46786   4.294   9.335   8.446  0.4039  1.4157 -0.2392
  340MOL0     C46787   4.284   9.406   8.565 -0.0522 -0.3025 -0.0098
  340MOL0     C46788   4.344   9.359   8.683  0.4604  0.5710  0.7866
  340MOL0     C46789   4.414   9.235   8.683 -0.0911  0.5079 -0.5350
  340MOL0     O46790   4.466   9.175   8.795 -0.5888 -0.2474 -0.8673
  340MOL0     C46791   4.430   9.238   8.930  0.2970  0.8582  0.3091
  340MOL0     C46792   4.443   9.135   9.042 -0.2668 -0.1369 -1.3181
  340MOL0     C46793   4.369   9.010   9.008 -0.5893 -0.1484  0.0063
  340MOL0     C46794   4.390   8.906   9.127 -0.2336 -0.1259  0.7119
  340MOL0     C46795   4.264   8.811   9.141 -0.0102 -0.5024 -0.4325
  340MOL0     C46796   4.279   8.698   9.243  0.1426 -0.1323 -0.5053
  340MOL0     C46797   4.202   8.577   9.181  0.3464  0.5391  0.0102
  340MOL0     C46798   4.194   8.457   9.274 -0.7594  0.4198 -0.7589
  340MOL0     N46799   4.073   8.465   9.354 -0.1926  0.3164  0.1156
  340MOL0     C46800   3.950   8.416   9.321 -0.4831 -0.2130  0.2539
  340MOL0     C46801   3.869   8.464   9.417  0.3477  1.1980  0.8125
  340MOL0     C46802   3.722   8.462   9.424 -0.1396  0.7476  0.4583
  340MOL0     C46803   3.668   8.332   9.374 -0.8611 -0.6850  0.2275
  340MOL0     C46804   3.519   8.327   9.396  0.2966 -0.6248  0.5250
  340MOL0     C46805   3.462   8.191   9.374 -0.1755 -0.4734  0.3824
  340MOL0     O46806   3.441   8.190   9.231 -0.5541 -0.7223 -1.0338
  340MOL0     C46807   3.369   8.084   9.173  0.1669  0.3207  0.6959
  340MOL0     C46808   3.335   7.965   9.233 -0.7699 -1.5447  0.2266
  340MOL0     C46809   3.261   7.872   9.160 -0.0566  1.1026  0.2946
  340MOL0     C46810   3.199   7.759   9.244 -0.0736  0.1710  0.3501
  340MOL0     C46811   3.234   7.881   9.022  0.1630  0.2202 -0.4244
  340MOL0     C46812   3.164   7.773   8.940  0.3959  0.8112  0.1717
  340MOL0     O46813   3.128   7.813   8.815  0.4810  0.2789 -0.2766
  340MOL0     C46814   3.021   7.763   8.737  0.0251 -0.1170 -1.1599
  340MOL0     C46815   2.948   7.646   8.773 -0.0647  0.8944  0.0217
  340MOL0     C46816   2.852   7.601   8.687  0.2477 -0.4268 -0.6603
  340MOL0     C46817   2.821   7.672   8.570 -0.7336  0.6193  0.4894
  340MOL0     O46818   2.712   7.624   8.502  0.4054  0.5401  1.5590
  340MOL0     C46819   2.697   7.656   8.360 -0.2578  0.1151 -0.4490
  340MOL0     C46820   2.563   7.597   8.314  0.2908 -0.0489  0.1468
  340MOL0     C46821   2.537   7.608   8.166  0.0536 -0.9544  0.1901
  340MOL0     C46822   2.393   7.577   8.122 -0.2134 -0.3894  0.2903
  340MOL0     C46823   2.292   7.697   8.152  0.2581 -0.4677 -0.6303
  340MOL0     C46824   2.160   7.674   8.081  0.1294 -0.1462  0.8226
  340MOL0     C46825   2.081   7.802   8.045  0.4722  0.3942 -0.7444
  340MOL0     C46826   1.938   7.765   7.990  0.1365 -0.2396  0.0718
  340MOL0    Cl46827   1.844   7.923   8.014 -0.6576  0.1089  0.3264
  340MOL0     C46828   2.892   7.789   8.536  0.2468  0.6655 -0.0106
  340MOL0     C46829   2.989   7.827   8.619  0.1145 -0.1821 -1.0668
  340MOL0     O46830   3.149   7.658   8.982  0.0434  0.3259  0.0222
  340MOL0     C46831   3.275   7.996   8.953 -0.3087 -0.0761  0.4288
  340MOL0     C46832   3.341   8.096   9.039  0.0658 -0.0228  0.7982
  340MOL0     N46833   3.951   8.513   9.520 -0.9073 -0.1572 -0.1352
  340MOL0     N46834   4.071   8.518   9.474  0.4727  0.2137  0.0676
  340MOL0     C46835   4.406   9.163   8.563 -1.4623 -0.1455 -0.4191
  340MOL0     C46836   4.366   9.214   8.448  0.9052 -0.2339 -0.1532
  340MOL0     C46837   4.089   9.541   8.225  0.4822 -0.0345 -0.9565
  340MOL0     C46838   4.195   9.583   8.142 -0.7009 -0.5885 -0.9695
  340MOL0     C46839   4.176   9.685   8.045  0.3875  0.3014  0.0560
  340MOL0     C46840   4.054   9.752   8.035  0.1113  0.0921 -0.2683
  340MOL0     O46841   4.022   9.877   7.974 -1.2123  0.3800 -0.5110
  340MOL0     C46842   4.134   9.941   7.898 -0.1931  0.1465 -0.3410
  340MOL0     C46843   4.241  10.000   7.991  0.4485  0.1143  0.8614
  340MOL0     C46844   4.366  10.034   7.903 -0.6815 -0.4215  0.4239
  340MOL0     C46845   4.484  10.068   7.996  0.1441 -0.3618 -0.9548
  340MOL0     C46846   4.614  10.049   7.926  0.1553 -0.0653  0.5719
  340MOL0     C46847   4.722  10.030   7.871 -0.3754  0.8511  0.6146
  340MOL0     C46848   3.950   9.699   8.110  0.0552  0.2664  0.2777
  340MOL0     C46849   3.957   9.595   8.207 -0.1313 -0.5563  0.2251
  340MOL0     C46850   3.823   9.552   8.276 -0.5004 -0.3231 -0.1221
  340MOL0     H46851   4.230   9.500   8.567  1.6139  0.6806  0.0043
  340MOL0     H46852   4.320   9.423   8.768  0.6915  1.1178  0.4492
  340MOL0     H46853   4.324   9.266   8.937 -0.0872 -0.5872  0.6493
  340MOL0     H46854   4.488   9.330   8.936  0.8326  0.6160 -0.8396
  340MOL0     H46855   4.548   9.106   9.053 -0.3259  0.3589  0.9789
  340MOL0     H46856   4.410   9.176   9.138  2.1212 -1.7337  0.2850
  340MOL0     H46857   4.262   9.032   9.000 -1.1784 -0.9842  3.7566
  340MOL0     H46858   4.412   8.965   8.918  5.2166  2.2011  1.1899
  340MOL0     H46859   4.484   8.850   9.118 -0.4623 -0.1907 -2.2659
  340MOL0     H46860   4.392   8.967   9.218 -3.2949 -0.2001  0.9209
  340MOL0     H46861   4.253   8.760   9.044 -0.6081  0.5628 -0.9347
  340MOL0     H46862   4.177   8.876   9.144  0.4165  0.0765 -0.4915
  340MOL0     H46863   4.386   8.675   9.248  0.5592  1.8790  1.1446
  340MOL0     H46864   4.250   8.742   9.339  3.4794 -0.0902  0.6418
  340MOL0     H46865   4.255   8.547   9.090  1.0891  0.5246  0.4401
  340MOL0     H46866   4.098   8.602   9.158 -0.6865 -1.6830  1.7796
  340MOL0     H46867   4.197   8.365   9.215  1.9211 -1.8356  2.5232
  340MOL0     H46868   4.280   8.451   9.342 -1.5613 -2.0984  0.1137
  340MOL0     H46869   3.916   8.387   9.222  0.6012  0.5482 -0.3577
  340MOL0     H46870   3.694   8.531   9.344  0.6396 -0.0538 -0.5447
  340MOL0     H46871   3.678   8.496   9.517 -1.9798  0.8305 -0.4030
  340MOL0     H46872   3.696   8.314   9.270 -0.8904 -0.1630  0.1288
  340MOL0     H46873   3.718   8.252   9.430  2.5378  1.4707  0.5647
  340MOL0     H46874   3.496   8.367   9.496 -0.3770 -3.2593  1.5130
  340MOL0     H46875   3.460   8.386   9.325 -0.6188 -0.6563  1.2381
  340MOL0     H46876   3.534   8.118   9.412 -0.1670 -2.2928 -2.8195
  340MOL0     H46877   3.363   8.180   9.418 -1.2109 -0.7692 -1.8728
  340MOL0     H46878   3.358   7.952   9.338  3.5603 -0.2456 -0.3325
  340MOL0     H46879   3.100   7.749   9.197  0.5667  2.9688 -1.9110
  340MOL0     H46880   3.180   7.792   9.346 -2.5337  4.0707 -1.1470
  340MOL0     H46881   3.255   7.665   9.247 -2.9780 -1.8589 -2.1008
  340MOL0     H46882   2.954   7.602   8.872 -1.8543  1.4233  0.4060
  340MOL0     H46883   2.790   7.518   8.722 -2.0900  1.1603 -0.7778
  340MOL0     H46884   2.695   7.765   8.350  1.4547  0.3233  1.0584
  340MOL0     H46885   2.780   7.614   8.303  0.0253 -1.5159  1.0822
  340MOL0     H46886   2.558   7.500   8.365 -0.0286  0.0315  0.2694
  340MOL0     H46887   2.490   7.653   8.373  1.3442 -1.1770  2.7131
  340MOL0     H46888   2.603   7.546   8.105 -2.0423 -1.7887 -1.3560
  340MOL0     H46889   2.559   7.712   8.139 -3.2933  0.5986  2.6632
  340MOL0     H46890   2.362   7.485   8.172 -5.8476  0.4247 -1.0352
  340MOL0     H46891   2.392   7.558   8.014 -0.9499  2.0535 -0.1729
  340MOL0     H46892   2.262   7.710   8.256 -0.9397  1.5234 -1.1481
  340MOL0     H46893   2.339   7.782   8.100 -1.4349 -0.9615 -3.1602
  340MOL0     H46894   2.105   7.599   8.139  1.7934 -1.1424  1.1608
  340MOL0     H46895   2.189   7.618   7.992  1.6191 -0.1633  1.2976
  340MOL0     H46896   2.123   7.872   7.972  2.5041 -0.0463 -0.0663
  340MOL0     H46897   2.085   7.854   8.141  3.0392 -2.4247  0.8727
  340MOL0     H46898   1.889   7.684   8.044 -1.1573  1.5355  1.6882
  340MOL0     H46899   1.943   7.746   7.882  0.2312  0.9260 -0.1437
  340MOL0     H46900   2.855   7.844   8.449 -0.5236 -1.7759 -1.3289
  340MOL0     H46901   3.040   7.922   8.611 -0.7098  0.2081 -1.8283
  340MOL0     H46902   3.260   8.025   8.850 -1.3488  0.7356  0.7976
  340MOL0     H46903   3.366   8.187   8.985 -0.3256 -0.4220 -0.0716
  340MOL0     H46904   4.456   9.067   8.559 -2.1255 -0.4731 -1.0808
  340MOL0     H46905   4.371   9.147   8.363  0.2933 -3.1955  1.9817
  340MOL0     H46906   4.293   9.537   8.146 -0.5063 -0.0945  1.3637
  340MOL0     H46907   4.256   9.721   7.982 -0.9951  1.7805 -0.9514
  340MOL0     H46908   4.183   9.867   7.835  0.0351 -1.3373  1.5065
  340MOL0     H46909   4.095  10.020   7.833 -1.1061  0.6209  0.7310
  340MOL0     H46910   4.264   9.932   8.074 -0.1007 -0.6938  0.3620
  340MOL0     H46911   4.206  10.092   8.038  2.4886 -0.2753  3.4367
  340MOL0     H46912   4.387   9.942   7.849 -2.7115  0.1299 -1.4542
  340MOL0     H46913   4.350  10.110   7.826  1.6629  0.4233  0.6999
  340MOL0     H46914   4.478   9.998   8.080 -0.7299  2.3729  1.4565
  340MOL0     H46915   4.472  10.166   8.043 -2.1464 -1.7817  1.7093
  340MOL0     H46916   4.793   9.968   7.820 -0.4013  0.0750  1.4942
  340MOL0     H46917   3.853   9.747   8.100 -2.1780 -3.9264 -0.6267
  340MOL0     H46918   3.784   9.454   8.248  0.8496 -1.5676  2.0860
  340MOL0     H46919   3.839   9.543   8.383  1.0816  1.1385 -0.1962
  340MOL0     H46920   3.751   9.624   8.236  1.7806  0.3630 -3.5312
  341MOL0     O46921   7.117   4.592   0.052  0.1880  0.3220  0.4463
  341MOL0     C46922   7.060   4.630   0.150  0.0398 -0.3930  0.5606
  341MOL0     O46923   6.957   4.726   0.154  0.0733 -0.8135 -0.3482
  341MOL0     C46924   6.915   4.766   0.033  0.1968  0.0873 -0.2237
  341MOL0     C46925   6.955   4.886  -0.016  0.1578 -1.6496  0.1664
  341MOL0     C46926   6.912   4.937  -0.140  0.1647  0.4005 -0.4453
  341MOL0     C46927   6.823   4.862  -0.214  0.1361  0.6617 -1.4903
  341MOL0     O46928   6.764   4.918  -0.329 -0.1258 -0.6467 -0.4381
  341MOL0     C46929   6.772   4.839  -0.447 -0.5960  0.2136  0.0825
  341MOL0     C46930   6.711   4.917  -0.565  0.3829 -0.0137 -0.6475
  341MOL0     C46931   6.684   4.824  -0.682 -0.4047  0.7433  0.0816
  341MOL0     C46932   6.546   4.747  -0.667  0.1180 -0.5699 -0.9413
  341MOL0     C46933   6.535   4.637  -0.769 -0.4615 -0.6788 -0.3916
  341MOL0     C46934   6.404   4.568  -0.749 -0.1527  0.4141 -0.5691
  341MOL0     C46935   6.392   4.428  -0.802  0.1213 -0.1420  0.0674
  341MOL0     C46936   6.380   4.428  -0.957 -0.2880  0.9906 -0.5433
  341MOL0     N46937   6.380   4.292  -1.004  0.3254 -0.7129 -0.5159
  341MOL0     C46938   6.477   4.205  -0.984 -0.2045 -0.0987 -0.4812
  341MOL0     C46939   6.449   4.095  -1.043 -0.6377  1.0537  0.4055
  341MOL0     C46940   6.516   3.958  -1.027  0.2807 -0.7831  0.2276
  341MOL0     C46941   6.463   3.853  -1.127  0.2354  0.4029 -0.0944
  341MOL0     C46942   6.521   3.860  -1.274 -0.6740 -0.5624  0.9706
  341MOL0     C46943   6.677   3.846  -1.267 -0.5233  0.0968 -0.2677
  341MOL0     O46944   6.711   3.721  -1.199 -0.4132  0.6515 -0.0135
  341MOL0     C46945   6.775   3.628  -1.280  0.2207 -0.7875 -0.6168
  341MOL0     C46946   6.692   3.547  -1.350  0.2330  0.3130  0.2715
  341MOL0     C46947   6.735   3.454  -1.443 -0.4352 -0.5294 -0.2098
  341MOL0     C46948   6.621   3.392  -1.520 -0.1440 -0.5073 -0.5186
  341MOL0     C46949   6.877   3.445  -1.462  0.1374  0.6053  0.2081
  341MOL0     C46950   6.939   3.349  -1.551 -0.0833  0.1222 -0.3441
  341MOL0     O46951   7.062   3.381  -1.596 -0.0967 -0.2684  0.9026
  341MOL0     C46952   7.128   3.285  -1.667  0.4013  0.2742 -0.5145
  341MOL0     C46953   7.098   3.267  -1.803 -0.1154 -0.4879 -1.0714
  341MOL0     C46954   7.154   3.164  -1.872  0.4065 -0.3422 -0.1544
  341MOL0     C46955   7.265   3.091  -1.823  0.0629 -0.5475  0.0810
  341MOL0     O46956   7.343   2.994  -1.886 -0.2400 -0.5042  0.1931
  341MOL0     C46957   7.355   3.024  -2.022  1.0391 -0.5266 -0.5886
  341MOL0     C46958   7.449   3.132  -2.055  0.3096 -0.4507 -0.2456
  341MOL0     C46959   7.594   3.087  -2.031 -0.2349 -0.3588 -0.0294
  341MOL0     C46960   7.698   3.169  -2.098 -0.3479 -0.3761  0.3336
  341MOL0     C46961   7.840   3.151  -2.046 -0.0194 -0.4658 -0.0703
  341MOL0     C46962   7.883   3.004  -2.050  0.2383 -0.4149  0.3024
  341MOL0     C46963   7.940   2.968  -2.182 -0.3579  0.0897  0.3843
  341MOL0     C46964   8.081   3.024  -2.212  0.3792 -0.3252  0.0758
  341MOL0    Cl46965   8.125   3.000  -2.377  0.3412  0.2886 -0.2011
  341MOL0     C46966   7.303   3.109  -1.690 -0.5018  0.1887  0.1017
  341MOL0     C46967   7.235   3.205  -1.611 -0.0260  0.0286  0.8316
  341MOL0     O46968   6.881   3.240  -1.572  0.4670 -0.3937 -0.1958
  341MOL0     C46969   6.963   3.535  -1.387 -1.2920  0.0004 -0.1536
  341MOL0     C46970   6.911   3.621  -1.302  0.1987 -0.1817 -1.4274
  341MOL0     N46971   6.311   4.102  -1.082 -0.0970 -0.3033  0.4772
  341MOL0     N46972   6.274   4.223  -1.055  0.2489  0.5170 -0.1533
  341MOL0     C46973   6.768   4.746  -0.160 -0.1921 -0.4026  0.6184
  341MOL0     C46974   6.814   4.694  -0.038  0.0696 -0.4454 -0.2398
  341MOL0     C46975   7.120   4.600   0.288 -1.0220  0.0108 -0.5380
  341MOL0     C46976   7.213   4.491   0.316  0.0503  0.2554  0.1698
  341MOL0     C46977   7.265   4.452   0.441  0.4241 -0.3220  0.2274
  341MOL0     C46978   7.231   4.536   0.553 -0.9428  0.4801  0.6861
  341MOL0     O46979   7.264   4.510   0.682 -0.4358  0.0900 -0.7505
  341MOL0     C46980   7.361   4.406   0.713 -0.3745  0.8612  0.7364
  341MOL0     C46981   7.392   4.415   0.858  0.5782  0.7372  0.2246
  341MOL0     C46982   7.270   4.382   0.955 -0.6116  0.0710  0.1691
  341MOL0     C46983   7.189   4.249   0.934  0.1738 -0.4472 -0.0047
  341MOL0     C46984   7.109   4.217   1.052 -0.3932 -0.4988 -0.7222
  341MOL0     C46985   7.059   4.205   1.159 -0.6411  0.2489 -0.0982
  341MOL0     C46986   7.140   4.637   0.529 -1.1287  0.1581 -0.0389
  341MOL0     C46987   7.077   4.658   0.405 -0.0639  0.2815 -0.7872
  341MOL0     C46988   6.975   4.775   0.429 -0.5140  0.5361  0.3123
  341MOL0     H46989   7.020   4.951   0.041 -1.0756 -0.9242  0.7959
  341MOL0     H46990   6.943   5.036  -0.170  0.2895  0.7011  0.6298
  341MOL0     H46991   6.719   4.743  -0.439 -0.0765  0.0729  2.2999
  341MOL0     H46992   6.878   4.821  -0.462 -0.2130  1.0600  1.5784
  341MOL0     H46993   6.617   4.957  -0.526 -0.6384 -2.4309 -0.4207
  341MOL0     H46994   6.768   5.005  -0.594 -0.3946  0.6810 -0.1168
  341MOL0     H46995   6.674   4.886  -0.771  0.4445 -0.2871 -0.7609
  341MOL0     H46996   6.768   4.756  -0.701 -1.0269  0.2497 -0.9985
  341MOL0     H46997   6.544   4.698  -0.570  3.0518 -1.5966 -1.3089
  341MOL0     H46998   6.461   4.813  -0.689  0.4224  0.3408  0.5024
  341MOL0     H46999   6.617   4.565  -0.756  1.6171  1.8123  1.3081
  341MOL0     H47000   6.532   4.665  -0.874  1.3799  2.9282  0.3637
  341MOL0     H47001   6.377   4.561  -0.643 -0.9781 -2.3671 -0.8966
  341MOL0     H47002   6.331   4.633  -0.798  2.1662  1.2327 -3.1885
  341MOL0     H47003   6.305   4.377  -0.761  0.7374 -1.6922 -0.4719
  341MOL0     H47004   6.487   4.377  -0.784  1.3361  1.5230 -1.2315
  341MOL0     H47005   6.293   4.487  -0.988  0.7126  3.4082  0.9311
  341MOL0     H47006   6.463   4.486  -0.997 -1.4935  2.8680 -0.4096
  341MOL0     H47007   6.562   4.232  -0.922  0.2385  0.5123 -1.3248
  341MOL0     H47008   6.500   3.914  -0.929 -0.2275 -2.8753 -0.7371
  341MOL0     H47009   6.623   3.975  -1.041  0.1280 -0.9430 -1.4360
  341MOL0     H47010   6.491   3.757  -1.084 -0.3219 -0.1812 -0.9846
  341MOL0     H47011   6.354   3.852  -1.140  0.1910  3.6117 -0.8258
  341MOL0     H47012   6.473   3.782  -1.333 -0.1682 -1.2316  1.4343
  341MOL0     H47013   6.508   3.949  -1.336  4.4339 -0.7801 -0.8903
  341MOL0     H47014   6.714   3.875  -1.366 -0.7166  2.1837  0.2243
  341MOL0     H47015   6.724   3.923  -1.205  1.4414 -0.3756 -1.0755
  341MOL0     H47016   6.588   3.564  -1.324 -0.2262  2.1791 -2.3371
  341MOL0     H47017   6.602   3.296  -1.470  3.0395 -0.2590  1.4849
  341MOL0     H47018   6.636   3.373  -1.626 -1.2971  0.0191 -0.7935
  341MOL0     H47019   6.538   3.463  -1.517  1.3241  1.3028 -0.9187
  341MOL0     H47020   7.019   3.323  -1.853  0.5871 -0.5330 -2.2571
  341MOL0     H47021   7.114   3.157  -1.972  1.3360  0.4853 -0.6015
  341MOL0     H47022   7.406   2.935  -2.061  0.7011 -1.0782  0.2115
  341MOL0     H47023   7.257   3.039  -2.069 -0.1507 -1.7608  1.3377
  341MOL0     H47024   7.435   3.163  -2.159  1.7806 -1.7747 -0.8682
  341MOL0     H47025   7.424   3.216  -1.989 -1.2857 -1.0351 -0.0621
  341MOL0     H47026   7.602   2.987  -2.073 -0.9794  0.3886 -2.0959
  341MOL0     H47027   7.602   3.101  -1.922  0.4865  0.9840 -0.2225
  341MOL0     H47028   7.674   3.274  -2.083  1.0450  0.3140 -1.7241
  341MOL0     H47029   7.709   3.150  -2.205  1.5834 -0.6157  0.5368
  341MOL0     H47030   7.912   3.207  -2.107 -0.2195 -1.1603 -0.9790
  341MOL0     H47031   7.830   3.189  -1.944 -4.1651  0.8640 -0.7827
  341MOL0     H47032   7.796   2.942  -2.027 -0.5209 -1.1392 -3.8353
  341MOL0     H47033   7.942   2.974  -1.962  0.3889  2.6844  1.4001
  341MOL0     H47034   7.881   2.985  -2.272  0.7183  1.1623 -0.1412
  341MOL0     H47035   7.958   2.860  -2.179  0.4144  0.0456 -2.4513
  341MOL0     H47036   8.158   2.990  -2.142  2.0979  1.9822 -0.5416
  341MOL0     H47037   8.088   3.132  -2.195  1.1777 -0.5587  1.4823
  341MOL0     H47038   7.383   3.053  -1.642 -0.4173  0.7539  0.6283
  341MOL0     H47039   7.275   3.214  -1.510  1.5224  1.4803  0.1441
  341MOL0     H47040   7.071   3.527  -1.393 -1.2748  0.4202 -0.4731
  341MOL0     H47041   6.981   3.688  -1.254 -0.4109 -1.3950  1.4095
  341MOL0     H47042   6.698   4.694  -0.224  1.1477  0.7923 -1.9427
  341MOL0     H47043   6.776   4.602   0.004  0.5632 -0.4878  0.1334
  341MOL0     H47044   7.256   4.434   0.234  0.8882  0.8452  0.1845
  341MOL0     H47045   7.335   4.370   0.450  0.6551 -0.0784  0.7182
  341MOL0     H47046   7.327   4.303   0.704  2.4258 -0.3707  2.9045
  341MOL0     H47047   7.446   4.410   0.645 -1.4380  0.1372 -0.6705
  341MOL0     H47048   7.418   4.521   0.866  0.0894  0.9320 -0.6786
  341MOL0     H47049   7.468   4.341   0.885 -0.2377 -0.0023  0.5196
  341MOL0     H47050   7.322   4.383   1.051 -0.0568 -0.1333 -0.1272
  341MOL0     H47051   7.200   4.466   0.949 -0.1295  0.4311 -0.4649
  341MOL0     H47052   7.264   4.170   0.925  1.4651  0.3036  2.9439
  341MOL0     H47053   7.119   4.263   0.851 -1.2327  2.1587  1.4778
  341MOL0     H47054   7.010   4.184   1.251 -2.4804  1.9718 -0.6288
  341MOL0     H47055   7.121   4.701   0.615 -1.8458 -0.2747  0.1298
  341MOL0     H47056   6.987   4.857   0.357 -0.5388 -0.8490 -1.3258
  341MOL0     H47057   6.871   4.744   0.416 -0.2944  0.1244 -0.5221
  341MOL0     H47058   6.981   4.822   0.528 -1.3771  0.1317  0.5672
  342MOL0     O47059   9.619   9.550  11.224  0.0269  0.1674  0.6646
  342MOL0     C47060   9.644   9.528  11.104  0.2269  0.3645  0.8386
  342MOL0     O47061   9.698   9.412  11.052 -0.7352  0.0556  0.8447
  342MOL0     C47062   9.709   9.305  11.136  0.0126 -0.3882 -0.1924
  342MOL0     C47063   9.816   9.291  11.227 -0.6479 -0.1335 -0.7523
  342MOL0     C47064   9.822   9.176  11.320 -0.9997 -0.8013 -0.2362
  342MOL0     C47065   9.735   9.076  11.308  0.2161  0.4485  1.2269
  342MOL0     O47066   9.746   8.969  11.392 -0.4612  0.4807  0.2762
  342MOL0     C47067   9.686   8.848  11.351 -0.2377  0.4949 -0.4874
  342MOL0     C47068   9.734   8.738  11.448  1.0128 -0.8318 -0.2499
  342MOL0     C47069   9.881   8.718  11.426 -0.2718  0.3091  0.0148
  342MOL0     C47070   9.944   8.633  11.539  0.1139  0.4744 -0.8515
  342MOL0     C47071  10.060   8.556  11.477 -1.3071 -0.5458  0.3372
  342MOL0     C47072  10.111   8.442  11.568  0.2075  0.3501  0.9285
  342MOL0     C47073  10.225   8.363  11.507 -0.1021 -0.1552 -0.4738
  342MOL0     C47074  10.335   8.452  11.470  0.1123  0.2926  0.2224
  342MOL0     N47075  10.396   8.523  11.583  0.1413 -0.7032  0.1184
  342MOL0     C47076  10.362   8.655  11.624 -0.2197 -0.4569  0.5485
  342MOL0     C47077  10.429   8.664  11.748 -0.1945 -0.1411 -0.7667
  342MOL0     C47078  10.440   8.795  11.825 -0.2159 -0.2763  0.0275
  342MOL0     C47079  10.580   8.807  11.904  0.2836 -0.4442  0.0615
  342MOL0     C47080  10.605   8.722  12.027 -0.2290  0.3044 -0.6686
  342MOL0     C47081  10.612   8.812  12.147  0.1711  0.4534 -0.0108
  342MOL0     O47082  10.697   8.920  12.128  0.4573 -1.0810  0.5054
  342MOL0     C47083  10.703   9.024  12.208  1.1453  0.0120 -0.2633
  342MOL0     C47084  10.812   9.110  12.186  0.3373 -0.0590 -0.4045
  342MOL0     C47085  10.821   9.234  12.250 -0.2342 -0.7608  0.4654
  342MOL0     C47086  10.934   9.324  12.209 -0.1652  0.2177  0.3254
  342MOL0     C47087  10.729   9.269  12.343  0.4192 -0.5745  0.2840
  342MOL0     C47088  10.740   9.388  12.428 -0.0429 -0.9284  0.1765
  342MOL0     O47089  10.624   9.435  12.474 -0.9191 -0.1429 -0.4299
  342MOL0     C47090  10.611   9.541  12.551  0.7447 -0.3741 -0.5130
  342MOL0     C47091  10.479   9.598  12.554 -0.3031 -0.3053  0.6590
  342MOL0     C47092  10.449   9.699  12.646 -0.2409  0.2266  0.6715
  342MOL0     C47093  10.541   9.739  12.738 -0.6601 -0.4456  0.6721
  342MOL0     O47094  10.488   9.810  12.838  0.8167  0.0969 -0.6309
  342MOL0     C47095  10.454   9.748  12.969 -0.2696  0.1628  0.2810
  342MOL0     C47096  10.504   9.832  13.092 -0.2685 -0.0200  0.6356
  342MOL0     C47097  10.662   9.820  13.109  0.8850 -0.5439  0.1719
  342MOL0     C47098  10.689   9.911  13.226  0.2343 -0.1341 -0.4554
  342MOL0     C47099  10.838   9.953  13.244  0.2401  0.2366  0.0823
  342MOL0     C47100  10.874  10.003  13.385  0.8303  0.7161  0.7837
  342MOL0     C47101  11.026  10.021  13.390 -0.2118 -1.0418 -0.7223
  342MOL0     C47102  11.098   9.906  13.470  0.3669  0.3247 -0.4362
  342MOL0    Cl47103  11.024   9.737  13.457  0.5454 -0.0638  0.6593
  342MOL0     C47104  10.670   9.699  12.732 -0.0497 -0.8645  0.6640
  342MOL0     C47105  10.711   9.603  12.637 -0.5753 -0.3571 -0.2482
  342MOL0     O47106  10.850   9.437  12.450 -0.3936  0.4980 -0.2481
  342MOL0     C47107  10.615   9.187  12.366  0.1642  0.3564 -0.2115
  342MOL0     C47108  10.610   9.061  12.304 -0.3642 -0.7012 -0.9862
  342MOL0     N47109  10.496   8.546  11.783  0.3440  0.1173 -0.3045
  342MOL0     N47110  10.472   8.463  11.685 -0.3118 -0.5268 -0.0032
  342MOL0     C47111   9.633   9.089  11.212  0.1774  0.0279  1.0793
  342MOL0     C47112   9.610   9.201  11.135  0.2225  0.3529  0.7881
  342MOL0     C47113   9.599   9.618  11.004 -0.1724 -0.8527 -0.0521
  342MOL0     C47114   9.483   9.578  10.938 -0.3975 -0.7324  0.7614
  342MOL0     C47115   9.436   9.661  10.830 -0.3368 -1.0793 -0.4732
  342MOL0     C47116   9.484   9.793  10.817  0.5068  0.2229  0.4907
  342MOL0     O47117   9.433   9.880  10.716  0.1169  0.4639  0.3660
  342MOL0     C47118   9.316   9.944  10.768  0.0459  0.1043  0.4219
  342MOL0     C47119   9.357  10.080  10.808  0.2098  0.1164  0.1992
  342MOL0     C47120   9.229  10.139  10.859  0.6266 -1.0552 -0.5311
  342MOL0     C47121   9.242  10.281  10.913 -0.5711 -0.3353 -1.0327
  342MOL0     C47122   9.324  10.277  11.030 -1.0301  0.3954 -0.0241
  342MOL0     C47123   9.388  10.273  11.132  1.2234 -0.3453 -0.4697
  342MOL0     C47124   9.580   9.836  10.906 -1.0772  1.5941 -0.3895
  342MOL0     C47125   9.652   9.747  10.989 -0.0446  0.2362  0.4295
  342MOL0     C47126   9.777   9.803  11.065  0.3632  0.4191  0.1853
  342MOL0     H47127   9.896   9.364  11.223  2.1221 -2.8568  0.9713
  342MOL0     H47128   9.896   9.157  11.397 -0.8257 -3.2485 -0.9449
  342MOL0     H47129   9.729   8.815  11.256 -0.8292 -5.0656  0.8027
  342MOL0     H47130   9.578   8.864  11.362  0.1913  2.4077  1.7205
  342MOL0     H47131   9.706   8.763  11.551 -4.5557  2.5170 -2.1475
  342MOL0     H47132   9.685   8.645  11.419 -2.0787 -0.2762  2.5614
  342MOL0     H47133   9.881   8.672  11.327 -3.4398  1.8644 -0.8730
  342MOL0     H47134   9.943   8.808  11.420  3.0494 -1.6693  1.9159
  342MOL0     H47135   9.977   8.704  11.615 -1.9079 -0.7008  1.2499
  342MOL0     H47136   9.867   8.568  11.583  2.8103 -2.7851 -0.5611
  342MOL0     H47137  10.142   8.626  11.456  1.8455 -2.3875  4.6901
  342MOL0     H47138  10.029   8.496  11.391  0.6520 -0.4211 -0.5082
  342MOL0     H47139  10.133   8.481  11.668  1.4602 -1.4464  1.4133
  342MOL0     H47140  10.029   8.371  11.585 -0.5759  0.9312 -0.2619
  342MOL0     H47141  10.194   8.311  11.416 -4.0021  2.4717 -0.8827
  342MOL0     H47142  10.262   8.277  11.564  1.1375 -0.1134 -1.1792
  342MOL0     H47143  10.404   8.376  11.432 -2.6402 -1.9910 -0.5273
  342MOL0     H47144  10.311   8.513  11.382  1.4477 -1.9077 -1.8018
  342MOL0     H47145  10.310   8.738  11.576  1.6750 -1.4147 -3.5839
  342MOL0     H47146  10.375   8.794  11.913  1.2085  0.3320  1.1238
  342MOL0     H47147  10.424   8.878  11.757  4.4380 -0.9147 -2.2352
  342MOL0     H47148  10.660   8.802  11.830 -1.7463  0.0774 -2.3364
  342MOL0     H47149  10.578   8.911  11.940  0.1425 -0.9191  1.4762
  342MOL0     H47150  10.516   8.659  12.024 -0.4894  0.6975 -1.6079
  342MOL0     H47151  10.688   8.655  12.005 -0.0200 -0.2335  1.5096
  342MOL0     H47152  10.511   8.852  12.157  0.1702  0.5505 -0.3890
  342MOL0     H47153  10.635   8.751  12.235 -4.3453 -0.1544  1.0185
  342MOL0     H47154  10.881   9.080  12.107  0.7382  0.1790 -0.1500
  342MOL0     H47155  11.002   9.360  12.286 -1.1242 -1.0400  1.8375
  342MOL0     H47156  10.897   9.416  12.163 -0.5740 -0.4765 -0.7772
  342MOL0     H47157  10.996   9.266  12.141 -2.1781 -0.9609 -0.6058
  342MOL0     H47158  10.397   9.556  12.496  0.1868 -1.5613  0.8367
  342MOL0     H47159  10.346   9.732  12.656 -0.0605  1.9343 -1.9917
  342MOL0     H47160  10.345   9.746  12.975 -0.2254  0.0396  1.1956
  342MOL0     H47161  10.494   9.646  12.974 -1.0953 -1.0633 -7.1523
  342MOL0     H47162  10.473   9.936  13.085 -0.4288 -0.1791 -1.7009
  342MOL0     H47163  10.449   9.786  13.175  1.2972 -0.9940  1.1852
  342MOL0     H47164  10.708   9.850  13.014  2.8925 -1.8904  0.6677
  342MOL0     H47165  10.701   9.719  13.124  0.7180 -0.2596  2.9651
  342MOL0     H47166  10.658   9.869  13.322 -0.8246 -0.9729 -1.1449
  342MOL0     H47167  10.635  10.004  13.205 -0.0498  0.4729  2.5089
  342MOL0     H47168  10.906   9.876  13.206  1.8835  1.9785 -0.6171
  342MOL0     H47169  10.864  10.038  13.180  0.1582  2.1286  2.4253
  342MOL0     H47170  10.839   9.930  13.458 -1.3077 -1.3692 -2.1073
  342MOL0     H47171  10.819  10.097  13.396 -1.1268  0.1572 -2.7711
  342MOL0     H47172  11.062  10.114  13.435 -2.8219  0.0794 -0.7796
  342MOL0     H47173  11.066  10.026  13.288 -3.3757  1.5088 -1.9980
  342MOL0     H47174  11.103   9.930  13.577 -0.3996  0.3383 -0.4007
  342MOL0     H47175  11.198   9.884  13.432 -0.2850  0.4051 -2.3066
  342MOL0     H47176  10.743   9.756  12.789 -1.8909  2.9696 -0.5011
  342MOL0     H47177  10.819   9.590  12.636  0.0763  3.4879 -3.1556
  342MOL0     H47178  10.541   9.212  12.442  0.1162 -2.5990  0.8619
  342MOL0     H47179  10.524   9.003  12.333 -2.7156  1.9678 -2.1542
  342MOL0     H47180   9.556   9.015  11.192 -1.3292  1.4748  1.3373
  342MOL0     H47181   9.516   9.224  11.086 -0.6790 -3.0474  0.7241
  342MOL0     H47182   9.429   9.486  10.958 -4.0129  1.1539  0.4961
  342MOL0     H47183   9.355   9.622  10.769 -0.9870 -0.9190  0.2812
  342MOL0     H47184   9.239   9.943  10.689  1.9380  2.1692 -1.5914
  342MOL0     H47185   9.280   9.885  10.852  1.6202 -2.0352 -0.2968
  342MOL0     H47186   9.399  10.125  10.717 -1.1171 -2.0021 -1.5704
  342MOL0     H47187   9.430  10.063  10.888 -1.7059 -3.1275  1.4302
  342MOL0     H47188   9.165  10.162  10.772  3.0438 -0.5649 -2.2812
  342MOL0     H47189   9.181  10.069  10.928 -1.3079  0.7660  0.0933
  342MOL0     H47190   9.147  10.332  10.931  0.7138  1.9229 -0.1706
  342MOL0     H47191   9.288  10.346  10.837 -0.3175  0.5692 -0.1316
  342MOL0     H47192   9.435  10.266  11.228 -0.0970  2.5398  0.4942
  342MOL0     H47193   9.620   9.935  10.885  2.5719  0.0001 -1.9128
  342MOL0     H47194   9.781   9.781  11.172 -0.6620 -0.5846  0.0442
  342MOL0     H47195   9.866   9.753  11.024 -1.0534 -2.4034  0.3295
  342MOL0     H47196   9.785   9.910  11.044 -0.9236  0.2608 -1.2451
  343MOL0     O47197   8.511   6.160   0.797 -0.4602 -0.4135 -0.5770
  343MOL0     C47198   8.423   6.127   0.881  1.4489  0.1756  0.1972
  343MOL0     O47199   8.431   6.027   0.971 -0.1854 -0.0530 -0.0273
  343MOL0     C47200   8.551   5.968   0.988  0.4180 -0.3721  0.7643
  343MOL0     C47201   8.617   5.995   1.101 -0.7434 -0.0638 -0.0850
  343MOL0     C47202   8.749   5.949   1.116  0.7610  0.4535 -0.0631
  343MOL0     C47203   8.815   5.888   1.008  0.3723 -0.8723 -0.1958
  343MOL0     O47204   8.953   5.866   1.025  0.4149  0.0360 -0.5860
  343MOL0     C47205   9.028   5.779   0.935  0.3780  0.6777 -0.1766
  343MOL0     C47206   9.164   5.756   0.980 -0.3606  0.6112 -0.1519
  343MOL0     C47207   9.259   5.875   0.953 -0.5188 -0.8423  0.6225
  343MOL0     C47208   9.408   5.846   0.995 -0.8156 -0.3766  0.2801
  343MOL0     C47209   9.465   5.716   0.936  0.1386 -0.3061  0.4442
  343MOL0     C47210   9.477   5.716   0.773  0.1439  0.9400 -0.0188
  343MOL0     C47211   9.601   5.797   0.719  0.2407  0.0230  0.3048
  343MOL0     C47212   9.594   5.799   0.570  0.1749 -0.7629  0.5093
  343MOL0     N47213   9.563   5.677   0.490 -0.1935 -0.0703 -0.0174
  343MOL0     C47214   9.625   5.549   0.497 -0.4807 -0.6749  0.2926
  343MOL0     C47215   9.549   5.475   0.400  0.1325  0.0413  0.0948
  343MOL0     C47216   9.572   5.331   0.342  0.1385  0.9235 -0.0339
  343MOL0     C47217   9.538   5.307   0.196  0.8242  0.0733  0.1577
  343MOL0     C47218   9.383   5.294   0.165 -0.0158  0.2142  0.2319
  343MOL0     C47219   9.345   5.344   0.028  0.1016  0.1505 -1.2597
  343MOL0     O47220   9.357   5.238  -0.067 -0.3758  0.5337  0.4814
  343MOL0     C47221   9.359   5.263  -0.198 -0.3661  0.3391  0.2459
  343MOL0     C47222   9.417   5.170  -0.288 -0.6783 -0.4561  0.0118
  343MOL0     C47223   9.413   5.195  -0.429  0.4406  0.3763  0.2892
  343MOL0     C47224   9.483   5.094  -0.521  0.0968 -0.1923  0.2485
  343MOL0     C47225   9.341   5.301  -0.482 -0.0295 -0.3937 -0.1807
  343MOL0     C47226   9.322   5.330  -0.627  0.2443 -0.0654 -1.0762
  343MOL0     O47227   9.258   5.226  -0.697 -0.9596  0.4245  0.0092
  343MOL0     C47228   9.215   5.264  -0.820  0.0273 -0.5910 -0.0158
  343MOL0     C47229   9.297   5.313  -0.929 -0.2447  0.0094 -0.4370
  343MOL0     C47230   9.246   5.318  -1.059  0.3741 -0.2768 -0.3165
  343MOL0     C47231   9.115   5.277  -1.092  0.4326 -0.1266  0.5352
  343MOL0     O47232   9.057   5.270  -1.218  0.3601  1.1812  0.5017
  343MOL0     C47233   9.106   5.336  -1.334 -0.7412  0.2199  0.6667
  343MOL0     C47234   9.012   5.437  -1.408  0.4631  0.2715 -0.5067
  343MOL0     C47235   9.068   5.519  -1.523 -0.5816  0.6751 -0.6107
  343MOL0     C47236   9.171   5.618  -1.474 -0.6563 -0.3266  0.0557
  343MOL0     C47237   9.183   5.728  -1.588  0.8643  0.8988  0.4924
  343MOL0     C47238   9.276   5.851  -1.560  0.4447  0.1947  0.4131
  343MOL0     C47239   9.229   5.925  -1.438 -0.5999 -0.3702  0.0927
  343MOL0     C47240   9.265   6.074  -1.452 -0.7416 -0.3412  0.3440
  343MOL0    Cl47241   9.127   6.173  -1.535 -0.2007 -0.0427  0.0975
  343MOL0     C47242   9.025   5.256  -0.990 -0.0571  0.8236 -0.0697
  343MOL0     C47243   9.082   5.238  -0.856  0.1199  0.6337  0.2177
  343MOL0     O47244   9.312   5.445  -0.656 -0.4501 -0.9644  0.5127
  343MOL0     C47245   9.291   5.395  -0.386  0.0275  0.4024 -0.1480
  343MOL0     C47246   9.309   5.379  -0.253  0.0738 -0.1372 -0.4475
  343MOL0     N47247   9.448   5.555   0.345  0.0808 -0.0402  0.4626
  343MOL0     N47248   9.463   5.681   0.386 -0.6176  0.7041 -0.0904
  343MOL0     C47249   8.752   5.868   0.884  1.0051 -1.1414  0.4853
  343MOL0     C47250   8.614   5.897   0.876  0.1957  0.1463  0.3798
  343MOL0     C47251   8.296   6.206   0.874 -0.8889 -0.9907 -0.7703
  343MOL0     C47252   8.294   6.305   0.780  0.2771  0.2468  0.1332
  343MOL0     C47253   8.187   6.391   0.758  0.0542  0.4018 -0.7920
  343MOL0     C47254   8.082   6.397   0.852  0.0009  0.7439 -0.3840
  343MOL0     O47255   7.988   6.496   0.850  0.0128  0.2014 -0.0303
  343MOL0     C47256   7.981   6.587   0.743 -0.4692 -0.1767  0.4902
  343MOL0     C47257   7.901   6.523   0.627 -0.2275 -0.5859  0.2564
  343MOL0     C47258   7.755   6.489   0.664 -0.1198  0.1397  0.3451
  343MOL0     C47259   7.693   6.378   0.570  0.3459 -0.3190 -0.1837
  343MOL0     C47260   7.739   6.233   0.604 -0.2506 -0.2777 -0.0338
  343MOL0     C47261   7.761   6.108   0.608 -0.0857 -0.0718  0.6993
  343MOL0     C47262   8.077   6.290   0.945 -0.8583 -1.1676  0.3260
  343MOL0     C47263   8.178   6.194   0.958 -0.3752 -0.5132  0.1522
  343MOL0     C47264   8.167   6.096   1.073  0.0046  0.3058 -0.6502
  343MOL0     H47265   8.581   6.055   1.184  0.4551  0.5524  0.0104
  343MOL0     H47266   8.817   5.970   1.199  0.8175 -2.5148  0.7848
  343MOL0     H47267   9.030   5.820   0.834  2.3151  0.6034 -0.1993
  343MOL0     H47268   8.977   5.683   0.932  2.7559 -0.6270 -1.9665
  343MOL0     H47269   9.153   5.727   1.085 -2.1974  1.5138 -0.0567
  343MOL0     H47270   9.197   5.668   0.924 -2.7678 -0.3613 -0.1688
  343MOL0     H47271   9.263   5.907   0.848  0.4131  1.1524  1.2157
  343MOL0     H47272   9.223   5.960   1.011  0.4054 -0.5801  0.8198
  343MOL0     H47273   9.469   5.929   0.957 -1.3383 -1.0698 -2.2360
  343MOL0     H47274   9.415   5.834   1.104 -3.0096 -0.1681  0.4783
  343MOL0     H47275   9.408   5.625   0.955  1.7107 -1.4598 -0.1316
  343MOL0     H47276   9.563   5.697   0.981  1.2458 -0.7964 -2.0188
  343MOL0     H47277   9.497   5.613   0.745  2.5711  0.2827  3.4680
  343MOL0     H47278   9.380   5.743   0.730  0.8172  1.0524 -1.5417
  343MOL0     H47279   9.695   5.760   0.761  0.4604  0.1071 -0.1023
  343MOL0     H47280   9.608   5.895   0.769  0.2296 -0.7991  1.9922
  343MOL0     H47281   9.526   5.876   0.532  0.1614 -2.0479 -2.2929
  343MOL0     H47282   9.694   5.835   0.546 -0.8546  2.7110  0.9154
  343MOL0     H47283   9.708   5.527   0.563 -0.1279  2.5967  1.0952
  343MOL0     H47284   9.509   5.272   0.409 -1.7008  2.1254 -0.6322
  343MOL0     H47285   9.677   5.307   0.364 -0.3246  0.6363  2.1555
  343MOL0     H47286   9.576   5.388   0.132 -0.8179  2.9329  2.5546
  343MOL0     H47287   9.590   5.215   0.166 -1.9473 -1.6484  0.2988
  343MOL0     H47288   9.364   5.186   0.161  0.9661  0.0029  0.8983
  343MOL0     H47289   9.326   5.334   0.250  0.3952  0.5506  0.3507
  343MOL0     H47290   9.240   5.370   0.013 -0.2158 -1.9730 -3.2474
  343MOL0     H47291   9.405   5.434   0.017  0.4461 -0.2471 -2.9479
  343MOL0     H47292   9.458   5.077  -0.249  0.0228 -0.1671 -0.0126
  343MOL0     H47293   9.509   5.002  -0.470 -0.1550 -0.8652 -0.8005
  343MOL0     H47294   9.585   5.128  -0.542  0.6404 -2.4939 -1.1685
  343MOL0     H47295   9.423   5.063  -0.607 -3.7797  0.8613  2.3665
  343MOL0     H47296   9.400   5.345  -0.918 -0.5158  0.4314  0.9832
  343MOL0     H47297   9.298   5.365  -1.142  1.8602  0.6998  1.1099
  343MOL0     H47298   9.200   5.391  -1.319  0.4905 -0.9096 -2.1975
  343MOL0     H47299   9.126   5.260  -1.410 -2.8473 -0.9068  1.1684
  343MOL0     H47300   8.935   5.368  -1.444 -0.9757  2.4662 -1.8641
  343MOL0     H47301   8.972   5.499  -1.326  0.8579  0.3380 -0.3631
  343MOL0     H47302   8.985   5.583  -1.555 -0.4343  1.2825  0.1910
  343MOL0     H47303   9.119   5.457  -1.598  0.4941 -0.6468  1.1230
  343MOL0     H47304   9.265   5.563  -1.464 -1.5875 -2.2012 -0.9657
  343MOL0     H47305   9.141   5.654  -1.375  2.1963 -1.8939  1.6184
  343MOL0     H47306   9.215   5.680  -1.681  1.8904 -4.3225  3.1867
  343MOL0     H47307   9.087   5.779  -1.606  1.3400  1.3933 -0.7771
  343MOL0     H47308   9.278   5.903  -1.656  3.2963  0.2068  0.4133
  343MOL0     H47309   9.378   5.820  -1.537  0.7318  0.9508  0.1838
  343MOL0     H47310   9.285   5.888  -1.352 -3.0478 -1.7799  1.1568
  343MOL0     H47311   9.125   5.908  -1.409 -0.4307 -1.1757  0.2582
  343MOL0     H47312   9.356   6.104  -1.505 -0.6445  0.2605  0.8376
  343MOL0     H47313   9.268   6.116  -1.351  1.2537 -1.4943  0.8193
  343MOL0     H47314   8.922   5.225  -1.000  0.1404 -2.2623  4.5680
  343MOL0     H47315   9.024   5.183  -0.783  0.6540 -0.2130  0.0113
  343MOL0     H47316   9.243   5.483  -0.427 -1.3585  0.0574  0.6602
  343MOL0     H47317   9.282   5.458  -0.184  2.0397 -0.4376  0.7490
  343MOL0     H47318   8.797   5.846   0.788  0.2345 -1.8697  0.2781
  343MOL0     H47319   8.549   5.883   0.790  1.4709 -2.3152 -0.2854
  343MOL0     H47320   8.374   6.305   0.707  0.9390 -1.5614  0.7811
  343MOL0     H47321   8.200   6.455   0.672  1.0129 -1.1532 -1.8630
  343MOL0     H47322   7.926   6.672   0.785 -0.6586  0.6112 -1.2273
  343MOL0     H47323   8.075   6.634   0.713 -1.3302 -0.4165 -3.0790
  343MOL0     H47324   7.954   6.432   0.598 -1.4474 -1.5927  1.0330
  343MOL0     H47325   7.909   6.582   0.535  0.1173 -2.5339 -1.0249
  343MOL0     H47326   7.753   6.446   0.765 -2.7557 -0.6531  0.0213
  343MOL0     H47327   7.689   6.576   0.671 -0.3885  0.1570 -1.7273
  343MOL0     H47328   7.711   6.401   0.465  3.8577  1.5695  0.6749
  343MOL0     H47329   7.586   6.379   0.593  0.7194  3.2700  2.1925
  343MOL0     H47330   7.786   6.004   0.601 -1.6667 -0.4192 -0.2740
  343MOL0     H47331   8.008   6.295   1.028 -1.1003  2.5255  0.0869
  343MOL0     H47332   8.072   6.092   1.127  0.2416 -1.1449 -0.3033
  343MOL0     H47333   8.199   5.997   1.041  1.0659  0.2682  0.4678
  343MOL0     H47334   8.243   6.116   1.148 -1.9856 -0.0339  1.5643
  344MOL0     O47335   1.099   1.391   7.794 -0.8430  0.4354  0.2580
  344MOL0     C47336   1.170   1.304   7.734 -1.0207 -1.4095  0.5831
  344MOL0     O47337   1.269   1.322   7.636  0.0670 -0.4997  0.0113
  344MOL0     C47338   1.288   1.434   7.575  0.2703  0.0366 -0.4528
  344MOL0     C47339   1.286   1.453   7.435  0.4639 -0.1860 -0.5885
  344MOL0     C47340   1.325   1.576   7.377 -0.0770 -0.1516 -0.6195
  344MOL0     C47341   1.386   1.677   7.455 -0.0267 -1.0632 -0.2244
  344MOL0     O47342   1.396   1.800   7.397  0.0660  0.1731  0.2948
  344MOL0     C47343   1.463   1.902   7.464 -0.1829 -0.8879  0.7116
  344MOL0     C47344   1.469   2.019   7.366 -0.4674  0.2979  0.4767
  344MOL0     C47345   1.520   2.144   7.436  0.0611 -0.5023  0.4668
  344MOL0     C47346   1.471   2.181   7.577  0.3016  0.6070  0.3065
  344MOL0     C47347   1.534   2.307   7.645  0.0976  0.3592 -0.0276
  344MOL0     C47348   1.674   2.273   7.690  0.8647  0.2934  0.2072
  344MOL0     C47349   1.732   2.369   7.795  0.4313 -0.0832  0.5953
  344MOL0     C47350   1.659   2.380   7.930  0.4411  0.5137 -0.2310
  344MOL0     N47351   1.739   2.455   8.034  0.7427 -0.4244 -1.1459
  344MOL0     C47352   1.861   2.424   8.095 -0.6086 -0.1429 -0.0146
  344MOL0     C47353   1.893   2.521   8.185  0.1483 -0.0296 -0.2486
  344MOL0     C47354   2.019   2.530   8.280 -0.0074  0.0304  0.3303
  344MOL0     C47355   2.111   2.655   8.249 -0.5958  0.4912 -0.8146
  344MOL0     C47356   2.053   2.790   8.305 -0.4333  0.4144 -0.4936
  344MOL0     C47357   2.162   2.897   8.312 -0.9529  0.3922 -0.8612
  344MOL0     O47358   2.106   3.025   8.352 -0.3148 -0.4241 -1.0317
  344MOL0     C47359   2.100   3.050   8.493 -0.3047 -0.7635 -0.2645
  344MOL0     C47360   2.134   2.963   8.597 -0.5568  0.8915 -0.0968
  344MOL0     C47361   2.129   3.009   8.731 -0.2562  0.0455 -0.5408
  344MOL0     C47362   2.157   2.901   8.826  0.6106  0.0158  0.3664
  344MOL0     C47363   2.088   3.139   8.760  0.9129 -0.5944 -0.2883
  344MOL0     C47364   2.100   3.196   8.900  0.2077  0.6812 -0.6080
  344MOL0     O47365   2.189   3.133   8.979  0.1174 -0.8474  0.1337
  344MOL0     C47366   2.234   3.181   9.093 -0.0555  0.4677  0.5457
  344MOL0     C47367   2.279   3.308   9.117 -0.2172 -0.6345 -0.4749
  344MOL0     C47368   2.336   3.349   9.240 -0.6655 -0.8930 -0.1559
  344MOL0     C47369   2.328   3.261   9.349  0.3621 -0.1642 -0.4050
  344MOL0     O47370   2.360   3.304   9.473  0.1784  0.4087  0.2368
  344MOL0     C47371   2.464   3.390   9.496 -0.0533 -0.6507  0.4080
  344MOL0     C47372   2.508   3.383   9.642 -0.6750  0.9906  0.4432
  344MOL0     C47373   2.586   3.498   9.695 -0.1266 -0.9442 -0.0123
  344MOL0     C47374   2.656   3.455   9.829  0.5450 -0.5138  0.5956
  344MOL0     C47375   2.774   3.547   9.868  0.7658  0.7368  0.0282
  344MOL0     C47376   2.893   3.504   9.775 -0.7152 -0.7574 -0.0632
  344MOL0     C47377   3.023   3.566   9.833 -0.2970  0.2076  0.0577
  344MOL0     C47378   3.130   3.531   9.734  0.5555  0.1668  0.2337
  344MOL0    Cl47379   3.285   3.600   9.781  0.6622 -0.3289 -0.4126
  344MOL0     C47380   2.275   3.131   9.333 -0.5304  0.7202 -0.0458
  344MOL0     C47381   2.232   3.090   9.208 -0.6185  0.3247  0.7968
  344MOL0     O47382   2.037   3.302   8.924 -0.0055 -0.2004 -0.3831
  344MOL0     C47383   2.051   3.223   8.654 -0.4912 -0.1076  0.2812
  344MOL0     C47384   2.058   3.180   8.527 -0.7975 -0.6759  0.1620
  344MOL0     N47385   1.778   2.607   8.181 -0.4639 -0.0367 -0.6991
  344MOL0     N47386   1.693   2.571   8.086  0.3778  1.2332 -0.2571
  344MOL0     C47387   1.403   1.658   7.595  0.1858  0.5188 -0.3111
  344MOL0     C47388   1.366   1.535   7.647 -0.1444  0.9312 -1.0550
  344MOL0     C47389   1.182   1.171   7.799 -0.0907  1.0477 -0.4935
  344MOL0     C47390   1.306   1.109   7.830  0.1812  0.3947  1.2017
  344MOL0     C47391   1.322   0.975   7.876  0.6204 -0.1733  0.6712
  344MOL0     C47392   1.202   0.911   7.914  0.8121  0.0470 -0.7061
  344MOL0     O47393   1.205   0.773   7.957  0.9527  0.5825 -0.3107
  344MOL0     C47394   1.323   0.723   8.029  0.9353  0.2884  0.1537
  344MOL0     C47395   1.309   0.571   8.008 -0.3393 -1.2630  0.7497
  344MOL0     C47396   1.171   0.510   8.035  0.1980 -0.4859  0.4660
  344MOL0     C47397   1.092   0.557   8.164  0.2816  0.7285  0.1861
  344MOL0     C47398   0.967   0.482   8.160 -0.5278 -0.2178 -0.1668
  344MOL0     C47399   0.874   0.407   8.169  0.5852 -0.4746 -0.2424
  344MOL0     C47400   1.081   0.969   7.894 -0.3547  0.8583  1.0859
  344MOL0     C47401   1.067   1.086   7.824  0.2156 -0.6865 -0.2837
  344MOL0     C47402   0.920   1.131   7.813 -0.2950 -1.5594 -0.2683
  344MOL0     H47403   1.253   1.369   7.374 -0.2843  0.3018 -0.8693
  344MOL0     H47404   1.304   1.585   7.271 -0.4808  1.6989 -0.4232
  344MOL0     H47405   1.564   1.885   7.503 -0.3376  0.6118  1.8589
  344MOL0     H47406   1.408   1.946   7.548 -0.4977  2.5937 -1.1300
  344MOL0     H47407   1.540   1.993   7.286  3.8675  2.9014  3.0635
  344MOL0     H47408   1.368   2.030   7.326 -0.2662 -0.6651 -0.3395
  344MOL0     H47409   1.626   2.126   7.454  0.3749  0.1964 -0.5749
  344MOL0     H47410   1.510   2.233   7.373 -0.3800  0.2033  1.5125
  344MOL0     H47411   1.363   2.188   7.567 -0.2041 -0.0215  4.0120
  344MOL0     H47412   1.477   2.101   7.651 -2.6001  1.7188  1.9087
  344MOL0     H47413   1.465   2.329   7.727 -2.1134 -1.4479 -1.2957
  344MOL0     H47414   1.542   2.390   7.574 -2.4535 -0.3795 -1.3048
  344MOL0     H47415   1.666   2.171   7.726 -2.0789 -0.4177 -2.0246
  344MOL0     H47416   1.733   2.258   7.599  0.3145 -1.5198  0.1275
  344MOL0     H47417   1.738   2.467   7.747  0.6506 -1.0482 -1.4404
  344MOL0     H47418   1.835   2.336   7.809  0.9877  0.9255 -0.8848
  344MOL0     H47419   1.561   2.423   7.910  1.3803  3.1985  0.4083
  344MOL0     H47420   1.636   2.288   7.984  0.2573 -0.5717 -2.0677
  344MOL0     H47421   1.926   2.339   8.075  0.4916 -0.4115  3.8586
  344MOL0     H47422   2.080   2.440   8.270  1.4594  1.0963 -0.6923
  344MOL0     H47423   1.993   2.535   8.387 -0.3594  0.7015  0.2217
  344MOL0     H47424   2.206   2.627   8.295 -2.1120 -1.4282  1.4574
  344MOL0     H47425   2.119   2.657   8.140 -4.0063 -0.4366 -1.2102
  344MOL0     H47426   1.986   2.819   8.224 -0.0750  0.5198 -0.7530
  344MOL0     H47427   1.986   2.783   8.391 -0.9176 -0.3700 -0.9239
  344MOL0     H47428   2.238   2.857   8.379 -1.1293  2.0073  0.3545
  344MOL0     H47429   2.210   2.906   8.214 -2.9605  3.0829 -1.7034
  344MOL0     H47430   2.172   2.862   8.582  0.6095  1.5163 -1.6306
  344MOL0     H47431   2.259   2.910   8.864 -0.0871  2.3837  1.8952
  344MOL0     H47432   2.138   2.799   8.791  1.0938 -0.4924  1.5419
  344MOL0     H47433   2.099   2.915   8.917  1.9715 -3.4656  1.9226
  344MOL0     H47434   2.283   3.379   9.035  2.7325  0.2475  0.3188
  344MOL0     H47435   2.364   3.453   9.253 -1.2758 -0.9988  2.9313
  344MOL0     H47436   2.550   3.376   9.430 -0.2633  1.4503 -0.3892
  344MOL0     H47437   2.427   3.492   9.479  2.3873  0.5172  1.5128
  344MOL0     H47438   2.423   3.372   9.711 -0.6251 -0.8643  0.2726
  344MOL0     H47439   2.572   3.294   9.636 -2.4563 -0.2652 -1.3329
  344MOL0     H47440   2.527   3.590   9.702  1.2328 -0.0305 -0.1169
  344MOL0     H47441   2.667   3.519   9.625  2.0394 -0.2236  2.5580
  344MOL0     H47442   2.681   3.349   9.817 -1.5525 -0.9448 -0.3812
  344MOL0     H47443   2.586   3.472   9.912  1.3769  4.9683  0.5436
  344MOL0     H47444   2.744   3.649   9.843 -2.6825 -1.1394 -4.9154
  344MOL0     H47445   2.802   3.530   9.973  0.7851  0.1414 -0.0701
  344MOL0     H47446   2.882   3.539   9.672  0.0849 -2.1613 -0.6548
  344MOL0     H47447   2.891   3.395   9.783 -3.4182 -0.6710  4.7069
  344MOL0     H47448   3.044   3.520   9.930  0.1287  3.4292  1.6237
  344MOL0     H47449   3.008   3.674   9.840  1.1301  0.5358 -1.3216
  344MOL0     H47450   3.105   3.571   9.636  1.5790 -0.0315 -0.1207
  344MOL0     H47451   3.145   3.423   9.740  1.7436  0.3888  2.3950
  344MOL0     H47452   2.262   3.062   9.415 -0.5999 -0.5793 -1.1164
  344MOL0     H47453   2.198   2.988   9.192 -0.1883  0.3969 -0.7336
  344MOL0     H47454   2.024   3.327   8.668 -0.4145 -0.2025  1.2342
  344MOL0     H47455   2.033   3.244   8.442 -0.6355 -0.2443  0.4379
  344MOL0     H47456   1.451   1.727   7.664 -1.4870  0.4527  0.9974
  344MOL0     H47457   1.390   1.502   7.747  0.3605 -1.0829 -1.7865
  344MOL0     H47458   1.394   1.173   7.821  1.9939 -2.0759  0.0688
  344MOL0     H47459   1.420   0.929   7.881  1.0474  0.4195 -1.2660
  344MOL0     H47460   1.416   0.761   7.986  0.7928 -1.6498 -2.1255
  344MOL0     H47461   1.321   0.731   8.138  0.3002 -1.5012  0.3082
  344MOL0     H47462   1.395   0.536   8.066  1.0796 -0.5329 -0.8586
  344MOL0     H47463   1.323   0.563   7.900  1.0886  1.7171  0.6214
  344MOL0     H47464   1.105   0.511   7.948 -0.3346 -1.1559  0.8534
  344MOL0     H47465   1.193   0.405   8.060  2.0825  0.0216  1.1137
  344MOL0     H47466   1.073   0.662   8.185 -1.7640 -0.1839  3.7183
  344MOL0     H47467   1.157   0.521   8.244  1.0467  1.5993 -0.0306
  344MOL0     H47468   0.793   0.340   8.150 -1.0025  1.3289 -0.1378
  344MOL0     H47469   0.999   0.906   7.926  0.7663 -0.2582  1.8474
  344MOL0     H47470   0.915   1.241   7.809 -1.0033 -1.4234  2.2406
  344MOL0     H47471   0.895   1.103   7.711  0.5106  2.3923 -1.7404
  344MOL0     H47472   0.848   1.113   7.893 -1.4322  1.4825 -0.4595
  345MOL0     O47473   4.738   7.582   8.768 -0.8175 -0.1331  0.1647
  345MOL0     C47474   4.757   7.688   8.829  0.9800 -0.1631 -0.7088
  345MOL0     O47475   4.871   7.723   8.898 -0.1142 -0.2114 -0.2279
  345MOL0     C47476   4.982   7.648   8.876  0.8573 -0.4984 -0.3766
  345MOL0     C47477   4.986   7.516   8.930 -0.3491  0.2276  0.1132
  345MOL0     C47478   5.101   7.436   8.917  0.3209  0.1365  0.8757
  345MOL0     C47479   5.201   7.471   8.828  0.0484  0.0790 -0.6847
  345MOL0     O47480   5.310   7.385   8.816 -1.2208 -0.2856 -1.0050
  345MOL0     C47481   5.412   7.399   8.709  0.2226 -0.2067 -0.3604
  345MOL0     C47482   5.500   7.278   8.728 -0.3287 -0.3178  0.1902
  345MOL0     C47483   5.623   7.274   8.634  0.7513 -0.8953 -0.1714
  345MOL0     C47484   5.706   7.156   8.671 -0.1439  0.4399  0.1007
  345MOL0     C47485   5.825   7.123   8.581  0.5835 -0.3909  0.2733
  345MOL0     C47486   5.885   6.978   8.592  0.3652  0.0192 -0.3772
  345MOL0     C47487   5.967   6.949   8.465 -0.9430  0.2997  0.9014
  345MOL0     C47488   6.120   7.004   8.448 -0.2509 -0.2647 -0.3689
  345MOL0     N47489   6.233   6.943   8.517  0.1119 -0.4696 -0.6979
  345MOL0     C47490   6.355   6.917   8.453 -0.0098 -0.4298 -0.0557
  345MOL0     C47491   6.437   6.851   8.539  0.6758  0.0540 -1.0661
  345MOL0     C47492   6.581   6.801   8.500 -0.5110  0.3756  0.2845
  345MOL0     C47493   6.685   6.911   8.520 -0.6616 -0.5801 -1.0984
  345MOL0     C47494   6.828   6.845   8.494 -0.8033 -0.3388  0.2247
  345MOL0     C47495   6.949   6.940   8.526 -0.5301  0.4409  1.1964
  345MOL0     O47496   6.973   7.032   8.421 -0.3520  0.0226 -0.1222
  345MOL0     C47497   7.058   7.133   8.434  0.2392  0.1081 -0.8488
  345MOL0     C47498   7.197   7.123   8.427  0.0454  0.1634  0.2549
  345MOL0     C47499   7.281   7.227   8.452 -0.7261 -1.0258  0.0297
  345MOL0     C47500   7.420   7.208   8.432 -1.4613 -0.0667 -0.8287
  345MOL0     C47501   7.226   7.351   8.497 -0.5702 -0.8330  0.4973
  345MOL0     C47502   7.310   7.458   8.567  0.4752 -0.8944  0.7358
  345MOL0     O47503   7.447   7.446   8.585  0.0671 -0.3234 -0.9966
  345MOL0     C47504   7.512   7.533   8.671  1.2807  0.1287 -1.1456
  345MOL0     C47505   7.478   7.533   8.802 -0.2449 -0.2609 -0.7503
  345MOL0     C47506   7.545   7.623   8.883 -0.2928 -0.2841 -1.2810
  345MOL0     C47507   7.655   7.705   8.837  0.2070  0.2829  0.2088
  345MOL0     O47508   7.694   7.792   8.937  0.2186 -0.3890 -0.1697
  345MOL0     C47509   7.814   7.868   8.908  0.0036  0.0954  0.3370
  345MOL0     C47510   7.918   7.828   9.016  0.7050  0.9049  1.0390
  345MOL0     C47511   7.959   7.681   9.004 -0.2933 -0.0565 -0.0335
  345MOL0     C47512   7.998   7.610   9.134  0.1397  0.6968 -0.9485
  345MOL0     C47513   8.045   7.469   9.098  0.0131 -0.4406  0.6081
  345MOL0     C47514   8.091   7.383   9.214 -0.2333 -0.4528  0.0278
  345MOL0     C47515   7.976   7.319   9.284 -0.1311  0.5324 -0.9701
  345MOL0     C47516   8.014   7.189   9.346  0.5339 -0.4589  0.5527
  345MOL0    Cl47517   7.982   7.059   9.236  0.0239  0.2161  0.0335
  345MOL0     C47518   7.689   7.696   8.703  0.2060 -1.0785  0.1177
  345MOL0     C47519   7.619   7.605   8.617 -0.1021  0.2832 -0.0391
  345MOL0     O47520   7.252   7.562   8.582  0.3991 -1.2129  0.7586
  345MOL0     C47521   7.086   7.369   8.497 -0.5910 -0.3455  0.8094
  345MOL0     C47522   7.003   7.263   8.454  0.3012 -0.3597 -0.3272
  345MOL0     N47523   6.365   6.834   8.662  0.3606 -0.4338  0.7218
  345MOL0     N47524   6.246   6.896   8.648 -0.4077 -0.3682 -0.3302
  345MOL0     C47525   5.187   7.591   8.753  0.1206 -0.5230  0.3081
  345MOL0     C47526   5.078   7.682   8.783 -0.3184  0.2606  0.4764
  345MOL0     C47527   4.641   7.783   8.842 -0.3074 -0.8011  0.6561
  345MOL0     C47528   4.522   7.753   8.769  0.1643 -0.2964 -0.8743
  345MOL0     C47529   4.408   7.831   8.781  0.5871  0.5525  0.0055
  345MOL0     C47530   4.407   7.960   8.835  0.0846 -0.0144  0.8190
  345MOL0     O47531   4.294   8.035   8.850 -0.0509  0.3267 -0.0086
  345MOL0     C47532   4.301   8.162   8.789  0.0056  0.1065 -0.3637
  345MOL0     C47533   4.157   8.203   8.777  0.7463 -0.3741 -0.7427
  345MOL0     C47534   4.155   8.347   8.718  1.0703 -0.5747  0.4850
  345MOL0     C47535   4.012   8.390   8.655  0.6392  1.3434 -0.0582
  345MOL0     C47536   4.017   8.506   8.579  0.3117 -0.5797 -0.3363
  345MOL0     C47537   3.993   8.613   8.530 -0.2037 -0.8995  0.5368
  345MOL0     C47538   4.529   7.999   8.895  0.3162  1.0792 -0.4091
  345MOL0     C47539   4.648   7.912   8.901  0.3842 -0.9311 -0.0128
  345MOL0     C47540   4.766   7.962   8.976  0.2995  0.1953 -0.2064
  345MOL0     H47541   4.905   7.472   8.987  0.7419 -1.3863  0.4974
  345MOL0     H47542   5.107   7.341   8.969 -1.1123 -0.9282 -0.7908
  345MOL0     H47543   5.474   7.489   8.720 -1.6303  1.4214 -2.3110
  345MOL0     H47544   5.367   7.399   8.609  0.3505 -1.4332 -0.4300
  345MOL0     H47545   5.546   7.298   8.825  1.1671  1.4215 -0.8120
  345MOL0     H47546   5.431   7.193   8.722 -0.4026 -0.3143  0.9540
  345MOL0     H47547   5.597   7.278   8.528 -0.8213  0.6737  0.2267
  345MOL0     H47548   5.682   7.364   8.652 -0.2296 -0.1320 -0.6851
  345MOL0     H47549   5.740   7.159   8.775 -2.5573  5.2699  1.0657
  345MOL0     H47550   5.636   7.074   8.656 -1.1941  0.9520  1.9084
  345MOL0     H47551   5.904   7.198   8.588 -0.2515  0.4548  0.9066
  345MOL0     H47552   5.781   7.131   8.482  0.3296 -1.0743  0.3239
  345MOL0     H47553   5.951   6.966   8.678 -1.4394 -0.1540  1.0372
  345MOL0     H47554   5.795   6.917   8.603 -0.6161  1.6570  1.0119
  345MOL0     H47555   5.899   6.973   8.382 -0.9965  0.4944  1.0013
  345MOL0     H47556   5.974   6.840   8.459  0.2339  0.4308 -1.5620
  345MOL0     H47557   6.142   7.004   8.340 -2.1112  2.4364 -0.8329
  345MOL0     H47558   6.110   7.111   8.469 -1.8917 -0.9201  2.6424
  345MOL0     H47559   6.385   6.965   8.361 -2.0161 -0.5646 -0.8402
  345MOL0     H47560   6.589   6.777   8.393 -3.5905 -0.9099  0.2548
  345MOL0     H47561   6.606   6.720   8.569 -1.5193  0.5997  0.9277
  345MOL0     H47562   6.670   6.996   8.453 -1.7029 -0.2731 -0.4859
  345MOL0     H47563   6.665   6.936   8.624 -2.2205 -1.4961 -1.1489
  345MOL0     H47564   6.841   6.756   8.557 -0.8983  0.4850  1.4406
  345MOL0     H47565   6.841   6.815   8.389 -2.8949  0.4518 -0.3032
  345MOL0     H47566   6.912   6.986   8.618 -3.0329  1.0175  0.0057
  345MOL0     H47567   7.042   6.888   8.549 -1.7876 -1.1672  2.8849
  345MOL0     H47568   7.229   7.025   8.395 -2.5498 -0.2292 -1.4541
  345MOL0     H47569   7.449   7.126   8.366  0.2441 -2.8712  2.9506
  345MOL0     H47570   7.464   7.185   8.530  0.9528  0.3844 -1.7323
  345MOL0     H47571   7.470   7.298   8.395  2.5556 -0.5860  2.4446
  345MOL0     H47572   7.398   7.468   8.836 -1.5597  0.0585 -3.0901
  345MOL0     H47573   7.530   7.635   8.990  1.6850  1.7098 -1.1622
  345MOL0     H47574   7.858   7.854   8.809  3.0089 -1.4642  1.7516
  345MOL0     H47575   7.789   7.974   8.918 -1.8782 -0.4597  2.4303
  345MOL0     H47576   8.000   7.895   8.993  1.3583 -0.8373 -2.1975
  345MOL0     H47577   7.890   7.846   9.121  3.0346 -0.9095  2.0633
  345MOL0     H47578   8.032   7.664   8.924  0.6159  0.8408  0.5713
  345MOL0     H47579   7.877   7.623   8.961  0.4287 -1.6282  0.6316
  345MOL0     H47580   7.916   7.601   9.206 -0.0739 -2.1177 -1.4370
  345MOL0     H47581   8.083   7.661   9.179  0.9854 -1.9760  0.7135
  345MOL0     H47582   7.963   7.423   9.041 -0.6893  1.5389 -0.0619
  345MOL0     H47583   8.126   7.471   9.025 -2.8587 -0.7117 -2.8816
  345MOL0     H47584   8.157   7.438   9.281 -0.8763 -0.9763  1.1022
  345MOL0     H47585   8.152   7.304   9.168  1.3557  0.0817  1.1243
  345MOL0     H47586   7.889   7.298   9.221  0.9955  0.3747 -2.5563
  345MOL0     H47587   7.949   7.392   9.361  0.2244 -2.6336  2.4341
  345MOL0     H47588   7.945   7.174   9.429 -1.4789 -3.5153 -1.4417
  345MOL0     H47589   8.117   7.191   9.383  0.2286  3.3606  1.6200
  345MOL0     H47590   7.779   7.749   8.671 -2.1383  1.4483 -2.9850
  345MOL0     H47591   7.655   7.595   8.516 -0.4493  1.4522 -0.2873
  345MOL0     H47592   7.038   7.459   8.535 -2.1925  0.2848 -2.3590
  345MOL0     H47593   6.897   7.278   8.472 -0.1527 -0.7334 -2.3872
  345MOL0     H47594   5.246   7.636   8.674 -1.5925  1.8555  0.2607
  345MOL0     H47595   5.078   7.780   8.736  1.3539  2.8955  5.3264
  345MOL0     H47596   4.507   7.670   8.701 -0.9066  0.0367 -1.0739
  345MOL0     H47597   4.321   7.779   8.743  1.8170 -3.1912  1.7888
  345MOL0     H47598   4.357   8.226   8.858  0.9563 -2.3619  1.3045
  345MOL0     H47599   4.347   8.160   8.689 -1.5615 -0.2880 -1.1095
  345MOL0     H47600   4.107   8.197   8.875 -1.7743 -1.8972 -2.0047
  345MOL0     H47601   4.102   8.137   8.710 -1.4418  1.3453 -0.7508
  345MOL0     H47602   4.181   8.424   8.791 -1.5509  0.3754  0.5383
  345MOL0     H47603   4.230   8.342   8.639  0.7624  0.3641  0.1117
  345MOL0     H47604   3.945   8.404   8.740  0.2836 -0.4605 -0.0057
  345MOL0     H47605   3.986   8.304   8.593  0.4391  0.8007  0.7816
  345MOL0     H47606   3.971   8.710   8.489 -1.4292  0.5405  4.1852
  345MOL0     H47607   4.528   8.093   8.950 -5.6283  0.9915  0.3245
  345MOL0     H47608   4.776   7.906   9.070  3.1900 -1.5707 -1.4236
  345MOL0     H47609   4.851   7.952   8.908 -1.1973  2.1366 -2.5287
  345MOL0     H47610   4.756   8.066   9.009 -0.3497  0.1166 -0.1421
  346MOL0     O47611  11.220   7.417  10.215  0.2543 -0.3298 -0.2860
  346MOL0     C47612  11.282   7.308  10.219 -0.4968  0.7090 -0.2433
  346MOL0     O47613  11.387   7.276  10.310 -0.5747 -0.1759 -0.4532
  346MOL0     C47614  11.424   7.372  10.408  0.1192 -0.0999  0.1361
  346MOL0     C47615  11.541   7.341  10.478 -0.6627 -0.1371  0.0518
  346MOL0     C47616  11.592   7.429  10.575 -0.2210  0.7672  0.1053
  346MOL0     C47617  11.524   7.548  10.612  0.0971  0.1296 -0.3995
  346MOL0     O47618  11.569   7.615  10.723  0.6829  0.8204 -0.1996
  346MOL0     C47619  11.602   7.756  10.691 -0.5558  0.3721  0.0357
  346MOL0     C47620  11.647   7.840  10.812  0.4772  0.2617  0.3961
  346MOL0     C47621  11.800   7.819  10.833 -0.6801 -0.4193  0.0181
  346MOL0     C47622  11.882   7.909  10.741 -0.5231 -0.6204 -0.0751
  346MOL0     C47623  12.027   7.866  10.743 -0.2899  0.4697 -0.1911
  346MOL0     C47624  12.134   7.974  10.705 -0.0217 -0.2472  0.6065
  346MOL0     C47625  12.272   7.919  10.719 -0.0672 -0.0552 -0.2308
  346MOL0     C47626  12.388   8.021  10.716  0.5674 -0.3692  0.4940
  346MOL0     N47627  12.393   8.100  10.586 -0.1856  0.3309 -0.2796
  346MOL0     C47628  12.331   8.224  10.576 -0.3885  0.3433 -0.3741
  346MOL0     C47629  12.343   8.250  10.444  0.7377 -0.3746 -0.0055
  346MOL0     C47630  12.275   8.367  10.381 -0.0279 -0.0409  0.0028
  346MOL0     C47631  12.142   8.323  10.326  0.0209  0.2743  0.3958
  346MOL0     C47632  12.035   8.282  10.430  0.2667  0.0066  0.1684
  346MOL0     C47633  11.900   8.256  10.370 -0.6908  0.4391  0.1960
  346MOL0     O47634  11.799   8.240  10.481 -0.1856 -0.4866 -0.3862
  346MOL0     C47635  11.669   8.229  10.440 -0.6151  0.0980 -0.3996
  346MOL0     C47636  11.568   8.221  10.536 -0.9599  0.6650 -0.7711
  346MOL0     C47637  11.431   8.215  10.500 -0.5835  0.2602 -1.1107
  346MOL0     C47638  11.332   8.195  10.617  0.6361  0.2838  0.2101
  346MOL0     C47639  11.395   8.228  10.364  0.1681  0.1333  0.8372
  346MOL0     C47640  11.257   8.224  10.319 -0.4523  0.5824 -0.1520
  346MOL0     O47641  11.229   8.194  10.188 -0.0819  0.3740 -0.2265
  346MOL0     C47642  11.103   8.178  10.129  0.3150 -0.1060  0.6696
  346MOL0     C47643  10.991   8.142  10.199  0.2528  1.0218 -0.6028
  346MOL0     C47644  10.871   8.106  10.132  0.5493  0.0141  0.0142
  346MOL0     C47645  10.863   8.118   9.990 -0.2869  0.1190 -0.1120
  346MOL0     O47646  10.750   8.084   9.921 -0.5612 -0.0316  0.7241
  346MOL0     C47647  10.626   8.122   9.972  0.4499  0.7132  0.2876
  346MOL0     C47648  10.503   8.101   9.872  0.4063 -0.1534 -0.6335
  346MOL0     C47649  10.474   7.952   9.837  0.3989  0.3550  0.4498
  346MOL0     C47650  10.435   7.868   9.953 -0.6150  0.1918  0.0793
  346MOL0     C47651  10.322   7.767   9.927  0.3731 -0.1817  0.0207
  346MOL0     C47652  10.373   7.645   9.856  0.5577  0.5673 -0.7039
  346MOL0     C47653  10.247   7.533   9.834  0.1595 -0.5106 -0.5443
  346MOL0     C47654  10.314   7.396   9.825 -0.3957  0.4127 -0.5149
  346MOL0    Cl47655  10.175   7.269   9.810  0.0220 -0.5499  0.3082
  346MOL0     C47656  10.978   8.170   9.921 -0.1094  0.3531 -0.4896
  346MOL0     C47657  11.104   8.196   9.986  0.5290 -0.1504 -0.7288
  346MOL0     O47658  11.172   8.266  10.403 -0.5605  1.1982 -0.0601
  346MOL0     C47659  11.499   8.238  10.266  0.2494  0.2993  0.5341
  346MOL0     C47660  11.632   8.232  10.306 -0.7731  0.5016 -0.5454
  346MOL0     N47661  12.402   8.142  10.389  0.1305  1.3620 -0.4465
  346MOL0     N47662  12.448   8.052  10.477 -0.0749 -0.0916 -0.1194
  346MOL0     C47663  11.405   7.573  10.545 -0.6316 -0.3641 -0.2652
  346MOL0     C47664  11.361   7.495  10.441 -0.3621 -0.4731 -0.4316
  346MOL0     C47665  11.262   7.204  10.109  0.1725 -0.7200  0.1142
  346MOL0     C47666  11.316   7.080  10.139  0.6651  0.1712  0.5065
  346MOL0     C47667  11.322   6.971  10.047  0.8846  0.7944  0.4894
  346MOL0     C47668  11.272   6.993   9.918  0.5223 -0.7724 -0.0889
  346MOL0     O47669  11.269   6.890   9.828 -0.8034 -0.3679  0.3321
  346MOL0     C47670  11.408   6.873   9.777  0.5440 -0.5125  0.4027
  346MOL0     C47671  11.404   6.757   9.679  0.1811 -0.7491 -0.3186
  346MOL0     C47672  11.536   6.720   9.609  0.2429  0.1844 -0.5634
  346MOL0     C47673  11.526   6.621   9.497  0.5130  0.6360 -0.1995
  346MOL0     C47674  11.435   6.506   9.524 -1.3614 -0.1295  0.0802
  346MOL0     C47675  11.353   6.424   9.558 -0.2933 -0.3251  0.5795
  346MOL0     C47676  11.227   7.122   9.881 -0.0275  0.7484 -0.3064
  346MOL0     C47677  11.219   7.226   9.976 -0.3488 -0.2685  1.3143
  346MOL0     C47678  11.154   7.357   9.934 -0.7535 -0.9899  0.1807
  346MOL0     H47679  11.593   7.247  10.457 -1.2050  0.0633 -2.5331
  346MOL0     H47680  11.688   7.406  10.620 -0.2613  1.2415  0.4410
  346MOL0     H47681  11.518   7.811  10.647  0.5024  0.1987 -2.3498
  346MOL0     H47682  11.675   7.756  10.610 -1.1331  0.0788 -0.4914
  346MOL0     H47683  11.623   7.947  10.802 -0.0831  0.3320  2.1795
  346MOL0     H47684  11.589   7.800  10.896  1.3268  0.4275  1.0686
  346MOL0     H47685  11.830   7.859  10.930  1.9412  1.4892 -1.4408
  346MOL0     H47686  11.838   7.717  10.816 -1.6434 -1.2474  2.3922
  346MOL0     H47687  11.850   7.894  10.638 -1.7626  0.3017  0.1534
  346MOL0     H47688  11.873   8.014  10.768 -0.7623 -0.9134  1.0668
  346MOL0     H47689  12.043   7.784  10.672  3.0910  1.9886 -1.4074
  346MOL0     H47690  12.055   7.821  10.838  1.8147  0.5827 -0.7068
  346MOL0     H47691  12.125   8.004  10.600 -2.3301 -1.3115  0.4440
  346MOL0     H47692  12.118   8.060  10.770  3.2990 -0.2777  1.6438
  346MOL0     H47693  12.285   7.835  10.650 -2.2007 -1.3840  0.8519
  346MOL0     H47694  12.278   7.876  10.820 -2.6136  0.5756  0.2733
  346MOL0     H47695  12.388   8.097  10.795 -0.5673 -0.4198  0.5658
  346MOL0     H47696  12.482   7.965  10.720  0.4250 -0.7267 -0.8882
  346MOL0     H47697  12.290   8.294  10.648 -0.8328 -0.4677  0.1669
  346MOL0     H47698  12.336   8.397  10.295  0.3847  0.7213  0.5464
  346MOL0     H47699  12.269   8.454  10.446 -1.8252  0.9594 -1.4124
  346MOL0     H47700  12.112   8.413  10.271 -0.0629  0.8146  1.2970
  346MOL0     H47701  12.151   8.240  10.255 -0.9466  2.1008 -2.0000
  346MOL0     H47702  12.072   8.193  10.483  0.8957 -0.0409 -0.3367
  346MOL0     H47703  12.026   8.356  10.510 -0.2685  2.3546 -1.9385
  346MOL0     H47704  11.886   8.346  10.310 -1.5894  1.4044  1.7622
  346MOL0     H47705  11.907   8.162  10.315 -1.3027 -1.2419  2.7832
  346MOL0     H47706  11.604   8.212  10.638  1.4532 -0.3443 -1.6379
  346MOL0     H47707  11.277   8.101  10.620  0.2024  0.5218 -0.2945
  346MOL0     H47708  11.267   8.282  10.602 -1.4542 -1.7514 -4.1320
  346MOL0     H47709  11.396   8.203  10.706 -2.6562  1.6782  2.6873
  346MOL0     H47710  10.998   8.135  10.307 -1.2352  2.1130 -0.4115
  346MOL0     H47711  10.804   8.046  10.192  1.3210 -0.9463 -0.0605
  346MOL0     H47712  10.606   8.066  10.064  0.1275  0.8581  0.3061
  346MOL0     H47713  10.647   8.228   9.987 -0.7748  1.0462 -0.2558
  346MOL0     H47714  10.417   8.135   9.931  2.3314 -0.8152  2.7956
  346MOL0     H47715  10.525   8.162   9.784  0.8450  0.2512 -0.2432
  346MOL0     H47716  10.557   7.907   9.782  0.1818 -0.6944  0.9569
  346MOL0     H47717  10.394   7.947   9.762 -0.2575  0.1374  1.1564
  346MOL0     H47718  10.391   7.922  10.038  0.7617  0.7243  0.4721
  346MOL0     H47719  10.524   7.820   9.995  0.6761  1.5311 -1.0655
  346MOL0     H47720  10.289   7.744  10.029 -0.3206  3.2406  0.6902
  346MOL0     H47721  10.234   7.808   9.876  0.0575  1.5392  1.8390
  346MOL0     H47722  10.449   7.595   9.917 -0.3811  0.7822  0.6870
  346MOL0     H47723  10.413   7.659   9.755  2.3757  0.5862 -0.0123
  346MOL0     H47724  10.182   7.563   9.751 -1.3168 -1.4534  0.2448
  346MOL0     H47725  10.170   7.536   9.911  0.2778 -0.9862 -0.4074
  346MOL0     H47726  10.371   7.386   9.918 -1.2295  3.3435  0.4016
  346MOL0     H47727  10.367   7.376   9.731 -3.3253 -3.6836 -1.5799
  346MOL0     H47728  10.962   8.175   9.814  1.0845  0.7708 -0.6618
  346MOL0     H47729  11.190   8.222   9.925  0.6360  0.4767 -0.3204
  346MOL0     H47730  11.468   8.243  10.162  2.7233 -0.9267 -0.3351
  346MOL0     H47731  11.703   8.257  10.227  0.6645 -0.3442  0.4311
  346MOL0     H47732  11.337   7.652  10.577 -0.5568  0.0713 -1.1406
  346MOL0     H47733  11.264   7.517  10.398 -1.1419 -0.8933  1.0447
  346MOL0     H47734  11.329   7.054  10.244 -2.9213  4.0662  2.2304
  346MOL0     H47735  11.349   6.874  10.087  0.0086  0.4382  0.2324
  346MOL0     H47736  11.451   6.964   9.733 -0.4613 -0.8582 -1.4005
  346MOL0     H47737  11.470   6.841   9.861  3.3016  1.2288 -0.8213
  346MOL0     H47738  11.328   6.780   9.604 -0.0984  1.3399  0.5377
  346MOL0     H47739  11.379   6.672   9.744  1.4199 -2.1454 -1.5909
  346MOL0     H47740  11.588   6.807   9.568  1.9970 -0.9805 -0.9239
  346MOL0     H47741  11.597   6.669   9.684  0.5190 -2.9884 -2.7308
  346MOL0     H47742  11.620   6.571   9.473 -1.8472 -2.5259 -4.2583
  346MOL0     H47743  11.496   6.669   9.403  0.9613  1.2933 -0.0103
  346MOL0     H47744  11.279   6.350   9.583  2.8087 -2.8758  3.0870
  346MOL0     H47745  11.191   7.137   9.780  0.5610  2.7206 -0.2666
  346MOL0     H47746  11.155   7.369   9.825  0.0676 -2.5327 -0.0100
  346MOL0     H47747  11.050   7.369   9.965 -1.3480 -2.0014 -1.2769
  346MOL0     H47748  11.218   7.428   9.987 -1.3631 -1.4154  1.5385
  347MOL0     O47749   1.313   2.820  10.797  1.3831 -0.5403 -0.1184
  347MOL0     C47750   1.364   2.926  10.771 -0.3357  0.6076  1.6975
  347MOL0     O47751   1.496   2.938  10.707  0.0217  0.4912  0.1995
  347MOL0     C47752   1.549   2.836  10.641  0.1193  1.2666  0.3390
  347MOL0     C47753   1.586   2.709  10.695 -0.2668  0.0058 -0.6930
  347MOL0     C47754   1.649   2.607  10.620  0.7221  0.2572 -0.6990
  347MOL0     C47755   1.689   2.639  10.491 -0.3606 -0.2426  0.2300
  347MOL0     O47756   1.770   2.556  10.419 -0.2999 -0.0573  0.0482
  347MOL0     C47757   1.825   2.573  10.295  0.8119 -0.6785  0.3045
  347MOL0     C47758   1.729   2.519  10.186 -0.1270  0.0275 -0.5130
  347MOL0     C47759   1.760   2.556  10.043 -0.3989 -0.0617  0.0954
  347MOL0     C47760   1.878   2.477   9.975  0.0024 -0.3330  1.0558
  347MOL0     C47761   1.871   2.500   9.826 -0.2660  0.6951 -0.7294
  347MOL0     C47762   1.999   2.453   9.762 -0.1239  0.2862  0.4488
  347MOL0     C47763   2.018   2.306   9.776 -0.0187 -0.5089  0.6986
  347MOL0     C47764   2.139   2.254   9.694  0.1227  0.3810 -0.1476
  347MOL0     N47765   2.271   2.318   9.740  0.7175 -0.2227  0.1361
  347MOL0     C47766   2.298   2.353   9.871  0.2118  0.9659  0.0164
  347MOL0     C47767   2.414   2.427   9.856 -0.5154 -0.7656 -0.6737
  347MOL0     C47768   2.487   2.489   9.979  0.9704 -0.1608  1.1081
  347MOL0     C47769   2.635   2.470   9.977 -0.0865  0.2556  0.0707
  347MOL0     C47770   2.679   2.324  10.001 -0.2161 -0.3192  0.0381
  347MOL0     C47771   2.823   2.305  10.049 -0.1028  0.0102  0.3077
  347MOL0     O47772   2.825   2.193  10.139 -0.9051 -0.4735 -0.2157
  347MOL0     C47773   2.955   2.142  10.161 -0.8053  0.3457  0.0996
  347MOL0     C47774   3.071   2.169  10.084  0.2127 -0.7906 -0.0565
  347MOL0     C47775   3.201   2.118  10.122  0.2849 -0.3155  0.0995
  347MOL0     C47776   3.308   2.176  10.035 -0.1007  0.3759 -0.0872
  347MOL0     C47777   3.216   2.039  10.237 -0.0954  0.3342  0.4704
  347MOL0     C47778   3.346   1.997  10.285 -0.8601 -0.0015  0.3323
  347MOL0     O47779   3.371   2.016  10.417  0.7602  0.4005  0.4264
  347MOL0     C47780   3.468   1.951  10.478  0.4165 -0.3430 -0.6694
  347MOL0     C47781   3.540   2.022  10.578  0.4286 -0.3745 -0.6317
  347MOL0     C47782   3.656   1.982  10.648  0.3677  1.1834 -0.4516
  347MOL0     C47783   3.706   1.851  10.619 -0.2348  0.2518  0.1820
  347MOL0     O47784   3.809   1.787  10.677 -0.1056 -0.3344 -0.6446
  347MOL0     C47785   3.802   1.797  10.828  0.3017  0.9962  0.0215
  347MOL0     C47786   3.908   1.731  10.912  0.0247  0.9213  0.3272
  347MOL0     C47787   3.911   1.584  10.877  0.1556 -0.8100  0.1438
  347MOL0     C47788   4.010   1.547  10.758 -0.2018 -0.4165 -0.4372
  347MOL0     C47789   4.004   1.396  10.732 -0.5012 -0.7759  1.1342
  347MOL0     C47790   4.122   1.351  10.638 -0.2880 -0.0728  0.1020
  347MOL0     C47791   4.104   1.208  10.597  1.0398 -0.5440 -0.2359
  347MOL0     C47792   4.183   1.174  10.476 -0.2722 -0.2840 -0.5897
  347MOL0    Cl47793   4.176   1.005  10.448 -0.3591 -0.1551  0.1982
  347MOL0     C47794   3.644   1.786  10.514  0.6010  0.0207  0.1568
  347MOL0     C47795   3.532   1.829  10.440  0.3967  0.9778 -1.0444
  347MOL0     O47796   3.431   1.957  10.199 -0.4652 -0.3624 -0.4986
  347MOL0     C47797   3.101   2.017  10.312  0.1742  0.1004 -0.2399
  347MOL0     C47798   2.977   2.064  10.279  0.7614 -0.2863 -0.2085
  347MOL0     N47799   2.446   2.441   9.720  0.2381 -0.6998 -0.2641
  347MOL0     N47800   2.354   2.380   9.652  0.5320  0.4685  0.1091
  347MOL0     C47801   1.647   2.759  10.444  0.2125 -0.4499 -0.0750
  347MOL0     C47802   1.579   2.855  10.514  0.0526 -1.1255  0.0220
  347MOL0     C47803   1.303   3.049  10.826 -0.3196  0.0371  0.1427
  347MOL0     C47804   1.394   3.144  10.892  0.2658 -0.9860 -0.5903
  347MOL0     C47805   1.352   3.251  10.972 -0.2794 -0.0817 -0.2020
  347MOL0     C47806   1.212   3.271  10.981  0.4057  0.4947 -0.4423
  347MOL0     O47807   1.156   3.376  11.045  0.0600  0.3344 -0.7444
  347MOL0     C47808   1.190   3.420  11.178 -0.9172 -0.5417  0.9205
  347MOL0     C47809   1.072   3.471  11.256  0.6594  0.0244 -0.3733
  347MOL0     C47810   1.020   3.597  11.178 -0.4251 -0.0692 -0.5915
  347MOL0     C47811   1.038   3.724  11.270 -0.3082 -0.7242 -0.0251
  347MOL0     C47812   1.172   3.761  11.315  0.9413 -0.3972  0.2881
  347MOL0     C47813   1.278   3.797  11.351 -0.6377 -0.1598 -0.1996
  347MOL0     C47814   1.124   3.185  10.915 -0.3283 -0.2306  0.3478
  347MOL0     C47815   1.160   3.076  10.831 -0.4280  0.3478 -0.1790
  347MOL0     C47816   1.056   2.999  10.758 -0.0716 -0.3811 -0.4935
  347MOL0     H47817   1.550   2.691  10.796 -0.5063  1.4860 -0.4869
  347MOL0     H47818   1.677   2.509  10.656 -2.2199 -0.4519 -0.1537
  347MOL0     H47819   1.920   2.521  10.280  0.3977 -1.3184 -0.1673
  347MOL0     H47820   1.863   2.674  10.279  0.1707 -0.3122  1.0653
  347MOL0     H47821   1.721   2.411  10.196 -4.7495  0.3726  2.2754
  347MOL0     H47822   1.629   2.558  10.208 -0.0450  0.1193 -0.2975
  347MOL0     H47823   1.671   2.552   9.980 -0.8027 -0.2207  0.6639
  347MOL0     H47824   1.782   2.663  10.041 -0.1169 -0.1270 -0.6323
  347MOL0     H47825   1.971   2.512  10.020  1.3060 -2.1514 -0.0744
  347MOL0     H47826   1.858   2.371   9.990 -5.2089 -0.1115 -1.8651
  347MOL0     H47827   1.847   2.606   9.818  1.2584  1.6848  4.0348
  347MOL0     H47828   1.795   2.431   9.787  0.6364 -2.3590  2.4010
  347MOL0     H47829   1.997   2.469   9.654  0.0486 -2.8350 -0.1058
  347MOL0     H47830   2.086   2.499   9.810  1.5050 -2.6470  0.5272
  347MOL0     H47831   1.935   2.246   9.738 -0.0374  0.5084 -1.0045
  347MOL0     H47832   2.043   2.281   9.879  0.7375  1.1479  0.9534
  347MOL0     H47833   2.152   2.146   9.690  0.6568  0.4562 -0.5561
  347MOL0     H47834   2.126   2.279   9.588 -0.5750  0.0067 -0.1549
  347MOL0     H47835   2.251   2.322   9.964  3.6670 -2.8102  0.7630
  347MOL0     H47836   2.441   2.445  10.068 -2.2474  1.1183  0.2211
  347MOL0     H47837   2.462   2.595   9.987 -2.1007 -0.6352 -0.7137
  347MOL0     H47838   2.654   2.497   9.873  3.1370 -1.1748  0.1897
  347MOL0     H47839   2.695   2.541  10.034  0.1105  2.1451 -2.3592
  347MOL0     H47840   2.605   2.291  10.075  1.8293 -0.0275  2.3477
  347MOL0     H47841   2.659   2.274   9.906 -3.0835  1.2390 -0.2779
  347MOL0     H47842   2.877   2.292   9.954 -0.3597 -0.3936  0.2135
  347MOL0     H47843   2.854   2.397  10.099 -1.2674  0.9288 -0.5997
  347MOL0     H47844   3.054   2.231   9.996  1.3645 -0.7656 -0.2761
  347MOL0     H47845   3.291   2.166   9.927  0.4878 -3.1926  0.0483
  347MOL0     H47846   3.408   2.135  10.050  0.3941  0.8619 -1.7686
  347MOL0     H47847   3.314   2.284  10.054  1.9301  0.2140  0.4744
  347MOL0     H47848   3.491   2.117  10.597 -0.5222 -0.9967  0.0530
  347MOL0     H47849   3.700   2.044  10.725 -1.7418 -0.0772  1.9357
  347MOL0     H47850   3.788   1.900  10.861  0.1618  0.9486  0.1148
  347MOL0     H47851   3.708   1.745  10.850 -0.5360  0.0816 -4.7458
  347MOL0     H47852   4.001   1.782  10.886 -1.0861  1.6560 -2.5954
  347MOL0     H47853   3.890   1.745  11.019 -2.1943 -0.7040  0.2451
  347MOL0     H47854   3.811   1.556  10.844 -0.7900  1.5316  0.8652
  347MOL0     H47855   3.940   1.525  10.965  0.8732 -1.2905 -0.3995
  347MOL0     H47856   4.109   1.569  10.800 -0.5272 -3.2312  2.2135
  347MOL0     H47857   3.993   1.608  10.669 -1.2348 -0.1273 -0.0546
  347MOL0     H47858   4.013   1.331  10.821  0.9606 -0.8891  0.9337
  347MOL0     H47859   3.903   1.369  10.701 -1.0303  2.0067  0.2107
  347MOL0     H47860   4.218   1.365  10.688  0.9278  0.7505 -2.3164
  347MOL0     H47861   4.117   1.421  10.554 -1.0494  1.6717  1.5355
  347MOL0     H47862   3.999   1.195  10.570  1.3416 -2.4131 -0.7022
  347MOL0     H47863   4.123   1.138  10.679 -1.6722 -2.3937 -1.0496
  347MOL0     H47864   4.284   1.213  10.491 -0.2817 -0.9633  1.5688
  347MOL0     H47865   4.141   1.220  10.386 -3.3897 -0.8871  0.4346
  347MOL0     H47866   3.670   1.684  10.486 -1.5601 -0.9505  1.4033
  347MOL0     H47867   3.483   1.776  10.359  0.0181  0.2017 -0.3246
  347MOL0     H47868   3.097   1.969  10.409 -2.2590  0.2207 -0.2129
  347MOL0     H47869   2.900   2.063  10.355  0.2091  0.2275 -0.7484
  347MOL0     H47870   1.677   2.783  10.342 -3.5683 -1.0348 -1.4733
  347MOL0     H47871   1.567   2.956  10.475  0.1283 -0.3732  1.8255
  347MOL0     H47872   1.500   3.118  10.882  0.8591 -2.3475  5.2731
  347MOL0     H47873   1.429   3.313  11.017  0.0584  0.9228 -2.0309
  347MOL0     H47874   1.239   3.339  11.233 -2.9682 -1.9327  0.7745
  347MOL0     H47875   1.257   3.506  11.164  2.6488 -3.2175  0.0671
  347MOL0     H47876   1.098   3.497  11.359 -2.6493  1.8450  0.1239
  347MOL0     H47877   0.996   3.393  11.262 -1.1756  1.5655 -2.1416
  347MOL0     H47878   1.075   3.609  11.084  1.5272  0.8370  0.6040
  347MOL0     H47879   0.914   3.582  11.158 -0.4041 -2.9981  0.8705
  347MOL0     H47880   0.973   3.725  11.358  1.7978  1.1836  1.6411
  347MOL0     H47881   1.014   3.813  11.211 -0.7249  1.0338  2.6013
  347MOL0     H47882   1.373   3.834  11.384 -0.3575  0.1139 -1.2673
  347MOL0     H47883   1.016   3.190  10.915 -0.3376 -0.3670 -0.4161
  347MOL0     H47884   1.035   2.908  10.814 -1.3228  0.0593 -0.2109
  347MOL0     H47885   0.964   3.057  10.742  1.1395  1.4999 -0.9857
  347MOL0     H47886   1.085   2.978  10.654 -1.3117  1.8111 -1.3563
  348MOL0     O47887   1.665   0.849  10.382 -0.3540  0.2395 -0.0660
  348MOL0     C47888   1.730   0.760  10.328  0.0803 -0.1773 -0.4263
  348MOL0     O47889   1.802   0.658  10.392  0.8381 -0.7106  0.2285
  348MOL0     C47890   1.780   0.640  10.525  0.8924 -0.0002  0.5519
  348MOL0     C47891   1.682   0.552  10.571  1.0217 -0.2504  0.8333
  348MOL0     C47892   1.660   0.531  10.706  0.1791 -0.0220  0.0101
  348MOL0     C47893   1.730   0.602  10.803  0.2502  0.1752  1.0539
  348MOL0     O47894   1.700   0.583  10.930  0.3523 -0.3277 -1.1259
  348MOL0     C47895   1.800   0.610  11.033 -0.3076 -0.0853 -1.2564
  348MOL0     C47896   1.790   0.508  11.151  0.2798 -0.0463 -0.6793
  348MOL0     C47897   1.687   0.544  11.261  0.5181  0.4578  0.5879
  348MOL0     C47898   1.700   0.460  11.387  0.1793  0.2702 -0.5240
  348MOL0     C47899   1.679   0.302  11.365 -0.7589 -0.0948  0.1551
  348MOL0     C47900   1.583   0.259  11.257  1.7466  0.1098 -0.6171
  348MOL0     C47901   1.551   0.115  11.252 -0.2367 -1.0523  0.1566
  348MOL0     C47902   1.505   0.079  11.100 -0.5840 -0.2444  0.3133
  348MOL0     N47903   1.387   0.144  11.037 -0.2111  0.0998 -0.0969
  348MOL0     C47904   1.394   0.265  10.976  0.4006 -0.5324  0.4161
  348MOL0     C47905   1.261   0.293  10.950 -1.0049 -1.0353  0.4233
  348MOL0     C47906   1.213   0.405  10.867  0.6265  0.0487 -0.1641
  348MOL0     C47907   1.266   0.386  10.723  0.2845  0.3066 -0.5744
  348MOL0     C47908   1.275   0.513  10.650  0.0819 -0.4909  1.1573
  348MOL0     C47909   1.281   0.514  10.495 -0.2152  0.9775  0.3622
  348MOL0     O47910   1.382   0.425  10.461 -0.6560 -0.1519 -0.1843
  348MOL0     C47911   1.412   0.410  10.335 -0.0592 -0.0245 -0.0657
  348MOL0     C47912   1.353   0.477  10.225  0.4799  0.4581 -0.5214
  348MOL0     C47913   1.397   0.435  10.092  0.5628 -0.7312  0.8149
  348MOL0     C47914   1.328   0.513   9.975 -0.4019  0.0150 -0.2148
  348MOL0     C47915   1.511   0.350  10.081 -0.3796  0.2762  0.4412
  348MOL0     C47916   1.551   0.299   9.953  0.4858  1.0520  0.0626
  348MOL0     O47917   1.446   0.242   9.876  0.5242  0.0591  0.6785
  348MOL0     C47918   1.482   0.176   9.756 -0.0968  0.6247 -0.1880
  348MOL0     C47919   1.477   0.035   9.745 -0.2260  0.2596 -0.2933
  348MOL0     C47920   1.531  -0.035   9.636  0.0047 -0.3962  0.3590
  348MOL0     C47921   1.576   0.037   9.523  0.0999  0.6629 -0.4615
  348MOL0     O47922   1.618  -0.032   9.416  1.0037 -0.4500  0.3323
  348MOL0     C47923   1.521  -0.034   9.305 -0.8765 -0.3405 -0.1453
  348MOL0     C47924   1.386  -0.106   9.342  0.1073  0.2896 -1.6619
  348MOL0     C47925   1.420  -0.250   9.390  0.0706 -0.2723 -0.3519
  348MOL0     C47926   1.387  -0.366   9.297  0.1472 -0.3616  0.4082
  348MOL0     C47927   1.404  -0.504   9.365  0.8572  0.2297  0.3702
  348MOL0     C47928   1.352  -0.612   9.255  1.1440 -0.0696 -0.9705
  348MOL0     C47929   1.366  -0.755   9.313 -0.7403 -0.3303 -0.8315
  348MOL0     C47930   1.484  -0.828   9.277 -1.0547  0.4310 -0.1012
  348MOL0    Cl47931   1.639  -0.740   9.275  0.3882  0.2457  0.3515
  348MOL0     C47932   1.573   0.176   9.529  1.0043 -0.1800  0.2685
  348MOL0     C47933   1.519   0.248   9.641  1.6821 -0.3671  0.1060
  348MOL0     O47934   1.673   0.300   9.933 -0.0456  0.4442 -0.2658
  348MOL0     C47935   1.574   0.296  10.192  0.1684 -1.0499  0.0154
  348MOL0     C47936   1.519   0.315  10.318  0.5234 -0.5045  1.2744
  348MOL0     N47937   1.176   0.199  10.998 -0.5297  0.3589 -0.0487
  348MOL0     N47938   1.255   0.111  11.056  0.0338  0.9021  0.1510
  348MOL0     C47939   1.834   0.678  10.755 -0.2044 -0.0732  0.6922
  348MOL0     C47940   1.868   0.698  10.619  0.1479  0.0280  0.2724
  348MOL0     C47941   1.737   0.764  10.175  0.1630  0.0773 -0.7391
  348MOL0     C47942   1.766   0.640  10.110 -0.2004  0.2002 -0.1471
  348MOL0     C47943   1.781   0.627   9.972 -0.5183 -1.0813 -0.4960
  348MOL0     C47944   1.753   0.748   9.902  0.0354  0.7367  0.5165
  348MOL0     O47945   1.773   0.750   9.766 -0.2146  0.3802 -0.8861
  348MOL0     C47946   1.709   0.647   9.686  0.5977  0.3986 -0.1809
  348MOL0     C47947   1.797   0.529   9.662 -0.3184 -0.2123  0.0881
  348MOL0     C47948   1.795   0.489   9.512 -0.4129  0.9777 -0.3091
  348MOL0     C47949   1.868   0.581   9.420 -0.4028  0.2147  0.5508
  348MOL0     C47950   1.873   0.532   9.278 -0.1314  0.0319 -0.1489
  348MOL0     C47951   1.866   0.491   9.165 -0.1319  0.1973  0.4965
  348MOL0     C47952   1.721   0.870   9.961  0.6222 -1.1171  0.3569
  348MOL0     C47953   1.715   0.881  10.099  0.3440 -0.2287  0.3673
  348MOL0     C47954   1.674   1.015  10.139  0.6859 -0.1909  0.1302
  348MOL0     H47955   1.618   0.505  10.497 -0.2601 -1.4176  2.5872
  348MOL0     H47956   1.587   0.462  10.746 -0.5140  0.8708  0.3110
  348MOL0     H47957   1.791   0.712  11.070 -0.9129 -0.6041  0.0907
  348MOL0     H47958   1.900   0.596  10.991  0.1081 -2.4766  0.3056
  348MOL0     H47959   1.769   0.408  11.113  1.4903 -1.6425  2.5534
  348MOL0     H47960   1.889   0.504  11.198 -0.8784 -0.6602  1.8547
  348MOL0     H47961   1.693   0.651  11.282 -1.5286  0.6695  0.3294
  348MOL0     H47962   1.589   0.531  11.214  1.0892  1.2810 -0.9014
  348MOL0     H47963   1.797   0.490  11.428  0.1359 -1.2321  0.7582
  348MOL0     H47964   1.618   0.492  11.452 -1.2803 -1.7778 -1.2733
  348MOL0     H47965   1.633   0.255  11.453 -2.3467 -0.7967 -0.9950
  348MOL0     H47966   1.771   0.251  11.338 -1.7422 -1.4396 -0.8218
  348MOL0     H47967   1.491   0.312  11.286  2.5593  2.7747 -2.4681
  348MOL0     H47968   1.607   0.292  11.155  0.1796 -4.4772 -2.7306
  348MOL0     H47969   1.483   0.096  11.335 -1.5256  3.3133  0.3635
  348MOL0     H47970   1.639   0.057  11.280  0.1376 -0.4408  0.2721
  348MOL0     H47971   1.594   0.094  11.038  0.4318  3.2991  2.3057
  348MOL0     H47972   1.489  -0.029  11.102  0.7627 -0.5527 -2.0547
  348MOL0     H47973   1.476   0.331  10.953 -0.7425  1.7699  2.5004
  348MOL0     H47974   1.253   0.498  10.908  2.9466 -0.9332 -0.1017
  348MOL0     H47975   1.103   0.401  10.862  0.7098 -2.8434 -2.0815
  348MOL0     H47976   1.361   0.332  10.719  0.0409 -0.0463 -2.2407
  348MOL0     H47977   1.193   0.314  10.687 -2.3802  1.2978  2.3522
  348MOL0     H47978   1.182   0.564  10.674 -1.2329 -3.3359  2.6375
  348MOL0     H47979   1.363   0.567  10.687  0.2872  1.1150 -1.4580
  348MOL0     H47980   1.191   0.475  10.447  0.8834 -1.1940 -0.0255
  348MOL0     H47981   1.298   0.615  10.455 -1.9118  0.5488 -1.6264
  348MOL0     H47982   1.277   0.555  10.235  2.9556  2.7623  1.9831
  348MOL0     H47983   1.317   0.462   9.879  0.5135  1.9302 -1.3981
  348MOL0     H47984   1.393   0.597   9.949  3.1156 -2.0798  1.1041
  348MOL0     H47985   1.226   0.538  10.007 -0.3348  1.0566 -0.7791
  348MOL0     H47986   1.422  -0.010   9.827 -1.1159  2.3403  0.3198
  348MOL0     H47987   1.522  -0.143   9.626 -0.9487 -0.3610  0.6785
  348MOL0     H47988   1.502   0.070   9.278 -1.7000 -0.2455  0.7242
  348MOL0     H47989   1.577  -0.089   9.229 -0.4798  0.3697 -0.3711
  348MOL0     H47990   1.333  -0.056   9.423  1.3278 -0.3775 -0.3860
  348MOL0     H47991   1.329  -0.111   9.249 -1.1339 -0.5780 -0.8813
  348MOL0     H47992   1.367  -0.270   9.484  0.2828  0.8192  0.0110
  348MOL0     H47993   1.525  -0.254   9.423 -0.4737 -0.4681  1.5163
  348MOL0     H47994   1.453  -0.357   9.210 -0.3629  2.9462  0.2111
  348MOL0     H47995   1.283  -0.351   9.268  0.3917  1.1487  0.2009
  348MOL0     H47996   1.512  -0.518   9.381  0.8090 -0.5702  0.0588
  348MOL0     H47997   1.344  -0.497   9.455 -1.0349 -0.8461 -0.7523
  348MOL0     H47998   1.421  -0.613   9.169  2.7192 -1.0869  0.2477
  348MOL0     H47999   1.258  -0.575   9.213  1.0520  1.0503  0.1390
  348MOL0     H48000   1.275  -0.803   9.274 -2.6860 -0.2508  3.1121
  348MOL0     H48001   1.356  -0.759   9.422  1.5061 -0.2281 -0.5675
  348MOL0     H48002   1.469  -0.882   9.183  1.5510  0.8826 -0.8589
  348MOL0     H48003   1.509  -0.903   9.352  0.7401  0.9722 -0.1285
  348MOL0     H48004   1.608   0.250   9.458 -1.9091  2.4141  1.3171
  348MOL0     H48005   1.523   0.356   9.648 -3.2098 -0.0143  1.0807
  348MOL0     H48006   1.654   0.226  10.173  0.7717 -0.0885 -1.0687
  348MOL0     H48007   1.552   0.271  10.411 -2.8920 -3.7404  1.1819
  348MOL0     H48008   1.901   0.730  10.823  1.7857 -2.4108  0.6490
  348MOL0     H48009   1.946   0.766  10.586 -0.3477  0.6682  0.4059
  348MOL0     H48010   1.773   0.551  10.171  0.5496 -0.8525 -1.7091
  348MOL0     H48011   1.822   0.538   9.924 -0.7805 -1.7051  0.4014
  348MOL0     H48012   1.621   0.601   9.732 -0.3938 -0.4855 -2.7758
  348MOL0     H48013   1.679   0.693   9.591  2.0077  1.0190 -0.3461
  348MOL0     H48014   1.774   0.450   9.734 -0.7285  2.2584  2.8497
  348MOL0     H48015   1.898   0.551   9.701 -0.1806 -1.0649  0.2232
  348MOL0     H48016   1.835   0.388   9.502 -3.1967 -0.2381 -0.3283
  348MOL0     H48017   1.691   0.493   9.478 -0.2983  3.3930 -0.5574
  348MOL0     H48018   1.971   0.595   9.452 -1.0178  4.4886  1.2696
  348MOL0     H48019   1.828   0.683   9.426  3.5487  1.8821  1.5446
  348MOL0     H48020   1.827   0.451   9.074 -2.1111 -1.6414  2.0355
  348MOL0     H48021   1.711   0.952   9.891  2.2767  0.3890  1.8130
  348MOL0     H48022   1.566   1.035  10.130  1.0595  1.6549 -0.5892
  348MOL0     H48023   1.709   1.032  10.241  1.6884 -1.0905 -0.0491
  348MOL0     H48024   1.720   1.091  10.076 -0.6364 -1.2470 -2.2649
  349MOL0     O48025   7.323   8.308   6.582 -0.0391 -0.0172  0.9013
  349MOL0     C48026   7.276   8.233   6.487 -0.1906 -0.0706  0.0207
  349MOL0     O48027   7.343   8.207   6.367 -0.0097 -0.5684  0.0423
  349MOL0     C48028   7.454   8.280   6.339  0.3059 -0.3146  0.7500
  349MOL0     C48029   7.572   8.268   6.404 -0.1337  0.2343 -0.2837
  349MOL0     C48030   7.680   8.358   6.372 -1.0046  0.4805  0.4621
  349MOL0     C48031   7.674   8.455   6.262  0.0397  0.6720 -1.8100
  349MOL0     O48032   7.787   8.535   6.240 -0.3941  0.0802 -0.0456
  349MOL0     C48033   7.780   8.636   6.137 -1.0767  0.2734  0.5175
  349MOL0     C48034   7.919   8.700   6.099 -0.0136  0.2398 -0.9458
  349MOL0     C48035   8.010   8.601   6.033  0.6581  0.0120 -0.3714
  349MOL0     C48036   8.072   8.506   6.140  0.6266 -0.2753 -1.0378
  349MOL0     C48037   8.200   8.441   6.098  0.0441 -0.1012  0.0365
  349MOL0     C48038   8.333   8.528   6.131  1.0776  0.8964 -0.7962
  349MOL0     C48039   8.354   8.656   6.041 -0.1941  0.1906  0.6200
  349MOL0     C48040   8.301   8.779   6.118 -0.7567  0.1230  0.0710
  349MOL0     N48041   8.287   8.893   6.026  0.1215 -0.0622 -0.1995
  349MOL0     C48042   8.399   8.971   5.997 -0.6197  0.0941 -0.2045
  349MOL0     C48043   8.346   9.039   5.886 -0.4628 -0.2693  0.4156
  349MOL0     C48044   8.424   9.153   5.804 -0.2227  0.6264  0.3921
  349MOL0     C48045   8.561   9.195   5.872  0.2306 -0.2105  0.6167
  349MOL0     C48046   8.607   9.322   5.788 -0.9699  0.3032 -0.9567
  349MOL0     C48047   8.710   9.403   5.862 -0.1184  0.3363  1.0396
  349MOL0     O48048   8.649   9.461   5.982 -0.1664 -0.3117  0.1207
  349MOL0     C48049   8.710   9.570   6.049  0.6511  0.4852  0.9262
  349MOL0     C48050   8.830   9.637   6.008 -0.6889 -0.0252  0.1123
  349MOL0     C48051   8.875   9.756   6.060  0.3177  0.2670 -0.1317
  349MOL0     C48052   8.976   9.829   5.966 -0.5305 -0.1454  0.0722
  349MOL0     C48053   8.804   9.810   6.172 -0.3916  0.1825  0.5830
  349MOL0     C48054   8.833   9.933   6.241 -0.8021 -0.3869 -0.2142
  349MOL0     O48055   8.959   9.995   6.222 -0.1527 -0.4242  0.0148
  349MOL0     C48056   9.008  10.083   6.313 -0.2867 -1.0964  0.9420
  349MOL0     C48057   8.968  10.095   6.448  0.6760  0.7791  0.3428
  349MOL0     C48058   9.024  10.182   6.540 -0.0123 -1.1457  0.1829
  349MOL0     C48059   9.127  10.268   6.492  0.5570  0.0514  0.8534
  349MOL0     O48060   9.200  10.363   6.570 -0.5659 -0.0426  0.2678
  349MOL0     C48061   9.135  10.423   6.680  0.0428 -0.4435 -0.3129
  349MOL0     C48062   9.215  10.536   6.732  0.1934  0.2220  0.2921
  349MOL0     C48063   9.306  10.474   6.835  0.2621 -1.1287 -0.3781
  349MOL0     C48064   9.401  10.576   6.904 -0.2245  0.1061  0.1061
  349MOL0     C48065   9.451  10.532   7.037  0.5023 -0.7891 -0.5202
  349MOL0     C48066   9.548  10.635   7.087 -0.5621  1.0567  0.6587
  349MOL0     C48067   9.634  10.605   7.211 -0.3023  0.3299  0.4659
  349MOL0     C48068   9.744  10.709   7.245  0.3862 -0.1332  0.6562
  349MOL0    Cl48069   9.796  10.664   7.409  0.3183 -0.7368  0.3300
  349MOL0     C48070   9.182  10.255   6.366  0.3015  0.0406  0.4171
  349MOL0     C48071   9.123  10.159   6.283 -1.1347 -0.4035  0.5368
  349MOL0     O48072   8.740   9.975   6.311 -0.4174 -0.3803  0.3743
  349MOL0     C48073   8.686   9.742   6.222  0.1425  1.3864 -0.1801
  349MOL0     C48074   8.641   9.629   6.153  0.3012  0.6609 -0.1751
  349MOL0     N48075   8.223   8.997   5.858 -0.0191  0.8910 -0.8221
  349MOL0     N48076   8.188   8.900   5.933  1.3326  0.0217  0.1075
  349MOL0     C48077   7.553   8.442   6.190 -0.2249 -0.4925 -1.3176
  349MOL0     C48078   7.440   8.369   6.233  0.6566 -0.4406  0.0528
  349MOL0     C48079   7.144   8.174   6.516  0.4912  1.4341 -0.4278
  349MOL0     C48080   7.049   8.234   6.598 -0.8656  0.7783 -0.3626
  349MOL0     C48081   6.928   8.168   6.632  0.6640  0.3086 -0.5843
  349MOL0     C48082   6.904   8.035   6.586  0.4522  0.0893  0.0324
  349MOL0     O48083   6.789   7.960   6.615 -1.2516 -1.0750 -0.1077
  349MOL0     C48084   6.662   8.020   6.646  0.7053 -0.8292 -0.3468
  349MOL0     C48085   6.550   7.909   6.666 -0.2016  0.9337  0.1325
  349MOL0     C48086   6.418   7.962   6.722 -0.1684 -0.8458  0.1468
  349MOL0     C48087   6.372   8.096   6.657  0.3246  0.5655  0.3845
  349MOL0     C48088   6.325   8.076   6.521  0.9654  0.2857 -0.5853
  349MOL0     C48089   6.298   8.061   6.404  0.4494 -0.7836  0.3795
  349MOL0     C48090   7.004   7.976   6.509  0.9981  0.8524  0.5730
  349MOL0     C48091   7.123   8.038   6.481  0.4795  0.1972 -0.0133
  349MOL0     C48092   7.228   7.942   6.429  0.0181  0.1412 -0.7364
  349MOL0     H48093   7.586   8.199   6.487 -0.7618  1.5532  0.9603
  349MOL0     H48094   7.774   8.326   6.415 -1.4702 -5.8869 -2.2295
  349MOL0     H48095   7.720   8.723   6.165 -0.2788  1.2840 -0.7910
  349MOL0     H48096   7.731   8.589   6.051 -1.6575  1.1667  0.3544
  349MOL0     H48097   7.899   8.778   6.025  0.0274  2.0027  0.8234
  349MOL0     H48098   7.964   8.750   6.185  0.9137  0.2413 -1.4109
  349MOL0     H48099   7.955   8.528   5.974 -2.4655  0.0238  2.2624
  349MOL0     H48100   8.079   8.655   5.967 -0.7218  0.4243 -1.5050
  349MOL0     H48101   8.090   8.561   6.232 -2.4676  1.6601 -1.4547
  349MOL0     H48102   7.995   8.429   6.154 -0.9359  1.1053 -1.8369
  349MOL0     H48103   8.191   8.401   5.997 -1.6080 -0.6613  0.3738
  349MOL0     H48104   8.212   8.356   6.165  2.1555  1.2474  1.5171
  349MOL0     H48105   8.329   8.561   6.235  1.2529  2.7305 -1.3373
  349MOL0     H48106   8.418   8.460   6.134 -1.2368 -2.2352  0.2803
  349MOL0     H48107   8.304   8.646   5.944 -0.1830  0.6845  0.5578
  349MOL0     H48108   8.462   8.666   6.030 -0.3798  1.7637 -0.1020
  349MOL0     H48109   8.212   8.754   6.177 -1.0711 -1.3739 -0.9644
  349MOL0     H48110   8.380   8.811   6.186 -0.0155 -0.6930 -0.3861
  349MOL0     H48111   8.497   8.977   6.044 -0.6134  1.1733 -0.3182
  349MOL0     H48112   8.351   9.234   5.793  0.0070  0.7974  0.0949
  349MOL0     H48113   8.450   9.110   5.706  1.5222 -0.8989  1.4678
  349MOL0     H48114   8.549   9.209   5.979 -0.7444 -1.0057  0.6224
  349MOL0     H48115   8.628   9.109   5.861  0.1165 -0.1591 -0.7266
  349MOL0     H48116   8.628   9.304   5.682  1.1190 -1.4873 -0.2868
  349MOL0     H48117   8.513   9.379   5.789 -2.9406 -2.6823 -1.1536
  349MOL0     H48118   8.799   9.340   5.878 -0.0360 -0.4738 -1.9313
  349MOL0     H48119   8.743   9.483   5.795 -1.6143  0.5599  0.5492
  349MOL0     H48120   8.890   9.591   5.930 -0.7462  3.3044 -2.1351
  349MOL0     H48121   8.976   9.786   5.866 -4.9255 -0.4710 -0.0060
  349MOL0     H48122   9.077   9.818   6.006 -1.2929 -0.8166  1.9845
  349MOL0     H48123   8.955   9.936   5.956 -0.7571 -0.0954  0.9733
  349MOL0     H48124   8.881  10.037   6.477 -0.2844  1.0089 -1.8789
  349MOL0     H48125   8.996  10.193   6.644  0.2020 -4.4124  0.6914
  349MOL0     H48126   9.040  10.468   6.649  1.1615  0.3443 -2.8864
  349MOL0     H48127   9.107  10.347   6.754 -2.9074  0.0676 -0.7484
  349MOL0     H48128   9.278  10.575   6.651 -0.2482 -1.9777 -1.2310
  349MOL0     H48129   9.153  10.619   6.765  0.8925  0.9222 -0.1322
  349MOL0     H48130   9.369  10.405   6.777  1.2531  0.6068 -1.4526
  349MOL0     H48131   9.244  10.422   6.909 -0.8948  0.5961 -0.0771
  349MOL0     H48132   9.348  10.671   6.911 -1.5656 -0.7319  2.4402
  349MOL0     H48133   9.492  10.585   6.843 -0.6516  1.7835 -0.3423
  349MOL0     H48134   9.366  10.533   7.106  1.0252  1.7913  0.1929
  349MOL0     H48135   9.493  10.431   7.033 -1.2109 -1.6207  0.9286
  349MOL0     H48136   9.481  10.715   7.121 -0.0747  1.0322  1.7354
  349MOL0     H48137   9.615  10.668   7.007  0.2569  1.2291  1.4037
  349MOL0     H48138   9.674  10.503   7.207 -1.4811 -0.1347  0.2880
  349MOL0     H48139   9.572  10.595   7.301  1.1299 -6.1334  1.2316
  349MOL0     H48140   9.720  10.815   7.248 -0.1262 -0.2255  0.0355
  349MOL0     H48141   9.830  10.696   7.178  1.2998 -0.5172  1.8663
  349MOL0     H48142   9.276  10.306   6.347  0.7011  0.6266  3.5071
  349MOL0     H48143   9.178  10.140   6.192 -1.7267 -2.5296  0.5784
  349MOL0     H48144   8.633   9.769   6.313 -0.6612 -1.7102  0.3674
  349MOL0     H48145   8.546   9.585   6.182  0.5179  0.6825  0.5888
  349MOL0     H48146   7.532   8.517   6.115 -0.4797  0.4700 -0.3142
  349MOL0     H48147   7.342   8.363   6.187 -0.5717  1.0795  2.2739
  349MOL0     H48148   7.059   8.340   6.621  1.8570  0.2141  1.4547
  349MOL0     H48149   6.854   8.209   6.698 -1.5996 -4.8503  0.5799
  349MOL0     H48150   6.665   8.057   6.749 -4.7987 -4.7246  1.7167
  349MOL0     H48151   6.634   8.104   6.582 -1.3496 -1.2013 -0.0100
  349MOL0     H48152   6.599   7.828   6.721  3.3321  1.8265 -1.4234
  349MOL0     H48153   6.527   7.879   6.564  5.1143  0.3162 -1.1434
  349MOL0     H48154   6.342   7.883   6.725 -1.4858  0.3605 -0.4019
  349MOL0     H48155   6.426   7.998   6.825 -1.9775 -1.2728  0.4594
  349MOL0     H48156   6.440   8.180   6.677 -2.6750  2.8160  1.9215
  349MOL0     H48157   6.280   8.131   6.705 -0.4633  0.5590 -1.0638
  349MOL0     H48158   6.276   8.034   6.302 -0.2232 -0.5366  0.4536
  349MOL0     H48159   6.988   7.879   6.463  1.3320  1.2166 -0.3481
  349MOL0     H48160   7.252   7.963   6.325  3.3724 -0.5931 -0.2167
  349MOL0     H48161   7.320   7.941   6.487 -0.5191  0.3727  0.1486
  349MOL0     H48162   7.185   7.842   6.448  3.6709 -0.9698  3.2299
  350MOL0     O48163   8.914  10.463  10.233  0.0010  0.6717  0.6489
  350MOL0     C48164   8.972  10.522  10.138  0.7103 -0.0435  0.9585
  350MOL0     O48165   9.105  10.515  10.100  0.3432 -0.1795  1.0607
  350MOL0     C48166   9.195  10.474  10.195  0.3080  0.2685  0.2961
  350MOL0     C48167   9.309  10.399  10.152 -1.0287  0.9870 -0.0172
  350MOL0     C48168   9.407  10.346  10.237  0.0679 -0.4748  0.7534
  350MOL0     C48169   9.386  10.360  10.374 -0.3089  0.2039  0.4148
  350MOL0     O48170   9.480  10.309  10.468 -0.1214 -0.5738 -0.4629
  350MOL0     C48171   9.616  10.281  10.416 -0.0834  0.3990  0.4379
  350MOL0     C48172   9.712  10.295  10.529  0.6368 -0.4852 -0.1836
  350MOL0     C48173   9.684  10.425  10.613 -0.0766  0.4238  0.5091
  350MOL0     C48174   9.592  10.412  10.738  0.3377  0.8439 -0.6442
  350MOL0     C48175   9.595  10.532  10.842 -0.2076  0.4198 -0.0914
  350MOL0     C48176   9.700  10.512  10.950  0.1491 -0.0748 -0.3994
  350MOL0     C48177   9.686  10.625  11.053  0.2989  0.2728  0.4277
  350MOL0     C48178   9.757  10.611  11.190 -0.4248 -1.0121  0.1711
  350MOL0     N48179   9.689  10.514  11.279  0.1320  0.6501 -0.4341
  350MOL0     C48180   9.562  10.521  11.333  0.2150  0.4933 -0.2880
  350MOL0     C48181   9.560  10.419  11.426  0.5033 -0.2238  0.3492
  350MOL0     C48182   9.441  10.362  11.496  0.5116 -0.6369 -0.0053
  350MOL0     C48183   9.466  10.251  11.597 -0.2279 -0.1462 -0.9957
  350MOL0     C48184   9.353  10.219  11.707  0.5366 -0.4566 -0.7263
  350MOL0     C48185   9.309  10.341  11.786  0.4333 -0.0925  0.7919
  350MOL0     O48186   9.421  10.424  11.833  0.1464  0.7933  0.5016
  350MOL0     C48187   9.488  10.388  11.951  0.2360 -0.3638  0.4478
  350MOL0     C48188   9.618  10.434  11.971  0.3341  0.0680  0.2071
  350MOL0     C48189   9.698  10.387  12.073  0.3326  0.4383  0.1941
  350MOL0     C48190   9.840  10.448  12.095  0.3019  0.2639 -0.0205
  350MOL0     C48191   9.648  10.297  12.174 -1.2034  0.0686  0.4732
  350MOL0     C48192   9.721  10.251  12.294 -0.3887 -0.2514  0.2001
  350MOL0     O48193   9.649  10.264  12.407  0.0274 -0.3330  0.1732
  350MOL0     C48194   9.701  10.222  12.527 -0.0266  0.0770 -0.3076
  350MOL0     C48195   9.775  10.101  12.540  0.2852 -0.2238 -0.0051
  350MOL0     C48196   9.806  10.047  12.662  0.1898  0.3143 -0.1731
  350MOL0     C48197   9.787  10.124  12.777 -0.1367  0.4687  0.3810
  350MOL0     O48198   9.830  10.086  12.906  0.4935 -0.0020 -0.4045
  350MOL0     C48199   9.853   9.945  12.942  0.5069 -0.3034 -0.5333
  350MOL0     C48200   9.729   9.859  12.929 -0.0263 -0.1337 -0.0678
  350MOL0     C48201   9.732   9.744  13.021  0.3284 -0.0651  0.0665
  350MOL0     C48202   9.706   9.774  13.165  0.0194 -0.0861  0.0051
  350MOL0     C48203   9.740   9.658  13.266 -0.0224 -0.7710 -0.9080
  350MOL0     C48204   9.673   9.688  13.401  0.3209  0.1879 -0.3001
  350MOL0     C48205   9.702   9.580  13.509 -0.0046 -0.7948 -0.2546
  350MOL0     C48206   9.669   9.642  13.649 -0.7335  0.1179  0.3115
  350MOL0    Cl48207   9.495   9.690  13.640 -0.1657 -0.1557  0.3750
  350MOL0     C48208   9.708  10.241  12.769  0.3574 -0.1722  0.1045
  350MOL0     C48209   9.659  10.287  12.648  0.1269  1.0258  0.7369
  350MOL0     O48210   9.830  10.190  12.275  0.4097 -0.8773 -0.1918
  350MOL0     C48211   9.510  10.254  12.157 -0.0723 -0.2943  0.0577
  350MOL0     C48212   9.443  10.304  12.045  0.7861 -0.0916 -0.6771
  350MOL0     N48213   9.683  10.364  11.436  1.3328  0.2805  1.3878
  350MOL0     N48214   9.757  10.411  11.339  0.4517  0.5583 -0.3177
  350MOL0     C48215   9.270  10.422  10.420 -0.4728 -1.0230  0.0477
  350MOL0     C48216   9.183  10.480  10.334 -0.1043 -0.4195  0.1548
  350MOL0     C48217   8.876  10.586  10.039 -1.0296  0.1789 -0.7504
  350MOL0     C48218   8.920  10.576   9.903  0.2152  0.2979  0.5864
  350MOL0     C48219   8.834  10.612   9.798  0.3900  0.0974  0.3731
  350MOL0     C48220   8.713  10.665   9.833  0.5761 -0.6908 -0.0397
  350MOL0     O48221   8.636  10.691   9.730 -0.2485  0.9709 -0.1522
  350MOL0     C48222   8.654  10.832   9.692 -0.6488  0.9130 -0.6115
  350MOL0     C48223   8.564  10.930   9.774 -0.0401  0.2746 -0.4262
  350MOL0     C48224   8.406  10.883   9.778  0.1614  0.0524  0.4708
  350MOL0     C48225   8.340  10.885   9.637  0.6402 -0.3232  1.0456
  350MOL0     C48226   8.197  10.854   9.643 -0.1588 -0.4663 -0.5865
  350MOL0     C48227   8.076  10.831   9.653  1.0207  0.4623 -1.0281
  350MOL0     C48228   8.669  10.681   9.969  0.8216  1.3981  0.5965
  350MOL0     C48229   8.751  10.645  10.069  0.3835 -0.8661  0.3232
  350MOL0     C48230   8.704  10.683  10.207 -0.7089  0.1264 -0.1387
  350MOL0     H48231   9.337  10.393  10.048  1.9583  0.9964  0.7130
  350MOL0     H48232   9.503  10.310  10.203 -0.2395  1.2070 -2.2221
  350MOL0     H48233   9.644  10.345  10.331 -1.3725 -0.8434 -0.9604
  350MOL0     H48234   9.618  10.175  10.389 -1.1255  0.3606  0.4780
  350MOL0     H48235   9.694  10.203  10.586 -0.0252 -1.0953 -1.3462
  350MOL0     H48236   9.815  10.282  10.495  0.8940 -0.2624  0.4962
  350MOL0     H48237   9.783  10.449  10.653 -0.6681  0.1779  2.1945
  350MOL0     H48238   9.665  10.501  10.536  0.5194 -2.0894 -2.3037
  350MOL0     H48239   9.491  10.412  10.697  0.0309 -1.4579 -0.0001
  350MOL0     H48240   9.615  10.315  10.782 -0.1782  2.1425  2.8461
  350MOL0     H48241   9.500  10.533  10.896  0.5200 -0.8027  1.2705
  350MOL0     H48242   9.621  10.617  10.779  1.6657 -0.0768 -0.0416
  350MOL0     H48243   9.676  10.415  10.993 -4.6334 -0.0915 -2.4496
  350MOL0     H48244   9.795  10.509  10.895 -1.1187  2.4411 -3.0058
  350MOL0     H48245   9.581  10.643  11.078  0.5165  0.9040  0.8867
  350MOL0     H48246   9.718  10.712  10.995 -0.1723 -1.3352 -2.4519
  350MOL0     H48247   9.862  10.584  11.178 -0.5968 -2.3695  1.5431
  350MOL0     H48248   9.752  10.710  11.235 -0.7674 -0.4119 -1.1222
  350MOL0     H48249   9.477  10.586  11.314 -2.2685 -2.6253 -0.7497
  350MOL0     H48250   9.360  10.337  11.427  0.4281  2.0646 -1.0116
  350MOL0     H48251   9.403  10.446  11.556 -0.3480 -2.4230  2.0983
  350MOL0     H48252   9.498  10.163  11.541  2.1181 -0.5410  0.8032
  350MOL0     H48253   9.551  10.290  11.653  0.4348 -2.3112 -0.3793
  350MOL0     H48254   9.267  10.163  11.669 -0.6925  1.5774 -1.0939
  350MOL0     H48255   9.403  10.156  11.781  3.2466  1.2105 -1.0207
  350MOL0     H48256   9.248  10.406  11.723  3.0790  3.0606  1.2007
  350MOL0     H48257   9.239  10.312  11.865 -0.6392  0.1763 -0.0367
  350MOL0     H48258   9.669  10.489  11.893  0.7150 -1.8619 -0.9799
  350MOL0     H48259   9.822  10.541  12.149 -2.2492  0.2374 -0.7032
  350MOL0     H48260   9.901  10.465  12.006  2.9441  1.2163  1.8643
  350MOL0     H48261   9.903  10.381  12.155 -0.6671 -0.7819 -0.1227
  350MOL0     H48262   9.804  10.039  12.455  1.6915 -1.0596  1.0405
  350MOL0     H48263   9.852   9.949  12.665 -1.4325 -0.4815  0.1229
  350MOL0     H48264   9.930   9.908  12.873 -0.4253 -0.4253 -1.5364
  350MOL0     H48265   9.896   9.951  13.042 -1.1926  3.1231  0.1494
  350MOL0     H48266   9.661   9.935  12.969  2.8787  3.5944 -1.6039
  350MOL0     H48267   9.699   9.835  12.827  0.5090  1.4182 -0.6201
  350MOL0     H48268   9.821   9.682  13.006  0.3571  0.3090 -1.5426
  350MOL0     H48269   9.651   9.674  13.000 -0.4011  0.7102  0.2150
  350MOL0     H48270   9.618   9.839  13.174  1.2245  1.4864  1.1728
  350MOL0     H48271   9.783   9.850  13.181 -0.2557  0.3686 -0.7535
  350MOL0     H48272   9.713   9.557  13.237 -1.6071 -0.9808  1.0621
  350MOL0     H48273   9.848   9.669  13.275 -0.3180  1.7314  0.6970
  350MOL0     H48274   9.568   9.704  13.376 -0.1407  0.3517  1.6213
  350MOL0     H48275   9.705   9.783  13.444  2.4376  0.8113 -2.9732
  350MOL0     H48276   9.811   9.567  13.513  0.1967 -0.4788 -3.0439
  350MOL0     H48277   9.651   9.484  13.497  1.5108 -1.3927 -2.6445
  350MOL0     H48278   9.726   9.734  13.661  2.1533 -1.3575 -1.0510
  350MOL0     H48279   9.683   9.569  13.728 -3.0844  1.2086  1.8484
  350MOL0     H48280   9.678  10.299  12.856 -1.8777 -0.3056 -0.5010
  350MOL0     H48281   9.617  10.387  12.641  1.6159  1.7374  1.4326
  350MOL0     H48282   9.458  10.195  12.231 -2.4368 -3.5491 -3.7698
  350MOL0     H48283   9.342  10.265  12.036  0.6051  0.5667 -1.6531
  350MOL0     H48284   9.246  10.437  10.524 -2.3172 -2.9236 -0.0166
  350MOL0     H48285   9.093  10.529  10.369 -0.3475  1.3427 -2.6029
  350MOL0     H48286   9.022  10.552   9.874 -0.2793 -1.5918  0.3035
  350MOL0     H48287   8.868  10.584   9.698 -1.3366 -3.8241  0.7207
  350MOL0     H48288   8.755  10.866   9.713 -0.8153  0.9614  0.1658
  350MOL0     H48289   8.634  10.840   9.585 -0.0574  0.7892 -0.7319
  350MOL0     H48290   8.572  11.030   9.729 -1.9161  0.1665 -1.0827
  350MOL0     H48291   8.607  10.924   9.874 -1.5216 -1.5199  0.1541
  350MOL0     H48292   8.408  10.777   9.806 -0.4386  0.4735  2.2372
  350MOL0     H48293   8.344  10.931   9.853 -1.6174 -1.8986  0.3628
  350MOL0     H48294   8.391  10.814   9.572 -0.8278  1.0234 -1.7458
  350MOL0     H48295   8.352  10.982   9.587  0.1446 -1.5275 -1.6024
  350MOL0     H48296   7.970  10.828   9.637  0.8691 -2.5214 -0.1495
  350MOL0     H48297   8.571  10.714  10.002  1.1506 -2.4016  6.9768
  350MOL0     H48298   8.615  10.747  10.210 -0.3541  0.6209  2.2158
  350MOL0     H48299   8.680  10.601  10.276 -1.6214 -0.6688 -1.3443
  350MOL0     H48300   8.781  10.748  10.248 -1.5190  1.9728 -1.4094
  351MOL0     O48301  11.069   1.768   3.053 -0.6447 -0.3022  0.2225
  351MOL0     C48302  11.131   1.716   2.962  0.0356  0.2993  0.4269
  351MOL0     O48303  11.111   1.748   2.827 -0.5335  0.1656  0.0955
  351MOL0     C48304  11.005   1.824   2.796 -0.0606  0.2890 -0.2262
  351MOL0     C48305  10.888   1.770   2.746  0.2411  1.0670 -0.4171
  351MOL0     C48306  10.772   1.858   2.738 -0.5287 -0.0996  0.2926
  351MOL0     C48307  10.792   1.998   2.761 -0.9264  0.5607  0.3963
  351MOL0     O48308  10.685   2.082   2.763 -0.1904 -0.1283  0.0937
  351MOL0     C48309  10.559   2.049   2.702 -0.2067  0.8134  0.2230
  351MOL0     C48310  10.469   2.172   2.694  0.5299 -0.3088  0.0130
  351MOL0     C48311  10.422   2.214   2.836  0.7136  0.2564  0.5956
  351MOL0     C48312  10.326   2.339   2.828 -0.3466  0.0885  0.2322
  351MOL0     C48313  10.270   2.371   2.966 -0.2897  0.8961  0.1110
  351MOL0     C48314  10.168   2.481   2.987  0.9794  0.5365 -0.0656
  351MOL0     C48315  10.113   2.487   3.130  0.3086 -0.5934 -0.1725
  351MOL0     C48316  10.210   2.572   3.223 -0.6198 -0.4986 -1.0697
  351MOL0     N48317  10.153   2.574   3.361 -0.1443 -0.7804 -1.0300
  351MOL0     C48318  10.024   2.620   3.396 -0.2089 -0.9304  0.3638
  351MOL0     C48319  10.001   2.578   3.527 -0.4976 -0.2297  0.1956
  351MOL0     C48320   9.884   2.608   3.607 -0.0540  0.5353 -0.0660
  351MOL0     C48321   9.773   2.507   3.592 -0.6138 -0.7183  0.5866
  351MOL0     C48322   9.699   2.514   3.456 -1.3110  0.5901  0.6624
  351MOL0     C48323   9.595   2.405   3.455  0.1895  0.1016 -0.5665
  351MOL0     O48324   9.546   2.410   3.324  0.0339 -0.3694 -0.4789
  351MOL0     C48325   9.481   2.306   3.269 -0.1354  0.3354  0.0820
  351MOL0     C48326   9.395   2.217   3.342  0.4976 -0.1708  0.2468
  351MOL0     C48327   9.338   2.106   3.282  0.5945  0.4200  0.7780
  351MOL0     C48328   9.259   2.014   3.374 -0.7302 -0.5291  0.1141
  351MOL0     C48329   9.354   2.087   3.139 -0.3527  0.7600  0.4279
  351MOL0     C48330   9.292   1.968   3.067  1.4325  0.5119  0.3742
  351MOL0     O48331   9.244   1.864   3.138 -0.3579 -0.8995  0.2496
  351MOL0     C48332   9.210   1.756   3.064  0.5426 -0.4343  0.3521
  351MOL0     C48333   9.085   1.697   3.103  0.3764 -0.3078 -0.0546
  351MOL0     C48334   9.045   1.567   3.043  0.7675 -0.6230 -0.8412
  351MOL0     C48335   9.129   1.499   2.962  0.1108  0.7322 -0.3318
  351MOL0     O48336   9.089   1.372   2.923  0.2487  0.0935 -0.0925
  351MOL0     C48337   9.177   1.273   2.855  0.6682 -0.5307  0.2628
  351MOL0     C48338   9.133   1.135   2.881  0.3947 -0.0378  1.3491
  351MOL0     C48339   9.004   1.108   2.804  0.7300  0.3640 -0.3377
  351MOL0     C48340   9.001   1.126   2.653  0.1423  0.2077 -0.3778
  351MOL0     C48341   8.883   1.055   2.589 -0.2356  0.3045 -0.0040
  351MOL0     C48342   8.850   1.114   2.456  0.2169  0.0882 -0.6802
  351MOL0     C48343   8.703   1.062   2.414  0.8107 -0.4843  0.0519
  351MOL0     C48344   8.686   0.929   2.344 -0.3807  0.1793 -0.1013
  351MOL0    Cl48345   8.752   0.788   2.441  0.4341  0.0587 -0.2804
  351MOL0     C48346   9.260   1.549   2.936  0.1693 -0.2858 -0.0591
  351MOL0     C48347   9.293   1.683   2.985 -0.6472 -0.6237 -0.2680
  351MOL0     O48348   9.291   1.975   2.945  0.5824  0.0944  0.0284
  351MOL0     C48349   9.430   2.179   3.069  1.0409  0.3772  0.0705
  351MOL0     C48350   9.478   2.290   3.137 -0.9646 -0.0996  0.1754
  351MOL0     N48351  10.104   2.498   3.568 -0.8757 -0.2743 -0.4729
  351MOL0     N48352  10.198   2.498   3.472 -0.3025 -0.2414  0.3828
  351MOL0     C48353  10.921   2.042   2.794  0.6753 -0.0007  0.2185
  351MOL0     C48354  11.028   1.962   2.818  0.6991  1.0120  0.7538
  351MOL0     C48355  11.240   1.628   2.997 -0.5265  0.3110 -1.0650
  351MOL0     C48356  11.241   1.581   3.129 -0.3117  0.4217  0.2937
  351MOL0     C48357  11.340   1.483   3.164  0.5340  0.2270  0.5042
  351MOL0     C48358  11.442   1.456   3.076 -0.3049  0.8093  0.2784
  351MOL0     O48359  11.555   1.380   3.102  0.4395 -0.3749 -0.8943
  351MOL0     C48360  11.573   1.297   3.216  0.2742  0.1795 -0.1412
  351MOL0     C48361  11.615   1.379   3.334  0.2225  0.2224 -0.5664
  351MOL0     C48362  11.737   1.472   3.300 -0.4575  0.4239 -0.0218
  351MOL0     C48363  11.871   1.399   3.325  0.1338  0.4812 -0.5202
  351MOL0     C48364  11.894   1.373   3.467  0.3078 -0.4095 -0.6453
  351MOL0     C48365  11.908   1.368   3.588  0.1531 -0.0620 -0.5721
  351MOL0     C48366  11.443   1.514   2.949  0.4236  0.6363  0.3830
  351MOL0     C48367  11.345   1.605   2.905 -0.4544 -0.5546  0.4492
  351MOL0     C48368  11.356   1.636   2.755 -0.2159 -0.7149 -0.2495
  351MOL0     H48369  10.880   1.662   2.736 -0.1303  0.7066  2.6504
  351MOL0     H48370  10.683   1.809   2.697  0.0223 -1.1647  0.3355
  351MOL0     H48371  10.502   1.979   2.764 -1.1621  2.4150  1.2465
  351MOL0     H48372  10.584   2.009   2.603  1.6186  2.2163  0.0579
  351MOL0     H48373  10.509   2.260   2.644 -2.1063  0.2105 -1.3509
  351MOL0     H48374  10.387   2.133   2.633 -0.1582  0.9545  0.0999
  351MOL0     H48375  10.374   2.129   2.884  1.3307  0.0527  0.8611
  351MOL0     H48376  10.507   2.244   2.898  1.3500 -1.2893  0.5032
  351MOL0     H48377  10.376   2.427   2.786 -2.9760  1.9869  0.7878
  351MOL0     H48378  10.239   2.312   2.768 -2.8735 -0.4354  3.8260
  351MOL0     H48379  10.358   2.409   3.019  0.3363 -0.3807  0.0214
  351MOL0     H48380  10.241   2.285   3.027  2.0612 -0.4241 -0.5130
  351MOL0     H48381  10.211   2.573   2.947  1.6100 -0.2012 -1.1335
  351MOL0     H48382  10.085   2.459   2.919 -0.1608  3.1478  0.3482
  351MOL0     H48383  10.081   2.387   3.162 -2.4660 -0.6324 -2.6873
  351MOL0     H48384  10.029   2.556   3.120  0.0457 -0.5455  1.9464
  351MOL0     H48385  10.309   2.526   3.222 -1.2485 -1.9462  0.5935
  351MOL0     H48386  10.223   2.669   3.173  2.7279  0.6643  1.6869
  351MOL0     H48387   9.953   2.677   3.336  0.9469 -0.5556 -0.6826
  351MOL0     H48388   9.859   2.709   3.572  2.0592  0.3776 -2.2703
  351MOL0     H48389   9.914   2.617   3.712  1.3350 -0.0921 -0.3841
  351MOL0     H48390   9.807   2.405   3.609  0.8796 -0.4919 -0.8376
  351MOL0     H48391   9.705   2.542   3.670  1.6475  0.5741  2.0919
  351MOL0     H48392   9.664   2.617   3.446  1.3319  1.4618 -0.1895
  351MOL0     H48393   9.772   2.513   3.374 -1.8262  0.3109  0.1946
  351MOL0     H48394   9.647   2.314   3.484  2.1107  1.1181 -0.6457
  351MOL0     H48395   9.508   2.418   3.521 -1.2709 -2.7622 -1.7297
  351MOL0     H48396   9.376   2.231   3.448 -1.0482 -1.2170  0.1422
  351MOL0     H48397   9.307   1.916   3.379 -0.6789 -0.7464 -2.7573
  351MOL0     H48398   9.158   2.014   3.331  0.0916 -0.4479 -1.9448
  351MOL0     H48399   9.259   2.063   3.472  2.2658  0.1882 -0.1600
  351MOL0     H48400   9.032   1.755   3.177 -0.6937  2.1664 -2.6072
  351MOL0     H48401   8.950   1.519   3.066  1.0260 -1.6325 -1.7886
  351MOL0     H48402   9.184   1.305   2.751  4.0065  0.6227  0.7400
  351MOL0     H48403   9.277   1.272   2.899 -0.1231  0.6342  2.2037
  351MOL0     H48404   9.205   1.060   2.846 -0.2012 -1.3711  2.8166
  351MOL0     H48405   9.121   1.133   2.990  0.3077  0.3442  1.3472
  351MOL0     H48406   8.923   1.173   2.840  0.6793 -0.1751  0.5558
  351MOL0     H48407   8.961   1.010   2.827  2.5707 -0.1746  1.0058
  351MOL0     H48408   9.097   1.092   2.614  0.4303  0.0957  0.4014
  351MOL0     H48409   8.993   1.234   2.642  0.1235  0.0451 -2.2572
  351MOL0     H48410   8.893   0.948   2.573 -0.3141 -0.0317  1.9862
  351MOL0     H48411   8.799   1.067   2.658  0.8564  0.9087  1.2660
  351MOL0     H48412   8.931   1.093   2.385  2.5165 -3.9000  2.6712
  351MOL0     H48413   8.842   1.221   2.475  1.8022 -0.1615  1.8322
  351MOL0     H48414   8.656   1.133   2.345  1.9557  1.9139  1.6049
  351MOL0     H48415   8.642   1.068   2.504  1.2536 -1.4285  0.4222
  351MOL0     H48416   8.739   0.920   2.249 -1.4374 -3.4757 -0.5172
  351MOL0     H48417   8.581   0.912   2.318 -0.0292  1.4407 -2.6645
  351MOL0     H48418   9.319   1.492   2.866  0.9247  0.0142  0.3198
  351MOL0     H48419   9.392   1.726   2.970 -1.6439  2.6677  1.6567
  351MOL0     H48420   9.439   2.171   2.961  0.7543 -2.5838  0.1691
  351MOL0     H48421   9.535   2.358   3.074 -0.1495  0.7472  1.7637
  351MOL0     H48422  10.940   2.147   2.814  0.7676 -0.4942  3.2940
  351MOL0     H48423  11.119   2.005   2.859  1.1563  1.6861 -0.8616
  351MOL0     H48424  11.163   1.597   3.203 -0.8871 -2.4073  0.3983
  351MOL0     H48425  11.338   1.428   3.257  0.7226 -1.0985 -0.2460
  351MOL0     H48426  11.482   1.240   3.236  0.6482  0.4401  2.6711
  351MOL0     H48427  11.660   1.236   3.190  0.8861  0.7864  0.4206
  351MOL0     H48428  11.639   1.306   3.412  0.8081 -1.5187 -2.3089
  351MOL0     H48429  11.523   1.436   3.351 -0.2304  0.6870 -3.8573
  351MOL0     H48430  11.724   1.507   3.197 -2.4747  4.4487  1.3645
  351MOL0     H48431  11.737   1.560   3.365 -0.0873  1.2044 -1.0354
  351MOL0     H48432  11.961   1.455   3.296  0.7446 -0.6975 -0.9831
  351MOL0     H48433  11.881   1.312   3.259  1.0538 -1.0567  1.5254
  351MOL0     H48434  11.934   1.361   3.691  1.0512 -0.0030 -0.7864
  351MOL0     H48435  11.520   1.490   2.876  1.1159  1.0760  0.9632
  351MOL0     H48436  11.280   1.590   2.691  0.8297 -1.2534 -1.1531
  351MOL0     H48437  11.349   1.737   2.714 -0.4919 -1.0987 -1.1913
  351MOL0     H48438  11.453   1.603   2.716  0.2046  0.5852 -0.3474
  352MOL0     O48439   0.736   3.053   4.501  0.2121  0.1137 -0.1839
  352MOL0     C48440   0.710   3.172   4.516  0.2470  0.6087  0.1085
  352MOL0     O48441   0.600   3.232   4.452 -1.4280  0.0983  0.3070
  352MOL0     C48442   0.509   3.167   4.372  0.1543 -0.1548  0.6207
  352MOL0     C48443   0.374   3.200   4.384 -0.7211 -0.5348 -0.4812
  352MOL0     C48444   0.277   3.148   4.305 -0.4914  0.1403  0.0156
  352MOL0     C48445   0.303   3.041   4.215 -0.2852 -0.2741 -0.4356
  352MOL0     O48446   0.209   2.981   4.136 -0.4062 -0.1531  0.3591
  352MOL0     C48447   0.082   3.055   4.111 -0.8048  0.4031  0.8983
  352MOL0     C48448  -0.009   3.018   3.997 -0.6927  0.5260  0.1915
  352MOL0     C48449  -0.159   3.037   4.027 -0.1421  0.7709  0.3714
  352MOL0     C48450  -0.198   3.161   4.106 -0.2727  0.0270 -0.1990
  352MOL0     C48451  -0.344   3.160   4.093  0.3738 -0.3170 -0.0710
  352MOL0     C48452  -0.401   3.293   4.170  0.8994 -0.1861  0.1111
  352MOL0     C48453  -0.554   3.313   4.169  1.0987  0.1616 -0.1743
  352MOL0     C48454  -0.618   3.275   4.038  0.7285 -0.2377 -0.7261
  352MOL0     N48455  -0.758   3.311   4.051 -0.5382  0.8372  0.3386
  352MOL0     C48456  -0.816   3.440   4.041 -0.5198 -0.8175  0.0115
  352MOL0     C48457  -0.949   3.418   4.031 -0.6047 -0.5495  0.5538
  352MOL0     C48458  -1.058   3.516   4.003  0.3654  1.1855  0.3243
  352MOL0     C48459  -1.074   3.516   3.850  0.4280  0.5970  0.0794
  352MOL0     C48460  -1.190   3.598   3.802  0.2726 -0.3532 -0.1488
  352MOL0     C48461  -1.199   3.730   3.868  0.0022  0.1166 -0.2137
  352MOL0     O48462  -1.067   3.797   3.865  0.1008  0.0125 -0.5608
  352MOL0     C48463  -1.065   3.934   3.905  0.5004 -0.3005 -0.6513
  352MOL0     C48464  -1.178   4.007   3.951  0.2600 -0.1980  0.7681
  352MOL0     C48465  -1.164   4.139   3.997 -0.0180 -0.0985  0.1893
  352MOL0     C48466  -1.298   4.189   4.039 -0.1444  0.5741  0.5460
  352MOL0     C48467  -1.038   4.204   3.977  0.1585 -0.9111 -0.2421
  352MOL0     C48468  -1.016   4.339   4.028 -0.2669  0.0028  0.0887
  352MOL0     O48469  -0.889   4.386   3.993  0.4662  0.4041  0.8029
  352MOL0     C48470  -0.834   4.493   4.058  0.8507  0.6780 -0.1718
  352MOL0     C48471  -0.743   4.566   3.980 -0.7296  0.4219 -0.0967
  352MOL0     C48472  -0.689   4.686   4.031 -0.3291  0.0405  0.3214
  352MOL0     C48473  -0.722   4.732   4.160  0.3428  0.0027  0.0105
  352MOL0     O48474  -0.685   4.854   4.211 -0.1761 -0.2295 -0.3361
  352MOL0     C48475  -0.670   4.960   4.121  0.3174  0.4522  0.1256
  352MOL0     C48476  -0.663   5.088   4.202 -0.8543 -0.8210  0.4685
  352MOL0     C48477  -0.798   5.137   4.261  0.5774 -0.3669 -0.5659
  352MOL0     C48478  -0.767   5.264   4.335  0.3997  0.5351 -0.6194
  352MOL0     C48479  -0.884   5.310   4.423 -0.0983 -0.2856 -0.6822
  352MOL0     C48480  -1.018   5.337   4.342 -0.9575  0.8585 -0.0631
  352MOL0     C48481  -1.127   5.390   4.420 -0.8403  0.8042 -0.1206
  352MOL0     C48482  -1.253   5.371   4.351  0.5465 -0.4172  1.3288
  352MOL0    Cl48483  -1.306   5.201   4.342  0.7051  0.5410  0.6285
  352MOL0     C48484  -0.797   4.648   4.243 -0.5809  0.2549 -0.4806
  352MOL0     C48485  -0.853   4.530   4.190  0.4321  0.2411 -0.6531
  352MOL0     O48486  -1.095   4.406   4.096  0.7228  0.2934  0.3478
  352MOL0     C48487  -0.935   4.131   3.920 -0.3444 -0.5999 -0.2103
  352MOL0     C48488  -0.951   4.002   3.887 -0.5141 -0.0597  0.0365
  352MOL0     N48489  -0.971   3.282   4.044 -0.1321  0.3894  0.1748
  352MOL0     N48490  -0.856   3.217   4.045 -0.4996  0.1728 -0.4570
  352MOL0     C48491   0.438   3.016   4.197  0.4965  0.0806 -0.3839
  352MOL0     C48492   0.540   3.077   4.267 -0.3316  0.3360  0.3841
  352MOL0     C48493   0.802   3.258   4.585  0.5541  0.3634 -0.6020
  352MOL0     C48494   0.823   3.388   4.540 -0.1457 -0.8790  0.7475
  352MOL0     C48495   0.924   3.470   4.602  0.3321 -0.2511 -0.0362
  352MOL0     C48496   0.989   3.432   4.716 -0.1638  0.0860  0.5812
  352MOL0     O48497   1.098   3.495   4.781 -0.3718  0.7657 -0.6160
  352MOL0     C48498   1.162   3.607   4.724  0.9249  0.7716 -0.0084
  352MOL0     C48499   1.120   3.734   4.795 -0.0497 -0.2307  0.5641
  352MOL0     C48500   1.133   3.742   4.951 -1.0093  0.5581  0.5842
  352MOL0     C48501   1.245   3.851   4.990 -0.5854  0.7373 -0.7101
  352MOL0     C48502   1.374   3.838   4.910 -0.1514 -0.3926 -0.0097
  352MOL0     C48503   1.478   3.823   4.849 -0.2618  0.0157  0.1928
  352MOL0     C48504   0.961   3.303   4.771  0.6094 -0.7656  0.2785
  352MOL0     C48505   0.870   3.223   4.710  0.1480  0.0144 -0.4005
  352MOL0     C48506   0.888   3.086   4.771 -0.2728  0.5008 -0.7346
  352MOL0     H48507   0.357   3.278   4.458  1.4267 -2.0039  1.6931
  352MOL0     H48508   0.175   3.176   4.328 -2.3231 -3.4044 -2.7369
  352MOL0     H48509   0.097   3.163   4.099  0.4065  0.0057 -2.1896
  352MOL0     H48510   0.034   3.024   4.204  0.7361 -4.7399  0.2549
  352MOL0     H48511   0.021   3.078   3.911  1.4564 -0.8621 -0.0968
  352MOL0     H48512   0.006   2.912   3.974 -1.0539  0.2485  1.1903
  352MOL0     H48513  -0.207   3.040   3.929 -1.5766 -1.0595  0.9710
  352MOL0     H48514  -0.208   2.955   4.078 -0.3717 -0.8046 -2.2202
  352MOL0     H48515  -0.171   3.149   4.212 -2.2707  0.0955  0.3686
  352MOL0     H48516  -0.149   3.246   4.059  1.2010 -1.0709 -0.7390
  352MOL0     H48517  -0.390   3.073   4.140 -1.1191  2.3070  3.9209
  352MOL0     H48518  -0.372   3.163   3.988 -1.8848  1.3410  0.5046
  352MOL0     H48519  -0.358   3.295   4.270  1.2906 -0.4472 -0.0496
  352MOL0     H48520  -0.345   3.367   4.111  2.3981 -1.4934 -0.1602
  352MOL0     H48521  -0.576   3.418   4.188 -0.8528 -0.0885 -0.8251
  352MOL0     H48522  -0.599   3.259   4.253  2.1399  0.7757  0.8061
  352MOL0     H48523  -0.574   3.330   3.955  0.6332 -1.6465 -1.7432
  352MOL0     H48524  -0.606   3.171   4.007  1.7645  0.0382 -1.2995
  352MOL0     H48525  -0.762   3.534   4.046 -0.2560 -0.9397 -0.4699
  352MOL0     H48526  -1.029   3.616   4.038  0.0389  1.7595 -0.9608
  352MOL0     H48527  -1.153   3.493   4.052 -1.2990  2.0292 -2.3006
  352MOL0     H48528  -0.979   3.555   3.812  1.4756  1.4589  3.3144
  352MOL0     H48529  -1.105   3.418   3.813  2.6488 -0.2124  0.1862
  352MOL0     H48530  -1.166   3.611   3.696 -0.2575 -2.4498 -0.5584
  352MOL0     H48531  -1.288   3.549   3.809 -0.3193  0.6677 -0.8761
  352MOL0     H48532  -1.281   3.777   3.813  0.0037 -0.9417 -1.1679
  352MOL0     H48533  -1.231   3.714   3.972 -2.1528  1.7064 -0.5592
  352MOL0     H48534  -1.279   3.970   3.936 -0.5563  2.4537 -0.9388
  352MOL0     H48535  -1.382   4.155   3.978 -0.4307  2.3664 -0.1053
  352MOL0     H48536  -1.301   4.298   4.036 -3.2679  0.5532 -2.0449
  352MOL0     H48537  -1.318   4.167   4.144 -1.2730  0.8083  0.3874
  352MOL0     H48538  -0.726   4.533   3.878  0.4061  1.9245 -0.4232
  352MOL0     H48539  -0.614   4.732   3.967  0.9334 -0.5478  1.3396
  352MOL0     H48540  -0.573   4.944   4.073  1.1955  1.7588  1.3859
  352MOL0     H48541  -0.748   4.959   4.044  1.0577 -0.3160 -0.6423
  352MOL0     H48542  -0.577   5.074   4.268  2.2258  2.0063 -2.5549
  352MOL0     H48543  -0.636   5.161   4.126 -0.0848 -3.9552 -2.5176
  352MOL0     H48544  -0.831   5.068   4.339  0.4645 -0.0181 -0.2984
  352MOL0     H48545  -0.878   5.147   4.187  2.3483  1.1498 -2.4018
  352MOL0     H48546  -0.742   5.343   4.263  0.6450  0.6047 -0.4603
  352MOL0     H48547  -0.682   5.243   4.400  1.0078 -1.1517 -1.8662
  352MOL0     H48548  -0.891   5.228   4.496 -1.9549  0.9403  0.6213
  352MOL0     H48549  -0.848   5.396   4.480  3.0022 -2.2598  0.6006
  352MOL0     H48550  -1.042   5.241   4.296 -0.1046  1.9806 -3.0705
  352MOL0     H48551  -0.988   5.406   4.263  0.8723  0.5726  0.3508
  352MOL0     H48552  -1.114   5.499   4.430 -0.8549  0.8865 -0.9295
  352MOL0     H48553  -1.149   5.347   4.518 -3.3620  2.3160  0.0862
  352MOL0     H48554  -1.261   5.402   4.246  0.6198  1.0494  1.7288
  352MOL0     H48555  -1.329   5.419   4.414  0.9732 -2.6182  3.6788
  352MOL0     H48556  -0.823   4.682   4.343 -1.4113  2.9169 -1.4981
  352MOL0     H48557  -0.918   4.469   4.252 -1.9361  2.3355 -0.8938
  352MOL0     H48558  -0.838   4.177   3.907  0.9644 -3.5901 -2.0203
  352MOL0     H48559  -0.863   3.950   3.850 -0.3537  0.8941 -0.9420
  352MOL0     H48560   0.469   2.949   4.117 -0.5155 -1.3553  0.3827
  352MOL0     H48561   0.644   3.052   4.253 -0.9198 -2.0730 -0.0512
  352MOL0     H48562   0.778   3.418   4.446  0.2951 -1.0035  0.4946
  352MOL0     H48563   0.955   3.561   4.553  0.3742  0.0847  0.6026
  352MOL0     H48564   1.269   3.590   4.736  1.3362  2.6443 -0.6871
  352MOL0     H48565   1.140   3.626   4.618 -2.5024 -0.7172  0.3002
  352MOL0     H48566   1.013   3.749   4.778  0.0566 -1.3092 -1.2905
  352MOL0     H48567   1.179   3.816   4.753 -0.5800 -0.2555 -0.2418
  352MOL0     H48568   1.045   3.777   5.006  0.4124  2.1458  1.9660
  352MOL0     H48569   1.161   3.647   4.996 -0.0010  0.9918  0.9171
  352MOL0     H48570   1.250   3.848   5.099 -1.6804  1.8015 -0.6069
  352MOL0     H48571   1.198   3.946   4.961 -3.9924 -1.2050 -2.1239
  352MOL0     H48572   1.571   3.801   4.799  0.0906 -1.1523  1.3223
  352MOL0     H48573   1.038   3.277   4.843  2.9414 -0.5201 -1.9523
  352MOL0     H48574   0.984   3.042   4.743 -0.6018 -0.4141 -0.4413
  352MOL0     H48575   0.886   3.101   4.879  1.7986 -0.2347 -0.5434
  352MOL0     H48576   0.802   3.024   4.746  0.3104 -1.3732  1.5706
  353MOL0     O48577   3.386   1.250   4.046 -0.0699 -0.0645  0.1310
  353MOL0     C48578   3.359   1.367   4.041 -0.1575 -0.8269 -0.9349
  353MOL0     O48579   3.238   1.433   4.080 -0.1075  0.7077 -0.5761
  353MOL0     C48580   3.134   1.392   4.153 -0.7670 -0.4169 -0.3124
  353MOL0     C48581   3.130   1.281   4.247 -0.1274  0.6656  0.7976
  353MOL0     C48582   3.014   1.266   4.331 -0.3881  0.5906  0.3112
  353MOL0     C48583   2.905   1.348   4.329  0.9734 -0.2601  0.1832
  353MOL0     O48584   2.803   1.315   4.416  0.0611 -0.5383 -0.1283
  353MOL0     C48585   2.679   1.392   4.438  0.1126  0.6490 -0.4303
  353MOL0     C48586   2.565   1.305   4.386  0.2625  0.9207  0.7845
  353MOL0     C48587   2.549   1.181   4.471  0.7041 -0.7932  0.0876
  353MOL0     C48588   2.495   1.216   4.608 -0.2246  1.1820 -0.0157
  353MOL0     C48589   2.456   1.084   4.691 -0.2546  0.6818 -0.8636
  353MOL0     C48590   2.586   1.031   4.757 -0.9533  0.1203 -0.7087
  353MOL0     C48591   2.608   1.108   4.888  1.0996 -0.3836  0.3803
  353MOL0     C48592   2.753   1.071   4.938 -1.2977 -0.2195  0.9848
  353MOL0     N48593   2.782   1.132   5.064  0.0180  0.2434 -0.4920
  353MOL0     C48594   2.812   1.261   5.095  0.1150  1.3498 -0.1842
  353MOL0     C48595   2.817   1.267   5.230  0.6386 -0.1398  0.0890
  353MOL0     C48596   2.861   1.394   5.300 -0.0189  0.0578 -0.2470
  353MOL0     C48597   2.889   1.381   5.444 -0.2942 -1.5415 -0.2163
  353MOL0     C48598   3.021   1.442   5.501  0.0558  0.2247 -0.8984
  353MOL0     C48599   3.037   1.590   5.494  0.0404 -0.1694 -0.2397
  353MOL0     O48600   2.933   1.666   5.560  0.6517  0.4134 -0.1238
  353MOL0     C48601   2.937   1.671   5.698 -0.4995 -0.7081 -0.2960
  353MOL0     C48602   3.052   1.649   5.770 -0.3188 -0.1729 -0.1303
  353MOL0     C48603   3.042   1.671   5.912 -0.3578  0.9351 -0.4160
  353MOL0     C48604   3.169   1.654   5.998 -0.0679 -0.2210  0.0049
  353MOL0     C48605   2.917   1.697   5.976 -0.8399  0.0986  0.4264
  353MOL0     C48606   2.888   1.702   6.128 -0.0705 -0.2013 -0.3914
  353MOL0     O48607   2.769   1.727   6.172 -0.5647  0.2663  0.2418
  353MOL0     C48608   2.746   1.763   6.306 -0.2217  0.3332  0.1464
  353MOL0     C48609   2.612   1.806   6.318  0.4553  0.2955 -0.6471
  353MOL0     C48610   2.565   1.837   6.448  0.3164  0.1140 -1.3421
  353MOL0     C48611   2.647   1.842   6.561 -0.1098  0.3294 -0.0966
  353MOL0     O48612   2.579   1.867   6.678 -0.4232  0.2285  0.0538
  353MOL0     C48613   2.653   1.879   6.800 -0.1500 -0.3070 -0.0053
  353MOL0     C48614   2.568   1.903   6.916  0.1663 -0.4766 -0.2592
  353MOL0     C48615   2.642   1.925   7.047  0.0189  0.1668  0.4210
  353MOL0     C48616   2.549   1.926   7.166 -0.2828  0.2606 -1.1740
  353MOL0     C48617   2.627   1.957   7.294  0.7455 -0.1694  0.8896
  353MOL0     C48618   2.535   1.960   7.414  1.4721  0.2227 -0.1644
  353MOL0     C48619   2.603   1.888   7.532 -0.7504  0.3636 -0.8698
  353MOL0     C48620   2.726   1.975   7.582  0.6637 -0.2117 -0.2771
  353MOL0    Cl48621   2.803   1.917   7.738  0.2067  0.0454  0.2518
  353MOL0     C48622   2.783   1.814   6.547  0.6433 -0.2136 -1.2397
  353MOL0     C48623   2.833   1.771   6.422 -0.1448 -0.1096  0.8652
  353MOL0     O48624   2.983   1.674   6.204  0.1114 -0.1867  0.2806
  353MOL0     C48625   2.809   1.705   5.896 -0.0219 -0.5758  0.6491
  353MOL0     C48626   2.812   1.697   5.761 -0.6624  0.1994  0.3615
  353MOL0     N48627   2.809   1.139   5.280  0.0269  0.4557 -0.2422
  353MOL0     N48628   2.789   1.058   5.178  0.4137 -0.0869  0.0584
  353MOL0     C48629   2.906   1.457   4.235 -0.0672 -0.0606  1.0064
  353MOL0     C48630   3.026   1.483   4.160  0.6184 -0.2361  0.6858
  353MOL0     C48631   3.451   1.465   3.974  0.5066  0.5137  0.4735
  353MOL0     C48632   3.391   1.576   3.907 -1.8396  0.6742  0.4025
  353MOL0     C48633   3.473   1.676   3.851  0.9971  1.2933  0.7221
  353MOL0     C48634   3.611   1.682   3.855  0.5263  0.3556 -1.0715
  353MOL0     O48635   3.676   1.779   3.787  0.4178 -0.1811 -0.1340
  353MOL0     C48636   3.625   1.918   3.791  0.3385  0.2450  0.0049
  353MOL0     C48637   3.590   1.971   3.928  0.0644  0.7481 -1.0888
  353MOL0     C48638   3.710   1.971   4.030  0.6425  0.5142 -0.8533
  353MOL0     C48639   3.791   2.099   4.049  0.1860  0.6163  0.7804
  353MOL0     C48640   3.828   2.148   3.916  0.5720  0.5417  0.2724
  353MOL0     C48641   3.882   2.197   3.820  0.4403  0.8111  0.7965
  353MOL0     C48642   3.675   1.579   3.928 -0.2714  0.4002  0.4118
  353MOL0     C48643   3.598   1.473   3.980 -0.2259  0.4135  0.4387
  353MOL0     C48644   3.672   1.369   4.061 -0.5703 -0.0247  0.8143
  353MOL0     H48645   3.220   1.221   4.248 -1.3833 -1.4143 -1.2838
  353MOL0     H48646   3.024   1.182   4.399 -3.0294 -0.3841 -0.3848
  353MOL0     H48647   2.674   1.484   4.380 -2.6037  1.2075  0.5461
  353MOL0     H48648   2.666   1.423   4.542 -2.9602  0.7925 -0.7639
  353MOL0     H48649   2.470   1.358   4.375 -0.5522  0.0295  3.0919
  353MOL0     H48650   2.602   1.277   4.287  1.2998 -0.4802  1.5353
  353MOL0     H48651   2.473   1.113   4.431 -1.8364  1.8561  0.0761
  353MOL0     H48652   2.648   1.135   4.484  0.3253 -1.6934 -0.1454
  353MOL0     H48653   2.574   1.271   4.660  0.1617  1.2905 -0.7051
  353MOL0     H48654   2.413   1.288   4.604 -0.3472  1.1411  1.2499
  353MOL0     H48655   2.410   1.010   4.625  0.3353 -0.4033 -0.0990
  353MOL0     H48656   2.382   1.107   4.768  0.5192 -2.0699  0.8625
  353MOL0     H48657   2.582   0.924   4.779  0.7301  0.1276 -0.1777
  353MOL0     H48658   2.673   1.036   4.691 -0.8741  3.2193 -0.5028
  353MOL0     H48659   2.533   1.094   4.966  0.1346  3.0518  0.2323
  353MOL0     H48660   2.614   1.215   4.868 -1.0304 -0.3835 -0.5114
  353MOL0     H48661   2.755   0.962   4.947  0.0929 -0.2630  0.3702
  353MOL0     H48662   2.831   1.107   4.870 -0.0262  1.6511  3.2693
  353MOL0     H48663   2.827   1.340   5.023 -3.5620  1.0756 -1.4232
  353MOL0     H48664   2.770   1.456   5.297 -0.1547 -0.1670 -1.6976
  353MOL0     H48665   2.952   1.433   5.253  1.7066 -2.1133  1.1008
  353MOL0     H48666   2.803   1.425   5.495 -0.0313 -0.4221 -0.7230
  353MOL0     H48667   2.891   1.274   5.467 -1.0621 -1.8705 -1.5735
  353MOL0     H48668   3.026   1.418   5.608 -0.5778 -2.0551 -1.3137
  353MOL0     H48669   3.103   1.396   5.445 -2.1310 -3.6190 -1.3497
  353MOL0     H48670   3.133   1.626   5.532 -1.6302  0.6606  3.7499
  353MOL0     H48671   3.022   1.621   5.390  0.6526  0.3595 -0.1773
  353MOL0     H48672   3.145   1.606   5.733 -1.3394 -3.3313  0.6452
  353MOL0     H48673   3.187   1.733   6.072  2.3960  0.8098 -1.5811
  353MOL0     H48674   3.256   1.653   5.932  2.3809 -0.8841  3.0296
  353MOL0     H48675   3.168   1.556   6.047  2.6788 -0.6172 -0.5795
  353MOL0     H48676   2.550   1.797   6.229  0.3469  1.9582 -0.7698
  353MOL0     H48677   2.458   1.842   6.468  0.6090 -0.4362  0.5669
  353MOL0     H48678   2.697   1.780   6.817  0.3837 -0.8419 -3.6482
  353MOL0     H48679   2.727   1.958   6.791  1.1008 -1.2943  1.2098
  353MOL0     H48680   2.513   1.995   6.893 -1.2531 -1.3761 -0.5144
  353MOL0     H48681   2.500   1.820   6.931 -1.4907  0.9053  0.1818
  353MOL0     H48682   2.700   2.018   7.048 -0.9378  0.7746  0.3390
  353MOL0     H48683   2.708   1.838   7.048  0.0824  0.2046 -0.3023
  353MOL0     H48684   2.497   1.830   7.176  0.8651 -0.4531 -1.8296
  353MOL0     H48685   2.476   2.003   7.139  1.0013  2.5623  1.4511
  353MOL0     H48686   2.697   1.873   7.306  0.9109 -0.6090 -2.1803
  353MOL0     H48687   2.687   2.048   7.293 -1.3627  1.3115  2.1452
  353MOL0     H48688   2.441   1.905   7.399  2.7815 -1.6898 -1.9601
  353MOL0     H48689   2.516   2.063   7.444  2.4217  0.7986 -1.4430
  353MOL0     H48690   2.629   1.786   7.505 -2.4832 -0.1159 -0.8342
  353MOL0     H48691   2.538   1.897   7.620  0.7684 -2.6190  0.7102
  353MOL0     H48692   2.687   2.076   7.599 -2.4750 -1.4970  0.9673
  353MOL0     H48693   2.794   1.975   7.496  0.1402  0.6031 -0.7118
  353MOL0     H48694   2.848   1.796   6.632  1.2580 -0.4376 -1.7486
  353MOL0     H48695   2.939   1.748   6.418  0.0161  0.5096  1.2841
  353MOL0     H48696   2.712   1.731   5.938  1.1225 -0.9484  3.8519
  353MOL0     H48697   2.726   1.701   5.695 -1.4816  0.0988  1.4013
  353MOL0     H48698   2.816   1.516   4.225 -1.7201 -2.7488 -1.3336
  353MOL0     H48699   3.034   1.567   4.091 -2.5272  0.1125  0.6322
  353MOL0     H48700   3.283   1.580   3.898 -1.9037 -1.0458  0.0840
  353MOL0     H48701   3.423   1.744   3.783  1.9283 -1.8430 -3.5749
  353MOL0     H48702   3.704   1.979   3.746  2.0226 -0.3138  2.0180
  353MOL0     H48703   3.544   1.929   3.719 -0.6005  1.1374  1.1558
  353MOL0     H48704   3.504   1.917   3.968  0.9461  0.3365  0.3485
  353MOL0     H48705   3.564   2.075   3.908  3.3754  1.7617 -0.7034
  353MOL0     H48706   3.674   1.941   4.129  2.2640  0.5027 -0.2410
  353MOL0     H48707   3.781   1.891   4.007  1.9830  1.8267 -1.3902
  353MOL0     H48708   3.877   2.069   4.108  0.1618  0.5656  0.7899
  353MOL0     H48709   3.729   2.174   4.100 -2.6098 -1.4302  0.6289
  353MOL0     H48710   3.940   2.241   3.741  1.2163 -2.6800 -0.7653
  353MOL0     H48711   3.783   1.583   3.932 -0.1975  6.2339  4.1668
  353MOL0     H48712   3.661   1.273   4.010  1.9195  1.1701 -2.2588
  353MOL0     H48713   3.779   1.392   4.069 -0.0722 -0.1671 -3.3733
  353MOL0     H48714   3.626   1.354   4.159 -0.4043  0.1833  0.9241
  354MOL0     O48715   4.437   3.758   9.154 -0.0621 -0.0944  0.2850
  354MOL0     C48716   4.459   3.651   9.210  0.8571 -0.4667  0.5001
  354MOL0     O48717   4.521   3.542   9.155 -0.0738 -0.0950  0.2777
  354MOL0     C48718   4.553   3.536   9.027  1.0297 -0.5163 -0.3148
  354MOL0     C48719   4.504   3.437   8.942 -0.3251  0.2612  0.4839
  354MOL0     C48720   4.563   3.411   8.814  0.2260 -0.4818  0.2654
  354MOL0     C48721   4.663   3.498   8.771  0.0649  0.0074 -0.7496
  354MOL0     O48722   4.722   3.488   8.643  0.1554 -0.2111 -0.5272
  354MOL0     C48723   4.635   3.453   8.530 -0.5805  0.1460  0.3873
  354MOL0     C48724   4.565   3.572   8.457  0.0306 -0.3873 -0.0893
  354MOL0     C48725   4.665   3.656   8.381 -0.4860 -0.7022 -0.4070
  354MOL0     C48726   4.762   3.752   8.458 -0.4156  0.3285 -0.2622
  354MOL0     C48727   4.870   3.815   8.371  0.2376 -0.0800  0.4404
  354MOL0     C48728   4.811   3.891   8.241  0.2051  0.2379 -0.8522
  354MOL0     C48729   4.921   3.947   8.147 -0.6376 -0.1914 -0.6714
  354MOL0     C48730   4.978   3.833   8.058 -0.0659 -0.0671 -0.2454
  354MOL0     N48731   5.077   3.873   7.958  0.1791  0.6113  0.2307
  354MOL0     C48732   5.192   3.938   7.984  0.6203  0.2192  0.1173
  354MOL0     C48733   5.252   3.949   7.859 -0.6881 -0.5682 -0.4486
  354MOL0     C48734   5.389   4.016   7.859 -0.2404  0.0149  0.0130
  354MOL0     C48735   5.378   4.155   7.800 -0.2362  1.3368 -0.7535
  354MOL0     C48736   5.379   4.272   7.892  0.1091  0.1559 -1.1588
  354MOL0     C48737   5.348   4.406   7.831 -0.1574 -0.8877 -0.3238
  354MOL0     O48738   5.433   4.429   7.717  0.3493 -0.0927 -0.2696
  354MOL0     C48739   5.549   4.499   7.727 -0.5042  0.2354  0.4912
  354MOL0     C48740   5.618   4.544   7.837  0.7067  0.3371 -0.6970
  354MOL0     C48741   5.726   4.636   7.823 -0.6683 -0.0093  0.5571
  354MOL0     C48742   5.784   4.688   7.952 -0.8722  0.2602 -0.1492
  354MOL0     C48743   5.765   4.678   7.692  0.0648  1.2721 -0.5309
  354MOL0     C48744   5.887   4.761   7.670 -0.4875 -0.7199 -0.3168
  354MOL0     O48745   5.911   4.791   7.540  0.2129  0.0706  0.3257
  354MOL0     C48746   5.966   4.908   7.504 -0.5701  0.1032  1.2092
  354MOL0     C48747   6.003   5.021   7.573  0.0968 -1.0604 -0.5359
  354MOL0     C48748   6.034   5.141   7.515  0.0595 -0.2404 -0.6175
  354MOL0     C48749   6.045   5.153   7.380  0.9372  0.1994  0.3814
  354MOL0     O48750   6.073   5.271   7.314  0.1189  0.0545  0.3607
  354MOL0     C48751   6.126   5.376   7.391 -0.0762  0.8969  0.9949
  354MOL0     C48752   6.169   5.498   7.297  0.7091 -0.8402 -0.0106
  354MOL0     C48753   6.294   5.474   7.212 -0.0071 -0.1168  0.7687
  354MOL0     C48754   6.335   5.606   7.148 -0.1465  0.5194  0.2334
  354MOL0     C48755   6.487   5.602   7.118 -0.2071  1.0413  0.2650
  354MOL0     C48756   6.528   5.489   7.021  0.0884  0.3696  0.1655
  354MOL0     C48757   6.645   5.526   6.928 -0.5091  0.5558 -0.4776
  354MOL0     C48758   6.609   5.595   6.803  0.1305 -0.0128  0.4146
  354MOL0    Cl48759   6.759   5.573   6.701  0.3250 -0.1861  0.0464
  354MOL0     C48760   6.023   5.030   7.302 -0.0890 -0.4122  0.1627
  354MOL0     C48761   5.981   4.918   7.366  1.1528  0.3883 -0.7037
  354MOL0     O48762   5.951   4.810   7.761 -0.2028 -0.2347 -0.1462
  354MOL0     C48763   5.698   4.630   7.583 -0.8760  0.2362 -0.0716
  354MOL0     C48764   5.592   4.539   7.600  0.5371  0.2441 -0.2229
  354MOL0     N48765   5.172   3.903   7.758 -0.2335  0.1390  0.6423
  354MOL0     N48766   5.060   3.859   7.819 -0.1542  0.6909  0.0689
  354MOL0     C48767   4.720   3.588   8.857  0.4004 -0.2603  0.1719
  354MOL0     C48768   4.657   3.611   8.981 -0.4049 -0.1323  0.1133
  354MOL0     C48769   4.438   3.657   9.354  0.4937  0.0949 -0.8486
  354MOL0     C48770   4.330   3.581   9.406  0.6088 -0.3434 -0.1722
  354MOL0     C48771   4.288   3.609   9.542 -0.7246 -0.2439  0.6490
  354MOL0     C48772   4.367   3.702   9.610  0.2802  0.3358  0.3572
  354MOL0     O48773   4.346   3.724   9.746  0.1450  0.8033  0.3376
  354MOL0     C48774   4.451   3.658   9.827  0.8904  0.6716  0.2881
  354MOL0     C48775   4.397   3.628   9.961  0.4334  1.0192 -0.3008
  354MOL0     C48776   4.294   3.508   9.959 -0.5077 -0.5621  0.5809
  354MOL0     C48777   4.214   3.474  10.074 -0.2470 -0.2006 -0.3512
  354MOL0     C48778   4.172   3.589  10.156 -0.5354  0.4357 -0.4443
  354MOL0     C48779   4.136   3.677  10.221  0.0021 -0.0152  0.6086
  354MOL0     C48780   4.485   3.758   9.560 -0.0709  0.4657 -0.0569
  354MOL0     C48781   4.525   3.733   9.436  0.4617 -0.2988 -0.0582
  354MOL0     C48782   4.640   3.817   9.390 -0.2458  0.2410 -0.1738
  354MOL0     H48783   4.424   3.368   8.966 -0.2041  0.1983  0.7035
  354MOL0     H48784   4.536   3.330   8.748  3.6668 -1.5717 -0.0122
  354MOL0     H48785   4.559   3.380   8.557  0.0295 -1.0899 -1.0411
  354MOL0     H48786   4.696   3.400   8.455 -2.2665  0.3853 -1.2255
  354MOL0     H48787   4.478   3.541   8.400 -0.4442 -0.6513  0.7630
  354MOL0     H48788   4.529   3.643   8.532  0.9188  2.6464 -2.3457
  354MOL0     H48789   4.729   3.580   8.335 -0.8923 -3.5165  3.1885
  354MOL0     H48790   4.615   3.712   8.302 -2.6153  0.2189  1.4839
  354MOL0     H48791   4.718   3.824   8.528  1.1826 -2.5713  4.1733
  354MOL0     H48792   4.815   3.695   8.534  1.1646  2.9848  0.7710
  354MOL0     H48793   4.931   3.730   8.338  1.3445  0.3239  1.3849
  354MOL0     H48794   4.929   3.890   8.425  0.3947  1.6531 -1.9630
  354MOL0     H48795   4.747   3.819   8.190 -0.9419  0.5906  0.0592
  354MOL0     H48796   4.746   3.974   8.270 -1.3232 -0.8760 -0.9712
  354MOL0     H48797   5.006   3.979   8.208 -0.6969 -0.1960 -0.5858
  354MOL0     H48798   4.881   4.026   8.084  3.4388  1.1569 -1.8837
  354MOL0     H48799   5.027   3.760   8.124 -0.6925 -0.1944  0.0829
  354MOL0     H48800   4.901   3.772   8.011  1.1521 -0.4181 -1.8772
  354MOL0     H48801   5.228   3.969   8.082 -0.1837 -1.3931  0.9563
  354MOL0     H48802   5.472   3.962   7.811 -0.7498 -1.9520  1.2435
  354MOL0     H48803   5.426   4.022   7.962 -1.1699 -1.8736  0.4960
  354MOL0     H48804   5.463   4.165   7.731  2.4900  3.0088  2.5661
  354MOL0     H48805   5.282   4.155   7.748 -0.9567 -3.6551  0.1038
  354MOL0     H48806   5.300   4.255   7.966  1.4366  1.7859  0.7301
  354MOL0     H48807   5.467   4.273   7.957  0.0138 -1.3988 -0.9622
  354MOL0     H48808   5.246   4.392   7.794  0.0880  1.0015 -1.8358
  354MOL0     H48809   5.342   4.488   7.903 -0.4273  0.6808 -2.0776
  354MOL0     H48810   5.583   4.507   7.932 -1.4057  0.1505 -1.4955
  354MOL0     H48811   5.714   4.662   8.033 -1.7554  1.9366 -0.3350
  354MOL0     H48812   5.796   4.796   7.945  2.0272  0.1163  1.1050
  354MOL0     H48813   5.882   4.644   7.972 -0.4386  0.7188 -1.2278
  354MOL0     H48814   5.992   5.027   7.681 -0.0446  1.3180 -0.6221
  354MOL0     H48815   6.044   5.229   7.578  0.4943 -0.0164 -0.9942
  354MOL0     H48816   6.058   5.414   7.467 -1.1958  0.7406  0.0991
  354MOL0     H48817   6.217   5.328   7.429 -2.1500 -2.7996  1.6986
  354MOL0     H48818   6.087   5.539   7.237  1.0769  0.3286  0.2617
  354MOL0     H48819   6.183   5.569   7.379  0.4653 -1.7305  0.8302
  354MOL0     H48820   6.263   5.408   7.130  0.2906  1.0750 -0.3405
  354MOL0     H48821   6.364   5.427   7.281 -3.6528 -0.3225  4.6889
  354MOL0     H48822   6.300   5.699   7.193  1.0597  2.0048 -1.7382
  354MOL0     H48823   6.288   5.619   7.050  0.7927 -0.7139 -0.4030
  354MOL0     H48824   6.513   5.699   7.074  1.9313  0.4069  0.0278
  354MOL0     H48825   6.542   5.604   7.212  0.3953 -0.4289 -0.0337
  354MOL0     H48826   6.437   5.460   6.970 -0.5405  0.5081  1.1759
  354MOL0     H48827   6.563   5.400   7.075 -0.7816 -1.2653 -1.8539
  354MOL0     H48828   6.695   5.433   6.903 -1.9384 -0.0321 -1.2448
  354MOL0     H48829   6.724   5.583   6.978  0.7662 -3.1324  2.1479
  354MOL0     H48830   6.586   5.700   6.821 -1.0493 -0.2313  0.2706
  354MOL0     H48831   6.523   5.550   6.752 -0.3997  1.7724 -0.3706
  354MOL0     H48832   6.029   5.025   7.194 -0.6055 -1.3695  0.1749
  354MOL0     H48833   5.962   4.829   7.306  0.1049 -0.0457  0.2438
  354MOL0     H48834   5.741   4.633   7.484 -0.5438  2.0230  0.0913
  354MOL0     H48835   5.547   4.491   7.513 -2.4867 -0.8373  1.7740
  354MOL0     H48836   4.820   3.623   8.833  0.7195 -0.9958  0.4032
  354MOL0     H48837   4.710   3.673   9.053 -2.8212  2.3673 -0.0906
  354MOL0     H48838   4.265   3.514   9.351 -0.0828  0.3447 -0.2186
  354MOL0     H48839   4.208   3.559   9.596 -2.4946  0.6822 -1.0233
  354MOL0     H48840   4.475   3.563   9.779 -1.2076  0.8879 -1.3335
  354MOL0     H48841   4.542   3.719   9.828  0.0017  2.5906 -5.1153
  354MOL0     H48842   4.351   3.720   9.997  3.4268  2.0991  1.1385
  354MOL0     H48843   4.476   3.603  10.033  2.3432 -1.3340 -2.9607
  354MOL0     H48844   4.224   3.519   9.876 -1.6173  1.0963  1.6463
  354MOL0     H48845   4.359   3.423   9.939  0.6495 -0.6115  3.8327
  354MOL0     H48846   4.290   3.433  10.141  1.0898  2.6172  0.0051
  354MOL0     H48847   4.132   3.403  10.060  1.2731 -1.4513 -4.5829
  354MOL0     H48848   4.112   3.774  10.261  0.3376 -0.1343  1.1109
  354MOL0     H48849   4.545   3.829   9.617  1.8426  2.1508 -3.8120
  354MOL0     H48850   4.611   3.922   9.376 -1.0217  0.1346  0.5555
  354MOL0     H48851   4.722   3.812   9.461 -0.6534  0.2750  0.3026
  354MOL0     H48852   4.675   3.787   9.290  1.6115  1.7047 -0.0152
  355MOL0     O48853   9.576   7.701   2.685 -0.4149  0.8814  0.0378
  355MOL0     C48854   9.486   7.654   2.621 -0.2497 -0.0711  0.7140
  355MOL0     O48855   9.501   7.588   2.503 -1.1189 -0.4991 -0.2011
  355MOL0     C48856   9.615   7.614   2.429  0.1672  0.3567 -0.6486
  355MOL0     C48857   9.679   7.742   2.410  0.6407  0.5065  0.6147
  355MOL0     C48858   9.783   7.756   2.327 -0.1217 -0.7546  0.6565
  355MOL0     C48859   9.839   7.648   2.274  0.0862 -0.5784  0.2675
  355MOL0     O48860   9.959   7.674   2.212  0.1195 -0.0510  0.0128
  355MOL0     C48861  10.069   7.659   2.287  0.2145  0.4965 -0.5363
  355MOL0     C48862  10.175   7.769   2.246  0.7749  0.5425 -0.7507
  355MOL0     C48863  10.120   7.905   2.223 -0.1037 -0.4164  0.0301
  355MOL0     C48864  10.213   8.004   2.146  1.0226  0.1999 -0.3889
  355MOL0     C48865  10.170   8.155   2.181 -0.3360  0.1800  1.0407
  355MOL0     C48866  10.304   8.230   2.168  1.1180  2.0686  0.5034
  355MOL0     C48867  10.283   8.372   2.203  0.9431  0.4070 -0.5208
  355MOL0     C48868  10.410   8.452   2.174  0.3632 -0.1361 -0.0114
  355MOL0     N48869  10.542   8.402   2.223  0.0274 -0.3192 -0.0592
  355MOL0     C48870  10.588   8.414   2.347 -1.1154  1.2148 -0.0116
  355MOL0     C48871  10.698   8.329   2.357 -0.1272  0.0337 -0.6912
  355MOL0     C48872  10.775   8.319   2.487  0.1536  0.1299 -0.3578
  355MOL0     C48873  10.868   8.196   2.496 -1.0168 -0.4152  0.1760
  355MOL0     C48874  10.789   8.061   2.501 -0.2519 -0.5029 -0.6077
  355MOL0     C48875  10.890   7.955   2.533 -0.6417  1.0440  0.3307
  355MOL0     O48876  10.818   7.835   2.589  0.1469 -0.3880  0.4770
  355MOL0     C48877  10.864   7.712   2.538  0.7055  0.4093  0.0294
  355MOL0     C48878  10.911   7.627   2.632 -0.2391  0.2427  0.1914
  355MOL0     C48879  10.973   7.506   2.601 -0.1629  0.5620 -0.1775
  355MOL0     C48880  11.007   7.417   2.715 -0.2098  0.3337 -0.2799
  355MOL0     C48881  10.978   7.478   2.460 -0.1049  0.2710 -0.5643
  355MOL0     C48882  11.052   7.360   2.403  0.0533  0.7427 -0.7168
  355MOL0     O48883  11.111   7.277   2.492 -0.0684  0.4665 -0.0722
  355MOL0     C48884  11.185   7.172   2.450  0.3670  1.1859 -0.3292
  355MOL0     C48885  11.256   7.157   2.333  0.3180  0.1380 -0.1376
  355MOL0     C48886  11.346   7.047   2.320  0.5934 -0.7017  0.5018
  355MOL0     C48887  11.350   6.942   2.411  0.1702  0.2340  1.0424
  355MOL0     O48888  11.435   6.835   2.415  0.2624  0.8437  0.6428
  355MOL0     C48889  11.463   6.778   2.284 -0.3100 -0.4073  0.3181
  355MOL0     C48890  11.578   6.674   2.302 -0.1124  0.1173 -0.0837
  355MOL0     C48891  11.707   6.735   2.339  0.0824  0.2477 -0.8336
  355MOL0     C48892  11.817   6.627   2.345 -1.1608  0.5129 -1.6239
  355MOL0     C48893  11.958   6.694   2.358 -0.1093  0.1370  0.2408
  355MOL0     C48894  12.079   6.597   2.374 -0.0104  0.2546 -0.3716
  355MOL0     C48895  12.115   6.525   2.245 -0.0330 -0.4081 -0.3810
  355MOL0     C48896  12.223   6.422   2.274  0.9492  0.0677 -0.4770
  355MOL0    Cl48897  12.191   6.293   2.400 -0.1187  0.3928  0.1557
  355MOL0     C48898  11.270   6.958   2.524 -1.5161  1.0765  0.7701
  355MOL0     C48899  11.189   7.065   2.539  0.1661  1.2488 -0.4135
  355MOL0     O48900  11.018   7.324   2.290  0.0142 -0.4844  0.3676
  355MOL0     C48901  10.929   7.560   2.360 -0.0986 -0.8198  0.3157
  355MOL0     C48902  10.873   7.679   2.398  0.1072 -0.6906 -1.5105
  355MOL0     N48903  10.724   8.272   2.243  0.5220 -0.1828  0.8066
  355MOL0     N48904  10.630   8.315   2.162 -0.2538  0.5043  0.6623
  355MOL0     C48905   9.776   7.518   2.283  0.0668 -0.2320  0.4131
  355MOL0     C48906   9.660   7.504   2.359 -0.6494  0.2426 -0.5662
  355MOL0     C48907   9.357   7.658   2.680 -1.1110 -0.6771 -0.0208
  355MOL0     C48908   9.277   7.550   2.669  0.7905  0.4620  0.4844
  355MOL0     C48909   9.146   7.532   2.721 -0.3269  0.4898 -0.5092
  355MOL0     C48910   9.096   7.640   2.794 -0.4407 -0.8041 -0.3349
  355MOL0     O48911   8.979   7.647   2.859  0.1436  0.0244 -0.5995
  355MOL0     C48912   8.910   7.519   2.890 -0.1689  0.0684  0.5404
  355MOL0     C48913   8.809   7.547   3.003 -0.0902 -0.5004 -0.2513
  355MOL0     C48914   8.884   7.594   3.134 -0.0010  0.3809  0.6342
  355MOL0     C48915   8.783   7.643   3.241 -0.4412  0.1360 -0.5172
  355MOL0     C48916   8.704   7.537   3.297 -0.2832 -0.3039  0.0027
  355MOL0     C48917   8.644   7.445   3.335  0.3559  0.2453 -0.2662
  355MOL0     C48918   9.172   7.760   2.797  0.6744 -0.3761  0.4434
  355MOL0     C48919   9.305   7.768   2.752  0.3145 -0.7007 -0.1893
  355MOL0     C48920   9.362   7.906   2.771 -0.8680 -0.8011 -0.1058
  355MOL0     H48921   9.667   7.836   2.463  0.6496 -0.1195  1.7549
  355MOL0     H48922   9.822   7.857   2.319 -0.0351 -0.7543  1.0626
  355MOL0     H48923  10.107   7.556   2.290 -1.7069 -0.2914 -1.7771
  355MOL0     H48924  10.054   7.675   2.394  0.9386 -1.6205 -0.0592
  355MOL0     H48925  10.259   7.783   2.314 -1.7591  4.5080  2.0335
  355MOL0     H48926  10.209   7.730   2.150  0.5983 -0.2633 -0.4952
  355MOL0     H48927  10.025   7.903   2.169 -0.2564  0.1191  0.2698
  355MOL0     H48928  10.095   7.953   2.318  0.9837  1.9004 -0.7738
  355MOL0     H48929  10.317   7.988   2.177  0.1539 -0.5783  2.4925
  355MOL0     H48930  10.210   7.979   2.040  0.9696 -2.2953  0.1498
  355MOL0     H48931  10.126   8.173   2.279  0.0938  0.8800  1.1111
  355MOL0     H48932  10.090   8.192   2.116 -0.8167  0.8329  1.9848
  355MOL0     H48933  10.382   8.193   2.233  0.7616  0.5872  0.1182
  355MOL0     H48934  10.343   8.215   2.067  3.0755  1.4451  1.3078
  355MOL0     H48935  10.250   8.380   2.307  1.3223 -0.5561 -0.3171
  355MOL0     H48936  10.197   8.412   2.149 -0.1189 -2.3314 -0.9879
  355MOL0     H48937  10.416   8.464   2.066  1.1551  0.2243  0.0658
  355MOL0     H48938  10.402   8.556   2.205 -0.5547  0.4313 -2.0283
  355MOL0     H48939  10.550   8.491   2.414 -2.2718  0.8675 -0.2559
  355MOL0     H48940  10.709   8.308   2.574  0.6609  1.7306  0.2753
  355MOL0     H48941  10.834   8.411   2.489  0.9201 -0.2722 -2.2547
  355MOL0     H48942  10.930   8.183   2.407 -0.1246  2.9461  0.2007
  355MOL0     H48943  10.938   8.206   2.579 -0.5935 -0.6413 -0.1499
  355MOL0     H48944  10.716   8.078   2.581 -2.8810  0.1861 -2.9789
  355MOL0     H48945  10.737   8.028   2.411 -0.7916 -3.3115  0.6474
  355MOL0     H48946  10.953   7.931   2.447 -1.1358 -0.5304  0.3804
  355MOL0     H48947  10.959   7.993   2.609  1.4215  1.6591 -1.7222
  355MOL0     H48948  10.906   7.667   2.732 -1.2816  3.6400 -1.0634
  355MOL0     H48949  11.116   7.406   2.728 -0.5192 -0.0802  2.5833
  355MOL0     H48950  10.973   7.313   2.705  2.5798 -1.1077  3.0357
  355MOL0     H48951  10.964   7.450   2.810 -0.0779 -3.1673  1.1546
  355MOL0     H48952  11.241   7.229   2.253 -2.7782 -0.2161  0.0049
  355MOL0     H48953  11.414   7.039   2.236  1.5908 -1.7044  1.3689
  355MOL0     H48954  11.369   6.731   2.254  0.6922 -1.4227 -1.4356
  355MOL0     H48955  11.487   6.852   2.207  1.4702 -3.3463 -2.2056
  355MOL0     H48956  11.553   6.598   2.377 -2.3031  0.7086 -0.1531
  355MOL0     H48957  11.588   6.622   2.206 -1.4170 -0.0565 -0.1450
  355MOL0     H48958  11.704   6.785   2.436  0.5326 -1.2809 -0.0009
  355MOL0     H48959  11.734   6.818   2.272 -2.6980  1.0186 -1.1007
  355MOL0     H48960  11.816   6.562   2.257  2.9886 -1.2796 -0.5787
  355MOL0     H48961  11.804   6.557   2.428 -1.9806  1.1902 -1.1589
  355MOL0     H48962  11.974   6.761   2.273 -4.2616  3.0881  1.4813
  355MOL0     H48963  11.949   6.749   2.452 -5.9818 -2.5045  1.7133
  355MOL0     H48964  12.050   6.523   2.450 -5.5552 -1.8626 -3.8657
  355MOL0     H48965  12.157   6.665   2.408  0.3527 -0.4935  0.3198
  355MOL0     H48966  12.155   6.594   2.170 -0.6016  0.4332  0.0644
  355MOL0     H48967  12.025   6.481   2.200 -0.9419 -0.5103  1.4383
  355MOL0     H48968  12.322   6.469   2.276  1.3791 -0.8120  1.7936
  355MOL0     H48969  12.229   6.356   2.187  0.4386 -1.1539  0.3805
  355MOL0     H48970  11.273   6.878   2.598 -1.5049  0.7819  0.4526
  355MOL0     H48971  11.149   7.077   2.639  2.5386  1.2270  0.5998
  355MOL0     H48972  10.936   7.531   2.255  2.8933  0.8737 -0.0623
  355MOL0     H48973  10.831   7.747   2.324 -2.3563 -2.3198 -1.6977
  355MOL0     H48974   9.824   7.434   2.233 -1.5640 -1.7809  1.3308
  355MOL0     H48975   9.610   7.409   2.372  0.1485  0.0873  2.0522
  355MOL0     H48976   9.313   7.451   2.644 -0.3059 -1.1500  4.5328
  355MOL0     H48977   9.096   7.438   2.705 -1.7706  1.2508 -0.6378
  355MOL0     H48978   8.857   7.490   2.799  0.2837  0.2300  0.2210
  355MOL0     H48979   8.979   7.437   2.914 -1.2478 -1.8886 -2.4062
  355MOL0     H48980   8.741   7.467   3.031 -1.6705  0.3405 -1.5058
  355MOL0     H48981   8.735   7.619   2.966 -2.5730 -3.3071 -1.0694
  355MOL0     H48982   8.939   7.508   3.171  0.0138 -0.3342 -0.9373
  355MOL0     H48983   8.944   7.683   3.112  1.1650 -1.2451 -4.1578
  355MOL0     H48984   8.703   7.711   3.208 -1.7594 -1.6561 -1.1668
  355MOL0     H48985   8.840   7.698   3.317  2.4171 -0.0818 -2.3382
  355MOL0     H48986   8.586   7.365   3.374 -0.6057  1.3557  0.6676
  355MOL0     H48987   9.128   7.845   2.847 -0.4205 -1.8367  2.0542
  355MOL0     H48988   9.407   7.938   2.677  1.2045  0.1139  1.1241
  355MOL0     H48989   9.295   7.982   2.810  2.3337  1.4681  1.4152
  355MOL0     H48990   9.457   7.904   2.825  1.0551 -0.5142 -3.2023
  356MOL0     O48991   8.808   7.425   6.502 -0.1249  0.4195  0.0957
  356MOL0     C48992   8.771   7.310   6.502 -0.1525 -0.1568 -0.4982
  356MOL0     O48993   8.850   7.206   6.536 -0.4993 -0.4746 -1.0162
  356MOL0     C48994   8.984   7.239   6.565 -0.2415  0.4013 -0.6463
  356MOL0     C48995   9.064   7.293   6.457  0.3516  0.6783 -0.1069
  356MOL0     C48996   9.198   7.309   6.480  0.3244  0.3502  0.0894
  356MOL0     C48997   9.256   7.259   6.596  0.0630 -0.8548  0.4286
  356MOL0     O48998   9.389   7.252   6.612 -0.1957 -0.9546  0.2765
  356MOL0     C48999   9.447   7.226   6.743 -0.0242  0.8428 -0.0419
  356MOL0     C49000   9.599   7.192   6.720 -0.4324 -0.2090 -0.5586
  356MOL0     C49001   9.684   7.141   6.829 -0.3095 -0.0218 -0.5755
  356MOL0     C49002   9.833   7.124   6.790 -0.1658  1.0086 -0.1589
  356MOL0     C49003   9.916   7.109   6.910  0.4733  0.1014 -0.2733
  356MOL0     C49004  10.068   7.120   6.876  0.8057  0.3283  0.0070
  356MOL0     C49005  10.156   7.094   6.997 -0.6798  0.4151  0.3822
  356MOL0     C49006  10.253   7.205   7.032 -0.0992  0.1866  0.4947
  356MOL0     N49007  10.366   7.205   6.936  0.6717 -0.5794  0.6214
  356MOL0     C49008  10.397   7.301   6.843 -0.2710 -0.9686 -0.0205
  356MOL0     C49009  10.520   7.268   6.804 -0.1699 -0.2676  0.3444
  356MOL0     C49010  10.597   7.346   6.706 -0.1882  1.4172  0.0119
  356MOL0     C49011  10.587   7.270   6.572 -0.5938  1.1799 -0.2195
  356MOL0     C49012  10.658   7.343   6.460  0.0919 -0.0391  0.1530
  356MOL0     C49013  10.673   7.245   6.338  0.7523 -0.0391  0.6276
  356MOL0     O49014  10.553   7.250   6.252 -0.5409  0.1489 -0.1581
  356MOL0     C49015  10.532   7.153   6.156 -0.5782 -0.8997  0.0973
  356MOL0     C49016  10.618   7.052   6.120 -0.5374  0.7654 -0.7600
  356MOL0     C49017  10.586   6.948   6.017 -0.5270 -0.1807 -0.5123
  356MOL0     C49018  10.681   6.833   5.983  0.5380  0.5482  0.6839
  356MOL0     C49019  10.454   6.958   5.965  0.5588  0.3652 -0.7124
  356MOL0     C49020  10.403   6.874   5.852 -0.1727 -0.1120 -1.1025
  356MOL0     O49021  10.500   6.828   5.774 -0.2309 -0.5086 -0.3987
  356MOL0     C49022  10.447   6.766   5.665  0.6869  0.8755 -0.8106
  356MOL0     C49023  10.371   6.821   5.561  0.2152 -0.0980  0.3242
  356MOL0     C49024  10.327   6.745   5.453 -0.3816  0.3009 -0.5288
  356MOL0     C49025  10.366   6.612   5.439 -0.1336 -0.3977  0.2386
  356MOL0     O49026  10.320   6.537   5.330 -0.2703  0.2364 -0.6916
  356MOL0     C49027  10.417   6.505   5.226  0.1839  0.1842  0.3756
  356MOL0     C49028  10.338   6.494   5.095  0.9380  0.6425  0.2766
  356MOL0     C49029  10.426   6.436   4.988  0.7270  1.0010 -0.7297
  356MOL0     C49030  10.355   6.430   4.855 -0.0176 -0.3309 -0.0532
  356MOL0     C49031  10.443   6.383   4.743 -0.9144 -0.1225  0.1110
  356MOL0     C49032  10.549   6.272   4.776  0.5542  0.4044  0.0544
  356MOL0     C49033  10.628   6.215   4.661  0.7497 -0.9866  0.5340
  356MOL0     C49034  10.552   6.152   4.544 -0.3223  0.2751  0.1041
  356MOL0    Cl49035  10.645   6.158   4.391 -0.1010  0.0540 -0.5943
  356MOL0     C49036  10.440   6.550   5.537 -0.8024  0.0686 -0.5003
  356MOL0     C49037  10.477   6.627   5.651 -0.1431  0.0212  0.4115
  356MOL0     O49038  10.280   6.865   5.835 -0.0889  0.1388  0.4951
  356MOL0     C49039  10.359   7.053   6.024  0.1783  0.2371  0.3213
  356MOL0     C49040  10.399   7.155   6.110 -0.4365 -0.7862 -0.0698
  356MOL0     N49041  10.569   7.158   6.872  0.6997 -1.5224  0.5821
  356MOL0     N49042  10.473   7.113   6.946 -0.7657 -0.0684 -0.8703
  356MOL0     C49043   9.168   7.232   6.697 -0.4815 -0.4751 -0.0596
  356MOL0     C49044   9.034   7.218   6.687 -0.1431  0.1865 -0.0228
  356MOL0     C49045   8.630   7.277   6.492 -0.7900 -0.2363  1.5924
  356MOL0     C49046   8.578   7.167   6.563 -0.5475 -1.5354  0.9631
  356MOL0     C49047   8.452   7.116   6.537  0.5061  0.7292  0.2197
  356MOL0     C49048   8.373   7.176   6.444 -0.8286  0.1164 -0.2882
  356MOL0     O49049   8.244   7.116   6.438 -0.3349 -0.3566 -0.4912
  356MOL0     C49050   8.148   7.172   6.350  0.6375  0.0446  0.0510
  356MOL0     C49051   8.008   7.125   6.400 -1.0485 -0.2042 -0.2598
  356MOL0     C49052   7.956   7.176   6.538 -0.0689  0.4977  1.0813
  356MOL0     C49053   7.820   7.115   6.571 -0.3458  0.4668 -0.9766
  356MOL0     C49054   7.791   7.165   6.708  0.3500  0.3194  0.4936
  356MOL0     C49055   7.763   7.210   6.814 -0.2518  0.9430 -0.1494
  356MOL0     C49056   8.415   7.285   6.371  0.2050 -0.3045  0.1759
  356MOL0     C49057   8.543   7.336   6.391 -0.1779  0.1367 -0.9241
  356MOL0     C49058   8.578   7.460   6.316 -0.0835 -0.1084  0.4105
  356MOL0     H49059   9.016   7.315   6.362 -0.8970  1.2344  0.6171
  356MOL0     H49060   9.263   7.354   6.405  2.1076 -0.2993  1.1755
  356MOL0     H49061   9.413   7.140   6.801  0.3499  0.5007 -0.3223
  356MOL0     H49062   9.433   7.319   6.799 -0.0262  0.6259  0.3192
  356MOL0     H49063   9.589   7.110   6.648 -2.9148 -2.8493  2.4893
  356MOL0     H49064   9.645   7.285   6.685  0.8693 -1.1175 -1.3371
  356MOL0     H49065   9.657   7.198   6.919 -0.4539 -1.7709  0.5500
  356MOL0     H49066   9.635   7.045   6.849  0.2681  0.2018  2.5446
  356MOL0     H49067   9.837   7.039   6.722 -0.5676  1.1372 -0.3473
  356MOL0     H49068   9.865   7.215   6.737 -1.5789  0.0432 -2.8423
  356MOL0     H49069   9.894   7.014   6.959 -0.4141  0.3373 -0.1916
  356MOL0     H49070   9.885   7.184   6.984 -1.9549  0.0817 -1.1947
  356MOL0     H49071  10.093   7.049   6.797  1.6167 -0.1554  0.6943
  356MOL0     H49072  10.082   7.214   6.821 -2.3035 -2.1367 -6.0999
  356MOL0     H49073  10.213   7.002   6.978  0.7089  1.4731 -0.7981
  356MOL0     H49074  10.096   7.069   7.085 -0.8615 -1.1027 -0.1333
  356MOL0     H49075  10.203   7.302   7.047  0.3054  0.4259  0.2928
  356MOL0     H49076  10.302   7.198   7.129  2.3024  2.4410 -0.4605
  356MOL0     H49077  10.343   7.387   6.805 -0.6128 -0.8159  0.8035
  356MOL0     H49078  10.700   7.347   6.742  0.6928 -0.2150 -2.2458
  356MOL0     H49079  10.557   7.448   6.698 -6.2745 -0.6779 -2.3691
  356MOL0     H49080  10.645   7.178   6.578  0.5207  1.6780 -2.4408
  356MOL0     H49081  10.482   7.265   6.541 -0.0015 -0.2755 -2.1406
  356MOL0     H49082  10.604   7.432   6.427  1.2820  1.2433  1.4888
  356MOL0     H49083  10.755   7.378   6.497  1.5002 -0.8792 -2.5096
  356MOL0     H49084  10.760   7.264   6.275 -1.3865  0.6515 -2.3397
  356MOL0     H49085  10.691   7.145   6.378 -0.1803  0.6331  2.8605
  356MOL0     H49086  10.714   7.038   6.168  0.1287 -0.4620 -2.3708
  356MOL0     H49087  10.634   6.734   5.979  2.4353 -0.4428  1.6565
  356MOL0     H49088  10.755   6.833   6.064  0.3536 -0.1734  0.8625
  356MOL0     H49089  10.740   6.838   5.891  0.7050  1.1872  0.8228
  356MOL0     H49090  10.343   6.925   5.575 -1.0344 -0.4784  0.8039
  356MOL0     H49091  10.268   6.799   5.379  0.5060  2.4648  0.2671
  356MOL0     H49092  10.477   6.596   5.222  1.4853 -0.6498 -3.2481
  356MOL0     H49093  10.473   6.411   5.234  1.9065  1.2545  1.3877
  356MOL0     H49094  10.244   6.440   5.113  0.0474  1.9591 -0.2342
  356MOL0     H49095  10.304   6.591   5.058  0.2980  0.0785 -0.6725
  356MOL0     H49096  10.454   6.333   5.010  0.3675  0.6559 -1.8306
  356MOL0     H49097  10.520   6.491   4.983  2.2607 -1.5775 -1.8679
  356MOL0     H49098  10.317   6.529   4.826  0.3890  0.1169  0.8927
  356MOL0     H49099  10.264   6.371   4.866 -0.2796 -0.5168 -2.7149
  356MOL0     H49100  10.376   6.350   4.664  1.3532  2.5097 -3.1811
  356MOL0     H49101  10.498   6.467   4.702 -1.3575 -0.3042 -0.8782
  356MOL0     H49102  10.488   6.190   4.813  0.3264  0.7523  0.4609
  356MOL0     H49103  10.620   6.316   4.846  1.2860  1.9334 -1.5426
  356MOL0     H49104  10.695   6.137   4.699  0.0500 -3.5363 -2.9716
  356MOL0     H49105  10.686   6.293   4.611  1.0564 -1.5766 -0.0413
  356MOL0     H49106  10.470   6.224   4.529 -0.2451 -0.2944 -4.0917
  356MOL0     H49107  10.522   6.049   4.564  0.8241  0.3168  2.3901
  356MOL0     H49108  10.475   6.448   5.524  1.2399  0.7335 -0.5159
  356MOL0     H49109  10.547   6.577   5.717  1.4170 -2.0502 -2.6216
  356MOL0     H49110  10.253   7.065   6.003  0.0622 -1.7566 -0.4388
  356MOL0     H49111  10.320   7.228   6.127 -0.4029 -0.6889 -0.3285
  356MOL0     H49112   9.201   7.208   6.798 -1.4080 -1.1352  0.1081
  356MOL0     H49113   8.976   7.184   6.772 -2.9749  2.2860 -0.9637
  356MOL0     H49114   8.635   7.127   6.646  0.0881 -0.1354  1.2246
  356MOL0     H49115   8.399   7.042   6.598  0.1257  0.8710  0.0649
  356MOL0     H49116   8.146   7.281   6.341 -2.9433  0.0645 -0.6074
  356MOL0     H49117   8.159   7.132   6.249 -2.3144  0.9009 -0.7099
  356MOL0     H49118   8.005   7.016   6.390 -0.6740 -0.2925  0.5116
  356MOL0     H49119   7.931   7.162   6.331 -1.5419  1.5490  1.1242
  356MOL0     H49120   8.026   7.137   6.612 -0.6132 -0.0035  1.3486
  356MOL0     H49121   7.964   7.284   6.545 -0.8484  0.6519 -0.0412
  356MOL0     H49122   7.832   7.006   6.569  0.5541  0.5203  0.4674
  356MOL0     H49123   7.739   7.127   6.498 -0.9367  0.2639 -0.3744
  356MOL0     H49124   7.738   7.237   6.914  2.3759 -3.4651  2.0194
  356MOL0     H49125   8.358   7.340   6.297  0.9782  1.5251  0.8757
  356MOL0     H49126   8.586   7.534   6.397  1.7208 -2.6960  2.8223
  356MOL0     H49127   8.676   7.455   6.268  1.1997 -0.8726  2.8910
  356MOL0     H49128   8.501   7.486   6.243  1.8281  2.0492 -0.9353
  357MOL0     O49129   5.947   8.183   6.682 -0.5957  0.2555  0.7844
  357MOL0     C49130   5.991   8.295   6.718  0.5153 -0.0017  0.1515
  357MOL0     O49131   6.008   8.412   6.644  0.0424 -0.8301  0.0580
  357MOL0     C49132   5.968   8.422   6.511 -0.4157 -0.4668  0.4808
  357MOL0     C49133   5.994   8.315   6.426  0.1972 -0.2330  0.3866
  357MOL0     C49134   5.947   8.314   6.291  0.7428 -0.6861 -0.4076
  357MOL0     C49135   5.871   8.427   6.246 -1.1979  0.2955 -0.1418
  357MOL0     O49136   5.842   8.429   6.119  0.0993  0.0843  1.0146
  357MOL0     C49137   5.707   8.422   6.076  0.2168  1.3297 -0.1340
  357MOL0     C49138   5.713   8.344   5.943 -0.1863 -0.2056 -0.6024
  357MOL0     C49139   5.771   8.438   5.827 -0.0727  0.5340 -0.0907
  357MOL0     C49140   5.708   8.385   5.699  0.5131  0.3225 -0.5215
  357MOL0     C49141   5.780   8.471   5.591  0.8019  0.0721  0.4209
  357MOL0     C49142   5.713   8.437   5.456  0.4945 -0.3227 -0.3038
  357MOL0     C49143   5.733   8.539   5.345 -0.0707 -0.3617  0.7839
  357MOL0     C49144   5.726   8.474   5.210  0.1966  0.4435 -0.1262
  357MOL0     N49145   5.601   8.418   5.165  0.2573  0.5919 -0.6623
  357MOL0     C49146   5.559   8.288   5.209 -0.0134  0.9978 -0.2006
  357MOL0     C49147   5.445   8.263   5.136 -0.1375  0.4629  0.3834
  357MOL0     C49148   5.353   8.140   5.159  0.6757 -0.4602 -0.3367
  357MOL0     C49149   5.231   8.128   5.070 -0.4825 -0.9161 -0.0243
  357MOL0     C49150   5.257   8.071   4.931  0.3954  1.2356  0.1899
  357MOL0     C49151   5.129   8.020   4.854  0.6071  0.1813  0.2276
  357MOL0     O49152   5.160   7.996   4.709  0.1268  1.0002 -0.0418
  357MOL0     C49153   5.063   7.942   4.635 -1.2479 -0.0184 -0.4083
  357MOL0     C49154   5.051   7.991   4.502  0.5044 -0.5759  0.1394
  357MOL0     C49155   4.949   7.956   4.413  0.4389  0.0025 -0.7461
  357MOL0     C49156   4.946   8.024   4.285  0.0229 -0.5406 -0.5756
  357MOL0     C49157   4.859   7.849   4.457 -0.3628 -0.3659  0.4249
  357MOL0     C49158   4.747   7.798   4.367  0.3231  1.0588 -0.5264
  357MOL0     O49159   4.739   7.846   4.243  0.6784  0.6012  0.1054
  357MOL0     C49160   4.643   7.787   4.159  0.2672 -0.0607 -0.1746
  357MOL0     C49161   4.695   7.737   4.042 -0.0798  0.8443 -0.2166
  357MOL0     C49162   4.606   7.688   3.943 -1.6913 -1.3598 -1.5473
  357MOL0     C49163   4.467   7.707   3.952  0.3762 -0.1799 -0.8691
  357MOL0     O49164   4.401   7.699   3.823  0.0062  0.4823 -0.5688
  357MOL0     C49165   4.264   7.744   3.822 -0.1817 -0.0414  0.5281
  357MOL0     C49166   4.162   7.659   3.889  0.7550  0.0568 -0.2356
  357MOL0     C49167   4.162   7.520   3.830  0.0808  0.8814  0.5778
  357MOL0     C49168   4.064   7.428   3.902  0.0155 -0.3507 -0.3749
  357MOL0     C49169   4.039   7.278   3.854  0.2179 -1.3670 -0.0908
  357MOL0     C49170   3.936   7.209   3.942 -0.0287  0.7800  0.5163
  357MOL0     C49171   3.921   7.058   3.917 -0.2774  0.0964 -0.0912
  357MOL0     C49172   3.792   6.993   3.963 -0.4333 -0.6011 -0.0389
  357MOL0    Cl49173   3.753   7.069   4.134  0.5013  0.5140  0.3424
  357MOL0     C49174   4.414   7.765   4.070 -0.2334 -0.4281 -0.3267
  357MOL0     C49175   4.499   7.795   4.173  0.3172 -0.3442  0.0609
  357MOL0     O49176   4.672   7.710   4.416 -0.3507 -0.6673 -0.2458
  357MOL0     C49177   4.870   7.803   4.583 -0.6788  0.0375 -0.5761
  357MOL0     C49178   4.968   7.854   4.672 -0.4985 -0.7433 -0.0707
  357MOL0     N49179   5.430   8.372   5.053 -0.2641  0.2450 -0.4763
  357MOL0     N49180   5.519   8.465   5.064 -0.9726  0.3097 -0.0128
  357MOL0     C49181   5.845   8.532   6.331  0.4878  1.6647 -0.9961
  357MOL0     C49182   5.894   8.532   6.463 -1.0183 -0.1339 -0.9355
  357MOL0     C49183   6.057   8.303   6.850  0.1980  0.4660  0.4884
  357MOL0     C49184   6.146   8.404   6.877 -0.0924  0.7276 -0.2447
  357MOL0     C49185   6.236   8.401   6.993  0.1800 -0.2085 -0.0913
  357MOL0     C49186   6.216   8.305   7.090  0.4029  0.1481 -0.8018
  357MOL0     O49187   6.311   8.306   7.192  0.6788  0.2699 -0.2084
  357MOL0     C49188   6.291   8.231   7.313 -0.7208  0.5905  0.5661
  357MOL0     C49189   6.408   8.233   7.411 -0.1791  0.1376 -0.3154
  357MOL0     C49190   6.449   8.367   7.461  0.2985  0.2374 -0.3512
  357MOL0     C49191   6.336   8.425   7.538 -0.1152  0.1066 -0.2551
  357MOL0     C49192   6.388   8.547   7.604 -0.2452  0.2530 -0.0326
  357MOL0     C49193   6.431   8.646   7.658 -0.2365 -0.4643  0.7976
  357MOL0     C49194   6.101   8.223   7.082 -0.8540  0.0430  0.3125
  357MOL0     C49195   6.037   8.206   6.952 -0.3681  0.1284 -0.3514
  357MOL0     C49196   5.937   8.091   6.953  0.2390  1.0529 -0.4535
  357MOL0     H49197   6.045   8.225   6.460  0.2275 -0.2845  0.2055
  357MOL0     H49198   5.961   8.226   6.229 -3.1241 -3.2295  1.9408
  357MOL0     H49199   5.659   8.520   6.067  0.2575  1.2774 -1.0282
  357MOL0     H49200   5.646   8.379   6.156  1.4712 -1.4305 -0.5480
  357MOL0     H49201   5.767   8.252   5.966 -1.0625 -0.0352  2.7300
  357MOL0     H49202   5.609   8.324   5.917  0.0689 -0.7933 -1.1953
  357MOL0     H49203   5.747   8.543   5.844 -3.5489 -0.3198  1.3050
  357MOL0     H49204   5.878   8.431   5.809 -0.0244 -0.6870  0.5294
  357MOL0     H49205   5.740   8.281   5.684  2.1918  0.1973  3.0081
  357MOL0     H49206   5.600   8.390   5.712  0.8209 -0.5389  3.8538
  357MOL0     H49207   5.889   8.476   5.591  0.7603  3.4115  0.3113
  357MOL0     H49208   5.751   8.575   5.610 -3.2975 -0.7492 -0.3029
  357MOL0     H49209   5.749   8.338   5.424 -1.0981 -0.8644 -0.4721
  357MOL0     H49210   5.605   8.435   5.467  0.5170  0.6634  0.1407
  357MOL0     H49211   5.832   8.583   5.360 -0.1991  0.8152 -1.4380
  357MOL0     H49212   5.651   8.608   5.365  0.9168  0.7078  1.2510
  357MOL0     H49213   5.754   8.558   5.146 -0.1378  2.5827  2.3546
  357MOL0     H49214   5.810   8.407   5.195  2.0016  2.1203  1.7886
  357MOL0     H49215   5.600   8.221   5.284  1.9765 -1.5271 -3.2753
  357MOL0     H49216   5.335   8.121   5.265  1.9229  2.4850  0.5269
  357MOL0     H49217   5.430   8.068   5.128  0.0533 -2.2883  2.1227
  357MOL0     H49218   5.146   8.077   5.115 -2.4511  0.7732 -1.6200
  357MOL0     H49219   5.200   8.229   5.043  2.9044  0.3359  0.3322
  357MOL0     H49220   5.313   8.140   4.867 -1.5805  2.2220 -0.5702
  357MOL0     H49221   5.324   7.987   4.949  0.4440  1.7094  2.4874
  357MOL0     H49222   5.092   7.933   4.909  0.9486  1.4024  2.5443
  357MOL0     H49223   5.048   8.094   4.861 -0.9891 -1.3041 -1.5042
  357MOL0     H49224   5.114   8.068   4.458 -1.1426  0.1827 -0.9772
  357MOL0     H49225   5.043   8.064   4.256  1.5343 -3.3572  0.2737
  357MOL0     H49226   4.861   8.094   4.283  1.8133  1.9526  2.3398
  357MOL0     H49227   4.926   7.959   4.199  1.6833  1.9143 -2.9927
  357MOL0     H49228   4.803   7.724   4.031 -0.2103 -1.2991  0.6407
  357MOL0     H49229   4.648   7.643   3.854  0.8143  2.3076 -2.4266
  357MOL0     H49230   4.251   7.847   3.858 -0.5079  0.4091 -0.8419
  357MOL0     H49231   4.244   7.745   3.715 -1.1711 -1.5751  0.6739
  357MOL0     H49232   4.187   7.633   3.992 -0.4822  1.8259  0.5605
  357MOL0     H49233   4.063   7.705   3.900  1.1527  0.7408  0.5427
  357MOL0     H49234   4.264   7.480   3.829 -1.0649 -2.4877  1.8603
  357MOL0     H49235   4.137   7.534   3.725 -0.8811  4.1177  1.1125
  357MOL0     H49236   3.972   7.487   3.906 -0.7691 -1.5089 -0.6786
  357MOL0     H49237   4.102   7.409   4.003 -1.3246 -0.8878  0.0513
  357MOL0     H49238   4.005   7.280   3.750 -0.7844 -0.1796  0.2348
  357MOL0     H49239   4.130   7.218   3.865 -0.2725 -1.9372  1.1144
  357MOL0     H49240   3.842   7.257   3.913 -0.6119  0.2181  1.4326
  357MOL0     H49241   3.974   7.236   4.041 -1.6807  3.5797  0.5219
  357MOL0     H49242   4.005   7.007   3.965 -0.0038  0.8010  0.1908
  357MOL0     H49243   3.938   7.045   3.810 -0.2845  3.8573 -0.7046
  357MOL0     H49244   3.808   6.885   3.964  1.5523 -0.4859 -3.7249
  357MOL0     H49245   3.706   7.014   3.898  0.6564  1.4193 -0.9351
  357MOL0     H49246   4.306   7.777   4.072 -0.5421 -2.8407  0.3001
  357MOL0     H49247   4.447   7.833   4.260 -2.4720  2.5195 -2.5899
  357MOL0     H49248   4.794   7.731   4.611  1.8930 -2.6477 -0.1501
  357MOL0     H49249   4.965   7.816   4.774  1.1850  5.0346  2.5713
  357MOL0     H49250   5.780   8.613   6.301  0.3280  1.6185 -0.7785
  357MOL0     H49251   5.868   8.604   6.540  1.4486 -0.7384  0.5643
  357MOL0     H49252   6.161   8.485   6.806  0.4106  1.8813  1.1435
  357MOL0     H49253   6.326   8.462   6.989 -0.1909  0.3064 -1.0571
  357MOL0     H49254   6.193   8.254   7.356 -1.7767  1.2445 -2.0226
  357MOL0     H49255   6.281   8.126   7.282  1.3278  0.7064 -0.6801
  357MOL0     H49256   6.495   8.201   7.352 -0.3488 -1.7240  0.3620
  357MOL0     H49257   6.394   8.165   7.495  2.2810 -0.8591 -0.6275
  357MOL0     H49258   6.548   8.370   7.507  0.7443 -1.3144 -1.1383
  357MOL0     H49259   6.440   8.424   7.368 -3.4541 -0.7948 -0.7916
  357MOL0     H49260   6.291   8.354   7.608  1.4479 -3.6008 -2.7426
  357MOL0     H49261   6.259   8.469   7.473 -0.4764  1.4109  0.9978
  357MOL0     H49262   6.452   8.739   7.706  1.1891  0.6064 -1.6869
  357MOL0     H49263   6.070   8.149   7.155 -0.9743  0.0089  0.2270
  357MOL0     H49264   5.933   8.036   7.047  0.6395  1.6848 -0.0629
  357MOL0     H49265   5.844   8.144   6.931 -0.7045 -0.1341  0.5741
  357MOL0     H49266   5.969   8.028   6.869  0.1903  3.2454 -2.2277
  358MOL0     O49267   8.828   5.460   7.619  0.3533  0.0858 -0.1236
  358MOL0     C49268   8.808   5.442   7.744 -0.5709 -0.2505  0.2020
  358MOL0     O49269   8.731   5.512   7.820 -0.1093 -0.6875  0.3153
  358MOL0     C49270   8.627   5.568   7.761 -0.5095 -0.0035 -0.4701
  358MOL0     C49271   8.551   5.504   7.659  0.0582  0.3517 -0.4996
  358MOL0     C49272   8.439   5.566   7.606  0.1115  0.8388  0.0157
  358MOL0     C49273   8.400   5.689   7.645  0.4427 -0.9788 -0.7806
  358MOL0     O49274   8.297   5.750   7.585 -0.2912 -0.6328 -0.3328
  358MOL0     C49275   8.198   5.663   7.513 -0.6836 -1.0926  0.0777
  358MOL0     C49276   8.066   5.730   7.510 -0.0793  1.0066  0.1293
  358MOL0     C49277   7.954   5.626   7.477 -0.1271 -0.3490 -0.9796
  358MOL0     C49278   7.831   5.695   7.416  0.2705 -0.0162 -0.5065
  358MOL0     C49279   7.738   5.738   7.529  0.0018 -0.8194 -0.2486
  358MOL0     C49280   7.623   5.819   7.479  0.1758  0.1667 -0.4704
  358MOL0     C49281   7.527   5.842   7.588 -0.0151  0.6887 -0.0846
  358MOL0     C49282   7.556   5.970   7.657  0.5233  0.4067  0.6230
  358MOL0     N49283   7.458   6.000   7.765 -0.6151  0.3763  0.0724
  358MOL0     C49284   7.429   6.135   7.798  1.2216  0.5055 -0.7559
  358MOL0     C49285   7.375   6.125   7.928 -0.2501 -0.1667 -0.0960
  358MOL0     C49286   7.336   6.247   8.015 -0.3471  1.2079  0.4821
  358MOL0     C49287   7.433   6.367   8.006  1.0138 -0.1663  0.0085
  358MOL0     C49288   7.418   6.464   8.124  0.7235  0.0453 -0.9461
  358MOL0     C49289   7.553   6.521   8.150  0.7016 -0.1312  0.4110
  358MOL0     O49290   7.595   6.607   8.037  0.5193 -0.0298 -0.7312
  358MOL0     C49291   7.728   6.626   8.019 -0.9202  0.5210  0.3257
  358MOL0     C49292   7.761   6.679   7.888 -0.2393 -0.1373  0.5614
  358MOL0     C49293   7.892   6.690   7.846  0.9526 -0.0699 -0.4950
  358MOL0     C49294   7.927   6.745   7.706 -0.1166  0.8135  0.0203
  358MOL0     C49295   8.002   6.654   7.938  1.1137 -0.0125 -0.6476
  358MOL0     C49296   8.152   6.667   7.912  1.0932  0.0351  0.0788
  358MOL0     O49297   8.239   6.631   8.019  0.5626 -0.2206  0.3257
  358MOL0     C49298   8.368   6.620   7.989  0.4030 -0.0755 -0.3423
  358MOL0     C49299   8.463   6.684   8.065 -0.9713 -0.6437 -0.4393
  358MOL0     C49300   8.595   6.650   8.054  0.2946  0.2299  0.1866
  358MOL0     C49301   8.647   6.552   7.964  0.4292  0.3342 -1.0081
  358MOL0     O49302   8.767   6.491   7.974  0.3037 -0.0632  0.0905
  358MOL0     C49303   8.872   6.579   8.027 -0.1859 -0.5721 -0.7798
  358MOL0     C49304   9.005   6.511   8.016  0.0399  0.5532 -0.1238
  358MOL0     C49305   9.036   6.454   7.875 -0.2258  0.3954 -0.5813
  358MOL0     C49306   9.153   6.358   7.884 -0.9207 -0.2103  0.1168
  358MOL0     C49307   9.221   6.327   7.744  0.6232  0.0638 -0.6591
  358MOL0     C49308   9.327   6.225   7.762  0.2217  0.1317  0.2301
  358MOL0     C49309   9.378   6.153   7.649 -0.2210  0.9311 -0.2690
  358MOL0     C49310   9.474   6.238   7.564  0.5582 -0.6924 -0.2197
  358MOL0    Cl49311   9.591   6.313   7.673  0.3289 -0.1705 -0.3275
  358MOL0     C49312   8.549   6.497   7.877  0.3531 -0.3489 -1.5577
  358MOL0     C49313   8.411   6.534   7.887  0.1515  1.0351 -0.4762
  358MOL0     O49314   8.190   6.720   7.808 -0.3352  0.4925  0.0603
  358MOL0     C49315   7.961   6.603   8.066 -0.2850 -0.2368  0.7420
  358MOL0     C49316   7.827   6.583   8.106 -0.4799  0.3771  0.5217
  358MOL0     N49317   7.370   5.987   7.966 -0.4880 -0.0238 -0.4766
  358MOL0     N49318   7.428   5.916   7.873  0.2975  0.5612 -0.1766
  358MOL0     C49319   8.473   5.750   7.749  0.6903  0.1760 -0.0414
  358MOL0     C49320   8.582   5.684   7.806 -0.6767 -0.7984 -0.1959
  358MOL0     C49321   8.916   5.366   7.825 -0.5730  0.2571  0.2521
  358MOL0     C49322   9.046   5.354   7.766 -0.2892  0.3275  0.4803
  358MOL0     C49323   9.144   5.294   7.829  0.5794  0.7792  1.0428
  358MOL0     C49324   9.127   5.223   7.948  0.1490 -0.4698  0.4526
  358MOL0     O49325   9.219   5.143   8.009 -0.2283 -0.4253  0.1536
  358MOL0     C49326   9.357   5.187   7.997  0.7397  0.0284  0.3795
  358MOL0     C49327   9.445   5.123   8.106 -0.9546 -0.1055 -0.2422
  358MOL0     C49328   9.435   5.185   8.243  0.7600  0.1174 -0.1336
  358MOL0     C49329   9.480   5.338   8.244  0.0411 -0.7571  0.0865
  358MOL0     C49330   9.609   5.351   8.178 -0.4147  0.4563  0.2388
  358MOL0     C49331   9.724   5.348   8.144 -0.6023  0.0512 -0.0342
  358MOL0     C49332   9.005   5.237   8.012  1.2365  1.2857 -0.3445
  358MOL0     C49333   8.903   5.300   7.950 -0.1932 -0.6660  1.2290
  358MOL0     C49334   8.763   5.274   8.005 -0.3810 -0.7279  0.0099
  358MOL0     H49335   8.569   5.404   7.621 -1.1506 -0.0036 -0.1642
  358MOL0     H49336   8.385   5.504   7.536  0.5904 -0.2582  0.6006
  358MOL0     H49337   8.183   5.569   7.567 -0.9293 -0.6231  0.8432
  358MOL0     H49338   8.234   5.649   7.411 -0.3930  0.8513 -0.1286
  358MOL0     H49339   8.034   5.784   7.600 -1.1130  1.3883 -0.4450
  358MOL0     H49340   8.075   5.804   7.430 -0.9731  0.6445 -0.3084
  358MOL0     H49341   7.989   5.552   7.404 -0.4546 -0.2941 -1.1933
  358MOL0     H49342   7.929   5.567   7.566 -1.2379  2.8589  0.9936
  358MOL0     H49343   7.855   5.783   7.356  1.7278  0.1708  0.3069
  358MOL0     H49344   7.775   5.619   7.360  0.9761 -2.7072  2.1791
  358MOL0     H49345   7.800   5.812   7.581  0.8501 -2.8196  1.7303
  358MOL0     H49346   7.719   5.655   7.598  1.2946 -0.5242  0.4915
  358MOL0     H49347   7.659   5.912   7.434 -0.8197  1.9188  2.0890
  358MOL0     H49348   7.569   5.756   7.408  1.5643 -1.7369  0.0825
  358MOL0     H49349   7.528   5.759   7.659  1.4596  0.2041 -0.6477
  358MOL0     H49350   7.428   5.864   7.547  0.3539  2.9757  0.0945
  358MOL0     H49351   7.653   5.949   7.703  0.7978 -2.4844 -1.0208
  358MOL0     H49352   7.550   6.049   7.581  0.0993 -2.1388 -2.1902
  358MOL0     H49353   7.429   6.226   7.739 -1.6376 -0.1639 -1.9838
  358MOL0     H49354   7.316   6.202   8.113 -3.8520 -0.4535 -0.8151
  358MOL0     H49355   7.235   6.280   7.988 -0.3094 -0.6332 -2.4594
  358MOL0     H49356   7.536   6.335   7.987  0.7190 -0.5821 -0.9596
  358MOL0     H49357   7.394   6.412   7.914  2.3979  0.0661 -0.4974
  358MOL0     H49358   7.351   6.546   8.097  0.4778  0.0264 -0.4229
  358MOL0     H49359   7.386   6.413   8.216  2.1484  0.1685 -0.3645
  358MOL0     H49360   7.554   6.581   8.242 -0.6647 -1.3542  1.2816
  358MOL0     H49361   7.622   6.437   8.161  1.9702  0.8343 -0.0065
  358MOL0     H49362   7.689   6.711   7.814  3.7150  1.4269 -2.9844
  358MOL0     H49363   8.005   6.822   7.706  2.3170 -1.4720 -1.4394
  358MOL0     H49364   7.842   6.773   7.643  1.2960  0.3299 -2.2155
  358MOL0     H49365   7.975   6.666   7.648  0.4389  2.1855 -1.4401
  358MOL0     H49366   8.427   6.762   8.131  0.9298 -1.6812  2.0091
  358MOL0     H49367   8.669   6.700   8.115 -0.1241 -2.6841  3.4077
  358MOL0     H49368   8.885   6.667   7.963  0.5687 -0.6495 -0.7419
  358MOL0     H49369   8.844   6.613   8.128  0.8988 -0.4558 -0.5028
  358MOL0     H49370   9.081   6.585   8.042  1.1856  0.5105 -2.9597
  358MOL0     H49371   9.011   6.431   8.090  1.6009 -1.5566 -2.3553
  358MOL0     H49372   9.060   6.536   7.807 -1.6499 -0.8693 -2.7249
  358MOL0     H49373   8.954   6.389   7.843  1.7192 -3.0968  0.9635
  358MOL0     H49374   9.118   6.267   7.934 -0.8587 -2.5123 -3.5771
  358MOL0     H49375   9.227   6.412   7.944 -1.5395  0.8413 -0.0623
  358MOL0     H49376   9.144   6.276   7.685 -0.4599 -0.0433  0.7955
  358MOL0     H49377   9.240   6.421   7.691 -2.7990 -0.7400 -3.7511
  358MOL0     H49378   9.282   6.145   7.821 -1.7976 -0.3201 -1.7673
  358MOL0     H49379   9.406   6.272   7.821  1.9418 -0.9417 -1.1150
  358MOL0     H49380   9.302   6.114   7.580 -3.0626  0.5728  2.7811
  358MOL0     H49381   9.432   6.066   7.686 -1.8053 -0.8077 -1.8383
  358MOL0     H49382   9.412   6.317   7.522  2.5278  0.9271 -0.2709
  358MOL0     H49383   9.523   6.183   7.482  3.0785 -1.0844  1.4258
  358MOL0     H49384   8.595   6.427   7.807  1.1151  0.0702 -1.4839
  358MOL0     H49385   8.332   6.491   7.825  1.3094 -2.6848  0.3486
  358MOL0     H49386   8.038   6.578   8.138 -1.2505 -3.0301  0.9390
  358MOL0     H49387   7.790   6.546   8.201 -0.6835 -1.2879 -0.1566
  358MOL0     H49388   8.444   5.852   7.773  5.6086  1.0880  3.6092
  358MOL0     H49389   8.629   5.733   7.891 -0.5149 -0.4594 -0.4790
  358MOL0     H49390   9.070   5.387   7.665 -4.1387  2.8520  0.2128
  358MOL0     H49391   9.242   5.286   7.783 -0.5058  1.3135 -1.5450
  358MOL0     H49392   9.385   5.151   7.898 -1.2470 -0.7149  0.0553
  358MOL0     H49393   9.367   5.296   8.004  0.6941  0.1112 -0.6926
  358MOL0     H49394   9.547   5.116   8.066 -0.4141 -1.6167  1.2992
  358MOL0     H49395   9.420   5.017   8.115  2.7838 -1.0467  0.8795
  358MOL0     H49396   9.329   5.183   8.272  0.8838 -1.6955  0.3050
  358MOL0     H49397   9.496   5.125   8.311  1.3715 -0.7415 -1.4060
  358MOL0     H49398   9.496   5.372   8.346  1.9536 -2.3012  0.3733
  358MOL0     H49399   9.414   5.412   8.197  0.3955  0.6475  1.6966
  358MOL0     H49400   9.826   5.345   8.111 -0.8668 -2.2525 -0.7848
  358MOL0     H49401   8.987   5.167   8.093 -0.8576  0.3821 -1.5052
  358MOL0     H49402   8.747   5.171   8.038  0.0712  0.0688  3.0727
  358MOL0     H49403   8.749   5.323   8.102 -0.8268 -4.8047  2.2311
  358MOL0     H49404   8.684   5.302   7.935 -2.5519 -1.5649  2.0214
  359MOL0     O49405  11.239   3.699   2.445  0.2217 -0.2230 -0.0129
  359MOL0     C49406  11.121   3.683   2.481  0.6655 -0.4188  0.4398
  359MOL0     O49407  11.066   3.568   2.506 -0.0091 -0.0734 -0.4172
  359MOL0     C49408  11.133   3.451   2.528 -0.3572 -0.8942  0.3116
  359MOL0     C49409  11.264   3.440   2.561 -0.2054  0.4820 -0.2941
  359MOL0     C49410  11.320   3.316   2.591 -0.0836  0.8463  0.1992
  359MOL0     C49411  11.248   3.196   2.572 -0.3264  0.1303 -0.6841
  359MOL0     O49412  11.313   3.076   2.593  0.3206  0.4016 -0.0480
  359MOL0     C49413  11.412   3.047   2.493  0.5606  0.6271  0.0564
  359MOL0     C49414  11.488   2.915   2.534  0.6762 -0.8716 -0.7598
  359MOL0     C49415  11.559   2.923   2.674 -0.6055 -0.0778  0.5544
  359MOL0     C49416  11.636   3.063   2.689  0.2249  0.7151  0.3470
  359MOL0     C49417  11.740   3.065   2.808 -0.6684 -0.6052 -0.2514
  359MOL0     C49418  11.692   3.059   2.946 -0.7244  0.5002  0.2553
  359MOL0     C49419  11.786   3.048   3.062 -0.0038  0.0440  0.0025
  359MOL0     C49420  11.731   3.048   3.207 -0.3427 -1.0514 -0.0787
  359MOL0     N49421  11.675   3.178   3.248  0.3871 -0.4345  0.0719
  359MOL0     C49422  11.759   3.277   3.295 -0.0036 -0.4514  0.2250
  359MOL0     C49423  11.683   3.390   3.307  0.9688 -0.4616 -0.1794
  359MOL0     C49424  11.733   3.525   3.350  0.5535 -0.5117  0.4365
  359MOL0     C49425  11.632   3.634   3.326  0.1857  0.3274 -0.7411
  359MOL0     C49426  11.684   3.765   3.380 -0.1124 -0.3799 -0.7891
  359MOL0     C49427  11.694   3.767   3.536 -0.6658 -0.1747  0.6588
  359MOL0     O49428  11.745   3.890   3.583 -0.9828 -0.6033 -0.1136
  359MOL0     C49429  11.752   3.910   3.717  0.2217 -0.6262 -0.1884
  359MOL0     C49430  11.776   4.036   3.759  0.0634  0.9104  0.3687
  359MOL0     C49431  11.792   4.072   3.894 -1.0415 -0.9727  0.4068
  359MOL0     C49432  11.804   4.222   3.934 -0.5541  0.2812  0.6901
  359MOL0     C49433  11.803   3.964   3.989 -0.0659  0.5820 -0.2382
  359MOL0     C49434  11.836   3.987   4.135 -1.0087  0.0405 -0.2199
  359MOL0     O49435  11.880   4.108   4.175  0.5787 -0.5113 -0.1844
  359MOL0     C49436  11.934   4.112   4.303  0.3175 -0.7004  0.7064
  359MOL0     C49437  11.847   4.145   4.403  0.6821 -0.3608  0.5877
  359MOL0     C49438  11.895   4.140   4.533  0.4598 -0.4922 -0.4561
  359MOL0     C49439  12.031   4.113   4.569  0.6906 -0.3705  0.3993
  359MOL0     O49440  12.067   4.123   4.695 -0.0697  0.2513  0.3017
  359MOL0     C49441  12.029   4.254   4.758  0.0860  0.5203  0.1277
  359MOL0     C49442  12.089   4.252   4.894  0.4737 -0.5038  1.1207
  359MOL0     C49443  12.066   4.390   4.951  0.2436  0.6213 -0.2087
  359MOL0     C49444  12.116   4.395   5.093  0.6687 -0.2892 -0.0286
  359MOL0     C49445  12.005   4.348   5.187  0.2948  0.0481 -1.0442
  359MOL0     C49446  12.050   4.351   5.337  0.8738  0.0950 -0.2517
  359MOL0     C49447  12.054   4.491   5.396 -0.0198 -0.0816  0.4339
  359MOL0     C49448  12.103   4.475   5.542 -0.0995 -0.3065 -0.2537
  359MOL0    Cl49449  12.086   4.639   5.621 -0.0545 -0.2366 -0.3953
  359MOL0     C49450  12.112   4.077   4.461  0.0106 -0.0619  0.6462
  359MOL0     C49451  12.064   4.081   4.330 -0.2526  0.4065 -0.6434
  359MOL0     O49452  11.824   3.888   4.205  0.1459  0.5188  0.3934
  359MOL0     C49453  11.777   3.828   3.948 -0.1382  1.1772  0.0996
  359MOL0     C49454  11.755   3.809   3.811  0.4698 -0.3492 -0.8298
  359MOL0     N49455  11.548   3.348   3.291 -0.4187  0.8289  0.3538
  359MOL0     N49456  11.543   3.220   3.251 -0.1453 -0.8352  0.4643
  359MOL0     C49457  11.115   3.207   2.546  0.7352  0.8619  0.4865
  359MOL0     C49458  11.051   3.337   2.524  0.0675  0.5617 -0.0581
  359MOL0     C49459  11.029   3.799   2.484  0.2413 -0.7716  0.5386
  359MOL0     C49460  10.887   3.777   2.509  0.2558 -1.1532 -0.3072
  359MOL0     C49461  10.792   3.877   2.484 -0.8139  0.6847  0.3452
  359MOL0     C49462  10.840   4.007   2.460 -0.1445 -0.1345 -0.5528
  359MOL0     O49463  10.749   4.112   2.437  0.0054 -0.5292 -0.0370
  359MOL0     C49464  10.631   4.119   2.513  0.1681 -0.1531 -0.3680
  359MOL0     C49465  10.643   4.190   2.652 -0.5014 -0.1098 -0.3432
  359MOL0     C49466  10.596   4.332   2.662  0.1309 -0.0135  0.1651
  359MOL0     C49467  10.620   4.393   2.805 -0.0772  0.0329 -0.1271
  359MOL0     C49468  10.611   4.537   2.787  0.5499 -0.1252 -0.0410
  359MOL0     C49469  10.604   4.660   2.782 -0.4500  0.3334 -0.3415
  359MOL0     C49470  10.977   4.035   2.455  0.8291  0.1656 -0.3146
  359MOL0     C49471  11.074   3.938   2.460 -0.5847 -0.4692 -0.5464
  359MOL0     C49472  11.220   3.979   2.446  0.3092  0.0825  0.5714
  359MOL0     H49473  11.319   3.528   2.594 -0.1303  0.2391  0.2493
  359MOL0     H49474  11.424   3.309   2.622 -0.1952 -2.4778  0.1706
  359MOL0     H49475  11.478   3.131   2.472 -0.9464  1.6982 -0.5682
  359MOL0     H49476  11.358   3.027   2.400  2.9883 -1.2976 -1.0643
  359MOL0     H49477  11.425   2.825   2.536 -0.9333  0.1741  1.9649
  359MOL0     H49478  11.559   2.905   2.452  1.9044  2.8531 -0.3573
  359MOL0     H49479  11.515   2.894   2.769  2.3991 -2.9383  1.2659
  359MOL0     H49480  11.632   2.843   2.659 -1.8198 -0.7444 -2.8323
  359MOL0     H49481  11.682   3.098   2.597 -3.7755  1.8733 -1.4284
  359MOL0     H49482  11.562   3.135   2.726  0.1616 -0.9060  3.7665
  359MOL0     H49483  11.794   3.159   2.793  0.3444 -1.0845  0.2136
  359MOL0     H49484  11.812   2.982   2.799  0.3980 -0.3032  3.6212
  359MOL0     H49485  11.612   3.132   2.963 -2.4288 -1.3825  0.7911
  359MOL0     H49486  11.631   2.968   2.951 -0.7615  0.4832 -0.4131
  359MOL0     H49487  11.865   3.123   3.061  0.6931 -0.5621  2.2489
  359MOL0     H49488  11.831   2.950   3.045  0.0195  0.3802 -2.0237
  359MOL0     H49489  11.645   2.982   3.219  1.6302 -3.6136  0.9772
  359MOL0     H49490  11.805   3.029   3.285 -0.6581 -2.5427 -0.1225
  359MOL0     H49491  11.866   3.276   3.310  0.5792  1.8821 -2.8631
  359MOL0     H49492  11.823   3.548   3.293  0.8542 -0.9460  0.7314
  359MOL0     H49493  11.760   3.518   3.456 -0.4966  1.7426  0.9158
  359MOL0     H49494  11.603   3.647   3.222 -2.3493 -2.3765 -0.4892
  359MOL0     H49495  11.544   3.610   3.387  2.0260 -3.3601  0.7341
  359MOL0     H49496  11.783   3.789   3.342 -0.6100  3.2452 -0.1291
  359MOL0     H49497  11.612   3.843   3.354  0.0316  0.3799  0.9188
  359MOL0     H49498  11.600   3.753   3.591  1.0593 -4.8128  2.9807
  359MOL0     H49499  11.758   3.685   3.569 -1.8942 -2.5658 -2.3228
  359MOL0     H49500  11.758   4.105   3.678 -0.0140  1.7134  1.0544
  359MOL0     H49501  11.794   4.273   3.838  2.4465 -3.7178 -2.0441
  359MOL0     H49502  11.902   4.246   3.977  0.1507  0.5289 -0.9971
  359MOL0     H49503  11.726   4.257   4.003 -1.8520  2.7157 -1.8217
  359MOL0     H49504  11.752   4.190   4.375  0.6868 -0.6090  0.1677
  359MOL0     H49505  11.830   4.171   4.615  0.8138  1.2699 -0.8189
  359MOL0     H49506  12.064   4.340   4.698  0.8544 -0.0815 -0.3031
  359MOL0     H49507  11.921   4.268   4.767  0.2160  1.5278  0.3111
  359MOL0     H49508  12.045   4.163   4.941 -0.2670 -0.1330  1.1416
  359MOL0     H49509  12.197   4.234   4.893  1.0238  2.4263 -0.1588
  359MOL0     H49510  11.959   4.414   4.947 -0.7892 -3.1459  0.5367
  359MOL0     H49511  12.116   4.466   4.891  0.6482 -1.4953 -2.7510
  359MOL0     H49512  12.134   4.500   5.116  1.3744 -0.6802  1.2475
  359MOL0     H49513  12.209   4.343   5.118 -0.5618 -0.7054  4.3637
  359MOL0     H49514  11.906   4.393   5.173 -0.4385  0.9282  4.6982
  359MOL0     H49515  12.008   4.239   5.178  0.6026  0.1268 -2.0592
  359MOL0     H49516  12.149   4.306   5.350  0.4125 -0.7788  0.3401
  359MOL0     H49517  11.984   4.284   5.392  3.6159 -2.1527  0.5865
  359MOL0     H49518  11.956   4.539   5.385  0.1811  0.2413  0.0321
  359MOL0     H49519  12.124   4.546   5.333 -0.8101  1.5061  0.8786
  359MOL0     H49520  12.210   4.453   5.548  0.6307  2.1684 -2.1774
  359MOL0     H49521  12.043   4.401   5.595  1.1907 -0.9173  0.3958
  359MOL0     H49522  12.216   4.047   4.468  1.0644  3.0704  0.2696
  359MOL0     H49523  12.123   4.057   4.243 -1.6615  0.5299 -1.6787
  359MOL0     H49524  11.775   3.755   4.028 -2.0661  2.7671  1.6199
  359MOL0     H49525  11.734   3.704   3.790 -1.1052 -0.3594  0.5353
  359MOL0     H49526  11.050   3.121   2.531 -3.0839  3.6301 -0.4530
  359MOL0     H49527  10.948   3.345   2.491 -0.3893 -1.5477  0.6777
  359MOL0     H49528  10.842   3.680   2.528 -3.5707 -0.2058 -3.3249
  359MOL0     H49529  10.690   3.841   2.488 -0.1883 -1.2536 -0.0804
  359MOL0     H49530  10.555   4.179   2.463  3.9884  4.6926 -1.0205
  359MOL0     H49531  10.594   4.016   2.527 -1.9053  0.5807 -0.0092
  359MOL0     H49532  10.747   4.187   2.686 -0.1453  0.7571 -1.3208
  359MOL0     H49533  10.588   4.137   2.730  0.3307  0.3220  0.5519
  359MOL0     H49534  10.657   4.389   2.591  0.6324  1.0951  1.4399
  359MOL0     H49535  10.488   4.343   2.643 -0.4896  0.0735  3.2112
  359MOL0     H49536  10.724   4.363   2.818  0.0376 -1.4449 -3.5242
  359MOL0     H49537  10.567   4.355   2.893 -0.4637 -1.6385 -1.0354
  359MOL0     H49538  10.601   4.767   2.774  1.3896  0.3570 -1.3399
  359MOL0     H49539  11.003   4.140   2.441  2.5021  0.0581  1.4607
  359MOL0     H49540  11.265   3.937   2.356 -2.4387  0.0620 -0.8674
  359MOL0     H49541  11.232   4.087   2.435  4.2005 -0.4519 -2.9778
  359MOL0     H49542  11.278   3.940   2.531  0.9471  0.1037  0.1485
  360MOL0     O49543   9.949  11.246   8.307  0.8958 -0.2155 -0.0225
  360MOL0     C49544  10.009  11.168   8.379  0.4500 -0.6041 -1.2693
  360MOL0     O49545  10.052  11.192   8.507 -0.4215 -0.6653  0.1835
  360MOL0     C49546  10.037  11.317   8.555 -0.4218 -0.4788 -0.2156
  360MOL0     C49547  10.108  11.419   8.507  0.1885  0.6285  0.6369
  360MOL0     C49548  10.107  11.541   8.567  0.5554 -0.2889  0.1576
  360MOL0     C49549  10.011  11.563   8.669 -0.2168 -0.4479 -0.5157
  360MOL0     O49550   9.975  11.685   8.726 -0.2056 -0.1464 -0.5480
  360MOL0     C49551  10.066  11.795   8.707  0.7732 -0.0869 -0.3210
  360MOL0     C49552  10.005  11.916   8.792 -0.8293  0.1609 -0.7736
  360MOL0     C49553  10.090  12.049   8.792  0.0194  0.4296 -0.1644
  360MOL0     C49554  10.023  12.143   8.894 -0.1510 -0.2695 -0.6764
  360MOL0     C49555  10.090  12.283   8.887  0.4069  0.1714  0.0965
  360MOL0     C49556  10.042  12.381   8.985 -0.3429 -1.1464  0.1267
  360MOL0     C49557  10.167  12.481   9.010  0.4966  0.5193  0.2407
  360MOL0     C49558  10.110  12.591   9.099  0.5908 -0.3852 -0.1260
  360MOL0     N49559  10.071  12.701   9.021 -0.0158  0.5323  0.1829
  360MOL0     C49560   9.941  12.738   8.993  0.5661  0.2342 -0.0753
  360MOL0     C49561   9.938  12.842   8.908 -0.3936  0.6953 -0.2612
  360MOL0     C49562   9.807  12.910   8.865  0.1073  0.8719 -0.1699
  360MOL0     C49563   9.724  12.806   8.782  0.3898 -0.0137  0.2847
  360MOL0     C49564   9.803  12.757   8.647  0.3554 -0.1861 -0.8638
  360MOL0     C49565   9.850  12.611   8.655  0.0535 -0.6074  0.3236
  360MOL0     O49566   9.883  12.556   8.528 -0.1596 -0.5766  0.3840
  360MOL0     C49567   9.861  12.421   8.499  0.0209 -0.1206  0.4027
  360MOL0     C49568   9.761  12.341   8.558  1.0412  1.1079 -0.5052
  360MOL0     C49569   9.752  12.200   8.531 -0.0007  0.1481  0.4104
  360MOL0     C49570   9.657  12.125   8.617  0.0031 -0.4808  0.2352
  360MOL0     C49571   9.842  12.143   8.433 -0.2662 -0.0817 -0.9481
  360MOL0     C49572   9.828  12.002   8.380  0.4018  0.1257 -0.2920
  360MOL0     O49573   9.918  11.975   8.285 -0.6382  0.4522 -0.3859
  360MOL0     C49574   9.911  11.857   8.211  0.3507 -0.9967  0.9222
  360MOL0     C49575   9.927  11.730   8.258 -0.4106  0.1347  0.1977
  360MOL0     C49576   9.907  11.616   8.175 -0.5294  0.7661  0.9075
  360MOL0     C49577   9.879  11.629   8.034 -0.1492  0.2705 -0.3273
  360MOL0     O49578   9.861  11.516   7.961 -0.5120  0.4865  0.2678
  360MOL0     C49579   9.755  11.511   7.869 -0.0759  0.0739 -0.1087
  360MOL0     C49580   9.626  11.454   7.940 -0.5877 -0.2066 -0.1544
  360MOL0     C49581   9.636  11.308   7.981  0.5194  0.6442  0.2594
  360MOL0     C49582   9.504  11.244   8.031  0.1859  0.2790  0.2732
  360MOL0     C49583   9.516  11.084   8.025  0.0445  1.0617 -0.9459
  360MOL0     C49584   9.388  11.012   8.071  0.1860  0.7312 -0.4647
  360MOL0     C49585   9.403  10.860   8.057  0.3220 -0.5205 -0.1009
  360MOL0     C49586   9.271  10.789   8.041 -1.2457 -0.0925 -0.1827
  360MOL0    Cl49587   9.167  10.810   8.179 -0.2857  0.2987  0.4517
  360MOL0     C49588   9.864  11.761   7.986  0.1948  0.7456  0.7773
  360MOL0     C49589   9.878  11.872   8.070  0.0906 -1.1014  0.1993
  360MOL0     O49590   9.721  11.933   8.400  0.4752 -0.8718  0.0430
  360MOL0     C49591   9.932  12.229   8.376 -0.0984 -0.4215  0.4519
  360MOL0     C49592   9.940  12.364   8.404 -0.2065  0.7873 -0.6299
  360MOL0     N49593  10.070  12.889   8.889 -0.2542  0.6273  1.1843
  360MOL0     N49594  10.144  12.794   8.944 -0.4569 -0.3248  0.7355
  360MOL0     C49595   9.928  11.460   8.719 -0.0774 -0.0664 -0.3930
  360MOL0     C49596   9.943  11.336   8.654 -0.9822 -0.7606 -1.3857
  360MOL0     C49597  10.044  11.036   8.340  0.4943 -0.3947 -0.1197
  360MOL0     C49598  10.121  11.032   8.221  0.2517  0.8165 -0.6386
  360MOL0     C49599  10.168  10.911   8.180 -0.0772 -0.3051  0.2401
  360MOL0     C49600  10.160  10.790   8.253  0.3163 -0.0737 -0.2479
  360MOL0     O49601  10.213  10.669   8.212 -0.0828 -0.1558  0.3143
  360MOL0     C49602  10.250  10.652   8.072  0.5794 -0.2951 -0.1741
  360MOL0     C49603  10.127  10.666   7.981 -0.1321  1.4431 -0.7304
  360MOL0     C49604  10.131  10.569   7.875 -0.5483  0.1198  0.6616
  360MOL0     C49605  10.006  10.594   7.790 -0.6139  0.5721 -0.3719
  360MOL0     C49606  10.001  10.510   7.674  0.0285  0.3808  1.4371
  360MOL0     C49607   9.994  10.443   7.570  0.0629  0.1334  0.3394
  360MOL0     C49608  10.094  10.794   8.371 -0.2902 -0.6064 -0.6587
  360MOL0     C49609  10.038  10.918   8.422 -0.3162  0.0460  0.3614
  360MOL0     C49610   9.958  10.927   8.550 -0.6460 -0.8418  0.5147
  360MOL0     H49611  10.189  11.391   8.440  0.9842 -1.2672  2.3076
  360MOL0     H49612  10.162  11.629   8.535  0.7583  0.6920  2.9124
  360MOL0     H49613  10.057  11.837   8.606 -1.7947  1.1039  0.3292
  360MOL0     H49614  10.171  11.772   8.727  1.9161  2.5157 -2.5960
  360MOL0     H49615   9.907  11.929   8.746 -1.9642  2.2680  1.9522
  360MOL0     H49616   9.990  11.891   8.897  0.8662  1.7678 -0.0841
  360MOL0     H49617  10.182  12.017   8.842 -1.9407 -2.0827  2.1898
  360MOL0     H49618  10.099  12.094   8.692 -1.2463  0.0043 -0.4824
  360MOL0     H49619   9.916  12.142   8.871 -0.6011 -0.5867  1.2549
  360MOL0     H49620  10.037  12.100   8.993 -1.4955 -2.4554 -1.3797
  360MOL0     H49621  10.068  12.326   8.790 -0.3342  0.0333  0.1978
  360MOL0     H49622  10.198  12.266   8.895  0.4006 -0.0796 -0.3316
  360MOL0     H49623   9.964  12.443   8.942 -1.7811 -2.8875  0.1120
  360MOL0     H49624  10.001  12.334   9.075 -2.1112  2.1908  1.2058
  360MOL0     H49625  10.217  12.522   8.921 -0.2666  2.9548  0.8491
  360MOL0     H49626  10.245  12.426   9.063  0.6883 -1.1228 -1.6453
  360MOL0     H49627  10.024  12.563   9.160 -2.0550 -0.4597 -3.5565
  360MOL0     H49628  10.188  12.631   9.165  0.2278  1.0450 -0.5290
  360MOL0     H49629   9.856  12.702   9.050  0.0281  0.0398 -0.9926
  360MOL0     H49630   9.826  13.000   8.806 -1.7511  1.0786 -0.5024
  360MOL0     H49631   9.757  12.944   8.956  1.6160  1.3091  0.5290
  360MOL0     H49632   9.715  12.721   8.850 -1.6117 -0.9227 -1.0353
  360MOL0     H49633   9.621  12.833   8.755  0.3226 -1.3764 -0.9187
  360MOL0     H49634   9.744  12.755   8.555  1.4433 -3.4250 -1.5979
  360MOL0     H49635   9.880  12.833   8.631 -0.7223  1.8076  2.2975
  360MOL0     H49636   9.938  12.616   8.720 -0.1435 -1.1961  0.6424
  360MOL0     H49637   9.782  12.540   8.703 -2.1618 -0.0455 -1.7994
  360MOL0     H49638   9.679  12.379   8.619  1.0299 -0.2603  0.3817
  360MOL0     H49639   9.650  12.167   8.718  1.9862 -2.3176  1.2247
  360MOL0     H49640   9.675  12.017   8.627  2.9900  0.1170  2.7786
  360MOL0     H49641   9.560  12.150   8.574 -0.5043  3.0098  2.9460
  360MOL0     H49642   9.944  11.711   8.363 -1.0507  0.3436  0.3433
  360MOL0     H49643   9.908  11.512   8.206  2.3273  0.4046 -0.0856
  360MOL0     H49644   9.741  11.615   7.837 -1.0910  1.1277  3.3479
  360MOL0     H49645   9.794  11.457   7.782 -0.0824  1.3338 -0.9320
  360MOL0     H49646   9.606  11.498   8.038 -2.7191 -1.1450 -0.1281
  360MOL0     H49647   9.543  11.471   7.871  0.3911  0.4228 -1.2082
  360MOL0     H49648   9.704  11.301   8.066 -1.0656  1.6405  1.6778
  360MOL0     H49649   9.674  11.252   7.895  0.9740  0.5902  0.4942
  360MOL0     H49650   9.418  11.273   7.970  0.4250  3.6292  1.3024
  360MOL0     H49651   9.464  11.279   8.127 -2.0774  0.1299 -0.5552
  360MOL0     H49652   9.540  11.055   7.922 -0.1667 -2.7325 -0.0607
  360MOL0     H49653   9.597  11.051   8.090  0.1616  1.0208 -1.1129
  360MOL0     H49654   9.307  11.048   8.007 -0.1122  1.3404  0.2411
  360MOL0     H49655   9.357  11.037   8.173 -1.8687 -2.8128 -0.0610
  360MOL0     H49656   9.458  10.833   8.148 -0.8826  0.1474  0.8547
  360MOL0     H49657   9.467  10.833   7.972  0.8882 -0.9039  0.4383
  360MOL0     H49658   9.290  10.682   8.023 -0.7491  0.4277 -3.4709
  360MOL0     H49659   9.222  10.823   7.949 -0.6410 -0.7690 -0.7729
  360MOL0     H49660   9.835  11.770   7.882 -1.6642 -1.1158  1.0800
  360MOL0     H49661   9.841  11.967   8.034 -3.0662 -1.6197  1.7679
  360MOL0     H49662  10.009  12.187   8.313  0.7655  0.3625  0.9661
  360MOL0     H49663  10.011  12.425   8.348 -0.2904 -0.1966 -1.8496
  360MOL0     H49664   9.847  11.473   8.789 -0.3209  1.2665 -0.8904
  360MOL0     H49665   9.885  11.247   8.676 -2.0243  0.4966  1.4792
  360MOL0     H49666  10.150  11.112   8.153 -1.5762  2.0674 -0.0467
  360MOL0     H49667  10.231  10.912   8.091 -0.5175  0.0258 -0.0716
  360MOL0     H49668  10.331  10.727   8.074  1.0331 -0.7357  2.9518
  360MOL0     H49669  10.303  10.557   8.062 -0.5266 -0.8464 -0.8783
  360MOL0     H49670  10.126  10.768   7.942 -1.4598  1.2377 -1.3046
  360MOL0     H49671  10.040  10.635   8.040 -0.2107 -0.4678 -1.7697
  360MOL0     H49672  10.214  10.600   7.810  0.4068 -0.7543  1.4252
  360MOL0     H49673  10.146  10.466   7.908 -2.2984  0.3948  2.4812
  360MOL0     H49674  10.026  10.691   7.743  0.7106 -1.6997 -5.2058
  360MOL0     H49675   9.908  10.591   7.839 -0.0510 -0.1474  0.7620
  360MOL0     H49676   9.990  10.390   7.477 -2.4799 -2.6970  1.8924
  360MOL0     H49677  10.097  10.706   8.434  2.3673  1.3747  2.2865
  360MOL0     H49678   9.881  11.004   8.551 -0.0093 -0.1954  1.2218
  360MOL0     H49679   9.920  10.828   8.578  0.4515 -0.8905  2.0119
  360MOL0     H49680  10.022  10.945   8.637  1.9055 -1.8818 -1.0277
  361MOL0     O49681   6.947   3.559   8.473 -1.1803  0.5375 -0.0797
  361MOL0     C49682   6.846   3.568   8.542  1.0048  0.2137 -0.4055
  361MOL0     O49683   6.801   3.687   8.613 -0.7197  0.0560 -0.5503
  361MOL0     C49684   6.874   3.807   8.633 -0.8931 -0.6264 -0.0819
  361MOL0     C49685   6.809   3.922   8.666  0.6619 -0.8701  0.2643
  361MOL0     C49686   6.874   4.043   8.683  0.3707  0.4854  0.0144
  361MOL0     C49687   7.008   4.053   8.660  0.0318  0.9275 -0.3119
  361MOL0     O49688   7.066   4.177   8.675 -0.4177  1.3005 -0.1663
  361MOL0     C49689   7.075   4.237   8.810  0.2175 -0.2572  0.1161
  361MOL0     C49690   7.166   4.351   8.803 -0.0190  0.1962  0.6158
  361MOL0     C49691   7.313   4.298   8.816  0.3236 -0.4268 -0.2256
  361MOL0     C49692   7.357   4.276   8.963 -0.1263 -0.2224 -0.2904
  361MOL0     C49693   7.506   4.255   8.973 -0.7230  0.4865  0.6391
  361MOL0     C49694   7.602   4.379   8.985  0.0188  0.1443  0.1688
  361MOL0     C49695   7.751   4.344   8.985 -0.1087  0.3722 -0.2761
  361MOL0     C49696   7.833   4.468   9.027 -0.1247 -0.7566  0.0790
  361MOL0     N49697   7.861   4.574   8.923 -0.9139 -0.0375 -0.3498
  361MOL0     C49698   7.777   4.680   8.891 -0.0075  0.8022  0.0294
  361MOL0     C49699   7.827   4.719   8.776 -0.0081  0.9837  0.1559
  361MOL0     C49700   7.745   4.807   8.681  0.1617 -1.1585  1.6933
  361MOL0     C49701   7.824   4.839   8.548 -0.6600  0.3398  0.0014
  361MOL0     C49702   7.743   4.914   8.438  0.7307  0.4021 -0.9302
  361MOL0     C49703   7.827   4.950   8.328 -0.1505 -0.4460 -0.3572
  361MOL0     O49704   7.763   5.046   8.248 -0.8843  0.0949 -0.0830
  361MOL0     C49705   7.748   5.175   8.299 -0.7939 -0.3277 -0.1579
  361MOL0     C49706   7.806   5.230   8.409  0.2852  0.5288  0.5429
  361MOL0     C49707   7.796   5.370   8.435 -0.3942  0.6624 -0.1344
  361MOL0     C49708   7.878   5.424   8.552  1.3428 -0.3819  1.0816
  361MOL0     C49709   7.711   5.453   8.353  1.2177  0.5625  0.0166
  361MOL0     C49710   7.692   5.586   8.379 -0.3852 -0.5291  0.3212
  361MOL0     O49711   7.564   5.625   8.357 -1.2086 -0.6543 -0.1339
  361MOL0     C49712   7.532   5.754   8.379 -0.0189 -0.0230 -0.7964
  361MOL0     C49713   7.455   5.821   8.288  0.1870 -0.0215  0.3372
  361MOL0     C49714   7.409   5.947   8.321 -0.0265 -0.1538  0.7600
  361MOL0     C49715   7.463   6.012   8.440 -0.0039  0.3937 -0.6097
  361MOL0     O49716   7.419   6.142   8.467  0.0002 -0.2228 -0.8357
  361MOL0     C49717   7.526   6.241   8.487 -0.4183  0.4842  0.1147
  361MOL0     C49718   7.457   6.367   8.549  0.1295 -0.8865 -0.3951
  361MOL0     C49719   7.410   6.348   8.694 -0.7353  0.2650  0.1756
  361MOL0     C49720   7.272   6.292   8.706  0.3277  0.4013 -0.9453
  361MOL0     C49721   7.239   6.264   8.859  0.5423 -0.0397  0.7762
  361MOL0     C49722   7.092   6.220   8.886 -1.1270 -0.2003  0.1261
  361MOL0     C49723   7.076   6.218   9.032  0.8063 -0.1155  0.1267
  361MOL0     C49724   7.176   6.123   9.111 -0.0229  0.2055  1.0182
  361MOL0    Cl49725   7.183   5.957   9.032 -0.0154 -0.7808  0.2534
  361MOL0     C49726   7.537   5.937   8.530 -0.4058 -0.1576  0.2432
  361MOL0     C49727   7.573   5.809   8.503  0.0779 -0.6960  0.0816
  361MOL0     O49728   7.790   5.662   8.394 -0.2974 -0.2879 -0.2423
  361MOL0     C49729   7.654   5.390   8.240 -0.2301 -0.2705  0.4236
  361MOL0     C49730   7.676   5.255   8.217 -0.1904  1.2212  0.4713
  361MOL0     N49731   7.944   4.640   8.746  0.1940 -0.0200  0.2604
  361MOL0     N49732   7.965   4.551   8.835  0.4423 -0.2922 -0.0010
  361MOL0     C49733   7.082   3.940   8.623  1.2228 -0.1094 -0.1602
  361MOL0     C49734   7.015   3.819   8.611 -0.0426  0.0547 -0.4175
  361MOL0     C49735   6.766   3.447   8.551 -0.5135  0.2384 -0.0742
  361MOL0     C49736   6.686   3.420   8.671 -0.0567 -0.0699 -0.2067
  361MOL0     C49737   6.608   3.308   8.680 -0.5265  0.3627 -0.3084
  361MOL0     C49738   6.605   3.211   8.579 -0.0966  0.5662 -0.4322
  361MOL0     O49739   6.533   3.087   8.595 -0.5909 -0.2644 -0.3402
  361MOL0     C49740   6.597   2.996   8.687  0.5005 -0.6239  0.2856
  361MOL0     C49741   6.690   2.904   8.612  0.1138 -1.0878 -0.7178
  361MOL0     C49742   6.613   2.830   8.503  0.1220  0.6340 -0.1628
  361MOL0     C49743   6.706   2.721   8.439 -0.8058  0.0658  0.3698
  361MOL0     C49744   6.622   2.621   8.370 -0.0945 -0.3273 -0.0494
  361MOL0     C49745   6.555   2.545   8.306 -0.4359  0.2959  0.3955
  361MOL0     C49746   6.673   3.231   8.463 -0.0436 -0.6184 -0.5481
  361MOL0     C49747   6.749   3.354   8.439  0.6089 -0.1305  0.2023
  361MOL0     C49748   6.801   3.386   8.302  0.4962 -0.9585  0.8720
  361MOL0     H49749   6.703   3.917   8.691  0.9877 -1.9967  1.5188
  361MOL0     H49750   6.800   4.118   8.711 -0.4747  0.3321 -1.6699
  361MOL0     H49751   7.110   4.166   8.886 -1.5221  0.5723  1.8029
  361MOL0     H49752   6.977   4.272   8.844  0.7751 -0.2560  1.8325
  361MOL0     H49753   7.161   4.401   8.706  0.0913 -0.1582  0.4276
  361MOL0     H49754   7.143   4.419   8.886 -2.5283 -0.0514  0.1910
  361MOL0     H49755   7.318   4.200   8.767 -0.0494 -0.7544  0.3902
  361MOL0     H49756   7.379   4.367   8.762  1.5284 -2.3433 -1.3617
  361MOL0     H49757   7.338   4.370   9.015 -3.6250 -0.8267 -0.2542
  361MOL0     H49758   7.304   4.197   9.017  2.3263 -1.6744  0.1435
  361MOL0     H49759   7.534   4.207   8.879 -0.0165  1.8568  0.1244
  361MOL0     H49760   7.535   4.187   9.054  2.9476  0.7654 -0.2875
  361MOL0     H49761   7.584   4.448   8.902 -2.4773 -0.6614 -0.0554
  361MOL0     H49762   7.580   4.434   9.077 -0.0620  1.7498 -0.7663
  361MOL0     H49763   7.781   4.303   8.889 -1.3159 -0.5106 -0.3036
  361MOL0     H49764   7.771   4.256   9.047 -4.3675 -0.8830 -0.3327
  361MOL0     H49765   7.786   4.525   9.108  0.7482 -1.7814  1.3528
  361MOL0     H49766   7.932   4.436   9.061 -0.3983 -1.1758  0.4906
  361MOL0     H49767   7.688   4.710   8.944  2.0570  2.3005  2.8744
  361MOL0     H49768   7.720   4.897   8.739 -0.0987  0.2160 -0.4226
  361MOL0     H49769   7.649   4.762   8.654 -0.6068  1.2082  0.0662
  361MOL0     H49770   7.911   4.900   8.575  1.1610 -1.1064 -2.2010
  361MOL0     H49771   7.861   4.742   8.510  1.3262  1.1197 -0.1778
  361MOL0     H49772   7.655   4.856   8.411  1.8197 -1.7647 -0.0214
  361MOL0     H49773   7.696   4.999   8.489  1.9000  1.0351 -0.8495
  361MOL0     H49774   7.916   4.987   8.380 -2.0440 -1.1578  3.7770
  361MOL0     H49775   7.857   4.858   8.277  0.3487 -2.4595  3.2933
  361MOL0     H49776   7.878   5.183   8.474 -0.8568  1.9992  2.9877
  361MOL0     H49777   7.807   5.476   8.616 -1.9299 -1.9454 -0.9735
  361MOL0     H49778   7.966   5.481   8.522  1.8561 -2.0062 -0.7185
  361MOL0     H49779   7.924   5.345   8.612  3.4224 -0.1506 -0.0962
  361MOL0     H49780   7.403   5.788   8.199 -2.8246  0.3182  1.8192
  361MOL0     H49781   7.354   6.011   8.252  1.4393 -0.3594 -0.6656
  361MOL0     H49782   7.608   6.199   8.545 -2.7325 -1.8356  1.9620
  361MOL0     H49783   7.563   6.291   8.397 -0.0042  1.3171  0.7298
  361MOL0     H49784   7.530   6.448   8.552 -2.0185  1.3046 -2.5014
  361MOL0     H49785   7.385   6.402   8.475  0.5683 -0.3688 -0.5898
  361MOL0     H49786   7.413   6.444   8.747  0.6950  1.2516 -1.5638
  361MOL0     H49787   7.473   6.271   8.739 -1.5598 -1.4878 -1.5261
  361MOL0     H49788   7.252   6.201   8.648 -0.6513  0.0134 -0.0458
  361MOL0     H49789   7.214   6.371   8.658  3.5012  1.3240 -3.6976
  361MOL0     H49790   7.316   6.195   8.897  1.9053  0.7625 -0.4408
  361MOL0     H49791   7.261   6.357   8.912  0.9988 -0.6140  1.6180
  361MOL0     H49792   7.067   6.134   8.823  0.1565  0.3902 -1.2616
  361MOL0     H49793   7.020   6.293   8.848 -0.3510  0.9229  0.7812
  361MOL0     H49794   6.978   6.172   9.046 -0.0622  0.7804 -2.4036
  361MOL0     H49795   7.064   6.319   9.072 -0.3048 -0.8832  1.8599
  361MOL0     H49796   7.137   6.111   9.213 -1.6900 -3.1816  0.1024
  361MOL0     H49797   7.283   6.143   9.123  1.3590 -5.3947  0.7623
  361MOL0     H49798   7.573   5.975   8.625  1.9883 -0.4724 -0.4604
  361MOL0     H49799   7.638   5.753   8.571  1.7946 -1.2039 -1.8655
  361MOL0     H49800   7.583   5.444   8.177 -2.1019 -1.6298  1.2482
  361MOL0     H49801   7.637   5.216   8.124  0.8260  1.4950 -0.0814
  361MOL0     H49802   7.185   3.952   8.590  0.5431 -0.4238 -2.5415
  361MOL0     H49803   7.073   3.730   8.587  0.9675  0.7317 -0.5249
  361MOL0     H49804   6.703   3.485   8.757 -1.3251  1.0374 -0.7489
  361MOL0     H49805   6.561   3.285   8.775  0.2846  0.4672  0.1279
  361MOL0     H49806   6.655   3.054   8.759 -1.6798  2.3233 -0.1222
  361MOL0     H49807   6.531   2.928   8.740  1.9137 -1.7961  0.5827
  361MOL0     H49808   6.739   2.829   8.674  0.6697 -0.1508  0.0190
  361MOL0     H49809   6.775   2.957   8.567  2.1567 -3.7416 -0.2355
  361MOL0     H49810   6.518   2.803   8.550  0.0377  1.2786  0.0497
  361MOL0     H49811   6.588   2.904   8.426 -0.7596  2.3207  1.6359
  361MOL0     H49812   6.765   2.675   8.518  2.7195  2.3922 -0.6876
  361MOL0     H49813   6.786   2.759   8.375 -0.5307  0.1466  0.7541
  361MOL0     H49814   6.493   2.474   8.255 -1.0742  1.8195 -1.0888
  361MOL0     H49815   6.660   3.164   8.378  4.7160 -0.4372 -1.6623
  361MOL0     H49816   6.908   3.367   8.297  0.5537 -1.0823  2.2505
  361MOL0     H49817   6.744   3.323   8.233 -2.3139 -1.0802  3.1115
  361MOL0     H49818   6.781   3.490   8.275  2.0890 -0.2722  2.2381
  362MOL0     O49819   2.562   0.739  10.162 -0.3419  0.2681 -0.0290
  362MOL0     C49820   2.455   0.708  10.215  0.5670  0.4922 -0.4514
  362MOL0     O49821   2.424   0.583  10.243  0.3672  0.2079  0.4279
  362MOL0     C49822   2.500   0.472  10.222  0.1742 -0.5230  0.5923
  362MOL0     C49823   2.613   0.473  10.309 -0.0018 -0.4370 -0.0691
  362MOL0     C49824   2.693   0.358  10.316  0.3777  0.2561 -0.3469
  362MOL0     C49825   2.664   0.255  10.231 -0.3053  0.3328 -0.4760
  362MOL0     O49826   2.752   0.143  10.258 -0.4495 -0.5548 -0.1447
  362MOL0     C49827   2.822   0.082  10.150  0.1082  0.5057 -0.7324
  362MOL0     C49828   2.913   0.176  10.085 -0.5963 -0.1236  0.4314
  362MOL0     C49829   3.028   0.225  10.174  0.8676  0.2391 -0.2515
  362MOL0     C49830   3.093   0.347  10.099  0.4359 -1.1941 -0.6030
  362MOL0     C49831   3.228   0.367  10.167 -0.4361  0.5521 -0.4015
  362MOL0     C49832   3.352   0.288  10.116 -0.2177  1.1104  0.8611
  362MOL0     C49833   3.396   0.326   9.971  0.2244 -0.3221 -0.0886
  362MOL0     C49834   3.534   0.268   9.919  0.1653  0.1224 -0.2202
  362MOL0     N49835   3.520   0.132   9.896  0.0386 -0.1423 -1.1482
  362MOL0     C49836   3.563   0.040   9.994 -1.0321  0.8048 -0.3334
  362MOL0     C49837   3.559  -0.079   9.931 -0.0802 -0.2295 -0.0283
  362MOL0     C49838   3.592  -0.214   9.989 -0.6728  0.0996  0.7023
  362MOL0     C49839   3.554  -0.221  10.138  0.6627  0.1460 -0.1759
  362MOL0     C49840   3.538  -0.367  10.177  0.2762 -0.1504 -0.3673
  362MOL0     C49841   3.667  -0.459  10.179 -0.0183  0.8236  0.0677
  362MOL0     O49842   3.763  -0.385  10.242 -0.2332 -0.2875  0.5239
  362MOL0     C49843   3.896  -0.417  10.232 -0.0814 -0.1949  0.0155
  362MOL0     C49844   3.944  -0.528  10.168 -0.0579  0.6154  0.9840
  362MOL0     C49845   4.079  -0.549  10.134 -0.5982  0.0154 -0.4405
  362MOL0     C49846   4.113  -0.686  10.072  0.1886 -0.1913 -1.2777
  362MOL0     C49847   4.169  -0.440  10.157 -1.1125 -0.6040  0.0430
  362MOL0     C49848   4.320  -0.442  10.122 -0.0792 -0.1258 -0.7028
  362MOL0     O49849   4.403  -0.341  10.165  0.2550  0.0217  0.2243
  362MOL0     C49850   4.544  -0.348  10.158  0.4559 -0.4012  0.9281
  362MOL0     C49851   4.612  -0.255  10.068  0.2853  0.8394 -0.8193
  362MOL0     C49852   4.751  -0.255  10.062 -0.9840 -0.5537 -0.2994
  362MOL0     C49853   4.823  -0.347  10.156 -0.5982 -0.2404  0.9795
  362MOL0     O49854   4.957  -0.333  10.168  0.5662  0.2683  0.3618
  362MOL0     C49855   5.030  -0.459  10.152 -0.4210  0.3756 -0.5181
  362MOL0     C49856   5.030  -0.520  10.007 -0.3540  0.2707  0.3961
  362MOL0     C49857   4.901  -0.594   9.967  0.3449 -0.1449  0.4358
  362MOL0     C49858   4.920  -0.636   9.831  0.2199  1.2329  0.8200
  362MOL0     C49859   4.803  -0.737   9.783 -0.4150  0.4603 -1.2720
  362MOL0     C49860   4.843  -0.812   9.661 -0.1439 -0.1393  0.8094
  362MOL0     C49861   4.845  -0.726   9.534 -0.3309 -0.3638  0.7490
  362MOL0     C49862   4.799  -0.810   9.418 -0.8399 -0.2768 -0.5380
  362MOL0    Cl49863   4.631  -0.826   9.396  0.0902 -0.5915  0.3094
  362MOL0     C49864   4.752  -0.436  10.235 -0.5415  0.6972 -0.6183
  362MOL0     C49865   4.613  -0.439  10.233  1.0800  0.3557  0.4728
  362MOL0     O49866   4.356  -0.541  10.060 -0.3112 -0.2279 -0.2848
  362MOL0     C49867   4.121  -0.325  10.231  0.3649 -0.1946  0.8925
  362MOL0     C49868   3.984  -0.313  10.262 -0.5421  0.9633 -0.2032
  362MOL0     N49869   3.535  -0.052   9.794  0.2796 -0.3481 -0.7374
  362MOL0     N49870   3.511   0.070   9.778  0.0470 -0.9106  0.2849
  362MOL0     C49871   2.567   0.259  10.140  0.5037 -0.1834  0.4045
  362MOL0     C49872   2.476   0.370  10.142 -0.6327  0.1537  0.0128
  362MOL0     C49873   2.354   0.810  10.259 -1.0644  0.2782 -0.7884
  362MOL0     C49874   2.410   0.918  10.332 -0.1233 -0.0557  0.6017
  362MOL0     C49875   2.325   1.008  10.390 -0.6742  0.3017 -0.5990
  362MOL0     C49876   2.189   0.987  10.381  1.2069 -0.5713 -0.1069
  362MOL0     O49877   2.103   1.066  10.467 -0.0717  0.4655 -0.7218
  362MOL0     C49878   1.982   1.113  10.408  0.4821  0.3165 -0.9830
  362MOL0     C49879   2.000   1.231  10.309  0.0619  0.2655  0.2670
  362MOL0     C49880   2.045   1.364  10.386  0.1642 -0.0140  0.3701
  362MOL0     C49881   2.198   1.373  10.412  0.9722 -0.1786 -0.2988
  362MOL0     C49882   2.221   1.450  10.536  0.1714  0.3390  0.9525
  362MOL0     C49883   2.226   1.512  10.637 -0.5786  0.4321 -0.4224
  362MOL0     C49884   2.136   0.894  10.291 -0.4510  0.1209  0.3460
  362MOL0     C49885   2.219   0.804  10.229 -0.2198  0.2349  0.6246
  362MOL0     C49886   2.152   0.688  10.168  0.3334  0.4690  0.0035
  362MOL0     H49887   2.630   0.567  10.359  1.0042  1.1401 -3.1182
  362MOL0     H49888   2.767   0.356  10.396 -0.2897  3.5738  0.5000
  362MOL0     H49889   2.747   0.045  10.080  0.5615 -1.4721 -0.2459
  362MOL0     H49890   2.866  -0.015  10.176 -1.2372  0.1447  0.2701
  362MOL0     H49891   2.943   0.132   9.989  0.4106  1.4682 -0.0148
  362MOL0     H49892   2.848   0.253  10.043 -1.0737 -0.3367  0.7786
  362MOL0     H49893   2.988   0.258  10.270 -1.2283  0.1872 -1.0494
  362MOL0     H49894   3.102   0.145  10.189  1.1510 -0.2491 -3.4533
  362MOL0     H49895   3.099   0.343   9.990  0.6851  2.9190 -0.8996
  362MOL0     H49896   3.034   0.437  10.120  2.4013 -0.1052  0.5324
  362MOL0     H49897   3.233   0.363  10.276 -0.3123  1.4842 -0.3719
  362MOL0     H49898   3.256   0.470  10.142  2.8805  0.3089  1.6723
  362MOL0     H49899   3.440   0.304  10.179 -0.0399 -2.2156  1.6277
  362MOL0     H49900   3.324   0.184  10.132  1.5521  0.9550  3.5527
  362MOL0     H49901   3.396   0.433   9.949 -0.4568 -0.4198 -0.6142
  362MOL0     H49902   3.309   0.286   9.916 -0.0832 -2.5961  1.8703
  362MOL0     H49903   3.576   0.322   9.834  2.3896  0.5896  1.1050
  362MOL0     H49904   3.604   0.276  10.002 -2.3566 -2.6067  2.4332
  362MOL0     H49905   3.593   0.052  10.098 -1.7717 -0.4528  0.0470
  362MOL0     H49906   3.696  -0.238   9.968 -1.2629 -2.0406 -0.0175
  362MOL0     H49907   3.551  -0.288   9.920 -0.8374  3.8597 -3.7521
  362MOL0     H49908   3.621  -0.171  10.208  2.4328 -0.2094 -1.5524
  362MOL0     H49909   3.454  -0.177  10.148  1.0983  0.9070  1.0138
  362MOL0     H49910   3.492  -0.378  10.276 -0.1820 -0.8745 -0.6523
  362MOL0     H49911   3.466  -0.415  10.111  0.6850 -1.2660 -0.0229
  362MOL0     H49912   3.646  -0.544  10.246 -1.2322  0.2658 -0.9652
  362MOL0     H49913   3.699  -0.499  10.083 -1.0468 -0.4214  0.2040
  362MOL0     H49914   3.868  -0.603  10.149 -1.1567  1.4067  2.1248
  362MOL0     H49915   4.189  -0.737  10.131 -1.0757 -2.3333 -1.3952
  362MOL0     H49916   4.150  -0.667   9.971 -1.6692  1.0596 -1.7829
  362MOL0     H49917   4.027  -0.752  10.062 -0.4928  0.6219 -0.9492
  362MOL0     H49918   4.551  -0.186  10.012 -2.0092  0.0774  0.6108
  362MOL0     H49919   4.810  -0.198   9.991  3.4096 -1.6765  2.0574
  362MOL0     H49920   5.136  -0.457  10.181 -0.9237  0.0510  1.4914
  362MOL0     H49921   4.999  -0.524  10.235  2.6581 -0.7634 -0.1164
  362MOL0     H49922   5.066  -0.448   9.933  3.5572  0.0723  1.8772
  362MOL0     H49923   5.106  -0.598  10.012 -0.2294  0.2231 -1.5311
  362MOL0     H49924   4.818  -0.523   9.972 -0.0060 -0.1339 -2.9561
  362MOL0     H49925   4.885  -0.677  10.036  0.4961  0.6661  1.4771
  362MOL0     H49926   5.012  -0.693   9.815 -0.9820 -0.2226 -1.3950
  362MOL0     H49927   4.930  -0.545   9.770  1.7279  1.9950  2.1164
  362MOL0     H49928   4.786  -0.801   9.870 -2.6776  1.9066 -0.5537
  362MOL0     H49929   4.708  -0.683   9.775 -0.7850 -0.1772 -1.1963
  362MOL0     H49930   4.770  -0.891   9.639 -0.0114  0.5046 -2.4989
  362MOL0     H49931   4.939  -0.864   9.668  0.4733  0.1793 -2.9178
  362MOL0     H49932   4.939  -0.676   9.510 -1.9228  2.0324 -0.9231
  362MOL0     H49933   4.773  -0.645   9.545  1.0949  0.8648  1.3419
  362MOL0     H49934   4.852  -0.906   9.417  1.1250  0.7438  0.3790
  362MOL0     H49935   4.836  -0.759   9.329 -1.6550  0.0273 -0.7115
  362MOL0     H49936   4.802  -0.477  10.323 -1.5787 -1.0983 -0.8152
  362MOL0     H49937   4.554  -0.509  10.292  2.4139 -1.0070  0.2398
  362MOL0     H49938   4.197  -0.250  10.250  1.4608 -0.4972 -1.9409
  362MOL0     H49939   3.953  -0.215  10.297 -0.1859  0.9924  0.0484
  362MOL0     H49940   2.555   0.176  10.072  5.2704  0.5459 -1.7322
  362MOL0     H49941   2.390   0.387  10.078 -0.5799 -1.5948 -0.5987
  362MOL0     H49942   2.516   0.921  10.356 -0.6273  1.1273  2.9523
  362MOL0     H49943   2.362   1.081  10.461 -1.3815 -1.8221  2.1564
  362MOL0     H49944   1.923   1.034  10.361 -1.5573  1.6974 -0.8673
  362MOL0     H49945   1.913   1.141  10.488 -1.4420 -1.6541 -1.8481
  362MOL0     H49946   1.908   1.252  10.255  1.1591  1.4833 -1.2228
  362MOL0     H49947   2.076   1.208  10.234 -0.6373 -1.4445  0.0521
  362MOL0     H49948   2.010   1.448  10.325 -3.4100  0.0822  2.2642
  362MOL0     H49949   1.988   1.361  10.480  0.7426  1.4347  0.7973
  362MOL0     H49950   2.257   1.425  10.336 -0.0106  1.5880  0.0977
  362MOL0     H49951   2.244   1.274  10.424  4.3978  1.3693  0.8186
  362MOL0     H49952   2.246   1.588  10.710  0.3395  3.1986 -3.3130
  362MOL0     H49953   2.031   0.870  10.283 -0.7854  1.0337  1.8285
  362MOL0     H49954   2.098   0.630  10.244  0.6844 -1.6219 -1.2504
  362MOL0     H49955   2.086   0.714  10.084  0.9443  1.5268 -0.1651
  362MOL0     H49956   2.217   0.618  10.115  4.6489  4.9342 -1.3145
  363MOL0     O49957  11.341  10.144   5.559  0.5077  0.4928 -0.0960
  363MOL0     C49958  11.337  10.040   5.489  0.3494 -0.2591  0.0724
  363MOL0     O49959  11.436  10.011   5.390 -0.4616  0.6389  0.0514
  363MOL0     C49960  11.535  10.102   5.374  0.4114 -0.4245  0.0068
  363MOL0     C49961  11.508  10.237   5.333  0.1623  0.0328 -0.4717
  363MOL0     C49962  11.614  10.321   5.311  0.6999 -0.3919 -0.6457
  363MOL0     C49963  11.746  10.280   5.322 -0.7365  1.1517  1.3181
  363MOL0     O49964  11.854  10.348   5.293  0.2182  0.6602  0.0202
  363MOL0     C49965  11.863  10.429   5.174 -0.1704 -0.8785 -0.4410
  363MOL0     C49966  11.981  10.529   5.197  0.0532 -0.2177  0.5908
  363MOL0     C49967  11.997  10.632   5.080 -0.3943  0.5724 -0.1311
  363MOL0     C49968  12.067  10.573   4.956 -0.5510 -0.7326  0.3844
  363MOL0     C49969  12.152  10.680   4.873 -0.4727  0.7145  0.2481
  363MOL0     C49970  12.265  10.743   4.948 -0.6875 -0.4860 -0.0093
  363MOL0     C49971  12.358  10.658   5.039 -0.0339  0.0425  0.2892
  363MOL0     C49972  12.413  10.535   4.974  0.9843  0.9517  0.1454
  363MOL0     N49973  12.510  10.559   4.860  0.1251 -0.0294  0.3566
  363MOL0     C49974  12.641  10.533   4.883 -0.1169 -0.5711 -0.1736
  363MOL0     C49975  12.698  10.543   4.761 -0.1920 -0.2862  0.4316
  363MOL0     C49976  12.847  10.555   4.730 -0.6925  0.4731 -0.4457
  363MOL0     C49977  12.876  10.606   4.582  1.1029 -0.4456  0.2220
  363MOL0     C49978  13.022  10.647   4.564  0.0787  0.2201 -0.0956
  363MOL0     C49979  13.039  10.734   4.435 -1.1179  0.0648 -0.0757
  363MOL0     O49980  13.173  10.788   4.452  0.2792  0.2106 -0.0539
  363MOL0     C49981  13.239  10.817   4.330  0.5874 -0.0167 -0.1067
  363MOL0     C49982  13.297  10.946   4.316 -0.0101 -0.3315 -0.1066
  363MOL0     C49983  13.367  10.980   4.201  0.2301  0.0920  0.3973
  363MOL0     C49984  13.424  11.121   4.205  0.4647 -0.3804  0.2739
  363MOL0     C49985  13.388  10.881   4.091  0.5624 -0.2837  0.3596
  363MOL0     C49986  13.487  10.909   3.987 -0.4437 -0.4383  0.2835
  363MOL0     O49987  13.552  10.805   3.936  0.2107 -0.3223  0.5260
  363MOL0     C49988  13.617  10.835   3.816 -0.5548  0.0641 -0.9402
  363MOL0     C49989  13.754  10.864   3.830  0.5513 -0.4309  0.7000
  363MOL0     C49990  13.829  10.919   3.726 -0.7327  1.2859  0.3723
  363MOL0     C49991  13.775  10.912   3.593 -0.3641  0.0041 -0.2387
  363MOL0     O49992  13.851  10.938   3.481  0.0544 -0.0520 -0.1483
  363MOL0     C49993  13.850  11.076   3.430 -0.8296 -0.4492  0.8744
  363MOL0     C49994  13.950  11.161   3.517 -0.8813 -0.3606 -0.3627
  363MOL0     C49995  14.093  11.103   3.512  0.3921 -0.0444  0.2651
  363MOL0     C49996  14.223  11.187   3.481  0.7055 -1.1292  0.7413
  363MOL0     C49997  14.360  11.114   3.489 -0.3893 -1.0470  0.4692
  363MOL0     C49998  14.370  10.988   3.409 -0.4204  0.2971  0.5347
  363MOL0     C49999  14.512  10.935   3.396  0.1624 -0.5705  0.2462
  363MOL0     C50000  14.512  10.811   3.299 -0.1669 -0.1098  1.3526
  363MOL0    Cl50001  14.422  10.682   3.381 -0.1779 -0.0795  0.0484
  363MOL0     C50002  13.650  10.866   3.581 -0.2116  0.0383  1.1862
  363MOL0     C50003  13.559  10.835   3.688 -0.6354 -0.2213 -0.2716
  363MOL0     O50004  13.490  11.023   3.943 -0.2089 -0.4056  0.2648
  363MOL0     C50005  13.333  10.762   4.111  0.0162  1.1951 -0.5700
  363MOL0     C50006  13.253  10.725   4.232  0.3149 -0.1451  1.1517
  363MOL0     N50007  12.595  10.555   4.665  0.0342 -0.2029 -0.8834
  363MOL0     N50008  12.484  10.557   4.727 -0.4603 -0.5183 -0.2962
  363MOL0     C50009  11.769  10.146   5.368  0.0472 -0.0732  0.1099
  363MOL0     C50010  11.663  10.054   5.391 -0.2831 -0.4263 -0.2279
  363MOL0     C50011  11.230   9.933   5.516  0.2697 -1.1023 -1.0085
  363MOL0     C50012  11.249   9.812   5.445  0.1635  0.1359 -0.5731
  363MOL0     C50013  11.160   9.706   5.451 -0.3614  0.5700 -0.2593
  363MOL0     C50014  11.052   9.714   5.543 -0.0916  1.4793 -0.6562
  363MOL0     O50015  10.967   9.606   5.555 -0.3456  0.6779 -0.7787
  363MOL0     C50016  10.831   9.653   5.536 -0.6035 -0.5833  0.6804
  363MOL0     C50017  10.799   9.626   5.387 -0.2189 -0.4440 -0.3219
  363MOL0     C50018  10.798   9.474   5.353  0.6268 -0.4068 -0.2225
  363MOL0     C50019  10.683   9.390   5.408 -0.0994 -0.6080 -1.2034
  363MOL0     C50020  10.556   9.428   5.343 -0.1793  0.1287 -0.7317
  363MOL0     C50021  10.439   9.447   5.297 -0.3093  0.5031 -0.4703
  363MOL0     C50022  11.043   9.825   5.625  0.7437  0.6567  0.4316
  363MOL0     C50023  11.122   9.941   5.605 -0.7078 -0.1339  0.1424
  363MOL0     C50024  11.087  10.069   5.681 -0.8000 -0.0951 -0.4451
  363MOL0     H50025  11.411  10.285   5.319  0.2607  1.6897  3.3235
  363MOL0     H50026  11.576  10.419   5.287  0.5297  0.3683  2.3597
  363MOL0     H50027  11.771  10.485   5.155  0.3753 -0.3439 -1.6197
  363MOL0     H50028  11.888  10.369   5.086  1.2678  1.8671 -2.0338
  363MOL0     H50029  11.955  10.577   5.291 -2.9541 -2.7293  1.2014
  363MOL0     H50030  12.076  10.475   5.202 -0.0281 -0.4266  0.0311
  363MOL0     H50031  11.892  10.653   5.056 -0.7435  0.9224  1.5413
  363MOL0     H50032  12.056  10.718   5.112 -0.5376 -0.2843  2.6727
  363MOL0     H50033  12.130  10.493   4.998  1.2932  0.2505 -0.3706
  363MOL0     H50034  12.001  10.521   4.887 -2.1985  1.2057  0.4057
  363MOL0     H50035  12.081  10.754   4.835 -1.4235 -0.5736 -0.5824
  363MOL0     H50036  12.209  10.628   4.796  0.5255  0.7528  0.9442
  363MOL0     H50037  12.328  10.790   4.872 -1.8373  0.4853 -0.3981
  363MOL0     H50038  12.223  10.831   4.999  0.4069  1.1342 -1.7441
  363MOL0     H50039  12.297  10.636   5.128  0.6278  1.2001  1.0593
  363MOL0     H50040  12.446  10.710   5.077 -1.4058  2.3342  0.5344
  363MOL0     H50041  12.475  10.487   5.051 -1.8037  0.3943  2.1969
  363MOL0     H50042  12.338  10.459   4.950  1.9723 -0.1948  0.6103
  363MOL0     H50043  12.686  10.526   4.982 -0.4901  0.1002  0.0497
  363MOL0     H50044  12.893  10.460   4.756 -0.6934  0.6285  0.1300
  363MOL0     H50045  12.881  10.639   4.791  0.5165 -0.3900  0.0850
  363MOL0     H50046  12.853  10.530   4.506  0.9597  0.6984 -0.9072
  363MOL0     H50047  12.809  10.682   4.542  2.0400 -1.8719 -4.6693
  363MOL0     H50048  13.043  10.713   4.648 -0.6288 -0.6827  0.8178
  363MOL0     H50049  13.092  10.563   4.565  0.7305  0.7546 -0.4015
  363MOL0     H50050  13.026  10.664   4.352  1.0399 -0.7479  0.2032
  363MOL0     H50051  12.976  10.823   4.441  1.7167  2.1424  2.0708
  363MOL0     H50052  13.269  11.021   4.389 -2.2593 -0.3209 -0.8883
  363MOL0     H50053  13.391  11.180   4.119 -1.8424 -0.6176  0.9209
  363MOL0     H50054  13.533  11.120   4.211  0.6687 -3.8754 -1.3785
  363MOL0     H50055  13.383  11.177   4.290  0.3790 -1.2285  0.8072
  363MOL0     H50056  13.800  10.868   3.929  3.8609 -1.5482 -0.6559
  363MOL0     H50057  13.926  10.959   3.755 -0.7358  0.5333  1.5188
  363MOL0     H50058  13.891  11.071   3.329  2.0728 -1.6573  2.0043
  363MOL0     H50059  13.747  11.111   3.441 -0.6726  0.7416 -1.0607
  363MOL0     H50060  13.938  11.263   3.481 -0.1448 -0.3740 -0.6570
  363MOL0     H50061  13.917  11.152   3.621 -2.8230 -0.4139 -0.9459
  363MOL0     H50062  14.080  11.028   3.433 -1.0732  0.7252 -0.2584
  363MOL0     H50063  14.109  11.048   3.606  0.8313  1.6135  1.1991
  363MOL0     H50064  14.222  11.268   3.555 -2.8772  2.0543 -2.3662
  363MOL0     H50065  14.225  11.230   3.381  2.0006 -1.7555  0.4678
  363MOL0     H50066  14.441  11.181   3.457  0.4332 -1.2477  2.0055
  363MOL0     H50067  14.397  11.088   3.589 -1.6667 -1.6674  0.7929
  363MOL0     H50068  14.344  11.028   3.311 -1.8332  1.6178  1.3882
  363MOL0     H50069  14.289  10.920   3.439  0.8825 -0.7632  1.7533
  363MOL0     H50070  14.563  10.910   3.490  1.2744 -0.4116 -0.2911
  363MOL0     H50071  14.566  11.015   3.345  3.0034 -0.1762  3.4343
  363MOL0     H50072  14.612  10.773   3.276 -0.0742  0.1373  1.3426
  363MOL0     H50073  14.458  10.844   3.210  0.3539  3.4097  2.1760
  363MOL0     H50074  13.608  10.842   3.484  0.2432  0.2771  0.9277
  363MOL0     H50075  13.460  10.798   3.665 -0.3831  0.0040 -1.7993
  363MOL0     H50076  13.351  10.686   4.036 -1.7566 -1.7472  1.7243
  363MOL0     H50077  13.212  10.624   4.239  0.0833 -0.2496 -1.1166
  363MOL0     H50078  11.872  10.115   5.384  0.5599  0.5336 -1.7653
  363MOL0     H50079  11.672   9.952   5.427  0.3650 -0.6648 -1.0176
  363MOL0     H50080  11.325   9.794   5.370  2.0279 -1.6734  1.6104
  363MOL0     H50081  11.160   9.616   5.391 -1.5238  0.1324  0.3544
  363MOL0     H50082  10.770   9.593   5.604  0.6898 -0.1958  2.2559
  363MOL0     H50083  10.807   9.753   5.571  0.6286  0.6888 -1.8730
  363MOL0     H50084  10.879   9.670   5.326  1.7459 -0.5842  1.9722
  363MOL0     H50085  10.703   9.669   5.359  0.1441  0.5454 -0.0729
  363MOL0     H50086  10.809   9.466   5.245  0.6869  1.2147 -0.3649
  363MOL0     H50087  10.890   9.433   5.395  1.5989  1.1446 -0.7444
  363MOL0     H50088  10.673   9.398   5.516  0.1161 -2.1166 -1.0444
  363MOL0     H50089  10.707   9.283   5.401  0.2875 -0.5886 -0.2288
  363MOL0     H50090  10.336   9.464   5.274 -1.8770 -1.4848  3.9941
  363MOL0     H50091  10.956   9.824   5.689  0.8947  0.6913  0.6404
  363MOL0     H50092  10.988  10.069   5.727 -0.7371 -0.7123 -0.3011
  363MOL0     H50093  11.161  10.091   5.759 -1.5888 -2.9288  1.2319
  363MOL0     H50094  11.084  10.156   5.615 -2.3206  2.0924  2.2868
  364MOL0     O50095   1.548   4.894   8.203  0.0780 -0.2183 -1.1974
  364MOL0     C50096   1.622   4.969   8.148 -1.0306 -0.8851  0.5715
  364MOL0     O50097   1.615   4.988   8.014  0.0697  0.4217 -0.6415
  364MOL0     C50098   1.502   4.952   7.944  0.1223 -0.1561  0.0403
  364MOL0     C50099   1.491   4.811   7.914  0.5897  0.2828  0.6360
  364MOL0     C50100   1.374   4.754   7.863 -0.5113  0.9187  0.2721
  364MOL0     C50101   1.260   4.833   7.854 -0.3301 -0.1121  0.4057
  364MOL0     O50102   1.139   4.762   7.838 -0.2939 -0.7355  0.6210
  364MOL0     C50103   1.137   4.698   7.705 -0.0493 -0.2488  0.8764
  364MOL0     C50104   1.010   4.616   7.718 -0.6697  0.7797  0.3691
  364MOL0     C50105   0.891   4.695   7.684 -0.0552 -0.2700 -0.0671
  364MOL0     C50106   0.846   4.675   7.548  0.0862 -1.2671  0.0836
  364MOL0     C50107   0.722   4.756   7.505  0.0505 -0.4135 -0.7176
  364MOL0     C50108   0.584   4.699   7.530  0.5917  0.4574 -0.3338
  364MOL0     C50109   0.480   4.803   7.477 -0.3955  0.3383  0.5365
  364MOL0     C50110   0.460   4.914   7.583 -0.3805  0.5595 -0.0414
  364MOL0     N50111   0.341   5.003   7.556 -0.1933  1.1181  0.4391
  364MOL0     C50112   0.210   4.958   7.527  0.6512 -0.0451 -0.3116
  364MOL0     C50113   0.135   5.073   7.523  0.5391  0.7135  1.0057
  364MOL0     C50114  -0.008   5.108   7.503 -0.1144 -1.0541  0.1103
  364MOL0     C50115  -0.066   5.017   7.403  0.1522 -0.1886 -0.1685
  364MOL0     C50116  -0.213   5.009   7.418  0.7994  0.5935 -0.4647
  364MOL0     C50117  -0.277   4.946   7.529  1.1053  0.6708 -1.2701
  364MOL0     O50118  -0.225   4.811   7.539  0.0472  0.1938 -0.7419
  364MOL0     C50119  -0.310   4.722   7.592  0.1097 -0.2457  0.1551
  364MOL0     C50120  -0.349   4.609   7.515  0.0604  0.1127 -0.6269
  364MOL0     C50121  -0.435   4.509   7.566  0.3912 -0.0948 -0.4144
  364MOL0     C50122  -0.473   4.404   7.468  0.2931  0.8870  0.0186
  364MOL0     C50123  -0.485   4.530   7.698 -0.6824  0.3015 -0.8861
  364MOL0     C50124  -0.567   4.431   7.767 -0.3059 -0.5737  1.0753
  364MOL0     O50125  -0.637   4.483   7.882  0.8310  0.1837  0.0089
  364MOL0     C50126  -0.719   4.401   7.951  0.8178 -0.3130  0.3329
  364MOL0     C50127  -0.836   4.354   7.890  1.1484 -0.0172 -0.4286
  364MOL0     C50128  -0.935   4.291   7.957  0.3586  0.1503 -0.0989
  364MOL0     C50129  -0.931   4.267   8.099 -0.1177  0.7211  0.4802
  364MOL0     O50130  -1.033   4.213   8.179 -0.0570 -0.9820 -0.3270
  364MOL0     C50131  -1.154   4.165   8.117  0.0664 -0.5963  0.7960
  364MOL0     C50132  -1.258   4.106   8.212 -0.1130  0.2570  0.5174
  364MOL0     C50133  -1.378   4.034   8.146  0.1363 -0.0278 -0.1356
  364MOL0     C50134  -1.341   3.910   8.057 -0.1703 -0.5307  0.1676
  364MOL0     C50135  -1.462   3.856   7.980  1.1089 -0.2419 -0.2262
  364MOL0     C50136  -1.420   3.761   7.872  1.0160 -0.8825  0.8854
  364MOL0     C50137  -1.535   3.731   7.782  0.5117 -0.1055  0.4996
  364MOL0     C50138  -1.496   3.591   7.726 -0.0258 -0.3742 -0.0207
  364MOL0    Cl50139  -1.594   3.521   7.597 -0.1277  0.0328 -0.4991
  364MOL0     C50140  -0.810   4.316   8.156 -0.3844 -0.3193 -0.3636
  364MOL0     C50141  -0.708   4.382   8.083 -0.0537 -0.4524 -1.2253
  364MOL0     O50142  -0.576   4.320   7.721 -0.2364  0.2150 -0.6403
  364MOL0     C50143  -0.431   4.638   7.779 -0.1803 -0.0301  0.1758
  364MOL0     C50144  -0.348   4.737   7.724  0.5891 -0.8823  0.5066
  364MOL0     N50145   0.228   5.171   7.536 -0.3681  0.2860 -0.6048
  364MOL0     N50146   0.343   5.136   7.548 -0.4235  0.8108 -0.7373
  364MOL0     C50147   1.268   4.968   7.899 -0.0001  0.5879  0.4292
  364MOL0     C50148   1.390   5.030   7.935  0.3812  0.8438  0.2383
  364MOL0     C50149   1.725   5.045   8.211 -0.4024  1.5496  0.1293
  364MOL0     C50150   1.789   5.153   8.153 -0.5838  0.3411  0.4884
  364MOL0     C50151   1.898   5.215   8.212  0.0597  0.7138  0.2200
  364MOL0     C50152   1.946   5.172   8.337 -0.2848  0.4059 -0.7800
  364MOL0     O50153   2.047   5.248   8.411  0.8062  0.1458  0.3671
  364MOL0     C50154   2.141   5.348   8.346 -0.0114  0.6193 -0.3377
  364MOL0     C50155   2.240   5.394   8.451  0.4035  0.2697  0.0208
  364MOL0     C50156   2.292   5.269   8.529 -0.2104  0.5913 -0.1866
  364MOL0     C50157   2.421   5.303   8.610  0.0671  0.0594 -0.0620
  364MOL0     C50158   2.468   5.185   8.676  0.4662 -0.0254 -0.5837
  364MOL0     C50159   2.485   5.076   8.733  0.3603  0.0035  0.6063
  364MOL0     C50160   1.881   5.072   8.403  0.5708 -0.2177 -0.3250
  364MOL0     C50161   1.776   5.014   8.341  0.8149 -0.2637  0.3570
  364MOL0     C50162   1.715   4.903   8.422 -0.3105  0.4838 -0.3651
  364MOL0     H50163   1.578   4.746   7.921  0.4404 -0.1402 -1.0543
  364MOL0     H50164   1.368   4.650   7.830  1.1381  0.1046  2.3271
  364MOL0     H50165   1.224   4.633   7.689  0.3499 -0.2091  2.6467
  364MOL0     H50166   1.136   4.769   7.623 -0.3371 -0.8928  0.3162
  364MOL0     H50167   1.012   4.537   7.642 -2.8990  2.4159 -1.5511
  364MOL0     H50168   0.993   4.566   7.813  0.1865 -1.5407 -0.6210
  364MOL0     H50169   0.809   4.666   7.750  0.7937 -4.1540 -0.4747
  364MOL0     H50170   0.904   4.803   7.700  2.4033 -0.3910 -0.7924
  364MOL0     H50171   0.927   4.712   7.484 -0.7073  1.9546  0.7892
  364MOL0     H50172   0.825   4.569   7.528 -2.6501 -0.5550 -1.2342
  364MOL0     H50173   0.723   4.783   7.399  2.8238 -3.0345 -1.4860
  364MOL0     H50174   0.724   4.850   7.562 -1.5939 -0.0951 -1.1472
  364MOL0     H50175   0.582   4.604   7.477  1.7088 -1.2668  2.4658
  364MOL0     H50176   0.571   4.668   7.634  1.3718  0.0160 -0.3559
  364MOL0     H50177   0.380   4.764   7.453 -0.4521 -0.9057  2.5170
  364MOL0     H50178   0.528   4.841   7.386 -0.4567 -1.4495 -0.3060
  364MOL0     H50179   0.450   4.874   7.684 -0.3406  1.7730  0.4574
  364MOL0     H50180   0.545   4.982   7.586 -1.3645  1.8713 -1.0097
  364MOL0     H50181   0.174   4.856   7.518  1.9479 -0.3897 -2.1795
  364MOL0     H50182  -0.013   5.213   7.474  1.6011 -0.4333  1.8795
  364MOL0     H50183  -0.054   5.098   7.602 -1.4395 -2.6916 -0.6118
  364MOL0     H50184  -0.042   5.058   7.305 -2.3142  0.7598 -0.4350
  364MOL0     H50185  -0.029   4.914   7.408  0.2667 -0.0851  2.6453
  364MOL0     H50186  -0.244   5.114   7.424  0.7063  0.5229  4.0555
  364MOL0     H50187  -0.265   4.950   7.343  0.6237 -0.6278  0.5738
  364MOL0     H50188  -0.272   4.996   7.626  0.3090 -2.4850  0.5517
  364MOL0     H50189  -0.383   4.930   7.507  1.8469 -4.5208 -2.4942
  364MOL0     H50190  -0.315   4.608   7.412  1.8155  1.2398 -0.0953
  364MOL0     H50191  -0.481   4.439   7.365 -1.7650 -0.3470 -0.2862
  364MOL0     H50192  -0.577   4.377   7.486 -0.0219  1.2052 -1.2364
  364MOL0     H50193  -0.409   4.315   7.471 -1.9848 -0.9102 -1.3256
  364MOL0     H50194  -0.848   4.364   7.783  0.7623  0.8540 -0.3074
  364MOL0     H50195  -1.026   4.266   7.903 -2.2454 -1.3151  4.3484
  364MOL0     H50196  -1.190   4.253   8.062  0.9230 -0.7745 -0.0872
  364MOL0     H50197  -1.118   4.093   8.043  2.9142  0.3445  1.1363
  364MOL0     H50198  -1.196   4.038   8.271  2.9605 -0.3590 -3.0037
  364MOL0     H50199  -1.286   4.191   8.274  0.7948  1.6289 -0.8876
  364MOL0     H50200  -1.420   4.112   8.081  0.8558  2.5180  2.2607
  364MOL0     H50201  -1.449   4.004   8.223  0.1678 -0.3318 -0.2214
  364MOL0     H50202  -1.302   3.836   8.127 -0.9401 -2.3289 -1.2208
  364MOL0     H50203  -1.258   3.943   7.994 -2.0266  3.6552 -0.4221
  364MOL0     H50204  -1.535   3.816   8.052 -0.1612  0.6746 -0.9768
  364MOL0     H50205  -1.513   3.940   7.934  0.2941 -1.4734 -1.6594
  364MOL0     H50206  -1.374   3.680   7.930  1.6723 -2.2858 -1.4670
  364MOL0     H50207  -1.334   3.798   7.816 -0.3548 -0.1751 -0.8389
  364MOL0     H50208  -1.539   3.813   7.710  0.7203 -0.7364 -0.2425
  364MOL0     H50209  -1.621   3.721   7.849  0.1734 -2.7551 -0.2224
  364MOL0     H50210  -1.479   3.517   7.804  1.2983  0.0122  0.0876
  364MOL0     H50211  -1.403   3.597   7.667 -0.2239  2.2849 -0.1746
  364MOL0     H50212  -0.807   4.302   8.264 -2.4456  0.7755 -0.1179
  364MOL0     H50213  -0.631   4.444   8.128 -1.2494  0.7003 -0.6777
  364MOL0     H50214  -0.471   4.647   7.879  1.2912 -3.7022  1.2691
  364MOL0     H50215  -0.307   4.818   7.783  2.4749 -0.7431 -0.8964
  364MOL0     H50216   1.182   5.032   7.914 -0.5565  0.9695 -3.2686
  364MOL0     H50217   1.383   5.133   7.969  3.4639  1.3207 -0.2719
  364MOL0     H50218   1.777   5.190   8.052  3.2453 -0.0543 -0.2453
  364MOL0     H50219   1.943   5.301   8.164 -0.3928 -0.0476 -1.6400
  364MOL0     H50220   2.184   5.302   8.257 -1.6418 -0.1406 -0.7673
  364MOL0     H50221   2.083   5.435   8.313 -5.1608 -2.6988 -1.1710
  364MOL0     H50222   2.209   5.473   8.521  3.1407  2.1670 -0.7559
  364MOL0     H50223   2.325   5.432   8.394  0.8567  1.2109  1.2635
  364MOL0     H50224   2.226   5.237   8.611  2.7911 -0.9808  1.8199
  364MOL0     H50225   2.304   5.190   8.455  0.9047 -0.5617  1.1522
  364MOL0     H50226   2.392   5.376   8.686  0.1315 -0.4255  0.4374
  364MOL0     H50227   2.502   5.341   8.548  0.8138  0.5646  1.1679
  364MOL0     H50228   2.503   4.978   8.773  0.5010 -0.5486 -0.7549
  364MOL0     H50229   1.901   5.046   8.507  1.7943  0.9031 -0.2545
  364MOL0     H50230   1.758   4.890   8.522  0.8354  2.1726 -0.6024
  364MOL0     H50231   1.609   4.922   8.443 -0.0317  3.5293 -1.2092
  364MOL0     H50232   1.713   4.810   8.366 -1.2141  0.9887 -1.1973
  365MOL0     O50233   1.585   2.345  11.068 -0.6343 -0.0872 -0.5701
  365MOL0     C50234   1.564   2.275  11.163 -0.0618  0.1265 -0.0354
  365MOL0     O50235   1.659   2.189  11.215 -0.0912  0.2496 -0.2108
  365MOL0     C50236   1.735   2.129  11.117  0.0497 -0.3023 -0.4746
  365MOL0     C50237   1.668   2.048  11.016 -0.6321 -0.6763 -0.4727
  365MOL0     C50238   1.737   1.976  10.923 -0.0377 -0.8735 -0.1464
  365MOL0     C50239   1.876   1.980  10.927  0.5894  0.4128 -0.0336
  365MOL0     O50240   1.952   1.906  10.843 -0.2739  0.0705 -0.1946
  365MOL0     C50241   1.917   1.893  10.707  0.7126  0.2014 -0.0238
  365MOL0     C50242   2.033   1.881  10.613 -0.9547  1.1260 -0.9994
  365MOL0     C50243   2.000   1.821  10.477 -0.2718  0.4544  0.6017
  365MOL0     C50244   2.125   1.818  10.398 -0.1580 -0.1763  0.0506
  365MOL0     C50245   2.091   1.756  10.258  0.3152 -0.3888 -0.3514
  365MOL0     C50246   2.223   1.704  10.198 -0.1445 -0.9939 -0.4740
  365MOL0     C50247   2.211   1.662  10.053  0.5698  0.2115  0.0766
  365MOL0     C50248   2.340   1.607  10.001 -0.5872 -0.2211  0.5206
  365MOL0     N50249   2.350   1.459  10.016 -0.3141 -0.1504 -0.2749
  365MOL0     C50250   2.429   1.379  10.093  0.5052  1.0770 -0.1449
  365MOL0     C50251   2.423   1.254  10.035 -0.3794  0.1888  0.8070
  365MOL0     C50252   2.496   1.131  10.088  0.7202  0.3789 -0.0652
  365MOL0     C50253   2.649   1.121  10.033 -0.4696 -1.1148  0.6492
  365MOL0     C50254   2.746   1.237  10.063  0.0933 -0.0024 -0.0797
  365MOL0     C50255   2.791   1.234  10.210 -0.0247  0.3484  0.3382
  365MOL0     O50256   2.683   1.282  10.291  0.1628  0.1371  0.1028
  365MOL0     C50257   2.706   1.315  10.423  0.2191  0.3486 -0.6065
  365MOL0     C50258   2.602   1.285  10.505 -0.5518  0.6399  0.4044
  365MOL0     C50259   2.603   1.296  10.647 -1.1359  1.0040 -0.2609
  365MOL0     C50260   2.485   1.249  10.716  0.2200  0.2365  0.1467
  365MOL0     C50261   2.725   1.348  10.706 -0.1213  0.7210  0.1099
  365MOL0     C50262   2.741   1.398  10.849  0.0224 -0.3678  0.4049
  365MOL0     O50263   2.832   1.505  10.869 -0.5984  0.4723  0.3998
  365MOL0     C50264   2.875   1.507  10.998 -0.2033  0.5385  0.1838
  365MOL0     C50265   2.792   1.587  11.083 -0.9571  0.0405  0.7513
  365MOL0     C50266   2.842   1.595  11.217 -0.4513  0.2969 -0.2991
  365MOL0     C50267   2.965   1.533  11.251 -0.3158 -0.4169 -0.3927
  365MOL0     O50268   3.023   1.524  11.370  0.7810 -0.3328  0.1591
  365MOL0     C50269   2.948   1.488  11.483 -0.9985  0.8122  0.0681
  365MOL0     C50270   3.031   1.472  11.615  0.5620  0.0124  0.2697
  365MOL0     C50271   2.947   1.460  11.732 -0.4882  1.0785 -0.3699
  365MOL0     C50272   3.029   1.375  11.846  0.2492 -0.0327 -0.1030
  365MOL0     C50273   2.987   1.419  11.983  0.0664 -0.0276 -0.2840
  365MOL0     C50274   2.824   1.412  12.008 -0.5546  0.8194  0.9471
  365MOL0     C50275   2.775   1.451  12.146  0.8831  0.4523  0.1923
  365MOL0     C50276   2.626   1.438  12.126  0.7400  0.4875  0.1263
  365MOL0    Cl50277   2.569   1.263  12.123 -0.4298  0.3820 -0.2232
  365MOL0     C50278   3.044   1.481  11.157  0.3559  0.1917  0.6964
  365MOL0     C50279   3.001   1.464  11.029  0.1721 -0.2127 -0.0217
  365MOL0     O50280   2.655   1.361  10.928  0.6062 -0.1642 -0.4393
  365MOL0     C50281   2.830   1.386  10.624 -0.3640 -0.2205 -1.2850
  365MOL0     C50282   2.828   1.359  10.480  0.6502  0.1402  0.0640
  365MOL0     N50283   2.345   1.255   9.920  0.2760 -1.0143  0.0702
  365MOL0     N50284   2.290   1.374   9.917 -0.6106  0.3137  0.0984
  365MOL0     C50285   1.940   2.067  11.019 -1.0954  0.4278 -0.3265
  365MOL0     C50286   1.878   2.136  11.119 -0.1080 -0.5014  0.1112
  365MOL0     C50287   1.442   2.303  11.241 -0.1714 -0.2648 -0.2577
  365MOL0     C50288   1.425   2.246  11.376  0.4702  0.3290  0.8364
  365MOL0     C50289   1.306   2.256  11.440  0.3717  0.1435  0.0688
  365MOL0     C50290   1.196   2.317  11.386 -0.0493  0.5450 -0.4102
  365MOL0     O50291   1.083   2.300  11.460  0.6207 -0.3314 -0.2383
  365MOL0     C50292   0.972   2.391  11.441  0.4581 -0.2016  0.2257
  365MOL0     C50293   0.846   2.380  11.530  0.2818 -0.4931  0.1030
  365MOL0     C50294   0.879   2.395  11.676 -0.0308  0.0773  0.0568
  365MOL0     C50295   0.751   2.407  11.753  0.5102  0.5130  0.3951
  365MOL0     C50296   0.681   2.280  11.759 -0.0271 -0.0907  0.6049
  365MOL0     C50297   0.647   2.165  11.765  0.3312  0.5825  0.5553
  365MOL0     C50298   1.208   2.380  11.263 -0.1223  0.5616 -1.5596
  365MOL0     C50299   1.330   2.377  11.192 -0.5017 -0.6779  0.6870
  365MOL0     C50300   1.310   2.431  11.057 -0.4266  0.6428 -0.2414
  365MOL0     H50301   1.560   2.052  11.019 -0.6389  1.5035  3.1305
  365MOL0     H50302   1.677   1.918  10.855 -2.7915 -1.0620  2.2437
  365MOL0     H50303   1.850   1.970  10.667 -4.3301 -3.4435  0.4596
  365MOL0     H50304   1.859   1.801  10.695  0.9526  0.0643 -0.1552
  365MOL0     H50305   2.086   1.977  10.609 -1.1212  1.3565  1.1949
  365MOL0     H50306   2.109   1.815  10.656 -0.3728  1.1645 -1.9425
  365MOL0     H50307   1.956   1.721  10.484 -0.5569  0.3380 -1.9659
  365MOL0     H50308   1.922   1.880  10.428 -0.5751 -0.1966  0.2822
  365MOL0     H50309   2.160   1.921  10.398 -1.8373  0.4725 -1.9924
  365MOL0     H50310   2.204   1.758  10.445 -2.6358 -2.9319  1.0385
  365MOL0     H50311   2.054   1.841  10.201  0.7466 -0.7131 -1.1280
  365MOL0     H50312   2.018   1.675  10.255 -0.8314  0.6449 -2.8650
  365MOL0     H50313   2.298   1.783  10.196  0.1968 -1.3145 -0.4597
  365MOL0     H50314   2.253   1.620  10.261 -1.7229  1.1103  3.4225
  365MOL0     H50315   2.187   1.755  10.001  0.4958  0.4968  0.6133
  365MOL0     H50316   2.132   1.591  10.028 -2.5929  2.9325  1.6304
  365MOL0     H50317   2.345   1.630   9.894 -3.4822  1.3431  0.6237
  365MOL0     H50318   2.430   1.642  10.053  2.7423 -1.9815 -3.5292
  365MOL0     H50319   2.500   1.406  10.171 -0.0465  0.1232  0.7048
  365MOL0     H50320   2.434   1.042  10.075  0.5406  0.3899  0.6793
  365MOL0     H50321   2.491   1.144  10.196 -0.3838  1.4164 -0.2255
  365MOL0     H50322   2.694   1.027  10.066  2.3435  0.3076  1.2008
  365MOL0     H50323   2.638   1.114   9.925 -0.4350  0.8217  0.4797
  365MOL0     H50324   2.836   1.248  10.003  0.5366  1.9081  0.8401
  365MOL0     H50325   2.700   1.336  10.055  1.2104  0.3539 -3.8603
  365MOL0     H50326   2.821   1.135  10.246 -1.2490 -0.2038 -0.1121
  365MOL0     H50327   2.877   1.302  10.213 -1.6470  2.4779  1.4770
  365MOL0     H50328   2.525   1.235  10.447 -0.2109 -2.6356  2.5120
  365MOL0     H50329   2.405   1.222  10.645  0.8952 -0.7067 -0.2700
  365MOL0     H50330   2.451   1.323  10.789  3.5187  1.9010  0.1586
  365MOL0     H50331   2.515   1.167  10.781 -2.3220  2.0354  3.9357
  365MOL0     H50332   2.692   1.607  11.046 -1.4462 -3.7440 -0.4355
  365MOL0     H50333   2.781   1.631  11.299  0.4747 -0.7316  0.8889
  365MOL0     H50334   2.866   1.559  11.497 -1.2296  1.1003 -2.3199
  365MOL0     H50335   2.898   1.393  11.462  2.1034 -1.1547  0.9310
  365MOL0     H50336   3.091   1.380  11.611  1.4816  0.6384 -1.0913
  365MOL0     H50337   3.104   1.553  11.617  0.5645  0.1401 -1.9685
  365MOL0     H50338   2.849   1.413  11.718 -0.2820 -0.0905  1.7660
  365MOL0     H50339   2.924   1.560  11.770 -5.2410  0.0125  0.1475
  365MOL0     H50340   3.137   1.386  11.835  0.4102 -0.5803  0.8722
  365MOL0     H50341   3.001   1.269  11.852 -1.2523  0.4322  2.7040
  365MOL0     H50342   3.025   1.352  12.060  0.1499  0.6166  0.2441
  365MOL0     H50343   3.027   1.520  12.001  0.2512 -0.2700  0.7083
  365MOL0     H50344   2.790   1.314  11.973 -0.1716  0.7725  0.6975
  365MOL0     H50345   2.781   1.473  11.929 -0.7319 -0.2377  0.2023
  365MOL0     H50346   2.801   1.556  12.166  0.4797  0.6245 -0.1812
  365MOL0     H50347   2.806   1.381  12.224  2.8761  0.9551 -0.1030
  365MOL0     H50348   2.596   1.489  12.034 -2.4053 -1.5692 -0.1668
  365MOL0     H50349   2.581   1.483  12.215 -2.3344  0.1112 -1.0921
  365MOL0     H50350   3.145   1.454  11.188  1.2729 -0.0319 -2.2030
  365MOL0     H50351   3.061   1.427  10.946 -1.2682 -0.7847 -0.8619
  365MOL0     H50352   2.918   1.436  10.663 -1.1756  0.7853 -0.7123
  365MOL0     H50353   2.913   1.393  10.422  0.2925 -1.8652 -1.7654
  365MOL0     H50354   2.048   2.066  11.018 -1.0900  0.7610 -1.7132
  365MOL0     H50355   1.928   2.194  11.195 -1.4029  0.6660  0.1003
  365MOL0     H50356   1.516   2.196  11.410  1.6919 -0.6184 -3.2483
  365MOL0     H50357   1.289   2.220  11.541  0.1119 -0.0101 -0.0282
  365MOL0     H50358   1.012   2.492  11.452 -0.3563  0.6596 -3.4198
  365MOL0     H50359   0.933   2.380  11.339 -0.7496 -0.9675  0.7526
  365MOL0     H50360   0.799   2.282  11.516 -0.1623 -0.4164  1.0077
  365MOL0     H50361   0.778   2.459  11.497  1.8592  1.2427  0.8030
  365MOL0     H50362   0.933   2.304  11.703  1.7275  0.1095 -2.8946
  365MOL0     H50363   0.923   2.493  11.696  0.6449 -0.0919 -0.5693
  365MOL0     H50364   0.687   2.484  11.710  0.2873 -1.3805 -3.0246
  365MOL0     H50365   0.782   2.427  11.856 -0.1242 -2.3847  1.2407
  365MOL0     H50366   0.617   2.063  11.776 -0.7367  0.9821  1.6309
  365MOL0     H50367   1.120   2.433  11.227 -1.9565 -1.4301 -0.2757
  365MOL0     H50368   1.340   2.357  10.983  0.2899  0.0041  0.6761
  365MOL0     H50369   1.204   2.457  11.047 -0.6922  0.2144  1.1808
  365MOL0     H50370   1.377   2.517  11.049 -0.6487  1.0344  1.5989
  366MOL0     O50371   1.863   4.404  10.149  0.1496  0.1997  0.0368
  366MOL0     C50372   1.796   4.299  10.166 -0.2345  0.2188 -0.3515
  366MOL0     O50373   1.829   4.177  10.122  0.3796 -0.6512  0.2542
  366MOL0     C50374   1.942   4.163  10.051  0.7055 -0.1291  0.1326
  366MOL0     C50375   2.066   4.129  10.112 -0.1206 -0.9751  1.2863
  366MOL0     C50376   2.180   4.121  10.038 -0.8022 -0.5262  0.1155
  366MOL0     C50377   2.178   4.127   9.894 -0.1012 -0.1785 -1.1084
  366MOL0     O50378   2.274   4.100   9.796 -0.2593 -0.1516 -0.1033
  366MOL0     C50379   2.393   4.016   9.815  1.4257 -0.2017 -0.9151
  366MOL0     C50380   2.351   3.865   9.804  0.6313 -0.3584  0.3012
  366MOL0     C50381   2.250   3.837   9.691  0.5371 -1.2230  0.3322
  366MOL0     C50382   2.318   3.807   9.562 -0.6265  0.0476  0.5219
  366MOL0     C50383   2.219   3.795   9.441 -0.3062 -0.0710  0.1409
  366MOL0     C50384   2.139   3.667   9.454  0.5310  0.0355 -0.1268
  366MOL0     C50385   2.033   3.649   9.332 -0.5639  0.2709  0.3924
  366MOL0     C50386   1.974   3.509   9.336  0.1028  0.1133 -0.1433
  366MOL0     N50387   1.855   3.493   9.260 -1.0257  0.6470  0.1042
  366MOL0     C50388   1.829   3.410   9.156  0.2831 -0.8592 -0.7684
  366MOL0     C50389   1.699   3.437   9.121 -0.0013 -0.0918 -0.0490
  366MOL0     C50390   1.617   3.384   9.006 -0.6851  0.1932  1.0745
  366MOL0     C50391   1.684   3.411   8.870  0.1094 -0.1848 -0.8933
  366MOL0     C50392   1.584   3.377   8.753 -1.0504 -0.2051  0.0850
  366MOL0     C50393   1.635   3.390   8.609  0.3905 -0.0800  0.6979
  366MOL0     O50394   1.690   3.265   8.567  0.1009  0.0794 -0.1324
  366MOL0     C50395   1.737   3.251   8.442 -0.2595 -0.6416 -0.1018
  366MOL0     C50396   1.783   3.343   8.350  0.0931 -0.5807 -0.9695
  366MOL0     C50397   1.841   3.317   8.226 -0.3105 -0.2132  0.2871
  366MOL0     C50398   1.899   3.444   8.164  0.0808  0.7877 -0.1908
  366MOL0     C50399   1.860   3.185   8.180  0.2276 -0.5800 -0.8190
  366MOL0     C50400   1.938   3.147   8.060 -0.0723 -0.1713 -0.3393
  366MOL0     O50401   1.981   3.018   8.057  0.0569  0.4761  0.2150
  366MOL0     C50402   2.053   2.979   7.938  0.4898 -0.1049 -0.2564
  366MOL0     C50403   2.025   2.852   7.895  0.2135  0.0247  0.2990
  366MOL0     C50404   2.090   2.801   7.773  0.0600  0.0473  0.4632
  366MOL0     C50405   2.188   2.868   7.701 -0.1260  0.7136  0.5709
  366MOL0     O50406   2.265   2.818   7.596  0.1576  0.8013  0.5553
  366MOL0     C50407   2.248   2.691   7.536 -0.8686  0.3322  0.3218
  366MOL0     C50408   2.372   2.670   7.440  1.0053 -0.8596 -0.7588
  366MOL0     C50409   2.397   2.536   7.383 -1.1261  0.2723 -0.0106
  366MOL0     C50410   2.528   2.531   7.298 -0.2633  0.1798 -0.0302
  366MOL0     C50411   2.563   2.388   7.260  0.1336 -1.1507 -0.4340
  366MOL0     C50412   2.692   2.379   7.198 -0.9757 -0.9440 -0.5067
  366MOL0     C50413   2.708   2.421   7.046 -0.1950  0.3491  0.1993
  366MOL0     C50414   2.842   2.466   7.015  0.1960 -0.4561  0.5118
  366MOL0    Cl50415   2.852   2.470   6.837 -0.0102 -0.6687 -0.3771
  366MOL0     C50416   2.227   2.989   7.757  0.1913 -0.3457 -0.1033
  366MOL0     C50417   2.157   3.047   7.868 -0.0428 -0.2990  0.1858
  366MOL0     O50418   1.973   3.232   7.979  0.4741 -0.0612 -0.4364
  366MOL0     C50419   1.806   3.086   8.270 -0.1479  0.2448  0.1747
  366MOL0     C50420   1.752   3.117   8.398  0.2093 -0.6389  1.0298
  366MOL0     N50421   1.644   3.531   9.206  0.0478  0.2531 -0.3619
  366MOL0     N50422   1.739   3.559   9.289 -0.0187  0.1093 -0.0590
  366MOL0     C50423   2.053   4.160   9.839 -0.5760  0.5536 -0.3693
  366MOL0     C50424   1.935   4.180   9.913  0.6417  0.5133  1.0846
  366MOL0     C50425   1.681   4.303  10.248  0.7616  0.4965 -0.4929
  366MOL0     C50426   1.671   4.388  10.360 -0.6311  0.2071  0.1930
  366MOL0     C50427   1.569   4.382  10.452  0.1223 -0.0634  0.5408
  366MOL0     C50428   1.459   4.297  10.435 -0.5596 -0.0615 -0.0496
  366MOL0     O50429   1.349   4.281  10.515 -0.1655 -0.3824 -0.5722
  366MOL0     C50430   1.346   4.343  10.645  1.1119 -0.4048  0.6916
  366MOL0     C50431   1.413   4.246  10.743 -0.1917 -0.4483 -0.2023
  366MOL0     C50432   1.393   4.314  10.892  0.0647 -0.1245  1.6222
  366MOL0     C50433   1.533   4.330  10.963 -0.7949 -0.9249 -0.9301
  366MOL0     C50434   1.610   4.434  10.889  0.1310 -0.3880 -0.0172
  366MOL0     C50435   1.676   4.509  10.825 -0.4911  0.2067 -0.0324
  366MOL0     C50436   1.463   4.212  10.317 -0.1854  0.1302 -0.6447
  366MOL0     C50437   1.567   4.214  10.224 -0.3866  0.2013  0.9362
  366MOL0     C50438   1.560   4.111  10.104  0.9082  1.2002 -0.0839
  366MOL0     H50439   2.080   4.138  10.219  0.9099  3.4440  0.9559
  366MOL0     H50440   2.274   4.101  10.087 -0.9569  1.4171  1.2968
  366MOL0     H50441   2.433   4.033   9.915 -0.5748 -2.7038  0.4336
  366MOL0     H50442   2.476   4.043   9.749 -0.0502  0.9490 -2.3833
  366MOL0     H50443   2.434   3.798   9.785 -0.1010 -0.4731 -3.0035
  366MOL0     H50444   2.316   3.829   9.902 -0.7520 -0.5270 -0.2303
  366MOL0     H50445   2.198   3.745   9.719 -0.9943 -1.0467 -1.7465
  366MOL0     H50446   2.178   3.919   9.679  2.2868  0.3261 -0.1259
  366MOL0     H50447   2.377   3.895   9.536 -0.1128 -0.4404  0.0164
  366MOL0     H50448   2.389   3.725   9.571 -1.5190 -0.8276 -0.2368
  366MOL0     H50449   2.279   3.793   9.349 -0.5742  0.1054 -0.0378
  366MOL0     H50450   2.156   3.884   9.447  1.8588  1.4621  2.2194
  366MOL0     H50451   2.212   3.585   9.462  0.6032  0.0960 -0.1680
  366MOL0     H50452   2.078   3.678   9.544  0.2281 -2.8375  0.1117
  366MOL0     H50453   2.083   3.674   9.238 -0.5702  2.9194  1.0113
  366MOL0     H50454   1.950   3.719   9.344 -1.6954 -0.7554 -1.0880
  366MOL0     H50455   2.052   3.437   9.309 -1.0800 -1.1977 -0.1940
  366MOL0     H50456   1.962   3.483   9.442  2.7995  1.6155  0.6319
  366MOL0     H50457   1.893   3.341   9.102  2.4342  2.1154 -2.3379
  366MOL0     H50458   1.516   3.426   9.005 -0.8014 -0.0627  1.5248
  366MOL0     H50459   1.600   3.276   9.016 -0.8399 -0.9091 -6.1837
  366MOL0     H50460   1.721   3.514   8.863  0.2553 -0.1175  0.5599
  366MOL0     H50461   1.780   3.359   8.865  1.7442  2.4551  0.5880
  366MOL0     H50462   1.524   3.287   8.772 -3.7078  1.4498  0.1580
  366MOL0     H50463   1.508   3.456   8.763 -2.4916 -1.3880 -1.0150
  366MOL0     H50464   1.552   3.407   8.540  0.2730 -0.0035  0.8594
  366MOL0     H50465   1.698   3.479   8.597  1.0404 -0.6124  0.0763
  366MOL0     H50466   1.777   3.450   8.370  0.9119  0.2385 -4.4338
  366MOL0     H50467   2.008   3.440   8.172  0.2969  1.7808 -2.1963
  366MOL0     H50468   1.869   3.531   8.224 -1.6024 -0.1792  0.4310
  366MOL0     H50469   1.870   3.446   8.059  0.6528 -1.2234 -0.4295
  366MOL0     H50470   1.954   2.786   7.944 -1.4305  2.7167  1.7562
  366MOL0     H50471   2.057   2.703   7.739  0.7738  0.0982 -0.3922
  366MOL0     H50472   2.236   2.619   7.617 -1.0815  0.3904  0.3409
  366MOL0     H50473   2.160   2.694   7.471  1.5987 -3.0829 -3.6612
  366MOL0     H50474   2.361   2.749   7.365 -3.5554  0.3151  0.8480
  366MOL0     H50475   2.462   2.692   7.497  1.3873  0.9037 -1.9777
  366MOL0     H50476   2.307   2.501   7.331 -1.1918  0.2454  0.1199
  366MOL0     H50477   2.412   2.467   7.467  0.4134  1.2311  0.5436
  366MOL0     H50478   2.611   2.581   7.348 -1.3048 -0.1991  2.2345
  366MOL0     H50479   2.514   2.584   7.204  0.2167 -0.6103 -0.5578
  366MOL0     H50480   2.558   2.320   7.346  1.4873 -1.0058 -0.2270
  366MOL0     H50481   2.486   2.352   7.191 -0.4105 -4.1766  1.5268
  366MOL0     H50482   2.727   2.276   7.207  0.2010 -0.5109  0.0211
  366MOL0     H50483   2.756   2.440   7.263  0.0636 -2.2818 -0.2450
  366MOL0     H50484   2.641   2.502   7.018 -2.2386 -1.4513 -0.4343
  366MOL0     H50485   2.688   2.333   6.983 -0.3256 -1.4748  2.6432
  366MOL0     H50486   2.920   2.395   7.046  0.5180 -0.0697  0.5942
  366MOL0     H50487   2.852   2.562   7.067  0.5747 -0.9046  1.2924
  366MOL0     H50488   2.306   3.050   7.715  1.8672 -2.2067  0.2279
  366MOL0     H50489   2.190   3.139   7.913  0.5076 -0.9572  1.1694
  366MOL0     H50490   1.810   2.979   8.252 -1.9662 -0.2018  2.0294
  366MOL0     H50491   1.706   3.034   8.452 -2.0060 -1.3987 -1.8136
  366MOL0     H50492   2.055   4.164   9.730 -2.9274  1.6906 -0.4285
  366MOL0     H50493   1.837   4.207   9.875  0.2445 -0.9706  0.9816
  366MOL0     H50494   1.762   4.442  10.385 -1.1647  1.9286 -1.4065
  366MOL0     H50495   1.576   4.457  10.530 -2.5680  2.4347 -1.4147
  366MOL0     H50496   1.400   4.438  10.639  1.1113 -0.4556 -0.2778
  366MOL0     H50497   1.248   4.377  10.680  1.6722  0.1290  1.8244
  366MOL0     H50498   1.519   4.236  10.717 -0.1551 -1.6219  0.3210
  366MOL0     H50499   1.377   4.143  10.748  0.0360 -0.5179  0.0445
  366MOL0     H50500   1.331   4.404  10.883 -1.8448 -1.6051 -2.8941
  366MOL0     H50501   1.335   4.252  10.962  0.7837 -3.3508 -0.4307
  366MOL0     H50502   1.591   4.238  10.953  1.2006  0.3438 -1.6536
  366MOL0     H50503   1.515   4.363  11.066 -2.6696 -1.0745 -1.1695
  366MOL0     H50504   1.717   4.588  10.766 -2.9809  0.7511 -1.1583
  366MOL0     H50505   1.376   4.152  10.293  1.1074 -1.7366 -0.8984
  366MOL0     H50506   1.607   4.153  10.014 -0.5587 -3.2239 -3.2822
  366MOL0     H50507   1.572   4.005  10.129  1.5890  1.1223 -0.6956
  366MOL0     H50508   1.455   4.110  10.073  1.1307 -0.4768 -0.8916
  367MOL0     O50509   7.314   5.033   2.078  0.1270  0.2526  0.3695
  367MOL0     C50510   7.308   5.059   2.193 -0.9684 -0.7628 -0.7418
  367MOL0     O50511   7.339   5.183   2.258 -0.2194  0.2224 -0.3552
  367MOL0     C50512   7.363   5.303   2.201 -1.0830 -0.3348  0.4242
  367MOL0     C50513   7.405   5.410   2.283  0.0899 -0.0909  0.7666
  367MOL0     C50514   7.422   5.538   2.229  0.1021 -0.2772 -0.6248
  367MOL0     C50515   7.391   5.566   2.094  0.1369  0.3929  0.4285
  367MOL0     O50516   7.385   5.693   2.037  0.8642 -0.0537  0.3795
  367MOL0     C50517   7.343   5.807   2.118  0.3375 -1.2598  0.3174
  367MOL0     C50518   7.418   5.936   2.067 -0.2315  0.5522  0.0734
  367MOL0     C50519   7.388   5.974   1.922  0.3811  0.1504  0.9272
  367MOL0     C50520   7.492   6.075   1.868  0.0265 -0.5835  0.6945
  367MOL0     C50521   7.452   6.132   1.733  0.3781 -0.3306  1.0049
  367MOL0     C50522   7.554   6.213   1.687 -0.4939 -0.1658  0.4498
  367MOL0     C50523   7.517   6.293   1.554  0.6303  0.6376 -0.7946
  367MOL0     C50524   7.410   6.406   1.588 -0.0176  0.4508  0.0759
  367MOL0     N50525   7.373   6.487   1.476 -0.0361 -0.1285 -1.1552
  367MOL0     C50526   7.442   6.506   1.353 -0.1480 -0.6837 -0.1423
  367MOL0     C50527   7.355   6.578   1.277  0.5925 -0.5392  1.1186
  367MOL0     C50528   7.374   6.624   1.131  0.2240  0.5710 -0.7847
  367MOL0     C50529   7.349   6.496   1.050 -0.9097 -0.3133 -0.0169
  367MOL0     C50530   7.311   6.526   0.903  0.2881 -0.1940  0.9899
  367MOL0     C50531   7.292   6.401   0.813  0.4170  0.3779  0.1217
  367MOL0     O50532   7.160   6.354   0.844  0.6343  0.2246 -0.2799
  367MOL0     C50533   7.111   6.238   0.790  0.3313  0.1031  0.4439
  367MOL0     C50534   7.179   6.161   0.704  0.4350 -0.1271  0.0125
  367MOL0     C50535   7.125   6.049   0.633 -0.3200 -0.9140  0.5907
  367MOL0     C50536   7.213   5.982   0.522  0.1459  0.1530  0.2493
  367MOL0     C50537   6.996   6.013   0.671  0.2464 -0.5317  0.0696
  367MOL0     C50538   6.930   5.905   0.599  0.1083 -0.4158 -0.0763
  367MOL0     O50539   6.909   5.786   0.663  0.0459 -0.7142 -0.0933
  367MOL0     C50540   6.892   5.673   0.590  0.0732  0.4819  0.2391
  367MOL0     C50541   6.764   5.646   0.539 -0.2131  0.2664  1.0251
  367MOL0     C50542   6.750   5.544   0.451  1.5148  0.0668  0.0418
  367MOL0     C50543   6.861   5.448   0.439  0.6644 -0.1870 -0.6462
  367MOL0     O50544   6.855   5.334   0.363  0.6247 -0.4906 -0.2510
  367MOL0     C50545   6.746   5.331   0.265  0.2952 -0.0078  0.0924
  367MOL0     C50546   6.758   5.219   0.169  0.3877  0.4127  0.1821
  367MOL0     C50547   6.631   5.220   0.084  0.1269  1.2008 -0.0242
  367MOL0     C50548   6.642   5.122  -0.036 -0.3503  0.4941  0.2092
  367MOL0     C50549   6.493   5.078  -0.061  0.0535  0.2580 -0.0333
  367MOL0     C50550   6.488   4.997  -0.190 -0.6820  0.2915 -0.7080
  367MOL0     C50551   6.351   4.924  -0.185  0.1683  0.2474 -0.0900
  367MOL0     C50552   6.306   4.853  -0.308  1.0574 -1.0342 -0.4406
  367MOL0    Cl50553   6.400   4.701  -0.327  0.1603 -0.2934 -0.0590
  367MOL0     C50554   6.986   5.474   0.489  0.7230 -0.9365 -0.3801
  367MOL0     C50555   7.003   5.596   0.561  0.4288  0.9832 -0.0168
  367MOL0     O50556   6.923   5.927   0.480 -0.1575  0.3631 -0.4329
  367MOL0     C50557   6.923   6.087   0.770  0.1702 -0.1685  0.0664
  367MOL0     C50558   6.983   6.201   0.827  0.3495  0.0359 -0.3646
  367MOL0     N50559   7.245   6.597   1.353  0.8824 -0.7437  0.1218
  367MOL0     N50560   7.256   6.550   1.469  0.2040 -0.8539  0.4930
  367MOL0     C50561   7.345   5.458   2.015  0.0866  0.4670  0.5222
  367MOL0     C50562   7.338   5.333   2.071 -1.0776  0.2467 -0.0720
  367MOL0     C50563   7.261   4.952   2.287 -0.2952  0.6418 -0.3817
  367MOL0     C50564   7.177   4.986   2.388 -0.7199 -1.1415  0.6972
  367MOL0     C50565   7.127   4.884   2.470  0.4877 -1.3343 -0.5177
  367MOL0     C50566   7.168   4.754   2.454 -0.4377  0.8225 -0.8166
  367MOL0     O50567   7.113   4.653   2.529 -0.3150 -0.6952  0.5698
  367MOL0     C50568   7.086   4.520   2.489 -0.6921  1.0345  0.1179
  367MOL0     C50569   6.976   4.515   2.379 -0.6312 -0.3782 -0.9097
  367MOL0     C50570   6.836   4.558   2.446 -0.2587 -0.1802  0.6319
  367MOL0     C50571   6.714   4.554   2.348  0.5774  0.4138 -0.6597
  367MOL0     C50572   6.672   4.411   2.345 -0.0863  0.0498 -0.3769
  367MOL0     C50573   6.622   4.305   2.349 -0.1733 -0.2569  1.0186
  367MOL0     C50574   7.266   4.722   2.358  0.8108  0.3597  0.5436
  367MOL0     C50575   7.312   4.818   2.272 -0.6531 -0.6098  0.2214
  367MOL0     C50576   7.435   4.800   2.183  1.0407  0.2802 -0.0878
  367MOL0     H50577   7.418   5.392   2.389 -3.7279 -0.8013  1.2792
  367MOL0     H50578   7.459   5.609   2.304 -0.4320  0.4421 -1.0285
  367MOL0     H50579   7.351   5.783   2.225  1.0515 -0.9232  0.3428
  367MOL0     H50580   7.235   5.820   2.101  0.1075 -0.7520  1.9537
  367MOL0     H50581   7.394   6.030   2.118 -1.7691  1.1460 -1.6327
  367MOL0     H50582   7.525   5.915   2.080 -0.6604 -1.5791  0.5500
  367MOL0     H50583   7.388   5.885   1.858  0.1250  0.7222  0.1068
  367MOL0     H50584   7.288   6.014   1.905  1.3457  1.5267 -2.2524
  367MOL0     H50585   7.501   6.163   1.932 -1.2962 -0.1514  0.3333
  367MOL0     H50586   7.591   6.029   1.874  0.4911  0.6057  2.7712
  367MOL0     H50587   7.370   6.199   1.761  1.9913  2.4373 -0.4034
  367MOL0     H50588   7.411   6.058   1.664 -1.8894 -0.4779  2.4150
  367MOL0     H50589   7.602   6.271   1.766  0.8865  0.4431 -0.7889
  367MOL0     H50590   7.630   6.135   1.676 -3.3686 -3.1195 -0.2921
  367MOL0     H50591   7.485   6.223   1.476  0.2520  0.1780 -0.2349
  367MOL0     H50592   7.604   6.347   1.516  2.1831  1.6764  3.6723
  367MOL0     H50593   7.328   6.357   1.642  2.8977 -1.0434  3.6175
  367MOL0     H50594   7.460   6.478   1.653  1.5766 -0.8212  0.3063
  367MOL0     H50595   7.535   6.460   1.320 -1.5527 -3.0228 -1.1008
  367MOL0     H50596   7.477   6.659   1.118  0.3566  0.1777 -0.8101
  367MOL0     H50597   7.303   6.705   1.115  1.5606  1.7007 -1.3029
  367MOL0     H50598   7.447   6.447   1.043 -0.5430  0.5541 -1.4672
  367MOL0     H50599   7.291   6.420   1.103 -1.7719  1.2034  1.3135
  367MOL0     H50600   7.215   6.578   0.894 -0.5087 -1.9441 -2.2219
  367MOL0     H50601   7.388   6.594   0.865 -2.1962  2.6126  0.5784
  367MOL0     H50602   7.302   6.425   0.707  4.9559  0.2931  0.3623
  367MOL0     H50603   7.366   6.323   0.835  1.5911  1.1738 -0.9060
  367MOL0     H50604   7.258   6.206   0.645  0.0784  0.0069 -0.3669
  367MOL0     H50605   7.302   6.040   0.495 -1.1393  1.1600 -2.1651
  367MOL0     H50606   7.163   5.970   0.425 -0.4484 -1.5616  0.7283
  367MOL0     H50607   7.241   5.884   0.560  1.3808  1.1977  2.2096
  367MOL0     H50608   6.684   5.711   0.573 -0.7571 -0.0590  0.3978
  367MOL0     H50609   6.654   5.508   0.417 -0.2856  0.0132  4.5254
  367MOL0     H50610   6.649   5.324   0.314  1.4505  0.4315  2.6139
  367MOL0     H50611   6.753   5.427   0.214  3.7042 -0.5881 -0.7825
  367MOL0     H50612   6.843   5.251   0.108 -0.5626  3.2290  0.1582
  367MOL0     H50613   6.783   5.125   0.218  1.9807  1.2569  1.0822
  367MOL0     H50614   6.616   5.318   0.039 -0.1923  0.0588 -2.5964
  367MOL0     H50615   6.540   5.194   0.139 -0.4873  1.5250 -0.8746
  367MOL0     H50616   6.699   5.037   0.002 -1.2711  0.2752  1.1574
  367MOL0     H50617   6.682   5.168  -0.127 -1.6027  0.8739 -0.1815
  367MOL0     H50618   6.465   5.021   0.028  0.8860 -1.8216 -1.0402
  367MOL0     H50619   6.429   5.167  -0.072  0.3531  0.5166  0.2900
  367MOL0     H50620   6.572   4.928  -0.173 -1.5051 -0.1641  1.9624
  367MOL0     H50621   6.510   5.066  -0.271 -1.2868  0.7196 -0.5141
  367MOL0     H50622   6.273   4.997  -0.160 -3.2744 -2.0002 -3.2286
  367MOL0     H50623   6.357   4.847  -0.108 -0.1447  2.3065  2.1484
  367MOL0     H50624   6.328   4.913  -0.397 -1.9313  1.4036  0.3120
  367MOL0     H50625   6.203   4.824  -0.330  0.2817  0.3557  1.1392
  367MOL0     H50626   7.070   5.406   0.476 -0.9953 -3.0704 -0.8242
  367MOL0     H50627   7.096   5.629   0.604 -0.2449  1.7609  0.8832
  367MOL0     H50628   6.825   6.047   0.792 -0.7100  0.3607 -2.5066
  367MOL0     H50629   6.933   6.266   0.898  2.7299  1.8146 -0.1955
  367MOL0     H50630   7.340   5.480   1.909  0.5665  0.0739  0.4154
  367MOL0     H50631   7.302   5.255   2.005 -1.7980  0.6317 -0.1475
  367MOL0     H50632   7.156   5.091   2.402  1.5547 -0.6945  1.2211
  367MOL0     H50633   7.067   4.909   2.557 -1.2340 -0.0860 -2.0086
  367MOL0     H50634   7.180   4.472   2.460 -2.8239 -1.7211 -2.9863
  367MOL0     H50635   7.044   4.478   2.581 -2.1359 -0.4476 -1.1531
  367MOL0     H50636   6.955   4.414   2.342 -1.3669 -1.2658  1.7300
  367MOL0     H50637   7.007   4.577   2.294 -2.5111  1.6683 -0.1860
  367MOL0     H50638   6.807   4.504   2.536 -0.8089  0.7686  1.0404
  367MOL0     H50639   6.844   4.665   2.471  4.5332 -0.9841  4.0579
  367MOL0     H50640   6.738   4.580   2.244 -4.4923 -2.5032 -2.9684
  367MOL0     H50641   6.632   4.618   2.379  0.7025 -0.8300  2.5679
  367MOL0     H50642   6.594   4.207   2.380  3.0566 -1.3729  0.8648
  367MOL0     H50643   7.305   4.621   2.356 -1.9223 -0.7987 -1.9493
  367MOL0     H50644   7.517   4.869   2.205  0.8812  1.3647 -2.5686
  367MOL0     H50645   7.478   4.700   2.191 -0.8448 -1.1093 -4.4052
  367MOL0     H50646   7.398   4.828   2.084  0.0947  2.8782  0.8885
  368MOL0     O50647   0.490   1.449  10.873 -0.4600 -0.0228  0.1036
  368MOL0     C50648   0.453   1.348  10.816 -0.1908  0.1978  0.5607
  368MOL0     O50649   0.481   1.220  10.851  0.4229  0.0283  0.4665
  368MOL0     C50650   0.562   1.192  10.958  0.0586 -0.2769 -0.4601
  368MOL0     C50651   0.516   1.116  11.069 -0.2565 -0.6156  0.4506
  368MOL0     C50652   0.606   1.081  11.166 -0.5603 -0.2329  0.2583
  368MOL0     C50653   0.743   1.100  11.153  0.1989 -0.5794 -0.6051
  368MOL0     O50654   0.845   1.059  11.238 -0.3142 -0.0791  0.3264
  368MOL0     C50655   0.828   0.945  11.324 -0.4896 -0.0929  0.4887
  368MOL0     C50656   0.968   0.914  11.383  0.2534  0.8949 -0.5251
  368MOL0     C50657   0.962   0.813  11.508 -0.3698 -0.3502  0.1983
  368MOL0     C50658   0.828   0.758  11.544  0.8914 -0.1583 -0.2030
  368MOL0     C50659   0.848   0.636  11.636  0.6250 -0.0682 -0.9529
  368MOL0     C50660   0.708   0.564  11.648  1.0266 -0.5371 -0.2024
  368MOL0     C50661   0.708   0.466  11.756  0.0864 -0.4914 -0.6429
  368MOL0     C50662   0.571   0.401  11.764 -0.1643  0.3542 -0.0409
  368MOL0     N50663   0.555   0.305  11.871  0.5762  0.6149 -0.4409
  368MOL0     C50664   0.462   0.305  11.968 -0.0290  0.0777 -1.1007
  368MOL0     C50665   0.482   0.192  12.049 -0.3899  0.1168  0.1931
  368MOL0     C50666   0.414   0.141  12.165  0.3934  0.7651  0.1827
  368MOL0     C50667   0.265   0.116  12.160 -0.2473 -0.0191 -0.4448
  368MOL0     C50668   0.220   0.027  12.034  0.0590  0.2234  0.2350
  368MOL0     C50669   0.086  -0.032  12.073 -0.2935  0.3135  0.4174
  368MOL0     O50670  -0.014   0.067  12.126 -0.1426  0.1149  0.0230
  368MOL0     C50671  -0.091   0.143  12.045  1.0830  0.2882  0.1369
  368MOL0     C50672  -0.089   0.147  11.907 -0.5916 -0.9917 -0.0076
  368MOL0     C50673  -0.175   0.226  11.831  0.0774 -0.1344 -0.6483
  368MOL0     C50674  -0.149   0.229  11.683  0.2258  1.0971 -0.1174
  368MOL0     C50675  -0.273   0.295  11.906 -0.3709  0.3430  0.0657
  368MOL0     C50676  -0.375   0.381  11.839 -0.4464  0.1857 -0.1070
  368MOL0     O50677  -0.481   0.423  11.912 -0.0288  0.3235  0.7782
  368MOL0     C50678  -0.562   0.531  11.860 -0.6861  0.6485  0.1455
  368MOL0     C50679  -0.692   0.539  11.889 -0.2859  0.0132 -0.6142
  368MOL0     C50680  -0.776   0.645  11.848  0.3283 -0.7237 -0.4374
  368MOL0     C50681  -0.724   0.747  11.758 -0.9748  0.3263 -0.3488
  368MOL0     O50682  -0.798   0.848  11.713 -0.8291 -0.2789  0.4777
  368MOL0     C50683  -0.760   0.974  11.776 -1.0335 -0.1518 -0.3323
  368MOL0     C50684  -0.886   1.037  11.828  0.4539 -0.0853  0.3480
  368MOL0     C50685  -0.860   1.123  11.951  0.0914 -0.2793 -0.4404
  368MOL0     C50686  -0.986   1.172  12.016  0.7805  0.5996 -0.4801
  368MOL0     C50687  -1.012   1.327  12.000 -0.4004 -0.5522 -0.5332
  368MOL0     C50688  -1.146   1.371  12.067  0.5793  0.3447 -0.5972
  368MOL0     C50689  -1.165   1.522  12.078 -0.3522  0.9745 -0.3610
  368MOL0     C50690  -1.123   1.597  12.203  0.0108  0.4086  0.3156
  368MOL0    Cl50691  -1.140   1.780  12.191  0.0749 -0.1917  0.1319
  368MOL0     C50692  -0.593   0.739  11.731  0.0881 -0.4640 -0.6335
  368MOL0     C50693  -0.515   0.635  11.779 -0.6662 -1.1027 -0.8939
  368MOL0     O50694  -0.371   0.387  11.714 -0.5447 -0.0092 -0.1708
  368MOL0     C50695  -0.278   0.301  12.050  0.1876  0.0977 -0.5644
  368MOL0     C50696  -0.182   0.216  12.108 -0.0831 -1.2880 -0.7694
  368MOL0     N50697   0.582   0.127  11.984  0.6717 -0.2779 -0.0019
  368MOL0     N50698   0.628   0.196  11.880 -0.5872  0.0058 -0.1393
  368MOL0     C50699   0.785   1.177  11.042  0.0318  0.7597  0.0726
  368MOL0     C50700   0.696   1.230  10.953 -0.0622  0.3586 -0.2457
  368MOL0     C50701   0.369   1.352  10.696 -0.5507  0.2836 -0.2765
  368MOL0     C50702   0.387   1.463  10.606  0.0453  0.3693 -0.8930
  368MOL0     C50703   0.307   1.490  10.497  0.3438 -0.4359  0.3788
  368MOL0     C50704   0.214   1.389  10.462  0.4087  0.0058 -0.0085
  368MOL0     O50705   0.140   1.398  10.346 -0.1349  0.4449 -0.6769
  368MOL0     C50706   0.114   1.522  10.285  0.3660  0.5784 -0.1870
  368MOL0     C50707   0.050   1.506  10.144 -0.3560 -0.4223  0.2120
  368MOL0     C50708   0.136   1.442  10.034 -0.5208  0.4346  0.6167
  368MOL0     C50709   0.071   1.469   9.895 -0.6083  0.4745 -0.0022
  368MOL0     C50710   0.164   1.449   9.777  0.2185 -0.4680 -0.2361
  368MOL0     C50711   0.232   1.448   9.674 -0.2057 -0.3592  0.3684
  368MOL0     C50712   0.206   1.272  10.537 -0.0189  0.2607 -0.1195
  368MOL0     C50713   0.278   1.249  10.653  0.6566  0.6332 -0.5700
  368MOL0     C50714   0.237   1.129  10.728  0.7971  0.4450 -1.3318
  368MOL0     H50715   0.422   1.071  11.097 -1.6586  2.0265  0.3869
  368MOL0     H50716   0.561   1.033  11.252 -0.3470 -0.2836  0.3419
  368MOL0     H50717   0.798   0.860  11.261 -0.3629  3.7070 -5.4645
  368MOL0     H50718   0.756   0.981  11.397 -1.5692 -1.3715  0.1026
  368MOL0     H50719   1.027   0.874  11.299 -0.4088  1.2073 -1.1518
  368MOL0     H50720   1.016   1.005  11.419 -3.2271  1.8799  2.2653
  368MOL0     H50721   1.038   0.736  11.491 -0.3395 -1.4464  4.2364
  368MOL0     H50722   1.004   0.867  11.594 -0.9977  0.7213 -0.1443
  368MOL0     H50723   0.767   0.839  11.585  0.9004 -0.5881  0.6586
  368MOL0     H50724   0.777   0.717  11.456 -0.6399  1.0209  0.0843
  368MOL0     H50725   0.870   0.673  11.736 -1.9588 -1.5757  0.2641
  368MOL0     H50726   0.922   0.560  11.607  0.0515 -2.8547  3.8103
  368MOL0     H50727   0.637   0.644  11.669  2.0164  0.4081 -0.3459
  368MOL0     H50728   0.679   0.520  11.553  0.9487  1.2693 -1.0519
  368MOL0     H50729   0.734   0.520  11.848  1.0254 -1.4881 -0.3055
  368MOL0     H50730   0.784   0.390  11.741  1.2109  0.2608  0.8967
  368MOL0     H50731   0.489   0.473  11.766 -2.1687 -1.6466 -2.6315
  368MOL0     H50732   0.562   0.344  11.671 -3.1139 -1.9432  1.4840
  368MOL0     H50733   0.390   0.383  11.990 -0.5668 -0.7474  0.1125
  368MOL0     H50734   0.418   0.217  12.244 -1.6049  0.2140  0.8656
  368MOL0     H50735   0.459   0.044  12.187 -0.0612  0.6943  0.8276
  368MOL0     H50736   0.238   0.062  12.252 -2.4401 -0.3168 -1.2032
  368MOL0     H50737   0.205   0.207  12.162 -1.3797 -0.7303  1.7221
  368MOL0     H50738   0.197   0.088  11.946  0.3714  4.0555  2.5777
  368MOL0     H50739   0.286  -0.057  12.010  0.3994  1.3674 -3.3967
  368MOL0     H50740   0.050  -0.079  11.981  2.1539 -0.5581 -0.1822
  368MOL0     H50741   0.101  -0.115  12.143 -4.1545  1.1401  2.4735
  368MOL0     H50742  -0.033   0.071  11.855 -2.9229 -1.4825 -1.9906
  368MOL0     H50743  -0.238   0.192  11.631  2.8088 -2.6090 -2.4043
  368MOL0     H50744  -0.068   0.162  11.653 -1.1467  0.4322 -2.5580
  368MOL0     H50745  -0.125   0.328  11.645  0.2228  0.6684 -1.2808
  368MOL0     H50746  -0.737   0.465  11.954 -3.8972  2.5457  0.0916
  368MOL0     H50747  -0.880   0.662  11.877  0.7334  0.8817  0.1989
  368MOL0     H50748  -0.696   0.959  11.863 -0.3957  1.4087 -0.4818
  368MOL0     H50749  -0.709   1.031  11.697  0.4635  0.9927  1.3909
  368MOL0     H50750  -0.937   1.094  11.749  1.4306 -1.7576 -1.5869
  368MOL0     H50751  -0.952   0.953  11.853 -0.5492  0.5339 -0.1522
  368MOL0     H50752  -0.798   1.209  11.927  0.6855 -1.1048 -1.9579
  368MOL0     H50753  -0.809   1.055  12.020 -0.2285  1.3679  1.5340
  368MOL0     H50754  -0.983   1.143  12.122  0.3606 -1.5206 -1.0047
  368MOL0     H50755  -1.073   1.122  11.972 -1.2519  0.1578  3.5448
  368MOL0     H50756  -0.929   1.386  12.039 -1.0837  1.2501 -1.6906
  368MOL0     H50757  -1.015   1.338  11.891 -3.6739 -1.4423 -0.6359
  368MOL0     H50758  -1.146   1.317  12.162 -0.9982  0.1507 -0.6856
  368MOL0     H50759  -1.216   1.317  12.002 -0.2281 -1.4470  1.6381
  368MOL0     H50760  -1.265   1.551  12.045  0.3274  0.0217 -3.6651
  368MOL0     H50761  -1.112   1.550  11.987  0.0534 -3.4539 -1.7609
  368MOL0     H50762  -1.018   1.581  12.231 -0.1688  1.5220  1.8035
  368MOL0     H50763  -1.175   1.555  12.290  4.2191 -1.3507  2.2907
  368MOL0     H50764  -0.564   0.815  11.659 -3.0445  2.1573  0.6037
  368MOL0     H50765  -0.408   0.631  11.759  0.0464 -0.0224  2.1335
  368MOL0     H50766  -0.352   0.363  12.099  0.4470  0.2340 -0.3422
  368MOL0     H50767  -0.155   0.213  12.214  2.1906 -3.3749 -1.2962
  368MOL0     H50768   0.888   1.202  11.019 -0.3798  1.1576 -1.4650
  368MOL0     H50769   0.731   1.274  10.861  0.7496  0.3964  0.0787
  368MOL0     H50770   0.452   1.547  10.627  0.5959 -0.0512 -0.9063
  368MOL0     H50771   0.318   1.589  10.454  0.3762 -0.0754  1.1968
  368MOL0     H50772   0.044   1.574  10.351 -0.1298 -1.4304  0.9606
  368MOL0     H50773   0.207   1.578  10.278  0.8241 -0.3351 -2.5120
  368MOL0     H50774   0.029   1.609  10.114  2.0645  0.6126  1.7703
  368MOL0     H50775  -0.045   1.453  10.148  0.8044 -2.5297  1.8239
  368MOL0     H50776   0.236   1.487  10.034 -1.6441  3.0875  1.3954
  368MOL0     H50777   0.158   1.336  10.055 -0.3177  0.0645 -1.3031
  368MOL0     H50778   0.039   1.573   9.897 -1.2971  0.3546 -2.1938
  368MOL0     H50779  -0.005   1.390   9.893  0.8978 -1.1186 -3.0416
  368MOL0     H50780   0.287   1.463   9.583 -0.7438  2.2747  0.3932
  368MOL0     H50781   0.135   1.196  10.507 -0.7191  1.3415 -1.3099
  368MOL0     H50782   0.257   1.152  10.834  1.8425 -1.1367 -1.1503
  368MOL0     H50783   0.133   1.099  10.725  0.8265 -0.7499  2.9854
  368MOL0     H50784   0.301   1.042  10.709 -1.0197 -2.0399  2.5482
  369MOL0     O50785   0.093   5.154   4.711  0.2420 -0.0848  1.3308
  369MOL0     C50786   0.049   5.108   4.602  0.7124  0.3186 -0.3991
  369MOL0     O50787  -0.080   5.054   4.580  0.4157  0.3627  0.1925
  369MOL0     C50788  -0.152   5.037   4.694 -0.2203  0.1893 -1.2343
  369MOL0     C50789  -0.127   4.928   4.780  0.6327  0.0730  0.0622
  369MOL0     C50790  -0.175   4.921   4.908  1.3208 -0.5889  0.3232
  369MOL0     C50791  -0.261   5.012   4.954  0.4340 -0.3841  0.0191
  369MOL0     O50792  -0.295   5.009   5.086 -0.2092  0.1295  0.1505
  369MOL0     C50793  -0.237   5.122   5.160 -0.0363  0.2753  0.0323
  369MOL0     C50794  -0.302   5.131   5.297 -0.0855 -0.4268  0.9369
  369MOL0     C50795  -0.247   5.262   5.359  0.2353  0.1474  0.4577
  369MOL0     C50796  -0.293   5.273   5.506  0.5604  0.7092 -0.3252
  369MOL0     C50797  -0.272   5.419   5.548  0.4289  1.0392 -0.3910
  369MOL0     C50798  -0.338   5.452   5.681 -0.0084  0.2992  0.2410
  369MOL0     C50799  -0.327   5.602   5.701  0.4992  0.3145 -0.2426
  369MOL0     C50800  -0.397   5.652   5.835  0.3280  0.2588  0.7009
  369MOL0     N50801  -0.534   5.599   5.851  0.3105  0.3685 -0.2936
  369MOL0     C50802  -0.642   5.643   5.781 -0.8319  1.2435 -0.0677
  369MOL0     C50803  -0.749   5.579   5.835 -0.1383  0.3937 -0.0729
  369MOL0     C50804  -0.896   5.591   5.791  0.3079 -0.3449  0.7044
  369MOL0     C50805  -0.916   5.672   5.656  0.5355 -0.2509 -0.1986
  369MOL0     C50806  -1.057   5.723   5.635  0.2047  0.1329  0.5337
  369MOL0     C50807  -1.078   5.772   5.498 -0.4178  0.5785  0.7426
  369MOL0     O50808  -1.056   5.664   5.402  0.1356  0.5389  0.2324
  369MOL0     C50809  -1.051   5.713   5.275 -0.3167 -0.4022 -0.4923
  369MOL0     C50810  -0.938   5.686   5.198 -0.6670 -0.6732 -0.2789
  369MOL0     C50811  -0.927   5.737   5.066 -0.0554 -0.0912  1.1087
  369MOL0     C50812  -0.784   5.722   5.006 -1.0282  0.2945  0.0409
  369MOL0     C50813  -1.046   5.801   5.008 -0.8318  0.2047 -0.4240
  369MOL0     C50814  -1.054   5.851   4.867 -1.4733 -0.5930 -0.1380
  369MOL0     O50815  -1.175   5.882   4.823  0.1896 -0.2293  0.4029
  369MOL0     C50816  -1.205   5.909   4.689  0.2887 -0.6686 -0.0049
  369MOL0     C50817  -1.155   5.837   4.582 -0.0503  1.1353  0.1250
  369MOL0     C50818  -1.190   5.870   4.447 -0.2679  0.5152  0.4388
  369MOL0     C50819  -1.267   5.983   4.421 -0.1043 -0.1672  0.2835
  369MOL0     O50820  -1.282   6.020   4.295  0.3545  0.9130  0.1755
  369MOL0     C50821  -1.176   6.089   4.233 -0.6122  0.2869 -0.4250
  369MOL0     C50822  -1.207   6.109   4.091  0.4103  0.6004 -0.9374
  369MOL0     C50823  -1.160   6.248   4.051  0.1449  0.0772  0.1001
  369MOL0     C50824  -1.182   6.264   3.897 -0.1209 -0.0470 -1.0615
  369MOL0     C50825  -1.192   6.406   3.857  0.6665  0.7635  0.1323
  369MOL0     C50826  -1.056   6.477   3.873 -0.3563 -0.8540 -0.2729
  369MOL0     C50827  -1.039   6.602   3.785 -1.1805  0.7072 -0.9244
  369MOL0     C50828  -0.901   6.653   3.806  0.0395  0.3665 -0.3254
  369MOL0    Cl50829  -0.879   6.807   3.697  0.2170 -0.0866 -0.1646
  369MOL0     C50830  -1.306   6.065   4.533 -0.2925 -0.0484  0.6353
  369MOL0     C50831  -1.288   6.019   4.665  0.0070 -0.7707  0.3286
  369MOL0     O50832  -0.952   5.864   4.803 -0.5392  0.1320  0.2533
  369MOL0     C50833  -1.153   5.828   5.090 -0.1779  0.3276  0.0011
  369MOL0     C50834  -1.152   5.788   5.225 -0.5379 -0.9970  0.4707
  369MOL0     N50835  -0.708   5.503   5.935 -0.2947  0.3073  0.6638
  369MOL0     N50836  -0.583   5.521   5.957 -0.0795 -0.2641  0.4639
  369MOL0     C50837  -0.301   5.114   4.865  0.6565  0.3315  0.1598
  369MOL0     C50838  -0.249   5.127   4.735 -0.1518 -0.2063 -0.2984
  369MOL0     C50839   0.165   5.102   4.502  0.1509  0.0313 -0.0806
  369MOL0     C50840   0.236   5.223   4.477 -0.0159  0.9129 -0.0163
  369MOL0     C50841   0.328   5.233   4.364  0.3400 -0.3568 -0.2015
  369MOL0     C50842   0.349   5.121   4.286  0.1874  0.3612 -0.2648
  369MOL0     O50843   0.424   5.120   4.173  0.0537 -0.2534 -0.2499
  369MOL0     C50844   0.478   5.247   4.125  1.2767  0.3183 -0.1196
  369MOL0     C50845   0.590   5.230   4.029 -0.4020  0.3294 -0.9129
  369MOL0     C50846   0.545   5.139   3.911  0.4114 -0.2777  0.7085
  369MOL0     C50847   0.627   5.151   3.790 -0.1849 -0.0632  0.6068
  369MOL0     C50848   0.611   5.043   3.689 -0.3118  0.0664  0.6636
  369MOL0     C50849   0.609   4.954   3.602 -0.5439  0.6466  0.5954
  369MOL0     C50850   0.280   4.999   4.315 -0.4029  0.0394 -0.5123
  369MOL0     C50851   0.187   4.990   4.420  0.8498  0.3072 -0.7094
  369MOL0     C50852   0.100   4.868   4.441 -0.1299  0.1556  0.5045
  369MOL0     H50853  -0.045   4.864   4.745 -1.3177 -0.8371 -3.3517
  369MOL0     H50854  -0.145   4.840   4.974  0.1747 -1.0478  0.3173
  369MOL0     H50855  -0.250   5.218   5.109 -0.4803  1.1063  1.6431
  369MOL0     H50856  -0.131   5.100   5.179  0.4154  0.5489 -1.9432
  369MOL0     H50857  -0.408   5.133   5.273  0.3528  0.1548 -1.1718
  369MOL0     H50858  -0.281   5.050   5.367  0.7240 -1.1037 -0.0576
  369MOL0     H50859  -0.138   5.262   5.354  0.2113  0.1462 -0.2014
  369MOL0     H50860  -0.295   5.347   5.309  0.8794 -0.3067 -0.9851
  369MOL0     H50861  -0.401   5.256   5.512  0.6548  0.2583  0.3052
  369MOL0     H50862  -0.236   5.210   5.575  0.0617 -0.3831 -0.8884
  369MOL0     H50863  -0.314   5.491   5.478  0.1629  0.8785 -0.4011
  369MOL0     H50864  -0.166   5.442   5.553  1.2476 -2.3606  2.3773
  369MOL0     H50865  -0.444   5.429   5.676 -0.1504  1.1671 -2.0040
  369MOL0     H50866  -0.289   5.409   5.769 -0.1809 -2.1749 -0.7853
  369MOL0     H50867  -0.376   5.661   5.623  2.3937  2.3615  0.0134
  369MOL0     H50868  -0.223   5.635   5.708  0.2167  1.3628 -0.8072
  369MOL0     H50869  -0.338   5.601   5.912  3.0470  2.2435  0.0868
  369MOL0     H50870  -0.397   5.761   5.830 -6.0726  0.5929 -0.5549
  369MOL0     H50871  -0.641   5.716   5.701 -1.5759  0.0407 -1.2219
  369MOL0     H50872  -0.942   5.648   5.873  0.8662  1.3531 -0.1137
  369MOL0     H50873  -0.928   5.487   5.787  2.9409 -1.2128 -3.0216
  369MOL0     H50874  -0.865   5.768   5.673  0.8133 -0.5650  0.8223
  369MOL0     H50875  -0.870   5.610   5.579 -2.2005 -2.1793 -0.4299
  369MOL0     H50876  -1.129   5.642   5.649 -1.1558  1.4994  1.8418
  369MOL0     H50877  -1.077   5.808   5.702 -0.9666 -0.0958  0.4862
  369MOL0     H50878  -1.178   5.817   5.503  0.0696  1.5694  2.3584
  369MOL0     H50879  -1.003   5.849   5.479  0.4945 -0.7193 -1.3271
  369MOL0     H50880  -0.860   5.631   5.250  0.2512  3.0121  2.7500
  369MOL0     H50881  -0.704   5.731   5.081 -0.8037 -1.5205  0.0711
  369MOL0     H50882  -0.760   5.777   4.915 -0.9083  0.0704 -0.0654
  369MOL0     H50883  -0.771   5.620   4.968  4.1303  0.2722  1.1229
  369MOL0     H50884  -1.109   5.741   4.600 -0.8907  0.5383 -0.8175
  369MOL0     H50885  -1.143   5.818   4.364 -1.7339  1.2019 -0.8669
  369MOL0     H50886  -1.176   6.179   4.295 -0.6664  0.5606 -0.8225
  369MOL0     H50887  -1.078   6.041   4.234  0.5498  2.4738 -2.0977
  369MOL0     H50888  -1.169   6.024   4.033  1.1886  0.8866 -0.8572
  369MOL0     H50889  -1.316   6.114   4.081  0.1358  0.4147  1.3668
  369MOL0     H50890  -1.057   6.273   4.079  0.4132  1.4692 -1.8960
  369MOL0     H50891  -1.231   6.311   4.106 -0.2189 -1.9578  2.0790
  369MOL0     H50892  -1.280   6.220   3.875 -0.4170  0.9128 -1.7051
  369MOL0     H50893  -1.103   6.207   3.848 -1.6994 -2.4817 -0.9708
  369MOL0     H50894  -1.229   6.409   3.753  0.5900  0.0062  0.1325
  369MOL0     H50895  -1.263   6.452   3.926  0.0173  0.3262 -0.2255
  369MOL0     H50896  -0.981   6.401   3.849 -1.0372 -1.5913 -0.1452
  369MOL0     H50897  -1.042   6.513   3.975 -1.4149  1.8859 -0.9992
  369MOL0     H50898  -1.096   6.688   3.823  2.6919  1.9401  2.9038
  369MOL0     H50899  -1.053   6.575   3.680 -0.6784 -0.5817 -0.6719
  369MOL0     H50900  -0.825   6.576   3.795  2.1834  1.9569  2.0489
  369MOL0     H50901  -0.886   6.694   3.906  2.9451 -2.0146  0.3466
  369MOL0     H50902  -1.349   6.163   4.517 -0.6107 -0.1877  0.6284
  369MOL0     H50903  -1.308   6.081   4.752 -1.8858 -2.3154  1.0794
  369MOL0     H50904  -1.243   5.872   5.049 -1.8528 -2.3617  0.4990
  369MOL0     H50905  -1.243   5.810   5.280 -0.2525  1.6276  0.0438
  369MOL0     H50906  -0.364   5.190   4.911  0.3882  0.9154 -1.1384
  369MOL0     H50907  -0.263   5.208   4.664  0.4300 -0.2565 -0.4799
  369MOL0     H50908   0.216   5.310   4.539 -2.6560 -0.8569  1.7874
  369MOL0     H50909   0.363   5.334   4.345 -1.6930  0.8094  1.6789
  369MOL0     H50910   0.393   5.303   4.085 -1.0150 -0.7560  2.8691
  369MOL0     H50911   0.526   5.309   4.202  0.6002  2.0999 -1.0763
  369MOL0     H50912   0.681   5.192   4.075 -1.0088 -0.6103 -0.4637
  369MOL0     H50913   0.623   5.329   3.997  4.0605 -0.4187  0.7388
  369MOL0     H50914   0.550   5.036   3.947 -1.5080 -0.8247 -0.4796
  369MOL0     H50915   0.443   5.162   3.879  0.8559  1.0709  0.1859
  369MOL0     H50916   0.732   5.150   3.822 -0.5968  0.4806  2.0631
  369MOL0     H50917   0.589   5.245   3.750 -0.6160  0.7382  2.7831
  369MOL0     H50918   0.590   4.872   3.535  1.1114 -0.3173  1.2401
  369MOL0     H50919   0.292   4.921   4.241  1.7680 -3.1491  2.8395
  369MOL0     H50920   0.135   4.788   4.376 -1.4612 -2.0436  2.3496
  369MOL0     H50921   0.104   4.837   4.546 -1.5140  1.6605  1.0584
  369MOL0     H50922  -0.006   4.879   4.416  0.1888  1.0463 -0.5441
  370MOL0     O50923   5.865   7.376  11.023 -0.0421 -0.1481 -0.8171
  370MOL0     C50924   5.745   7.347  11.052 -0.1152  0.0433 -0.1773
  370MOL0     O50925   5.674   7.248  10.990  0.6282  0.0511  0.1503
  370MOL0     C50926   5.699   7.233  10.852  0.3206 -0.2634  0.1595
  370MOL0     C50927   5.743   7.327  10.752  0.6866 -0.1233 -0.0062
  370MOL0     C50928   5.756   7.293  10.618 -0.4815  0.3010  0.4629
  370MOL0     C50929   5.733   7.162  10.580  0.5945  0.8080  0.5624
  370MOL0     O50930   5.760   7.112  10.453  0.5172 -0.5305  0.3616
  370MOL0     C50931   5.862   7.174  10.373 -0.0482 -0.0542 -0.5007
  370MOL0     C50932   5.879   7.090  10.246  0.2076  0.0013  0.1008
  370MOL0     C50933   5.979   6.972  10.277  0.0731 -0.8074  0.7203
  370MOL0     C50934   6.021   6.892  10.157 -0.0790  0.7502 -0.3104
  370MOL0     C50935   6.116   6.771  10.191  0.3749  0.1192  0.0443
  370MOL0     C50936   6.144   6.690  10.057  0.4789  0.3258 -0.7581
  370MOL0     C50937   6.223   6.775   9.957  0.2941  0.2469 -0.1304
  370MOL0     C50938   6.327   6.869  10.015  0.1240  0.4308  0.5738
  370MOL0     N50939   6.406   6.925   9.902  0.2523 -0.2885  0.3980
  370MOL0     C50940   6.528   6.877   9.850 -0.2810 -0.2753  0.1467
  370MOL0     C50941   6.577   6.975   9.770 -0.5001 -0.2644  0.5151
  370MOL0     C50942   6.700   6.975   9.677 -0.8206 -0.7708  0.2958
  370MOL0     C50943   6.722   6.849   9.586 -0.3493 -0.5356 -0.4142
  370MOL0     C50944   6.599   6.824   9.491  0.3199  0.5245  0.5983
  370MOL0     C50945   6.546   6.689   9.480  0.5685 -0.1721  0.2688
  370MOL0     O50946   6.507   6.648   9.610 -0.4353  0.2166  0.1802
  370MOL0     C50947   6.459   6.522   9.636 -0.1763 -0.1970  0.5819
  370MOL0     C50948   6.465   6.413   9.547 -0.0231 -0.6491  0.6969
  370MOL0     C50949   6.428   6.283   9.597 -0.0089 -0.2588  0.6593
  370MOL0     C50950   6.439   6.162   9.500  0.6050  0.0452  0.0498
  370MOL0     C50951   6.391   6.265   9.727 -0.1279 -0.7421  0.1540
  370MOL0     C50952   6.366   6.135   9.791 -0.2553 -0.1753  0.1890
  370MOL0     O50953   6.441   6.023   9.757 -0.4383 -0.0359  0.5448
  370MOL0     C50954   6.399   5.901   9.791 -0.6603  0.5605 -0.5845
  370MOL0     C50955   6.399   5.792   9.698  0.3808 -1.2322  0.0448
  370MOL0     C50956   6.325   5.674   9.717  0.1783  0.2571 -0.1320
  370MOL0     C50957   6.275   5.647   9.844 -0.0031 -0.0946  0.4888
  370MOL0     O50958   6.188   5.540   9.873  0.1693 -0.3149 -0.9409
  370MOL0     C50959   6.228   5.401   9.836 -0.3459 -0.3629 -0.5860
  370MOL0     C50960   6.233   5.317   9.970 -0.4320 -0.7869  0.2061
  370MOL0     C50961   6.272   5.170   9.943 -0.6345  0.6144 -0.3366
  370MOL0     C50962   6.313   5.100  10.069 -0.2136 -0.0234  0.1740
  370MOL0     C50963   6.435   5.161  10.144  0.0584 -1.0382 -0.6354
  370MOL0     C50964   6.482   5.067  10.259  0.9982  0.1880 -0.0110
  370MOL0     C50965   6.374   5.039  10.362 -0.2080  0.9517  0.3583
  370MOL0     C50966   6.436   4.984  10.497  0.3731  0.0166  0.5227
  370MOL0    Cl50967   6.533   5.100  10.568 -0.0170 -0.0633 -0.2719
  370MOL0     C50968   6.307   5.735   9.949  0.8467 -0.9431  0.5614
  370MOL0     C50969   6.362   5.860   9.923 -0.0857  0.6408  0.7765
  370MOL0     O50970   6.289   6.133   9.886  0.3912 -0.0734 -0.1583
  370MOL0     C50971   6.387   6.380   9.815 -0.5543  0.4844  0.4150
  370MOL0     C50972   6.420   6.499   9.769  0.1772 -0.3877  0.2214
  370MOL0     N50973   6.477   7.068   9.761  0.1327  0.2336  0.5589
  370MOL0     N50974   6.386   7.047   9.851  0.1393 -0.1142 -0.5910
  370MOL0     C50975   5.673   7.070  10.674  0.5189 -0.2637 -0.2853
  370MOL0     C50976   5.665   7.107  10.808 -0.2380 -0.5998  0.9760
  370MOL0     C50977   5.683   7.411  11.172 -0.5069 -0.5414  0.3368
  370MOL0     C50978   5.636   7.329  11.271 -0.3370 -0.6626  0.5960
  370MOL0     C50979   5.581   7.381  11.394 -0.4152  1.2647 -0.6033
  370MOL0     C50980   5.584   7.519  11.401 -0.0801  0.1039  1.0278
  370MOL0     O50981   5.537   7.594  11.501  1.2407 -0.4802  0.5000
  370MOL0     C50982   5.561   7.554  11.634  0.4554 -0.3672 -0.2995
  370MOL0     C50983   5.553   7.665  11.743  0.0397  0.2084  0.7487
  370MOL0     C50984   5.607   7.803  11.687  0.3094 -0.1240  0.2927
  370MOL0     C50985   5.622   7.906  11.801  0.4035 -0.4715  0.1713
  370MOL0     C50986   5.492   7.962  11.848  0.0055  0.7115  0.4625
  370MOL0     C50987   5.385   8.004  11.875 -0.6066 -0.5900 -0.1779
  370MOL0     C50988   5.640   7.598  11.304  0.1521 -0.0530  0.7315
  370MOL0     C50989   5.698   7.549  11.195 -0.1893  0.2066 -0.1855
  370MOL0     C50990   5.776   7.649  11.113  0.4230 -0.6196 -0.2454
  370MOL0     H50991   5.765   7.432  10.769 -4.3349  1.2057 -0.1821
  370MOL0     H50992   5.806   7.366  10.556 -0.9969  2.6423  2.6377
  370MOL0     H50993   5.956   7.164  10.427 -0.7711  0.4823  0.9180
  370MOL0     H50994   5.839   7.281  10.368  1.2419  0.4284  2.1643
  370MOL0     H50995   5.784   7.043  10.216  0.9165 -0.6105 -1.3021
  370MOL0     H50996   5.908   7.150  10.159  1.1581  3.9440  2.8992
  370MOL0     H50997   6.067   7.008  10.330  0.6125 -0.2479 -0.5110
  370MOL0     H50998   5.925   6.902  10.341 -2.1671 -0.1437 -0.3113
  370MOL0     H50999   5.938   6.858  10.094 -1.5435 -0.7333  2.2717
  370MOL0     H51000   6.073   6.964  10.093 -1.6720  1.6681 -0.6498
  370MOL0     H51001   6.062   6.706  10.261  0.3040 -1.3365 -1.3130
  370MOL0     H51002   6.204   6.811  10.243 -0.1054 -2.9541  3.6295
  370MOL0     H51003   6.211   6.608  10.086 -2.1454 -0.9331  2.2975
  370MOL0     H51004   6.048   6.655  10.019 -0.0771  1.1125 -0.1240
  370MOL0     H51005   6.145   6.828   9.901  0.5989  0.3301 -0.4794
  370MOL0     H51006   6.267   6.716   9.876 -1.3189  0.3877 -1.1524
  370MOL0     H51007   6.289   6.953  10.073 -0.0534 -1.0034  2.6464
  370MOL0     H51008   6.387   6.800  10.074  1.0288  0.6419 -0.0910
  370MOL0     H51009   6.579   6.784   9.873  0.9617  0.2945 -0.2023
  370MOL0     H51010   6.787   6.985   9.743 -0.3923 -2.8174  0.1261
  370MOL0     H51011   6.691   7.070   9.623  1.1359  1.7140  3.9545
  370MOL0     H51012   6.816   6.862   9.530  0.7584 -1.2053  1.2328
  370MOL0     H51013   6.743   6.761   9.646  2.7242 -1.6016 -2.7639
  370MOL0     H51014   6.518   6.892   9.518 -2.4133 -3.2649  2.9053
  370MOL0     H51015   6.631   6.840   9.387 -1.4591 -3.5572 -0.7936
  370MOL0     H51016   6.463   6.689   9.409  1.4970  1.2051 -0.8939
  370MOL0     H51017   6.625   6.622   9.446  1.0737  0.1563  0.7836
  370MOL0     H51018   6.475   6.436   9.442 -3.4705  2.3691  0.8275
  370MOL0     H51019   6.506   6.086   9.540 -2.6943 -2.4367  1.2659
  370MOL0     H51020   6.488   6.195   9.408  0.7133  1.0079  0.4412
  370MOL0     H51021   6.336   6.128   9.481 -0.4666  2.6975  0.5762
  370MOL0     H51022   6.441   5.790   9.598  1.2271 -2.5378  0.4087
  370MOL0     H51023   6.299   5.610   9.634  3.3239  1.4398 -2.2231
  370MOL0     H51024   6.162   5.352   9.764 -2.3009 -0.7100  1.3581
  370MOL0     H51025   6.330   5.396   9.796  0.7553  1.7161  1.7160
  370MOL0     H51026   6.292   5.373  10.043 -2.8030  0.9004  0.9434
  370MOL0     H51027   6.134   5.309  10.016 -0.3020 -1.4572  0.3778
  370MOL0     H51028   6.360   5.165   9.877  0.7182 -1.9720  1.5032
  370MOL0     H51029   6.190   5.117   9.894 -0.3155  1.7178 -2.1718
  370MOL0     H51030   6.343   4.996  10.051 -0.3283 -0.1278  0.5613
  370MOL0     H51031   6.231   5.098  10.142  1.8148 -1.1980  2.5849
  370MOL0     H51032   6.525   5.174  10.084 -0.0248 -0.8013 -0.7100
  370MOL0     H51033   6.411   5.263  10.177 -0.6690 -1.1509 -0.8104
  370MOL0     H51034   6.570   5.112  10.304 -0.3909  1.6402  1.3937
  370MOL0     H51035   6.513   4.973  10.211 -0.4885  0.6774 -2.0986
  370MOL0     H51036   6.308   4.962  10.321 -1.3145  2.8988 -1.8142
  370MOL0     H51037   6.293   5.111  10.382 -4.6427 -2.0681 -4.1899
  370MOL0     H51038   6.493   4.896  10.466 -0.0221  0.5741 -2.0061
  370MOL0     H51039   6.349   4.961  10.560 -3.0396  2.8221 -2.7465
  370MOL0     H51040   6.283   5.701  10.049  2.0864 -4.1714 -0.1281
  370MOL0     H51041   6.384   5.925  10.007  3.9574  1.3568 -0.5878
  370MOL0     H51042   6.365   6.366   9.920  5.2225  1.7386  2.1603
  370MOL0     H51043   6.428   6.576   9.845 -1.2191  0.6055 -0.5932
  370MOL0     H51044   5.645   6.974  10.633 -3.5720  0.3541  0.6906
  370MOL0     H51045   5.616   7.035  10.872  0.6874 -2.0635  0.0816
  370MOL0     H51046   5.641   7.221  11.257  0.7238 -0.2707 -3.0419
  370MOL0     H51047   5.548   7.313  11.472  0.0675  0.3617 -1.1702
  370MOL0     H51048   5.484   7.481  11.657 -2.4624  2.1228 -1.4718
  370MOL0     H51049   5.658   7.503  11.641  1.5081  1.5511  0.0345
  370MOL0     H51050   5.615   7.634  11.828  0.7588  2.2608  1.0434
  370MOL0     H51051   5.458   7.684  11.793 -0.4732  0.8808 -0.4427
  370MOL0     H51052   5.695   7.789  11.624 -0.1224  2.0563 -0.8929
  370MOL0     H51053   5.533   7.838  11.615 -0.7590  2.5822  2.4892
  370MOL0     H51054   5.685   7.984  11.757 -0.8399  0.7395  0.4656
  370MOL0     H51055   5.676   7.863  11.885  1.2594  0.2873  0.0152
  370MOL0     H51056   5.293   8.057  11.891 -0.0161  0.8135 -1.2484
  370MOL0     H51057   5.611   7.703  11.304  0.6155  0.0826  1.4289
  370MOL0     H51058   5.882   7.660  11.137  0.8597 -1.0295 -1.8087
  370MOL0     H51059   5.767   7.618  11.008 -2.0669  1.0218 -0.5978
  370MOL0     H51060   5.732   7.748  11.122  0.6057 -0.7075  2.3875
  371MOL0     O51061   6.457   3.114   0.756  0.6053  0.0033  0.6287
  371MOL0     C51062   6.431   3.217   0.698 -0.3118  0.5341 -0.7014
  371MOL0     O51063   6.338   3.236   0.601 -0.7120 -0.9919  0.4498
  371MOL0     C51064   6.249   3.132   0.570  0.5272 -0.6369  1.5381
  371MOL0     C51065   6.205   3.024   0.657  0.6542  0.5237 -0.0913
  371MOL0     C51066   6.121   2.931   0.606 -0.1028  0.4233  0.3556
  371MOL0     C51067   6.072   2.933   0.480 -0.4539  0.5493 -0.1194
  371MOL0     O51068   5.976   2.849   0.430 -0.1081 -0.0274 -0.0438
  371MOL0     C51069   5.850   2.917   0.433 -0.7394  0.4106 -0.2547
  371MOL0     C51070   5.764   2.893   0.314 -0.9045 -0.0869  0.5560
  371MOL0     C51071   5.616   2.922   0.340  0.9308  0.4230  0.2200
  371MOL0     C51072   5.515   2.904   0.228 -0.2171 -0.0299  0.8043
  371MOL0     C51073   5.371   2.959   0.248 -1.4333 -0.4172 -0.1692
  371MOL0     C51074   5.280   2.937   0.128  0.0551 -0.3626  0.1897
  371MOL0     C51075   5.140   2.986   0.165  1.0976  0.0569 -0.4009
  371MOL0     C51076   5.051   3.012   0.049  0.2233 -0.6286 -0.9773
  371MOL0     N51077   4.983   2.886   0.007 -0.1920 -0.2053  0.3436
  371MOL0     C51078   5.047   2.800  -0.078  0.1839 -0.1465 -0.3706
  371MOL0     C51079   4.959   2.689  -0.076 -0.1835 -1.0339  0.6831
  371MOL0     C51080   4.984   2.555  -0.147  0.0900  0.0204  0.1874
  371MOL0     C51081   4.878   2.545  -0.266 -0.5699  0.3488  0.2959
  371MOL0     C51082   4.910   2.636  -0.387 -0.3275  0.0269 -0.0864
  371MOL0     C51083   4.831   2.585  -0.508  0.0393 -0.7537  0.1927
  371MOL0     O51084   4.867   2.662  -0.621 -0.3942 -0.7988  0.1528
  371MOL0     C51085   4.977   2.633  -0.697 -0.0154  0.8348  0.1001
  371MOL0     C51086   5.072   2.526  -0.676  0.0024 -0.0753  0.0828
  371MOL0     C51087   5.187   2.506  -0.749  0.8152  0.3347  0.0880
  371MOL0     C51088   5.277   2.384  -0.719  0.1302 -0.1236 -0.4396
  371MOL0     C51089   5.224   2.597  -0.848 -0.2261 -0.7598 -0.9206
  371MOL0     C51090   5.356   2.601  -0.912 -0.2838 -0.5271  0.6083
  371MOL0     O51091   5.367   2.676  -1.029 -0.3837  0.4145  0.0234
  371MOL0     C51092   5.486   2.705  -1.088  0.1446 -0.0717 -0.1546
  371MOL0     C51093   5.497   2.695  -1.230  0.2337  0.7087 -0.5320
  371MOL0     C51094   5.607   2.736  -1.298  0.2725  0.0878 -0.6300
  371MOL0     C51095   5.725   2.777  -1.235 -0.9328  0.5664 -1.1167
  371MOL0     O51096   5.836   2.806  -1.307 -0.7417  0.3259  0.3383
  371MOL0     C51097   5.952   2.758  -1.234 -0.6177 -0.0900  0.9506
  371MOL0     C51098   6.008   2.619  -1.282 -0.4954 -0.6149 -0.5903
  371MOL0     C51099   5.902   2.507  -1.286  1.1834 -0.6416  0.0578
  371MOL0     C51100   5.960   2.359  -1.299 -0.7947 -0.2173 -0.8694
  371MOL0     C51101   5.868   2.245  -1.326 -0.4580  0.8181 -0.2448
  371MOL0     C51102   5.811   2.253  -1.462  0.7677  0.1126  0.1263
  371MOL0     C51103   5.752   2.121  -1.528  0.8288 -0.5947 -0.7529
  371MOL0     C51104   5.604   2.102  -1.500 -0.6058 -0.4906 -0.5340
  371MOL0    Cl51105   5.545   1.937  -1.558 -0.2747  0.1545 -0.1724
  371MOL0     C51106   5.705   2.805  -1.091  0.1799 -0.5044 -1.1413
  371MOL0     C51107   5.591   2.768  -1.018 -0.1027 -0.4847  0.3418
  371MOL0     O51108   5.450   2.533  -0.872  0.4956  0.0136 -0.5604
  371MOL0     C51109   5.134   2.700  -0.883  0.1384  0.5435  0.3816
  371MOL0     C51110   5.020   2.716  -0.807 -0.0980  0.0340 -0.8470
  371MOL0     N51111   4.846   2.727  -0.004  0.8158 -1.0237  0.6390
  371MOL0     N51112   4.865   2.845   0.047  0.0566 -0.5438  0.5085
  371MOL0     C51113   6.128   3.022   0.393  0.4788 -0.0636  0.8854
  371MOL0     C51114   6.210   3.118   0.440 -0.2592  0.4579 -0.2667
  371MOL0     C51115   6.507   3.333   0.724  0.1628 -0.2600 -0.3411
  371MOL0     C51116   6.450   3.460   0.683  0.1283 -0.1730  0.2586
  371MOL0     C51117   6.522   3.578   0.707 -0.1157  0.7711  0.3998
  371MOL0     C51118   6.631   3.585   0.791  0.0409  1.0282  0.0956
  371MOL0     O51119   6.693   3.710   0.803  0.3301 -0.5024  0.1052
  371MOL0     C51120   6.814   3.724   0.883  0.7768  0.3854 -0.4043
  371MOL0     C51121   6.869   3.862   0.872  0.4720  0.4373 -0.1165
  371MOL0     C51122   6.918   3.901   0.731  0.5792  0.5610  0.0770
  371MOL0     C51123   6.991   4.035   0.711  0.5156  0.6915  0.2438
  371MOL0     C51124   6.906   4.138   0.776 -0.0164  0.4991 -1.6251
  371MOL0     C51125   6.845   4.227   0.838  0.7657  0.4821  0.1784
  371MOL0     C51126   6.679   3.457   0.842  0.2600  0.6851  0.1655
  371MOL0     C51127   6.622   3.336   0.808  0.2461 -0.5575 -0.8224
  371MOL0     C51128   6.696   3.222   0.864  0.0491  0.5902  0.1741
  371MOL0     H51129   6.241   3.028   0.760  0.7389  0.4991 -0.1199
  371MOL0     H51130   6.101   2.844   0.668 -0.7499  0.3476  0.0502
  371MOL0     H51131   5.853   3.022   0.461  1.3408 -0.0449  1.5064
  371MOL0     H51132   5.804   2.864   0.518  3.1316 -0.5037  1.5055
  371MOL0     H51133   5.796   2.941   0.221  1.9738  0.2560  1.6381
  371MOL0     H51134   5.773   2.785   0.295 -0.3722 -0.4112  2.4104
  371MOL0     H51135   5.584   2.864   0.426  3.1823 -6.5588 -2.9192
  371MOL0     H51136   5.606   3.028   0.365 -0.6663  0.0745  1.1622
  371MOL0     H51137   5.568   2.940   0.139  1.3432 -1.2525  1.1977
  371MOL0     H51138   5.507   2.797   0.212 -3.4634  0.3153 -0.7012
  371MOL0     H51139   5.386   3.065   0.268  2.5168 -0.8856  0.1736
  371MOL0     H51140   5.322   2.907   0.331 -1.3130  0.7887  0.6705
  371MOL0     H51141   5.334   2.986   0.046  1.6816 -1.0374  0.8258
  371MOL0     H51142   5.270   2.833   0.094  1.1122 -1.1996  2.2791
  371MOL0     H51143   5.156   3.082   0.215  0.0296  0.5632 -0.9884
  371MOL0     H51144   5.093   2.909   0.226 -0.2812 -2.4936 -4.2583
  371MOL0     H51145   4.975   3.081   0.087  1.2279 -0.8422  1.6522
  371MOL0     H51146   5.105   3.058  -0.034  1.5579  0.5050  0.4411
  371MOL0     H51147   5.146   2.810  -0.122  2.0952 -1.1156  3.2424
  371MOL0     H51148   4.960   2.467  -0.088 -1.5301 -1.7738 -2.8925
  371MOL0     H51149   5.088   2.550  -0.181  0.6309  2.8635  1.1659
  371MOL0     H51150   4.900   2.441  -0.292  3.3785 -0.0108  3.9398
  371MOL0     H51151   4.773   2.549  -0.235 -1.2755 -0.7647 -1.7794
  371MOL0     H51152   4.879   2.739  -0.368  0.3005  0.2226 -0.1350
  371MOL0     H51153   5.016   2.621  -0.407  0.1817  1.5634  1.2211
  371MOL0     H51154   4.849   2.478  -0.518 -0.8367 -1.1227  2.1966
  371MOL0     H51155   4.726   2.608  -0.489 -0.0762  0.6798 -1.7802
  371MOL0     H51156   5.045   2.446  -0.608 -0.3764 -0.7163 -0.8083
  371MOL0     H51157   5.281   2.316  -0.805  0.0466 -0.8868  0.1507
  371MOL0     H51158   5.215   2.319  -0.657 -1.3326 -1.3258 -3.0241
  371MOL0     H51159   5.371   2.418  -0.674 -0.2778 -0.1813  0.4682
  371MOL0     H51160   5.408   2.656  -1.277  1.9987 -1.6543 -2.1975
  371MOL0     H51161   5.617   2.728  -1.406 -0.5887 -0.6345 -0.6616
  371MOL0     H51162   6.029   2.834  -1.250 -2.1238  1.0698 -1.3113
  371MOL0     H51163   5.932   2.751  -1.126 -1.2671 -1.8084  0.7570
  371MOL0     H51164   6.033   2.631  -1.387 -0.3557  0.0121 -0.4867
  371MOL0     H51165   6.091   2.576  -1.225 -0.8776  1.9413  2.1350
  371MOL0     H51166   5.841   2.524  -1.376  0.7841 -2.6179 -0.0811
  371MOL0     H51167   5.842   2.504  -1.195  4.3157 -4.7700  2.3667
  371MOL0     H51168   6.023   2.346  -1.210  0.6591  1.1017 -1.6514
  371MOL0     H51169   6.039   2.364  -1.375 -0.1410 -2.9801 -0.4673
  371MOL0     H51170   5.936   2.159  -1.329 -2.0240 -0.4438 -1.4434
  371MOL0     H51171   5.796   2.236  -1.244  1.0549 -1.0565  0.9535
  371MOL0     H51172   5.877   2.304  -1.533 -1.4290  1.5675 -1.0257
  371MOL0     H51173   5.720   2.314  -1.456 -1.9751 -3.0626 -3.8647
  371MOL0     H51174   5.805   2.034  -1.488  3.6350  0.3544 -2.1405
  371MOL0     H51175   5.768   2.133  -1.635  0.3212  0.7103 -0.7004
  371MOL0     H51176   5.556   2.183  -1.557 -0.0985 -1.4202 -2.3557
  371MOL0     H51177   5.572   2.111  -1.396  0.2525 -3.2934  0.0470
  371MOL0     H51178   5.785   2.863  -1.046  0.5541 -2.7296  1.2763
  371MOL0     H51179   5.582   2.782  -0.911  0.5798  2.8002  0.0804
  371MOL0     H51180   5.155   2.775  -0.958  1.5416 -1.0819 -0.9287
  371MOL0     H51181   4.970   2.811  -0.821  2.5927  1.6218 -0.3287
  371MOL0     H51182   6.083   3.024   0.294  2.5853  1.3149 -0.1353
  371MOL0     H51183   6.254   3.182   0.363  0.0616  0.0297 -0.4424
  371MOL0     H51184   6.356   3.467   0.629  0.2331 -0.3410  0.0566
  371MOL0     H51185   6.474   3.660   0.654 -3.5782 -0.3169  1.5654
  371MOL0     H51186   6.793   3.703   0.989 -0.0811 -1.3374 -0.8755
  371MOL0     H51187   6.884   3.649   0.846  1.0021 -0.2678  1.2574
  371MOL0     H51188   6.956   3.878   0.937  2.7899 -1.2036 -2.5805
  371MOL0     H51189   6.778   3.915   0.903  1.5832  1.2624  1.9376
  371MOL0     H51190   6.977   3.820   0.687 -0.5122 -1.0640  1.4627
  371MOL0     H51191   6.826   3.909   0.673  1.2056 -0.1531 -1.0610
  371MOL0     H51192   7.023   4.055   0.608  3.4425 -0.1373  0.9040
  371MOL0     H51193   7.086   4.014   0.761  1.7431 -1.2475 -2.6482
  371MOL0     H51194   6.792   4.306   0.887 -2.1085 -2.2653  1.9015
  371MOL0     H51195   6.776   3.463   0.890  1.8001  2.2030 -2.7950
  371MOL0     H51196   6.704   3.142   0.790 -1.4961 -1.9998  2.6234
  371MOL0     H51197   6.802   3.244   0.876 -0.0286  2.0364 -1.2813
  371MOL0     H51198   6.657   3.185   0.959  0.0457 -2.9325 -1.0746
  372MOL0     O51199   5.103   0.910   0.867 -0.4210 -0.1426 -0.1906
  372MOL0     C51200   5.172   0.814   0.835  0.0903 -0.3781  0.1435
  372MOL0     O51201   5.310   0.818   0.811 -0.2552  0.1497  0.0354
  372MOL0     C51202   5.369   0.940   0.788 -0.0829  0.5841  0.2545
  372MOL0     C51203   5.502   0.944   0.837 -0.4810  0.1424 -0.2342
  372MOL0     C51204   5.577   1.052   0.815  0.6083 -0.2037 -0.6063
  372MOL0     C51205   5.522   1.167   0.758 -0.6102  0.2627  1.4062
  372MOL0     O51206   5.613   1.274   0.742 -0.1790 -0.1533  0.2665
  372MOL0     C51207   5.579   1.361   0.632  0.6102 -0.3405  0.8495
  372MOL0     C51208   5.485   1.470   0.681 -0.7085 -0.0374 -0.5190
  372MOL0     C51209   5.475   1.590   0.604  0.7009  0.1427  0.2421
  372MOL0     C51210   5.378   1.706   0.645 -0.2864  0.2290  0.2787
  372MOL0     C51211   5.232   1.658   0.615 -0.6946 -0.2392 -0.0289
  372MOL0     C51212   5.146   1.672   0.740 -0.1067 -0.4320 -0.9028
  372MOL0     C51213   5.012   1.617   0.712  0.7730  0.5676 -0.3637
  372MOL0     C51214   4.905   1.654   0.822 -0.5462  0.2452  0.1522
  372MOL0     N51215   4.770   1.604   0.803  0.1145  0.3489  0.3904
  372MOL0     C51216   4.695   1.559   0.692 -0.3617 -0.1984 -0.2919
  372MOL0     C51217   4.580   1.512   0.742  0.1435 -0.3100 -1.3891
  372MOL0     C51218   4.455   1.480   0.670  0.6812  0.0497 -0.2448
  372MOL0     C51219   4.336   1.558   0.727 -0.2207 -0.7165  0.5875
  372MOL0     C51220   4.365   1.708   0.736 -0.2831 -0.9003 -0.4808
  372MOL0     C51221   4.243   1.775   0.785 -0.0196 -0.9059  0.8366
  372MOL0     O51222   4.259   1.917   0.785 -0.4803 -0.7458  0.0605
  372MOL0     C51223   4.154   2.003   0.831  0.5065  0.5162 -0.4332
  372MOL0     C51224   4.171   2.137   0.820 -0.5113 -0.1136 -0.0399
  372MOL0     C51225   4.079   2.237   0.861 -0.4603 -0.0570  0.1920
  372MOL0     C51226   4.116   2.374   0.829  0.5004 -0.2636  0.5748
  372MOL0     C51227   3.963   2.197   0.938  0.1117  0.7823  0.1488
  372MOL0     C51228   3.877   2.291   1.012  0.1073 -0.4923 -1.4157
  372MOL0     O51229   3.927   2.409   1.057 -0.0676  0.2602 -0.3952
  372MOL0     C51230   3.852   2.525   1.079  0.1545  0.9518 -0.2447
  372MOL0     C51231   3.923   2.642   1.110  1.0243  0.6730  0.8154
  372MOL0     C51232   3.864   2.760   1.108  0.2275 -0.3027 -0.4127
  372MOL0     C51233   3.720   2.771   1.099 -0.7343 -1.1365 -0.2871
  372MOL0     O51234   3.654   2.889   1.096  0.3931 -0.7505  0.3772
  372MOL0     C51235   3.712   3.013   1.128  0.0979 -0.5159  0.9353
  372MOL0     C51236   3.766   3.093   1.013 -0.0581  0.5078  1.0451
  372MOL0     C51237   3.834   3.225   1.056 -0.1029  0.4805 -0.0229
  372MOL0     C51238   3.900   3.289   0.929 -0.2756 -0.1112  0.5607
  372MOL0     C51239   3.998   3.403   0.975 -0.4595 -0.5647 -0.1292
  372MOL0     C51240   4.092   3.446   0.851  0.9108  0.3645 -0.3037
  372MOL0     C51241   4.182   3.564   0.889 -0.1659 -0.1899 -0.0020
  372MOL0     C51242   4.191   3.653   0.767 -1.0057 -0.4740 -0.7220
  372MOL0    Cl51243   4.274   3.581   0.628 -0.5068 -0.0977 -0.0655
  372MOL0     C51244   3.645   2.654   1.083 -0.1871  0.2342  0.2834
  372MOL0     C51245   3.713   2.534   1.069  0.2976 -0.6417 -0.1270
  372MOL0     O51246   3.760   2.248   1.018  0.2931 -0.9719  0.1042
  372MOL0     C51247   3.935   2.051   0.937  0.7285 -0.9042 -0.6381
  372MOL0     C51248   4.030   1.961   0.882  0.0594 -0.1439  0.4156
  372MOL0     N51249   4.591   1.540   0.877  0.0588  0.2760 -0.9562
  372MOL0     N51250   4.702   1.576   0.924  0.4541  0.4002  0.7600
  372MOL0     C51251   5.390   1.165   0.703  0.8462 -0.0990 -0.5402
  372MOL0     C51252   5.314   1.049   0.724 -0.7236  0.7499  0.8132
  372MOL0     C51253   5.102   0.684   0.807  0.1066  0.4197 -0.0475
  372MOL0     C51254   5.153   0.605   0.699 -0.1665 -0.1271 -0.1649
  372MOL0     C51255   5.100   0.481   0.669  0.2180  0.0296 -0.1483
  372MOL0     C51256   4.991   0.428   0.747 -0.3623 -0.5970  0.0687
  372MOL0     O51257   4.954   0.307   0.707 -0.5136 -0.9278 -0.0078
  372MOL0     C51258   4.819   0.282   0.688 -0.1335  0.1398  0.2298
  372MOL0     C51259   4.768   0.184   0.799 -0.0499  0.0246  0.7011
  372MOL0     C51260   4.834   0.049   0.797  0.6076  0.2813 -0.1975
  372MOL0     C51261   4.827  -0.018   0.668 -0.1454  0.1898 -0.0617
  372MOL0     C51262   4.688  -0.065   0.651 -0.3051  0.1033  1.2011
  372MOL0     C51263   4.578  -0.087   0.630  0.0898  0.2305  0.1736
  372MOL0     C51264   4.942   0.506   0.848 -0.2860  0.8258 -0.5751
  372MOL0     C51265   4.997   0.625   0.888 -0.3403 -0.2520 -0.0250
  372MOL0     C51266   4.936   0.695   1.014 -0.5670  0.1218 -0.4937
  372MOL0     H51267   5.544   0.859   0.890 -1.7127  0.2964  1.0370
  372MOL0     H51268   5.679   1.066   0.847 -0.7557  1.5147  3.5914
  372MOL0     H51269   5.544   1.308   0.543  1.6606 -2.6915  1.7439
  372MOL0     H51270   5.663   1.415   0.587 -2.8173  2.6401 -2.6532
  372MOL0     H51271   5.384   1.427   0.691 -0.0833 -1.5343 -0.3430
  372MOL0     H51272   5.523   1.501   0.779 -1.1792 -1.7192  0.2424
  372MOL0     H51273   5.578   1.629   0.602  1.3435 -1.4042  1.5085
  372MOL0     H51274   5.444   1.560   0.504  1.2784 -0.3850  0.2187
  372MOL0     H51275   5.401   1.723   0.751  1.3799  1.9257 -0.2810
  372MOL0     H51276   5.400   1.797   0.588 -1.3494  0.0430 -0.4506
  372MOL0     H51277   5.220   1.559   0.571 -1.6649 -0.1212 -0.0437
  372MOL0     H51278   5.182   1.719   0.539 -0.1328  1.5690  0.9844
  372MOL0     H51279   5.189   1.614   0.822  1.5143 -0.0156 -1.4135
  372MOL0     H51280   5.133   1.777   0.767  1.0711 -0.6391  0.6202
  372MOL0     H51281   5.018   1.508   0.705 -3.3201  0.1464  0.1002
  372MOL0     H51282   4.978   1.650   0.613  1.9471  2.8454 -0.0628
  372MOL0     H51283   4.936   1.612   0.918 -2.8577  0.6876  1.1624
  372MOL0     H51284   4.905   1.762   0.835 -1.6826 -0.0002  2.8887
  372MOL0     H51285   4.714   1.566   0.586 -0.4764 -3.3995 -0.6234
  372MOL0     H51286   4.450   1.374   0.694  1.5442 -0.0510 -0.4732
  372MOL0     H51287   4.456   1.498   0.562  0.1885 -1.0182 -0.4407
  372MOL0     H51288   4.246   1.542   0.666 -1.5806 -0.8761  2.5690
  372MOL0     H51289   4.317   1.515   0.826 -4.1030 -1.9034 -0.4939
  372MOL0     H51290   4.446   1.732   0.804  2.0323 -2.7140 -2.4190
  372MOL0     H51291   4.395   1.751   0.640  3.0325 -0.4857  0.6488
  372MOL0     H51292   4.153   1.750   0.729  0.2071  1.2967 -0.6509
  372MOL0     H51293   4.228   1.740   0.888 -0.0639 -1.6012  0.5966
  372MOL0     H51294   4.269   2.157   0.778  0.9686  0.1929  3.2889
  372MOL0     H51295   4.025   2.434   0.833  1.0745  0.5971  1.0672
  372MOL0     H51296   4.168   2.390   0.733  0.2308  2.5276  0.8140
  372MOL0     H51297   4.168   2.412   0.917 -2.1751 -0.4089  2.3015
  372MOL0     H51298   4.028   2.619   1.125  0.5409 -2.2634  0.2954
  372MOL0     H51299   3.931   2.845   1.114  0.6734 -0.7440  1.6316
  372MOL0     H51300   3.626   3.067   1.168  0.6696 -0.0982  1.6099
  372MOL0     H51301   3.797   2.999   1.196  1.2009 -0.8012 -0.4351
  372MOL0     H51302   3.813   3.031   0.936 -0.2266 -0.2294  1.5251
  372MOL0     H51303   3.676   3.123   0.958  1.5219  1.0233 -1.4037
  372MOL0     H51304   3.902   3.203   1.139 -2.2781  1.7057  2.2468
  372MOL0     H51305   3.765   3.293   1.106 -0.9705  0.9198 -1.7531
  372MOL0     H51306   3.828   3.330   0.858  0.3271 -1.2946 -0.7828
  372MOL0     H51307   3.960   3.213   0.878  0.2460 -1.0274  2.4213
  372MOL0     H51308   3.947   3.499   0.988  2.7359  1.1973  0.5477
  372MOL0     H51309   4.060   3.379   1.062 -0.0071 -1.1536 -0.6052
  372MOL0     H51310   4.021   3.469   0.771  2.6134  1.1812 -1.6593
  372MOL0     H51311   4.166   3.370   0.827  0.0353  0.2402 -2.8536
  372MOL0     H51312   4.283   3.545   0.926 -0.4657  0.5121  1.2231
  372MOL0     H51313   4.131   3.620   0.968  1.2266  1.0603  0.0503
  372MOL0     H51314   4.236   3.749   0.794 -2.7194 -0.5136  2.7443
  372MOL0     H51315   4.087   3.674   0.740  0.2383  1.8274 -4.7316
  372MOL0     H51316   3.536   2.659   1.084 -0.6726 -4.8090  2.4363
  372MOL0     H51317   3.650   2.448   1.049 -1.2009  0.2486  0.5986
  372MOL0     H51318   3.852   1.994   0.977  2.1022 -2.7880 -0.3598
  372MOL0     H51319   4.000   1.857   0.891 -1.2307  0.0565 -1.1863
  372MOL0     H51320   5.342   1.234   0.634 -0.2790 -1.1154 -0.8197
  372MOL0     H51321   5.220   1.061   0.670 -1.3221 -0.7902  1.4616
  372MOL0     H51322   5.227   0.645   0.629 -0.0461 -3.0074 -1.8129
  372MOL0     H51323   5.127   0.418   0.584  4.2926  0.1267  0.8604
  372MOL0     H51324   4.761   0.375   0.684 -0.7108 -0.2148 -3.5874
  372MOL0     H51325   4.808   0.241   0.587  2.2074 -1.0470  0.3936
  372MOL0     H51326   4.662   0.169   0.779  0.1735 -0.4812 -0.1639
  372MOL0     H51327   4.778   0.235   0.895  1.9224  0.5844  0.2555
  372MOL0     H51328   4.942   0.055   0.812  0.6858 -3.8494  2.3695
  372MOL0     H51329   4.796  -0.010   0.881  1.1209 -0.9420 -0.7930
  372MOL0     H51330   4.893  -0.106   0.667 -0.9955 -0.4537 -0.3362
  372MOL0     H51331   4.867   0.044   0.587  3.5192 -2.5947 -0.6679
  372MOL0     H51332   4.473  -0.105   0.619  0.5702 -2.7771 -0.3707
  372MOL0     H51333   4.860   0.463   0.906  1.1835  0.1585  1.1361
  372MOL0     H51334   5.016   0.752   1.063 -0.2550  0.4398 -1.3534
  372MOL0     H51335   4.850   0.757   0.986 -1.8199 -1.4397 -0.2571
  372MOL0     H51336   4.904   0.620   1.087  1.0224 -1.5828 -1.4746
  373MOL0     O51337   9.194   2.623   2.614 -0.1292 -0.5646  0.2312
  373MOL0     C51338   9.269   2.557   2.542  0.0521 -0.4705 -0.5922
  373MOL0     O51339   9.360   2.606   2.455  0.7978  0.5126 -0.5025
  373MOL0     C51340   9.405   2.734   2.465 -0.8947  0.2251  0.4157
  373MOL0     C51341   9.437   2.804   2.344  0.2870  0.0085  0.5587
  373MOL0     C51342   9.487   2.929   2.337 -0.1171 -0.0221 -0.4419
  373MOL0     C51343   9.507   3.003   2.458 -0.4152  0.1767 -0.7385
  373MOL0     O51344   9.543   3.139   2.453 -0.1501 -0.4924  0.3968
  373MOL0     C51345   9.574   3.202   2.332  0.0151 -0.0103  0.4806
  373MOL0     C51346   9.720   3.163   2.291  0.1455 -0.4800 -0.6760
  373MOL0     C51347   9.787   3.263   2.193 -0.5348 -0.1278 -0.2064
  373MOL0     C51348   9.748   3.248   2.052  0.5075  0.4101 -0.1940
  373MOL0     C51349   9.810   3.361   1.967 -0.5881  0.5685  0.0829
  373MOL0     C51350   9.957   3.331   1.943  0.1007  0.2060  0.7711
  373MOL0     C51351   9.999   3.206   1.854  1.2194  0.2511  1.4830
  373MOL0     C51352  10.141   3.178   1.862  0.1556 -0.5793 -0.6782
  373MOL0     N51353  10.175   3.064   1.950  0.5105 -0.3214  0.1563
  373MOL0     C51354  10.195   3.061   2.086  0.9490  0.3768  0.5122
  373MOL0     C51355  10.218   2.931   2.122  0.0995 -0.2131 -0.2204
  373MOL0     C51356  10.223   2.873   2.265  0.9795 -0.1608  0.6430
  373MOL0     C51357  10.349   2.785   2.292 -0.1898  0.3603 -0.4608
  373MOL0     C51358  10.327   2.692   2.403 -0.1523  0.2333  0.7160
  373MOL0     C51359  10.457   2.617   2.426 -0.0537 -0.2728 -0.5570
  373MOL0     O51360  10.560   2.670   2.506 -0.5057  0.1430  0.8076
  373MOL0     C51361  10.684   2.618   2.502  0.5555 -0.0282  0.4980
  373MOL0     C51362  10.799   2.688   2.547  0.4621  0.5836 -0.2675
  373MOL0     C51363  10.928   2.630   2.563  1.1958  0.5861  0.5656
  373MOL0     C51364  11.039   2.713   2.623  1.4810  0.0966 -0.4801
  373MOL0     C51365  10.934   2.491   2.543 -0.4375 -0.0038  0.8920
  373MOL0     C51366  11.068   2.417   2.554 -0.9471  0.3925 -0.1124
  373MOL0     O51367  11.183   2.474   2.517  0.1062 -0.1033  0.7982
  373MOL0     C51368  11.312   2.433   2.542 -0.3287 -0.6476 -0.4725
  373MOL0     C51369  11.397   2.536   2.510  0.8211  0.3375  0.7078
  373MOL0     C51370  11.531   2.519   2.555 -0.9729 -1.0392 -0.0418
  373MOL0     C51371  11.578   2.411   2.629  0.3575 -0.7463 -0.1927
  373MOL0     O51372  11.700   2.409   2.680 -0.3154 -0.9381 -0.2840
  373MOL0     C51373  11.777   2.295   2.650 -0.0320  0.0286  0.3724
  373MOL0     C51374  11.918   2.302   2.713  0.6516 -0.6945 -0.6496
  373MOL0     C51375  11.913   2.277   2.865 -0.9599 -0.1192 -1.0082
  373MOL0     C51376  12.059   2.303   2.919 -0.2397  0.0942 -0.3888
  373MOL0     C51377  12.060   2.264   3.070 -0.8373  0.1039 -0.6076
  373MOL0     C51378  12.207   2.250   3.113 -0.4230 -0.1585 -0.4916
  373MOL0     C51379  12.271   2.115   3.067  0.0661 -0.9625  0.2311
  373MOL0     C51380  12.396   2.092   3.146 -0.4021 -0.5677 -0.4150
  373MOL0    Cl51381  12.519   2.228   3.098 -0.0209  0.4400 -0.2623
  373MOL0     C51382  11.488   2.311   2.653 -0.2096  0.1468  0.3812
  373MOL0     C51383  11.357   2.322   2.612  1.4755  0.4830 -0.7069
  373MOL0     O51384  11.063   2.299   2.594 -0.1165  0.2438  0.2190
  373MOL0     C51385  10.824   2.419   2.502  0.9118  0.0814  0.0129
  373MOL0     C51386  10.699   2.476   2.477  0.3073 -0.5062  0.7827
  373MOL0     N51387  10.228   2.863   2.003 -0.7043  0.0585 -0.5143
  373MOL0     N51388  10.181   2.937   1.908  0.0853  0.3902  0.9608
  373MOL0     C51389   9.477   2.935   2.581 -0.5442 -0.0060  0.1724
  373MOL0     C51390   9.435   2.803   2.583 -0.0250 -0.5475  0.0293
  373MOL0     C51391   9.239   2.418   2.543  0.3455  0.7973 -0.3401
  373MOL0     C51392   9.240   2.338   2.663 -0.6487  0.2458 -0.3120
  373MOL0     C51393   9.231   2.197   2.662  0.6852  0.0005  0.0984
  373MOL0     C51394   9.228   2.137   2.537  0.1899  0.9896 -0.4722
  373MOL0     O51395   9.223   2.005   2.503  0.0226 -0.4724 -0.1003
  373MOL0     C51396   9.204   1.907   2.606 -0.2982 -0.1777  0.0344
  373MOL0     C51397   9.138   1.798   2.528  0.5277  0.8632 -0.1094
  373MOL0     C51398   9.142   1.667   2.595  0.1420 -0.0834 -0.3317
  373MOL0     C51399   9.125   1.544   2.496  0.4134 -0.1969 -0.2088
  373MOL0     C51400   9.004   1.544   2.425  1.1357  0.3873 -0.0152
  373MOL0     C51401   8.904   1.561   2.358 -0.3365  0.4962  0.4031
  373MOL0     C51402   9.237   2.213   2.420 -0.2649  0.0732 -0.0838
  373MOL0     C51403   9.236   2.348   2.414  0.6051  0.3936 -0.0285
  373MOL0     C51404   9.238   2.409   2.277  0.0393  0.4279  0.3103
  373MOL0     H51405   9.413   2.760   2.247 -0.2357 -0.2933  0.8167
  373MOL0     H51406   9.492   2.976   2.239  0.1804 -0.5654 -0.6970
  373MOL0     H51407   9.573   3.305   2.367 -2.1001  0.2084 -0.0697
  373MOL0     H51408   9.511   3.193   2.243  1.9613  0.1449 -0.9782
  373MOL0     H51409   9.773   3.178   2.385 -0.0237 -0.0211 -0.6528
  373MOL0     H51410   9.725   3.055   2.272  3.4679 -0.7058  0.7973
  373MOL0     H51411   9.763   3.367   2.220 -0.5071 -0.9008  3.2248
  373MOL0     H51412   9.892   3.236   2.207  0.0213  1.0760 -1.7618
  373MOL0     H51413   9.787   3.159   2.002 -0.9332  0.0876 -0.8035
  373MOL0     H51414   9.639   3.246   2.041  0.2737 -0.7955  1.8505
  373MOL0     H51415   9.790   3.458   2.014  2.2702  0.4021  1.9013
  373MOL0     H51416   9.762   3.372   1.869  1.1194 -1.0970 -1.0048
  373MOL0     H51417   9.980   3.420   1.885 -0.1076 -1.2583 -1.6920
  373MOL0     H51418  10.001   3.334   2.044  0.6632  1.3478  0.5077
  373MOL0     H51419   9.985   3.232   1.748  1.2769 -1.6713  0.9675
  373MOL0     H51420   9.937   3.119   1.874 -2.7836  2.1898 -1.1161
  373MOL0     H51421  10.181   3.157   1.762 -2.9850  0.2843 -2.2393
  373MOL0     H51422  10.194   3.265   1.902 -0.7722  0.5876 -1.9114
  373MOL0     H51423  10.167   3.147   2.145 -1.7445 -1.5945  2.3512
  373MOL0     H51424  10.128   2.819   2.274  0.5136  0.0520 -2.1013
  373MOL0     H51425  10.222   2.948   2.344 -2.4659  0.9456 -0.2474
  373MOL0     H51426  10.369   2.721   2.205  2.9621 -3.6118  2.7607
  373MOL0     H51427  10.436   2.849   2.310  0.0327  1.0224 -3.4010
  373MOL0     H51428  10.299   2.726   2.503  1.0065 -2.9780  2.2665
  373MOL0     H51429  10.264   2.611   2.364 -0.2925  0.6397  0.0914
  373MOL0     H51430  10.439   2.523   2.479 -0.9097  0.4468  0.4801
  373MOL0     H51431  10.498   2.586   2.330 -1.7538 -1.1331 -1.0413
  373MOL0     H51432  10.788   2.789   2.587  0.5695  0.6116 -0.3069
  373MOL0     H51433  11.008   2.818   2.614 -2.3562 -0.6975  1.2038
  373MOL0     H51434  11.136   2.703   2.574  0.9230  0.5243 -1.7188
  373MOL0     H51435  11.048   2.692   2.730  0.2805  2.0932  0.0862
  373MOL0     H51436  11.358   2.619   2.452 -0.8074 -1.5744 -1.1249
  373MOL0     H51437  11.597   2.599   2.523  0.5796 -3.4489 -3.6823
  373MOL0     H51438  11.724   2.201   2.669  1.4005 -1.4588 -2.3947
  373MOL0     H51439  11.794   2.287   2.543 -1.7129  3.5879 -0.3216
  373MOL0     H51440  11.993   2.242   2.660  0.4637  0.5252 -2.4058
  373MOL0     H51441  11.961   2.403   2.701  0.9094 -0.1071  3.7878
  373MOL0     H51442  11.870   2.178   2.880  0.0196 -0.6133 -1.3603
  373MOL0     H51443  11.853   2.354   2.913  0.6409  0.4883  0.0870
  373MOL0     H51444  12.087   2.408   2.913 -2.7165  0.7977 -1.0287
  373MOL0     H51445  12.127   2.243   2.859 -1.9410 -0.2256 -2.1132
  373MOL0     H51446  12.006   2.344   3.122 -0.5102 -0.4844  0.6776
  373MOL0     H51447  12.000   2.181   3.107 -1.3348  1.6694  2.4065
  373MOL0     H51448  12.214   2.256   3.222 -4.3825 -0.3178 -0.0783
  373MOL0     H51449  12.267   2.333   3.075 -1.8577  0.7087 -0.9333
  373MOL0     H51450  12.289   2.115   2.959  0.5683  1.4473  0.2717
  373MOL0     H51451  12.194   2.039   3.083 -2.2717  0.9351 -1.3217
  373MOL0     H51452  12.440   1.993   3.135  0.4830 -0.2607  0.1569
  373MOL0     H51453  12.352   2.101   3.246  0.7453 -0.3664  0.0842
  373MOL0     H51454  11.514   2.215   2.697  1.1052  0.3666  0.1288
  373MOL0     H51455  11.291   2.238   2.629  0.5736  1.0586 -1.2728
  373MOL0     H51456  10.832   2.312   2.492 -1.1075 -0.1091 -0.1135
  373MOL0     H51457  10.616   2.407   2.473  1.0369 -1.5089  2.1737
  373MOL0     H51458   9.504   2.992   2.669  0.0009 -1.0545  0.7031
  373MOL0     H51459   9.423   2.740   2.670 -0.8556  1.0176  1.0995
  373MOL0     H51460   9.234   2.379   2.763 -1.0532  1.5805 -0.8636
  373MOL0     H51461   9.238   2.154   2.761 -1.5756  2.2227  1.3459
  373MOL0     H51462   9.305   1.878   2.636  0.1327  0.8606 -0.3563
  373MOL0     H51463   9.142   1.935   2.692  1.7848 -1.4850  2.1061
  373MOL0     H51464   9.206   1.783   2.443  1.7424 -1.3575  1.1459
  373MOL0     H51465   9.033   1.818   2.504  0.3565 -1.5566 -1.7642
  373MOL0     H51466   9.238   1.660   2.648 -0.5593 -1.4236  0.8260
  373MOL0     H51467   9.065   1.666   2.673  1.3212 -0.9041  0.8796
  373MOL0     H51468   9.136   1.453   2.556  2.9016 -1.2114 -2.0258
  373MOL0     H51469   9.206   1.546   2.423  1.5793  1.9544  1.0204
  373MOL0     H51470   8.808   1.585   2.318  1.0470 -0.1563 -3.8866
  373MOL0     H51471   9.228   2.142   2.338 -2.1548 -2.9038  2.4811
  373MOL0     H51472   9.174   2.498   2.273 -0.8654 -0.2077  0.2871
  373MOL0     H51473   9.338   2.439   2.247  0.0475  0.3640  0.2755
  373MOL0     H51474   9.198   2.334   2.207  2.1550  0.3913 -0.9365
  374MOL0     O51475   8.387   5.628   0.609 -0.6170  0.7033  0.0497
  374MOL0     C51476   8.429   5.589   0.714 -0.1115 -0.3152 -0.4941
  374MOL0     O51477   8.362   5.607   0.835  0.4685  0.4616  0.2247
  374MOL0     C51478   8.261   5.700   0.849 -0.7910 -0.3497  0.0171
  374MOL0     C51479   8.176   5.665   0.957  0.2900  0.3108 -0.6721
  374MOL0     C51480   8.062   5.741   0.982  0.2723 -0.8256 -0.7395
  374MOL0     C51481   8.040   5.862   0.904  0.2947  0.4161 -0.1056
  374MOL0     O51482   7.928   5.947   0.917 -0.6237  0.0395 -0.1715
  374MOL0     C51483   7.832   5.903   1.011  1.0026  0.8010 -0.7768
  374MOL0     C51484   7.728   6.012   1.028  0.3746 -0.8044  0.3424
  374MOL0     C51485   7.592   5.952   1.090 -0.1780  0.4556 -0.1883
  374MOL0     C51486   7.506   6.080   1.115 -0.2264  0.8063 -0.2129
  374MOL0     C51487   7.378   6.041   1.189  0.0783  0.5798  0.3318
  374MOL0     C51488   7.287   6.157   1.219 -0.7418  0.1401  0.1091
  374MOL0     C51489   7.150   6.116   1.270 -0.3064  0.5434  0.3466
  374MOL0     C51490   7.058   6.233   1.294  0.6682  0.6141 -0.4525
  374MOL0     N51491   6.951   6.202   1.389  0.2201 -0.1083 -0.1095
  374MOL0     C51492   6.969   6.166   1.518  0.3092  0.1060  0.9484
  374MOL0     C51493   6.847   6.119   1.546  0.0556  0.0212 -0.3113
  374MOL0     C51494   6.815   6.046   1.677 -0.2166  0.4222 -0.4003
  374MOL0     C51495   6.857   5.896   1.660 -0.7479  0.2119 -0.0721
  374MOL0     C51496   6.997   5.875   1.727  0.5749  0.4890 -0.2155
  374MOL0     C51497   7.085   5.756   1.675  0.3754 -0.1662  0.2714
  374MOL0     O51498   7.023   5.629   1.703 -0.6387 -0.3278 -0.2077
  374MOL0     C51499   7.008   5.578   1.828 -0.5505  0.3967 -0.0771
  374MOL0     C51500   6.949   5.446   1.827 -0.4698 -1.0199 -0.6895
  374MOL0     C51501   6.925   5.386   1.951  0.6806 -0.0729  0.5954
  374MOL0     C51502   6.868   5.247   1.930 -0.4498 -0.6066 -1.3422
  374MOL0     C51503   6.946   5.453   2.071 -0.1106 -1.2125 -0.6499
  374MOL0     C51504   6.922   5.394   2.201 -0.0230 -0.1946 -0.1426
  374MOL0     O51505   6.958   5.457   2.315 -0.1143 -0.6717 -0.0662
  374MOL0     C51506   6.918   5.402   2.432 -0.2258 -0.3308  0.9898
  374MOL0     C51507   7.017   5.370   2.522 -1.2102 -0.0430  0.4269
  374MOL0     C51508   6.990   5.324   2.644  0.3252 -1.1862 -0.5835
  374MOL0     C51509   6.859   5.316   2.680  0.1617 -0.6861  0.0603
  374MOL0     O51510   6.816   5.268   2.802  0.1429 -0.2172 -0.0459
  374MOL0     C51511   6.902   5.167   2.857 -0.1060  0.7432 -0.5722
  374MOL0     C51512   6.877   5.037   2.787 -0.1935  0.4881 -0.1446
  374MOL0     C51513   6.731   4.985   2.802 -0.2053  0.0390  0.3940
  374MOL0     C51514   6.691   4.891   2.707  0.2516 -0.0989  0.0279
  374MOL0     C51515   6.544   4.853   2.710  0.4078 -0.8301 -0.3123
  374MOL0     C51516   6.533   4.724   2.629  0.2445  0.3473 -0.0714
  374MOL0     C51517   6.386   4.673   2.633  0.1992 -0.1259 -1.0071
  374MOL0     C51518   6.376   4.538   2.556  0.0284 -0.8268  0.3947
  374MOL0    Cl51519   6.205   4.487   2.537  0.2696 -0.2977  0.0740
  374MOL0     C51520   6.759   5.344   2.598 -0.1395  0.0273  0.9911
  374MOL0     C51521   6.784   5.375   2.463 -0.7217  0.1734  0.4849
  374MOL0     O51522   6.894   5.272   2.205 -0.0345  0.2046  0.0497
  374MOL0     C51523   7.005   5.583   2.067  0.0147 -0.1809  0.7248
  374MOL0     C51524   7.039   5.643   1.946 -0.5253  0.5107 -0.3113
  374MOL0     N51525   6.749   6.139   1.444 -0.3306 -0.2674  0.1681
  374MOL0     N51526   6.819   6.190   1.347 -0.0846 -0.1894 -0.7046
  374MOL0     C51527   8.117   5.889   0.793 -0.2031 -0.3622  0.4285
  374MOL0     C51528   8.235   5.814   0.761  1.1666  0.9282  0.2041
  374MOL0     C51529   8.566   5.528   0.725  0.2844 -0.5555 -0.2460
  374MOL0     C51530   8.626   5.513   0.847  0.7119 -0.2357 -0.4520
  374MOL0     C51531   8.752   5.471   0.862  0.1523  0.2049 -0.0462
  374MOL0     C51532   8.832   5.430   0.752  0.1908 -0.5651 -0.3523
  374MOL0     O51533   8.956   5.377   0.787 -0.5051 -0.3044 -0.3370
  374MOL0     C51534   9.047   5.342   0.682  0.8240  0.1645  0.1604
  374MOL0     C51535   9.176   5.286   0.752  0.3197  0.0256 -0.5075
  374MOL0     C51536   9.273   5.232   0.652  0.3360 -0.3777  0.5585
  374MOL0     C51537   9.385   5.168   0.718 -0.1775  0.1337 -0.0345
  374MOL0     C51538   9.490   5.263   0.731 -0.8127  0.9958 -0.7423
  374MOL0     C51539   9.588   5.332   0.741 -0.3576 -0.4654 -0.4801
  374MOL0     C51540   8.784   5.450   0.625  0.5549  0.0903 -0.8300
  374MOL0     C51541   8.645   5.495   0.612 -0.5235 -0.6799  0.2463
  374MOL0     C51542   8.595   5.494   0.468  1.4636 -0.0315  0.4148
  374MOL0     H51543   8.197   5.585   1.028 -1.9150  1.2015  1.1158
  374MOL0     H51544   7.995   5.710   1.062  0.5419 -1.0621 -0.6005
  374MOL0     H51545   7.868   5.881   1.112 -0.7146  0.5913 -0.1904
  374MOL0     H51546   7.781   5.814   0.973 -0.8100  1.8533 -0.9163
  374MOL0     H51547   7.771   6.087   1.095  1.2852 -0.7732 -0.2642
  374MOL0     H51548   7.711   6.075   0.940  0.2866 -1.0985  0.1467
  374MOL0     H51549   7.538   5.880   1.029 -0.9513 -0.2049  1.2140
  374MOL0     H51550   7.615   5.886   1.175 -3.3733  0.5741  0.8813
  374MOL0     H51551   7.556   6.154   1.178  0.8566  1.2622 -1.5516
  374MOL0     H51552   7.483   6.117   1.014 -3.0271 -0.5357 -0.1546
  374MOL0     H51553   7.415   6.001   1.283  0.1904 -1.0926 -0.3984
  374MOL0     H51554   7.319   5.965   1.137  0.9253  0.1822 -0.0536
  374MOL0     H51555   7.330   6.214   1.302 -3.4642  1.9165  0.4124
  374MOL0     H51556   7.287   6.215   1.127  2.7922  0.2621  0.0378
  374MOL0     H51557   7.165   6.056   1.360  0.6392  1.6794  0.9626
  374MOL0     H51558   7.103   6.043   1.203 -0.4111  1.2588 -0.3666
  374MOL0     H51559   7.125   6.313   1.324 -2.3258  2.1960  2.6221
  374MOL0     H51560   7.013   6.275   1.203 -0.4543  2.9921  1.0993
  374MOL0     H51561   7.054   6.165   1.585  1.1536 -0.0994 -0.0951
  374MOL0     H51562   6.706   6.043   1.685 -0.0818 -1.4875  2.1535
  374MOL0     H51563   6.846   6.099   1.768 -0.3419  3.0235 -1.7883
  374MOL0     H51564   6.783   5.833   1.709  0.6708 -1.0259  0.5749
  374MOL0     H51565   6.855   5.873   1.553 -1.6399  2.2763 -0.5461
  374MOL0     H51566   7.067   5.956   1.704  3.3044 -1.0918  1.8761
  374MOL0     H51567   6.984   5.873   1.836  0.3658  2.6879 -0.1540
  374MOL0     H51568   7.077   5.760   1.566 -0.6941 -3.3037  0.1497
  374MOL0     H51569   7.188   5.765   1.710 -0.1692 -1.1814  2.2772
  374MOL0     H51570   6.948   5.397   1.730 -1.1249  0.3821 -1.4372
  374MOL0     H51571   6.933   5.169   1.970  0.1896 -0.1859 -1.5514
  374MOL0     H51572   6.862   5.219   1.824  0.5245 -3.0749 -0.8096
  374MOL0     H51573   6.769   5.237   1.975 -0.8842 -0.2566 -2.1935
  374MOL0     H51574   7.122   5.374   2.493 -0.8094 -1.0971  1.6760
  374MOL0     H51575   7.075   5.300   2.708  0.0641 -2.9257 -0.8283
  374MOL0     H51576   7.008   5.193   2.862 -0.1371  0.6098  2.6123
  374MOL0     H51577   6.873   5.168   2.962  3.6543 -2.7814  0.7637
  374MOL0     H51578   6.904   5.041   2.681  4.0662  0.6514  0.7625
  374MOL0     H51579   6.945   4.967   2.836  3.4092  3.8550  0.1645
  374MOL0     H51580   6.663   5.069   2.788 -2.1358 -1.3657  0.9593
  374MOL0     H51581   6.726   4.949   2.905 -0.7884  0.2496  0.4418
  374MOL0     H51582   6.754   4.802   2.709  2.9983  1.6471 -2.1918
  374MOL0     H51583   6.711   4.939   2.611 -3.0064  5.5799  1.6948
  374MOL0     H51584   6.515   4.834   2.813  0.7575 -0.2946 -0.1138
  374MOL0     H51585   6.481   4.932   2.667 -0.9877 -1.9953 -0.4865
  374MOL0     H51586   6.601   4.646   2.665 -0.3319  0.3987  1.2130
  374MOL0     H51587   6.568   4.760   2.532 -1.8812  2.7872 -0.0340
  374MOL0     H51588   6.316   4.751   2.599 -0.4070  0.2751  1.0342
  374MOL0     H51589   6.360   4.651   2.736 -1.7575  2.2217 -0.9013
  374MOL0     H51590   6.418   4.453   2.609  1.0761  0.5065  1.8099
  374MOL0     H51591   6.432   4.551   2.462  2.3888 -0.0711  1.8250
  374MOL0     H51592   6.656   5.323   2.626 -0.2648 -2.9644 -1.2322
  374MOL0     H51593   6.707   5.384   2.387  1.8597  1.5833 -2.1566
  374MOL0     H51594   7.033   5.638   2.157  0.2870 -1.4020  1.4076
  374MOL0     H51595   7.087   5.741   1.947 -2.0766  1.3055 -0.1429
  374MOL0     H51596   8.091   5.973   0.729 -2.7955 -0.0217  1.7921
  374MOL0     H51597   8.279   5.833   0.663  1.2579  0.6249  0.1864
  374MOL0     H51598   8.572   5.534   0.938  3.1880  3.6844  0.3617
  374MOL0     H51599   8.793   5.450   0.961 -0.0814 -2.9157 -0.5048
  374MOL0     H51600   8.997   5.271   0.616 -1.5224  1.0550  0.8408
  374MOL0     H51601   9.076   5.425   0.617  2.9269  0.0597  0.9043
  374MOL0     H51602   9.143   5.208   0.822  0.5278  1.2126  0.9852
  374MOL0     H51603   9.220   5.375   0.798  1.0875 -1.5157  1.9679
  374MOL0     H51604   9.222   5.162   0.585 -0.4986  1.6643 -1.0463
  374MOL0     H51605   9.311   5.317   0.596  0.2624 -1.2226 -0.8332
  374MOL0     H51606   9.429   5.092   0.653  0.6227  2.3104 -2.2169
  374MOL0     H51607   9.352   5.138   0.818 -1.8569  2.7327  0.2948
  374MOL0     H51608   9.681   5.377   0.772 -0.2486 -1.6873  1.0812
  374MOL0     H51609   8.851   5.433   0.542  1.4210 -0.6009 -0.0141
  374MOL0     H51610   8.666   5.440   0.405  2.2195  0.4316  0.8568
  374MOL0     H51611   8.494   5.453   0.461  1.1345  0.7807  0.2864
  374MOL0     H51612   8.594   5.600   0.441  1.5636  0.0723  0.8184
  375MOL0     O51613   5.383   7.969  10.272  0.0836  0.3624  0.2099
  375MOL0     C51614   5.261   7.989  10.253  0.2514  0.1698  0.0108
  375MOL0     O51615   5.164   7.889  10.259  0.1086 -0.0002  0.6440
  375MOL0     C51616   5.215   7.767  10.299  0.5424  0.9523 -0.0674
  375MOL0     C51617   5.272   7.743  10.423  0.3623  0.1309 -0.0821
  375MOL0     C51618   5.300   7.616  10.468  0.3614  0.1904  0.2799
  375MOL0     C51619   5.282   7.502  10.388  0.2551 -0.9473  0.3558
  375MOL0     O51620   5.295   7.368  10.424  0.2734 -0.0504  0.3353
  375MOL0     C51621   5.412   7.337  10.506  0.0808  0.1333 -0.6461
  375MOL0     C51622   5.366   7.268  10.632 -0.4033  0.1262  0.2249
  375MOL0     C51623   5.314   7.378  10.739 -0.0428 -0.1796  0.3090
  375MOL0     C51624   5.300   7.325  10.872 -0.4505  0.9594 -0.3161
  375MOL0     C51625   5.268   7.435  10.981 -1.0379  0.8400  0.5856
  375MOL0     C51626   5.261   7.369  11.119 -0.7165  0.8196  1.3950
  375MOL0     C51627   5.261   7.450  11.238  0.3950 -0.4183  0.5346
  375MOL0     C51628   5.201   7.380  11.358 -0.2166  0.3396  0.4151
  375MOL0     N51629   5.232   7.459  11.478 -0.0915 -1.3675 -0.8330
  375MOL0     C51630   5.198   7.595  11.500 -0.1529  0.3255 -0.0386
  375MOL0     C51631   5.202   7.613  11.629 -0.2882 -0.7063  0.7139
  375MOL0     C51632   5.174   7.743  11.697 -0.4625  1.2527 -1.0390
  375MOL0     C51633   5.052   7.812  11.637 -0.6725 -0.1808  0.2738
  375MOL0     C51634   4.997   7.920  11.735  0.3324  0.1790 -0.4533
  375MOL0     C51635   4.877   7.988  11.673  0.0082  0.4163  0.2040
  375MOL0     O51636   4.849   8.108  11.745  0.1482 -0.4484  0.5263
  375MOL0     C51637   4.751   8.191  11.711  0.4624 -0.1517  0.9191
  375MOL0     C51638   4.659   8.172  11.603  0.2376 -0.0846 -0.5475
  375MOL0     C51639   4.546   8.256  11.591  0.4147 -0.4701 -0.6017
  375MOL0     C51640   4.458   8.236  11.476 -0.0337 -0.6368 -0.7229
  375MOL0     C51641   4.530   8.367  11.680  0.7576 -0.6805 -0.4438
  375MOL0     C51642   4.411   8.452  11.679  1.1744 -0.9413 -0.9160
  375MOL0     O51643   4.285   8.411  11.632 -1.2594  0.4936  0.3002
  375MOL0     C51644   4.182   8.505  11.622 -0.2202 -0.2825 -0.6747
  375MOL0     C51645   4.100   8.502  11.509 -0.6694 -0.9408  1.2179
  375MOL0     C51646   3.980   8.572  11.508  0.1247  0.4481 -0.3502
  375MOL0     C51647   3.943   8.651  11.617  0.8516  0.1345 -0.4508
  375MOL0     O51648   3.823   8.720  11.606 -0.2367 -0.4218 -0.1780
  375MOL0     C51649   3.790   8.834  11.686  0.1593  0.2834 -0.7970
  375MOL0     C51650   3.654   8.885  11.666 -0.0076  0.0034  0.2143
  375MOL0     C51651   3.539   8.791  11.694 -0.0093 -0.3275  0.5069
  375MOL0     C51652   3.533   8.730  11.835 -1.0478 -0.3569  0.2867
  375MOL0     C51653   3.414   8.618  11.835  0.6159 -0.1492 -0.1232
  375MOL0     C51654   3.432   8.536  11.956 -0.1806  0.1795  0.5829
  375MOL0     C51655   3.334   8.413  11.940 -0.6324  0.3027  0.5220
  375MOL0     C51656   3.373   8.288  12.015  0.1238 -0.9947  0.8451
  375MOL0    Cl51657   3.353   8.315  12.187  0.1943 -0.2369 -0.4962
  375MOL0     C51658   4.019   8.646  11.735 -0.0472  0.1880  0.0554
  375MOL0     C51659   4.150   8.583  11.735  0.3863 -1.1268  0.0948
  375MOL0     O51660   4.436   8.564  11.725  0.0972  0.0071 -0.1054
  375MOL0     C51661   4.628   8.389  11.773 -0.4605  0.3042 -0.0140
  375MOL0     C51662   4.737   8.297  11.788  0.8254  0.5274 -0.3039
  375MOL0     N51663   5.224   7.486  11.684 -0.1347  0.7985  0.3375
  375MOL0     N51664   5.242   7.399  11.594 -0.6671  0.0601 -0.2582
  375MOL0     C51665   5.237   7.522  10.260 -0.3785 -0.2650  0.3167
  375MOL0     C51666   5.204   7.656  10.208 -0.7554  0.4756 -0.0829
  375MOL0     C51667   5.224   8.117  10.199  1.1950 -0.2328  0.7555
  375MOL0     C51668   5.324   8.221  10.185  0.9526 -0.8079 -0.3762
  375MOL0     C51669   5.299   8.357  10.135 -0.4714  0.1041  0.2776
  375MOL0     C51670   5.171   8.389  10.107 -0.1045 -0.5665  0.8128
  375MOL0     O51671   5.143   8.519  10.062 -0.3649 -0.5860  0.0797
  375MOL0     C51672   5.007   8.560  10.036  0.1386 -0.6357 -0.4039
  375MOL0     C51673   4.997   8.710   9.998 -0.0495  0.5608 -0.7343
  375MOL0     C51674   5.066   8.734   9.863  0.4456 -1.2318 -0.0143
  375MOL0     C51675   5.051   8.881   9.831 -0.1134  0.1205 -0.3515
  375MOL0     C51676   5.104   8.904   9.694  0.7441 -0.1176 -0.2588
  375MOL0     C51677   5.124   8.910   9.573 -0.8866  0.0782 -0.4401
  375MOL0     C51678   5.070   8.292  10.121 -0.5184  0.2078 -0.2535
  375MOL0     C51679   5.086   8.161  10.169  0.3879  0.8206 -0.1844
  375MOL0     C51680   4.967   8.072  10.175  0.0313 -0.0173 -0.2029
  375MOL0     H51681   5.282   7.817  10.502  3.6351  0.3986 -0.6152
  375MOL0     H51682   5.327   7.592  10.570  3.5858 -1.2545 -0.7723
  375MOL0     H51683   5.466   7.428  10.533 -2.6058  0.6490  4.1313
  375MOL0     H51684   5.473   7.266  10.449  0.1525 -0.9739  0.7515
  375MOL0     H51685   5.291   7.193  10.605  0.8827 -1.0543 -0.1647
  375MOL0     H51686   5.449   7.214  10.678  0.0123  1.1939  0.7590
  375MOL0     H51687   5.391   7.454  10.751 -2.6624  2.8076 -0.3022
  375MOL0     H51688   5.223   7.427  10.701 -1.6323 -3.2866 -0.1996
  375MOL0     H51689   5.218   7.254  10.876  0.0062  0.4504  0.2618
  375MOL0     H51690   5.393   7.269  10.886 -1.0272 -0.9182 -3.1347
  375MOL0     H51691   5.167   7.468  10.955 -0.5351  0.1548 -2.7806
  375MOL0     H51692   5.338   7.519  10.982  0.5504 -0.4143  2.7221
  375MOL0     H51693   5.178   7.297  11.114 -0.9280  1.1082  0.6500
  375MOL0     H51694   5.345   7.299  11.124  0.8204  2.5763  0.7671
  375MOL0     H51695   5.191   7.533  11.229 -0.3510 -0.8386  2.0390
  375MOL0     H51696   5.361   7.490  11.257 -0.1585  1.6102 -0.5668
  375MOL0     H51697   5.092   7.389  11.348 -0.2257  1.3449  1.2310
  375MOL0     H51698   5.230   7.276  11.372  1.4216  1.0837  3.6337
  375MOL0     H51699   5.160   7.657  11.419 -2.5803 -1.2425 -0.1987
  375MOL0     H51700   5.259   7.811  11.712 -0.9114  1.8899 -1.3724
  375MOL0     H51701   5.147   7.732  11.802 -0.4477 -0.6610 -1.1999
  375MOL0     H51702   5.087   7.865  11.548 -0.1976  0.5329  0.8716
  375MOL0     H51703   4.972   7.738  11.629 -2.8181  2.1299 -1.2256
  375MOL0     H51704   4.971   7.873  11.830 -0.6620 -0.5977 -1.0822
  375MOL0     H51705   5.066   8.000  11.760 -2.5500  2.4824  0.7703
  375MOL0     H51706   4.903   8.026  11.574 -2.4284 -2.6373 -1.8023
  375MOL0     H51707   4.797   7.916  11.656  0.0165  0.8046 -1.7021
  375MOL0     H51708   4.681   8.094  11.531  0.8076 -0.9546  0.5536
  375MOL0     H51709   4.415   8.332  11.450 -1.9965 -1.0636  0.7468
  375MOL0     H51710   4.376   8.177  11.517  0.3656 -0.2916  0.6336
  375MOL0     H51711   4.517   8.201  11.391  0.0031 -0.2015 -0.8773
  375MOL0     H51712   4.126   8.436  11.427 -1.5738  0.4443 -0.2352
  375MOL0     H51713   3.922   8.563  11.417  0.3487  0.3572 -0.4838
  375MOL0     H51714   3.795   8.809  11.793 -0.6553 -1.4574 -1.1298
  375MOL0     H51715   3.864   8.912  11.667 -1.6501  2.0771 -0.7964
  375MOL0     H51716   3.646   8.970  11.733  1.2651 -0.6112  1.1859
  375MOL0     H51717   3.648   8.926  11.565 -0.1406  1.7977  0.9165
  375MOL0     H51718   3.535   8.708  11.622  0.2141 -1.1291  1.3993
  375MOL0     H51719   3.444   8.845  11.687  1.4936  2.4538  0.3221
  375MOL0     H51720   3.512   8.814  11.901 -0.3374 -1.8373  2.5206
  375MOL0     H51721   3.627   8.680  11.862  1.5114  4.1428  0.7482
  375MOL0     H51722   3.323   8.679  11.836  0.6119 -0.1543  0.9339
  375MOL0     H51723   3.424   8.566  11.739  2.3393  0.5448 -0.3568
  375MOL0     H51724   3.415   8.598  12.044  0.3659 -0.5559  1.2252
  375MOL0     H51725   3.536   8.503  11.965  0.2743  0.8352 -1.6069
  375MOL0     H51726   3.328   8.395  11.832  1.9666  1.3904  0.1324
  375MOL0     H51727   3.238   8.455  11.972 -0.0237 -0.6734  4.0247
  375MOL0     H51728   3.471   8.260  11.976 -0.5791 -0.6869 -1.2703
  375MOL0     H51729   3.306   8.208  11.984  0.3989 -0.3380 -1.6862
  375MOL0     H51730   3.972   8.689  11.823 -0.7576  1.2867 -0.8463
  375MOL0     H51731   4.199   8.570  11.831 -0.3288  1.4771  0.8916
  375MOL0     H51732   4.625   8.470  11.845 -0.7067  0.2081  0.0872
  375MOL0     H51733   4.802   8.316  11.872  0.2009 -1.5393  0.6974
  375MOL0     H51734   5.217   7.433  10.200 -1.1121  1.0567 -1.5016
  375MOL0     H51735   5.175   7.668  10.104 -0.0608 -4.8058 -1.1878
  375MOL0     H51736   5.423   8.187  10.212  0.7894 -1.0912 -0.1357
  375MOL0     H51737   5.375   8.433  10.119 -0.2515  0.1930  1.6829
  375MOL0     H51738   4.957   8.506   9.955  1.3321  0.9197 -2.2613
  375MOL0     H51739   4.950   8.537  10.127  2.0170 -3.1590  0.2516
  375MOL0     H51740   5.034   8.763  10.085 -3.3891 -1.2668  2.0698
  375MOL0     H51741   4.888   8.722   9.999 -0.5044 -2.5350  0.6220
  375MOL0     H51742   5.171   8.715   9.889 -0.4558 -0.6051  5.4899
  375MOL0     H51743   5.028   8.668   9.785  1.4899 -1.2543 -0.5190
  375MOL0     H51744   5.088   8.951   9.906 -1.7640  1.9810 -1.1561
  375MOL0     H51745   4.944   8.906   9.831 -0.9381 -2.8256 -2.3818
  375MOL0     H51746   5.144   8.922   9.469  0.2856 -2.5431 -0.5817
  375MOL0     H51747   4.965   8.318  10.108 -0.5515 -0.1295 -0.6542
  375MOL0     H51748   4.974   7.987  10.106  2.7113  0.7680 -0.9855
  375MOL0     H51749   4.961   8.027  10.275  2.8657  1.5114  0.7485
  375MOL0     H51750   4.871   8.121  10.154 -0.6797 -0.4442  1.8208
  376MOL0     O51751   9.073   3.938   2.615 -0.0187  0.0979  0.7960
  376MOL0     C51752   8.951   3.942   2.608  0.0265  0.0217 -0.3142
  376MOL0     O51753   8.882   4.059   2.570 -0.2802  0.2186 -0.2597
  376MOL0     C51754   8.969   4.157   2.539  0.7441 -0.3628 -0.2305
  376MOL0     C51755   8.998   4.187   2.408  0.4454  0.3060  0.6269
  376MOL0     C51756   9.061   4.304   2.374  0.0367 -0.9077  1.1812
  376MOL0     C51757   9.098   4.398   2.477 -0.3800  0.0411  0.3655
  376MOL0     O51758   9.155   4.524   2.453 -1.1129  0.3995 -0.6098
  376MOL0     C51759   9.171   4.567   2.319 -0.3985 -0.1854  0.6113
  376MOL0     C51760   9.043   4.591   2.234  0.1232  0.6532  0.2262
  376MOL0     C51761   9.074   4.630   2.086  1.0268  0.4912  0.9506
  376MOL0     C51762   8.927   4.658   2.023  0.0827  0.6925  0.4577
  376MOL0     C51763   8.948   4.715   1.885  0.6200  0.0953  0.1194
  376MOL0     C51764   9.004   4.623   1.774  1.2353 -0.0980 -0.3784
  376MOL0     C51765   9.039   4.694   1.645  0.7914  0.4184 -0.6342
  376MOL0     C51766   9.077   4.599   1.518  0.1101  0.8328 -0.0170
  376MOL0     N51767   9.203   4.519   1.525  0.3708 -0.8730 -0.3713
  376MOL0     C51768   9.227   4.396   1.467 -0.1985 -1.3981  0.1530
  376MOL0     C51769   9.344   4.359   1.515  0.3135  0.2068 -0.6425
  376MOL0     C51770   9.413   4.229   1.469  0.3247  0.5111 -0.1652
  376MOL0     C51771   9.314   4.107   1.450  0.1631 -0.7166 -0.2080
  376MOL0     C51772   9.393   3.979   1.477  0.2377  0.3408  0.1747
  376MOL0     C51773   9.291   3.856   1.464 -0.4571 -0.1242  0.1355
  376MOL0     O51774   9.209   3.848   1.578  0.0696 -0.4073  0.0490
  376MOL0     C51775   9.241   3.777   1.689 -0.0750  0.0199  0.5497
  376MOL0     C51776   9.371   3.732   1.710 -0.7805  0.2501  0.4422
  376MOL0     C51777   9.407   3.682   1.840  0.3780 -0.1678  0.3940
  376MOL0     C51778   9.557   3.666   1.865  1.2992 -0.0081  0.8230
  376MOL0     C51779   9.314   3.673   1.944 -0.0486 -0.1217  1.0947
  376MOL0     C51780   9.333   3.607   2.076 -0.3369  0.3267 -0.4167
  376MOL0     O51781   9.224   3.579   2.151 -0.3436 -0.0078 -0.5846
  376MOL0     C51782   9.242   3.509   2.263 -0.1582 -0.1826  0.1439
  376MOL0     C51783   9.249   3.574   2.382 -0.3775 -0.6605 -0.2772
  376MOL0     C51784   9.260   3.505   2.504  0.1596 -1.2086 -0.3676
  376MOL0     C51785   9.248   3.370   2.510 -0.2664 -0.0235 -0.3718
  376MOL0     O51786   9.272   3.305   2.627 -0.2445  0.5011  0.0709
  376MOL0     C51787   9.198   3.186   2.656 -0.0806  0.3856  0.1299
  376MOL0     C51788   9.249   3.128   2.789  0.2703 -0.0711 -0.4808
  376MOL0     C51789   9.223   3.225   2.912 -0.5865 -0.3032 -0.0830
  376MOL0     C51790   9.073   3.263   2.935 -0.2524  0.4270  1.3716
  376MOL0     C51791   9.057   3.308   3.079  0.5501 -0.1637  0.5169
  376MOL0     C51792   9.114   3.449   3.099  0.2034 -0.8070  0.7478
  376MOL0     C51793   9.115   3.495   3.247 -0.1944 -0.2759  0.6251
  376MOL0     C51794   9.149   3.640   3.251 -0.7223  0.3589 -0.1053
  376MOL0    Cl51795   9.110   3.715   3.406  0.3073  0.0231 -0.2338
  376MOL0     C51796   9.224   3.305   2.387 -0.1214  0.2514 -0.3095
  376MOL0     C51797   9.224   3.375   2.263  0.6514 -0.0144  1.5327
  376MOL0     O51798   9.446   3.576   2.113  0.1332 -0.5266  0.2233
  376MOL0     C51799   9.188   3.725   1.915 -0.6821  0.2076 -0.1192
  376MOL0     C51800   9.157   3.776   1.795  0.2302 -0.1613  0.7114
  376MOL0     N51801   9.382   4.452   1.610  0.1732 -0.6296  0.6897
  376MOL0     N51802   9.305   4.554   1.609 -0.0252  0.4728 -0.7173
  376MOL0     C51803   9.075   4.365   2.611  0.6507 -0.4534  0.8448
  376MOL0     C51804   9.009   4.249   2.641  0.0280  0.6657 -1.0595
  376MOL0     C51805   8.888   3.811   2.643  1.1914  0.2862  0.1217
  376MOL0     C51806   8.965   3.687   2.664  1.0808  0.0685  0.1301
  376MOL0     C51807   8.901   3.565   2.696 -0.8914  0.1981  0.1068
  376MOL0     C51808   8.771   3.551   2.694 -0.0116 -0.2613  0.9618
  376MOL0     O51809   8.717   3.427   2.721 -0.1988 -0.5239 -0.2544
  376MOL0     C51810   8.569   3.418   2.742 -0.1665  0.2255 -0.3201
  376MOL0     C51811   8.542   3.431   2.885  0.2255  0.0715 -0.2945
  376MOL0     C51812   8.642   3.351   2.977  0.1961  0.0219  0.0190
  376MOL0     C51813   8.574   3.329   3.119  0.3777 -0.2093  0.8654
  376MOL0     C51814   8.662   3.271   3.219 -0.8449 -0.5237 -0.1610
  376MOL0     C51815   8.744   3.212   3.289 -0.2458 -0.7487 -0.1955
  376MOL0     C51816   8.699   3.674   2.685 -0.2517  0.6354  0.6255
  376MOL0     C51817   8.748   3.806   2.665 -0.6848 -0.0703 -0.0662
  376MOL0     C51818   8.655   3.917   2.643 -0.0818 -0.2408  0.1516
  376MOL0     H51819   8.989   4.110   2.332 -2.7612  2.8333 -1.8436
  376MOL0     H51820   9.067   4.327   2.268 -0.3817  3.8183  1.9521
  376MOL0     H51821   9.227   4.488   2.269 -3.3106 -2.0430  0.0423
  376MOL0     H51822   9.231   4.658   2.316 -0.2725 -0.2674  0.6664
  376MOL0     H51823   8.974   4.506   2.236  2.2792 -1.1907  0.4335
  376MOL0     H51824   8.985   4.674   2.276 -0.3446  0.0384  0.8291
  376MOL0     H51825   9.138   4.718   2.083  1.2710  0.2990  0.4549
  376MOL0     H51826   9.133   4.556   2.031 -0.3948  1.6804 -2.4742
  376MOL0     H51827   8.871   4.564   2.014 -1.1779  1.5722 -1.6515
  376MOL0     H51828   8.869   4.724   2.088  0.6617 -0.2082  1.9382
  376MOL0     H51829   9.018   4.798   1.903 -2.5209  3.2539 -1.1337
  376MOL0     H51830   8.858   4.755   1.838  1.4335 -0.9427 -2.5032
  376MOL0     H51831   9.086   4.557   1.803  0.3973  0.1483  3.0552
  376MOL0     H51832   8.919   4.558   1.749 -2.3212  3.3566  1.6720
  376MOL0     H51833   9.126   4.757   1.664  0.6301 -0.1350  2.6409
  376MOL0     H51834   8.972   4.772   1.609  2.3407  0.9120 -2.5709
  376MOL0     H51835   8.992   4.530   1.517  0.8787 -0.1320 -0.0627
  376MOL0     H51836   9.074   4.663   1.430  0.0900  0.2295 -0.4602
  376MOL0     H51837   9.163   4.346   1.394 -1.6479  2.9100 -1.8849
  376MOL0     H51838   9.492   4.206   1.541  0.6737  0.6699 -0.4935
  376MOL0     H51839   9.463   4.255   1.375 -0.1967  1.7242 -0.1296
  376MOL0     H51840   9.221   4.118   1.505  0.7401 -0.4269  0.7392
  376MOL0     H51841   9.276   4.119   1.349 -1.7701 -0.1960  0.5431
  376MOL0     H51842   9.474   3.973   1.403 -2.8124  1.1289 -3.5544
  376MOL0     H51843   9.432   3.979   1.579  0.9775  1.2018 -0.0942
  376MOL0     H51844   9.226   3.866   1.376  1.5138 -0.2496 -1.4120
  376MOL0     H51845   9.345   3.764   1.440 -0.0794  0.5525 -1.7770
  376MOL0     H51846   9.450   3.746   1.637 -0.1129 -0.5465  0.9834
  376MOL0     H51847   9.586   3.736   1.944  3.1041 -1.4318  1.5211
  376MOL0     H51848   9.611   3.697   1.775  1.4832 -1.8120  0.2617
  376MOL0     H51849   9.583   3.563   1.892 -0.0966 -0.3673  0.8550
  376MOL0     H51850   9.262   3.682   2.380  3.6781 -0.9919  0.6026
  376MOL0     H51851   9.300   3.562   2.587  2.9515 -1.6394 -1.3149
  376MOL0     H51852   9.091   3.208   2.666 -0.5696  1.4371 -4.6612
  376MOL0     H51853   9.216   3.110   2.579 -1.3084 -2.6031  2.6061
  376MOL0     H51854   9.195   3.034   2.804 -0.9186  0.6467 -0.1433
  376MOL0     H51855   9.356   3.105   2.783  0.2759 -1.5034  2.7149
  376MOL0     H51856   9.277   3.317   2.890 -0.9394  0.4971  2.0863
  376MOL0     H51857   9.256   3.186   3.009  3.6980  1.6683 -0.4996
  376MOL0     H51858   9.013   3.176   2.907 -1.4440  1.6505 -0.0792
  376MOL0     H51859   9.043   3.349   2.873 -1.9282  0.0397  1.5903
  376MOL0     H51860   8.950   3.299   3.102  0.0611  1.4339 -0.9355
  376MOL0     H51861   9.113   3.240   3.145  0.6434  2.2919  3.1607
  376MOL0     H51862   9.060   3.512   3.028  2.5161  0.3200 -0.1099
  376MOL0     H51863   9.215   3.444   3.057  1.9031  0.3748  4.2657
  376MOL0     H51864   9.181   3.426   3.300  0.7879  0.0516 -0.1557
  376MOL0     H51865   9.013   3.479   3.284 -1.0442 -2.8631 -2.4109
  376MOL0     H51866   9.092   3.700   3.179 -0.5451  0.6106 -0.0350
  376MOL0     H51867   9.253   3.641   3.218 -0.4617  1.2473  0.7199
  376MOL0     H51868   9.202   3.199   2.386 -0.3118  0.1789 -3.8512
  376MOL0     H51869   9.224   3.312   2.174  0.8552 -2.3378  3.1008
  376MOL0     H51870   9.115   3.737   1.994 -0.6201  0.5270 -0.1092
  376MOL0     H51871   9.060   3.821   1.774  0.9920  2.0751  1.6558
  376MOL0     H51872   9.097   4.438   2.688  0.4721  2.0553 -1.3701
  376MOL0     H51873   8.983   4.237   2.746 -1.1014 -2.0115 -1.5433
  376MOL0     H51874   9.072   3.702   2.658  0.7608  2.9287  0.0717
  376MOL0     H51875   8.961   3.477   2.713 -1.1934 -0.1278 -0.4996
  376MOL0     H51876   8.506   3.491   2.689  0.6210 -0.0729 -1.6960
  376MOL0     H51877   8.546   3.322   2.696  3.1159 -0.4228 -0.7827
  376MOL0     H51878   8.445   3.387   2.911 -0.4218  0.5362 -1.8023
  376MOL0     H51879   8.543   3.537   2.910 -4.1330  0.0809  0.7506
  376MOL0     H51880   8.673   3.260   2.925  1.2000  2.2579 -3.6785
  376MOL0     H51881   8.738   3.402   2.991  2.2819 -2.2862 -3.9965
  376MOL0     H51882   8.487   3.265   3.102 -0.5743  1.0250  0.9594
  376MOL0     H51883   8.526   3.422   3.151 -0.2156  0.1276 -0.8704
  376MOL0     H51884   8.814   3.161   3.353  1.0675 -0.2378 -1.1775
  376MOL0     H51885   8.592   3.660   2.679  0.1946 -3.1676 -2.4873
  376MOL0     H51886   8.658   3.984   2.730  1.4262  1.1031 -0.8787
  376MOL0     H51887   8.678   3.959   2.545  0.2455 -0.8211 -0.0222
  376MOL0     H51888   8.551   3.884   2.636 -0.2588  0.3717 -0.1923
  377MOL0     O51889   5.654   4.059   0.411 -0.0134 -0.1346 -0.2044
  377MOL0     C51890   5.552   3.984   0.404 -0.1282 -0.0962  0.3053
  377MOL0     O51891   5.515   3.894   0.497  0.2669  0.1174  0.4666
  377MOL0     C51892   5.602   3.869   0.607  0.0057  0.1950  0.7608
  377MOL0     C51893   5.550   3.824   0.731  0.2154  0.1895 -0.6554
  377MOL0     C51894   5.641   3.778   0.828  0.5149  0.2685  0.3229
  377MOL0     C51895   5.781   3.774   0.810  0.4522  0.0644 -0.4567
  377MOL0     O51896   5.853   3.699   0.896 -0.1279  0.3117  0.4799
  377MOL0     C51897   5.873   3.752   1.028  0.2442  0.0491  0.1141
  377MOL0     C51898   5.931   3.894   1.012 -1.0927 -0.9474  0.5735
  377MOL0     C51899   6.063   3.894   0.927 -0.5290  0.5825 -0.5111
  377MOL0     C51900   6.162   4.014   0.928  0.3109  0.4235  0.9112
  377MOL0     C51901   6.269   3.981   0.823 -0.3657 -0.1329 -0.6262
  377MOL0     C51902   6.381   4.083   0.839  0.6522 -0.5690 -1.3776
  377MOL0     C51903   6.503   4.074   0.747 -0.6039  0.6235  0.1061
  377MOL0     C51904   6.471   4.066   0.590  0.5721  0.3930 -0.3353
  377MOL0     N51905   6.593   4.084   0.514 -0.0819  0.3259  0.6130
  377MOL0     C51906   6.668   4.196   0.513  0.6543 -0.8368  0.1798
  377MOL0     C51907   6.782   4.173   0.448 -0.5697  0.2531  0.7476
  377MOL0     C51908   6.900   4.276   0.416  0.5175  0.2431  0.5455
  377MOL0     C51909   6.953   4.249   0.273  1.3528  0.1326 -0.5632
  377MOL0     C51910   6.859   4.304   0.162 -0.2880  0.3195 -0.0983
  377MOL0     C51911   6.905   4.258   0.016  0.0912  0.0909 -0.0168
  377MOL0     O51912   6.793   4.289  -0.075  0.2855  0.0834 -0.0703
  377MOL0     C51913   6.799   4.249  -0.205  0.8276  0.2195 -0.4274
  377MOL0     C51914   6.696   4.275  -0.296  0.3910 -0.8161  0.6558
  377MOL0     C51915   6.701   4.241  -0.429  0.0227 -0.4706 -0.7609
  377MOL0     C51916   6.588   4.301  -0.522  0.2529  0.3108  0.2371
  377MOL0     C51917   6.817   4.167  -0.473  0.1988 -0.0487 -0.5737
  377MOL0     C51918   6.827   4.119  -0.608 -0.7095 -0.3569  0.0862
  377MOL0     O51919   6.924   4.019  -0.626  0.2884  0.1308 -0.1765
  377MOL0     C51920   6.968   3.992  -0.751 -1.1825  0.9754  0.7770
  377MOL0     C51921   7.061   4.076  -0.809  0.4589  0.5451 -0.0699
  377MOL0     C51922   7.114   4.050  -0.941 -0.1697 -0.0847  0.8599
  377MOL0     C51923   7.076   3.933  -1.008  0.9302 -0.8605  0.1739
  377MOL0     O51924   7.141   3.892  -1.125  0.2410  0.0575  0.3058
  377MOL0     C51925   7.155   3.993  -1.232 -0.6658 -0.2888  0.2563
  377MOL0     C51926   7.022   4.028  -1.304 -0.6007 -0.7130  0.2455
  377MOL0     C51927   7.045   4.148  -1.404 -0.1485  0.5785 -0.1971
  377MOL0     C51928   6.939   4.161  -1.517  0.2942 -0.1628  0.6616
  377MOL0     C51929   6.940   4.312  -1.575 -0.5199  0.0198 -0.6352
  377MOL0     C51930   7.052   4.352  -1.664 -0.6089  0.1416  0.0423
  377MOL0     C51931   7.036   4.502  -1.705  0.6656  0.6683 -0.5354
  377MOL0     C51932   7.141   4.540  -1.804  0.3532  0.9312 -0.8994
  377MOL0    Cl51933   7.091   4.479  -1.966  0.0965  0.4211  0.3039
  377MOL0     C51934   6.985   3.848  -0.947 -0.9777 -0.8457  0.4898
  377MOL0     C51935   6.923   3.883  -0.828  0.7064  0.2993  0.0518
  377MOL0     O51936   6.766   4.180  -0.696 -1.0669  0.3535 -0.0315
  377MOL0     C51937   6.917   4.134  -0.384  0.0765  0.7051 -1.4510
  377MOL0     C51938   6.912   4.182  -0.256  0.6322  1.2095 -0.4659
  377MOL0     N51939   6.772   4.039   0.414 -0.1347 -0.5696  0.5750
  377MOL0     N51940   6.663   3.995   0.445 -0.6654 -1.2523  0.3738
  377MOL0     C51941   5.827   3.803   0.681  0.1452  0.0494 -0.3732
  377MOL0     C51942   5.736   3.840   0.575 -0.6868  0.7850 -0.3147
  377MOL0     C51943   5.470   3.986   0.281 -1.1477 -0.8783  0.1190
  377MOL0     C51944   5.398   3.869   0.255  0.4312 -0.7841  0.4318
  377MOL0     C51945   5.321   3.865   0.140 -0.9321 -0.5329 -1.7095
  377MOL0     C51946   5.317   3.961   0.039 -0.7263 -0.1633 -0.7905
  377MOL0     O51947   5.239   3.920  -0.064 -0.4042 -0.0832  0.2488
  377MOL0     C51948   5.251   3.985  -0.185  0.3326  0.4598  0.1200
  377MOL0     C51949   5.381   3.958  -0.270 -0.9517 -1.1610 -0.5779
  377MOL0     C51950   5.391   3.816  -0.328  0.3965  0.8680 -0.5075
  377MOL0     C51951   5.511   3.807  -0.418  0.7353 -0.1962  1.7208
  377MOL0     C51952   5.507   3.669  -0.454 -0.3795  0.4990  0.5972
  377MOL0     C51953   5.501   3.550  -0.491 -0.2974  0.3521  0.5400
  377MOL0     C51954   5.378   4.079   0.075 -0.4686 -0.4744 -0.2126
  377MOL0     C51955   5.457   4.094   0.191  0.2770 -0.0308 -0.9608
  377MOL0     C51956   5.511   4.231   0.216 -0.5486 -0.3935 -0.0009
  377MOL0     H51957   5.443   3.819   0.752  0.8669  0.4236  3.5990
  377MOL0     H51958   5.595   3.753   0.923  0.7808 -0.0461  0.3702
  377MOL0     H51959   5.945   3.691   1.083  2.7853 -0.5348 -3.4538
  377MOL0     H51960   5.775   3.755   1.076 -0.4107  0.1087 -1.1632
  377MOL0     H51961   5.859   3.962   0.965 -0.0836  0.7431  1.4023
  377MOL0     H51962   5.953   3.936   1.110  0.7904 -0.2493 -0.0904
  377MOL0     H51963   6.122   3.813   0.972  0.0933  0.2613 -1.8282
  377MOL0     H51964   6.035   3.868   0.824 -0.5663 -0.0413 -0.3468
  377MOL0     H51965   6.115   4.112   0.914 -0.6335 -0.3191 -1.5779
  377MOL0     H51966   6.206   4.018   1.028 -0.6824  2.7612  1.3181
  377MOL0     H51967   6.249   3.970   0.716 -2.0917  2.4000 -0.6525
  377MOL0     H51968   6.323   3.892   0.857  1.1236  0.4797 -1.3058
  377MOL0     H51969   6.330   4.180   0.838  1.8785  0.1017 -0.7727
  377MOL0     H51970   6.416   4.070   0.942 -1.6160 -0.7906 -0.5580
  377MOL0     H51971   6.566   3.989   0.773  0.1449  0.5924 -1.6408
  377MOL0     H51972   6.567   4.162   0.757 -1.0991  0.8185  1.8006
  377MOL0     H51973   6.425   3.969   0.570  1.8320 -0.4121  0.5431
  377MOL0     H51974   6.399   4.143   0.561 -0.7859 -0.5825  0.3058
  377MOL0     H51975   6.658   4.293   0.559 -0.5178  0.4728 -2.5851
  377MOL0     H51976   6.987   4.261   0.480  1.4755  3.6458  0.2189
  377MOL0     H51977   6.859   4.375   0.436  0.8719  0.2828  1.0774
  377MOL0     H51978   7.057   4.284   0.268  0.7736  2.2304  0.7015
  377MOL0     H51979   6.962   4.140   0.265 -0.4882 -0.2822  1.7938
  377MOL0     H51980   6.753   4.280   0.173 -1.6747  4.4212 -2.0241
  377MOL0     H51981   6.859   4.414   0.156 -0.7947  0.3035 -0.5446
  377MOL0     H51982   6.990   4.322  -0.006  0.8248 -0.5103  0.9691
  377MOL0     H51983   6.936   4.153   0.015  1.8628  0.5975 -1.3014
  377MOL0     H51984   6.607   4.326  -0.260  0.1778 -1.0099  0.4104
  377MOL0     H51985   6.618   4.365  -0.606 -0.1711  0.5088  0.2327
  377MOL0     H51986   6.522   4.369  -0.466 -1.2772 -1.6202  0.8920
  377MOL0     H51987   6.519   4.219  -0.546 -0.2028  0.0587  2.2412
  377MOL0     H51988   7.091   4.167  -0.758  2.6847 -0.3400  0.2967
  377MOL0     H51989   7.181   4.116  -0.996 -1.8225  2.7467  2.0345
  377MOL0     H51990   7.203   4.081  -1.188  3.4108 -2.5320  0.7834
  377MOL0     H51991   7.233   3.953  -1.298  0.4363  0.8089  0.8581
  377MOL0     H51992   7.007   3.935  -1.360  2.0767 -1.9818  1.4763
  377MOL0     H51993   6.946   4.052  -1.228  0.9243 -1.5815  2.1109
  377MOL0     H51994   7.129   4.116  -1.467 -2.8975 -3.8457 -2.0745
  377MOL0     H51995   7.059   4.244  -1.354 -0.4159  1.7368 -2.2456
  377MOL0     H51996   6.840   4.144  -1.474 -0.9422  3.2410 -0.4858
  377MOL0     H51997   6.947   4.085  -1.595  0.6422  0.6719 -0.1400
  377MOL0     H51998   6.849   4.322  -1.636 -0.9611 -0.8072 -0.1320
  377MOL0     H51999   6.939   4.383  -1.492  2.2599 -1.2897  0.6427
  377MOL0     H52000   7.047   4.292  -1.755  0.2530  1.0121 -0.5963
  377MOL0     H52001   7.150   4.338  -1.619 -0.0671 -0.3149 -1.2206
  377MOL0     H52002   7.037   4.561  -1.613 -2.1485 -0.8539  0.5806
  377MOL0     H52003   6.941   4.517  -1.758  0.9844  1.4611 -0.9077
  377MOL0     H52004   7.237   4.490  -1.786 -0.3394  0.1740  0.8963
  377MOL0     H52005   7.152   4.649  -1.801 -4.0050  1.5718  2.9394
  377MOL0     H52006   6.956   3.769  -1.016 -4.2513  1.8774 -1.5468
  377MOL0     H52007   6.850   3.819  -0.779  1.3766 -0.4374  0.1076
  377MOL0     H52008   7.006   4.077  -0.412 -1.0769 -2.2457  0.4529
  377MOL0     H52009   7.002   4.173  -0.197 -1.3674  0.9997  2.7755
  377MOL0     H52010   5.930   3.774   0.663  0.7984  2.9087 -1.9376
  377MOL0     H52011   5.770   3.848   0.473  0.6241 -0.2883  0.0064
  377MOL0     H52012   5.406   3.779   0.315  0.4342 -0.2500  1.2430
  377MOL0     H52013   5.268   3.774   0.110 -0.7363 -0.4115 -2.4432
  377MOL0     H52014   5.165   3.955  -0.245 -0.2477  1.5372  0.3803
  377MOL0     H52015   5.237   4.093  -0.170  3.9805  1.1133 -0.1341
  377MOL0     H52016   5.474   3.963  -0.214 -2.4870 -1.5096  2.1735
  377MOL0     H52017   5.377   4.017  -0.362 -1.4783 -1.7197 -0.9269
  377MOL0     H52018   5.393   3.744  -0.245 -3.1620  0.5339 -0.5447
  377MOL0     H52019   5.296   3.801  -0.380 -0.9186  2.8711  1.1730
  377MOL0     H52020   5.605   3.831  -0.369  1.3405 -2.0292  1.5566
  377MOL0     H52021   5.507   3.878  -0.501  2.3062  2.3209  3.6773
  377MOL0     H52022   5.507   3.446  -0.515  1.4478  0.4023  0.6701
  377MOL0     H52023   5.367   4.164   0.008 -1.1754 -1.8219 -1.8861
  377MOL0     H52024   5.448   4.292   0.151 -0.1544  0.5144  0.4629
  377MOL0     H52025   5.510   4.265   0.320  0.9754  3.1605 -0.9968
  377MOL0     H52026   5.614   4.241   0.183 -0.9333  0.1268 -1.1042
  378MOL0     O52027   9.215   8.249  11.487 -0.3426 -0.5708  0.4905
  378MOL0     C52028   9.330   8.273  11.506  0.8030 -0.6179 -0.0454
  378MOL0     O52029   9.435   8.216  11.440 -0.5767 -0.4343 -0.3536
  378MOL0     C52030   9.395   8.115  11.359 -0.0164  0.4582  1.2206
  378MOL0     C52031   9.412   7.982  11.407  0.1007  0.1250 -0.3993
  378MOL0     C52032   9.359   7.869  11.344  0.3940  0.0484  0.6957
  378MOL0     C52033   9.290   7.888  11.226  0.3240 -0.1668 -0.3226
  378MOL0     O52034   9.226   7.778  11.177 -0.5784  0.0079  0.4576
  378MOL0     C52035   9.277   7.729  11.056  0.1941 -0.5953 -0.8767
  378MOL0     C52036   9.301   7.577  11.069 -0.3638 -0.4211 -0.9662
  378MOL0     C52037   9.341   7.505  10.944 -0.0117 -0.4390  1.3570
  378MOL0     C52038   9.320   7.355  10.969 -0.2910 -0.1791 -0.3000
  378MOL0     C52039   9.351   7.289  10.834 -0.7367 -1.0352 -0.3805
  378MOL0     C52040   9.300   7.147  10.819  0.1181  0.3750 -0.6636
  378MOL0     C52041   9.357   7.076  10.698 -0.1467 -1.2158 -0.7543
  378MOL0     C52042   9.509   7.099  10.672 -0.9128  0.8466  1.1580
  378MOL0     N52043   9.559   7.020  10.555  0.2195  0.2088 -0.7786
  378MOL0     C52044   9.509   7.013  10.425  0.0453  0.3036 -0.3614
  378MOL0     C52045   9.563   6.904  10.366 -0.1542 -0.1067  0.4131
  378MOL0     C52046   9.525   6.841  10.240  0.0710 -0.3677  0.0138
  378MOL0     C52047   9.483   6.940  10.124  0.7544  0.3762  1.0441
  378MOL0     C52048   9.334   6.944  10.133 -0.0582 -0.2995  0.1994
  378MOL0     C52049   9.280   7.047  10.035  0.0344  0.2406 -0.6722
  378MOL0     O52050   9.136   7.040  10.035  0.2879  0.8814 -0.6308
  378MOL0     C52051   9.065   7.085   9.930  0.2359 -1.0087  0.3448
  378MOL0     C52052   9.119   7.177   9.837 -0.5142  0.5558  0.0845
  378MOL0     C52053   9.033   7.252   9.766 -0.2507 -0.3319  0.5590
  378MOL0     C52054   9.091   7.322   9.644  0.1603  0.9300  0.3010
  378MOL0     C52055   8.892   7.226   9.770 -0.0010  0.4754 -0.5907
  378MOL0     C52056   8.796   7.297   9.686  0.3979  0.5258 -0.7289
  378MOL0     O52057   8.694   7.219   9.633  0.1916 -0.5706  0.1439
  378MOL0     C52058   8.621   7.294   9.541 -0.4966 -0.7896 -0.2672
  378MOL0     C52059   8.533   7.403   9.562  0.7273 -1.0603  0.5685
  378MOL0     C52060   8.454   7.460   9.458 -0.7006  0.1086 -0.4054
  378MOL0     C52061   8.477   7.434   9.325  0.3943  0.1389 -0.4167
  378MOL0     O52062   8.414   7.515   9.234  0.1339  0.4917  0.0369
  378MOL0     C52063   8.425   7.506   9.092  0.5375  0.2908  0.6176
  378MOL0     C52064   8.536   7.577   9.021  0.4475  0.0336  1.4020
  378MOL0     C52065   8.529   7.728   9.040  0.3215 -0.0873  0.7702
  378MOL0     C52066   8.620   7.801   8.944  0.5843  1.1044  1.0424
  378MOL0     C52067   8.605   7.950   8.957 -0.9557 -0.0423 -0.0938
  378MOL0     C52068   8.703   8.020   8.852 -0.0047  0.5447 -0.2058
  378MOL0     C52069   8.707   8.171   8.874  0.6143  0.4272  0.2280
  378MOL0     C52070   8.805   8.226   8.967 -0.0153  0.3452 -0.1769
  378MOL0    Cl52071   8.765   8.181   9.133  0.0946  0.1095  0.3151
  378MOL0     C52072   8.563   7.326   9.302  0.4356 -0.2641  0.4920
  378MOL0     C52073   8.633   7.254   9.406  0.6835 -0.4920  0.2319
  378MOL0     O52074   8.813   7.415   9.666 -0.1295  1.3846  0.3060
  378MOL0     C52075   8.843   7.131   9.867 -1.0029  0.4454  0.3178
  378MOL0     C52076   8.933   7.061   9.944 -0.1143 -0.6455 -0.3172
  378MOL0     N52077   9.648   6.848  10.461  0.1738  0.1424  0.3695
  378MOL0     N52078   9.642   6.911  10.573  0.1746  0.3047  0.0753
  378MOL0     C52079   9.282   8.015  11.166  0.8129 -0.1591 -1.6700
  378MOL0     C52080   9.331   8.125  11.230 -0.0143  0.2137 -0.2799
  378MOL0     C52081   9.356   8.362  11.616  0.5824  0.6673  0.4228
  378MOL0     C52082   9.236   8.412  11.681  0.8614 -0.5686  0.7900
  378MOL0     C52083   9.246   8.496  11.792 -0.1012 -0.1172 -0.6514
  378MOL0     C52084   9.373   8.542  11.846  0.3821  0.4085  0.7392
  378MOL0     O52085   9.402   8.607  11.959  0.1347 -0.0502 -0.5083
  378MOL0     C52086   9.298   8.641  12.051 -0.4059 -0.7444  0.3184
  378MOL0     C52087   9.216   8.543  12.102 -0.1556  0.6181 -0.1240
  378MOL0     C52088   9.235   8.516  12.246  0.6390  0.1190 -0.0862
  378MOL0     C52089   9.143   8.396  12.295 -0.5525  0.1534  0.3680
  378MOL0     C52090   9.129   8.395  12.441  0.2665  0.6432  0.4050
  378MOL0     C52091   9.102   8.409  12.562  0.1671 -0.6128 -0.5284
  378MOL0     C52092   9.486   8.500  11.776  0.0809  0.2258  0.3477
  378MOL0     C52093   9.480   8.413  11.666  0.4425  0.7372  0.1860
  378MOL0     C52094   9.611   8.386  11.594  1.0872  0.1447 -0.4763
  378MOL0     H52095   9.460   7.968  11.503 -0.6143 -0.3874 -0.1112
  378MOL0     H52096   9.370   7.772  11.392  4.8438 -0.9382 -1.7828
  378MOL0     H52097   9.367   7.783  11.026 -0.1345  0.6466  0.2746
  378MOL0     H52098   9.204   7.735  10.975  1.1831  2.5081 -1.6875
  378MOL0     H52099   9.366   7.550  11.153 -0.8774  2.6239  0.5301
  378MOL0     H52100   9.205   7.529  11.088 -0.3944 -0.6557 -1.6855
  378MOL0     H52101   9.279   7.534  10.859  0.2713 -4.9063 -0.6996
  378MOL0     H52102   9.444   7.517  10.910 -0.8692 -0.8671 -1.7598
  378MOL0     H52103   9.378   7.304  11.046 -3.2395 -4.3627 -0.4867
  378MOL0     H52104   9.214   7.339  10.992 -0.6074  1.1511 -0.7038
  378MOL0     H52105   9.460   7.287  10.838 -0.7081  1.1123  2.2033
  378MOL0     H52106   9.318   7.350  10.749 -0.9117  0.7726  0.9301
  378MOL0     H52107   9.318   7.087  10.909  0.0880 -1.2413 -1.6873
  378MOL0     H52108   9.190   7.152  10.814  0.1990  1.7783 -1.2975
  378MOL0     H52109   9.296   7.105  10.612  0.3965  2.0325 -0.1758
  378MOL0     H52110   9.341   6.968  10.707 -2.2995 -0.8466  0.5700
  378MOL0     H52111   9.519   7.205  10.651  1.0826  0.4758 -0.0315
  378MOL0     H52112   9.564   7.067  10.761 -2.0043 -1.9336  0.9475
  378MOL0     H52113   9.430   7.077  10.389 -1.4362 -1.2329  0.0281
  378MOL0     H52114   9.446   6.771  10.268  0.0341  0.2534  1.5952
  378MOL0     H52115   9.614   6.791  10.201  1.0218  0.8459  0.5445
  378MOL0     H52116   9.538   7.034  10.131  0.4387  0.4507  3.7145
  378MOL0     H52117   9.506   6.889  10.030  1.7661 -0.1573  1.5645
  378MOL0     H52118   9.293   6.847  10.103  3.3729 -1.4669 -1.3318
  378MOL0     H52119   9.307   6.978  10.233  3.3835  3.2530  0.1898
  378MOL0     H52120   9.305   7.151  10.059 -0.8665  1.0566 -2.9024
  378MOL0     H52121   9.314   7.023   9.934  1.6356  0.8234 -0.2966
  378MOL0     H52122   9.225   7.197   9.827 -0.5615  0.9032  0.2450
  378MOL0     H52123   9.067   7.429   9.650 -0.8206  0.6898  0.8327
  378MOL0     H52124   9.049   7.287   9.549  1.3558  2.7224 -0.9547
  378MOL0     H52125   9.199   7.311   9.648 -0.0703 -1.7487  3.4326
  378MOL0     H52126   8.534   7.451   9.660 -1.9644 -0.9531  0.6284
  378MOL0     H52127   8.397   7.548   9.484  0.7746  0.6561  1.1497
  378MOL0     H52128   8.419   7.398   9.078 -3.7264 -0.0324  2.9524
  378MOL0     H52129   8.332   7.552   9.055  1.0687  2.1843  1.5161
  378MOL0     H52130   8.630   7.549   9.070 -0.0075 -1.3195  1.5334
  378MOL0     H52131   8.536   7.547   8.916  1.8742  1.9107  0.8141
  378MOL0     H52132   8.545   7.766   9.142  2.2387 -0.0821  0.5108
  378MOL0     H52133   8.426   7.757   9.020  0.9675  1.2776 -0.6968
  378MOL0     H52134   8.603   7.765   8.842 -1.9341  3.7675  0.3691
  378MOL0     H52135   8.726   7.788   8.969  1.1989  2.2074 -0.8041
  378MOL0     H52136   8.503   7.976   8.929 -0.7527  1.5124  0.5431
  378MOL0     H52137   8.609   7.977   9.063 -2.7583 -1.9238  0.5206
  378MOL0     H52138   8.672   8.002   8.748  0.7029 -1.3990 -0.1212
  378MOL0     H52139   8.806   7.988   8.871  1.4094  4.1201 -0.9888
  378MOL0     H52140   8.614   8.230   8.880 -2.6038 -3.6984 -2.7776
  378MOL0     H52141   8.741   8.204   8.775  0.6814  0.1012  0.1417
  378MOL0     H52142   8.809   8.335   8.961 -0.6251  0.3176 -1.3211
  378MOL0     H52143   8.903   8.184   8.941  0.5974  0.9010  1.1435
  378MOL0     H52144   8.586   7.292   9.202  0.7632 -0.1914  0.5400
  378MOL0     H52145   8.693   7.169   9.376 -0.9476 -1.6154  0.0629
  378MOL0     H52146   8.736   7.111   9.862 -0.6542 -1.2659 -1.6536
  378MOL0     H52147   8.898   6.993  10.021  2.0083  0.0077  1.3497
  378MOL0     H52148   9.230   8.041  11.074 -0.0289 -0.8817 -1.4143
  378MOL0     H52149   9.323   8.227  11.194  1.4713  0.0727 -1.0526
  378MOL0     H52150   9.137   8.387  11.646 -1.6115  2.0437  5.0462
  378MOL0     H52151   9.158   8.531  11.843 -0.5383  1.2365 -2.2545
  378MOL0     H52152   9.339   8.701  12.133  0.9943  3.0414 -2.8321
  378MOL0     H52153   9.233   8.707  11.993  3.7756  0.8114 -3.1046
  378MOL0     H52154   9.211   8.448  12.048 -1.2511  1.4910 -1.6223
  378MOL0     H52155   9.117   8.587  12.090 -0.5928  0.2669  1.7867
  378MOL0     H52156   9.342   8.498  12.265 -0.1396 -0.9004  4.8674
  378MOL0     H52157   9.200   8.600  12.306 -1.7605 -1.3833  0.7400
  378MOL0     H52158   9.184   8.301  12.258 -3.5777 -1.4536  0.8566
  378MOL0     H52159   9.048   8.408  12.243  1.1212  0.3505 -2.8884
  378MOL0     H52160   9.090   8.426  12.667 -1.6093  1.0841 -0.9426
  378MOL0     H52161   9.582   8.536  11.812  0.8950 -1.7286  0.2101
  378MOL0     H52162   9.695   8.432  11.645 -3.6653  6.6356  2.9466
  378MOL0     H52163   9.616   8.276  11.594  0.2134  0.0699  1.3501
  378MOL0     H52164   9.612   8.432  11.495 -1.3271  1.0803 -0.1469
  379MOL0     O52165   2.838  10.903   0.543  0.6224 -0.4265  0.4813
  379MOL0     C52166   2.831  11.023   0.528  0.3496 -0.4290 -0.0454
  379MOL0     O52167   2.829  11.119   0.633 -1.0214  0.1333  0.2086
  379MOL0     C52168   2.789  11.060   0.752 -0.4267 -0.5091 -0.1122
  379MOL0     C52169   2.883  11.009   0.845 -0.2465  0.5933  0.6530
  379MOL0     C52170   2.844  10.958   0.967  0.7180 -0.1363 -0.4805
  379MOL0     C52171   2.708  10.937   0.994  0.1965 -0.5631 -0.3546
  379MOL0     O52172   2.679  10.895   1.122  0.5154  0.0078  0.0517
  379MOL0     C52173   2.672  10.755   1.139  0.4565  0.3266  0.8730
  379MOL0     C52174   2.786  10.696   1.228  0.5617  0.0967 -0.4952
  379MOL0     C52175   2.762  10.713   1.381  0.6047  0.5699  0.1447
  379MOL0     C52176   2.774  10.854   1.435 -0.5266  0.0142 -0.1131
  379MOL0     C52177   2.791  10.853   1.587 -0.8335  0.7959 -0.0875
  379MOL0     C52178   2.927  10.812   1.635 -0.7326  0.2437  0.9331
  379MOL0     C52179   2.926  10.813   1.788 -0.8462 -0.5522 -0.6621
  379MOL0     C52180   3.068  10.784   1.839 -1.1457 -0.0507  0.2797
  379MOL0     N52181   3.160  10.889   1.808 -0.3864 -0.4705  0.1909
  379MOL0     C52182   3.180  11.006   1.874 -0.6422 -0.0726 -0.5020
  379MOL0     C52183   3.285  11.069   1.804 -0.2171  0.9656 -0.8368
  379MOL0     C52184   3.322  11.212   1.833  1.0139 -1.1068  0.1091
  379MOL0     C52185   3.229  11.316   1.768 -0.1604 -0.5697 -0.4458
  379MOL0     C52186   3.298  11.432   1.704 -0.1831  0.2046  0.1998
  379MOL0     C52187   3.186  11.525   1.655  0.4215 -0.4445 -0.0677
  379MOL0     O52188   3.246  11.645   1.620 -0.7150  0.0128  0.2157
  379MOL0     C52189   3.293  11.661   1.493 -0.2711  0.1864  1.3646
  379MOL0     C52190   3.332  11.794   1.449  0.3939  0.4950 -0.0296
  379MOL0     C52191   3.387  11.819   1.328 -0.9135 -0.4515 -0.2911
  379MOL0     C52192   3.454  11.957   1.312 -0.0467  0.3737 -0.4349
  379MOL0     C52193   3.397  11.721   1.233 -0.1088 -0.6623  0.1637
  379MOL0     C52194   3.451  11.736   1.093 -1.2632 -1.0038 -0.0282
  379MOL0     O52195   3.463  11.629   1.027  0.1180  0.3326  0.3855
  379MOL0     C52196   3.512  11.637   0.901  0.5201  0.8517  0.2623
  379MOL0     C52197   3.646  11.593   0.877  0.4038 -0.1076  0.2182
  379MOL0     C52198   3.694  11.573   0.746 -0.3618 -0.2829  0.8424
  379MOL0     C52199   3.605  11.597   0.637 -0.7182 -0.1581 -0.6502
  379MOL0     O52200   3.666  11.545   0.521  1.0696 -0.0687  0.3944
  379MOL0     C52201   3.578  11.468   0.433  0.4095 -0.3653  0.3960
  379MOL0     C52202   3.641  11.457   0.302 -0.8792 -0.5617 -0.2937
  379MOL0     C52203   3.769  11.374   0.295 -0.0525  0.0435  0.5243
  379MOL0     C52204   3.757  11.223   0.242  0.3019 -0.3650  0.3552
  379MOL0     C52205   3.902  11.172   0.241 -0.2149  0.5595 -0.6569
  379MOL0     C52206   3.920  11.031   0.188  0.3279 -0.0083  0.4716
  379MOL0     C52207   3.887  10.926   0.292 -0.0007 -0.7611 -0.1412
  379MOL0     C52208   3.918  10.780   0.247 -0.0489 -0.6829  0.1021
  379MOL0    Cl52209   4.096  10.761   0.228  0.2334  0.2466 -0.1405
  379MOL0     C52210   3.469  11.635   0.660 -0.7121  0.0234 -0.2232
  379MOL0     C52211   3.427  11.654   0.793 -0.2496 -0.0515  0.0505
  379MOL0     O52212   3.479  11.855   1.051  0.2500 -1.0844 -0.2234
  379MOL0     C52213   3.347  11.591   1.265 -0.0956 -0.7169 -0.3303
  379MOL0     C52214   3.296  11.564   1.397 -0.3403 -0.7524  0.4288
  379MOL0     N52215   3.338  10.976   1.710  0.2298 -1.6569  0.5919
  379MOL0     N52216   3.258  10.876   1.714 -0.3587  0.2011  0.4653
  379MOL0     C52217   2.614  10.973   0.893 -1.4388  0.0093  0.4212
  379MOL0     C52218   2.653  11.039   0.779 -0.4929  0.0152  0.8508
  379MOL0     C52219   2.810  11.081   0.393  0.2270  0.4798 -0.3590
  379MOL0     C52220   2.841  11.222   0.372  0.2315 -0.2999  0.4274
  379MOL0     C52221   2.809  11.277   0.246  0.4772  0.2862 -0.2867
  379MOL0     C52222   2.759  11.202   0.138  0.0449 -0.1683  0.5964
  379MOL0     O52223   2.742  11.271   0.015 -0.4007 -1.2040 -0.4276
  379MOL0     C52224   2.762  11.199  -0.105  0.1306 -0.2427 -0.0947
  379MOL0     C52225   2.784  11.299  -0.223  0.4128  0.4380 -0.8342
  379MOL0     C52226   2.819  11.215  -0.343 -0.2417 -0.3161  0.4115
  379MOL0     C52227   2.867  11.309  -0.458 -0.3093 -0.9848  0.0642
  379MOL0     C52228   2.750  11.385  -0.513 -1.0991  0.3696 -0.9126
  379MOL0     C52229   2.654  11.462  -0.542  0.1120  0.1716 -0.2094
  379MOL0     C52230   2.742  11.066   0.150  0.1582  0.4881 -0.6679
  379MOL0     C52231   2.765  11.005   0.278 -0.7666  0.1112  0.5069
  379MOL0     C52232   2.723  10.858   0.295 -0.0138  1.0761  1.1282
  379MOL0     H52233   2.989  11.019   0.823  0.1417 -1.5183  1.3615
  379MOL0     H52234   2.928  10.933   1.031  0.5524 -1.5949 -0.7830
  379MOL0     H52235   2.694  10.706   1.043  0.3573 -1.9032  1.9308
  379MOL0     H52236   2.575  10.727   1.181 -0.6694  2.9472  0.2491
  379MOL0     H52237   2.794  10.589   1.206 -0.9853 -0.3266  0.7575
  379MOL0     H52238   2.881  10.741   1.200 -0.6645  0.0275 -5.6803
  379MOL0     H52239   2.661  10.675   1.400  1.0803 -0.7364  0.1216
  379MOL0     H52240   2.828  10.650   1.441 -0.8977 -2.7716 -1.4509
  379MOL0     H52241   2.858  10.904   1.386 -1.2772  1.9825  0.4925
  379MOL0     H52242   2.684  10.909   1.404 -0.8361  0.4697  1.5111
  379MOL0     H52243   2.719  10.784   1.631  0.3441 -0.5288 -0.2019
  379MOL0     H52244   2.779  10.955   1.625 -3.5814  0.1045  1.1446
  379MOL0     H52245   2.950  10.712   1.597  3.1706 -0.0465  3.4815
  379MOL0     H52246   3.000  10.885   1.598 -1.0415  0.9111  1.6213
  379MOL0     H52247   2.858  10.735   1.825 -2.2427  1.5159  1.3565
  379MOL0     H52248   2.894  10.911   1.825  1.1818 -0.2505  0.3949
  379MOL0     H52249   3.072  10.771   1.947 -0.1739  0.5801  0.3309
  379MOL0     H52250   3.107  10.698   1.784 -1.9447 -0.5862  0.5250
  379MOL0     H52251   3.111  11.051   1.944 -0.1752  2.2078 -1.4278
  379MOL0     H52252   3.422  11.226   1.790 -0.2641  2.1236 -2.1376
  379MOL0     H52253   3.319  11.240   1.939 -1.7317  3.4529 -0.9027
  379MOL0     H52254   3.163  11.275   1.691  2.0486  3.4522 -4.9704
  379MOL0     H52255   3.170  11.364   1.847 -0.7402 -0.0034 -1.2116
  379MOL0     H52256   3.359  11.495   1.768  1.9124  0.9831 -2.3742
  379MOL0     H52257   3.351  11.391   1.618  0.4982 -0.9976  1.1624
  379MOL0     H52258   3.126  11.470   1.582  0.9947 -1.0773 -0.0676
  379MOL0     H52259   3.114  11.543   1.736  0.2850 -3.1663  0.5274
  379MOL0     H52260   3.330  11.869   1.527  2.6687 -0.9032  1.4910
  379MOL0     H52261   3.453  12.003   1.411  2.3075 -1.0347  0.3202
  379MOL0     H52262   3.387  12.018   1.250 -0.2456  1.5741  0.8989
  379MOL0     H52263   3.554  11.956   1.268  1.4525  2.7780  2.5203
  379MOL0     H52264   3.716  11.558   0.952 -0.9449 -1.4294  0.8955
  379MOL0     H52265   3.795  11.541   0.722  0.6466  3.2636 -0.2819
  379MOL0     H52266   3.550  11.367   0.468 -2.8762 -0.5321 -2.2348
  379MOL0     H52267   3.495  11.538   0.420  0.5963 -0.2878 -0.3992
  379MOL0     H52268   3.571  11.416   0.229 -0.0530 -2.0243 -0.3052
  379MOL0     H52269   3.665  11.561   0.280  0.4401 -0.9445 -0.7264
  379MOL0     H52270   3.793  11.377   0.402 -1.3038  4.7933  0.8954
  379MOL0     H52271   3.836  11.429   0.229 -0.4505  1.9003  1.6061
  379MOL0     H52272   3.720  11.231   0.140  1.1235 -0.7843  0.0181
  379MOL0     H52273   3.697  11.159   0.309  1.5390 -1.0088  0.8800
  379MOL0     H52274   3.967  11.241   0.187  1.8274 -0.7813 -0.0224
  379MOL0     H52275   3.938  11.170   0.344  0.9401  0.8289 -1.0398
  379MOL0     H52276   4.020  11.023   0.147 -0.3979  0.1690 -1.4384
  379MOL0     H52277   3.848  11.032   0.105 -1.5372  1.2285  2.0069
  379MOL0     H52278   3.780  10.923   0.314  0.1293 -2.5716  0.4364
  379MOL0     H52279   3.942  10.949   0.384 -0.9228  2.7943 -0.3292
  379MOL0     H52280   3.854  10.752   0.162 -0.7460 -1.3874  0.8421
  379MOL0     H52281   3.892  10.713   0.328  2.4285 -1.0640  0.6560
  379MOL0     H52282   3.382  11.644   0.595 -2.0421  2.4133  1.7007
  379MOL0     H52283   3.327  11.689   0.812  0.0497  1.7258 -1.3998
  379MOL0     H52284   3.362  11.501   1.208  0.8882 -0.9664  0.3083
  379MOL0     H52285   3.266  11.463   1.424  0.4664 -0.9698  0.5244
  379MOL0     H52286   2.507  10.962   0.906 -1.3563 -1.0557  0.2687
  379MOL0     H52287   2.575  11.062   0.708  2.1945 -0.1862 -2.4227
  379MOL0     H52288   2.887  11.283   0.449  1.2651 -0.5878  0.0526
  379MOL0     H52289   2.816  11.382   0.217 -1.0575  0.1969 -1.0948
  379MOL0     H52290   2.847  11.133  -0.090 -1.4552 -2.7587 -1.5175
  379MOL0     H52291   2.667  11.149  -0.124  0.0816 -0.7819  1.4033
  379MOL0     H52292   2.859  11.374  -0.195  0.9192 -0.9322  1.8558
  379MOL0     H52293   2.692  11.356  -0.235  0.4625  0.3066 -1.8763
  379MOL0     H52294   2.899  11.149  -0.307 -1.2546 -0.9283  1.6162
  379MOL0     H52295   2.742  11.146  -0.379  1.1684 -2.5920  1.4712
  379MOL0     H52296   2.900  11.251  -0.545  1.5365  0.9333 -0.6220
  379MOL0     H52297   2.950  11.375  -0.430 -0.1784 -1.0358 -0.2050
  379MOL0     H52298   2.570  11.526  -0.557 -1.5258 -1.1755  2.4175
  379MOL0     H52299   2.722  11.008   0.060 -0.3859 -0.8617  0.2895
  379MOL0     H52300   2.659  10.821   0.214  2.5692  4.0128 -2.6271
  379MOL0     H52301   2.800  10.781   0.304  0.6718  2.0187  4.6143
  379MOL0     H52302   2.673  10.839   0.390  0.8397 -1.5812  1.1295
  380MOL0     O52303   5.048  10.860   6.693  0.2533  0.4912 -0.1971
  380MOL0     C52304   5.109  10.889   6.796 -0.5823  0.5350  0.2412
  380MOL0     O52305   5.221  10.968   6.810  0.1344 -0.4926  0.6138
  380MOL0     C52306   5.248  11.058   6.705  1.3189  0.0932  1.5130
  380MOL0     C52307   5.144  11.138   6.644  0.8185 -0.4972 -0.0135
  380MOL0     C52308   5.165  11.247   6.552  0.6532  0.0279 -0.7354
  380MOL0     C52309   5.296  11.274   6.522 -1.3262  0.7686  0.3199
  380MOL0     O52310   5.326  11.377   6.443  0.1824 -0.1243 -0.5693
  380MOL0     C52311   5.277  11.506   6.482 -0.2762 -0.1565  0.4588
  380MOL0     C52312   5.334  11.612   6.387 -0.2026  0.3351  0.2251
  380MOL0     C52313   5.220  11.635   6.288  0.0927 -0.3747 -0.1048
  380MOL0     C52314   5.257  11.743   6.179 -0.1633 -0.4770  0.3297
  380MOL0     C52315   5.144  11.740   6.071 -0.0364  0.5067 -0.7285
  380MOL0     C52316   5.167  11.866   5.973  0.3140  0.7448  0.8907
  380MOL0     C52317   5.252  11.828   5.861  0.5382  0.2926  0.5126
  380MOL0     C52318   5.288  11.938   5.764 -0.4309 -0.7173  1.8061
  380MOL0     N52319   5.177  12.012   5.711 -1.0724  0.2838  0.4361
  380MOL0     C52320   5.117  12.117   5.771 -0.3075 -0.5940 -0.2734
  380MOL0     C52321   4.996  12.136   5.704  0.1118 -0.3663  0.6933
  380MOL0     C52322   4.890  12.236   5.737 -0.3096  0.0578  0.8284
  380MOL0     C52323   4.786  12.257   5.616 -0.5441  0.0340 -0.9263
  380MOL0     C52324   4.725  12.391   5.633  0.3887  0.5957 -0.4221
  380MOL0     C52325   4.667  12.448   5.501 -1.9859  0.1514  0.0228
  380MOL0     O52326   4.581  12.360   5.437 -0.1680 -0.1385 -0.1185
  380MOL0     C52327   4.477  12.405   5.365  0.5359 -0.9451  0.7373
  380MOL0     C52328   4.467  12.540   5.313  0.1922 -0.3134 -0.5689
  380MOL0     C52329   4.358  12.575   5.228  0.0059  0.0644  0.1399
  380MOL0     C52330   4.345  12.705   5.158  0.1568 -0.7124 -0.3655
  380MOL0     C52331   4.265  12.478   5.202 -0.7811  0.2123  0.3397
  380MOL0     C52332   4.156  12.500   5.106 -0.1485  0.5362 -0.6475
  380MOL0     O52333   4.175  12.517   4.979 -0.0956 -0.4551  0.2010
  380MOL0     C52334   4.070  12.567   4.897  0.7723  0.2975  1.3995
  380MOL0     C52335   4.028  12.695   4.915  0.4554  0.2794 -0.7487
  380MOL0     C52336   3.927  12.752   4.838 -0.2635  0.5241  0.6989
  380MOL0     C52337   3.868  12.673   4.734 -0.4630  0.6931  0.4643
  380MOL0     O52338   3.776  12.728   4.651  0.0821 -0.5460 -0.9616
  380MOL0     C52339   3.765  12.680   4.520 -0.3892  0.4991 -0.6562
  380MOL0     C52340   3.668  12.765   4.443 -0.8664  0.3197  0.1686
  380MOL0     C52341   3.529  12.756   4.496  0.3845  0.4618  0.0346
  380MOL0     C52342   3.508  12.799   4.641 -0.1448  0.0878  0.2169
  380MOL0     C52343   3.363  12.793   4.684 -0.1465  0.1860 -0.2760
  380MOL0     C52344   3.274  12.897   4.612  1.1821  0.3255 -0.2651
  380MOL0     C52345   3.141  12.933   4.695  0.1864  0.1394 -0.3624
  380MOL0     C52346   3.056  12.822   4.745 -0.5265  0.2479 -0.1016
  380MOL0    Cl52347   2.889  12.880   4.769 -0.4806 -0.5597 -0.0189
  380MOL0     C52348   3.915  12.539   4.725 -0.0011 -0.2142  0.6972
  380MOL0     C52349   4.013  12.486   4.800 -0.0627 -0.3027  0.4618
  380MOL0     O52350   4.048  12.512   5.160  0.7304 -0.0200  0.2300
  380MOL0     C52351   4.268  12.353   5.256  0.7676  0.5216 -1.5508
  380MOL0     C52352   4.379  12.316   5.331  0.2743  0.2606  0.9068
  380MOL0     N52353   4.998  12.048   5.603 -0.4835  0.2849  0.6953
  380MOL0     N52354   5.114  11.979   5.598  0.5603 -0.3545 -0.6800
  380MOL0     C52355   5.396  11.191   6.573 -0.9771 -0.2456 -0.4416
  380MOL0     C52356   5.375  11.098   6.673  0.7385  0.1719  0.2293
  380MOL0     C52357   5.079  10.827   6.924 -0.6298  0.0665  0.0400
  380MOL0     C52358   5.042  10.696   6.917 -0.4066  1.0400 -0.1147
  380MOL0     C52359   4.974  10.635   7.029 -0.8689  0.3742  0.0129
  380MOL0     C52360   4.951  10.701   7.148  0.7539 -1.3887  0.5887
  380MOL0     O52361   4.885  10.658   7.254  0.4248  0.2221  0.1435
  380MOL0     C52362   4.847  10.517   7.262 -1.0867  0.0353 -0.3625
  380MOL0     C52363   4.789  10.474   7.400 -0.2456  0.4148  0.0843
  380MOL0     C52364   4.701  10.570   7.482 -0.4433 -0.2639 -0.5037
  380MOL0     C52365   4.649  10.522   7.621 -0.2118 -0.3937  0.2671
  380MOL0     C52366   4.574  10.393   7.613 -0.2011  0.6073  0.2407
  380MOL0     C52367   4.533  10.280   7.620  0.1315 -0.2403 -0.1440
  380MOL0     C52368   4.996  10.840   7.148  0.2243 -1.0813  0.5495
  380MOL0     C52369   5.060  10.901   7.046 -1.1679 -1.1198  0.3181
  380MOL0     C52370   5.099  11.047   7.064  0.3234  0.5508  0.2313
  380MOL0     H52371   5.045  11.128   6.689  1.6037 -1.6722  1.5242
  380MOL0     H52372   5.077  11.288   6.504 -2.0468  0.4407  3.9624
  380MOL0     H52373   5.315  11.513   6.585 -0.8635 -0.3122  0.6889
  380MOL0     H52374   5.169  11.520   6.490  0.1438  4.3270  0.8498
  380MOL0     H52375   5.363  11.703   6.441  2.5048 -0.7941  0.8114
  380MOL0     H52376   5.426  11.574   6.341 -0.6462  1.5479 -1.8296
  380MOL0     H52377   5.206  11.544   6.230  0.2620 -0.9129  0.6933
  380MOL0     H52378   5.127  11.670   6.334 -0.0932  1.0601 -1.4580
  380MOL0     H52379   5.276  11.847   6.209  0.3290 -0.1906 -0.9241
  380MOL0     H52380   5.353  11.712   6.137  1.7234  2.2789  2.2592
  380MOL0     H52381   5.049  11.747   6.125  1.4231  2.2943  1.8411
  380MOL0     H52382   5.155  11.643   6.021 -2.0653  1.0020 -2.2740
  380MOL0     H52383   5.075  11.897   5.923  0.0199 -1.5128 -0.0929
  380MOL0     H52384   5.212  11.954   6.021 -0.9919  1.8624  0.1503
  380MOL0     H52385   5.195  11.752   5.807  0.0715  0.4920  0.7186
  380MOL0     H52386   5.345  11.782   5.896 -0.3534 -1.9031  0.1610
  380MOL0     H52387   5.362  12.005   5.809  1.7416 -2.3922  0.9252
  380MOL0     H52388   5.327  11.881   5.680 -3.1257 -0.3421  0.1904
  380MOL0     H52389   5.152  12.162   5.864 -0.1623  0.6674 -0.9074
  380MOL0     H52390   4.946  12.324   5.771  0.6006 -0.5041  0.7851
  380MOL0     H52391   4.830  12.192   5.817 -0.7544  1.4850  1.3229
  380MOL0     H52392   4.855  12.268   5.532 -0.7818  0.9952 -1.0089
  380MOL0     H52393   4.710  12.180   5.601 -0.8741  0.2474 -0.3867
  380MOL0     H52394   4.647  12.390   5.709  1.1827 -1.9719  0.4729
  380MOL0     H52395   4.795  12.462   5.677 -2.1997  2.7832  0.3882
  380MOL0     H52396   4.617  12.543   5.519 -2.3058  0.6020 -2.7795
  380MOL0     H52397   4.760  12.459   5.444 -1.1270 -1.0290  1.1354
  380MOL0     H52398   4.535  12.621   5.338  1.3966 -0.3766 -3.2754
  380MOL0     H52399   4.249  12.751   5.136  1.8603  3.7330  0.3617
  380MOL0     H52400   4.404  12.694   5.067  1.7598 -1.2292  0.6807
  380MOL0     H52401   4.381  12.787   5.222 -0.5933  1.8813 -3.0606
  380MOL0     H52402   4.073  12.771   4.978 -0.0028 -1.0385  1.2559
  380MOL0     H52403   3.901  12.855   4.858  2.6085  1.9243 -2.0531
  380MOL0     H52404   3.860  12.664   4.467  0.0154 -2.4544  0.7381
  380MOL0     H52405   3.718  12.582   4.523 -0.7385  0.6794  1.2451
  380MOL0     H52406   3.696  12.871   4.434 -0.3424  0.2593  1.0515
  380MOL0     H52407   3.675  12.728   4.340 -0.4398 -0.3808  0.4434
  380MOL0     H52408   3.495  12.654   4.479  0.3206  0.5816 -0.5798
  380MOL0     H52409   3.457  12.813   4.438  0.1311  0.2328  0.1244
  380MOL0     H52410   3.547  12.899   4.663 -0.1090  0.0642  0.2624
  380MOL0     H52411   3.560  12.717   4.693 -0.4307 -0.3437 -0.1712
  380MOL0     H52412   3.336  12.689   4.663  2.1475 -0.8082  1.2638
  380MOL0     H52413   3.360  12.818   4.791  3.5497 -2.1351  0.5465
  380MOL0     H52414   3.243  12.855   4.516 -0.5859  1.6338 -0.3147
  380MOL0     H52415   3.334  12.989   4.607 -1.6016  2.2322 -1.6979
  380MOL0     H52416   3.089  12.995   4.621 -0.7997  0.4522  0.5773
  380MOL0     H52417   3.158  13.000   4.779 -2.2756  0.2621  0.1084
  380MOL0     H52418   3.109  12.773   4.827  1.8931  3.1328  0.2441
  380MOL0     H52419   3.049  12.755   4.660  1.4027  0.4035 -0.4347
  380MOL0     H52420   3.869  12.474   4.651 -1.4064  1.1196  0.3502
  380MOL0     H52421   4.040  12.382   4.815  0.8889  0.3920  5.2176
  380MOL0     H52422   4.189  12.279   5.247  2.3904 -1.7140  1.0317
  380MOL0     H52423   4.385  12.212   5.359  4.5322 -0.0593 -0.5813
  380MOL0     H52424   5.496  11.214   6.537 -1.3283 -0.1601 -1.3853
  380MOL0     H52425   5.453  11.037   6.718 -0.7127 -1.1408  1.0729
  380MOL0     H52426   5.065  10.627   6.836  4.3858 -0.6606  2.2802
  380MOL0     H52427   4.945  10.532   7.014 -0.4353  0.4713 -1.7067
  380MOL0     H52428   4.770  10.490   7.189 -0.3964  0.2268 -1.1791
  380MOL0     H52429   4.935  10.456   7.242 -0.6191  0.7350 -0.4826
  380MOL0     H52430   4.873  10.457   7.467  1.3301  1.3775 -1.5672
  380MOL0     H52431   4.738  10.379   7.379  1.1152 -0.5376  0.9229
  380MOL0     H52432   4.749  10.669   7.482 -2.1708  0.6358 -1.8797
  380MOL0     H52433   4.612  10.596   7.423 -0.4263 -0.4444 -0.6104
  380MOL0     H52434   4.581  10.590   7.673 -0.2306 -0.9880  1.0347
  380MOL0     H52435   4.743  10.500   7.674  0.7753  1.7596 -0.4549
  380MOL0     H52436   4.508  10.176   7.617 -2.4843  0.3560 -2.0345
  380MOL0     H52437   4.970  10.900   7.234 -0.6130  2.9486 -2.2252
  380MOL0     H52438   5.099  11.091   7.164 -3.7110  1.2469  0.0923
  380MOL0     H52439   5.197  11.054   7.016  0.8798 -2.5767  0.6869
  380MOL0     H52440   5.016  11.106   7.024  2.7571  2.7601 -1.8622
  381MOL0     O52441   1.245   8.373   4.705  0.1088  0.3160  1.1117
  381MOL0     C52442   1.259   8.437   4.811 -0.1876  0.1121 -0.1544
  381MOL0     O52443   1.145   8.496   4.872 -0.8443  0.0463 -1.1936
  381MOL0     C52444   1.021   8.474   4.824  0.0712 -0.3396 -0.0473
  381MOL0     C52445   0.960   8.349   4.826  0.1827 -0.3052 -0.3022
  381MOL0     C52446   0.826   8.329   4.787 -0.0156  0.1281 -0.3575
  381MOL0     C52447   0.736   8.432   4.772  0.1020 -0.1770 -0.6437
  381MOL0     O52448   0.600   8.421   4.749  0.0930  0.3246 -0.3804
  381MOL0     C52449   0.535   8.312   4.807 -0.6286 -0.3112  0.9990
  381MOL0     C52450   0.389   8.323   4.753 -0.0311  0.1711  0.9836
  381MOL0     C52451   0.381   8.321   4.597  0.2186  0.1898  0.3755
  381MOL0     C52452   0.242   8.283   4.554 -0.8119 -0.1640 -0.2248
  381MOL0     C52453   0.230   8.325   4.403 -0.0243 -0.5140  0.1991
  381MOL0     C52454   0.098   8.293   4.334 -0.1092 -0.0542 -0.3057
  381MOL0     C52455   0.086   8.144   4.312  0.5225 -0.7634 -0.1324
  381MOL0     C52456  -0.039   8.116   4.238 -0.4710  0.7207  0.2350
  381MOL0     N52457  -0.049   7.982   4.177  0.4156  0.3304 -0.0581
  381MOL0     C52458   0.037   7.870   4.177 -0.7910 -0.5034  0.3231
  381MOL0     C52459  -0.021   7.780   4.099  0.4445  0.1319 -0.8735
  381MOL0     C52460   0.021   7.638   4.076 -0.0022  0.0647 -0.0562
  381MOL0     C52461   0.075   7.564   4.202  0.0491 -0.4583  0.1431
  381MOL0     C52462   0.106   7.415   4.180  0.6133  1.4769 -0.0041
  381MOL0     C52463  -0.005   7.316   4.160 -0.7757  0.0702 -0.1920
  381MOL0     O52464   0.031   7.183   4.158  0.5770 -0.3569  0.0452
  381MOL0     C52465   0.006   7.105   4.267 -0.8308 -0.1814 -0.2556
  381MOL0     C52466  -0.119   7.099   4.328 -1.3940 -0.8582  0.5502
  381MOL0     C52467  -0.147   7.009   4.431  0.4242 -0.9739 -0.0790
  381MOL0     C52468  -0.278   7.028   4.498 -0.5108  0.4951 -0.7744
  381MOL0     C52469  -0.047   6.915   4.473  0.2251  0.5492 -0.0393
  381MOL0     C52470  -0.059   6.841   4.600 -0.2046  0.3781  0.2443
  381MOL0     O52471  -0.140   6.893   4.697 -0.3668 -0.5785 -0.1374
  381MOL0     C52472  -0.116   6.858   4.832  0.8529  0.7919  0.0027
  381MOL0     C52473  -0.120   6.731   4.882  0.4335 -0.3356  1.2324
  381MOL0     C52474  -0.123   6.696   5.018 -0.3092 -0.0821 -0.0141
  381MOL0     C52475  -0.117   6.799   5.121  0.0498  1.0993  0.5730
  381MOL0     O52476  -0.106   6.774   5.256 -0.1742  0.6477  0.6300
  381MOL0     C52477  -0.059   6.648   5.301 -0.2615 -0.1490 -0.4942
  381MOL0     C52478  -0.008   6.655   5.455  0.2909  0.5829  0.9360
  381MOL0     C52479  -0.088   6.744   5.548 -0.9196 -1.2131 -0.2308
  381MOL0     C52480  -0.015   6.740   5.679  0.2598  0.1162 -0.3506
  381MOL0     C52481  -0.094   6.795   5.799 -0.0761  0.2329  0.0122
  381MOL0     C52482  -0.004   6.808   5.929 -0.4512 -0.3164  0.3008
  381MOL0     C52483  -0.076   6.882   6.054 -0.3431 -0.0169 -0.2593
  381MOL0     C52484   0.009   6.982   6.127  0.5636  0.3163  0.6804
  381MOL0    Cl52485  -0.085   7.044   6.267  0.4785 -0.0767  0.1785
  381MOL0     C52486  -0.113   6.929   5.070 -0.3814  0.3093 -0.1585
  381MOL0     C52487  -0.117   6.955   4.930  0.3406 -0.1350 -0.2413
  381MOL0     O52488   0.018   6.744   4.618 -0.0130  0.4688 -0.3649
  381MOL0     C52489   0.078   6.921   4.405  0.8873  0.6912  0.0443
  381MOL0     C52490   0.100   7.011   4.304 -0.9285  0.1491  0.2891
  381MOL0     N52491  -0.137   7.840   4.057  0.2933  0.5934  0.6155
  381MOL0     N52492  -0.165   7.952   4.109  0.0484  0.6537 -0.9364
  381MOL0     C52493   0.796   8.567   4.774  0.2403 -0.0574  1.1774
  381MOL0     C52494   0.935   8.583   4.799 -0.9668  0.1637 -0.1006
  381MOL0     C52495   1.386   8.422   4.894 -0.4453  0.2705  0.4039
  381MOL0     C52496   1.477   8.313   4.868 -0.2487  0.4569 -0.0400
  381MOL0     C52497   1.606   8.310   4.933  0.7777  0.4042 -0.0746
  381MOL0     C52498   1.646   8.401   5.023 -0.6344  0.4673 -0.2879
  381MOL0     O52499   1.763   8.375   5.089 -0.7256  0.1785  0.0488
  381MOL0     C52500   1.848   8.491   5.097  0.6493 -0.1726 -0.8334
  381MOL0     C52501   1.997   8.453   5.131  0.2819 -0.2632 -0.3638
  381MOL0     C52502   2.067   8.399   5.004 -0.1483  0.6869 -0.6866
  381MOL0     C52503   2.149   8.514   4.950  0.1035  0.4003  0.8391
  381MOL0     C52504   2.263   8.560   5.037 -0.3629  0.7925 -0.2567
  381MOL0     C52505   2.347   8.587   5.125 -0.3332  0.0780  0.5403
  381MOL0     C52506   1.552   8.504   5.059 -0.5809  0.7156  0.0536
  381MOL0     C52507   1.437   8.521   4.990  0.8885  0.4228  0.8557
  381MOL0     C52508   1.348   8.632   5.012 -0.7642 -0.1468 -0.5398
  381MOL0     H52509   1.023   8.263   4.842 -0.8203 -1.3624 -1.7211
  381MOL0     H52510   0.804   8.223   4.776  3.5856 -0.9200  0.8583
  381MOL0     H52511   0.525   8.332   4.914 -0.3950  0.1183  0.9414
  381MOL0     H52512   0.582   8.218   4.776  2.1430  1.9265 -2.4253
  381MOL0     H52513   0.341   8.237   4.802  2.3227 -0.6203  2.0329
  381MOL0     H52514   0.346   8.419   4.786 -0.9413  0.3242 -0.5741
  381MOL0     H52515   0.411   8.419   4.558  0.4092  1.3543  3.2326
  381MOL0     H52516   0.443   8.241   4.553 -0.3214  0.2879 -0.5751
  381MOL0     H52517   0.223   8.176   4.567  1.3999 -0.3407  2.1266
  381MOL0     H52518   0.175   8.351   4.607 -0.5388 -0.0088 -0.0770
  381MOL0     H52519   0.314   8.282   4.348  0.7908  0.4639  0.6372
  381MOL0     H52520   0.246   8.430   4.381 -1.2914 -0.8466 -2.6874
  381MOL0     H52521   0.016   8.331   4.396  0.4039  3.6559 -1.6068
  381MOL0     H52522   0.078   8.344   4.239 -0.1629  0.2325 -0.1423
  381MOL0     H52523   0.081   8.100   4.411  0.9610  0.5742  0.5120
  381MOL0     H52524   0.177   8.120   4.255  1.3004 -1.3632  1.3227
  381MOL0     H52525  -0.127   8.138   4.299 -0.1285  3.5063 -0.1248
  381MOL0     H52526  -0.048   8.188   4.156  1.4164  0.8153  0.0693
  381MOL0     H52527   0.131   7.868   4.230 -0.1467 -0.8684 -0.7989
  381MOL0     H52528   0.098   7.633   3.999  0.3350 -1.1169  0.3332
  381MOL0     H52529  -0.072   7.592   4.039 -0.7318  2.4373 -1.3489
  381MOL0     H52530   0.172   7.606   4.230  0.6695 -1.7834  0.0548
  381MOL0     H52531  -0.006   7.575   4.276  2.3667 -1.2798  2.9829
  381MOL0     H52532   0.183   7.413   4.102  1.7880  1.1457  1.1173
  381MOL0     H52533   0.152   7.382   4.274  1.6927  0.5794 -0.8119
  381MOL0     H52534  -0.089   7.350   4.222 -0.3937  1.3381 -0.3460
  381MOL0     H52535  -0.053   7.345   4.067  0.7051  1.1859 -0.6493
  381MOL0     H52536  -0.198   7.163   4.291 -1.2475  1.8221  4.3977
  381MOL0     H52537  -0.323   6.934   4.530  0.4310  0.6576  1.2125
  381MOL0     H52538  -0.347   7.091   4.440 -0.8690  1.5570  0.7326
  381MOL0     H52539  -0.257   7.084   4.590 -4.5565 -0.2441  0.8276
  381MOL0     H52540  -0.121   6.648   4.812  1.7462 -2.5365  3.6820
  381MOL0     H52541  -0.115   6.597   5.060 -0.0954  0.6478  1.7156
  381MOL0     H52542  -0.143   6.578   5.305 -0.5686  0.2632  0.2954
  381MOL0     H52543   0.021   6.613   5.235 -0.0541  1.9030 -1.4088
  381MOL0     H52544  -0.021   6.557   5.501  0.2109  0.2850  0.2879
  381MOL0     H52545   0.096   6.687   5.455 -0.0346  1.7997  2.6536
  381MOL0     H52546  -0.188   6.707   5.573 -0.5858 -0.5062  2.4982
  381MOL0     H52547  -0.095   6.845   5.508 -3.6371 -1.2552 -0.0725
  381MOL0     H52548   0.080   6.794   5.683 -0.4630  1.4891 -0.7848
  381MOL0     H52549   0.004   6.635   5.702 -2.2311 -0.0893  1.2371
  381MOL0     H52550  -0.143   6.890   5.778 -0.9824 -0.1209  0.4700
  381MOL0     H52551  -0.177   6.725   5.814 -0.3312 -0.0803 -2.4127
  381MOL0     H52552   0.085   6.868   5.908  0.1681 -1.7009 -1.2300
  381MOL0     H52553   0.030   6.713   5.972 -0.3594  0.6482  2.4989
  381MOL0     H52554  -0.101   6.809   6.131  0.3619 -2.0690 -1.8830
  381MOL0     H52555  -0.165   6.935   6.016 -0.9484 -0.0739  1.0197
  381MOL0     H52556   0.041   7.064   6.062  2.1626  0.0184  1.0437
  381MOL0     H52557   0.098   6.941   6.176 -0.6359 -1.0538  1.8170
  381MOL0     H52558  -0.090   7.015   5.132  2.3367 -2.5046  3.1858
  381MOL0     H52559  -0.108   7.055   4.889 -1.0750 -0.7592 -2.2128
  381MOL0     H52560   0.161   6.856   4.427  0.8685  0.2088 -1.2768
  381MOL0     H52561   0.196   7.003   4.256 -0.7330  0.8341  0.5633
  381MOL0     H52562   0.744   8.661   4.761  0.3735 -0.0851  0.3894
  381MOL0     H52563   0.975   8.683   4.803  2.6184 -1.1283  0.2761
  381MOL0     H52564   1.467   8.233   4.794  1.3368 -1.9204  2.1470
  381MOL0     H52565   1.666   8.221   4.916 -1.2560 -1.3310  1.1830
  381MOL0     H52566   1.829   8.556   5.012 -0.1069  1.4584  0.5359
  381MOL0     H52567   1.808   8.557   5.174  1.6906 -0.2475 -0.1982
  381MOL0     H52568   2.004   8.380   5.212  1.2876 -1.6764 -1.6524
  381MOL0     H52569   2.053   8.536   5.174 -2.3497  2.2296 -1.4053
  381MOL0     H52570   2.134   8.314   5.019  2.4156  2.2002 -2.6511
  381MOL0     H52571   1.997   8.373   4.924  0.8136  0.8772 -1.6268
  381MOL0     H52572   2.085   8.600   4.929  2.6048  2.1457 -0.1167
  381MOL0     H52573   2.185   8.494   4.849 -1.0052 -0.4328  0.5929
  381MOL0     H52574   2.414   8.603   5.207 -0.4358 -1.7043  1.0234
  381MOL0     H52575   1.574   8.564   5.147  2.3536 -0.1971  0.0420
  381MOL0     H52576   1.407   8.701   5.073 -0.5681 -1.3328  0.6644
  381MOL0     H52577   1.326   8.691   4.922  0.8278 -0.0111 -0.8782
  381MOL0     H52578   1.258   8.612   5.071 -0.9172 -1.7774 -1.2686
  382MOL0     O52579   3.562   3.984   9.982 -0.2513 -0.3136  0.3901
  382MOL0     C52580   3.616   4.085   9.940 -0.0468  0.6145  0.1617
  382MOL0     O52581   3.624   4.203   9.995  0.5716 -0.3606  0.3631
  382MOL0     C52582   3.542   4.256  10.098  0.1168 -0.0260  0.3066
  382MOL0     C52583   3.596   4.357  10.173 -0.7714 -0.2405  0.3584
  382MOL0     C52584   3.524   4.437  10.261  0.0355  0.7007  0.1949
  382MOL0     C52585   3.386   4.409  10.267  0.8733  0.4019 -0.0230
  382MOL0     O52586   3.291   4.468  10.350  0.7112  0.8440  0.3419
  382MOL0     C52587   3.342   4.513  10.480 -0.5677  0.7751  0.3208
  382MOL0     C52588   3.347   4.662  10.501  0.4649 -0.5544  0.3090
  382MOL0     C52589   3.224   4.729  10.465  0.5394 -0.4793  0.0190
  382MOL0     C52590   3.234   4.857  10.394 -0.3238 -1.1193 -0.2200
  382MOL0     C52591   3.251   4.839  10.244  0.3805  0.7154 -0.4043
  382MOL0     C52592   3.129   4.767  10.172 -0.1991 -0.0469 -0.1172
  382MOL0     C52593   3.136   4.799  10.017  0.1830  0.1970 -0.6532
  382MOL0     C52594   3.055   4.709   9.931  0.3300  0.6308 -0.8216
  382MOL0     N52595   3.078   4.733   9.790  0.5004  0.0568 -0.3824
  382MOL0     C52596   3.191   4.698   9.730  0.0648 -0.6591 -0.4898
  382MOL0     C52597   3.196   4.763   9.606 -0.7019 -0.2676 -0.1596
  382MOL0     C52598   3.280   4.725   9.496 -1.0074 -0.4673  0.2710
  382MOL0     C52599   3.187   4.660   9.388  0.7629  1.3804  0.4629
  382MOL0     C52600   3.266   4.630   9.257  0.1600 -0.7185 -0.2659
  382MOL0     C52601   3.187   4.554   9.149 -0.3103 -0.5956 -0.4838
  382MOL0     O52602   3.132   4.437   9.209 -1.0401  0.2209 -0.6293
  382MOL0     C52603   3.001   4.404   9.186 -0.7210  0.4690  0.1033
  382MOL0     C52604   2.928   4.436   9.073  0.3627 -0.3409 -0.1957
  382MOL0     C52605   2.793   4.395   9.054 -0.1680 -0.5048  0.6194
  382MOL0     C52606   2.741   4.442   8.911  0.5146 -0.3480 -0.1305
  382MOL0     C52607   2.730   4.317   9.147 -0.0889 -0.8106 -0.6104
  382MOL0     C52608   2.588   4.263   9.127  0.2704  0.2851  0.0209
  382MOL0     O52609   2.534   4.193   9.236 -0.3065  0.1572  0.2889
  382MOL0     C52610   2.400   4.167   9.233  0.2944 -0.0489  0.4721
  382MOL0     C52611   2.358   4.047   9.176  0.1297 -0.2668  0.3085
  382MOL0     C52612   2.222   4.017   9.187  0.2873  0.2748  0.0023
  382MOL0     C52613   2.132   4.093   9.249  0.0678 -0.0511 -0.5944
  382MOL0     O52614   2.012   4.032   9.272  0.4988 -0.4394 -0.3901
  382MOL0     C52615   1.919   4.085   9.367 -0.2606 -0.3253  0.7036
  382MOL0     C52616   1.846   3.964   9.424 -0.6094  0.4550  0.0568
  382MOL0     C52617   1.712   4.001   9.476  0.1446 -0.4882 -0.2670
  382MOL0     C52618   1.724   4.110   9.582 -0.1446 -0.8149  0.4253
  382MOL0     C52619   1.617   4.107   9.679  0.0938 -0.2922 -0.6179
  382MOL0     C52620   1.489   4.170   9.613 -0.0502  0.5984 -0.3602
  382MOL0     C52621   1.366   4.151   9.697  0.6956 -0.5686 -0.6176
  382MOL0     C52622   1.235   4.212   9.640 -0.2498  0.0900 -0.0113
  382MOL0    Cl52623   1.247   4.396   9.613 -0.1272  0.5699  0.1770
  382MOL0     C52624   2.166   4.218   9.294  0.5217 -0.3975  0.0846
  382MOL0     C52625   2.299   4.253   9.290 -0.5944 -0.0352  0.3713
  382MOL0     O52626   2.528   4.277   9.015 -0.0726  0.5476 -0.3609
  382MOL0     C52627   2.803   4.280   9.260  0.1261  0.0352 -0.1091
  382MOL0     C52628   2.931   4.329   9.284  0.5119  0.2308 -0.2633
  382MOL0     N52629   3.091   4.843   9.604  0.0012 -0.4243 -0.1453
  382MOL0     N52630   3.013   4.823   9.708 -0.0100  0.3281 -0.1604
  382MOL0     C52631   3.327   4.321  10.175 -0.3276  0.5361 -0.1922
  382MOL0     C52632   3.403   4.244  10.087 -0.1419 -0.3435 -0.2055
  382MOL0     C52633   3.691   4.073   9.810 -0.2655  0.5186 -0.1960
  382MOL0     C52634   3.801   4.158   9.792 -0.2534 -0.5449  0.5243
  382MOL0     C52635   3.892   4.151   9.681  0.2195  0.1630  0.7634
  382MOL0     C52636   3.865   4.056   9.584  0.3879  0.3046  1.2579
  382MOL0     O52637   3.950   4.055   9.477  0.0427 -0.3109 -0.5700
  382MOL0     C52638   4.050   3.953   9.481 -0.2303 -0.3216  0.3294
  382MOL0     C52639   4.144   3.978   9.363  0.2874  0.5060  0.5185
  382MOL0     C52640   4.209   4.111   9.390  0.3960  0.3550 -0.3276
  382MOL0     C52641   4.324   4.158   9.294 -0.7731 -0.3377 -0.0044
  382MOL0     C52642   4.281   4.171   9.154 -0.2710 -0.6374 -0.1579
  382MOL0     C52643   4.258   4.175   9.035  0.3191  0.3242  0.2408
  382MOL0     C52644   3.762   3.964   9.604  0.5911 -0.2552  0.4269
  382MOL0     C52645   3.675   3.972   9.715 -0.4127  0.1634  0.3975
  382MOL0     C52646   3.540   3.902   9.716 -0.9535  0.9456 -0.0203
  382MOL0     H52647   3.700   4.384  10.164 -0.7476 -0.6597 -0.8885
  382MOL0     H52648   3.573   4.516  10.317 -0.6163  1.6578 -0.5446
  382MOL0     H52649   3.437   4.467  10.512 -0.2338  2.6140  2.1365
  382MOL0     H52650   3.270   4.483  10.557 -1.2266  0.8108 -0.2778
  382MOL0     H52651   3.357   4.690  10.606 -1.3853  0.6276  0.2142
  382MOL0     H52652   3.432   4.708  10.451  1.6490 -1.5135  1.3840
  382MOL0     H52653   3.152   4.673  10.404 -0.0733  1.0796 -0.7417
  382MOL0     H52654   3.182   4.743  10.565  0.5394  1.3408 -0.2100
  382MOL0     H52655   3.146   4.915  10.424 -0.8444 -1.6000 -0.7998
  382MOL0     H52656   3.325   4.902  10.437 -0.0008 -1.4315 -0.5694
  382MOL0     H52657   3.345   4.789  10.218 -1.4731 -1.8393 -2.9734
  382MOL0     H52658   3.255   4.941  10.203 -1.1654  0.9989  0.0864
  382MOL0     H52659   3.138   4.660  10.189 -1.0455 -0.4194 -1.7760
  382MOL0     H52660   3.042   4.811  10.223  2.4655  2.4128  2.7295
  382MOL0     H52661   3.242   4.804   9.990  0.8655  1.0957  1.8877
  382MOL0     H52662   3.101   4.900   9.994  1.5349  1.3336  1.8469
  382MOL0     H52663   3.075   4.606   9.962  2.2595  0.9984 -0.7109
  382MOL0     H52664   2.951   4.732   9.957  0.3303 -0.9781  0.8611
  382MOL0     H52665   3.267   4.635   9.774  0.5943 -0.4833 -1.1281
  382MOL0     H52666   3.359   4.656   9.527 -1.0787 -1.4178 -1.5353
  382MOL0     H52667   3.330   4.815   9.459 -0.9171 -1.4816 -2.2675
  382MOL0     H52668   3.141   4.567   9.424  0.3994  0.7854 -1.4318
  382MOL0     H52669   3.117   4.741   9.366  1.5176  1.4299 -2.0479
  382MOL0     H52670   3.295   4.727   9.216  1.4136 -0.6037  0.8472
  382MOL0     H52671   3.364   4.585   9.278  1.0249  1.3875  0.4595
  382MOL0     H52672   3.126   4.633   9.104 -0.5917 -1.3850 -1.5120
  382MOL0     H52673   3.264   4.532   9.075  1.7245  0.7010  1.1138
  382MOL0     H52674   2.983   4.488   8.995  0.6256  1.8324  1.3723
  382MOL0     H52675   2.664   4.517   8.930  0.9777  0.0483  0.2219
  382MOL0     H52676   2.696   4.360   8.855 -0.9753  0.2164  0.1979
  382MOL0     H52677   2.818   4.481   8.844 -0.0807 -0.6398 -0.9950
  382MOL0     H52678   2.428   3.978   9.129  1.0104  0.1731  0.9418
  382MOL0     H52679   2.191   3.922   9.145 -0.6660 -0.2632  1.8258
  382MOL0     H52680   1.970   4.139   9.448 -0.9053 -1.6256  2.0272
  382MOL0     H52681   1.844   4.148   9.320  1.1915  1.1754  0.2955
  382MOL0     H52682   1.835   3.891   9.344 -1.2737  1.4910 -0.8302
  382MOL0     H52683   1.916   3.923   9.498  1.0385  2.5575 -0.2253
  382MOL0     H52684   1.658   3.918   9.524 -0.3878 -0.5115 -0.8958
  382MOL0     H52685   1.653   4.035   9.391  1.0295 -0.4825 -0.8878
  382MOL0     H52686   1.733   4.206   9.532  3.2724 -1.6053 -0.6992
  382MOL0     H52687   1.819   4.081   9.628 -1.9628 -2.3507  3.5758
  382MOL0     H52688   1.580   4.009   9.708 -0.0915 -0.1050 -0.2126
  382MOL0     H52689   1.649   4.153   9.773 -1.5724  1.1609 -0.6965
  382MOL0     H52690   1.484   4.134   9.510  5.7453 -1.8573 -0.1406
  382MOL0     H52691   1.519   4.275   9.602  2.6665 -0.1964 -1.1185
  382MOL0     H52692   1.386   4.211   9.786  5.0305  0.0665 -1.7774
  382MOL0     H52693   1.338   4.048   9.720 -2.1544  0.5171  1.2274
  382MOL0     H52694   1.152   4.194   9.709 -0.9889 -0.7476 -1.0874
  382MOL0     H52695   1.205   4.161   9.548 -0.0592  0.4427 -0.2722
  382MOL0     H52696   2.090   4.287   9.329  0.5836 -0.0920 -0.3724
  382MOL0     H52697   2.333   4.350   9.326 -2.0415 -0.3627  2.8390
  382MOL0     H52698   2.763   4.214   9.336  3.1013 -0.7973  0.8387
  382MOL0     H52699   2.986   4.291   9.369 -1.4623  0.5995  1.2641
  382MOL0     H52700   3.219   4.310  10.179 -0.4118  0.7351 -1.5929
  382MOL0     H52701   3.357   4.170  10.023  0.7506  1.7477 -3.4920
  382MOL0     H52702   3.809   4.236   9.867 -1.0555 -2.6187  2.9050
  382MOL0     H52703   3.959   4.233   9.657  0.7645  0.0254  1.7927
  382MOL0     H52704   4.100   3.959   9.578  0.3249  1.4798 -0.0415
  382MOL0     H52705   3.996   3.858   9.476 -0.5290 -0.1134 -0.4972
  382MOL0     H52706   4.090   3.960   9.270  1.7497 -1.1829 -0.0714
  382MOL0     H52707   4.225   3.905   9.365  1.8221  2.0925 -0.6299
  382MOL0     H52708   4.125   4.181   9.392  1.0332  1.1707  2.4305
  382MOL0     H52709   4.252   4.113   9.490  2.3312  1.9720 -1.0969
  382MOL0     H52710   4.404   4.083   9.290 -0.7428 -0.3804  1.0585
  382MOL0     H52711   4.363   4.247   9.344  3.0906 -2.6725  1.5733
  382MOL0     H52712   4.258   4.183   8.928  0.8708  1.4166  0.3118
  382MOL0     H52713   3.744   3.891   9.526  0.1817 -0.8966  1.1035
  382MOL0     H52714   3.546   3.815   9.782  0.4439  1.0916  0.0649
  382MOL0     H52715   3.452   3.962   9.745  0.0057  1.5488  1.8246
  382MOL0     H52716   3.525   3.875   9.611  0.7643  0.9242 -0.2794
  383MOL0     O52717   2.583  10.563   7.070 -0.1592 -0.3865 -0.0932
  383MOL0     C52718   2.626  10.523   6.963 -0.6644  0.3011  0.8024
  383MOL0     O52719   2.607  10.401   6.909  0.0632 -0.2962 -0.3748
  383MOL0     C52720   2.555  10.301   6.998  0.3960  0.4694 -0.1952
  383MOL0     C52721   2.604  10.276   7.127 -0.3412 -0.5069 -0.1361
  383MOL0     C52722   2.561  10.165   7.201  0.4810  0.3818  0.9613
  383MOL0     C52723   2.473  10.071   7.146  0.0466  0.0144  0.3714
  383MOL0     O52724   2.426   9.961   7.212 -0.0133  0.3013 -0.2193
  383MOL0     C52725   2.426   9.958   7.356 -0.8100  0.5789 -0.1256
  383MOL0     C52726   2.336   9.845   7.411  0.2755  0.1048 -0.1104
  383MOL0     C52727   2.348   9.718   7.334 -0.0921 -0.8744  0.2035
  383MOL0     C52728   2.269   9.610   7.404  0.5889 -0.4260 -0.3463
  383MOL0     C52729   2.115   9.629   7.373 -0.9022  0.4024  0.4237
  383MOL0     C52730   2.034   9.520   7.454  1.0271  0.2312  0.3244
  383MOL0     C52731   1.887   9.505   7.418  0.4893  0.2256 -0.1725
  383MOL0     C52732   1.790   9.432   7.516  0.3388 -0.7256  0.4653
  383MOL0     N52733   1.842   9.297   7.530 -0.5570 -0.1455 -0.4445
  383MOL0     C52734   1.837   9.194   7.441  0.2821  0.3978 -0.0445
  383MOL0     C52735   1.878   9.082   7.505 -0.8680  0.5929  0.2714
  383MOL0     C52736   1.871   8.947   7.443 -0.2255  0.0824  1.3391
  383MOL0     C52737   2.015   8.888   7.399  0.2420  0.2308  0.1518
  383MOL0     C52738   2.004   8.774   7.302  0.2299 -0.5785  0.9888
  383MOL0     C52739   2.124   8.693   7.292  0.0367  0.2709  0.5095
  383MOL0     O52740   2.240   8.773   7.287 -0.0200 -0.0951 -0.7196
  383MOL0     C52741   2.276   8.842   7.176  0.0146  0.3270 -0.2629
  383MOL0     C52742   2.225   8.842   7.053  0.2461  0.4073  0.0741
  383MOL0     C52743   2.285   8.910   6.943  0.4216 -0.7074 -0.0436
  383MOL0     C52744   2.211   8.899   6.809 -0.2665  0.7424  0.3743
  383MOL0     C52745   2.406   8.984   6.952  0.9700  0.1980 -0.1683
  383MOL0     C52746   2.459   9.060   6.840 -0.5561 -0.1379 -0.1940
  383MOL0     O52747   2.373   9.107   6.752 -0.3462  0.5944  0.6398
  383MOL0     C52748   2.413   9.170   6.637 -0.6520  0.3233 -1.1847
  383MOL0     C52749   2.500   9.121   6.541 -1.3376  0.0221 -0.4167
  383MOL0     C52750   2.515   9.181   6.420 -0.3838  0.2309 -0.5771
  383MOL0     C52751   2.478   9.309   6.405  0.2018  0.0077  0.3109
  383MOL0     O52752   2.513   9.362   6.287  0.1586 -0.4122 -0.0629
  383MOL0     C52753   2.622   9.457   6.300  0.2033  0.1519 -0.7274
  383MOL0     C52754   2.668   9.482   6.163 -0.8208 -0.0412 -0.5766
  383MOL0     C52755   2.724   9.361   6.093  0.1314 -0.3002  0.0427
  383MOL0     C52756   2.626   9.295   5.996 -0.2707 -0.3834 -0.4025
  383MOL0     C52757   2.669   9.159   5.952 -0.7091  0.3590  0.5451
  383MOL0     C52758   2.543   9.080   5.892 -1.0965 -0.3086 -1.4483
  383MOL0     C52759   2.546   8.934   5.942 -0.3279  0.4098  0.5216
  383MOL0     C52760   2.401   8.874   5.954 -0.0942  0.6227  0.2377
  383MOL0    Cl52761   2.403   8.696   5.916  0.5966 -0.0071  0.2915
  383MOL0     C52762   2.404   9.377   6.500  0.2119  0.6298 -0.5365
  383MOL0     C52763   2.366   9.302   6.615 -0.2077  0.6876  0.8623
  383MOL0     O52764   2.585   9.070   6.843 -0.1615  1.1958 -0.4269
  383MOL0     C52765   2.454   8.993   7.084 -0.2314 -0.7927 -1.0467
  383MOL0     C52766   2.396   8.916   7.194 -0.4952  0.2409 -0.0129
  383MOL0     N52767   1.906   9.122   7.634 -0.4592 -0.2764 -1.3444
  383MOL0     N52768   1.899   9.248   7.644 -0.1425  0.4345  0.6106
  383MOL0     C52769   2.431  10.094   7.014 -0.9861  0.0814 -0.5604
  383MOL0     C52770   2.475  10.200   6.941  0.7117 -0.8988  0.6237
  383MOL0     C52771   2.694  10.621   6.884  0.5086 -1.4198  0.3597
  383MOL0     C52772   2.659  10.760   6.906  0.7018 -0.4918  0.4688
  383MOL0     C52773   2.700  10.851   6.805  1.0840  0.0213 -0.1708
  383MOL0     C52774   2.799  10.810   6.714  0.3951 -0.2902 -0.9084
  383MOL0     O52775   2.855  10.902   6.627 -0.4834  0.1562 -0.2424
  383MOL0     C52776   2.765  10.998   6.565 -0.2416 -0.9616 -0.2351
  383MOL0     C52777   2.668  10.943   6.457  0.4692  0.4716  0.5065
  383MOL0     C52778   2.744  10.887   6.328  0.1190  0.0475  0.6926
  383MOL0     C52779   2.819  10.758   6.356  0.2770 -0.2843  0.5187
  383MOL0     C52780   2.848  10.688   6.234 -1.0660 -1.2860 -0.8305
  383MOL0     C52781   2.859  10.607   6.153  0.7033  0.4843  0.6135
  383MOL0     C52782   2.857  10.686   6.712  0.6898 -0.4252 -0.0099
  383MOL0     C52783   2.797  10.587   6.788 -0.0652  0.5106 -0.6695
  383MOL0     C52784   2.863  10.449   6.770  0.3400  0.2008 -0.1062
  383MOL0     H52785   2.685  10.340   7.159  0.9584 -2.1460 -0.0190
  383MOL0     H52786   2.602  10.146   7.299  1.9876 -1.1509  0.0883
  383MOL0     H52787   2.385  10.051   7.394 -1.0338 -0.6068  2.8336
  383MOL0     H52788   2.528   9.958   7.396  0.7004  1.5892 -3.5896
  383MOL0     H52789   2.350   9.839   7.519 -0.6004 -2.2308 -0.0805
  383MOL0     H52790   2.237   9.884   7.384  0.1508 -0.5548 -0.6044
  383MOL0     H52791   2.321   9.744   7.231 -0.2040  2.5323  0.9731
  383MOL0     H52792   2.452   9.686   7.351 -0.2598 -0.5533  1.9828
  383MOL0     H52793   2.293   9.512   7.363 -2.2253 -1.5441  0.4392
  383MOL0     H52794   2.288   9.605   7.511 -2.2694 -6.4467  0.2925
  383MOL0     H52795   2.104   9.617   7.265 -1.1971 -3.7243  0.7538
  383MOL0     H52796   2.067   9.724   7.399 -1.7268  0.1318 -0.0780
  383MOL0     H52797   2.063   9.414   7.451 -3.1549 -1.2091  1.9079
  383MOL0     H52798   2.041   9.543   7.561 -0.4112 -0.5106  0.6119
  383MOL0     H52799   1.864   9.458   7.322 -1.6101  0.5335  0.1322
  383MOL0     H52800   1.846   9.606   7.424  1.5108  0.5942  1.0519
  383MOL0     H52801   1.795   9.478   7.615  1.1760  1.5148 -0.5498
  383MOL0     H52802   1.689   9.432   7.476  1.7516 -0.5154 -3.5141
  383MOL0     H52803   1.808   9.204   7.337 -2.9071  0.7150  0.7844
  383MOL0     H52804   1.805   8.949   7.356 -0.4884  1.9052  1.5452
  383MOL0     H52805   1.830   8.872   7.510 -1.5272 -0.7587 -0.3262
  383MOL0     H52806   2.063   8.968   7.342  0.1432  1.3084  1.5022
  383MOL0     H52807   2.068   8.866   7.493  1.7421 -2.3221 -1.2065
  383MOL0     H52808   1.918   8.722   7.347 -0.6958  1.3140  1.5200
  383MOL0     H52809   1.971   8.814   7.205 -1.5897  0.0674  1.8246
  383MOL0     H52810   2.128   8.629   7.381  1.1197  0.2170  0.4298
  383MOL0     H52811   2.121   8.628   7.204  1.9283  0.3563  0.3528
  383MOL0     H52812   2.134   8.789   7.029  1.4097 -0.3734 -3.1336
  383MOL0     H52813   2.151   8.990   6.803 -2.4021 -0.3106  3.1469
  383MOL0     H52814   2.144   8.815   6.790 -0.2698  1.0210 -0.9025
  383MOL0     H52815   2.283   8.885   6.728 -0.6962 -1.1865  0.2795
  383MOL0     H52816   2.547   9.026   6.563  1.2168  1.2995  0.0818
  383MOL0     H52817   2.566   9.123   6.344  0.1749  2.0141 -1.6167
  383MOL0     H52818   2.589   9.552   6.343 -0.4122 -0.2414 -0.3173
  383MOL0     H52819   2.705   9.426   6.365 -0.0248  2.3089  0.6758
  383MOL0     H52820   2.580   9.518   6.108 -0.0623  2.3285 -0.3474
  383MOL0     H52821   2.744   9.560   6.168 -1.2564  0.3025  2.1155
  383MOL0     H52822   2.754   9.289   6.170 -0.1486 -2.4066 -1.7119
  383MOL0     H52823   2.815   9.393   6.041 -0.1391  0.6957  0.1613
  383MOL0     H52824   2.613   9.360   5.909 -1.0694 -0.5039 -0.3800
  383MOL0     H52825   2.534   9.270   6.049  0.5148 -1.9730  0.2864
  383MOL0     H52826   2.749   9.155   5.877 -1.1421 -1.4466  0.1411
  383MOL0     H52827   2.702   9.107   6.042 -1.4645  1.4976  1.5228
  383MOL0     H52828   2.558   9.080   5.784  0.4082  1.7844 -1.3149
  383MOL0     H52829   2.452   9.133   5.924  0.6087  2.8522 -1.3638
  383MOL0     H52830   2.589   8.939   6.042  0.1246  2.6598  0.2529
  383MOL0     H52831   2.625   8.877   5.891 -1.4694 -1.3974  0.6711
  383MOL0     H52832   2.325   8.931   5.901  1.1114  1.5426 -0.5310
  383MOL0     H52833   2.373   8.866   6.060  2.1684 -1.1492  0.7789
  383MOL0     H52834   2.362   9.476   6.484 -0.1555  0.3872 -1.1003
  383MOL0     H52835   2.302   9.346   6.692 -1.9715 -0.9215  0.4139
  383MOL0     H52836   2.553   9.034   7.097  0.0571 -1.6940 -0.2710
  383MOL0     H52837   2.448   8.915   7.289  0.7283 -1.6969 -0.6468
  383MOL0     H52838   2.374  10.017   6.962 -0.9330 -1.2493  1.2370
  383MOL0     H52839   2.429  10.192   6.843  1.9273 -2.3800  0.1288
  383MOL0     H52840   2.580  10.789   6.974 -1.1787 -0.1754 -1.7085
  383MOL0     H52841   2.656  10.950   6.797 -2.8248 -1.6523 -1.9478
  383MOL0     H52842   2.704  11.050   6.640  3.0391  0.5213  1.5976
  383MOL0     H52843   2.823  11.073   6.510  0.3528 -1.5314 -0.3987
  383MOL0     H52844   2.610  11.028   6.419 -1.4990  0.6313  3.5338
  383MOL0     H52845   2.600  10.865   6.493  0.2418  0.6171  0.3981
  383MOL0     H52846   2.673  10.866   6.248  1.5964  0.1012 -0.6789
  383MOL0     H52847   2.809  10.967   6.292 -0.8655  0.1206 -1.0346
  383MOL0     H52848   2.751  10.687   6.404  3.4791 -5.0311 -1.1404
  383MOL0     H52849   2.908  10.767   6.420  0.7530 -2.9756  0.3824
  383MOL0     H52850   2.853  10.519   6.091 -0.6816  0.5642  0.6060
  383MOL0     H52851   2.934  10.665   6.639 -0.2743  1.2828 -1.6298
  383MOL0     H52852   2.814  10.387   6.695  0.9187  0.5545 -0.7850
  383MOL0     H52853   2.967  10.459   6.738  1.1684 -0.2011  2.2821
  383MOL0     H52854   2.871  10.396   6.865 -0.0180  2.5974  1.3640
  384MOL0     O52855   5.891   1.792   3.430  0.6237 -0.1686 -0.3318
  384MOL0     C52856   5.937   1.877   3.513  0.5820 -0.0386  0.4385
  384MOL0     O52857   6.054   1.945   3.503 -0.0345 -0.7085 -0.3613
  384MOL0     C52858   6.124   1.950   3.390 -0.0475  0.0807 -0.0183
  384MOL0     C52859   6.152   2.066   3.323  0.0740 -0.7723 -1.0221
  384MOL0     C52860   6.208   2.064   3.195 -1.0277 -0.0232  0.3449
  384MOL0     C52861   6.262   1.942   3.137  0.0474  0.2560 -0.6386
  384MOL0     O52862   6.308   1.953   3.012  0.5179 -1.2406 -0.1078
  384MOL0     C52863   6.384   1.846   2.946  0.1197 -0.3150  0.1743
  384MOL0     C52864   6.514   1.827   3.021 -0.3065 -0.7705 -0.1509
  384MOL0     C52865   6.600   1.730   2.942 -0.3591 -0.3547 -0.5148
  384MOL0     C52866   6.732   1.713   3.019  0.2286  0.4195 -0.7485
  384MOL0     C52867   6.830   1.640   2.927 -0.3877  0.0643 -0.3463
  384MOL0     C52868   6.965   1.622   2.985 -1.4094 -0.8115  0.7515
  384MOL0     C52869   7.052   1.753   2.967  0.5019  0.6691 -0.3816
  384MOL0     C52870   7.173   1.765   3.061  0.0728  0.6822 -0.1809
  384MOL0     N52871   7.260   1.646   3.032  1.0044  0.3828 -0.0573
  384MOL0     C52872   7.331   1.627   2.920 -1.0379 -0.0340  0.3211
  384MOL0     C52873   7.391   1.512   2.931  0.2748  0.5766 -0.0218
  384MOL0     C52874   7.484   1.449   2.834  0.2561  0.5170  0.7016
  384MOL0     C52875   7.428   1.314   2.783 -0.0914 -0.4726  0.3771
  384MOL0     C52876   7.275   1.283   2.777  0.7616  0.0552  0.6947
  384MOL0     C52877   7.237   1.154   2.717 -0.5988  0.2078 -1.2374
  384MOL0     O52878   7.214   1.181   2.574  0.0525  0.9094  0.0854
  384MOL0     C52879   7.160   1.086   2.485 -0.4156  0.2387 -0.0556
  384MOL0     C52880   7.133   1.128   2.354 -0.3157  1.0962 -0.3618
  384MOL0     C52881   7.083   1.044   2.250 -0.3165 -0.4819  0.0926
  384MOL0     C52882   7.045   1.094   2.120  1.0059 -0.1818  0.9128
  384MOL0     C52883   7.047   0.910   2.284  0.4527 -0.4894 -0.1483
  384MOL0     C52884   6.984   0.826   2.188 -0.1887 -0.5051  0.3791
  384MOL0     O52885   7.032   0.706   2.154 -0.4131 -0.2004 -0.3036
  384MOL0     C52886   7.166   0.680   2.155  0.5728 -0.1344  0.0929
  384MOL0     C52887   7.205   0.555   2.208  0.9693 -0.1634 -0.1376
  384MOL0     C52888   7.344   0.516   2.214  0.1851 -0.2233  0.1569
  384MOL0     C52889   7.440   0.614   2.180 -1.1519 -0.3859  0.1928
  384MOL0     O52890   7.568   0.588   2.209  0.1528  0.5849  0.4528
  384MOL0     C52891   7.661   0.547   2.103 -0.3944 -1.0251 -0.3895
  384MOL0     C52892   7.619   0.421   2.023 -0.9188  0.6442 -0.3002
  384MOL0     C52893   7.625   0.287   2.110 -1.1549  0.0314 -0.2165
  384MOL0     C52894   7.557   0.169   2.043  0.1567  0.1275 -0.0462
  384MOL0     C52895   7.601   0.037   2.105  0.2267  0.6943  0.3528
  384MOL0     C52896   7.644  -0.060   1.995  0.4562 -0.5436  0.5313
  384MOL0     C52897   7.721  -0.187   2.030 -0.2276 -0.5877  0.2688
  384MOL0     C52898   7.637  -0.303   2.090  0.2233 -0.5323 -0.5769
  384MOL0    Cl52899   7.746  -0.436   2.130 -0.1158 -0.4626 -0.2115
  384MOL0     C52900   7.399   0.735   2.118 -0.2336 -0.5148  0.8274
  384MOL0     C52901   7.260   0.765   2.112  0.4980  0.2585 -0.4308
  384MOL0     O52902   6.889   0.867   2.129  1.1488 -0.3639 -0.4562
  384MOL0     C52903   7.073   0.868   2.418 -0.4784  0.3039  0.1384
  384MOL0     C52904   7.136   0.953   2.512  0.0643 -1.0158  0.0766
  384MOL0     N52905   7.372   1.474   3.065 -1.0838 -0.0671  0.0938
  384MOL0     N52906   7.283   1.544   3.118  0.5864 -0.6883 -0.2221
  384MOL0     C52907   6.233   1.825   3.205  0.4309  0.2048  0.0981
  384MOL0     C52908   6.166   1.826   3.327  1.1471  0.7455  0.2395
  384MOL0     C52909   5.839   1.912   3.619  0.3289 -0.6471  1.1714
  384MOL0     C52910   5.712   1.860   3.601  0.4289  0.6215  0.0485
  384MOL0     C52911   5.614   1.882   3.699  0.5718  0.8655 -0.6501
  384MOL0     C52912   5.641   1.945   3.821 -0.3382 -0.7009 -0.1113
  384MOL0     O52913   5.552   1.929   3.920  0.4607 -0.1049  0.3600
  384MOL0     C52914   5.580   1.940   4.063  0.7979  0.1035  0.1212
  384MOL0     C52915   5.553   2.079   4.117 -0.7184 -0.4363 -0.7449
  384MOL0     C52916   5.409   2.121   4.102 -0.7856  0.2974 -0.7618
  384MOL0     C52917   5.375   2.256   4.171  0.4606  0.3871  0.3373
  384MOL0     C52918   5.401   2.242   4.312 -0.1970  0.0841 -0.2626
  384MOL0     C52919   5.415   2.235   4.433  0.3457 -0.2621  0.4126
  384MOL0     C52920   5.768   2.013   3.838 -0.3342  1.0340  0.6240
  384MOL0     C52921   5.861   1.995   3.735 -0.0567  0.5460 -0.3172
  384MOL0     C52922   5.999   2.052   3.779  0.4679  0.6898 -0.0564
  384MOL0     H52923   6.122   2.160   3.369  2.1356  0.0774 -1.2647
  384MOL0     H52924   6.224   2.162   3.151  1.6661 -0.7342 -0.4768
  384MOL0     H52925   6.411   1.895   2.851  0.0012  3.0503  1.7375
  384MOL0     H52926   6.338   1.748   2.932  1.7836 -1.4533  2.2275
  384MOL0     H52927   6.559   1.926   3.036 -4.4333  1.4726 -0.7468
  384MOL0     H52928   6.492   1.800   3.124 -1.2717 -0.6626 -0.3157
  384MOL0     H52929   6.546   1.636   2.931 -0.1795 -0.4305 -0.7398
  384MOL0     H52930   6.626   1.777   2.847 -1.0616  0.4881 -0.3102
  384MOL0     H52931   6.774   1.808   3.055 -1.8886  1.3350 -0.5493
  384MOL0     H52932   6.716   1.651   3.107  1.1112  0.7626 -0.3259
  384MOL0     H52933   6.830   1.696   2.833 -0.9434  3.0868  1.3259
  384MOL0     H52934   6.783   1.542   2.916 -1.9497  0.2289  3.2831
  384MOL0     H52935   6.961   1.590   3.090 -3.5121  0.7244  1.2105
  384MOL0     H52936   7.021   1.538   2.942 -1.3337 -1.1013  1.3924
  384MOL0     H52937   6.995   1.840   2.998  2.9060  1.6707  1.5564
  384MOL0     H52938   7.098   1.767   2.868  0.8223 -0.9465 -0.4994
  384MOL0     H52939   7.214   1.865   3.048 -0.6542  1.0455  0.2373
  384MOL0     H52940   7.140   1.757   3.165  1.5511 -4.4403  0.1428
  384MOL0     H52941   7.329   1.687   2.830  1.8010 -0.4377 -0.1022
  384MOL0     H52942   7.582   1.437   2.880  0.0880  1.4231  1.3087
  384MOL0     H52943   7.497   1.515   2.749 -1.9594 -3.1461 -2.8491
  384MOL0     H52944   7.473   1.297   2.684  0.8149 -0.4162  0.7763
  384MOL0     H52945   7.466   1.245   2.859  3.2949  0.2397 -0.5155
  384MOL0     H52946   7.227   1.286   2.876 -1.9149 -0.5140 -0.5046
  384MOL0     H52947   7.234   1.366   2.719 -2.9017 -1.7798  0.3365
  384MOL0     H52948   7.330   1.098   2.721 -0.2069  0.4632 -4.3546
  384MOL0     H52949   7.163   1.095   2.773  3.2203 -4.2514 -0.3233
  384MOL0     H52950   7.148   1.230   2.320 -3.3249  0.5642 -4.0273
  384MOL0     H52951   6.943   1.135   2.124  1.2282  0.3223  1.4952
  384MOL0     H52952   7.061   1.038   2.028 -5.8503  0.2438 -1.1042
  384MOL0     H52953   7.111   1.180   2.101  2.0700 -1.6157 -2.7622
  384MOL0     H52954   7.125   0.494   2.249  0.1381  1.1901  0.3473
  384MOL0     H52955   7.387   0.435   2.272  5.4007  0.9445 -1.5024
  384MOL0     H52956   7.675   0.638   2.043 -2.4039  1.4565  2.5835
  384MOL0     H52957   7.754   0.520   2.155 -2.0212 -1.0740  2.7442
  384MOL0     H52958   7.522   0.425   1.972  0.7280 -0.2161 -3.8222
  384MOL0     H52959   7.698   0.418   1.948  2.1505 -3.1878  2.6429
  384MOL0     H52960   7.579   0.310   2.206 -2.3902  1.9469 -1.2038
  384MOL0     H52961   7.730   0.259   2.122 -0.2278  2.7251 -1.2761
  384MOL0     H52962   7.575   0.163   1.935 -1.6846 -0.9605 -0.3447
  384MOL0     H52963   7.448   0.179   2.051 -0.0137 -1.8514  0.7113
  384MOL0     H52964   7.679   0.051   2.180 -0.4008 -1.5222  1.5034
  384MOL0     H52965   7.517  -0.007   2.159 -0.1870  0.5059 -0.4306
  384MOL0     H52966   7.704  -0.002   1.925 -3.1562 -0.4151 -2.8263
  384MOL0     H52967   7.552  -0.074   1.938  1.2884  3.0640 -2.0630
  384MOL0     H52968   7.800  -0.157   2.099 -1.0219  2.4319  0.0222
  384MOL0     H52969   7.763  -0.223   1.936 -2.8137  2.9798 -2.5635
  384MOL0     H52970   7.565  -0.338   2.015 -0.0588  2.0769 -1.6431
  384MOL0     H52971   7.586  -0.268   2.180  0.0373  0.5841 -1.0957
  384MOL0     H52972   7.472   0.810   2.088 -0.0356 -0.4496  1.4547
  384MOL0     H52973   7.215   0.852   2.066 -3.9812 -1.5996 -0.0660
  384MOL0     H52974   7.057   0.763   2.438  0.7114  0.0110 -0.3530
  384MOL0     H52975   7.128   0.915   2.614  0.3097  0.7088  0.7754
  384MOL0     H52976   6.249   1.728   3.157  0.1020 -0.2561  0.9118
  384MOL0     H52977   6.151   1.727   3.368  2.6576 -1.9126 -4.7658
  384MOL0     H52978   5.695   1.790   3.520  3.4802 -1.7830  1.3251
  384MOL0     H52979   5.514   1.844   3.681 -0.6394  2.6775  1.7292
  384MOL0     H52980   5.511   1.873   4.115  1.5091 -0.1715  0.7408
  384MOL0     H52981   5.685   1.917   4.082  0.6294 -1.9908 -1.1419
  384MOL0     H52982   5.616   2.159   4.078 -1.0848  0.0800 -0.2997
  384MOL0     H52983   5.580   2.074   4.223  1.2695  5.1378 -0.6852
  384MOL0     H52984   5.395   2.131   3.994 -0.8288  2.0065 -0.6198
  384MOL0     H52985   5.351   2.036   4.139  2.4653 -1.4478  0.7780
  384MOL0     H52986   5.271   2.275   4.142  1.0231 -1.2943 -3.3276
  384MOL0     H52987   5.429   2.337   4.122  0.4088  0.6432  0.7034
  384MOL0     H52988   5.440   2.200   4.531  0.9063 -0.6293  0.1458
  384MOL0     H52989   5.782   2.067   3.931  1.0090  0.0303  1.0286
  384MOL0     H52990   5.994   2.145   3.836  1.6084  0.8674 -0.2125
  384MOL0     H52991   6.040   1.978   3.848 -1.3580  0.4584  0.8321
  384MOL0     H52992   6.071   2.052   3.696 -0.8729 -3.2706 -1.4679
  385MOL0     O52993   4.488   1.385  10.793 -0.0473 -0.0194 -0.8624
  385MOL0     C52994   4.443   1.400  10.912  0.8021 -0.7411  0.7881
  385MOL0     O52995   4.436   1.305  11.009  0.5082  0.5911  0.0440
  385MOL0     C52996   4.466   1.183  10.980 -0.0548  0.1740 -0.6588
  385MOL0     C52997   4.553   1.108  11.061  0.1879 -0.1046  0.2799
  385MOL0     C52998   4.586   0.965  11.039  0.7196  0.3042 -0.0788
  385MOL0     C52999   4.543   0.907  10.926 -0.1492 -0.5137  0.7446
  385MOL0     O53000   4.581   0.779  10.907  0.4900  0.5283  0.5435
  385MOL0     C53001   4.498   0.686  10.840  0.5179 -0.8023  0.7581
  385MOL0     C53002   4.544   0.552  10.888 -0.5911  0.6325  0.5814
  385MOL0     C53003   4.527   0.440  10.783  0.4171  0.2601  0.0597
  385MOL0     C53004   4.578   0.306  10.842  0.5389 -0.3656  0.2543
  385MOL0     C53005   4.720   0.274  10.796  0.1305  0.1388 -0.4769
  385MOL0     C53006   4.782   0.141  10.861 -0.7727  0.6692 -0.8486
  385MOL0     C53007   4.855   0.174  10.992 -0.7829  0.3728  0.5459
  385MOL0     C53008   4.932   0.054  11.055 -0.3869 -0.4136 -0.6972
  385MOL0     N53009   5.039   0.010  10.963  0.1129 -0.3719 -0.0679
  385MOL0     C53010   5.140   0.098  10.914  0.3004  0.7485  0.0790
  385MOL0     C53011   5.216   0.013  10.849 -0.9253  0.6292  0.0577
  385MOL0     C53012   5.349   0.033  10.779  0.4720  0.2968 -0.5579
  385MOL0     C53013   5.436   0.120  10.865  0.4961  0.9541 -0.5117
  385MOL0     C53014   5.568   0.144  10.800  0.4516 -0.2364 -0.4762
  385MOL0     C53015   5.643   0.251  10.889  0.1428  0.1693  0.0601
  385MOL0     O53016   5.724   0.340  10.818  0.7519 -1.0561 -0.0803
  385MOL0     C53017   5.771   0.456  10.871 -0.5727  0.3539  0.2578
  385MOL0     C53018   5.828   0.537  10.772  0.5137 -0.4292 -0.6137
  385MOL0     C53019   5.883   0.664  10.821  0.9546  0.6187  0.1169
  385MOL0     C53020   5.930   0.767  10.725  0.0136 -0.6033  0.3443
  385MOL0     C53021   5.862   0.704  10.957 -1.1689  0.6984  0.8526
  385MOL0     C53022   5.881   0.834  11.015 -1.1480  0.0563 -1.0182
  385MOL0     O53023   5.822   0.929  10.947 -0.2150 -0.1060  0.5759
  385MOL0     C53024   5.830   1.057  10.982 -1.3263 -0.0751  0.2812
  385MOL0     C53025   5.807   1.116  11.111  0.2811  0.5896  0.6172
  385MOL0     C53026   5.805   1.254  11.119 -0.3156 -0.7666 -1.1758
  385MOL0     C53027   5.826   1.331  11.008 -0.5043 -0.1457  0.9381
  385MOL0     O53028   5.798   1.461  11.030 -0.1958  0.3231  0.5937
  385MOL0     C53029   5.835   1.559  10.928 -0.4373  0.4227 -0.4487
  385MOL0     C53030   5.825   1.711  10.972  0.0325  0.0427  0.3816
  385MOL0     C53031   5.675   1.740  11.002 -0.2089 -0.4314  0.1870
  385MOL0     C53032   5.592   1.810  10.891 -0.4003  0.5083 -0.7515
  385MOL0     C53033   5.470   1.885  10.949 -0.3184 -0.8172 -0.4697
  385MOL0     C53034   5.488   2.034  10.972  0.5101 -0.8582  0.4421
  385MOL0     C53035   5.581   2.090  11.074  0.2866  0.1388  0.0450
  385MOL0     C53036   5.590   2.237  11.056  0.2443 -0.0175  0.4442
  385MOL0    Cl53037   5.665   2.280  11.204 -0.4600 -0.1033 -0.2126
  385MOL0     C53038   5.846   1.276  10.876 -0.7377 -0.1686 -0.3895
  385MOL0     C53039   5.862   1.139  10.869 -0.6425  0.6479 -0.0257
  385MOL0     O53040   5.962   0.849  11.107  0.1368  0.2865 -0.0728
  385MOL0     C53041   5.819   0.611  11.051 -0.2525 -0.1163 -0.0726
  385MOL0     C53042   5.776   0.487  11.007  0.5124 -0.1179 -0.6636
  385MOL0     N53043   5.158  -0.112  10.835  0.0333 -0.2256 -1.1794
  385MOL0     N53044   5.044  -0.106  10.897  1.0829  0.1100  0.6432
  385MOL0     C53045   4.454   0.984  10.844 -0.6714  0.1813  0.3124
  385MOL0     C53046   4.412   1.115  10.871  0.0885  0.0722  0.7859
  385MOL0     C53047   4.384   1.532  10.947 -0.0245  0.1412  0.0980
  385MOL0     C53048   4.426   1.644  10.869  0.7353  0.7828  0.3687
  385MOL0     C53049   4.366   1.767  10.890 -0.2153  0.0326 -0.8010
  385MOL0     C53050   4.267   1.790  10.985 -0.5778  0.5421 -0.0590
  385MOL0     O53051   4.197   1.908  11.010 -0.6631 -0.3589 -0.3889
  385MOL0     C53052   4.241   2.027  10.954 -0.2327  0.5128 -0.5008
  385MOL0     C53053   4.145   2.134  10.993  0.2180  0.0080  0.5136
  385MOL0     C53054   4.001   2.106  10.955  0.1272  0.0266  0.0953
  385MOL0     C53055   3.916   2.235  10.994  0.0444  0.8977 -0.4465
  385MOL0     C53056   3.771   2.213  10.983  0.6685 -1.6514 -0.5945
  385MOL0     C53057   3.656   2.185  10.962  0.5908 -0.0775  0.9577
  385MOL0     C53058   4.220   1.678  11.055 -0.5457 -0.6419 -0.0068
  385MOL0     C53059   4.276   1.550  11.037  0.0432  0.6214 -0.3070
  385MOL0     C53060   4.219   1.428  11.115  0.2261 -0.7937  0.1728
  385MOL0     H53061   4.608   1.160  11.140 -2.7309  0.5194  2.0438
  385MOL0     H53062   4.657   0.920  11.108  2.8605  0.4046 -2.1120
  385MOL0     H53063   4.513   0.708  10.734  1.0047 -0.0681  0.9672
  385MOL0     H53064   4.390   0.698  10.849 -0.0053 -3.5646 -0.6740
  385MOL0     H53065   4.650   0.551  10.916  0.0789  0.7909 -1.7348
  385MOL0     H53066   4.483   0.526  10.974  0.1178 -0.4302  0.7790
  385MOL0     H53067   4.424   0.412  10.761  0.9475 -1.4896 -0.3179
  385MOL0     H53068   4.571   0.459  10.685 -1.7575 -0.6203 -1.1444
  385MOL0     H53069   4.586   0.317  10.951  1.9011  3.1402 -0.0611
  385MOL0     H53070   4.502   0.229  10.826 -1.0605  0.6080  2.6053
  385MOL0     H53071   4.782   0.362  10.816 -2.9328  3.1375 -2.9236
  385MOL0     H53072   4.713   0.259  10.688  2.5330  0.7166 -0.7768
  385MOL0     H53073   4.702   0.068  10.872 -0.7126  0.8619  1.3091
  385MOL0     H53074   4.856   0.088  10.801  2.4050  1.1247  2.3171
  385MOL0     H53075   4.782   0.203  11.069  0.4577  3.1563  0.8206
  385MOL0     H53076   4.909   0.268  10.974 -0.5953  0.1641  0.0310
  385MOL0     H53077   4.974   0.084  11.152 -0.3241 -1.5032 -0.3743
  385MOL0     H53078   4.856  -0.017  11.090 -2.6284  1.7788 -0.7740
  385MOL0     H53079   5.149   0.204  10.933  0.8263  0.6035  0.6671
  385MOL0     H53080   5.319   0.070  10.680 -2.5978  1.5994  0.7117
  385MOL0     H53081   5.402  -0.061  10.769  2.0531  0.6734  2.9140
  385MOL0     H53082   5.389   0.218  10.882  2.8250  2.0696 -0.0193
  385MOL0     H53083   5.451   0.070  10.961 -1.6587 -1.1386 -1.1685
  385MOL0     H53084   5.630   0.056  10.781 -0.3838 -0.6183 -1.5690
  385MOL0     H53085   5.547   0.201  10.709  3.6555  0.9893 -0.5670
  385MOL0     H53086   5.568   0.323  10.923  0.1318 -0.7137  2.0996
  385MOL0     H53087   5.695   0.204  10.973 -2.2633 -3.1160 -0.0641
  385MOL0     H53088   5.833   0.508  10.668  0.4647  1.2780 -1.1255
  385MOL0     H53089   6.001   0.840  10.763  0.2598  0.0033 -1.2375
  385MOL0     H53090   5.843   0.816  10.679  0.0755 -1.2172 -0.4513
  385MOL0     H53091   5.976   0.724  10.635 -2.2214  4.8459 -3.9544
  385MOL0     H53092   5.789   1.060  11.202 -1.9112 -3.2554 -1.9098
  385MOL0     H53093   5.788   1.297  11.217  1.6457 -0.8796 -0.7484
  385MOL0     H53094   5.935   1.540  10.889  0.2792  0.7224  1.1519
  385MOL0     H53095   5.761   1.550  10.848  0.1169 -1.2757 -0.7933
  385MOL0     H53096   5.887   1.739  11.057 -1.5246  2.7276  0.7524
  385MOL0     H53097   5.859   1.770  10.886  1.7199 -1.2853  0.0945
  385MOL0     H53098   5.672   1.809  11.086  1.6896 -0.6885  0.5155
  385MOL0     H53099   5.628   1.648  11.038 -0.9174 -0.0183  0.3323
  385MOL0     H53100   5.550   1.743  10.815 -2.0489  4.6000 -3.7894
  385MOL0     H53101   5.651   1.877  10.828  0.7443  0.8585  0.6440
  385MOL0     H53102   5.383   1.865  10.885 -0.6943 -0.0326 -0.2085
  385MOL0     H53103   5.468   1.835  11.046  1.3933  1.0667  0.6159
  385MOL0     H53104   5.394   2.088  10.980  0.4893 -0.7214 -0.5454
  385MOL0     H53105   5.517   2.068  10.872  0.2025 -1.4292  0.1565
  385MOL0     H53106   5.680   2.047  11.061  0.7599  1.7269 -2.3918
  385MOL0     H53107   5.543   2.067  11.174  0.4534  0.3247  0.1537
  385MOL0     H53108   5.492   2.284  11.051  0.4400  0.3142 -0.8587
  385MOL0     H53109   5.655   2.259  10.970  2.9347 -0.3143  2.2721
  385MOL0     H53110   5.858   1.334  10.785  0.8303  0.1527 -0.0067
  385MOL0     H53111   5.869   1.085  10.775 -1.9977  1.0116 -0.3477
  385MOL0     H53112   5.816   0.641  11.155  0.7975 -0.4187  0.0626
  385MOL0     H53113   5.725   0.419  11.075 -2.1052  0.1521 -2.2454
  385MOL0     H53114   4.412   0.926  10.762  0.2496  0.4300 -0.3457
  385MOL0     H53115   4.350   1.169  10.801  1.2022 -0.3199 -0.5450
  385MOL0     H53116   4.507   1.632  10.798  1.1431 -0.3835  1.0044
  385MOL0     H53117   4.411   1.850  10.837  1.6912  1.6980  3.0334
  385MOL0     H53118   4.345   2.055  10.973  0.4510 -2.2038  0.1467
  385MOL0     H53119   4.231   2.017  10.846  1.6419 -0.6856 -0.6040
  385MOL0     H53120   4.167   2.222  10.932 -2.0390  0.0145 -0.3839
  385MOL0     H53121   4.160   2.157  11.099 -0.5786  0.9167  0.4511
  385MOL0     H53122   3.996   2.073  10.851 -2.9212  1.3964 -0.3144
  385MOL0     H53123   3.978   2.019  11.018  1.0408 -1.1523 -1.1522
  385MOL0     H53124   3.944   2.316  10.925  0.3251  0.0863 -1.3044
  385MOL0     H53125   3.939   2.259  11.098  1.8939  2.7867 -1.2158
  385MOL0     H53126   3.556   2.166  10.928  1.1520  0.5652 -1.1723
  385MOL0     H53127   4.132   1.687  11.117  0.6921 -3.0049  2.2759
  385MOL0     H53128   4.131   1.458  11.173 -1.0080  0.2262 -2.0972
  385MOL0     H53129   4.184   1.357  11.039 -2.2885  1.8350 -1.3076
  385MOL0     H53130   4.298   1.390  11.180  0.8834  1.4494  0.7660
  386MOL0     O53131   1.056   9.162   7.880  0.2055  0.1205 -0.3316
  386MOL0     C53132   1.017   9.126   7.987 -0.1482 -0.5140 -0.3048
  386MOL0     O53133   0.883   9.077   8.001 -0.1175 -0.9526 -0.1278
  386MOL0     C53134   0.824   9.029   7.890  0.8684  0.0536  1.5505
  386MOL0     C53135   0.838   8.901   7.849  0.6716  0.2229  0.6461
  386MOL0     C53136   0.795   8.849   7.729 -0.2945 -0.4187  0.6467
  386MOL0     C53137   0.745   8.941   7.634  0.0245  0.0919 -0.0218
  386MOL0     O53138   0.747   8.917   7.499  0.2471  0.5050 -0.2691
  386MOL0     C53139   0.823   8.807   7.439 -0.5770 -0.1992  0.7556
  386MOL0     C53140   0.765   8.667   7.433 -0.6904 -0.2562  0.7391
  386MOL0     C53141   0.856   8.578   7.341 -0.3445  1.0418 -0.8005
  386MOL0     C53142   0.817   8.572   7.196  0.6146  0.1249  0.5302
  386MOL0     C53143   0.907   8.477   7.120  0.4295 -0.4811  0.8376
  386MOL0     C53144   0.894   8.502   6.972  0.2155 -0.4632 -0.1547
  386MOL0     C53145   1.002   8.421   6.890  0.0403 -0.3662 -0.6105
  386MOL0     C53146   1.035   8.452   6.742 -0.2718  0.5517  0.3564
  386MOL0     N53147   0.933   8.427   6.647  0.1484  1.2371  0.4384
  386MOL0     C53148   0.846   8.320   6.633 -0.2709 -0.8328 -0.7966
  386MOL0     C53149   0.781   8.355   6.519 -0.0118 -0.4365 -0.5828
  386MOL0     C53150   0.687   8.281   6.456 -0.7135 -0.1398  0.3105
  386MOL0     C53151   0.577   8.239   6.555  0.1378 -0.0457  0.2374
  386MOL0     C53152   0.517   8.354   6.634  0.3309  0.9909  0.3575
  386MOL0     C53153   0.504   8.328   6.790  0.1254 -0.2737 -0.1825
  386MOL0     O53154   0.466   8.450   6.858 -0.1085  0.4637 -0.5039
  386MOL0     C53155   0.453   8.441   6.999  0.6925 -0.5694  0.3582
  386MOL0     C53156   0.450   8.563   7.062  0.0785 -0.4415  0.8046
  386MOL0     C53157   0.424   8.567   7.202 -0.2853 -0.0973 -0.1077
  386MOL0     C53158   0.403   8.704   7.260 -0.1915 -0.3669  0.0571
  386MOL0     C53159   0.417   8.452   7.284 -0.9120 -0.0617 -0.3219
  386MOL0     C53160   0.399   8.450   7.433 -0.3138  0.2553 -1.0108
  386MOL0     O53161   0.428   8.566   7.506 -0.1880 -0.0449 -0.3380
  386MOL0     C53162   0.399   8.575   7.644 -0.1972 -0.4305  0.4078
  386MOL0     C53163   0.321   8.485   7.722  0.2117 -0.9963  0.3467
  386MOL0     C53164   0.338   8.478   7.853 -0.6086  0.5441 -0.7000
  386MOL0     C53165   0.423   8.569   7.927 -0.6517  0.4107  0.6731
  386MOL0     O53166   0.438   8.581   8.064 -1.0993  0.2005 -0.2536
  386MOL0     C53167   0.390   8.466   8.135 -0.6358 -0.2274 -0.1887
  386MOL0     C53168   0.412   8.508   8.285  0.0184  0.2399 -0.5169
  386MOL0     C53169   0.373   8.382   8.367  0.6043 -0.3636  0.0168
  386MOL0     C53170   0.488   8.276   8.364  0.1340  0.2256  0.3026
  386MOL0     C53171   0.462   8.188   8.479 -0.3434  1.4425 -0.7539
  386MOL0     C53172   0.331   8.114   8.462  0.1988  1.1114  0.3064
  386MOL0     C53173   0.335   8.002   8.570  0.4157  0.2064 -0.2805
  386MOL0     C53174   0.212   7.915   8.544  0.9473  0.7955 -0.0610
  386MOL0    Cl53175   0.180   7.830   8.383  0.0410  0.1457 -0.4474
  386MOL0     C53176   0.493   8.667   7.845  0.0391  0.5954 -0.5561
  386MOL0     C53177   0.488   8.666   7.707  0.6791  0.0928 -0.2070
  386MOL0     O53178   0.352   8.344   7.476  0.5964  0.0872  0.1358
  386MOL0     C53179   0.430   8.335   7.210 -0.1933  0.2803  0.0033
  386MOL0     C53180   0.445   8.325   7.069  0.6827  0.6302  0.2906
  386MOL0     N53181   0.823   8.470   6.471  0.3500 -0.6879  0.6526
  386MOL0     N53182   0.908   8.519   6.552  0.6535 -0.7625  0.0155
  386MOL0     C53183   0.713   9.073   7.678  0.0630 -0.4477  0.4623
  386MOL0     C53184   0.749   9.114   7.809 -0.5767  0.6969  0.3899
  386MOL0     C53185   1.087   9.187   8.097  0.6570  0.1508  0.1727
  386MOL0     C53186   1.223   9.236   8.078  0.5165  0.4881  0.2353
  386MOL0     C53187   1.280   9.307   8.174 -0.6330  0.4555  0.4204
  386MOL0     C53188   1.235   9.325   8.302  0.2368 -0.6945 -0.3383
  386MOL0     O53189   1.292   9.399   8.408  0.2969 -0.0955 -0.5811
  386MOL0     C53190   1.427   9.452   8.393 -0.1452  1.0071  0.5160
  386MOL0     C53191   1.417   9.579   8.303  0.0089 -0.4812  0.1395
  386MOL0     C53192   1.560   9.646   8.300 -0.2775  0.7064  0.9587
  386MOL0     C53193   1.679   9.554   8.241  0.2661 -0.1057 -0.1143
  386MOL0     C53194   1.627   9.499   8.109 -0.1898 -0.4375 -0.9579
  386MOL0     C53195   1.599   9.441   8.004  0.3763  0.1063  0.3405
  386MOL0     C53196   1.111   9.270   8.325  0.2143  0.2206 -0.5909
  386MOL0     C53197   1.031   9.207   8.227 -0.7553  0.9021 -0.1434
  386MOL0     C53198   0.885   9.188   8.263 -0.1628 -0.2642  0.5243
  386MOL0     H53199   0.900   8.837   7.910 -0.7270 -0.7248  1.1019
  386MOL0     H53200   0.822   8.745   7.710 -3.4662 -2.0902  4.0701
  386MOL0     H53201   0.912   8.792   7.501  1.3095  0.0440 -1.7222
  386MOL0     H53202   0.860   8.837   7.340  0.5817 -0.0369  1.2158
  386MOL0     H53203   0.740   8.628   7.532 -1.0454 -1.7448  0.1026
  386MOL0     H53204   0.665   8.675   7.389 -0.3035  1.5165  0.1283
  386MOL0     H53205   0.962   8.605   7.339  0.6885 -2.5467 -1.0056
  386MOL0     H53206   0.851   8.478   7.385 -0.7400  1.2587 -0.3479
  386MOL0     H53207   0.709   8.555   7.192  0.5962 -0.0306  1.4893
  386MOL0     H53208   0.830   8.670   7.150  0.2203 -0.6903 -1.4628
  386MOL0     H53209   0.877   8.377   7.154 -1.3276 -0.8791 -1.6571
  386MOL0     H53210   1.011   8.495   7.147  0.6854  2.7908 -1.7339
  386MOL0     H53211   0.795   8.462   6.947  0.2957 -1.3217  0.8100
  386MOL0     H53212   0.891   8.607   6.943  0.0238 -0.0099  1.4348
  386MOL0     H53213   0.992   8.313   6.902  2.5380 -0.4919  0.9603
  386MOL0     H53214   1.100   8.447   6.930  0.5700 -1.3179 -1.2584
  386MOL0     H53215   1.068   8.556   6.737 -1.8345  1.0163 -2.2078
  386MOL0     H53216   1.117   8.385   6.711  1.0241  0.6949  3.1919
  386MOL0     H53217   0.827   8.237   6.701 -2.4648  0.2922  0.0637
  386MOL0     H53218   0.740   8.201   6.403 -2.5577 -0.6901 -0.8194
  386MOL0     H53219   0.653   8.344   6.374  0.5241  1.2882  0.8663
  386MOL0     H53220   0.503   8.191   6.490 -0.3167 -0.7367  1.2560
  386MOL0     H53221   0.616   8.164   6.624  0.8725  0.2733  0.1794
  386MOL0     H53222   0.576   8.446   6.620  0.3559  0.5549 -3.4555
  386MOL0     H53223   0.419   8.382   6.595  0.8839  3.0244  0.2754
  386MOL0     H53224   0.428   8.250   6.797  1.0185 -1.0442  1.6221
  386MOL0     H53225   0.602   8.292   6.825  0.9446  2.7199  0.8706
  386MOL0     H53226   0.453   8.649   6.997  0.5107 -1.8984 -1.1763
  386MOL0     H53227   0.382   8.779   7.183  0.8622  1.2737  1.3008
  386MOL0     H53228   0.497   8.740   7.303  0.7760 -1.5070 -1.0281
  386MOL0     H53229   0.319   8.706   7.330 -1.5132 -0.9541 -1.4498
  386MOL0     H53230   0.260   8.413   7.666 -0.7569  1.5065 -2.0459
  386MOL0     H53231   0.285   8.394   7.896  0.6642 -0.9250 -1.9177
  386MOL0     H53232   0.283   8.458   8.114 -0.7392 -1.0700  0.6540
  386MOL0     H53233   0.441   8.373   8.108  1.5652  0.4779  1.2238
  386MOL0     H53234   0.511   8.540   8.316 -0.0486  1.8658 -1.8694
  386MOL0     H53235   0.346   8.594   8.304  1.4345  1.4037 -0.7418
  386MOL0     H53236   0.278   8.340   8.332  0.1975 -1.6741  2.4749
  386MOL0     H53237   0.349   8.422   8.466 -0.2884 -0.4645 -0.1478
  386MOL0     H53238   0.589   8.314   8.381  0.1959 -0.9973  3.1982
  386MOL0     H53239   0.470   8.228   8.267 -2.7081  1.1690  0.2736
  386MOL0     H53240   0.549   8.122   8.478 -1.6402 -0.3446  0.2872
  386MOL0     H53241   0.466   8.240   8.575  5.5745  0.2916  0.0272
  386MOL0     H53242   0.320   8.056   8.370 -0.7114 -0.6994  1.4941
  386MOL0     H53243   0.243   8.178   8.478  1.4251  3.0926 -0.5376
  386MOL0     H53244   0.347   8.045   8.670 -0.5966 -1.4326  0.5845
  386MOL0     H53245   0.422   7.936   8.567 -1.9915 -3.2757  0.0887
  386MOL0     H53246   0.127   7.978   8.570  1.0172 -0.2770  3.2480
  386MOL0     H53247   0.201   7.842   8.625 -2.2921  2.0501  0.8024
  386MOL0     H53248   0.551   8.743   7.898  0.9820  0.6072 -1.5699
  386MOL0     H53249   0.561   8.725   7.652  0.1584 -0.1561 -1.1800
  386MOL0     H53250   0.420   8.239   7.261  0.0128 -1.2143 -2.6015
  386MOL0     H53251   0.468   8.228   7.025 -0.8715 -0.4748  1.7867
  386MOL0     H53252   0.674   9.140   7.603 -0.6257  1.6848  2.5815
  386MOL0     H53253   0.750   9.216   7.847  1.6183  2.0338 -2.8268
  386MOL0     H53254   1.277   9.244   7.984  2.1736 -0.1436  1.0967
  386MOL0     H53255   1.375   9.355   8.152  0.9338 -1.9740  1.4672
  386MOL0     H53256   1.472   9.477   8.490  2.2715  1.5295 -0.6874
  386MOL0     H53257   1.493   9.379   8.347 -1.1648 -0.0610  0.6983
  386MOL0     H53258   1.351   9.650   8.353  4.2514  3.4938  0.7895
  386MOL0     H53259   1.384   9.565   8.199 -0.0556 -3.0732  0.4277
  386MOL0     H53260   1.555   9.746   8.256 -3.6749 -0.0675 -0.8316
  386MOL0     H53261   1.585   9.658   8.406 -0.3880 -1.3203  1.2574
  386MOL0     H53262   1.681   9.459   8.294 -0.8269  0.5266  1.1260
  386MOL0     H53263   1.783   9.588   8.238  0.9143 -2.0107 -0.2330
  386MOL0     H53264   1.571   9.409   7.905 -1.0914 -0.1241  0.7976
  386MOL0     H53265   1.078   9.275   8.428  2.3328  1.6273  0.0962
  386MOL0     H53266   0.864   9.081   8.265  1.7756 -0.7725 -2.0275
  386MOL0     H53267   0.857   9.238   8.357  2.0454  2.6105 -0.1916
  386MOL0     H53268   0.831   9.236   8.181 -0.1953  2.1209  1.8341
  387MOL0     O53269   1.260  10.827   7.656  0.2860  0.6917  0.3886
  387MOL0     C53270   1.306  10.735   7.587 -0.2912 -0.6486  0.1622
  387MOL0     O53271   1.286  10.714   7.452  0.6547 -0.5594 -0.9983
  387MOL0     C53272   1.227  10.820   7.379 -0.2790 -0.2482 -0.0312
  387MOL0     C53273   1.297  10.877   7.281  0.7615  0.2758  0.3588
  387MOL0     C53274   1.254  10.993   7.211  0.7157 -0.0049 -0.6590
  387MOL0     C53275   1.134  11.053   7.249  0.4564 -0.7822 -0.1988
  387MOL0     O53276   1.083  11.167   7.200  0.7310  0.1034 -0.7514
  387MOL0     C53277   1.136  11.231   7.087  0.6553 -0.8408  0.1642
  387MOL0     C53278   1.045  11.353   7.050  0.0648  0.8890 -0.1344
  387MOL0     C53279   1.043  11.385   6.904 -0.5824  0.1872 -0.2306
  387MOL0     C53280   0.922  11.457   6.856 -0.5690  0.3735  0.2763
  387MOL0     C53281   0.931  11.504   6.708 -0.2256  0.8818  0.5269
  387MOL0     C53282   0.945  11.388   6.608  0.3639  0.6754  0.6614
  387MOL0     C53283   0.951  11.442   6.460 -0.3059 -0.1482 -0.3829
  387MOL0     C53284   1.004  11.346   6.350  0.1740 -0.0078 -0.0070
  387MOL0     N53285   0.991  11.399   6.210  0.7076 -0.0195  0.1468
  387MOL0     C53286   1.095  11.412   6.123 -0.1819 -0.3067  0.1242
  387MOL0     C53287   1.039  11.454   6.011  0.6864  0.0855  0.5324
  387MOL0     C53288   1.111  11.504   5.887  0.7647 -0.6852 -0.2700
  387MOL0     C53289   1.082  11.656   5.866 -0.7566 -0.2035  0.2279
  387MOL0     C53290   1.179  11.730   5.759 -0.3037 -0.8915 -1.1685
  387MOL0     C53291   1.329  11.723   5.775 -0.1576 -0.5923 -0.3946
  387MOL0     O53292   1.368  11.785   5.897 -0.9948 -0.0360  0.5161
  387MOL0     C53293   1.502  11.772   5.929  0.6441 -0.2968 -0.2812
  387MOL0     C53294   1.542  11.714   6.046 -0.1849 -0.7783 -0.8081
  387MOL0     C53295   1.677  11.704   6.082 -0.6191  0.2197  0.3498
  387MOL0     C53296   1.711  11.643   6.215 -0.5080 -0.0096  0.0909
  387MOL0     C53297   1.778  11.756   6.001 -0.2754  0.3815  0.2087
  387MOL0     C53298   1.922  11.736   6.017  0.5412 -0.0539 -0.5016
  387MOL0     O53299   2.001  11.834   6.078  0.0157  0.1050  0.0219
  387MOL0     C53300   2.126  11.796   6.114  0.5471 -0.4291  0.6888
  387MOL0     C53301   2.235  11.870   6.059 -0.4356  0.0191  0.1799
  387MOL0     C53302   2.368  11.835   6.093 -0.3864  0.4021  0.4438
  387MOL0     C53303   2.392  11.737   6.193  0.0969  0.7281  0.0049
  387MOL0     O53304   2.516  11.681   6.216  0.1228  0.2434 -0.2497
  387MOL0     C53305   2.631  11.766   6.241  0.4852  0.8197 -0.8882
  387MOL0     C53306   2.698  11.724   6.371 -0.0858 -1.0007 -0.4232
  387MOL0     C53307   2.733  11.582   6.394  0.0277  0.1897  0.4610
  387MOL0     C53308   2.768  11.577   6.545 -0.1251  0.4372  0.4401
  387MOL0     C53309   2.821  11.449   6.608  0.1002  0.4822  0.9338
  387MOL0     C53310   2.844  11.467   6.761 -0.0404 -0.5609 -0.3859
  387MOL0     C53311   2.943  11.587   6.806  0.1827 -0.0630  0.1380
  387MOL0     C53312   2.958  11.591   6.953  0.1516  0.7757  0.2186
  387MOL0    Cl53313   3.071  11.716   7.021 -0.1369  0.0947 -0.2504
  387MOL0     C53314   2.284  11.676   6.250  0.1343 -0.1831  0.4320
  387MOL0     C53315   2.150  11.698   6.213  0.6678  0.4793  0.2831
  387MOL0     O53316   1.969  11.626   5.974  0.5083 -0.2449 -0.2287
  387MOL0     C53317   1.736  11.827   5.884 -0.5252  0.1285 -0.5882
  387MOL0     C53318   1.600  11.835   5.861 -0.4589  0.0911  0.5846
  387MOL0     N53319   0.904  11.467   6.026  0.2351  0.0013 -0.2087
  387MOL0     N53320   0.879  11.443   6.151 -0.0430  0.0721  0.7409
  387MOL0     C53321   1.059  10.982   7.345 -0.4571 -0.1416  1.6500
  387MOL0     C53322   1.104  10.869   7.408 -0.6191  0.4639 -0.1999
  387MOL0     C53323   1.355  10.617   7.655  0.2878 -1.0670 -0.5752
  387MOL0     C53324   1.273  10.569   7.751 -0.9119  0.2327 -1.1689
  387MOL0     C53325   1.315  10.450   7.815  0.2613  0.0463 -0.0193
  387MOL0     C53326   1.441  10.389   7.798 -0.3873 -0.4513 -0.0079
  387MOL0     O53327   1.478  10.261   7.832  0.1269  0.4128 -0.1472
  387MOL0     C53328   1.403  10.186   7.923  0.7453  0.1216 -0.1033
  387MOL0     C53329   1.459  10.048   7.949  0.0434  0.7302 -0.0361
  387MOL0     C53330   1.617  10.050   7.975 -0.0314  0.5408 -0.1246
  387MOL0     C53331   1.670   9.938   8.071  0.1270  0.7388 -0.3842
  387MOL0     C53332   1.803   9.965   8.113 -0.2423 -0.8112  0.7334
  387MOL0     C53333   1.911   9.991   8.158  0.5210 -0.4120  0.1651
  387MOL0     C53334   1.524  10.448   7.709  0.1834 -0.0292 -0.9205
  387MOL0     C53335   1.481  10.562   7.638 -0.8406 -0.3763 -1.0769
  387MOL0     C53336   1.580  10.619   7.540  0.1667 -0.3970  0.1920
  387MOL0     H53337   1.387  10.825   7.248 -1.2992 -2.6899 -1.0923
  387MOL0     H53338   1.315  11.025   7.126  3.0981 -3.4207 -0.4431
  387MOL0     H53339   1.135  11.170   6.996  3.3551  0.7680 -1.0761
  387MOL0     H53340   1.238  11.264   7.107  0.6766  2.0422 -3.5115
  387MOL0     H53341   0.943  11.322   7.075 -0.7518  2.5958 -1.1491
  387MOL0     H53342   1.068  11.443   7.107 -0.8729  1.7605 -1.0769
  387MOL0     H53343   1.131  11.450   6.895 -0.3685  0.1568  1.3827
  387MOL0     H53344   1.045  11.296   6.840  1.2335 -0.0382  0.0783
  387MOL0     H53345   0.836  11.390   6.864 -2.1101  2.3548  1.2963
  387MOL0     H53346   0.916  11.550   6.913  2.2581  1.5012 -1.1064
  387MOL0     H53347   1.027  11.557   6.701 -0.3057  0.8467 -1.5318
  387MOL0     H53348   0.852  11.576   6.687  0.8848  1.2122 -3.3632
  387MOL0     H53349   1.037  11.332   6.627 -0.2052  0.1388  1.9869
  387MOL0     H53350   0.860  11.320   6.621  0.7742 -0.5238 -2.2565
  387MOL0     H53351   1.009  11.534   6.450 -0.9005  0.0237 -2.9163
  387MOL0     H53352   0.852  11.479   6.435  1.0597  2.8390 -1.8400
  387MOL0     H53353   1.108  11.315   6.363 -0.1004  0.2961  5.3578
  387MOL0     H53354   0.945  11.253   6.349  0.9908 -0.5364 -0.0896
  387MOL0     H53355   1.201  11.395   6.140 -0.1149  0.3419  0.3790
  387MOL0     H53356   1.082  11.446   5.799 -0.3276 -0.3718 -0.1306
  387MOL0     H53357   1.218  11.493   5.910  0.3152 -1.8446  1.4744
  387MOL0     H53358   0.981  11.658   5.824 -0.7913  0.3948  0.3372
  387MOL0     H53359   1.092  11.714   5.958  0.0853 -3.0828  2.0959
  387MOL0     H53360   1.151  11.687   5.663  1.5035  1.2419 -2.7657
  387MOL0     H53361   1.140  11.832   5.766 -1.1744 -1.3220  0.8620
  387MOL0     H53362   1.359  11.619   5.758  1.0716 -0.2957 -0.1341
  387MOL0     H53363   1.374  11.778   5.691 -2.7068 -0.9175 -2.1073
  387MOL0     H53364   1.463  11.685   6.115 -0.1515  0.6549 -0.1379
  387MOL0     H53365   1.768  11.550   6.213  3.5677  2.0874  3.0856
  387MOL0     H53366   1.621  11.621   6.274 -0.4676 -1.5622 -0.3747
  387MOL0     H53367   1.768  11.729   6.252 -0.8994  0.5708 -0.6275
  387MOL0     H53368   2.220  11.946   5.983 -0.6203 -0.6228 -0.4382
  387MOL0     H53369   2.448  11.874   6.031 -0.9145  2.2109  0.8363
  387MOL0     H53370   2.704  11.750   6.161 -0.1212 -1.5960 -1.0327
  387MOL0     H53371   2.619  11.874   6.254  3.3269  0.9603  1.5683
  387MOL0     H53372   2.793  11.778   6.377  0.3519 -1.8620  0.7139
  387MOL0     H53373   2.649  11.771   6.457  1.3744  1.7456 -0.9725
  387MOL0     H53374   2.821  11.565   6.331 -0.7125 -0.1631 -0.5084
  387MOL0     H53375   2.649  11.512   6.382  0.1003  0.3351 -1.1338
  387MOL0     H53376   2.679  11.605   6.603  0.1943  0.0384  1.1298
  387MOL0     H53377   2.840  11.658   6.563 -1.5385  1.2133  3.3190
  387MOL0     H53378   2.744  11.372   6.600  0.3719  0.3965 -2.2855
  387MOL0     H53379   2.910  11.416   6.553 -0.2463  2.1881 -0.7453
  387MOL0     H53380   2.890  11.373   6.793  2.2312  0.7933  0.6234
  387MOL0     H53381   2.749  11.470   6.815 -0.0199  0.3556 -0.3964
  387MOL0     H53382   2.914  11.688   6.776  1.5829 -0.2148 -1.9427
  387MOL0     H53383   3.033  11.559   6.750  0.8713  0.7291  0.8376
  387MOL0     H53384   2.991  11.492   6.986 -1.2173  0.2204 -0.0349
  387MOL0     H53385   2.858  11.590   6.997 -0.7876 -0.9721 -1.7743
  387MOL0     H53386   2.301  11.599   6.324  1.6372 -0.1736  0.1329
  387MOL0     H53387   2.067  11.658   6.270 -0.7026  1.9174 -0.5919
  387MOL0     H53388   1.810  11.877   5.823  0.3418  2.0476  1.8602
  387MOL0     H53389   1.568  11.893   5.775  0.5763  1.2592  0.9612
  387MOL0     H53390   0.969  11.030   7.382  0.0372  0.9242  1.5143
  387MOL0     H53391   1.059  10.819   7.493 -0.1219 -0.8440 -0.6800
  387MOL0     H53392   1.180  10.619   7.774  0.3651  1.6070  1.3641
  387MOL0     H53393   1.239  10.413   7.883  2.4941  2.0603  3.9603
  387MOL0     H53394   1.393  10.236   8.020  0.7015 -0.4173  0.1720
  387MOL0     H53395   1.303  10.176   7.879  1.4906 -1.0348 -1.6175
  387MOL0     H53396   1.446   9.990   7.858  0.3542  0.7898 -0.1211
  387MOL0     H53397   1.404  10.000   8.030  2.4531 -1.9845  0.1408
  387MOL0     H53398   1.672  10.046   7.880 -0.2443 -2.6307 -0.2167
  387MOL0     H53399   1.641  10.148   8.016 -1.1823 -0.0443  2.0957
  387MOL0     H53400   1.670   9.841   8.020  1.6140 -0.3042  1.4555
  387MOL0     H53401   1.597   9.941   8.152 -0.9548 -1.7317 -1.1562
  387MOL0     H53402   2.014  10.003   8.182  0.6942 -2.0925  0.3646
  387MOL0     H53403   1.625  10.411   7.695  1.9646  3.0277  2.2789
  387MOL0     H53404   1.668  10.658   7.591 -1.5217  1.4737  1.8430
  387MOL0     H53405   1.621  10.540   7.476 -0.1177  2.0080 -3.1812
  387MOL0     H53406   1.537  10.703   7.484 -1.9344  1.9315  4.7373
  388MOL0     O53407   3.090   6.458   0.620 -0.3275 -0.8194  0.2002
  388MOL0     C53408   3.174   6.515   0.685  0.3170 -0.7405 -1.0282
  388MOL0     O53409   3.211   6.475   0.806  0.6068  0.4095  0.0950
  388MOL0     C53410   3.161   6.359   0.859  0.3869 -0.0986 -0.7168
  388MOL0     C53411   3.249   6.260   0.898  0.3556  0.3657  0.0823
  388MOL0     C53412   3.206   6.136   0.949  0.0872 -0.3951 -0.7406
  388MOL0     C53413   3.066   6.110   0.950  0.4363 -0.1835  0.6834
  388MOL0     O53414   3.014   5.980   0.974  0.1250  0.4604 -0.3079
  388MOL0     C53415   3.085   5.910   1.079  0.0466  0.0453 -0.3509
  388MOL0     C53416   2.980   5.822   1.144  0.7123  0.0161 -0.7400
  388MOL0     C53417   2.948   5.703   1.062  0.1025  0.4034 -0.0253
  388MOL0     C53418   2.880   5.589   1.135 -1.2396 -0.8710  0.0238
  388MOL0     C53419   2.968   5.526   1.241  0.1967  0.2027  0.5327
  388MOL0     C53420   2.903   5.412   1.320 -0.1653  1.6977  0.4231
  388MOL0     C53421   2.804   5.445   1.430  0.0434 -0.1486  0.5657
  388MOL0     C53422   2.764   5.324   1.513 -0.7581  0.4140  0.1540
  388MOL0     N53423   2.866   5.311   1.621  0.1351 -1.0031  0.0468
  388MOL0     C53424   2.868   5.391   1.734  0.9617  0.1825  1.5540
  388MOL0     C53425   2.973   5.343   1.811  0.3187  0.4400 -0.3637
  388MOL0     C53426   3.040   5.391   1.935  1.1079 -0.2313  0.0331
  388MOL0     C53427   2.982   5.526   1.981 -0.5504  0.8481  0.1395
  388MOL0     C53428   3.056   5.582   2.101 -0.9609 -0.9464 -0.1452
  388MOL0     C53429   3.000   5.722   2.139  0.4471  0.5956 -0.5907
  388MOL0     O53430   3.063   5.826   2.074 -0.0646  0.0072  0.6841
  388MOL0     C53431   3.131   5.911   2.161  0.5260  0.2917  0.3035
  388MOL0     C53432   3.273   5.903   2.161  0.2156 -0.2891 -0.1509
  388MOL0     C53433   3.346   5.995   2.244 -0.2490  0.7212  0.1652
  388MOL0     C53434   3.498   5.989   2.232 -0.0787 -0.2762  0.3689
  388MOL0     C53435   3.282   6.090   2.334 -0.3896 -0.1274 -1.5484
  388MOL0     C53436   3.345   6.193   2.422 -0.4630  0.0889 -0.2257
  388MOL0     O53437   3.272   6.298   2.468 -0.4579  1.1222  0.3550
  388MOL0     C53438   3.353   6.407   2.500 -0.2752  0.3810 -0.9130
  388MOL0     C53439   3.343   6.523   2.419  0.3451  1.4408  0.2224
  388MOL0     C53440   3.414   6.635   2.457  0.1437 -0.6748 -0.4683
  388MOL0     C53441   3.503   6.634   2.571  0.0103 -0.4651 -0.0472
  388MOL0     O53442   3.591   6.735   2.607 -0.2800 -0.1314  0.1186
  388MOL0     C53443   3.552   6.869   2.577  0.2642  0.7842  0.4844
  388MOL0     C53444   3.626   6.977   2.657 -0.7811  0.6052  0.2191
  388MOL0     C53445   3.601   7.125   2.621 -0.3534  0.6402 -0.4063
  388MOL0     C53446   3.719   7.205   2.685 -0.1060 -0.5393  1.2165
  388MOL0     C53447   3.692   7.350   2.721 -0.8897 -0.7606  0.4546
  388MOL0     C53448   3.668   7.436   2.593 -0.5732 -0.3302  0.3812
  388MOL0     C53449   3.587   7.566   2.630  0.2786 -0.2926 -1.1803
  388MOL0     C53450   3.567   7.650   2.501 -0.1731 -1.2045 -0.3217
  388MOL0    Cl53451   3.449   7.777   2.522  0.3298  0.5845 -0.2853
  388MOL0     C53452   3.514   6.521   2.645 -0.0761  0.1046 -0.7900
  388MOL0     C53453   3.432   6.407   2.617  0.3082 -0.1932  0.1234
  388MOL0     O53454   3.463   6.174   2.453  0.5282 -0.0316 -0.1265
  388MOL0     C53455   3.143   6.071   2.340  0.3038 -0.8996  1.1760
  388MOL0     C53456   3.062   5.982   2.258  0.6274 -0.2007  0.5392
  388MOL0     N53457   3.030   5.246   1.736 -0.7049 -0.1148 -0.5896
  388MOL0     N53458   2.979   5.236   1.624  0.3874  0.2763  0.1746
  388MOL0     C53459   2.977   6.209   0.918  0.9694  0.1026 -0.1558
  388MOL0     C53460   3.021   6.332   0.881 -0.3478 -0.2273 -0.4505
  388MOL0     C53461   3.240   6.636   0.627  0.6623  0.2341 -0.1105
  388MOL0     C53462   3.382   6.653   0.638  0.4098 -0.0521 -0.5076
  388MOL0     C53463   3.447   6.748   0.571  0.1803 -0.8082 -0.5962
  388MOL0     C53464   3.378   6.829   0.486  0.6756 -0.7273  0.3486
  388MOL0     O53465   3.460   6.917   0.416 -0.3622 -0.0092  0.7149
  388MOL0     C53466   3.411   6.953   0.285  0.4153 -0.4240  0.1643
  388MOL0     C53467   3.526   7.037   0.229  0.8351  0.1408 -0.2612
  388MOL0     C53468   3.657   6.968   0.197 -0.9342  0.7139 -1.2275
  388MOL0     C53469   3.667   6.930   0.048  1.0616  0.4284 -0.1843
  388MOL0     C53470   3.564   6.839  -0.014  0.4735 -0.2014 -0.8810
  388MOL0     C53471   3.476   6.763  -0.050 -0.5479  0.2499 -0.4894
  388MOL0     C53472   3.239   6.813   0.465  0.2102  0.6564 -0.0578
  388MOL0     C53473   3.171   6.722   0.540 -0.1711 -0.3014 -0.3317
  388MOL0     C53474   3.022   6.729   0.514  0.1048 -0.5147 -0.2078
  388MOL0     H53475   3.356   6.274   0.891  0.6575 -1.4045  0.5052
  388MOL0     H53476   3.269   6.055   0.984 -1.0651 -0.7286  0.6462
  388MOL0     H53477   3.135   5.968   1.157 -0.0570 -1.8691  1.2139
  388MOL0     H53478   3.156   5.845   1.028 -0.9054 -0.7083 -0.7293
  388MOL0     H53479   3.021   5.792   1.241  2.1630  0.6016 -1.1520
  388MOL0     H53480   2.895   5.889   1.164  0.0679 -0.2431 -2.4758
  388MOL0     H53481   2.882   5.729   0.979 -3.6273  0.9153  2.8020
  388MOL0     H53482   3.040   5.664   1.018  0.0950 -0.6594  0.8654
  388MOL0     H53483   2.781   5.615   1.174 -0.1620 -0.9687  3.0730
  388MOL0     H53484   2.862   5.507   1.064 -1.2717 -0.6249 -0.2545
  388MOL0     H53485   3.011   5.598   1.310 -0.9430  0.4142  1.0387
  388MOL0     H53486   3.062   5.482   1.205  0.4524  0.6814  0.6107
  388MOL0     H53487   2.852   5.347   1.249  0.5501  0.1085  1.3135
  388MOL0     H53488   2.988   5.355   1.358 -2.3193  1.4221  5.7357
  388MOL0     H53489   2.711   5.482   1.385 -0.2068  2.0612  2.6921
  388MOL0     H53490   2.843   5.524   1.495 -0.2627 -1.7317  2.8119
  388MOL0     H53491   2.668   5.342   1.562 -1.3784  1.7324 -1.4656
  388MOL0     H53492   2.755   5.239   1.444  1.1308  0.7046 -0.4946
  388MOL0     H53493   2.798   5.473   1.746 -2.5016 -2.5958  2.0228
  388MOL0     H53494   3.148   5.391   1.917  1.1459 -3.0004 -0.2225
  388MOL0     H53495   3.020   5.313   2.010  3.5268 -0.3857  0.6074
  388MOL0     H53496   3.003   5.605   1.908 -0.4460  1.0402  0.3804
  388MOL0     H53497   2.874   5.524   2.001 -0.5407  2.0632  0.3800
  388MOL0     H53498   3.035   5.511   2.182 -0.1771 -2.3803 -1.1613
  388MOL0     H53499   3.163   5.600   2.087 -0.9395  0.8333  1.8150
  388MOL0     H53500   2.893   5.719   2.115  0.6231 -0.1171 -1.3547
  388MOL0     H53501   3.017   5.739   2.245  0.1625  1.7143 -0.7159
  388MOL0     H53502   3.320   5.837   2.088 -0.0624  2.6017 -3.2030
  388MOL0     H53503   3.529   5.960   2.131 -2.6863 -0.5798 -0.4030
  388MOL0     H53504   3.540   5.909   2.293  2.4612  1.7641  1.5178
  388MOL0     H53505   3.543   6.089   2.241  1.0935 -0.8015  0.4694
  388MOL0     H53506   3.275   6.531   2.334 -1.5573 -0.7219  1.3847
  388MOL0     H53507   3.419   6.725   2.397  2.1930 -0.3773  0.0886
  388MOL0     H53508   3.561   6.892   2.471  5.0897  3.1639  1.0901
  388MOL0     H53509   3.445   6.869   2.598  0.3443  1.2825  0.9174
  388MOL0     H53510   3.603   6.961   2.763 -2.0616  2.5124  0.2692
  388MOL0     H53511   3.732   6.955   2.643 -0.4792  0.7628  1.9853
  388MOL0     H53512   3.514   7.168   2.672 -0.9727 -0.0810 -0.8179
  388MOL0     H53513   3.585   7.144   2.514  1.1170 -0.8290 -0.9284
  388MOL0     H53514   3.801   7.208   2.611 -1.3471  2.0617 -0.1970
  388MOL0     H53515   3.755   7.158   2.777 -1.3014 -0.3344  1.8022
  388MOL0     H53516   3.613   7.351   2.797  1.0058  0.8165  2.5485
  388MOL0     H53517   3.785   7.390   2.764 -1.5444 -0.1296  1.3370
  388MOL0     H53518   3.603   7.380   2.525 -1.5941 -1.0659  1.9013
  388MOL0     H53519   3.765   7.451   2.545 -1.3657 -1.0807 -1.5587
  388MOL0     H53520   3.646   7.620   2.704  1.5044 -0.1550 -2.2093
  388MOL0     H53521   3.491   7.552   2.680  1.3733  1.9550  1.8465
  388MOL0     H53522   3.519   7.575   2.438 -4.6049  0.6872  0.4237
  388MOL0     H53523   3.651   7.702   2.455 -0.6968 -1.1061 -1.1773
  388MOL0     H53524   3.572   6.530   2.736 -2.8306  2.3285  0.9144
  388MOL0     H53525   3.431   6.314   2.673 -0.9081  0.2057  0.8090
  388MOL0     H53526   3.094   6.125   2.421  0.8512  0.6115  0.5454
  388MOL0     H53527   2.954   5.997   2.261  0.8935  4.9366 -2.8899
  388MOL0     H53528   2.872   6.195   0.937  1.1387  0.9696  1.6931
  388MOL0     H53529   2.944   6.400   0.848 -1.3762  0.1946  2.5248
  388MOL0     H53530   3.439   6.606   0.717  1.8516 -0.5040 -1.7608
  388MOL0     H53531   3.551   6.748   0.602  0.0671 -1.7960 -0.1842
  388MOL0     H53532   3.389   6.867   0.221 -1.0117  0.3552 -0.4385
  388MOL0     H53533   3.320   7.012   0.294  1.8062  2.0944 -1.3418
  388MOL0     H53534   3.548   7.125   0.291 -0.6864  0.3086  0.0675
  388MOL0     H53535   3.485   7.078   0.137  0.5761  1.7377  0.5315
  388MOL0     H53536   3.735   7.035   0.235 -1.5453  1.2007 -0.8118
  388MOL0     H53537   3.672   6.881   0.262  1.8195  1.8366 -0.1868
  388MOL0     H53538   3.763   6.883   0.029  0.3103 -0.6001 -1.6509
  388MOL0     H53539   3.669   7.019  -0.014  1.5197  0.6093  0.0872
  388MOL0     H53540   3.398   6.694  -0.075 -0.1511  0.7991 -3.7041
  388MOL0     H53541   3.190   6.881   0.395 -0.9801 -3.0140 -3.0952
  388MOL0     H53542   2.973   6.704   0.608  1.6173 -1.9440  0.2541
  388MOL0     H53543   2.997   6.829   0.478  2.9509  0.5218  0.4527
  388MOL0     H53544   2.989   6.652   0.443 -1.3737  1.8959 -2.2792
  389MOL0     O53545  10.810   5.394   3.373 -0.5121 -0.6170 -0.5685
  389MOL0     C53546  10.891   5.370   3.463 -0.3282  0.0906 -0.2044
  389MOL0     O53547  10.904   5.246   3.514 -0.2025 -0.0527  0.3507
  389MOL0     C53548  10.840   5.136   3.464  0.1390 -0.2158  0.2204
  389MOL0     C53549  10.914   5.042   3.391 -0.4902  0.2139 -0.3219
  389MOL0     C53550  10.839   4.959   3.303 -0.6691  0.2248 -0.1275
  389MOL0     C53551  10.698   4.962   3.304 -0.8588 -0.8042  0.1554
  389MOL0     O53552  10.648   4.875   3.215  0.1748  0.0443  0.0410
  389MOL0     C53553  10.517   4.816   3.251  0.2753  0.8489  0.2816
  389MOL0     C53554  10.480   4.730   3.128 -0.0407  1.0330 -0.4033
  389MOL0     C53555  10.343   4.653   3.154 -0.0341 -1.0573  0.2176
  389MOL0     C53556  10.291   4.572   3.034  0.3435 -0.2932 -0.5051
  389MOL0     C53557  10.152   4.507   3.068  0.6803 -0.0847  0.3325
  389MOL0     C53558  10.108   4.419   2.948  1.2040  0.7743  0.2311
  389MOL0     C53559   9.973   4.336   2.982  0.2341  0.9636 -0.2349
  389MOL0     C53560   9.998   4.196   3.056  0.3597 -0.6764 -0.3599
  389MOL0     N53561  10.095   4.118   2.980 -0.9297  1.2284 -0.3622
  389MOL0     C53562  10.217   4.067   3.025  0.0624 -0.6990 -0.2546
  389MOL0     C53563  10.261   3.980   2.934  0.2227  0.5789 -0.1087
  389MOL0     C53564  10.391   3.911   2.930 -0.1180 -0.5213  1.1014
  389MOL0     C53565  10.372   3.765   2.931 -0.6966  0.8054  0.2448
  389MOL0     C53566  10.270   3.708   3.029 -0.5298  0.4523 -0.3169
  389MOL0     C53567  10.282   3.756   3.178  0.1272 -0.5714 -0.2558
  389MOL0     O53568  10.164   3.706   3.238  0.0573 -0.7123 -0.5573
  389MOL0     C53569  10.176   3.599   3.327 -1.1270  0.9467 -0.6303
  389MOL0     C53570  10.069   3.559   3.409  0.0578  1.0390  0.3411
  389MOL0     C53571  10.073   3.450   3.505 -0.5705  0.2353  0.2035
  389MOL0     C53572   9.956   3.433   3.595 -1.2454  0.6211 -0.2771
  389MOL0     C53573  10.193   3.384   3.520 -0.0834  0.2631 -0.3383
  389MOL0     C53574  10.219   3.271   3.614 -1.2182 -0.4848 -0.5462
  389MOL0     O53575  10.330   3.198   3.592 -0.2577 -0.8435 -0.1259
  389MOL0     C53576  10.363   3.084   3.658 -0.4380 -0.3455 -0.8464
  389MOL0     C53577  10.375   2.965   3.592 -0.6135  0.1325  0.1520
  389MOL0     C53578  10.407   2.845   3.658  0.3852 -0.1807 -0.3371
  389MOL0     C53579  10.419   2.839   3.794 -0.1689 -0.2826  0.4318
  389MOL0     O53580  10.450   2.722   3.853 -0.3999  0.2664 -0.1108
  389MOL0     C53581  10.349   2.622   3.837 -0.3729  0.4287 -0.0105
  389MOL0     C53582  10.392   2.489   3.885 -0.8379 -0.4552  0.5493
  389MOL0     C53583  10.504   2.422   3.806  0.4114 -0.7794  0.0951
  389MOL0     C53584  10.459   2.381   3.665 -0.2485  0.5535 -1.0359
  389MOL0     C53585  10.555   2.277   3.597  0.2011 -0.2434  0.5992
  389MOL0     C53586  10.518   2.263   3.447 -0.2308 -0.8545  1.0719
  389MOL0     C53587  10.611   2.170   3.377  0.0975  0.4564 -0.2561
  389MOL0     C53588  10.591   2.139   3.227  0.6506  0.1515  0.7272
  389MOL0    Cl53589  10.428   2.066   3.211  0.1409  0.1115 -0.4782
  389MOL0     C53590  10.428   2.968   3.862  0.4215  1.4471  0.1066
  389MOL0     C53591  10.403   3.085   3.790  0.2073 -0.3415 -0.4321
  389MOL0     O53592  10.153   3.256   3.722  0.7601 -1.3993 -0.1301
  389MOL0     C53593  10.295   3.409   3.419 -0.7093  0.3531  0.5975
  389MOL0     C53594  10.284   3.509   3.326  0.5292  0.8506 -0.3407
  389MOL0     N53595  10.172   3.989   2.834 -0.4594  0.5475 -0.0419
  389MOL0     N53596  10.061   4.050   2.864 -0.0156 -1.0444 -0.6964
  389MOL0     C53597  10.633   5.047   3.381  0.9974  0.6103 -0.2199
  389MOL0     C53598  10.701   5.137   3.463 -0.2623  0.6745  0.1126
  389MOL0     C53599  10.957   5.494   3.519 -0.8342  0.7343 -0.7584
  389MOL0     C53600  11.009   5.585   3.424  0.0501 -0.5952  0.2515
  389MOL0     C53601  11.092   5.687   3.461  0.1551 -0.5992 -0.3299
  389MOL0     C53602  11.116   5.716   3.603  0.9082  0.6576 -0.0060
  389MOL0     O53603  11.203   5.827   3.625 -0.0878 -0.1211  0.6174
  389MOL0     C53604  11.273   5.832   3.750 -0.3370  0.6089 -0.4810
  389MOL0     C53605  11.375   5.726   3.745  0.2966 -0.1490 -0.0491
  389MOL0     C53606  11.483   5.771   3.639  0.8527 -0.3125 -0.1390
  389MOL0     C53607  11.607   5.791   3.709 -0.1280  0.1335  0.6361
  389MOL0     C53608  11.711   5.864   3.635 -0.1912 -0.6454 -0.1639
  389MOL0     C53609  11.796   5.938   3.578  0.3345  0.6388 -0.1387
  389MOL0     C53610  11.046   5.634   3.692 -0.0446 -0.1330 -0.3648
  389MOL0     C53611  10.972   5.520   3.659 -0.0324 -0.2487 -0.0833
  389MOL0     C53612  10.932   5.413   3.766 -0.7233 -0.1173 -0.2748
  389MOL0     H53613  11.022   5.054   3.386 -0.6410  1.4804 -0.9087
  389MOL0     H53614  10.894   4.892   3.238  0.8206  1.5456 -0.2820
  389MOL0     H53615  10.440   4.890   3.278 -0.7436 -1.3896  4.4072
  389MOL0     H53616  10.539   4.755   3.339 -0.3015 -1.5002 -1.1289
  389MOL0     H53617  10.476   4.799   3.043  3.1925  0.6555 -0.9902
  389MOL0     H53618  10.551   4.648   3.111 -1.3984 -0.7082  1.6565
  389MOL0     H53619  10.350   4.591   3.244 -0.1932 -0.4843  0.6348
  389MOL0     H53620  10.266   4.727   3.178 -0.2911 -1.8732  2.0915
  389MOL0     H53621  10.288   4.623   2.937  1.7590 -1.2670 -1.0958
  389MOL0     H53622  10.366   4.494   3.018  0.0156 -0.3845 -1.7297
  389MOL0     H53623  10.075   4.581   3.091  0.2433  0.3861 -2.3699
  389MOL0     H53624  10.175   4.437   3.148  3.1339  1.2571  0.9034
  389MOL0     H53625  10.080   4.483   2.864 -1.6433  1.0770  1.2816
  389MOL0     H53626  10.186   4.345   2.929  1.7985  0.6377  2.8343
  389MOL0     H53627   9.920   4.330   2.886 -0.0322  0.1043 -0.0381
  389MOL0     H53628   9.893   4.389   3.034  0.4744  0.3037  0.8234
  389MOL0     H53629  10.040   4.211   3.155 -0.8413 -0.7061  0.1665
  389MOL0     H53630   9.911   4.130   3.056 -1.9487  2.1339 -0.0654
  389MOL0     H53631  10.263   4.100   3.117  0.6009 -1.7147 -0.1521
  389MOL0     H53632  10.454   3.955   3.009 -1.7528  3.2633  0.4952
  389MOL0     H53633  10.435   3.943   2.835 -2.2074  2.8165  1.0990
  389MOL0     H53634  10.334   3.740   2.832 -2.9488  2.4054  0.6387
  389MOL0     H53635  10.459   3.700   2.945 -1.8278 -0.8533 -0.0621
  389MOL0     H53636  10.174   3.726   2.978 -1.2729 -0.5163  0.6941
  389MOL0     H53637  10.275   3.599   3.027  0.2835  0.4962 -1.9534
  389MOL0     H53638  10.381   3.736   3.219  0.2157  0.4679  0.0857
  389MOL0     H53639  10.278   3.865   3.164  1.3278 -0.1188  2.3909
  389MOL0     H53640   9.974   3.609   3.391 -1.1857 -1.9366 -2.2917
  389MOL0     H53641   9.972   3.477   3.693 -2.1990 -0.7793  0.5378
  389MOL0     H53642   9.926   3.328   3.609  0.1748  0.3740  1.1962
  389MOL0     H53643   9.874   3.477   3.537 -0.7788 -0.0304 -1.4812
  389MOL0     H53644  10.362   2.973   3.484 -0.5082  0.9781  0.1903
  389MOL0     H53645  10.402   2.756   3.595 -0.7282 -0.3305 -0.0734
  389MOL0     H53646  10.265   2.654   3.899 -0.2991 -2.2413  1.5862
  389MOL0     H53647  10.323   2.623   3.730 -0.3724 -1.5040 -0.0535
  389MOL0     H53648  10.429   2.496   3.987  0.9970 -1.7708  0.0377
  389MOL0     H53649  10.298   2.434   3.886 -0.0933 -1.9337 -1.6284
  389MOL0     H53650  10.535   2.334   3.863 -1.3787 -1.3255  0.2823
  389MOL0     H53651  10.581   2.499   3.794 -0.0658 -0.5020 -1.3346
  389MOL0     H53652  10.465   2.471   3.603 -4.0902 -0.3679 -2.9929
  389MOL0     H53653  10.355   2.350   3.668 -1.1688  3.4108 -0.2357
  389MOL0     H53654  10.662   2.294   3.614 -0.1305  1.3392  1.3541
  389MOL0     H53655  10.533   2.175   3.629 -3.1354 -0.5862 -2.2446
  389MOL0     H53656  10.519   2.363   3.403 -0.5128 -1.7444 -1.0878
  389MOL0     H53657  10.418   2.220   3.433 -1.4229  1.6024  1.6023
  389MOL0     H53658  10.596   2.068   3.415  1.9434  0.1884 -0.1352
  389MOL0     H53659  10.712   2.204   3.400 -0.3796  1.9386 -0.2762
  389MOL0     H53660  10.671   2.068   3.203  2.1419  2.3392 -1.2463
  389MOL0     H53661  10.608   2.223   3.158 -0.2624 -2.4837 -3.0521
  389MOL0     H53662  10.453   2.973   3.967  1.4139  3.4834 -0.1809
  389MOL0     H53663  10.415   3.185   3.832  0.7439 -0.1677 -0.9920
  389MOL0     H53664  10.383   3.346   3.424  0.0693  1.0338 -2.5019
  389MOL0     H53665  10.379   3.527   3.278  3.7010  1.2651  5.2610
  389MOL0     H53666  10.529   5.073   3.368  1.3308  1.1994 -1.9691
  389MOL0     H53667  10.645   5.210   3.521 -0.7744  1.8449 -1.7612
  389MOL0     H53668  10.984   5.579   3.318  1.7543 -1.2132 -0.1461
  389MOL0     H53669  11.138   5.756   3.391 -0.4448 -0.1011 -0.2508
  389MOL0     H53670  11.319   5.931   3.748  2.7090 -0.6482  1.3995
  389MOL0     H53671  11.206   5.824   3.836 -0.1577 -1.3722 -0.4622
  389MOL0     H53672  11.333   5.630   3.714 -0.8461  0.2906  0.1073
  389MOL0     H53673  11.423   5.702   3.841  0.6396 -1.0013 -0.4222
  389MOL0     H53674  11.504   5.696   3.562 -0.5002 -0.4527 -0.4038
  389MOL0     H53675  11.462   5.869   3.594  2.6858  0.8889  1.4335
  389MOL0     H53676  11.641   5.688   3.721  0.8561 -0.0491 -2.7516
  389MOL0     H53677  11.597   5.843   3.805 -0.1693  2.4696 -0.5606
  389MOL0     H53678  11.877   5.985   3.527  1.5810 -0.3490  0.8823
  389MOL0     H53679  11.063   5.646   3.799 -1.8880 -0.2529 -0.0148
  389MOL0     H53680  10.825   5.391   3.760 -0.7507 -0.3372  0.8654
  389MOL0     H53681  10.993   5.325   3.742  0.9124 -0.1176  3.2798
  389MOL0     H53682  10.951   5.432   3.872 -0.9491  0.2945 -0.3054
  390MOL0     O53683   5.724   6.685  10.182 -0.5383  0.7068  0.4453
  390MOL0     C53684   5.609   6.643  10.167  0.8394  0.1461  1.0705
  390MOL0     O53685   5.552   6.616  10.049 -0.4787  0.2238 -0.0777
  390MOL0     C53686   5.628   6.646   9.940  0.1271  0.7276  0.1450
  390MOL0     C53687   5.657   6.538   9.862  0.1687 -0.2326 -0.0042
  390MOL0     C53688   5.726   6.557   9.741  0.5596  0.1777 -0.6198
  390MOL0     C53689   5.770   6.685   9.704  0.1441 -0.8420  0.5142
  390MOL0     O53690   5.832   6.694   9.579 -0.8622 -0.0089  0.4462
  390MOL0     C53691   5.957   6.764   9.566 -0.4024 -0.5554  0.8258
  390MOL0     C53692   6.078   6.682   9.605 -0.4950  0.3207 -0.4144
  390MOL0     C53693   6.094   6.564   9.516 -0.2588 -0.1773  0.4209
  390MOL0     C53694   6.156   6.600   9.390 -0.6467 -0.1011 -0.5160
  390MOL0     C53695   6.178   6.481   9.304  0.1289  0.0189  0.3019
  390MOL0     C53696   6.255   6.504   9.182 -0.3609 -0.4730 -0.1869
  390MOL0     C53697   6.187   6.603   9.083 -0.0506 -0.2238 -0.3607
  390MOL0     C53698   6.270   6.637   8.958 -0.3570  0.8026  0.0658
  390MOL0     N53699   6.252   6.541   8.841  0.2130  0.4482 -0.0115
  390MOL0     C53700   6.154   6.541   8.747  0.3691 -0.6616 -0.1094
  390MOL0     C53701   6.158   6.417   8.683 -0.1031 -0.5293  0.3233
  390MOL0     C53702   6.057   6.373   8.585  0.5936 -0.4033 -0.4079
  390MOL0     C53703   6.031   6.482   8.490  0.1567 -0.4417  0.5132
  390MOL0     C53704   5.924   6.441   8.383 -0.7296  0.3149 -0.0832
  390MOL0     C53705   5.834   6.558   8.337  0.3443  0.4957 -0.2411
  390MOL0     O53706   5.732   6.575   8.431  0.5357 -0.0915 -0.1740
  390MOL0     C53707   5.636   6.674   8.404 -0.9438 -0.2118 -0.6593
  390MOL0     C53708   5.649   6.765   8.294 -0.4913  0.0380 -0.0266
  390MOL0     C53709   5.547   6.860   8.270  1.0277  0.2739  0.0756
  390MOL0     C53710   5.550   6.944   8.154 -0.9680  0.9138 -0.0225
  390MOL0     C53711   5.428   6.865   8.362  0.2553  0.2557 -1.1353
  390MOL0     C53712   5.309   6.944   8.351  0.6047  0.1407 -0.4404
  390MOL0     O53713   5.193   6.889   8.401  0.6905 -0.3348  0.6277
  390MOL0     C53714   5.099   6.980   8.451 -0.3557  0.2635 -0.7997
  390MOL0     C53715   4.971   6.970   8.404 -0.5452 -0.4634 -0.6066
  390MOL0     C53716   4.880   7.064   8.440 -0.2577  0.1929 -0.2142
  390MOL0     C53717   4.899   7.148   8.549 -0.2627 -0.4815 -1.2151
  390MOL0     O53718   4.813   7.245   8.598  0.4316 -0.0905  0.4553
  390MOL0     C53719   4.674   7.213   8.591 -0.5065 -0.6041 -0.7407
  390MOL0     C53720   4.590   7.299   8.680  0.0810 -0.1188  0.2758
  390MOL0     C53721   4.448   7.258   8.669 -0.6269  0.1590  0.7705
  390MOL0     C53722   4.370   7.334   8.778 -0.3057  0.1209 -0.7056
  390MOL0     C53723   4.219   7.299   8.791 -0.4208 -0.0759  0.6855
  390MOL0     C53724   4.142   7.380   8.897 -0.0616  0.0888  0.8124
  390MOL0     C53725   3.997   7.355   8.880  0.2969  0.5782 -0.5381
  390MOL0     C53726   3.905   7.431   8.979  0.1947 -0.5136 -0.5164
  390MOL0    Cl53727   3.889   7.606   8.954 -0.8416  0.8218  0.3905
  390MOL0     C53728   5.028   7.142   8.601 -0.3653  0.2618 -0.1259
  390MOL0     C53729   5.132   7.059   8.553 -0.1468  0.6756  0.3731
  390MOL0     O53730   5.312   7.050   8.293  0.6842 -0.2212  0.3452
  390MOL0     C53731   5.429   6.777   8.471 -0.7380 -0.5458  0.2195
  390MOL0     C53732   5.523   6.685   8.492 -0.0295 -0.0278 -0.0352
  390MOL0     N53733   6.256   6.345   8.739  0.5895  0.1175 -0.2223
  390MOL0     N53734   6.309   6.421   8.836  0.5306 -0.2975  0.1446
  390MOL0     C53735   5.733   6.795   9.784 -0.0283  0.8133  0.0149
  390MOL0     C53736   5.654   6.775   9.901 -0.6212  0.0902  1.2210
  390MOL0     C53737   5.532   6.598  10.287 -0.0788  0.6274 -0.3480
  390MOL0     C53738   5.425   6.503  10.263  0.4115 -0.0299 -0.2189
  390MOL0     C53739   5.350   6.447  10.365 -0.4258  0.0626 -0.2647
  390MOL0     C53740   5.383   6.481  10.497 -0.7626 -0.7198  0.2475
  390MOL0     O53741   5.297   6.419  10.583  0.3621  0.3425  0.4461
  390MOL0     C53742   5.298   6.458  10.719  0.6858 -0.2754  0.2755
  390MOL0     C53743   5.197   6.383  10.804  1.2247 -0.4533 -0.2376
  390MOL0     C53744   5.212   6.228  10.799 -0.3506 -0.8320 -0.2481
  390MOL0     C53745   5.093   6.182  10.873  0.6906  1.1350 -0.3125
  390MOL0     C53746   5.085   6.031  10.857  0.5145 -0.4428  0.6772
  390MOL0     C53747   5.080   5.912  10.823  0.4084 -0.4605 -0.2221
  390MOL0     C53748   5.483   6.578  10.523 -0.1127 -0.7345  0.2651
  390MOL0     C53749   5.565   6.629  10.419  0.0089 -0.1706  0.3624
  390MOL0     C53750   5.673   6.725  10.471 -0.8389 -0.0253 -0.6075
  390MOL0     H53751   5.630   6.436   9.886 -0.5490  0.4363  2.3237
  390MOL0     H53752   5.769   6.480   9.678  2.8431  0.6417  0.2535
  390MOL0     H53753   5.956   6.855   9.627  0.4788 -0.3246  0.5152
  390MOL0     H53754   5.963   6.808   9.466  1.5075 -1.7155  0.3828
  390MOL0     H53755   6.167   6.745   9.608  0.7244 -1.3640  2.3306
  390MOL0     H53756   6.075   6.643   9.707  3.2514 -0.2116 -0.3845
  390MOL0     H53757   6.158   6.490   9.563 -0.5494 -0.0995  0.9492
  390MOL0     H53758   5.997   6.526   9.484 -0.0501  0.2244 -0.7634
  390MOL0     H53759   6.101   6.681   9.341 -0.3986  0.2414 -0.2330
  390MOL0     H53760   6.252   6.642   9.423  0.0588  0.5363 -3.0614
  390MOL0     H53761   6.079   6.444   9.275  0.6955 -0.3595 -1.2239
  390MOL0     H53762   6.232   6.403   9.359 -2.8192 -0.4580  2.8420
  390MOL0     H53763   6.347   6.556   9.209 -1.3567  1.3497 -0.1121
  390MOL0     H53764   6.281   6.413   9.127  0.3338  1.2071 -2.8217
  390MOL0     H53765   6.169   6.697   9.136 -1.4440 -1.6939  1.9596
  390MOL0     H53766   6.089   6.573   9.045 -1.1199  2.5776 -0.0155
  390MOL0     H53767   6.247   6.738   8.922 -2.6907  0.0057 -0.8414
  390MOL0     H53768   6.374   6.644   8.993 -1.2027  2.4544  2.5331
  390MOL0     H53769   6.101   6.635   8.735  2.7156  1.0691  2.0544
  390MOL0     H53770   5.958   6.368   8.631  0.1358  3.3090 -0.7060
  390MOL0     H53771   6.092   6.280   8.537 -2.1928 -1.7471 -0.0191
  390MOL0     H53772   5.993   6.572   8.540  3.2492  0.9813  0.5308
  390MOL0     H53773   6.125   6.516   8.444 -1.1962  1.3989 -1.0627
  390MOL0     H53774   5.979   6.404   8.296 -0.1060  1.1980 -0.0748
  390MOL0     H53775   5.859   6.360   8.418 -0.0365  0.6921  2.2443
  390MOL0     H53776   5.910   6.637   8.333  1.3186 -0.3932 -0.0028
  390MOL0     H53777   5.791   6.537   8.239 -3.0321  2.1524  0.7615
  390MOL0     H53778   5.734   6.756   8.228 -0.2318 -2.4038  0.5422
  390MOL0     H53779   5.451   6.952   8.108 -0.6584  0.4562 -0.7907
  390MOL0     H53780   5.619   6.915   8.073 -2.5241  1.7792 -1.7495
  390MOL0     H53781   5.584   7.045   8.179  2.5020  0.0073 -0.4904
  390MOL0     H53782   4.939   6.912   8.318 -1.0625 -0.7052 -0.2568
  390MOL0     H53783   4.791   7.050   8.379  0.2232 -3.2719 -0.3568
  390MOL0     H53784   4.635   7.231   8.490 -1.2196  2.1065 -0.0532
  390MOL0     H53785   4.656   7.111   8.626  2.8024 -1.4560 -1.1537
  390MOL0     H53786   4.615   7.289   8.786 -1.4268 -3.8169  0.4614
  390MOL0     H53787   4.592   7.404   8.652 -1.1208 -0.0387  0.4423
  390MOL0     H53788   4.428   7.153   8.692 -0.2137 -0.1547 -0.2383
  390MOL0     H53789   4.409   7.272   8.567  2.6724  2.6792 -0.2971
  390MOL0     H53790   4.379   7.443   8.770 -4.2788  0.5412 -1.9138
  390MOL0     H53791   4.408   7.308   8.877  0.5526 -2.1482 -1.5593
  390MOL0     H53792   4.161   7.318   8.700  1.9134  0.9845 -0.6701
  390MOL0     H53793   4.217   7.192   8.811 -0.6327 -0.1076  0.5074
  390MOL0     H53794   4.172   7.485   8.884  0.5926  0.0062  1.5888
  390MOL0     H53795   4.186   7.341   8.989  1.1910  2.1196  1.1314
  390MOL0     H53796   3.983   7.248   8.897 -2.6869  0.7884 -1.1362
  390MOL0     H53797   3.965   7.387   8.780 -0.8868  3.3475  0.6371
  390MOL0     H53798   3.943   7.413   9.080  0.7780 -1.0973 -0.8356
  390MOL0     H53799   3.806   7.385   8.987  1.6598 -4.0627 -0.8797
  390MOL0     H53800   5.055   7.215   8.676  0.8413  1.2999 -1.5185
  390MOL0     H53801   5.235   7.057   8.586  1.1799  5.7219 -2.4990
  390MOL0     H53802   5.348   6.776   8.544 -0.7587  3.5927  0.4847
  390MOL0     H53803   5.518   6.611   8.571  4.5920 -1.3236 -0.6387
  390MOL0     H53804   5.758   6.893   9.746 -0.6184  0.5083 -1.2145
  390MOL0     H53805   5.616   6.862   9.953 -2.5220 -1.0638  1.8899
  390MOL0     H53806   5.398   6.463  10.165  2.2136  1.0294 -1.2085
  390MOL0     H53807   5.278   6.371  10.340 -0.3647 -1.6785  3.9057
  390MOL0     H53808   5.400   6.435  10.751  1.1812  1.0737 -0.2137
  390MOL0     H53809   5.289   6.567  10.732  3.0178  0.1186 -0.8608
  390MOL0     H53810   5.102   6.424  10.768  2.3645  2.3221 -0.3090
  390MOL0     H53811   5.228   6.407  10.906 -0.6377  1.9731 -0.1508
  390MOL0     H53812   5.194   6.188  10.698  1.5095  3.9984 -2.8257
  390MOL0     H53813   5.305   6.193  10.845 -1.1468  1.4779  3.5306
  390MOL0     H53814   4.999   6.226  10.840 -1.1196 -1.3070  1.2588
  390MOL0     H53815   5.104   6.207  10.979 -3.7857 -0.1405  0.6583
  390MOL0     H53816   5.081   5.806  10.809  0.0343 -0.5038  0.0866
  390MOL0     H53817   5.502   6.617  10.622  2.7678  1.5850 -1.0785
  390MOL0     H53818   5.762   6.720  10.407 -0.6348 -0.0942 -0.3168
  390MOL0     H53819   5.638   6.828  10.471 -0.5566  0.1835  2.7576
  390MOL0     H53820   5.699   6.696  10.573  5.0754  0.4426 -1.6382
  391MOL0     O53821   5.101   5.442  11.320  0.6044  0.2978 -0.3126
  391MOL0     C53822   5.061   5.490  11.218  1.0512 -0.1671  0.7887
  391MOL0     O53823   5.127   5.586  11.136  0.2216  0.4259 -0.6046
  391MOL0     C53824   5.231   5.655  11.176  0.0935  0.1289  0.5915
  391MOL0     C53825   5.233   5.785  11.147 -0.6646 -0.3318  0.7872
  391MOL0     C53826   5.352   5.859  11.165  0.4440 -1.0402  0.4617
  391MOL0     C53827   5.470   5.808  11.218  0.3955  0.8133 -0.1380
  391MOL0     O53828   5.579   5.893  11.234  0.0325 -0.0408  0.6280
  391MOL0     C53829   5.702   5.820  11.255 -0.2026 -0.8136 -0.1731
  391MOL0     C53830   5.815   5.918  11.281  0.0296  0.7089 -1.1917
  391MOL0     C53831   5.835   6.013  11.168 -0.1285  0.0027 -0.1310
  391MOL0     C53832   5.922   6.126  11.223  0.5042  0.1765 -0.6249
  391MOL0     C53833   6.003   6.188  11.106 -0.7049 -0.2153 -0.5143
  391MOL0     C53834   6.092   6.315  11.114 -0.5213  0.1424 -1.1581
  391MOL0     C53835   6.194   6.296  11.229 -0.8717 -1.0616  0.9835
  391MOL0     C53836   6.294   6.417  11.237  0.3003  0.3545 -0.0337
  391MOL0     N53837   6.403   6.410  11.129 -0.5121 -0.4023 -0.9367
  391MOL0     C53838   6.415   6.497  11.024  0.1918  0.5951 -0.2446
  391MOL0     C53839   6.493   6.434  10.942 -0.1912  0.5938 -0.3945
  391MOL0     C53840   6.553   6.500  10.815 -0.4071  0.9162 -0.7727
  391MOL0     C53841   6.687   6.572  10.838  0.1149 -0.0117 -0.4180
  391MOL0     C53842   6.810   6.481  10.857  0.5403 -0.0279  0.0436
  391MOL0     C53843   6.844   6.384  10.733 -0.3318 -0.7730 -0.4699
  391MOL0     O53844   6.886   6.479  10.630 -0.2660 -0.1792  0.1148
  391MOL0     C53845   7.019   6.506  10.620 -0.1271  1.1286 -0.4209
  391MOL0     C53846   7.052   6.588  10.521 -0.0867 -0.1101 -0.3598
  391MOL0     C53847   7.187   6.628  10.499  0.5685  0.7062  0.1919
  391MOL0     C53848   7.224   6.703  10.368  0.5203  0.1717 -0.4327
  391MOL0     C53849   7.287   6.593  10.594  0.0203 -0.0906 -0.0872
  391MOL0     C53850   7.430   6.631  10.593 -0.3110  0.1442 -0.7748
  391MOL0     O53851   7.510   6.570  10.690  0.6148  0.5773  0.0329
  391MOL0     C53852   7.639   6.624  10.707  0.3236  0.7517  0.3257
  391MOL0     C53853   7.750   6.572  10.651  0.3980  0.1585 -0.2062
  391MOL0     C53854   7.872   6.629  10.668 -0.3477  0.1355  0.4864
  391MOL0     C53855   7.890   6.734  10.755 -0.3961 -0.1525  0.3985
  391MOL0     O53856   8.026   6.778  10.741  1.0046 -1.2911  0.4206
  391MOL0     C53857   8.076   6.899  10.810  0.3636 -0.1606 -0.6661
  391MOL0     C53858   8.042   7.011  10.716 -0.3551 -0.5520  0.2923
  391MOL0     C53859   8.125   6.989  10.584 -0.3173  0.8612 -0.0308
  391MOL0     C53860   8.171   7.119  10.526  0.3376  0.4791  0.1693
  391MOL0     C53861   8.233   7.116  10.389  0.1302 -1.1303  0.3756
  391MOL0     C53862   8.286   7.253  10.356 -0.1866 -0.7828  1.4563
  391MOL0     C53863   8.372   7.245  10.227  0.1663 -0.0032  0.3335
  391MOL0     C53864   8.276   7.229  10.113  0.4119 -1.0564  0.3120
  391MOL0    Cl53865   8.360   7.277   9.960  0.0222  0.2975 -0.4497
  391MOL0     C53866   7.777   6.791  10.816  0.1664  0.6750  0.3869
  391MOL0     C53867   7.653   6.727  10.798  0.2889 -1.0712  0.4937
  391MOL0     O53868   7.477   6.709  10.504 -0.6059 -0.8883 -0.4812
  391MOL0     C53869   7.242   6.516  10.711 -0.0469  0.5479  0.5487
  391MOL0     C53870   7.118   6.456  10.715 -0.2553 -0.2462  0.3034
  391MOL0     N53871   6.524   6.307  10.994  0.6656 -0.0125 -0.5262
  391MOL0     N53872   6.471   6.299  11.105  0.5130  0.5919  0.2811
  391MOL0     C53873   5.462   5.672  11.258 -0.4386 -0.1801 -0.3878
  391MOL0     C53874   5.347   5.602  11.230  0.4811 -0.5799  0.2012
  391MOL0     C53875   4.949   5.423  11.153  0.4392 -0.0951  0.7195
  391MOL0     C53876   4.934   5.285  11.169 -0.1929 -0.5433 -0.6984
  391MOL0     C53877   4.821   5.216  11.129 -0.6462 -0.3260 -0.6204
  391MOL0     C53878   4.714   5.278  11.059  0.0832  0.0370  0.0230
  391MOL0     O53879   4.602   5.214  11.018 -0.1222 -1.0129  0.6563
  391MOL0     C53880   4.610   5.072  11.001  0.2287  0.4090 -0.6147
  391MOL0     C53881   4.699   5.026  10.899 -0.0258 -0.4025 -0.8491
  391MOL0     C53882   4.670   5.105  10.765  0.4697  0.9120  0.2689
  391MOL0     C53883   4.768   5.067  10.652  0.7240 -0.2841  0.1240
  391MOL0     C53884   4.799   4.919  10.655 -0.2266  0.6471  0.0370
  391MOL0     C53885   4.834   4.803  10.657  0.3523 -1.1047 -0.3419
  391MOL0     C53886   4.731   5.410  11.038  0.0744  0.2611  0.2678
  391MOL0     C53887   4.839   5.489  11.084 -0.6015  0.0340 -0.2675
  391MOL0     C53888   4.820   5.637  11.085 -0.8158  0.0894 -0.5668
  391MOL0     H53889   5.141   5.828  11.110  1.3707  2.5824 -1.4223
  391MOL0     H53890   5.353   5.963  11.133 -0.2294 -2.0139 -3.1448
  391MOL0     H53891   5.727   5.769  11.161  3.8294  0.3581  0.0799
  391MOL0     H53892   5.689   5.751  11.339 -3.3337  2.7808  2.6515
  391MOL0     H53893   5.785   5.978  11.367  1.8364  0.2926 -0.2194
  391MOL0     H53894   5.904   5.863  11.313 -1.0169 -0.3880 -0.0530
  391MOL0     H53895   5.880   5.956  11.086 -2.4569 -3.0347  0.5108
  391MOL0     H53896   5.741   6.057  11.136 -0.2586  1.2021  1.7264
  391MOL0     H53897   5.854   6.195  11.274  0.0444 -2.7395  3.1386
  391MOL0     H53898   5.991   6.090  11.299  1.1028 -4.9683 -3.1416
  391MOL0     H53899   5.944   6.193  11.015 -1.6035  0.2403  0.0765
  391MOL0     H53900   6.077   6.112  11.077  0.9719  0.9971  0.3624
  391MOL0     H53901   6.150   6.331  11.023  2.3647 -1.5350  0.2597
  391MOL0     H53902   6.034   6.404  11.140  0.2907  0.1706  0.6978
  391MOL0     H53903   6.248   6.202  11.216  0.0798 -0.4702  0.5746
  391MOL0     H53904   6.127   6.293  11.315 -2.9366 -1.0943 -0.5482
  391MOL0     H53905   6.240   6.511  11.230  1.5749  1.1585  0.5168
  391MOL0     H53906   6.344   6.399  11.333  2.8788  0.5376 -1.2703
  391MOL0     H53907   6.381   6.601  11.028  1.2030  1.0566 -2.1459
  391MOL0     H53908   6.481   6.572  10.775 -0.1178 -0.1331 -3.3984
  391MOL0     H53909   6.564   6.429  10.732 -2.8620  0.7611 -1.0368
  391MOL0     H53910   6.699   6.625  10.743  0.3679  0.5833 -0.0624
  391MOL0     H53911   6.672   6.647  10.916 -0.6026  0.1679 -0.7250
  391MOL0     H53912   6.888   6.550  10.889  2.2515 -2.1482  0.6718
  391MOL0     H53913   6.796   6.418  10.946  0.1234  0.8095  0.5886
  391MOL0     H53914   6.917   6.303  10.737  0.6466  0.0414 -1.3690
  391MOL0     H53915   6.745   6.346  10.705 -0.8641  1.3582 -1.6802
  391MOL0     H53916   6.976   6.619  10.450 -0.0679  3.5040  0.9427
  391MOL0     H53917   7.291   6.632  10.319 -0.4352 -2.8595  2.2306
  391MOL0     H53918   7.268   6.801  10.386 -0.3011  0.5321 -0.3345
  391MOL0     H53919   7.136   6.706  10.303 -0.1056  1.3526  0.4210
  391MOL0     H53920   7.742   6.488  10.583 -0.8305  0.0448  0.0594
  391MOL0     H53921   7.945   6.600  10.593 -0.2704  2.1079 -0.2461
  391MOL0     H53922   8.027   6.916  10.906 -2.6849 -1.4692 -1.8476
  391MOL0     H53923   8.184   6.887  10.823  0.7556  1.3928 -2.1584
  391MOL0     H53924   7.935   7.005  10.695  0.3363 -4.1890 -3.5651
  391MOL0     H53925   8.071   7.097  10.778 -2.6091 -0.3119  1.1017
  391MOL0     H53926   8.055   6.935  10.518 -0.3557 -1.0568  1.4836
  391MOL0     H53927   8.203   6.913  10.586 -1.5145 -0.4970 -1.5510
  391MOL0     H53928   8.251   7.152  10.593  2.2167  1.0298 -2.1746
  391MOL0     H53929   8.088   7.191  10.530  0.4381  0.5708  3.5520
  391MOL0     H53930   8.316   7.044  10.384  0.2011 -1.0401  0.2364
  391MOL0     H53931   8.157   7.087  10.315 -0.1953  0.9169 -0.1476
  391MOL0     H53932   8.346   7.288  10.441  0.0999  3.0099 -0.1429
  391MOL0     H53933   8.204   7.325  10.353  0.0380 -0.5118  1.7054
  391MOL0     H53934   8.445   7.164  10.232 -0.6075 -0.6412  1.8762
  391MOL0     H53935   8.419   7.344  10.219 -1.8306  0.9788 -0.0124
  391MOL0     H53936   8.185   7.286  10.136  0.3230 -1.9247  2.3430
  391MOL0     H53937   8.248   7.124  10.100  1.3290 -1.6832  2.7332
  391MOL0     H53938   7.797   6.880  10.876 -1.1078  1.5559 -0.4549
  391MOL0     H53939   7.564   6.776  10.837  0.8709  0.1531  0.3414
  391MOL0     H53940   7.314   6.492  10.789  0.0779  0.0537  0.2855
  391MOL0     H53941   7.090   6.386  10.794 -1.7195 -0.5323 -0.4318
  391MOL0     H53942   5.540   5.617  11.310 -0.1210  1.0100  0.4103
  391MOL0     H53943   5.344   5.495  11.250  0.0023 -0.2882  1.8282
  391MOL0     H53944   5.010   5.232  11.226  2.8055  2.9942 -0.9870
  391MOL0     H53945   4.830   5.116  11.171 -2.1258 -0.7249 -1.1891
  391MOL0     H53946   4.648   5.029  11.094  1.0257 -0.4210 -1.3103
  391MOL0     H53947   4.511   5.025  10.998 -0.0555  0.4540  3.3339
  391MOL0     H53948   4.684   4.919  10.882 -2.8292  0.0101 -1.4892
  391MOL0     H53949   4.799   5.043  10.941 -1.3270  0.5815  2.1311
  391MOL0     H53950   4.573   5.072  10.726  0.0778  0.9073  1.2221
  391MOL0     H53951   4.679   5.212  10.784  3.8553  0.7669  0.0169
  391MOL0     H53952   4.854   5.134  10.659  0.4128 -0.0524  3.6232
  391MOL0     H53953   4.709   5.092  10.564 -0.2214  0.1553  0.8700
  391MOL0     H53954   4.851   4.698  10.674  0.2874 -0.8820  1.1764
  391MOL0     H53955   4.661   5.464  10.976 -0.8565 -0.0876  0.9980
  391MOL0     H53956   4.759   5.680  11.006 -1.6697  0.8144  0.4748
  391MOL0     H53957   4.768   5.666  11.176 -2.1384 -2.7028 -0.3354
  391MOL0     H53958   4.918   5.685  11.077 -1.2304  1.1122  0.2247
  392MOL0     O53959   6.430   0.760   7.940 -0.0428 -0.4752  0.7875
  392MOL0     C53960   6.357   0.790   8.035  0.7308  1.1092  0.2612
  392MOL0     O53961   6.396   0.781   8.164 -0.3034 -0.3288 -0.2360
  392MOL0     C53962   6.517   0.714   8.194 -0.0255 -1.4444  0.7449
  392MOL0     C53963   6.552   0.587   8.183 -1.2827  0.2231  0.1208
  392MOL0     C53964   6.682   0.548   8.232  0.4799 -0.0007  0.8768
  392MOL0     C53965   6.772   0.632   8.290  0.1417  0.0168  0.6039
  392MOL0     O53966   6.901   0.591   8.331 -0.5879 -1.0513  0.3767
  392MOL0     C53967   7.015   0.690   8.314  0.4759  0.1787 -0.5801
  392MOL0     C53968   7.153   0.630   8.337  0.1130  0.2157  0.3193
  392MOL0     C53969   7.185   0.512   8.248 -0.2425 -0.5649  0.2893
  392MOL0     C53970   7.337   0.488   8.246  0.8924 -0.2180  0.2241
  392MOL0     C53971   7.384   0.354   8.194 -1.4416 -0.5030  0.5719
  392MOL0     C53972   7.343   0.319   8.045  0.3223  0.0501 -0.5405
  392MOL0     C53973   7.402   0.182   8.008 -0.7214  0.1479 -0.1342
  392MOL0     C53974   7.409   0.155   7.869 -0.3546  0.8714 -0.0405
  392MOL0     N53975   7.297   0.179   7.784  0.2070  0.1479  0.0865
  392MOL0     C53976   7.172   0.115   7.791  0.0986  0.3437 -0.1775
  392MOL0     C53977   7.090   0.180   7.706  0.1738 -1.0203 -0.1992
  392MOL0     C53978   6.944   0.160   7.687 -0.5715  0.6781  0.1661
  392MOL0     C53979   6.896   0.014   7.716 -0.0752 -0.4956 -0.4354
  392MOL0     C53980   6.761  -0.015   7.641 -0.8281 -0.6583  0.5904
  392MOL0     C53981   6.636   0.047   7.703 -0.5710  0.0466 -0.9668
  392MOL0     O53982   6.568   0.128   7.605  0.2238 -0.8835 -0.2532
  392MOL0     C53983   6.495   0.065   7.508 -0.7227  0.7399 -0.2185
  392MOL0     C53984   6.513  -0.069   7.466 -0.2877  0.0905  0.1222
  392MOL0     C53985   6.450  -0.126   7.362  0.6584 -0.6318 -0.1386
  392MOL0     C53986   6.508  -0.258   7.320  0.1310  0.5569  0.5122
  392MOL0     C53987   6.379  -0.037   7.273  0.1431 -0.6084  0.9341
  392MOL0     C53988   6.324  -0.069   7.127 -0.0318 -0.0211 -0.5263
  392MOL0     O53989   6.248   0.030   7.060  0.8107 -0.2651 -0.7434
  392MOL0     C53990   6.185  -0.011   6.945 -0.2494 -0.1335  0.5311
  392MOL0     C53991   6.058  -0.048   6.946  0.3008  0.0139 -0.4346
  392MOL0     C53992   5.992  -0.075   6.830  0.0726 -0.6002 -1.1210
  392MOL0     C53993   6.056  -0.079   6.708  0.3630  1.0652 -0.1050
  392MOL0     O53994   5.990  -0.132   6.593 -0.1152 -0.1972  0.3017
  392MOL0     C53995   5.847  -0.134   6.594  1.0109 -0.2826 -0.1478
  392MOL0     C53996   5.797  -0.107   6.448  0.4285 -0.3249 -1.2985
  392MOL0     C53997   5.820   0.046   6.404  0.8544  0.7072 -0.5865
  392MOL0     C53998   5.782   0.079   6.257  0.4901  0.6373  0.2437
  392MOL0     C53999   5.839   0.209   6.203 -0.7888 -0.0305  0.1232
  392MOL0     C54000   5.754   0.334   6.258 -0.3932 -0.0368 -0.2979
  392MOL0     C54001   5.629   0.351   6.177 -0.0508  0.8320  0.8749
  392MOL0     C54002   5.570   0.495   6.191  0.5784  0.2817  0.9054
  392MOL0    Cl54003   5.481   0.492   6.345  0.0019  0.5962 -0.0306
  392MOL0     C54004   6.191  -0.042   6.704  0.5969  0.0059 -0.8019
  392MOL0     C54005   6.255  -0.008   6.825 -0.6256 -0.0297 -0.5693
  392MOL0     O54006   6.358  -0.172   7.072  0.5590  0.0205 -0.6451
  392MOL0     C54007   6.366   0.092   7.315  0.2935 -0.0421  0.3506
  392MOL0     C54008   6.430   0.152   7.419 -0.5626  0.4294 -0.2961
  392MOL0     N54009   7.178   0.274   7.628 -0.7664  0.7607 -0.2668
  392MOL0     N54010   7.297   0.267   7.684 -1.0733 -0.0960 -0.1613
  392MOL0     C54011   6.722   0.764   8.307  0.0088 -0.3704 -0.2736
  392MOL0     C54012   6.596   0.800   8.266  0.1041 -0.3274  0.3834
  392MOL0     C54013   6.224   0.854   7.985 -0.8657 -0.7170 -0.1313
  392MOL0     C54014   6.211   0.906   7.858 -0.1744  1.5062 -0.2457
  392MOL0     C54015   6.095   0.951   7.809  0.4277  0.5470  0.6206
  392MOL0     C54016   5.983   0.973   7.890 -0.8045 -0.3136 -0.5902
  392MOL0     O54017   5.887   1.065   7.858  0.2259  0.4484 -0.2813
  392MOL0     C54018   5.888   1.185   7.932 -0.0415  0.1471  0.1636
  392MOL0     C54019   5.992   1.292   7.884 -0.4742  0.1726  0.6656
  392MOL0     C54020   6.014   1.406   7.972  0.4804  1.4169 -0.0814
  392MOL0     C54021   6.115   1.501   7.933  0.5447  0.4275 -0.2647
  392MOL0     C54022   6.131   1.601   8.038 -0.1681  0.2832  0.1035
  392MOL0     C54023   6.145   1.684   8.116  0.6174 -0.1896 -0.8215
  392MOL0     C54024   5.989   0.918   8.027  0.0172  0.0757 -0.0818
  392MOL0     C54025   6.110   0.860   8.072  0.6655  0.3306 -0.3151
  392MOL0     C54026   6.116   0.810   8.211  0.1685 -0.3027 -0.6059
  392MOL0     H54027   6.483   0.522   8.130 -0.6340  1.8811 -3.0370
  392MOL0     H54028   6.709   0.448   8.200  0.7695  0.3501  0.0148
  392MOL0     H54029   7.022   0.767   8.391  2.6199 -1.8260  1.4049
  392MOL0     H54030   7.011   0.725   8.211  0.8389 -1.4416 -1.1724
  392MOL0     H54031   7.229   0.705   8.313  0.1646 -0.4752 -1.8589
  392MOL0     H54032   7.164   0.603   8.443 -4.3576 -0.2242  0.8584
  392MOL0     H54033   7.134   0.427   8.295 -2.7003  0.4126 -0.4772
  392MOL0     H54034   7.143   0.515   8.147  0.1851 -2.4828  0.0147
  392MOL0     H54035   7.382   0.569   8.186  2.9129 -0.5276  1.2432
  392MOL0     H54036   7.383   0.505   8.344  0.5991 -2.7362  0.8595
  392MOL0     H54037   7.333   0.277   8.254  1.0331 -3.6862 -1.0685
  392MOL0     H54038   7.493   0.352   8.203 -1.5148 -0.1525  1.5687
  392MOL0     H54039   7.234   0.332   8.045  0.3508  0.9421  2.6481
  392MOL0     H54040   7.391   0.387   7.974 -2.0501 -1.6682 -4.1258
  392MOL0     H54041   7.333   0.102   8.038 -0.1158 -1.4626 -2.7166
  392MOL0     H54042   7.494   0.157   8.062 -0.7614  0.0398 -0.1147
  392MOL0     H54043   7.496   0.210   7.832 -2.1283  0.8627 -4.8426
  392MOL0     H54044   7.427   0.047   7.864 -2.1991  0.1757  3.9136
  392MOL0     H54045   7.146   0.036   7.860  0.6997 -2.2532 -2.7405
  392MOL0     H54046   6.915   0.181   7.583  2.1749  0.0230 -0.8233
  392MOL0     H54047   6.900   0.229   7.759  1.0105  0.0809  1.7802
  392MOL0     H54048   6.957  -0.067   7.675 -0.5976 -2.1677  1.8654
  392MOL0     H54049   6.883  -0.020   7.819 -0.1046  1.6251  0.2911
  392MOL0     H54050   6.781   0.019   7.539  0.8597 -0.7614  0.8471
  392MOL0     H54051   6.748  -0.124   7.631  1.9890 -1.1594  1.4376
  392MOL0     H54052   6.566  -0.025   7.747  0.1841 -0.5545 -0.7302
  392MOL0     H54053   6.656   0.116   7.785 -1.7707  0.5929 -1.1130
  392MOL0     H54054   6.582  -0.131   7.523  2.6226  3.2952  0.4859
  392MOL0     H54055   6.613  -0.279   7.340  0.3347  1.8694  0.9455
  392MOL0     H54056   6.503  -0.274   7.212  3.1562 -0.4411  0.4386
  392MOL0     H54057   6.452  -0.345   7.353  2.0433 -2.3951 -3.2135
  392MOL0     H54058   5.994  -0.044   7.033  1.7461  0.8600  0.6398
  392MOL0     H54059   5.891  -0.107   6.851 -0.4438  1.7130  0.2728
  392MOL0     H54060   5.820  -0.230   6.640 -0.7525  0.3849  0.3159
  392MOL0     H54061   5.809  -0.061   6.666 -0.7506  0.5775 -1.8548
  392MOL0     H54062   5.853  -0.179   6.387  3.0981  0.1796  0.3806
  392MOL0     H54063   5.690  -0.125   6.440  0.0219  0.0707  2.0890
  392MOL0     H54064   5.922   0.078   6.427  0.6109 -0.1237  1.9632
  392MOL0     H54065   5.750   0.094   6.473  1.8250  0.3039  0.7264
  392MOL0     H54066   5.673   0.071   6.246  0.1802  3.2518  0.7668
  392MOL0     H54067   5.830  -0.005   6.206  0.2568  0.5907  0.0985
  392MOL0     H54068   5.940   0.228   6.240 -0.4419  0.7268 -1.1404
  392MOL0     H54069   5.836   0.184   6.096 -3.0077  0.1635  0.0826
  392MOL0     H54070   5.807   0.427   6.236 -3.7160  1.3782 -3.5450
  392MOL0     H54071   5.724   0.333   6.363  1.6887 -0.8255  0.3268
  392MOL0     H54072   5.543   0.285   6.193 -0.1101  0.8658  0.6934
  392MOL0     H54073   5.648   0.334   6.071 -2.5166 -0.5610  0.5857
  392MOL0     H54074   5.499   0.519   6.111  1.6331 -1.1295 -0.5136
  392MOL0     H54075   5.652   0.566   6.176  3.2608 -2.4874  1.3002
  392MOL0     H54076   6.251  -0.053   6.614 -1.8204 -1.3042 -2.3406
  392MOL0     H54077   6.361   0.017   6.835 -1.0977  2.6109 -1.5905
  392MOL0     H54078   6.318   0.164   7.249  0.7584  0.3464  0.4281
  392MOL0     H54079   6.450   0.259   7.428  0.3034  0.3807 -1.3830
  392MOL0     H54080   6.780   0.843   8.354  1.2140 -2.0080  1.1236
  392MOL0     H54081   6.572   0.905   8.275  0.7096  0.0659 -1.9793
  392MOL0     H54082   6.290   0.910   7.783  0.4430 -0.3948  0.2269
  392MOL0     H54083   6.095   0.987   7.706 -1.3972 -3.2203 -0.9155
  392MOL0     H54084   5.787   1.221   7.911 -0.0504 -0.6266 -1.2394
  392MOL0     H54085   5.891   1.161   8.038 -3.4292 -2.1275 -0.1059
  392MOL0     H54086   5.974   1.331   7.783  5.9097  0.0351 -0.9648
  392MOL0     H54087   6.083   1.232   7.872 -0.8625 -0.1600 -0.9484
  392MOL0     H54088   5.918   1.458   7.980 -0.1727  0.2992 -0.6093
  392MOL0     H54089   6.030   1.364   8.072 -1.2278 -0.7991 -0.6798
  392MOL0     H54090   6.086   1.554   7.842  5.0010  1.9628 -1.0430
  392MOL0     H54091   6.210   1.448   7.923  2.3147  3.5957 -1.7924
  392MOL0     H54092   6.160   1.761   8.189  0.1284 -1.0851  0.2455
  392MOL0     H54093   5.893   0.924   8.076  0.5607  2.4159  0.8283
  392MOL0     H54094   6.181   0.869   8.275 -1.8871 -0.7274  2.0278
  392MOL0     H54095   6.024   0.814   8.270  0.7953 -0.8684  0.4100
  392MOL0     H54096   6.154   0.709   8.223  2.9283  0.9176  2.1254
  393MOL0     O54097   4.383   9.754   2.866 -0.2802  0.3814 -0.0952
  393MOL0     C54098   4.265   9.790   2.858 -0.7415 -0.0664 -0.1416
  393MOL0     O54099   4.208   9.891   2.934 -0.3103 -0.5981  1.0381
  393MOL0     C54100   4.272   9.950   3.043 -0.0937  0.3896  0.0925
  393MOL0     C54101   4.377   9.902   3.120  0.3653 -0.0805 -0.7971
  393MOL0     C54102   4.431   9.976   3.225 -0.2750  0.3873 -0.5387
  393MOL0     C54103   4.379  10.101   3.255 -0.0556 -0.6887 -0.7476
  393MOL0     O54104   4.423  10.176   3.364  0.2239 -0.3261  0.2767
  393MOL0     C54105   4.463  10.094   3.485  0.6916 -0.4359  0.2607
  393MOL0     C54106   4.469  10.197   3.596  0.8576  0.0190 -0.6692
  393MOL0     C54107   4.509  10.132   3.730 -0.9449 -0.1272 -0.4009
  393MOL0     C54108   4.533  10.251   3.823 -0.1913  0.6733  0.5128
  393MOL0     C54109   4.628  10.202   3.941  0.7067 -0.3867  0.8291
  393MOL0     C54110   4.631  10.316   4.040 -0.3328 -0.0363 -0.0970
  393MOL0     C54111   4.741  10.286   4.133 -0.4479 -0.4114 -0.7145
  393MOL0     C54112   4.761  10.366   4.254  0.1460  0.4668  0.2197
  393MOL0     N54113   4.779  10.507   4.208 -0.3362 -0.1027 -0.3967
  393MOL0     C54114   4.891  10.563   4.169 -0.0133 -0.2536 -0.1295
  393MOL0     C54115   4.876  10.696   4.145  0.3413 -0.0843 -0.0626
  393MOL0     C54116   4.976  10.789   4.073  0.5899  0.3147 -0.2725
  393MOL0     C54117   5.071  10.850   4.186  0.6718  0.8959 -0.1586
  393MOL0     C54118   5.198  10.918   4.131 -0.0734 -0.2243 -0.8938
  393MOL0     C54119   5.265  11.010   4.235  1.0431 -0.0355  0.5285
  393MOL0     O54120   5.394  11.055   4.191 -0.0578 -0.4327 -0.3848
  393MOL0     C54121   5.509  10.980   4.203  1.0911 -0.6340  0.1258
  393MOL0     C54122   5.627  11.058   4.193  0.1009  0.5204  0.4161
  393MOL0     C54123   5.749  11.003   4.231 -1.4487  0.1941 -0.9296
  393MOL0     C54124   5.867  11.093   4.210 -0.5670  0.1566 -0.5163
  393MOL0     C54125   5.761  10.867   4.263 -0.9066 -0.3134  0.3320
  393MOL0     C54126   5.896  10.808   4.292 -0.6789 -0.2819 -0.3319
  393MOL0     O54127   5.893  10.729   4.402 -0.0227  0.1263  0.4317
  393MOL0     C54128   6.005  10.685   4.461 -0.1062  0.6142 -0.3423
  393MOL0     C54129   6.115  10.768   4.475 -1.2767  0.0249  0.1758
  393MOL0     C54130   6.228  10.729   4.554  1.3742 -0.2014 -0.0527
  393MOL0     C54131   6.219  10.614   4.629  0.0499  0.5383 -0.7984
  393MOL0     O54132   6.315  10.585   4.725 -0.1302  1.0481 -0.7054
  393MOL0     C54133   6.270  10.560   4.860 -0.2258 -0.2840  0.5059
  393MOL0     C54134   6.273  10.684   4.945  0.2419  0.1936  0.5049
  393MOL0     C54135   6.409  10.721   4.977  0.3731  0.0773  0.4342
  393MOL0     C54136   6.406  10.870   5.021 -0.5330  0.1123  0.1475
  393MOL0     C54137   6.387  10.877   5.168 -0.0887  0.4993 -0.2440
  393MOL0     C54138   6.375  11.018   5.214  0.9961  0.1531 -0.1707
  393MOL0     C54139   6.386  11.032   5.363  0.6693 -0.0409 -0.0179
  393MOL0     C54140   6.332  11.156   5.409  0.7565 -0.5523 -0.0842
  393MOL0    Cl54141   6.405  11.193   5.575 -0.5248 -0.1441  0.1706
  393MOL0     C54142   6.119  10.519   4.594 -0.6434 -0.7603 -0.2014
  393MOL0     C54143   6.004  10.554   4.514 -0.5184  0.6473 -0.5284
  393MOL0     O54144   5.986  10.818   4.210 -0.6936 -0.8938 -0.7484
  393MOL0     C54145   5.645  10.789   4.269  0.1204  0.7725  0.1867
  393MOL0     C54146   5.516  10.843   4.244  0.3156 -0.6038  0.6381
  393MOL0     N54147   4.744  10.719   4.163 -0.0394 -0.1789 -0.8403
  393MOL0     N54148   4.683  10.608   4.202 -0.5736 -0.4107 -0.0454
  393MOL0     C54149   4.285  10.150   3.175  0.7438 -0.7716 -0.5072
  393MOL0     C54150   4.221  10.073   3.079  0.1154 -0.0239  0.2202
  393MOL0     C54151   4.181   9.714   2.767  0.3258  0.1074  0.8097
  393MOL0     C54152   4.056   9.766   2.738  0.5096 -0.1929  0.5178
  393MOL0     C54153   3.956   9.708   2.662  0.5743  0.6838  1.0845
  393MOL0     C54154   3.979   9.584   2.600 -0.0057 -0.8276 -0.6453
  393MOL0     O54155   3.879   9.539   2.519  0.6854  0.0787 -0.8015
  393MOL0     C54156   3.878   9.408   2.466  0.3544  0.0336  0.2464
  393MOL0     C54157   3.742   9.384   2.403  0.5842  0.9096 -0.0624
  393MOL0     C54158   3.762   9.286   2.284  0.4347 -0.5775 -0.4101
  393MOL0     C54159   3.629   9.226   2.238  0.7314  0.3971  0.5407
  393MOL0     C54160   3.631   9.148   2.112  0.1972 -0.0472 -0.6860
  393MOL0     C54161   3.646   9.076   2.018  0.1231 -0.4707 -0.5072
  393MOL0     C54162   4.106   9.521   2.622  0.1856  0.6164 -0.1933
  393MOL0     C54163   4.209   9.587   2.707  0.1074  0.5496 -0.4107
  393MOL0     C54164   4.336   9.503   2.743 -0.2786  0.8286  0.5498
  393MOL0     H54165   4.392   9.797   3.101  0.6585  0.0556 -1.3486
  393MOL0     H54166   4.512   9.941   3.289 -2.3104 -0.7051  1.6177
  393MOL0     H54167   4.565  10.055   3.480  1.4538  1.4505  0.0440
  393MOL0     H54168   4.390  10.015   3.503 -1.7292  0.8892 -2.7437
  393MOL0     H54169   4.538  10.277   3.568  0.3359  1.9714  2.9722
  393MOL0     H54170   4.371  10.244   3.612 -0.6137 -3.3026  1.1487
  393MOL0     H54171   4.436  10.069   3.781 -0.7763 -0.0825 -0.0997
  393MOL0     H54172   4.604  10.079   3.717 -1.3781 -1.1248  0.3743
  393MOL0     H54173   4.589  10.334   3.779  0.0831  1.0562  1.5409
  393MOL0     H54174   4.435  10.289   3.855 -0.7610 -0.2748 -0.0798
  393MOL0     H54175   4.726  10.176   3.900  0.5419 -0.9158  0.7582
  393MOL0     H54176   4.592  10.112   3.992 -1.1618 -0.2077 -0.0708
  393MOL0     H54177   4.638  10.417   3.998  0.3412 -0.0399 -0.0014
  393MOL0     H54178   4.543  10.317   4.105 -0.2830  2.0692 -0.0166
  393MOL0     H54179   4.832  10.290   4.072  0.4538 -2.3123  0.4086
  393MOL0     H54180   4.736  10.184   4.173 -0.4822  0.5733  2.0234
  393MOL0     H54181   4.674  10.371   4.321  0.0105  2.3571 -0.0426
  393MOL0     H54182   4.851  10.336   4.307 -0.4626  0.5034  1.3093
  393MOL0     H54183   4.987  10.516   4.150 -0.0449  0.5482 -2.7232
  393MOL0     H54184   4.909  10.870   4.040 -0.5084 -0.4874 -0.0653
  393MOL0     H54185   5.029  10.738   3.992  2.6209  0.1934  1.0577
  393MOL0     H54186   5.024  10.924   4.250  1.1762 -1.1815  2.8002
  393MOL0     H54187   5.101  10.775   4.260  0.3659  1.8702  0.9829
  393MOL0     H54188   5.262  10.841   4.087 -1.6818 -0.8065 -2.3461
  393MOL0     H54189   5.165  10.980   4.047 -3.1852 -0.4420  0.0430
  393MOL0     H54190   5.197  11.095   4.244 -0.2217 -1.0569  1.0420
  393MOL0     H54191   5.275  10.966   4.335  0.0792 -4.6485 -1.1344
  393MOL0     H54192   5.625  11.162   4.161  1.5607  0.7065  0.8300
  393MOL0     H54193   5.951  11.060   4.271  0.6742  2.0742 -1.0893
  393MOL0     H54194   5.840  11.185   4.262 -1.6459 -0.6639  0.4162
  393MOL0     H54195   5.892  11.101   4.104  2.2249  0.7208  0.1050
  393MOL0     H54196   6.128  10.865   4.430 -0.6325  0.8451  2.0221
  393MOL0     H54197   6.309  10.800   4.566  0.7055  1.2312 -2.9877
  393MOL0     H54198   6.165  10.528   4.863  0.1008 -1.3867  3.5161
  393MOL0     H54199   6.330  10.484   4.910 -1.2850 -0.9097  0.8610
  393MOL0     H54200   6.211  10.765   4.907 -0.3826  0.7909  2.6432
  393MOL0     H54201   6.218  10.651   5.034 -1.9462 -0.2017 -0.9208
  393MOL0     H54202   6.455  10.717   4.877  3.1626  3.1096  1.4160
  393MOL0     H54203   6.448  10.653   5.053 -1.4316  1.0008  2.2399
  393MOL0     H54204   6.328  10.930   4.975 -1.7350 -2.0561 -0.7942
  393MOL0     H54205   6.505  10.916   5.008 -0.4665 -0.0650  0.0302
  393MOL0     H54206   6.300  10.819   5.203 -2.1654  2.9388 -1.0221
  393MOL0     H54207   6.474  10.832   5.217 -1.3095  0.9968  2.5762
  393MOL0     H54208   6.283  11.052   5.164  1.5294 -2.1881 -3.0479
  393MOL0     H54209   6.463  11.066   5.170  2.5874 -2.8045 -0.3862
  393MOL0     H54210   6.493  11.049   5.374  0.2745  2.2050  0.8076
  393MOL0     H54211   6.358  10.947   5.426 -0.1152 -0.4100 -0.8312
  393MOL0     H54212   6.228  11.140   5.438  0.8219 -0.4036  0.2305
  393MOL0     H54213   6.327  11.243   5.342  3.4841  1.7217  2.4267
  393MOL0     H54214   6.114  10.427   4.652  0.0544  0.3200  1.6779
  393MOL0     H54215   5.927  10.485   4.483 -0.9078  0.0419  1.6513
  393MOL0     H54216   5.656  10.685   4.296 -0.7687 -0.2779 -3.0846
  393MOL0     H54217   5.437  10.769   4.255  0.8022 -1.1324  0.6174
  393MOL0     H54218   4.248  10.253   3.180  0.2076 -0.9444 -0.8578
  393MOL0     H54219   4.133  10.110   3.027  0.3766  1.1370  0.5836
  393MOL0     H54220   4.043   9.867   2.774 -2.9090 -0.7113  1.0781
  393MOL0     H54221   3.873   9.769   2.629  1.3551  0.6686 -1.0921
  393MOL0     H54222   3.965   9.391   2.401  1.0576  2.4445  0.4389
  393MOL0     H54223   3.901   9.343   2.550  1.4400 -0.1881 -0.2049
  393MOL0     H54224   3.703   9.478   2.364 -1.7151 -0.4016 -1.1234
  393MOL0     H54225   3.679   9.351   2.486  3.6184 -0.6486  1.8187
  393MOL0     H54226   3.803   9.341   2.199 -1.2666 -1.0112 -1.5664
  393MOL0     H54227   3.831   9.209   2.318  1.7010  1.4458  1.9162
  393MOL0     H54228   3.567   9.312   2.212 -0.1073 -0.9751 -2.3829
  393MOL0     H54229   3.573   9.165   2.310 -0.6278  0.3473 -0.5164
  393MOL0     H54230   3.661   9.012   1.933  1.6837 -2.8969  1.4512
  393MOL0     H54231   4.128   9.430   2.567 -0.4703  0.6826 -0.5862
  393MOL0     H54232   4.423   9.560   2.708 -0.5330 -0.7424 -3.0593
  393MOL0     H54233   4.354   9.467   2.845  1.0094 -2.9946 -0.8441
  393MOL0     H54234   4.339   9.411   2.685 -2.0420 -0.5221  2.4420
  394MOL0     O54235   0.947   0.891   5.626  0.0674 -0.4713 -0.5377
  394MOL0     C54236   0.932   0.823   5.729  0.1773 -0.0538  0.9987
  394MOL0     O54237   0.961   0.855   5.860  0.8972 -0.1337 -1.4032
  394MOL0     C54238   1.029   0.976   5.874 -0.2099  0.2535  1.1358
  394MOL0     C54239   1.158   0.990   5.825 -0.1892  0.5509  0.2773
  394MOL0     C54240   1.244   1.091   5.857 -0.1035  0.2059 -0.4069
  394MOL0     C54241   1.195   1.196   5.935 -1.0069  0.0598  0.0994
  394MOL0     O54242   1.283   1.303   5.979  0.5120  0.4458  0.6114
  394MOL0     C54243   1.418   1.299   5.941 -0.4112 -0.2080 -0.0352
  394MOL0     C54244   1.487   1.428   5.989 -0.0732  0.3989  0.0964
  394MOL0     C54245   1.445   1.467   6.135  0.0691  0.2192  0.2877
  394MOL0     C54246   1.473   1.365   6.257  0.1521 -0.1718 -0.1004
  394MOL0     C54247   1.425   1.426   6.390 -0.3034 -0.9626  0.3861
  394MOL0     C54248   1.546   1.461   6.471 -0.3352  0.0454  0.2464
  394MOL0     C54249   1.509   1.505   6.612  1.2562  0.9447 -0.3530
  394MOL0     C54250   1.640   1.552   6.669 -0.5909  0.3380  0.8223
  394MOL0     N54251   1.618   1.596   6.811  0.2459 -0.1176  0.1740
  394MOL0     C54252   1.635   1.518   6.919  0.3391 -0.3601 -0.4478
  394MOL0     C54253   1.623   1.604   7.027 -0.7425  0.1872  0.1872
  394MOL0     C54254   1.641   1.583   7.177 -0.6322 -0.6706 -0.0283
  394MOL0     C54255   1.743   1.679   7.243  0.2131  0.8148 -1.0370
  394MOL0     C54256   1.868   1.731   7.172 -0.2538  0.6590  0.1634
  394MOL0     C54257   1.981   1.634   7.143 -0.9170  0.9673 -1.0486
  394MOL0     O54258   1.952   1.563   7.020 -0.5177  0.3453 -0.1502
  394MOL0     C54259   1.987   1.623   6.897 -0.7866  1.3443  0.0819
  394MOL0     C54260   2.053   1.745   6.859  0.4561  0.0359 -0.2030
  394MOL0     C54261   2.097   1.782   6.731  0.2940 -0.5547 -0.2047
  394MOL0     C54262   2.199   1.897   6.725 -0.6135  0.8564 -0.4364
  394MOL0     C54263   2.048   1.707   6.623 -0.8348  0.1906  0.4158
  394MOL0     C54264   2.063   1.742   6.480  0.5835  0.8687 -0.0415
  394MOL0     O54265   2.179   1.789   6.437 -0.3429 -0.3475  0.0434
  394MOL0     C54266   2.187   1.811   6.307  0.4652 -0.3181  0.6482
  394MOL0     C54267   2.268   1.730   6.225 -0.2133  0.7304 -0.3767
  394MOL0     C54268   2.281   1.747   6.092  0.3863  0.8038  0.7387
  394MOL0     C54269   2.218   1.856   6.025 -0.0540  0.0152 -0.4580
  394MOL0     O54270   2.224   1.875   5.895 -0.2886  0.0443 -0.0610
  394MOL0     C54271   2.295   1.998   5.856 -0.0566 -0.0709 -0.1924
  394MOL0     C54272   2.402   1.968   5.745  0.1428 -0.5241 -0.1487
  394MOL0     C54273   2.356   1.876   5.628  0.4477 -0.5772 -0.1456
  394MOL0     C54274   2.442   1.865   5.512 -0.2718 -0.5130  0.8061
  394MOL0     C54275   2.375   1.822   5.381  0.8405 -0.3929  0.6969
  394MOL0     C54276   2.299   1.694   5.389  0.1221 -0.3542 -0.2802
  394MOL0     C54277   2.225   1.650   5.257 -0.2742  0.9359  0.0564
  394MOL0     C54278   2.135   1.536   5.278 -0.0957  0.1721 -0.1794
  394MOL0    Cl54279   1.971   1.590   5.322 -0.1738 -0.5828 -0.3635
  394MOL0     C54280   2.148   1.937   6.105 -0.9999 -0.0271 -1.0918
  394MOL0     C54281   2.131   1.922   6.243 -0.5017 -0.4691 -0.5101
  394MOL0     O54282   1.963   1.722   6.416 -0.3505  0.3968 -0.0687
  394MOL0     C54283   1.982   1.586   6.658 -0.9368 -0.0138  0.0689
  394MOL0     C54284   1.962   1.535   6.787 -0.1014  0.8944 -0.0134
  394MOL0     N54285   1.607   1.734   6.979  0.4345  0.2987 -0.6157
  394MOL0     N54286   1.618   1.734   6.847 -0.6637  0.1155  0.2426
  394MOL0     C54287   1.058   1.195   5.972 -0.0086  0.0979  0.6027
  394MOL0     C54288   0.980   1.084   5.949  0.1721 -0.3419  0.1480
  394MOL0     C54289   0.876   0.685   5.719 -0.3331 -0.1897  1.2132
  394MOL0     C54290   0.906   0.615   5.600 -0.1613 -0.6799 -0.4432
  394MOL0     C54291   0.894   0.475   5.593 -0.3618 -0.4734 -0.8750
  394MOL0     C54292   0.835   0.404   5.697  0.7018 -0.1497 -0.3892
  394MOL0     O54293   0.826   0.271   5.695 -0.1071  0.5082  0.1122
  394MOL0     C54294   0.731   0.194   5.772 -0.7178 -0.4910  0.1126
  394MOL0     C54295   0.734   0.055   5.715  0.8733  0.5442 -0.2381
  394MOL0     C54296   0.668   0.033   5.584  0.3694 -0.3045  0.1390
  394MOL0     C54297   0.647  -0.115   5.552 -0.0102  0.0919 -0.7414
  394MOL0     C54298   0.657  -0.139   5.414  0.8981  0.2369  0.0319
  394MOL0     C54299   0.670  -0.136   5.294  0.6884  0.7168  0.1308
  394MOL0     C54300   0.796   0.479   5.807  0.2404  1.0812 -0.6542
  394MOL0     C54301   0.824   0.608   5.827  0.6762  0.3119 -0.2740
  394MOL0     C54302   0.791   0.666   5.965  0.2355  0.0421 -0.4162
  394MOL0     H54303   1.202   0.921   5.755 -0.4193 -1.4811  2.0490
  394MOL0     H54304   1.341   1.094   5.808 -0.9880 -2.7250 -2.5567
  394MOL0     H54305   1.428   1.300   5.832 -1.4970  1.9426 -0.1726
  394MOL0     H54306   1.451   1.207   5.991  2.0337  1.3798  1.4492
  394MOL0     H54307   1.595   1.414   5.985  0.0842  1.6944 -0.6309
  394MOL0     H54308   1.471   1.507   5.915  1.3263  2.1710  1.5796
  394MOL0     H54309   1.476   1.570   6.156 -0.1667  0.1773  0.8581
  394MOL0     H54310   1.336   1.473   6.138 -0.2235 -1.3908 -2.7828
  394MOL0     H54311   1.416   1.273   6.239  1.4027 -0.5559 -2.5593
  394MOL0     H54312   1.578   1.336   6.246  0.8019  2.2487 -0.7485
  394MOL0     H54313   1.373   1.354   6.454  2.0023 -2.0371  1.1793
  394MOL0     H54314   1.362   1.513   6.372  1.9969  1.5201  3.2535
  394MOL0     H54315   1.606   1.369   6.475 -2.5177 -1.6571 -2.2019
  394MOL0     H54316   1.598   1.536   6.410 -0.4111 -0.6751 -0.7395
  394MOL0     H54317   1.475   1.416   6.664  0.9877  0.0670 -1.9498
  394MOL0     H54318   1.431   1.582   6.603 -0.1466 -0.3283  0.3969
  394MOL0     H54319   1.718   1.475   6.674 -0.8364 -0.0826 -1.2112
  394MOL0     H54320   1.684   1.633   6.611 -0.2446 -0.0581  0.5192
  394MOL0     H54321   1.659   1.412   6.927  3.0590  0.2856  1.3617
  394MOL0     H54322   1.667   1.479   7.195 -0.7428 -0.4170  1.6954
  394MOL0     H54323   1.545   1.588   7.229 -1.1783  1.8656 -1.1071
  394MOL0     H54324   1.679   1.758   7.283  1.9118  1.7379 -0.0611
  394MOL0     H54325   1.788   1.622   7.325 -0.5141 -1.6845 -2.2551
  394MOL0     H54326   1.838   1.785   7.082 -0.8143  0.5046  0.2555
  394MOL0     H54327   1.916   1.815   7.222 -2.0388  0.2565  2.7486
  394MOL0     H54328   2.071   1.693   7.119  0.1622  0.2939  1.1236
  394MOL0     H54329   2.007   1.564   7.222  1.1882  1.1554 -1.5033
  394MOL0     H54330   2.094   1.819   6.927  3.4644 -1.5229 -0.1517
  394MOL0     H54331   2.226   1.945   6.631  3.2947 -0.1071  0.0204
  394MOL0     H54332   2.299   1.864   6.755 -1.1234 -0.2295  0.1160
  394MOL0     H54333   2.164   1.978   6.790  0.3239 -0.5971  2.0065
  394MOL0     H54334   2.322   1.645   6.267 -1.7122  0.5367  1.3015
  394MOL0     H54335   2.345   1.675   6.042 -1.5529  1.0312 -2.3631
  394MOL0     H54336   2.223   2.064   5.807  2.3077  1.4932 -1.7644
  394MOL0     H54337   2.344   2.056   5.935  0.9431 -1.8240  0.5355
  394MOL0     H54338   2.441   2.063   5.706 -0.0279 -0.0089  0.8892
  394MOL0     H54339   2.475   1.915   5.806 -1.9579 -1.3792  1.8054
  394MOL0     H54340   2.252   1.898   5.600  0.5878 -1.5922 -1.5725
  394MOL0     H54341   2.345   1.773   5.663  0.7686 -0.1002  1.4115
  394MOL0     H54342   2.529   1.803   5.532  2.8057  2.8974 -0.9200
  394MOL0     H54343   2.495   1.960   5.499 -0.2237 -0.1930  3.0245
  394MOL0     H54344   2.298   1.895   5.355 -0.9049 -2.4169 -0.1528
  394MOL0     H54345   2.433   1.814   5.288 -2.6157 -2.6335 -1.4797
  394MOL0     H54346   2.226   1.710   5.469 -1.8400 -1.0386 -1.8614
  394MOL0     H54347   2.363   1.613   5.426 -0.9548 -0.4016  1.6165
  394MOL0     H54348   2.304   1.601   5.199 -1.5150 -2.4259  0.9210
  394MOL0     H54349   2.182   1.738   5.209  1.0546  1.7162  0.2450
  394MOL0     H54350   2.185   1.493   5.365  2.0054 -0.4420 -1.5941
  394MOL0     H54351   2.127   1.473   5.188  0.8763 -2.2176  1.3258
  394MOL0     H54352   2.103   2.021   6.054 -0.9455 -0.1906 -1.4090
  394MOL0     H54353   2.060   1.984   6.296 -3.3412 -1.2578 -3.0512
  394MOL0     H54354   1.943   1.523   6.578  0.1711  0.1554 -0.6178
  394MOL0     H54355   1.925   1.436   6.808  3.3455 -0.4074  0.5002
  394MOL0     H54356   1.025   1.287   6.019 -0.8185  1.6651 -2.7295
  394MOL0     H54357   0.881   1.063   5.988  0.2366  0.5835  0.8306
  394MOL0     H54358   0.952   0.677   5.524  0.6418  1.2574  1.5392
  394MOL0     H54359   0.927   0.428   5.501  1.9547  2.5758 -1.7914
  394MOL0     H54360   0.758   0.179   5.877 -0.1864 -1.5426 -0.1646
  394MOL0     H54361   0.634   0.244   5.768  0.4659  1.8968 -1.1590
  394MOL0     H54362   0.685  -0.016   5.783 -2.9508  2.3816 -0.7842
  394MOL0     H54363   0.839   0.026   5.711  1.4282  2.1906  1.1045
  394MOL0     H54364   0.573   0.084   5.566 -0.0014 -1.1014 -0.2348
  394MOL0     H54365   0.734   0.071   5.505  1.2076  2.0141  1.8621
  394MOL0     H54366   0.560  -0.161   5.600 -0.9932  0.4659 -2.1040
  394MOL0     H54367   0.725  -0.179   5.595 -1.4235 -1.8044 -0.8826
  394MOL0     H54368   0.712  -0.138   5.195  2.7004  0.9119  0.9400
  394MOL0     H54369   0.762   0.416   5.889  1.0515 -0.0453 -1.1618
  394MOL0     H54370   0.876   0.669   6.035 -1.9777 -0.5856  2.4776
  394MOL0     H54371   0.746   0.764   5.949  1.1292  0.9758  2.2147
  394MOL0     H54372   0.725   0.605   6.026 -1.5016  0.5186 -1.7501
  395MOL0     O54373  10.957   0.272   7.532  0.7302  0.0875 -0.3761
  395MOL0     C54374  10.888   0.338   7.610 -0.1395  0.4435  0.8195
  395MOL0     O54375  10.913   0.350   7.744  0.5788 -0.7589  0.8062
  395MOL0     C54376  11.018   0.284   7.805  0.5591 -0.3486  0.7693
  395MOL0     C54377  11.028   0.150   7.801  0.6094  0.2456 -0.0190
  395MOL0     C54378  11.128   0.075   7.864 -0.3744 -0.3513 -0.0736
  395MOL0     C54379  11.231   0.148   7.928  0.0723 -0.1804  0.0792
  395MOL0     O54380  11.344   0.075   7.964 -0.0094 -0.4885  0.8745
  395MOL0     C54381  11.461   0.148   8.008 -0.0872 -0.4414  0.3916
  395MOL0     C54382  11.574   0.055   8.062  0.3713  0.1775  0.4548
  395MOL0     C54383  11.709   0.125   8.064  0.9757  0.7405 -0.0120
  395MOL0     C54384  11.825   0.045   8.124  0.8781 -0.0924 -0.2729
  395MOL0     C54385  11.816   0.025   8.277  0.5377  0.3770  0.4324
  395MOL0     C54386  11.832   0.139   8.376  0.4655 -0.6749  0.1976
  395MOL0     C54387  11.821   0.092   8.522  0.3916  0.4301 -0.1692
  395MOL0     C54388  11.846   0.206   8.611 -0.1374  0.3859  0.5719
  395MOL0     N54389  11.731   0.298   8.617  0.2631 -0.4116 -0.4609
  395MOL0     C54390  11.610   0.282   8.694  0.2713  0.4493  0.9309
  395MOL0     C54391  11.543   0.398   8.658 -0.3539 -0.2667 -0.7178
  395MOL0     C54392  11.396   0.430   8.681  0.0029  0.7343 -0.1230
  395MOL0     C54393  11.310   0.473   8.566 -1.0106  0.5390 -0.6105
  395MOL0     C54394  11.249   0.370   8.472 -0.6911  0.4768  0.0052
  395MOL0     C54395  11.355   0.314   8.377  0.1711  0.5664  0.0552
  395MOL0     O54396  11.313   0.187   8.315 -0.2136 -0.5710  0.4865
  395MOL0     C54397  11.356   0.067   8.369  0.0477  0.0267  0.4330
  395MOL0     C54398  11.322  -0.043   8.293 -0.4595  0.0785  0.0341
  395MOL0     C54399  11.358  -0.172   8.340 -1.3494 -0.6497  0.3516
  395MOL0     C54400  11.308  -0.280   8.250 -0.0680  0.2846 -0.1524
  395MOL0     C54401  11.436  -0.190   8.463 -0.5824  0.2850  0.1136
  395MOL0     C54402  11.477  -0.322   8.512 -0.3609 -0.6357  0.1545
  395MOL0     O54403  11.455  -0.347   8.646  0.2738  0.1077 -0.5603
  395MOL0     C54404  11.481  -0.472   8.691 -0.1270 -0.2750 -0.1957
  395MOL0     C54405  11.386  -0.569   8.682  0.8568 -0.1971 -0.3873
  395MOL0     C54406  11.415  -0.704   8.736 -0.0321 -0.5730  0.2133
  395MOL0     C54407  11.542  -0.728   8.783 -0.2265 -1.2155  1.0704
  395MOL0     O54408  11.567  -0.839   8.854  0.0363 -0.0871 -0.2892
  395MOL0     C54409  11.506  -0.960   8.817  0.6112  0.6664 -0.1971
  395MOL0     C54410  11.578  -1.083   8.884  0.0285  0.2598  0.7773
  395MOL0     C54411  11.687  -1.145   8.781  0.2779  0.3581  0.3029
  395MOL0     C54412  11.798  -1.049   8.752 -0.3154  1.2886  0.0513
  395MOL0     C54413  11.915  -1.129   8.691  0.6852 -0.4525 -0.8366
  395MOL0     C54414  12.041  -1.038   8.708  0.0674 -0.5685 -0.5716
  395MOL0     C54415  12.164  -1.081   8.624 -0.0358 -0.6415 -0.0797
  395MOL0     C54416  12.129  -1.064   8.468 -0.2600  0.0613 -0.1798
  395MOL0    Cl54417  12.215  -1.175   8.371  0.1139 -0.0177  0.2978
  395MOL0     C54418  11.631  -0.628   8.784 -0.0698  0.1542  0.2951
  395MOL0     C54419  11.610  -0.503   8.741 -0.5954  0.1368  0.1056
  395MOL0     O54420  11.528  -0.398   8.435  0.9627  0.5497 -0.1134
  395MOL0     C54421  11.455  -0.075   8.535  0.5519 -0.3819 -1.1966
  395MOL0     C54422  11.418   0.051   8.496  0.1991 -0.2171 -0.9512
  395MOL0     N54423  11.638   0.487   8.606  0.0736  0.1438 -0.4710
  395MOL0     N54424  11.743   0.421   8.575  0.2229 -0.2025 -0.1249
  395MOL0     C54425  11.219   0.294   7.931  0.1520  0.1221  0.0883
  395MOL0     C54426  11.112   0.362   7.871 -0.6399 -0.9655 -0.7667
  395MOL0     C54427  10.774   0.411   7.560 -0.3433 -0.0316 -0.1463
  395MOL0     C54428  10.688   0.463   7.657 -0.2455  0.3049 -0.4037
  395MOL0     C54429  10.595   0.561   7.618  0.3976  0.5714  0.3961
  395MOL0     C54430  10.582   0.593   7.479  0.1269  0.6048 -0.7806
  395MOL0     O54431  10.477   0.678   7.454  0.2067 -0.5021 -0.0743
  395MOL0     C54432  10.454   0.716   7.316 -0.0508 -0.5926  0.2692
  395MOL0     C54433  10.567   0.811   7.284  0.4126 -0.3062 -0.5679
  395MOL0     C54434  10.615   0.807   7.134 -0.2759 -0.1492  0.6440
  395MOL0     C54435  10.497   0.810   7.033 -1.7564 -0.3244 -0.0298
  395MOL0     C54436  10.460   0.947   7.007 -0.7057  0.3986 -0.1843
  395MOL0     C54437  10.445   1.063   6.971 -0.7892 -0.2464 -0.3398
  395MOL0     C54438  10.661   0.528   7.383 -0.5626  0.2072 -0.1504
  395MOL0     C54439  10.752   0.429   7.423 -0.3705  0.7524  0.3082
  395MOL0     C54440  10.809   0.355   7.299  0.1041 -0.2393  0.0308
  395MOL0     H54441  10.954   0.096   7.743  0.4108  0.5186 -0.0201
  395MOL0     H54442  11.126  -0.032   7.843 -1.5651 -0.2674 -0.4332
  395MOL0     H54443  11.437   0.224   8.083 -0.0684  0.9460 -0.9605
  395MOL0     H54444  11.503   0.199   7.921  1.9944  1.4178  2.3418
  395MOL0     H54445  11.545   0.026   8.164  0.9765 -0.7957  0.3654
  395MOL0     H54446  11.582  -0.040   8.007 -0.2814 -0.2875  1.1316
  395MOL0     H54447  11.745   0.147   7.963 -1.7361 -1.4304 -1.5972
  395MOL0     H54448  11.694   0.210   8.131  0.9499  1.2564 -0.6620
  395MOL0     H54449  11.831  -0.055   8.079 -3.3448 -0.6272 -0.0949
  395MOL0     H54450  11.916   0.099   8.099  0.1449  1.3843  0.1662
  395MOL0     H54451  11.881  -0.053   8.317 -1.5332 -0.6490  1.9742
  395MOL0     H54452  11.714  -0.010   8.293  0.2811  1.4075  1.1622
  395MOL0     H54453  11.927   0.189   8.356 -0.0152  0.1597 -0.0455
  395MOL0     H54454  11.746   0.201   8.350  1.0832 -0.7693 -2.3469
  395MOL0     H54455  11.898   0.019   8.549 -0.4464 -0.0334  1.1066
  395MOL0     H54456  11.729   0.035   8.537  0.3612  0.8110  1.2388
  395MOL0     H54457  11.866   0.165   8.710  3.8188  2.1240  0.6905
  395MOL0     H54458  11.936   0.266   8.594  0.4069 -0.4075  0.5769
  395MOL0     H54459  11.589   0.196   8.757  0.9317  0.7030  1.5152
  395MOL0     H54460  11.397   0.505   8.760 -2.4453  1.6961 -0.9275
  395MOL0     H54461  11.353   0.340   8.727 -0.5089 -0.2551 -2.3498
  395MOL0     H54462  11.238   0.530   8.626 -0.6525  0.3202  0.0376
  395MOL0     H54463  11.359   0.556   8.513 -0.3880  0.9781  0.5927
  395MOL0     H54464  11.210   0.281   8.521  0.9371 -0.7770 -0.8744
  395MOL0     H54465  11.162   0.414   8.422 -1.6522 -1.7866 -0.4160
  395MOL0     H54466  11.368   0.383   8.293  4.4673  4.0338  3.0418
  395MOL0     H54467  11.456   0.321   8.420 -0.3322  1.0558  1.2175
  395MOL0     H54468  11.255  -0.035   8.208 -0.9991 -2.6126  0.1101
  395MOL0     H54469  11.226  -0.345   8.279  0.5811  0.4772  2.3133
  395MOL0     H54470  11.396  -0.343   8.235  1.2379  2.2897 -1.4671
  395MOL0     H54471  11.276  -0.232   8.157  1.0515  1.0524 -0.1682
  395MOL0     H54472  11.288  -0.553   8.637  0.7411 -1.1312 -0.4800
  395MOL0     H54473  11.334  -0.776   8.731 -1.1041  0.5329  1.1412
  395MOL0     H54474  11.403  -0.962   8.854  1.2295 -0.8502  1.6438
  395MOL0     H54475  11.508  -0.977   8.709 -1.6648  2.9242 -0.6807
  395MOL0     H54476  11.633  -1.041   8.968 -0.0885 -3.8099  3.1332
  395MOL0     H54477  11.497  -1.150   8.915  0.9311 -2.3172 -1.9397
  395MOL0     H54478  11.638  -1.174   8.688 -1.1090  0.3811  1.0045
  395MOL0     H54479  11.718  -1.233   8.837 -2.7304 -0.1459  1.3872
  395MOL0     H54480  11.840  -1.002   8.841  0.2491 -0.5269  0.7736
  395MOL0     H54481  11.770  -0.968   8.683 -1.0453  0.7309 -0.3202
  395MOL0     H54482  11.931  -1.218   8.752 -1.0862 -0.4839 -0.3595
  395MOL0     H54483  11.888  -1.161   8.589 -1.4485 -2.8050  0.3643
  395MOL0     H54484  12.068  -1.040   8.814  2.0864 -1.0865 -1.0530
  395MOL0     H54485  12.025  -0.933   8.682 -1.3086 -0.1493  1.6743
  395MOL0     H54486  12.175  -1.188   8.645 -0.4785 -0.8963 -1.0840
  395MOL0     H54487  12.249  -1.021   8.656 -0.8595  0.4868  0.0776
  395MOL0     H54488  12.160  -0.963   8.439 -1.1361  0.6960  0.9672
  395MOL0     H54489  12.021  -1.071   8.450 -1.1006  1.3879  3.3924
  395MOL0     H54490  11.721  -0.643   8.843  0.0183 -0.3194  0.0502
  395MOL0     H54491  11.693  -0.435   8.725  0.8151 -0.2300  4.5308
  395MOL0     H54492  11.497  -0.090   8.634  0.1546  1.9331 -0.6066
  395MOL0     H54493  11.435   0.128   8.570 -0.2272 -0.1817 -0.8869
  395MOL0     H54494  11.297   0.360   7.968 -1.7010  1.6564  1.4729
  395MOL0     H54495  11.126   0.469   7.877  2.4675 -1.3764  2.3522
  395MOL0     H54496  10.699   0.443   7.763 -3.8794 -1.2416 -0.1445
  395MOL0     H54497  10.528   0.607   7.690  0.8824 -0.0394  1.2547
  395MOL0     H54498  10.452   0.627   7.253  0.4447 -2.0802  2.2412
  395MOL0     H54499  10.356   0.761   7.301  0.0022 -0.6510 -0.2492
  395MOL0     H54500  10.658   0.790   7.341  3.4268  1.2654 -4.4353
  395MOL0     H54501  10.542   0.914   7.311  2.2409  0.5381 -1.9223
  395MOL0     H54502  10.689   0.883   7.106  0.4200 -1.2629 -0.6692
  395MOL0     H54503  10.665   0.712   7.113  0.4952 -0.3364  3.0455
  395MOL0     H54504  10.406   0.762   7.072 -2.5255  0.7221 -0.4904
  395MOL0     H54505  10.542   0.766   6.944  2.2015  0.4277  1.3955
  395MOL0     H54506  10.429   1.158   6.925  1.2218  0.2417 -0.1329
  395MOL0     H54507  10.646   0.529   7.275 -1.4879 -1.7139 -0.0724
  395MOL0     H54508  10.847   0.421   7.220  0.8960 -0.0645  0.5401
  395MOL0     H54509  10.888   0.280   7.311  0.7074  0.4474  0.4762
  395MOL0     H54510  10.732   0.291   7.256  0.7494 -1.2725  0.3641
  396MOL0     O54511   1.291  10.490   3.100  0.2735 -0.9948 -0.4209
  396MOL0     C54512   1.313  10.402   3.015 -1.1296 -0.5206 -0.1407
  396MOL0     O54513   1.230  10.347   2.933 -0.1417 -0.2672 -0.5244
  396MOL0     C54514   1.105  10.404   2.912 -0.1273  0.2852 -0.5978
  396MOL0     C54515   1.084  10.542   2.902 -0.0724  0.5674 -1.0234
  396MOL0     C54516   0.954  10.594   2.889 -0.4699  0.1669 -0.5761
  396MOL0     C54517   0.844  10.510   2.888  0.2746  0.5440 -1.2089
  396MOL0     O54518   0.732  10.587   2.863 -0.8261 -0.5420 -0.0774
  396MOL0     C54519   0.615  10.509   2.853 -0.2881  0.8645  0.4026
  396MOL0     C54520   0.481  10.586   2.841 -0.7952  0.4045 -0.5768
  396MOL0     C54521   0.462  10.680   2.953 -1.1516  0.4722 -0.0183
  396MOL0     C54522   0.315  10.725   2.960 -1.3161  0.7688  0.0034
  396MOL0     C54523   0.302  10.862   3.015 -0.2356 -0.4421  0.5100
  396MOL0     C54524   0.359  10.879   3.153 -0.5739 -0.2441 -0.1342
  396MOL0     C54525   0.272  10.828   3.267  0.0701  0.3505 -0.2642
  396MOL0     C54526   0.332  10.865   3.405  0.3609 -0.0664 -0.1336
  396MOL0     N54527   0.240  10.832   3.519  0.1794  0.4368  0.4031
  396MOL0     C54528   0.258  10.881   3.648 -0.0254 -0.6912 -0.6219
  396MOL0     C54529   0.165  10.808   3.721  0.9253 -0.4014  0.1041
  396MOL0     C54530   0.127  10.826   3.869  0.0712 -0.4235  0.4730
  396MOL0     C54531   0.162  10.698   3.951  0.1345 -0.4061 -0.0860
  396MOL0     C54532   0.309  10.672   3.972 -0.4332  0.6525  1.4596
  396MOL0     C54533   0.327  10.533   4.040  0.2011 -0.2239  0.7145
  396MOL0     O54534   0.317  10.551   4.182  0.9636 -1.5399  0.4445
  396MOL0     C54535   0.338  10.448   4.265 -0.3559  0.6854  0.7342
  396MOL0     C54536   0.326  10.473   4.399  0.3471 -1.1182  0.7609
  396MOL0     C54537   0.319  10.375   4.497 -1.1853 -0.0723  0.5272
  396MOL0     C54538   0.297  10.421   4.634  0.7908  0.7443 -0.1848
  396MOL0     C54539   0.342  10.243   4.461 -0.2811  0.2013 -0.1842
  396MOL0     C54540   0.347  10.130   4.559 -0.7144 -1.3517 -0.5714
  396MOL0     O54541   0.234  10.067   4.572 -0.4357 -0.0563  0.2036
  396MOL0     C54542   0.214  10.006   4.689 -0.1450  0.0671  0.4541
  396MOL0     C54543   0.190   9.868   4.668  1.0708 -0.3073 -0.1830
  396MOL0     C54544   0.161   9.790   4.775  0.1068 -0.3456  0.4952
  396MOL0     C54545   0.145   9.856   4.903  1.1818  1.3145  1.0252
  396MOL0     O54546   0.123   9.761   5.001  0.1433 -0.6938 -0.8317
  396MOL0     C54547   0.144   9.803   5.145  0.7987  0.3423 -0.0510
  396MOL0     C54548   0.291   9.786   5.198 -0.7290 -0.1046 -0.3944
  396MOL0     C54549   0.351   9.660   5.154 -0.4516  0.0231  0.0871
  396MOL0     C54550   0.498   9.652   5.212 -0.2902  0.1380  0.2073
  396MOL0     C54551   0.562   9.514   5.208 -0.6598 -1.0056  0.5345
  396MOL0     C54552   0.599   9.459   5.074 -0.0326  0.2510 -0.1251
  396MOL0     C54553   0.683   9.558   4.991  0.5903  0.2974 -0.3613
  396MOL0     C54554   0.757   9.497   4.874 -0.0379  0.4259  0.7179
  396MOL0    Cl54555   0.898   9.396   4.908 -0.0750  0.6275  0.3625
  396MOL0     C54556   0.162   9.993   4.927  1.0210 -0.9451  1.7728
  396MOL0     C54557   0.195  10.067   4.813  0.7454 -0.2969 -0.7054
  396MOL0     O54558   0.455  10.092   4.602 -0.8666 -0.6084  0.3872
  396MOL0     C54559   0.365  10.215   4.325  0.2732 -0.0486 -1.3141
  396MOL0     C54560   0.364  10.314   4.226 -0.0791 -0.5640  0.1570
  396MOL0     N54561   0.099  10.717   3.629 -0.8902  0.7123 -1.2577
  396MOL0     N54562   0.132  10.750   3.510 -0.0570  0.0857 -0.9635
  396MOL0     C54563   0.861  10.369   2.916  0.3085  0.4471  0.5334
  396MOL0     C54564   0.993  10.320   2.926  0.4283  0.3266  1.0205
  396MOL0     C54565   1.452  10.336   3.012  0.2148  1.1931  0.4800
  396MOL0     C54566   1.459  10.193   3.004  0.2654 -0.2807  0.2407
  396MOL0     C54567   1.579  10.122   3.008 -0.7306 -1.1350 -0.2146
  396MOL0     C54568   1.702  10.198   3.002  0.2354 -0.7816  0.5078
  396MOL0     O54569   1.827  10.155   2.991 -0.8234 -0.4228 -0.2464
  396MOL0     C54570   1.866  10.087   3.108  0.0966 -0.9174  0.1973
  396MOL0     C54571   2.010  10.121   3.145 -0.2777 -0.3921  0.5095
  396MOL0     C54572   2.059  10.033   3.260  0.4938 -0.1264 -0.2783
  396MOL0     C54573   2.208  10.011   3.249  0.1325  0.1459  0.2510
  396MOL0     C54574   2.261   9.928   3.131 -0.4654 -0.3328 -0.2251
  396MOL0     C54575   2.309   9.870   3.036 -0.2789  0.7916 -0.2080
  396MOL0     C54576   1.694  10.334   3.010 -0.0444 -0.2486 -0.9971
  396MOL0     C54577   1.574  10.404   3.016  0.5050  0.3055 -1.0563
  396MOL0     C54578   1.588  10.555   3.042 -0.1512  0.4379  0.0374
  396MOL0     H54579   1.172  10.605   2.915  0.5867 -0.1102 -2.0290
  396MOL0     H54580   0.947  10.702   2.882 -1.0431  0.1390 -0.5543
  396MOL0     H54581   0.609  10.450   2.945 -0.7770 -0.7400 -0.6058
  396MOL0     H54582   0.610  10.446   2.763 -1.4585  1.6649 -0.1285
  396MOL0     H54583   0.472  10.658   2.759 -0.5754  4.0108  2.2902
  396MOL0     H54584   0.400  10.512   2.840 -0.1763 -0.4445  2.3269
  396MOL0     H54585   0.498  10.648   3.051 -1.1071 -0.9583 -0.4709
  396MOL0     H54586   0.532  10.763   2.936  2.1539 -1.3490  3.1487
  396MOL0     H54587   0.266  10.713   2.863  1.1746  0.4116 -1.2822
  396MOL0     H54588   0.259  10.659   3.028 -0.6036  1.6425  1.4842
  396MOL0     H54589   0.196  10.887   3.021 -0.4413 -0.4362 -2.0751
  396MOL0     H54590   0.347  10.929   2.942 -0.7533  0.8904  1.3804
  396MOL0     H54591   0.461  10.842   3.165  1.8497  5.0916 -1.3050
  396MOL0     H54592   0.385  10.985   3.158  0.8651 -0.6194  1.5362
  396MOL0     H54593   0.276  10.719   3.259 -3.4062 -0.1648  2.5085
  396MOL0     H54594   0.171  10.868   3.255  0.6684  2.3813  1.0128
  396MOL0     H54595   0.429  10.817   3.418 -0.2106 -1.1528  0.3351
  396MOL0     H54596   0.354  10.971   3.413 -1.8077  0.3843  0.8989
  396MOL0     H54597   0.316  10.965   3.685 -3.2432  0.7804  1.5305
  396MOL0     H54598   0.018  10.835   3.876  0.1233 -0.6705  1.8936
  396MOL0     H54599   0.161  10.926   3.897  0.9327  0.0959 -2.1640
  396MOL0     H54600   0.113  10.720   4.046  0.3594  0.7263 -0.2145
  396MOL0     H54601   0.130  10.610   3.895  0.6864 -0.9307  0.4162
  396MOL0     H54602   0.355  10.652   3.875  0.6755 -0.0128  2.1073
  396MOL0     H54603   0.366  10.749   4.024 -0.6020  1.7551  0.0423
  396MOL0     H54604   0.242  10.466   4.022 -0.5859 -0.2392  3.8326
  396MOL0     H54605   0.425  10.492   4.015  1.8686  1.5041  3.7950
  396MOL0     H54606   0.307  10.579   4.416  0.1988 -1.0188 -0.0026
  396MOL0     H54607   0.375  10.388   4.703  1.0814  0.5035 -0.6207
  396MOL0     H54608   0.203  10.379   4.672  1.1475 -1.3074 -1.3855
  396MOL0     H54609   0.298  10.530   4.632 -0.8380  0.8192 -2.9570
  396MOL0     H54610   0.196   9.842   4.563 -0.6351  0.7007 -0.5612
  396MOL0     H54611   0.150   9.682   4.767 -1.1988 -0.2550  0.9261
  396MOL0     H54612   0.101   9.901   5.168  1.3638  2.1642 -5.2952
  396MOL0     H54613   0.091   9.727   5.203 -0.9874  1.7428  0.2291
  396MOL0     H54614   0.353   9.873   5.177 -0.1410 -0.6845 -1.0961
  396MOL0     H54615   0.295   9.783   5.307  1.0040  1.9664 -0.3206
  396MOL0     H54616   0.343   9.661   5.045  1.6780 -0.6832 -0.1194
  396MOL0     H54617   0.292   9.577   5.192  1.2888 -0.7075  1.3530
  396MOL0     H54618   0.493   9.664   5.321  1.4299  0.8116  0.2435
  396MOL0     H54619   0.565   9.733   5.180 -0.3090  0.2629  0.4757
  396MOL0     H54620   0.652   9.529   5.268  1.2249  2.3650 -2.7110
  396MOL0     H54621   0.496   9.441   5.256 -2.5837  0.4212  0.1693
  396MOL0     H54622   0.506   9.428   5.027 -1.8999  6.7747 -1.8431
  396MOL0     H54623   0.657   9.367   5.075  0.5225  0.5524 -1.5344
  396MOL0     H54624   0.748   9.623   5.049 -1.7874  0.5808  2.2173
  396MOL0     H54625   0.612   9.631   4.949  1.5295  1.3696 -0.1283
  396MOL0     H54626   0.795   9.576   4.809 -0.1240  0.9182  1.2511
  396MOL0     H54627   0.686   9.451   4.805  2.0484 -0.1816 -1.1089
  396MOL0     H54628   0.147  10.046   5.021 -1.6237  2.4072 -0.3233
  396MOL0     H54629   0.229  10.169   4.822 -0.4673  0.1881 -1.3485
  396MOL0     H54630   0.389  10.116   4.286  0.6957 -0.6812  0.4241
  396MOL0     H54631   0.380  10.286   4.122  0.4001  3.2236 -0.9234
  396MOL0     H54632   0.770  10.311   2.926  0.8477 -0.3446  1.0083
  396MOL0     H54633   1.005  10.214   2.946 -2.1134 -0.2780 -0.2679
  396MOL0     H54634   1.366  10.138   3.011  0.0331  0.3036  2.3551
  396MOL0     H54635   1.566  10.015   3.008 -0.8043 -1.1304  0.9317
  396MOL0     H54636   1.802  10.107   3.194  0.1182 -0.2298  0.0607
  396MOL0     H54637   1.859   9.981   3.079  1.1949 -0.3853 -2.2936
  396MOL0     H54638   2.017  10.226   3.175 -2.3999 -0.0719  0.0220
  396MOL0     H54639   2.062  10.104   3.050 -0.7036  2.7789 -0.4231
  396MOL0     H54640   2.043  10.086   3.354  2.5900 -0.7343  0.4655
  396MOL0     H54641   2.006   9.939   3.273 -1.7755  1.4182  3.2393
  396MOL0     H54642   2.238   9.954   3.337  3.0348 -1.3337 -1.5015
  396MOL0     H54643   2.253  10.110   3.258 -1.9994  1.0589  1.5816
  396MOL0     H54644   2.356   9.806   2.964 -1.4738 -0.0852 -0.2504
  396MOL0     H54645   1.791  10.382   3.008  0.4412 -1.1709 -2.8988
  396MOL0     H54646   1.567  10.595   3.142 -1.4001  2.5503 -1.0145
  396MOL0     H54647   1.687  10.596   3.020  0.0349  0.4446  0.8496
  396MOL0     H54648   1.518  10.612   2.981  0.2808  3.3285  2.0197
  397MOL0     O54649   5.386   5.121   0.265 -0.3389  0.3443 -0.2748
  397MOL0     C54650   5.363   5.166   0.380 -0.5720 -0.2846 -0.7606
  397MOL0     O54651   5.400   5.293   0.423 -0.2473 -1.1548  0.4942
  397MOL0     C54652   5.456   5.394   0.348  0.2554  0.4853  0.3264
  397MOL0     C54653   5.542   5.478   0.418  0.4113 -0.3819  0.2017
  397MOL0     C54654   5.616   5.577   0.354  0.0171  0.5751  0.0265
  397MOL0     C54655   5.606   5.593   0.215 -0.1012 -0.1888 -0.4880
  397MOL0     O54656   5.672   5.690   0.143 -0.0484 -0.5183  0.7369
  397MOL0     C54657   5.763   5.777   0.213  0.4125  0.3938  1.0703
  397MOL0     C54658   5.858   5.825   0.105 -0.0289 -0.5491  0.5517
  397MOL0     C54659   5.990   5.890   0.160 -0.4598  0.6332  0.0202
  397MOL0     C54660   6.082   5.904   0.040  0.1449  0.4946  1.1378
  397MOL0     C54661   6.227   5.936   0.090  0.3900 -0.2337  0.1994
  397MOL0     C54662   6.332   5.966  -0.015 -0.1124 -0.5371 -0.7655
  397MOL0     C54663   6.457   6.052   0.028  0.3565  0.0021  0.1167
  397MOL0     C54664   6.419   6.209   0.040 -0.2731  0.8627 -0.0248
  397MOL0     N54665   6.540   6.287   0.049  0.5509  0.2317  0.0665
  397MOL0     C54666   6.621   6.330  -0.052 -0.3068 -0.2433 -0.1089
  397MOL0     C54667   6.702   6.433  -0.008  0.8306  0.2356 -0.4776
  397MOL0     C54668   6.797   6.510  -0.089 -0.0246  0.5415  0.1596
  397MOL0     C54669   6.754   6.547  -0.234  0.3792  0.3431  0.5881
  397MOL0     C54670   6.659   6.664  -0.240  0.7685  0.4559 -0.6284
  397MOL0     C54671   6.712   6.789  -0.176 -0.2762  0.4160 -0.1661
  397MOL0     O54672   6.634   6.898  -0.225  0.5484 -1.1721 -0.0136
  397MOL0     C54673   6.662   6.943  -0.353  0.8353 -0.5579  0.7068
  397MOL0     C54674   6.780   6.905  -0.430  1.1362 -0.1826  0.4863
  397MOL0     C54675   6.794   6.950  -0.565  0.1552  0.7267 -0.8013
  397MOL0     C54676   6.900   6.887  -0.645 -0.1495  0.0704  0.8580
  397MOL0     C54677   6.694   7.038  -0.620  0.2455  0.2449 -0.0300
  397MOL0     C54678   6.717   7.118  -0.747 -1.0829  0.9289  0.6629
  397MOL0     O54679   6.843   7.172  -0.767 -0.7076 -0.3858  0.0308
  397MOL0     C54680   6.854   7.276  -0.857  0.1573 -0.1125 -0.9387
  397MOL0     C54681   6.902   7.396  -0.796 -0.0942  0.2908 -0.0475
  397MOL0     C54682   6.931   7.505  -0.874  0.8550 -0.0770  0.2851
  397MOL0     C54683   6.901   7.514  -1.009  0.0055 -0.5778  0.0175
  397MOL0     O54684   6.934   7.619  -1.092  0.3403 -0.2436  0.4806
  397MOL0     C54685   6.820   7.684  -1.138  0.3983 -0.5636 -0.9795
  397MOL0     C54686   6.831   7.762  -1.266  0.3763  0.7790 -0.5983
  397MOL0     C54687   6.943   7.864  -1.251  0.9289  0.3958 -0.1469
  397MOL0     C54688   6.955   7.955  -1.373  0.0808 -0.3396  0.3208
  397MOL0     C54689   7.083   8.031  -1.367 -0.3533 -0.3207  0.5809
  397MOL0     C54690   7.084   8.135  -1.256 -0.1795 -0.0109  1.0156
  397MOL0     C54691   7.206   8.240  -1.273 -0.7238  0.5193  0.9409
  397MOL0     C54692   7.193   8.353  -1.174 -0.2398  0.1551 -0.8753
  397MOL0    Cl54693   7.285   8.343  -1.018  0.4452  0.8332 -0.0551
  397MOL0     C54694   6.852   7.399  -1.068 -0.5832  0.2466 -0.8841
  397MOL0     C54695   6.832   7.279  -0.997  0.5734 -0.8414 -0.7404
  397MOL0     O54696   6.610   7.157  -0.801  0.2710 -0.1678 -0.2430
  397MOL0     C54697   6.574   7.064  -0.551  1.0376  0.0159  0.4138
  397MOL0     C54698   6.563   7.022  -0.414  0.6779  0.1612  0.6620
  397MOL0     N54699   6.658   6.458   0.125 -0.1748 -0.0650  0.1513
  397MOL0     N54700   6.572   6.363   0.154  0.9713 -0.5345 -1.0790
  397MOL0     C54701   5.511   5.515   0.152 -0.4928 -0.1539  0.5525
  397MOL0     C54702   5.433   5.413   0.209  0.2658  0.4309  0.1899
  397MOL0     C54703   5.289   5.083   0.478 -0.3782 -0.7500  0.7613
  397MOL0     C54704   5.299   4.948   0.452  0.3658  0.0856 -1.8152
  397MOL0     C54705   5.226   4.861   0.527  0.0528  0.5406  0.2227
  397MOL0     C54706   5.148   4.897   0.638  0.9258  0.4254 -0.1738
  397MOL0     O54707   5.077   4.804   0.706  0.4839  0.2796 -0.5737
  397MOL0     C54708   5.010   4.846   0.825 -0.3424 -0.0814  0.5089
  397MOL0     C54709   4.980   4.726   0.916 -0.2540  0.0957 -0.2844
  397MOL0     C54710   5.113   4.647   0.945  0.1358  0.0653 -0.5860
  397MOL0     C54711   5.094   4.540   1.064 -0.0293 -0.6862  0.1100
  397MOL0     C54712   5.018   4.419   1.013 -0.3900 -0.1124  0.8300
  397MOL0     C54713   4.946   4.335   0.963 -0.4956  0.6642  0.1581
  397MOL0     C54714   5.141   5.034   0.666 -0.8651 -0.5480 -0.0446
  397MOL0     C54715   5.207   5.132   0.582  0.1916 -0.1444  0.3697
  397MOL0     C54716   5.188   5.277   0.616  0.5403 -0.5345 -0.1856
  397MOL0     H54717   5.553   5.468   0.525  0.6546  1.0901  0.3389
  397MOL0     H54718   5.668   5.648   0.419 -0.2076  0.2331  0.5912
  397MOL0     H54719   5.815   5.728   0.297 -0.9080 -0.3844  1.4633
  397MOL0     H54720   5.709   5.858   0.262 -0.3719  0.3438  0.3073
  397MOL0     H54721   5.889   5.750   0.032 -1.0771  1.8293 -2.5770
  397MOL0     H54722   5.797   5.904   0.059 -0.5731 -1.4917 -0.3990
  397MOL0     H54723   5.976   5.984   0.213  0.1712  0.8625 -0.2115
  397MOL0     H54724   6.029   5.816   0.230  2.3716  0.6156 -1.4334
  397MOL0     H54725   6.081   5.806  -0.008  1.6222  0.7589  0.5086
  397MOL0     H54726   6.041   5.983  -0.023  1.5838  0.5597  0.2258
  397MOL0     H54727   6.265   5.858   0.155 -0.5878 -1.6972 -0.9132
  397MOL0     H54728   6.212   6.021   0.157  0.0952 -0.6795  0.6994
  397MOL0     H54729   6.375   5.881  -0.070 -0.3132  0.1333 -1.9955
  397MOL0     H54730   6.288   6.029  -0.093  0.0458 -0.2723 -0.6406
  397MOL0     H54731   6.543   6.031  -0.036 -0.8190 -3.5999 -0.5223
  397MOL0     H54732   6.490   6.027   0.129  0.3534 -1.5817 -0.2421
  397MOL0     H54733   6.356   6.241  -0.043  1.5245 -1.2503 -2.3586
  397MOL0     H54734   6.374   6.211   0.140 -0.9098 -2.7957 -0.1160
  397MOL0     H54735   6.621   6.275  -0.145 -0.3536 -0.1508 -0.1637
  397MOL0     H54736   6.888   6.451  -0.101  0.7573  1.4788  1.1971
  397MOL0     H54737   6.814   6.598  -0.026 -1.6364  0.8277  0.2380
  397MOL0     H54738   6.843   6.571  -0.293  0.6897 -2.5428 -0.3080
  397MOL0     H54739   6.720   6.457  -0.286 -1.7388 -1.2493  4.3203
  397MOL0     H54740   6.646   6.689  -0.346 -0.3227  1.3375 -0.3122
  397MOL0     H54741   6.562   6.629  -0.205  2.0230 -1.7656  0.8783
  397MOL0     H54742   6.708   6.790  -0.067  2.3296 -0.5104  0.0095
  397MOL0     H54743   6.817   6.809  -0.200 -0.6992  1.8359 -0.9202
  397MOL0     H54744   6.856   6.841  -0.386 -0.1676 -1.3467  1.1197
  397MOL0     H54745   6.861   6.861  -0.744 -0.0716 -1.3375  1.1773
  397MOL0     H54746   6.940   6.792  -0.609  1.8906  1.2898  2.0455
  397MOL0     H54747   6.987   6.953  -0.643  1.7391 -2.0646 -2.6295
  397MOL0     H54748   6.934   7.391  -0.692 -1.6086 -2.1045  0.3748
  397MOL0     H54749   6.965   7.600  -0.835  3.5385 -0.0194 -1.8533
  397MOL0     H54750   6.741   7.610  -1.151 -1.2767  1.2410 -1.6499
  397MOL0     H54751   6.796   7.755  -1.058 -0.0838 -0.3793 -1.2840
  397MOL0     H54752   6.850   7.699  -1.354  1.8634 -1.1929  1.0480
  397MOL0     H54753   6.742   7.819  -1.294 -0.0164  0.9476  0.9230
  397MOL0     H54754   7.032   7.801  -1.243  1.1418  0.4728 -1.5538
  397MOL0     H54755   6.939   7.911  -1.153  0.3505  3.1395 -1.3968
  397MOL0     H54756   6.862   8.011  -1.385 -0.5950 -0.8095  2.7141
  397MOL0     H54757   6.975   7.892  -1.460  0.7340  0.9147 -0.4689
  397MOL0     H54758   7.166   7.962  -1.348  2.7692  3.4471  2.0950
  397MOL0     H54759   7.102   8.055  -1.472  1.4099 -3.4307  0.0629
  397MOL0     H54760   7.087   8.085  -1.159 -1.0059 -0.4004  0.8442
  397MOL0     H54761   6.992   8.193  -1.268  0.9370  1.8606  1.0216
  397MOL0     H54762   7.212   8.285  -1.372 -1.8755 -1.1759  0.0623
  397MOL0     H54763   7.300   8.190  -1.249  0.6783  3.2658  1.6236
  397MOL0     H54764   7.090   8.385  -1.156 -0.1653 -1.2916  3.0064
  397MOL0     H54765   7.249   8.439  -1.214  1.2325 -0.6904 -0.6807
  397MOL0     H54766   6.839   7.407  -1.176 -0.1435  0.2019 -0.9412
  397MOL0     H54767   6.793   7.185  -1.034 -2.0585  0.7090 -2.2351
  397MOL0     H54768   6.495   7.134  -0.580  2.2541  0.2575 -2.7634
  397MOL0     H54769   6.476   7.052  -0.357 -0.5592 -3.4857  0.9083
  397MOL0     H54770   5.501   5.535   0.046  2.8665  2.2881  0.5757
  397MOL0     H54771   5.356   5.358   0.156  1.5953 -0.5259 -0.8039
  397MOL0     H54772   5.358   4.903   0.373  0.8929 -1.9669 -0.3219
  397MOL0     H54773   5.241   4.757   0.502  3.7405  0.9929  0.0533
  397MOL0     H54774   5.078   4.909   0.883  1.2883  1.1913 -2.5410
  397MOL0     H54775   4.916   4.896   0.800 -1.8635 -2.4044  1.2452
  397MOL0     H54776   4.922   4.652   0.859  1.9119 -1.2354 -0.9054
  397MOL0     H54777   4.931   4.755   1.009  0.7944  1.1186 -0.0330
  397MOL0     H54778   5.137   4.593   0.853  0.5487 -2.6841  1.0143
  397MOL0     H54779   5.191   4.714   0.983 -1.1741  1.1679  0.2703
  397MOL0     H54780   5.028   4.557   1.150 -2.1149 -3.2206 -0.8781
  397MOL0     H54781   5.198   4.526   1.096  0.4425  0.8130 -0.6524
  397MOL0     H54782   4.889   4.261   0.910  2.2243 -2.2105  0.9088
  397MOL0     H54783   5.066   5.062   0.740 -0.0792 -1.7674  1.2749
  397MOL0     H54784   5.167   5.328   0.521 -2.5349 -3.6942 -1.4610
  397MOL0     H54785   5.101   5.291   0.680  0.3137 -0.5579 -0.4875
  397MOL0     H54786   5.279   5.303   0.670  0.1746 -2.4908  1.4837
  398MOL0     O54787  11.193  10.802   0.375 -0.8116 -0.2250  0.3526
  398MOL0     C54788  11.084  10.749   0.367 -0.3967 -0.1930 -0.2593
  398MOL0     O54789  11.017  10.709   0.254  0.0352  0.3567  0.6470
  398MOL0     C54790  11.063  10.762   0.137 -0.2575 -0.2724 -0.9846
  398MOL0     C54791  11.106  10.687   0.031 -0.6870  0.1438  0.4589
  398MOL0     C54792  11.150  10.747  -0.090 -0.0573  0.3217 -0.1395
  398MOL0     C54793  11.144  10.885  -0.103  0.4520 -0.1884  0.2513
  398MOL0     O54794  11.184  10.947  -0.220 -1.0336  0.9993  0.1396
  398MOL0     C54795  11.322  10.919  -0.247 -1.1222  0.0580  0.6805
  398MOL0     C54796  11.410  11.034  -0.312  0.5509 -0.3792 -0.4929
  398MOL0     C54797  11.379  11.065  -0.453  0.1620 -0.5201 -0.2353
  398MOL0     C54798  11.444  10.964  -0.550 -0.0151  0.0961 -0.2153
  398MOL0     C54799  11.401  10.977  -0.691  0.9151  0.0267  0.3678
  398MOL0     C54800  11.436  11.121  -0.742  0.2172  0.6743  0.5446
  398MOL0     C54801  11.402  11.136  -0.890 -0.1635 -0.4532  0.7463
  398MOL0     C54802  11.252  11.141  -0.925 -0.0690 -0.6865 -1.4813
  398MOL0     N54803  11.188  11.273  -0.922 -0.0689  0.1477  0.0945
  398MOL0     C54804  11.127  11.316  -0.802 -0.5602 -0.4852 -0.2954
  398MOL0     C54805  11.124  11.450  -0.821 -0.4722  0.7760 -0.8009
  398MOL0     C54806  11.110  11.539  -0.702  0.3412  0.8257  0.8197
  398MOL0     C54807  10.964  11.547  -0.650  0.3985  0.6698 -0.2193
  398MOL0     C54808  10.874  11.605  -0.750 -0.4729  0.2306 -0.6866
  398MOL0     C54809  10.724  11.603  -0.704  0.0190  0.5856 -0.2033
  398MOL0     O54810  10.717  11.676  -0.583 -0.1405  0.0256 -0.4614
  398MOL0     C54811  10.596  11.720  -0.551 -0.5426 -0.5809  0.0296
  398MOL0     C54812  10.585  11.789  -0.433  0.2399  0.3667  0.5854
  398MOL0     C54813  10.454  11.826  -0.385 -0.7532  0.1106 -0.0491
  398MOL0     C54814  10.438  11.907  -0.254  0.0064 -0.6343  0.0572
  398MOL0     C54815  10.349  11.799  -0.470 -0.3709  0.4431  0.6153
  398MOL0     C54816  10.218  11.843  -0.435  0.0688  0.8168 -0.5402
  398MOL0     O54817  10.162  11.795  -0.323  1.2824 -0.4952 -0.9134
  398MOL0     C54818  10.049  11.865  -0.295  0.3620 -0.2577 -0.7506
  398MOL0     C54819   9.918  11.797  -0.310 -0.4240  0.6868  0.3444
  398MOL0     C54820   9.791  11.857  -0.281 -0.7543 -1.0344 -0.3321
  398MOL0     C54821   9.789  11.994  -0.235 -0.0000 -0.7517  0.6646
  398MOL0     O54822   9.683  12.083  -0.217  0.5304 -0.5196  0.4467
  398MOL0     C54823   9.549  12.037  -0.195  0.8039  0.2197  0.1136
  398MOL0     C54824   9.456  12.150  -0.162 -0.6975  0.0944  0.2825
  398MOL0     C54825   9.488  12.221  -0.033 -0.1450 -0.2999 -0.3449
  398MOL0     C54826   9.395  12.348  -0.006 -0.0266  1.1254 -0.1852
  398MOL0     C54827   9.427  12.424   0.129 -0.3632 -0.6685  0.6543
  398MOL0     C54828   9.562  12.476   0.131  1.1033 -0.4790 -0.0555
  398MOL0     C54829   9.562  12.555   0.271 -0.1399 -0.8149 -0.0154
  398MOL0     C54830   9.687  12.640   0.281 -0.3639  0.8538 -0.1453
  398MOL0    Cl54831   9.671  12.784   0.173  0.0873 -0.0434 -0.4519
  398MOL0     C54832   9.914  12.062  -0.224  0.2090 -0.4672  0.0286
  398MOL0     C54833  10.038  11.994  -0.245  0.4319  1.1808  0.4748
  398MOL0     O54834  10.164  11.922  -0.512  0.0287 -0.1518 -0.0822
  398MOL0     C54835  10.366  11.724  -0.585  0.5245 -0.4560  0.7788
  398MOL0     C54836  10.484  11.683  -0.633  0.1417 -0.4771 -0.4948
  398MOL0     N54837  11.189  11.488  -0.935 -0.4928 -0.2412  0.0402
  398MOL0     N54838  11.229  11.380  -1.000 -0.9420  0.2497  0.0836
  398MOL0     C54839  11.091  10.959  -0.003  0.9721  0.0412 -0.5140
  398MOL0     C54840  11.045  10.901   0.120 -0.4960 -0.2966  0.8956
  398MOL0     C54841  11.016  10.729   0.493 -0.7000  0.0917 -0.3033
  398MOL0     C54842  11.023  10.837   0.587  0.2485  0.5163  0.4353
  398MOL0     C54843  10.994  10.835   0.723 -0.5704 -0.0339 -0.2901
  398MOL0     C54844  10.950  10.711   0.767 -0.0637 -0.4300  0.0738
  398MOL0     O54845  10.924  10.695   0.903 -0.1549  0.3147  0.0568
  398MOL0     C54846  10.943  10.802   0.998 -0.4353  0.2095  0.1417
  398MOL0     C54847  10.885  10.757   1.132 -0.4757 -0.5292  0.1628
  398MOL0     C54848  10.941  10.835   1.258  0.2757 -0.4991 -0.0555
  398MOL0     C54849  10.864  10.966   1.299  0.0284  0.0448 -0.2450
  398MOL0     C54850  10.727  10.941   1.352  0.4851  0.4119  0.1006
  398MOL0     C54851  10.616  10.907   1.382  0.2015 -0.7007  0.1797
  398MOL0     C54852  10.917  10.614   0.677  0.1286  0.8631 -0.1931
  398MOL0     C54853  10.947  10.617   0.540 -0.8187 -0.3363  0.1596
  398MOL0     C54854  10.926  10.489   0.455  0.1984  0.0195  0.6391
  398MOL0     H54855  11.096  10.580   0.045  2.4972 -0.3077  0.0200
  398MOL0     H54856  11.190  10.686  -0.170  0.3149 -1.1306  1.1116
  398MOL0     H54857  11.337  10.827  -0.305  2.3161  0.5515  0.5460
  398MOL0     H54858  11.375  10.906  -0.152  2.0090 -0.8767 -1.0471
  398MOL0     H54859  11.369  11.114  -0.250 -2.7353 -0.4462 -2.3563
  398MOL0     H54860  11.518  11.028  -0.299  0.3420  0.2569  1.9942
  398MOL0     H54861  11.272  11.052  -0.469  0.1572 -0.6880 -0.0603
  398MOL0     H54862  11.411  11.165  -0.485 -0.6570 -1.0969 -3.0945
  398MOL0     H54863  11.553  10.975  -0.547 -0.1408  1.2877  2.3860
  398MOL0     H54864  11.421  10.862  -0.517  1.9357  0.1336  1.5018
  398MOL0     H54865  11.292  10.967  -0.693  0.6802  1.7247  2.0748
  398MOL0     H54866  11.459  10.904  -0.748  3.0162  0.1350  2.2560
  398MOL0     H54867  11.379  11.200  -0.693 -1.2242  0.1514 -0.2261
  398MOL0     H54868  11.542  11.146  -0.733  0.6057  0.3703 -2.3741
  398MOL0     H54869  11.435  11.046  -0.943 -3.7907 -1.9798  0.7850
  398MOL0     H54870  11.439  11.234  -0.922 -0.7708 -0.1949  0.8279
  398MOL0     H54871  11.231  11.105  -1.026  0.2097 -1.3611 -1.3007
  398MOL0     H54872  11.198  11.080  -0.853 -0.3049  1.5875  0.4027
  398MOL0     H54873  11.105  11.262  -0.711  1.9925  0.2223  0.8387
  398MOL0     H54874  11.132  11.635  -0.749  0.4068  1.7310  2.6355
  398MOL0     H54875  11.176  11.516  -0.618 -1.3359 -2.1956  1.4660
  398MOL0     H54876  10.935  11.449  -0.611  0.9045  1.7447  3.1936
  398MOL0     H54877  10.958  11.617  -0.566 -0.2285  1.7740 -1.1378
  398MOL0     H54878  10.897  11.711  -0.768 -1.6251  0.8115  1.0629
  398MOL0     H54879  10.896  11.558  -0.847  1.9752  0.9625 -0.5518
  398MOL0     H54880  10.657  11.644  -0.780 -2.7166 -2.2750  0.5048
  398MOL0     H54881  10.704  11.499  -0.677 -1.4156  1.1135  0.8940
  398MOL0     H54882  10.670  11.789  -0.365 -0.1895 -1.9436  1.1848
  398MOL0     H54883  10.532  11.936  -0.208 -0.5964  3.1367 -0.7823
  398MOL0     H54884  10.369  11.859  -0.183  2.4313 -3.6350  0.6196
  398MOL0     H54885  10.400  12.003  -0.289 -0.1416 -1.8056 -3.3729
  398MOL0     H54886   9.915  11.706  -0.369 -2.4923  1.0444 -0.1940
  398MOL0     H54887   9.703  11.793  -0.279 -1.8612  0.3317  3.7718
  398MOL0     H54888   9.525  11.985  -0.289  1.6454  1.1819 -0.6625
  398MOL0     H54889   9.554  11.957  -0.121 -1.7944 -2.3639 -2.2561
  398MOL0     H54890   9.445  12.213  -0.251 -1.0042  0.3900  0.5291
  398MOL0     H54891   9.358  12.103  -0.151  0.6241 -2.6888  1.0543
  398MOL0     H54892   9.592  12.255  -0.035  0.3483 -1.4330  2.3291
  398MOL0     H54893   9.476  12.152   0.051  3.2764 -1.0523 -0.3259
  398MOL0     H54894   9.287  12.339  -0.021 -0.0863  2.5320 -0.7282
  398MOL0     H54895   9.421  12.405  -0.095 -0.6589  0.9211 -0.5062
  398MOL0     H54896   9.344  12.494   0.140 -4.9206 -4.4583 -4.3273
  398MOL0     H54897   9.410  12.346   0.204 -0.3666  0.0511  1.4131
  398MOL0     H54898   9.578  12.543   0.047  1.7298 -0.6788 -0.1035
  398MOL0     H54899   9.635  12.395   0.127 -1.0292 -2.5027 -0.1425
  398MOL0     H54900   9.575  12.482   0.352  0.1222 -0.1635  0.5385
  398MOL0     H54901   9.472  12.614   0.286  1.1936  2.3566 -3.1070
  398MOL0     H54902   9.779  12.592   0.244 -0.5435  1.1722 -1.0362
  398MOL0     H54903   9.709  12.673   0.383  2.2314 -2.4165  0.5472
  398MOL0     H54904   9.900  12.169  -0.212 -1.0414 -0.4939 -0.9589
  398MOL0     H54905  10.132  12.045  -0.229  0.7095  0.6943  0.4231
  398MOL0     H54906  10.277  11.716  -0.646 -0.4163 -0.4026  2.0826
  398MOL0     H54907  10.479  11.645  -0.734  3.6714  0.6450 -1.2452
  398MOL0     H54908  11.071  11.065  -0.018 -0.6141 -0.3401 -1.2600
  398MOL0     H54909  11.014  10.957   0.208  1.2666 -1.2707  2.2193
  398MOL0     H54910  11.064  10.935   0.563 -1.0934  1.0983  0.4823
  398MOL0     H54911  10.994  10.930   0.775  0.4109 -0.0484 -0.2525
  398MOL0     H54912  11.049  10.829   1.003 -0.9403  2.2463  0.4983
  398MOL0     H54913  10.897  10.894   0.961 -1.8491 -0.3866  0.3635
  398MOL0     H54914  10.906  10.651   1.148 -2.1386 -1.1688 -1.5522
  398MOL0     H54915  10.776  10.758   1.120 -0.3691  2.6233 -1.5256
  398MOL0     H54916  10.956  10.770   1.345 -1.8658 -2.9382 -1.3868
  398MOL0     H54917  11.044  10.857   1.231 -0.3745  1.6518 -0.9738
  398MOL0     H54918  10.868  11.042   1.220  0.3078 -0.3823 -0.6412
  398MOL0     H54919  10.912  11.013   1.386 -3.2028 -1.2389  2.4575
  398MOL0     H54920  10.518  10.873   1.409 -0.0801 -1.3384 -1.4873
  398MOL0     H54921  10.874  10.523   0.717  1.8335 -0.5724 -1.4660
  398MOL0     H54922  11.015  10.428   0.436 -0.2229  0.0148 -1.6662
  398MOL0     H54923  10.845  10.430   0.498 -0.9672  0.6001 -0.6743
  398MOL0     H54924  10.882  10.514   0.357 -0.4229  2.3218  1.4315
  399MOL0     O54925  11.204   2.240   1.132 -0.2278 -0.2398  0.3750
  399MOL0     C54926  11.176   2.154   1.054  0.4060 -0.2177 -0.7402
  399MOL0     O54927  11.259   2.096   0.955 -0.0168  0.0630  0.4568
  399MOL0     C54928  11.384   2.138   0.941  0.5428 -0.3127  0.4519
  399MOL0     C54929  11.481   2.043   0.926 -0.0107 -1.5053 -0.2272
  399MOL0     C54930  11.613   2.079   0.886  0.2395  0.5876 -0.8468
  399MOL0     C54931  11.640   2.221   0.855  0.3200 -0.2695 -0.1544
  399MOL0     O54932  11.764   2.265   0.814  0.3808  0.1187 -0.1115
  399MOL0     C54933  11.862   2.183   0.747  0.1445  0.2013  0.0959
  399MOL0     C54934  11.957   2.290   0.691 -0.3680 -0.2397  0.7222
  399MOL0     C54935  12.101   2.253   0.677 -0.2892  0.2543 -0.0511
  399MOL0     C54936  12.211   2.355   0.653 -0.9050  0.9702  0.0964
  399MOL0     C54937  12.351   2.304   0.674 -0.6346 -0.1509  0.0656
  399MOL0     C54938  12.398   2.202   0.561 -1.3211  0.8671 -0.7161
  399MOL0     C54939  12.537   2.142   0.597 -0.2936 -0.6842 -0.1669
  399MOL0     C54940  12.522   2.031   0.700  0.2871  0.7271 -0.2353
  399MOL0     N54941  12.649   1.960   0.706  0.1845  0.2870  0.2843
  399MOL0     C54942  12.778   1.994   0.686 -0.5808  0.4773  0.1524
  399MOL0     C54943  12.855   1.875   0.694 -0.0287 -0.4029  0.3687
  399MOL0     C54944  13.002   1.868   0.688  0.7372 -0.3987 -0.0263
  399MOL0     C54945  13.054   1.742   0.759 -0.4205  1.2272  0.2830
  399MOL0     C54946  13.202   1.758   0.797  0.4614 -0.1021  0.1266
  399MOL0     C54947  13.283   1.775   0.667  0.4298 -0.0118  0.5940
  399MOL0     O54948  13.298   1.911   0.628  1.2165 -0.2068 -0.6267
  399MOL0     C54949  13.369   1.931   0.521  0.3456 -0.4838  0.8084
  399MOL0     C54950  13.475   2.016   0.532  0.0257  0.6351  0.6315
  399MOL0     C54951  13.578   2.036   0.432 -0.2828  0.0546  0.3745
  399MOL0     C54952  13.692   2.125   0.469 -0.7956  0.3479 -0.2296
  399MOL0     C54953  13.572   1.948   0.316  0.5527  0.6801 -0.0611
  399MOL0     C54954  13.688   1.937   0.210 -0.3940  0.4872 -1.0912
  399MOL0     O54955  13.809   2.003   0.238  0.3163 -0.6743 -0.7368
  399MOL0     C54956  13.930   1.966   0.193 -0.0486 -0.4891  1.2416
  399MOL0     C54957  13.960   1.842   0.143 -0.2783  0.1176 -0.3408
  399MOL0     C54958  14.089   1.804   0.096  1.6994 -0.3207 -0.0497
  399MOL0     C54959  14.194   1.885   0.097 -0.6697 -0.6658  0.0116
  399MOL0     O54960  14.313   1.836   0.044  0.9855  0.1400 -1.1760
  399MOL0     C54961  14.419   1.924   0.054 -1.8693  0.5469  0.0114
  399MOL0     C54962  14.544   1.854   0.001  0.2435  0.1282 -0.6155
  399MOL0     C54963  14.651   1.965  -0.034 -0.0293 -0.3599  0.4119
  399MOL0     C54964  14.785   1.894  -0.049 -0.3920 -0.7297  0.4280
  399MOL0     C54965  14.890   1.979  -0.120 -0.0246 -0.2550 -0.1426
  399MOL0     C54966  15.013   1.902  -0.119 -0.2331  0.6322  0.5391
  399MOL0     C54967  15.111   1.993  -0.204  0.1444 -0.0845  0.3819
  399MOL0     C54968  15.239   1.933  -0.225 -0.8058  0.4387 -0.2637
  399MOL0    Cl54969  15.221   1.778  -0.309 -0.0622  0.0128  0.2760
  399MOL0     C54970  14.176   2.015   0.150  0.3716  0.2355  1.0536
  399MOL0     C54971  14.049   2.047   0.201  0.1333 -0.1248 -1.5479
  399MOL0     O54972  13.658   1.877   0.107 -0.4438  0.2771  0.1195
  399MOL0     C54973  13.458   1.867   0.297  0.0170  0.2863  0.5330
  399MOL0     C54974  13.361   1.865   0.399  0.0655  0.9344  0.1171
  399MOL0     N54975  12.774   1.774   0.711  0.7029  0.7738 -0.3377
  399MOL0     N54976  12.651   1.823   0.718 -0.3520 -0.1955 -0.2886
  399MOL0     C54977  11.532   2.311   0.862 -0.3272 -0.8946 -1.0078
  399MOL0     C54978  11.403   2.270   0.904 -0.3059  0.0485 -0.2946
  399MOL0     C54979  11.032   2.099   1.056  0.1954  0.7334  0.0008
  399MOL0     C54980  11.009   1.962   1.007  0.8691 -0.1418 -0.1597
  399MOL0     C54981  10.883   1.906   0.993  0.5115 -0.6759 -0.6984
  399MOL0     C54982  10.773   1.978   1.029 -0.1252  0.8034  0.6150
  399MOL0     O54983  10.652   1.912   1.010  0.4767 -0.1430  0.0158
  399MOL0     C54984  10.528   1.981   1.015  0.7376  0.4229  0.1494
  399MOL0     C54985  10.471   1.993   1.160 -0.6648 -0.5563  0.1436
  399MOL0     C54986  10.389   1.870   1.199  0.9919 -0.3120  0.7334
  399MOL0     C54987  10.425   1.806   1.336 -0.3368  1.1246  0.2363
  399MOL0     C54988  10.562   1.749   1.319  0.7259  1.0732  0.6025
  399MOL0     C54989  10.671   1.698   1.294  0.2255 -0.6224  0.1018
  399MOL0     C54990  10.793   2.108   1.088 -0.5347 -0.0443  0.0222
  399MOL0     C54991  10.918   2.167   1.103  0.6094  0.0907  0.2385
  399MOL0     C54992  10.917   2.302   1.186 -0.1951 -0.0851 -0.3862
  399MOL0     H54993  11.456   1.938   0.941  0.6965 -2.0855 -2.6538
  399MOL0     H54994  11.678   1.993   0.876  1.0438  0.8756  1.3650
  399MOL0     H54995  11.816   2.142   0.656 -1.4655 -1.6187  1.6430
  399MOL0     H54996  11.907   2.104   0.808 -0.6912 -0.9293 -0.7202
  399MOL0     H54997  11.922   2.309   0.589 -0.7328 -0.4079  0.8166
  399MOL0     H54998  11.956   2.375   0.760 -0.0714 -1.3333  2.1034
  399MOL0     H54999  12.120   2.218   0.779 -2.6380  2.3704  1.2171
  399MOL0     H55000  12.110   2.160   0.619 -1.2756  0.1305 -0.0146
  399MOL0     H55001  12.203   2.385   0.548  0.9915  1.2917  0.0089
  399MOL0     H55002  12.191   2.445   0.711 -0.4898  2.0156 -1.3181
  399MOL0     H55003  12.358   2.235   0.759  0.8075 -3.2800 -2.3731
  399MOL0     H55004  12.424   2.385   0.687 -1.3489  0.7196 -1.1745
  399MOL0     H55005  12.325   2.123   0.538  0.7890 -0.7289 -2.3195
  399MOL0     H55006  12.408   2.260   0.469  2.4282 -0.5316 -1.3591
  399MOL0     H55007  12.597   2.222   0.641 -2.6738  0.4872  1.1123
  399MOL0     H55008  12.592   2.110   0.507 -1.4129 -0.6291 -0.8887
  399MOL0     H55009  12.509   2.075   0.799 -0.5081 -1.7837  0.8459
  399MOL0     H55010  12.431   1.974   0.679 -0.9751  3.1465 -1.8334
  399MOL0     H55011  12.804   2.098   0.668 -1.6555  0.6765 -0.3812
  399MOL0     H55012  13.055   1.955   0.730  0.9298 -0.3899 -0.2783
  399MOL0     H55013  13.022   1.856   0.581 -0.5963 -1.9970 -0.1307
  399MOL0     H55014  13.005   1.726   0.855 -0.5230  0.0553  0.0512
  399MOL0     H55015  13.048   1.652   0.698 -5.4061  2.7020 -1.8521
  399MOL0     H55016  13.211   1.843   0.866 -2.0688  0.5142 -0.1949
  399MOL0     H55017  13.222   1.667   0.854 -1.4873 -0.9151 -0.4253
  399MOL0     H55018  13.384   1.740   0.690  0.5984  0.3418  0.4083
  399MOL0     H55019  13.244   1.706   0.593 -1.3618  1.6842 -0.1180
  399MOL0     H55020  13.491   2.070   0.625  0.6371  3.3423 -0.9502
  399MOL0     H55021  13.677   2.191   0.555  0.7788  3.5826 -2.2637
  399MOL0     H55022  13.738   2.186   0.391  1.3382 -1.1682 -0.2420
  399MOL0     H55023  13.768   2.051   0.494 -0.6382  1.0109  1.3831
  399MOL0     H55024  13.880   1.769   0.142  1.5591 -2.0682  1.3474
  399MOL0     H55025  14.094   1.712   0.039 -2.5992 -1.0187  0.3616
  399MOL0     H55026  14.396   2.007  -0.014  1.6883  1.3534 -0.3968
  399MOL0     H55027  14.441   1.965   0.153  1.0903 -2.3834  0.7479
  399MOL0     H55028  14.577   1.785   0.079  0.7366  0.3403 -0.6379
  399MOL0     H55029  14.516   1.794  -0.087 -1.1252  0.9400 -0.7586
  399MOL0     H55030  14.660   2.044   0.041 -1.3403 -0.1799  0.3997
  399MOL0     H55031  14.617   2.010  -0.128 -1.4128  0.1699  1.1327
  399MOL0     H55032  14.784   1.809  -0.118  2.8337  0.8202 -1.7710
  399MOL0     H55033  14.826   1.848   0.041  3.3120 -2.3725 -1.8623
  399MOL0     H55034  14.858   2.010  -0.220 -1.2999 -1.1739 -0.0370
  399MOL0     H55035  14.901   2.072  -0.063  1.2044  1.2821 -2.6931
  399MOL0     H55036  14.990   1.804  -0.163  1.5600  0.0569  0.8171
  399MOL0     H55037  15.052   1.889  -0.018  2.0385  1.0238 -0.2309
  399MOL0     H55038  15.123   2.089  -0.154 -1.7423  2.3629 -3.4335
  399MOL0     H55039  15.068   2.019  -0.301 -1.9015  1.4014  1.6095
  399MOL0     H55040  15.304   1.922  -0.138 -0.4106 -2.2973 -0.7865
  399MOL0     H55041  15.310   1.983  -0.291  3.4103 -2.4682  1.5665
  399MOL0     H55042  14.252   2.092   0.141 -0.4934  0.8926 -1.3419
  399MOL0     H55043  14.040   2.138   0.260  0.5968  0.2303 -2.0180
  399MOL0     H55044  13.446   1.807   0.207  0.3743 -1.4341  1.5768
  399MOL0     H55045  13.278   1.799   0.377 -0.5527  0.6789  2.9499
  399MOL0     H55046  11.562   2.413   0.842  4.6554 -1.2353  2.7925
  399MOL0     H55047  11.325   2.346   0.909  1.5376  1.9533  1.8107
  399MOL0     H55048  11.087   1.897   0.969 -0.3335 -1.8188  0.1095
  399MOL0     H55049  10.870   1.808   0.948  0.2311 -1.0830  0.2504
  399MOL0     H55050  10.544   2.079   0.970  0.0758  1.1331  1.4052
  399MOL0     H55051  10.459   1.948   0.936  0.7234  0.8114 -0.0028
  399MOL0     H55052  10.412   2.085   1.163  0.1920  0.0628 -1.0659
  399MOL0     H55053  10.547   1.998   1.239 -0.6745  0.4507  0.0999
  399MOL0     H55054  10.281   1.888   1.192  1.0082  0.2895  1.8788
  399MOL0     H55055  10.395   1.794   1.120  0.7614  1.1148 -0.7049
  399MOL0     H55056  10.353   1.730   1.366  1.2821  0.5032  2.8934
  399MOL0     H55057  10.424   1.868   1.425  0.1634  1.1997  0.1949
  399MOL0     H55058  10.771   1.665   1.273  0.4376  0.2340 -0.2808
  399MOL0     H55059  10.706   2.163   1.121 -0.2575  0.4327 -0.0324
  399MOL0     H55060  10.936   2.282   1.292 -0.5556 -1.3312 -0.5379
  399MOL0     H55061  10.991   2.374   1.150 -1.6771  1.4786 -0.4103
  399MOL0     H55062  10.820   2.351   1.174  0.1700  1.1673  1.5166
  400MOL0     O55063   0.078   8.236   7.853 -0.7304  0.1679 -0.0178
  400MOL0     C55064   0.016   8.135   7.894  0.3938 -0.0974 -0.8436
  400MOL0     O55065   0.068   8.031   7.962 -0.3026  0.2366 -0.9523
  400MOL0     C55066   0.206   8.018   7.981  0.5937  0.0029 -0.8951
  400MOL0     C55067   0.260   7.987   8.105  0.4997 -0.0217  0.1612
  400MOL0     C55068   0.393   7.946   8.118 -0.0895  1.1717  0.4443
  400MOL0     C55069   0.482   7.926   8.013  0.2386 -1.2006  1.0925
  400MOL0     O55070   0.609   7.880   8.015  0.2826  0.6049  0.5427
  400MOL0     C55071   0.698   7.953   8.105 -1.1075 -0.3906 -0.6268
  400MOL0     C55072   0.838   7.897   8.137  0.6057  0.0350  0.3325
  400MOL0     C55073   0.939   7.906   8.018 -0.4548  0.1603 -0.1906
  400MOL0     C55074   0.944   8.044   7.965  0.7469  0.4254  0.1253
  400MOL0     C55075   1.055   8.082   7.868  0.2224  0.6620  0.1493
  400MOL0     C55076   1.200   8.057   7.911  0.7130  1.0144  0.6348
  400MOL0     C55077   1.306   8.097   7.810  0.4001  0.9126  0.2071
  400MOL0     C55078   1.431   8.034   7.854  0.3345 -0.8567 -0.0468
  400MOL0     N55079   1.545   8.103   7.788  0.1458 -0.0715 -0.0315
  400MOL0     C55080   1.627   8.043   7.699 -0.0055 -0.2984  0.6847
  400MOL0     C55081   1.718   8.141   7.669 -0.5385  0.1921  0.6220
  400MOL0     C55082   1.818   8.153   7.553  0.4206  0.1387 -0.2148
  400MOL0     C55083   1.960   8.168   7.613 -0.0028 -0.2751  0.2102
  400MOL0     C55084   2.066   8.128   7.504  0.5815 -0.4637  0.1919
  400MOL0     C55085   2.091   7.980   7.483 -0.5958 -1.0640 -0.1040
  400MOL0     O55086   2.134   7.931   7.607  0.3938  0.0707 -0.1192
  400MOL0     C55087   2.265   7.908   7.626 -0.0945 -0.6762 -0.0191
  400MOL0     C55088   2.363   7.960   7.548  0.7534  0.4386  0.4122
  400MOL0     C55089   2.489   7.922   7.569  0.3247  0.3953 -0.3001
  400MOL0     C55090   2.595   7.995   7.493  0.3846 -0.3048 -0.2988
  400MOL0     C55091   2.527   7.835   7.676  0.0948  0.1858 -0.1805
  400MOL0     C55092   2.666   7.785   7.712 -1.2297  0.7055 -0.1886
  400MOL0     O55093   2.683   7.716   7.838 -0.3019  0.2247 -0.1214
  400MOL0     C55094   2.789   7.619   7.839  0.1847 -0.9738  0.3860
  400MOL0     C55095   2.829   7.539   7.729 -0.1537  0.0997 -0.0121
  400MOL0     C55096   2.938   7.457   7.747 -0.6522  0.1027  0.1490
  400MOL0     C55097   2.997   7.437   7.876  0.3901 -0.0001 -0.1409
  400MOL0     O55098   3.090   7.335   7.887 -0.7156  0.1742  0.2990
  400MOL0     C55099   3.146   7.299   8.023 -0.4670 -0.2891 -0.4880
  400MOL0     C55100   3.245   7.186   8.003 -0.2347 -0.5705 -0.0326
  400MOL0     C55101   3.278   7.119   8.134 -0.1746  0.0117 -0.4511
  400MOL0     C55102   3.394   7.014   8.123  0.0307 -0.8431  0.1698
  400MOL0     C55103   3.398   6.900   8.223 -0.7480  0.4295  0.3151
  400MOL0     C55104   3.478   6.782   8.160  0.1533 -0.5486  0.1106
  400MOL0     C55105   3.637   6.820   8.142  0.3762  1.0906  0.4989
  400MOL0     C55106   3.717   6.855   8.267  0.7201  0.2693 -0.1659
  400MOL0    Cl55107   3.789   6.707   8.353  0.2610 -0.0867 -0.6555
  400MOL0     C55108   2.944   7.512   7.992  0.2854 -0.4655 -0.7343
  400MOL0     C55109   2.841   7.604   7.966 -0.5956  0.4977  0.1271
  400MOL0     O55110   2.758   7.818   7.640  0.0907 -0.1050  0.4447
  400MOL0     C55111   2.420   7.788   7.761  0.3886 -0.9092 -0.1079
  400MOL0     C55112   2.293   7.827   7.734  0.0485 -0.1313  0.1784
  400MOL0     N55113   1.690   8.247   7.753  0.8602 -0.6768  0.0435
  400MOL0     N55114   1.591   8.229   7.822  0.0782 -0.8643 -0.1780
  400MOL0     C55115   0.428   7.958   7.883 -0.1192 -0.0724 -0.2004
  400MOL0     C55116   0.291   8.007   7.869  0.4388  0.0310 -0.0530
  400MOL0     C55117  -0.131   8.133   7.891  0.5691  0.5855  0.0564
  400MOL0     C55118  -0.196   8.066   7.995 -0.7668 -0.9738 -0.4827
  400MOL0     C55119  -0.333   8.029   7.985  0.4831 -0.7963 -0.6499
  400MOL0     C55120  -0.411   8.078   7.879  0.1260 -0.2305 -0.6893
  400MOL0     O55121  -0.550   8.078   7.879 -0.7435 -0.4071 -1.1128
  400MOL0     C55122  -0.618   7.982   7.968  0.0384 -0.6633 -0.3314
  400MOL0     C55123  -0.763   7.973   7.930  0.3353 -0.2943 -0.1615
  400MOL0     C55124  -0.812   7.864   8.020 -0.7091 -0.5859  0.0519
  400MOL0     C55125  -0.958   7.895   8.066  0.1021 -0.2385 -0.6232
  400MOL0     C55126  -1.003   7.792   8.154 -0.0886  0.3450  0.6036
  400MOL0     C55127  -1.042   7.703   8.227 -0.2459 -0.4587 -0.1396
  400MOL0     C55128  -0.343   8.145   7.779  0.3170  0.5462  0.1214
  400MOL0     C55129  -0.212   8.177   7.778 -0.8618  0.2399  0.8058
  400MOL0     C55130  -0.159   8.257   7.660 -0.6059 -0.6341  0.9190
  400MOL0     H55131   0.205   8.005   8.197  0.0625  1.9013 -0.4276
  400MOL0     H55132   0.431   7.909   8.213 -0.7891 -0.0978  0.2435
  400MOL0     H55133   0.650   7.949   8.203 -0.0790 -0.9646 -0.1309
  400MOL0     H55134   0.698   8.056   8.067 -2.2124 -0.2892 -0.3733
  400MOL0     H55135   0.872   7.962   8.218 -0.2363  1.9941 -0.8000
  400MOL0     H55136   0.842   7.793   8.171  0.8396 -0.5387 -1.3192
  400MOL0     H55137   1.040   7.871   8.042 -1.4622 -3.1569 -0.3073
  400MOL0     H55138   0.905   7.837   7.941  0.6580 -1.1503  0.4511
  400MOL0     H55139   0.850   8.060   7.911  1.6387 -0.4276 -1.7844
  400MOL0     H55140   0.949   8.115   8.048  0.3941  0.5023  0.0819
  400MOL0     H55141   1.039   8.189   7.852 -0.0474  0.8750  1.6709
  400MOL0     H55142   1.044   8.029   7.773  1.5375 -2.5475  1.6254
  400MOL0     H55143   1.219   8.121   7.998  0.0974 -1.6257  2.8809
  400MOL0     H55144   1.214   7.954   7.946  2.8912  0.1887 -2.2799
  400MOL0     H55145   1.322   8.205   7.821  0.4444  0.8274  1.0365
  400MOL0     H55146   1.292   8.058   7.709 -0.7765  0.1924  0.6249
  400MOL0     H55147   1.453   8.045   7.961  0.7550 -2.3536  0.0534
  400MOL0     H55148   1.442   7.925   7.851  2.2974 -0.7159  0.8769
  400MOL0     H55149   1.614   7.950   7.643  0.1294 -0.9338  1.6811
  400MOL0     H55150   1.791   8.239   7.492  1.5476  1.4602  1.0847
  400MOL0     H55151   1.817   8.066   7.487  0.4104  0.6386 -0.8851
  400MOL0     H55152   1.977   8.270   7.650 -0.3999  0.3978 -1.3843
  400MOL0     H55153   1.969   8.097   7.696  1.2403 -0.8726 -0.3960
  400MOL0     H55154   2.036   8.173   7.409  2.8792  0.3559 -0.2049
  400MOL0     H55155   2.161   8.175   7.531  0.9993 -1.6599  0.8771
  400MOL0     H55156   1.996   7.937   7.448 -1.2548 -0.3416  0.7298
  400MOL0     H55157   2.162   7.967   7.402  0.2804  0.0274  0.4609
  400MOL0     H55158   2.345   8.025   7.462  1.1107 -0.3723 -0.2881
  400MOL0     H55159   2.683   7.937   7.463  1.8663  0.5927  2.0589
  400MOL0     H55160   2.625   8.084   7.549  0.3541 -0.0224 -0.7191
  400MOL0     H55161   2.560   8.029   7.395  1.2390  1.0954 -0.1546
  400MOL0     H55162   2.788   7.536   7.628 -1.3613 -1.9902  0.4843
  400MOL0     H55163   2.985   7.407   7.663 -0.7971 -1.1881  0.8023
  400MOL0     H55164   3.191   7.386   8.071  2.4527 -2.6291  1.3958
  400MOL0     H55165   3.058   7.267   8.080 -1.0069  1.4909 -0.2555
  400MOL0     H55166   3.212   7.114   7.928  2.3163 -0.4367 -1.3966
  400MOL0     H55167   3.328   7.237   7.954 -0.7181  1.1596  0.8943
  400MOL0     H55168   3.184   7.087   8.180 -2.7601  4.6372 -1.8113
  400MOL0     H55169   3.310   7.201   8.198  0.0414  0.9685 -1.7309
  400MOL0     H55170   3.492   7.062   8.138 -0.8152  1.1888 -0.4287
  400MOL0     H55171   3.389   6.969   8.023  2.9174  3.6343 -2.3336
  400MOL0     H55172   3.437   6.948   8.313 -1.9324  0.0932  1.0252
  400MOL0     H55173   3.296   6.870   8.246 -1.7047  2.9553 -0.3575
  400MOL0     H55174   3.435   6.763   8.061  0.7395 -1.4510  0.0136
  400MOL0     H55175   3.467   6.692   8.222  1.1657 -1.8481 -1.4964
  400MOL0     H55176   3.628   6.892   8.059 -0.4629 -1.3233 -1.6408
  400MOL0     H55177   3.694   6.737   8.099  1.5205  2.4828 -0.7957
  400MOL0     H55178   3.653   6.907   8.339  0.3287  2.1527 -1.7783
  400MOL0     H55179   3.797   6.919   8.228  0.2266  1.8024  1.1798
  400MOL0     H55180   2.979   7.500   8.094  2.7662  3.1137 -0.9920
  400MOL0     H55181   2.815   7.672   8.046  0.7828  1.7557 -0.4405
  400MOL0     H55182   2.436   7.716   7.841 -0.0753 -1.6187 -0.6343
  400MOL0     H55183   2.213   7.779   7.790 -1.9310 -1.0331 -3.1082
  400MOL0     H55184   0.505   7.964   7.807  0.1409 -1.5737 -0.0808
  400MOL0     H55185   0.250   8.020   7.769  0.9865  0.1874 -0.2592
  400MOL0     H55186  -0.140   8.015   8.072 -0.6349 -2.7421 -1.6968
  400MOL0     H55187  -0.377   7.973   8.067  1.0747 -1.3450 -0.6997
  400MOL0     H55188  -0.564   7.887   7.971 -0.1272 -0.7455  0.6388
  400MOL0     H55189  -0.612   8.028   8.068 -0.2607 -0.7603 -0.2655
  400MOL0     H55190  -0.772   7.948   7.824  0.4962 -1.9691  0.1929
  400MOL0     H55191  -0.811   8.069   7.952 -0.8791 -1.1089  0.8683
  400MOL0     H55192  -0.806   7.781   7.950 -2.0247  1.4993 -2.7432
  400MOL0     H55193  -0.749   7.847   8.108 -0.8051 -0.4227  0.1529
  400MOL0     H55194  -1.023   7.905   7.978 -1.1656 -2.1851  0.0360
  400MOL0     H55195  -0.965   7.993   8.114 -0.8811 -0.6392  0.0628
  400MOL0     H55196  -1.089   7.630   8.290 -1.6869  2.2558  2.1531
  400MOL0     H55197  -0.417   8.185   7.710 -0.5481 -0.5705  0.3795
  400MOL0     H55198  -0.169   8.363   7.685 -3.3352 -1.2209  2.7483
  400MOL0     H55199  -0.053   8.246   7.638 -0.3298 -0.8727  2.2843
  400MOL0     H55200  -0.217   8.233   7.570 -2.9894  0.2389  2.1276
  401MOL0     O55201   0.314   0.008  10.662  0.0343  0.4119  0.3958
  401MOL0     C55202   0.200  -0.025  10.634  0.0400 -0.2953  0.4270
  401MOL0     O55203   0.108  -0.086  10.723 -0.9025 -0.2038 -0.1875
  401MOL0     C55204   0.134  -0.073  10.859 -0.6370  0.7582 -0.1575
  401MOL0     C55205   0.165  -0.189  10.927 -0.0639 -0.8912 -0.6580
  401MOL0     C55206   0.185  -0.188  11.066  0.2294  0.8225  0.2915
  401MOL0     C55207   0.169  -0.072  11.143  0.0060 -1.0243  1.0583
  401MOL0     O55208   0.180  -0.074  11.279  0.1173  0.3538  0.2036
  401MOL0     C55209   0.125  -0.180  11.348 -0.7409  0.6094 -0.0988
  401MOL0     C55210   0.115  -0.143  11.497 -0.9600  0.1839  0.6502
  401MOL0     C55211   0.117  -0.272  11.586 -0.9433 -0.9984  0.2636
  401MOL0     C55212   0.113  -0.221  11.733 -0.7332 -0.7045  1.0663
  401MOL0     C55213   0.105  -0.331  11.838  0.1895  1.1438 -0.6040
  401MOL0     C55214   0.235  -0.390  11.896 -0.3061 -1.3512  0.3692
  401MOL0     C55215   0.228  -0.497  11.997 -0.6005  0.0556  0.5127
  401MOL0     C55216   0.368  -0.521  12.059  0.4820 -0.3703  0.5189
  401MOL0     N55217   0.359  -0.551  12.204  0.0658  0.0480 -0.8783
  401MOL0     C55218   0.302  -0.666  12.251  0.4488  0.0403 -0.7050
  401MOL0     C55219   0.318  -0.662  12.387 -0.0066 -0.5561  0.0499
  401MOL0     C55220   0.282  -0.772  12.497  0.5256 -0.7106 -0.0202
  401MOL0     C55221   0.394  -0.867  12.534  0.2679  0.2789  0.4446
  401MOL0     C55222   0.461  -0.924  12.406 -0.9897  0.3664 -0.8179
  401MOL0     C55223   0.369  -1.019  12.339  0.5856  0.3683  0.2639
  401MOL0     O55224   0.448  -1.083  12.226  0.7830  0.0904  0.0931
  401MOL0     C55225   0.388  -1.168  12.139  0.3404  0.3462 -0.4725
  401MOL0     C55226   0.463  -1.211  12.035  0.0985 -0.2106 -0.0643
  401MOL0     C55227   0.418  -1.299  11.934 -1.3487 -0.4656 -0.1659
  401MOL0     C55228   0.520  -1.324  11.829  0.0613  0.3998 -0.5424
  401MOL0     C55229   0.285  -1.321  11.930  0.0977 -0.1715 -0.3322
  401MOL0     C55230   0.210  -1.382  11.822  0.2709  0.4948 -1.0661
  401MOL0     O55231   0.111  -1.468  11.847  0.1314 -0.0455 -0.0286
  401MOL0     C55232   0.057  -1.553  11.751 -0.5856  0.1079  0.6407
  401MOL0     C55233   0.052  -1.684  11.800 -0.5025 -0.2800 -0.1145
  401MOL0     C55234  -0.003  -1.789  11.724  0.9520 -0.1186  0.3575
  401MOL0     C55235  -0.060  -1.763  11.601 -0.7340 -0.3040  0.0239
  401MOL0     O55236  -0.107  -1.860  11.514 -0.5995  0.1014 -0.5389
  401MOL0     C55237  -0.094  -2.002  11.535  0.0722 -0.3633 -0.0617
  401MOL0     C55238  -0.084  -2.065  11.396  0.1642  0.3721  0.1389
  401MOL0     C55239  -0.075  -2.220  11.399 -0.0464 -0.3475 -0.6031
  401MOL0     C55240  -0.098  -2.279  11.256  0.1139  1.2697 -0.0850
  401MOL0     C55241   0.012  -2.377  11.215 -0.3245 -0.0374 -0.0863
  401MOL0     C55242   0.014  -2.424  11.069  1.0523  0.0821  0.3287
  401MOL0     C55243  -0.108  -2.517  11.036  0.0888 -0.8366  0.7097
  401MOL0     C55244  -0.107  -2.566  10.888 -0.2924 -1.1017  0.0671
  401MOL0    Cl55245   0.056  -2.619  10.828  0.1737 -0.2125  0.4144
  401MOL0     C55246  -0.065  -1.632  11.561  0.4542 -0.1224  0.0494
  401MOL0     C55247  -0.011  -1.523  11.633  0.3467  0.7473 -0.6518
  401MOL0     O55248   0.255  -1.374  11.711  0.1654  0.3447  0.2683
  401MOL0     C55249   0.213  -1.280  12.041 -0.0793  0.4488  0.2400
  401MOL0     C55250   0.255  -1.200  12.142 -0.1174  1.3020 -0.4813
  401MOL0     N55251   0.385  -0.541  12.422 -0.3055 -0.4028  0.3320
  401MOL0     N55252   0.405  -0.476  12.309 -0.2424  0.1574  0.5793
  401MOL0     C55253   0.125   0.045  11.075  0.9842  0.9065 -0.2678
  401MOL0     C55254   0.116   0.050  10.931  0.3815 -1.0849 -0.5099
  401MOL0     C55255   0.152   0.002  10.497  0.0337 -0.2199  0.3348
  401MOL0     C55256   0.021   0.028  10.488 -0.2321 -0.2300 -0.1210
  401MOL0     C55257  -0.040   0.068  10.364  0.0416 -0.1303 -0.4582
  401MOL0     C55258   0.035   0.078  10.245  0.4358  0.4906  0.7665
  401MOL0     O55259  -0.027   0.102  10.124 -0.6680 -0.0061  0.1588
  401MOL0     C55260  -0.137   0.197  10.134  0.2311 -0.8138  0.6359
  401MOL0     C55261  -0.162   0.240   9.991  0.4149 -0.9966 -0.4033
  401MOL0     C55262  -0.037   0.312   9.933 -0.1488  0.4897  0.6207
  401MOL0     C55263  -0.058   0.371   9.793  1.0139 -0.0236  0.4490
  401MOL0     C55264  -0.143   0.489   9.788  0.4466  0.6332  0.6010
  401MOL0     C55265  -0.199   0.599   9.784 -0.6958  0.1927  0.7075
  401MOL0     C55266   0.174   0.052  10.249 -1.0015 -0.5903 -0.6506
  401MOL0     C55267   0.231   0.016  10.375  0.3642 -0.5384  0.5213
  401MOL0     C55268   0.376  -0.014  10.369  0.0809 -1.0050  0.4979
  401MOL0     H55269   0.190  -0.264  10.853  0.8206 -2.1425  0.8236
  401MOL0     H55270   0.218  -0.281  11.110  1.6767  0.4017 -1.5541
  401MOL0     H55271   0.188  -0.269  11.334  0.9383  1.6390  0.5663
  401MOL0     H55272   0.028  -0.197  11.301 -1.2164  3.2763 -0.2359
  401MOL0     H55273   0.207  -0.090  11.522 -0.4980 -0.2289 -0.1260
  401MOL0     H55274   0.024  -0.085  11.517 -0.8531  1.4281 -1.9504
  401MOL0     H55275   0.031  -0.333  11.559  1.1903 -3.9593 -0.2568
  401MOL0     H55276   0.205  -0.330  11.559 -0.5898  0.3418 -1.6306
  401MOL0     H55277   0.206  -0.167  11.751 -0.8129  0.0395 -0.5852
  401MOL0     H55278   0.037  -0.144  11.748 -0.5765  0.3867 -2.6984
  401MOL0     H55279   0.053  -0.416  11.791  2.9238 -0.6155 -0.6848
  401MOL0     H55280   0.037  -0.300  11.918  1.1162  1.3577  0.1143
  401MOL0     H55281   0.292  -0.430  11.811 -2.4003 -1.8315 -0.8802
  401MOL0     H55282   0.288  -0.305  11.941 -3.2102  0.4450  0.6351
  401MOL0     H55283   0.186  -0.587  11.950 -1.3440 -0.2521  1.7358
  401MOL0     H55284   0.156  -0.479  12.076 -1.5093 -0.4513 -0.1783
  401MOL0     H55285   0.418  -0.605  12.009 -0.1524 -2.1556  2.7138
  401MOL0     H55286   0.424  -0.427  12.060  1.3214 -0.8170  3.1981
  401MOL0     H55287   0.270  -0.754  12.196  0.3534 -1.9824  2.3658
  401MOL0     H55288   0.204  -0.836  12.455 -1.9137 -0.4610  3.5790
  401MOL0     H55289   0.251  -0.725  12.592  1.6737 -2.0142  1.0346
  401MOL0     H55290   0.471  -0.803  12.578  0.8909  0.9181 -1.4642
  401MOL0     H55291   0.367  -0.942  12.608 -1.2363 -0.9584 -1.2669
  401MOL0     H55292   0.491  -0.845  12.338  0.1805  0.0806 -0.6507
  401MOL0     H55293   0.548  -0.977  12.445 -2.7153 -0.8113  1.7160
  401MOL0     H55294   0.330  -1.099  12.402  0.4320 -0.8339 -1.2735
  401MOL0     H55295   0.288  -0.961  12.293  0.8770 -0.8897 -2.0331
  401MOL0     H55296   0.567  -1.180  12.044  0.3764 -1.5035  1.7365
  401MOL0     H55297   0.524  -1.431  11.806  0.6533  0.2283  0.3260
  401MOL0     H55298   0.622  -1.300  11.857 -0.4966 -0.6950  2.9089
  401MOL0     H55299   0.491  -1.272  11.738 -1.5193 -1.4637 -1.1845
  401MOL0     H55300   0.095  -1.709  11.897 -3.4161  0.8552  1.6038
  401MOL0     H55301  -0.001  -1.890  11.764 -1.5770 -1.2352 -1.9924
  401MOL0     H55302   0.001  -2.008  11.588 -1.6558 -1.7432  3.2190
  401MOL0     H55303  -0.180  -2.049  11.585 -0.2668 -0.3418 -0.6233
  401MOL0     H55304  -0.170  -2.035  11.335  1.2577 -1.5109 -2.4595
  401MOL0     H55305   0.005  -2.019  11.353 -1.0029  3.4423  0.7075
  401MOL0     H55306  -0.161  -2.257  11.456 -1.8581 -1.1719 -3.5946
  401MOL0     H55307   0.020  -2.259  11.436 -0.0633 -2.1883 -2.3056
  401MOL0     H55308  -0.103  -2.203  11.177  0.4821  0.0556 -1.3139
  401MOL0     H55309  -0.193  -2.332  11.252  1.4377 -1.2168 -1.2428
  401MOL0     H55310   0.109  -2.333  11.240  1.1930 -2.2397 -1.7504
  401MOL0     H55311   0.000  -2.464  11.280  0.2330 -1.5350 -1.9270
  401MOL0     H55312   0.099  -2.489  11.046 -1.0457 -2.4545 -0.8382
  401MOL0     H55313   0.013  -2.341  10.998 -1.8858  0.2192  0.4161
  401MOL0     H55314  -0.198  -2.456  11.045  0.4021  0.0198 -1.4542
  401MOL0     H55315  -0.111  -2.601  11.106 -0.2177  0.2253  2.0172
  401MOL0     H55316  -0.150  -2.485  10.828 -0.7526  0.0826  1.9297
  401MOL0     H55317  -0.175  -2.651  10.874 -0.5350 -1.0121  0.6656
  401MOL0     H55318  -0.106  -1.612  11.463 -0.3189 -0.3113  0.3251
  401MOL0     H55319  -0.011  -1.417  11.608 -1.3464  0.8362 -0.4265
  401MOL0     H55320   0.106  -1.298  12.040  0.1952 -1.6045 -1.9828
  401MOL0     H55321   0.187  -1.173  12.222  1.8929 -0.9049  2.1651
  401MOL0     H55322   0.102   0.131  11.137 -1.3028 -0.5851  1.0836
  401MOL0     H55323   0.100   0.145  10.881  2.6441 -2.9909 -5.4896
  401MOL0     H55324  -0.034   0.028  10.581  0.5417 -1.1437  0.3634
  401MOL0     H55325  -0.147   0.087  10.365  0.0427 -0.1271  1.1109
  401MOL0     H55326  -0.227   0.155  10.179 -0.1247 -2.3771 -1.3782
  401MOL0     H55327  -0.109   0.286  10.190 -0.4643  1.1325 -1.8916
  401MOL0     H55328  -0.242   0.314   9.990  1.4445  0.2066  1.0556
  401MOL0     H55329  -0.189   0.153   9.930  0.5528 -1.2396 -0.1206
  401MOL0     H55330  -0.012   0.392  10.004 -0.4095  0.3521  0.8671
  401MOL0     H55331   0.042   0.237   9.942 -1.3850 -0.8370  0.6827
  401MOL0     H55332  -0.103   0.287   9.739 -0.5791  0.1528  1.4533
  401MOL0     H55333   0.031   0.408   9.741 -1.2420  3.1186 -1.5152
  401MOL0     H55334  -0.261   0.685   9.767  0.1235  0.7161  0.3454
  401MOL0     H55335   0.235   0.074  10.162  0.6689 -0.9124  0.3850
  401MOL0     H55336   0.419  -0.087  10.439  1.6298 -1.0580 -0.4585
  401MOL0     H55337   0.401  -0.037  10.265  0.2404  1.1877  0.0213
  401MOL0     H55338   0.423   0.078  10.404  1.8291 -2.0835  1.1091
  402MOL0     O55339   7.366   1.959   1.751  0.1790  0.8487  0.2603
  402MOL0     C55340   7.279   1.888   1.793 -0.1066  0.4103 -0.5295
  402MOL0     O55341   7.223   1.894   1.914  0.3605  0.1534 -0.1007
  402MOL0     C55342   7.248   1.997   1.997 -1.1043 -0.6512  0.7138
  402MOL0     C55343   7.238   1.972   2.135  0.5075 -0.5241  0.5359
  402MOL0     C55344   7.252   2.070   2.234 -0.2730 -1.1896  0.8428
  402MOL0     C55345   7.294   2.196   2.196  0.4786 -0.5880 -0.0490
  402MOL0     O55346   7.306   2.297   2.297 -0.5075 -0.3139  0.4559
  402MOL0     C55347   7.430   2.368   2.293 -0.4619  0.3660  0.0597
  402MOL0     C55348   7.427   2.510   2.357  0.0223  0.3855 -0.6365
  402MOL0     C55349   7.372   2.626   2.263  0.4906 -0.2477  0.9183
  402MOL0     C55350   7.462   2.665   2.139  0.3707 -0.2950  0.3583
  402MOL0     C55351   7.421   2.806   2.086  1.0541  0.4535  0.2205
  402MOL0     C55352   7.455   2.918   2.184 -0.0249  0.5709 -0.4960
  402MOL0     C55353   7.583   2.989   2.140  0.0396 -0.4771  0.6013
  402MOL0     C55354   7.712   2.903   2.123 -0.1701  0.9726 -0.1902
  402MOL0     N55355   7.825   2.980   2.084  0.3941 -0.0651 -0.0542
  402MOL0     C55356   7.838   3.047   1.959  0.2447 -0.5264 -0.5362
  402MOL0     C55357   7.955   3.111   1.974  0.2896 -0.1972 -0.6692
  402MOL0     C55358   8.008   3.215   1.875  0.8446  1.0934  1.0082
  402MOL0     C55359   8.011   3.175   1.724 -0.8218  0.5803 -0.4846
  402MOL0     C55360   8.131   3.256   1.667  0.0970  0.4161  0.2696
  402MOL0     C55361   8.122   3.288   1.518  0.5278  0.1087 -0.8372
  402MOL0     O55362   8.227   3.347   1.452 -0.3888 -0.0385  0.6212
  402MOL0     C55363   8.336   3.260   1.431 -0.3875 -0.3746  0.9974
  402MOL0     C55364   8.434   3.306   1.340  0.4441  0.2949  0.2958
  402MOL0     C55365   8.567   3.246   1.319  0.8785  0.1705 -0.3289
  402MOL0     C55366   8.663   3.316   1.223  0.1710  0.9397  0.3481
  402MOL0     C55367   8.596   3.131   1.394 -0.6023 -0.6128 -0.0825
  402MOL0     C55368   8.737   3.061   1.402  0.2286 -0.3959  0.5457
  402MOL0     O55369   8.751   2.956   1.493  0.4716 -0.0983 -0.0331
  402MOL0     C55370   8.879   2.909   1.505 -0.2767  0.4174 -0.1313
  402MOL0     C55371   8.925   2.825   1.407 -0.2480  0.3517 -0.0093
  402MOL0     C55372   9.049   2.760   1.408 -0.0054 -0.9438  0.3531
  402MOL0     C55373   9.136   2.779   1.524  0.5301 -0.2453  0.3247
  402MOL0     O55374   9.259   2.720   1.535  0.6175  0.4124  0.2077
  402MOL0     C55375   9.303   2.625   1.441  0.3706  0.4430 -0.0417
  402MOL0     C55376   9.378   2.502   1.508  0.4839 -0.4142  0.1549
  402MOL0     C55377   9.401   2.382   1.415 -0.0444 -0.4831  1.0739
  402MOL0     C55378   9.280   2.305   1.360  0.4592  0.2278  0.2168
  402MOL0     C55379   9.214   2.241   1.482  0.7185  0.3446 -0.0719
  402MOL0     C55380   9.134   2.119   1.430 -0.2065  0.0825 -0.3384
  402MOL0     C55381   9.060   2.049   1.548  0.0432  0.3443  0.4810
  402MOL0     C55382   8.998   1.912   1.510  0.8093  0.7569 -0.4976
  402MOL0    Cl55383   8.922   1.840   1.657 -0.1583 -0.6889 -0.4103
  402MOL0     C55384   9.084   2.855   1.637 -0.7473 -0.7949  0.3218
  402MOL0     C55385   8.960   2.918   1.624  0.1786  0.7003  0.5881
  402MOL0     O55386   8.816   3.092   1.312  0.1918  0.7149 -0.2832
  402MOL0     C55387   8.484   3.073   1.469 -1.0104  0.0148  0.4807
  402MOL0     C55388   8.355   3.142   1.489 -0.2356  0.1426 -0.1722
  402MOL0     N55389   8.019   3.082   2.094  0.2785  1.1247  0.4073
  402MOL0     N55390   7.936   3.001   2.156  0.1994 -0.0840  0.4297
  402MOL0     C55391   7.305   2.227   2.057 -0.3804 -0.7585 -0.5791
  402MOL0     C55392   7.282   2.132   1.958 -0.1431 -0.0887  0.0506
  402MOL0     C55393   7.222   1.800   1.686  0.3101  0.9556  0.9452
  402MOL0     C55394   7.089   1.766   1.690  0.4623 -0.1403  0.4621
  402MOL0     C55395   7.030   1.698   1.589  0.4420  0.5388 -0.5583
  402MOL0     C55396   7.105   1.650   1.478 -0.4455  0.2066 -1.1688
  402MOL0     O55397   7.058   1.579   1.371  0.5045  0.9465  0.1734
  402MOL0     C55398   6.921   1.519   1.378  0.0309  0.4649 -0.5272
  402MOL0     C55399   6.806   1.610   1.340 -0.1551  0.1612 -0.7805
  402MOL0     C55400   6.774   1.598   1.186  0.8602 -0.8025  0.6832
  402MOL0     C55401   6.691   1.724   1.149  0.2071 -0.1083 -0.7309
  402MOL0     C55402   6.646   1.721   1.005 -0.4198 -0.7679 -0.4998
  402MOL0     C55403   6.608   1.712   0.889  0.4079  0.7428 -1.0940
  402MOL0     C55404   7.241   1.677   1.478 -0.8009  0.3569  0.0006
  402MOL0     C55405   7.303   1.746   1.583 -0.0983  0.4216 -0.1225
  402MOL0     C55406   7.453   1.740   1.577 -0.4096 -0.0036 -0.8275
  402MOL0     H55407   7.211   1.875   2.175 -0.0566 -0.4367  0.3802
  402MOL0     H55408   7.229   2.061   2.339 -0.9487  3.2175  1.2770
  402MOL0     H55409   7.475   2.370   2.194 -0.7838  2.0017 -0.0791
  402MOL0     H55410   7.489   2.312   2.367 -0.1514  2.6591  1.6322
  402MOL0     H55411   7.369   2.499   2.449  1.2922 -1.1016  0.0310
  402MOL0     H55412   7.532   2.540   2.366 -0.6592  3.6676 -2.2515
  402MOL0     H55413   7.280   2.590   2.218 -0.3763  1.5957  1.1427
  402MOL0     H55414   7.354   2.713   2.328 -0.7480 -0.3600  0.7433
  402MOL0     H55415   7.562   2.669   2.182 -0.4921  3.9237  2.5927
  402MOL0     H55416   7.458   2.589   2.061  2.0446 -3.2117  2.9116
  402MOL0     H55417   7.315   2.807   2.060  0.7028  1.9413  1.6220
  402MOL0     H55418   7.461   2.831   1.987  1.9579  0.0692  0.4789
  402MOL0     H55419   7.374   2.992   2.184  0.8738  1.7097  2.6921
  402MOL0     H55420   7.476   2.890   2.287  0.9991  4.3418  0.4866
  402MOL0     H55421   7.594   3.076   2.207 -1.2605 -1.5354  2.2726
  402MOL0     H55422   7.559   3.039   2.046  0.3167  0.7641  1.1675
  402MOL0     H55423   7.735   2.845   2.213  1.6766  4.9888  2.2048
  402MOL0     H55424   7.692   2.831   2.043  0.3919 -0.0193  0.5355
  402MOL0     H55425   7.771   3.048   1.875 -0.7665 -0.4012  0.2559
  402MOL0     H55426   8.107   3.245   1.911  0.9672 -0.9105  2.4933
  402MOL0     H55427   7.950   3.308   1.880  2.0025  1.8470  0.7544
  402MOL0     H55428   8.041   3.070   1.718  1.9564  1.3873 -3.0590
  402MOL0     H55429   7.926   3.214   1.668  1.2784  3.4821 -1.9423
  402MOL0     H55430   8.117   3.352   1.718 -1.4884  0.8008 -0.8229
  402MOL0     H55431   8.226   3.216   1.703 -1.1572 -1.3422  1.8397
  402MOL0     H55432   8.100   3.190   1.474 -1.2662 -0.1635  0.5143
  402MOL0     H55433   8.029   3.345   1.505 -1.8733 -3.5166 -1.0683
  402MOL0     H55434   8.424   3.403   1.293  2.1974  1.2577  1.8024
  402MOL0     H55435   8.720   3.252   1.155 -1.5716  2.2255 -2.4876
  402MOL0     H55436   8.729   3.383   1.279  1.8881  1.0504 -1.7011
  402MOL0     H55437   8.594   3.378   1.166  0.1602 -0.3876 -1.1364
  402MOL0     H55438   8.859   2.809   1.322  0.7918  2.0660 -1.2000
  402MOL0     H55439   9.065   2.695   1.322  1.2072 -0.6459  0.3444
  402MOL0     H55440   9.221   2.563   1.405  1.8270 -0.0421 -2.7385
  402MOL0     H55441   9.362   2.674   1.363  1.3760  1.9299  1.5805
  402MOL0     H55442   9.470   2.534   1.556 -1.1212 -1.0550  4.0142
  402MOL0     H55443   9.323   2.461   1.594 -2.0133 -0.0461 -1.1615
  402MOL0     H55444   9.469   2.316   1.468  0.2385  0.4288  1.8640
  402MOL0     H55445   9.462   2.411   1.329  0.5696 -0.8220  1.3905
  402MOL0     H55446   9.309   2.238   1.278 -3.8854 -1.3257 -0.3317
  402MOL0     H55447   9.213   2.371   1.304 -0.2655  0.1065  0.9171
  402MOL0     H55448   9.290   2.204   1.553 -0.7218 -0.6690  1.0046
  402MOL0     H55449   9.152   2.311   1.539 -0.7172 -1.8255  1.2133
  402MOL0     H55450   9.203   2.041   1.398 -0.3830 -0.5266  0.7056
  402MOL0     H55451   9.062   2.149   1.353  1.9345  1.3544 -1.9454
  402MOL0     H55452   8.975   2.113   1.573  0.0333  1.0086 -1.1125
  402MOL0     H55453   9.112   2.026   1.641 -1.1708 -0.9914  0.8687
  402MOL0     H55454   9.069   1.841   1.466  1.8555  1.7459 -0.4537
  402MOL0     H55455   8.913   1.910   1.441 -0.2660 -1.1069  0.8049
  402MOL0     H55456   9.157   2.863   1.718 -2.1071 -0.9227  1.6074
  402MOL0     H55457   8.916   2.980   1.702 -0.3530 -0.6361  1.3942
  402MOL0     H55458   8.503   2.980   1.521 -3.1281 -0.0907  1.1888
  402MOL0     H55459   8.280   3.097   1.553 -1.0585 -0.4523 -1.5111
  402MOL0     H55460   7.340   2.327   2.032 -4.7798  0.9878 -0.6632
  402MOL0     H55461   7.300   2.171   1.859 -2.0170 -0.0670 -0.3202
  402MOL0     H55462   7.028   1.813   1.767 -1.6182 -1.1034 -0.5136
  402MOL0     H55463   6.923   1.682   1.599  0.6812  0.1056  2.2152
  402MOL0     H55464   6.916   1.434   1.309 -2.2126 -0.5632  0.8020
  402MOL0     H55465   6.907   1.468   1.474  1.9620  3.0540  1.2717
  402MOL0     H55466   6.825   1.711   1.376  0.0778 -0.5808  1.3030
  402MOL0     H55467   6.716   1.578   1.392 -2.1558  0.4531 -3.7786
  402MOL0     H55468   6.865   1.591   1.127  1.5966 -3.4295  1.9647
  402MOL0     H55469   6.729   1.499   1.173 -0.5794 -0.3998  2.2331
  402MOL0     H55470   6.748   1.816   1.163 -0.4377  0.7439 -3.2110
  402MOL0     H55471   6.609   1.727   1.221  1.3193  1.1466  0.5502
  402MOL0     H55472   6.561   1.701   0.793 -1.3762  0.5174 -0.2294
  402MOL0     H55473   7.308   1.645   1.398 -0.5806  0.3851  0.1718
  402MOL0     H55474   7.499   1.730   1.676  1.9051 -2.6954 -2.0470
  402MOL0     H55475   7.475   1.653   1.515 -5.6852 -0.4042 -2.5887
  402MOL0     H55476   7.495   1.829   1.529  0.7039 -0.3189 -0.4768
  403MOL0     O55477  10.290   8.705  10.233  0.2221  0.8139 -0.7680
  403MOL0     C55478  10.242   8.700  10.349  0.4548  0.3219  0.2221
  403MOL0     O55479  10.288   8.615  10.445  0.5511 -0.6277 -0.1062
  403MOL0     C55480  10.355   8.502  10.422  0.7314  0.0896  0.1406
  403MOL0     C55481  10.434   8.459  10.523 -0.2337  0.7118 -0.3686
  403MOL0     C55482  10.523   8.347  10.514 -0.0022 -0.5817  0.0192
  403MOL0     C55483  10.534   8.280  10.395 -0.1530 -0.4701  0.0926
  403MOL0     O55484  10.616   8.174  10.378 -0.3674 -0.1911 -0.3943
  403MOL0     C55485  10.626   8.080  10.489 -0.1878  0.1351  0.2152
  403MOL0     C55486  10.714   7.962  10.455  0.4378  0.3220 -0.0526
  403MOL0     C55487  10.655   7.857  10.356  0.1169 -1.0238  0.5598
  403MOL0     C55488  10.534   7.780  10.415 -0.5735  0.4151 -0.2657
  403MOL0     C55489  10.514   7.651  10.335 -0.3692 -0.5015  0.1535
  403MOL0     C55490  10.422   7.562  10.418  0.1730 -0.2002 -0.3022
  403MOL0     C55491  10.410   7.418  10.353  0.3507  0.0533  0.4846
  403MOL0     C55492  10.327   7.406  10.231  0.1409 -1.2836 -0.3505
  403MOL0     N55493  10.376   7.278  10.177  0.0837 -0.1463 -0.9354
  403MOL0     C55494  10.311   7.155  10.191  1.1531  0.5792 -0.1047
  403MOL0     C55495  10.378   7.068  10.112  0.0021  0.5484 -0.5435
  403MOL0     C55496  10.358   6.916  10.092 -0.4465  0.7916 -0.2835
  403MOL0     C55497  10.493   6.850  10.077  0.0244  1.4522  0.3266
  403MOL0     C55498  10.477   6.708  10.015 -0.6494 -0.6785 -0.6539
  403MOL0     C55499  10.607   6.635   9.999  0.5431  0.2573  0.4779
  403MOL0     O55500  10.690   6.701   9.903 -0.0273  0.7002  0.2445
  403MOL0     C55501  10.745   6.624   9.813  0.5499  0.9931  0.3052
  403MOL0     C55502  10.667   6.545   9.721  0.7333  0.0024  0.5814
  403MOL0     C55503  10.726   6.470   9.618  0.9292 -0.2019 -0.2151
  403MOL0     C55504  10.629   6.401   9.517  0.4435 -0.4403 -1.2389
  403MOL0     C55505  10.864   6.443   9.626  0.6081 -0.9889 -0.3947
  403MOL0     C55506  10.937   6.352   9.537  0.3820 -0.0141  0.4511
  403MOL0     O55507  10.908   6.350   9.403 -0.0187  0.3177  0.7119
  403MOL0     C55508  10.993   6.287   9.316 -0.6853  0.5450 -0.7974
  403MOL0     C55509  10.978   6.145   9.295 -0.1725 -0.0520 -0.7173
  403MOL0     C55510  11.047   6.088   9.188  0.2208  0.3200  1.5321
  403MOL0     C55511  11.123   6.167   9.099 -0.5646 -0.3127 -0.7867
  403MOL0     O55512  11.182   6.101   8.997  0.0699 -0.4570 -0.2128
  403MOL0     C55513  11.260   6.175   8.908 -0.2316  0.2098  0.1105
  403MOL0     C55514  11.326   6.080   8.813 -0.3622 -0.7376  0.1570
  403MOL0     C55515  11.423   5.981   8.882 -0.1038  0.4672 -0.2857
  403MOL0     C55516  11.359   5.862   8.957  0.4674 -0.5066  0.8615
  403MOL0     C55517  11.230   5.799   8.886  0.9266  0.1423  0.0396
  403MOL0     C55518  11.177   5.676   8.957 -0.2432 -0.8432  0.2301
  403MOL0     C55519  11.136   5.570   8.861 -0.8830 -0.3704 -0.3150
  403MOL0     C55520  11.025   5.628   8.769 -0.2075 -0.8786 -0.7245
  403MOL0    Cl55521  10.970   5.484   8.669  0.1314 -0.3057  0.2379
  403MOL0     C55522  11.130   6.306   9.126 -0.0382  0.1815 -0.1032
  403MOL0     C55523  11.076   6.370   9.232  0.1067 -0.0793 -0.1794
  403MOL0     O55524  11.015   6.279   9.593 -0.4379  0.2720  0.1406
  403MOL0     C55525  10.939   6.499   9.736  0.3029 -0.4050  0.7597
  403MOL0     C55526  10.876   6.589   9.825  0.3183  0.2812 -0.0856
  403MOL0     N55527  10.483   7.134  10.063  0.9502 -0.3610  0.1027
  403MOL0     N55528  10.479   7.256  10.098 -0.6653  0.3330  0.0308
  403MOL0     C55529  10.450   8.322  10.290  0.6055  1.3786 -0.0825
  403MOL0     C55530  10.366   8.431  10.306  0.2390  0.7401  0.0038
  403MOL0     C55531  10.138   8.805  10.385 -0.7499  0.6377 -0.3536
  403MOL0     C55532  10.126   8.911  10.295  0.9348  0.5027  1.1789
  403MOL0     C55533  10.042   9.019  10.325 -0.4632  0.4816  0.7397
  403MOL0     C55534   9.965   9.024  10.447 -0.5743  0.3868  0.9138
  403MOL0     O55535   9.869   9.113  10.474 -0.1742 -0.0541 -0.2091
  403MOL0     C55536   9.916   9.236  10.522 -0.1746  0.3091  0.3692
  403MOL0     C55537   9.807   9.330  10.539 -0.4259 -0.9172  0.0910
  403MOL0     C55538   9.716   9.282  10.650  0.9402  0.4189  0.2450
  403MOL0     C55539   9.585   9.376  10.647  0.0387  0.2816  0.1345
  403MOL0     C55540   9.508   9.376  10.525 -0.4519  0.4354 -1.0088
  403MOL0     C55541   9.459   9.371  10.415 -0.0376 -0.9452 -0.0219
  403MOL0     C55542   9.982   8.928  10.542  0.2077 -0.1304  0.3930
  403MOL0     C55543  10.071   8.816  10.513 -0.1055  0.1876 -0.5717
  403MOL0     C55544  10.065   8.695  10.604 -0.1733 -0.3137 -0.2874
  403MOL0     H55545  10.442   8.527  10.607  2.9679 -2.0458  1.8598
  403MOL0     H55546  10.581   8.328  10.604 -4.2190 -2.5969  2.6012
  403MOL0     H55547  10.530   8.033  10.513 -1.1883  1.1206 -1.6686
  403MOL0     H55548  10.658   8.130  10.581  0.8044 -0.3741  0.1604
  403MOL0     H55549  10.811   7.996  10.418  0.5867 -0.8922 -0.8308
  403MOL0     H55550  10.741   7.908  10.546  2.3129 -3.8840 -2.7568
  403MOL0     H55551  10.628   7.915  10.267 -4.4566  1.1009  2.9742
  403MOL0     H55552  10.729   7.783  10.323 -1.7518 -1.7132 -2.5175
  403MOL0     H55553  10.561   7.755  10.518  3.1182  2.3303 -0.5956
  403MOL0     H55554  10.442   7.839  10.416 -1.2296 -0.4899  2.7157
  403MOL0     H55555  10.611   7.602  10.330 -0.7783 -1.6496  2.3773
  403MOL0     H55556  10.463   7.674  10.241 -2.0682 -1.4304  0.8065
  403MOL0     H55557  10.471   7.556  10.515  0.3816  0.2553 -0.3780
  403MOL0     H55558  10.327   7.614  10.437 -0.6810 -1.3755 -1.2213
  403MOL0     H55559  10.360   7.356  10.428  2.2858 -0.9202  1.0308
  403MOL0     H55560  10.508   7.370  10.347 -0.5300 -1.7137 -0.5370
  403MOL0     H55561  10.220   7.397  10.254  0.2470 -3.3709 -0.5150
  403MOL0     H55562  10.344   7.492  10.166 -3.6199 -0.5323 -0.5895
  403MOL0     H55563  10.224   7.130  10.251  1.4904 -1.5945 -0.4351
  403MOL0     H55564  10.295   6.884  10.009  1.2778 -3.5861 -0.1680
  403MOL0     H55565  10.309   6.886  10.186 -0.7910  0.8339 -0.4502
  403MOL0     H55566  10.565   6.906  10.016  2.4595  4.4819  5.3013
  403MOL0     H55567  10.532   6.837  10.179  0.3295 -1.1782 -0.0561
  403MOL0     H55568  10.401   6.657  10.075 -1.6853  0.5872 -0.8350
  403MOL0     H55569  10.425   6.716   9.920 -0.3986  0.9165 -0.6934
  403MOL0     H55570  10.651   6.634  10.100  0.4142  2.6877  0.6025
  403MOL0     H55571  10.587   6.529   9.980 -0.9588  1.0146 -2.7243
  403MOL0     H55572  10.562   6.568   9.730  1.1351  2.4091 -0.2390
  403MOL0     H55573  10.526   6.436   9.526 -0.2872 -2.6183 -0.4180
  403MOL0     H55574  10.626   6.295   9.544  0.6230 -0.2736 -0.5353
  403MOL0     H55575  10.659   6.419   9.414  0.0945 -0.2496 -1.3068
  403MOL0     H55576  10.922   6.080   9.361  0.8607  0.6744  0.9352
  403MOL0     H55577  11.045   5.983   9.162 -2.1027  0.7291 -0.3433
  403MOL0     H55578  11.186   6.238   8.857 -1.6368 -0.0664  1.7241
  403MOL0     H55579  11.342   6.225   8.960  0.2165 -1.3135  0.9203
  403MOL0     H55580  11.247   6.026   8.759 -3.0701  1.4317  1.6719
  403MOL0     H55581  11.383   6.128   8.733  0.1789  2.9931  2.5431
  403MOL0     H55582  11.483   6.043   8.949 -1.7680 -0.0398  1.7832
  403MOL0     H55583  11.481   5.939   8.800 -1.6468 -2.0579 -0.1778
  403MOL0     H55584  11.329   5.914   9.048 -2.7647  0.3404 -0.5421
  403MOL0     H55585  11.440   5.791   8.974  1.2210  0.5482  1.9059
  403MOL0     H55586  11.149   5.873   8.890 -0.1186 -0.9886  0.4269
  403MOL0     H55587  11.252   5.785   8.780 -0.7796 -0.3799 -0.2871
  403MOL0     H55588  11.095   5.706   9.024  0.9020  0.7891  0.9693
  403MOL0     H55589  11.253   5.636   9.024 -0.6365 -1.5450  0.2646
  403MOL0     H55590  11.106   5.483   8.920  0.2550 -1.1208 -0.8023
  403MOL0     H55591  11.221   5.527   8.808  1.2769  1.4071  1.4699
  403MOL0     H55592  11.059   5.699   8.693  1.4108 -1.0071 -0.1577
  403MOL0     H55593  10.944   5.648   8.840  0.6991 -1.5140  0.5427
  403MOL0     H55594  11.172   6.379   9.057 -2.4250  0.9716 -0.8061
  403MOL0     H55595  11.082   6.476   9.256 -3.7891  0.3392 -0.4998
  403MOL0     H55596  11.044   6.476   9.749  0.3966 -3.0120 -2.9984
  403MOL0     H55597  10.931   6.646   9.900 -1.3262  0.3986  1.0966
  403MOL0     H55598  10.462   8.268  10.197  5.2817  2.5107 -0.4386
  403MOL0     H55599  10.318   8.460  10.213  0.2240 -0.3791 -0.3586
  403MOL0     H55600  10.172   8.914  10.196 -3.2617  2.0298 -0.9486
  403MOL0     H55601  10.032   9.093  10.247 -1.1358 -2.2424 -1.9672
  403MOL0     H55602   9.961   9.217  10.620 -1.2962  1.4374  1.1330
  403MOL0     H55603   9.983   9.279  10.448  1.0184 -1.0985  0.5735
  403MOL0     H55604   9.754   9.332  10.444  0.5130  0.2147 -0.4472
  403MOL0     H55605   9.838   9.432  10.563 -2.9793  0.2887 -1.3265
  403MOL0     H55606   9.692   9.175  10.640  1.5813  0.5061 -3.7531
  403MOL0     H55607   9.765   9.291  10.748  0.2764 -1.4535  0.7951
  403MOL0     H55608   9.615   9.477  10.677  0.9918  1.0814 -3.1164
  403MOL0     H55609   9.521   9.339  10.728 -1.0902  2.4327  0.3025
  403MOL0     H55610   9.443   9.378  10.309  2.5684  3.2111 -0.3786
  403MOL0     H55611   9.930   8.928  10.637  0.5697 -2.2141  0.6268
  403MOL0     H55612  10.161   8.661  10.644 -0.5462 -0.1835  0.7558
  403MOL0     H55613   9.996   8.706  10.689  1.9911 -1.1695  1.6902
  403MOL0     H55614  10.014   8.616  10.548 -1.9140  1.1038 -0.8149
  404MOL0     O55615   0.381   0.314   2.505  0.3376 -0.2264 -0.1830
  404MOL0     C55616   0.347   0.237   2.417 -0.0980 -0.6578 -0.4127
  404MOL0     O55617   0.435   0.147   2.352  0.3615 -0.6458 -0.2975
  404MOL0     C55618   0.566   0.151   2.389 -0.9272  0.1860 -0.4893
  404MOL0     C55619   0.666   0.216   2.304 -1.3425 -0.4598 -0.6916
  404MOL0     C55620   0.802   0.211   2.330  0.1396  0.1311  0.3032
  404MOL0     C55621   0.850   0.126   2.428 -0.8703  0.1266  0.1765
  404MOL0     O55622   0.977   0.079   2.446  0.6347 -0.5656  0.2307
  404MOL0     C55623   1.066   0.184   2.442 -0.2339  0.2315 -1.0876
  404MOL0     C55624   1.059   0.267   2.570  0.1493 -0.0508  1.3123
  404MOL0     C55625   1.086   0.190   2.704 -0.2429  0.2974 -0.6364
  404MOL0     C55626   1.124   0.274   2.827  0.5621  0.4516  1.0282
  404MOL0     C55627   1.185   0.183   2.938  0.1204 -0.8202  0.3372
  404MOL0     C55628   1.224   0.278   3.058 -0.2546  0.2126  0.8185
  404MOL0     C55629   1.223   0.196   3.198 -0.5610  0.8630  0.7198
  404MOL0     C55630   1.097   0.193   3.279 -0.5527  0.0367 -0.0028
  404MOL0     N55631   1.130   0.156   3.420 -0.4677 -0.6546  0.5542
  404MOL0     C55632   1.221   0.213   3.509  0.4178  0.3833  0.9422
  404MOL0     C55633   1.188   0.157   3.628 -0.2275 -0.7736  0.1314
  404MOL0     C55634   1.246   0.206   3.761  0.3258  0.2146  0.1393
  404MOL0     C55635   1.224   0.352   3.789  0.0585  0.3859  0.0182
  404MOL0     C55636   1.260   0.395   3.927 -0.3860  0.6021  0.3079
  404MOL0     C55637   1.414   0.411   3.938  0.1863 -0.0146  0.7614
  404MOL0     O55638   1.458   0.378   4.065  0.3372 -0.4448 -0.1425
  404MOL0     C55639   1.461   0.463   4.177 -0.0561 -0.7309 -0.7304
  404MOL0     C55640   1.403   0.591   4.172  0.2569 -0.4863  0.0469
  404MOL0     C55641   1.402   0.677   4.283  0.1573  0.1185  0.4942
  404MOL0     C55642   1.338   0.811   4.260 -0.2507  0.5012  0.0168
  404MOL0     C55643   1.469   0.644   4.399 -0.7571  0.1227  0.3038
  404MOL0     C55644   1.492   0.733   4.526 -0.1766 -0.8770  1.0848
  404MOL0     O55645   1.605   0.709   4.592  0.8060 -0.4265  0.2959
  404MOL0     C55646   1.648   0.804   4.681  0.0988 -0.0749 -0.5364
  404MOL0     C55647   1.732   0.759   4.784  0.0844 -0.1677  0.0685
  404MOL0     C55648   1.776   0.850   4.882 -0.4389  0.0134  0.0385
  404MOL0     C55649   1.768   0.990   4.867  0.2404 -0.1030  0.4037
  404MOL0     O55650   1.832   1.091   4.946 -0.0847  0.4954  0.0919
  404MOL0     C55651   1.851   1.064   5.086 -0.1397  0.3647  0.7182
  404MOL0     C55652   1.854   1.203   5.149 -0.6338 -0.7822 -0.6140
  404MOL0     C55653   1.856   1.201   5.298  0.1134 -0.1160 -0.9455
  404MOL0     C55654   1.992   1.193   5.368  0.7580 -0.9261 -0.1718
  404MOL0     C55655   1.992   1.174   5.517 -0.2860 -0.1088 -0.0713
  404MOL0     C55656   2.127   1.120   5.565 -0.5249  0.8674  0.0820
  404MOL0     C55657   2.158   1.125   5.713 -0.0014  0.6973 -0.7390
  404MOL0     C55658   2.308   1.129   5.738 -0.7899  0.6521 -0.8265
  404MOL0    Cl55659   2.338   1.062   5.903 -0.1374 -0.3741 -0.2110
  404MOL0     C55660   1.682   1.037   4.763  0.5356  0.2009 -0.2426
  404MOL0     C55661   1.620   0.942   4.680 -0.2074  0.0827 -0.4621
  404MOL0     O55662   1.407   0.818   4.558  0.7665 -0.2885  0.4018
  404MOL0     C55663   1.542   0.520   4.399 -0.3420 -0.4639 -0.1543
  404MOL0     C55664   1.539   0.430   4.289  0.5909 -0.0394 -1.0496
  404MOL0     N55665   1.077   0.067   3.613 -0.6562 -0.0389  0.2995
  404MOL0     N55666   1.041   0.070   3.481 -0.9329 -0.2591 -0.7498
  404MOL0     C55667   0.758   0.061   2.508 -1.1808  0.3495 -0.1920
  404MOL0     C55668   0.620   0.060   2.486  0.2356  0.4383  0.5187
  404MOL0     C55669   0.207   0.238   2.368 -1.1708 -0.3245  0.6021
  404MOL0     C55670   0.180   0.186   2.238  0.0495 -0.2773  0.0564
  404MOL0     C55671   0.049   0.184   2.180  0.4337 -0.1615  0.5887
  404MOL0     C55672  -0.066   0.225   2.259 -1.0080  0.1937  1.3702
  404MOL0     O55673  -0.199   0.233   2.216 -0.0564  0.3160 -0.7932
  404MOL0     C55674  -0.241   0.188   2.082  0.3404  0.2421 -0.6779
  404MOL0     C55675  -0.239   0.038   2.075  0.6618 -0.1658  0.3965
  404MOL0     C55676  -0.342  -0.047   2.166 -0.3868 -1.1364  0.6506
  404MOL0     C55677  -0.284  -0.076   2.312  0.7800 -0.2031 -1.1075
  404MOL0     C55678  -0.384  -0.156   2.385  1.1046 -0.3543  0.5104
  404MOL0     C55679  -0.462  -0.219   2.465 -0.5164  0.2354 -0.1427
  404MOL0     C55680  -0.037   0.277   2.389  0.6899 -0.5667  0.7589
  404MOL0     C55681   0.096   0.281   2.439  0.7126 -0.9961  0.0535
  404MOL0     C55682   0.105   0.336   2.579 -0.5234  0.6666 -0.1992
  404MOL0     H55683   0.638   0.287   2.227  1.0134 -0.7489 -1.8973
  404MOL0     H55684   0.874   0.280   2.288 -1.8362  2.8158  1.0595
  404MOL0     H55685   1.067   0.243   2.350  2.0823 -1.2870 -2.1430
  404MOL0     H55686   1.168   0.145   2.430  0.5068  2.1578 -1.2939
  404MOL0     H55687   1.133   0.346   2.554  0.2134 -0.6697 -2.5227
  404MOL0     H55688   0.966   0.324   2.579 -1.2129 -1.7448 -0.9557
  404MOL0     H55689   0.991   0.145   2.736  0.9846 -0.6806  1.8770
  404MOL0     H55690   1.166   0.118   2.684  0.2326  0.9272 -1.0385
  404MOL0     H55691   1.203   0.343   2.795  0.6370 -0.0645  0.0592
  404MOL0     H55692   1.044   0.337   2.867 -1.1996 -0.4359 -0.9318
  404MOL0     H55693   1.278   0.138   2.901  0.9440  1.1456 -0.1224
  404MOL0     H55694   1.110   0.111   2.972  1.7934 -1.2147  3.4944
  404MOL0     H55695   1.325   0.319   3.049 -0.0944 -0.5161 -1.0557
  404MOL0     H55696   1.151   0.359   3.072 -3.5496 -2.6122  1.3745
  404MOL0     H55697   1.303   0.243   3.256  1.5143 -0.1389 -1.1818
  404MOL0     H55698   1.263   0.095   3.186 -2.6636 -0.3214  2.7836
  404MOL0     H55699   1.046   0.290   3.277 -1.0213 -0.1165  1.8610
  404MOL0     H55700   1.021   0.130   3.231 -3.0150  2.8907 -0.1774
  404MOL0     H55701   1.295   0.291   3.494  2.3628 -1.2250  1.8072
  404MOL0     H55702   1.351   0.186   3.738  0.0529 -1.1369 -0.0232
  404MOL0     H55703   1.207   0.149   3.846 -0.3753  1.1153  0.4319
  404MOL0     H55704   1.273   0.414   3.713  1.4832 -0.0060  0.5883
  404MOL0     H55705   1.116   0.370   3.779 -0.1347  0.2532  1.5586
  404MOL0     H55706   1.213   0.492   3.946 -0.6125  0.8877 -1.5713
  404MOL0     H55707   1.221   0.332   4.007 -2.3375  1.7581  0.3284
  404MOL0     H55708   1.466   0.338   3.875 -0.8182 -0.9971  1.0476
  404MOL0     H55709   1.445   0.514   3.920 -3.3166  2.0441  4.6987
  404MOL0     H55710   1.367   0.623   4.075  1.2992  2.3703  0.5120
  404MOL0     H55711   1.285   0.830   4.167  0.0043 -1.7271 -0.6434
  404MOL0     H55712   1.413   0.890   4.271 -2.0544  2.0824  1.7830
  404MOL0     H55713   1.259   0.822   4.335 -0.5217  0.9629 -0.3360
  404MOL0     H55714   1.765   0.656   4.800 -0.7238 -0.0824  2.8415
  404MOL0     H55715   1.829   0.811   4.968 -2.1829  0.2121  1.2600
  404MOL0     H55716   1.767   1.010   5.131  1.2223  0.5189  3.6967
  404MOL0     H55717   1.939   0.999   5.100 -2.3057 -3.7120 -2.2888
  404MOL0     H55718   1.944   1.253   5.113  0.7411 -2.2380  0.6485
  404MOL0     H55719   1.765   1.265   5.132  0.9591  1.1490 -2.4105
  404MOL0     H55720   1.800   1.114   5.331 -1.3408  1.4427  0.9139
  404MOL0     H55721   1.814   1.295   5.333 -0.3627 -0.6165 -0.1650
  404MOL0     H55722   2.037   1.290   5.348 -0.1246 -0.4128  0.2883
  404MOL0     H55723   2.057   1.118   5.321  1.6582 -1.4191  1.7737
  404MOL0     H55724   1.976   1.271   5.565  1.0265  0.7864 -1.3624
  404MOL0     H55725   1.905   1.123   5.559 -0.8816  2.1653  1.6909
  404MOL0     H55726   2.216   1.166   5.521  0.4731 -1.3520 -0.3332
  404MOL0     H55727   2.138   1.016   5.534  1.9148  0.0706  3.1747
  404MOL0     H55728   2.121   1.028   5.747  0.7652 -1.1856 -4.6925
  404MOL0     H55729   2.120   1.217   5.760 -0.6288  0.4899 -0.8379
  404MOL0     H55730   2.344   1.232   5.728 -0.7304  0.9960  2.1647
  404MOL0     H55731   2.343   1.061   5.660 -0.5507 -1.4336  1.0116
  404MOL0     H55732   1.666   1.143   4.748 -0.9121  0.1358  0.6697
  404MOL0     H55733   1.558   0.979   4.599 -1.8963 -1.4340  0.0721
  404MOL0     H55734   1.595   0.500   4.491  1.1994  0.3080 -0.8275
  404MOL0     H55735   1.585   0.334   4.310 -0.6519 -0.3357  0.5256
  404MOL0     H55736   0.796  -0.006   2.585 -2.1967  1.6396  1.5124
  404MOL0     H55737   0.554  -0.007   2.541 -0.7540 -1.1178 -2.3493
  404MOL0     H55738   0.256   0.143   2.173  1.4733 -0.0088  1.4926
  404MOL0     H55739   0.042   0.155   2.076 -1.1026  1.2474  0.2513
  404MOL0     H55740  -0.343   0.224   2.067  0.0924  1.5093  2.9920
  404MOL0     H55741  -0.184   0.227   1.997  0.2502 -1.8301 -1.7403
  404MOL0     H55742  -0.137   0.006   2.098  1.1045  0.1378 -1.0327
  404MOL0     H55743  -0.254  -0.000   1.973  1.2006  0.5748  0.0248
  404MOL0     H55744  -0.437   0.005   2.179  0.6940  2.2838 -3.0136
  404MOL0     H55745  -0.364  -0.140   2.112 -0.8467 -0.2296 -0.8079
  404MOL0     H55746  -0.246   0.015   2.359  1.0222 -2.4080  3.5931
  404MOL0     H55747  -0.198  -0.142   2.304  5.6716  5.1645  0.6727
  404MOL0     H55748  -0.517  -0.273   2.539 -2.7112  0.6767 -1.3626
  404MOL0     H55749  -0.121   0.316   2.446 -0.0898 -2.7087  1.1779
  404MOL0     H55750   0.017   0.384   2.624  0.9873  0.7097  3.0430
  404MOL0     H55751   0.119   0.259   2.655 -1.1167  2.7027  2.1336
  404MOL0     H55752   0.183   0.413   2.581  0.2841 -0.1370  1.2873
  405MOL0     O55753   0.807   7.351   0.170 -0.2240  0.4121  0.2590
  405MOL0     C55754   0.776   7.413   0.271 -0.2318  0.2451 -0.1454
  405MOL0     O55755   0.771   7.363   0.395 -0.3893  0.2652  0.3761
  405MOL0     C55756   0.801   7.230   0.397  1.0830 -0.2276  0.7944
  405MOL0     C55757   0.706   7.142   0.345  0.1594  1.0627  0.5170
  405MOL0     C55758   0.720   6.998   0.351  0.1192 -0.5760 -0.1036
  405MOL0     C55759   0.831   6.946   0.421  0.1583 -0.0864  0.3566
  405MOL0     O55760   0.840   6.808   0.435 -0.4061  0.0237  0.4514
  405MOL0     C55761   0.784   6.763   0.559 -0.1059  0.2345 -0.6207
  405MOL0     C55762   0.772   6.603   0.541  0.6410  0.1125  0.7094
  405MOL0     C55763   0.907   6.541   0.570 -1.0465 -0.2502  0.1667
  405MOL0     C55764   0.902   6.397   0.558 -0.3070  0.4173  0.8720
  405MOL0     C55765   1.039   6.321   0.557  0.5267  0.4269  0.0757
  405MOL0     C55766   1.026   6.164   0.564  0.1310 -0.0154 -0.4568
  405MOL0     C55767   0.997   6.118   0.719  0.2448 -0.5519  0.4259
  405MOL0     C55768   0.983   5.964   0.733  0.3163 -0.8236 -0.2008
  405MOL0     N55769   0.934   5.937   0.865 -0.0333  0.4863  0.6382
  405MOL0     C55770   1.004   5.945   0.989 -0.1050  0.1853  0.4074
  405MOL0     C55771   0.910   5.907   1.077  0.6390 -0.6406  0.1466
  405MOL0     C55772   0.921   5.901   1.237  0.0606  0.2615  0.4556
  405MOL0     C55773   0.817   5.814   1.298  0.4494  0.0275 -0.4658
  405MOL0     C55774   0.831   5.663   1.255 -0.2345  0.5146 -0.1363
  405MOL0     C55775   0.960   5.592   1.300  0.2779 -0.0718 -0.8502
  405MOL0     O55776   0.989   5.503   1.194 -0.5757  0.1172 -0.1349
  405MOL0     C55777   1.108   5.431   1.205 -0.8293 -0.2574 -0.3545
  405MOL0     C55778   1.199   5.433   1.307  0.8599 -0.2494  0.7409
  405MOL0     C55779   1.317   5.365   1.304 -0.6723 -0.5467  0.0396
  405MOL0     C55780   1.402   5.384   1.423 -0.1359 -0.5226  0.6755
  405MOL0     C55781   1.350   5.276   1.200 -0.0559 -0.6376 -0.0874
  405MOL0     C55782   1.471   5.202   1.190  0.3621  0.2360 -0.2075
  405MOL0     O55783   1.453   5.079   1.137 -0.1719 -0.6578  0.3361
  405MOL0     C55784   1.555   4.989   1.129 -0.9541 -0.1382  0.7124
  405MOL0     C55785   1.674   5.015   1.054  0.7204 -0.2307  0.6670
  405MOL0     C55786   1.776   4.916   1.031  0.0157 -0.3902  0.0176
  405MOL0     C55787   1.770   4.799   1.108  0.0324 -0.2036  0.8651
  405MOL0     O55788   1.874   4.719   1.100 -0.1255 -0.3264  0.5482
  405MOL0     C55789   1.857   4.578   1.103  0.0009 -0.0508 -0.4074
  405MOL0     C55790   1.988   4.508   1.077 -0.0710  0.0468 -0.6518
  405MOL0     C55791   1.968   4.355   1.072 -0.1329 -0.6814  0.1848
  405MOL0     C55792   1.919   4.288   1.198 -0.6199  0.2457 -0.1775
  405MOL0     C55793   1.952   4.141   1.190  0.4971 -0.6798  0.1698
  405MOL0     C55794   1.901   4.059   1.312  0.3282  0.7748 -0.3244
  405MOL0     C55795   1.746   4.049   1.316 -0.8926  0.0748 -0.0438
  405MOL0     C55796   1.689   3.949   1.419 -0.4120  0.3154  0.2811
  405MOL0    Cl55797   1.749   3.963   1.576  0.4599  0.3763  0.2010
  405MOL0     C55798   1.655   4.778   1.182  0.5291 -0.9277  0.2028
  405MOL0     C55799   1.549   4.870   1.196  0.2357  0.8276  0.5391
  405MOL0     O55800   1.576   5.244   1.242 -0.3762 -0.1361 -0.5734
  405MOL0     C55801   1.247   5.256   1.105  0.0943 -0.2013  0.2974
  405MOL0     C55802   1.132   5.335   1.113 -0.0825 -0.3227 -0.2025
  405MOL0     N55803   0.789   5.885   1.003  0.1974 -0.0480  0.6537
  405MOL0     N55804   0.809   5.896   0.883  0.3248 -0.5819  0.1046
  405MOL0     C55805   0.936   7.028   0.465 -0.4431 -1.3340  0.7159
  405MOL0     C55806   0.914   7.172   0.458  0.5450 -0.1930  0.4803
  405MOL0     C55807   0.753   7.560   0.247 -0.4363  0.0761  0.7975
  405MOL0     C55808   0.666   7.597   0.139 -0.2796  0.1789 -0.2260
  405MOL0     C55809   0.656   7.733   0.103  0.9261  0.6224  0.4999
  405MOL0     C55810   0.724   7.832   0.179  1.0463 -0.2419 -0.4055
  405MOL0     O55811   0.709   7.964   0.157  0.2888 -0.0011  0.0486
  405MOL0     C55812   0.695   8.031   0.027  0.7120 -0.1280 -0.2022
  405MOL0     C55813   0.734   8.175   0.054  0.1732  0.3120 -0.1054
  405MOL0     C55814   0.715   8.274  -0.065  0.5716  0.6255 -0.5976
  405MOL0     C55815   0.594   8.368  -0.037  0.2149 -0.0351 -0.9470
  405MOL0     C55816   0.456   8.318  -0.053  0.4417  0.5319  0.2395
  405MOL0     C55817   0.337   8.292  -0.079 -0.3717 -0.1074 -0.0751
  405MOL0     C55818   0.786   7.797   0.296 -0.3516 -0.8151  0.0641
  405MOL0     C55819   0.812   7.662   0.322  0.4031 -0.2794  0.0032
  405MOL0     C55820   0.916   7.641   0.426  0.4826 -0.6339 -0.5912
  405MOL0     H55821   0.617   7.184   0.300  0.9667 -0.9134 -3.4460
  405MOL0     H55822   0.642   6.932   0.315  0.1276 -1.0852  0.7812
  405MOL0     H55823   0.682   6.796   0.580 -0.1105 -0.6205  0.7764
  405MOL0     H55824   0.854   6.784   0.640  0.8980  2.0973 -1.9112
  405MOL0     H55825   0.696   6.562   0.608 -0.2068  0.9336  0.2791
  405MOL0     H55826   0.746   6.589   0.436 -0.2384  0.5841  0.8585
  405MOL0     H55827   0.988   6.579   0.508 -1.3919  0.7789  0.3350
  405MOL0     H55828   0.927   6.564   0.675  1.2584  1.8222 -0.6262
  405MOL0     H55829   0.832   6.358   0.632 -0.7049 -2.4011 -0.8354
  405MOL0     H55830   0.854   6.375   0.462  1.5706 -3.1592  0.5911
  405MOL0     H55831   1.100   6.361   0.639  0.1791  2.0644 -0.4338
  405MOL0     H55832   1.104   6.343   0.472  1.8163  3.1920  1.6172
  405MOL0     H55833   0.939   6.142   0.501  1.3338  1.8676 -2.9666
  405MOL0     H55834   1.119   6.118   0.528 -1.1483 -2.0032 -1.4010
  405MOL0     H55835   0.916   6.182   0.757  0.6144  0.2250 -0.0715
  405MOL0     H55836   1.089   6.148   0.769 -0.5970  2.1099  0.5673
  405MOL0     H55837   0.910   5.922   0.662  0.7545 -1.3899 -0.3191
  405MOL0     H55838   1.083   5.923   0.719  0.4822 -0.6434  0.4481
  405MOL0     H55839   1.100   5.986   1.018 -0.2941  1.8165 -1.1256
  405MOL0     H55840   0.905   6.002   1.275 -2.2104 -1.0370  3.4295
  405MOL0     H55841   1.025   5.875   1.259 -0.2918  0.0516  2.0474
  405MOL0     H55842   0.830   5.808   1.407 -0.0635  1.6103 -0.2899
  405MOL0     H55843   0.713   5.835   1.271 -0.6596 -1.4765  2.2045
  405MOL0     H55844   0.751   5.602   1.298  1.0801 -2.1581 -1.2643
  405MOL0     H55845   0.806   5.653   1.149 -1.1993  0.1214  0.1231
  405MOL0     H55846   1.040   5.667   1.307  1.0448 -0.4921 -3.7910
  405MOL0     H55847   0.936   5.550   1.398 -1.3558  2.0957 -0.2316
  405MOL0     H55848   1.180   5.498   1.392 -0.6905  1.1305 -0.5950
  405MOL0     H55849   1.421   5.287   1.471 -0.3683 -0.5771  0.6599
  405MOL0     H55850   1.353   5.434   1.507 -0.8553 -1.9542  1.1486
  405MOL0     H55851   1.500   5.428   1.401  0.6310 -1.6444  1.7166
  405MOL0     H55852   1.695   5.106   0.999  0.9742 -1.0900 -0.7181
  405MOL0     H55853   1.864   4.943   0.975 -1.0309  2.4229 -0.4506
  405MOL0     H55854   1.815   4.549   1.200 -0.2076 -0.3555 -0.5882
  405MOL0     H55855   1.786   4.539   1.030  0.1449 -0.5092 -0.3075
  405MOL0     H55856   2.026   4.539   0.980 -0.2826 -0.5376 -0.9294
  405MOL0     H55857   2.066   4.531   1.151 -1.4084 -3.5127  2.2105
  405MOL0     H55858   2.066   4.318   1.039  0.8182  0.6002  1.4312
  405MOL0     H55859   1.892   4.333   0.997  1.6167  1.2521 -2.3357
  405MOL0     H55860   1.810   4.297   1.202 -0.7091 -0.9653  0.9431
  405MOL0     H55861   1.976   4.340   1.276  0.4334  0.5077 -1.0963
  405MOL0     H55862   1.920   4.102   1.093  0.9661  4.0779 -2.2214
  405MOL0     H55863   2.062   4.143   1.189  0.4883  1.2107 -0.3584
  405MOL0     H55864   1.936   4.107   1.404 -1.8173  0.9834  0.4510
  405MOL0     H55865   1.947   3.960   1.313 -0.2252  0.4842  1.4128
  405MOL0     H55866   1.712   4.018   1.216 -2.1085  1.7400 -0.1955
  405MOL0     H55867   1.701   4.146   1.339 -2.6935 -0.8326  0.4340
  405MOL0     H55868   1.702   3.846   1.383  2.0473  1.2506 -1.8096
  405MOL0     H55869   1.584   3.970   1.438 -0.2199  1.2260  0.3470
  405MOL0     H55870   1.651   4.701   1.258  1.5587 -2.4671 -1.2106
  405MOL0     H55871   1.469   4.843   1.263  3.8382 -2.5322  4.0488
  405MOL0     H55872   1.261   5.185   1.024 -0.0021  0.0586  0.0489
  405MOL0     H55873   1.066   5.332   1.027 -0.4680  1.4666 -0.0150
  405MOL0     H55874   1.021   6.987   0.519  0.1223 -1.7515 -0.4506
  405MOL0     H55875   0.985   7.245   0.494 -1.3788  1.2900  1.4232
  405MOL0     H55876   0.622   7.517   0.080  0.5593  0.1383 -0.8189
  405MOL0     H55877   0.594   7.754   0.017 -0.8084 -2.8761  0.7151
  405MOL0     H55878   0.766   7.991  -0.046 -0.6555 -0.3595 -1.4797
  405MOL0     H55879   0.587   8.037   0.008 -0.0696  2.1361  3.8223
  405MOL0     H55880   0.838   8.186   0.086 -0.0612  1.2910  0.3580
  405MOL0     H55881   0.685   8.210   0.145  1.4621  0.4717  0.5411
  405MOL0     H55882   0.808   8.333  -0.061 -0.8643  2.9814  0.8263
  405MOL0     H55883   0.696   8.235  -0.165 -2.7259  0.2549  0.0526
  405MOL0     H55884   0.605   8.462  -0.092 -2.3772 -0.7825 -2.9653
  405MOL0     H55885   0.605   8.406   0.065  0.4047 -0.3480 -0.8512
  405MOL0     H55886   0.233   8.275  -0.097 -0.5120  1.1240 -0.5355
  405MOL0     H55887   0.838   7.864   0.364  1.5765 -3.3784  1.3279
  405MOL0     H55888   0.893   7.703   0.513 -4.1715 -0.8373 -1.4455
  405MOL0     H55889   0.925   7.537   0.458  1.9797 -0.0538  1.0036
  405MOL0     H55890   1.014   7.670   0.387  1.1021  0.6143  1.7085
  406MOL0     O55891   8.495   7.826   1.545 -0.5669  0.3200 -0.0711
  406MOL0     C55892   8.505   7.814   1.422 -0.5228 -0.2239  0.5276
  406MOL0     O55893   8.565   7.702   1.364 -0.1226  0.1287 -0.5583
  406MOL0     C55894   8.592   7.605   1.453  0.7286 -0.0075  0.5271
  406MOL0     C55895   8.491   7.510   1.458  0.7348  0.3970  0.1525
  406MOL0     C55896   8.506   7.403   1.546  1.2092 -0.0993  0.1594
  406MOL0     C55897   8.623   7.388   1.624  0.3345 -0.2024 -0.3894
  406MOL0     O55898   8.637   7.263   1.689 -0.7287  0.5845 -0.4562
  406MOL0     C55899   8.764   7.221   1.740 -0.8635 -0.8887  0.5847
  406MOL0     C55900   8.772   7.070   1.755  0.4737  0.5709 -0.7307
  406MOL0     C55901   8.685   7.018   1.864  0.3283 -0.4522 -0.1382
  406MOL0     C55902   8.711   6.871   1.887  0.0402  1.1599  0.6330
  406MOL0     C55903   8.608   6.779   1.965 -0.3872  0.6970 -0.2104
  406MOL0     C55904   8.657   6.630   1.979 -0.9731  0.4430 -0.0283
  406MOL0     C55905   8.568   6.535   2.057  0.2340  0.0365 -0.5514
  406MOL0     C55906   8.450   6.486   1.983 -1.0036 -0.0527  1.2779
  406MOL0     N55907   8.354   6.422   2.083 -0.1925 -0.3054  0.7432
  406MOL0     C55908   8.393   6.356   2.202 -0.8232  0.3500 -0.2430
  406MOL0     C55909   8.277   6.337   2.267 -0.0748  0.2053 -0.0231
  406MOL0     C55910   8.268   6.313   2.414 -1.0365 -0.3151  0.0746
  406MOL0     C55911   8.180   6.194   2.449 -0.0691  0.4807 -0.2893
  406MOL0     C55912   8.041   6.170   2.379 -0.3708  1.2805  0.3100
  406MOL0     C55913   7.933   6.291   2.396 -0.9735 -0.3913 -0.0013
  406MOL0     O55914   7.895   6.292   2.538 -0.7176 -0.3875  0.2893
  406MOL0     C55915   7.810   6.187   2.581  0.8078  0.2491 -0.2222
  406MOL0     C55916   7.747   6.084   2.511  0.5519  1.3353 -0.4574
  406MOL0     C55917   7.660   5.985   2.565 -0.2894  0.1779  0.9190
  406MOL0     C55918   7.561   5.914   2.473  0.2075  0.3663 -0.7542
  406MOL0     C55919   7.646   5.989   2.705 -0.7165  0.7117 -0.3068
  406MOL0     C55920   7.570   5.893   2.779  0.6549  0.1647 -0.7093
  406MOL0     O55921   7.580   5.762   2.763  0.0912  0.1665 -0.7050
  406MOL0     C55922   7.489   5.672   2.823  0.1682  0.0051 -0.9075
  406MOL0     C55923   7.496   5.646   2.968 -0.4150 -0.0213 -0.1760
  406MOL0     C55924   7.418   5.549   3.022  0.8643 -0.6588  0.2802
  406MOL0     C55925   7.312   5.490   2.937  0.7091 -0.0353 -0.9215
  406MOL0     O55926   7.231   5.397   3.000  0.5654 -0.7525  0.3776
  406MOL0     C55927   7.175   5.443   3.120  0.1512  0.1977  0.0352
  406MOL0     C55928   7.071   5.334   3.157  0.1194 -0.1896 -0.9599
  406MOL0     C55929   7.128   5.193   3.168 -0.4296  0.2888  1.0293
  406MOL0     C55930   7.023   5.086   3.198  0.0212 -0.2467 -0.0251
  406MOL0     C55931   7.031   5.058   3.342  0.6999 -0.1893 -0.5604
  406MOL0     C55932   6.925   4.953   3.379 -0.1384 -0.0854  0.5171
  406MOL0     C55933   6.941   4.898   3.525 -0.1402 -0.2240  0.5935
  406MOL0     C55934   6.874   4.763   3.539 -0.2381  0.1540 -0.0450
  406MOL0    Cl55935   6.688   4.754   3.578  0.4169 -0.1163 -0.2374
  406MOL0     C55936   7.312   5.514   2.803 -0.4934 -0.8991  0.8344
  406MOL0     C55937   7.406   5.598   2.741  0.4424  0.0761  0.0584
  406MOL0     O55938   7.490   5.939   2.858 -0.6873 -0.2794  0.9114
  406MOL0     C55939   7.720   6.081   2.780 -0.4588  0.6399  0.6985
  406MOL0     C55940   7.786   6.185   2.715  1.0616  0.4449  0.4711
  406MOL0     N55941   8.172   6.374   2.181 -0.0893  0.2523 -0.0601
  406MOL0     N55942   8.220   6.432   2.079  0.1705 -0.7714  1.1732
  406MOL0     C55943   8.729   7.476   1.609  0.8898  0.5454 -0.5777
  406MOL0     C55944   8.707   7.603   1.541  0.4230 -0.4141  0.0078
  406MOL0     C55945   8.453   7.929   1.344 -1.2293 -0.4719  0.2871
  406MOL0     C55946   8.394   8.032   1.423  0.3424 -0.7000  0.0077
  406MOL0     C55947   8.359   8.159   1.373  0.2200  0.2528  1.4148
  406MOL0     C55948   8.391   8.181   1.239  0.8275  0.2365  0.3193
  406MOL0     O55949   8.380   8.300   1.172 -0.1856  0.7317 -0.0809
  406MOL0     C55950   8.364   8.415   1.261 -0.1973 -0.5928  0.2249
  406MOL0     C55951   8.362   8.546   1.171 -0.4718 -1.0319  0.4938
  406MOL0     C55952   8.496   8.584   1.111  0.2098 -0.1253  0.2476
  406MOL0     C55953   8.618   8.544   1.195  0.3090 -0.2817  0.0356
  406MOL0     C55954   8.748   8.600   1.160 -0.8659  0.1298 -0.2029
  406MOL0     C55955   8.856   8.665   1.128 -0.8029 -0.1416 -0.9137
  406MOL0     C55956   8.433   8.081   1.156 -0.3918  0.7126  0.3819
  406MOL0     C55957   8.474   7.958   1.202  0.3437  0.5652 -1.5722
  406MOL0     C55958   8.534   7.862   1.108  0.1973  0.5475 -0.1705
  406MOL0     H55959   8.406   7.529   1.392 -0.9236 -0.9890  1.7844
  406MOL0     H55960   8.430   7.327   1.558  0.2540  0.9614  1.1676
  406MOL0     H55961   8.767   7.267   1.840 -1.8065  0.3043  0.0927
  406MOL0     H55962   8.853   7.247   1.682 -1.2265 -1.6056 -0.3168
  406MOL0     H55963   8.743   7.015   1.664 -2.2186  0.4149  0.1277
  406MOL0     H55964   8.868   7.030   1.788 -1.1491 -0.7657  2.8435
  406MOL0     H55965   8.695   7.060   1.964 -0.5113 -3.1228  1.1710
  406MOL0     H55966   8.581   7.024   1.831 -0.0866 -0.0743  1.1931
  406MOL0     H55967   8.731   6.826   1.790 -0.1827 -0.5025  1.3189
  406MOL0     H55968   8.798   6.859   1.952  1.0374 -3.0582 -1.0989
  406MOL0     H55969   8.508   6.795   1.926 -0.7443 -2.0697 -0.6217
  406MOL0     H55970   8.617   6.820   2.066 -0.1660  3.1446 -1.1581
  406MOL0     H55971   8.683   6.582   1.885  0.6207  0.6801  0.2609
  406MOL0     H55972   8.749   6.643   2.038 -1.2718  3.6322 -0.0822
  406MOL0     H55973   8.537   6.570   2.156 -0.2932 -2.1442  0.1075
  406MOL0     H55974   8.634   6.453   2.088  0.6942  1.6508  3.3556
  406MOL0     H55975   8.404   6.565   1.923  1.0040  0.0489 -0.2331
  406MOL0     H55976   8.494   6.415   1.913  0.8757  0.5774  1.7759
  406MOL0     H55977   8.495   6.338   2.234 -0.6670  0.3474 -0.7456
  406MOL0     H55978   8.239   6.407   2.461 -2.0487 -1.3863  1.6873
  406MOL0     H55979   8.370   6.283   2.441 -0.6910  2.5178  2.2574
  406MOL0     H55980   8.232   6.102   2.422 -1.4990 -0.1787 -0.9290
  406MOL0     H55981   8.175   6.183   2.557  2.6588 -1.9676 -0.2926
  406MOL0     H55982   8.052   6.149   2.273  2.1354  2.0331  0.3664
  406MOL0     H55983   8.001   6.078   2.424 -0.5596  0.6483 -1.0955
  406MOL0     H55984   7.965   6.388   2.356  2.0502 -2.8254 -4.4345
  406MOL0     H55985   7.841   6.286   2.336 -2.5951  4.1574  1.7155
  406MOL0     H55986   7.755   6.078   2.403  0.4281  1.7147 -0.4883
  406MOL0     H55987   7.520   5.987   2.403  1.5797  0.9800 -0.9557
  406MOL0     H55988   7.485   5.872   2.540 -1.0280  1.2005 -1.5867
  406MOL0     H55989   7.598   5.832   2.412 -2.6592 -2.1039  0.5147
  406MOL0     H55990   7.560   5.714   3.023  0.8542 -0.4905 -1.0239
  406MOL0     H55991   7.416   5.542   3.130 -1.0842  0.4135  0.3613
  406MOL0     H55992   7.245   5.462   3.202 -2.2128 -3.3414  3.2533
  406MOL0     H55993   7.120   5.533   3.090 -2.2798 -1.2759 -0.2196
  406MOL0     H55994   7.025   5.369   3.249  0.2814 -3.2373  0.4111
  406MOL0     H55995   7.004   5.334   3.070  2.4738 -1.8582 -2.9179
  406MOL0     H55996   7.214   5.183   3.236 -0.8782 -1.8990  1.3654
  406MOL0     H55997   7.149   5.155   3.068 -1.7266  1.7189  0.1859
  406MOL0     H55998   7.040   4.994   3.142 -0.4336 -0.0049 -0.5681
  406MOL0     H55999   6.932   5.133   3.161  0.8033  1.1818 -0.2043
  406MOL0     H56000   7.128   5.023   3.379  1.3792  0.1970 -1.9108
  406MOL0     H56001   7.017   5.155   3.391  1.6929  1.0048 -2.5200
  406MOL0     H56002   6.925   4.879   3.297 -0.4207  0.9347 -0.4241
  406MOL0     H56003   6.824   4.992   3.364 -0.6056 -1.3881  0.0981
  406MOL0     H56004   6.898   4.965   3.601  0.1635 -0.2865  0.8253
  406MOL0     H56005   7.045   4.883   3.555 -0.5248 -1.0464  1.5914
  406MOL0     H56006   6.923   4.709   3.620 -1.2304 -1.4598 -0.4744
  406MOL0     H56007   6.900   4.695   3.458  1.1702  0.3046  0.2597
  406MOL0     H56008   7.236   5.470   2.739  1.8027 -0.9813 -2.0535
  406MOL0     H56009   7.399   5.623   2.636  0.2649  0.9464  0.2652
  406MOL0     H56010   7.724   6.078   2.888 -0.8188  1.9616  0.7584
  406MOL0     H56011   7.827   6.262   2.780  0.6033  0.7692  0.3755
  406MOL0     H56012   8.821   7.458   1.664 -0.2199 -1.9591  0.6603
  406MOL0     H56013   8.782   7.682   1.543  1.0191 -0.5899 -4.7120
  406MOL0     H56014   8.375   8.022   1.530 -2.4761  2.4532 -0.0466
  406MOL0     H56015   8.299   8.230   1.429 -1.8734 -2.1608  2.4142
  406MOL0     H56016   8.275   8.395   1.322  0.6888 -1.0707  1.4106
  406MOL0     H56017   8.448   8.417   1.330  2.8789 -3.4158 -3.0413
  406MOL0     H56018   8.331   8.626   1.239  0.1164 -0.0908 -0.3213
  406MOL0     H56019   8.297   8.529   1.085  2.2219 -0.1117 -1.9317
  406MOL0     H56020   8.500   8.547   1.008 -0.0274 -0.5989  0.4035
  406MOL0     H56021   8.504   8.691   1.094  1.6292  0.0627  1.9402
  406MOL0     H56022   8.627   8.436   1.210  0.7070 -0.4299 -1.1732
  406MOL0     H56023   8.583   8.591   1.288  0.0513  2.9689 -1.5667
  406MOL0     H56024   8.947   8.715   1.100  1.4464 -0.5538  4.3911
  406MOL0     H56025   8.443   8.105   1.051  0.7671  1.7429  0.7086
  406MOL0     H56026   8.484   7.879   1.012 -0.1142  0.8036  0.0381
  406MOL0     H56027   8.641   7.879   1.093  1.1053 -3.9112 -0.2403
  406MOL0     H56028   8.517   7.756   1.132  1.1389 -0.0351 -1.8901
  407MOL0     O56029  11.390   1.406   1.411  0.3836  0.1506  0.6106
  407MOL0     C56030  11.496   1.462   1.419 -0.0305 -0.8764  0.0320
  407MOL0     O56031  11.535   1.557   1.519  0.6485  0.1359  0.5585
  407MOL0     C56032  11.441   1.603   1.608  0.3509 -0.8939 -0.2806
  407MOL0     C56033  11.386   1.734   1.609  1.2315 -0.8397 -0.8496
  407MOL0     C56034  11.278   1.760   1.694 -0.0679  0.6295  0.0937
  407MOL0     C56035  11.221   1.664   1.785  0.2703 -0.5306  0.6233
  407MOL0     O56036  11.115   1.694   1.865 -0.5388 -0.2027  0.9869
  407MOL0     C56037  11.102   1.808   1.952 -0.1079  0.3870  0.3662
  407MOL0     C56038  10.965   1.868   1.923 -0.6634 -0.0003 -0.0906
  407MOL0     C56039  10.843   1.771   1.956  0.3809 -0.7028  0.0665
  407MOL0     C56040  10.731   1.822   1.879  0.6021  0.8720 -0.8158
  407MOL0     C56041  10.615   1.712   1.861 -0.8071 -1.2936 -0.2012
  407MOL0     C56042  10.489   1.772   1.787 -0.0318  0.4974  0.7306
  407MOL0     C56043  10.382   1.663   1.775 -0.5171  0.1566 -0.9717
  407MOL0     C56044  10.249   1.725   1.780  0.4815  0.0536 -0.3065
  407MOL0     N56045  10.226   1.837   1.684  0.6168  0.6515 -0.1483
  407MOL0     C56046  10.261   1.974   1.700  0.7375 -0.9204 -0.5776
  407MOL0     C56047  10.190   2.036   1.605 -0.3741  1.1739 -0.0735
  407MOL0     C56048  10.206   2.183   1.574  0.6347  0.1955 -0.3865
  407MOL0     C56049  10.069   2.257   1.560 -0.1305  0.9981 -0.5881
  407MOL0     C56050  10.074   2.402   1.498  0.0270  0.6558 -0.3610
  407MOL0     C56051   9.959   2.438   1.409  0.0375 -0.2824 -0.0404
  407MOL0     O56052   9.975   2.570   1.360 -0.1049 -0.5551  0.2101
  407MOL0     C56053   9.878   2.621   1.283 -0.4404 -0.5135 -0.1125
  407MOL0     C56054   9.895   2.757   1.244 -0.0281  0.5227  0.1637
  407MOL0     C56055   9.801   2.822   1.166 -0.5720 -0.8491 -0.9732
  407MOL0     C56056   9.835   2.969   1.140 -0.6453  1.4572 -0.7846
  407MOL0     C56057   9.670   2.763   1.152  0.0814 -0.4101  1.1036
  407MOL0     C56058   9.563   2.820   1.070  1.2096  0.2562  0.3052
  407MOL0     O56059   9.434   2.768   1.103 -0.8555 -0.2757  0.5511
  407MOL0     C56060   9.328   2.818   1.042  0.1434  0.2051 -0.1732
  407MOL0     C56061   9.236   2.882   1.123 -0.8959 -0.2575 -0.0457
  407MOL0     C56062   9.125   2.929   1.068  0.9065 -0.9580  0.3514
  407MOL0     C56063   9.089   2.913   0.933 -0.2952 -0.8002  0.1866
  407MOL0     O56064   8.974   2.957   0.875 -0.3660  0.3725 -0.6000
  407MOL0     C56065   8.862   2.934   0.947 -0.0064 -0.0363 -0.3195
  407MOL0     C56066   8.735   2.969   0.861 -0.8187  0.1829 -0.4721
  407MOL0     C56067   8.732   3.118   0.835 -0.1872 -0.3090 -0.3574
  407MOL0     C56068   8.599   3.158   0.769 -0.2398  0.3568  0.1695
  407MOL0     C56069   8.509   3.232   0.870 -1.3784  0.1213  0.0539
  407MOL0     C56070   8.380   3.278   0.799  0.0907 -0.2642 -0.5062
  407MOL0     C56071   8.340   3.417   0.861 -1.2316  0.3495  0.5432
  407MOL0     C56072   8.215   3.464   0.783  1.0042  0.1021 -0.3983
  407MOL0    Cl56073   8.255   3.496   0.611 -0.5301 -0.1344 -0.2270
  407MOL0     C56074   9.176   2.847   0.852 -0.0084 -0.9114  0.2520
  407MOL0     C56075   9.306   2.819   0.902 -0.1142  0.3080 -0.2048
  407MOL0     O56076   9.588   2.898   0.978  0.1572 -0.5024 -0.0373
  407MOL0     C56077   9.647   2.635   1.205 -0.4520 -0.3921 -0.0194
  407MOL0     C56078   9.751   2.563   1.266 -0.4781  0.3012 -0.2480
  407MOL0     N56079  10.119   1.934   1.535 -0.0810 -0.6461 -0.3643
  407MOL0     N56080  10.144   1.820   1.574  0.4612  0.1401 -1.2910
  407MOL0     C56081  11.269   1.538   1.782 -0.6876 -0.3739  1.3175
  407MOL0     C56082  11.383   1.510   1.704 -0.2954 -0.6550 -0.5096
  407MOL0     C56083  11.599   1.445   1.315 -0.5889 -0.3915 -0.9554
  407MOL0     C56084  11.731   1.480   1.350  0.2457 -0.5084  0.0529
  407MOL0     C56085  11.838   1.448   1.268 -0.5419  0.5674  0.9505
  407MOL0     C56086  11.822   1.399   1.136  0.9861 -0.4445 -0.1341
  407MOL0     O56087  11.931   1.385   1.058 -0.6403 -0.6788  0.4735
  407MOL0     C56088  11.945   1.267   0.977  0.3320 -0.0073  0.0334
  407MOL0     C56089  12.038   1.299   0.857  0.5766 -0.5401  0.0597
  407MOL0     C56090  12.024   1.191   0.754  0.3657  0.1552  0.5380
  407MOL0     C56091  12.103   1.228   0.631  0.7675 -0.2505 -0.9481
  407MOL0     C56092  12.024   1.294   0.535  0.1019 -0.0617 -0.4554
  407MOL0     C56093  11.964   1.349   0.444  0.1443  0.2980 -0.6732
  407MOL0     C56094  11.686   1.378   1.102  0.1338  0.1061  0.2494
  407MOL0     C56095  11.580   1.379   1.190  0.8795  0.0180 -0.3431
  407MOL0     C56096  11.446   1.336   1.137  0.3462  0.7356  0.2433
  407MOL0     H56097  11.423   1.810   1.541  2.3308 -0.7858 -0.2146
  407MOL0     H56098  11.238   1.860   1.704  1.6329  1.0739  5.9463
  407MOL0     H56099  11.168   1.892   1.930 -0.7442  1.0216  0.8212
  407MOL0     H56100  11.115   1.786   2.059  3.6645 -0.5291 -0.1229
  407MOL0     H56101  10.951   1.960   1.981  0.4155  0.6420 -0.8152
  407MOL0     H56102  10.959   1.893   1.817 -1.4944 -4.1960 -1.1996
  407MOL0     H56103  10.870   1.671   1.922 -1.8990 -1.5651  0.6315
  407MOL0     H56104  10.822   1.766   2.063  1.3650  4.0618  0.6819
  407MOL0     H56105  10.688   1.913   1.925 -2.2875 -0.4582 -0.6457
  407MOL0     H56106  10.757   1.843   1.775 -5.2538  1.4414 -2.5227
  407MOL0     H56107  10.579   1.681   1.959  3.0600  0.5925  2.0415
  407MOL0     H56108  10.657   1.623   1.814  4.4362 -0.3070  1.9285
  407MOL0     H56109  10.461   1.859   1.847  1.6184  0.8070  1.1060
  407MOL0     H56110  10.503   1.807   1.685 -0.9254 -0.9008  0.0948
  407MOL0     H56111  10.396   1.591   1.856  1.5852 -0.9142 -2.1825
  407MOL0     H56112  10.395   1.600   1.687  1.4628 -1.4431  0.3583
  407MOL0     H56113  10.176   1.644   1.772  0.8879 -0.4217  0.6238
  407MOL0     H56114  10.224   1.773   1.875  3.2064 -0.9484  1.0311
  407MOL0     H56115  10.328   2.014   1.776  0.0794 -0.9623  0.0366
  407MOL0     H56116  10.267   2.187   1.484  2.0465  1.1672  0.5783
  407MOL0     H56117  10.266   2.239   1.646  1.1865 -1.2510  0.3321
  407MOL0     H56118  10.006   2.196   1.495  2.9029 -0.6352 -2.2017
  407MOL0     H56119  10.015   2.262   1.656  1.9208 -1.0468  0.7721
  407MOL0     H56120  10.074   2.476   1.579 -0.9247  1.1272 -0.7731
  407MOL0     H56121  10.167   2.396   1.442  0.7846 -2.6873  1.0139
  407MOL0     H56122   9.954   2.378   1.318  0.8567 -2.9754  1.5619
  407MOL0     H56123   9.868   2.442   1.470  1.3320  1.7733  1.9348
  407MOL0     H56124   9.991   2.805   1.259 -0.3789  2.1462 -2.2735
  407MOL0     H56125   9.756   3.043   1.122 -0.0879  2.0897 -0.6459
  407MOL0     H56126   9.908   2.969   1.058  0.2884 -1.8826 -0.0674
  407MOL0     H56127   9.892   2.990   1.231 -0.5111 -1.9231  0.0167
  407MOL0     H56128   9.254   2.877   1.230  3.2584 -0.0426 -0.5715
  407MOL0     H56129   9.049   2.977   1.129 -0.9244  0.6933 -2.9247
  407MOL0     H56130   8.852   2.833   0.986 -3.9424 -0.3894 -1.7725
  407MOL0     H56131   8.877   3.004   1.029  1.3716  1.3972 -1.7125
  407MOL0     H56132   8.733   2.908   0.770 -0.8688  1.3858 -1.2983
  407MOL0     H56133   8.649   2.945   0.924 -2.5112  1.3439 -2.2080
  407MOL0     H56134   8.811   3.148   0.765 -0.2386 -1.5366 -0.9746
  407MOL0     H56135   8.739   3.171   0.930  1.5308 -0.8680 -0.1375
  407MOL0     H56136   8.537   3.078   0.729 -0.5740  0.2146  0.9403
  407MOL0     H56137   8.634   3.222   0.688 -0.6263 -0.3648 -0.5738
  407MOL0     H56138   8.496   3.180   0.965 -3.0091 -2.1643 -1.3129
  407MOL0     H56139   8.552   3.325   0.908  0.3843 -1.0955  1.2302
  407MOL0     H56140   8.304   3.201   0.816  0.7972 -1.0548 -0.8330
  407MOL0     H56141   8.398   3.293   0.692 -2.2713  4.6896 -0.4578
  407MOL0     H56142   8.415   3.494   0.841 -1.7542  0.4803 -1.0820
  407MOL0     H56143   8.319   3.403   0.967  0.4433  1.1693  1.0260
  407MOL0     H56144   8.163   3.553   0.821 -0.4899  0.2256 -2.5380
  407MOL0     H56145   8.137   3.388   0.774  1.0424 -0.2946  2.0494
  407MOL0     H56146   9.153   2.829   0.748  0.4834  1.0757 -0.2487
  407MOL0     H56147   9.380   2.772   0.838 -1.6642  0.5185 -2.2638
  407MOL0     H56148   9.550   2.588   1.191 -1.2604  0.7896  1.2587
  407MOL0     H56149   9.737   2.462   1.301 -0.0561  0.9011  1.7686
  407MOL0     H56150  11.232   1.454   1.840 -1.8449 -1.6714 -1.1683
  407MOL0     H56151  11.418   1.408   1.697  0.9047 -0.4010  1.2815
  407MOL0     H56152  11.746   1.518   1.451  0.0450  1.7637 -0.7195
  407MOL0     H56153  11.933   1.475   1.313 -0.4540  0.0133  1.1010
  407MOL0     H56154  11.982   1.179   1.030  0.6717  0.1541  0.0672
  407MOL0     H56155  11.844   1.255   0.937  0.5496  1.9601 -1.2821
  407MOL0     H56156  12.142   1.305   0.891  0.6292 -4.1264  0.9787
  407MOL0     H56157  11.996   1.395   0.826  1.5226 -0.1084  0.0826
  407MOL0     H56158  12.061   1.100   0.802  4.5958  1.7095  0.6537
  407MOL0     H56159  11.921   1.166   0.725 -0.2492  2.7218  0.3109
  407MOL0     H56160  12.150   1.141   0.582  1.5033 -0.0488 -0.6155
  407MOL0     H56161  12.177   1.301   0.665 -2.2009  3.0014 -0.8743
  407MOL0     H56162  11.909   1.409   0.374  2.6177  2.6180 -0.8301
  407MOL0     H56163  11.680   1.350   0.998  3.2775  0.0613 -0.0156
  407MOL0     H56164  11.467   1.317   1.032  4.1549  0.9978  0.7931
  407MOL0     H56165  11.408   1.254   1.199  0.3363  1.2741  0.9604
  407MOL0     H56166  11.372   1.416   1.144 -1.1591 -0.5238 -0.7550
  408MOL0     O56167  10.501  10.372   4.019 -0.0460  0.1405 -0.3281
  408MOL0     C56168  10.597  10.361   3.942  1.1454 -0.2160  0.0180
  408MOL0     O56169  10.677  10.468   3.902 -0.0808  0.1930 -0.6918
  408MOL0     C56170  10.660  10.596   3.951 -0.5312  0.3462  0.9835
  408MOL0     C56171  10.774  10.682   3.945  0.0560 -0.0674 -0.2472
  408MOL0     C56172  10.763  10.814   3.989 -0.1008 -0.7756 -0.3294
  408MOL0     C56173  10.642  10.862   4.027  1.0781  0.2564 -0.5205
  408MOL0     O56174  10.615  10.994   4.075 -0.1961 -0.0755 -0.2532
  408MOL0     C56175  10.722  11.050   4.156 -0.0282  0.6579 -0.7864
  408MOL0     C56176  10.676  11.176   4.230 -0.1362  0.8708 -0.3727
  408MOL0     C56177  10.772  11.224   4.340  0.1351  0.4863 -0.3008
  408MOL0     C56178  10.722  11.353   4.414  0.8574 -0.0029 -0.5853
  408MOL0     C56179  10.596  11.331   4.505 -0.3636  0.1675 -0.4705
  408MOL0     C56180  10.545  11.450   4.587 -0.6057 -0.5225 -0.1654
  408MOL0     C56181  10.633  11.500   4.702 -0.3435 -0.5457  0.7661
  408MOL0     C56182  10.653  11.389   4.809  0.0096  0.8824  0.4298
  408MOL0     N56183  10.723  11.436   4.930 -0.3223 -0.4612 -0.6873
  408MOL0     C56184  10.766  11.366   5.042 -0.2820  0.4304  0.0702
  408MOL0     C56185  10.822  11.452   5.125 -0.1556  0.3866  0.0851
  408MOL0     C56186  10.887  11.428   5.260 -0.3456 -0.2620  1.0994
  408MOL0     C56187  11.007  11.325   5.246  0.2275 -0.3253  0.1692
  408MOL0     C56188  11.082  11.340   5.379 -0.6401  0.6308  0.8649
  408MOL0     C56189  11.207  11.247   5.382  0.2620  0.3459 -0.1674
  408MOL0     O56190  11.307  11.293   5.289 -0.1714 -1.1594 -0.0557
  408MOL0     C56191  11.424  11.212   5.291  0.1711  0.0281  0.1873
  408MOL0     C56192  11.552  11.274   5.285  0.3197 -0.9613 -0.9729
  408MOL0     C56193  11.671  11.207   5.308  0.8220 -0.3956  0.6454
  408MOL0     C56194  11.798  11.297   5.299 -0.1579  0.2436 -0.0364
  408MOL0     C56195  11.665  11.064   5.298 -0.2383 -0.3924 -0.2289
  408MOL0     C56196  11.785  10.981   5.299  0.2240  0.4766 -0.6625
  408MOL0     O56197  11.911  11.037   5.293  0.0830 -0.1543  0.1745
  408MOL0     C56198  12.028  10.952   5.311  0.2300 -0.6497 -0.0277
  408MOL0     C56199  12.148  10.990   5.253  0.5394 -0.0620  1.0133
  408MOL0     C56200  12.261  10.901   5.274  0.2192  0.6433 -0.2031
  408MOL0     C56201  12.260  10.793   5.366 -1.2279  1.1768  0.0214
  408MOL0     O56202  12.372  10.713   5.390 -0.1706 -0.3648 -0.0853
  408MOL0     C56203  12.493  10.787   5.412  0.3489  0.1877 -0.0772
  408MOL0     C56204  12.582  10.717   5.517  0.7179  0.1236  1.0683
  408MOL0     C56205  12.625  10.577   5.492  0.1906  0.3719 -0.0242
  408MOL0     C56206  12.761  10.576   5.411  1.1539 -0.3238 -0.4201
  408MOL0     C56207  12.809  10.424   5.395  0.8412  0.3056 -0.1672
  408MOL0     C56208  12.715  10.337   5.295  0.2678  0.3438 -0.5105
  408MOL0     C56209  12.777  10.203   5.261 -0.1204 -0.1834  0.0655
  408MOL0     C56210  12.774  10.166   5.113 -0.0099 -0.2026 -0.3065
  408MOL0    Cl56211  12.879  10.286   5.025 -0.0976 -0.2802  0.0450
  408MOL0     C56212  12.135  10.763   5.423  0.2371 -0.3572  0.3442
  408MOL0     C56213  12.025  10.838   5.394  0.5834 -0.8303 -0.9874
  408MOL0     O56214  11.770  10.862   5.289  0.5125 -1.1093  0.1946
  408MOL0     C56215  11.540  10.998   5.302 -1.0775  0.3771  0.3418
  408MOL0     C56216  11.423  11.072   5.300  0.5309 -0.1960  0.5666
  408MOL0     N56217  10.820  11.578   5.065 -0.8090 -0.4203 -0.0820
  408MOL0     N56218  10.763  11.563   4.948 -0.5940 -0.3901 -0.7426
  408MOL0     C56219  10.523  10.782   4.025  0.6126  0.2481  0.5559
  408MOL0     C56220  10.532  10.658   3.973 -0.4177  0.4193 -0.5154
  408MOL0     C56221  10.632  10.229   3.885 -0.1301 -1.0656 -0.4876
  408MOL0     C56222  10.588  10.116   3.950  1.0308 -0.1642 -0.5152
  408MOL0     C56223  10.625   9.991   3.902 -0.5547  0.6880 -0.3989
  408MOL0     C56224  10.697   9.962   3.785  0.3384 -0.3553 -0.1979
  408MOL0     O56225  10.734   9.836   3.750  0.1074 -0.0035  0.2921
  408MOL0     C56226  10.838   9.812   3.647 -0.3492 -0.1992  0.1335
  408MOL0     C56227  10.768   9.812   3.509  0.9610 -0.3407 -0.4681
  408MOL0     C56228  10.887   9.812   3.415 -0.2646 -0.4122 -0.3415
  408MOL0     C56229  10.842   9.750   3.283 -0.4026 -0.5900 -0.2014
  408MOL0     C56230  10.952   9.723   3.186  0.7598  0.2968 -0.4629
  408MOL0     C56231  11.047   9.717   3.110  1.4288 -0.4110 -0.1877
  408MOL0     C56232  10.729  10.079   3.715 -0.2588 -0.2461  0.8835
  408MOL0     C56233  10.693  10.210   3.760 -0.3752  0.2471  0.8004
  408MOL0     C56234  10.728  10.316   3.656 -0.2147  0.7136  0.1850
  408MOL0     H56235  10.868  10.646   3.904  1.4358  1.0877  1.7593
  408MOL0     H56236  10.850  10.878   3.973 -0.1848  0.3635  2.9290
  408MOL0     H56237  10.811  11.077   4.099  0.7160 -1.5336 -0.7573
  408MOL0     H56238  10.749  10.966   4.220 -3.3459 -1.4104 -1.8273
  408MOL0     H56239  10.668  11.248   4.148 -1.4677  0.1870 -0.8752
  408MOL0     H56240  10.577  11.158   4.274  0.7961 -1.0051  1.1194
  408MOL0     H56241  10.775  11.139   4.408  4.6470  0.7549  0.1215
  408MOL0     H56242  10.871  11.241   4.297  0.4077 -0.5956 -0.1272
  408MOL0     H56243  10.804  11.400   4.469  0.6047  1.0362 -1.0824
  408MOL0     H56244  10.699  11.431   4.341 -1.7865 -1.3026 -1.2670
  408MOL0     H56245  10.620  11.254   4.578 -0.2503  0.3416 -0.3199
  408MOL0     H56246  10.509  11.284   4.460  0.7558 -1.6776 -0.7940
  408MOL0     H56247  10.532  11.536   4.521  0.5503  0.7894  1.2287
  408MOL0     H56248  10.449  11.420   4.631 -1.5769  0.9441 -1.2098
  408MOL0     H56249  10.585  11.579   4.760 -2.4071 -1.6026  0.5630
  408MOL0     H56250  10.726  11.547   4.668 -1.6775  1.0558 -0.8682
  408MOL0     H56251  10.558  11.348   4.844  0.5117 -1.0178 -0.3080
  408MOL0     H56252  10.713  11.308   4.769  1.0585  1.4935  0.7383
  408MOL0     H56253  10.746  11.263   5.069  1.0214  0.2536  0.4661
  408MOL0     H56254  10.819  11.379   5.331  1.1755 -0.8643  2.1864
  408MOL0     H56255  10.920  11.522   5.305  1.0215 -0.1406 -0.0942
  408MOL0     H56256  10.969  11.228   5.215  0.8348 -0.6273  0.3591
  408MOL0     H56257  11.067  11.359   5.161 -1.2960 -0.0003 -0.8190
  408MOL0     H56258  11.129  11.438   5.392 -0.4117  0.8787 -1.4795
  408MOL0     H56259  10.997  11.315   5.443 -3.3965  0.7976 -2.4320
  408MOL0     H56260  11.255  11.254   5.480  0.7152  0.5957 -0.4053
  408MOL0     H56261  11.181  11.144   5.360 -0.6611  0.6004 -0.3149
  408MOL0     H56262  11.547  11.382   5.273  1.3947 -0.9748 -1.7303
  408MOL0     H56263  11.831  11.313   5.196  0.5343  1.5802  0.3634
  408MOL0     H56264  11.879  11.261   5.363  2.0963  3.7483 -0.6523
  408MOL0     H56265  11.769  11.390   5.349  2.3482 -0.1470  2.3735
  408MOL0     H56266  12.152  11.075   5.186  2.3164  0.9476  2.3244
  408MOL0     H56267  12.355  10.937   5.235 -1.5383  1.6161 -3.9987
  408MOL0     H56268  12.558  10.806   5.326 -0.4932  0.0097 -0.7687
  408MOL0     H56269  12.478  10.888   5.452  2.5692  0.3423  0.5106
  408MOL0     H56270  12.672  10.778   5.525  0.9000  0.3572 -1.8195
  408MOL0     H56271  12.522  10.711   5.609 -0.5569 -0.1316  0.2497
  408MOL0     H56272  12.543  10.520   5.448 -3.1429  2.5727  2.7913
  408MOL0     H56273  12.655  10.532   5.588 -1.0056  2.0138  1.1822
  408MOL0     H56274  12.833  10.631   5.472 -0.3983  1.9552 -0.5039
  408MOL0     H56275  12.746  10.630   5.317  0.8680  0.0552 -0.1624
  408MOL0     H56276  12.911  10.437   5.356  0.3092  1.0166 -1.3748
  408MOL0     H56277  12.806  10.379   5.494 -1.1385 -1.0292 -0.7776
  408MOL0     H56278  12.713  10.403   5.207 -1.1149  2.3388  0.9281
  408MOL0     H56279  12.612  10.320   5.328 -0.3920 -1.9403 -3.3496
  408MOL0     H56280  12.722  10.128   5.320  0.2043  0.8275  1.7315
  408MOL0     H56281  12.883  10.198   5.287 -0.0619  2.1684  0.5084
  408MOL0     H56282  12.669  10.171   5.083 -0.5698  3.6496  1.6814
  408MOL0     H56283  12.818  10.069   5.087  0.2025  0.0874 -1.0444
  408MOL0     H56284  12.109  10.670   5.473 -2.6683 -0.3181 -0.8844
  408MOL0     H56285  11.931  10.806   5.438  1.1198 -2.9730 -1.2946
  408MOL0     H56286  11.544  10.890   5.293  2.6816  0.3387  1.1752
  408MOL0     H56287  11.325  11.027   5.316 -0.0210  1.9459  4.2284
  408MOL0     H56288  10.425  10.813   4.057  0.3114 -0.5167  0.4078
  408MOL0     H56289  10.436  10.609   3.963 -0.6090  0.2352  1.7254
  408MOL0     H56290  10.529  10.126   4.040 -0.3948 -1.9922 -1.1935
  408MOL0     H56291  10.600   9.907   3.966  1.4151  0.7061  0.4896
  408MOL0     H56292  10.923   9.881   3.655  2.1058 -2.7946 -1.7538
  408MOL0     H56293  10.888   9.717   3.665 -0.7272 -0.7889 -1.6995
  408MOL0     H56294  10.713   9.907   3.520  1.9765  0.1376  0.6735
  408MOL0     H56295  10.693   9.733   3.505  0.5753 -0.0348  0.3683
  408MOL0     H56296  10.921   9.914   3.395  1.6554 -1.2516 -1.6716
  408MOL0     H56297  10.970   9.760   3.464 -0.0388 -1.3751 -1.6695
  408MOL0     H56298  10.771   9.819   3.237  0.1569 -0.4482 -0.8750
  408MOL0     H56299  10.777   9.663   3.296 -1.1062 -0.4104 -2.0816
  408MOL0     H56300  11.129   9.728   3.042  1.1673 -1.3399 -0.6692
  408MOL0     H56301  10.788  10.076   3.624 -0.7272  1.0046  0.5191
  408MOL0     H56302  10.764  10.284   3.557  2.8236  0.6008  1.2157
  408MOL0     H56303  10.635  10.374   3.650 -1.7016 -1.4738  0.9463
  408MOL0     H56304  10.809  10.385   3.683  0.7987  0.0233 -0.9699
  409MOL0     O56305   7.264  11.314   7.713  0.4459 -0.1846  0.7121
  409MOL0     C56306   7.204  11.221   7.669  0.7074  0.3885  0.0373
  409MOL0     O56307   7.212  11.091   7.718 -0.4194 -0.5347 -0.3568
  409MOL0     C56308   7.318  11.065   7.810  0.2714 -0.8777  0.3830
  409MOL0     C56309   7.291  10.990   7.916  0.6680 -0.0363 -0.0593
  409MOL0     C56310   7.393  10.955   8.006  0.0322 -1.0804  0.2979
  409MOL0     C56311   7.525  10.996   7.996 -0.2592  0.5391  0.4150
  409MOL0     O56312   7.611  10.968   8.098 -0.3371 -0.3191  1.2594
  409MOL0     C56313   7.749  11.015   8.093  0.4726  0.5361 -0.7321
  409MOL0     C56314   7.810  10.987   8.225 -0.0085 -0.2439  0.3490
  409MOL0     C56315   7.953  11.039   8.220 -0.5985 -0.0195  0.2473
  409MOL0     C56316   8.041  10.964   8.312  0.2593 -0.2194 -0.1840
  409MOL0     C56317   8.160  11.038   8.362 -0.8491  0.6186  0.6669
  409MOL0     C56318   8.254  10.944   8.431 -0.9384 -0.1719  0.1975
  409MOL0     C56319   8.392  11.024   8.473  0.2139  0.1077 -0.0397
  409MOL0     C56320   8.517  10.941   8.518  0.6697 -0.1170 -0.0322
  409MOL0     N56321   8.494  10.858   8.638 -0.6661 -0.5110  0.3493
  409MOL0     C56322   8.427  10.736   8.653 -0.6093 -0.6209  0.0978
  409MOL0     C56323   8.375  10.745   8.780  0.6405 -0.4117 -0.4558
  409MOL0     C56324   8.288  10.641   8.840 -0.1011  0.5434 -0.2823
  409MOL0     C56325   8.348  10.530   8.914  0.0737  0.1346  0.1836
  409MOL0     C56326   8.392  10.579   9.053  0.2090 -0.2835  0.7151
  409MOL0     C56327   8.431  10.461   9.145  0.1936 -0.3610 -0.0486
  409MOL0     O56328   8.562  10.422   9.105 -0.2147 -0.2756 -0.4289
  409MOL0     C56329   8.616  10.304   9.160 -0.0083  0.6682 -0.0495
  409MOL0     C56330   8.724  10.238   9.095 -0.5935 -0.0285  0.6692
  409MOL0     C56331   8.780  10.123   9.138 -0.5785  0.0685 -0.0091
  409MOL0     C56332   8.892  10.068   9.046 -0.9631  0.2349 -0.8133
  409MOL0     C56333   8.732  10.064   9.254 -0.7770  0.3290 -0.0311
  409MOL0     C56334   8.774   9.929   9.305 -0.7005  0.1660 -0.2010
  409MOL0     O56335   8.774   9.897   9.442 -0.3372 -0.0841  0.2759
  409MOL0     C56336   8.824   9.769   9.471  0.4820 -0.0931 -0.4868
  409MOL0     C56337   8.958   9.761   9.488  0.3853  0.2078  0.3368
  409MOL0     C56338   9.022   9.648   9.543  0.9339  1.2988  0.1620
  409MOL0     C56339   8.940   9.523   9.567  1.0207 -0.4411 -0.7604
  409MOL0     O56340   8.988   9.401   9.598  0.3485  0.0579 -0.0125
  409MOL0     C56341   9.112   9.398   9.673 -0.7265  0.9374  0.5518
  409MOL0     C56342   9.204   9.269   9.649  0.0458  0.3038 -0.3638
  409MOL0     C56343   9.310   9.242   9.758  0.4814  0.0604  0.5439
  409MOL0     C56344   9.235   9.190   9.882  0.4895  0.2110  0.5860
  409MOL0     C56345   9.323   9.098   9.969 -0.1149 -0.1837 -0.5820
  409MOL0     C56346   9.454   9.167  10.011 -0.7312 -0.5067  0.4856
  409MOL0     C56347   9.515   9.086  10.134 -0.6517  0.3276  0.8472
  409MOL0     C56348   9.633   9.167  10.190 -0.3873  0.3814 -0.0772
  409MOL0    Cl56349   9.777   9.161  10.077 -0.5124  0.3139  0.4483
  409MOL0     C56350   8.803   9.538   9.538 -0.5494  0.3692  0.7568
  409MOL0     C56351   8.745   9.658   9.500  0.6711 -0.7718 -0.6602
  409MOL0     O56352   8.827   9.862   9.219  0.8811 -0.3602  0.0991
  409MOL0     C56353   8.636  10.131   9.327 -1.0511  0.2593  0.4274
  409MOL0     C56354   8.572  10.250   9.284 -0.0873  0.8974  1.1009
  409MOL0     N56355   8.413  10.861   8.842  0.0657 -0.4963  0.8301
  409MOL0     N56356   8.487  10.922   8.761  0.1979  0.6979 -0.0170
  409MOL0     C56357   7.553  11.068   7.883  0.7743 -0.1985  0.1680
  409MOL0     C56358   7.453  11.094   7.786 -0.2036 -0.1971 -0.4559
  409MOL0     C56359   7.109  11.251   7.547 -1.2425  0.3035 -0.2573
  409MOL0     C56360   7.135  11.364   7.467  0.1649 -0.6434  0.5992
  409MOL0     C56361   7.056  11.390   7.355 -1.7305  0.7569 -0.1457
  409MOL0     C56362   6.951  11.304   7.319 -0.0359 -0.7654  0.3125
  409MOL0     O56363   6.875  11.327   7.204 -0.4626 -0.6577 -0.4891
  409MOL0     C56364   6.777  11.425   7.224 -0.0680 -0.2924 -0.1600
  409MOL0     C56365   6.821  11.563   7.177 -0.6601 -0.4490  0.4376
  409MOL0     C56366   6.715  11.668   7.173 -0.3135  0.2617  0.4240
  409MOL0     C56367   6.776  11.819   7.164  0.4816  1.0253  0.1277
  409MOL0     C56368   6.869  11.854   7.269 -0.4536  0.0249  0.2853
  409MOL0     C56369   6.951  11.874   7.357 -0.2020  0.0292 -1.2253
  409MOL0     C56370   6.921  11.197   7.401  0.6311  0.2994 -0.2954
  409MOL0     C56371   7.002  11.162   7.508  0.2321 -1.3669 -1.1510
  409MOL0     C56372   6.961  11.041   7.583 -0.1939 -0.4298  0.4225
  409MOL0     H56373   7.188  10.962   7.933 -0.1786  2.6672 -0.2744
  409MOL0     H56374   7.366  10.895   8.092 -0.4588  1.6323  2.1708
  409MOL0     H56375   7.766  11.122   8.075  0.7788  0.7985  0.9670
  409MOL0     H56376   7.797  10.949   8.020  2.4925  2.0525 -0.8512
  409MOL0     H56377   7.757  11.051   8.296  3.5194  1.2742  1.7943
  409MOL0     H56378   7.815  10.880   8.246 -1.8628  0.0178  2.5119
  409MOL0     H56379   8.001  11.038   8.121  0.0595 -1.6907  0.5368
  409MOL0     H56380   7.945  11.145   8.247 -5.8929 -0.8405  3.1494
  409MOL0     H56381   7.987  10.945   8.405 -0.3329  3.3274  0.3056
  409MOL0     H56382   8.068  10.860   8.287  2.8551 -0.0678  1.5357
  409MOL0     H56383   8.137  11.124   8.426  2.1075  1.4046  0.8419
  409MOL0     H56384   8.209  11.070   8.270 -0.0168 -1.7902  0.1927
  409MOL0     H56385   8.209  10.913   8.526  1.3120 -0.5072  1.2480
  409MOL0     H56386   8.276  10.853   8.376  2.7995  2.3053 -2.9181
  409MOL0     H56387   8.372  11.083   8.563  2.1829  0.8750 -0.0479
  409MOL0     H56388   8.420  11.098   8.397 -1.1465 -0.4607 -1.1321
  409MOL0     H56389   8.568  10.879   8.444  1.5435  1.8472 -1.1417
  409MOL0     H56390   8.594  11.017   8.533  0.7572 -0.1132 -0.4767
  409MOL0     H56391   8.406  10.660   8.578  2.2761 -2.7398  1.2553
  409MOL0     H56392   8.231  10.594   8.759  0.6761 -0.4803 -0.2608
  409MOL0     H56393   8.215  10.686   8.908  0.9339  0.6786  0.7570
  409MOL0     H56394   8.277  10.449   8.930  1.9660 -1.8140 -0.7536
  409MOL0     H56395   8.437  10.489   8.865  1.7175  1.2285  2.1070
  409MOL0     H56396   8.467  10.656   9.035 -2.6483  1.9913 -2.8378
  409MOL0     H56397   8.306  10.630   9.098 -0.8527 -0.6031 -0.8761
  409MOL0     H56398   8.415  10.502   9.245  0.9616  0.7037 -0.3487
  409MOL0     H56399   8.359  10.380   9.133 -1.0288  0.9178 -1.8530
  409MOL0     H56400   8.744  10.295   9.005 -1.8996  2.3016  1.7654
  409MOL0     H56401   8.956  10.016   9.118 -1.1929 -1.0832 -1.5260
  409MOL0     H56402   8.955  10.140   8.994  1.9423 -1.4782  0.1056
  409MOL0     H56403   8.867   9.990   8.973  1.2880 -2.5334  1.1428
  409MOL0     H56404   9.022   9.849   9.484 -0.3985  0.7590 -3.6946
  409MOL0     H56405   9.129   9.650   9.558  1.1786  1.3404 -1.3710
  409MOL0     H56406   9.181   9.474   9.635  0.8211 -0.3681  0.6339
  409MOL0     H56407   9.099   9.420   9.780  0.4526 -1.6234  1.2986
  409MOL0     H56408   9.152   9.174   9.634 -1.2727  0.9164  0.1315
  409MOL0     H56409   9.248   9.299   9.554 -0.5677 -1.3200 -1.2009
  409MOL0     H56410   9.379   9.326   9.769  2.7293 -1.5347 -0.5249
  409MOL0     H56411   9.364   9.157   9.715  0.6850  0.8075 -0.7348
  409MOL0     H56412   9.137   9.150   9.856  0.6306  1.1321 -1.5780
  409MOL0     H56413   9.220   9.277   9.947  1.7900  0.2066  0.9250
  409MOL0     H56414   9.267   9.084  10.062  0.5654 -3.0176 -0.5274
  409MOL0     H56415   9.346   8.997   9.935  0.2683 -0.3628  0.1863
  409MOL0     H56416   9.441   9.272  10.039  1.5597  0.5812 -2.0629
  409MOL0     H56417   9.524   9.161   9.927  4.2183  0.6547  4.0722
  409MOL0     H56418   9.545   8.984  10.109 -2.4561  0.4330 -2.1930
  409MOL0     H56419   9.436   9.088  10.209 -1.1302  1.6734  0.3324
  409MOL0     H56420   9.654   9.133  10.292  0.8673  3.9953  1.0404
  409MOL0     H56421   9.612   9.274  10.203  0.9032  0.5266  1.0918
  409MOL0     H56422   8.761   9.438   9.549  0.8156 -0.3709 -0.4815
  409MOL0     H56423   8.642   9.687   9.484  0.9789 -0.4558 -2.2698
  409MOL0     H56424   8.606  10.077   9.417  0.6659 -2.1675 -0.3584
  409MOL0     H56425   8.496  10.302   9.342 -1.3610  2.5393 -1.8334
  409MOL0     H56426   7.651  11.110   7.864  0.8912  0.7229  2.4571
  409MOL0     H56427   7.463  11.146   7.692 -1.5701  0.6451 -0.1734
  409MOL0     H56428   7.218  11.433   7.481  2.3636 -2.8224 -0.6131
  409MOL0     H56429   7.074  11.479   7.295  0.6911  1.2351  1.1485
  409MOL0     H56430   6.697  11.404   7.152 -0.2418  0.0894 -0.0798
  409MOL0     H56431   6.741  11.428   7.327 -2.4800 -0.0802 -0.9397
  409MOL0     H56432   6.853  11.529   7.078 -2.2120 -1.3381  0.2216
  409MOL0     H56433   6.907  11.598   7.236 -0.9668  0.6827  0.2381
  409MOL0     H56434   6.655  11.665   7.081 -0.3626  1.7573  0.3794
  409MOL0     H56435   6.647  11.652   7.257  1.5629  0.0390  1.9677
  409MOL0     H56436   6.699  11.897   7.167 -0.8829 -0.3105  1.7827
  409MOL0     H56437   6.848  11.833   7.083  1.1075 -1.6519  0.1556
  409MOL0     H56438   7.021  11.891   7.437  0.6191  0.2460 -1.9614
  409MOL0     H56439   6.831  11.138   7.389  1.0819 -0.1436 -1.7659
  409MOL0     H56440   6.955  11.073   7.687 -1.3292 -3.1714  1.2959
  409MOL0     H56441   6.875  10.987   7.540 -0.6174  0.0383  0.6681
  409MOL0     H56442   7.035  10.961   7.573  0.6107  0.0545  2.2619
  410MOL0     O56443   8.157   0.893   8.440 -0.2111  0.1778 -0.0814
  410MOL0     C56444   8.184   1.013   8.429 -0.9231 -0.0759 -0.1480
  410MOL0     O56445   8.304   1.067   8.470 -0.3595 -0.0064  0.3397
  410MOL0     C56446   8.417   0.991   8.469 -0.5345  0.1064 -0.1213
  410MOL0     C56447   8.493   0.961   8.353 -0.1999  0.4886 -0.7063
  410MOL0     C56448   8.600   0.875   8.353 -0.6023  0.3595 -0.0600
  410MOL0     C56449   8.639   0.814   8.473  0.0148  0.0231  0.8134
  410MOL0     O56450   8.753   0.734   8.466  0.4087  0.1261  0.0091
  410MOL0     C56451   8.848   0.732   8.577  0.1588  0.3916 -1.0268
  410MOL0     C56452   8.970   0.637   8.548 -0.2327  0.6932  0.2232
  410MOL0     C56453   9.072   0.713   8.465 -0.5831  0.3323  0.3684
  410MOL0     C56454   9.177   0.621   8.400 -0.8430  0.8524  0.3344
  410MOL0     C56455   9.273   0.722   8.331  0.7090  0.4905 -0.0008
  410MOL0     C56456   9.381   0.639   8.247  0.4296  0.1106 -0.3918
  410MOL0     C56457   9.452   0.727   8.150  0.1972 -0.2656 -0.7983
  410MOL0     C56458   9.590   0.769   8.209  0.7564 -0.7070 -0.1181
  410MOL0     N56459   9.672   0.860   8.114  0.5885 -0.4401 -0.0161
  410MOL0     C56460   9.669   0.998   8.114 -0.3539 -1.1938  0.2379
  410MOL0     C56461   9.749   1.036   8.016  0.2357  0.3459 -0.0532
  410MOL0     C56462   9.779   1.180   7.972  0.2685  0.1968  0.5411
  410MOL0     C56463   9.905   1.225   8.040 -0.3789 -0.3412 -0.5603
  410MOL0     C56464  10.019   1.135   7.998  0.3975  0.8155 -0.2189
  410MOL0     C56465  10.159   1.194   8.013 -0.7390  0.5212 -0.1234
  410MOL0     O56466  10.173   1.285   7.908  1.4326  0.5284  0.1317
  410MOL0     C56467  10.301   1.305   7.876 -0.9694 -0.0934  0.0866
  410MOL0     C56468  10.364   1.196   7.809 -0.8847  0.1517  0.2022
  410MOL0     C56469  10.504   1.199   7.781  0.5558 -1.0029  0.0922
  410MOL0     C56470  10.551   1.078   7.696  0.3125 -0.7780 -0.2565
  410MOL0     C56471  10.579   1.303   7.830  0.3581 -0.7233 -0.5914
  410MOL0     C56472  10.721   1.297   7.805  0.6689  0.3153 -0.8893
  410MOL0     O56473  10.774   1.405   7.748  0.2239  0.4223  0.7594
  410MOL0     C56474  10.911   1.396   7.716  0.8451  0.5315 -0.6986
  410MOL0     C56475  10.964   1.310   7.611 -0.0780  0.0358 -0.4867
  410MOL0     C56476  11.102   1.307   7.577 -0.6728 -0.6661 -0.1524
  410MOL0     C56477  11.195   1.377   7.659  0.7321  0.5729 -0.7217
  410MOL0     O56478  11.334   1.366   7.632 -0.0712 -0.3642 -0.7984
  410MOL0     C56479  11.412   1.365   7.754  0.0058 -0.2587 -0.6030
  410MOL0     C56480  11.557   1.312   7.734 -0.7838  0.5762  0.6326
  410MOL0     C56481  11.556   1.165   7.688  0.5308 -0.8825  0.0294
  410MOL0     C56482  11.513   1.067   7.803  0.3662 -0.5015 -0.4804
  410MOL0     C56483  11.438   0.942   7.753  0.3530 -0.4952  0.2447
  410MOL0     C56484  11.435   0.830   7.867  0.3212  0.1228 -0.7839
  410MOL0     C56485  11.379   0.884   8.001  0.5962  0.3734 -0.0299
  410MOL0     C56486  11.232   0.911   7.998  0.3634 -0.0737 -0.1873
  410MOL0    Cl56487  11.151   0.903   8.144  0.1322 -0.5917 -0.1774
  410MOL0     C56488  11.139   1.474   7.752 -0.2321  0.5406  0.6664
  410MOL0     C56489  10.999   1.483   7.781 -0.1933  1.2012  0.5761
  410MOL0     O56490  10.785   1.191   7.827 -0.4259 -0.0017  0.6941
  410MOL0     C56491  10.513   1.414   7.893  0.1801  0.4552  0.5695
  410MOL0     C56492  10.376   1.421   7.906  0.7309 -0.5648 -1.1582
  410MOL0     N56493   9.802   0.920   7.954  0.4645 -0.5751 -0.1584
  410MOL0     N56494   9.750   0.815   8.015  0.0288  0.0765 -0.3706
  410MOL0     C56495   8.557   0.828   8.584  0.2878 -0.3383 -0.0549
  410MOL0     C56496   8.446   0.911   8.583  0.1433  0.1780  0.6034
  410MOL0     C56497   8.085   1.116   8.393  0.0777 -0.3142 -0.1169
  410MOL0     C56498   8.107   1.246   8.435  0.2778  0.2488 -0.5557
  410MOL0     C56499   8.011   1.350   8.421  0.3504 -0.0379  0.6338
  410MOL0     C56500   7.892   1.322   8.359  0.0018  0.6656  0.2366
  410MOL0     O56501   7.797   1.407   8.302 -0.1565 -0.7442 -0.2066
  410MOL0     C56502   7.816   1.547   8.336 -0.2724  0.0860  0.1758
  410MOL0     C56503   7.749   1.647   8.244 -0.0033  0.2685  0.3504
  410MOL0     C56504   7.604   1.607   8.202 -0.0054 -0.3169  0.1356
  410MOL0     C56505   7.516   1.728   8.149 -0.8342  0.3298  0.2923
  410MOL0     C56506   7.512   1.820   8.261 -0.9564  0.4527  0.6764
  410MOL0     C56507   7.509   1.899   8.356 -0.2760  0.3284  0.0673
  410MOL0     C56508   7.866   1.191   8.327 -0.2113  0.4197  1.5834
  410MOL0     C56509   7.963   1.090   8.335  0.5322  0.0194  0.3091
  410MOL0     C56510   7.933   0.959   8.262 -0.3636 -0.3361  0.4288
  410MOL0     H56511   8.463   1.018   8.265 -0.7986  1.4297  0.0750
  410MOL0     H56512   8.651   0.844   8.262 -0.7545 -2.9984  0.8757
  410MOL0     H56513   8.804   0.702   8.672  2.1575  0.6256  0.0258
  410MOL0     H56514   8.891   0.832   8.589  0.2476  0.1506  0.9310
  410MOL0     H56515   9.020   0.600   8.638 -0.4058 -3.5258 -1.1819
  410MOL0     H56516   8.938   0.544   8.499  2.7912 -0.8651  0.9373
  410MOL0     H56517   9.026   0.762   8.379  0.6156  0.3023 -0.3210
  410MOL0     H56518   9.122   0.792   8.522 -0.7509  0.0170  0.9615
  410MOL0     H56519   9.236   0.565   8.473  2.9813  2.8043 -0.9896
  410MOL0     H56520   9.138   0.540   8.338 -0.1186 -1.5617  2.8300
  410MOL0     H56521   9.321   0.783   8.408 -1.7270  1.6819  0.6775
  410MOL0     H56522   9.220   0.791   8.264  2.5277 -0.2494 -2.3484
  410MOL0     H56523   9.450   0.584   8.312 -2.0354 -1.5405  0.9820
  410MOL0     H56524   9.329   0.559   8.193  1.0462  0.8169 -2.1130
  410MOL0     H56525   9.398   0.820   8.130 -0.4081 -0.1369  1.2389
  410MOL0     H56526   9.462   0.671   8.056  0.7940 -2.7925  0.6805
  410MOL0     H56527   9.587   0.811   8.309 -1.4202  0.8713 -0.7762
  410MOL0     H56528   9.649   0.678   8.225  1.3443 -0.1423  0.9673
  410MOL0     H56529   9.622   1.063   8.188  1.2146  1.2398 -0.7636
  410MOL0     H56530   9.705   1.249   8.012  1.3677  1.8372 -0.1584
  410MOL0     H56531   9.790   1.192   7.864  0.0872 -2.4284  0.1520
  410MOL0     H56532   9.911   1.331   8.014 -5.8914  0.5565  0.4581
  410MOL0     H56533   9.905   1.217   8.149  2.1817  0.0254 -0.4824
  410MOL0     H56534  10.027   1.050   8.067  0.0002  0.5459 -0.5015
  410MOL0     H56535  10.000   1.107   7.894 -0.9802 -2.2923  0.7313
  410MOL0     H56536  10.167   1.238   8.113  1.4799  0.8365 -0.3830
  410MOL0     H56537  10.232   1.112   8.019 -0.9026  0.4494  4.1837
  410MOL0     H56538  10.306   1.107   7.788  1.1813 -0.4752 -4.2793
  410MOL0     H56539  10.604   1.120   7.610 -0.6817  4.1912  1.2455
  410MOL0     H56540  10.464   1.031   7.650 -0.5259 -1.3496  1.7880
  410MOL0     H56541  10.590   0.995   7.754 -0.1900  0.0566  1.3444
  410MOL0     H56542  10.895   1.244   7.559 -1.8102  0.9506  0.5424
  410MOL0     H56543  11.139   1.245   7.496 -0.8417 -1.0004  0.0279
  410MOL0     H56544  11.410   1.467   7.793 -1.7484 -0.6031  0.2737
  410MOL0     H56545  11.371   1.309   7.839  4.4957  0.4005  2.3733
  410MOL0     H56546  11.606   1.378   7.661 -0.9998  0.4227  0.3437
  410MOL0     H56547  11.609   1.315   7.830 -0.3780  0.8622  0.4045
  410MOL0     H56548  11.659   1.140   7.663  0.5904 -1.8353  1.1320
  410MOL0     H56549  11.498   1.150   7.597  1.6173 -0.8387 -0.6803
  410MOL0     H56550  11.444   1.130   7.861  1.0153  2.5927 -2.7968
  410MOL0     H56551  11.600   1.036   7.862  1.0509  4.1285  1.3676
  410MOL0     H56552  11.342   0.981   7.719  2.2080  1.4049 -3.4310
  410MOL0     H56553  11.487   0.890   7.670  2.2186 -0.3606  1.1836
  410MOL0     H56554  11.534   0.793   7.894  0.7555  1.9430  0.2815
  410MOL0     H56555  11.366   0.750   7.838 -1.0441 -0.4068  3.2914
  410MOL0     H56556  11.426   0.979   8.029 -0.3582  0.9423 -0.2896
  410MOL0     H56557  11.404   0.809   8.077 -0.8315  0.7605  0.8790
  410MOL0     H56558  11.182   0.831   7.944  0.9532 -0.3015 -0.4078
  410MOL0     H56559  11.216   1.008   7.949  1.0011 -0.7245 -1.7533
  410MOL0     H56560  11.206   1.549   7.792 -0.9764  2.1249 -0.9040
  410MOL0     H56561  10.959   1.552   7.854 -3.5058  2.3304 -2.0333
  410MOL0     H56562  10.570   1.504   7.915 -1.7845  1.3616  2.3785
  410MOL0     H56563  10.320   1.506   7.945  1.3589 -0.0026 -1.4770
  410MOL0     H56564   8.572   0.784   8.681 -1.4816 -0.5832  0.1534
  410MOL0     H56565   8.387   0.929   8.673  2.4602 -0.5337  2.3563
  410MOL0     H56566   8.194   1.271   8.494 -1.0809 -1.9476  2.7213
  410MOL0     H56567   8.034   1.446   8.466  0.9579  0.6177 -1.0013
  410MOL0     H56568   7.786   1.555   8.441  0.2293 -0.0197  0.3307
  410MOL0     H56569   7.923   1.568   8.340 -0.0001 -0.9435 -1.1157
  410MOL0     H56570   7.804   1.672   8.153  2.1477 -1.7436  1.0125
  410MOL0     H56571   7.757   1.739   8.303 -1.3936  1.5033 -1.2603
  410MOL0     H56572   7.598   1.541   8.115 -0.9450  2.4216 -2.0550
  410MOL0     H56573   7.568   1.548   8.286  1.4152 -1.1587  0.1848
  410MOL0     H56574   7.412   1.700   8.135 -2.1813  3.7716  2.1970
  410MOL0     H56575   7.547   1.777   8.057  2.1249  1.5597  1.7777
  410MOL0     H56576   7.499   1.964   8.440  1.6717 -0.9035  1.3361
  410MOL0     H56577   7.768   1.181   8.281 -0.4766  1.8688  1.7613
  410MOL0     H56578   7.850   0.974   8.192 -0.7127 -0.5623  0.7889
  410MOL0     H56579   8.021   0.932   8.203 -0.3259  1.7939 -0.5795
  410MOL0     H56580   7.909   0.881   8.335 -0.1472 -1.4026 -0.6113
  411MOL0     O56581   1.904   8.641   3.516 -0.3537  0.3629 -0.6220
  411MOL0     C56582   1.921   8.537   3.581  0.4054 -0.9119  0.1926
  411MOL0     O56583   1.875   8.412   3.535  0.2731 -0.1807  0.6390
  411MOL0     C56584   1.810   8.397   3.414  0.5985 -0.7138 -0.2529
  411MOL0     C56585   1.697   8.323   3.425  0.8742 -0.4218 -0.3038
  411MOL0     C56586   1.622   8.294   3.319  0.0712 -0.5492  0.0097
  411MOL0     C56587   1.657   8.330   3.193  0.1056 -0.1406  0.1307
  411MOL0     O56588   1.574   8.319   3.088 -0.4544  0.3616 -0.0837
  411MOL0     C56589   1.455   8.251   3.094  0.0807 -0.1791  0.9097
  411MOL0     C56590   1.392   8.241   2.954 -0.4839  0.6571 -0.8778
  411MOL0     C56591   1.472   8.192   2.831 -0.3934  0.8286 -0.3299
  411MOL0     C56592   1.376   8.195   2.715 -1.2792  0.0835  0.2919
  411MOL0     C56593   1.435   8.144   2.586  0.3394 -0.2695 -0.2617
  411MOL0     C56594   1.531   8.253   2.534 -0.0793  0.5273  0.8160
  411MOL0     C56595   1.590   8.214   2.391 -0.3714  0.4747 -0.8436
  411MOL0     C56596   1.719   8.293   2.351  0.3428  0.0201  0.2552
  411MOL0     N56597   1.757   8.288   2.217 -0.5471  0.2925  0.0989
  411MOL0     C56598   1.686   8.325   2.104 -0.4462 -0.1352 -0.0555
  411MOL0     C56599   1.773   8.316   2.002 -0.2117  0.5855 -0.0970
  411MOL0     C56600   1.758   8.358   1.859  0.7263 -0.1156  0.3452
  411MOL0     C56601   1.646   8.459   1.841 -0.3338 -0.1579  1.0305
  411MOL0     C56602   1.651   8.508   1.694 -0.0081  0.2143  0.0707
  411MOL0     C56603   1.538   8.605   1.676 -1.4005  0.7470 -0.6340
  411MOL0     O56604   1.417   8.539   1.723  0.1156  0.6746 -0.2081
  411MOL0     C56605   1.333   8.493   1.621 -0.0875  0.2607  0.4184
  411MOL0     C56606   1.242   8.576   1.558 -0.0252 -0.1395 -0.5970
  411MOL0     C56607   1.170   8.530   1.454  0.5145  0.2863 -0.5571
  411MOL0     C56608   1.074   8.628   1.402  0.3324  0.0816  0.7099
  411MOL0     C56609   1.165   8.390   1.410  0.3805  0.0938 -0.1616
  411MOL0     C56610   1.060   8.346   1.320 -0.9383 -0.0341  1.4511
  411MOL0     O56611   1.114   8.290   1.204  0.2346 -0.8231 -0.6321
  411MOL0     C56612   1.035   8.215   1.118  0.2522 -1.5824  0.9211
  411MOL0     C56613   0.921   8.140   1.163 -0.5601 -0.0694  0.3658
  411MOL0     C56614   0.843   8.076   1.063 -0.8827  0.0296 -0.1526
  411MOL0     C56615   0.889   8.066   0.925 -0.1168  0.1376  0.3478
  411MOL0     O56616   0.811   7.989   0.841  0.1249 -0.2311  0.2778
  411MOL0     C56617   0.828   8.014   0.697 -1.2011  0.2829 -0.0820
  411MOL0     C56618   0.716   7.952   0.620  0.0048  0.5020 -1.4791
  411MOL0     C56619   0.586   8.037   0.649 -0.5007  0.4290  0.0971
  411MOL0     C56620   0.482   8.030   0.531  0.5860 -0.3397  0.4827
  411MOL0     C56621   0.370   8.133   0.549 -0.9985  0.1204  0.4695
  411MOL0     C56622   0.251   8.084   0.467  0.4612 -0.8446  0.9244
  411MOL0     C56623   0.269   8.120   0.318 -0.7278  0.3551  0.7298
  411MOL0     C56624   0.148   8.078   0.236 -0.6190 -0.4441  0.4182
  411MOL0    Cl56625   0.110   7.904   0.286  0.2872 -0.1194 -0.1971
  411MOL0     C56626   1.017   8.118   0.897  0.7840  0.5732 -0.1138
  411MOL0     C56627   1.075   8.201   0.985  0.3411 -0.0320 -0.6420
  411MOL0     O56628   0.940   8.357   1.350 -0.1191 -0.3086  0.4436
  411MOL0     C56629   1.271   8.303   1.466  0.0882 -0.2452 -0.1535
  411MOL0     C56630   1.350   8.357   1.576 -1.1952  0.6757 -0.6805
  411MOL0     N56631   1.897   8.274   2.052 -0.4563  0.1103 -0.2092
  411MOL0     N56632   1.888   8.251   2.185 -0.7488 -0.3308  0.1856
  411MOL0     C56633   1.784   8.386   3.180 -0.0355  0.7942 -0.0920
  411MOL0     C56634   1.860   8.416   3.287  0.8521 -0.7626  0.3912
  411MOL0     C56635   1.996   8.548   3.701 -0.6327 -0.3593  0.7305
  411MOL0     C56636   2.026   8.424   3.756 -0.4253 -0.6778 -0.2760
  411MOL0     C56637   2.107   8.409   3.865 -0.0658  0.2327 -0.2017
  411MOL0     C56638   2.169   8.519   3.925 -0.3001  0.1157 -0.3055
  411MOL0     O56639   2.244   8.502   4.036  0.6540  0.7309  1.2266
  411MOL0     C56640   2.373   8.569   4.036  1.2796  0.7041  0.1407
  411MOL0     C56641   2.470   8.500   3.929 -0.2838 -0.8684 -0.6060
  411MOL0     C56642   2.611   8.565   3.914 -0.3800 -0.1244  0.0909
  411MOL0     C56643   2.705   8.544   4.040 -0.0012 -0.8626 -0.6073
  411MOL0     C56644   2.690   8.648   4.137  0.3731 -0.4821 -0.3263
  411MOL0     C56645   2.691   8.735   4.223  0.3820  0.2210 -0.3451
  411MOL0     C56646   2.122   8.639   3.885 -0.3303  0.1078 -0.5412
  411MOL0     C56647   2.038   8.665   3.772  0.6731 -0.4176 -0.8634
  411MOL0     C56648   2.005   8.804   3.728  0.1854 -0.8002  0.0342
  411MOL0     H56649   1.673   8.300   3.528  1.8091  1.2272  0.3187
  411MOL0     H56650   1.527   8.249   3.345 -0.8452  1.5344  0.4206
  411MOL0     H56651   1.391   8.305   3.164  1.1605  2.7053 -0.1573
  411MOL0     H56652   1.471   8.153   3.140  2.1766  1.4505  4.1101
  411MOL0     H56653   1.311   8.170   2.975  1.8158 -1.3932  1.7528
  411MOL0     H56654   1.351   8.339   2.925 -0.0621  1.2029  0.2947
  411MOL0     H56655   1.565   8.250   2.822  0.6636 -0.9925 -1.9920
  411MOL0     H56656   1.507   8.091   2.854  1.5708  1.7039  0.8758
  411MOL0     H56657   1.294   8.127   2.737 -2.3846  0.6938 -1.7164
  411MOL0     H56658   1.340   8.296   2.692  2.1174  1.2414 -0.5558
  411MOL0     H56659   1.347   8.134   2.521 -1.1169  1.1136  1.4037
  411MOL0     H56660   1.487   8.048   2.591  0.9218  0.0129 -0.6858
  411MOL0     H56661   1.491   8.355   2.537  2.8551  1.7636  2.9189
  411MOL0     H56662   1.619   8.253   2.599  0.4499 -1.3477  0.1694
  411MOL0     H56663   1.510   8.228   2.318  1.4677  0.5610 -2.9512
  411MOL0     H56664   1.620   8.109   2.393 -0.8876 -0.0003  5.9663
  411MOL0     H56665   1.713   8.397   2.383  0.7470 -0.0968  0.7213
  411MOL0     H56666   1.803   8.265   2.414  1.3788  5.1673  1.6152
  411MOL0     H56667   1.578   8.337   2.104 -0.9953 -3.7827  1.5328
  411MOL0     H56668   1.747   8.269   1.796  1.2816 -0.7761  1.1752
  411MOL0     H56669   1.847   8.419   1.841  1.9764 -1.6101  1.2771
  411MOL0     H56670   1.552   8.410   1.869 -0.8577  1.4414  2.2580
  411MOL0     H56671   1.664   8.541   1.911  2.3727 -0.2608  0.5688
  411MOL0     H56672   1.750   8.550   1.673 -0.4710  0.6862 -1.2356
  411MOL0     H56673   1.630   8.428   1.623  1.1006  0.8485 -1.0197
  411MOL0     H56674   1.552   8.700   1.729 -1.6370  0.9678 -0.9684
  411MOL0     H56675   1.538   8.619   1.568  0.7689 -2.1823 -1.1577
  411MOL0     H56676   1.231   8.676   1.598 -0.9475 -0.4811  0.0493
  411MOL0     H56677   1.057   8.612   1.296 -3.7916  0.1758  1.1951
  411MOL0     H56678   1.097   8.734   1.414  0.4458  0.0988  0.3607
  411MOL0     H56679   0.977   8.601   1.446  0.8597 -2.0668  0.6726
  411MOL0     H56680   0.890   8.122   1.265  1.5066 -0.3536  0.9742
  411MOL0     H56681   0.747   8.030   1.086 -1.6029  1.0889 -1.0152
  411MOL0     H56682   0.853   8.115   0.665 -0.2963 -0.2739 -1.2057
  411MOL0     H56683   0.922   7.965   0.671  2.3641  6.5760 -0.9781
  411MOL0     H56684   0.729   7.954   0.512  2.7729  1.2054 -1.1908
  411MOL0     H56685   0.701   7.849   0.654  0.0368  0.9835  0.0625
  411MOL0     H56686   0.613   8.141   0.671  0.2698 -0.2564  2.9029
  411MOL0     H56687   0.542   7.996   0.741  1.6009 -3.2010 -0.3296
  411MOL0     H56688   0.452   7.925   0.535  2.7969 -0.9840  3.6930
  411MOL0     H56689   0.521   8.044   0.430  2.0297  3.2963  1.3880
  411MOL0     H56690   0.349   8.132   0.656 -0.9646 -1.5792  0.4891
  411MOL0     H56691   0.404   8.233   0.523  1.5328  0.5491  4.6647
  411MOL0     H56692   0.158   8.126   0.505  2.2884  2.5349  2.1063
  411MOL0     H56693   0.243   7.975   0.476 -0.6317 -0.7499  1.1802
  411MOL0     H56694   0.353   8.064   0.277 -2.3001 -0.1357 -2.1332
  411MOL0     H56695   0.292   8.226   0.303  1.3174 -0.2647 -0.8462
  411MOL0     H56696   0.157   8.072   0.127  2.4542 -0.3756  0.5883
  411MOL0     H56697   0.065   8.144   0.263  1.5662  3.9627 -2.3640
  411MOL0     H56698   1.049   8.114   0.793  0.0942 -2.5160 -0.3007
  411MOL0     H56699   1.154   8.268   0.952 -0.0959  3.0255  3.6709
  411MOL0     H56700   1.279   8.203   1.425  1.2794 -0.0414 -0.4470
  411MOL0     H56701   1.415   8.298   1.639  3.3335  4.0060 -1.6865
  411MOL0     H56702   1.832   8.389   3.082  2.3099  0.3526  0.9769
  411MOL0     H56703   1.958   8.463   3.285  0.1556  0.7324  0.0854
  411MOL0     H56704   1.984   8.335   3.710 -0.1897  0.3093 -2.5510
  411MOL0     H56705   2.114   8.309   3.907  1.2248  1.6896  3.5380
  411MOL0     H56706   2.358   8.672   4.001 -2.4993 -0.6283 -2.9207
  411MOL0     H56707   2.412   8.548   4.136  1.1262 -4.7870 -0.6548
  411MOL0     H56708   2.427   8.494   3.829  1.5733 -0.2647 -1.4936
  411MOL0     H56709   2.482   8.395   3.958 -1.2535 -0.1168  3.0508
  411MOL0     H56710   2.659   8.506   3.835  0.8302  0.7864  0.1229
  411MOL0     H56711   2.605   8.673   3.899  0.9371  0.4091  2.8169
  411MOL0     H56712   2.807   8.553   4.002 -0.0898 -1.4311 -0.9986
  411MOL0     H56713   2.693   8.449   4.093 -1.3564 -0.0427  0.6193
  411MOL0     H56714   2.699   8.809   4.300  0.5165  0.0508 -0.1955
  411MOL0     H56715   2.147   8.724   3.948 -1.0130 -0.0948  0.0163
  411MOL0     H56716   2.080   8.849   3.663  0.0416 -0.8693 -0.1814
  411MOL0     H56717   1.909   8.813   3.676 -0.8552 -0.6688  1.9120
  411MOL0     H56718   1.995   8.870   3.814 -0.3151  1.6893 -1.8391
  412MOL0     O56719   1.735   1.181   6.793  0.3753 -0.0865 -0.6421
  412MOL0     C56720   1.730   1.089   6.713 -0.2815  0.4634 -0.2651
  412MOL0     O56721   1.831   0.995   6.683 -0.7552 -0.7854  0.2247
  412MOL0     C56722   1.935   1.018   6.772  0.4253 -0.7056  1.1454
  412MOL0     C56723   2.053   1.088   6.727  0.0891  0.1968 -0.3752
  412MOL0     C56724   2.156   1.108   6.824 -0.4992 -0.0239  0.4819
  412MOL0     C56725   2.147   1.077   6.962  1.5075  0.5788  0.5576
  412MOL0     O56726   2.251   1.097   7.042 -0.4499 -0.9833  0.0486
  412MOL0     C56727   2.218   1.089   7.180 -0.9457 -0.2988 -0.4565
  412MOL0     C56728   2.342   1.089   7.273 -0.1068  0.3133  0.8172
  412MOL0     C56729   2.423   0.970   7.207  0.2166 -1.0738 -0.2175
  412MOL0     C56730   2.537   0.928   7.298 -0.2651  0.4247  1.0229
  412MOL0     C56731   2.642   0.838   7.225 -1.0564 -0.1633  0.1820
  412MOL0     C56732   2.618   0.691   7.211  0.2464  0.6647 -0.3414
  412MOL0     C56733   2.575   0.617   7.340 -0.4108  0.7000 -0.5517
  412MOL0     C56734   2.683   0.607   7.446 -1.0799 -0.2448 -0.1472
  412MOL0     N56735   2.634   0.565   7.571 -0.2614 -0.8585  0.4655
  412MOL0     C56736   2.569   0.652   7.655 -0.6106 -0.0258 -0.3073
  412MOL0     C56737   2.511   0.574   7.751 -0.4320  0.8397  0.8123
  412MOL0     C56738   2.408   0.611   7.857  0.2621 -0.3338 -0.0824
  412MOL0     C56739   2.266   0.600   7.804 -0.5857  0.2767  0.3193
  412MOL0     C56740   2.173   0.671   7.897  0.5609  0.4963 -0.6216
  412MOL0     C56741   2.029   0.649   7.865  0.3841  0.0713  0.8116
  412MOL0     O56742   1.999   0.683   7.722  0.1078 -0.0874 -0.2158
  412MOL0     C56743   2.000   0.813   7.677 -0.0402  0.1243  0.4400
  412MOL0     C56744   2.013   0.933   7.756 -1.2553 -0.1807 -1.7983
  412MOL0     C56745   2.012   1.057   7.697 -0.3000 -0.5663  0.3305
  412MOL0     C56746   2.030   1.176   7.796  0.0053 -0.4239  0.6484
  412MOL0     C56747   1.984   1.078   7.558 -0.3210 -0.2286 -0.1557
  412MOL0     C56748   1.982   1.202   7.483 -0.2291 -0.2392 -0.7128
  412MOL0     O56749   1.933   1.205   7.354  0.0495 -0.4634  0.3207
  412MOL0     C56750   1.805   1.205   7.318  0.3297  0.1587 -0.0983
  412MOL0     C56751   1.700   1.199   7.409  0.4207 -0.2396  0.0576
  412MOL0     C56752   1.570   1.185   7.363  0.7634  0.0224 -0.1500
  412MOL0     C56753   1.539   1.192   7.228 -0.1572 -0.0727  0.1731
  412MOL0     O56754   1.408   1.195   7.199  0.3604 -0.6876 -0.3099
  412MOL0     C56755   1.356   1.249   7.081  0.5318  0.6507 -0.4753
  412MOL0     C56756   1.209   1.204   7.055 -1.1181 -0.4856  0.1292
  412MOL0     C56757   1.198   1.056   7.012  0.5803 -0.4027 -0.0630
  412MOL0     C56758   1.054   0.996   6.977  1.1671  0.1109  0.1412
  412MOL0     C56759   0.991   1.054   6.844  0.3918  0.5922  0.1521
  412MOL0     C56760   0.842   0.997   6.845 -0.3197 -0.9367 -0.4288
  412MOL0     C56761   0.763   1.059   6.728  0.5712  1.3844 -0.0446
  412MOL0     C56762   0.790   0.986   6.602  0.2636  0.5086  0.2617
  412MOL0    Cl56763   0.805   0.812   6.603  0.6096  0.5991 -0.1707
  412MOL0     C56764   1.644   1.189   7.141  0.1972  0.2469 -0.2165
  412MOL0     C56765   1.775   1.203   7.183 -0.2013  1.0590 -0.5073
  412MOL0     O56766   2.032   1.303   7.530  0.9114  0.5971 -0.0529
  412MOL0     C56767   1.950   0.961   7.487 -0.7345  0.1180  0.6865
  412MOL0     C56768   1.964   0.829   7.538 -0.1030 -0.5923 -0.4389
  412MOL0     N56769   2.567   0.445   7.737  0.0883  0.3437 -0.0431
  412MOL0     N56770   2.628   0.440   7.624  0.1014  0.4003  0.0278
  412MOL0     C56771   2.027   1.003   6.998 -0.1318  0.5801  0.1698
  412MOL0     C56772   1.927   0.978   6.909  0.5358 -0.8122 -0.0790
  412MOL0     C56773   1.609   1.072   6.634  0.2530  0.0161  0.4773
  412MOL0     C56774   1.490   1.085   6.706  0.3119  0.2989  0.1430
  412MOL0     C56775   1.369   1.065   6.632 -0.2762 -0.7182  0.2675
  412MOL0     C56776   1.355   1.042   6.503  0.3078 -0.5517  1.0603
  412MOL0     O56777   1.233   1.052   6.440  0.0816 -0.5430 -0.0566
  412MOL0     C56778   1.214   1.052   6.308 -0.9585  0.1741  0.3460
  412MOL0     C56779   1.233   0.918   6.233  0.4606 -0.3388  0.2311
  412MOL0     C56780   1.113   0.820   6.263 -0.3855  0.5833  0.2057
  412MOL0     C56781   1.145   0.670   6.266 -0.6740  0.8470  0.1714
  412MOL0     C56782   1.182   0.619   6.130  0.0245 -1.4219  0.7760
  412MOL0     C56783   1.193   0.569   6.019  0.7761  0.0077 -0.6904
  412MOL0     C56784   1.479   1.029   6.429 -0.4024  0.6165  0.3686
  412MOL0     C56785   1.603   1.048   6.494 -0.0002  0.0836 -0.3890
  412MOL0     C56786   1.727   1.031   6.410  0.3438 -0.7713  0.7032
  412MOL0     H56787   2.055   1.119   6.623 -1.1123 -0.1644 -0.5260
  412MOL0     H56788   2.236   1.172   6.786 -1.0315 -1.4920 -3.7037
  412MOL0     H56789   2.166   0.997   7.207  0.9228 -1.1106  0.5776
  412MOL0     H56790   2.162   1.182   7.198 -4.1264 -2.3199  1.1193
  412MOL0     H56791   2.391   1.187   7.279 -1.0392  0.7363  2.0809
  412MOL0     H56792   2.311   1.063   7.375 -0.7616  0.7025  0.7234
  412MOL0     H56793   2.358   0.888   7.176  0.3246 -0.4486 -2.2441
  412MOL0     H56794   2.468   1.005   7.114  1.6641 -0.0593  0.8250
  412MOL0     H56795   2.598   1.010   7.336  1.1424 -1.0685  2.1664
  412MOL0     H56796   2.476   0.885   7.378 -1.7226  1.4889  0.5201
  412MOL0     H56797   2.742   0.848   7.269  1.3249 -2.3066 -4.1492
  412MOL0     H56798   2.662   0.882   7.127 -2.7041  1.0890  0.3585
  412MOL0     H56799   2.544   0.676   7.131  1.3414  0.0712 -1.2642
  412MOL0     H56800   2.715   0.648   7.187  0.6867 -0.9452  3.5698
  412MOL0     H56801   2.562   0.513   7.310 -0.4505  0.7786 -0.8169
  412MOL0     H56802   2.471   0.633   7.371  0.3360  2.2997  1.3234
  412MOL0     H56803   2.758   0.534   7.413 -2.3995 -0.7480 -2.2336
  412MOL0     H56804   2.739   0.700   7.453 -1.7287  0.0926  0.6707
  412MOL0     H56805   2.564   0.759   7.643  0.2305 -0.0814 -1.3202
  412MOL0     H56806   2.440   0.714   7.878 -1.2821  1.1823 -4.1770
  412MOL0     H56807   2.416   0.552   7.948  0.0904  2.2704  1.7322
  412MOL0     H56808   2.262   0.643   7.704  0.9495 -2.8937 -1.2454
  412MOL0     H56809   2.244   0.493   7.793 -0.9032  0.5168 -1.6219
  412MOL0     H56810   2.197   0.638   7.999  1.5835 -0.0506 -1.0258
  412MOL0     H56811   2.196   0.778   7.900  0.9358  0.4080  1.5743
  412MOL0     H56812   2.010   0.541   7.872  1.3084 -0.5799 -3.5022
  412MOL0     H56813   1.962   0.699   7.935 -3.1562 -2.5147 -0.4218
  412MOL0     H56814   2.032   0.925   7.863 -0.5019 -0.5776 -1.9506
  412MOL0     H56815   2.136   1.202   7.808 -0.9966  4.5239  0.5301
  412MOL0     H56816   1.986   1.145   7.891 -1.0471 -4.6125 -0.9832
  412MOL0     H56817   1.987   1.271   7.766  0.5271  0.3773  2.3181
  412MOL0     H56818   1.723   1.198   7.515 -1.9113  1.4919  0.6635
  412MOL0     H56819   1.486   1.170   7.430  1.5571  0.0376  0.8641
  412MOL0     H56820   1.353   1.357   7.097 -0.7660  0.3342  1.9784
  412MOL0     H56821   1.424   1.217   7.002  0.3853  1.8905 -1.1213
  412MOL0     H56822   1.138   1.238   7.131 -1.4758 -0.0536 -0.3939
  412MOL0     H56823   1.190   1.265   6.967  0.9967 -1.0694 -0.8032
  412MOL0     H56824   1.229   0.989   7.092 -0.9796 -2.4894 -1.1024
  412MOL0     H56825   1.275   1.034   6.937  0.1073  2.7488 -1.6679
  412MOL0     H56826   0.976   1.014   7.051 -1.4124 -2.3810 -1.7741
  412MOL0     H56827   1.048   0.887   6.969  2.1517  0.1458 -1.4796
  412MOL0     H56828   0.983   1.163   6.849  2.7721  0.8140  0.0859
  412MOL0     H56829   1.050   1.027   6.756 -1.8482  0.7113 -1.4752
  412MOL0     H56830   0.791   1.016   6.940 -3.4570  0.3533 -2.2082
  412MOL0     H56831   0.840   0.888   6.838 -1.9735 -0.9563 -0.1101
  412MOL0     H56832   0.771   1.168   6.721 -0.0260  1.4529  0.3097
  412MOL0     H56833   0.660   1.036   6.755  1.4680  0.5168  2.9373
  412MOL0     H56834   0.881   1.033   6.566 -0.0924 -0.4143 -2.0375
  412MOL0     H56835   0.713   1.008   6.527  0.1613 -1.3832 -0.2504
  412MOL0     H56836   1.627   1.209   7.036 -1.8315 -0.0557  0.0086
  412MOL0     H56837   1.854   1.196   7.109  0.4887  4.8125 -0.3119
  412MOL0     H56838   1.923   0.974   7.383 -1.6471  1.4025  1.0621
  412MOL0     H56839   1.938   0.741   7.481 -3.1533 -1.8850  2.5474
  412MOL0     H56840   2.019   0.947   7.090 -4.6229  0.3978 -0.1077
  412MOL0     H56841   1.831   0.934   6.934 -0.1187 -0.4016 -1.7028
  412MOL0     H56842   1.488   1.101   6.813  0.2390 -1.9506  0.5320
  412MOL0     H56843   1.286   1.071   6.702 -0.1748  0.8978  0.2868
  412MOL0     H56844   1.111   1.087   6.296 -1.7015 -1.0143  2.5942
  412MOL0     H56845   1.285   1.122   6.263 -1.1892 -0.4722 -1.0885
  412MOL0     H56846   1.332   0.877   6.257  1.1158 -2.8312 -5.2319
  412MOL0     H56847   1.237   0.932   6.125 -0.0071 -0.5009  0.1883
  412MOL0     H56848   1.068   0.841   6.361  0.7263  1.8464  0.4620
  412MOL0     H56849   1.036   0.835   6.187 -0.1148 -1.1952 -0.4831
  412MOL0     H56850   1.063   0.605   6.299 -0.7242  0.4777 -0.6656
  412MOL0     H56851   1.227   0.653   6.337 -1.2297 -0.9897  0.4275
  412MOL0     H56852   1.209   0.529   5.921 -2.3029 -0.1211 -1.2305
  412MOL0     H56853   1.487   1.007   6.323  1.1851 -0.6617  0.7220
  412MOL0     H56854   1.695   1.011   6.308 -0.2433  0.5191  0.6131
  412MOL0     H56855   1.788   1.122   6.415 -2.0673  0.8686  2.8062
  412MOL0     H56856   1.792   0.953   6.451 -0.3871 -0.4186  2.6392
  413MOL0     O56857   3.597   6.239   3.696 -0.2928 -0.0084 -0.1823
  413MOL0     C56858   3.491   6.200   3.650  0.1713 -0.0343  0.2586
  413MOL0     O56859   3.454   6.208   3.517  0.2474  0.3390  0.0691
  413MOL0     C56860   3.561   6.195   3.433 -0.0977 -0.2151  0.0951
  413MOL0     C56861   3.592   6.068   3.391  1.2869 -0.0337 -1.0403
  413MOL0     C56862   3.695   6.047   3.303  0.0531  0.4566  0.3385
  413MOL0     C56863   3.774   6.150   3.261  0.1101  0.3507 -0.3389
  413MOL0     O56864   3.889   6.120   3.190 -0.0963 -1.1196  0.2627
  413MOL0     C56865   4.005   6.167   3.247 -0.1195  0.0682 -0.2652
  413MOL0     C56866   4.117   6.076   3.195  0.5793 -0.8258  0.4288
  413MOL0     C56867   4.151   6.102   3.044 -0.3643  0.5358 -0.0993
  413MOL0     C56868   4.226   5.984   2.986 -0.3585  0.2963  0.4739
  413MOL0     C56869   4.375   5.980   3.034  0.5208 -0.3232  0.7116
  413MOL0     C56870   4.454   5.860   2.991  0.4362 -0.4061 -0.6496
  413MOL0     C56871   4.585   5.828   3.057 -0.5433  0.8314  0.2025
  413MOL0     C56872   4.677   5.939   3.035 -0.4022 -0.3520  0.1183
  413MOL0     N56873   4.799   5.941   3.119 -0.3635 -0.3486 -0.5438
  413MOL0     C56874   4.930   5.921   3.078 -0.4984 -0.4628 -0.0673
  413MOL0     C56875   5.003   5.918   3.198  0.0067 -0.7066 -0.1230
  413MOL0     C56876   5.147   5.874   3.216 -0.3285  0.1862 -0.1173
  413MOL0     C56877   5.235   5.945   3.105  0.2186  0.5095  0.2328
  413MOL0     C56878   5.369   5.885   3.086  0.1750  0.9842  1.1690
  413MOL0     C56879   5.445   5.947   2.965  0.0519 -0.6137  0.1739
  413MOL0     O56880   5.365   5.967   2.847  0.4155 -0.6779  0.5089
  413MOL0     C56881   5.410   6.040   2.736  0.3555 -0.8337 -0.0323
  413MOL0     C56882   5.312   6.098   2.653  0.3079  0.7714  0.1954
  413MOL0     C56883   5.358   6.186   2.550 -0.8583  0.1344  0.2219
  413MOL0     C56884   5.248   6.259   2.472  0.0854  0.4351 -1.1480
  413MOL0     C56885   5.496   6.210   2.535 -0.3031 -0.5845  0.8151
  413MOL0     C56886   5.554   6.303   2.434  0.2954 -1.0493 -0.6186
  413MOL0     O56887   5.481   6.404   2.376  0.4416  0.1897 -0.1562
  413MOL0     C56888   5.523   6.462   2.261 -0.5820  0.3606  0.0103
  413MOL0     C56889   5.493   6.600   2.248 -0.0803  0.4071  0.2633
  413MOL0     C56890   5.516   6.660   2.121  0.2619  0.0896 -0.8611
  413MOL0     C56891   5.584   6.592   2.020 -0.4176 -0.5175 -0.3501
  413MOL0     O56892   5.626   6.663   1.905 -0.3861 -0.3362 -0.1340
  413MOL0     C56893   5.717   6.766   1.926  0.6954 -0.4058  0.3131
  413MOL0     C56894   5.665   6.906   1.914  0.1458 -0.4663 -0.5829
  413MOL0     C56895   5.604   6.938   1.770 -0.5284 -0.5048  0.9284
  413MOL0     C56896   5.716   7.009   1.688  1.1581  0.0903  0.5920
  413MOL0     C56897   5.702   6.978   1.532 -0.7867 -0.5504  0.3826
  413MOL0     C56898   5.750   6.841   1.491  0.0035  0.4949 -0.7157
  413MOL0     C56899   5.910   6.829   1.513  0.0030  0.1398  0.7089
  413MOL0     C56900   5.968   6.700   1.469 -0.2078  0.1797 -0.6092
  413MOL0    Cl56901   5.987   6.692   1.303 -0.3160 -0.5024  0.7204
  413MOL0     C56902   5.629   6.464   2.034 -0.1509 -0.4413 -0.4760
  413MOL0     C56903   5.600   6.397   2.156 -0.6240  0.1145 -0.5865
  413MOL0     O56904   5.671   6.285   2.410  0.4343  0.4391 -0.1451
  413MOL0     C56905   5.591   6.136   2.612  0.5028 -0.4464 -0.1927
  413MOL0     C56906   5.543   6.041   2.706 -1.2382  0.4990  0.5503
  413MOL0     N56907   4.906   5.921   3.304  0.1404 -0.1595  1.1428
  413MOL0     N56908   4.791   5.945   3.256  0.9015  1.6660 -0.1869
  413MOL0     C56909   3.744   6.280   3.304 -0.1903  0.8065 -0.3140
  413MOL0     C56910   3.639   6.304   3.391 -0.2542  0.1758  0.7357
  413MOL0     C56911   3.395   6.124   3.731 -0.2722 -0.6253  0.3528
  413MOL0     C56912   3.329   6.011   3.682 -0.3331  0.5308  0.3208
  413MOL0     C56913   3.237   5.931   3.754 -0.1990  0.9521  0.6140
  413MOL0     C56914   3.214   5.970   3.887  0.8277  0.2340 -0.3489
  413MOL0     O56915   3.125   5.902   3.963 -0.8285  0.2533  0.0925
  413MOL0     C56916   3.138   5.763   3.995  0.3139  0.6904  0.6476
  413MOL0     C56917   3.019   5.710   3.916 -0.5362  0.0485  0.2385
  413MOL0     C56918   2.969   5.578   3.979  0.9455  0.0193  0.4321
  413MOL0     C56919   2.838   5.529   3.914  0.2563  0.1381 -0.3299
  413MOL0     C56920   2.801   5.390   3.953 -1.0821 -0.2304 -0.4888
  413MOL0     C56921   2.773   5.280   4.005  0.7557 -0.2067 -0.0921
  413MOL0     C56922   3.272   6.084   3.940  0.8189  0.0977 -0.0315
  413MOL0     C56923   3.357   6.162   3.856  0.1646  0.4714 -1.0327
  413MOL0     C56924   3.387   6.297   3.919  0.4033  0.5085 -0.1258
  413MOL0     H56925   3.519   5.993   3.419  0.7761  0.4149 -1.1450
  413MOL0     H56926   3.724   5.943   3.289 -1.9113 -0.4650  2.3803
  413MOL0     H56927   4.004   6.150   3.356  1.0802 -0.0160 -0.2560
  413MOL0     H56928   4.031   6.272   3.236  4.4570 -0.5766  2.1476
  413MOL0     H56929   4.202   6.102   3.259 -1.7756  0.6691  3.2181
  413MOL0     H56930   4.089   5.971   3.206  0.8708 -0.8676  0.8085
  413MOL0     H56931   4.064   6.120   2.980  0.5211  3.7949 -0.5672
  413MOL0     H56932   4.205   6.197   3.031  1.5259 -0.5726 -0.7221
  413MOL0     H56933   4.182   5.886   3.004 -3.6338  1.5094 -0.2622
  413MOL0     H56934   4.235   5.982   2.877  3.6458 -2.1072  0.6354
  413MOL0     H56935   4.379   6.005   3.140  1.6265  1.1685  0.3515
  413MOL0     H56936   4.409   6.066   2.974  0.8849 -0.2201  1.0620
  413MOL0     H56937   4.379   5.780   2.994  0.4948 -0.8759 -4.9243
  413MOL0     H56938   4.463   5.877   2.883  4.4373  0.9233 -0.2668
  413MOL0     H56939   4.630   5.733   3.025 -1.7462  0.2988  0.0139
  413MOL0     H56940   4.563   5.816   3.164 -0.3393  3.1947  0.5451
  413MOL0     H56941   4.700   5.932   2.928 -0.5160 -1.9301  0.1728
  413MOL0     H56942   4.630   6.037   3.048 -1.0182 -0.6268 -0.0017
  413MOL0     H56943   4.967   5.888   2.981  0.3259 -3.1445  1.0724
  413MOL0     H56944   5.165   5.766   3.207  0.8133  0.2558  1.0545
  413MOL0     H56945   5.181   5.895   3.317  5.0799 -1.5022 -1.2332
  413MOL0     H56946   5.178   5.934   3.012  0.2095 -0.9370  0.3852
  413MOL0     H56947   5.248   6.046   3.145 -0.7830  1.4888 -1.7934
  413MOL0     H56948   5.442   5.884   3.168  1.7993 -1.0903 -0.1912
  413MOL0     H56949   5.345   5.781   3.060 -0.6119  0.9933  1.8367
  413MOL0     H56950   5.488   6.046   2.984  0.7973 -0.9785  0.4147
  413MOL0     H56951   5.533   5.890   2.937  0.1462  0.9145 -3.1611
  413MOL0     H56952   5.212   6.085   2.694  0.8618 -0.3891  1.2615
  413MOL0     H56953   5.279   6.251   2.367  3.6276 -2.6517 -0.0897
  413MOL0     H56954   5.233   6.361   2.508 -2.0795  0.3821 -1.7280
  413MOL0     H56955   5.153   6.206   2.481 -0.5576  1.8947  2.0968
  413MOL0     H56956   5.451   6.660   2.328  4.2478  0.1736  3.0950
  413MOL0     H56957   5.489   6.764   2.111 -0.8437  0.1676  1.9374
  413MOL0     H56958   5.759   6.763   2.027 -0.6654 -0.4194  0.9008
  413MOL0     H56959   5.801   6.757   1.857 -0.0117  0.7686 -0.7480
  413MOL0     H56960   5.589   6.909   1.993  1.5159 -1.5639  0.8222
  413MOL0     H56961   5.742   6.977   1.944 -0.9998  0.7718 -0.4485
  413MOL0     H56962   5.520   7.007   1.780  0.3139  0.5244  1.1258
  413MOL0     H56963   5.559   6.850   1.724  0.6221 -0.2505 -0.7970
  413MOL0     H56964   5.814   6.985   1.731 -0.2757  1.0511  4.9010
  413MOL0     H56965   5.711   7.113   1.721  3.8353 -0.6301  3.8784
  413MOL0     H56966   5.602   7.002   1.494  0.5383  3.4497 -1.0594
  413MOL0     H56967   5.762   7.051   1.477 -5.0043  1.6758 -1.7629
  413MOL0     H56968   5.723   6.820   1.387 -0.9441  2.2382 -0.8518
  413MOL0     H56969   5.685   6.768   1.540 -2.7485  3.1331 -0.1156
  413MOL0     H56970   5.930   6.832   1.620  1.8672 -2.5616  0.5099
  413MOL0     H56971   5.965   6.910   1.463  0.9288 -1.6027 -1.2308
  413MOL0     H56972   5.913   6.611   1.501  2.9462 -2.1274 -1.1047
  413MOL0     H56973   6.066   6.694   1.517 -1.0622  2.4375  1.6352
  413MOL0     H56974   5.692   6.415   1.960 -2.1206 -2.8517 -0.7092
  413MOL0     H56975   5.630   6.293   2.148 -0.2379  0.1830 -0.0800
  413MOL0     H56976   5.697   6.157   2.604  0.0442  2.0166 -0.9052
  413MOL0     H56977   5.612   5.980   2.763 -1.5784 -1.0257 -0.6137
  413MOL0     H56978   3.809   6.358   3.266 -0.1666  1.1980  0.5135
  413MOL0     H56979   3.616   6.404   3.426 -2.5102  0.8314 -2.1196
  413MOL0     H56980   3.366   5.977   3.585 -0.7413  1.6834 -0.2596
  413MOL0     H56981   3.188   5.856   3.693 -0.0338  1.1109  0.2801
  413MOL0     H56982   3.237   5.729   3.963 -1.0379 -2.9576 -0.2301
  413MOL0     H56983   3.129   5.754   4.104  2.9150  0.9171  0.9581
  413MOL0     H56984   3.036   5.700   3.809  2.1413  3.0902  0.2135
  413MOL0     H56985   2.942   5.787   3.922  0.9806  1.9847 -2.8484
  413MOL0     H56986   3.048   5.506   3.959  2.1807  1.5019 -0.2464
  413MOL0     H56987   2.952   5.588   4.087 -3.4853 -0.8047 -0.0099
  413MOL0     H56988   2.848   5.541   3.806 -1.6644 -0.7345 -0.6416
  413MOL0     H56989   2.759   5.601   3.938  0.9670  0.4818  1.0476
  413MOL0     H56990   2.741   5.194   4.060 -2.2627  1.8806  1.7435
  413MOL0     H56991   3.249   6.134   4.033  1.3100  0.0429  0.1196
  413MOL0     H56992   3.426   6.287   4.020 -0.8222 -4.3425  0.1275
  413MOL0     H56993   3.464   6.350   3.862  0.0819 -0.9817 -2.0953
  413MOL0     H56994   3.297   6.359   3.927 -0.0025  0.0772 -1.0812
  414MOL0     O56995  10.261  11.128   7.891 -0.6409 -0.4530  0.0002
  414MOL0     C56996  10.295  11.165   7.776 -0.6052 -0.8470  0.0546
  414MOL0     O56997  10.388  11.105   7.703 -0.9663 -1.0736  0.4109
  414MOL0     C56998  10.450  11.000   7.758  0.1316  0.5882 -0.0327
  414MOL0     C56999  10.393  10.876   7.747 -0.0225 -0.3816  0.9984
  414MOL0     C57000  10.445  10.764   7.814 -0.2661 -0.3351 -0.1357
  414MOL0     C57001  10.566  10.774   7.889 -0.2304 -0.7247  0.5049
  414MOL0     O57002  10.604  10.668   7.966 -0.1703 -0.2675  0.0713
  414MOL0     C57003  10.740  10.666   8.007 -0.1983 -0.5183 -1.3749
  414MOL0     C57004  10.826  10.591   7.905  0.2470 -0.6457 -0.1809
  414MOL0     C57005  10.979  10.590   7.932 -0.3529  0.2249 -0.3846
  414MOL0     C57006  11.020  10.504   8.051 -0.0186 -0.2575 -0.3699
  414MOL0     C57007  11.180  10.506   8.067  0.1900 -0.3323  0.2950
  414MOL0     C57008  11.251  10.399   7.986 -0.0256  0.0038 -0.4273
  414MOL0     C57009  11.386  10.361   8.049  0.8785  0.3630 -0.4061
  414MOL0     C57010  11.475  10.257   7.978 -0.8002 -0.8820  0.0338
  414MOL0     N57011  11.427  10.116   7.954  1.1420  0.0494 -0.2404
  414MOL0     C57012  11.299  10.066   7.924 -0.2344  0.4453  0.4650
  414MOL0     C57013  11.314   9.924   7.939  0.3249 -1.1894  0.1355
  414MOL0     C57014  11.210   9.816   7.932 -0.8798 -0.1464 -0.5590
  414MOL0     C57015  11.159   9.792   7.786 -0.7010 -0.4716 -1.6555
  414MOL0     C57016  11.040   9.884   7.753 -1.2280  0.1979  0.1434
  414MOL0     C57017  11.010   9.886   7.600 -0.5306  0.7023  0.7688
  414MOL0     O57018  11.123   9.940   7.533 -0.2017  0.4658 -0.6414
  414MOL0     C57019  11.134   9.944   7.398 -0.1534 -0.2458  0.8385
  414MOL0     C57020  11.261   9.960   7.335  0.6153  0.4771  0.8295
  414MOL0     C57021  11.277   9.964   7.193 -0.8927  0.3676  0.2950
  414MOL0     C57022  11.423   9.955   7.136  1.7366 -0.9058 -1.2045
  414MOL0     C57023  11.160   9.974   7.113 -0.0056  0.4277  0.6776
  414MOL0     C57024  11.163  10.013   6.971 -0.4444  0.3976 -1.2634
  414MOL0     O57025  11.268   9.991   6.898 -0.3591 -0.5996 -0.0704
  414MOL0     C57026  11.241  10.015   6.764 -0.7147 -0.0060 -0.6107
  414MOL0     C57027  11.269  10.140   6.706 -0.4186 -0.6966 -0.2163
  414MOL0     C57028  11.261  10.150   6.562  0.0365 -0.2589 -0.1122
  414MOL0     C57029  11.224  10.042   6.474  0.7233  0.6570 -0.5709
  414MOL0     O57030  11.220  10.045   6.339  0.1625 -0.1721 -0.5049
  414MOL0     C57031  11.349  10.052   6.270  0.6309  1.0943  0.5074
  414MOL0     C57032  11.329  10.076   6.125  0.2749  0.0568  0.4156
  414MOL0     C57033  11.465  10.088   6.060  0.3934 -0.3359  0.4916
  414MOL0     C57034  11.437  10.112   5.914 -0.1461  0.2359 -0.2195
  414MOL0     C57035  11.567  10.145   5.839 -0.4576 -0.0511 -0.1322
  414MOL0     C57036  11.655  10.019   5.802  0.5021  0.2870 -0.7950
  414MOL0     C57037  11.769  10.064   5.709 -0.1401  0.1843  0.0487
  414MOL0     C57038  11.892  10.106   5.792  0.3021  0.1488  0.6101
  414MOL0    Cl57039  11.885  10.239   5.914  0.2377 -0.0307 -0.0106
  414MOL0     C57040  11.192   9.922   6.540 -0.1072  0.2417 -0.4996
  414MOL0     C57041  11.206   9.909   6.681  1.1597 -0.3055 -0.0383
  414MOL0     O57042  11.061  10.073   6.941 -0.3919  0.9246  0.9493
  414MOL0     C57043  11.036   9.958   7.178  0.5287  0.1171  0.7700
  414MOL0     C57044  11.023   9.935   7.310 -0.2467  1.2765  0.0852
  414MOL0     N57045  11.450   9.902   7.950 -0.0568 -0.0671 -0.1428
  414MOL0     N57046  11.516  10.015   7.965  0.7275  0.3772 -0.2055
  414MOL0     C57047  10.623  10.907   7.905  0.0055  0.6299 -0.6534
  414MOL0     C57048  10.554  11.018   7.844 -0.6152 -1.2748  0.8433
  414MOL0     C57049  10.227  11.278   7.717  0.4676 -0.4834  0.4228
  414MOL0     C57050  10.222  11.281   7.572 -0.0202 -1.4196  0.0912
  414MOL0     C57051  10.145  11.389   7.513  0.7786  0.2718  0.8800
  414MOL0     C57052  10.079  11.491   7.584  0.1079  0.0370 -0.2648
  414MOL0     O57053  10.022  11.588   7.509  0.3562  0.4948 -0.9037
  414MOL0     C57054   9.956  11.694   7.567 -1.0864  0.0340 -1.3472
  414MOL0     C57055   9.939  11.801   7.464  0.2028 -0.0697 -0.4649
  414MOL0     C57056   9.891  11.736   7.328 -0.1817  0.0583 -0.8288
  414MOL0     C57057   9.864  11.841   7.226  0.2755 -1.3275  0.2874
  414MOL0     C57058   9.986  11.885   7.155 -0.3032 -0.6972 -0.4394
  414MOL0     C57059  10.089  11.933   7.119  0.0556 -0.0582  0.1668
  414MOL0     C57060  10.088  11.490   7.718 -0.5546  0.2065 -0.2268
  414MOL0     C57061  10.160  11.384   7.791  0.5976  0.1104 -0.2066
  414MOL0     C57062  10.195  11.420   7.930  0.3575 -0.6114  0.3117
  414MOL0     H57063  10.300  10.863   7.692 -0.4744 -0.4850  1.7636
  414MOL0     H57064  10.411  10.661   7.812  1.5741 -1.0348 -3.0221
  414MOL0     H57065  10.737  10.608   8.100  3.3940 -0.3967 -1.0483
  414MOL0     H57066  10.795  10.758   8.028  0.6135 -1.8687  4.0256
  414MOL0     H57067  10.776  10.495   7.889 -2.7444  0.9479 -1.1515
  414MOL0     H57068  10.799  10.649   7.816  0.1900  1.2804  1.0343
  414MOL0     H57069  11.030  10.558   7.841  0.3761  3.0346 -1.0614
  414MOL0     H57070  11.020  10.690   7.951 -1.3766  0.2205  2.2655
  414MOL0     H57071  10.965  10.541   8.138 -0.8413 -0.8188 -0.6377
  414MOL0     H57072  11.002  10.397   8.038 -0.4918 -0.2383  0.0884
  414MOL0     H57073  11.189  10.500   8.176 -0.7167 -0.4436  0.3734
  414MOL0     H57074  11.225  10.601   8.037  0.1413 -0.1475  0.7978
  414MOL0     H57075  11.196  10.304   7.992  0.0468  0.0358  1.2006
  414MOL0     H57076  11.256  10.444   7.886 -1.8552  0.1210 -0.5029
  414MOL0     H57077  11.371  10.318   8.149 -3.0205  1.4882 -0.3561
  414MOL0     H57078  11.438  10.457   8.051  0.2944  0.7740 -2.6458
  414MOL0     H57079  11.510  10.304   7.886  1.1040  0.7686  1.4989
  414MOL0     H57080  11.570  10.233   8.026  1.0439 -0.2166 -2.9885
  414MOL0     H57081  11.213  10.126   7.899  0.9596  1.7447 -0.6916
  414MOL0     H57082  11.129   9.843   8.001 -3.0107 -1.9833 -2.1934
  414MOL0     H57083  11.262   9.726   7.965 -2.4052 -1.3501 -1.3273
  414MOL0     H57084  11.244   9.826   7.725  1.9133 -0.7380  1.5779
  414MOL0     H57085  11.132   9.689   7.763  1.9959 -1.6476 -0.0756
  414MOL0     H57086  10.954   9.830   7.794  0.2031 -1.6418  0.9008
  414MOL0     H57087  11.054   9.990   7.777  0.4455  0.0450 -0.0609
  414MOL0     H57088  10.989   9.787   7.559  1.0675  0.3849  0.6286
  414MOL0     H57089  10.921   9.945   7.580 -1.5696 -0.6991  1.0963
  414MOL0     H57090  11.355   9.950   7.389  0.4085 -2.7830  0.7829
  414MOL0     H57091  11.443   9.909   7.039  3.9619  0.0936 -1.2920
  414MOL0     H57092  11.479   9.892   7.206 -1.5909 -1.8208  0.8489
  414MOL0     H57093  11.470  10.054   7.129  0.3913 -0.3162 -2.3155
  414MOL0     H57094  11.294  10.219   6.777  0.4693  0.8659 -2.1854
  414MOL0     H57095  11.295  10.246   6.524 -0.3697  0.2243  0.7050
  414MOL0     H57096  11.405  10.140   6.304 -0.0748  0.9762  2.0393
  414MOL0     H57097  11.402   9.958   6.288  1.6475  1.6897  0.7018
  414MOL0     H57098  11.280   9.983   6.096  1.4047 -1.3067  2.6383
  414MOL0     H57099  11.263  10.162   6.115  1.2846  0.8070 -0.0067
  414MOL0     H57100  11.521   9.994   6.065  0.3407 -0.3135  2.0356
  414MOL0     H57101  11.530  10.166   6.101  0.5855  0.9506 -2.0482
  414MOL0     H57102  11.359  10.189   5.904 -0.7819 -0.6613 -3.1001
  414MOL0     H57103  11.392  10.018   5.882 -0.9584 -0.1493  1.8792
  414MOL0     H57104  11.537  10.197   5.747 -0.0855  0.6624  0.1419
  414MOL0     H57105  11.622  10.221   5.895  1.0800  1.5562 -3.4914
  414MOL0     H57106  11.592   9.940   5.759 -0.4885 -0.4405  1.7842
  414MOL0     H57107  11.693   9.975   5.894  0.8543 -1.9329 -1.9257
  414MOL0     H57108  11.728  10.142   5.644 -2.6885 -1.0442  0.0576
  414MOL0     H57109  11.800   9.983   5.642  1.6020  3.0991 -2.9621
  414MOL0     H57110  11.967  10.128   5.715 -0.3386 -1.7970 -0.6358
  414MOL0     H57111  11.923  10.017   5.848  4.1660  0.2457 -1.0560
  414MOL0     H57112  11.163   9.837   6.480  0.7096  0.3519 -1.0654
  414MOL0     H57113  11.197   9.810   6.725  1.0480 -1.2288 -2.0590
  414MOL0     H57114  10.947   9.973   7.117  1.8242  1.7779 -0.8127
  414MOL0     H57115  10.928   9.932   7.363 -0.8904 -0.8519 -1.0648
  414MOL0     H57116  10.711  10.924   7.967  0.1967 -1.1106 -0.3757
  414MOL0     H57117  10.585  11.118   7.873 -3.4778 -0.7368  2.3700
  414MOL0     H57118  10.270  11.197   7.523  0.8448 -1.6635  1.3178
  414MOL0     H57119  10.142  11.390   7.405 -1.2786 -1.4985  0.8560
  414MOL0     H57120   9.854  11.669   7.598 -0.7665 -0.7736 -0.9047
  414MOL0     H57121  10.009  11.744   7.649 -1.8863  2.0562 -2.0112
  414MOL0     H57122  10.036  11.845   7.438  0.0001  0.3600 -0.4974
  414MOL0     H57123   9.868  11.875   7.501  0.3448 -0.4504  0.6105
  414MOL0     H57124   9.963  11.659   7.299  1.7349  0.3748  2.6574
  414MOL0     H57125   9.799  11.679   7.345 -0.1859  0.1658 -0.4827
  414MOL0     H57126   9.828  11.932   7.275  3.3208 -0.6072  1.4339
  414MOL0     H57127   9.810  11.797   7.142  0.7949 -1.0542 -0.1930
  414MOL0     H57128  10.182  11.980   7.094 -1.6169  5.2848  2.5146
  414MOL0     H57129  10.057  11.576   7.777  0.2755  1.3030 -1.3294
  414MOL0     H57130  10.229  11.523   7.942  0.6966 -0.7540  0.6147
  414MOL0     H57131  10.107  11.394   7.990  1.0498 -3.4850  0.2417
  414MOL0     H57132  10.282  11.360   7.957 -0.7700 -3.3166 -1.6172
  415MOL0     O57133   7.470   7.599   1.051  0.0837 -0.0162 -1.1247
  415MOL0     C57134   7.453   7.502   1.127  0.0285  0.6556 -0.6033
  415MOL0     O57135   7.431   7.365   1.103  0.1566  0.3269 -0.5190
  415MOL0     C57136   7.407   7.344   0.966 -0.4780  0.3185 -0.5904
  415MOL0     C57137   7.515   7.331   0.873 -0.3654  0.4856 -0.3433
  415MOL0     C57138   7.485   7.308   0.734  0.6935 -0.1092  0.4590
  415MOL0     C57139   7.353   7.311   0.684 -0.3907 -0.5131 -1.1600
  415MOL0     O57140   7.336   7.273   0.552  0.2562  1.0925 -0.2633
  415MOL0     C57141   7.204   7.276   0.496  0.1208  0.1167 -1.0820
  415MOL0     C57142   7.213   7.220   0.361  0.1509 -0.0889 -0.4144
  415MOL0     C57143   7.284   7.320   0.259 -0.2579  0.1355 -0.4191
  415MOL0     C57144   7.213   7.454   0.237 -0.2706 -0.4559 -0.3316
  415MOL0     C57145   7.259   7.516   0.098  0.1316  0.0050  0.0126
  415MOL0     C57146   7.246   7.664   0.094 -0.1449  0.1223  0.0023
  415MOL0     C57147   7.106   7.723   0.096 -0.1711  0.1536  0.2734
  415MOL0     C57148   7.026   7.693  -0.029  0.1633  0.3649  0.6932
  415MOL0     N57149   7.065   7.756  -0.154 -0.5815 -0.3529 -0.0029
  415MOL0     C57150   7.194   7.755  -0.218  1.2979  0.7584  0.3582
  415MOL0     C57151   7.188   7.841  -0.322  0.8535  0.0768  0.5151
  415MOL0     C57152   7.292   7.860  -0.424 -0.6213 -0.2126 -1.0411
  415MOL0     C57153   7.253   7.912  -0.563 -0.5737 -0.8091 -0.0403
  415MOL0     C57154   7.156   7.827  -0.642 -0.6817  0.0538  0.2467
  415MOL0     C57155   7.146   7.864  -0.790 -0.2666 -0.3130 -0.1145
  415MOL0     O57156   7.082   8.001  -0.801 -0.6632  0.0829  0.3130
  415MOL0     C57157   6.956   8.031  -0.856 -0.6744 -1.5092 -0.1267
  415MOL0     C57158   6.953   8.162  -0.897  0.4376 -0.5385 -0.0753
  415MOL0     C57159   6.844   8.209  -0.972  0.2077 -0.9110  1.5312
  415MOL0     C57160   6.858   8.355  -1.017 -0.7343  0.0350  0.5983
  415MOL0     C57161   6.724   8.135  -0.991  0.9122  0.0070 -0.9522
  415MOL0     C57162   6.593   8.180  -1.059 -0.5135  0.3183 -1.1453
  415MOL0     O57163   6.500   8.085  -1.088  1.3413 -0.1253  0.8924
  415MOL0     C57164   6.398   8.123  -1.170 -0.6066 -0.2955  1.0968
  415MOL0     C57165   6.416   8.182  -1.298 -0.1423 -0.6501 -1.2089
  415MOL0     C57166   6.304   8.230  -1.378  0.4769  0.3062 -0.6328
  415MOL0     C57167   6.172   8.196  -1.339 -0.0626 -0.7713  0.4321
  415MOL0     O57168   6.087   8.224  -1.441 -0.3320  1.0518 -0.7174
  415MOL0     C57169   6.002   8.338  -1.409  0.6198 -0.0150  0.2396
  415MOL0     C57170   5.889   8.347  -1.514  0.2940 -1.1287 -0.1349
  415MOL0     C57171   5.823   8.210  -1.516  0.1066  0.4837 -0.0754
  415MOL0     C57172   5.687   8.215  -1.586 -0.2519  1.4803 -0.3086
  415MOL0     C57173   5.648   8.061  -1.591 -0.6978 -0.2257 -0.6049
  415MOL0     C57174   5.520   8.060  -1.675 -0.2254 -0.6859  0.6856
  415MOL0     C57175   5.456   7.920  -1.674  0.2121 -0.3681  0.1194
  415MOL0     C57176   5.301   7.940  -1.697 -0.0196  0.0947 -1.1192
  415MOL0    Cl57177   5.266   8.028  -1.842 -0.2501  0.0010 -0.3119
  415MOL0     C57178   6.151   8.139  -1.207 -0.4043  0.1080  1.2032
  415MOL0     C57179   6.263   8.118  -1.130 -1.2950  0.4856 -0.4796
  415MOL0     O57180   6.587   8.294  -1.086  0.4417  0.0511 -0.4492
  415MOL0     C57181   6.731   8.004  -0.923 -0.8223  0.4946 -0.6208
  415MOL0     C57182   6.845   7.947  -0.869 -0.8609  0.3913  0.0162
  415MOL0     N57183   7.056   7.903  -0.316 -0.2147 -0.0360  0.8347
  415MOL0     N57184   6.985   7.853  -0.219 -0.1026  0.0182  0.1696
  415MOL0     C57185   7.251   7.327   0.779  1.3854 -0.4865 -0.4395
  415MOL0     C57186   7.277   7.340   0.912 -0.8048 -0.4957  0.3294
  415MOL0     C57187   7.468   7.534   1.272  0.3596  0.3006  0.2953
  415MOL0     C57188   7.371   7.463   1.351  0.0074 -0.2052  0.9098
  415MOL0     C57189   7.358   7.479   1.487 -0.1491 -0.7970  0.7671
  415MOL0     C57190   7.457   7.565   1.552  0.0934  0.2095 -0.0907
  415MOL0     O57191   7.468   7.589   1.683  0.1380  0.5958  0.3698
  415MOL0     C57192   7.415   7.491   1.761  0.3406 -0.0347 -0.1414
  415MOL0     C57193   7.449   7.506   1.909 -0.8548  0.1352  0.2141
  415MOL0     C57194   7.362   7.612   1.976  0.0832 -0.2717  0.3019
  415MOL0     C57195   7.408   7.748   1.942  0.7281  0.1545 -0.3092
  415MOL0     C57196   7.539   7.785   2.005 -0.2971  0.1802  0.8438
  415MOL0     C57197   7.646   7.798   2.058 -0.1314 -0.0609  0.0173
  415MOL0     C57198   7.558   7.630   1.477  0.0430  0.9493  0.3705
  415MOL0     C57199   7.564   7.614   1.339  0.0522  0.2073 -0.4106
  415MOL0     C57200   7.674   7.680   1.262 -0.4042  0.7087  0.3784
  415MOL0     H57201   7.615   7.346   0.910 -0.0362  1.1712 -1.4624
  415MOL0     H57202   7.558   7.299   0.654  0.9495  0.7087  0.5935
  415MOL0     H57203   7.168   7.379   0.487  0.1711  0.4242  1.5561
  415MOL0     H57204   7.131   7.214   0.550 -0.1926 -0.1986 -1.8527
  415MOL0     H57205   7.264   7.124   0.355  1.5057  0.6412 -1.2409
  415MOL0     H57206   7.112   7.206   0.323  0.3804 -0.6231 -0.8281
  415MOL0     H57207   7.390   7.329   0.285  0.5343 -4.2173 -1.3188
  415MOL0     H57208   7.284   7.273   0.161  0.0316  1.4197 -1.0468
  415MOL0     H57209   7.109   7.423   0.224 -0.0809 -1.8400  1.1920
  415MOL0     H57210   7.221   7.518   0.325 -5.0091 -2.7402  2.1400
  415MOL0     H57211   7.199   7.468   0.020  2.0654 -1.3054 -0.7630
  415MOL0     H57212   7.365   7.498   0.076 -0.3671  0.7855 -3.6113
  415MOL0     H57213   7.278   7.708   0.189 -1.1598  0.2093  0.3147
  415MOL0     H57214   7.304   7.707   0.011 -1.7496 -1.6348 -2.1508
  415MOL0     H57215   7.107   7.832   0.098 -1.7544  0.1931  1.8500
  415MOL0     H57216   7.047   7.695   0.184 -1.3712 -1.6651 -1.0409
  415MOL0     H57217   7.029   7.585  -0.046  1.8374  0.6904 -1.6591
  415MOL0     H57218   6.924   7.726  -0.007 -0.5080 -1.1639  0.0052
  415MOL0     H57219   7.284   7.694  -0.215  1.1355  0.0536 -3.5888
  415MOL0     H57220   7.339   7.762  -0.440 -2.0549 -1.6153  2.3964
  415MOL0     H57221   7.369   7.931  -0.390  0.6528 -2.5742  1.4612
  415MOL0     H57222   7.203   8.009  -0.551 -1.0840 -1.0280 -0.3669
  415MOL0     H57223   7.343   7.928  -0.622 -0.7054  1.0821  0.2184
  415MOL0     H57224   7.188   7.723  -0.636 -1.8899 -0.2732  1.3112
  415MOL0     H57225   7.062   7.828  -0.587 -0.3753 -2.2003  0.8951
  415MOL0     H57226   7.247   7.872  -0.830 -1.0161 -2.3496 -2.7039
  415MOL0     H57227   7.076   7.793  -0.837 -2.1662  0.7961  0.9019
  415MOL0     H57228   7.043   8.220  -0.883 -1.2222  2.4548 -0.9195
  415MOL0     H57229   6.956   8.397  -0.994 -0.7022  0.0517  0.4307
  415MOL0     H57230   6.780   8.418  -0.972 -2.5231 -1.7761  0.1734
  415MOL0     H57231   6.827   8.380  -1.119 -1.4302  2.0005  1.2322
  415MOL0     H57232   6.517   8.185  -1.338  1.2249 -4.1835  1.5293
  415MOL0     H57233   6.322   8.277  -1.474 -1.0655  1.0182 -0.5915
  415MOL0     H57234   5.951   8.322  -1.314 -0.3684  1.2155 -0.0702
  415MOL0     H57235   6.071   8.423  -1.399 -1.7367  2.0245  0.0052
  415MOL0     H57236   5.819   8.426  -1.488  0.4745 -0.9211 -0.2833
  415MOL0     H57237   5.933   8.370  -1.612 -0.6883  1.0144 -0.1255
  415MOL0     H57238   5.816   8.177  -1.412  0.6080 -3.7311 -1.1968
  415MOL0     H57239   5.898   8.158  -1.576 -0.1565  2.4955 -2.2790
  415MOL0     H57240   5.694   8.268  -1.681  0.3824  1.2156 -0.4217
  415MOL0     H57241   5.618   8.270  -1.521  0.1078  2.3999 -0.6982
  415MOL0     H57242   5.736   8.008  -1.629  0.2497  0.9467 -0.0921
  415MOL0     H57243   5.614   8.025  -1.494  0.1151  0.4300 -0.0679
  415MOL0     H57244   5.536   8.097  -1.776 -2.1790  1.0207  0.9389
  415MOL0     H57245   5.448   8.130  -1.632 -0.3831  1.2419 -2.4400
  415MOL0     H57246   5.469   7.873  -1.576  0.1968 -0.0086  0.2962
  415MOL0     H57247   5.502   7.858  -1.751 -0.3388 -0.1882 -0.3643
  415MOL0     H57248   5.276   7.995  -1.606  1.6805  0.0062 -0.5573
  415MOL0     H57249   5.242   7.848  -1.696  0.3329 -0.1290 -0.4723
  415MOL0     H57250   6.053   8.102  -1.181 -0.4052 -0.2310  0.7384
  415MOL0     H57251   6.252   8.094  -1.024 -2.1430  1.2293 -0.3841
  415MOL0     H57252   6.641   7.944  -0.913  0.6826 -1.5052  6.6934
  415MOL0     H57253   6.840   7.842  -0.841 -1.4307 -0.3975 -2.6930
  415MOL0     H57254   7.144   7.327   0.760  0.8159  1.8537  2.1308
  415MOL0     H57255   7.205   7.356   0.992  1.6660 -1.2166  2.8607
  415MOL0     H57256   7.293   7.405   1.302 -1.1234  2.3111 -0.4655
  415MOL0     H57257   7.277   7.435   1.544  0.6681 -0.5168  2.1915
  415MOL0     H57258   7.307   7.476   1.751 -0.0905  1.8796  1.0717
  415MOL0     H57259   7.463   7.401   1.721 -2.5971 -1.7850 -0.0844
  415MOL0     H57260   7.557   7.508   1.926 -0.5214 -3.6492 -0.5647
  415MOL0     H57261   7.424   7.412   1.958  0.5492 -1.3853 -1.8071
  415MOL0     H57262   7.258   7.611   1.943  0.0468  1.7408  0.2646
  415MOL0     H57263   7.363   7.595   2.084  0.4936 -1.3431  0.1501
  415MOL0     H57264   7.338   7.822   1.982  0.7740 -1.2914  2.7162
  415MOL0     H57265   7.422   7.773   1.837 -0.1363  2.4150  0.0587
  415MOL0     H57266   7.745   7.811   2.096  1.4620 -1.3123 -3.3510
  415MOL0     H57267   7.636   7.691   1.521  1.6054  1.8549 -3.2677
  415MOL0     H57268   7.759   7.612   1.273 -2.8578 -3.1051 -1.7801
  415MOL0     H57269   7.647   7.690   1.157  0.8594  0.6411  0.0378
  415MOL0     H57270   7.704   7.774   1.309  2.6856 -0.2550  0.6001
  416MOL0     O57271  10.427   4.803   9.231 -0.3473  0.0095 -0.0771
  416MOL0     C57272  10.542   4.769   9.253  0.0206  0.3640 -0.3048
  416MOL0     O57273  10.634   4.835   9.335  0.0582 -0.3272 -0.5702
  416MOL0     C57274  10.609   4.960   9.373 -0.5851  0.5697  0.2402
  416MOL0     C57275  10.706   5.004   9.462 -0.2838  0.5231 -0.5265
  416MOL0     C57276  10.695   5.133   9.516 -0.7523 -0.3944 -0.0339
  416MOL0     C57277  10.592   5.224   9.479  0.0869 -0.9222  0.1200
  416MOL0     O57278  10.619   5.351   9.529 -0.6125 -0.5314  0.2968
  416MOL0     C57279  10.503   5.436   9.567  0.5921  0.1647  0.0135
  416MOL0     C57280  10.529   5.494   9.710  1.3396  0.0064  0.8205
  416MOL0     C57281  10.463   5.425   9.821 -0.3117 -0.2026 -0.2724
  416MOL0     C57282  10.544   5.302   9.863  0.7743 -0.3646 -0.8140
  416MOL0     C57283  10.453   5.196   9.935 -0.2344  0.5594 -0.1918
  416MOL0     C57284  10.539   5.076   9.997 -0.3501 -0.3953  0.8033
  416MOL0     C57285  10.617   4.982   9.904 -0.5107 -0.3091  0.6250
  416MOL0     C57286  10.752   5.034   9.871 -0.1623  0.3657  0.1325
  416MOL0     N57287  10.848   5.020   9.980  0.2913  0.2644 -0.1506
  416MOL0     C57288  10.990   5.047   9.966 -0.5381 -0.7157  0.4466
  416MOL0     C57289  11.030   5.077  10.092 -0.1752  0.4335  0.0035
  416MOL0     C57290  11.166   5.120  10.147  0.3732 -0.8205 -0.2673
  416MOL0     C57291  11.282   5.042  10.081 -0.0274  0.4541  0.0360
  416MOL0     C57292  11.293   4.894  10.137 -0.5726  0.2402 -0.0972
  416MOL0     C57293  11.376   4.878  10.263 -0.8601 -1.7626  0.1505
  416MOL0     O57294  11.509   4.930  10.248  0.1462 -0.0993  0.3108
  416MOL0     C57295  11.594   4.933  10.350 -0.0088  0.3124  0.8216
  416MOL0     C57296  11.565   4.888  10.477 -0.1240 -0.2453  0.3087
  416MOL0     C57297  11.660   4.904  10.585 -0.1536 -0.3457 -0.2451
  416MOL0     C57298  11.610   4.869  10.722 -0.8387  0.2879 -0.3743
  416MOL0     C57299  11.784   4.963  10.561  0.0212 -0.3186 -0.6568
  416MOL0     C57300  11.878   4.993  10.667  0.0162 -0.1035 -0.3513
  416MOL0     O57301  11.930   5.120  10.659  0.2659  0.4213  0.4290
  416MOL0     C57302  12.037   5.142  10.738  0.0454  0.0407  0.3665
  416MOL0     C57303  12.163   5.118  10.685  0.5082 -0.6792 -0.1413
  416MOL0     C57304  12.278   5.142  10.761  0.0515  0.0677 -0.6165
  416MOL0     C57305  12.271   5.195  10.889 -0.1305 -0.0117 -0.4793
  416MOL0     O57306  12.372   5.229  10.969  0.9723 -0.4353 -0.0365
  416MOL0     C57307  12.506   5.235  10.927 -0.8290  0.3658  0.7967
  416MOL0     C57308  12.603   5.284  11.042  0.0506  0.6759  1.1062
  416MOL0     C57309  12.751   5.270  10.996  0.2347  0.2608  0.7864
  416MOL0     C57310  12.846   5.334  11.090  0.7042 -0.2015 -0.0314
  416MOL0     C57311  12.926   5.246  11.189 -0.1965 -0.2277  0.1262
  416MOL0     C57312  13.033   5.158  11.123  0.6254 -1.0655 -0.7742
  416MOL0     C57313  13.087   5.054  11.217  0.6058  0.0788 -1.2361
  416MOL0     C57314  13.181   4.956  11.143 -0.4980 -0.4741  0.3761
  416MOL0    Cl57315  13.313   4.899  11.239  0.1278  0.4807 -0.0011
  416MOL0     C57316  12.151   5.220  10.947 -0.3361 -0.2823  0.4415
  416MOL0     C57317  12.033   5.193  10.873  0.7895  0.0129  0.0847
  416MOL0     O57318  11.893   4.909  10.754  0.7049 -0.1795  0.7109
  416MOL0     C57319  11.815   5.004  10.429  0.2189  0.0451  0.5572
  416MOL0     C57320  11.716   4.994  10.329 -0.1971  0.0280 -0.4333
  416MOL0     N57321  10.922   5.071  10.176  0.2878 -0.0155 -0.4258
  416MOL0     N57322  10.817   5.030  10.110  0.5305  0.0848 -0.0604
  416MOL0     C57323  10.502   5.188   9.378  0.1626  0.2813  0.2731
  416MOL0     C57324  10.513   5.055   9.330  1.0223 -0.4939 -0.2481
  416MOL0     C57325  10.593   4.642   9.194 -0.2857 -0.4612  0.4890
  416MOL0     C57326  10.733   4.625   9.199  0.1371 -0.0121  0.0289
  416MOL0     C57327  10.792   4.516   9.137 -0.6268 -0.7318  0.2297
  416MOL0     C57328  10.719   4.407   9.091  0.3789  0.1545 -0.2458
  416MOL0     O57329  10.764   4.287   9.056 -0.6219  0.3353 -0.0603
  416MOL0     C57330  10.864   4.236   9.147  0.1833  0.0128 -0.8628
  416MOL0     C57331  10.816   4.102   9.218 -0.0292 -0.4209  0.1568
  416MOL0     C57332  10.676   4.112   9.284 -0.2925  1.1064  0.2260
  416MOL0     C57333  10.662   4.213   9.391 -0.1854  0.3887 -0.3353
  416MOL0     C57334  10.761   4.193   9.500 -0.5761  0.5069  0.2467
  416MOL0     C57335  10.844   4.175   9.595 -0.1532 -0.3283  0.4472
  416MOL0     C57336  10.583   4.430   9.078 -0.6319  0.5428  0.9658
  416MOL0     C57337  10.513   4.543   9.125 -0.2557 -0.5733 -0.1132
  416MOL0     C57338  10.365   4.558   9.104 -0.2665  1.4235  0.5171
  416MOL0     H57339  10.786   4.938   9.492 -1.5534 -0.6949  0.2872
  416MOL0     H57340  10.760   5.166   9.596 -1.0263 -1.3619  0.6009
  416MOL0     H57341  10.414   5.372   9.563 -0.1657  1.2357 -1.0452
  416MOL0     H57342  10.493   5.520   9.497  3.9770 -0.2022 -1.1107
  416MOL0     H57343  10.637   5.502   9.724  1.9666  1.3479 -3.3284
  416MOL0     H57344  10.494   5.598   9.711  1.9403  0.2290 -0.3652
  416MOL0     H57345  10.462   5.486   9.912 -1.1391 -1.2461  0.4609
  416MOL0     H57346  10.358   5.407   9.794 -0.2372  0.7927 -1.2820
  416MOL0     H57347  10.586   5.265   9.769  0.0779 -0.5593 -1.0539
  416MOL0     H57348  10.620   5.331   9.936 -2.0143  0.2772  2.0382
  416MOL0     H57349  10.372   5.172   9.865 -0.4658  1.8529 -0.3889
  416MOL0     H57350  10.404   5.244  10.020  1.5658 -0.0419  1.2509
  416MOL0     H57351  10.604   5.117  10.074  1.1829  0.0475 -0.6705
  416MOL0     H57352  10.453   5.019  10.032 -2.3469 -0.5878 -3.6944
  416MOL0     H57353  10.558   4.977   9.812  1.6263  1.1195 -0.9267
  416MOL0     H57354  10.629   4.881   9.944  2.1151 -0.7082 -0.9975
  416MOL0     H57355  10.792   4.980   9.785 -0.6947  0.2779 -0.0683
  416MOL0     H57356  10.752   5.141   9.848  2.4798  0.5920  0.9119
  416MOL0     H57357  11.063   5.047   9.885 -1.5767  0.9177 -0.5623
  416MOL0     H57358  11.174   5.111  10.256  1.5583  2.0743 -0.0208
  416MOL0     H57359  11.179   5.227  10.130  0.8732 -0.9735 -0.8699
  416MOL0     H57360  11.284   5.023   9.973  1.1829 -0.5328  0.2174
  416MOL0     H57361  11.373   5.096  10.106  0.2473  0.4271 -0.8558
  416MOL0     H57362  11.192   4.855  10.154  0.5982 -2.8380  0.5312
  416MOL0     H57363  11.345   4.827  10.068 -1.0696  1.9464 -2.2329
  416MOL0     H57364  11.326   4.934  10.343  0.3438  3.5483 -2.4206
  416MOL0     H57365  11.400   4.774  10.286  2.0589 -0.9518  1.1653
  416MOL0     H57366  11.472   4.849  10.516  0.2937 -0.3700  1.2255
  416MOL0     H57367  11.642   4.938  10.801  0.4418  0.0852 -0.6833
  416MOL0     H57368  11.634   4.767  10.752 -2.5873  0.4336  1.7866
  416MOL0     H57369  11.502   4.877  10.735 -0.9725 -0.9583 -0.6087
  416MOL0     H57370  12.164   5.088  10.580 -2.4158 -0.8679 -0.2082
  416MOL0     H57371  12.378   5.107  10.737  1.7738  0.6710  4.3944
  416MOL0     H57372  12.549   5.136  10.908 -0.0100  1.0086 -0.8187
  416MOL0     H57373  12.514   5.297  10.837 -1.4469 -1.6474 -0.7054
  416MOL0     H57374  12.585   5.389  11.067  0.1913  1.1778 -0.7154
  416MOL0     H57375  12.589   5.227  11.134 -2.7034 -2.3227 -0.9316
  416MOL0     H57376  12.766   5.324  10.902  0.4678 -0.8816  0.1515
  416MOL0     H57377  12.783   5.166  10.984 -0.6050 -0.0539  1.2020
  416MOL0     H57378  12.794   5.407  11.153 -1.8267  1.4883 -3.6892
  416MOL0     H57379  12.913   5.395  11.030  2.9052 -3.1999 -0.8228
  416MOL0     H57380  12.976   5.316  11.256 -0.1539  1.2019 -1.3237
  416MOL0     H57381  12.858   5.192  11.255 -0.3389 -2.1718 -1.5029
  416MOL0     H57382  13.116   5.226  11.103  0.2146 -0.2100  0.3245
  416MOL0     H57383  13.006   5.103  11.032 -0.3569 -1.6993 -0.1171
  416MOL0     H57384  13.004   4.995  11.256  0.3644  0.5462 -1.0369
  416MOL0     H57385  13.140   5.089  11.306 -1.1876 -2.3538  0.9678
  416MOL0     H57386  13.213   4.991  11.044  0.3876 -3.7448 -0.6263
  416MOL0     H57387  13.107   4.876  11.134 -1.7394  0.5878  0.8589
  416MOL0     H57388  12.144   5.258  11.048  2.1699 -0.0046  0.5824
  416MOL0     H57389  11.936   5.206  10.919  1.4830 -1.0088  1.9373
  416MOL0     H57390  11.897   5.066  10.393 -1.8085  2.4267 -0.2546
  416MOL0     H57391  11.732   5.019  10.224  0.7554  0.8241 -0.1107
  416MOL0     H57392  10.444   5.268   9.334 -0.7014 -0.3379  0.2672
  416MOL0     H57393  10.441   5.020   9.256 -0.3511 -0.5124  1.0383
  416MOL0     H57394  10.794   4.704   9.240 -2.4381  0.9244  2.3476
  416MOL0     H57395  10.901   4.520   9.138 -0.6130  3.5405 -0.1356
  416MOL0     H57396  10.959   4.221   9.095  1.0518 -2.1838  1.1478
  416MOL0     H57397  10.890   4.300   9.232 -0.6118 -2.9735  1.8336
  416MOL0     H57398  10.889   4.076   9.295  0.0926  0.4510  0.3438
  416MOL0     H57399  10.824   4.016   9.151 -1.3919 -0.1828 -0.3342
  416MOL0     H57400  10.605   4.127   9.203  0.8800  0.6367 -0.9192
  416MOL0     H57401  10.655   4.009   9.316 -2.4894  0.9952 -1.3668
  416MOL0     H57402  10.558   4.212   9.424 -0.2545  1.3303 -0.4799
  416MOL0     H57403  10.669   4.320   9.366 -1.4335  0.2870 -1.2207
  416MOL0     H57404  10.909   4.148   9.675 -0.1815 -0.7286  0.3407
  416MOL0     H57405  10.532   4.344   9.034 -0.5709  1.0478 -0.1156
  416MOL0     H57406  10.348   4.615   9.013  3.9009  1.2793 -0.5413
  416MOL0     H57407  10.326   4.459   9.079  2.6635 -0.1788  1.8247
  416MOL0     H57408  10.313   4.590   9.195 -2.4117  0.9683 -0.4824
  417MOL0     O57409   0.549   5.270   3.128 -0.4127  0.2992 -0.9888
  417MOL0     C57410   0.554   5.173   3.058  0.1016 -0.1341 -0.6870
  417MOL0     O57411   0.460   5.142   2.960 -0.5211  0.3452  0.3588
  417MOL0     C57412   0.380   5.240   2.923  0.0008 -0.4230  0.8187
  417MOL0     C57413   0.245   5.207   2.899 -0.0632  1.2407  0.7353
  417MOL0     C57414   0.163   5.299   2.845  0.4638  0.2761  0.1786
  417MOL0     C57415   0.210   5.415   2.785  0.1231  0.8025 -0.2232
  417MOL0     O57416   0.125   5.502   2.718 -0.3274  1.0709  0.0362
  417MOL0     C57417   0.196   5.600   2.631  0.6828 -0.5398  0.0333
  417MOL0     C57418   0.097   5.640   2.522 -0.4479  0.3793  0.7796
  417MOL0     C57419   0.154   5.747   2.434 -0.1812  0.2931 -1.4130
  417MOL0     C57420   0.055   5.783   2.330  0.3203 -0.2134  0.7703
  417MOL0     C57421  -0.066   5.876   2.371 -0.4216  0.8052  0.4128
  417MOL0     C57422  -0.138   5.924   2.245  0.6966  0.3648 -0.0225
  417MOL0     C57423  -0.285   5.973   2.283 -0.3129 -0.2296 -0.9661
  417MOL0     C57424  -0.362   6.046   2.181 -0.2505  0.1249  0.3017
  417MOL0     N57425  -0.371   5.970   2.051 -0.1258  0.9618 -0.7649
  417MOL0     C57426  -0.417   5.836   2.033 -0.2861 -0.1772  0.5543
  417MOL0     C57427  -0.396   5.806   1.905 -1.2574  0.2615 -1.0562
  417MOL0     C57428  -0.422   5.668   1.848 -0.7464 -0.0387  0.0355
  417MOL0     C57429  -0.306   5.570   1.845  0.0320  0.1168 -0.1473
  417MOL0     C57430  -0.213   5.594   1.733  0.1646 -0.3320  0.2838
  417MOL0     C57431  -0.090   5.496   1.730  0.3228  0.4841  0.1211
  417MOL0     O57432  -0.133   5.356   1.750  0.2595  0.3967  0.7381
  417MOL0     C57433  -0.049   5.258   1.778 -0.9456  0.0941 -0.4324
  417MOL0     C57434  -0.089   5.128   1.800 -1.0913 -0.1335  0.1339
  417MOL0     C57435   0.003   5.031   1.855 -0.5878 -0.1435  0.9604
  417MOL0     C57436  -0.065   4.904   1.888  0.8716 -0.3823 -0.4547
  417MOL0     C57437   0.142   5.060   1.873  0.5458 -0.1163 -0.2628
  417MOL0     C57438   0.235   4.972   1.919  0.4868  0.2166 -1.0765
  417MOL0     O57439   0.196   4.890   2.022 -0.6335 -0.3302 -0.2753
  417MOL0     C57440   0.279   4.806   2.097 -0.0768  0.5953  0.1978
  417MOL0     C57441   0.393   4.854   2.156 -0.8924 -0.6450  0.2318
  417MOL0     C57442   0.474   4.781   2.241  0.1378  1.0561 -0.5319
  417MOL0     C57443   0.432   4.647   2.264  0.2779  0.5794 -0.2355
  417MOL0     O57444   0.512   4.583   2.358 -0.1358 -0.0370  0.0886
  417MOL0     C57445   0.457   4.466   2.418 -0.3126 -0.8162 -1.0329
  417MOL0     C57446   0.562   4.413   2.518  0.0233 -0.9840  0.5167
  417MOL0     C57447   0.518   4.282   2.607 -0.7733 -1.1901  0.3514
  417MOL0     C57448   0.380   4.280   2.660  0.1741  0.2965 -0.9062
  417MOL0     C57449   0.375   4.179   2.775 -0.0696 -0.1511 -0.1439
  417MOL0     C57450   0.352   4.038   2.715  0.2141 -0.1292  0.1838
  417MOL0     C57451   0.275   3.941   2.808 -0.5762 -1.3498  0.8445
  417MOL0     C57452   0.345   3.943   2.943 -0.0090  0.5961  0.1691
  417MOL0    Cl57453   0.321   3.794   3.032  0.2062 -0.2899  0.0842
  417MOL0     C57454   0.314   4.600   2.205 -0.2835 -0.0442  0.6645
  417MOL0     C57455   0.238   4.676   2.119 -0.7259  0.8381 -0.0888
  417MOL0     O57456   0.346   4.976   1.874  0.6001  0.6654 -0.0819
  417MOL0     C57457   0.182   5.187   1.839  0.0230 -0.9753  0.2730
  417MOL0     C57458   0.089   5.275   1.794 -0.6495 -0.8171 -0.4433
  417MOL0     N57459  -0.342   5.919   1.842  0.2514 -0.7114 -0.1136
  417MOL0     N57460  -0.315   6.003   1.937 -0.0615  0.0535  0.0412
  417MOL0     C57461   0.342   5.452   2.815  0.0232  0.8902  0.4883
  417MOL0     C57462   0.424   5.365   2.873 -0.7079  0.7452  0.3098
  417MOL0     C57463   0.651   5.066   3.100  0.2354 -0.0525  0.3353
  417MOL0     C57464   0.613   4.929   3.126 -0.1673 -0.4158 -0.5613
  417MOL0     C57465   0.707   4.830   3.146 -0.3491 -0.0420  1.0332
  417MOL0     C57466   0.846   4.857   3.131 -0.8343  0.8803 -0.1652
  417MOL0     O57467   0.940   4.758   3.128  0.7206 -0.2381  0.4051
  417MOL0     C57468   0.910   4.655   3.038 -0.3351 -0.9776 -0.0672
  417MOL0     C57469   1.034   4.586   2.990 -0.7656  0.5679 -1.2671
  417MOL0     C57470   1.132   4.683   2.913 -0.2755  0.2668  0.5203
  417MOL0     C57471   1.233   4.613   2.824  0.8018  0.4157  0.3113
  417MOL0     C57472   1.268   4.478   2.867 -0.3736  0.1209 -0.4316
  417MOL0     C57473   1.283   4.367   2.912  0.3963 -0.4283 -0.7614
  417MOL0     C57474   0.883   4.992   3.109  0.1370 -0.0541 -0.6091
  417MOL0     C57475   0.790   5.097   3.093  0.2336  0.2339 -0.2169
  417MOL0     C57476   0.854   5.230   3.075 -0.0645 -0.2137  0.8662
  417MOL0     H57477   0.207   5.111   2.933  2.4402  0.4178  1.4196
  417MOL0     H57478   0.064   5.261   2.825  0.8560  0.2260 -1.8943
  417MOL0     H57479   0.287   5.566   2.581  1.7237 -1.2228  2.2579
  417MOL0     H57480   0.223   5.689   2.688 -1.0401 -0.4123  0.7062
  417MOL0     H57481   0.069   5.550   2.466 -0.4218  0.1784  1.0844
  417MOL0     H57482   0.008   5.683   2.568  0.2735  0.5796  2.0511
  417MOL0     H57483   0.177   5.833   2.497  1.6103 -2.0091  1.2825
  417MOL0     H57484   0.251   5.719   2.393  0.0290 -0.7665 -0.2629
  417MOL0     H57485   0.108   5.843   2.255 -1.9817  1.3765  0.3158
  417MOL0     H57486   0.014   5.698   2.275 -0.1688 -0.7566  1.9494
  417MOL0     H57487  -0.024   5.962   2.424  2.3983  1.3101 -2.3340
  417MOL0     H57488  -0.123   5.819   2.445  2.9664 -1.5389  1.4232
  417MOL0     H57489  -0.086   6.005   2.193 -1.0405 -0.3486 -3.1236
  417MOL0     H57490  -0.157   5.837   2.181 -1.7523  1.0658 -0.3711
  417MOL0     H57491  -0.279   6.038   2.371 -0.1921 -0.2981 -0.9240
  417MOL0     H57492  -0.353   5.892   2.311 -1.8368  2.0830  2.8247
  417MOL0     H57493  -0.460   6.075   2.219  0.4346  1.3728  1.1767
  417MOL0     H57494  -0.313   6.143   2.164  0.4336  0.3050  2.9412
  417MOL0     H57495  -0.465   5.769   2.104 -1.1620  0.2984  0.4216
  417MOL0     H57496  -0.468   5.690   1.751 -3.5254 -1.8811  0.7966
  417MOL0     H57497  -0.509   5.621   1.894  0.1728 -4.1983 -1.9869
  417MOL0     H57498  -0.261   5.580   1.944  1.9943 -2.0986 -0.7288
  417MOL0     H57499  -0.354   5.472   1.839 -0.8397  0.5717 -0.8461
  417MOL0     H57500  -0.270   5.591   1.639 -0.8743  2.0445  0.7638
  417MOL0     H57501  -0.170   5.694   1.733 -1.1841  0.2833  1.3182
  417MOL0     H57502  -0.033   5.497   1.637 -1.8065  2.0581 -1.2734
  417MOL0     H57503  -0.020   5.524   1.809  0.8411  1.0446 -0.5183
  417MOL0     H57504  -0.197   5.122   1.798 -1.1213  0.4537 -1.9365
  417MOL0     H57505  -0.001   4.817   1.906 -0.0398 -1.0036 -0.1263
  417MOL0     H57506  -0.137   4.870   1.812 -3.4603 -2.2843  3.9529
  417MOL0     H57507  -0.126   4.926   1.976 -1.7429  1.4832 -2.5453
  417MOL0     H57508   0.414   4.957   2.130 -0.0803 -0.1977  2.3877
  417MOL0     H57509   0.557   4.827   2.293  0.6327  0.2057 -0.5521
  417MOL0     H57510   0.361   4.488   2.467  0.6203  1.4338 -0.1028
  417MOL0     H57511   0.440   4.391   2.340 -0.2059 -2.0202  0.0536
  417MOL0     H57512   0.657   4.395   2.466  0.5986  0.8311  0.8336
  417MOL0     H57513   0.570   4.495   2.590 -1.1186  0.4718 -0.9327
  417MOL0     H57514   0.588   4.262   2.688 -1.0265 -2.2236  0.3357
  417MOL0     H57515   0.540   4.192   2.548 -0.1568 -1.5252  1.0754
  417MOL0     H57516   0.303   4.262   2.585 -0.1282  2.1967 -1.0921
  417MOL0     H57517   0.357   4.372   2.714 -1.6088 -0.0525 -1.0249
  417MOL0     H57518   0.453   4.189   2.851 -1.4296  1.1441  1.1463
  417MOL0     H57519   0.293   4.193   2.846  3.3494  3.5874  3.6311
  417MOL0     H57520   0.452   4.003   2.690 -0.1187 -2.4323  1.7003
  417MOL0     H57521   0.297   4.043   2.621  0.9709  1.5428 -0.1993
  417MOL0     H57522   0.282   3.848   2.751  0.6288 -1.6478  1.4489
  417MOL0     H57523   0.171   3.974   2.799 -0.5439 -1.6965 -1.4136
  417MOL0     H57524   0.310   4.023   3.008  0.3514  0.6011  0.3576
  417MOL0     H57525   0.453   3.949   2.928  0.7695 -4.2546  1.9162
  417MOL0     H57526   0.299   4.492   2.209  1.0240 -0.4351 -2.6253
  417MOL0     H57527   0.155   4.628   2.068  1.6515 -2.5047 -1.1483
  417MOL0     H57528   0.288   5.204   1.854 -0.4969  1.4996  1.7325
  417MOL0     H57529   0.119   5.379   1.779 -0.7057 -0.1770  3.0432
  417MOL0     H57530   0.393   5.543   2.785  0.9627  0.9506  2.1376
  417MOL0     H57531   0.519   5.415   2.891 -1.7067  4.0618 -2.4757
  417MOL0     H57532   0.506   4.917   3.119 -0.7014  3.1700 -0.5365
  417MOL0     H57533   0.677   4.726   3.160  0.3065 -0.9307 -2.9568
  417MOL0     H57534   0.845   4.583   3.088 -0.7207 -1.5979 -1.3976
  417MOL0     H57535   0.865   4.699   2.948  0.9656  2.4561  0.8084
  417MOL0     H57536   1.011   4.505   2.920 -1.9271 -1.9077  1.7555
  417MOL0     H57537   1.093   4.542   3.071 -2.0208  0.5442 -0.3274
  417MOL0     H57538   1.069   4.754   2.858 -1.4783 -2.3098 -1.6704
  417MOL0     H57539   1.182   4.750   2.983  3.1004 -0.7914 -0.7172
  417MOL0     H57540   1.324   4.674   2.820  0.3716  1.0269 -0.8297
  417MOL0     H57541   1.195   4.612   2.721  0.0372  4.4710  0.3895
  417MOL0     H57542   1.306   4.282   2.973 -2.6169 -2.4821 -2.2706
  417MOL0     H57543   0.988   5.020   3.104 -0.2402  1.4246 -0.7119
  417MOL0     H57544   0.880   5.259   3.178 -0.4155  3.2451  0.0965
  417MOL0     H57545   0.931   5.227   2.997  0.7587  1.7552  1.5366
  417MOL0     H57546   0.792   5.314   3.044  1.5029 -0.1690 -2.5745
  418MOL0     O57547  10.256   4.738   5.820  0.3104  0.3820  0.3865
  418MOL0     C57548  10.261   4.625   5.768  0.4604 -0.0991 -0.2115
  418MOL0     O57549  10.219   4.505   5.831 -0.1270  0.1935  0.2279
  418MOL0     C57550  10.111   4.506   5.916 -0.0991 -0.6221  0.4705
  418MOL0     C57551  10.011   4.607   5.916 -0.2864 -0.4881 -0.1711
  418MOL0     C57552   9.901   4.599   6.000  0.9454 -0.0175  1.0524
  418MOL0     C57553   9.886   4.483   6.084 -1.1356  0.2752  0.1398
  418MOL0     O57554   9.796   4.467   6.186 -0.7159 -0.8486 -0.2817
  418MOL0     C57555   9.672   4.529   6.151 -0.2531  0.5875 -0.2227
  418MOL0     C57556   9.560   4.471   6.243 -0.5746  0.2907 -0.2026
  418MOL0     C57557   9.546   4.324   6.194  0.3596 -0.7756  0.2486
  418MOL0     C57558   9.404   4.272   6.227  0.1451  0.0045 -0.0469
  418MOL0     C57559   9.390   4.121   6.174 -0.4424  0.2244 -0.0903
  418MOL0     C57560   9.238   4.096   6.163  0.4368 -0.4228  0.0680
  418MOL0     C57561   9.218   3.939   6.128  0.7581 -1.2543 -0.0766
  418MOL0     C57562   9.075   3.899   6.161 -0.6733 -0.1569  0.1524
  418MOL0     N57563   9.058   3.762   6.108  1.1807  0.0919 -0.2699
  418MOL0     C57564   9.136   3.655   6.137 -0.1592 -0.8309 -0.1243
  418MOL0     C57565   9.084   3.550   6.070 -0.4117 -0.2854 -0.6597
  418MOL0     C57566   9.127   3.411   6.032  0.2549  0.2051 -0.6357
  418MOL0     C57567   9.235   3.403   5.921 -0.3513  0.3678  0.2130
  418MOL0     C57568   9.369   3.472   5.960  0.4917  0.0141  0.1907
  418MOL0     C57569   9.467   3.462   5.849 -0.2426 -0.1164  0.1160
  418MOL0     O57570   9.602   3.491   5.898  0.5672 -0.2775  0.6646
  418MOL0     C57571   9.671   3.408   5.970  0.3599  0.6076 -0.5139
  418MOL0     C57572   9.775   3.462   6.040  0.9910  0.9882 -1.1041
  418MOL0     C57573   9.848   3.378   6.134  1.0694 -0.5190  0.8679
  418MOL0     C57574   9.949   3.437   6.221 -0.0185 -0.5860 -0.2597
  418MOL0     C57575   9.808   3.240   6.148  0.8898 -0.0702  0.7709
  418MOL0     C57576   9.872   3.140   6.243 -0.1082  0.1760 -0.1607
  418MOL0     O57577   9.808   3.102   6.360  0.6534  0.2838  0.8494
  418MOL0     C57578   9.862   3.001   6.436 -0.0584  0.2896 -0.0738
  418MOL0     C57579   9.997   2.987   6.477 -0.8076 -0.0380 -0.1210
  418MOL0     C57580  10.049   2.878   6.551 -0.2410  0.6521  0.8895
  418MOL0     C57581   9.962   2.776   6.596 -0.1744  0.3072  0.1112
  418MOL0     O57582  10.018   2.672   6.669  0.0592  0.0082  0.3030
  418MOL0     C57583   9.933   2.558   6.676 -0.3903  0.1660 -0.6175
  418MOL0     C57584  10.020   2.444   6.740 -0.0460  0.3184 -0.5891
  418MOL0     C57585   9.934   2.327   6.788 -0.5927  0.5370  0.4025
  418MOL0     C57586  10.036   2.238   6.859  0.7341  1.2316 -0.9427
  418MOL0     C57587   9.965   2.117   6.917  0.3561  0.0682  1.1506
  418MOL0     C57588  10.052   2.031   7.014  0.5301 -0.0919  0.2423
  418MOL0     C57589  10.100   2.106   7.137  0.1218  0.8841  0.6370
  418MOL0     C57590  10.013   2.082   7.261  0.3653  0.1452 -0.6195
  418MOL0    Cl57591   9.973   1.911   7.288  0.0696  0.4400  0.1677
  418MOL0     C57592   9.827   2.789   6.558 -0.3247  0.4910 -0.3045
  418MOL0     C57593   9.774   2.901   6.483  0.1786  0.4043  0.1769
  418MOL0     O57594   9.976   3.092   6.201 -0.2896  0.3144  0.6459
  418MOL0     C57595   9.699   3.198   6.069  0.2669  0.1989 -0.0347
  418MOL0     C57596   9.634   3.274   5.976  0.5767 -0.3072 -0.2338
  418MOL0     N57597   8.968   3.602   5.999 -0.1847 -0.9132 -0.4342
  418MOL0     N57598   8.951   3.730   6.023  0.6047 -0.0425 -0.0372
  418MOL0     C57599   9.984   4.381   6.078  0.0413 -0.3119  0.4539
  418MOL0     C57600  10.091   4.387   5.988  0.2000  0.2524  0.1978
  418MOL0     C57601  10.303   4.623   5.629  0.5548 -0.6319 -0.2147
  418MOL0     C57602  10.260   4.516   5.552  0.1344 -0.1640 -0.7696
  418MOL0     C57603  10.283   4.505   5.413  0.5147  0.9325  0.1050
  418MOL0     C57604  10.340   4.609   5.348  0.6427 -0.0345  0.5901
  418MOL0     O57605  10.384   4.612   5.219 -0.0549 -0.2117  0.4521
  418MOL0     C57606  10.403   4.487   5.142 -0.1136 -0.7368 -0.2609
  418MOL0     C57607  10.260   4.462   5.078  0.4053  0.6592 -0.5831
  418MOL0     C57608  10.217   4.593   5.007 -0.6180  0.7691  0.1127
  418MOL0     C57609  10.088   4.658   5.070  0.3105 -0.1843 -0.0746
  418MOL0     C57610   9.960   4.589   5.041 -0.0959  0.8242  0.4137
  418MOL0     C57611   9.855   4.536   5.017  0.4045 -0.3940  1.0610
  418MOL0     C57612  10.391   4.720   5.423  0.3264  0.2542 -0.3093
  418MOL0     C57613  10.378   4.721   5.562 -0.0375 -0.6429  0.5367
  418MOL0     C57614  10.442   4.847   5.623 -0.2940  0.6015  0.0029
  418MOL0     H57615  10.030   4.705   5.874  0.3024  0.1622  1.5156
  418MOL0     H57616   9.830   4.680   5.996  0.7218 -0.0488 -5.0235
  418MOL0     H57617   9.656   4.505   6.046  0.8717 -1.7306  0.0636
  418MOL0     H57618   9.671   4.636   6.171 -2.8824  0.3763  1.1704
  418MOL0     H57619   9.588   4.482   6.348 -0.4539  1.8771 -0.3779
  418MOL0     H57620   9.470   4.529   6.219  0.5596  1.6042 -1.4698
  418MOL0     H57621   9.560   4.320   6.085  0.7990  3.3411 -0.0075
  418MOL0     H57622   9.629   4.264   6.232  0.4412  0.1443  1.5586
  418MOL0     H57623   9.391   4.268   6.336 -0.5443 -2.0387 -0.1738
  418MOL0     H57624   9.321   4.331   6.187 -2.4338 -2.3303  1.4927
  418MOL0     H57625   9.437   4.055   6.248 -2.7289  0.7890  2.0312
  418MOL0     H57626   9.444   4.094   6.083  1.8235 -0.6109  1.4173
  418MOL0     H57627   9.195   4.112   6.262 -0.9690 -2.5779 -0.1333
  418MOL0     H57628   9.178   4.158   6.096  1.9725  2.2744  1.0458
  418MOL0     H57629   9.280   3.879   6.196  0.0670 -2.8670 -0.8029
  418MOL0     H57630   9.244   3.920   6.024  2.7089  0.6041  0.0055
  418MOL0     H57631   9.070   3.898   6.270  0.3592 -1.5114  0.2170
  418MOL0     H57632   8.997   3.963   6.119 -1.2185 -2.2952 -2.4076
  418MOL0     H57633   9.227   3.669   6.195 -0.2875  1.0524 -0.3106
  418MOL0     H57634   9.044   3.369   5.975  2.2884 -1.8830 -2.2652
  418MOL0     H57635   9.152   3.346   6.116  0.3355  1.1485  0.0912
  418MOL0     H57636   9.255   3.299   5.895 -2.8057  0.3719 -2.1559
  418MOL0     H57637   9.210   3.451   5.826  2.2036 -0.1195 -0.7669
  418MOL0     H57638   9.344   3.576   5.984 -0.4243 -0.6273  2.2144
  418MOL0     H57639   9.408   3.429   6.052  0.2938 -2.8211 -0.9478
  418MOL0     H57640   9.467   3.360   5.811  0.6893 -1.1698  2.6540
  418MOL0     H57641   9.437   3.519   5.761  0.0760 -0.4597 -0.2172
  418MOL0     H57642   9.798   3.568   6.036  2.4007  0.6705 -1.8946
  418MOL0     H57643   9.929   3.398   6.321  1.9399 -1.7772 -0.2810
  418MOL0     H57644   9.947   3.546   6.229 -3.8727 -0.4342 -1.4016
  418MOL0     H57645  10.049   3.406   6.189  0.1558 -0.0932 -0.1934
  418MOL0     H57646  10.069   3.068   6.462 -0.8937  0.0189 -0.2252
  418MOL0     H57647  10.151   2.863   6.586 -0.2018 -1.4769  0.0191
  418MOL0     H57648   9.846   2.566   6.742  2.0462  0.7272  2.8325
  418MOL0     H57649   9.895   2.535   6.576 -1.5203 -3.4688  0.5195
  418MOL0     H57650  10.102   2.418   6.672  1.6569  0.1304  1.4334
  418MOL0     H57651  10.063   2.493   6.827 -0.5263  1.4564 -0.9704
  418MOL0     H57652   9.898   2.270   6.702  2.2152  0.7816 -1.0404
  418MOL0     H57653   9.853   2.355   6.857 -1.7565 -4.0266  1.2668
  418MOL0     H57654  10.076   2.300   6.939 -0.2855  2.1183 -1.1049
  418MOL0     H57655  10.118   2.215   6.790 -0.1732  1.5726 -2.1728
  418MOL0     H57656   9.877   2.145   6.977  0.0528  1.8286 -0.0443
  418MOL0     H57657   9.927   2.052   6.838  1.1433  2.7732 -1.6332
  418MOL0     H57658  10.129   1.976   6.959 -0.4950  0.0216 -1.3708
  418MOL0     H57659   9.983   1.949   7.030  0.1593 -0.2554 -1.8829
  418MOL0     H57660  10.107   2.214   7.119 -0.8615  0.8207 -0.2002
  418MOL0     H57661  10.204   2.076   7.155  0.4638  2.3628  1.3487
  418MOL0     H57662   9.929   2.150   7.246  1.3840  1.3895 -0.8188
  418MOL0     H57663  10.071   2.128   7.342  1.1241 -1.8773  0.0619
  418MOL0     H57664   9.757   2.716   6.597 -0.0271  1.4511  2.2657
  418MOL0     H57665   9.671   2.895   6.450  0.9378 -0.4955 -2.1904
  418MOL0     H57666   9.676   3.092   6.076  2.0438 -0.4430 -2.6043
  418MOL0     H57667   9.549   3.233   5.923  1.3010 -0.0208 -1.6785
  418MOL0     H57668   9.976   4.299   6.149 -1.8070  1.3319  2.2471
  418MOL0     H57669  10.163   4.306   5.989  1.8923  1.6519 -1.2279
  418MOL0     H57670  10.205   4.433   5.595 -1.2089  1.6381  1.1946
  418MOL0     H57671  10.241   4.413   5.372  0.8835  2.0423 -3.0113
  418MOL0     H57672  10.472   4.503   5.059  0.0590 -1.2729 -0.2243
  418MOL0     H57673  10.435   4.394   5.190 -1.6612 -1.9297 -1.4408
  418MOL0     H57674  10.185   4.433   5.152  0.1077  1.0470 -0.7235
  418MOL0     H57675  10.263   4.376   5.011  1.2745 -0.0218  0.3147
  418MOL0     H57676  10.292   4.673   5.010 -0.3047  0.4629  0.7105
  418MOL0     H57677  10.202   4.564   4.903  2.7539  1.8100 -0.7794
  418MOL0     H57678  10.084   4.762   5.039  1.8183  0.2870  1.2054
  418MOL0     H57679  10.110   4.664   5.177  0.9104  3.9082 -0.2981
  418MOL0     H57680   9.771   4.493   4.967 -1.0241  2.8916  0.4218
  418MOL0     H57681  10.450   4.795   5.372 -2.1597  2.1701 -0.5321
  418MOL0     H57682  10.366   4.924   5.635 -0.3117  0.5783  0.0460
  418MOL0     H57683  10.492   4.814   5.715  2.8616  1.9123 -1.1319
  418MOL0     H57684  10.526   4.889   5.569  1.7029  0.7293  2.9665
  419MOL0     O57685   1.743   8.176  10.610  0.3648  0.7837  0.7115
  419MOL0     C57686   1.814   8.276  10.605 -0.5456 -1.1445  0.5053
  419MOL0     O57687   1.951   8.284  10.643 -0.4048  0.0381  0.9344
  419MOL0     C57688   2.003   8.172  10.689  0.7194  0.8533 -0.6474
  419MOL0     C57689   2.091   8.094  10.612 -0.7427 -0.1081 -0.0828
  419MOL0     C57690   2.141   7.976  10.685  0.6249 -0.7328 -0.3868
  419MOL0     C57691   2.109   7.943  10.823 -0.6604 -0.8465 -0.1750
  419MOL0     O57692   2.157   7.825  10.863  0.2580 -0.1087 -0.9452
  419MOL0     C57693   2.112   7.779  10.990  0.3381  0.3731  0.4446
  419MOL0     C57694   2.183   7.652  11.025  0.0771 -0.5757 -0.1408
  419MOL0     C57695   2.153   7.543  10.912  0.3039  0.1701 -0.5186
  419MOL0     C57696   2.005   7.491  10.913 -0.1834  0.1876  0.4702
  419MOL0     C57697   1.988   7.374  10.812 -0.1366  0.0283 -0.1454
  419MOL0     C57698   2.026   7.412  10.672 -0.9150 -0.2828 -0.8209
  419MOL0     C57699   1.964   7.536  10.622 -0.0463 -0.0452  0.0504
  419MOL0     C57700   1.996   7.542  10.466 -0.3361  0.3201 -0.3701
  419MOL0     N57701   2.138   7.568  10.445 -0.1671  0.0429 -0.4377
  419MOL0     C57702   2.225   7.498  10.371 -0.3642  0.0481  0.5793
  419MOL0     C57703   2.343   7.570  10.371 -0.4019  0.3736 -0.4098
  419MOL0     C57704   2.478   7.518  10.309 -0.4166  0.1163  0.2369
  419MOL0     C57705   2.501   7.594  10.181  0.0548  0.9668  1.0120
  419MOL0     C57706   2.385   7.585  10.069  0.4198  0.7103  0.8691
  419MOL0     C57707   2.399   7.698   9.961 -0.6618  0.0946 -0.9099
  419MOL0     O57708   2.514   7.670   9.873 -0.4119  0.2977  0.4426
  419MOL0     C57709   2.591   7.781   9.847  0.0285  0.0104 -0.6796
  419MOL0     C57710   2.537   7.900   9.802  0.8824 -0.0860 -0.3927
  419MOL0     C57711   2.597   8.025   9.792 -1.0050  0.6276  0.4329
  419MOL0     C57712   2.501   8.131   9.744 -0.4258 -0.7055  0.6223
  419MOL0     C57713   2.729   8.028   9.837 -0.7613 -0.6722 -0.9088
  419MOL0     C57714   2.822   8.139   9.823  0.3208 -0.4023  0.7887
  419MOL0     O57715   2.959   8.124   9.843 -0.2039 -0.5738  0.3031
  419MOL0     C57716   3.042   8.227   9.857  0.6157 -0.4352 -0.2591
  419MOL0     C57717   3.173   8.222   9.803  0.4437  0.3447  0.1546
  419MOL0     C57718   3.260   8.331   9.826 -0.1400  0.3566  0.5185
  419MOL0     C57719   3.241   8.431   9.921  0.4572 -0.4860  0.5187
  419MOL0     O57720   3.332   8.535   9.941 -0.0436  0.6961  0.2742
  419MOL0     C57721   3.278   8.668   9.925  0.9501 -0.6647  0.5562
  419MOL0     C57722   3.363   8.749   9.836  0.1130 -0.2857  0.5401
  419MOL0     C57723   3.307   8.893   9.818  0.4432  0.6039  0.6634
  419MOL0     C57724   3.405   8.997   9.758  0.3512 -0.4053 -0.7280
  419MOL0     C57725   3.449   9.102   9.855  0.4262 -0.3782 -0.1670
  419MOL0     C57726   3.576   9.178   9.799  0.3238  0.3948  0.3762
  419MOL0     C57727   3.585   9.315   9.856 -0.3573 -0.1317 -1.1199
  419MOL0     C57728   3.723   9.351   9.903  0.7489 -0.0942 -0.7200
  419MOL0    Cl57729   3.693   9.481  10.023  0.1326  0.1567  0.0580
  419MOL0     C57730   3.117   8.419   9.987  0.0940  0.1176  0.1164
  419MOL0     C57731   3.018   8.328   9.952 -0.5491  0.1602 -0.6716
  419MOL0     O57732   2.771   8.245   9.782 -0.5340 -0.2315  0.3951
  419MOL0     C57733   2.786   7.905   9.879  0.3045  0.4407  0.1241
  419MOL0     C57734   2.725   7.788   9.881 -0.1330 -0.3606 -0.5687
  419MOL0     N57735   2.323   7.684  10.449  0.1304  0.5898  0.0650
  419MOL0     N57736   2.207   7.677  10.495  0.4418  0.2081  0.2673
  419MOL0     C57737   2.031   8.038  10.892  0.5682  0.1211  0.0495
  419MOL0     C57738   1.987   8.155  10.831 -0.3760  0.3575 -0.0982
  419MOL0     C57739   1.757   8.406  10.544  0.0358  0.2776 -0.0856
  419MOL0     C57740   1.848   8.516  10.521 -0.1611 -0.0781  0.0440
  419MOL0     C57741   1.788   8.638  10.469  0.2931 -0.0053  0.4206
  419MOL0     C57742   1.657   8.651  10.436  0.1518  0.0795 -0.7792
  419MOL0     O57743   1.595   8.772  10.402 -0.2474 -0.5690  0.8581
  419MOL0     C57744   1.664   8.890  10.382 -0.0898 -1.2519  0.2358
  419MOL0     C57745   1.574   8.995  10.320  0.7283 -0.1270 -0.3118
  419MOL0     C57746   1.514   8.943  10.186 -0.8681 -0.0052 -0.9949
  419MOL0     C57747   1.463   9.048  10.084 -0.0313 -0.0218  0.1009
  419MOL0     C57748   1.562   9.134  10.020 -0.1468  0.4061 -0.3126
  419MOL0     C57749   1.641   9.215   9.983 -1.1721 -0.3586 -0.1926
  419MOL0     C57750   1.572   8.539  10.447 -0.2198  0.3354 -0.3445
  419MOL0     C57751   1.615   8.422  10.512  0.2162 -1.1929 -0.1520
  419MOL0     C57752   1.504   8.315  10.543 -0.5176 -0.5055  0.3754
  419MOL0     H57753   2.118   8.111  10.508  1.1463 -1.6273  0.0856
  419MOL0     H57754   2.205   7.901  10.638  1.9161 -0.6304  1.1346
  419MOL0     H57755   2.004   7.762  10.984  0.2161  0.8167  1.2556
  419MOL0     H57756   2.126   7.862  11.060  1.3073  0.9229 -0.3494
  419MOL0     H57757   2.289   7.676  11.023 -0.4065  1.7025 -0.4888
  419MOL0     H57758   2.157   7.608  11.122 -0.7611 -0.4711 -0.3059
  419MOL0     H57759   2.187   7.572  10.812  0.9301 -2.9462 -1.3003
  419MOL0     H57760   2.206   7.449  10.929  0.1923  0.1658 -0.1808
  419MOL0     H57761   1.955   7.453  11.003 -0.9586 -0.5931 -0.2648
  419MOL0     H57762   1.937   7.569  10.877 -2.1926 -2.1472 -1.1617
  419MOL0     H57763   1.882   7.349  10.817  0.0458 -0.5503  1.6910
  419MOL0     H57764   2.048   7.284  10.832 -0.5163 -1.0356 -3.2753
  419MOL0     H57765   2.135   7.410  10.673 -0.8507  0.0662  2.4987
  419MOL0     H57766   1.988   7.330  10.609 -2.3533 -1.2398  1.1980
  419MOL0     H57767   1.997   7.626  10.673  0.9895 -0.0684 -0.5512
  419MOL0     H57768   1.855   7.540  10.630  0.0059  0.3326  0.6314
  419MOL0     H57769   1.970   7.440  10.434  1.2322 -2.0864  4.8302
  419MOL0     H57770   1.943   7.626  10.423  1.2988  1.9550  0.6610
  419MOL0     H57771   2.209   7.401  10.325  2.0168 -0.1560  0.0466
  419MOL0     H57772   2.477   7.411  10.286 -0.7484  0.0613  0.4930
  419MOL0     H57773   2.557   7.542  10.382  1.3932  0.9183 -1.8843
  419MOL0     H57774   2.525   7.700  10.190 -3.8543  2.1402 -0.4017
  419MOL0     H57775   2.586   7.542  10.135  0.2420  0.4874  1.8777
  419MOL0     H57776   2.381   7.487  10.019  2.8291  0.9731  0.0164
  419MOL0     H57777   2.291   7.596  10.122  0.3293  1.4312  0.5665
  419MOL0     H57778   2.309   7.713   9.900 -1.9723  1.1668  1.1487
  419MOL0     H57779   2.412   7.795  10.009  0.0263  2.2230 -4.9852
  419MOL0     H57780   2.435   7.887   9.766  0.7498  0.9278 -0.4301
  419MOL0     H57781   2.446   8.171   9.829 -0.9275 -2.2812  1.0754
  419MOL0     H57782   2.425   8.089   9.678  2.2617  0.1403 -3.3718
  419MOL0     H57783   2.559   8.205   9.689 -1.1943 -0.9353 -0.5266
  419MOL0     H57784   3.191   8.142   9.732 -2.9676 -1.4071  1.0368
  419MOL0     H57785   3.348   8.335   9.763  0.1255  1.7196  0.9435
  419MOL0     H57786   3.180   8.667   9.877  1.1343 -2.3940  0.1289
  419MOL0     H57787   3.271   8.721  10.020 -1.2527  0.5356 -0.1957
  419MOL0     H57788   3.465   8.765   9.875 -0.6540  1.7050  1.8916
  419MOL0     H57789   3.377   8.699   9.740  0.6178 -0.4370  0.6892
  419MOL0     H57790   3.264   8.927   9.913 -3.3166  1.7917 -1.2509
  419MOL0     H57791   3.211   8.889   9.765  0.1784 -0.3624  1.1797
  419MOL0     H57792   3.365   9.038   9.665 -0.0031 -1.2022 -0.9419
  419MOL0     H57793   3.500   8.948   9.735  1.1143 -0.0847  1.5293
  419MOL0     H57794   3.368   9.171   9.880  0.4766 -0.7060  0.9636
  419MOL0     H57795   3.489   9.050   9.943  0.8086 -0.9768 -0.6856
  419MOL0     H57796   3.561   9.194   9.691  0.8719  2.0342  0.5120
  419MOL0     H57797   3.670   9.125   9.811  0.8499  1.3395  0.5407
  419MOL0     H57798   3.511   9.323   9.935 -2.5554 -3.1386 -2.6712
  419MOL0     H57799   3.566   9.391   9.779  2.6679 -0.1181 -1.9783
  419MOL0     H57800   3.773   9.397   9.818 -3.2571 -1.4927 -4.1743
  419MOL0     H57801   3.768   9.265   9.952 -0.9355 -0.8916 -0.5032
  419MOL0     H57802   3.104   8.499  10.060  3.1529  2.0566 -1.2347
  419MOL0     H57803   2.930   8.336  10.016  0.8089  2.4140  1.1172
  419MOL0     H57804   2.891   7.897   9.905 -0.3624 -0.1621  2.9831
  419MOL0     H57805   2.786   7.700   9.899  3.1388  1.3202 -2.4071
  419MOL0     H57806   2.015   8.013  10.997 -2.5971 -2.1371 -0.8070
  419MOL0     H57807   1.929   8.231  10.883 -0.7657  1.3188 -1.8505
  419MOL0     H57808   1.955   8.514  10.537 -0.1144  5.3386  2.7703
  419MOL0     H57809   1.856   8.720  10.454  0.1750  0.0339  0.0943
  419MOL0     H57810   1.676   8.924  10.485 -1.6880 -3.9551  1.4164
  419MOL0     H57811   1.757   8.880  10.325 -0.8136 -4.3757 -0.5581
  419MOL0     H57812   1.616   9.095  10.313 -0.3873  0.2368 -3.9080
  419MOL0     H57813   1.489   9.003  10.389  1.9269 -0.3835  1.2541
  419MOL0     H57814   1.584   8.882  10.130 -2.1361 -1.2442 -1.2855
  419MOL0     H57815   1.440   8.874  10.228  0.2262  1.1058  3.2823
  419MOL0     H57816   1.381   9.103  10.131  3.2272  3.3008  2.4123
  419MOL0     H57817   1.424   8.989  10.001 -0.4195 -1.1947  1.0919
  419MOL0     H57818   1.705   9.286   9.933  0.3121 -2.6924 -1.7907
  419MOL0     H57819   1.469   8.550  10.416  0.3964  0.7083 -2.3961
  419MOL0     H57820   1.498   8.239  10.465 -2.6106  0.0579 -0.0805
  419MOL0     H57821   1.517   8.276  10.644 -0.1710  2.6839  1.6942
  419MOL0     H57822   1.398   8.339  10.551 -1.4456 -4.5369  2.9031
  420MOL0     O57823   5.753  10.032  11.117 -0.0185  0.2462  0.5378
  420MOL0     C57824   5.713  10.095  11.017  0.1642 -0.0001 -0.5434
  420MOL0     O57825   5.769  10.213  10.968  0.6680 -0.1341 -0.0900
  420MOL0     C57826   5.887  10.272  11.012  0.2362 -0.3388 -0.2491
  420MOL0     C57827   5.913  10.393  10.961  0.5920  0.6092  0.4940
  420MOL0     C57828   6.021  10.462  10.997  0.1157 -0.4034 -0.3219
  420MOL0     C57829   6.120  10.412  11.077 -0.4711  0.3920  0.2757
  420MOL0     O57830   6.232  10.479  11.101  0.3310  0.1664  0.1241
  420MOL0     C57831   6.255  10.504  11.243 -0.5560 -0.0480 -0.4615
  420MOL0     C57832   6.407  10.545  11.269 -0.0116 -0.8104  0.2406
  420MOL0     C57833   6.420  10.690  11.235 -0.0256 -0.5874  0.3494
  420MOL0     C57834   6.562  10.737  11.264 -1.0811  0.3994  0.4511
  420MOL0     C57835   6.579  10.886  11.300  0.2221  0.4591  0.2518
  420MOL0     C57836   6.696  10.925  11.390 -0.0068 -0.4922  0.0445
  420MOL0     C57837   6.825  10.900  11.317  0.7965  0.9247 -0.5148
  420MOL0     C57838   6.950  10.891  11.414  0.3809 -0.3400  0.5206
  420MOL0     N57839   6.929  10.804  11.523 -0.7695 -0.2095  0.4397
  420MOL0     C57840   6.931  10.672  11.514 -0.0233 -0.0355 -0.1522
  420MOL0     C57841   6.916  10.632  11.645 -0.1415 -0.6170 -0.8445
  420MOL0     C57842   6.903  10.494  11.687 -0.4925 -0.5079  1.0308
  420MOL0     C57843   6.819  10.396  11.601  0.1012  0.3407 -0.5650
  420MOL0     C57844   6.674  10.440  11.605 -0.0694  0.0165 -0.0498
  420MOL0     C57845   6.586  10.327  11.555  0.0949 -0.4243  0.2245
  420MOL0     O57846   6.596  10.291  11.415 -0.4496  0.8582 -0.0901
  420MOL0     C57847   6.671  10.183  11.376 -0.6560  0.7928 -0.1593
  420MOL0     C57848   6.607  10.065  11.367  0.0189  0.5981  0.4671
  420MOL0     C57849   6.664   9.956  11.311 -0.3695 -0.7267  0.6267
  420MOL0     C57850   6.600   9.814  11.324  0.3178 -0.0070 -0.1465
  420MOL0     C57851   6.793   9.957  11.247 -0.5132  0.1206 -0.4329
  420MOL0     C57852   6.865   9.844  11.172  0.5566  0.3353 -0.0552
  420MOL0     O57853   6.974   9.886  11.097  0.4708 -0.1079 -0.2489
  420MOL0     C57854   7.045   9.787  11.026 -0.7581 -0.5991 -0.5009
  420MOL0     C57855   7.103   9.830  10.907  0.0296 -0.0498 -0.4405
  420MOL0     C57856   7.184   9.747  10.835 -0.2348 -0.0703 -0.7238
  420MOL0     C57857   7.213   9.613  10.865 -0.2148  0.1896  0.2020
  420MOL0     O57858   7.284   9.528  10.777 -0.7172  0.0544  0.6406
  420MOL0     C57859   7.256   9.389  10.783  0.1571  0.9643 -0.6872
  420MOL0     C57860   7.364   9.312  10.850  0.9192  0.0978 -0.3082
  420MOL0     C57861   7.327   9.176  10.903 -0.7377  0.2046 -0.3884
  420MOL0     C57862   7.306   9.068  10.791 -0.6123  0.5397  0.3468
  420MOL0     C57863   7.249   8.931  10.848  0.0370 -0.7308 -0.4327
  420MOL0     C57864   7.105   8.943  10.909 -0.3182  0.3630 -0.0127
  420MOL0     C57865   7.066   8.809  10.968  0.1431  0.4630  0.2545
  420MOL0     C57866   6.927   8.831  11.024  0.6717  0.3041 -0.4500
  420MOL0    Cl57867   6.875   8.674  11.097 -0.5841  0.2840 -0.2314
  420MOL0     C57868   7.158   9.577  10.991  0.7336 -0.7533 -0.0709
  420MOL0     C57869   7.076   9.656  11.065  0.9498 -0.1835 -0.2687
  420MOL0     O57870   6.829   9.724  11.181 -0.2438 -0.7310 -0.1084
  420MOL0     C57871   6.851  10.088  11.240  0.4514  0.2503 -0.6572
  420MOL0     C57872   6.796  10.198  11.309  0.4923 -0.6846 -0.4427
  420MOL0     N57873   6.905  10.755  11.729  0.3829  0.4212 -0.1273
  420MOL0     N57874   6.923  10.846  11.649 -0.5306 -0.5994  0.3436
  420MOL0     C57875   6.104  10.280  11.116  0.9489 -0.9238  0.5067
  420MOL0     C57876   5.986  10.198  11.086 -0.3480 -0.2445 -0.2126
  420MOL0     C57877   5.588  10.053  10.958  0.7502 -0.2830 -0.2292
  420MOL0     C57878   5.521  10.141  10.874  0.2327 -0.0234  0.5388
  420MOL0     C57879   5.401  10.114  10.808  0.6045  0.3497 -0.0958
  420MOL0     C57880   5.333   9.987  10.838 -0.0867 -1.0391  0.4392
  420MOL0     O57881   5.218   9.950  10.776 -0.2471 -0.5619 -0.1222
  420MOL0     C57882   5.229   9.903  10.643 -0.0685 -0.6028 -0.0925
  420MOL0     C57883   5.087   9.866  10.607 -0.0427 -0.2441  0.0381
  420MOL0     C57884   5.079   9.816  10.463 -0.1319  0.2188  0.3449
  420MOL0     C57885   4.943   9.749  10.441 -0.9461  0.5945 -0.1707
  420MOL0     C57886   4.932   9.665  10.321  0.5111 -0.0212 -0.7146
  420MOL0     C57887   4.904   9.609  10.223 -0.4074  0.5054  0.3592
  420MOL0     C57888   5.405   9.892  10.912 -0.9504 -0.1786 -0.9548
  420MOL0     C57889   5.526   9.924  10.982 -0.2348  1.0653 -0.2965
  420MOL0     C57890   5.595   9.800  11.048 -0.3836 -0.2329 -0.4338
  420MOL0     H57891   5.846  10.439  10.888  1.2473 -1.5742 -1.6426
  420MOL0     H57892   6.042  10.565  10.970  0.1839 -0.1440  0.7086
  420MOL0     H57893   6.233  10.412  11.298 -3.3244 -1.1266 -3.1555
  420MOL0     H57894   6.182  10.580  11.273 -1.7022  0.3456 -3.8222
  420MOL0     H57895   6.426  10.540  11.376 -0.3867  2.0980  0.5060
  420MOL0     H57896   6.473  10.472  11.219 -0.6775 -1.7817  0.7448
  420MOL0     H57897   6.395  10.705  11.130 -0.0135  0.5692  0.5021
  420MOL0     H57898   6.355  10.749  11.300 -2.2173 -1.2939 -1.0959
  420MOL0     H57899   6.620  10.667  11.326 -0.7717  0.3036  0.0567
  420MOL0     H57900   6.609  10.731  11.165 -1.7080 -1.5690  0.2278
  420MOL0     H57901   6.483  10.918  11.342 -0.6472 -1.0863 -0.4631
  420MOL0     H57902   6.593  10.951  11.214 -1.9623  2.4307  1.2588
  420MOL0     H57903   6.679  11.030  11.415 -1.6279 -0.9292  0.9672
  420MOL0     H57904   6.682  10.870  11.483 -0.8690 -1.3431 -0.5650
  420MOL0     H57905   6.838  10.981  11.244  1.3006  1.1738 -0.1495
  420MOL0     H57906   6.815  10.808  11.259  1.0306  0.5994 -0.0435
  420MOL0     H57907   7.039  10.854  11.361  1.9533  0.8389  2.2034
  420MOL0     H57908   6.981  10.987  11.457 -0.5906 -0.4054  1.4005
  420MOL0     H57909   6.937  10.622  11.418 -1.5367  3.4059 -2.2275
  420MOL0     H57910   6.865  10.491  11.790 -2.0955 -0.4937  0.4709
  420MOL0     H57911   6.996  10.438  11.701 -0.8476 -1.6936 -1.0540
  420MOL0     H57912   6.863  10.374  11.503  0.4440  0.4056 -0.4249
  420MOL0     H57913   6.825  10.303  11.658 -2.1937  0.9853  0.8945
  420MOL0     H57914   6.651  10.451  11.712 -0.7292 -0.8627 -0.0928
  420MOL0     H57915   6.654  10.533  11.550 -1.1214  1.8098  3.0688
  420MOL0     H57916   6.603  10.234  11.611  0.2672 -1.7895 -1.9586
  420MOL0     H57917   6.483  10.348  11.586 -0.1901 -1.1773 -0.1790
  420MOL0     H57918   6.504  10.058  11.401 -0.4739 -2.6403 -1.2532
  420MOL0     H57919   6.662   9.741  11.376  0.7769  0.1967 -0.4000
  420MOL0     H57920   6.569   9.763  11.233  1.3679 -1.4092  0.2477
  420MOL0     H57921   6.512   9.819  11.389  2.9393 -3.5632  4.3233
  420MOL0     H57922   7.065   9.924  10.869 -1.6651 -0.3903  0.3263
  420MOL0     H57923   7.220   9.789  10.741  2.6949  2.0015  1.1415
  420MOL0     H57924   7.155   9.368  10.819  0.5830  1.0661  0.5877
  420MOL0     H57925   7.253   9.347  10.682 -0.1096 -3.4446  0.9319
  420MOL0     H57926   7.459   9.292  10.799  1.2382 -2.1537  1.0588
  420MOL0     H57927   7.397   9.371  10.935 -0.3044  2.3271 -1.2909
  420MOL0     H57928   7.241   9.194  10.969 -0.9031  3.5215 -1.3224
  420MOL0     H57929   7.414   9.152  10.964 -2.3227  2.4857  3.1230
  420MOL0     H57930   7.392   9.040  10.730 -0.7459 -1.0549  0.8275
  420MOL0     H57931   7.236   9.113  10.721  0.1706  0.6304 -0.3982
  420MOL0     H57932   7.253   8.846  10.780 -3.1354 -1.8888  0.6380
  420MOL0     H57933   7.310   8.899  10.934 -2.7287 -2.9171  0.8507
  420MOL0     H57934   7.040   8.955  10.821 -2.4368 -0.8054  1.3221
  420MOL0     H57935   7.095   9.008  10.997 -1.9625 -1.3532  1.1305
  420MOL0     H57936   7.136   8.780  11.048 -0.4689  0.0721  0.6575
  420MOL0     H57937   7.065   8.730  10.893  1.7223  0.5544  0.1052
  420MOL0     H57938   6.863   8.866  10.942  0.3882  5.3601  1.6072
  420MOL0     H57939   6.917   8.909  11.099 -1.4430 -0.8539  0.5779
  420MOL0     H57940   7.167   9.483  11.044 -0.8234 -0.7628  0.2401
  420MOL0     H57941   7.039   9.623  11.162 -1.4658 -1.0040 -1.3910
  420MOL0     H57942   6.949  10.108  11.198  0.4624  1.6991 -0.0268
  420MOL0     H57943   6.850  10.292  11.314 -2.5013  1.1318  0.2251
  420MOL0     H57944   6.183  10.234  11.175  0.6504 -1.9133  0.1691
  420MOL0     H57945   5.975  10.095  11.116 -1.5646 -0.0254  0.1437
  420MOL0     H57946   5.561  10.242  10.871  2.7278 -0.9716 -0.9894
  420MOL0     H57947   5.371  10.190  10.737  6.2005  0.6299 -2.6951
  420MOL0     H57948   5.268   9.977  10.573 -0.3079  0.8037  1.2068
  420MOL0     H57949   5.288   9.812  10.654 -1.0857 -1.2932 -0.1818
  420MOL0     H57950   5.018   9.950  10.615  0.1549  0.1721 -1.9730
  420MOL0     H57951   5.052   9.795  10.683  0.8906  0.0245  0.7307
  420MOL0     H57952   5.079   9.892  10.385 -2.6662 -1.8069 -1.7784
  420MOL0     H57953   5.164   9.749  10.448 -0.7616 -0.6018  0.4230
  420MOL0     H57954   4.865   9.826  10.433 -0.9276  0.7663  1.0169
  420MOL0     H57955   4.916   9.696  10.533  2.5733  1.4975  1.5514
  420MOL0     H57956   4.880   9.568  10.127  6.4812 -0.1488 -1.6090
  420MOL0     H57957   5.343   9.809  10.946  0.6262 -0.2785  2.0385
  420MOL0     H57958   5.702   9.792  11.027  0.0106  1.5202  0.6959
  420MOL0     H57959   5.598   9.812  11.157  3.1791  0.1618 -0.4737
  420MOL0     H57960   5.550   9.703  11.028  1.6006 -1.2753 -0.0526
  421MOL0     O57961   2.995   4.687   8.428  0.0026 -0.3289  0.3153
  421MOL0     C57962   2.944   4.808   8.443 -0.0816  0.9683  0.7219
  421MOL0     O57963   2.888   4.883   8.345 -0.2662 -0.1362  0.0715
  421MOL0     C57964   2.894   4.840   8.214  0.6647 -0.0029  0.4304
  421MOL0     C57965   2.984   4.747   8.154 -1.0957 -0.6718 -0.2405
  421MOL0     C57966   2.986   4.721   8.016  0.7080  0.1373  0.2416
  421MOL0     C57967   2.888   4.779   7.931  0.0446  1.3333 -0.2578
  421MOL0     O57968   2.895   4.738   7.798  0.4029 -0.4824  0.2617
  421MOL0     C57969   2.800   4.794   7.705  0.3892  0.0884  0.0966
  421MOL0     C57970   2.830   4.720   7.582 -0.6122 -0.3606 -0.3106
  421MOL0     C57971   2.754   4.790   7.464  0.0842 -0.2478 -0.1013
  421MOL0     C57972   2.781   4.706   7.340  0.3642  0.5926  0.1537
  421MOL0     C57973   2.769   4.794   7.212  0.0476 -0.1384  0.0939
  421MOL0     C57974   2.635   4.858   7.182  0.4584  0.4701 -0.0552
  421MOL0     C57975   2.652   4.984   7.089 -0.2592  0.2155 -0.1159
  421MOL0     C57976   2.519   5.015   7.024 -0.8372  0.5283 -0.2274
  421MOL0     N57977   2.525   5.153   6.985 -0.3587 -0.1608  0.4742
  421MOL0     C57978   2.596   5.197   6.875  0.7026  0.2470  1.1235
  421MOL0     C57979   2.561   5.329   6.868  0.0686  0.7584 -0.7186
  421MOL0     C57980   2.608   5.415   6.752 -0.3928 -0.9202  0.8798
  421MOL0     C57981   2.696   5.537   6.804  0.2259 -0.4644 -0.6784
  421MOL0     C57982   2.702   5.657   6.708  0.7439  0.0298 -0.0019
  421MOL0     C57983   2.766   5.784   6.759  0.2854  0.3969 -0.5885
  421MOL0     O57984   2.882   5.746   6.835  1.3335 -0.2671 -0.2917
  421MOL0     C57985   2.959   5.855   6.864  0.1696 -0.4558  0.2692
  421MOL0     C57986   2.924   5.989   6.847  0.1201  0.6466 -0.3912
  421MOL0     C57987   3.019   6.095   6.872 -0.0119 -0.0226 -0.9781
  421MOL0     C57988   2.965   6.233   6.858 -0.8198 -0.0026  0.2620
  421MOL0     C57989   3.148   6.061   6.924 -0.3940 -0.1274 -0.3585
  421MOL0     C57990   3.257   6.151   6.972  0.0379 -0.0944 -0.4674
  421MOL0     O57991   3.239   6.280   6.973  1.1452  0.5497 -0.5526
  421MOL0     C57992   3.338   6.367   7.010  0.7078 -0.0295 -0.3978
  421MOL0     C57993   3.314   6.454   7.118 -0.2755 -0.1169  0.3168
  421MOL0     C57994   3.413   6.543   7.147 -0.0510 -0.4962 -0.1429
  421MOL0     C57995   3.543   6.554   7.078  0.2243 -0.3105  0.8885
  421MOL0     O57996   3.643   6.649   7.090 -0.7943  0.0290  0.0104
  421MOL0     C57997   3.631   6.747   7.196 -0.5689  0.0549 -0.5370
  421MOL0     C57998   3.678   6.683   7.330 -0.1919 -0.2216 -0.3052
  421MOL0     C57999   3.620   6.743   7.457 -0.1303  1.1661 -0.6603
  421MOL0     C58000   3.645   6.640   7.573  0.5489 -0.1170 -0.0086
  421MOL0     C58001   3.613   6.704   7.710  0.1452 -0.3965  1.2783
  421MOL0     C58002   3.592   6.606   7.832 -0.5324 -0.4673 -0.2137
  421MOL0     C58003   3.494   6.490   7.815  0.4452 -0.8658  0.1416
  421MOL0     C58004   3.513   6.386   7.928  1.0280  0.2479  0.3717
  421MOL0    Cl58005   3.409   6.255   7.891 -0.0753  0.1024  0.1050
  421MOL0     C58006   3.563   6.464   6.977  0.4395  0.4709  0.1888
  421MOL0     C58007   3.457   6.379   6.935  0.4568  0.5348 -0.4920
  421MOL0     O58008   3.367   6.103   6.998  0.4336  0.5197 -0.2827
  421MOL0     C58009   3.173   5.925   6.943  0.6548  0.3078  0.3983
  421MOL0     C58010   3.085   5.827   6.907  0.3305 -0.1309  0.0422
  421MOL0     N58011   2.476   5.353   6.975 -0.8640 -0.0099 -0.1324
  421MOL0     N58012   2.448   5.247   7.036 -0.6010  0.2853 -0.4801
  421MOL0     C58013   2.792   4.862   7.988  0.5864  0.2507  0.5183
  421MOL0     C58014   2.793   4.894   8.129 -0.1086  0.2881 -0.3562
  421MOL0     C58015   2.943   4.839   8.586  0.0513  0.1139 -0.0002
  421MOL0     C58016   3.005   4.755   8.686 -0.3479 -0.5794  0.9833
  421MOL0     C58017   2.980   4.776   8.821  0.1149 -0.4964 -0.1376
  421MOL0     C58018   2.908   4.887   8.863  0.3510 -0.4796  0.0733
  421MOL0     O58019   2.859   4.918   8.989 -0.1815 -1.2118 -0.3636
  421MOL0     C58020   2.925   4.840   9.095 -0.2397  0.2129 -0.0311
  421MOL0     C58021   2.854   4.871   9.228 -0.0482  0.3508 -0.5300
  421MOL0     C58022   2.699   4.894   9.219  0.1740 -0.2303 -1.5141
  421MOL0     C58023   2.637   4.864   9.353  0.5395 -0.7567 -0.2594
  421MOL0     C58024   2.687   4.967   9.449 -0.0623 -0.2192 -0.4072
  421MOL0     C58025   2.688   5.063   9.529  0.0283  0.5254  0.3462
  421MOL0     C58026   2.865   4.980   8.770  0.1442 -1.1600 -0.4821
  421MOL0     C58027   2.873   4.946   8.633  0.0279  0.2872 -1.2398
  421MOL0     C58028   2.806   5.049   8.546 -1.1127 -0.5923 -0.1489
  421MOL0     H58029   3.074   4.720   8.209 -1.5501  1.4590  1.7597
  421MOL0     H58030   3.066   4.651   7.993 -0.1949 -1.5594  1.9675
  421MOL0     H58031   2.815   4.901   7.691  2.8480 -0.4134 -1.7158
  421MOL0     H58032   2.695   4.779   7.735  0.7594  0.5854  1.7574
  421MOL0     H58033   2.939   4.711   7.574 -0.2740  1.5853  1.2927
  421MOL0     H58034   2.799   4.616   7.595  3.2083 -1.5274  0.8517
  421MOL0     H58035   2.651   4.812   7.494  0.8689 -0.4705  3.1200
  421MOL0     H58036   2.799   4.887   7.442 -1.0293  0.4226  0.5028
  421MOL0     H58037   2.879   4.659   7.351  1.2464  1.8806 -1.7134
  421MOL0     H58038   2.701   4.631   7.341 -0.6006  1.5080 -1.8109
  421MOL0     H58039   2.800   4.743   7.121  1.7665 -0.0081  0.5682
  421MOL0     H58040   2.841   4.873   7.236  0.1337 -0.0917 -0.3136
  421MOL0     H58041   2.576   4.772   7.149 -0.1485  1.5672 -2.0101
  421MOL0     H58042   2.596   4.889   7.280 -1.7649 -3.2196  0.4022
  421MOL0     H58043   2.729   4.965   7.014  0.3663 -1.0502  0.8185
  421MOL0     H58044   2.687   5.060   7.160 -1.4960  1.0030 -0.3069
  421MOL0     H58045   2.494   4.959   6.934  1.1589 -0.6905 -0.0765
  421MOL0     H58046   2.438   5.002   7.096  0.1266  0.8034  0.9378
  421MOL0     H58047   2.651   5.139   6.802 -1.0074  0.0501 -0.0634
  421MOL0     H58048   2.523   5.462   6.699  1.1855 -0.9207 -1.8432
  421MOL0     H58049   2.661   5.365   6.670 -1.3201  1.3039 -1.2256
  421MOL0     H58050   2.630   5.572   6.885  0.4960  1.1612 -1.1356
  421MOL0     H58051   2.791   5.496   6.839 -0.2247  0.3808  1.7727
  421MOL0     H58052   2.747   5.624   6.614 -0.8916 -0.2494 -0.7271
  421MOL0     H58053   2.599   5.679   6.678 -0.4905 -3.2247  1.3109
  421MOL0     H58054   2.792   5.844   6.672 -1.9099  2.5934  0.1476
  421MOL0     H58055   2.690   5.841   6.813 -1.8423 -3.1652  0.5323
  421MOL0     H58056   2.827   6.016   6.806 -0.7048  0.0981  1.0817
  421MOL0     H58057   3.034   6.294   6.800  0.7797 -1.2853  0.7371
  421MOL0     H58058   2.957   6.269   6.961 -3.7286 -1.4769  0.6788
  421MOL0     H58059   2.864   6.235   6.815 -1.3450  1.8362  1.4328
  421MOL0     H58060   3.222   6.433   7.171 -1.4592 -0.0029 -1.6040
  421MOL0     H58061   3.401   6.617   7.226  0.7221  1.6644 -1.9161
  421MOL0     H58062   3.692   6.832   7.167  2.1326 -1.5153  0.2027
  421MOL0     H58063   3.529   6.787   7.201 -0.5775 -0.0666  3.6457
  421MOL0     H58064   3.648   6.578   7.330 -0.5236 -0.1253 -0.0148
  421MOL0     H58065   3.787   6.691   7.338 -0.3586  0.5460  1.5634
  421MOL0     H58066   3.512   6.757   7.440 -0.5859  1.0098  1.7380
  421MOL0     H58067   3.666   6.837   7.489 -1.2088  1.1172  1.2482
  421MOL0     H58068   3.747   6.601   7.576  0.1120 -1.3358  3.0001
  421MOL0     H58069   3.572   6.559   7.563 -3.8408  3.5026 -0.4985
  421MOL0     H58070   3.688   6.778   7.740  2.1657 -1.0042 -1.8800
  421MOL0     H58071   3.520   6.757   7.686 -1.5197 -3.0185  1.5659
  421MOL0     H58072   3.553   6.673   7.909  0.0641 -0.9681  0.5461
  421MOL0     H58073   3.692   6.565   7.852 -0.2957 -0.5263 -1.4643
  421MOL0     H58074   3.499   6.443   7.716 -0.1032 -0.2655 -0.1732
  421MOL0     H58075   3.389   6.519   7.811 -0.1055 -2.2055  2.7581
  421MOL0     H58076   3.501   6.416   8.032  0.1645 -1.4494  0.7988
  421MOL0     H58077   3.617   6.354   7.912  0.6158 -0.2277 -1.6479
  421MOL0     H58078   3.650   6.467   6.911  0.9077  0.4100  0.8016
  421MOL0     H58079   3.473   6.314   6.849  0.1999  0.8226 -0.7597
  421MOL0     H58080   3.265   5.893   6.989 -0.1432  1.0448  2.6501
  421MOL0     H58081   3.121   5.725   6.918  0.3786 -0.1215 -0.0298
  421MOL0     H58082   2.710   4.907   7.934  0.9921  1.7457  1.0952
  421MOL0     H58083   2.717   4.960   8.169  1.2008  2.0729 -0.6922
  421MOL0     H58084   3.068   4.672   8.657 -0.1696 -0.2826  0.4988
  421MOL0     H58085   3.013   4.701   8.892 -2.2954 -1.3441  0.1756
  421MOL0     H58086   2.913   4.735   9.070  2.0909 -0.1291  0.0953
  421MOL0     H58087   3.033   4.853   9.106  0.3579 -1.1824 -3.1044
  421MOL0     H58088   2.906   4.963   9.257 -0.5454  0.8529 -1.1785
  421MOL0     H58089   2.875   4.787   9.295 -1.0768  0.1358 -0.4543
  421MOL0     H58090   2.685   4.997   9.186  1.0162  0.0482 -1.0428
  421MOL0     H58091   2.659   4.835   9.137 -1.8090 -0.2931 -0.5524
  421MOL0     H58092   2.664   4.765   9.391 -0.5448 -0.6319  0.9009
  421MOL0     H58093   2.530   4.858   9.331  1.0531 -1.0191 -3.0091
  421MOL0     H58094   2.692   5.144   9.599 -0.4758  0.3656  0.5632
  421MOL0     H58095   2.800   5.056   8.810 -2.4343 -3.5169  0.1381
  421MOL0     H58096   2.763   5.127   8.609 -2.0082 -1.7289  0.7075
  421MOL0     H58097   2.883   5.099   8.486 -1.3236 -0.8655 -0.6566
  421MOL0     H58098   2.727   5.021   8.476  0.6108 -0.3161 -2.3424
  422MOL0     O58099   0.930   3.455   3.115  0.3287 -0.0888 -0.1988
  422MOL0     C58100   0.959   3.354   3.186  1.0503 -0.4628 -0.1207
  422MOL0     O58101   0.869   3.254   3.207 -0.3761  0.1250 -0.2571
  422MOL0     C58102   0.896   3.119   3.214  0.5838  0.4745 -0.7250
  422MOL0     C58103   1.001   3.051   3.149  0.2179  0.4964 -1.3537
  422MOL0     C58104   1.010   2.911   3.158 -0.9394 -0.2546  0.0836
  422MOL0     C58105   0.931   2.833   3.232 -0.1033  0.7685  0.2955
  422MOL0     O58106   0.950   2.696   3.223 -0.8521  0.3885 -0.1931
  422MOL0     C58107   0.949   2.632   3.347 -0.3625  1.0796  0.4671
  422MOL0     C58108   1.050   2.518   3.358  0.6879 -0.8511 -0.5915
  422MOL0     C58109   1.046   2.441   3.492 -0.1251  0.6821  0.5114
  422MOL0     C58110   1.119   2.518   3.603 -0.1301 -1.5536  0.4935
  422MOL0     C58111   1.127   2.447   3.735 -0.0400  0.2135 -0.0640
  422MOL0     C58112   1.199   2.538   3.849  0.3386  1.2277  0.5206
  422MOL0     C58113   1.203   2.452   3.982 -0.1034  0.2346 -0.6784
  422MOL0     C58114   1.255   2.530   4.103  0.4039  0.2964  0.6345
  422MOL0     N58115   1.184   2.655   4.125  0.7020 -0.3476 -0.2490
  422MOL0     C58116   1.076   2.661   4.212 -0.2145 -0.6965 -0.4275
  422MOL0     C58117   1.051   2.790   4.237  0.6928 -0.8027 -0.7205
  422MOL0     C58118   0.930   2.861   4.297 -1.2380  1.4546 -0.0515
  422MOL0     C58119   0.796   2.788   4.271  0.8780  0.4050  0.1159
  422MOL0     C58120   0.768   2.710   4.395 -0.8546 -0.9235  0.0933
  422MOL0     C58121   0.659   2.598   4.373  0.2841  0.3836  0.4443
  422MOL0     O58122   0.549   2.664   4.310  0.2064 -0.1964  0.1098
  422MOL0     C58123   0.440   2.590   4.294  0.2251  0.6517  0.3025
  422MOL0     C58124   0.325   2.650   4.263  0.6424 -0.0744 -0.7149
  422MOL0     C58125   0.206   2.575   4.238 -0.8072 -0.3000 -0.8006
  422MOL0     C58126   0.090   2.664   4.194 -0.1162  0.2108 -0.0502
  422MOL0     C58127   0.207   2.434   4.248  0.2437 -0.0968  0.1423
  422MOL0     C58128   0.082   2.359   4.226 -0.1319  0.1458  0.1967
  422MOL0     O58129   0.057   2.256   4.312 -0.8386  0.4192  0.4931
  422MOL0     C58130  -0.048   2.170   4.307 -0.4379  0.6315 -0.1909
  422MOL0     C58131  -0.163   2.186   4.231  0.0227 -0.2911 -1.7485
  422MOL0     C58132  -0.267   2.101   4.238 -0.0493 -0.3237 -0.1962
  422MOL0     C58133  -0.277   2.009   4.344 -0.0902  0.3402 -0.0295
  422MOL0     O58134  -0.392   1.939   4.349  0.7305  0.7286 -0.1198
  422MOL0     C58135  -0.420   1.839   4.446  0.4587  0.4448 -0.7808
  422MOL0     C58136  -0.514   1.717   4.397  0.1368  0.3385  0.1889
  422MOL0     C58137  -0.586   1.757   4.262  0.2095 -0.6773 -0.2356
  422MOL0     C58138  -0.672   1.638   4.207 -0.1063  0.7570  1.1964
  422MOL0     C58139  -0.791   1.595   4.290 -1.3029  0.3003 -0.3533
  422MOL0     C58140  -0.858   1.713   4.366 -0.1947  0.4852 -0.2613
  422MOL0     C58141  -0.944   1.654   4.475  0.1934 -0.1420 -0.2231
  422MOL0     C58142  -1.051   1.754   4.521  0.3413  0.0573  0.1072
  422MOL0    Cl58143  -1.151   1.662   4.621  0.3912  0.4914  0.6345
  422MOL0     C58144  -0.176   2.008   4.434  0.0034  0.6448 -0.2459
  422MOL0     C58145  -0.052   2.077   4.412  0.9353  1.1056  0.3127
  422MOL0     O58146   0.016   2.376   4.123 -0.4506  0.2707 -0.2187
  422MOL0     C58147   0.324   2.375   4.278  0.1365  0.5301 -0.3656
  422MOL0     C58148   0.440   2.447   4.303 -0.2036 -0.1189  0.1998
  422MOL0     N58149   1.151   2.851   4.166  1.1797 -0.5705 -0.1712
  422MOL0     N58150   1.231   2.777   4.098 -0.4971  0.1706 -0.1754
  422MOL0     C58151   0.825   2.899   3.302 -0.2047 -0.1409 -0.2373
  422MOL0     C58152   0.818   3.039   3.297  0.9576 -0.4955 -0.2351
  422MOL0     C58153   1.091   3.343   3.252 -0.4640  0.6011  0.0679
  422MOL0     C58154   1.206   3.353   3.175  0.0278 -0.1992  1.1871
  422MOL0     C58155   1.330   3.357   3.235 -0.4143  0.4510  0.2167
  422MOL0     C58156   1.348   3.340   3.369 -0.6191  0.2975  0.4695
  422MOL0     O58157   1.482   3.335   3.405  0.2206 -0.2510  0.1645
  422MOL0     C58158   1.515   3.310   3.536 -0.0222 -0.0322  0.4985
  422MOL0     C58159   1.663   3.255   3.553 -0.0803  0.7620 -0.3913
  422MOL0     C58160   1.718   3.254   3.707 -0.5096 -0.3624  0.2341
  422MOL0     C58161   1.727   3.385   3.775  0.3384  0.1011 -0.1627
  422MOL0     C58162   1.829   3.386   3.886  1.0602 -0.0671  0.6417
  422MOL0     C58163   1.903   3.395   3.985 -0.0832 -0.4394  0.7090
  422MOL0     C58164   1.234   3.314   3.447  0.5973 -1.2335  0.0126
  422MOL0     C58165   1.107   3.322   3.388 -0.4644  0.5269 -0.2494
  422MOL0     C58166   0.983   3.309   3.476  0.1145 -0.1088 -0.3570
  422MOL0     H58167   1.054   3.112   3.077  0.1570  2.6375  0.3015
  422MOL0     H58168   1.101   2.874   3.112  1.9870 -0.3403  5.1710
  422MOL0     H58169   0.846   2.601   3.366 -0.3106  0.8113  0.3029
  422MOL0     H58170   0.973   2.703   3.427 -1.9615  0.6743  1.3623
  422MOL0     H58171   1.021   2.440   3.286 -2.7055 -0.4560  0.1926
  422MOL0     H58172   1.148   2.559   3.332  0.4028 -1.1313 -2.2216
  422MOL0     H58173   0.943   2.415   3.519 -0.7609  3.1546  0.6750
  422MOL0     H58174   1.114   2.355   3.490  2.5112  2.6135  0.9157
  422MOL0     H58175   1.219   2.538   3.564 -0.6562  0.5672  0.1165
  422MOL0     H58176   1.085   2.620   3.623  1.4438 -0.5103 -1.7378
  422MOL0     H58177   1.191   2.361   3.710  0.1381  0.6632 -1.1889
  422MOL0     H58178   1.027   2.420   3.769 -1.1355  3.6640 -0.2183
  422MOL0     H58179   1.297   2.574   3.818 -0.8943  3.4515 -1.0603
  422MOL0     H58180   1.140   2.628   3.870  0.5147  1.7778 -1.2274
  422MOL0     H58181   1.272   2.368   3.967 -2.4532 -2.0112  0.2728
  422MOL0     H58182   1.107   2.408   4.012  0.2461 -1.0626 -1.3952
  422MOL0     H58183   1.252   2.464   4.190  1.6201 -1.0578 -0.3066
  422MOL0     H58184   1.358   2.551   4.072 -0.5444  0.1671 -2.9691
  422MOL0     H58185   1.021   2.574   4.248  0.1408 -1.0041 -0.6126
  422MOL0     H58186   0.922   2.962   4.257  0.4774  0.8789 -2.0354
  422MOL0     H58187   0.964   2.864   4.401  1.0414  2.1795 -0.7699
  422MOL0     H58188   0.713   2.859   4.257 -1.8095 -2.8040 -1.6597
  422MOL0     H58189   0.794   2.724   4.182  0.9119 -0.4310  0.7052
  422MOL0     H58190   0.861   2.671   4.436 -0.2400  0.8204  0.4687
  422MOL0     H58191   0.720   2.775   4.470 -1.6459 -0.3470 -0.8836
  422MOL0     H58192   0.700   2.520   4.308 -3.2918  0.4280 -2.1576
  422MOL0     H58193   0.624   2.554   4.466  1.3530  0.3306  0.8311
  422MOL0     H58194   0.319   2.757   4.245 -0.6824  0.2334  1.2879
  422MOL0     H58195   0.070   2.737   4.273  1.3027 -0.0200  0.5477
  422MOL0     H58196  -0.000   2.608   4.166  0.9092 -0.4624 -2.2138
  422MOL0     H58197   0.107   2.711   4.096 -2.5114  1.6482  0.1365
  422MOL0     H58198  -0.178   2.268   4.162 -1.0253 -0.5564 -1.8519
  422MOL0     H58199  -0.349   2.119   4.169 -0.3564 -1.3362 -0.1096
  422MOL0     H58200  -0.330   1.804   4.498 -2.2391 -2.5919  2.2899
  422MOL0     H58201  -0.468   1.887   4.532  2.4579 -1.8520  1.8103
  422MOL0     H58202  -0.455   1.632   4.362 -3.4342 -1.4926 -1.8936
  422MOL0     H58203  -0.572   1.679   4.481 -1.3081 -1.3711 -1.5116
  422MOL0     H58204  -0.506   1.783   4.192  1.2210  1.4533  1.5956
  422MOL0     H58205  -0.633   1.855   4.278  0.7371 -0.7176  1.8339
  422MOL0     H58206  -0.611   1.548   4.190 -1.4139  0.2299 -1.1845
  422MOL0     H58207  -0.709   1.665   4.108  2.2167 -0.2689 -0.0242
  422MOL0     H58208  -0.859   1.543   4.222 -0.5346  0.4015 -1.2151
  422MOL0     H58209  -0.748   1.519   4.355 -0.2287 -0.3227 -1.7517
  422MOL0     H58210  -0.916   1.750   4.281 -1.2132 -0.9218 -0.2244
  422MOL0     H58211  -0.781   1.782   4.401  1.2038  1.3247 -4.4356
  422MOL0     H58212  -0.879   1.614   4.554  0.9571  4.8340  2.0004
  422MOL0     H58213  -0.997   1.570   4.429 -2.3118  1.0092  0.3993
  422MOL0     H58214  -1.108   1.787   4.433 -0.2331 -0.4642  0.2720
  422MOL0     H58215  -1.010   1.833   4.584 -2.2215  2.0652 -0.5352
  422MOL0     H58216  -0.171   1.935   4.513 -1.0076 -1.5715 -2.1194
  422MOL0     H58217   0.035   2.075   4.477  1.1040  3.5112  0.2397
  422MOL0     H58218   0.343   2.269   4.289 -1.1285  0.1174 -1.9147
  422MOL0     H58219   0.518   2.377   4.333 -0.4622  0.9759  3.7880
  422MOL0     H58220   0.766   2.833   3.365 -0.7743 -0.0969 -0.7208
  422MOL0     H58221   0.747   3.097   3.356  0.8766  0.5372 -1.3028
  422MOL0     H58222   1.198   3.373   3.068 -3.2436 -1.7427  1.0161
  422MOL0     H58223   1.411   3.375   3.166  0.5810 -1.9039  0.6609
  422MOL0     H58224   1.508   3.404   3.592  1.2711 -1.6545  3.6536
  422MOL0     H58225   1.445   3.240   3.581 -1.5900  0.1831 -1.4659
  422MOL0     H58226   1.740   3.306   3.495 -0.9404  3.0082  0.3244
  422MOL0     H58227   1.662   3.157   3.505  1.5114 -1.7857  4.1033
  422MOL0     H58228   1.658   3.198   3.779 -0.6463 -1.2826 -0.5710
  422MOL0     H58229   1.815   3.206   3.704 -0.1648  0.3518 -0.6256
  422MOL0     H58230   1.630   3.431   3.796  0.3356 -0.6614  1.6833
  422MOL0     H58231   1.762   3.462   3.706 -2.1985  1.9892  0.4925
  422MOL0     H58232   1.974   3.405   4.064 -1.2470 -2.9800  2.1838
  422MOL0     H58233   1.237   3.286   3.552 -2.9691 -0.6018  0.4263
  422MOL0     H58234   0.925   3.223   3.441  1.5547 -0.7214 -1.3835
  422MOL0     H58235   0.999   3.310   3.584 -0.2682 -0.6533 -0.2925
  422MOL0     H58236   0.920   3.396   3.461 -2.8912 -1.9317  0.7510
  423MOL0     O58237   2.066   8.861   8.349  0.0968  0.5531 -0.4695
  423MOL0     C58238   2.015   8.878   8.455 -0.4000  1.1014 -0.0810
  423MOL0     O58239   2.089   8.908   8.572  0.5650  0.4809 -0.0483
  423MOL0     C58240   2.217   8.951   8.560 -0.8870  0.2034 -0.4973
  423MOL0     C58241   2.322   8.857   8.567 -0.4085  0.2099 -0.0539
  423MOL0     C58242   2.455   8.900   8.564 -1.2895 -0.5528  0.5137
  423MOL0     C58243   2.484   9.038   8.564  0.2067 -0.4762 -0.7735
  423MOL0     O58244   2.613   9.091   8.565  0.5962  0.0169 -0.0646
  423MOL0     C58245   2.728   9.007   8.554  0.1692 -0.9696 -0.1345
  423MOL0     C58246   2.862   9.081   8.519 -1.4978  0.0038 -0.7761
  423MOL0     C58247   2.920   9.132   8.655 -0.1740 -0.2200 -0.3480
  423MOL0     C58248   3.028   9.241   8.644 -0.0524  0.1084  0.3419
  423MOL0     C58249   3.156   9.173   8.589 -0.8397 -0.1276  0.5300
  423MOL0     C58250   3.242   9.290   8.526  0.7496 -0.4683  0.3426
  423MOL0     C58251   3.395   9.262   8.512 -0.9188  0.4741  0.2045
  423MOL0     C58252   3.472   9.387   8.467 -0.1371 -0.3639  0.0901
  423MOL0     N58253   3.439   9.440   8.331 -0.2196 -0.4543 -0.2004
  423MOL0     C58254   3.350   9.534   8.298  0.9664 -1.0143 -0.0942
  423MOL0     C58255   3.360   9.545   8.164  1.1730 -0.7578 -0.0998
  423MOL0     C58256   3.264   9.629   8.078 -0.6521  0.3816  0.2841
  423MOL0     C58257   3.329   9.698   7.953  0.0801 -0.5097  0.4097
  423MOL0     C58258   3.456   9.779   7.990  0.2602  0.6940  0.8237
  423MOL0     C58259   3.515   9.861   7.874  0.4413  0.0254 -1.1301
  423MOL0     O58260   3.630   9.931   7.927 -0.1572  0.3161 -0.7407
  423MOL0     C58261   3.682  10.034   7.857 -0.6690 -0.6333  0.0991
  423MOL0     C58262   3.789  10.100   7.920  1.0843 -0.1797 -0.3385
  423MOL0     C58263   3.846  10.216   7.866  0.1673  1.0644 -0.3714
  423MOL0     C58264   3.964  10.273   7.937 -0.2764  0.2461 -0.6123
  423MOL0     C58265   3.806  10.258   7.737 -0.2257  0.8381 -0.5687
  423MOL0     C58266   3.862  10.377   7.666  0.0606 -0.6551  0.4306
  423MOL0     O58267   3.839  10.393   7.534  0.3282  0.7888 -0.4135
  423MOL0     C58268   3.859  10.515   7.473  1.0974  0.4279  0.7507
  423MOL0     C58269   3.976  10.537   7.391 -0.7194 -0.8380  0.7895
  423MOL0     C58270   3.978  10.656   7.321 -0.0888  1.2196 -0.0866
  423MOL0     C58271   3.881  10.756   7.328 -0.1717  0.5671  0.7611
  423MOL0     O58272   3.907  10.869   7.256  0.6467 -0.1736 -0.0820
  423MOL0     C58273   3.848  10.989   7.296 -0.5196 -1.4521  0.7616
  423MOL0     C58274   3.922  11.108   7.225 -0.5546 -0.5249  0.2491
  423MOL0     C58275   3.871  11.248   7.283 -0.1994 -0.1939  0.4314
  423MOL0     C58276   3.973  11.365   7.253 -0.1250 -0.0906  0.1627
  423MOL0     C58277   3.927  11.499   7.311 -0.5405  0.0494 -0.0458
  423MOL0     C58278   4.045  11.594   7.299 -0.5080  0.3909  0.4843
  423MOL0     C58279   4.019  11.733   7.352  0.0453 -0.0114  0.2681
  423MOL0     C58280   4.145  11.833   7.330  0.9009 -0.3064  1.3239
  423MOL0    Cl58281   4.126  11.979   7.415 -0.0795 -0.1260 -0.0817
  423MOL0     C58282   3.782  10.735   7.426  0.3197  0.7258  1.3109
  423MOL0     C58283   3.764  10.611   7.494  0.2980 -1.3684 -0.0785
  423MOL0     O58284   3.902  10.471   7.738 -0.2074  0.0996 -0.3102
  423MOL0     C58285   3.700  10.188   7.671 -0.7913  0.1235  0.5882
  423MOL0     C58286   3.647  10.079   7.730 -0.5160  0.7776  0.0100
  423MOL0     N58287   3.466   9.467   8.119 -0.1808  0.0040 -0.0319
  423MOL0     N58288   3.510   9.408   8.219  0.2120  1.0120 -0.2056
  423MOL0     C58289   2.380   9.127   8.583 -0.6891 -0.4009  0.2640
  423MOL0     C58290   2.247   9.078   8.583 -0.7989  0.3926 -0.3629
  423MOL0     C58291   1.869   8.833   8.474 -0.1429 -0.6441  0.1826
  423MOL0     C58292   1.816   8.856   8.607 -0.7650  0.6413  1.0416
  423MOL0     C58293   1.694   8.793   8.643 -0.0585  0.0578  0.8599
  423MOL0     C58294   1.616   8.724   8.545 -0.2735 -0.1617 -1.5098
  423MOL0     O58295   1.480   8.690   8.552  0.2309 -0.1937  0.0663
  423MOL0     C58296   1.420   8.747   8.676  0.7351 -0.9098  0.3032
  423MOL0     C58297   1.260   8.740   8.663 -1.5469 -0.5867  0.1171
  423MOL0     C58298   1.208   8.596   8.664 -0.2901  0.2776  0.6534
  423MOL0     C58299   1.053   8.610   8.646  0.4728 -0.3571 -0.1137
  423MOL0     C58300   0.968   8.650   8.759  0.1209  1.0524  0.3246
  423MOL0     C58301   0.908   8.686   8.858 -0.0290 -0.1505  0.4611
  423MOL0     C58302   1.666   8.722   8.419 -0.6040  0.1714  0.9559
  423MOL0     C58303   1.792   8.761   8.379  0.0342  0.1032 -0.0138
  423MOL0     C58304   1.837   8.725   8.241 -0.7248  0.1254  0.5070
  423MOL0     H58305   2.309   8.749   8.565  1.0541 -0.0163 -3.1777
  423MOL0     H58306   2.523   8.815   8.556 -2.3499 -1.2827 -1.5886
  423MOL0     H58307   2.706   8.948   8.464  2.4364 -1.5426 -0.3619
  423MOL0     H58308   2.744   8.941   8.640 -0.4573 -2.3468 -1.0244
  423MOL0     H58309   2.930   9.013   8.468 -1.6758 -0.1663 -0.7882
  423MOL0     H58310   2.831   9.154   8.443 -0.4264  0.7024 -0.5534
  423MOL0     H58311   2.840   9.193   8.699  0.6146  0.8821 -0.4084
  423MOL0     H58312   2.944   9.052   8.726 -2.6525 -1.8401 -1.1658
  423MOL0     H58313   2.987   9.322   8.584 -1.5080 -0.2279  0.8363
  423MOL0     H58314   3.049   9.277   8.745  1.2398  0.8699 -0.1779
  423MOL0     H58315   3.128   9.103   8.509  3.6649 -2.5464  0.7800
  423MOL0     H58316   3.214   9.115   8.660  0.6905  0.3205 -0.2995
  423MOL0     H58317   3.190   9.313   8.433  1.0429 -1.2072 -0.0116
  423MOL0     H58318   3.239   9.383   8.584  0.8384 -1.1262  1.4444
  423MOL0     H58319   3.418   9.175   8.449  1.6116  0.6093  0.8306
  423MOL0     H58320   3.425   9.225   8.611  2.2125 -0.0136 -0.8108
  423MOL0     H58321   3.454   9.457   8.549  1.6885 -0.8441  0.9592
  423MOL0     H58322   3.580   9.367   8.469 -0.5653 -2.9786  0.0097
  423MOL0     H58323   3.281   9.589   8.362  0.7297 -1.8935  0.4206
  423MOL0     H58324   3.229   9.713   8.137  0.1986  0.5229  0.5963
  423MOL0     H58325   3.175   9.569   8.054 -0.2002  0.1230 -0.8518
  423MOL0     H58326   3.339   9.612   7.886 -3.3301 -1.5823  1.0860
  423MOL0     H58327   3.257   9.770   7.913  0.1899  0.3948  1.7672
  423MOL0     H58328   3.443   9.836   8.083 -1.7927  0.6859  0.5815
  423MOL0     H58329   3.533   9.703   8.005 -0.9277 -0.7549 -0.2274
  423MOL0     H58330   3.547   9.793   7.795 -1.4574 -2.9888  0.5313
  423MOL0     H58331   3.441   9.931   7.833 -1.0547 -0.8925 -0.0663
  423MOL0     H58332   3.822  10.053   8.012  0.1696  0.8606  0.5609
  423MOL0     H58333   4.055  10.300   7.883 -0.3600 -0.7816 -1.2991
  423MOL0     H58334   3.999  10.204   8.014  2.2730 -0.3957 -2.2513
  423MOL0     H58335   3.932  10.362   7.993  3.4991 -0.9255  4.0774
  423MOL0     H58336   4.050  10.459   7.387 -1.8313 -1.8683 -1.0576
  423MOL0     H58337   4.061  10.690   7.260  0.5359  0.4089  0.2913
  423MOL0     H58338   3.745  10.999   7.259 -0.1228 -1.0887 -0.2982
  423MOL0     H58339   3.863  11.009   7.402  0.5413  2.9951 -0.0583
  423MOL0     H58340   4.031  11.106   7.234 -0.4698  0.7877 -0.3628
  423MOL0     H58341   3.893  11.089   7.121 -0.4737  0.9010 -0.0470
  423MOL0     H58342   3.862  11.237   7.392 -5.9280  1.2338  0.3952
  423MOL0     H58343   3.774  11.280   7.246 -0.9096 -1.1780  1.3625
  423MOL0     H58344   3.969  11.381   7.145 -1.9484 -0.9232  0.0528
  423MOL0     H58345   4.067  11.330   7.296 -0.9397 -0.3457  1.8353
  423MOL0     H58346   3.841  11.547   7.265 -0.5026 -0.8593 -1.1015
  423MOL0     H58347   3.906  11.488   7.418  0.5176  1.3428  0.3307
  423MOL0     H58348   4.073  11.602   7.194 -1.4042  1.4576  0.3115
  423MOL0     H58349   4.129  11.551   7.355  1.5708  0.8961 -2.0423
  423MOL0     H58350   4.002  11.729   7.460 -1.6017 -0.7694  0.0161
  423MOL0     H58351   3.925  11.765   7.307 -2.5704 -5.3094  1.1363
  423MOL0     H58352   4.152  11.862   7.225 -1.1862  0.2647  1.2964
  423MOL0     H58353   4.235  11.779   7.362  1.0161 -0.6733  0.3961
  423MOL0     H58354   3.717  10.822   7.436  1.5109  1.4489  3.2774
  423MOL0     H58355   3.679  10.585   7.555  2.3999 -0.3374  3.5624
  423MOL0     H58356   3.670  10.224   7.573 -1.7162  0.2991  0.9307
  423MOL0     H58357   3.579  10.017   7.672 -0.4761 -1.4521  2.1762
  423MOL0     H58358   2.413   9.230   8.585  2.2365 -1.2498  0.2196
  423MOL0     H58359   2.156   9.135   8.592 -0.9662 -0.2057  3.4598
  423MOL0     H58360   1.875   8.907   8.682  0.3412  0.1025  0.5531
  423MOL0     H58361   1.673   8.823   8.745  3.9478 -0.2533  1.9488
  423MOL0     H58362   1.463   8.703   8.767  2.8180 -1.8478 -1.0587
  423MOL0     H58363   1.446   8.853   8.673  0.2423 -0.7483  1.2382
  423MOL0     H58364   1.237   8.784   8.565 -0.4578  0.7802  0.4383
  423MOL0     H58365   1.219   8.798   8.746 -0.2934 -3.1506  2.7165
  423MOL0     H58366   1.252   8.535   8.584 -0.7265 -0.7042  1.1346
  423MOL0     H58367   1.233   8.554   8.762 -2.6154  0.9229  1.5904
  423MOL0     H58368   1.023   8.505   8.637 -0.0296 -0.2811  0.5866
  423MOL0     H58369   1.028   8.678   8.565 -1.3437  2.0114  2.2520
  423MOL0     H58370   0.842   8.741   8.922 -0.7019  0.5534 -0.8147
  423MOL0     H58371   1.609   8.670   8.343 -0.2524 -1.4259  1.7492
  423MOL0     H58372   1.765   8.670   8.180 -1.3517 -4.4297  4.7720
  423MOL0     H58373   1.881   8.811   8.188  1.9221 -2.1731 -1.3389
  423MOL0     H58374   1.912   8.646   8.247 -0.1303  0.7023  0.8540
  424MOL0     O58375   6.058   6.343   2.487  0.3558 -0.7743 -0.7390
  424MOL0     C58376   6.129   6.441   2.470  0.5840 -0.2214 -0.2977
  424MOL0     O58377   6.209   6.493   2.566 -0.1965  0.6993  0.0391
  424MOL0     C58378   6.209   6.443   2.688  0.4491  0.3220  0.0309
  424MOL0     C58379   6.224   6.309   2.719 -0.5508  0.0408 -0.2748
  424MOL0     C58380   6.228   6.256   2.848 -0.3021  0.4284  0.1353
  424MOL0     C58381   6.231   6.345   2.960  0.5990 -0.1625  0.3577
  424MOL0     O58382   6.235   6.314   3.090  0.2354 -0.4058 -0.7686
  424MOL0     C58383   6.299   6.198   3.150  0.4856  0.1039 -0.1668
  424MOL0     C58384   6.318   6.231   3.301 -0.0881 -0.6066 -0.6123
  424MOL0     C58385   6.189   6.273   3.377 -0.3784 -0.2682 -0.1578
  424MOL0     C58386   6.211   6.260   3.521  0.2266 -0.7327 -1.3200
  424MOL0     C58387   6.069   6.300   3.583 -0.2492 -0.1207 -0.2856
  424MOL0     C58388   6.050   6.288   3.730  0.5705  1.1037 -0.0943
  424MOL0     C58389   6.142   6.391   3.815  0.3001  0.9124 -0.6286
  424MOL0     C58390   6.049   6.463   3.920  0.3966 -0.1597  0.4721
  424MOL0     N58391   6.137   6.547   3.995  0.1772  0.2664 -0.6403
  424MOL0     C58392   6.248   6.509   4.061  0.3789 -0.1046 -0.5066
  424MOL0     C58393   6.307   6.626   4.103  0.0882 -0.0582  0.0709
  424MOL0     C58394   6.431   6.631   4.192 -0.2216 -0.1963  0.6229
  424MOL0     C58395   6.437   6.516   4.287 -0.0143 -0.3533 -0.9348
  424MOL0     C58396   6.566   6.519   4.376  0.1437 -0.6164 -0.4577
  424MOL0     C58397   6.603   6.649   4.445  0.4024  0.8807  0.6153
  424MOL0     O58398   6.674   6.743   4.363  0.6890 -0.2534 -0.0797
  424MOL0     C58399   6.812   6.744   4.363  0.7382 -0.1303  0.5463
  424MOL0     C58400   6.886   6.626   4.385 -0.5927 -0.1975  0.1075
  424MOL0     C58401   7.027   6.622   4.378  0.0822  0.3651 -0.1793
  424MOL0     C58402   7.084   6.483   4.390 -0.3628  0.8226  0.4694
  424MOL0     C58403   7.100   6.740   4.343  0.4954 -0.2679  0.1857
  424MOL0     C58404   7.252   6.742   4.338  1.0698 -0.1257  0.4509
  424MOL0     O58405   7.329   6.628   4.337  0.5042  0.1084  0.4899
  424MOL0     C58406   7.470   6.616   4.342  0.4042 -0.4256  0.3664
  424MOL0     C58407   7.528   6.497   4.305  0.1957  0.1640 -0.8401
  424MOL0     C58408   7.660   6.470   4.318  0.7542 -1.4732 -0.1833
  424MOL0     C58409   7.750   6.573   4.366 -0.3840 -0.0781  0.4377
  424MOL0     O58410   7.886   6.550   4.373  0.6363  0.0436  0.0322
  424MOL0     C58411   7.961   6.540   4.249  0.4291  0.0650 -0.4776
  424MOL0     C58412   7.974   6.394   4.196 -0.6324  0.6047  0.2308
  424MOL0     C58413   8.050   6.381   4.064  0.7073  0.4832  0.1392
  424MOL0     C58414   8.053   6.239   4.022  0.1999  0.1566  0.3752
  424MOL0     C58415   8.149   6.226   3.898  0.1754 -0.3882  0.3135
  424MOL0     C58416   8.167   6.078   3.866  0.5958  0.2400 -0.2728
  424MOL0     C58417   8.289   6.048   3.781  0.0625  0.4003  0.0714
  424MOL0     C58418   8.279   6.095   3.643  0.4748  0.1877 -0.6459
  424MOL0    Cl58419   8.445   6.102   3.583  0.1486 -0.0162  0.0921
  424MOL0     C58420   7.694   6.695   4.400 -0.7820 -0.4151  0.6918
  424MOL0     C58421   7.553   6.718   4.383  0.0908 -0.3052 -0.5244
  424MOL0     O58422   7.290   6.857   4.325  1.0450 -0.5540 -0.2268
  424MOL0     C58423   7.017   6.860   4.322  0.6167  0.7500 -0.4891
  424MOL0     C58424   6.879   6.852   4.317 -0.1601  0.0881  0.5281
  424MOL0     N58425   6.236   6.731   4.053  0.3904  0.0088  0.3442
  424MOL0     N58426   6.146   6.680   3.986 -0.6838 -0.8026  0.8871
  424MOL0     C58427   6.246   6.482   2.933  0.6064  0.3253  0.7471
  424MOL0     C58428   6.223   6.529   2.797  0.0926  0.6595 -0.3000
  424MOL0     C58429   6.121   6.509   2.342  0.2260 -0.0121 -0.3722
  424MOL0     C58430   6.007   6.481   2.258  0.8195 -0.4910  0.0019
  424MOL0     C58431   5.998   6.556   2.135  0.1752  0.0030  0.3045
  424MOL0     C58432   6.097   6.640   2.089 -0.6025 -0.0055 -0.5689
  424MOL0     O58433   6.100   6.703   1.972  0.4938 -0.7384 -0.0776
  424MOL0     C58434   6.043   6.643   1.859 -0.8969  0.1589  0.5203
  424MOL0     C58435   6.139   6.545   1.801  0.5793  1.0366  1.0650
  424MOL0     C58436   6.277   6.606   1.787 -0.3919 -0.3736 -0.1578
  424MOL0     C58437   6.383   6.525   1.858 -0.8833  0.7443  0.0389
  424MOL0     C58438   6.517   6.581   1.827  0.3594  0.7159 -0.1012
  424MOL0     C58439   6.630   6.624   1.808 -0.0601  0.4402 -0.2931
  424MOL0     C58440   6.196   6.682   2.177  0.5927  0.1333 -0.0062
  424MOL0     C58441   6.216   6.612   2.300  0.2314 -0.9494 -0.1240
  424MOL0     C58442   6.339   6.662   2.385  0.3819  0.5535  0.1957
  424MOL0     H58443   6.222   6.234   2.640 -1.6172 -0.5729  0.3215
  424MOL0     H58444   6.236   6.150   2.872  1.5260  0.6928  0.9259
  424MOL0     H58445   6.396   6.182   3.102  0.1559  0.6337 -1.0325
  424MOL0     H58446   6.235   6.109   3.142 -0.4873  0.6750  0.9011
  424MOL0     H58447   6.365   6.147   3.352 -1.2949 -1.4412 -0.8258
  424MOL0     H58448   6.401   6.302   3.295  0.9240 -1.8675 -2.8085
  424MOL0     H58449   6.165   6.378   3.356 -1.8450 -1.0048 -2.6003
  424MOL0     H58450   6.114   6.200   3.345  1.0095 -1.3474 -1.1072
  424MOL0     H58451   6.260   6.173   3.566  0.4481  0.3413  0.6146
  424MOL0     H58452   6.275   6.338   3.562 -3.0218  1.7897 -0.6153
  424MOL0     H58453   5.991   6.240   3.535 -2.0980 -0.8167  3.2845
  424MOL0     H58454   6.048   6.404   3.558  1.6405  0.9318  2.1073
  424MOL0     H58455   5.944   6.316   3.740  0.4113  0.4312  0.1250
  424MOL0     H58456   6.063   6.184   3.759 -0.9759  0.5053 -1.3659
  424MOL0     H58457   6.206   6.453   3.751  1.6342 -4.3433 -5.1849
  424MOL0     H58458   6.210   6.320   3.863 -2.5345 -1.8671 -0.3770
  424MOL0     H58459   5.970   6.527   3.880 -0.2352 -0.3669  1.3791
  424MOL0     H58460   6.013   6.376   3.974  0.4340 -1.3082 -1.2703
  424MOL0     H58461   6.283   6.408   4.081 -2.2836 -0.8780  0.6536
  424MOL0     H58462   6.428   6.727   4.243 -4.0785 -0.8696  1.9733
  424MOL0     H58463   6.521   6.609   4.133 -0.0413 -2.0113  1.4905
  424MOL0     H58464   6.359   6.518   4.363 -2.0186 -0.8911 -2.8580
  424MOL0     H58465   6.433   6.426   4.225  1.7530  0.4409 -2.3160
  424MOL0     H58466   6.565   6.438   4.450  3.9855  1.1380  1.8481
  424MOL0     H58467   6.651   6.497   4.311  0.5689 -2.5244  0.6714
  424MOL0     H58468   6.511   6.699   4.476  0.2643  2.8255 -2.5328
  424MOL0     H58469   6.653   6.637   4.541 -1.8605  4.3423  2.4416
  424MOL0     H58470   6.846   6.528   4.410  2.3139 -1.3574  0.5399
  424MOL0     H58471   7.013   6.409   4.353  0.0016  1.0249 -0.6964
  424MOL0     H58472   7.109   6.461   4.494 -0.0889  0.8724  0.4166
  424MOL0     H58473   7.174   6.467   4.329 -0.7668 -0.6066  0.2002
  424MOL0     H58474   7.461   6.430   4.253 -0.5366  1.3448 -1.4694
  424MOL0     H58475   7.703   6.378   4.280 -1.0739 -1.4991 -2.3796
  424MOL0     H58476   7.919   6.594   4.164 -0.1192  0.0347 -0.2316
  424MOL0     H58477   8.061   6.577   4.273  0.9249 -0.8204 -1.0816
  424MOL0     H58478   8.033   6.334   4.267 -0.6201  0.1399 -0.1639
  424MOL0     H58479   7.876   6.348   4.178 -1.6289  2.5493  0.3791
  424MOL0     H58480   8.147   6.429   4.071  1.8590 -1.7444  0.4588
  424MOL0     H58481   7.996   6.426   3.980  1.9319  1.9154  0.0895
  424MOL0     H58482   7.949   6.208   4.006  0.5050 -1.6541  1.5124
  424MOL0     H58483   8.098   6.179   4.102 -0.3636 -2.1452 -0.9315
  424MOL0     H58484   8.122   6.276   3.804 -0.4814  0.0998  0.7495
  424MOL0     H58485   8.248   6.264   3.923 -0.2993  0.8205  0.4677
  424MOL0     H58486   8.077   6.031   3.825  0.8566 -0.6679  0.1580
  424MOL0     H58487   8.181   6.019   3.957  1.0918  1.5171  0.5020
  424MOL0     H58488   8.308   5.941   3.776 -2.7861 -0.1880  0.3114
  424MOL0     H58489   8.379   6.088   3.831  0.3792  0.9103 -0.8865
  424MOL0     H58490   8.239   6.196   3.632 -1.6488 -0.3670  1.3783
  424MOL0     H58491   8.209   6.037   3.582  1.0131 -0.8788 -0.2641
  424MOL0     H58492   7.751   6.782   4.432 -0.3809  1.1267 -3.4919
  424MOL0     H58493   7.515   6.817   4.404 -0.3847 -0.6541  0.3267
  424MOL0     H58494   7.064   6.957   4.318  0.0743  1.0423  0.0165
  424MOL0     H58495   6.822   6.942   4.298  0.3836  0.8278  2.2294
  424MOL0     H58496   6.258   6.551   3.016 -1.2356  1.7714 -0.1220
  424MOL0     H58497   6.220   6.636   2.780  0.7079  1.2662  2.9020
  424MOL0     H58498   5.928   6.414   2.290  1.6994 -0.3381  2.7172
  424MOL0     H58499   5.910   6.529   2.077 -0.0737  4.0576 -1.4977
  424MOL0     H58500   5.958   6.579   1.885 -1.7169  0.7818 -0.5187
  424MOL0     H58501   6.008   6.718   1.788 -2.0437  0.1360  1.0359
  424MOL0     H58502   6.112   6.510   1.701  3.3714  2.3589 -0.2521
  424MOL0     H58503   6.146   6.460   1.869 -0.9344  1.0253  1.2348
  424MOL0     H58504   6.299   6.599   1.680 -1.7602 -2.0607 -0.3791
  424MOL0     H58505   6.280   6.705   1.835  1.1090 -0.5129  0.0712
  424MOL0     H58506   6.382   6.417   1.843  3.2609  0.1052  2.7220
  424MOL0     H58507   6.380   6.533   1.967  3.1129 -2.5983  0.6391
  424MOL0     H58508   6.731   6.649   1.786  0.2474 -0.7554 -0.3133
  424MOL0     H58509   6.256   6.768   2.149 -1.2445  1.7323  0.7704
  424MOL0     H58510   6.315   6.730   2.467 -0.9965  0.2266  0.0801
  424MOL0     H58511   6.379   6.574   2.435  3.4438  1.5637 -0.1937
  424MOL0     H58512   6.415   6.701   2.315  1.2724 -0.8437  0.3518
  425MOL0     O58513   4.162   5.664   1.675  0.6923  0.6667  0.1021
  425MOL0     C58514   4.130   5.746   1.595 -0.7422  0.4484  0.9358
  425MOL0     O58515   4.070   5.871   1.622 -0.4057  0.3977 -0.9003
  425MOL0     C58516   4.082   5.922   1.755  1.2098  0.1814  0.3455
  425MOL0     C58517   4.189   5.909   1.845  0.3081  0.5886  0.2356
  425MOL0     C58518   4.190   5.938   1.983  0.1966  0.2499  0.0248
  425MOL0     C58519   4.071   5.991   2.044  0.4958 -0.5252  0.0096
  425MOL0     O58520   4.067   6.014   2.181 -0.3446  0.1930 -0.1973
  425MOL0     C58521   3.973   6.115   2.234  0.7117  1.3170  0.0565
  425MOL0     C58522   4.008   6.152   2.381 -0.3399 -0.6697 -0.1734
  425MOL0     C58523   3.889   6.207   2.467 -0.1652 -0.3352  0.0389
  425MOL0     C58524   3.930   6.245   2.612  0.8449  0.3259 -0.7077
  425MOL0     C58525   3.807   6.269   2.703 -0.9727  0.5447 -0.4806
  425MOL0     C58526   3.830   6.267   2.855 -0.6554  0.4372  0.1042
  425MOL0     C58527   3.708   6.302   2.933  0.4110  0.6860 -0.0657
  425MOL0     C58528   3.599   6.194   2.913  0.2184  0.0489 -0.5942
  425MOL0     N58529   3.488   6.225   3.009 -0.8208 -0.3005  0.6404
  425MOL0     C58530   3.435   6.141   3.103  0.2464 -0.5222  0.1663
  425MOL0     C58531   3.328   6.214   3.155 -0.4817 -0.2888  0.1471
  425MOL0     C58532   3.217   6.172   3.244 -0.4591 -0.3450 -0.0633
  425MOL0     C58533   3.062   6.208   3.216 -0.1275  0.2410 -0.6820
  425MOL0     C58534   3.035   6.340   3.265  0.9212 -0.9992 -0.2290
  425MOL0     C58535   2.919   6.403   3.203 -0.3972 -0.5780 -0.6957
  425MOL0     O58536   2.824   6.302   3.191  0.5305 -0.7760 -0.3791
  425MOL0     C58537   2.694   6.327   3.145 -0.1946 -0.6142 -0.7592
  425MOL0     C58538   2.601   6.224   3.141  0.1784  0.0885 -0.1725
  425MOL0     C58539   2.468   6.242   3.086 -0.1457 -0.0817  0.8271
  425MOL0     C58540   2.378   6.129   3.082  0.0734 -0.5648 -0.0795
  425MOL0     C58541   2.428   6.369   3.042  0.4978 -0.2519 -0.0192
  425MOL0     C58542   2.298   6.406   2.974  0.4001  0.7122 -0.1244
  425MOL0     O58543   2.242   6.523   3.013 -0.0407  0.5052  0.8448
  425MOL0     C58544   2.104   6.544   2.981 -0.2761  0.0655  0.2312
  425MOL0     C58545   1.995   6.466   3.044 -0.6200  0.0978  0.3065
  425MOL0     C58546   1.862   6.509   3.016  0.6478 -0.3213  0.7873
  425MOL0     C58547   1.839   6.608   2.914  0.2257  0.6167 -0.6100
  425MOL0     O58548   1.707   6.636   2.886 -0.2221 -0.3077 -0.7352
  425MOL0     C58549   1.663   6.766   2.854 -0.3972  1.2275  0.2626
  425MOL0     C58550   1.638   6.785   2.700  0.4850 -0.7096  1.1012
  425MOL0     C58551   1.565   6.919   2.677 -0.0101  0.2754 -0.2780
  425MOL0     C58552   1.553   6.959   2.532 -0.3684  0.4510  0.2672
  425MOL0     C58553   1.410   6.966   2.477  1.2160  0.6101  0.5202
  425MOL0     C58554   1.374   6.979   2.324 -0.5224 -0.0295  0.3123
  425MOL0     C58555   1.365   7.130   2.297 -0.1521 -0.1950  0.5710
  425MOL0     C58556   1.337   7.173   2.160 -0.4786 -0.0445  0.2309
  425MOL0    Cl58557   1.359   7.358   2.147 -0.3090  0.2980 -0.5141
  425MOL0     C58558   1.947   6.666   2.854  0.1263 -0.0329 -0.1703
  425MOL0     C58559   2.078   6.634   2.884  0.3204  0.6108 -0.5454
  425MOL0     O58560   2.252   6.344   2.885 -0.1907  0.7291 -0.2958
  425MOL0     C58561   2.527   6.467   3.043  0.1009 -0.3351 -0.5403
  425MOL0     C58562   2.650   6.450   3.098  0.8755 -0.9947 -0.6736
  425MOL0     N58563   3.323   6.332   3.085 -0.4708 -0.0758 -0.3756
  425MOL0     N58564   3.419   6.339   3.004 -0.4496 -0.6070  0.1491
  425MOL0     C58565   3.960   6.009   1.958  0.1136 -0.8494  0.3032
  425MOL0     C58566   3.971   5.980   1.820 -0.2874  0.1499  0.7078
  425MOL0     C58567   4.153   5.717   1.447  0.4323  0.7376  0.4366
  425MOL0     C58568   4.115   5.825   1.360  0.3160 -0.2367  0.0443
  425MOL0     C58569   4.117   5.797   1.217 -0.3571 -0.1912 -0.1248
  425MOL0     C58570   4.177   5.681   1.162 -0.0052 -0.1607 -0.1044
  425MOL0     O58571   4.199   5.668   1.026 -0.0338 -0.0966 -0.4566
  425MOL0     C58572   4.317   5.714   0.969  0.0529 -0.0311  0.3677
  425MOL0     C58573   4.285   5.782   0.836  0.1724  0.0125 -0.1304
  425MOL0     C58574   4.412   5.789   0.745 -0.1228  0.1401 -0.4473
  425MOL0     C58575   4.475   5.656   0.717 -0.6971  1.3129  0.9162
  425MOL0     C58576   4.380   5.544   0.694 -1.0909 -0.7208  0.2577
  425MOL0     C58577   4.308   5.449   0.676 -0.3128 -0.4326  1.0227
  425MOL0     C58578   4.212   5.580   1.250  0.1549  0.2066 -0.5413
  425MOL0     C58579   4.203   5.591   1.393  0.1349 -0.1803 -0.7216
  425MOL0     C58580   4.241   5.466   1.472  0.6158  0.2548 -1.2046
  425MOL0     H58581   4.281   5.874   1.801  0.6003  1.7081 -0.0521
  425MOL0     H58582   4.285   5.919   2.034  1.1128  0.4911 -1.5189
  425MOL0     H58583   3.871   6.075   2.230  1.2777 -0.1122 -1.5833
  425MOL0     H58584   3.978   6.205   2.171 -0.5954  0.6379 -1.0893
  425MOL0     H58585   4.055   6.063   2.423  1.3517  1.7873  3.6121
  425MOL0     H58586   4.087   6.227   2.371 -0.4282 -0.7943 -2.4855
  425MOL0     H58587   3.835   6.283   2.410  0.9048  1.1964  0.9733
  425MOL0     H58588   3.811   6.133   2.485  0.1342 -0.6666 -0.0166
  425MOL0     H58589   3.973   6.152   2.650  1.8786  0.6674 -0.9810
  425MOL0     H58590   4.002   6.327   2.607  2.5443 -0.8620  2.0427
  425MOL0     H58591   3.738   6.187   2.679 -3.0194  2.4943 -1.6072
  425MOL0     H58592   3.756   6.358   2.667  0.7472  0.5802 -3.1399
  425MOL0     H58593   3.864   6.170   2.893  0.8562  0.1084 -1.8674
  425MOL0     H58594   3.911   6.339   2.872 -0.1226  0.2779 -1.5059
  425MOL0     H58595   3.664   6.396   2.897 -0.2106  0.9362  1.2905
  425MOL0     H58596   3.730   6.309   3.040 -0.1162 -0.3355  0.1233
  425MOL0     H58597   3.560   6.197   2.811 -1.0727 -0.4827 -0.1223
  425MOL0     H58598   3.647   6.098   2.936 -1.5649 -1.6364 -3.3105
  425MOL0     H58599   3.468   6.041   3.131  0.9140 -0.4269 -0.2680
  425MOL0     H58600   3.227   6.195   3.350 -1.6240 -1.4256  0.2974
  425MOL0     H58601   3.227   6.063   3.239  3.4954 -0.1356 -0.0713
  425MOL0     H58602   3.045   6.200   3.108 -1.1397  2.5896 -0.7525
  425MOL0     H58603   2.997   6.133   3.262  0.7293 -1.8831 -2.7335
  425MOL0     H58604   3.027   6.327   3.373  1.5474 -1.3363 -0.2199
  425MOL0     H58605   3.125   6.400   3.248 -0.8214  1.7533 -0.4615
  425MOL0     H58606   2.883   6.480   3.273  1.0690 -0.0728 -0.4609
  425MOL0     H58607   2.947   6.466   3.118  1.0316  4.0786  2.7437
  425MOL0     H58608   2.635   6.129   3.181 -0.8344 -1.0528 -1.8861
  425MOL0     H58609   2.399   6.055   3.159 -2.1310 -0.5272  0.6292
  425MOL0     H58610   2.375   6.071   2.989  1.6613 -2.4089  0.9559
  425MOL0     H58611   2.273   6.155   3.101  0.5534  1.3432  0.2105
  425MOL0     H58612   2.008   6.393   3.124  0.5332  1.3977  1.3477
  425MOL0     H58613   1.782   6.458   3.069  0.5860  0.7269  1.7353
  425MOL0     H58614   1.567   6.779   2.905 -0.8891 -0.5270 -0.1531
  425MOL0     H58615   1.734   6.844   2.886  0.6219  1.3697 -2.1294
  425MOL0     H58616   1.731   6.777   2.642  0.0163 -0.9912  0.3822
  425MOL0     H58617   1.580   6.700   2.665  0.9882 -1.7253  2.6043
  425MOL0     H58618   1.628   6.997   2.720 -0.6585  0.7040 -0.0991
  425MOL0     H58619   1.471   6.926   2.732 -0.0428  0.9188 -0.4054
  425MOL0     H58620   1.612   6.888   2.473 -1.4972  0.4838 -0.9447
  425MOL0     H58621   1.589   7.059   2.507 -2.2571  0.5311 -2.6303
  425MOL0     H58622   1.349   6.882   2.513  0.3904 -0.4940 -2.9571
  425MOL0     H58623   1.366   7.049   2.532 -2.2189 -0.8506  0.2310
  425MOL0     H58624   1.282   6.928   2.294  0.1157 -1.8847  1.3054
  425MOL0     H58625   1.463   6.964   2.263  0.6993  3.0518  1.1328
  425MOL0     H58626   1.459   7.178   2.325  0.5023 -0.2718 -1.3455
  425MOL0     H58627   1.290   7.178   2.360 -0.4499  0.7470 -0.4644
  425MOL0     H58628   1.238   7.144   2.125 -0.5203 -0.8706  0.9685
  425MOL0     H58629   1.413   7.137   2.090 -0.9063 -1.1649  0.3162
  425MOL0     H58630   1.944   6.744   2.779  2.6494  3.3953  2.8969
  425MOL0     H58631   2.146   6.697   2.828 -0.0178  1.9731  0.5171
  425MOL0     H58632   2.505   6.557   2.986 -0.5750  0.4806  0.9557
  425MOL0     H58633   2.731   6.520   3.078 -0.4440  0.6520 -0.4453
  425MOL0     H58634   3.869   6.048   2.001  0.6176 -0.4748  1.0530
  425MOL0     H58635   3.884   5.996   1.757  1.1390 -1.0439 -1.7319
  425MOL0     H58636   4.092   5.925   1.394  0.6111 -1.1205  3.1829
  425MOL0     H58637   4.102   5.881   1.150  1.9966 -1.9936 -3.1722
  425MOL0     H58638   4.368   5.788   1.031  0.1372  1.4005 -1.3527
  425MOL0     H58639   4.385   5.629   0.958 -2.6039 -2.0563 -2.2375
  425MOL0     H58640   4.258   5.886   0.855  1.7961  0.9419 -2.3790
  425MOL0     H58641   4.200   5.741   0.782  0.9397  0.2594 -1.5759
  425MOL0     H58642   4.381   5.841   0.653 -3.2201 -1.5263 -0.4727
  425MOL0     H58643   4.489   5.850   0.792  0.2942 -2.8122  3.1212
  425MOL0     H58644   4.533   5.616   0.801  1.6984 -0.5795 -1.4685
  425MOL0     H58645   4.553   5.678   0.644 -0.5125  0.0782  0.7210
  425MOL0     H58646   4.227   5.379   0.667 -1.7385  1.3435 -1.1113
  425MOL0     H58647   4.243   5.482   1.217  1.1118  0.2010  0.3245
  425MOL0     H58648   4.286   5.387   1.411 -1.3777 -0.4272 -1.8702
  425MOL0     H58649   4.310   5.499   1.550 -0.5814  1.3204 -0.5433
  425MOL0     H58650   4.143   5.427   1.503 -0.8895  2.5498 -2.7721
  426MOL0     O58651   6.843   7.918   3.114 -0.6407 -0.7696 -0.0594
  426MOL0     C58652   6.931   8.001   3.118  0.0474 -0.3309  0.8479
  426MOL0     O58653   6.959   8.087   3.223  0.3674  0.0012  0.3069
  426MOL0     C58654   6.871   8.111   3.324  0.4325  1.0889 -0.9492
  426MOL0     C58655   6.853   8.237   3.375 -1.5950  1.5396 -0.1333
  426MOL0     C58656   6.751   8.267   3.467  0.6702  0.4573  0.2484
  426MOL0     C58657   6.675   8.160   3.516 -0.6370  0.5501 -0.8343
  426MOL0     O58658   6.576   8.174   3.609  0.5095 -0.4926 -0.0178
  426MOL0     C58659   6.476   8.069   3.641 -1.0723 -0.1040 -0.0154
  426MOL0     C58660   6.360   8.151   3.698  0.7563  0.0595  0.5101
  426MOL0     C58661   6.373   8.217   3.839 -0.7717 -0.5402 -0.4477
  426MOL0     C58662   6.250   8.285   3.896 -0.3258  0.9356 -0.3381
  426MOL0     C58663   6.272   8.305   4.043 -0.5236  0.9650 -0.4858
  426MOL0     C58664   6.169   8.402   4.113  0.4878  0.1701  0.3720
  426MOL0     C58665   6.058   8.318   4.181 -0.4583 -0.3392 -0.0431
  426MOL0     C58666   5.952   8.399   4.249 -0.6687  1.1550 -0.7241
  426MOL0     N58667   6.000   8.479   4.362 -0.9276  0.3027 -0.3947
  426MOL0     C58668   6.047   8.602   4.355  0.7657 -0.7523 -0.3376
  426MOL0     C58669   6.064   8.645   4.482 -0.5767 -0.9983  0.2572
  426MOL0     C58670   6.108   8.773   4.531  0.4154 -0.3265  0.1760
  426MOL0     C58671   6.201   8.862   4.439 -0.6520  0.3446  1.4750
  426MOL0     C58672   6.321   8.779   4.387 -0.0124 -0.0067 -0.3471
  426MOL0     C58673   6.417   8.744   4.498 -0.0486  0.2253 -0.3127
  426MOL0     O58674   6.458   8.853   4.592  0.4342 -0.2626  0.1915
  426MOL0     C58675   6.530   8.817   4.704  0.0578  0.8769  0.2111
  426MOL0     C58676   6.584   8.685   4.719 -0.0108  0.4903 -0.3197
  426MOL0     C58677   6.643   8.641   4.845 -0.6660  0.0194  0.0977
  426MOL0     C58678   6.696   8.498   4.848 -0.7848 -0.4765 -0.2317
  426MOL0     C58679   6.649   8.740   4.949  0.3942  0.2562  0.3409
  426MOL0     C58680   6.671   8.694   5.092  0.4330 -0.0655  0.4755
  426MOL0     O58681   6.672   8.802   5.162 -0.6615  0.4401 -0.6334
  426MOL0     C58682   6.747   8.805   5.285 -0.1190 -1.0716  0.8655
  426MOL0     C58683   6.868   8.750   5.308 -0.8116  0.1570 -0.3826
  426MOL0     C58684   6.942   8.760   5.430  0.1429 -0.0990 -0.8293
  426MOL0     C58685   6.880   8.831   5.535  0.6831  0.3831  0.9758
  426MOL0     O58686   6.926   8.846   5.658  0.9653  0.9915  0.2963
  426MOL0     C58687   7.036   8.942   5.667 -0.5732  0.5029 -0.0638
  426MOL0     C58688   6.995   9.094   5.659  0.1904  0.1179  0.5755
  426MOL0     C58689   6.901   9.142   5.774 -0.4706  0.9592  0.5870
  426MOL0     C58690   6.823   9.263   5.729  0.3712 -0.3731  0.3959
  426MOL0     C58691   6.747   9.326   5.840  0.2349  0.7532 -1.0080
  426MOL0     C58692   6.829   9.359   5.960  0.4371 -0.3281 -0.0572
  426MOL0     C58693   6.755   9.467   6.050  0.5270  0.4112 -0.0666
  426MOL0     C58694   6.845   9.511   6.168 -0.2128  0.3977 -0.1109
  426MOL0    Cl58695   6.991   9.590   6.121  0.0866  0.1175 -0.2382
  426MOL0     C58696   6.757   8.893   5.511  0.7714  0.5325 -0.2270
  426MOL0     C58697   6.689   8.876   5.390  0.2121  0.2570 -0.4424
  426MOL0     O58698   6.704   8.586   5.136  0.0395 -1.0142 -0.0615
  426MOL0     C58699   6.608   8.871   4.922  0.6458 -0.1115  0.4242
  426MOL0     C58700   6.547   8.908   4.797 -0.2693  0.2689 -0.4033
  426MOL0     N58701   6.043   8.542   4.561 -0.2927  0.5183 -0.0172
  426MOL0     N58702   5.992   8.443   4.493 -0.7559  0.1443  0.5134
  426MOL0     C58703   6.709   8.027   3.492  0.0176  0.1054  0.0072
  426MOL0     C58704   6.799   8.005   3.388  0.0332 -0.0621  0.7916
  426MOL0     C58705   7.017   8.022   2.999  0.0333  1.0668  1.5740
  426MOL0     C58706   7.096   8.132   2.976 -0.4079 -0.6059 -0.2560
  426MOL0     C58707   7.164   8.153   2.859  0.2322  0.0679 -0.3388
  426MOL0     C58708   7.150   8.058   2.762  0.1595  1.0241 -0.4599
  426MOL0     O58709   7.205   8.069   2.639 -0.0497  0.0363  0.7308
  426MOL0     C58710   7.311   8.162   2.599  0.1114  0.7139 -0.5180
  426MOL0     C58711   7.303   8.193   2.446  0.6548  0.6773 -0.1855
  426MOL0     C58712   7.369   8.328   2.409 -0.0406 -0.6149 -0.6527
  426MOL0     C58713   7.521   8.294   2.393 -0.4148 -0.0906  0.1068
  426MOL0     C58714   7.557   8.206   2.275 -0.4104  0.2254 -0.4074
  426MOL0     C58715   7.594   8.139   2.177  0.9340  0.0795 -0.8146
  426MOL0     C58716   7.085   7.938   2.776  0.9574 -0.4093 -0.8295
  426MOL0     C58717   7.018   7.925   2.890  0.9574  0.3193 -0.9441
  426MOL0     C58718   6.953   7.786   2.899  0.4381  0.0161  0.0623
  426MOL0     H58719   6.916   8.314   3.331 -0.0096  1.1336  1.3443
  426MOL0     H58720   6.714   8.366   3.490 -1.1297 -0.4236  1.3711
  426MOL0     H58721   6.507   7.987   3.705  0.5028 -0.6857 -1.4599
  426MOL0     H58722   6.435   8.029   3.548 -0.3035 -0.0656 -0.3803
  426MOL0     H58723   6.329   8.235   3.635  0.9075  0.2888  0.7444
  426MOL0     H58724   6.282   8.074   3.707  0.6585  0.0046 -0.6169
  426MOL0     H58725   6.396   8.142   3.916  0.8141  2.8856  2.7537
  426MOL0     H58726   6.459   8.284   3.841 -0.5746 -0.8138  0.5593
  426MOL0     H58727   6.241   8.386   3.855  0.3711  1.0858 -0.1341
  426MOL0     H58728   6.160   8.225   3.877  0.9951 -1.4285  0.4307
  426MOL0     H58729   6.375   8.339   4.057  0.0062 -0.2198 -1.2723
  426MOL0     H58730   6.257   8.205   4.085 -1.6060  0.9780 -0.8031
  426MOL0     H58731   6.233   8.455   4.184  5.2067  0.5498 -3.6288
  426MOL0     H58732   6.141   8.489   4.052  1.7100  1.1557  1.1626
  426MOL0     H58733   6.097   8.240   4.246 -1.0817 -0.9660 -0.4021
  426MOL0     H58734   6.007   8.256   4.106  1.4479 -2.5820  0.3949
  426MOL0     H58735   5.910   8.467   4.174  1.9279 -0.1271 -3.5527
  426MOL0     H58736   5.870   8.337   4.285  0.9299  0.4968  2.0517
  426MOL0     H58737   6.071   8.660   4.267 -0.5647 -0.3642 -0.4519
  426MOL0     H58738   6.156   8.766   4.629 -1.3427  1.9304  1.2831
  426MOL0     H58739   6.014   8.823   4.556  1.0737  0.5303  0.9870
  426MOL0     H58740   6.148   8.907   4.354  1.0800  1.0028  0.6849
  426MOL0     H58741   6.222   8.953   4.496  0.1098 -0.0989  1.9116
  426MOL0     H58742   6.288   8.688   4.336 -1.1498 -0.4745  1.1320
  426MOL0     H58743   6.376   8.841   4.315  2.0612  1.0446  1.9911
  426MOL0     H58744   6.383   8.655   4.553 -1.1805  0.7072 -0.1985
  426MOL0     H58745   6.506   8.716   4.441 -1.4819 -1.8361 -1.6604
  426MOL0     H58746   6.578   8.604   4.647  1.0520 -0.9929  1.1668
  426MOL0     H58747   6.800   8.492   4.882 -1.0521  0.6670  0.8337
  426MOL0     H58748   6.696   8.452   4.749  1.0306 -0.0562 -0.4576
  426MOL0     H58749   6.633   8.440   4.917 -0.7917  1.1503  1.1949
  426MOL0     H58750   6.905   8.680   5.233 -3.0361 -0.4478 -0.9718
  426MOL0     H58751   7.032   8.709   5.463 -2.0431 -3.5981  0.2598
  426MOL0     H58752   7.091   8.926   5.760 -0.0766  0.3696 -0.3737
  426MOL0     H58753   7.107   8.913   5.588  2.2270 -2.4538  3.1851
  426MOL0     H58754   7.088   9.152   5.666  1.5624 -1.7627 -0.8624
  426MOL0     H58755   6.950   9.104   5.560  0.8046  0.6241  0.3350
  426MOL0     H58756   6.949   9.157   5.871  3.5320 -0.4026 -0.9541
  426MOL0     H58757   6.834   9.058   5.789  0.3084  0.0737 -0.6331
  426MOL0     H58758   6.764   9.244   5.639  2.0592 -1.0034 -0.6195
  426MOL0     H58759   6.904   9.325   5.690  1.4051 -2.6145 -1.2386
  426MOL0     H58760   6.710   9.420   5.800  0.2799  1.1431 -0.1489
  426MOL0     H58761   6.661   9.263   5.864 -0.8909  3.0064  1.2721
  426MOL0     H58762   6.921   9.407   5.926  1.0862 -1.1785  0.4442
  426MOL0     H58763   6.856   9.270   6.019  1.0934 -0.4959 -0.5992
  426MOL0     H58764   6.659   9.431   6.088 -0.1629  1.7211 -0.5054
  426MOL0     H58765   6.734   9.551   5.983  0.3834 -1.1490 -2.0964
  426MOL0     H58766   6.875   9.419   6.218 -2.6780 -1.8593 -2.4376
  426MOL0     H58767   6.787   9.564   6.243  1.1522  1.8517 -0.0205
  426MOL0     H58768   6.699   8.931   5.595 -0.8208 -0.0385 -1.0130
  426MOL0     H58769   6.594   8.924   5.366  0.5251  0.6231 -0.9390
  426MOL0     H58770   6.620   8.947   4.999  0.3542  2.8624 -2.2846
  426MOL0     H58771   6.511   9.009   4.784  3.5433  2.1456  1.8038
  426MOL0     H58772   6.658   7.948   3.546 -0.7190  1.7719  1.8658
  426MOL0     H58773   6.834   7.903   3.373 -1.4504 -0.2771 -1.6347
  426MOL0     H58774   7.087   8.200   3.061 -2.6532 -2.1955  0.8831
  426MOL0     H58775   7.214   8.249   2.856  2.4284 -0.9636  1.1497
  426MOL0     H58776   7.295   8.253   2.658 -0.2289  0.7167 -0.6124
  426MOL0     H58777   7.408   8.119   2.623  1.0188  2.6456 -0.5286
  426MOL0     H58778   7.201   8.212   2.411  1.6748  5.2790 -1.3587
  426MOL0     H58779   7.340   8.117   2.376 -2.2249  2.1841 -3.6618
  426MOL0     H58780   7.328   8.356   2.311 -0.1080 -0.1720 -0.4973
  426MOL0     H58781   7.343   8.408   2.479  0.9066 -1.3993  0.6301
  426MOL0     H58782   7.552   8.238   2.482 -0.2904  0.3828  0.3631
  426MOL0     H58783   7.581   8.384   2.380  0.8918 -0.7583  1.2772
  426MOL0     H58784   7.602   8.082   2.087 -2.2507  0.9873 -1.8217
  426MOL0     H58785   7.079   7.864   2.696 -2.8597 -3.6713  2.0724
  426MOL0     H58786   6.845   7.790   2.917 -0.1514 -4.3512 -1.2808
  426MOL0     H58787   6.957   7.744   2.799  1.3911  4.2587 -1.9041
  426MOL0     H58788   7.008   7.718   2.965  0.3446  0.8748  1.0483
  427MOL0     O58789   7.771   6.163   8.765  0.3473 -0.3331  0.2763
  427MOL0     C58790   7.866   6.145   8.846  0.3896 -0.0945 -0.2007
  427MOL0     O58791   7.857   6.197   8.974 -0.1306  0.1788 -0.2558
  427MOL0     C58792   7.747   6.152   9.047 -0.1884 -1.1294 -0.1630
  427MOL0     C58793   7.715   6.017   9.040  0.1459 -0.0706  0.8438
  427MOL0     C58794   7.612   5.965   9.122  0.1284 -0.2083  0.4130
  427MOL0     C58795   7.543   6.045   9.216  0.3033  0.3281  0.5294
  427MOL0     O58796   7.450   6.002   9.311 -0.6469 -0.3473 -0.6494
  427MOL0     C58797   7.438   5.860   9.341  0.1998  0.8697 -0.4129
  427MOL0     C58798   7.313   5.835   9.416  0.0982  0.2772 -0.5931
  427MOL0     C58799   7.254   5.709   9.373  1.2185  0.7631 -0.0935
  427MOL0     C58800   7.116   5.703   9.434  0.5726 -0.7057 -0.0955
  427MOL0     C58801   7.037   5.586   9.371  0.9249 -0.0437 -0.3794
  427MOL0     C58802   6.954   5.635   9.247  0.3150  0.1883 -0.1298
  427MOL0     C58803   6.833   5.725   9.268 -0.2183  0.2298  0.8679
  427MOL0     C58804   6.766   5.742   9.129 -0.0080 -0.7182  0.0238
  427MOL0     N58805   6.654   5.834   9.155  0.0099  0.9339  0.0105
  427MOL0     C58806   6.533   5.779   9.184 -0.4605  0.4521 -0.3900
  427MOL0     C58807   6.464   5.886   9.213  0.1426 -0.1635 -0.9333
  427MOL0     C58808   6.317   5.896   9.233 -0.6654  0.2139 -0.1885
  427MOL0     C58809   6.266   5.846   9.366 -0.5304  0.7425  0.3392
  427MOL0     C58810   6.115   5.831   9.391  0.4185  0.8686 -0.7061
  427MOL0     C58811   6.052   5.720   9.310 -0.2090  0.1041 -0.1352
  427MOL0     O58812   5.988   5.757   9.180 -0.4858  0.0034  0.2186
  427MOL0     C58813   5.951   5.662   9.093  0.4181 -0.0862  0.8367
  427MOL0     C58814   5.914   5.533   9.141  0.3376  0.5474 -0.1427
  427MOL0     C58815   5.870   5.433   9.054  0.7025  0.0429 -0.5211
  427MOL0     C58816   5.822   5.310   9.133 -1.1701  0.7075 -0.4169
  427MOL0     C58817   5.874   5.441   8.919  0.1379  0.0436 -0.1833
  427MOL0     C58818   5.859   5.320   8.830 -0.3945 -0.2008  0.2441
  427MOL0     O58819   5.814   5.337   8.695 -0.3494 -0.1288 -0.1291
  427MOL0     C58820   5.801   5.220   8.626 -0.0773 -0.0917  0.1089
  427MOL0     C58821   5.676   5.169   8.612  0.8831 -0.0351  0.3683
  427MOL0     C58822   5.671   5.051   8.530  0.9065  0.0239  0.1107
  427MOL0     C58823   5.776   4.980   8.470  0.0615  0.1778 -0.4327
  427MOL0     O58824   5.768   4.860   8.395  0.0278  0.2851 -0.0835
  427MOL0     C58825   5.644   4.787   8.402 -0.5495 -0.1123  1.3598
  427MOL0     C58826   5.635   4.706   8.531 -0.3599  0.6592  0.4214
  427MOL0     C58827   5.487   4.674   8.581 -0.8552 -0.2870 -0.1945
  427MOL0     C58828   5.445   4.788   8.681  0.9599 -0.2961  0.6358
  427MOL0     C58829   5.294   4.787   8.708 -0.3042  0.1097  0.0291
  427MOL0     C58830   5.242   4.884   8.815 -0.9148 -1.1643 -0.6220
  427MOL0     C58831   5.121   4.970   8.773  0.0261 -0.6384  0.8091
  427MOL0     C58832   5.148   5.073   8.660 -0.6055 -0.9819 -0.5527
  427MOL0    Cl58833   5.006   5.163   8.625 -0.2208  0.3882 -0.4717
  427MOL0     C58834   5.900   5.045   8.486 -0.4017  0.1270 -0.4284
  427MOL0     C58835   5.911   5.170   8.551  0.3107  0.4294 -1.4447
  427MOL0     O58836   5.899   5.221   8.878  0.2544  0.2554  0.5871
  427MOL0     C58837   5.916   5.566   8.873  0.4589  0.7641  0.9846
  427MOL0     C58838   5.955   5.674   8.954  1.1988 -0.8132 -0.5754
  427MOL0     N58839   6.543   5.994   9.213  0.0091  0.2776  0.0061
  427MOL0     N58840   6.664   5.969   9.183  0.3905 -0.0682  0.9902
  427MOL0     C58841   7.587   6.180   9.227  0.2718  0.2508  0.5229
  427MOL0     C58842   7.691   6.232   9.148  0.5910 -0.0047 -0.3020
  427MOL0     C58843   7.995   6.104   8.778 -0.1724  0.4446 -0.0721
  427MOL0     C58844   8.101   6.097   8.877  0.0763  1.2404  0.0367
  427MOL0     C58845   8.221   6.077   8.827  0.4953  0.6860 -0.3438
  427MOL0     C58846   8.246   6.069   8.691 -0.1949  0.8655 -0.3866
  427MOL0     O58847   8.377   6.051   8.655  0.2695  0.3948 -0.2854
  427MOL0     C58848   8.439   6.119   8.543 -0.2727  0.4223 -0.3156
  427MOL0     C58849   8.427   6.275   8.561 -0.2674 -1.0273  0.5061
  427MOL0     C58850   8.508   6.355   8.458 -0.1179 -1.0749 -0.6855
  427MOL0     C58851   8.528   6.498   8.486 -0.3248  0.8121 -1.1263
  427MOL0     C58852   8.404   6.574   8.513 -0.3175 -0.5816  0.3309
  427MOL0     C58853   8.298   6.628   8.528  0.2682  0.1855  1.2023
  427MOL0     C58854   8.138   6.048   8.609  0.0538 -0.3524  0.8047
  427MOL0     C58855   8.010   6.064   8.653 -0.1175 -1.1230  0.7580
  427MOL0     C58856   7.898   6.051   8.553 -0.2507  0.1267  0.3656
  427MOL0     H58857   7.763   5.944   8.975  2.3209  1.3427  0.7536
  427MOL0     H58858   7.600   5.858   9.115 -0.4023 -0.3530  2.6846
  427MOL0     H58859   7.525   5.836   9.402 -0.0077 -4.0138 -1.5749
  427MOL0     H58860   7.440   5.800   9.249  0.2716  0.1451  0.0555
  427MOL0     H58861   7.345   5.829   9.520 -0.0703 -0.7871 -0.5876
  427MOL0     H58862   7.254   5.927   9.419  0.2080  0.4245  4.2516
  427MOL0     H58863   7.240   5.701   9.265 -1.0879  2.5420  0.0165
  427MOL0     H58864   7.325   5.635   9.413  2.0801  0.9991 -1.1425
  427MOL0     H58865   7.126   5.677   9.539 -0.3969 -2.0849 -0.3164
  427MOL0     H58866   7.059   5.796   9.423  2.7129  1.4728  4.6595
  427MOL0     H58867   6.980   5.534   9.449  2.9689 -3.6491 -1.0691
  427MOL0     H58868   7.093   5.497   9.339  0.6838 -0.3978  0.1662
  427MOL0     H58869   7.025   5.676   9.174  0.2616 -0.5148 -0.5735
  427MOL0     H58870   6.905   5.553   9.195  0.1348  1.3489 -1.8507
  427MOL0     H58871   6.858   5.817   9.321  2.2016  0.2366 -0.1574
  427MOL0     H58872   6.755   5.677   9.327  1.1518  0.1713  2.7250
  427MOL0     H58873   6.834   5.787   9.056 -0.3094 -1.8889 -1.0202
  427MOL0     H58874   6.727   5.649   9.086 -0.3098 -0.7540  0.3631
  427MOL0     H58875   6.500   5.678   9.159 -1.1894  0.5988 -0.0353
  427MOL0     H58876   6.261   5.854   9.149 -1.2994  1.3305 -0.3442
  427MOL0     H58877   6.293   6.002   9.226 -1.6404 -0.0621 -1.4254
  427MOL0     H58878   6.309   5.747   9.386  1.6313  1.7478  1.0189
  427MOL0     H58879   6.307   5.901   9.451 -1.6849 -1.9135  2.7786
  427MOL0     H58880   6.108   5.810   9.498  1.6713  1.8867 -0.3964
  427MOL0     H58881   6.066   5.927   9.372 -1.8283  0.1018  0.8361
  427MOL0     H58882   6.124   5.638   9.304 -1.8584 -1.3067 -2.4017
  427MOL0     H58883   5.970   5.678   9.369 -1.1386  0.9629 -0.7796
  427MOL0     H58884   5.893   5.518   9.247 -0.9661  0.0062 -0.4619
  427MOL0     H58885   5.737   5.334   9.198 -1.1555  1.3926 -0.6464
  427MOL0     H58886   5.909   5.290   9.196 -1.1775 -0.5194 -0.7726
  427MOL0     H58887   5.782   5.223   9.081  0.0407 -0.8385  1.1178
  427MOL0     H58888   5.586   5.208   8.658 -0.1350 -1.0526 -0.6996
  427MOL0     H58889   5.572   5.007   8.522  0.5530  0.9454 -0.9422
  427MOL0     H58890   5.556   4.851   8.397 -0.2111  0.3346  1.0672
  427MOL0     H58891   5.644   4.725   8.312  0.8783  1.9478 -0.1301
  427MOL0     H58892   5.691   4.613   8.518 -0.5133  0.7575 -1.0900
  427MOL0     H58893   5.679   4.766   8.611  1.2533 -1.2559  1.0635
  427MOL0     H58894   5.490   4.590   8.650  0.4573  0.3765  0.6132
  427MOL0     H58895   5.423   4.655   8.495  2.7588 -4.1236 -2.3884
  427MOL0     H58896   5.471   4.886   8.640 -0.5294  0.2943  1.0059
  427MOL0     H58897   5.504   4.781   8.772  2.5272  0.7500 -0.2648
  427MOL0     H58898   5.241   4.809   8.615  1.4545 -0.0100 -1.0437
  427MOL0     H58899   5.267   4.687   8.744 -1.7876  1.4324  2.9147
  427MOL0     H58900   5.326   4.953   8.829 -1.9109  0.8047 -3.3513
  427MOL0     H58901   5.209   4.829   8.904  1.7743 -1.2205  0.4366
  427MOL0     H58902   5.083   5.036   8.852 -0.3150  0.1231  0.0235
  427MOL0     H58903   5.042   4.904   8.738  0.5680 -0.7252 -0.3142
  427MOL0     H58904   5.171   5.013   8.572 -1.0693  1.6535 -2.5755
  427MOL0     H58905   5.235   5.136   8.678  0.2953 -1.8558 -1.7122
  427MOL0     H58906   5.976   4.992   8.429  1.6470 -1.4133  3.3330
  427MOL0     H58907   6.005   5.223   8.542  1.0268 -0.7213 -1.0279
  427MOL0     H58908   5.921   5.585   8.766 -1.7564 -0.7639  0.5526
  427MOL0     H58909   5.982   5.772   8.917  0.8678 -0.8887 -1.0336
  427MOL0     H58910   7.547   6.252   9.297 -1.3206 -0.7730  0.7364
  427MOL0     H58911   7.733   6.331   9.165  5.7892 -1.4079 -3.0200
  427MOL0     H58912   8.081   6.122   8.981 -0.8651  0.2122  0.1121
  427MOL0     H58913   8.306   6.073   8.895  1.4285  0.3099 -1.4816
  427MOL0     H58914   8.544   6.089   8.544 -1.0206 -2.5102  1.5701
  427MOL0     H58915   8.391   6.088   8.449  0.3120  0.1046 -0.5135
  427MOL0     H58916   8.461   6.287   8.664 -0.5913  0.2591  0.4761
  427MOL0     H58917   8.324   6.309   8.567  0.0479  0.5947 -1.9728
  427MOL0     H58918   8.610   6.317   8.457  0.6220  0.4083  3.4096
  427MOL0     H58919   8.455   6.357   8.362  0.4403  1.1800 -1.0032
  427MOL0     H58920   8.583   6.524   8.395  3.0238 -3.1281 -0.5393
  427MOL0     H58921   8.586   6.524   8.575  1.1763  2.1446 -2.4127
  427MOL0     H58922   8.201   6.674   8.535  0.7893  1.4709  0.3289
  427MOL0     H58923   8.157   6.035   8.503 -0.0056  3.7481  0.1194
  427MOL0     H58924   7.845   6.145   8.537  0.7417  0.3591 -1.9396
  427MOL0     H58925   7.936   6.030   8.452  0.8163  3.2318  0.0324
  427MOL0     H58926   7.825   5.978   8.590  0.9490 -0.9128  0.7506
  428MOL0     O58927   0.977   6.434   3.533 -0.0173  0.3544 -0.6443
  428MOL0     C58928   1.056   6.336   3.529  0.5292  0.0080 -0.0357
  428MOL0     O58929   1.148   6.300   3.624  0.4985 -0.3261  0.1601
  428MOL0     C58930   1.156   6.399   3.727 -0.8742  0.6732 -0.8031
  428MOL0     C58931   1.073   6.372   3.848 -0.4667 -0.2361 -0.1535
  428MOL0     C58932   1.069   6.470   3.950 -0.6875  1.3739  0.2386
  428MOL0     C58933   1.137   6.593   3.935  0.3714  0.8980  0.6205
  428MOL0     O58934   1.096   6.683   4.025  0.6126 -0.3217  0.1591
  428MOL0     C58935   1.077   6.818   3.979 -0.5319  0.3966 -0.2111
  428MOL0     C58936   0.995   6.898   4.081 -0.6969  0.2332 -0.6232
  428MOL0     C58937   1.018   7.044   4.048  0.4330  0.2454  0.1567
  428MOL0     C58938   0.920   7.116   4.140  0.4759 -1.3345 -1.0596
  428MOL0     C58939   0.910   7.262   4.099 -0.2986 -0.1109  0.3045
  428MOL0     C58940   0.843   7.351   4.215 -0.2234 -0.3921  0.5449
  428MOL0     C58941   0.858   7.510   4.181  0.7985  0.2378  0.8795
  428MOL0     C58942   1.003   7.554   4.211  0.1237  0.3074  0.2879
  428MOL0     N58943   1.025   7.696   4.216  0.3922  0.3786  0.6356
  428MOL0     C58944   1.144   7.763   4.245 -1.3395  0.8798 -0.5753
  428MOL0     C58945   1.110   7.890   4.231  1.0563 -0.5137 -0.7083
  428MOL0     C58946   1.205   8.006   4.237  0.1956 -0.0931  0.0478
  428MOL0     C58947   1.243   8.059   4.377  0.1775 -0.2351 -0.5069
  428MOL0     C58948   1.329   7.982   4.466  0.2819  0.1594 -0.0145
  428MOL0     C58949   1.471   8.039   4.469  0.6374  0.0113 -0.0518
  428MOL0     O58950   1.557   7.968   4.556  0.4722 -0.2868 -0.1478
  428MOL0     C58951   1.683   8.012   4.546 -0.7413 -0.4033 -0.2019
  428MOL0     C58952   1.726   8.138   4.590  0.3462  0.0065 -0.2357
  428MOL0     C58953   1.853   8.185   4.578 -1.3334  0.6544 -0.3041
  428MOL0     C58954   1.885   8.326   4.609 -0.3957 -0.0074  0.5838
  428MOL0     C58955   1.953   8.090   4.529  0.2449 -1.1429 -1.2456
  428MOL0     C58956   2.096   8.132   4.527  0.1173  0.3078  0.6135
  428MOL0     O58957   2.136   8.230   4.615  0.3393  1.1179 -0.0577
  428MOL0     C58958   2.263   8.278   4.601  0.2356  0.2566 -0.0446
  428MOL0     C58959   2.343   8.280   4.722  0.1288  0.8621 -0.5943
  428MOL0     C58960   2.475   8.333   4.713  0.4402 -0.7613 -0.5105
  428MOL0     C58961   2.533   8.370   4.596 -0.3255  0.0116 -0.2672
  428MOL0     O58962   2.667   8.417   4.595  0.5854 -0.4412 -0.5325
  428MOL0     C58963   2.724   8.459   4.473 -0.3296 -0.6423  0.8124
  428MOL0     C58964   2.873   8.451   4.482 -0.1755  0.5670  0.6851
  428MOL0     C58965   2.924   8.305   4.474 -0.3468 -0.5742 -0.2864
  428MOL0     C58966   3.073   8.317   4.448  0.1568 -0.1888  0.4619
  428MOL0     C58967   3.127   8.182   4.397  0.0063 -0.4291 -0.5416
  428MOL0     C58968   3.083   8.054   4.465  0.0812 -0.8669  0.2526
  428MOL0     C58969   3.158   8.067   4.603  0.7457  0.7283  0.2235
  428MOL0     C58970   3.177   7.927   4.662  0.6986  0.3832  0.3797
  428MOL0    Cl58971   3.279   7.808   4.569  0.7237  0.0187 -0.2177
  428MOL0     C58972   2.451   8.367   4.482  0.8169  0.5783 -0.8250
  428MOL0     C58973   2.317   8.331   4.484 -0.6305  0.4789 -0.2333
  428MOL0     O58974   2.171   8.065   4.459  0.9136  0.1461 -0.1263
  428MOL0     C58975   1.911   7.967   4.500 -0.2087  0.8765  0.5398
  428MOL0     C58976   1.780   7.918   4.510  0.6753 -0.1072 -0.2503
  428MOL0     N58977   0.980   7.907   4.210  0.5804  0.3960 -0.4022
  428MOL0     N58978   0.923   7.788   4.188  0.6152 -0.9672  0.0905
  428MOL0     C58979   1.213   6.620   3.816  0.5256 -0.6232  0.6557
  428MOL0     C58980   1.214   6.527   3.715  0.0229  0.7216  0.2905
  428MOL0     C58981   1.050   6.241   3.403 -0.6044  0.3297  0.2127
  428MOL0     C58982   1.101   6.113   3.418  0.2854 -0.6086 -0.4141
  428MOL0     C58983   1.102   6.015   3.316 -0.4010 -0.8052 -0.1473
  428MOL0     C58984   1.051   6.048   3.193  0.4148 -0.8025  0.1564
  428MOL0     O58985   1.050   5.971   3.077  0.1555 -0.6578  0.0131
  428MOL0     C58986   1.102   5.834   3.082  0.5234 -0.6427  0.6309
  428MOL0     C58987   1.182   5.804   2.953 -0.4801  0.2550 -0.4370
  428MOL0     C58988   1.331   5.859   2.946  0.4104  0.3623 -0.0356
  428MOL0     C58989   1.398   5.864   2.809  0.3186 -1.0646  0.0376
  428MOL0     C58990   1.300   5.931   2.716 -0.2923  0.4140  1.2533
  428MOL0     C58991   1.237   5.989   2.629 -0.8098  0.1414  0.1829
  428MOL0     C58992   1.007   6.183   3.172 -0.7679  0.1063  1.5158
  428MOL0     C58993   0.999   6.275   3.274  0.2207 -0.5297  0.7570
  428MOL0     C58994   0.968   6.419   3.232  0.3374  1.0537  0.0073
  428MOL0     H58995   1.030   6.273   3.859 -2.3360  0.3549 -1.5060
  428MOL0     H58996   1.007   6.451   4.037  0.1268 -0.6028  0.4540
  428MOL0     H58997   1.047   6.826   3.874  1.9647  1.3986 -0.9377
  428MOL0     H58998   1.179   6.858   3.983 -0.4705  0.1872  0.5456
  428MOL0     H58999   0.890   6.867   4.074 -1.2174  2.0206 -1.2003
  428MOL0     H59000   1.025   6.880   4.184 -0.7238  0.9296 -0.4882
  428MOL0     H59001   1.125   7.062   4.063  0.1966  1.3628  0.5606
  428MOL0     H59002   1.005   7.061   3.941  2.1470  0.5736 -0.0387
  428MOL0     H59003   0.821   7.071   4.133 -0.2021 -0.5620  2.2664
  428MOL0     H59004   0.945   7.108   4.246 -1.0140  0.2453 -0.5466
  428MOL0     H59005   0.866   7.273   4.000 -2.0660 -2.6242  0.7048
  428MOL0     H59006   1.010   7.303   4.091 -1.7083  3.8763  1.0334
  428MOL0     H59007   0.741   7.313   4.219 -0.5575  0.3891 -0.1961
  428MOL0     H59008   0.887   7.337   4.314 -0.5840  0.5726  0.8511
  428MOL0     H59009   0.790   7.568   4.245 -0.9137 -0.7914  0.0634
  428MOL0     H59010   0.828   7.537   4.079  0.3139 -0.2760  0.8787
  428MOL0     H59011   1.033   7.514   4.309 -2.0766 -1.2260  0.4111
  428MOL0     H59012   1.057   7.507   4.128 -1.8228 -4.6623  1.4303
  428MOL0     H59013   1.242   7.720   4.265 -0.6734  1.5879 -2.1743
  428MOL0     H59014   1.167   8.093   4.183  2.1026 -0.9070 -2.8292
  428MOL0     H59015   1.290   7.970   4.178 -1.4676 -0.2828 -2.3939
  428MOL0     H59016   1.289   8.157   4.359  0.5280  0.2543  2.5121
  428MOL0     H59017   1.153   8.076   4.436  1.9773 -1.2134  2.7609
  428MOL0     H59018   1.295   7.973   4.569  0.1251 -1.4333 -0.1870
  428MOL0     H59019   1.350   7.887   4.416  3.4068  1.8802 -2.3572
  428MOL0     H59020   1.521   8.043   4.372  1.7719  0.2297  0.5299
  428MOL0     H59021   1.448   8.141   4.504 -1.7256 -0.3826 -0.2474
  428MOL0     H59022   1.652   8.211   4.623 -0.0276  0.8847 -2.7658
  428MOL0     H59023   1.788   8.378   4.607 -0.6510 -0.1387 -4.8157
  428MOL0     H59024   1.955   8.366   4.535  0.7172  0.2235  1.7416
  428MOL0     H59025   1.931   8.334   4.707  2.5769  0.4989 -0.7503
  428MOL0     H59026   2.281   8.267   4.809 -1.8287 -1.6062 -2.2355
  428MOL0     H59027   2.540   8.352   4.798  2.1334 -0.4312 -1.8319
  428MOL0     H59028   2.685   8.391   4.397 -0.9849 -0.6638  1.1579
  428MOL0     H59029   2.691   8.559   4.444  0.3212 -1.2872 -2.5765
  428MOL0     H59030   2.906   8.513   4.398 -0.6713 -1.9666 -1.5315
  428MOL0     H59031   2.912   8.501   4.572  1.0478 -0.0241  0.5082
  428MOL0     H59032   2.883   8.248   4.390 -0.5014 -1.6987  0.5340
  428MOL0     H59033   2.906   8.252   4.568  2.5925 -0.8485  0.2049
  428MOL0     H59034   3.119   8.333   4.546  0.8063 -0.1292  0.1496
  428MOL0     H59035   3.088   8.402   4.380 -3.1163  0.0206 -0.1506
  428MOL0     H59036   3.086   8.163   4.298  1.9518 -1.0253 -1.2950
  428MOL0     H59037   3.234   8.181   4.375 -0.0866  0.1630 -1.0583
  428MOL0     H59038   3.121   7.968   4.409  2.0024  0.6685 -0.9597
  428MOL0     H59039   2.975   8.050   4.479 -0.1361  1.1373 -0.4497
  428MOL0     H59040   3.100   8.134   4.668  0.1256  0.7038 -0.2919
  428MOL0     H59041   3.260   8.107   4.606  0.3962  1.6605  0.1440
  428MOL0     H59042   3.078   7.884   4.675  0.8309 -0.5783 -1.4248
  428MOL0     H59043   3.227   7.942   4.758 -0.7173  4.2067  0.6845
  428MOL0     H59044   2.491   8.379   4.382  2.1632  1.9728 -0.1750
  428MOL0     H59045   2.260   8.332   4.392 -2.2375 -2.8784  0.5558
  428MOL0     H59046   1.987   7.893   4.475  0.2862  2.3085 -2.7597
  428MOL0     H59047   1.741   7.818   4.493  0.7740 -0.0864 -0.6092
  428MOL0     H59048   1.268   6.713   3.805  2.4502 -1.6731  0.7649
  428MOL0     H59049   1.274   6.546   3.627 -1.0239 -1.6262 -1.0080
  428MOL0     H59050   1.125   6.089   3.521 -1.9888 -2.5816 -0.2687
  428MOL0     H59051   1.166   5.928   3.330  0.2335 -0.4407 -0.7018
  428MOL0     H59052   1.175   5.826   3.163  0.0508  0.6198  1.2049
  428MOL0     H59053   1.019   5.766   3.103  2.8814 -3.0008  3.0821
  428MOL0     H59054   1.122   5.841   2.870 -0.8123  0.6633 -0.0217
  428MOL0     H59055   1.186   5.696   2.933  2.5073  0.0299  0.8310
  428MOL0     H59056   1.327   5.956   2.996  0.7472  1.0105 -1.2269
  428MOL0     H59057   1.390   5.790   3.007 -2.4542 -1.2496  1.1164
  428MOL0     H59058   1.422   5.766   2.766  0.5549 -0.5025 -1.1575
  428MOL0     H59059   1.484   5.930   2.826 -1.1967  0.5800  1.8429
  428MOL0     H59060   1.170   6.042   2.564 -0.2028  1.5126  0.6519
  428MOL0     H59061   0.982   6.211   3.070  3.2092  1.6800  0.7553
  428MOL0     H59062   0.932   6.419   3.128  0.0951 -1.1849  0.0318
  428MOL0     H59063   0.893   6.473   3.291 -1.1805 -1.8820  0.9814
  428MOL0     H59064   1.064   6.471   3.239  1.2523 -0.7988  4.0038
  429MOL0     O59065   3.711   6.281   1.882  0.5310 -0.3106  0.1557
  429MOL0     C59066   3.670   6.375   1.818  1.3958 -0.0764  0.1801
  429MOL0     O59067   3.681   6.394   1.678  0.4669 -0.4297 -0.5871
  429MOL0     C59068   3.784   6.334   1.607  1.1655 -0.2488 -0.2801
  429MOL0     C59069   3.763   6.331   1.469 -0.0208  0.5627  0.1139
  429MOL0     C59070   3.859   6.283   1.377  0.3144  0.2548 -0.5872
  429MOL0     C59071   3.981   6.232   1.436 -0.0013  0.2265 -0.7064
  429MOL0     O59072   4.068   6.182   1.341  0.4511  0.2525 -0.0537
  429MOL0     C59073   4.201   6.231   1.349 -0.0340  0.1827 -0.3033
  429MOL0     C59074   4.236   6.271   1.207  0.2687  0.3267  0.3402
  429MOL0     C59075   4.386   6.321   1.207  1.4323 -0.2524 -0.3701
  429MOL0     C59076   4.445   6.307   1.066  0.3401 -0.2791  0.1727
  429MOL0     C59077   4.581   6.362   1.039  0.0203  0.3695 -0.6545
  429MOL0     C59078   4.640   6.302   0.918 -0.4528 -0.8430  1.5064
  429MOL0     C59079   4.785   6.343   0.885 -0.2492  0.8924 -0.3081
  429MOL0     C59080   4.850   6.291   0.755 -0.4033 -0.4831 -0.2767
  429MOL0     N59081   4.829   6.142   0.741  0.9819 -0.1021  0.2454
  429MOL0     C59082   4.886   6.045   0.819 -0.9205  0.3651  0.8542
  429MOL0     C59083   4.837   5.933   0.760 -0.1309  0.3655  0.1000
  429MOL0     C59084   4.858   5.799   0.800 -0.2728 -0.7666 -0.7402
  429MOL0     C59085   4.903   5.705   0.686 -0.3646  1.0343 -0.1774
  429MOL0     C59086   4.951   5.552   0.730 -0.5102 -1.1878  0.3190
  429MOL0     C59087   4.846   5.460   0.790 -0.2337 -0.7891  0.6195
  429MOL0     O59088   4.753   5.437   0.681  0.7878  0.2407  0.4640
  429MOL0     C59089   4.757   5.304   0.640  0.3976 -0.0621 -0.3494
  429MOL0     C59090   4.838   5.270   0.532  0.6827 -0.1184 -0.1953
  429MOL0     C59091   4.848   5.137   0.475 -0.8785  0.9934 -0.5766
  429MOL0     C59092   4.944   5.133   0.359  0.0669 -0.1235  0.3970
  429MOL0     C59093   4.790   5.031   0.543  0.0574  0.0605 -0.1184
  429MOL0     C59094   4.780   4.895   0.483  0.1875  0.2678 -0.3066
  429MOL0     O59095   4.677   4.810   0.536  0.1313 -0.1233  0.9968
  429MOL0     C59096   4.688   4.671   0.513 -0.6835 -0.7406 -0.3291
  429MOL0     C59097   4.644   4.626   0.388  0.2054 -0.4348 -0.5918
  429MOL0     C59098   4.663   4.490   0.356  0.6981 -0.6673  0.6343
  429MOL0     C59099   4.706   4.398   0.448  0.2542  0.6631 -1.2469
  429MOL0     O59100   4.704   4.269   0.402  0.1847 -0.2960 -0.8172
  429MOL0     C59101   4.815   4.186   0.442 -0.2461 -0.1074  1.2194
  429MOL0     C59102   4.851   4.084   0.334 -0.8455 -0.1852 -0.7139
  429MOL0     C59103   4.976   4.123   0.268 -1.3097  0.3195 -0.1668
  429MOL0     C59104   4.955   4.196   0.139  0.3797  0.2529 -0.6734
  429MOL0     C59105   5.073   4.279   0.092 -0.1150  0.2620  0.5282
  429MOL0     C59106   5.116   4.382   0.197 -0.2949 -1.2201 -0.2474
  429MOL0     C59107   5.003   4.488   0.208  0.0502  0.0248 -1.1468
  429MOL0     C59108   5.047   4.608   0.295 -0.4523 -0.6047 -0.0675
  429MOL0    Cl59109   5.174   4.687   0.212 -0.2419 -0.0872  0.0646
  429MOL0     C59110   4.761   4.445   0.569 -0.3759 -0.2782  0.0666
  429MOL0     C59111   4.764   4.580   0.596  0.2709 -1.0970  0.6706
  429MOL0     O59112   4.864   4.856   0.406 -0.1088 -0.2983 -0.2670
  429MOL0     C59113   4.719   5.060   0.664 -0.4261  0.0209 -0.2408
  429MOL0     C59114   4.703   5.192   0.713 -1.2600 -0.3851 -0.0668
  429MOL0     N59115   4.753   5.960   0.655 -0.6756  0.0969  0.6267
  429MOL0     N59116   4.753   6.088   0.648 -0.8319  1.2835  0.5449
  429MOL0     C59117   3.995   6.225   1.580  0.9148  0.2992 -0.0065
  429MOL0     C59118   3.904   6.284   1.669 -0.8955 -0.8385  0.7011
  429MOL0     C59119   3.616   6.489   1.892 -0.0340  0.4925  0.0883
  429MOL0     C59120   3.628   6.614   1.831  0.2524 -0.6035 -0.2387
  429MOL0     C59121   3.572   6.727   1.895  0.2261 -0.5713 -0.7348
  429MOL0     C59122   3.514   6.715   2.022  0.4885  0.6896  0.0451
  429MOL0     O59123   3.436   6.815   2.085 -0.7266 -0.4503  0.3220
  429MOL0     C59124   3.356   6.896   2.008  0.7634 -0.0696  0.3300
  429MOL0     C59125   3.241   6.932   2.097  0.0422 -0.0944  0.2765
  429MOL0     C59126   3.173   6.811   2.163  0.8512 -0.1330  0.0374
  429MOL0     C59127   3.086   6.733   2.070 -0.3955  0.1810 -0.2792
  429MOL0     C59128   2.989   6.659   2.139  0.1273 -0.6973 -0.3255
  429MOL0     C59129   2.904   6.597   2.200 -0.5981 -0.0353 -0.2991
  429MOL0     C59130   3.510   6.596   2.087 -0.2351  0.4157  1.1077
  429MOL0     C59131   3.556   6.481   2.024  0.0486  0.0463  0.7712
  429MOL0     C59132   3.555   6.358   2.103  0.5268  0.7625 -0.7478
  429MOL0     H59133   3.669   6.359   1.424 -0.2346 -2.4060 -1.4812
  429MOL0     H59134   3.854   6.286   1.268  2.8476 -0.3306 -0.7786
  429MOL0     H59135   4.274   6.157   1.383 -1.7770 -1.9736 -1.0305
  429MOL0     H59136   4.204   6.324   1.405 -1.3131 -0.1899  0.4172
  429MOL0     H59137   4.209   6.195   1.132 -1.7602  1.2834  0.0345
  429MOL0     H59138   4.171   6.352   1.176 -1.6394 -1.4413 -0.5223
  429MOL0     H59139   4.379   6.424   1.245 -1.4493 -0.3505 -0.4354
  429MOL0     H59140   4.444   6.268   1.282  1.3000  1.3103  0.8966
  429MOL0     H59141   4.459   6.200   1.051  2.2704  0.0196 -0.5113
  429MOL0     H59142   4.375   6.342   0.990 -0.7050 -0.2790  1.1235
  429MOL0     H59143   4.644   6.341   1.126 -2.5042  5.2772  2.7631
  429MOL0     H59144   4.573   6.470   1.025  0.8806  0.3531 -1.3810
  429MOL0     H59145   4.621   6.194   0.911 -0.5884 -0.8204  1.5258
  429MOL0     H59146   4.587   6.343   0.831  1.1621 -0.2631  0.7661
  429MOL0     H59147   4.842   6.294   0.964  0.4977 -0.2218 -1.4972
  429MOL0     H59148   4.792   6.451   0.900 -0.2134  0.5473  2.6338
  429MOL0     H59149   4.802   6.341   0.671  0.5181  0.0456 -0.4989
  429MOL0     H59150   4.955   6.319   0.744  0.6417 -3.3734  1.1575
  429MOL0     H59151   4.947   6.063   0.907 -0.0919  2.6815 -0.1027
  429MOL0     H59152   4.760   5.761   0.830 -2.0062  2.4803 -1.8101
  429MOL0     H59153   4.928   5.777   0.881  0.3615 -1.6680 -1.5060
  429MOL0     H59154   4.819   5.695   0.617 -0.4630 -0.5089  0.1348
  429MOL0     H59155   4.991   5.747   0.637  0.8829  0.0593  1.1565
  429MOL0     H59156   4.995   5.501   0.644 -2.1053  0.5358 -1.6343
  429MOL0     H59157   5.031   5.552   0.805  0.5526  1.1640 -0.6981
  429MOL0     H59158   4.890   5.374   0.841 -0.9240 -1.5655 -0.0474
  429MOL0     H59159   4.795   5.517   0.868 -1.8770 -2.1716  0.6219
  429MOL0     H59160   4.879   5.360   0.488 -0.8202  1.5665  1.6564
  429MOL0     H59161   4.891   5.114   0.265 -1.3001 -1.3812  1.3827
  429MOL0     H59162   5.012   5.048   0.369  0.6216 -0.0676 -2.2247
  429MOL0     H59163   5.012   5.218   0.358  1.5298 -1.1921  2.0580
  429MOL0     H59164   4.599   4.702   0.324  3.4205  3.0681  0.8840
  429MOL0     H59165   4.631   4.444   0.263 -0.2390  2.4159 -0.7050
  429MOL0     H59166   4.901   4.249   0.468  1.0107 -0.5719 -1.3989
  429MOL0     H59167   4.774   4.134   0.529 -1.1784 -2.5421 -0.5640
  429MOL0     H59168   4.855   3.986   0.384  0.9077  0.7778  1.2097
  429MOL0     H59169   4.779   4.056   0.257  1.1124  0.6603 -2.9635
  429MOL0     H59170   5.043   4.039   0.250 -0.7387  0.1903  2.1776
  429MOL0     H59171   5.031   4.177   0.346 -1.7513 -0.3149  0.6054
  429MOL0     H59172   4.869   4.262   0.157  0.5700  0.1450  0.7404
  429MOL0     H59173   4.903   4.133   0.066  1.0993 -1.0936 -0.0532
  429MOL0     H59174   5.152   4.205   0.075  0.2781  1.1183 -1.7463
  429MOL0     H59175   5.062   4.330  -0.005  3.7205 -1.4072 -0.9817
  429MOL0     H59176   5.206   4.435   0.164 -2.8791  2.8628 -1.5313
  429MOL0     H59177   5.140   4.340   0.295  1.0867 -1.3682 -0.6350
  429MOL0     H59178   4.918   4.441   0.258 -1.2303 -1.1230 -4.1129
  429MOL0     H59179   4.975   4.510   0.104 -0.3974 -3.6437 -1.9497
  429MOL0     H59180   5.075   4.572   0.395  2.0605  0.4468 -0.3010
  429MOL0     H59181   4.959   4.672   0.306  0.1224 -0.0524  1.5992
  429MOL0     H59182   4.819   4.378   0.632  0.2520 -2.8727 -3.0011
  429MOL0     H59183   4.801   4.611   0.693  2.1307  1.9028 -0.8475
  429MOL0     H59184   4.671   4.984   0.725  0.3691  0.5152  1.0383
  429MOL0     H59185   4.640   5.198   0.801 -0.0851  1.0274  0.7080
  429MOL0     H59186   4.085   6.181   1.622  0.6110  1.4333  1.9566
  429MOL0     H59187   3.925   6.313   1.772  1.0127 -0.1451  0.1624
  429MOL0     H59188   3.676   6.635   1.736  1.3905 -0.9748  0.2427
  429MOL0     H59189   3.585   6.819   1.839 -0.5895 -0.1843 -0.3087
  429MOL0     H59190   3.404   6.984   1.965 -3.3286  0.4106 -4.0575
  429MOL0     H59191   3.319   6.841   1.920  0.0986 -1.2259  1.2943
  429MOL0     H59192   3.163   6.979   2.037 -2.1553 -2.8354  0.7786
  429MOL0     H59193   3.276   6.999   2.176 -1.1773 -0.1410  0.8712
  429MOL0     H59194   3.250   6.747   2.207 -0.0241 -1.1687  0.0968
  429MOL0     H59195   3.122   6.864   2.244 -0.7886  0.9713 -1.6410
  429MOL0     H59196   3.144   6.673   1.999 -3.5480  0.0283 -2.9811
  429MOL0     H59197   3.016   6.794   2.012 -3.5349 -1.7835  1.2303
  429MOL0     H59198   2.827   6.539   2.248  0.5808 -0.0013  1.7310
  429MOL0     H59199   3.450   6.585   2.177  1.5885 -0.5329  2.2699
  429MOL0     H59200   3.522   6.268   2.052 -1.2237  0.0161  1.5126
  429MOL0     H59201   3.659   6.348   2.135  0.0534 -0.8783  0.3917
  429MOL0     H59202   3.493   6.367   2.193  1.5145 -4.4457  0.7836
  430MOL0     O59203   1.895   9.959   7.266 -0.0986  0.8119 -0.4861
  430MOL0     C59204   1.854  10.014   7.170 -0.1884 -1.0737  0.0337
  430MOL0     O59205   1.743   9.974   7.099 -0.1725 -0.5416 -0.0910
  430MOL0     C59206   1.701   9.848   7.123  0.2504 -0.1311 -0.7126
  430MOL0     C59207   1.577   9.823   7.187  1.2957 -0.9989  0.5474
  430MOL0     C59208   1.525   9.699   7.198 -0.2403 -0.1745 -0.0185
  430MOL0     C59209   1.602   9.590   7.157 -0.2546 -0.5877  0.6738
  430MOL0     O59210   1.548   9.468   7.173  0.5859 -0.8449  0.1812
  430MOL0     C59211   1.629   9.352   7.162  0.2231  0.6818 -0.1060
  430MOL0     C59212   1.549   9.230   7.207 -1.3451  0.2901 -0.4931
  430MOL0     C59213   1.624   9.100   7.171  0.3002  0.7124  0.4312
  430MOL0     C59214   1.569   9.043   7.034  0.5400 -0.6582 -0.7049
  430MOL0     C59215   1.580   8.890   7.022 -0.3927 -0.0889 -0.9873
  430MOL0     C59216   1.527   8.843   6.885  0.2491 -0.5286  0.3844
  430MOL0     C59217   1.530   8.698   6.878 -0.1372 -0.0093 -0.5536
  430MOL0     C59218   1.451   8.645   6.756  1.0486  0.8203  0.6000
  430MOL0     N59219   1.436   8.494   6.752 -0.4981 -0.7274  0.9923
  430MOL0     C59220   1.534   8.401   6.707  0.1002  0.8831  0.1221
  430MOL0     C59221   1.497   8.276   6.753 -0.8759 -0.5660  0.7704
  430MOL0     C59222   1.576   8.150   6.744 -0.3801 -0.2910 -0.3746
  430MOL0     C59223   1.682   8.158   6.863  0.5185  0.1373  0.7243
  430MOL0     C59224   1.774   8.037   6.868  0.8299 -0.5081 -0.9354
  430MOL0     C59225   1.899   8.048   6.959  0.4265  0.0486 -0.0361
  430MOL0     O59226   1.847   8.082   7.086 -0.7526  0.3076  0.1352
  430MOL0     C59227   1.776   7.999   7.169  0.0176  0.1879  1.0937
  430MOL0     C59228   1.792   7.857   7.174  1.1334  0.4980 -0.3821
  430MOL0     C59229   1.704   7.789   7.251 -0.1156  0.8505 -0.3430
  430MOL0     C59230   1.742   7.647   7.287 -0.6632  0.2945  0.9617
  430MOL0     C59231   1.592   7.846   7.309 -0.4630 -0.1673  0.3510
  430MOL0     C59232   1.493   7.774   7.385 -0.1956  0.1967 -0.9197
  430MOL0     O59233   1.455   7.827   7.506  0.3793  0.4274  0.4714
  430MOL0     C59234   1.334   7.781   7.555 -0.1060  0.7468  1.2401
  430MOL0     C59235   1.336   7.729   7.685  0.8917 -0.2619  0.1629
  430MOL0     C59236   1.226   7.681   7.740 -0.2732  0.7051  0.3581
  430MOL0     C59237   1.104   7.687   7.669  0.0926 -0.4009  0.0020
  430MOL0     O59238   0.994   7.641   7.741  0.0999  0.7916  0.2488
  430MOL0     C59239   0.863   7.649   7.687 -0.3514  0.3465 -0.6821
  430MOL0     C59240   0.754   7.585   7.789  0.0285 -0.0964  0.6563
  430MOL0     C59241   0.611   7.586   7.734  0.6671  0.1239 -0.7156
  430MOL0     C59242   0.536   7.481   7.811  1.3453  0.5096  0.9406
  430MOL0     C59243   0.385   7.475   7.756  1.1911 -0.4436 -0.0505
  430MOL0     C59244   0.381   7.401   7.626 -0.2721 -0.8683  0.4635
  430MOL0     C59245   0.236   7.373   7.583  0.0006 -1.0311 -0.7505
  430MOL0     C59246   0.233   7.256   7.483 -0.0833 -0.1771 -0.1849
  430MOL0    Cl59247   0.054   7.213   7.456  0.1027  0.1998  0.7008
  430MOL0     C59248   1.092   7.742   7.538 -0.1569 -0.5140 -0.5713
  430MOL0     C59249   1.214   7.794   7.482 -0.4031 -0.4939  0.1044
  430MOL0     O59250   1.440   7.673   7.336 -0.7029 -0.4971 -0.3738
  430MOL0     C59251   1.582   7.983   7.302 -0.0402 -0.3771  0.6197
  430MOL0     C59252   1.672   8.060   7.228 -0.1788 -0.1253 -0.3972
  430MOL0     N59253   1.367   8.298   6.811  0.3878 -0.1809 -0.0679
  430MOL0     N59254   1.332   8.430   6.795  0.1416 -0.5985 -0.4396
  430MOL0     C59255   1.724   9.618   7.090  0.4001 -0.3022  0.0647
  430MOL0     C59256   1.776   9.752   7.074 -0.0014  0.0467  0.0996
  430MOL0     C59257   1.905  10.159   7.141  0.3946  0.8841 -1.1089
  430MOL0     C59258   1.835  10.242   7.048  0.0383  0.2893  0.0997
  430MOL0     C59259   1.890  10.364   7.005  0.2459 -0.4600 -0.3420
  430MOL0     C59260   1.997  10.425   7.073  0.9495 -0.7632  0.0207
  430MOL0     O59261   2.032  10.553   7.040  0.1180  0.1983  0.6447
  430MOL0     C59262   2.177  10.588   7.053 -0.8665  0.0633  1.6562
  430MOL0     C59263   2.187  10.728   7.099  0.4706 -0.3156  0.3766
  430MOL0     C59264   2.135  10.830   6.994 -0.3471  0.0536  0.0110
  430MOL0     C59265   2.155  10.980   7.021 -0.4958  0.4198  0.5276
  430MOL0     C59266   2.298  11.009   7.024 -0.4117 -0.4271 -0.0337
  430MOL0     C59267   2.422  11.033   7.019  0.0406 -0.3355 -1.0387
  430MOL0     C59268   2.052  10.348   7.172 -0.0390 -0.3712 -0.2710
  430MOL0     C59269   2.021  10.212   7.206 -0.4006  0.2757 -0.4143
  430MOL0     C59270   2.107  10.147   7.302 -0.5900  0.9465 -0.4275
  430MOL0     H59271   1.523   9.916   7.208  0.2556 -1.4409 -0.0583
  430MOL0     H59272   1.424   9.675   7.228 -0.2953 -1.1202 -0.8860
  430MOL0     H59273   1.727   9.347   7.209 -0.4600 -3.6307  1.2879
  430MOL0     H59274   1.643   9.338   7.054  1.8327 -0.2323  0.1907
  430MOL0     H59275   1.522   9.220   7.313  0.8173 -1.9523 -0.0565
  430MOL0     H59276   1.453   9.239   7.156 -1.2773  0.0674 -0.6611
  430MOL0     H59277   1.733   9.104   7.167  0.4285 -1.3882  0.3592
  430MOL0     H59278   1.607   9.027   7.251  0.4899  2.8334  2.5049
  430MOL0     H59279   1.467   9.077   7.015 -1.6229 -2.0162  5.8474
  430MOL0     H59280   1.631   9.087   6.955  0.0332  0.4050 -0.5344
  430MOL0     H59281   1.515   8.864   7.106 -0.8927  1.5427 -0.8341
  430MOL0     H59282   1.684   8.866   7.045  0.6379  1.7470 -3.3045
  430MOL0     H59283   1.425   8.878   6.867 -0.0909 -0.1811  2.6637
  430MOL0     H59284   1.593   8.879   6.806  2.1632 -1.4889  1.4700
  430MOL0     H59285   1.487   8.645   6.964 -0.2238  2.0810  0.7688
  430MOL0     H59286   1.637   8.673   6.875  0.7129  3.1266  0.0262
  430MOL0     H59287   1.351   8.686   6.746 -0.5421 -2.2778  2.2919
  430MOL0     H59288   1.520   8.670   6.675  1.5554 -1.7972  0.1499
  430MOL0     H59289   1.631   8.421   6.663  0.3154 -0.8359 -0.2450
  430MOL0     H59290   1.632   8.144   6.650  2.6561 -4.5493  1.3644
  430MOL0     H59291   1.506   8.067   6.744  1.0927 -1.6657  1.9679
  430MOL0     H59292   1.747   8.245   6.860  1.4758 -0.5859  0.0776
  430MOL0     H59293   1.629   8.175   6.957  3.2016  1.0742  2.1622
  430MOL0     H59294   1.715   7.949   6.896  1.2167  0.0060  1.6856
  430MOL0     H59295   1.805   8.021   6.764 -0.6538 -0.3558 -1.4197
  430MOL0     H59296   1.952   7.952   6.963  0.1477 -0.1202 -0.2643
  430MOL0     H59297   1.972   8.111   6.907 -0.3281 -0.8306 -2.3175
  430MOL0     H59298   1.882   7.809   7.136  3.6910  4.7628 -0.3832
  430MOL0     H59299   1.812   7.600   7.218 -1.5667 -0.9821  0.8672
  430MOL0     H59300   1.655   7.580   7.291  1.0775 -2.2063 -0.5160
  430MOL0     H59301   1.767   7.632   7.393  0.7659 -3.0100  0.2709
  430MOL0     H59302   1.434   7.717   7.731  0.6656 -0.4091  0.6167
  430MOL0     H59303   1.228   7.631   7.837 -3.8184 -0.2227  0.0802
  430MOL0     H59304   0.834   7.752   7.662  2.1436  1.1524 -0.5517
  430MOL0     H59305   0.854   7.603   7.589 -1.7020  4.2276 -2.5907
  430MOL0     H59306   0.786   7.482   7.805  4.2568  1.0990  1.1771
  430MOL0     H59307   0.767   7.644   7.880  3.3119  0.1231  0.1748
  430MOL0     H59308   0.615   7.539   7.635 -3.4848 -2.7568  0.1798
  430MOL0     H59309   0.569   7.686   7.745 -0.8828 -0.6665  1.1755
  430MOL0     H59310   0.535   7.510   7.916 -0.3713  0.5927  0.9403
  430MOL0     H59311   0.586   7.385   7.797  2.6299  0.8842  2.5896
  430MOL0     H59312   0.328   7.424   7.833  0.8842 -0.2158 -0.1270
  430MOL0     H59313   0.338   7.573   7.765 -2.7254 -2.3218  3.4323
  430MOL0     H59314   0.430   7.304   7.639 -0.4308 -0.7241  2.4801
  430MOL0     H59315   0.435   7.451   7.545 -0.5904  0.2427  0.9234
  430MOL0     H59316   0.190   7.464   7.544 -1.3459 -1.5758 -0.5107
  430MOL0     H59317   0.173   7.359   7.672  1.3472  0.9226  0.5953
  430MOL0     H59318   0.284   7.169   7.526  2.4675  1.3423  0.0457
  430MOL0     H59319   0.292   7.274   7.393 -0.7214  2.2894 -0.1778
  430MOL0     H59320   0.994   7.754   7.491 -2.1574  1.5854  3.5515
  430MOL0     H59321   1.222   7.842   7.385 -1.4545  0.9654  0.7053
  430MOL0     H59322   1.510   8.045   7.355  1.9003  0.2886  2.6625
  430MOL0     H59323   1.668   8.167   7.215 -2.9407  0.0867  1.3747
  430MOL0     H59324   1.791   9.545   7.046  1.8819  1.7967 -1.3496
  430MOL0     H59325   1.873   9.775   7.031  0.0815  1.1465  0.8403
  430MOL0     H59326   1.742  10.206   7.006  1.6271 -1.5282 -2.0906
  430MOL0     H59327   1.841  10.433   6.937  2.2545  1.1885 -0.2232
  430MOL0     H59328   2.230  10.521   7.121 -0.9518  1.7140  3.4410
  430MOL0     H59329   2.227  10.581   6.956  0.0468 -0.2166  2.1357
  430MOL0     H59330   2.287  10.761   7.130 -0.3625  0.7106  2.1191
  430MOL0     H59331   2.119  10.746   7.183  0.1558  1.9799 -0.2873
  430MOL0     H59332   2.196  10.812   6.905  0.2200 -1.2866  0.6515
  430MOL0     H59333   2.030  10.814   6.970  0.4340 -3.7211 -1.7410
  430MOL0     H59334   2.107  11.019   7.111 -1.8060 -1.3911  0.6645
  430MOL0     H59335   2.113  11.039   6.940 -1.1878 -0.3922  0.2797
  430MOL0     H59336   2.526  11.060   7.027  0.2797 -1.4538 -0.0040
  430MOL0     H59337   2.136  10.390   7.227 -0.7636  1.1864 -0.3019
  430MOL0     H59338   2.195  10.209   7.323 -1.4457  2.6237 -1.5538
  430MOL0     H59339   2.052  10.122   7.393 -2.0667  0.6862 -1.3505
  430MOL0     H59340   2.155  10.060   7.254 -1.2042  0.1778  0.3299
  431MOL0     O59341   3.866  10.745   2.860 -0.6606 -0.1501  0.7675
  431MOL0     C59342   3.899  10.661   2.775  0.6174 -0.0386 -0.0094
  431MOL0     O59343   3.822  10.550   2.744 -0.1487 -0.0303  1.4374
  431MOL0     C59344   3.697  10.526   2.794  0.4919 -0.1482 -0.2068
  431MOL0     C59345   3.659  10.401   2.841  0.1417  0.7070 -1.1060
  431MOL0     C59346   3.529  10.393   2.894  0.1007  0.5711  0.2660
  431MOL0     C59347   3.439  10.498   2.914  0.2590 -0.1814 -0.3353
  431MOL0     O59348   3.314  10.464   2.961  0.9121 -0.0363  0.4400
  431MOL0     C59349   3.297  10.438   3.101 -0.7154 -0.9708  0.2781
  431MOL0     C59350   3.159  10.376   3.131 -0.5642  0.2461  0.1862
  431MOL0     C59351   3.045  10.473   3.115  0.3308 -0.3023  0.4287
  431MOL0     C59352   2.901  10.408   3.135  0.2711 -0.4134  0.5631
  431MOL0     C59353   2.886  10.335   3.269 -0.3509 -0.4812 -0.4559
  431MOL0     C59354   2.750  10.253   3.285 -1.2708  0.7916  0.1492
  431MOL0     C59355   2.745  10.138   3.176  0.3429  0.0595 -0.3519
  431MOL0     C59356   2.612  10.078   3.169 -0.2427  0.1836 -0.2222
  431MOL0     N59357   2.629   9.952   3.095  0.0744  0.0990  0.5854
  431MOL0     C59358   2.641   9.942   2.956  0.4464  0.0286  0.1410
  431MOL0     C59359   2.634   9.811   2.926 -0.2049  0.8400  0.3974
  431MOL0     C59360   2.656   9.766   2.786 -0.2249  0.3081 -0.3845
  431MOL0     C59361   2.534   9.775   2.701 -0.0464 -0.2906  1.2062
  431MOL0     C59362   2.506   9.918   2.654 -0.0736  0.3772 -0.1475
  431MOL0     C59363   2.389   9.919   2.559 -0.0643 -0.2418 -0.3348
  431MOL0     O59364   2.278   9.875   2.649  0.0637  0.2748  0.0561
  431MOL0     C59365   2.150   9.904   2.613  0.2701  0.6331 -0.1857
  431MOL0     C59366   2.105   9.909   2.478 -0.3650  0.3618 -0.8641
  431MOL0     C59367   1.969   9.915   2.452  0.8922  0.0429 -0.2448
  431MOL0     C59368   1.932   9.901   2.298 -0.3366  0.1508 -0.7342
  431MOL0     C59369   1.876   9.934   2.558  0.3429 -0.0936  0.6342
  431MOL0     C59370   1.723   9.942   2.548 -0.7955 -0.2626 -0.2628
  431MOL0     O59371   1.646   9.937   2.659 -0.4244  0.6867  0.1822
  431MOL0     C59372   1.510   9.947   2.653 -0.5790 -0.1770 -0.2112
  431MOL0     C59373   1.432  10.016   2.563 -0.0146 -0.6393  0.4721
  431MOL0     C59374   1.294  10.002   2.565  0.8963 -0.4416 -0.5952
  431MOL0     C59375   1.227   9.913   2.649 -0.7128 -0.1901  0.1058
  431MOL0     O59376   1.092   9.897   2.663  0.1104  0.3098 -0.0490
  431MOL0     C59377   1.008  10.003   2.627 -1.2399 -0.2230 -0.2677
  431MOL0     C59378   0.865   9.977   2.677 -0.5425  0.3029  0.3288
  431MOL0     C59379   0.793   9.885   2.578 -0.2594 -0.4582 -0.0071
  431MOL0     C59380   0.727   9.968   2.457  0.3961 -0.3148 -0.2856
  431MOL0     C59381   0.664   9.880   2.356  1.1150 -0.5730 -0.1036
  431MOL0     C59382   0.598   9.964   2.241 -0.5679 -0.0221  0.0648
  431MOL0     C59383   0.692   9.996   2.128 -0.3417 -0.2809 -0.9307
  431MOL0     C59384   0.620  10.060   2.012 -0.0071 -0.9290 -0.3563
  431MOL0    Cl59385   0.739  10.100   1.885 -0.5327  0.0954  0.2890
  431MOL0     C59386   1.303   9.835   2.733 -0.2603 -0.4241 -0.3045
  431MOL0     C59387   1.438   9.859   2.742 -0.3088 -0.6491  0.3225
  431MOL0     O59388   1.682   9.951   2.437  0.2816 -0.9962 -0.0786
  431MOL0     C59389   1.921   9.939   2.685 -0.7019  0.6268 -0.7252
  431MOL0     C59390   2.055   9.917   2.720  0.0714 -0.9154 -0.1941
  431MOL0     N59391   2.624   9.737   3.044 -0.1514 -1.2849  0.3420
  431MOL0     N59392   2.625   9.819   3.145 -0.5545 -0.2166  0.3167
  431MOL0     C59393   3.480  10.626   2.862  0.7370 -0.3884 -1.1258
  431MOL0     C59394   3.608  10.634   2.806  1.3097  0.1511  0.4414
  431MOL0     C59395   4.038  10.677   2.715  0.5204  0.8156 -0.1573
  431MOL0     C59396   4.144  10.730   2.786 -0.3540  1.0363  0.2608
  431MOL0     C59397   4.278  10.736   2.732  1.0800 -0.0987 -0.2657
  431MOL0     C59398   4.309  10.676   2.607  1.8564  0.6016  0.4630
  431MOL0     O59399   4.442  10.665   2.569  0.2312  0.4120  0.7342
  431MOL0     C59400   4.487  10.556   2.499  0.1265 -0.0091  0.2727
  431MOL0     C59401   4.497  10.578   2.347 -0.3410 -0.1634  0.3584
  431MOL0     C59402   4.628  10.642   2.301 -0.1078  0.1069  0.4514
  431MOL0     C59403   4.652  10.640   2.150  0.1551  0.4721 -0.7165
  431MOL0     C59404   4.797  10.629   2.108 -0.5420 -0.0141 -0.1440
  431MOL0     C59405   4.907  10.596   2.079  0.0270 -0.3239  0.0194
  431MOL0     C59406   4.203  10.625   2.526 -0.0817 -0.0157 -0.5359
  431MOL0     C59407   4.072  10.628   2.581  0.3084  0.9460 -0.2055
  431MOL0     C59408   3.968  10.569   2.493  0.8533  0.1400  0.3005
  431MOL0     H59409   3.723  10.314   2.828 -0.8622  0.2615 -3.8066
  431MOL0     H59410   3.489  10.294   2.914  1.1788 -0.1723 -1.1062
  431MOL0     H59411   3.323  10.525   3.161  1.3473 -2.5976  1.9313
  431MOL0     H59412   3.367  10.360   3.132 -0.3654 -0.7128  0.1358
  431MOL0     H59413   3.154  10.285   3.070  0.0571  1.6729 -2.1312
  431MOL0     H59414   3.170  10.347   3.236  0.3704  0.9996  0.3050
  431MOL0     H59415   3.068  10.554   3.185  0.5799 -0.1963  0.2241
  431MOL0     H59416   3.052  10.511   3.012 -4.1131  0.2629  0.1183
  431MOL0     H59417   2.834  10.493   3.124  0.5805 -0.2746 -0.3444
  431MOL0     H59418   2.894  10.345   3.045 -0.3778  1.1414 -0.5222
  431MOL0     H59419   2.906  10.405   3.350  2.2808  0.0051 -1.4295
  431MOL0     H59420   2.967  10.261   3.272  0.0805  0.0074  1.1013
  431MOL0     H59421   2.740  10.205   3.383 -1.5489 -0.4490 -0.4732
  431MOL0     H59422   2.671  10.328   3.276  2.5645  5.3189  0.2904
  431MOL0     H59423   2.819  10.058   3.185 -0.8268 -1.6376 -3.9063
  431MOL0     H59424   2.776  10.186   3.083  1.3192  1.5291  0.6793
  431MOL0     H59425   2.557  10.067   3.263 -1.8845  1.1974 -1.0087
  431MOL0     H59426   2.542  10.139   3.111 -3.7844  0.9451  4.3121
  431MOL0     H59427   2.634  10.024   2.885 -1.0118  0.0104  0.2222
  431MOL0     H59428   2.684   9.660   2.785 -1.4396 -0.0422  0.8826
  431MOL0     H59429   2.743   9.816   2.743  0.8254 -0.0912  1.1932
  431MOL0     H59430   2.552   9.720   2.608  1.0300  1.4496  0.3342
  431MOL0     H59431   2.444   9.735   2.748  0.5003 -2.5438  0.4522
  431MOL0     H59432   2.485   9.984   2.738  0.7546 -0.2762  0.6031
  431MOL0     H59433   2.588   9.959   2.595  0.7733 -2.8541 -1.4428
  431MOL0     H59434   2.372  10.022   2.527  0.7091  0.9652  2.7909
  431MOL0     H59435   2.395   9.846   2.477  3.0571 -0.5186  0.0342
  431MOL0     H59436   2.169   9.903   2.390  0.6947 -3.3168 -0.0014
  431MOL0     H59437   2.026   9.912   2.243  2.5999  1.9991  4.0339
  431MOL0     H59438   1.874   9.990   2.271  1.2989  2.5342  2.7291
  431MOL0     H59439   1.875   9.811   2.273  0.4952 -0.6252  0.0704
  431MOL0     H59440   1.470  10.070   2.477 -2.8505  0.0505 -0.4617
  431MOL0     H59441   1.232  10.067   2.503  0.1308  0.2545  0.8470
  431MOL0     H59442   1.037  10.102   2.666  0.4023 -1.6105  2.3001
  431MOL0     H59443   1.003  10.015   2.518  0.8094  1.1160 -0.2740
  431MOL0     H59444   0.870   9.914   2.767 -0.1985 -0.6999 -0.3718
  431MOL0     H59445   0.817  10.073   2.698  0.6624  0.9906 -0.0057
  431MOL0     H59446   0.714   9.840   2.640  0.1727 -1.0002  0.1602
  431MOL0     H59447   0.865   9.811   2.540  1.0770 -0.0618  1.6397
  431MOL0     H59448   0.802  10.030   2.407 -2.8643  1.1336 -3.7962
  431MOL0     H59449   0.651  10.035   2.497  2.2585  3.4426 -2.5448
  431MOL0     H59450   0.736   9.810   2.312 -1.6465 -1.7740 -3.1271
  431MOL0     H59451   0.584   9.826   2.406 -1.6419  0.2872 -3.2247
  431MOL0     H59452   0.563  10.062   2.273 -4.0199 -0.6273 -1.4596
  431MOL0     H59453   0.511   9.908   2.206 -2.8975  1.4256  3.0436
  431MOL0     H59454   0.740   9.902   2.099  0.4868 -0.4126  0.7402
  431MOL0     H59455   0.772  10.065   2.158 -0.8942  0.3759 -0.9518
  431MOL0     H59456   0.578  10.153   2.050  2.4048  0.6019 -1.2074
  431MOL0     H59457   0.543   9.984   1.993 -2.4624  0.3645  3.2517
  431MOL0     H59458   1.245   9.770   2.798 -0.3656  1.2821  1.3940
  431MOL0     H59459   1.485   9.800   2.821  1.1557 -0.2167 -0.1928
  431MOL0     H59460   1.854   9.950   2.769 -0.5423 -0.5791 -0.4295
  431MOL0     H59461   2.104   9.931   2.815  0.3837  0.9991 -0.5933
  431MOL0     H59462   3.406  10.705   2.851 -0.1899 -1.3006 -1.7476
  431MOL0     H59463   3.634  10.730   2.762 -1.3500  1.3400  1.2549
  431MOL0     H59464   4.120  10.761   2.887 -0.0199  0.2480  0.5851
  431MOL0     H59465   4.354  10.778   2.797 -2.6521  1.9535  3.2001
  431MOL0     H59466   4.586  10.547   2.545  0.6099  0.5643 -0.6216
  431MOL0     H59467   4.425  10.468   2.517  1.0283 -1.0960 -1.6018
  431MOL0     H59468   4.412  10.644   2.329  0.2430  0.4254 -0.2886
  431MOL0     H59469   4.487  10.477   2.306 -1.0367 -0.2485  0.7130
  431MOL0     H59470   4.623  10.744   2.340  0.1650  0.3188 -0.0648
  431MOL0     H59471   4.715  10.588   2.340  2.1769  1.1750 -2.7511
  431MOL0     H59472   4.604  10.730   2.109 -4.4612 -1.7103 -0.6394
  431MOL0     H59473   4.600  10.560   2.097  0.8136 -0.0554 -0.5796
  431MOL0     H59474   5.006  10.568   2.049  0.0501 -1.9021  1.4128
  431MOL0     H59475   4.224  10.592   2.425 -2.7938 -1.8584 -0.5971
  431MOL0     H59476   4.011  10.568   2.393  0.7020 -1.4411  0.2304
  431MOL0     H59477   3.940  10.464   2.507  0.8403 -0.2326 -2.1253
  431MOL0     H59478   3.875  10.627   2.489  0.5839  0.1260  3.4268
  432MOL0     O59479   2.906   3.335   0.708  0.8905 -0.1810 -0.1518
  432MOL0     C59480   2.955   3.237   0.760  0.5077  0.3348  0.0803
  432MOL0     O59481   3.059   3.178   0.703 -0.4737  0.2478  0.1262
  432MOL0     C59482   3.102   3.201   0.573 -0.3202 -1.4521 -0.5354
  432MOL0     C59483   3.008   3.213   0.463 -0.2281 -0.3043 -0.6809
  432MOL0     C59484   3.054   3.212   0.334  0.6335 -0.1344  0.5845
  432MOL0     C59485   3.189   3.228   0.311  0.1450 -0.0451 -0.4691
  432MOL0     O59486   3.225   3.251   0.180  0.0910  0.4185 -0.6478
  432MOL0     C59487   3.360   3.225   0.143  0.7876 -0.2399 -0.1951
  432MOL0     C59488   3.446   3.349   0.111 -0.4388  0.0474  0.4887
  432MOL0     C59489   3.506   3.423   0.225 -0.2098 -0.0146 -0.3468
  432MOL0     C59490   3.596   3.540   0.183  0.1724 -0.2663  0.3483
  432MOL0     C59491   3.512   3.642   0.109 -0.5141 -0.5648  0.4262
  432MOL0     C59492   3.596   3.771   0.072 -0.0807  0.2181 -0.3982
  432MOL0     C59493   3.507   3.877   0.001 -0.2162 -0.2842  0.2446
  432MOL0     C59494   3.415   3.939   0.107  0.7862  0.3231 -0.0806
  432MOL0     N59495   3.333   4.035   0.036  0.5258 -0.4471 -0.1393
  432MOL0     C59496   3.374   4.151  -0.032  0.1939 -0.5861  0.2113
  432MOL0     C59497   3.266   4.219  -0.077  0.4244  0.0868  0.5667
  432MOL0     C59498   3.266   4.345  -0.159  0.8423 -0.0724  0.4274
  432MOL0     C59499   3.148   4.342  -0.260  0.6270 -0.2442 -0.1581
  432MOL0     C59500   3.158   4.473  -0.359  0.0516  0.1544 -0.7599
  432MOL0     C59501   3.065   4.586  -0.323 -0.4274 -0.2457 -0.7731
  432MOL0     O59502   3.064   4.679  -0.423 -0.9033  0.1458  0.5977
  432MOL0     C59503   2.980   4.789  -0.404 -0.3554  0.9186 -0.8652
  432MOL0     C59504   2.993   4.881  -0.297 -0.7995  0.6894 -0.3776
  432MOL0     C59505   2.910   4.992  -0.275  0.0187  0.9469  0.1779
  432MOL0     C59506   2.940   5.088  -0.160 -0.1146 -0.4214 -0.3560
  432MOL0     C59507   2.806   5.020  -0.366  0.2677  0.1158 -0.1736
  432MOL0     C59508   2.722   5.145  -0.361  0.7097  0.5325 -0.7163
  432MOL0     O59509   2.593   5.133  -0.413 -0.6151  0.0634 -0.3239
  432MOL0     C59510   2.548   5.238  -0.489 -0.2271  1.6917 -0.7139
  432MOL0     C59511   2.613   5.245  -0.607  0.4176 -0.0019 -0.1824
  432MOL0     C59512   2.580   5.342  -0.706 -0.2465  0.4150 -1.4152
  432MOL0     C59513   2.490   5.442  -0.661 -0.7467 -0.6462 -0.1165
  432MOL0     O59514   2.431   5.543  -0.735  0.0875 -0.1318  0.3433
  432MOL0     C59515   2.503   5.585  -0.853  0.5087 -0.8561  0.3780
  432MOL0     C59516   2.615   5.680  -0.802  0.5373  0.2041  0.4714
  432MOL0     C59517   2.562   5.818  -0.755 -0.8289  0.4074 -0.8443
  432MOL0     C59518   2.535   5.906  -0.873  0.0453 -0.4663  0.1995
  432MOL0     C59519   2.486   6.042  -0.831 -1.0620 -0.4884 -1.0420
  432MOL0     C59520   2.406   6.097  -0.947  0.5984  0.5931  0.2198
  432MOL0     C59521   2.345   6.232  -0.925  0.0109 -0.2600 -0.2795
  432MOL0     C59522   2.291   6.284  -1.060 -0.3442  0.1678  0.9409
  432MOL0    Cl59523   2.417   6.329  -1.186 -0.0393  0.5418  0.1508
  432MOL0     C59524   2.436   5.435  -0.537  0.2373 -1.3757 -0.1784
  432MOL0     C59525   2.458   5.327  -0.446  0.5960 -0.3656 -0.2501
  432MOL0     O59526   2.778   5.247  -0.316  0.3013 -0.4612  0.1404
  432MOL0     C59527   2.786   4.923  -0.472  0.4931  1.4065  0.2776
  432MOL0     C59528   2.869   4.808  -0.489 -0.6756  0.2675  0.1705
  432MOL0     N59529   3.158   4.143  -0.031 -0.7955  0.6537 -1.3131
  432MOL0     N59530   3.194   4.028   0.025 -0.3747 -0.0510 -0.3830
  432MOL0     C59531   3.285   3.221   0.418  0.0164 -0.3889 -0.0829
  432MOL0     C59532   3.237   3.189   0.550  0.1974  0.2672  0.7555
  432MOL0     C59533   2.896   3.179   0.879  0.2784  0.1743  0.1280
  432MOL0     C59534   2.938   3.049   0.915  0.2482  0.4735  0.5388
  432MOL0     C59535   2.880   2.972   1.021 -0.7759  0.6552  0.4263
  432MOL0     C59536   2.786   3.034   1.096 -0.6118  0.2053 -0.2026
  432MOL0     O59537   2.716   2.981   1.200 -0.0756 -0.6909 -0.4967
  432MOL0     C59538   2.724   2.836   1.221  0.4023  0.1416  0.2088
  432MOL0     C59539   2.643   2.797   1.343 -0.0086 -0.0511 -0.2818
  432MOL0     C59540   2.692   2.673   1.413  0.0802 -0.1611  0.8861
  432MOL0     C59541   2.740   2.701   1.556  1.1758  0.0519 -0.4311
  432MOL0     C59542   2.861   2.780   1.547 -0.1146 -0.8743 -0.1847
  432MOL0     C59543   2.945   2.870   1.549  0.2956 -0.1364  0.4203
  432MOL0     C59544   2.754   3.171   1.072 -0.1035  0.3537 -0.1137
  432MOL0     C59545   2.808   3.249   0.961  0.6444  0.0942  0.1699
  432MOL0     C59546   2.748   3.386   0.929 -0.4264  1.8514 -0.0194
  432MOL0     H59547   2.902   3.219   0.485 -0.9522 -2.0985 -3.2262
  432MOL0     H59548   2.987   3.194   0.250  0.1217 -1.9804  1.3444
  432MOL0     H59549   3.351   3.171   0.048 -1.4375 -0.7782  0.2631
  432MOL0     H59550   3.418   3.157   0.206 -0.4340 -1.7168 -0.6070
  432MOL0     H59551   3.528   3.307   0.052 -1.1231 -1.0822  0.3086
  432MOL0     H59552   3.385   3.415   0.049  0.1654  0.2880  0.1363
  432MOL0     H59553   3.422   3.457   0.286 -1.1602 -1.1167 -1.0011
  432MOL0     H59554   3.569   3.357   0.286 -2.0859  0.4912  2.3383
  432MOL0     H59555   3.659   3.588   0.259  1.2424  1.4659 -1.5284
  432MOL0     H59556   3.670   3.499   0.113 -2.3029 -3.7251 -0.4850
  432MOL0     H59557   3.416   3.665   0.155 -0.6305  3.0817 -1.2849
  432MOL0     H59558   3.487   3.602   0.010 -2.3728  0.2796  0.5062
  432MOL0     H59559   3.641   3.819   0.160  1.8850 -1.2416 -0.5297
  432MOL0     H59560   3.677   3.733   0.008 -2.0097  1.0440 -3.5226
  432MOL0     H59561   3.458   3.849  -0.093  0.5861 -0.9974  0.0276
  432MOL0     H59562   3.566   3.964  -0.029  2.0365 -1.9676 -0.5239
  432MOL0     H59563   3.345   3.868   0.151 -1.3416  2.3147 -0.0144
  432MOL0     H59564   3.475   3.974   0.191 -2.0381  1.5016  1.6135
  432MOL0     H59565   3.477   4.166  -0.060  0.3049  1.7979  1.6766
  432MOL0     H59566   3.360   4.361  -0.212  0.2692  2.4615  0.0457
  432MOL0     H59567   3.236   4.431  -0.098 -1.3722 -0.2993 -0.2223
  432MOL0     H59568   3.163   4.249  -0.316  0.7769 -1.7927  2.3230
  432MOL0     H59569   3.045   4.348  -0.224  0.7845  1.7715  0.0762
  432MOL0     H59570   3.260   4.512  -0.353 -0.1721  0.5168  3.2212
  432MOL0     H59571   3.122   4.449  -0.460 -2.3191  1.5758 -0.3361
  432MOL0     H59572   2.965   4.545  -0.309 -0.6372  0.5135 -0.0102
  432MOL0     H59573   3.089   4.637  -0.230  0.4346  3.2734 -2.7661
  432MOL0     H59574   3.082   4.855  -0.241 -1.3275  0.0276  0.1817
  432MOL0     H59575   3.014   5.049  -0.089  1.2759 -0.4874 -1.7702
  432MOL0     H59576   2.848   5.121  -0.112  1.4346  4.1216  0.0186
  432MOL0     H59577   2.990   5.179  -0.196  2.2755 -2.3767 -2.3861
  432MOL0     H59578   2.685   5.168  -0.633  0.0248 -0.2261 -0.6311
  432MOL0     H59579   2.623   5.328  -0.805 -2.2103  0.5071 -2.3149
  432MOL0     H59580   2.550   5.498  -0.900 -2.2059 -3.0314  1.3970
  432MOL0     H59581   2.446   5.647  -0.923  2.5162  1.4795  0.6925
  432MOL0     H59582   2.683   5.627  -0.735  0.7767  1.6623  1.4186
  432MOL0     H59583   2.681   5.698  -0.888  1.1915  2.5129  1.3846
  432MOL0     H59584   2.634   5.868  -0.690 -0.8581  0.8532 -1.1556
  432MOL0     H59585   2.473   5.786  -0.699  1.2240 -3.9017  0.3685
  432MOL0     H59586   2.460   5.861  -0.939  1.7916 -1.6848 -1.0837
  432MOL0     H59587   2.632   5.922  -0.922 -0.7157 -0.6298 -1.4320
  432MOL0     H59588   2.429   6.044  -0.738  0.4373 -1.1345 -0.0467
  432MOL0     H59589   2.577   6.102  -0.819 -0.1078 -1.9053 -0.7526
  432MOL0     H59590   2.331   6.022  -0.973 -0.7244  1.5591  1.1186
  432MOL0     H59591   2.475   6.112  -1.030 -0.8937 -0.2416 -1.2257
  432MOL0     H59592   2.414   6.306  -0.883  2.0406 -2.2438  0.0314
  432MOL0     H59593   2.267   6.230  -0.848 -1.7413  1.7798 -1.8624
  432MOL0     H59594   2.221   6.366  -1.045 -1.5295 -1.2259  3.8117
  432MOL0     H59595   2.220   6.206  -1.091  1.8037 -1.7250  0.5220
  432MOL0     H59596   2.372   5.509  -0.490 -0.6973 -3.3268  1.8108
  432MOL0     H59597   2.425   5.325  -0.342 -0.5475  0.8295 -0.5685
  432MOL0     H59598   2.702   4.934  -0.540 -1.7625  1.0446  2.8260
  432MOL0     H59599   2.855   4.737  -0.570 -0.7215 -1.3486  1.5383
  432MOL0     H59600   3.389   3.231   0.389 -0.7107  0.5782 -2.5939
  432MOL0     H59601   3.307   3.174   0.632 -2.1757  1.3337  3.1485
  432MOL0     H59602   3.017   2.997   0.862 -1.5906 -2.2031  0.2153
  432MOL0     H59603   2.917   2.871   1.033 -0.3107  0.2999 -2.8753
  432MOL0     H59604   2.688   2.784   1.132  2.5883  1.6934 -1.6789
  432MOL0     H59605   2.824   2.793   1.232 -0.0686 -0.5602  2.2893
  432MOL0     H59606   2.542   2.785   1.303  0.0675 -1.8752 -0.0196
  432MOL0     H59607   2.655   2.878   1.416 -0.1620  1.0815 -1.4809
  432MOL0     H59608   2.610   2.601   1.424 -0.4141  0.4690  1.4141
  432MOL0     H59609   2.772   2.628   1.353 -1.2059  1.3763 -2.1816
  432MOL0     H59610   2.764   2.607   1.605  2.3259  1.6812  2.3619
  432MOL0     H59611   2.655   2.738   1.615 -1.1533 -2.1887 -2.1550
  432MOL0     H59612   3.029   2.935   1.562 -0.1049  0.2548  1.1220
  432MOL0     H59613   2.683   3.219   1.138 -0.0304 -1.5397  1.4267
  432MOL0     H59614   2.688   3.406   1.018  1.3838  0.2961  1.6433
  432MOL0     H59615   2.824   3.464   0.922 -0.0667  1.5326  0.3157
  432MOL0     H59616   2.690   3.380   0.836  3.6096 -0.1963 -2.6707
  433MOL0     O59617   1.499   5.036   8.633 -0.7785  0.3781  0.2591
  433MOL0     C59618   1.491   5.156   8.641 -0.3796  0.2109 -0.2035
  433MOL0     O59619   1.407   5.232   8.578 -0.2577  0.1112  0.5032
  433MOL0     C59620   1.315   5.164   8.505  1.0497 -1.5816  0.6746
  433MOL0     C59621   1.173   5.162   8.530 -0.2943 -0.1843 -0.3705
  433MOL0     C59622   1.078   5.096   8.456 -0.5111 -0.5919 -0.8072
  433MOL0     C59623   1.114   5.021   8.338 -0.3263 -0.2762 -0.0151
  433MOL0     O59624   1.029   4.953   8.257  0.0218 -0.2263  0.7269
  433MOL0     C59625   1.069   4.822   8.207  0.0921  0.5401  0.0566
  433MOL0     C59626   1.047   4.714   8.311 -0.7929  0.4412 -0.1408
  433MOL0     C59627   1.101   4.578   8.266 -0.6155 -0.4800  0.8885
  433MOL0     C59628   1.001   4.518   8.166 -0.4815  0.2318  0.1638
  433MOL0     C59629   1.005   4.364   8.193 -0.1892  0.0498  0.1785
  433MOL0     C59630   0.927   4.269   8.096  0.0449 -1.1145  0.8243
  433MOL0     C59631   0.994   4.268   7.954  0.7316  0.4047 -0.5545
  433MOL0     C59632   1.127   4.201   7.946  0.5796 -0.5373 -0.0144
  433MOL0     N59633   1.193   4.242   7.821  0.2152  0.3824 -0.0639
  433MOL0     C59634   1.199   4.160   7.714 -0.5527 -0.4629  0.6133
  433MOL0     C59635   1.288   4.225   7.630  1.0628 -0.7005 -0.0677
  433MOL0     C59636   1.326   4.185   7.489  0.1856 -0.0947  0.5580
  433MOL0     C59637   1.442   4.076   7.490  0.3878  0.2913 -1.0081
  433MOL0     C59638   1.506   4.031   7.354  0.8507  0.4576 -0.6311
  433MOL0     C59639   1.612   4.134   7.323  0.6322  0.2760  1.2126
  433MOL0     O59640   1.677   4.081   7.205 -0.1424  0.4611 -0.3753
  433MOL0     C59641   1.786   4.144   7.148  0.9650  0.8784 -0.0641
  433MOL0     C59642   1.851   4.249   7.219 -0.9049  0.1722 -0.1594
  433MOL0     C59643   1.948   4.329   7.149 -0.5631  0.0826  0.0214
  433MOL0     C59644   2.001   4.439   7.226  0.0760 -0.1904 -0.2057
  433MOL0     C59645   1.990   4.283   7.012  0.2390  0.2577 -0.6465
  433MOL0     C59646   2.098   4.338   6.932  0.2892  0.1333  0.1407
  433MOL0     O59647   2.158   4.448   6.983 -0.1180 -0.1474 -0.6431
  433MOL0     C59648   2.290   4.472   6.950  0.6648  0.4727 -0.2511
  433MOL0     C59649   2.344   4.564   6.858 -0.3076 -0.0400  0.8655
  433MOL0     C59650   2.481   4.568   6.829  0.6704 -0.5764  1.0957
  433MOL0     C59651   2.568   4.493   6.906 -0.8204 -0.0380 -0.2648
  433MOL0     O59652   2.693   4.523   6.882 -0.3666 -0.0073  0.3694
  433MOL0     C59653   2.797   4.428   6.885 -0.4377 -0.3003  0.2973
  433MOL0     C59654   2.934   4.503   6.903  0.3725  0.2400 -0.5915
  433MOL0     C59655   3.028   4.430   7.002 -1.0271  0.3824  0.9109
  433MOL0     C59656   2.962   4.439   7.147  0.6501 -0.1095 -0.1062
  433MOL0     C59657   3.061   4.388   7.249 -0.0195 -0.5567 -0.4313
  433MOL0     C59658   3.180   4.482   7.267 -0.1602  0.3930  0.3105
  433MOL0     C59659   3.278   4.458   7.387 -0.7421 -0.3169 -0.1921
  433MOL0     C59660   3.332   4.314   7.395  0.2353  0.9423  0.5780
  433MOL0    Cl59661   3.430   4.268   7.264 -0.2604  0.1644  0.1868
  433MOL0     C59662   2.521   4.421   7.012 -0.1650  1.3621 -0.1613
  433MOL0     C59663   2.385   4.407   7.032  0.8622 -0.7829  0.6743
  433MOL0     O59664   2.118   4.296   6.815  0.7024 -0.9214  0.0029
  433MOL0     C59665   1.916   4.181   6.951 -0.0908 -1.0608 -1.0064
  433MOL0     C59666   1.813   4.112   7.015  0.5197  0.5508  0.5851
  433MOL0     N59667   1.314   4.348   7.686 -0.4221  0.7510 -0.3613
  433MOL0     N59668   1.252   4.364   7.798 -0.1911  0.7591 -0.2753
  433MOL0     C59669   1.248   5.034   8.302 -0.0342 -0.2208 -0.2557
  433MOL0     C59670   1.338   5.099   8.383  0.7424  0.2010 -0.8904
  433MOL0     C59671   1.553   5.215   8.763  0.4533 -0.7054  0.0037
  433MOL0     C59672   1.501   5.333   8.812 -0.5848 -0.9707 -0.6109
  433MOL0     C59673   1.545   5.402   8.919  0.0733 -0.3094 -0.2945
  433MOL0     C59674   1.656   5.345   8.985  0.8187 -0.4658  0.1788
  433MOL0     O59675   1.696   5.416   9.100 -0.3802 -0.5637  0.1159
  433MOL0     C59676   1.762   5.350   9.210 -0.0357  0.8009  0.5553
  433MOL0     C59677   1.720   5.421   9.343 -0.7007  0.4529 -0.0758
  433MOL0     C59678   1.568   5.395   9.377 -0.8697 -0.5239  0.3078
  433MOL0     C59679   1.489   5.534   9.392 -0.4381  0.3394  0.3753
  433MOL0     C59680   1.532   5.603   9.512 -0.3762 -0.3943 -0.2439
  433MOL0     C59681   1.571   5.642   9.619 -0.1485 -0.5970  0.7806
  433MOL0     C59682   1.697   5.209   8.952  0.2900 -0.3503  0.0365
  433MOL0     C59683   1.660   5.154   8.828  0.5641  0.8226 -0.3537
  433MOL0     C59684   1.736   5.027   8.782  0.3884  0.0594  0.3175
  433MOL0     H59685   1.128   5.202   8.621 -1.0718 -3.8992  1.0590
  433MOL0     H59686   0.974   5.092   8.488 -0.7588  1.2288 -1.2893
  433MOL0     H59687   1.173   4.816   8.175  1.1256 -1.6094  3.2527
  433MOL0     H59688   1.013   4.789   8.120  2.0337 -0.2171 -0.9635
  433MOL0     H59689   1.089   4.743   8.407 -0.3317 -1.6543  0.3321
  433MOL0     H59690   0.939   4.709   8.328 -1.3684  0.5837 -3.1464
  433MOL0     H59691   1.204   4.578   8.228 -0.6973  1.1412  0.6318
  433MOL0     H59692   1.098   4.518   8.358  0.4377 -0.4098  0.9863
  433MOL0     H59693   0.901   4.562   8.170 -0.3584  0.8281 -1.8734
  433MOL0     H59694   1.045   4.539   8.068  1.0022  1.7826  1.0989
  433MOL0     H59695   0.959   4.363   8.293  2.4118  3.3834  1.6140
  433MOL0     H59696   1.109   4.330   8.194  0.0608  0.7709  1.6681
  433MOL0     H59697   0.918   4.167   8.134 -0.3461 -0.4452  2.6776
  433MOL0     H59698   0.825   4.296   8.070  0.2281 -0.2891  0.9377
  433MOL0     H59699   1.019   4.370   7.922  2.3339  0.0633 -0.4171
  433MOL0     H59700   0.935   4.200   7.891  0.9718 -0.2187 -0.1099
  433MOL0     H59701   1.190   4.238   8.027 -2.0642  1.0472  1.4946
  433MOL0     H59702   1.112   4.094   7.962  0.8931 -0.4247  1.1303
  433MOL0     H59703   1.154   4.063   7.695  0.1907 -0.7397  0.2231
  433MOL0     H59704   1.366   4.259   7.419  0.2887 -2.1267 -1.6726
  433MOL0     H59705   1.229   4.152   7.453 -1.6893  2.9660  2.3232
  433MOL0     H59706   1.518   4.092   7.567 -1.4299  0.5586  0.8014
  433MOL0     H59707   1.389   3.986   7.521  1.9819 -0.6405 -0.8939
  433MOL0     H59708   1.547   3.930   7.362  1.6625  0.8708  0.4842
  433MOL0     H59709   1.424   4.038   7.281 -1.5629  0.9135  1.9806
  433MOL0     H59710   1.558   4.226   7.299  0.0974 -0.7190 -1.8409
  433MOL0     H59711   1.684   4.133   7.405  1.7589 -1.7334  0.2715
  433MOL0     H59712   1.814   4.277   7.317  1.4507 -0.0016  0.8271
  433MOL0     H59713   2.012   4.520   7.154  2.6516  1.2338  1.6396
  433MOL0     H59714   2.102   4.411   7.257 -0.3322  0.0240  1.3842
  433MOL0     H59715   1.941   4.465   7.313 -0.3125 -1.8633  0.0762
  433MOL0     H59716   2.277   4.628   6.801 -0.5816 -0.0349  1.1916
  433MOL0     H59717   2.528   4.631   6.754 -1.4031  0.2092  0.3753
  433MOL0     H59718   2.778   4.349   6.958 -1.2189  0.5959  1.0792
  433MOL0     H59719   2.789   4.388   6.783 -0.3310 -2.2053  0.9896
  433MOL0     H59720   2.975   4.500   6.801 -2.7740 -0.3037 -1.9625
  433MOL0     H59721   2.906   4.604   6.934  1.5148  0.3180  0.2639
  433MOL0     H59722   3.129   4.473   6.998 -0.0070 -1.9892 -1.1821
  433MOL0     H59723   3.049   4.327   6.974 -0.9328  0.2029  1.6188
  433MOL0     H59724   2.874   4.375   7.160 -1.2039  2.2241 -0.4461
  433MOL0     H59725   2.940   4.541   7.179 -0.6652 -0.3495 -0.1599
  433MOL0     H59726   3.016   4.380   7.349 -0.2610 -2.0242 -0.6349
  433MOL0     H59727   3.091   4.286   7.222  0.3083 -0.1430 -1.6805
  433MOL0     H59728   3.137   4.581   7.254 -0.3323  0.4252  1.0574
  433MOL0     H59729   3.243   4.466   7.179 -2.2903 -3.4865 -0.7468
  433MOL0     H59730   3.226   4.489   7.478 -2.7278 -1.4106 -0.8830
  433MOL0     H59731   3.355   4.536   7.382 -0.9268 -0.0622  0.7568
  433MOL0     H59732   3.245   4.249   7.396  1.6334 -1.0489 -0.8108
  433MOL0     H59733   3.382   4.291   7.490  1.0572  1.3041  0.2405
  433MOL0     H59734   2.585   4.371   7.085 -0.5580  0.4031 -0.4479
  433MOL0     H59735   2.341   4.349   7.113 -4.2305  1.6542  0.0891
  433MOL0     H59736   1.933   4.148   6.849 -0.3763 -1.4228 -0.9400
  433MOL0     H59737   1.743   4.050   6.961  1.7339 -1.2957  1.0411
  433MOL0     H59738   1.294   4.986   8.216  0.6323 -3.8551  1.9266
  433MOL0     H59739   1.440   5.100   8.346  1.7736 -3.0987  1.3976
  433MOL0     H59740   1.416   5.378   8.763  0.6454  2.3569  0.0631
  433MOL0     H59741   1.501   5.496   8.952 -0.8364 -0.0767 -2.0551
  433MOL0     H59742   1.737   5.244   9.207 -1.8857  1.2200 -1.8880
  433MOL0     H59743   1.871   5.356   9.197  0.2945 -3.5408 -0.0694
  433MOL0     H59744   1.741   5.528   9.332 -0.1826  0.4876  1.0822
  433MOL0     H59745   1.785   5.388   9.425 -0.0300 -0.2116 -0.8661
  433MOL0     H59746   1.533   5.326   9.300 -0.5377  1.0855 -1.3671
  433MOL0     H59747   1.559   5.349   9.476  0.4557 -0.1913  0.6043
  433MOL0     H59748   1.382   5.519   9.402 -0.4361  0.3853  0.4697
  433MOL0     H59749   1.512   5.594   9.303 -3.7629 -1.1968 -1.6940
  433MOL0     H59750   1.614   5.667   9.714  2.5203 -1.6278 -0.0591
  433MOL0     H59751   1.779   5.174   9.013 -0.0866  0.9630  1.3799
  433MOL0     H59752   1.831   5.023   8.836  0.0664 -2.2805  0.8213
  433MOL0     H59753   1.663   4.946   8.789 -2.0671  2.1301  0.1586
  433MOL0     H59754   1.756   5.054   8.678 -0.8399 -3.2312 -0.8835
  434MOL0     O59755   5.897   4.960   2.272  0.9031 -0.5341 -0.3634
  434MOL0     C59756   5.908   4.857   2.202 -0.1652 -0.3554 -0.1858
  434MOL0     O59757   5.946   4.844   2.073 -0.2514  0.4461  0.2816
  434MOL0     C59758   5.962   4.964   2.001 -0.3690  0.1496 -0.0314
  434MOL0     C59759   6.047   5.070   2.030 -0.9803 -0.4687  0.1627
  434MOL0     C59760   6.061   5.170   1.935 -0.4356 -0.3676  0.2036
  434MOL0     C59761   5.991   5.171   1.808 -0.3314 -0.7806  0.5432
  434MOL0     O59762   6.000   5.270   1.717  0.6541 -0.7299  0.2445
  434MOL0     C59763   6.030   5.409   1.775  0.5128  0.3091 -0.6094
  434MOL0     C59764   5.972   5.506   1.681  0.0616 -0.1309  0.4849
  434MOL0     C59765   6.078   5.553   1.589  0.5923  0.4185  0.8092
  434MOL0     C59766   6.013   5.627   1.476 -0.3056  0.2854  0.2813
  434MOL0     C59767   6.116   5.698   1.398  0.3182 -0.3257 -0.4436
  434MOL0     C59768   6.046   5.745   1.262 -0.5367 -0.0781  0.0185
  434MOL0     C59769   6.162   5.791   1.171 -0.8849 -0.0680 -0.1354
  434MOL0     C59770   6.124   5.813   1.028  0.7002  0.0823 -1.2959
  434MOL0     N59771   6.123   5.695   0.943 -1.1038  0.0604 -0.9557
  434MOL0     C59772   6.231   5.658   0.869  0.1789 -0.7083 -0.0659
  434MOL0     C59773   6.187   5.550   0.797 -0.0334 -0.3028 -0.4614
  434MOL0     C59774   6.279   5.457   0.729 -0.2705  0.5320  0.2912
  434MOL0     C59775   6.315   5.499   0.589 -0.7822  0.0008 -0.3163
  434MOL0     C59776   6.198   5.481   0.497  0.1935 -0.0797  0.4582
  434MOL0     C59777   6.249   5.481   0.356  0.5455  0.2091  0.4095
  434MOL0     O59778   6.305   5.610   0.324  0.8236 -0.3762 -0.4232
  434MOL0     C59779   6.409   5.623   0.242 -0.2086 -0.9249 -0.1898
  434MOL0     C59780   6.515   5.707   0.277  0.1079  0.3884 -0.4939
  434MOL0     C59781   6.618   5.736   0.181  0.4284 -0.8759  0.5774
  434MOL0     C59782   6.721   5.838   0.222  0.2900  0.2437 -0.1780
  434MOL0     C59783   6.608   5.672   0.061 -0.1414  0.3612  0.3032
  434MOL0     C59784   6.714   5.697  -0.042  0.4893  0.8488  0.4009
  434MOL0     O59785   6.670   5.684  -0.171  0.3763  0.0676  0.3467
  434MOL0     C59786   6.749   5.684  -0.283 -0.7506  0.1480  0.9269
  434MOL0     C59787   6.689   5.719  -0.400 -0.0367 -0.3893  0.6616
  434MOL0     C59788   6.754   5.737  -0.516 -0.4323 -0.3664  0.8815
  434MOL0     C59789   6.896   5.723  -0.521  0.4030  0.0795  0.0231
  434MOL0     O59790   6.961   5.730  -0.651 -0.8718  0.7390 -0.8367
  434MOL0     C59791   7.080   5.658  -0.680  0.7205 -0.6445  0.2462
  434MOL0     C59792   7.093   5.645  -0.834 -0.7917 -0.8411  0.0051
  434MOL0     C59793   6.988   5.564  -0.898  0.6431  0.4624 -0.5752
  434MOL0     C59794   7.013   5.534  -1.049  1.2781 -0.5917  0.8491
  434MOL0     C59795   6.903   5.444  -1.110 -0.1458 -0.1795  1.0948
  434MOL0     C59796   6.906   5.301  -1.061  0.2637  0.6728  1.1456
  434MOL0     C59797   6.971   5.199  -1.173  0.5876 -0.0764 -0.5071
  434MOL0     C59798   6.974   5.061  -1.107 -0.4967  0.1572  1.1385
  434MOL0    Cl59799   7.063   4.946  -1.209 -0.0262 -0.1199 -0.1652
  434MOL0     C59800   6.958   5.686  -0.406  0.1409 -1.0191 -0.2778
  434MOL0     C59801   6.886   5.667  -0.288  0.4493  0.1282 -0.7478
  434MOL0     O59802   6.834   5.721  -0.017 -0.3528  0.2909 -0.0530
  434MOL0     C59803   6.504   5.587   0.029  0.5723 -1.0929 -0.0433
  434MOL0     C59804   6.403   5.570   0.112  0.5742 -0.0999  0.9244
  434MOL0     N59805   6.051   5.523   0.832 -0.0162 -0.0516 -0.0206
  434MOL0     N59806   6.017   5.610   0.924 -0.9159 -0.1300  0.1101
  434MOL0     C59807   5.903   5.067   1.785 -1.0348  0.0711 -0.2113
  434MOL0     C59808   5.887   4.961   1.886 -0.0396 -0.3105  0.6219
  434MOL0     C59809   5.867   4.744   2.282 -0.2019  0.1461  0.5174
  434MOL0     C59810   5.928   4.719   2.411 -0.1924  1.1079  0.3845
  434MOL0     C59811   5.901   4.603   2.478 -0.5513  0.0555 -0.0029
  434MOL0     C59812   5.816   4.502   2.432 -0.1623  0.3467  0.2910
  434MOL0     O59813   5.788   4.381   2.486 -0.6656 -0.4061  0.1370
  434MOL0     C59814   5.822   4.363   2.619  0.0919 -0.0218  0.3223
  434MOL0     C59815   5.722   4.425   2.715 -0.4521  0.4121  0.0397
  434MOL0     C59816   5.771   4.425   2.865 -0.1192 -0.0286 -0.9036
  434MOL0     C59817   5.691   4.532   2.946 -0.3199  0.1679 -0.3615
  434MOL0     C59818   5.732   4.530   3.092 -0.2350 -0.7133  0.8372
  434MOL0     C59819   5.760   4.524   3.209 -0.1810  0.3860 -0.4204
  434MOL0     C59820   5.752   4.536   2.316 -0.1335  0.2806  0.3753
  434MOL0     C59821   5.772   4.650   2.236  0.1899 -0.0935  1.3009
  434MOL0     C59822   5.710   4.660   2.091  1.3384  0.1394  0.4004
  434MOL0     H59823   6.097   5.068   2.126  1.6527 -1.3491 -1.1155
  434MOL0     H59824   6.124   5.256   1.956  1.1022 -1.7111  1.3145
  434MOL0     H59825   6.138   5.429   1.777 -0.0090  3.8956 -1.0795
  434MOL0     H59826   5.988   5.431   1.874 -0.0484  0.0763 -0.7944
  434MOL0     H59827   5.901   5.456   1.614  1.0278 -1.0102  0.0982
  434MOL0     H59828   5.932   5.593   1.734  0.1693 -0.3842  0.9893
  434MOL0     H59829   6.151   5.616   1.640  3.1403 -1.6590 -0.0056
  434MOL0     H59830   6.132   5.473   1.536  0.9048  2.0822 -1.5736
  434MOL0     H59831   5.963   5.554   1.412 -0.7727  0.8212  0.0238
  434MOL0     H59832   5.939   5.694   1.522 -2.3968 -2.0063  0.4388
  434MOL0     H59833   6.198   5.629   1.376 -0.6800 -1.7681  0.2303
  434MOL0     H59834   6.150   5.791   1.446 -1.5110 -0.0737  0.4469
  434MOL0     H59835   6.010   5.654   1.212 -0.9519  0.9649 -1.6579
  434MOL0     H59836   5.960   5.812   1.270  1.3697  2.2612  3.4094
  434MOL0     H59837   6.252   5.729   1.165  0.6520  1.9828  0.5667
  434MOL0     H59838   6.196   5.887   1.209  0.0696 -0.1206 -0.8073
  434MOL0     H59839   6.019   5.844   1.031  1.1334  1.6316 -1.2228
  434MOL0     H59840   6.180   5.899   0.990  0.8671  0.3070 -0.5724
  434MOL0     H59841   6.327   5.708   0.863 -0.5825  0.8623  0.3675
  434MOL0     H59842   6.219   5.366   0.726 -0.1617  0.4233  1.1635
  434MOL0     H59843   6.372   5.436   0.784  0.8594  0.3478 -1.6002
  434MOL0     H59844   6.338   5.606   0.592  0.1819 -0.1936  2.6206
  434MOL0     H59845   6.400   5.439   0.556 -1.6055 -0.1720 -2.2319
  434MOL0     H59846   6.145   5.387   0.512 -1.5119  0.4861 -1.5100
  434MOL0     H59847   6.127   5.563   0.515  1.8827  1.5806 -0.0724
  434MOL0     H59848   6.339   5.418   0.351  2.1894  2.5095 -3.9298
  434MOL0     H59849   6.185   5.435   0.281  1.7961 -2.1585  0.7075
  434MOL0     H59850   6.517   5.758   0.372 -0.5785 -0.2420 -0.1285
  434MOL0     H59851   6.685   5.883   0.315 -1.8608  2.0574 -1.7724
  434MOL0     H59852   6.727   5.922   0.152  3.2882  0.4762  0.2308
  434MOL0     H59853   6.814   5.786   0.245  1.6718  1.3203 -2.9593
  434MOL0     H59854   6.581   5.729  -0.395 -0.0207  0.7262 -0.8279
  434MOL0     H59855   6.696   5.757  -0.605  0.6282 -3.4024 -0.6553
  434MOL0     H59856   7.163   5.723  -0.652 -1.2551  2.1826 -0.0443
  434MOL0     H59857   7.078   5.560  -0.631 -2.6144  0.2957  2.3213
  434MOL0     H59858   7.115   5.746  -0.869  0.7743  0.1355  3.4500
  434MOL0     H59859   7.184   5.587  -0.852 -2.1048 -3.2617  0.7130
  434MOL0     H59860   6.890   5.609  -0.881 -0.4870 -2.1812  0.4499
  434MOL0     H59861   6.970   5.470  -0.846  0.0115  0.4132 -0.8623
  434MOL0     H59862   7.117   5.502  -1.060  1.8888  1.3176  0.5827
  434MOL0     H59863   7.014   5.632  -1.099  1.9304 -1.3361 -0.6565
  434MOL0     H59864   6.807   5.483  -1.075 -0.3692 -0.5052  0.8554
  434MOL0     H59865   6.911   5.451  -1.219  2.1182  1.9494  1.3056
  434MOL0     H59866   6.806   5.275  -1.025 -0.3381  1.2592 -0.0479
  434MOL0     H59867   6.965   5.298  -0.969  1.2941  1.4110  0.5293
  434MOL0     H59868   7.067   5.237  -1.208  0.7993 -0.5543 -0.4572
  434MOL0     H59869   6.904   5.196  -1.259  1.5273  1.7114 -1.3614
  434MOL0     H59870   6.873   5.021  -1.095 -0.6262 -0.2445 -0.9411
  434MOL0     H59871   7.007   5.060  -1.002 -0.2569 -3.7560  1.1645
  434MOL0     H59872   7.067   5.678  -0.409  0.6375  3.6120 -1.3428
  434MOL0     H59873   6.949   5.651  -0.201 -3.2314  3.2607  2.9242
  434MOL0     H59874   6.500   5.532  -0.065  0.7716 -2.0308  0.4854
  434MOL0     H59875   6.322   5.502   0.090  0.3146  0.3480  0.4637
  434MOL0     H59876   5.843   5.071   1.695  2.7768  0.2114 -2.9434
  434MOL0     H59877   5.820   4.879   1.863 -1.7288  0.9994  0.6551
  434MOL0     H59878   6.002   4.789   2.448  2.3112 -0.6083 -1.0701
  434MOL0     H59879   5.966   4.576   2.561 -0.5812 -2.1820 -0.6512
  434MOL0     H59880   5.826   4.255   2.638  2.0178 -0.5607 -2.5063
  434MOL0     H59881   5.927   4.390   2.637 -0.1835  1.4708 -0.2014
  434MOL0     H59882   5.632   4.364   2.706  1.1913 -2.0445 -0.7444
  434MOL0     H59883   5.692   4.525   2.681 -0.7364 -0.3531 -2.1169
  434MOL0     H59884   5.755   4.330   2.917  3.9234 -0.4264 -0.0241
  434MOL0     H59885   5.880   4.428   2.865 -0.0608 -1.3870 -0.1294
  434MOL0     H59886   5.585   4.506   2.947 -0.0769 -0.8793 -0.1340
  434MOL0     H59887   5.712   4.629   2.900 -3.2849  1.0647 -0.0037
  434MOL0     H59888   5.794   4.513   3.310 -1.0241  0.7561 -0.0950
  434MOL0     H59889   5.684   4.461   2.277 -0.6411  2.1448 -2.6753
  434MOL0     H59890   5.657   4.753   2.074  1.5335  0.2448  0.3661
  434MOL0     H59891   5.771   4.636   2.003 -1.6088  1.6752 -2.2307
  434MOL0     H59892   5.636   4.579   2.090  0.4255  0.9237  1.4078
  435MOL0     O59893   9.140   7.491   8.035  0.4338  0.2414 -1.0017
  435MOL0     C59894   9.053   7.506   8.120  0.3047  0.2371  1.0043
  435MOL0     O59895   9.076   7.528   8.251 -0.4299  0.3328 -0.1405
  435MOL0     C59896   9.196   7.555   8.295 -0.0590 -0.1078  0.1776
  435MOL0     C59897   9.270   7.665   8.239  0.1934 -0.0160  0.8050
  435MOL0     C59898   9.383   7.701   8.299  1.0387  0.6536  0.6096
  435MOL0     C59899   9.434   7.635   8.417  0.1884 -0.0196 -0.8104
  435MOL0     O59900   9.563   7.652   8.460  0.1042 -0.4324  0.8505
  435MOL0     C59901   9.625   7.777   8.455 -0.1706  0.4957 -0.4369
  435MOL0     C59902   9.545   7.880   8.544  0.2231 -0.3468  0.5705
  435MOL0     C59903   9.635   7.996   8.568 -0.1677  0.2120  0.5442
  435MOL0     C59904   9.556   8.091   8.659  0.2553 -0.1799 -0.0395
  435MOL0     C59905   9.513   8.046   8.804 -1.2750  0.2028  1.1544
  435MOL0     C59906   9.436   8.162   8.876 -0.3572  0.0147 -0.5328
  435MOL0     C59907   9.542   8.270   8.907 -0.1549  0.2402  0.7443
  435MOL0     C59908   9.489   8.398   8.976  0.8121  0.3037 -0.2450
  435MOL0     N59909   9.432   8.370   9.109  0.0458 -0.2396 -0.2517
  435MOL0     C59910   9.505   8.328   9.216  0.0778  0.7978 -1.2539
  435MOL0     C59911   9.425   8.343   9.327 -0.3731 -0.9567 -0.3739
  435MOL0     C59912   9.472   8.350   9.471  0.3111 -0.1835 -0.1275
  435MOL0     C59913   9.474   8.499   9.503  0.5515 -0.1801  0.0225
  435MOL0     C59914   9.603   8.564   9.449  0.5012  0.9521 -0.4126
  435MOL0     C59915   9.720   8.541   9.548  0.5339 -1.0742 -0.9047
  435MOL0     O59916   9.852   8.555   9.485 -0.0767  0.2308  0.0343
  435MOL0     C59917   9.966   8.542   9.557  0.7265  0.5901  1.3408
  435MOL0     C59918   9.960   8.515   9.690 -1.2826 -0.2079 -0.4222
  435MOL0     C59919  10.075   8.497   9.760  0.0252 -0.5251 -0.9438
  435MOL0     C59920  10.048   8.460   9.912 -1.0051 -0.7873  0.6801
  435MOL0     C59921  10.202   8.506   9.693 -0.4317  0.1546 -0.1132
  435MOL0     C59922  10.319   8.474   9.780  0.8451  0.2336 -0.0628
  435MOL0     O59923  10.412   8.569   9.782 -0.3526  0.2980 -0.1039
  435MOL0     C59924  10.518   8.549   9.863 -0.0054 -0.1937 -0.4439
  435MOL0     C59925  10.512   8.557  10.001  0.2183  0.0805 -0.0418
  435MOL0     C59926  10.630   8.553  10.083  0.9188  0.2161 -0.2567
  435MOL0     C59927  10.763   8.561  10.027 -0.5327  0.4126 -0.4092
  435MOL0     O59928  10.886   8.570  10.090 -0.5005  0.6706  0.1938
  435MOL0     C59929  10.909   8.503  10.215  0.2643 -0.9848  0.2011
  435MOL0     C59930  11.046   8.553  10.278 -0.0907  0.4254  0.3092
  435MOL0     C59931  11.028   8.577  10.427  0.6023 -0.2655 -0.1096
  435MOL0     C59932  11.165   8.598  10.488  0.0308  0.0150 -0.0662
  435MOL0     C59933  11.172   8.576  10.647  0.1892  0.3159 -0.1592
  435MOL0     C59934  11.308   8.615  10.710 -0.7284 -0.2669 -0.5818
  435MOL0     C59935  11.431   8.571  10.632 -0.2526 -1.1770  0.4027
  435MOL0     C59936  11.570   8.616  10.691  0.4810  0.3719  0.5646
  435MOL0    Cl59937  11.693   8.488  10.667  0.7333  0.1209 -0.2102
  435MOL0     C59938  10.761   8.559   9.892 -0.2446 -0.4642  0.2867
  435MOL0     C59939  10.643   8.543   9.815  0.4227 -0.3540  0.0444
  435MOL0     O59940  10.331   8.358   9.827 -0.4866  0.0267 -0.3362
  435MOL0     C59941  10.206   8.542   9.559  0.0904 -0.5726  1.0747
  435MOL0     C59942  10.088   8.558   9.489 -0.7663  1.1353  0.1569
  435MOL0     N59943   9.297   8.374   9.284  0.2194 -0.2934  0.3323
  435MOL0     N59944   9.304   8.396   9.153 -0.6042  0.5385 -0.8658
  435MOL0     C59945   9.358   7.536   8.479 -0.0925  0.2830  0.4954
  435MOL0     C59946   9.233   7.501   8.422 -0.4486 -0.2084  0.6305
  435MOL0     C59947   8.909   7.518   8.080  1.2343 -0.7240 -0.3311
  435MOL0     C59948   8.887   7.549   7.940 -0.1002 -0.1553 -0.2693
  435MOL0     C59949   8.755   7.556   7.888 -0.0915 -0.3554 -0.9672
  435MOL0     C59950   8.646   7.547   7.972 -0.1650 -0.3622 -0.0774
  435MOL0     O59951   8.516   7.553   7.937 -0.5923  0.5088  0.7295
  435MOL0     C59952   8.481   7.608   7.814 -0.2120 -0.0433 -0.2067
  435MOL0     C59953   8.339   7.591   7.779 -0.4839 -0.2136 -0.1706
  435MOL0     C59954   8.310   7.438   7.773  0.2248 -0.4150  0.0601
  435MOL0     C59955   8.165   7.437   7.807  0.0356  0.6886 -0.0408
  435MOL0     C59956   8.080   7.509   7.707 -0.6506 -0.8022 -0.6438
  435MOL0     C59957   8.032   7.580   7.626 -1.0528  0.2550 -0.3918
  435MOL0     C59958   8.670   7.505   8.105  0.3110  0.6577  0.2515
  435MOL0     C59959   8.798   7.491   8.160 -0.0709  0.1377  0.5123
  435MOL0     C59960   8.798   7.439   8.306 -0.7890 -0.1488  0.5107
  435MOL0     H59961   9.253   7.718   8.145 -0.1359 -0.5114  0.5778
  435MOL0     H59962   9.451   7.770   8.250  1.0410 -0.2383 -0.6959
  435MOL0     H59963   9.630   7.807   8.350  1.9636  0.0377 -0.5055
  435MOL0     H59964   9.729   7.769   8.488 -0.4094 -1.0207 -0.0125
  435MOL0     H59965   9.449   7.909   8.500  1.2905  2.0991 -0.2797
  435MOL0     H59966   9.525   7.826   8.637 -0.7815  0.2328  0.7068
  435MOL0     H59967   9.731   7.979   8.618  1.1813  3.7628 -0.4895
  435MOL0     H59968   9.647   8.045   8.471  0.3073 -0.6979  0.1332
  435MOL0     H59969   9.597   8.192   8.646 -1.9350  0.4165 -3.7548
  435MOL0     H59970   9.459   8.101   8.611 -0.0934  3.9199  1.1675
  435MOL0     H59971   9.604   8.025   8.861  1.0940  0.9763 -2.0341
  435MOL0     H59972   9.448   7.958   8.798 -1.0387  0.1077 -0.2906
  435MOL0     H59973   9.363   8.201   8.805  0.6354  1.5573 -0.7643
  435MOL0     H59974   9.383   8.134   8.968  0.6889 -1.3574 -0.3135
  435MOL0     H59975   9.573   8.312   8.811  1.0065 -0.0353  0.9929
  435MOL0     H59976   9.626   8.225   8.960  2.0868  4.2046  0.9290
  435MOL0     H59977   9.578   8.461   8.978  1.9434 -1.1522 -2.2574
  435MOL0     H59978   9.411   8.441   8.912 -1.5613 -1.8994  0.9354
  435MOL0     H59979   9.613   8.319   9.223  0.2788  3.5974  3.2442
  435MOL0     H59980   9.566   8.303   9.498  0.4065  1.8129  3.7922
  435MOL0     H59981   9.396   8.292   9.524 -1.1623  0.8357 -1.0351
  435MOL0     H59982   9.392   8.555   9.456 -1.1653 -0.6278  2.2772
  435MOL0     H59983   9.455   8.511   9.610  2.1371 -1.7611  0.5402
  435MOL0     H59984   9.621   8.521   9.350 -2.1800 -2.0711  0.2433
  435MOL0     H59985   9.592   8.670   9.423 -0.3189  0.3786 -2.6257
  435MOL0     H59986   9.718   8.621   9.622 -0.2547 -0.8006 -1.2150
  435MOL0     H59987   9.708   8.449   9.608 -0.8411  0.2642  1.0083
  435MOL0     H59988   9.870   8.512   9.751  0.0358 -2.3274  1.5924
  435MOL0     H59989  10.000   8.363   9.928 -0.4477 -1.0583  0.7440
  435MOL0     H59990   9.985   8.540   9.950  1.3441  0.7341  1.6192
  435MOL0     H59991  10.138   8.479   9.971 -0.8380 -0.7033  0.4002
  435MOL0     H59992  10.413   8.570  10.042 -0.6260  0.9373 -2.2282
  435MOL0     H59993  10.619   8.562  10.191  0.2685  2.5162 -0.4519
  435MOL0     H59994  10.827   8.532  10.283  1.0182 -0.4127  0.8858
  435MOL0     H59995  10.900   8.395  10.202 -0.4010 -0.5340 -5.5254
  435MOL0     H59996  11.110   8.467  10.254  2.1374  1.9487  0.5035
  435MOL0     H59997  11.090   8.642  10.232 -0.3986  0.2225 -0.3944
  435MOL0     H59998  10.995   8.480  10.464  0.3605 -0.2911 -0.3863
  435MOL0     H59999  10.957   8.655  10.458  1.7106 -0.2641  2.6431
  435MOL0     H60000  11.184   8.701  10.458 -5.7189  1.4572  0.1006
  435MOL0     H60001  11.240   8.531  10.444 -1.4497 -1.3782 -0.5961
  435MOL0     H60002  11.097   8.637  10.697  1.8131  0.1541  2.6804
  435MOL0     H60003  11.153   8.474  10.682  1.1540  1.0079  2.6037
  435MOL0     H60004  11.315   8.571  10.809 -1.6462 -2.0536 -1.2717
  435MOL0     H60005  11.325   8.723  10.720  0.1077 -0.4452  0.0541
  435MOL0     H60006  11.418   8.615  10.533 -1.9647  0.1403  1.1626
  435MOL0     H60007  11.441   8.463  10.614  1.8429 -0.5886 -2.7272
  435MOL0     H60008  11.548   8.629  10.798 -4.2814  3.9307 -0.4865
  435MOL0     H60009  11.598   8.708  10.638  1.2629  0.6211  1.3823
  435MOL0     H60010  10.858   8.568   9.844  0.9075 -2.2027  2.1635
  435MOL0     H60011  10.665   8.533   9.710  0.1150  0.0186 -0.0597
  435MOL0     H60012  10.299   8.539   9.502  1.1073 -0.9619  2.6850
  435MOL0     H60013  10.095   8.583   9.383  1.5328 -1.2342 -0.3597
  435MOL0     H60014   9.402   7.464   8.548  1.9292 -0.4189 -1.3914
  435MOL0     H60015   9.155   7.437   8.462 -0.9871  1.4314  2.3331
  435MOL0     H60016   8.965   7.558   7.866  1.6584 -0.3535  1.4615
  435MOL0     H60017   8.732   7.592   7.788 -0.5818  3.0882  0.2560
  435MOL0     H60018   8.503   7.716   7.811  0.5729 -0.1652  0.7021
  435MOL0     H60019   8.543   7.568   7.734 -0.3333  3.7880 -2.4903
  435MOL0     H60020   8.325   7.641   7.683  0.7222  2.1248  0.7937
  435MOL0     H60021   8.275   7.643   7.850  2.5258  1.0311  1.8426
  435MOL0     H60022   8.332   7.396   7.674 -1.3134  1.1711 -1.0256
  435MOL0     H60023   8.350   7.387   7.861  1.0291 -1.8417 -1.0802
  435MOL0     H60024   8.153   7.477   7.908 -2.9708 -0.6889  0.2475
  435MOL0     H60025   8.128   7.334   7.815 -0.3666  0.9802  3.1851
  435MOL0     H60026   7.976   7.640   7.557 -0.7477  0.0551 -0.8201
  435MOL0     H60027   8.587   7.499   8.174  0.2300  2.0643  0.3022
  435MOL0     H60028   8.861   7.350   8.315  0.6805  0.8273  0.1055
  435MOL0     H60029   8.836   7.514   8.375  0.8161 -0.5950  0.1433
  435MOL0     H60030   8.698   7.411   8.343  0.2153  0.1981  3.8542
  436MOL0     O60031   6.388  11.197   4.532  0.1063  0.5337 -0.7119
  436MOL0     C60032   6.313  11.126   4.605 -0.2382  0.3751  1.0298
  436MOL0     O60033   6.354  11.030   4.695 -0.0894 -0.0699 -0.1750
  436MOL0     C60034   6.494  11.017   4.722  0.9279 -1.2364 -1.0139
  436MOL0     C60035   6.572  11.128   4.770  0.5116  0.0561 -0.4256
  436MOL0     C60036   6.706  11.112   4.802 -0.0643  0.1841 -0.4314
  436MOL0     C60037   6.764  10.982   4.818  0.4340 -0.3406 -0.0455
  436MOL0     O60038   6.894  10.961   4.875  0.2264  0.0408 -0.5256
  436MOL0     C60039   6.990  10.930   4.773 -0.3478 -0.2619 -0.4551
  436MOL0     C60040   7.138  10.918   4.828  0.1614  0.2105 -0.7875
  436MOL0     C60041   7.235  10.837   4.738 -0.4323 -0.6413  0.1513
  436MOL0     C60042   7.319  10.925   4.644 -0.4211  0.8201 -0.1716
  436MOL0     C60043   7.436  10.849   4.582  0.6184  0.5497  0.2122
  436MOL0     C60044   7.497  10.935   4.465  0.0245  0.0059  0.0312
  436MOL0     C60045   7.397  11.006   4.366  0.0148 -0.0371 -0.2045
  436MOL0     C60046   7.342  11.151   4.412 -0.7442 -0.1151  0.3827
  436MOL0     N60047   7.425  11.262   4.375  0.7167 -0.5107  1.3222
  436MOL0     C60048   7.409  11.329   4.255 -0.6381 -0.2787  0.3460
  436MOL0     C60049   7.515  11.404   4.248 -0.5585 -0.6969 -0.5028
  436MOL0     C60050   7.570  11.474   4.124  0.2823  0.0553 -0.0060
  436MOL0     C60051   7.656  11.393   4.039 -0.3034 -0.4786  0.2229
  436MOL0     C60052   7.686  11.482   3.912 -0.7198 -0.5907  1.1205
  436MOL0     C60053   7.820  11.441   3.838  0.2072 -0.5215  0.1203
  436MOL0     O60054   7.929  11.438   3.934  0.4992  0.3173  0.3771
  436MOL0     C60055   7.994  11.548   3.982  0.5887 -0.8760 -0.1259
  436MOL0     C60056   7.977  11.681   3.934 -0.3041  0.6492  0.6053
  436MOL0     C60057   8.041  11.797   3.989 -0.7489  0.0312 -0.1584
  436MOL0     C60058   7.995  11.934   3.947 -0.4150 -0.3505  0.3359
  436MOL0     C60059   8.136  11.771   4.097 -0.3181  0.8616 -0.1310
  436MOL0     C60060   8.207  11.880   4.165 -0.3934  0.4186 -0.7536
  436MOL0     O60061   8.218  11.997   4.106  0.7911 -0.0446 -0.0333
  436MOL0     C60062   8.333  12.078   4.133  0.2457  0.1849  0.5317
  436MOL0     C60063   8.315  12.219   4.118 -0.3079  0.8556  0.4205
  436MOL0     C60064   8.415  12.308   4.161  0.4225 -0.9781 -0.0843
  436MOL0     C60065   8.529  12.267   4.215 -0.3016 -0.2905  0.8058
  436MOL0     O60066   8.628  12.357   4.251 -0.1162  0.9500  0.1594
  436MOL0     C60067   8.762  12.335   4.241  0.1086 -0.0136 -0.6411
  436MOL0     C60068   8.837  12.468   4.249 -1.2643 -0.0432  0.0764
  436MOL0     C60069   8.967  12.460   4.171  1.0774 -0.2481  0.1492
  436MOL0     C60070   9.049  12.586   4.197  0.2874  1.0716  0.4133
  436MOL0     C60071   9.200  12.555   4.239 -0.0006  0.3069 -0.2550
  436MOL0     C60072   9.273  12.692   4.275 -0.7222  0.1644  0.2051
  436MOL0     C60073   9.416  12.678   4.329  0.9768  0.0251 -0.3220
  436MOL0     C60074   9.513  12.608   4.238  0.5062 -0.7300  0.2758
  436MOL0    Cl60075   9.532  12.688   4.083  0.3346 -0.2422  0.2898
  436MOL0     C60076   8.562  12.125   4.214  0.6683 -0.7653  0.0893
  436MOL0     C60077   8.462  12.037   4.172  0.5894  0.5645 -0.7020
  436MOL0     O60078   8.261  11.849   4.271 -0.1962  0.0620 -0.1346
  436MOL0     C60079   8.158  11.632   4.135 -0.1807 -0.1038 -0.0289
  436MOL0     C60080   8.093  11.524   4.078 -0.2792 -0.2986 -0.8278
  436MOL0     N60081   7.585  11.403   4.364 -0.4698 -0.4267  0.2685
  436MOL0     N60082   7.533  11.321   4.443  0.1556  0.6933  0.7370
  436MOL0     C60083   6.691  10.881   4.767 -0.5730  0.4513 -0.0155
  436MOL0     C60084   6.561  10.899   4.716  0.1252 -0.6799 -0.2911
  436MOL0     C60085   6.165  11.162   4.603  0.3767 -0.5329 -0.0150
  436MOL0     C60086   6.128  11.248   4.499  0.2402 -0.0087  0.1111
  436MOL0     C60087   5.998  11.297   4.491  0.0175  0.4009  0.9208
  436MOL0     C60088   5.899  11.264   4.584  0.4561 -0.3393  0.1632
  436MOL0     O60089   5.781  11.332   4.558  0.1565 -0.3400  0.1842
  436MOL0     C60090   5.671  11.251   4.594  0.2372  0.6166  0.1008
  436MOL0     C60091   5.548  11.315   4.553 -0.2402  0.4053 -0.1130
  436MOL0     C60092   5.424  11.215   4.535 -0.9294  0.2562 -0.0044
  436MOL0     C60093   5.348  11.176   4.665 -0.3886  0.5135 -0.1307
  436MOL0     C60094   5.246  11.076   4.635 -0.6824 -0.0321  0.0199
  436MOL0     C60095   5.161  11.005   4.598  0.5534 -0.6073  0.1869
  436MOL0     C60096   5.930  11.164   4.686  0.4315 -0.3480  0.4019
  436MOL0     C60097   6.067  11.126   4.705 -1.1769 -1.3830  0.4340
  436MOL0     C60098   6.089  11.052   4.824 -1.1140 -0.0816 -1.1005
  436MOL0     H60099   6.527  11.226   4.781 -0.2013 -0.2307 -0.7368
  436MOL0     H60100   6.749  11.203   4.844  0.6201 -0.6646  0.7968
  436MOL0     H60101   6.976  10.999   4.690 -1.6966  0.3102  0.2202
  436MOL0     H60102   6.964  10.829   4.738 -1.7070 -1.3404  3.1411
  436MOL0     H60103   7.176  11.019   4.847 -2.1282  1.3310 -1.6587
  436MOL0     H60104   7.125  10.875   4.928  0.2032 -1.5870 -1.5260
  436MOL0     H60105   7.309  10.791   4.804  0.9748  0.2402 -0.7608
  436MOL0     H60106   7.183  10.762   4.678  0.2674 -2.6552  1.9571
  436MOL0     H60107   7.235  10.954   4.579 -1.2247 -0.8925  0.0529
  436MOL0     H60108   7.360  11.012   4.695 -3.0243  1.8822  0.3155
  436MOL0     H60109   7.416  10.746   4.554  1.5879 -0.6109  3.3291
  436MOL0     H60110   7.517  10.850   4.656  1.7718 -0.5204 -0.9679
  436MOL0     H60111   7.573  11.004   4.505 -1.6989  1.1826  1.4449
  436MOL0     H60112   7.555  10.863   4.407 -0.5817 -0.9166  0.5444
  436MOL0     H60113   7.306  10.948   4.352 -0.5965  0.7129  0.4984
  436MOL0     H60114   7.454  11.030   4.276  2.8242  0.8662  1.6666
  436MOL0     H60115   7.247  11.171   4.361 -0.4230  0.4739 -0.0056
  436MOL0     H60116   7.317  11.153   4.519 -1.2377  2.5016  0.2954
  436MOL0     H60117   7.330  11.311   4.182 -0.8021  3.3682 -0.5458
  436MOL0     H60118   7.628  11.559   4.162  0.3398 -0.3350  0.7984
  436MOL0     H60119   7.489  11.520   4.067  0.5956  0.9636  0.2604
  436MOL0     H60120   7.748  11.366   4.091 -0.9187  1.1490  2.3085
  436MOL0     H60121   7.597  11.309   4.000  1.2432  0.3645 -4.5279
  436MOL0     H60122   7.608  11.470   3.836  0.6862 -1.3109 -0.2687
  436MOL0     H60123   7.692  11.589   3.936  0.3365 -0.4067  0.1486
  436MOL0     H60124   7.803  11.352   3.776 -2.5995  0.7505 -1.1450
  436MOL0     H60125   7.837  11.521   3.766  0.6315  2.3156  3.1395
  436MOL0     H60126   7.907  11.710   3.857  0.4439 -1.6935 -1.0391
  436MOL0     H60127   7.940  11.970   4.034  0.3297 -1.3753  1.2665
  436MOL0     H60128   7.931  11.923   3.859 -1.9257  2.9749  0.8800
  436MOL0     H60129   8.066  12.016   3.936 -5.0083  3.8872 -1.3156
  436MOL0     H60130   8.218  12.248   4.079  0.1596  0.4084 -1.1554
  436MOL0     H60131   8.381  12.411   4.159  0.2243 -1.0523 -1.5561
  436MOL0     H60132   8.800  12.264   4.315  2.5977  1.8611  0.0002
  436MOL0     H60133   8.781  12.285   4.146 -0.0765 -0.5873 -0.3808
  436MOL0     H60134   8.777  12.546   4.202 -1.1520  0.2207  0.3719
  436MOL0     H60135   8.860  12.509   4.348  0.3000  1.5335 -0.8934
  436MOL0     H60136   8.952  12.460   4.062  0.0532  0.4220  0.2747
  436MOL0     H60137   9.010  12.364   4.201 -2.1471 -1.1604  2.3885
  436MOL0     H60138   9.004  12.645   4.278  0.6505  1.2739  0.4694
  436MOL0     H60139   9.042  12.651   4.110 -1.3828  1.0665  0.5229
  436MOL0     H60140   9.200  12.492   4.329  2.8936 -0.5805 -0.7601
  436MOL0     H60141   9.257  12.504   4.160  1.9118  0.5440  0.9060
  436MOL0     H60142   9.215  12.750   4.347 -0.8489  0.1511  0.1158
  436MOL0     H60143   9.280  12.765   4.194 -5.2209 -0.7757 -1.3591
  436MOL0     H60144   9.425  12.629   4.427  2.6613 -1.4695 -1.1709
  436MOL0     H60145   9.455  12.778   4.348 -0.2087  0.0228  2.6574
  436MOL0     H60146   9.479  12.504   4.228  3.3195 -1.7373  0.2625
  436MOL0     H60147   9.608  12.621   4.290 -0.7488  2.8932  2.0038
  436MOL0     H60148   8.663  12.089   4.232  2.6275  1.8572 -4.1115
  436MOL0     H60149   8.473  11.929   4.169  0.9992  0.5978 -0.3601
  436MOL0     H60150   8.234  11.608   4.208 -0.1464  2.3963  0.8432
  436MOL0     H60151   8.104  11.425   4.119 -1.7839  0.5275  1.8038
  436MOL0     H60152   6.736  10.782   4.770  2.2202  1.4830 -2.7451
  436MOL0     H60153   6.496  10.816   4.692 -2.8224  1.5269 -0.5670
  436MOL0     H60154   6.193  11.293   4.423 -1.5003  0.4200 -1.1813
  436MOL0     H60155   5.979  11.364   4.407  0.4780 -2.4703 -1.6561
  436MOL0     H60156   5.681  11.155   4.543 -0.4791 -1.9676  4.3021
  436MOL0     H60157   5.673  11.230   4.702 -4.3408 -0.9794  0.1102
  436MOL0     H60158   5.578  11.354   4.455  0.9545  1.3448  0.5870
  436MOL0     H60159   5.519  11.398   4.619 -2.4085  0.0924 -0.5972
  436MOL0     H60160   5.350  11.270   4.477 -0.8970 -0.2226 -0.5093
  436MOL0     H60161   5.451  11.128   4.476  2.0131  0.8265  0.3199
  436MOL0     H60162   5.313  11.260   4.725 -1.5803  1.2535 -1.8031
  436MOL0     H60163   5.420  11.128   4.732 -0.4449  1.5961  0.7194
  436MOL0     H60164   5.090  10.933   4.563 -0.3026  0.5671 -0.5796
  436MOL0     H60165   5.858  11.137   4.762  2.2448 -0.7713  2.0386
  436MOL0     H60166   6.178  11.085   4.877 -1.0879 -1.5594 -0.1819
  436MOL0     H60167   6.006  11.059   4.895  0.1124 -3.1855  0.8046
  436MOL0     H60168   6.106  10.946   4.802 -1.2365 -0.6889  1.4791
  437MOL0     O60169   9.477  10.913  11.122 -0.5786  0.1578  0.3793
  437MOL0     C60170   9.441  10.941  11.006  0.0580  0.0812 -0.0235
  437MOL0     O60171   9.481  11.055  10.942 -0.3379  0.7416  0.4271
  437MOL0     C60172   9.586  11.127  10.993 -0.0187  0.1270  0.1912
  437MOL0     C60173   9.549  11.265  11.005 -0.5901 -0.2237 -0.5495
  437MOL0     C60174   9.652  11.352  11.051 -0.2451  0.3233 -0.2733
  437MOL0     C60175   9.783  11.308  11.094 -0.6442  0.2798 -0.7778
  437MOL0     O60176   9.880  11.400  11.133 -0.3963  0.9691 -0.2160
  437MOL0     C60177  10.003  11.353  11.200  0.5155 -0.3424  0.3430
  437MOL0     C60178  10.111  11.374  11.101  0.7373  0.9833  0.2930
  437MOL0     C60179  10.246  11.365  11.163 -0.7693  0.2747 -0.4920
  437MOL0     C60180  10.347  11.369  11.049 -0.5475  0.5647 -0.3439
  437MOL0     C60181  10.496  11.365  11.096  0.7678  0.2359 -0.1255
  437MOL0     C60182  10.546  11.226  11.147  0.5808 -0.3385 -0.1769
  437MOL0     C60183  10.690  11.237  11.206  0.0862 -0.3960  0.6113
  437MOL0     C60184  10.782  11.305  11.113 -0.0191  0.0798  0.3648
  437MOL0     N60185  10.921  11.300  11.144  0.7548 -0.2037  0.1666
  437MOL0     C60186  10.988  11.398  11.218 -0.6830 -0.4749  0.0912
  437MOL0     C60187  11.120  11.360  11.194 -0.2062 -0.4487  0.5403
  437MOL0     C60188  11.258  11.422  11.230 -0.4245  0.9525  0.6445
  437MOL0     C60189  11.254  11.452  11.384  0.0115 -0.1368  0.2375
  437MOL0     C60190  11.245  11.319  11.463  0.4680  0.1186  0.3960
  437MOL0     C60191  11.195  11.365  11.606 -0.6416  0.1308  0.7382
  437MOL0     O60192  11.200  11.250  11.687  0.2578  0.2814 -0.2274
  437MOL0     C60193  11.169  11.279  11.814  0.2275 -1.0569 -0.2193
  437MOL0     C60194  11.106  11.393  11.859 -0.1885 -0.0732 -0.2973
  437MOL0     C60195  11.079  11.410  11.999  0.1611  0.2871  0.0080
  437MOL0     C60196  10.989  11.525  12.049 -0.4895  0.2712  0.0816
  437MOL0     C60197  11.117  11.306  12.084 -1.0914 -0.0700 -0.3809
  437MOL0     C60198  11.102  11.298  12.233  0.0255 -0.9742  0.0125
  437MOL0     O60199  11.090  11.167  12.293  0.0758 -0.3123 -0.2749
  437MOL0     C60200  11.135  11.156  12.430 -0.4886  0.9882  0.3882
  437MOL0     C60201  11.061  11.215  12.530  0.7015  0.3516 -0.1783
  437MOL0     C60202  11.092  11.189  12.659  0.0412  0.1349 -0.7939
  437MOL0     C60203  11.202  11.117  12.692 -0.2238  0.9831 -0.0815
  437MOL0     O60204  11.241  11.092  12.826 -0.7160  0.6021  0.2902
  437MOL0     C60205  11.164  11.145  12.930 -0.0990 -0.1061  0.2503
  437MOL0     C60206  11.182  11.056  13.056  0.8980 -0.1727 -0.3243
  437MOL0     C60207  11.202  10.920  13.043  0.3272  0.5892  0.7046
  437MOL0     C60208  11.196  10.849  13.180  0.7318  0.5398  0.3259
  437MOL0     C60209  11.256  10.704  13.179 -0.1975 -0.1309 -0.7457
  437MOL0     C60210  11.155  10.605  13.117 -0.6502 -0.2751  0.7955
  437MOL0     C60211  11.222  10.465  13.092 -0.2891  0.7950  0.1931
  437MOL0     C60212  11.137  10.364  13.014 -0.4570 -0.2196  0.4902
  437MOL0    Cl60213  11.005  10.300  13.120 -0.1372  0.0753  0.0901
  437MOL0     C60214  11.274  11.052  12.589  0.3329 -0.0737 -0.1832
  437MOL0     C60215  11.245  11.074  12.458 -0.5783 -0.0883  0.3893
  437MOL0     O60216  11.102  11.411  12.294 -0.2013  0.5866  0.2768
  437MOL0     C60217  11.177  11.192  12.027  0.0624 -0.2932  0.0629
  437MOL0     C60218  11.198  11.173  11.900 -0.7754 -0.2430  0.8738
  437MOL0     N60219  11.120  11.251  11.112  0.2179  0.8347 -0.1451
  437MOL0     N60220  11.002  11.217  11.074  0.6654 -0.4084  0.6017
  437MOL0     C60221   9.809  11.174  11.075 -0.0204 -1.2755  0.3193
  437MOL0     C60222   9.717  11.084  11.028  0.7596 -0.4031 -1.0282
  437MOL0     C60223   9.357  10.838  10.930 -0.6509  0.0657 -0.7354
  437MOL0     C60224   9.362  10.840  10.785 -0.0529  0.3107 -1.0050
  437MOL0     C60225   9.282  10.746  10.722 -0.6580 -0.1457 -0.7150
  437MOL0     C60226   9.185  10.667  10.784 -0.6164  0.3164 -0.1590
  437MOL0     O60227   9.121  10.576  10.706  0.2287 -0.3372  0.1166
  437MOL0     C60228   8.981  10.552  10.741 -0.3459 -0.5826 -0.0444
  437MOL0     C60229   8.898  10.499  10.624 -0.0088  0.0331  0.5186
  437MOL0     C60230   8.909  10.344  10.610 -0.7413 -0.2286 -0.2423
  437MOL0     C60231   8.814  10.251  10.684 -0.0907 -0.0401  1.3089
  437MOL0     C60232   8.804  10.285  10.827 -0.4565  0.1400  0.1157
  437MOL0     C60233   8.813  10.308  10.942 -0.0918  0.5409 -0.2053
  437MOL0     C60234   9.173  10.669  10.924  0.0960  0.7619 -0.3806
  437MOL0     C60235   9.259  10.758  11.000 -0.0912 -0.1990  0.1006
  437MOL0     C60236   9.231  10.771  11.156  0.4540 -0.1246 -0.0798
  437MOL0     H60237   9.455  11.299  10.964 -1.2067  1.6138  2.1683
  437MOL0     H60238   9.637  11.458  11.063  1.8744  0.9878 -2.6469
  437MOL0     H60239  10.006  11.252  11.241  0.7067  0.6314  2.9931
  437MOL0     H60240  10.018  11.422  11.284 -0.9838  0.2911  0.1184
  437MOL0     H60241  10.111  11.294  11.026  0.7278  1.5564 -0.3319
  437MOL0     H60242  10.090  11.462  11.040 -0.9229 -0.5244 -1.4676
  437MOL0     H60243  10.250  11.456  11.224 -1.5617  0.2177 -0.3452
  437MOL0     H60244  10.273  11.279  11.225 -1.2130 -1.2498 -2.3060
  437MOL0     H60245  10.307  11.293  10.981 -0.0608 -0.0380  0.0291
  437MOL0     H60246  10.336  11.465  10.998 -0.9420 -0.4097 -2.1599
  437MOL0     H60247  10.494  11.431  11.183 -0.6612  1.1824 -0.8279
  437MOL0     H60248  10.556  11.406  11.014 -1.1880 -0.6914 -2.1354
  437MOL0     H60249  10.478  11.193  11.226 -0.5000  0.8354 -0.5857
  437MOL0     H60250  10.543  11.158  11.061  2.9151 -1.3804  0.5025
  437MOL0     H60251  10.734  11.144  11.243 -0.9819  0.1577  3.5561
  437MOL0     H60252  10.679  11.307  11.290  4.0015  0.0375  0.9396
  437MOL0     H60253  10.772  11.240  11.025  0.3293 -1.0881  1.1714
  437MOL0     H60254  10.753  11.410  11.097  3.1319  1.5414  3.1372
  437MOL0     H60255  10.940  11.479  11.272 -2.5614 -2.5636  1.7688
  437MOL0     H60256  11.274  11.511  11.168  1.7760 -0.2614 -0.6409
  437MOL0     H60257  11.351  11.366  11.221 -0.1259  1.6687 -1.3685
  437MOL0     H60258  11.347  11.507  11.400  0.4685 -0.5592 -0.8274
  437MOL0     H60259  11.170  11.516  11.412 -1.3813 -1.1809 -1.3538
  437MOL0     H60260  11.173  11.252  11.417 -0.3588  1.8539 -0.9628
  437MOL0     H60261  11.345  11.279  11.480  1.3404  0.9970 -2.2484
  437MOL0     H60262  11.258  11.445  11.647 -1.4406  1.6403 -0.8237
  437MOL0     H60263  11.099  11.416  11.602 -1.4141 -1.3595 -1.4777
  437MOL0     H60264  11.068  11.469  11.790  0.9883  2.0650  1.2822
  437MOL0     H60265  10.956  11.584  11.963  4.2698  1.2424 -1.3439
  437MOL0     H60266  11.039  11.598  12.113 -0.0808  0.0480  0.0165
  437MOL0     H60267  10.897  11.495  12.100  0.5272 -3.1755  0.1599
  437MOL0     H60268  10.977  11.279  12.505  1.9192  2.0737 -0.0521
  437MOL0     H60269  11.037  11.244  12.734 -1.2643 -3.1723  0.8372
  437MOL0     H60270  11.189  11.248  12.957 -3.9446  0.1206  3.9504
  437MOL0     H60271  11.056  11.158  12.923 -0.0949  2.0187  2.6897
  437MOL0     H60272  11.275  11.087  13.104  0.2296  0.0418  0.8688
  437MOL0     H60273  11.108  11.093  13.126  2.7537  1.8758  0.6824
  437MOL0     H60274  11.299  10.902  12.993  0.1859  3.6157 -0.8815
  437MOL0     H60275  11.125  10.886  12.973 -0.2495  1.9061  0.6885
  437MOL0     H60276  11.092  10.831  13.210  0.0314  1.0324 -1.7080
  437MOL0     H60277  11.258  10.914  13.243  0.5996  0.1237  0.8917
  437MOL0     H60278  11.348  10.719  13.122  1.5717 -0.9391  1.7245
  437MOL0     H60279  11.288  10.665  13.276 -0.1941  2.0751  0.1775
  437MOL0     H60280  11.120  10.653  13.025 -1.5910 -0.4908  1.0344
  437MOL0     H60281  11.075  10.602  13.192  0.6435  3.4697  2.6134
  437MOL0     H60282  11.243  10.419  13.189  0.5738  0.7604  0.0026
  437MOL0     H60283  11.322  10.475  13.048 -0.7866 -0.0666 -1.2009
  437MOL0     H60284  11.194  10.277  12.981 -2.8796 -2.5207  1.9002
  437MOL0     H60285  11.085  10.419  12.935  1.7624  0.8944 -0.2698
  437MOL0     H60286  11.362  10.990  12.607  0.3210 -0.3225 -0.9355
  437MOL0     H60287  11.306  11.028  12.381 -1.9347  2.6733 -2.5615
  437MOL0     H60288  11.211  11.110  12.090 -0.4228 -0.9651 -0.5380
  437MOL0     H60289  11.240  11.081  11.861 -1.0655 -0.5892  1.3708
  437MOL0     H60290   9.912  11.147  11.096  0.3530  0.0474  0.3361
  437MOL0     H60291   9.747  10.981  11.012  1.9127 -0.1564 -0.5770
  437MOL0     H60292   9.432  10.902  10.729  0.9556  0.0407 -0.0793
  437MOL0     H60293   9.288  10.736  10.614  0.4505  0.9974 -0.7765
  437MOL0     H60294   8.974  10.485  10.827 -3.9408 -1.9623 -1.2015
  437MOL0     H60295   8.924  10.641  10.771  0.9385  0.7545 -1.4084
  437MOL0     H60296   8.931  10.529  10.524 -0.8261  1.0072  0.5252
  437MOL0     H60297   8.793  10.531  10.628 -0.8279 -0.5888 -5.7288
  437MOL0     H60298   8.899  10.319  10.504 -1.5870  0.9500 -0.4642
  437MOL0     H60299   9.012  10.309  10.619 -0.6745 -1.9207 -5.0966
  437MOL0     H60300   8.851  10.148  10.682  2.1649  0.6411 -1.9127
  437MOL0     H60301   8.712  10.254  10.646 -0.9360 -0.5736  3.3937
  437MOL0     H60302   8.801  10.315  11.049 -5.3024  0.6778 -0.5284
  437MOL0     H60303   9.112  10.597  10.978 -2.2490  2.4353 -0.6872
  437MOL0     H60304   9.137  10.716  11.171 -0.1230  0.1714 -2.1698
  437MOL0     H60305   9.316  10.740  11.217  0.4740 -2.0849 -1.0206
  437MOL0     H60306   9.220  10.875  11.187  0.2173 -0.4741  1.0505
  438MOL0     O60307   7.576   1.697  10.142 -0.1241 -0.5172  0.2704
  438MOL0     C60308   7.616   1.597  10.206 -0.3088 -0.9222  0.5335
  438MOL0     O60309   7.548   1.540  10.313 -0.5900 -0.5257 -0.3533
  438MOL0     C60310   7.409   1.565  10.332 -0.4731  0.6192  0.6405
  438MOL0     C60311   7.319   1.624  10.245  0.1029  0.1340  0.4095
  438MOL0     C60312   7.177   1.611  10.253  0.4857  0.7904 -0.2223
  438MOL0     C60313   7.122   1.534  10.364 -0.3537 -0.1222 -0.3133
  438MOL0     O60314   6.991   1.530  10.391 -0.4953 -0.1209 -0.0049
  438MOL0     C60315   6.924   1.659  10.383  0.2229  0.0134  0.1234
  438MOL0     C60316   6.831   1.676  10.506  0.6739 -0.2095 -0.6728
  438MOL0     C60317   6.889   1.666  10.646  0.6532  0.4355 -0.2603
  438MOL0     C60318   6.932   1.797  10.718  0.1362  0.2503 -0.0871
  438MOL0     C60319   7.042   1.886  10.636  1.2088  0.0194  0.0180
  438MOL0     C60320   7.174   1.805  10.612  0.1157 -0.3205 -0.1767
  438MOL0     C60321   7.277   1.898  10.554  0.6036  0.5649 -0.7134
  438MOL0     C60322   7.285   2.046  10.602  0.2744  0.6720 -0.5333
  438MOL0     N60323   7.411   2.099  10.566  0.8348 -0.0501 -0.2406
  438MOL0     C60324   7.445   2.183  10.463  0.2193  0.8294 -0.5937
  438MOL0     C60325   7.575   2.208  10.482 -0.0300  0.3293 -0.3161
  438MOL0     C60326   7.644   2.281  10.376  0.3262 -0.9251  0.1715
  438MOL0     C60327   7.790   2.308  10.405  0.7756  0.9917  0.5579
  438MOL0     C60328   7.833   2.443  10.348  0.4443  0.5146  0.9619
  438MOL0     C60329   7.982   2.453  10.346  0.7428 -0.3557 -0.3061
  438MOL0     O60330   8.019   2.593  10.349 -0.6559 -0.3748  0.3715
  438MOL0     C60331   7.977   2.676  10.246  0.1503 -0.1682  0.1180
  438MOL0     C60332   7.982   2.633  10.107  0.2532 -0.0743 -0.3100
  438MOL0     C60333   7.962   2.720  10.005  0.7532 -0.2134  0.0597
  438MOL0     C60334   7.980   2.670   9.865 -0.5920  0.6858  0.2705
  438MOL0     C60335   7.911   2.851  10.032  0.5797 -0.5123  0.2204
  438MOL0     C60336   7.860   2.949   9.931  0.7258  0.2138 -0.8078
  438MOL0     O60337   7.847   3.075   9.973  0.9288 -0.1854  0.1880
  438MOL0     C60338   7.767   3.163   9.904 -0.2896  0.3211  0.0728
  438MOL0     C60339   7.829   3.257   9.816  0.0863  0.8529  1.1429
  438MOL0     C60340   7.766   3.372   9.776 -0.4868  0.1069  1.0219
  438MOL0     C60341   7.633   3.388   9.816  0.2161 -0.0896  0.0806
  438MOL0     O60342   7.560   3.499   9.782  0.5062 -0.4377  0.1249
  438MOL0     C60343   7.553   3.510   9.640 -0.2749  0.0472 -1.1133
  438MOL0     C60344   7.454   3.621   9.614 -0.1129  0.2649 -0.0885
  438MOL0     C60345   7.410   3.621   9.469  0.3251  0.1874 -0.1839
  438MOL0     C60346   7.268   3.684   9.451 -0.3205 -0.8979  0.2471
  438MOL0     C60347   7.194   3.640   9.321  0.2232 -0.0580  0.6254
  438MOL0     C60348   7.164   3.486   9.319  0.2296  0.6342 -0.6678
  438MOL0     C60349   7.087   3.436   9.195  0.6505  0.4687 -0.1642
  438MOL0     C60350   7.026   3.295   9.217 -0.1227 -1.3806 -0.9670
  438MOL0    Cl60351   6.919   3.310   9.353  0.0874 -0.1391 -0.0212
  438MOL0     C60352   7.567   3.290   9.884 -0.4314 -0.1035  0.3935
  438MOL0     C60353   7.635   3.181   9.938  0.0736 -0.1382  0.5987
  438MOL0     O60354   7.825   2.912   9.819 -0.4757  0.5110 -0.0493
  438MOL0     C60355   7.894   2.895  10.166  0.7960 -0.0320  0.1861
  438MOL0     C60356   7.938   2.815  10.268  0.8566 -0.1772 -0.2701
  438MOL0     N60357   7.616   2.145  10.604 -0.0556 -1.1867 -0.3304
  438MOL0     N60358   7.519   2.075  10.645  0.1468 -0.2036  0.0708
  438MOL0     C60359   7.219   1.470  10.453 -0.3617 -0.5669 -0.4175
  438MOL0     C60360   7.353   1.490  10.434  0.1886  0.5357  0.0174
  438MOL0     C60361   7.734   1.532  10.153 -0.1882  0.4922 -0.2680
  438MOL0     C60362   7.817   1.600  10.056 -0.0111  0.7642  0.3463
  438MOL0     C60363   7.928   1.543  10.001  0.1804 -0.0305  0.1492
  438MOL0     C60364   7.974   1.415  10.052  0.0323 -0.1354 -0.3068
  438MOL0     O60365   8.089   1.357   9.999  0.6571  1.0302  0.6232
  438MOL0     C60366   8.202   1.436   9.961 -0.5089 -0.5918  0.3849
  438MOL0     C60367   8.316   1.335   9.945 -0.8102  0.1263 -0.4140
  438MOL0     C60368   8.458   1.395   9.952  0.1837 -0.3822 -0.0427
  438MOL0     C60369   8.481   1.503   9.854 -0.2774  1.0499  0.5591
  438MOL0     C60370   8.455   1.476   9.712 -0.0638  0.5577  0.0473
  438MOL0     C60371   8.453   1.462   9.592 -0.8221 -0.6581 -0.4060
  438MOL0     C60372   7.901   1.354  10.143  0.6033  0.1359 -0.9004
  438MOL0     C60373   7.777   1.402  10.199 -0.0989 -0.5715 -0.2802
  438MOL0     C60374   7.720   1.331  10.311  0.1521  0.3307  0.8537
  438MOL0     H60375   7.343   1.693  10.164  1.7651  1.1806  1.7285
  438MOL0     H60376   7.110   1.674  10.196  0.2863  2.2807  1.5627
  438MOL0     H60377   6.857   1.656  10.297 -2.5976  1.9114  2.0864
  438MOL0     H60378   6.983   1.751  10.374 -0.8033  0.5058 -2.2324
  438MOL0     H60379   6.784   1.775  10.497  0.8904 -0.0761 -0.3605
  438MOL0     H60380   6.744   1.611  10.494  0.7981 -0.3259 -0.9270
  438MOL0     H60381   6.812   1.631  10.715  0.7534 -1.0359 -0.8656
  438MOL0     H60382   6.961   1.584  10.646 -0.1477 -0.3138  1.3669
  438MOL0     H60383   6.848   1.868  10.718  1.1032  1.4431 -0.8416
  438MOL0     H60384   6.964   1.789  10.822 -1.1742  2.5254  0.5603
  438MOL0     H60385   7.062   1.971  10.702 -0.1497 -2.1269  3.4745
  438MOL0     H60386   7.004   1.926  10.541  1.2242 -0.1713 -0.0700
  438MOL0     H60387   7.200   1.774  10.714 -2.5899  0.4683  0.8404
  438MOL0     H60388   7.153   1.712  10.559  2.1451  0.3295 -2.2697
  438MOL0     H60389   7.267   1.903  10.445 -1.0253 -0.5484 -0.6456
  438MOL0     H60390   7.371   1.845  10.569 -1.5565 -3.4554 -0.0641
  438MOL0     H60391   7.202   2.102  10.558  0.3089 -1.0113 -3.0047
  438MOL0     H60392   7.280   2.045  10.711  2.0156 -5.1013 -0.1612
  438MOL0     H60393   7.386   2.230  10.384  1.1098  0.7142 -1.3454
  438MOL0     H60394   7.591   2.377  10.370  0.0085 -1.1155 -0.0997
  438MOL0     H60395   7.620   2.231  10.281 -0.6685 -0.3000  0.0741
  438MOL0     H60396   7.810   2.325  10.511 -2.2225  1.0734  1.1973
  438MOL0     H60397   7.858   2.231  10.367 -0.1972  1.6694 -2.9141
  438MOL0     H60398   7.803   2.450  10.243 -0.4116  3.1651  1.3171
  438MOL0     H60399   7.797   2.525  10.410  0.6059  1.9770 -0.7927
  438MOL0     H60400   8.030   2.403  10.430  3.1583  4.9939  1.9488
  438MOL0     H60401   8.005   2.403  10.252  1.4750  0.4243 -0.5557
  438MOL0     H60402   8.016   2.533  10.084  0.7107  0.2439 -1.0588
  438MOL0     H60403   7.882   2.651   9.821  0.0992 -1.0302 -0.6061
  438MOL0     H60404   8.021   2.569   9.866 -0.2487  0.7844 -1.1975
  438MOL0     H60405   8.048   2.732   9.805  2.5242 -1.6661  1.1010
  438MOL0     H60406   7.934   3.239   9.799  0.2899  1.9644  1.1410
  438MOL0     H60407   7.817   3.442   9.710  1.0969  0.1691  2.2618
  438MOL0     H60408   7.651   3.541   9.605  0.3407 -0.7452 -0.1432
  438MOL0     H60409   7.512   3.413   9.608  1.7664 -1.2664  0.0373
  438MOL0     H60410   7.371   3.614   9.685 -0.1117  3.4825  0.4021
  438MOL0     H60411   7.508   3.715   9.630  3.3911 -1.8666  1.9193
  438MOL0     H60412   7.414   3.517   9.436 -0.0124 -0.7538  2.5022
  438MOL0     H60413   7.484   3.681   9.416  0.9690  0.3444  0.8694
  438MOL0     H60414   7.277   3.793   9.445  4.2011 -0.7954  3.4788
  438MOL0     H60415   7.197   3.678   9.533  0.1812  2.4944  1.0759
  438MOL0     H60416   7.105   3.703   9.310 -1.2652 -1.8211  1.7811
  438MOL0     H60417   7.257   3.667   9.237  1.1640 -0.4799  1.1786
  438MOL0     H60418   7.120   3.463   9.416  1.5475  1.8174  0.2480
  438MOL0     H60419   7.260   3.435   9.316  0.9681  1.9494 -0.0518
  438MOL0     H60420   7.151   3.434   9.106  2.6181  1.5286  1.1457
  438MOL0     H60421   7.006   3.505   9.172 -0.6601 -0.9703  0.0202
  438MOL0     H60422   7.103   3.221   9.236  0.4101 -0.9444 -1.3952
  438MOL0     H60423   6.972   3.258   9.129 -2.2540 -1.2776  0.2188
  438MOL0     H60424   7.473   3.306   9.935  0.4517 -2.0268  2.8651
  438MOL0     H60425   7.599   3.119  10.019  0.9762 -0.4410  0.7820
  438MOL0     H60426   7.856   2.995  10.184  2.8033  1.0109 -1.0020
  438MOL0     H60427   7.931   2.843  10.373  0.3542  1.2643 -0.6650
  438MOL0     H60428   7.192   1.411  10.539 -0.9410 -1.5913 -1.2893
  438MOL0     H60429   7.422   1.447  10.506  0.1566 -1.8642 -1.2850
  438MOL0     H60430   7.793   1.699  10.021  1.1476  0.6204 -0.9294
  438MOL0     H60431   7.982   1.581   9.915 -0.0861 -0.6826 -0.3180
  438MOL0     H60432   8.200   1.481   9.862  2.7615  1.0446  0.9063
  438MOL0     H60433   8.213   1.515  10.036 -0.2857 -0.4537  0.2081
  438MOL0     H60434   8.303   1.291   9.845  1.4602 -0.6230 -0.4212
  438MOL0     H60435   8.306   1.264  10.027  0.1697  1.5264  0.9666
  438MOL0     H60436   8.453   1.443  10.051  0.4748  1.1576 -0.7449
  438MOL0     H60437   8.542   1.325   9.952  2.0961  1.7408 -1.8242
  438MOL0     H60438   8.590   1.513   9.854 -0.2493  0.7361  1.3039
  438MOL0     H60439   8.443   1.602   9.880 -0.5300  1.6993 -1.9900
  438MOL0     H60440   8.410   1.439   9.496 -0.7672  1.7747 -1.1004
  438MOL0     H60441   7.944   1.259  10.172 -1.5070 -0.6917 -0.2858
  438MOL0     H60442   7.782   1.242  10.326  1.4450  0.8584 -0.9759
  438MOL0     H60443   7.723   1.391  10.402 -0.6633  0.6560  0.6758
  438MOL0     H60444   7.617   1.307  10.284  0.6375  1.9775 -3.1546
  439MOL0     O60445   9.793   8.603   0.923 -0.4055  0.3575 -0.3985
  439MOL0     C60446   9.828   8.537   0.826 -0.3137 -1.2985  0.3333
  439MOL0     O60447   9.844   8.592   0.699 -0.1994 -0.5764 -0.5405
  439MOL0     C60448   9.779   8.704   0.667 -0.3354  0.7661  0.1304
  439MOL0     C60449   9.797   8.825   0.728  0.1347 -0.2079 -0.7811
  439MOL0     C60450   9.720   8.940   0.701 -0.5802  0.3111 -0.0685
  439MOL0     C60451   9.630   8.932   0.596  0.5944 -0.1359 -0.0778
  439MOL0     O60452   9.568   9.042   0.568  0.1531 -0.5484  0.0154
  439MOL0     C60453   9.422   9.032   0.560 -0.9872 -0.5045 -0.0030
  439MOL0     C60454   9.371   9.035   0.703  0.4085  0.1667  0.3404
  439MOL0     C60455   9.440   9.129   0.804  0.7504 -0.9158  0.3446
  439MOL0     C60456   9.344   9.154   0.929  0.0220 -0.1170  0.8138
  439MOL0     C60457   9.255   9.266   0.895  0.1309 -0.9262 -0.7919
  439MOL0     C60458   9.195   9.329   1.031 -1.1230  0.1864  0.3772
  439MOL0     C60459   9.285   9.433   1.089  0.9971  0.5626  0.7423
  439MOL0     C60460   9.225   9.516   1.199  0.1436  0.1103 -0.3098
  439MOL0     N60461   9.223   9.452   1.333  0.3351  0.5418 -0.4907
  439MOL0     C60462   9.150   9.494   1.445 -0.0675  0.2978 -0.0406
  439MOL0     C60463   9.145   9.395   1.535  0.0654 -0.0010  0.0014
  439MOL0     C60464   9.083   9.412   1.668 -0.7683 -0.2214  0.3297
  439MOL0     C60465   9.177   9.487   1.771 -0.5499  0.2669 -0.7999
  439MOL0     C60466   9.307   9.409   1.801 -1.2042 -0.2885  0.6784
  439MOL0     C60467   9.279   9.298   1.905 -0.1502  0.7569  0.5981
  439MOL0     O60468   9.247   9.329   2.046 -0.3826  0.5668  0.1300
  439MOL0     C60469   9.316   9.257   2.129  0.0668  0.1396 -0.1628
  439MOL0     C60470   9.251   9.161   2.210 -0.3653 -0.5850  0.3344
  439MOL0     C60471   9.323   9.083   2.309 -0.3427 -0.2417 -0.6144
  439MOL0     C60472   9.244   8.978   2.386 -0.2745  0.0018  0.3340
  439MOL0     C60473   9.470   9.094   2.329  0.2361  0.4588  0.5936
  439MOL0     C60474   9.557   9.011   2.415 -0.6590  0.2278  0.2203
  439MOL0     O60475   9.498   8.925   2.494 -0.4636 -0.1880  0.5505
  439MOL0     C60476   9.573   8.810   2.533  0.1232 -0.2609  0.0846
  439MOL0     C60477   9.558   8.690   2.476  0.6083  0.5882  0.2652
  439MOL0     C60478   9.615   8.569   2.525 -0.0688 -0.4258 -0.1250
  439MOL0     C60479   9.711   8.575   2.621 -0.4894  1.2947  1.2154
  439MOL0     O60480   9.790   8.464   2.643  0.5461  0.2070  0.1554
  439MOL0     C60481   9.792   8.348   2.556 -0.2436  0.8171 -0.3201
  439MOL0     C60482   9.888   8.257   2.634 -0.2276 -0.7964  1.5172
  439MOL0     C60483   9.810   8.188   2.748  0.6275  0.8527 -0.2431
  439MOL0     C60484   9.812   8.038   2.734  0.4272  0.8427 -0.7477
  439MOL0     C60485   9.958   7.983   2.720 -0.2927 -0.9622 -0.2567
  439MOL0     C60486   9.979   7.851   2.646 -0.1492 -0.1574 -0.3075
  439MOL0     C60487   9.924   7.742   2.730 -0.2915 -0.4614  0.1330
  439MOL0     C60488   9.890   7.612   2.662 -0.0159 -0.2900 -0.4695
  439MOL0    Cl60489  10.040   7.519   2.638  0.2203 -0.3156 -0.3655
  439MOL0     C60490   9.734   8.695   2.693  0.1587 -0.1690  0.7324
  439MOL0     C60491   9.661   8.811   2.645  0.5635 -0.3030 -0.0922
  439MOL0     O60492   9.681   9.028   2.407 -0.2866  0.9829 -0.4834
  439MOL0     C60493   9.530   9.195   2.244 -0.7259  0.3731  0.3895
  439MOL0     C60494   9.452   9.264   2.151  0.3267  0.9891  1.0250
  439MOL0     N60495   9.214   9.291   1.485 -0.1035 -0.4142 -0.0581
  439MOL0     N60496   9.274   9.325   1.368 -0.6741  0.6549  0.1488
  439MOL0     C60497   9.618   8.819   0.523 -0.0886 -0.8567  0.0921
  439MOL0     C60498   9.701   8.714   0.556  0.0476  0.7267  0.3838
  439MOL0     C60499   9.864   8.401   0.863 -0.4014 -0.4756 -0.2168
  439MOL0     C60500   9.967   8.346   0.783 -0.3146 -0.7905  0.6846
  439MOL0     C60501  10.019   8.224   0.807  0.8393 -0.3036 -0.5460
  439MOL0     C60502   9.963   8.144   0.909 -0.1278  0.2171  0.9952
  439MOL0     O60503  10.014   8.013   0.922 -0.5221  0.4100 -0.1027
  439MOL0     C60504   9.944   7.921   1.009 -0.2118  0.1570  0.4293
  439MOL0     C60505   9.993   7.781   0.985  0.0978  1.0505  0.6675
  439MOL0     C60506   9.995   7.744   0.839  0.1856  0.9824  0.0609
  439MOL0     C60507   9.861   7.769   0.761 -0.1591 -0.3907  0.7067
  439MOL0     C60508   9.884   7.722   0.619 -0.1121  0.3412  0.1868
  439MOL0     C60509   9.893   7.717   0.497 -0.1908 -0.0718  0.3211
  439MOL0     C60510   9.867   8.195   0.985  0.3520 -0.1820  0.5406
  439MOL0     C60511   9.807   8.324   0.972 -0.5912 -0.2894  0.9479
  439MOL0     C60512   9.689   8.369   1.038  1.2117 -0.1988  0.0327
  439MOL0     H60513   9.870   8.837   0.807  0.4179 -2.2308 -0.6736
  439MOL0     H60514   9.744   9.026   0.763 -0.2206  0.7630 -0.8171
  439MOL0     H60515   9.386   8.965   0.481  3.3198 -0.8134 -2.0129
  439MOL0     H60516   9.381   9.126   0.522 -1.3494 -0.6771 -0.0416
  439MOL0     H60517   9.264   9.053   0.696  0.2802 -0.3361  0.8933
  439MOL0     H60518   9.379   8.931   0.737  1.0203 -0.6024 -1.9904
  439MOL0     H60519   9.530   9.074   0.835  0.6768 -2.5819 -2.1169
  439MOL0     H60520   9.464   9.226   0.759  1.8352  0.6656  3.9206
  439MOL0     H60521   9.294   9.062   0.962 -0.6035  0.1812  0.7216
  439MOL0     H60522   9.406   9.166   1.018  1.3669 -4.0071  0.5765
  439MOL0     H60523   9.173   9.223   0.836 -1.0891 -1.5961  1.3001
  439MOL0     H60524   9.312   9.340   0.838 -1.7656  0.6491 -0.7613
  439MOL0     H60525   9.103   9.385   1.011 -0.7921  0.6811  0.2283
  439MOL0     H60526   9.176   9.253   1.106  1.1289  0.9820  1.8493
  439MOL0     H60527   9.316   9.491   1.002 -0.3418 -0.7954 -0.7153
  439MOL0     H60528   9.379   9.387   1.120  0.5604 -0.2149  0.9476
  439MOL0     H60529   9.286   9.605   1.213  3.0602 -2.0949  2.5175
  439MOL0     H60530   9.124   9.557   1.192  0.9911  2.1932 -1.2349
  439MOL0     H60531   9.097   9.589   1.447 -2.7070 -0.8748 -3.4487
  439MOL0     H60532   9.064   9.310   1.701  1.4022 -0.5212  0.8211
  439MOL0     H60533   8.988   9.467   1.667  0.7714  2.6471  0.4620
  439MOL0     H60534   9.201   9.587   1.734  1.8693  0.6038  1.4095
  439MOL0     H60535   9.121   9.502   1.864  1.3838  0.6943  0.3343
  439MOL0     H60536   9.349   9.370   1.708 -2.2439 -0.7979  0.4159
  439MOL0     H60537   9.382   9.468   1.855  0.8467 -1.4391 -0.7651
  439MOL0     H60538   9.190   9.243   1.872 -0.1930  0.2221  1.5892
  439MOL0     H60539   9.360   9.226   1.896  0.0701  0.7954  2.0324
  439MOL0     H60540   9.142   9.163   2.205 -0.5204 -1.8864  2.2535
  439MOL0     H60541   9.261   8.879   2.344  0.7200  0.2626  0.0776
  439MOL0     H60542   9.142   9.006   2.360  0.8485  1.7351 -2.7040
  439MOL0     H60543   9.254   8.981   2.495 -1.5856 -0.4051  0.4713
  439MOL0     H60544   9.490   8.672   2.393  1.1748 -2.2493  0.3105
  439MOL0     H60545   9.591   8.471   2.483 -0.6215  0.2467 -1.4521
  439MOL0     H60546   9.696   8.303   2.530  0.4993 -0.2453 -1.3418
  439MOL0     H60547   9.851   8.380   2.469  1.7425  0.7235  0.9285
  439MOL0     H60548   9.946   8.185   2.574  0.5404  0.2354  0.9923
  439MOL0     H60549   9.964   8.317   2.684 -1.4156  0.2405  2.1300
  439MOL0     H60550   9.707   8.226   2.743  1.4405  3.4514  1.0959
  439MOL0     H60551   9.851   8.216   2.846 -3.7085  3.1187  1.1968
  439MOL0     H60552   9.757   8.001   2.647  1.5808 -2.4366 -0.2307
  439MOL0     H60553   9.759   7.992   2.818  0.0005 -0.5404 -1.7244
  439MOL0     H60554  10.028   8.056   2.677 -0.3558 -0.1844  0.8874
  439MOL0     H60555  10.007   7.967   2.817 -2.3554 -5.1094  0.3142
  439MOL0     H60556  10.084   7.826   2.630 -0.5254 -3.0805  1.1326
  439MOL0     H60557   9.929   7.860   2.549 -0.6006 -3.1682 -0.4783
  439MOL0     H60558   9.829   7.776   2.773 -1.3669 -0.1927 -2.2906
  439MOL0     H60559   9.987   7.708   2.813 -2.5591 -1.2009  1.6342
  439MOL0     H60560   9.848   7.630   2.563 -4.0798  1.7487  1.3850
  439MOL0     H60561   9.815   7.557   2.720 -1.0155 -0.5420 -1.9444
  439MOL0     H60562   9.807   8.694   2.774  1.8021  0.0025 -0.6999
  439MOL0     H60563   9.680   8.908   2.690 -0.7672 -1.5153  3.4221
  439MOL0     H60564   9.633   9.227   2.254 -1.7385  4.1274  0.2082
  439MOL0     H60565   9.504   9.342   2.097  1.3914  2.4134  3.8908
  439MOL0     H60566   9.542   8.816   0.445  1.2858 -0.1765 -1.3101
  439MOL0     H60567   9.700   8.618   0.505  2.8589 -0.1987  1.8330
  439MOL0     H60568  10.019   8.403   0.707  3.3575 -1.4252  2.5174
  439MOL0     H60569  10.104   8.185   0.752  1.6876  0.0751  0.4592
  439MOL0     H60570   9.956   7.937   1.116  2.7682 -0.3420  0.2573
  439MOL0     H60571   9.836   7.915   0.995 -0.7090 -1.0368  3.8633
  439MOL0     H60572   9.936   7.706   1.041  0.2242  0.1805 -0.3396
  439MOL0     H60573  10.092   7.799   1.029 -0.9480  3.6608  2.1838
  439MOL0     H60574  10.081   7.794   0.795 -2.2910  3.1210 -2.7946
  439MOL0     H60575  10.000   7.635   0.839 -0.8704  0.9098 -1.2958
  439MOL0     H60576   9.830   7.873   0.750 -0.7304 -0.7614 -1.6692
  439MOL0     H60577   9.782   7.709   0.806 -4.1969  4.3968  0.7887
  439MOL0     H60578   9.893   7.718   0.390 -1.3585 -3.3982  0.1656
  439MOL0     H60579   9.821   8.135   1.063  0.7860 -0.9894  0.1970
  439MOL0     H60580   9.718   8.444   1.112 -2.1551  0.3140  1.0100
  439MOL0     H60581   9.620   8.418   0.969 -0.6097  1.2516  2.6999
  439MOL0     H60582   9.633   8.289   1.088 -3.0721  2.5698  0.1600
  440MOL0     O60583   9.128   3.436   3.792  0.3298  0.4674  0.9161
  440MOL0     C60584   9.215   3.389   3.854 -1.1105 -0.3269 -1.0145
  440MOL0     O60585   9.344   3.436   3.854  0.5808 -0.0760  0.3768
  440MOL0     C60586   9.402   3.516   3.760 -1.2834  0.6729 -0.5727
  440MOL0     C60587   9.349   3.581   3.651 -0.0530  0.3098 -0.7770
  440MOL0     C60588   9.428   3.661   3.567 -0.7236 -0.1407  0.2818
  440MOL0     C60589   9.562   3.676   3.596 -0.2415  0.6973  0.2486
  440MOL0     O60590   9.643   3.737   3.511 -0.1685  0.0541 -0.2037
  440MOL0     C60591   9.737   3.824   3.571  0.3271 -0.5834 -0.5901
  440MOL0     C60592   9.780   3.935   3.491 -0.2854  0.0686 -0.2022
  440MOL0     C60593   9.889   4.022   3.552 -1.0100  1.1156 -0.2432
  440MOL0     C60594  10.029   3.951   3.532 -0.1038 -0.2592  0.2486
  440MOL0     C60595  10.147   4.058   3.558  0.3989  0.5329  0.2193
  440MOL0     C60596  10.271   3.980   3.545 -1.1548  0.2268  0.8218
  440MOL0     C60597  10.402   4.050   3.575  0.3423 -0.5452  0.4426
  440MOL0     C60598  10.524   3.995   3.497 -0.5693 -0.3329 -0.3344
  440MOL0     N60599  10.656   4.033   3.556 -0.1989  0.3442 -0.9699
  440MOL0     C60600  10.708   4.154   3.581 -1.0259 -0.2572  0.9030
  440MOL0     C60601  10.830   4.136   3.646  0.3013  0.5246  0.8462
  440MOL0     C60602  10.918   4.245   3.708  0.9278  1.1816  0.2812
  440MOL0     C60603  11.036   4.290   3.617 -0.7477 -0.6592 -0.2579
  440MOL0     C60604  10.979   4.365   3.494  0.1277  0.5631  0.0931
  440MOL0     C60605  10.888   4.485   3.520 -0.1188  0.3925  0.4775
  440MOL0     O60606  10.949   4.572   3.614  0.2016 -0.0891 -0.0567
  440MOL0     C60607  10.888   4.689   3.655 -0.1453 -1.2398 -0.6639
  440MOL0     C60608  10.751   4.718   3.664  0.0673 -0.2158 -0.7738
  440MOL0     C60609  10.695   4.834   3.718 -0.2204 -0.8599 -0.5209
  440MOL0     C60610  10.541   4.835   3.741  0.3267 -0.2995  0.3332
  440MOL0     C60611  10.781   4.944   3.748  0.9004 -0.0051  0.1672
  440MOL0     C60612  10.737   5.073   3.795  1.0004 -0.1045 -0.6814
  440MOL0     O60613  10.617   5.113   3.760  0.1286  0.3763  0.0084
  440MOL0     C60614  10.548   5.219   3.817 -0.1837 -1.1557 -0.5225
  440MOL0     C60615  10.422   5.240   3.757 -0.0112  0.6398  0.4071
  440MOL0     C60616  10.327   5.339   3.795 -1.0565 -0.3695 -0.0497
  440MOL0     C60617  10.365   5.428   3.894 -0.3048 -1.1883  0.0405
  440MOL0     O60618  10.295   5.546   3.930  0.2746  0.6378 -0.1977
  440MOL0     C60619  10.184   5.598   3.845 -0.7752 -1.0837  0.8866
  440MOL0     C60620  10.097   5.709   3.905  0.1222  0.5309  0.4300
  440MOL0     C60621  10.039   5.654   4.043  0.0348 -0.0281  0.0791
  440MOL0     C60622   9.951   5.757   4.123  0.5858  0.3477 -0.0229
  440MOL0     C60623   9.875   5.702   4.245 -0.6445  0.3288  0.3535
  440MOL0     C60624   9.944   5.611   4.345  0.5795 -0.6425  0.0588
  440MOL0     C60625  10.042   5.704   4.425  0.1572  0.1025  0.7497
  440MOL0     C60626  10.010   5.700   4.575 -0.8649 -0.7234 -0.2474
  440MOL0    Cl60627  10.045   5.544   4.652  0.4435 -1.2010  0.2245
  440MOL0     C60628  10.493   5.409   3.958 -0.6297 -0.0973 -0.3714
  440MOL0     C60629  10.587   5.309   3.917  0.6541  0.0730  0.0205
  440MOL0     O60630  10.810   5.134   3.870  0.3319  0.3688 -0.0136
  440MOL0     C60631  10.911   4.916   3.737 -0.2334 -0.0287 -0.0337
  440MOL0     C60632  10.963   4.799   3.697 -0.8268 -0.4777  0.3764
  440MOL0     N60633  10.847   4.002   3.658  0.2733 -0.2449  0.1009
  440MOL0     N60634  10.745   3.940   3.609  0.1756  0.2514  0.2378
  440MOL0     C60635   9.625   3.604   3.702 -0.2527 -0.6353 -0.8824
  440MOL0     C60636   9.536   3.536   3.787  0.0115  0.8129 -0.3376
  440MOL0     C60637   9.201   3.265   3.950 -0.4775  1.1080 -0.4306
  440MOL0     C60638   9.320   3.204   3.995 -0.1173  1.1646 -0.4346
  440MOL0     C60639   9.318   3.081   4.068  0.8981  0.0209  0.9091
  440MOL0     C60640   9.195   3.020   4.100 -0.4445 -0.5566  0.7233
  440MOL0     O60641   9.199   2.918   4.187  0.1884 -1.0442 -0.0996
  440MOL0     C60642   9.071   2.883   4.266 -0.8391  0.4199 -0.3352
  440MOL0     C60643   9.051   2.985   4.389 -0.0605  0.1708 -0.1124
  440MOL0     C60644   8.961   2.935   4.505  0.5239 -0.6315  0.3141
  440MOL0     C60645   8.935   3.025   4.625 -0.1078  0.9552  0.6672
  440MOL0     C60646   8.860   3.136   4.587  0.1498  0.4641 -0.7409
  440MOL0     C60647   8.800   3.237   4.560 -1.1323  0.4032  0.1548
  440MOL0     C60648   9.075   3.095   4.064  0.2730 -0.1249 -1.5029
  440MOL0     C60649   9.077   3.212   3.990 -0.3002 -0.0774 -0.1586
  440MOL0     C60650   8.943   3.260   3.935 -0.2488 -0.7918  0.1213
  440MOL0     H60651   9.242   3.589   3.634 -0.8123 -1.1798  2.5305
  440MOL0     H60652   9.403   3.702   3.470  0.3757 -1.5671 -0.6522
  440MOL0     H60653   9.828   3.765   3.586  0.6269 -0.0506 -0.2320
  440MOL0     H60654   9.699   3.874   3.660  0.6409  1.3984 -1.5055
  440MOL0     H60655   9.798   3.897   3.390 -2.6823  3.0274 -1.9172
  440MOL0     H60656   9.697   4.004   3.471 -0.4176  0.2981  1.0717
  440MOL0     H60657   9.895   4.124   3.512  0.3535  1.6922  1.3040
  440MOL0     H60658   9.869   4.038   3.658  1.4643  2.9560  0.0447
  440MOL0     H60659  10.045   3.866   3.599  0.0946  0.0063  0.5455
  440MOL0     H60660  10.026   3.920   3.428  2.0305 -2.1630  0.6751
  440MOL0     H60661  10.132   4.096   3.659 -0.5850  0.9339 -0.0623
  440MOL0     H60662  10.140   4.142   3.488  0.5096 -0.7103 -1.3481
  440MOL0     H60663  10.281   3.891   3.609  1.6465  0.0721  0.3007
  440MOL0     H60664  10.270   3.956   3.438 -0.4791  1.3414  0.5520
  440MOL0     H60665  10.412   4.039   3.684  1.3175 -0.4866  0.3671
  440MOL0     H60666  10.394   4.158   3.561  1.5126 -0.3258  1.2829
  440MOL0     H60667  10.538   3.887   3.487  6.2302  0.0228  0.2532
  440MOL0     H60668  10.515   4.040   3.398  0.3174 -0.1380 -0.3387
  440MOL0     H60669  10.655   4.245   3.554 -1.2195  0.8048  4.3889
  440MOL0     H60670  10.969   4.219   3.802  1.7963  1.7753 -0.0162
  440MOL0     H60671  10.860   4.334   3.734  0.9469  1.3219 -0.1640
  440MOL0     H60672  11.102   4.363   3.666 -1.6289 -0.6171  0.9057
  440MOL0     H60673  11.106   4.207   3.607 -0.3346 -0.6605  2.0212
  440MOL0     H60674  11.063   4.404   3.436  1.0266 -2.1353 -0.5726
  440MOL0     H60675  10.941   4.287   3.427  1.3445 -0.0454  0.0822
  440MOL0     H60676  10.869   4.539   3.427 -0.6497  1.8913  1.4012
  440MOL0     H60677  10.794   4.444   3.559 -2.0136  2.8286 -1.1603
  440MOL0     H60678  10.687   4.633   3.643 -0.7670 -0.3772  1.9753
  440MOL0     H60679  10.494   4.870   3.649  1.8462  0.4926 -0.1693
  440MOL0     H60680  10.511   4.898   3.826  1.2223  0.0375  0.4163
  440MOL0     H60681  10.509   4.731   3.750 -0.7301 -0.3207 -2.7245
  440MOL0     H60682  10.397   5.172   3.676 -1.9616 -2.1073  3.0971
  440MOL0     H60683  10.229   5.352   3.750 -0.7215  1.0109 -0.4073
  440MOL0     H60684  10.221   5.649   3.755  2.1559  0.1169  2.6117
  440MOL0     H60685  10.109   5.521   3.826  0.7443 -1.9175 -2.6321
  440MOL0     H60686  10.159   5.799   3.902 -2.3443  2.3256 -1.0544
  440MOL0     H60687  10.011   5.732   3.841 -0.6023  1.3239  1.6344
  440MOL0     H60688  10.122   5.632   4.110 -0.4253 -1.6011  0.1593
  440MOL0     H60689   9.994   5.556   4.028  2.6099 -1.0473 -1.9599
  440MOL0     H60690   9.874   5.794   4.055 -0.3838  0.1176  0.9118
  440MOL0     H60691  10.013   5.842   4.153  4.0809 -1.8388 -0.5887
  440MOL0     H60692   9.815   5.778   4.295 -1.2164 -0.3322  0.6874
  440MOL0     H60693   9.790   5.646   4.205  0.0014 -0.3926 -0.0548
  440MOL0     H60694   9.993   5.523   4.302 -1.2223 -1.8855  0.4309
  440MOL0     H60695   9.868   5.566   4.410  0.5179 -1.7351 -0.7538
  440MOL0     H60696  10.048   5.809   4.394 -1.5615  0.4619  1.5577
  440MOL0     H60697  10.144   5.670   4.404 -0.5924 -2.2497  0.6779
  440MOL0     H60698   9.906   5.732   4.584 -0.8804 -0.5211 -1.0630
  440MOL0     H60699  10.075   5.771   4.626  0.0529 -1.4374 -0.3932
  440MOL0     H60700  10.529   5.481   4.030  1.7183 -0.7633 -0.7963
  440MOL0     H60701  10.685   5.297   3.963  2.7792  0.9924 -3.8186
  440MOL0     H60702  10.988   4.985   3.770  1.9366 -1.1667 -2.3242
  440MOL0     H60703  11.071   4.789   3.698 -0.9498 -2.1496 -0.5309
  440MOL0     H60704   9.729   3.604   3.733 -0.6145  1.8748  0.6185
  440MOL0     H60705   9.580   3.480   3.869  1.6807  3.1642  0.4930
  440MOL0     H60706   9.425   3.229   3.979 -0.1916  0.1536 -2.9438
  440MOL0     H60707   9.409   3.033   4.103  1.0677 -1.4999 -1.3916
  440MOL0     H60708   8.984   2.874   4.200 -2.2515  2.4301  1.1121
  440MOL0     H60709   9.094   2.784   4.304  2.5923  0.6249 -1.5370
  440MOL0     H60710   9.008   3.080   4.358 -0.1169  0.0257 -0.4918
  440MOL0     H60711   9.148   3.007   4.435  0.3065  2.9595 -1.9861
  440MOL0     H60712   8.864   2.901   4.467 -0.3674 -1.0864  2.8400
  440MOL0     H60713   9.015   2.849   4.543  0.7856  0.9338  3.8788
  440MOL0     H60714   9.036   3.057   4.651  0.9651  0.4635 -2.4655
  440MOL0     H60715   8.885   2.963   4.700  0.3453  2.5371  2.3504
  440MOL0     H60716   8.757   3.324   4.517 -1.2769  0.6976  0.8868
  440MOL0     H60717   8.979   3.049   4.084 -0.2863 -0.5402 -4.6686
  440MOL0     H60718   8.869   3.186   3.968  1.1038 -2.5333 -0.6219
  440MOL0     H60719   8.919   3.364   3.957  1.1649 -0.5319  0.4912
  440MOL0     H60720   8.942   3.261   3.826  0.4700 -0.2977  0.1151
  441MOL0     O60721   1.279  11.401   5.151 -0.0407 -0.0695 -0.1254
  441MOL0     C60722   1.166  11.439   5.134 -0.5099 -0.2207 -0.3077
  441MOL0     O60723   1.050  11.361   5.165  0.2508 -0.3940 -0.1722
  441MOL0     C60724   1.085  11.231   5.201  0.1799  0.0570  0.5330
  441MOL0     C60725   1.115  11.198   5.334 -0.7134  0.3395 -1.1368
  441MOL0     C60726   1.180  11.073   5.367 -0.0020 -0.5921  0.6157
  441MOL0     C60727   1.215  10.998   5.254  0.9680 -0.5615  0.4877
  441MOL0     O60728   1.297  10.886   5.257 -0.4398 -0.9379  0.1638
  441MOL0     C60729   1.430  10.923   5.308  0.4202 -0.7167 -0.0904
  441MOL0     C60730   1.534  10.826   5.264 -1.0011  0.3409  0.5501
  441MOL0     C60731   1.554  10.850   5.112 -0.8503  0.9708 -0.4951
  441MOL0     C60732   1.642  10.746   5.029  0.0143 -0.0200 -0.6326
  441MOL0     C60733   1.579  10.609   5.016  1.1033  0.3492  0.6854
  441MOL0     C60734   1.642  10.513   4.915 -0.2563 -0.5157  0.0085
  441MOL0     C60735   1.788  10.463   4.958  0.4126  0.6394 -0.5371
  441MOL0     C60736   1.793  10.355   5.073  0.0364 -0.3489  0.4341
  441MOL0     N60737   1.805  10.418   5.204 -0.0238  0.6638 -1.1542
  441MOL0     C60738   1.707  10.413   5.296 -1.0733  0.1387  0.3118
  441MOL0     C60739   1.764  10.477   5.409  0.5652  0.3396 -0.9785
  441MOL0     C60740   1.698  10.493   5.542  0.1026 -0.4547 -0.0530
  441MOL0     C60741   1.629  10.629   5.563 -0.1461  0.3745  0.0154
  441MOL0     C60742   1.744  10.732   5.591 -1.1281  0.2518  0.6695
  441MOL0     C60743   1.687  10.869   5.619  0.5919  0.2839 -0.2541
  441MOL0     O60744   1.608  10.866   5.739 -0.4643 -0.2430  0.4033
  441MOL0     C60745   1.482  10.916   5.726 -0.6806 -0.6719  0.2115
  441MOL0     C60746   1.471  11.051   5.694  0.5485 -0.2240  0.7842
  441MOL0     C60747   1.341  11.112   5.701 -0.2998 -0.2741 -0.1654
  441MOL0     C60748   1.338  11.257   5.666  0.5038 -0.1328  0.0234
  441MOL0     C60749   1.225  11.028   5.719 -0.1372  0.0531  0.4214
  441MOL0     C60750   1.081  11.067   5.725 -0.6156  0.5498  1.0790
  441MOL0     O60751   0.993  10.980   5.790  0.2034 -0.7511  0.7994
  441MOL0     C60752   0.861  11.024   5.779 -0.0565 -0.6904  0.9195
  441MOL0     C60753   0.811  11.134   5.855  0.0459 -0.5983  0.0116
  441MOL0     C60754   0.680  11.169   5.839  0.4594 -0.4408  0.6455
  441MOL0     C60755   0.591  11.088   5.762 -0.5315  0.6778 -0.4225
  441MOL0     O60756   0.462  11.140   5.754 -0.5227  0.0525 -1.2356
  441MOL0     C60757   0.376  11.101   5.651  0.9056  0.9054 -0.0603
  441MOL0     C60758   0.292  10.983   5.704  0.4534  0.5343  0.4199
  441MOL0     C60759   0.147  10.994   5.757  0.2102  0.0388 -0.3313
  441MOL0     C60760   0.046  11.012   5.647 -0.6119  0.3454  0.7028
  441MOL0     C60761  -0.091  11.035   5.709 -0.6403  0.2855 -0.2966
  441MOL0     C60762  -0.170  10.909   5.746 -0.2780  1.0237 -0.5729
  441MOL0     C60763  -0.300  10.942   5.825  0.1477 -0.3451  0.9211
  441MOL0     C60764  -0.367  10.812   5.881  0.1248 -0.4050 -0.3536
  441MOL0    Cl60765  -0.348  10.674   5.770  0.3550  0.0534 -0.5094
  441MOL0     C60766   0.642  10.985   5.675 -0.2861  0.8659  0.3364
  441MOL0     C60767   0.780  10.958   5.679  0.3979  0.3123 -0.9129
  441MOL0     O60768   1.054  11.177   5.689  0.6323 -0.2208 -0.6085
  441MOL0     C60769   1.249  10.896   5.751 -0.0949 -1.1387 -0.6445
  441MOL0     C60770   1.377  10.840   5.768 -0.6444 -0.4372  0.0306
  441MOL0     N60771   1.895  10.516   5.392 -0.0366  0.5655  0.5476
  441MOL0     N60772   1.922  10.478   5.270  0.7549  0.6671  0.4072
  441MOL0     C60773   1.182  11.032   5.123 -0.6667  0.1358 -0.7330
  441MOL0     C60774   1.119  11.147   5.097  0.6466  0.1698 -0.7730
  441MOL0     C60775   1.152  11.579   5.088 -0.2353  0.4908 -0.7728
  441MOL0     C60776   1.257  11.646   5.025 -0.4757  0.8761 -0.2202
  441MOL0     C60777   1.264  11.780   4.999  0.5854  0.8379  0.8195
  441MOL0     C60778   1.157  11.860   5.011  0.5687 -0.1308 -0.4126
  441MOL0     O60779   1.157  11.991   4.977 -0.2965 -0.8501 -0.5938
  441MOL0     C60780   1.234  12.020   4.855 -0.6064 -0.0201  0.0187
  441MOL0     C60781   1.183  12.142   4.788  0.4556 -0.4387 -0.1221
  441MOL0     C60782   1.193  12.267   4.878 -0.4824  0.7413 -0.1020
  441MOL0     C60783   1.106  12.386   4.830 -0.5147  0.1751  0.1291
  441MOL0     C60784   0.969  12.357   4.868 -0.0478 -0.5219 -0.5658
  441MOL0     C60785   0.861  12.324   4.906  0.2023 -0.4652 -0.4416
  441MOL0     C60786   1.032  11.801   5.056  0.1103  0.1459  0.1655
  441MOL0     C60787   1.036  11.660   5.098  0.4636 -0.2345 -0.8534
  441MOL0     C60788   0.901  11.603   5.155 -0.0985 -0.5255 -0.2276
  441MOL0     H60789   1.089  11.257   5.421 -0.4744  0.0267 -0.8533
  441MOL0     H60790   1.208  11.037   5.466 -1.3329  1.3370  1.7712
  441MOL0     H60791   1.422  10.928   5.417  1.8956 -0.0501  0.0218
  441MOL0     H60792   1.455  11.025   5.275 -1.1994  0.5565  2.2940
  441MOL0     H60793   1.628  10.836   5.319 -0.8606 -1.6046  0.7449
  441MOL0     H60794   1.500  10.723   5.280  0.1780  0.4146  4.7585
  441MOL0     H60795   1.451  10.858   5.075 -0.1456 -1.8035 -3.4556
  441MOL0     H60796   1.605  10.945   5.096  0.7598 -0.1922 -2.7740
  441MOL0     H60797   1.665  10.785   4.929  0.8025  0.5454 -0.2458
  441MOL0     H60798   1.737  10.732   5.080  0.1577 -0.7172 -1.0798
  441MOL0     H60799   1.477  10.632   4.985  2.1147  0.8269 -2.6862
  441MOL0     H60800   1.573  10.545   5.105  0.4323 -3.1575 -1.6812
  441MOL0     H60801   1.589  10.418   4.918 -0.3776 -0.5500 -2.0430
  441MOL0     H60802   1.647  10.554   4.813  1.7648 -2.5595 -0.8000
  441MOL0     H60803   1.842  10.551   4.995  0.0667  1.9056 -2.8429
  441MOL0     H60804   1.830  10.425   4.864 -0.3175  0.7225 -0.9035
  441MOL0     H60805   1.703  10.294   5.067 -0.3827 -0.0553  2.8708
  441MOL0     H60806   1.880  10.290   5.062 -1.6107 -2.5370 -0.4001
  441MOL0     H60807   1.610  10.371   5.272 -0.1802 -0.4552 -2.6614
  441MOL0     H60808   1.776  10.493   5.619  1.0757 -1.4947 -0.9960
  441MOL0     H60809   1.628  10.411   5.560 -2.5467  1.9297  1.2747
  441MOL0     H60810   1.565  10.656   5.478  1.3262 -0.9878 -1.6239
  441MOL0     H60811   1.567  10.616   5.652  0.2620 -0.1100  0.2315
  441MOL0     H60812   1.794  10.708   5.685 -0.0669 -0.7689 -0.1266
  441MOL0     H60813   1.815  10.733   5.508 -1.4308  0.4308  0.4077
  441MOL0     H60814   1.769  10.937   5.641  0.1877  0.0882  2.1286
  441MOL0     H60815   1.623  10.897   5.535  0.6201 -0.7709 -0.6511
  441MOL0     H60816   1.555  11.120   5.691 -0.6526  1.2759  0.1072
  441MOL0     H60817   1.436  11.302   5.647  0.5335  0.2107  0.9075
  441MOL0     H60818   1.273  11.315   5.733 -2.3777 -0.7284 -2.0414
  441MOL0     H60819   1.283  11.262   5.572  0.1782 -1.6835  0.1139
  441MOL0     H60820   0.879  11.199   5.909 -1.8115  1.6732 -0.1849
  441MOL0     H60821   0.653  11.255   5.900 -1.4229 -1.4257  1.2673
  441MOL0     H60822   0.307  11.180   5.620  2.0794  2.1752  0.4943
  441MOL0     H60823   0.435  11.077   5.561  1.7165  2.2307  0.1009
  441MOL0     H60824   0.285  10.908   5.625  1.8784  0.2146  0.5779
  441MOL0     H60825   0.345  10.930   5.783 -2.4673 -2.2801  0.6956
  441MOL0     H60826   0.130  11.083   5.818 -2.5978 -0.3179 -0.4679
  441MOL0     H60827   0.127  10.900   5.810  0.0001 -0.7487 -1.7644
  441MOL0     H60828   0.049  10.928   5.577  0.7823  2.4492 -1.9221
  441MOL0     H60829   0.060  11.096   5.579 -0.3017 -2.4563 -3.0361
  441MOL0     H60830  -0.083  11.100   5.797 -0.4985 -0.7177  0.4511
  441MOL0     H60831  -0.148  11.097   5.639  1.4656  1.8755 -0.7222
  441MOL0     H60832  -0.097  10.849   5.801 -0.3754 -0.8580 -2.3679
  441MOL0     H60833  -0.185  10.846   5.658  3.2685  0.0855 -0.6794
  441MOL0     H60834  -0.363  10.999   5.756 -0.2663 -1.6578  0.1773
  441MOL0     H60835  -0.287  11.004   5.914 -0.1727 -0.5222  1.0962
  441MOL0     H60836  -0.473  10.837   5.893  0.8972  2.9251  0.5752
  441MOL0     H60837  -0.337  10.777   5.981 -0.7069  1.0224  0.4313
  441MOL0     H60838   0.578  10.924   5.612  1.6091 -0.3366 -0.5438
  441MOL0     H60839   0.812  10.886   5.604  2.2373  0.4274 -0.2877
  441MOL0     H60840   1.164  10.834   5.776 -0.3282 -0.1664  1.1691
  441MOL0     H60841   1.395  10.734   5.782 -1.3586 -0.7385 -1.1379
  441MOL0     H60842   1.218  10.972   5.040  1.2253  2.1702 -1.4696
  441MOL0     H60843   1.106  11.180   4.995 -0.3238  3.3702  0.2707
  441MOL0     H60844   1.349  11.590   5.013 -0.1802  1.6285 -1.6121
  441MOL0     H60845   1.357  11.822   4.962  1.0386  1.1187  2.2240
  441MOL0     H60846   1.340  12.041   4.869 -0.2728 -0.5965 -1.4178
  441MOL0     H60847   1.230  11.938   4.783  0.4016 -0.7047  0.7236
  441MOL0     H60848   1.075  12.138   4.768 -0.2994  3.3207  2.1661
  441MOL0     H60849   1.235  12.149   4.692  1.0462 -0.3699  0.1985
  441MOL0     H60850   1.180  12.259   4.987 -1.2094  4.7432  0.2607
  441MOL0     H60851   1.296  12.299   4.863 -0.1327 -1.1130 -2.1443
  441MOL0     H60852   1.112  12.393   4.721 -1.2172 -0.7082  0.0211
  441MOL0     H60853   1.136  12.481   4.877  2.6011 -0.6377 -0.0412
  441MOL0     H60854   0.762  12.285   4.916  0.6589 -1.1932  2.3444
  441MOL0     H60855   0.935  11.850   5.068 -0.3965 -1.0786  1.3672
  441MOL0     H60856   0.824  11.681   5.164 -0.2486 -0.8456  1.7032
  441MOL0     H60857   0.867  11.525   5.086 -1.9747 -1.5455  1.7300
  441MOL0     H60858   0.915  11.555   5.252  1.1476  0.9712  0.3567
  442MOL0     O60859   8.139   6.091   6.483 -0.1215  0.2244 -0.2121
  442MOL0     C60860   8.248   6.130   6.495 -1.4494 -0.1815  0.6395
  442MOL0     O60861   8.322   6.170   6.391  0.7569 -0.3260  0.6283
  442MOL0     C60862   8.266   6.179   6.268 -0.6357 -0.8572  0.6095
  442MOL0     C60863   8.229   6.304   6.221 -0.2359 -0.7484 -0.8868
  442MOL0     C60864   8.186   6.326   6.082 -1.0992 -0.1766 -0.1313
  442MOL0     C60865   8.188   6.206   6.000 -0.1493  0.1560 -0.1351
  442MOL0     O60866   8.137   6.223   5.874 -0.2247 -0.4621  0.0134
  442MOL0     C60867   8.062   6.116   5.819 -0.0715  0.2409  0.5318
  442MOL0     C60868   7.938   6.094   5.894 -0.8195  0.9450 -0.3790
  442MOL0     C60869   7.824   6.025   5.812  0.1260  0.4131 -0.5012
  442MOL0     C60870   7.830   5.866   5.816 -0.5298  0.1482  0.2449
  442MOL0     C60871   7.734   5.803   5.724  0.7553 -0.3834 -0.6934
  442MOL0     C60872   7.737   5.651   5.724  0.7241  0.3124 -0.7121
  442MOL0     C60873   7.849   5.587   5.641 -0.8292 -0.6709 -0.0870
  442MOL0     C60874   7.842   5.616   5.489 -0.5726  0.2517  0.4627
  442MOL0     N60875   7.934   5.719   5.432  0.4799 -0.0425  0.0992
  442MOL0     C60876   8.045   5.779   5.491  0.3771  0.1270  0.6185
  442MOL0     C60877   8.116   5.836   5.391  0.1733 -0.4330 -0.3162
  442MOL0     C60878   8.235   5.934   5.402  0.2080 -1.5399 -0.4738
  442MOL0     C60879   8.200   6.090   5.432  0.0471  0.3081 -0.6037
  442MOL0     C60880   8.313   6.188   5.421 -0.3963 -0.0742  0.0011
  442MOL0     C60881   8.426   6.169   5.518 -0.2410 -1.3959  0.3961
  442MOL0     O60882   8.500   6.062   5.469 -0.3741 -0.1545 -0.4166
  442MOL0     C60883   8.597   6.069   5.374 -0.4337 -0.0024 -0.1462
  442MOL0     C60884   8.655   6.181   5.313 -0.1172 -0.6276 -0.4131
  442MOL0     C60885   8.741   6.168   5.201 -0.3778  0.7839 -0.0788
  442MOL0     C60886   8.821   6.296   5.156  0.0642  0.7065 -0.5142
  442MOL0     C60887   8.761   6.040   5.136 -0.4482  0.1336  0.9103
  442MOL0     C60888   8.846   6.017   5.015  0.4433  0.4465  0.6533
  442MOL0     O60889   8.902   6.131   4.953 -1.0634 -0.2567  0.1005
  442MOL0     C60890   9.033   6.117   4.897 -0.2417 -0.1165 -0.2544
  442MOL0     C60891   9.144   6.156   4.971 -0.3653  0.0037  0.3090
  442MOL0     C60892   9.282   6.145   4.930 -0.5348  0.2809  0.0273
  442MOL0     C60893   9.307   6.076   4.814  0.4497 -0.4955  0.8698
  442MOL0     O60894   9.431   6.065   4.759 -1.2375 -0.3230  0.4645
  442MOL0     C60895   9.479   5.927   4.733 -1.0385  0.4552 -0.1175
  442MOL0     C60896   9.497   5.910   4.582 -0.1876  1.0325 -0.3598
  442MOL0     C60897   9.559   5.776   4.541 -0.6586  0.1602 -0.0656
  442MOL0     C60898   9.527   5.736   4.403  0.0268  0.5363  0.4392
  442MOL0     C60899   9.539   5.856   4.304  0.0458  0.4065 -0.3173
  442MOL0     C60900   9.517   5.805   4.162  0.8301 -1.1276  0.2556
  442MOL0     C60901   9.504   5.930   4.068  0.0106 -0.0596 -0.2975
  442MOL0     C60902   9.426   5.897   3.936 -0.0350 -0.5419 -0.5558
  442MOL0    Cl60903   9.483   5.748   3.857 -0.2297 -0.1187 -0.0011
  442MOL0     C60904   9.193   6.040   4.726 -0.0310 -0.4441 -0.1895
  442MOL0     C60905   9.058   6.073   4.763  0.6569 -0.4216 -0.0951
  442MOL0     O60906   8.860   5.904   4.971  0.7679  0.3015  0.5335
  442MOL0     C60907   8.688   5.927   5.197 -0.5000 -0.5261  0.4665
  442MOL0     C60908   8.619   5.947   5.313 -0.1084 -0.2580  0.1135
  442MOL0     N60909   8.054   5.792   5.273  0.1684  0.1179 -0.7678
  442MOL0     N60910   7.940   5.744   5.300  0.0719  0.2708  1.1188
  442MOL0     C60911   8.240   6.085   6.051  0.2048 -0.1146 -0.1626
  442MOL0     C60912   8.268   6.071   6.188  0.2173  0.3657  0.3884
  442MOL0     C60913   8.312   6.125   6.630  0.9326  0.4679  0.3407
  442MOL0     C60914   8.231   6.057   6.726  0.4075 -0.7495 -0.6505
  442MOL0     C60915   8.253   6.050   6.858  0.4874 -0.6989  0.0663
  442MOL0     C60916   8.372   6.102   6.903  0.2377  0.4549 -0.5842
  442MOL0     O60917   8.394   6.081   7.037  0.4506  0.3484  0.3309
  442MOL0     C60918   8.530   6.125   7.091  0.4004  0.1392  0.0183
  442MOL0     C60919   8.527   6.279   7.119 -0.0714 -0.4214  0.4485
  442MOL0     C60920   8.653   6.318   7.209 -0.5317  0.0007 -0.3725
  442MOL0     C60921   8.793   6.294   7.145  0.1209 -0.0715  0.4263
  442MOL0     C60922   8.818   6.350   7.011 -0.0626 -0.0416 -0.2959
  442MOL0     C60923   8.838   6.401   6.898 -0.3160  0.0440  0.3304
  442MOL0     C60924   8.458   6.176   6.816  0.4214  0.5522 -0.1533
  442MOL0     C60925   8.429   6.179   6.672 -0.2836  0.3556  0.0914
  442MOL0     C60926   8.512   6.271   6.588  0.1130 -0.1001  0.4553
  442MOL0     H60927   8.225   6.385   6.294 -1.0115 -0.7609 -0.9029
  442MOL0     H60928   8.163   6.421   6.035 -0.4768 -0.3368 -0.7715
  442MOL0     H60929   8.132   6.031   5.812 -0.8585 -0.3623 -0.2352
  442MOL0     H60930   8.032   6.151   5.720  3.1085  4.8160  0.9070
  442MOL0     H60931   7.954   6.047   5.991  0.8004  3.3718  0.6392
  442MOL0     H60932   7.900   6.196   5.909 -5.9820 -0.8625  0.9612
  442MOL0     H60933   7.727   6.050   5.855  0.0967 -1.9169  0.9296
  442MOL0     H60934   7.824   6.064   5.710 -0.2168  2.7607  0.3280
  442MOL0     H60935   7.930   5.832   5.788  0.6333  0.2250  3.7587
  442MOL0     H60936   7.814   5.830   5.918  0.7950 -2.0233 -0.2329
  442MOL0     H60937   7.728   5.838   5.621 -1.8718 -2.3451 -1.3217
  442MOL0     H60938   7.638   5.836   5.765  0.3207 -1.6468 -0.6623
  442MOL0     H60939   7.725   5.611   5.825 -1.1911  3.6225  0.5218
  442MOL0     H60940   7.651   5.619   5.664 -1.8226  0.9096  2.3712
  442MOL0     H60941   7.855   5.482   5.672 -1.2187 -0.9762 -1.0110
  442MOL0     H60942   7.950   5.621   5.666 -0.3605  0.8878 -3.5463
  442MOL0     H60943   7.865   5.527   5.431 -0.2957  1.0359 -0.6741
  442MOL0     H60944   7.739   5.626   5.453  0.3558  0.3158 -2.4420
  442MOL0     H60945   8.067   5.800   5.595 -1.1790 -0.2903  1.0626
  442MOL0     H60946   8.265   5.940   5.297  1.6454 -2.0858 -0.1075
  442MOL0     H60947   8.312   5.898   5.471  0.1386 -0.0530  0.4359
  442MOL0     H60948   8.112   6.118   5.373  0.2609 -1.9830 -2.1304
  442MOL0     H60949   8.163   6.087   5.535 -3.5503 -2.2513 -1.7830
  442MOL0     H60950   8.350   6.208   5.320  1.4510  0.3851  0.7403
  442MOL0     H60951   8.264   6.282   5.448  0.0700  0.6189 -1.4556
  442MOL0     H60952   8.484   6.261   5.532  1.2944 -2.2056 -0.3562
  442MOL0     H60953   8.383   6.148   5.616  0.5881  1.3277  1.4556
  442MOL0     H60954   8.641   6.278   5.360  0.4958 -0.7509  0.0346
  442MOL0     H60955   8.791   6.388   5.207 -1.0089  0.2850 -0.3551
  442MOL0     H60956   8.787   6.322   5.055  0.2162  0.9188 -0.5105
  442MOL0     H60957   8.928   6.277   5.148 -0.1114  0.4070 -2.9000
  442MOL0     H60958   9.129   6.206   5.066  0.4383  4.6045 -1.6976
  442MOL0     H60959   9.368   6.181   4.985 -0.2233 -2.3484  1.4454
  442MOL0     H60960   9.574   5.908   4.785 -1.3926 -0.2016  0.2899
  442MOL0     H60961   9.405   5.856   4.770 -0.0619  0.5332  2.1444
  442MOL0     H60962   9.398   5.902   4.536  0.0701 -2.0502 -0.5614
  442MOL0     H60963   9.548   5.998   4.541  0.8450 -0.0631 -1.5040
  442MOL0     H60964   9.522   5.695   4.605 -1.0118  1.3492  1.2875
  442MOL0     H60965   9.667   5.788   4.548 -0.6096 -0.2990  0.0053
  442MOL0     H60966   9.426   5.696   4.409 -1.4666  3.7696 -0.9342
  442MOL0     H60967   9.585   5.659   4.350 -0.3226  0.3925  0.2630
  442MOL0     H60968   9.465   5.932   4.327  1.2861  0.6927  3.3891
  442MOL0     H60969   9.635   5.905   4.324  1.0514 -0.8512 -1.7621
  442MOL0     H60970   9.428   5.742   4.171  0.2770 -0.2465  1.1203
  442MOL0     H60971   9.602   5.742   4.136  0.9478 -2.7782  4.0538
  442MOL0     H60972   9.606   5.963   4.049  0.1785 -0.5233 -0.2328
  442MOL0     H60973   9.447   6.007   4.120  0.9520  0.5824 -0.1956
  442MOL0     H60974   9.445   5.988   3.878  0.1709 -1.2175 -1.5696
  442MOL0     H60975   9.318   5.894   3.951 -0.0091  2.1170  0.6388
  442MOL0     H60976   9.217   6.000   4.628  0.3440  1.8161 -1.0649
  442MOL0     H60977   8.987   6.034   4.690  0.4359  1.1796 -0.7791
  442MOL0     H60978   8.711   5.831   5.153  1.5017 -1.2632  2.8531
  442MOL0     H60979   8.592   5.856   5.365  0.8647  0.9989  3.0257
  442MOL0     H60980   8.238   5.997   5.987 -0.0064  0.7635 -1.4065
  442MOL0     H60981   8.310   5.977   6.221  0.7407  0.5607  0.2771
  442MOL0     H60982   8.140   6.006   6.695 -1.5900  0.9478  1.9927
  442MOL0     H60983   8.186   6.004   6.930 -0.7474  2.6774  1.2730
  442MOL0     H60984   8.545   6.082   7.190 -0.8590  2.3107  1.2192
  442MOL0     H60985   8.610   6.092   7.024  1.0622 -0.3775  1.0424
  442MOL0     H60986   8.443   6.309   7.182  1.3512  0.9282  1.7913
  442MOL0     H60987   8.526   6.344   7.031 -2.6120 -0.1149  0.6327
  442MOL0     H60988   8.635   6.422   7.236 -1.1473 -0.2912  0.3819
  442MOL0     H60989   8.653   6.264   7.305 -0.7968 -0.2019 -0.4822
  442MOL0     H60990   8.823   6.189   7.139  2.3509  0.5690 -0.8144
  442MOL0     H60991   8.864   6.344   7.212  0.7641 -1.3949  0.7688
  442MOL0     H60992   8.862   6.449   6.805 -0.3791 -0.4912  0.0326
  442MOL0     H60993   8.550   6.223   6.850  0.2687  0.0695  0.9690
  442MOL0     H60994   8.605   6.310   6.630  1.1469 -1.4321 -0.4913
  442MOL0     H60995   8.543   6.231   6.491  0.0259  2.2214 -0.5875
  442MOL0     H60996   8.453   6.359   6.562  0.2450  0.0236  0.5734
  443MOL0     O60997   5.397   8.008   2.431 -0.9006  1.1136  0.3161
  443MOL0     C60998   5.412   8.053   2.545 -0.4595  0.0072  1.1056
  443MOL0     O60999   5.454   8.180   2.567 -0.0294 -0.1238 -0.3454
  443MOL0     C61000   5.459   8.274   2.468  0.3587  0.0873  0.0164
  443MOL0     C61001   5.371   8.284   2.357  0.3647  0.4231  0.2680
  443MOL0     C61002   5.399   8.374   2.266 -0.0276 -1.0729 -0.0454
  443MOL0     C61003   5.498   8.466   2.280 -0.3280 -1.0282 -0.0501
  443MOL0     O61004   5.511   8.551   2.170  1.1805 -0.0361 -0.0582
  443MOL0     C61005   5.582   8.479   2.071 -0.3734 -0.2820 -0.1964
  443MOL0     C61006   5.638   8.578   1.969  0.6141 -0.6567  0.0617
  443MOL0     C61007   5.545   8.620   1.843 -0.1630  0.0091 -0.3220
  443MOL0     C61008   5.565   8.518   1.728  0.5959  0.4819 -0.2162
  443MOL0     C61009   5.429   8.537   1.649  0.8689  0.1303 -0.0616
  443MOL0     C61010   5.451   8.486   1.504  0.9502 -0.7862 -0.3663
  443MOL0     C61011   5.335   8.497   1.403 -0.2747  0.7047 -0.4645
  443MOL0     C61012   5.276   8.634   1.383 -0.1935  0.0440  0.0996
  443MOL0     N61013   5.376   8.734   1.333  0.3100 -0.9627 -0.4317
  443MOL0     C61014   5.432   8.829   1.414  0.6442 -0.2149 -0.1158
  443MOL0     C61015   5.518   8.893   1.339 -0.0081 -0.0011 -0.9297
  443MOL0     C61016   5.605   9.010   1.373 -0.7749  0.3461 -0.0069
  443MOL0     C61017   5.751   9.013   1.313 -0.6242 -0.3310  0.1948
  443MOL0     C61018   5.848   8.915   1.386 -0.5721  0.3900  0.2226
  443MOL0     C61019   5.808   8.763   1.373 -0.4164  0.1921 -0.3521
  443MOL0     O61020   5.921   8.682   1.410  0.1957  0.2262 -0.3737
  443MOL0     C61021   5.954   8.666   1.542  0.7836  0.3747  0.6155
  443MOL0     C61022   6.087   8.634   1.562 -0.4417  0.0927 -0.6341
  443MOL0     C61023   6.148   8.623   1.692  0.0740  0.1709 -0.7789
  443MOL0     C61024   6.292   8.586   1.696  0.2147 -0.1040  0.1810
  443MOL0     C61025   6.075   8.662   1.804  0.2475  0.1708 -0.8419
  443MOL0     C61026   6.122   8.632   1.942  0.3478 -0.0858  0.4474
  443MOL0     O61027   6.041   8.678   2.042  0.7647 -0.1684 -0.1658
  443MOL0     C61028   6.069   8.662   2.174  0.4677 -0.6604 -0.4654
  443MOL0     C61029   6.060   8.536   2.230 -0.1171 -1.5938 -1.0550
  443MOL0     C61030   6.112   8.525   2.368  0.4642  1.1829 -0.1542
  443MOL0     C61031   6.144   8.633   2.442 -0.1315 -0.7137  0.2844
  443MOL0     O61032   6.177   8.604   2.572  0.4154  0.7033  0.3743
  443MOL0     C61033   6.232   8.708   2.654  0.1475  0.3606  0.1048
  443MOL0     C61034   6.279   8.645   2.781 -0.2319  0.2259  0.4680
  443MOL0     C61035   6.340   8.737   2.874 -0.3873  0.6022 -0.2473
  443MOL0     C61036   6.257   8.854   2.911 -0.0895  0.3892  0.3142
  443MOL0     C61037   6.324   8.918   3.037  0.9784 -0.3987  0.4043
  443MOL0     C61038   6.253   9.057   3.048  0.8347 -0.3274 -0.1835
  443MOL0     C61039   6.100   9.038   3.049 -0.3214  0.5599  0.1523
  443MOL0     C61040   6.049   8.943   3.164 -0.8187 -0.5826 -0.7742
  443MOL0    Cl61041   5.874   8.979   3.202  0.1719  0.0549 -0.0287
  443MOL0     C61042   6.147   8.758   2.382  0.2034 -0.3313 -0.7537
  443MOL0     C61043   6.106   8.775   2.249 -0.7579 -0.3352  0.9202
  443MOL0     O61044   6.231   8.589   1.965  0.5971  0.3985 -0.4296
  443MOL0     C61045   5.937   8.702   1.779  0.2024 -0.5228 -0.5565
  443MOL0     C61046   5.875   8.697   1.650 -1.4357 -0.2156 -0.8579
  443MOL0     N61047   5.521   8.835   1.213  0.6178 -0.3637 -0.1089
  443MOL0     N61048   5.435   8.737   1.206  0.0001 -0.3266 -0.5272
  443MOL0     C61049   5.580   8.469   2.396 -1.3074  0.0780 -0.9497
  443MOL0     C61050   5.558   8.372   2.487 -0.1803  0.5672 -0.0342
  443MOL0     C61051   5.353   7.989   2.665  0.3067 -0.5431  0.5031
  443MOL0     C61052   5.222   7.948   2.657 -0.2794  0.5112 -0.1736
  443MOL0     C61053   5.158   7.889   2.771  0.5633 -0.9057 -0.4104
  443MOL0     C61054   5.229   7.884   2.893 -0.4487  0.1343 -0.4071
  443MOL0     O61055   5.152   7.842   3.000 -0.3817  0.0729 -0.3385
  443MOL0     C61056   5.194   7.838   3.137  0.0572 -0.7495 -0.5368
  443MOL0     C61057   5.291   7.725   3.156 -0.2378  0.4225  0.1130
  443MOL0     C61058   5.218   7.593   3.177  0.4339 -0.3897  0.4867
  443MOL0     C61059   5.166   7.584   3.314  0.4492  0.5786  0.0229
  443MOL0     C61060   5.269   7.592   3.423 -0.0577  0.6498  0.6497
  443MOL0     C61061   5.370   7.590   3.489 -0.7351  0.2909 -0.8014
  443MOL0     C61062   5.368   7.934   2.900  0.1788  0.3980 -0.1092
  443MOL0     C61063   5.426   7.995   2.788  0.3260  0.5654  0.1521
  443MOL0     C61064   5.571   8.037   2.796  0.1865 -0.6568 -0.0793
  443MOL0     H61065   5.298   8.206   2.336  1.5168 -1.2335  1.9913
  443MOL0     H61066   5.354   8.374   2.166  2.2596 -4.1077 -1.2133
  443MOL0     H61067   5.516   8.407   2.020 -1.8713  0.4492  0.6519
  443MOL0     H61068   5.661   8.414   2.110  1.0612  2.3332  1.5212
  443MOL0     H61069   5.672   8.674   2.011  3.0863 -1.3821 -0.1243
  443MOL0     H61070   5.727   8.525   1.932  0.6884  0.0146 -0.7628
  443MOL0     H61071   5.440   8.623   1.873 -0.2862  0.8187 -0.8140
  443MOL0     H61072   5.574   8.720   1.811 -2.3859  0.4207 -1.2204
  443MOL0     H61073   5.653   8.534   1.665  1.3060 -0.6278  0.4604
  443MOL0     H61074   5.571   8.413   1.759  0.7172  1.1452  2.2148
  443MOL0     H61075   5.415   8.645   1.640  2.7757  0.8087  3.2598
  443MOL0     H61076   5.338   8.492   1.690  0.3349 -0.8438 -2.2268
  443MOL0     H61077   5.536   8.542   1.464 -1.6999  3.8175 -0.2654
  443MOL0     H61078   5.481   8.383   1.528 -0.4280 -0.8054  1.4711
  443MOL0     H61079   5.248   8.435   1.426  1.4316 -1.1554  1.5322
  443MOL0     H61080   5.365   8.455   1.306 -1.3920 -0.1671 -0.4552
  443MOL0     H61081   5.194   8.626   1.311 -2.9567  0.7701  2.9126
  443MOL0     H61082   5.220   8.660   1.473  0.4208  3.7227 -0.4365
  443MOL0     H61083   5.421   8.860   1.517 -2.1428 -2.2110  0.2917
  443MOL0     H61084   5.622   9.025   1.480  0.2152  1.1248 -0.2572
  443MOL0     H61085   5.556   9.105   1.348  1.5427  1.9584  1.1803
  443MOL0     H61086   5.741   8.987   1.207 -0.7797 -0.3830  0.2225
  443MOL0     H61087   5.782   9.118   1.318 -0.6368 -0.1503 -2.2255
  443MOL0     H61088   5.944   8.934   1.337  0.5480 -0.0996  2.1295
  443MOL0     H61089   5.849   8.934   1.494 -0.4352 -1.3652  0.5588
  443MOL0     H61090   5.721   8.738   1.435  1.1941 -2.5808  0.9620
  443MOL0     H61091   5.776   8.736   1.272 -2.5828 -3.4463  1.1090
  443MOL0     H61092   6.136   8.623   1.466  0.5247 -0.2186 -0.1228
  443MOL0     H61093   6.334   8.590   1.595  1.6804 -0.0069  0.7704
  443MOL0     H61094   6.303   8.490   1.747 -2.1247  0.1527  1.3246
  443MOL0     H61095   6.343   8.669   1.745 -2.1493  0.9683  0.9975
  443MOL0     H61096   6.028   8.450   2.173 -4.1618  1.6017 -4.2774
  443MOL0     H61097   6.099   8.428   2.416  1.8980  0.9163 -0.2473
  443MOL0     H61098   6.318   8.758   2.609 -0.5284  0.8793 -0.6409
  443MOL0     H61099   6.153   8.779   2.680 -0.5469 -0.0701 -0.7724
  443MOL0     H61100   6.190   8.609   2.833 -1.0962  0.5460 -0.7706
  443MOL0     H61101   6.359   8.574   2.756 -1.7563 -1.4634  0.2197
  443MOL0     H61102   6.431   8.778   2.830  0.2153 -0.5645 -0.1268
  443MOL0     H61103   6.360   8.680   2.966  2.6313 -1.2850 -1.8995
  443MOL0     H61104   6.152   8.829   2.928 -0.1320  0.9355  0.8760
  443MOL0     H61105   6.259   8.924   2.826 -0.3701 -0.3345 -0.3009
  443MOL0     H61106   6.328   8.858   3.128  0.8103 -0.0108  0.6674
  443MOL0     H61107   6.425   8.939   3.001  0.5647  2.0988  0.5084
  443MOL0     H61108   6.288   9.112   2.961 -1.4530 -1.0547 -1.6400
  443MOL0     H61109   6.283   9.111   3.139 -1.4914  1.1938 -0.2495
  443MOL0     H61110   6.064   9.015   2.948 -1.6231  0.6021  0.5926
  443MOL0     H61111   6.063   9.136   3.079 -1.0722 -0.1218  1.5035
  443MOL0     H61112   6.107   8.968   3.254  1.2685 -1.7341 -1.7121
  443MOL0     H61113   6.056   8.835   3.147 -2.3639 -0.9802  0.8816
  443MOL0     H61114   6.180   8.844   2.439  1.1622 -2.2443  1.7794
  443MOL0     H61115   6.100   8.874   2.204 -0.7119 -0.4096  0.7468
  443MOL0     H61116   5.873   8.730   1.863 -1.7637 -0.2170 -2.0800
  443MOL0     H61117   5.779   8.747   1.636 -1.3982 -0.1907 -1.0267
  443MOL0     H61118   5.648   8.549   2.424 -3.6667  1.4765  1.1681
  443MOL0     H61119   5.627   8.378   2.570  1.3580  1.3025 -1.2959
  443MOL0     H61120   5.171   7.936   2.561 -1.3918 -1.5315  0.6241
  443MOL0     H61121   5.057   7.851   2.777 -0.6243  1.3085 -3.5575
  443MOL0     H61122   5.242   7.934   3.158  0.6027 -1.1242 -0.0394
  443MOL0     H61123   5.106   7.831   3.201 -1.3664  2.1105 -2.0233
  443MOL0     H61124   5.371   7.729   3.231 -0.7865  2.8567  0.6431
  443MOL0     H61125   5.358   7.723   3.069 -1.6038 -0.4122 -0.9529
  443MOL0     H61126   5.135   7.587   3.105 -0.2758  0.9704  1.1516
  443MOL0     H61127   5.282   7.506   3.160 -0.7905 -1.2528  0.1119
  443MOL0     H61128   5.127   7.482   3.317  1.1367  0.1472 -2.7575
  443MOL0     H61129   5.085   7.654   3.334  0.9467  1.5730 -1.2681
  443MOL0     H61130   5.458   7.582   3.551 -0.0682 -1.1710 -1.8755
  443MOL0     H61131   5.415   7.926   2.997  0.6487  0.5839 -0.3198
  443MOL0     H61132   5.579   8.139   2.835 -2.7800  1.7034 -4.6573
  443MOL0     H61133   5.620   7.963   2.860 -0.0368  0.2114  1.1273
  443MOL0     H61134   5.617   8.034   2.696  2.1375 -1.3668  0.8021
  444MOL0     O61135   7.513   6.149   7.310  0.4957  0.5833 -0.2504
  444MOL0     C61136   7.502   6.252   7.260  1.2161 -0.4622  0.4851
  444MOL0     O61137   7.560   6.369   7.299  0.1928 -0.6088 -0.2264
  444MOL0     C61138   7.657   6.367   7.390  0.3573 -0.5874  0.3520
  444MOL0     C61139   7.637   6.429   7.514 -0.4958 -0.3789  0.6151
  444MOL0     C61140   7.731   6.413   7.619  0.8543 -0.0755 -0.2308
  444MOL0     C61141   7.853   6.355   7.593 -0.7472 -0.0426 -0.4315
  444MOL0     O61142   7.952   6.361   7.687  0.1891 -0.1305 -0.4750
  444MOL0     C61143   7.966   6.250   7.774  0.0677 -0.7610 -0.6454
  444MOL0     C61144   8.071   6.158   7.719  0.0271 -0.9903  0.4910
  444MOL0     C61145   8.208   6.234   7.690 -0.1679 -0.6881  0.6934
  444MOL0     C61146   8.317   6.133   7.668 -0.2483 -0.5459  0.1596
  444MOL0     C61147   8.450   6.191   7.660  0.1021  0.1009 -0.0788
  444MOL0     C61148   8.570   6.080   7.678  0.7792  0.0305  0.6309
  444MOL0     C61149   8.700   6.146   7.649  0.5489  0.2224  0.0304
  444MOL0     C61150   8.808   6.050   7.612 -0.5875 -0.6630 -0.7355
  444MOL0     N61151   8.777   5.976   7.489  0.3524 -0.1748 -0.0792
  444MOL0     C61152   8.720   5.848   7.482 -0.3084 -0.0151 -0.0322
  444MOL0     C61153   8.734   5.813   7.356  0.3930  0.3485  0.6736
  444MOL0     C61154   8.689   5.677   7.326 -1.0200 -0.8810  0.5451
  444MOL0     C61155   8.537   5.658   7.286 -0.3244  0.2742 -0.1999
  444MOL0     C61156   8.497   5.655   7.134 -0.4395  0.5023  0.3017
  444MOL0     C61157   8.349   5.638   7.113  0.3929 -0.3313 -0.7495
  444MOL0     O61158   8.263   5.753   7.140 -0.1495  0.1870 -0.1864
  444MOL0     C61159   8.127   5.742   7.108 -0.5066 -0.0841 -0.0534
  444MOL0     C61160   8.049   5.861   7.126 -0.6233  1.3171  0.2421
  444MOL0     C61161   7.912   5.855   7.088 -0.4651 -0.1012  0.4275
  444MOL0     C61162   7.839   5.987   7.126 -0.1846 -0.3627  0.1120
  444MOL0     C61163   7.843   5.735   7.039  0.4430 -0.0514  1.0054
  444MOL0     C61164   7.700   5.729   7.005  0.0427  0.1684 -0.0486
  444MOL0     O61165   7.630   5.847   6.967  0.0107  0.1526  0.0942
  444MOL0     C61166   7.493   5.819   6.985  0.2865 -0.0571  0.9285
  444MOL0     C61167   7.437   5.846   7.110 -0.1137 -0.3491 -0.3735
  444MOL0     C61168   7.307   5.820   7.141 -0.1092 -0.3876 -0.6219
  444MOL0     C61169   7.221   5.797   7.033 -0.7460  0.1260 -0.6290
  444MOL0     O61170   7.085   5.790   7.064 -0.1758  0.3805  0.2165
  444MOL0     C61171   6.991   5.721   6.985  0.3410  0.0978 -1.2878
  444MOL0     C61172   6.879   5.830   6.961 -0.3975 -1.6040  0.1376
  444MOL0     C61173   6.919   5.938   6.852  0.3937 -0.4321 -0.0108
  444MOL0     C61174   6.891   5.875   6.712 -0.3852 -0.7005  0.3120
  444MOL0     C61175   6.950   5.967   6.593 -1.3670 -0.5247  0.7754
  444MOL0     C61176   6.945   5.887   6.461  0.6138  0.5335  0.2033
  444MOL0     C61177   6.806   5.836   6.417 -0.1194  0.0868  0.2411
  444MOL0     C61178   6.810   5.752   6.299  0.0505  0.5328 -0.3403
  444MOL0    Cl61179   6.659   5.654   6.275 -0.3495  0.4775  0.3476
  444MOL0     C61180   7.275   5.791   6.905  1.3061  0.8153 -0.3970
  444MOL0     C61181   7.407   5.792   6.879  0.2019  0.3268  0.4165
  444MOL0     O61182   7.657   5.615   7.015  0.8993  0.0940 -1.0416
  444MOL0     C61183   7.921   5.627   7.029  0.2550 -0.0934  0.2177
  444MOL0     C61184   8.056   5.626   7.062 -0.0447 -0.4020  0.7458
  444MOL0     N61185   8.784   5.919   7.284  0.1803 -0.4167  0.1428
  444MOL0     N61186   8.811   6.015   7.365 -0.5038  0.4361  0.0442
  444MOL0     C61187   7.883   6.296   7.470 -0.0015 -0.2740  0.0290
  444MOL0     C61188   7.786   6.296   7.376  0.1863 -0.0780  0.4644
  444MOL0     C61189   7.423   6.265   7.136 -0.6146  0.9097  0.2623
  444MOL0     C61190   7.460   6.188   7.025  0.1869  0.2953  0.9510
  444MOL0     C61191   7.373   6.192   6.909  0.3733  0.0935  0.1653
  444MOL0     C61192   7.256   6.286   6.903 -0.9772  0.0603  0.3404
  444MOL0     O61193   7.177   6.295   6.790 -0.1396  0.1335  0.1146
  444MOL0     C61194   7.227   6.244   6.662 -0.5507 -0.0210 -0.6633
  444MOL0     C61195   7.355   6.325   6.626 -0.0753  0.1892  0.3176
  444MOL0     C61196   7.315   6.426   6.521 -0.2980 -0.3104  0.5501
  444MOL0     C61197   7.302   6.363   6.378  0.5248  0.1249 -0.0793
  444MOL0     C61198   7.177   6.420   6.320  0.2003  0.7893  0.8865
  444MOL0     C61199   7.074   6.466   6.268 -0.0080  0.1900 -0.0261
  444MOL0     C61200   7.235   6.364   7.010  0.2620 -0.0132 -0.1185
  444MOL0     C61201   7.312   6.352   7.127  0.7796  0.9645 -0.1770
  444MOL0     C61202   7.266   6.436   7.243  0.1666  0.6028 -0.0170
  444MOL0     H61203   7.546   6.488   7.522 -0.4317 -0.1952  0.0180
  444MOL0     H61204   7.711   6.467   7.711 -3.2493 -0.1852 -0.8780
  444MOL0     H61205   7.869   6.206   7.799 -0.2323  0.6751  0.8950
  444MOL0     H61206   8.005   6.278   7.872 -1.9050  1.7303 -0.4581
  444MOL0     H61207   8.098   6.079   7.789 -2.3171 -2.0015  0.3472
  444MOL0     H61208   8.034   6.114   7.625  0.3973  0.8905 -0.5802
  444MOL0     H61209   8.203   6.305   7.607 -0.4412  0.6146  1.7908
  444MOL0     H61210   8.228   6.278   7.787  1.1159 -0.4475  0.3315
  444MOL0     H61211   8.304   6.067   7.754  0.5281 -0.1334  0.5924
  444MOL0     H61212   8.298   6.081   7.573  1.3895  1.0639 -1.0979
  444MOL0     H61213   8.465   6.275   7.728  2.1790 -0.1553 -0.1515
  444MOL0     H61214   8.454   6.233   7.559  0.1966 -0.8998 -0.5007
  444MOL0     H61215   8.578   6.039   7.779  0.7646  1.2726  1.1502
  444MOL0     H61216   8.542   5.997   7.611 -0.0484 -1.6419  2.9240
  444MOL0     H61217   8.721   6.202   7.741 -1.7143 -1.2974  1.5675
  444MOL0     H61218   8.685   6.227   7.578  2.9114  1.2446  0.6082
  444MOL0     H61219   8.904   6.101   7.601 -1.9194  1.9244 -1.1862
  444MOL0     H61220   8.802   5.975   7.692 -2.0963  0.6969  0.4949
  444MOL0     H61221   8.695   5.774   7.557  1.3505 -0.3224  0.2478
  444MOL0     H61222   8.725   5.613   7.406  1.7532  1.3110  1.2069
  444MOL0     H61223   8.738   5.650   7.232 -2.0018 -0.1071 -0.2140
  444MOL0     H61224   8.512   5.562   7.330  0.2156  0.1376 -0.1813
  444MOL0     H61225   8.485   5.741   7.334 -0.7047 -0.5205  0.8027
  444MOL0     H61226   8.529   5.747   7.084  0.9590 -0.0018  0.2102
  444MOL0     H61227   8.537   5.575   7.071 -0.4294  2.3513 -2.2078
  444MOL0     H61228   8.332   5.618   7.007  0.0918  1.1615 -0.9995
  444MOL0     H61229   8.326   5.551   7.175  1.1532  0.3921  0.5966
  444MOL0     H61230   8.085   5.958   7.158 -2.2209  1.7094  0.9828
  444MOL0     H61231   7.788   6.018   7.034  0.4115 -4.8305 -1.9591
  444MOL0     H61232   7.907   6.064   7.164 -3.0519  1.3134  2.2512
  444MOL0     H61233   7.768   5.965   7.206  0.6061 -0.5363  0.7757
  444MOL0     H61234   7.502   5.873   7.192 -1.5541  0.8732  0.4276
  444MOL0     H61235   7.274   5.835   7.243 -1.3951 -2.1803 -0.7199
  444MOL0     H61236   7.037   5.673   6.898  0.8819 -0.6794 -0.5869
  444MOL0     H61237   6.942   5.647   7.049  1.2588 -0.1518 -0.8512
  444MOL0     H61238   6.788   5.781   6.926 -1.4642  0.7372 -0.5668
  444MOL0     H61239   6.857   5.890   7.050 -0.3825  1.4505 -1.8037
  444MOL0     H61240   7.026   5.955   6.859  0.4515  1.2758 -3.0518
  444MOL0     H61241   6.864   6.033   6.855 -0.0269 -0.6788  2.8164
  444MOL0     H61242   6.783   5.859   6.704 -1.0795  0.5062  4.8712
  444MOL0     H61243   6.944   5.780   6.700 -0.4274 -0.8281  1.1340
  444MOL0     H61244   6.894   6.060   6.581  0.1503  0.1022 -2.6534
  444MOL0     H61245   7.057   5.983   6.601 -0.5786 -4.7443  1.0727
  444MOL0     H61246   7.000   5.793   6.465 -1.2088 -0.6436 -0.5133
  444MOL0     H61247   6.984   5.947   6.378  0.2700  0.1527 -0.2404
  444MOL0     H61248   6.744   5.921   6.390 -0.3778  0.3993  1.7777
  444MOL0     H61249   6.758   5.786   6.501 -0.1240  0.7635  0.6477
  444MOL0     H61250   6.894   5.682   6.311 -1.3092 -0.7250  2.8965
  444MOL0     H61251   6.845   5.798   6.206  3.0457 -1.5846 -0.4221
  444MOL0     H61252   7.203   5.772   6.825  1.8426 -1.7460 -0.3496
  444MOL0     H61253   7.446   5.770   6.780 -2.2964 -1.7778 -0.2071
  444MOL0     H61254   7.880   5.534   6.990 -4.8228  0.9913  2.1076
  444MOL0     H61255   8.103   5.528   7.060  0.2217 -0.2708 -1.1194
  444MOL0     H61256   7.982   6.255   7.457  0.7385  1.6977 -0.9097
  444MOL0     H61257   7.806   6.254   7.278 -0.4093  6.4036 -2.9657
  444MOL0     H61258   7.546   6.126   7.003 -2.3632 -3.1629 -0.2357
  444MOL0     H61259   7.399   6.123   6.830  1.5471  1.3412 -0.5925
  444MOL0     H61260   7.251   6.139   6.681 -0.1186 -0.3195 -2.6803
  444MOL0     H61261   7.151   6.243   6.583  0.1240 -3.1587 -1.4008
  444MOL0     H61262   7.438   6.260   6.598  1.8726  1.6839  2.2452
  444MOL0     H61263   7.399   6.365   6.719  1.6638 -0.4547 -0.1975
  444MOL0     H61264   7.232   6.490   6.553  0.7210  0.8626  0.9465
  444MOL0     H61265   7.408   6.482   6.506  1.0376 -1.6215  3.1897
  444MOL0     H61266   7.297   6.256   6.398  0.3830 -0.1069 -1.2750
  444MOL0     H61267   7.389   6.382   6.315  1.1723 -1.5894  0.2650
  444MOL0     H61268   6.988   6.517   6.229 -0.0207  0.9452  0.9594
  444MOL0     H61269   7.154   6.436   7.005 -0.8940 -1.3565 -2.8194
  444MOL0     H61270   7.225   6.375   7.324  0.1235 -1.0711 -1.2400
  444MOL0     H61271   7.339   6.494   7.301 -2.6360  2.6379  1.7470
  444MOL0     H61272   7.192   6.510   7.209 -1.1943  0.6057  2.6765
  445MOL0     O61273   7.054   6.389   1.769  0.3038 -0.1771 -0.2085
  445MOL0     C61274   7.088   6.424   1.881 -1.1705  0.1983 -0.9738
  445MOL0     O61275   7.038   6.385   1.999  0.3318 -0.0985  0.1397
  445MOL0     C61276   6.938   6.292   2.010 -0.0985  0.0794  0.0915
  445MOL0     C61277   6.811   6.316   1.955 -0.2121 -0.3468  0.5413
  445MOL0     C61278   6.713   6.226   1.984 -0.2555  0.7190 -0.0032
  445MOL0     C61279   6.737   6.097   2.042 -0.2048  0.2280  0.6597
  445MOL0     O61280   6.643   5.999   2.028 -0.4756 -0.1863  0.0465
  445MOL0     C61281   6.679   5.859   2.027 -0.9535  0.3833  0.3314
  445MOL0     C61282   6.535   5.794   2.003 -0.1008 -0.4002  1.4112
  445MOL0     C61283   6.543   5.647   1.991 -0.4806 -0.0323 -0.3208
  445MOL0     C61284   6.403   5.584   1.990 -0.2339  0.6938 -0.8214
  445MOL0     C61285   6.408   5.434   2.037  0.6674 -0.2177 -1.0058
  445MOL0     C61286   6.474   5.336   1.927 -0.0933 -0.2221  0.4701
  445MOL0     C61287   6.482   5.190   1.980 -0.5532  0.0499 -0.5982
  445MOL0     C61288   6.417   5.088   1.883  0.6833  0.3573 -0.9688
  445MOL0     N61289   6.440   4.946   1.929 -0.6628 -1.0079 -0.2569
  445MOL0     C61290   6.342   4.873   2.000  0.1367  0.6871 -0.3617
  445MOL0     C61291   6.402   4.762   2.051  0.2811 -0.0370 -0.2274
  445MOL0     C61292   6.353   4.649   2.132  0.6103  0.2200  0.6960
  445MOL0     C61293   6.188   4.643   2.113 -1.0446  0.3230  0.0189
  445MOL0     C61294   6.127   4.511   2.148  0.6119  0.5640  0.6533
  445MOL0     C61295   6.179   4.400   2.058  0.2332 -0.8883  0.5401
  445MOL0     O61296   6.281   4.317   2.123  0.3872  0.0694  0.4949
  445MOL0     C61297   6.252   4.188   2.136 -0.6146  0.2057  0.0530
  445MOL0     C61298   6.256   4.137   2.269  0.0047 -0.7656 -0.1672
  445MOL0     C61299   6.248   4.006   2.300  0.7823 -0.4103 -0.7889
  445MOL0     C61300   6.260   3.976   2.456  0.2507  0.2400  0.4784
  445MOL0     C61301   6.218   3.914   2.202 -0.1021 -0.0587 -0.6047
  445MOL0     C61302   6.202   3.764   2.225  0.8187  0.1325  0.5173
  445MOL0     O61303   6.181   3.687   2.120  0.1218  0.3464  0.5104
  445MOL0     C61304   6.266   3.578   2.093 -0.6718  0.4975  0.7344
  445MOL0     C61305   6.368   3.614   2.008 -0.4816  0.7060 -0.2878
  445MOL0     C61306   6.456   3.516   1.977  0.3043  0.6518 -0.0526
  445MOL0     C61307   6.456   3.388   2.043 -0.4404 -0.4581 -0.3417
  445MOL0     O61308   6.537   3.288   2.003 -0.0193 -0.3379  0.0384
  445MOL0     C61309   6.539   3.257   1.864 -0.4428 -1.1025 -0.3111
  445MOL0     C61310   6.410   3.218   1.799  0.7102  0.3517  0.3581
  445MOL0     C61311   6.347   3.077   1.839  0.0279 -1.0875  0.1495
  445MOL0     C61312   6.456   2.964   1.812  0.2254 -0.0053  0.5352
  445MOL0     C61313   6.487   2.924   1.668 -0.0521  0.8587  0.4824
  445MOL0     C61314   6.635   2.936   1.624  0.7892  0.4011 -0.0231
  445MOL0     C61315   6.726   2.855   1.718  0.3917  0.1288  0.3357
  445MOL0     C61316   6.823   2.761   1.652  0.0806 -0.3691  0.1559
  445MOL0    Cl61317   6.722   2.620   1.583 -0.0754 -0.3690 -0.2450
  445MOL0     C61318   6.364   3.361   2.138 -0.6154  0.6373 -0.8638
  445MOL0     C61319   6.267   3.452   2.159 -0.0428 -0.7817 -0.3912
  445MOL0     O61320   6.227   3.718   2.337 -0.0275 -0.0899  0.2299
  445MOL0     C61321   6.197   3.966   2.073 -0.0842 -0.0174 -0.8120
  445MOL0     C61322   6.227   4.097   2.036  0.6730  0.4963 -0.0645
  445MOL0     N61323   6.529   4.760   1.997  0.3121 -0.4158 -0.3219
  445MOL0     N61324   6.555   4.872   1.932  1.3925 -0.5008 -0.7062
  445MOL0     C61325   6.861   6.072   2.099  0.5685  0.1792 -0.2585
  445MOL0     C61326   6.959   6.171   2.086 -0.9032 -0.3992  0.1170
  445MOL0     C61327   7.188   6.529   1.893  0.1885  0.5208  0.4765
  445MOL0     C61328   7.164   6.642   1.818  0.0867  0.1622  0.5965
  445MOL0     C61329   7.270   6.743   1.784 -0.7263  0.5352 -1.3355
  445MOL0     C61330   7.395   6.729   1.845 -0.9718  0.2436 -0.5975
  445MOL0     O61331   7.497   6.812   1.810 -0.0351  0.0474 -0.4861
  445MOL0     C61332   7.555   6.767   1.688  0.4916 -0.2360  0.6024
  445MOL0     C61333   7.671   6.656   1.710  1.6528 -0.5333  0.7914
  445MOL0     C61334   7.806   6.724   1.712 -0.7938  0.1203 -1.4027
  445MOL0     C61335   7.913   6.619   1.741  0.1090 -0.3146  0.1302
  445MOL0     C61336   8.045   6.663   1.770 -1.1155 -1.0402  0.2576
  445MOL0     C61337   8.166   6.674   1.779 -0.3726  0.0354  0.5549
  445MOL0     C61338   7.407   6.628   1.945 -0.2054 -0.6188  0.1385
  445MOL0     C61339   7.311   6.526   1.963  0.0080  0.7675  0.6072
  445MOL0     C61340   7.342   6.403   2.061  0.0156  0.4539 -0.1038
  445MOL0     H61341   6.783   6.405   1.900  1.3667 -0.1984 -0.0649
  445MOL0     H61342   6.623   6.250   1.928 -0.8834 -0.7407  0.3209
  445MOL0     H61343   6.721   5.823   2.121  1.5658 -0.0008 -0.8442
  445MOL0     H61344   6.759   5.842   1.953 -1.7821  2.4920 -1.1446
  445MOL0     H61345   6.469   5.820   2.087  0.5018  3.2307  0.8928
  445MOL0     H61346   6.482   5.829   1.914 -2.0807  0.7901  2.9596
  445MOL0     H61347   6.591   5.610   1.900 -2.6714 -3.6397 -0.2263
  445MOL0     H61348   6.588   5.604   2.081  2.0687  1.1872 -0.9281
  445MOL0     H61349   6.338   5.645   2.054  0.2055  0.2222  0.1036
  445MOL0     H61350   6.354   5.585   1.892 -1.1828  1.0704 -0.3636
  445MOL0     H61351   6.305   5.402   2.056  1.1982 -1.8650 -0.7470
  445MOL0     H61352   6.473   5.431   2.125 -1.4876  1.1219  0.7418
  445MOL0     H61353   6.413   5.337   1.836 -1.9722  3.8267  1.5607
  445MOL0     H61354   6.575   5.376   1.911 -1.6987  5.1197  1.8320
  445MOL0     H61355   6.427   5.186   2.074 -1.4765  0.9807 -1.0642
  445MOL0     H61356   6.585   5.165   2.004 -1.7980 -2.1922  3.1256
  445MOL0     H61357   6.311   5.108   1.871 -0.4149 -2.2707  2.7079
  445MOL0     H61358   6.459   5.100   1.782  1.1930  2.7859 -0.5360
  445MOL0     H61359   6.240   4.906   2.020 -0.3890 -1.7666  1.5976
  445MOL0     H61360   6.392   4.662   2.233  0.1864  1.0711  0.7623
  445MOL0     H61361   6.401   4.556   2.100  0.8495 -0.0562  1.8334
  445MOL0     H61362   6.145   4.725   2.171 -1.3587  0.4263 -0.3622
  445MOL0     H61363   6.161   4.654   2.008  2.2154 -2.4204 -1.2863
  445MOL0     H61364   6.150   4.490   2.253  0.9132  0.7413  0.6242
  445MOL0     H61365   6.018   4.517   2.151  0.6422  0.8126  1.8814
  445MOL0     H61366   6.110   4.323   2.024  2.2580 -0.8097 -4.5377
  445MOL0     H61367   6.210   4.432   1.959 -0.5706  0.5348  0.7264
  445MOL0     H61368   6.289   4.206   2.346  1.7550 -0.6914 -0.9305
  445MOL0     H61369   6.279   4.072   2.506 -3.7645  2.5943 -2.0024
  445MOL0     H61370   6.342   3.907   2.475  0.7799  0.9492  0.8363
  445MOL0     H61371   6.164   3.939   2.492 -0.1592  0.7251 -0.0930
  445MOL0     H61372   6.380   3.712   1.964  0.5898 -0.3042 -2.3937
  445MOL0     H61373   6.530   3.542   1.902  1.1531 -2.3967 -0.4000
  445MOL0     H61374   6.593   3.333   1.807  1.2836 -1.5619  0.6074
  445MOL0     H61375   6.613   3.178   1.845 -1.4280 -2.9371  2.7376
  445MOL0     H61376   6.337   3.289   1.839  0.2159 -0.0184  0.1103
  445MOL0     H61377   6.416   3.229   1.690  0.7701  1.3324  0.4505
  445MOL0     H61378   6.267   3.056   1.768 -0.9266  0.4520  0.7271
  445MOL0     H61379   6.298   3.070   1.937 -4.8168  2.3072 -1.7116
  445MOL0     H61380   6.434   2.867   1.858  2.0829 -1.2169 -1.0012
  445MOL0     H61381   6.549   2.996   1.859  0.7557 -0.1577 -0.3984
  445MOL0     H61382   6.452   2.824   1.643  0.4023  0.9882 -0.7520
  445MOL0     H61383   6.426   2.993   1.607 -1.5543  1.1763  2.2437
  445MOL0     H61384   6.688   3.032   1.619 -1.0943  1.4047 -2.9811
  445MOL0     H61385   6.632   2.906   1.519  0.8092  1.2899 -0.2817
  445MOL0     H61386   6.664   2.807   1.794 -2.2026  1.8912 -0.5363
  445MOL0     H61387   6.787   2.926   1.774  0.1064  0.5733  0.0898
  445MOL0     H61388   6.895   2.724   1.725  0.7503  2.8203  1.2583
  445MOL0     H61389   6.877   2.811   1.570 -1.7000 -0.6223 -1.2384
  445MOL0     H61390   6.374   3.265   2.188  2.8289  0.7392 -1.0862
  445MOL0     H61391   6.194   3.422   2.234 -0.0017 -0.8827 -0.3917
  445MOL0     H61392   6.163   3.895   1.998 -1.1192 -3.0433  2.2970
  445MOL0     H61393   6.224   4.126   1.931 -2.3361 -0.9640 -0.5257
  445MOL0     H61394   6.875   5.976   2.147 -0.7928  1.2515  2.4455
  445MOL0     H61395   7.056   6.169   2.133  0.6451 -4.3464 -2.6854
  445MOL0     H61396   7.082   6.643   1.747  1.7545 -1.4422 -1.4775
  445MOL0     H61397   7.254   6.817   1.706 -0.0380  1.1331 -0.9200
  445MOL0     H61398   7.484   6.731   1.614  0.2713  0.0353  0.6781
  445MOL0     H61399   7.602   6.852   1.637  0.8006  1.1297  3.0199
  445MOL0     H61400   7.665   6.580   1.632 -2.3568  1.1217 -0.8009
  445MOL0     H61401   7.652   6.594   1.798  0.6987 -0.8809  0.3568
  445MOL0     H61402   7.818   6.771   1.614 -3.8934 -0.7448 -2.2923
  445MOL0     H61403   7.813   6.796   1.794 -0.5929 -0.6423 -0.7421
  445MOL0     H61404   7.920   6.548   1.658 -1.5455  0.1475 -0.4427
  445MOL0     H61405   7.876   6.565   1.829 -0.8359  0.9605  0.5483
  445MOL0     H61406   8.272   6.686   1.778 -0.3576 -0.0699  1.0401
  445MOL0     H61407   7.500   6.621   2.000 -0.3261  0.6799  0.5311
  445MOL0     H61408   7.447   6.375   2.059  0.5529  2.2639  0.9810
  445MOL0     H61409   7.306   6.425   2.162 -0.2200 -0.8444  0.1147
  445MOL0     H61410   7.286   6.315   2.028 -0.2012  0.6842 -0.3572
  446MOL0     O61411   2.848   5.418   8.434 -0.1531  0.3814 -0.4978
  446MOL0     C61412   2.952   5.413   8.370 -0.8237 -0.1668 -0.3644
  446MOL0     O61413   3.079   5.446   8.420 -0.3050  0.2458 -0.4096
  446MOL0     C61414   3.103   5.478   8.553  0.5953  0.1583  0.0323
  446MOL0     C61415   3.042   5.398   8.656 -0.2168 -1.2745  0.0483
  446MOL0     C61416   3.071   5.422   8.783  0.0163 -0.0191 -0.3264
  446MOL0     C61417   3.157   5.523   8.819 -0.4464  0.6077  0.2841
  446MOL0     O61418   3.202   5.540   8.948 -0.2155 -0.1966  0.0571
  446MOL0     C61419   3.135   5.651   9.007  0.9137  0.2857  0.4205
  446MOL0     C61420   3.174   5.651   9.159  0.6971  0.4832  0.2218
  446MOL0     C61421   3.126   5.783   9.228 -0.0217 -0.9499 -0.0380
  446MOL0     C61422   2.969   5.794   9.237 -0.0227 -0.2448 -0.3445
  446MOL0     C61423   2.916   5.871   9.347 -0.3458  0.1187 -0.6853
  446MOL0     C61424   2.765   5.876   9.348  0.2089  0.1284  0.3051
  446MOL0     C61425   2.722   5.994   9.433  0.0851  0.0741 -0.1231
  446MOL0     C61426   2.738   5.955   9.583 -0.0105  0.5918  0.1661
  446MOL0     N61427   2.642   5.846   9.609  0.4335  0.0096  0.5518
  446MOL0     C61428   2.670   5.713   9.616 -0.6787  0.9539  0.0741
  446MOL0     C61429   2.560   5.649   9.666 -0.7625  0.9170 -0.0252
  446MOL0     C61430   2.553   5.506   9.719 -0.1404  0.8946 -0.6240
  446MOL0     C61431   2.625   5.484   9.859  0.0421 -0.2140 -0.1432
  446MOL0     C61432   2.760   5.535   9.865  0.5457  0.5352  0.3050
  446MOL0     C61433   2.824   5.522  10.003  0.3058 -0.1160 -0.8875
  446MOL0     O61434   2.948   5.583   9.995  0.1054  0.4955  0.0414
  446MOL0     C61435   2.997   5.626  10.115 -0.5931  0.3127  0.3155
  446MOL0     C61436   3.141   5.621  10.135  0.7596 -1.2026  0.0434
  446MOL0     C61437   3.194   5.674  10.254 -0.9641 -0.3141  0.4095
  446MOL0     C61438   3.340   5.642  10.271 -0.2836 -0.1043  0.2533
  446MOL0     C61439   3.115   5.743  10.344 -0.4384  0.3051 -0.8255
  446MOL0     C61440   3.165   5.780  10.481  0.6479 -0.4548  0.3971
  446MOL0     O61441   3.065   5.801  10.579  0.2686  0.4994  0.6596
  446MOL0     C61442   3.113   5.819  10.703 -1.3083 -0.0131 -0.0410
  446MOL0     C61443   3.025   5.900  10.774  0.3312  0.1280  0.6652
  446MOL0     C61444   3.056   5.916  10.912 -0.5289  0.0872 -0.2329
  446MOL0     C61445   3.165   5.853  10.980 -0.2237 -0.4402 -0.1147
  446MOL0     O61446   3.188   5.866  11.115 -0.4543  0.3806 -0.4691
  446MOL0     C61447   3.091   5.927  11.208 -0.2300  0.2285  0.5065
  446MOL0     C61448   3.089   5.844  11.333  0.0443  1.0597 -0.1633
  446MOL0     C61449   3.019   5.923  11.440 -0.3046 -0.7158 -0.1215
  446MOL0     C61450   2.995   5.854  11.568  0.6188  0.2633 -0.4973
  446MOL0     C61451   2.892   5.919  11.660  0.1818 -0.2357  0.5386
  446MOL0     C61452   2.756   5.931  11.600 -0.1440 -0.1855 -0.2127
  446MOL0     C61453   2.663   6.026  11.675 -0.0491  0.3743 -0.5033
  446MOL0     C61454   2.517   6.006  11.644  0.7040 -0.5210  1.0595
  446MOL0    Cl61455   2.495   5.990  11.461 -0.1386 -0.2533  0.3407
  446MOL0     C61456   3.242   5.782  10.896  0.4681  0.5999  0.5888
  446MOL0     C61457   3.223   5.763  10.762 -0.1059 -0.1961  0.1065
  446MOL0     O61458   3.282   5.798  10.496 -0.5560  0.0032 -0.7182
  446MOL0     C61459   2.979   5.752  10.322  0.2780 -0.3679  0.0894
  446MOL0     C61460   2.925   5.698  10.209 -0.9548 -1.0625  0.4518
  446MOL0     N61461   2.455   5.741   9.678 -0.6823  0.3884  0.2812
  446MOL0     N61462   2.516   5.853   9.651  0.3193 -0.7522  0.2542
  446MOL0     C61463   3.217   5.603   8.719  0.2336 -0.7628 -0.1157
  446MOL0     C61464   3.187   5.588   8.581  1.0055 -0.3891 -0.0899
  446MOL0     C61465   2.936   5.408   8.220  0.0088 -0.7761 -1.2096
  446MOL0     C61466   2.907   5.285   8.172 -0.0641  0.4159 -0.4449
  446MOL0     C61467   2.890   5.265   8.036  0.3379  0.4725 -0.2704
  446MOL0     C61468   2.887   5.369   7.950 -0.2123 -0.1989  0.1562
  446MOL0     O61469   2.869   5.350   7.812  0.2064  0.9013 -0.8165
  446MOL0     C61470   2.784   5.451   7.748 -0.4930 -0.3258 -0.3271
  446MOL0     C61471   2.690   5.370   7.665  0.3470  0.9821  0.3046
  446MOL0     C61472   2.748   5.273   7.558 -0.0074 -0.0552 -0.4643
  446MOL0     C61473   2.654   5.157   7.514 -0.4071  0.1197 -0.3543
  446MOL0     C61474   2.592   5.079   7.626 -0.1066 -0.5653 -0.3094
  446MOL0     C61475   2.528   5.028   7.710  0.7769  0.6810 -0.5995
  446MOL0     C61476   2.932   5.496   8.002 -0.6688  0.1708 -0.0447
  446MOL0     C61477   2.962   5.523   8.143 -0.6210  0.7157 -0.3003
  446MOL0     C61478   3.016   5.658   8.186  0.6818  0.1509 -0.1193
  446MOL0     H61479   2.963   5.326   8.637 -2.8010  1.4989 -0.3668
  446MOL0     H61480   3.025   5.358   8.857 -1.1086 -0.0633 -1.0316
  446MOL0     H61481   3.026   5.638   9.004  1.2747 -4.8618 -0.9890
  446MOL0     H61482   3.162   5.751   8.974 -3.1038  1.9564  1.5519
  446MOL0     H61483   3.129   5.561   9.202  0.5618 -0.3702 -1.6210
  446MOL0     H61484   3.283   5.645   9.164  0.8689  1.2363 -1.8309
  446MOL0     H61485   3.158   5.768   9.331 -2.3537 -0.8009  0.7736
  446MOL0     H61486   3.170   5.878   9.196 -0.5631 -0.4799  0.5811
  446MOL0     H61487   2.933   5.836   9.142 -1.7195  0.9025  0.7596
  446MOL0     H61488   2.928   5.693   9.235  0.7338 -0.5474 -0.8243
  446MOL0     H61489   2.963   5.969   9.331 -0.7971  0.6241  0.9728
  446MOL0     H61490   2.954   5.834   9.442  1.4879 -0.6161 -1.6427
  446MOL0     H61491   2.736   5.897   9.245 -1.0142 -0.4395  0.5111
  446MOL0     H61492   2.725   5.776   9.365  5.3042 -2.5515 -1.5680
  446MOL0     H61493   2.615   6.016   9.425  0.6043  2.8491 -0.2361
  446MOL0     H61494   2.773   6.087   9.408 -0.7525  0.8522  0.9775
  446MOL0     H61495   2.844   5.930   9.591  1.3978  5.1729 -1.1219
  446MOL0     H61496   2.719   6.047   9.639 -3.2836 -0.9162  1.8068
  446MOL0     H61497   2.770   5.673   9.596  0.2839  1.7659  2.7671
  446MOL0     H61498   2.603   5.435   9.653  0.9374  1.2810 -0.2469
  446MOL0     H61499   2.447   5.479   9.727 -0.1506  0.8178 -1.0145
  446MOL0     H61500   2.558   5.535   9.929  1.6314 -0.7161  1.8267
  446MOL0     H61501   2.628   5.375   9.874  2.7100 -0.2147 -0.1701
  446MOL0     H61502   2.832   5.490   9.796  0.0262  2.0252 -1.2891
  446MOL0     H61503   2.757   5.639   9.831  0.2057 -0.6749 -3.9138
  446MOL0     H61504   2.757   5.557  10.082  1.8841 -0.7739  0.8055
  446MOL0     H61505   2.842   5.418  10.030  2.8613 -0.5397 -3.7089
  446MOL0     H61506   3.201   5.569  10.060  2.9322 -2.6773  2.6144
  446MOL0     H61507   3.383   5.593  10.183 -2.9229  0.9616 -1.7688
  446MOL0     H61508   3.350   5.581  10.361 -0.1312  1.4781  1.3418
  446MOL0     H61509   3.402   5.731  10.285 -0.2017 -0.4487  2.3149
  446MOL0     H61510   2.931   5.933  10.732  1.4935  1.5514 -0.9813
  446MOL0     H61511   2.991   5.970  10.979  0.4794  1.3077 -0.1989
  446MOL0     H61512   3.120   6.031  11.227 -0.7807  0.4134  0.3612
  446MOL0     H61513   2.991   5.941  11.166  0.0551  2.1922  0.3835
  446MOL0     H61514   3.027   5.754  11.324 -1.7013  2.1539  0.3724
  446MOL0     H61515   3.183   5.826  11.385 -1.1526  3.0238  2.9694
  446MOL0     H61516   2.927   5.965  11.400  0.8074  2.4402  0.3641
  446MOL0     H61517   3.085   6.009  11.455  1.8113 -2.7290  3.5874
  446MOL0     H61518   3.093   5.834  11.613  0.2075 -2.9792 -0.8098
  446MOL0     H61519   2.953   5.757  11.540 -0.5791  1.3216 -2.6174
  446MOL0     H61520   2.895   5.879  11.762 -1.2066  1.0082  1.0897
  446MOL0     H61521   2.931   6.020  11.672  0.4206 -0.3273  0.5449
  446MOL0     H61522   2.713   5.830  11.598 -0.8436  0.1167 -1.6287
  446MOL0     H61523   2.757   5.974  11.500  2.0253  0.6117  0.0900
  446MOL0     H61524   2.692   6.129  11.653 -0.7764  1.3257  2.5405
  446MOL0     H61525   2.684   6.012  11.781 -0.0841 -0.9297 -0.6519
  446MOL0     H61526   2.466   6.100  11.669  1.2023  1.5907 -4.5073
  446MOL0     H61527   2.463   5.927  11.697 -1.9724  1.3264  1.2872
  446MOL0     H61528   3.331   5.737  10.939 -0.3739 -0.8205  0.9091
  446MOL0     H61529   3.302   5.710  10.709 -0.1987  0.8340 -1.1002
  446MOL0     H61530   2.914   5.806  10.389 -0.0696  1.1416 -1.3977
  446MOL0     H61531   2.821   5.720  10.188  0.0430  1.8045 -2.3292
  446MOL0     H61532   3.274   5.684   8.762 -2.5517  1.7304 -0.7848
  446MOL0     H61533   3.230   5.649   8.502 -0.2146 -0.2419 -0.6623
  446MOL0     H61534   2.902   5.200   8.239 -1.6799 -0.2441 -1.3566
  446MOL0     H61535   2.862   5.166   8.003 -2.4745  1.5673 -1.4928
  446MOL0     H61536   2.738   5.502   7.833 -0.0954 -1.2500  0.4622
  446MOL0     H61537   2.839   5.522   7.684  3.4138 -3.1412 -0.4267
  446MOL0     H61538   2.621   5.434   7.609  0.4843  0.5135 -0.4191
  446MOL0     H61539   2.634   5.310   7.737  3.5636 -2.0668  0.5702
  446MOL0     H61540   2.783   5.325   7.468  3.9453  1.3779  1.6569
  446MOL0     H61541   2.842   5.234   7.598  0.0435  1.0791  0.5769
  446MOL0     H61542   2.713   5.088   7.451 -0.4019 -0.0767 -0.1369
  446MOL0     H61543   2.574   5.208   7.461  2.3818  3.4890 -1.6677
  446MOL0     H61544   2.479   4.969   7.785  1.9827 -0.6934 -0.8388
  446MOL0     H61545   2.951   5.573   7.927 -1.4635 -1.1974 -1.6942
  446MOL0     H61546   3.117   5.670   8.224  0.1080 -0.1775  1.5798
  446MOL0     H61547   3.011   5.720   8.096 -0.3554 -0.3985 -0.4699
  446MOL0     H61548   2.937   5.699   8.250  0.2356 -1.5750  0.5050
  447MOL0     O61549   4.091   2.932   5.786  0.5662 -0.0349  0.1426
  447MOL0     C61550   4.156   2.885   5.700  0.2531  0.1871 -0.1747
  447MOL0     O61551   4.131   2.914   5.570  0.0328 -0.0774  0.5110
  447MOL0     C61552   4.014   2.985   5.529  0.1368  1.0069  0.5532
  447MOL0     C61553   4.028   3.114   5.502  0.7167  0.4221  1.2798
  447MOL0     C61554   3.908   3.179   5.466 -0.2952  0.0543  0.1385
  447MOL0     C61555   3.785   3.110   5.435  0.1246 -0.2363  0.6116
  447MOL0     O61556   3.682   3.195   5.402  0.3252 -0.8242 -0.0449
  447MOL0     C61557   3.540   3.144   5.408 -0.2749  0.5821 -0.3276
  447MOL0     C61558   3.459   3.264   5.402  0.5390  0.5914 -0.2806
  447MOL0     C61559   3.438   3.325   5.263 -0.3508  0.1774  0.8048
  447MOL0     C61560   3.304   3.394   5.264 -0.0155  0.0671 -0.4179
  447MOL0     C61561   3.268   3.487   5.152 -0.3838 -0.6794  0.6559
  447MOL0     C61562   3.231   3.399   5.034 -0.0465 -0.7452  0.8910
  447MOL0     C61563   3.187   3.475   4.905 -0.5125  0.3935  0.6039
  447MOL0     C61564   3.179   3.399   4.772 -0.6069 -0.3297  0.0057
  447MOL0     N61565   3.308   3.342   4.726  0.2390 -0.3871 -0.3709
  447MOL0     C61566   3.439   3.404   4.716 -0.1408  0.9061  0.1064
  447MOL0     C61567   3.523   3.295   4.703 -0.3312 -0.6642 -0.9655
  447MOL0     C61568   3.669   3.305   4.675 -0.0426 -0.4173  0.3972
  447MOL0     C61569   3.756   3.318   4.798 -0.6361 -0.2041  0.7119
  447MOL0     C61570   3.874   3.211   4.810 -0.4470  0.6280  0.4956
  447MOL0     C61571   3.955   3.257   4.931  0.6142  0.1379 -0.8449
  447MOL0     O61572   4.092   3.220   4.900 -0.1161 -0.5496  0.6581
  447MOL0     C61573   4.195   3.244   4.981 -0.7647 -0.1393  1.1181
  447MOL0     C61574   4.187   3.319   5.105 -0.4535 -0.4059  0.1442
  447MOL0     C61575   4.298   3.322   5.191  0.8361 -0.5729  0.0825
  447MOL0     C61576   4.284   3.409   5.316  0.2282 -0.6039 -0.0956
  447MOL0     C61577   4.423   3.259   5.153  0.0509 -0.1552  0.2629
  447MOL0     C61578   4.533   3.250   5.244 -0.7095  0.2840 -0.5455
  447MOL0     O61579   4.507   3.210   5.372  0.7978  0.6524  0.1025
  447MOL0     C61580   4.600   3.166   5.460  0.9360 -0.1254 -0.1093
  447MOL0     C61581   4.572   3.063   5.548  0.1408 -0.0844  0.4220
  447MOL0     C61582   4.669   3.016   5.646 -0.0635 -0.2895  0.1136
  447MOL0     C61583   4.795   3.073   5.645  0.3787 -0.0295  0.3775
  447MOL0     O61584   4.884   3.010   5.732  0.3077 -0.0264  0.2436
  447MOL0     C61585   5.021   3.053   5.731  0.4835 -0.3724 -0.0053
  447MOL0     C61586   5.096   3.022   5.592  0.2850  0.1100  0.3546
  447MOL0     C61587   5.237   3.058   5.604 -0.3995  0.2882  0.3337
  447MOL0     C61588   5.326   2.975   5.700 -0.8202 -1.0725  0.5455
  447MOL0     C61589   5.349   2.830   5.648  0.5707 -0.1379 -0.2000
  447MOL0     C61590   5.473   2.770   5.708  0.8854  0.0698  0.3565
  447MOL0     C61591   5.437   2.741   5.854  0.6827 -0.3458 -0.4354
  447MOL0     C61592   5.525   2.633   5.929 -0.0264 -0.6838 -0.4968
  447MOL0    Cl61593   5.697   2.690   5.911  0.0337 -0.3546  0.0552
  447MOL0     C61594   4.817   3.193   5.572 -0.2461 -0.0225  0.1300
  447MOL0     C61595   4.723   3.229   5.475 -0.6457  0.3456 -0.2109
  447MOL0     O61596   4.643   3.274   5.193 -0.4581  0.7865  0.4571
  447MOL0     C61597   4.434   3.201   5.023  0.1698  0.1941  1.1843
  447MOL0     C61598   4.319   3.196   4.939 -0.3068 -1.0616 -0.6555
  447MOL0     N61599   3.453   3.176   4.708  0.6326 -0.0990 -0.2577
  447MOL0     N61600   3.326   3.204   4.727 -0.1346 -0.0901  0.6832
  447MOL0     C61601   3.778   2.977   5.461 -0.8659 -0.7589 -0.3492
  447MOL0     C61602   3.891   2.919   5.511 -1.1999  0.9104 -0.3107
  447MOL0     C61603   4.279   2.796   5.724  0.1588 -0.5545 -0.0102
  447MOL0     C61604   4.357   2.750   5.606  0.7253 -0.5133 -0.2279
  447MOL0     C61605   4.473   2.669   5.624  0.5448  0.3559  0.2291
  447MOL0     C61606   4.519   2.642   5.756  0.4856 -0.8893  0.5315
  447MOL0     O61607   4.626   2.562   5.790  0.1332 -0.2762 -0.6077
  447MOL0     C61608   4.730   2.532   5.694 -0.2091 -0.1878 -0.9172
  447MOL0     C61609   4.804   2.670   5.658  0.0251  0.1843  0.2482
  447MOL0     C61610   4.924   2.612   5.570  0.4203  0.4587 -0.1534
  447MOL0     C61611   5.037   2.546   5.641 -0.3055 -0.2444 -0.3178
  447MOL0     C61612   5.165   2.541   5.566  1.1043  0.4269  0.1193
  447MOL0     C61613   5.271   2.522   5.515 -0.9370  0.4846  0.3545
  447MOL0     C61614   4.457   2.707   5.857  0.1087  0.1914 -0.0496
  447MOL0     C61615   4.342   2.787   5.851  0.6955  0.9471  0.0896
  447MOL0     C61616   4.295   2.835   5.991 -0.7740 -0.1514 -0.5340
  447MOL0     H61617   4.121   3.169   5.510  0.3144  1.1343  1.1490
  447MOL0     H61618   3.910   3.287   5.459  0.6106 -0.0320 -2.7821
  447MOL0     H61619   3.505   3.115   5.508 -3.0437  2.7312 -0.5555
  447MOL0     H61620   3.510   3.073   5.331  1.3870 -2.2322  1.4114
  447MOL0     H61621   3.362   3.228   5.437  0.7070 -3.7740 -3.5180
  447MOL0     H61622   3.504   3.340   5.467 -0.0485  0.0554  0.7826
  447MOL0     H61623   3.528   3.387   5.253 -0.3978 -0.0332 -1.4867
  447MOL0     H61624   3.438   3.262   5.174  0.8703 -2.5473  2.6098
  447MOL0     H61625   3.224   3.325   5.290  0.9676 -0.9069  0.0877
  447MOL0     H61626   3.298   3.459   5.352  1.8021  1.6786 -1.4113
  447MOL0     H61627   3.357   3.541   5.116 -0.0046 -3.2464 -2.8050
  447MOL0     H61628   3.185   3.550   5.184 -1.1290 -2.7065  2.9740
  447MOL0     H61629   3.314   3.333   5.005 -0.7815 -0.6760 -1.6258
  447MOL0     H61630   3.147   3.336   5.063 -2.1563 -1.0129 -4.4987
  447MOL0     H61631   3.265   3.551   4.894 -0.0131  0.2168  2.5860
  447MOL0     H61632   3.089   3.521   4.918 -0.5441  0.9679 -1.2901
  447MOL0     H61633   3.122   3.309   4.796  0.4697 -1.5525 -1.7435
  447MOL0     H61634   3.135   3.454   4.688  0.1733  1.2283  0.5658
  447MOL0     H61635   3.479   3.505   4.711  0.8972  0.4804 -0.5935
  447MOL0     H61636   3.689   3.391   4.610 -1.1571  1.6499  2.6205
  447MOL0     H61637   3.699   3.215   4.621 -1.3991 -0.1763 -0.8177
  447MOL0     H61638   3.798   3.419   4.795 -1.9683  0.3667  0.2509
  447MOL0     H61639   3.707   3.308   4.895 -0.3721  2.0206  1.1355
  447MOL0     H61640   3.845   3.105   4.817 -0.4216  0.4809 -1.2997
  447MOL0     H61641   3.940   3.230   4.725 -2.0610  2.5017 -0.3910
  447MOL0     H61642   3.943   3.365   4.939 -2.5353 -0.2048  1.0696
  447MOL0     H61643   3.912   3.221   5.025 -1.2026 -0.9149 -1.9984
  447MOL0     H61644   4.095   3.359   5.144 -0.6477 -0.4449 -0.2673
  447MOL0     H61645   4.370   3.401   5.384 -0.7040 -2.0930  0.9453
  447MOL0     H61646   4.196   3.375   5.371 -1.8723  0.1376 -2.7484
  447MOL0     H61647   4.258   3.511   5.286  0.0183 -1.1793 -2.0031
  447MOL0     H61648   4.472   3.023   5.562 -0.7135  1.3910 -1.1226
  447MOL0     H61649   4.636   2.936   5.710  1.6390 -1.2010 -0.0768
  447MOL0     H61650   5.020   3.154   5.772 -1.5683 -1.2763  2.3850
  447MOL0     H61651   5.073   2.996   5.808 -0.6534 -2.0251 -0.4084
  447MOL0     H61652   5.087   2.914   5.578  1.6575  0.0576 -0.3440
  447MOL0     H61653   5.050   3.060   5.501  2.4006 -0.8130 -1.1830
  447MOL0     H61654   5.256   3.165   5.618  1.4334  0.5001 -2.6934
  447MOL0     H61655   5.277   3.053   5.502  2.6902  0.7706  1.4190
  447MOL0     H61656   5.290   2.963   5.803 -2.7538 -5.4496 -0.4239
  447MOL0     H61657   5.417   3.035   5.715 -2.3157  1.3343  0.6009
  447MOL0     H61658   5.260   2.770   5.671  1.0734  0.0858  2.6944
  447MOL0     H61659   5.353   2.834   5.538 -1.5698  2.0530 -0.2792
  447MOL0     H61660   5.561   2.834   5.707  1.9695 -1.3607 -0.6534
  447MOL0     H61661   5.517   2.687   5.651  0.0748  1.3271 -2.2761
  447MOL0     H61662   5.331   2.713   5.860 -0.7872  3.9929 -2.1184
  447MOL0     H61663   5.432   2.835   5.910  2.6905  0.0000 -0.7870
  447MOL0     H61664   5.519   2.529   5.893  2.0951 -1.5030  1.2637
  447MOL0     H61665   5.493   2.632   6.034 -0.6757  1.3179 -0.6506
  447MOL0     H61666   4.912   3.245   5.580  0.3518 -0.9496 -0.7085
  447MOL0     H61667   4.735   3.311   5.406  0.7896 -0.0870 -0.5054
  447MOL0     H61668   4.531   3.159   4.999  0.2941  0.4480  1.2310
  447MOL0     H61669   4.329   3.144   4.844  1.2092  0.0646 -1.1527
  447MOL0     H61670   3.681   2.930   5.454 -1.0202 -0.6729  0.9278
  447MOL0     H61671   3.881   2.813   5.532  4.7841 -0.4969 -2.5500
  447MOL0     H61672   4.302   2.748   5.512  0.0626  1.4428  0.0557
  447MOL0     H61673   4.518   2.610   5.545 -0.1746 -0.4074  0.3753
  447MOL0     H61674   4.808   2.468   5.736  2.1765  0.3805 -4.0988
  447MOL0     H61675   4.694   2.478   5.606 -3.8025 -0.7246  0.6892
  447MOL0     H61676   4.840   2.711   5.753  1.3710 -1.5404  0.5436
  447MOL0     H61677   4.739   2.742   5.608  1.5075  2.8070  1.8908
  447MOL0     H61678   4.885   2.542   5.494  0.7423 -0.6812  0.7034
  447MOL0     H61679   4.967   2.702   5.526  1.1183  0.7288  1.0483
  447MOL0     H61680   5.015   2.442   5.666 -0.1082 -0.4450 -0.9574
  447MOL0     H61681   5.040   2.593   5.740 -3.4235 -3.0805  1.3170
  447MOL0     H61682   5.359   2.501   5.457 -0.7690 -1.1239  1.1418
  447MOL0     H61683   4.503   2.685   5.953 -0.9897 -0.1427  0.4157
  447MOL0     H61684   4.198   2.886   6.001  0.7773  2.9046  0.1298
  447MOL0     H61685   4.294   2.750   6.059 -1.4361 -0.3452 -0.7713
  447MOL0     H61686   4.371   2.908   6.018  0.4818 -1.5308 -0.2309
  448MOL0     O61687   8.240  10.320   1.445 -0.1614 -0.2514 -0.4585
  448MOL0     C61688   8.289  10.394   1.359 -0.1739  1.0487  0.5088
  448MOL0     O61689   8.374  10.502   1.386 -0.5463  0.2631  0.4316
  448MOL0     C61690   8.421  10.515   1.511 -0.7020 -0.2288 -0.1187
  448MOL0     C61691   8.373  10.617   1.607  0.1631  1.3134 -0.6521
  448MOL0     C61692   8.432  10.614   1.740  0.7907 -1.3042  0.3283
  448MOL0     C61693   8.525  10.524   1.791 -0.4127  0.5847  1.0086
  448MOL0     O61694   8.567  10.493   1.921 -0.1989 -0.1357 -0.0357
  448MOL0     C61695   8.483  10.529   2.029  1.1392  0.2729  0.1676
  448MOL0     C61696   8.566  10.507   2.153 -0.3135  0.7231  0.3289
  448MOL0     C61697   8.649  10.637   2.169 -0.3143  0.6357 -0.1229
  448MOL0     C61698   8.788  10.634   2.091 -1.4166  0.4516  0.0186
  448MOL0     C61699   8.905  10.717   2.154 -0.2075 -0.0058 -0.5052
  448MOL0     C61700   8.856  10.853   2.184  0.2279 -0.8162 -0.3042
  448MOL0     C61701   8.970  10.942   2.227 -0.5252 -0.2376 -0.2074
  448MOL0     C61702   8.935  11.087   2.240  0.5582  0.5011 -0.2299
  448MOL0     N61703   8.828  11.133   2.335 -0.1652  0.5354  0.5106
  448MOL0     C61704   8.690  11.112   2.327  0.1207 -0.2446  0.5311
  448MOL0     C61705   8.646  11.200   2.426  0.4854  0.0127 -0.4758
  448MOL0     C61706   8.506  11.225   2.475  0.3469  0.3380  0.8612
  448MOL0     C61707   8.401  11.129   2.416  0.6066 -0.2167 -0.4683
  448MOL0     C61708   8.345  11.163   2.280  0.0461 -0.4495  0.0697
  448MOL0     C61709   8.212  11.227   2.283  0.1219 -0.6284 -0.2036
  448MOL0     O61710   8.096  11.152   2.329 -0.1113 -0.7729 -0.4076
  448MOL0     C61711   7.988  11.228   2.386  0.2586 -0.2090 -0.5149
  448MOL0     C61712   7.869  11.158   2.432  0.8630  0.7743 -0.1103
  448MOL0     C61713   7.750  11.225   2.465  0.6196  0.2564 -0.2610
  448MOL0     C61714   7.628  11.133   2.487  0.8415 -0.0878  0.1943
  448MOL0     C61715   7.748  11.368   2.454  0.9234 -0.9763 -0.4946
  448MOL0     C61716   7.621  11.434   2.475  0.2393 -0.9994  0.5938
  448MOL0     O61717   7.512  11.380   2.420 -0.4457  0.8010  0.2463
  448MOL0     C61718   7.386  11.432   2.424 -0.8517  0.0928  0.0792
  448MOL0     C61719   7.287  11.342   2.455  0.0659 -0.8970  0.4014
  448MOL0     C61720   7.159  11.385   2.485  0.2842 -1.0854  0.5449
  448MOL0     C61721   7.125  11.526   2.495 -1.2972  0.9247  0.0009
  448MOL0     O61722   7.003  11.558   2.541  0.3475 -0.0132 -1.4140
  448MOL0     C61723   6.945  11.644   2.444 -0.4268 -0.4230  0.2900
  448MOL0     C61724   6.799  11.674   2.491 -0.2020  0.6667 -0.5300
  448MOL0     C61725   6.703  11.558   2.478  0.2410 -0.1935  0.5015
  448MOL0     C61726   6.565  11.596   2.541  0.4977 -1.2283  0.1793
  448MOL0     C61727   6.493  11.469   2.559  0.0197 -0.1062 -0.1382
  448MOL0     C61728   6.359  11.506   2.627 -0.8409  0.3968  0.2813
  448MOL0     C61729   6.266  11.377   2.611 -0.1777 -0.3782  0.0540
  448MOL0     C61730   6.143  11.402   2.687  0.6520 -0.3848 -0.1049
  448MOL0    Cl61731   6.176  11.439   2.852 -0.1267 -0.0770  0.0918
  448MOL0     C61732   7.231  11.617   2.469 -0.3547 -0.3548  0.2630
  448MOL0     C61733   7.350  11.566   2.423 -0.1716  0.1792  0.0767
  448MOL0     O61734   7.628  11.536   2.542  0.7757  0.4289  0.0604
  448MOL0     C61735   7.865  11.436   2.422 -0.0891  0.0355  0.1021
  448MOL0     C61736   7.978  11.370   2.377  0.2205 -0.0138  0.3313
  448MOL0     N61737   8.753  11.250   2.496  0.1450 -0.8367  0.0637
  448MOL0     N61738   8.862  11.210   2.439 -1.0700  0.5217 -0.0884
  448MOL0     C61739   8.581  10.439   1.686  0.7201  0.4625  0.2030
  448MOL0     C61740   8.528  10.439   1.546  0.4823  0.8167 -0.0323
  448MOL0     C61741   8.243  10.374   1.213 -0.1179 -0.3971  1.0069
  448MOL0     C61742   8.329  10.429   1.117  1.4350  0.4962 -0.6821
  448MOL0     C61743   8.296  10.423   0.986 -0.1537  1.0178 -0.0156
  448MOL0     C61744   8.178  10.358   0.943 -0.3985 -0.4608 -0.9518
  448MOL0     O61745   8.142  10.355   0.814 -0.8261  0.8841  0.7509
  448MOL0     C61746   8.232  10.391   0.706  0.1185 -0.2085 -0.4044
  448MOL0     C61747   8.173  10.329   0.585 -0.1234  0.6949 -0.0325
  448MOL0     C61748   8.272  10.339   0.460 -0.3500  0.0316  0.7031
  448MOL0     C61749   8.356  10.205   0.451 -0.3084  0.3465  0.2800
  448MOL0     C61750   8.474  10.244   0.369  0.0170 -0.7723 -0.7696
  448MOL0     C61751   8.572  10.277   0.306 -0.1653  0.2102 -0.4319
  448MOL0     C61752   8.099  10.291   1.041 -0.8732  0.0806  0.8508
  448MOL0     C61753   8.129  10.303   1.179 -0.2219  0.1927 -0.0099
  448MOL0     C61754   8.037  10.234   1.280  0.1285  0.0547  0.5719
  448MOL0     H61755   8.293  10.679   1.568 -1.2414 -0.3456 -0.5017
  448MOL0     H61756   8.373  10.683   1.798  1.5349  2.3721 -2.8362
  448MOL0     H61757   8.392  10.468   2.024 -0.3349  2.4488 -2.4942
  448MOL0     H61758   8.449  10.633   2.030 -3.3444 -0.9648  2.1358
  448MOL0     H61759   8.502  10.493   2.241  0.9691 -3.7400  0.7598
  448MOL0     H61760   8.632  10.421   2.142 -0.2726  0.7198  0.5854
  448MOL0     H61761   8.592  10.724   2.136  1.2615  2.4275  1.5789
  448MOL0     H61762   8.664  10.654   2.276 -2.0629  1.2501  0.0613
  448MOL0     H61763   8.817  10.529   2.084  1.6278  0.9683  2.5940
  448MOL0     H61764   8.775  10.672   1.989  0.4438 -0.2904 -0.5432
  448MOL0     H61765   8.984  10.721   2.078  0.1277  0.8165 -0.1259
  448MOL0     H61766   8.943  10.673   2.246 -1.0859  1.4614  0.6088
  448MOL0     H61767   8.805  10.878   2.091 -1.6470 -1.1116  0.6035
  448MOL0     H61768   8.774  10.859   2.256  0.0586  2.1561 -0.5932
  448MOL0     H61769   9.054  10.936   2.156 -1.6749  0.1239 -1.6604
  448MOL0     H61770   9.014  10.898   2.316  1.0482  1.7251  0.0402
  448MOL0     H61771   9.024  11.143   2.268 -1.0435  1.7264  2.8494
  448MOL0     H61772   8.912  11.122   2.138 -1.0323 -1.8119 -0.7578
  448MOL0     H61773   8.625  11.058   2.259  0.5767 -1.2815  0.9005
  448MOL0     H61774   8.480  11.331   2.468  2.5837  0.9695  1.0684
  448MOL0     H61775   8.500  11.209   2.583 -0.5631 -1.3437  0.5997
  448MOL0     H61776   8.436  11.026   2.405 -0.8208 -0.7463 -0.2505
  448MOL0     H61777   8.318  11.115   2.486  0.1620  0.8030 -0.7836
  448MOL0     H61778   8.428  11.212   2.228  1.5169 -3.2304 -0.3996
  448MOL0     H61779   8.329  11.070   2.224  1.1002 -1.4638  1.3640
  448MOL0     H61780   8.237  11.317   2.339  3.4316  0.5154 -3.2008
  448MOL0     H61781   8.189  11.265   2.183 -1.5984 -0.2349  0.3020
  448MOL0     H61782   7.884  11.051   2.425 -2.6055  0.2737 -2.2685
  448MOL0     H61783   7.571  11.175   2.570  2.4206  2.4191  0.1172
  448MOL0     H61784   7.647  11.028   2.513 -2.4313 -1.4472 -2.2258
  448MOL0     H61785   7.567  11.143   2.397  1.2786 -1.6727 -0.3201
  448MOL0     H61786   7.321  11.239   2.451 -0.7262 -1.2316  1.9255
  448MOL0     H61787   7.076  11.318   2.505 -1.3535  0.6231 -0.2742
  448MOL0     H61788   6.990  11.743   2.431  2.8092 -2.1660 -5.0617
  448MOL0     H61789   6.949  11.596   2.346  2.3501 -0.2596  0.2330
  448MOL0     H61790   6.802  11.698   2.598 -1.8765 -1.2564 -0.0012
  448MOL0     H61791   6.745  11.753   2.438 -1.4583 -0.6402 -1.2520
  448MOL0     H61792   6.750  11.482   2.540 -1.5642 -0.8782  1.1063
  448MOL0     H61793   6.678  11.514   2.381 -2.6262  0.8587  0.6416
  448MOL0     H61794   6.509  11.657   2.470  0.3586 -3.6147 -1.8842
  448MOL0     H61795   6.580  11.657   2.631  0.4549  1.1022 -1.3085
  448MOL0     H61796   6.475  11.429   2.458 -3.2085 -1.9892  1.0578
  448MOL0     H61797   6.552  11.400   2.620 -1.8613 -0.5658  1.2302
  448MOL0     H61798   6.320  11.590   2.570  3.3182  0.9105 -2.2609
  448MOL0     H61799   6.370  11.531   2.733 -1.7607  2.1019  0.0099
  448MOL0     H61800   6.300  11.284   2.658 -2.7051 -1.2183  0.3533
  448MOL0     H61801   6.241  11.360   2.506  0.4514 -0.3852 -0.1011
  448MOL0     H61802   6.080  11.314   2.669  0.6465 -0.1521 -1.3010
  448MOL0     H61803   6.089  11.486   2.645 -0.9411 -2.4774 -2.5800
  448MOL0     H61804   7.219  11.725   2.468 -1.3726 -0.4685 -0.4565
  448MOL0     H61805   7.437  11.630   2.410  0.8184 -1.4047 -1.7369
  448MOL0     H61806   7.858  11.544   2.423 -2.9223 -0.0618 -0.9960
  448MOL0     H61807   8.058  11.433   2.339 -0.7767  1.2189  0.2146
  448MOL0     H61808   8.632  10.350   1.722  0.2130 -0.5845 -1.5396
  448MOL0     H61809   8.568  10.369   1.473 -1.7633 -0.7044  0.1016
  448MOL0     H61810   8.421  10.481   1.140  1.3871 -0.0183  0.7997
  448MOL0     H61811   8.354  10.480   0.914  2.3747 -4.2509 -2.6620
  448MOL0     H61812   8.245  10.499   0.696  2.8443 -0.6151 -2.4031
  448MOL0     H61813   8.336  10.363   0.724  0.1683 -0.4031 -0.9627
  448MOL0     H61814   8.079  10.377   0.557 -0.1389 -1.1578 -3.7985
  448MOL0     H61815   8.158  10.221   0.598  2.5028  0.5664  3.5549
  448MOL0     H61816   8.219  10.350   0.365  0.0312  3.0467  0.7379
  448MOL0     H61817   8.332  10.431   0.465 -0.3391 -0.0149  1.8407
  448MOL0     H61818   8.294  10.133   0.398  0.6694 -1.2524  1.2023
  448MOL0     H61819   8.384  10.150   0.542 -1.1788 -1.4957 -0.5101
  448MOL0     H61820   8.657  10.308   0.249 -0.9610  0.3966 -1.5618
  448MOL0     H61821   8.019  10.228   1.004  1.0814 -1.8652 -0.3423
  448MOL0     H61822   7.985  10.314   1.334  0.5238  0.6203  0.1205
  448MOL0     H61823   7.957  10.183   1.225 -0.6782  1.5540  0.2899
  448MOL0     H61824   8.098  10.167   1.341  2.1079  1.5894  0.3796
  449MOL0     O61825   6.740   0.779  11.094  0.0407 -0.2957  0.1249
  449MOL0     C61826   6.859   0.810  11.116 -0.1506 -0.5059 -0.4560
  449MOL0     O61827   6.900   0.882  11.219 -0.3432  0.1233  0.3131
  449MOL0     C61828   6.842   0.871  11.341  0.5201 -0.0618 -0.5748
  449MOL0     C61829   6.864   0.974  11.438 -0.2877  0.4353 -0.6188
  449MOL0     C61830   6.813   0.964  11.572 -0.1565 -0.0621 -0.4336
  449MOL0     C61831   6.741   0.848  11.607  0.7147 -0.2383 -0.8028
  449MOL0     O61832   6.698   0.835  11.741 -0.2099  0.4656  0.3749
  449MOL0     C61833   6.802   0.782  11.824 -1.0066 -0.2452 -0.6646
  449MOL0     C61834   6.810   0.859  11.954  0.1649  0.4018  0.0429
  449MOL0     C61835   6.729   0.771  12.059 -0.0169 -0.0591 -0.6190
  449MOL0     C61836   6.698   0.847  12.187  0.2522 -0.4590 -0.4456
  449MOL0     C61837   6.645   0.755  12.298 -0.9524 -0.7962 -0.3315
  449MOL0     C61838   6.593   0.846  12.421  0.4650  0.2761  0.6279
  449MOL0     C61839   6.690   0.897  12.520  0.1008  0.2675  0.4247
  449MOL0     C61840   6.780   0.782  12.571 -0.1870  0.1858  0.2888
  449MOL0     N61841   6.867   0.823  12.678  0.3300  0.3394 -0.6627
  449MOL0     C61842   6.992   0.878  12.674  0.2728 -0.3043  0.7773
  449MOL0     C61843   7.024   0.907  12.803 -0.3174 -0.5274 -0.0760
  449MOL0     C61844   7.145   0.971  12.881 -0.7530 -0.0133  0.2112
  449MOL0     C61845   7.094   1.093  12.959  0.3227  0.0809 -0.7276
  449MOL0     C61846   7.223   1.160  12.999 -0.3199 -0.2029 -0.2208
  449MOL0     C61847   7.226   1.200  13.146  0.1004 -0.0038  0.2923
  449MOL0     O61848   7.370   1.196  13.190 -0.4161 -0.4760  0.8649
  449MOL0     C61849   7.405   1.312  13.250 -0.2757 -0.9401  0.0283
  449MOL0     C61850   7.341   1.361  13.369  1.1564  0.3448 -0.1722
  449MOL0     C61851   7.387   1.463  13.446 -0.6028 -0.2673  0.4610
  449MOL0     C61852   7.300   1.510  13.565 -0.6154 -0.6782  0.6660
  449MOL0     C61853   7.515   1.521  13.403  0.8318 -0.6146 -1.3156
  449MOL0     C61854   7.564   1.646  13.474 -0.3347 -0.6741  0.1514
  449MOL0     O61855   7.539   1.667  13.606 -0.5438 -0.4219  0.4050
  449MOL0     C61856   7.588   1.786  13.666 -0.2352 -0.1047  0.5144
  449MOL0     C61857   7.678   1.774  13.771 -0.0242 -0.1830 -0.1850
  449MOL0     C61858   7.732   1.885  13.827 -1.3274  1.3800 -0.9382
  449MOL0     C61859   7.720   2.014  13.781 -1.0394  0.4352  0.2358
  449MOL0     O61860   7.773   2.123  13.844 -0.2036  0.0282  0.7192
  449MOL0     C61861   7.875   2.114  13.945 -0.3402  0.6771  0.1875
  449MOL0     C61862   7.874   2.234  14.032  0.1542 -1.1702 -0.7242
  449MOL0     C61863   7.741   2.232  14.103  0.6437  0.2395 -0.3197
  449MOL0     C61864   7.728   2.343  14.206 -0.4950 -0.4252  0.6717
  449MOL0     C61865   7.580   2.367  14.240 -0.1713  0.5123 -0.0044
  449MOL0     C61866   7.572   2.506  14.305 -0.0513 -0.0790 -0.0871
  449MOL0     C61867   7.424   2.530  14.343  0.3213 -0.6135 -0.4549
  449MOL0     C61868   7.421   2.665  14.418 -0.8779 -0.0572 -0.3879
  449MOL0    Cl61869   7.252   2.683  14.460  0.0040 -0.5345  0.1322
  449MOL0     C61870   7.634   2.027  13.671  1.3951  0.2762 -0.6769
  449MOL0     C61871   7.562   1.918  13.616  0.5093 -0.1917  0.4422
  449MOL0     O61872   7.646   1.712  13.404  0.4626  0.4127 -0.4767
  449MOL0     C61873   7.568   1.487  13.277 -0.3901  1.0420 -0.6968
  449MOL0     C61874   7.513   1.385  13.203  0.0441  0.0593 -0.2015
  449MOL0     N61875   6.926   0.864  12.884 -0.3293  0.0573 -0.4963
  449MOL0     N61876   6.834   0.806  12.806  0.1855 -0.0291 -0.3842
  449MOL0     C61877   6.727   0.739  11.515 -0.1778  0.2297  0.0871
  449MOL0     C61878   6.776   0.754  11.383  0.7100 -0.0553 -0.0578
  449MOL0     C61879   6.965   0.765  11.011  1.0084  0.3028  0.4904
  449MOL0     C61880   6.946   0.639  10.957  0.1486 -0.5470  0.1957
  449MOL0     C61881   7.040   0.585  10.867 -0.6182 -0.5636  0.1529
  449MOL0     C61882   7.155   0.652  10.822 -0.1853  0.3901  0.5098
  449MOL0     O61883   7.238   0.591  10.732 -0.6079 -0.4923 -0.0849
  449MOL0     C61884   7.312   0.671  10.647  0.3909 -0.4302  0.7787
  449MOL0     C61885   7.331   0.573  10.526 -0.5136 -0.8548  0.8268
  449MOL0     C61886   7.394   0.431  10.546 -0.1720 -0.6051 -0.3541
  449MOL0     C61887   7.418   0.361  10.409  1.2173 -1.0365 -0.7780
  449MOL0     C61888   7.419   0.214  10.438  0.3828  0.9832  0.1655
  449MOL0     C61889   7.425   0.092  10.456 -0.2516 -0.6970 -0.8776
  449MOL0     C61890   7.169   0.778  10.878 -0.1150  0.4230  0.4755
  449MOL0     C61891   7.080   0.828  10.977  0.6241 -0.2127 -0.1879
  449MOL0     C61892   7.111   0.970  11.025  0.4991  0.0634  0.6516
  449MOL0     H61893   6.917   1.064  11.408 -1.1165  0.9321 -0.5970
  449MOL0     H61894   6.834   1.043  11.643 -2.3555  2.0483 -1.9786
  449MOL0     H61895   6.898   0.801  11.775 -2.0634  2.3256 -1.9720
  449MOL0     H61896   6.785   0.677  11.851 -1.9192 -0.4159 -1.8188
  449MOL0     H61897   6.917   0.870  11.975  0.1656 -0.1517  0.3574
  449MOL0     H61898   6.763   0.957  11.943  2.1242  1.3015 -0.7679
  449MOL0     H61899   6.638   0.741  12.008  1.0067 -3.3280 -0.7628
  449MOL0     H61900   6.782   0.676  12.073 -1.0407 -0.5194  0.2901
  449MOL0     H61901   6.792   0.884  12.228 -0.6201  0.3855  0.8744
  449MOL0     H61902   6.625   0.929  12.182 -1.5479 -1.9922 -0.6109
  449MOL0     H61903   6.711   0.676  12.336 -2.8927 -0.7496  3.6066
  449MOL0     H61904   6.563   0.691  12.263  0.5974 -3.0587 -0.0897
  449MOL0     H61905   6.539   0.933  12.384 -0.0465 -0.7690 -1.2312
  449MOL0     H61906   6.521   0.779  12.470  0.6749  0.8874  1.8017
  449MOL0     H61907   6.633   0.943  12.601  0.3333  0.6098  0.3984
  449MOL0     H61908   6.759   0.968  12.472 -0.3914  0.2861 -0.2601
  449MOL0     H61909   6.722   0.691  12.588 -0.3016 -0.6314 -3.5035
  449MOL0     H61910   6.847   0.742  12.494 -2.1176  0.8678 -1.8810
  449MOL0     H61911   7.049   0.888  12.582 -0.1074 -3.5558  0.0554
  449MOL0     H61912   7.215   1.000  12.802  0.0175 -1.6027  0.2737
  449MOL0     H61913   7.208   0.907  12.943 -0.0709  2.0887  1.8145
  449MOL0     H61914   7.020   1.158  12.910 -2.5042 -2.6011 -0.2925
  449MOL0     H61915   7.048   1.039  13.042  1.6440  0.3263  0.1987
  449MOL0     H61916   7.312   1.100  12.977 -0.9468 -0.5088 -2.0906
  449MOL0     H61917   7.240   1.251  12.941  1.7815  0.3997  1.2105
  449MOL0     H61918   7.179   1.296  13.168 -0.3420  0.2009 -1.4371
  449MOL0     H61919   7.164   1.125  13.196 -0.3521  0.5091  0.5100
  449MOL0     H61920   7.253   1.300  13.387  0.8010  0.4596 -1.4355
  449MOL0     H61921   7.343   1.484  13.662 -0.7057  0.9821  1.1899
  449MOL0     H61922   7.209   1.450  13.561 -1.7215  0.9776 -0.0809
  449MOL0     H61923   7.265   1.613  13.568 -1.8111 -1.0898  2.1455
  449MOL0     H61924   7.699   1.673  13.805 -1.2971 -0.7964 -1.1717
  449MOL0     H61925   7.797   1.866  13.911  1.4235  1.2573 -2.9688
  449MOL0     H61926   7.853   2.024  14.003 -4.0145  1.9303  0.9845
  449MOL0     H61927   7.976   2.103  13.905 -0.7591  1.0675 -1.0077
  449MOL0     H61928   7.954   2.213  14.104  0.9413 -0.4835 -1.3771
  449MOL0     H61929   7.894   2.321  13.969  1.6718 -1.4452 -0.6636
  449MOL0     H61930   7.734   2.142  14.165 -2.7680  2.8226  3.5714
  449MOL0     H61931   7.653   2.238  14.039  1.1336 -0.5010 -1.0818
  449MOL0     H61932   7.779   2.435  14.177 -2.2023  1.8419  4.1059
  449MOL0     H61933   7.772   2.314  14.302 -0.2694  2.6060  1.5865
  449MOL0     H61934   7.513   2.364  14.154  1.5987 -1.8186 -1.4177
  449MOL0     H61935   7.543   2.288  14.306 -1.8055 -1.5444 -3.1192
  449MOL0     H61936   7.629   2.574  14.243  0.2778 -1.5630 -1.4771
  449MOL0     H61937   7.624   2.503  14.402 -0.4358  0.4674  0.1380
  449MOL0     H61938   7.387   2.441  14.396 -6.3734  2.0432  0.3290
  449MOL0     H61939   7.372   2.534  14.247 -0.8878 -1.3177  0.1418
  449MOL0     H61940   7.457   2.747  14.356 -2.5628  1.3642  0.4182
  449MOL0     H61941   7.479   2.660  14.510 -0.3495  2.7600 -0.4931
  449MOL0     H61942   7.624   2.121  13.619 -0.9277  0.8570  0.6710
  449MOL0     H61943   7.494   1.929  13.532  0.1249  0.8054  0.8706
  449MOL0     H61944   7.645   1.545  13.226  1.1267  0.1406  0.4942
  449MOL0     H61945   7.562   1.353  13.111 -0.2391 -3.4061  0.6934
  449MOL0     H61946   6.694   0.646  11.559  0.6896  0.5564  1.5108
  449MOL0     H61947   6.768   0.672  11.312  0.6196 -0.5150  0.4726
  449MOL0     H61948   6.868   0.573  10.990 -1.1517  0.5770 -0.5179
  449MOL0     H61949   7.021   0.485  10.828  1.4520 -1.1612  0.5305
  449MOL0     H61950   7.265   0.764  10.614  0.0898 -1.3770 -1.7031
  449MOL0     H61951   7.409   0.694  10.692  1.8638  1.7081 -2.9489
  449MOL0     H61952   7.400   0.620  10.454 -2.6153 -0.0823 -0.7930
  449MOL0     H61953   7.234   0.563  10.477 -0.4913  0.3335  0.4928
  449MOL0     H61954   7.492   0.436  10.593 -0.4306 -0.3118  0.1708
  449MOL0     H61955   7.327   0.370  10.607 -1.4410  1.0088 -0.0481
  449MOL0     H61956   7.508   0.385  10.352 -0.6836 -0.4160 -3.7567
  449MOL0     H61957   7.338   0.385  10.339  0.8742 -0.6717 -0.2657
  449MOL0     H61958   7.420  -0.012  10.479  0.9098 -0.5825  0.0136
  449MOL0     H61959   7.251   0.846  10.856  0.7965 -0.2084  1.7740
  449MOL0     H61960   7.154   1.035  10.948 -3.5599  0.9513 -1.1275
  449MOL0     H61961   7.022   1.018  11.068 -1.3164 -2.4852 -0.0247
  449MOL0     H61962   7.187   0.960  11.104 -0.8771  3.6598  2.7131
  450MOL0     O61963   0.780   8.985   1.128 -0.2473  0.0258  0.0195
  450MOL0     C61964   0.768   9.026   1.011 -0.5043  0.7556  0.0073
  450MOL0     O61965   0.850   9.003   0.905 -0.0203  0.1383  0.4901
  450MOL0     C61966   0.958   8.919   0.938 -0.4725 -0.2220  0.0995
  450MOL0     C61967   0.930   8.783   0.962  0.1137  0.4673 -0.3249
  450MOL0     C61968   1.027   8.709   1.015 -0.5289 -0.6592 -0.3093
  450MOL0     C61969   1.165   8.762   1.035  0.8574 -0.1533  1.5131
  450MOL0     O61970   1.258   8.676   1.092 -0.2919 -0.4437 -0.3976
  450MOL0     C61971   1.395   8.721   1.119 -0.8030 -0.1810  0.4977
  450MOL0     C61972   1.459   8.591   1.178 -0.1375 -0.3436  0.7582
  450MOL0     C61973   1.466   8.475   1.080  0.2630 -0.3479 -0.1167
  450MOL0     C61974   1.513   8.345   1.155 -0.2475  0.4934  1.2000
  450MOL0     C61975   1.533   8.222   1.066  0.4254  0.4798 -0.2819
  450MOL0     C61976   1.597   8.111   1.154  0.4753 -0.8638  0.4020
  450MOL0     C61977   1.576   7.980   1.082 -0.3902 -1.2542  0.2556
  450MOL0     C61978   1.671   7.876   1.156  0.2815  0.2956 -0.4407
  450MOL0     N61979   1.646   7.736   1.107 -0.4685 -0.2938 -0.3529
  450MOL0     C61980   1.523   7.682   1.097 -0.1508 -0.2663  0.3332
  450MOL0     C61981   1.544   7.567   1.034 -0.2635 -0.3567  0.4818
  450MOL0     C61982   1.448   7.469   0.969  0.2553  0.3045  0.3152
  450MOL0     C61983   1.454   7.335   1.044 -0.4700  0.2327 -0.6369
  450MOL0     C61984   1.320   7.303   1.113  0.4962 -0.7988 -0.5008
  450MOL0     C61985   1.330   7.192   1.212 -0.1798  0.2014  0.1872
  450MOL0     O61986   1.373   7.074   1.148 -0.1954 -0.1464  0.0228
  450MOL0     C61987   1.437   6.971   1.217  0.1569  0.2884  0.6788
  450MOL0     C61988   1.439   6.950   1.350 -0.6502  0.7964 -0.7738
  450MOL0     C61989   1.499   6.846   1.420  0.8227 -0.5927 -0.1406
  450MOL0     C61990   1.488   6.834   1.570  0.0524  0.2575  0.3747
  450MOL0     C61991   1.568   6.750   1.339 -0.5611  0.0304  0.3856
  450MOL0     C61992   1.614   6.613   1.384 -0.3674 -1.0621 -0.0123
  450MOL0     O61993   1.632   6.523   1.287  0.0648  0.0645 -0.6090
  450MOL0     C61994   1.656   6.394   1.333 -0.4731  0.3780  0.1590
  450MOL0     C61995   1.787   6.342   1.311  0.5394 -0.2433  0.6366
  450MOL0     C61996   1.822   6.223   1.376  0.0751 -1.3206 -0.1251
  450MOL0     C61997   1.742   6.151   1.458  0.2195  0.8269  0.3366
  450MOL0     O61998   1.790   6.033   1.512  0.6306 -0.2941  0.3659
  450MOL0     C61999   1.683   5.940   1.560 -0.3769  0.2199  0.6613
  450MOL0     C62000   1.749   5.807   1.597 -0.3995  0.1588  0.3768
  450MOL0     C62001   1.657   5.690   1.637  0.1425  0.0169  0.2458
  450MOL0     C62002   1.559   5.718   1.757 -0.1174 -0.5339  0.1875
  450MOL0     C62003   1.524   5.583   1.841 -0.6291  0.0134  0.1514
  450MOL0     C62004   1.402   5.597   1.941 -0.3409 -0.5745  0.2536
  450MOL0     C62005   1.435   5.674   2.062  0.0427 -0.2433  0.2115
  450MOL0     C62006   1.314   5.695   2.156  0.1810 -0.2559 -0.0928
  450MOL0    Cl62007   1.280   5.531   2.229  0.2146 -0.4164  0.1589
  450MOL0     C62008   1.609   6.197   1.465  1.8583 -0.2616  0.6224
  450MOL0     C62009   1.567   6.316   1.406  0.2884 -0.1906  0.1657
  450MOL0     O62010   1.610   6.584   1.495 -0.2738 -0.3327 -0.4869
  450MOL0     C62011   1.570   6.770   1.200  0.1959 -0.0292  0.2754
  450MOL0     C62012   1.507   6.877   1.134  0.3494 -0.9011 -0.0801
  450MOL0     N62013   1.683   7.561   1.014  0.0972  0.0383  0.5763
  450MOL0     N62014   1.746   7.657   1.066  0.3083 -0.1232  0.7165
  450MOL0     C62015   1.181   8.900   1.010 -0.0076  0.1040 -0.2628
  450MOL0     C62016   1.084   8.970   0.951 -0.6571  0.4241 -0.1345
  450MOL0     C62017   0.649   9.108   0.977  0.0576 -0.7620  0.8078
  450MOL0     C62018   0.588   9.075   0.854  0.1232  0.6734  0.4250
  450MOL0     C62019   0.470   9.138   0.815 -0.2735  0.5910 -0.1379
  450MOL0     C62020   0.419   9.243   0.892  1.5256  0.2534  0.4032
  450MOL0     O62021   0.299   9.306   0.861  0.9480  0.1781 -0.0106
  450MOL0     C62022   0.190   9.244   0.922  0.4295 -0.5206  0.8516
  450MOL0     C62023   0.113   9.162   0.817  0.0715 -0.4382  0.0516
  450MOL0     C62024   0.048   9.034   0.890  0.2939 -0.8304  0.4419
  450MOL0     C62025  -0.025   8.942   0.808  0.4111 -0.2434  0.8593
  450MOL0     C62026   0.053   8.869   0.705 -0.4851  0.2468  0.5147
  450MOL0     C62027   0.100   8.804   0.616 -0.8998 -0.2163  0.1886
  450MOL0     C62028   0.481   9.272   1.010  0.2340  0.0689 -0.8273
  450MOL0     C62029   0.590   9.199   1.060 -0.6591  0.1728  0.2520
  450MOL0     C62030   0.645   9.228   1.194 -0.0615 -0.6977 -0.0966
  450MOL0     H62031   0.826   8.750   0.962  1.1760 -3.2512  0.4993
  450MOL0     H62032   1.014   8.609   1.055  0.8592 -0.1652  1.4958
  450MOL0     H62033   1.403   8.805   1.188 -2.7665  0.7313 -0.2785
  450MOL0     H62034   1.439   8.749   1.022 -1.5253 -0.2013  0.1535
  450MOL0     H62035   1.556   8.625   1.214  0.4191  0.5721 -1.4493
  450MOL0     H62036   1.405   8.561   1.269  2.2521 -2.2854  1.6559
  450MOL0     H62037   1.366   8.464   1.039  0.7143  3.2175 -2.5658
  450MOL0     H62038   1.519   8.511   0.991 -0.8885 -0.3317 -0.8080
  450MOL0     H62039   1.607   8.353   1.211  2.8065 -1.4543 -3.1276
  450MOL0     H62040   1.442   8.328   1.237 -1.8450  0.2976 -0.1622
  450MOL0     H62041   1.595   8.250   0.981 -0.9543  3.5518 -0.4025
  450MOL0     H62042   1.439   8.182   1.027  0.4753  0.8470 -0.7860
  450MOL0     H62043   1.701   8.143   1.165 -0.2786  2.2476 -0.3419
  450MOL0     H62044   1.552   8.115   1.254  1.0598 -0.6823  0.6609
  450MOL0     H62045   1.596   7.986   0.975 -3.1332  1.3743 -0.2322
  450MOL0     H62046   1.473   7.946   1.096 -0.5711 -1.7667 -1.9568
  450MOL0     H62047   1.778   7.900   1.151  0.9927 -2.0097  1.5460
  450MOL0     H62048   1.658   7.868   1.264  0.2619 -0.0852 -0.4697
  450MOL0     H62049   1.426   7.722   1.123  0.0032  0.5746 -0.3396
  450MOL0     H62050   1.483   7.474   0.865  0.7223  1.5438  0.5125
  450MOL0     H62051   1.348   7.513   0.969 -0.6235 -1.3430 -2.9421
  450MOL0     H62052   1.480   7.250   0.980 -0.6230  1.0616 -1.8250
  450MOL0     H62053   1.538   7.341   1.113 -0.2042 -2.2286 -0.6459
  450MOL0     H62054   1.300   7.385   1.182 -1.0683 -3.4580  2.4661
  450MOL0     H62055   1.242   7.298   1.037  1.4373  0.3562 -1.5950
  450MOL0     H62056   1.397   7.224   1.292 -0.7797  1.8201  0.0804
  450MOL0     H62057   1.240   7.172   1.270 -0.0226 -0.6963  0.1380
  450MOL0     H62058   1.391   7.026   1.411 -0.8461  1.7819 -2.1070
  450MOL0     H62059   1.565   6.775   1.621  2.6898  2.9541 -0.1754
  450MOL0     H62060   1.392   6.799   1.607  0.1049 -0.7616 -0.3918
  450MOL0     H62061   1.492   6.940   1.597  0.0572  1.1673 -2.7321
  450MOL0     H62062   1.862   6.387   1.246 -1.2004  1.9610  0.0239
  450MOL0     H62063   1.927   6.201   1.358  0.6662 -0.2093  1.6743
  450MOL0     H62064   1.618   5.981   1.637 -1.6495  2.6424 -1.5704
  450MOL0     H62065   1.612   5.922   1.480 -0.0599  1.8003 -0.0187
  450MOL0     H62066   1.808   5.764   1.516  0.1092 -0.0719  0.8575
  450MOL0     H62067   1.812   5.839   1.680 -2.2947  2.5163  1.0365
  450MOL0     H62068   1.724   5.606   1.659  1.4940  1.5629  2.3941
  450MOL0     H62069   1.600   5.657   1.549  2.7411  0.4166 -1.7030
  450MOL0     H62070   1.467   5.764   1.720  0.1478 -0.8270 -0.8515
  450MOL0     H62071   1.612   5.783   1.828 -0.8767 -0.7674  0.9917
  450MOL0     H62072   1.505   5.504   1.768  1.3275 -0.3666 -0.0027
  450MOL0     H62073   1.613   5.563   1.901  1.0881  2.6663 -1.3233
  450MOL0     H62074   1.388   5.493   1.971  1.9303 -2.1092 -3.3295
  450MOL0     H62075   1.307   5.626   1.896  0.2620  0.1389 -0.5890
  450MOL0     H62076   1.476   5.771   2.031 -1.7601  0.6406  0.4505
  450MOL0     H62077   1.517   5.627   2.117  0.3988 -0.7006 -0.6941
  450MOL0     H62078   1.234   5.740   2.096  1.2943  1.0509 -0.6381
  450MOL0     H62079   1.336   5.763   2.238 -1.4640  1.1711 -0.7695
  450MOL0     H62080   1.526   6.153   1.521 -1.2108  1.7513 -1.9674
  450MOL0     H62081   1.472   6.360   1.435  0.7050 -0.1381  1.5422
  450MOL0     H62082   1.613   6.698   1.131  0.1091  0.1964 -0.0154
  450MOL0     H62083   1.512   6.883   1.025 -0.0237  1.7770 -0.0108
  450MOL0     H62084   1.273   8.946   1.043  0.2875 -0.2536 -0.5710
  450MOL0     H62085   1.085   9.075   0.926 -1.9545  0.4476 -0.1135
  450MOL0     H62086   0.633   8.996   0.794  1.1609 -0.2329  2.2755
  450MOL0     H62087   0.427   9.114   0.718  3.7353 -0.1482 -1.9485
  450MOL0     H62088   0.216   9.183   1.009 -2.2172  0.0029  2.0953
  450MOL0     H62089   0.134   9.329   0.961  3.3543  0.8794  2.3240
  450MOL0     H62090   0.185   9.119   0.747 -1.2400 -2.0323 -0.3634
  450MOL0     H62091   0.038   9.227   0.771 -1.1006 -2.0787 -0.4176
  450MOL0     H62092   0.120   8.977   0.949  3.4007 -0.8479 -3.0518
  450MOL0     H62093  -0.028   9.073   0.960 -2.0007 -4.0169 -0.0445
  450MOL0     H62094  -0.096   9.005   0.753 -1.6256 -3.4831 -0.5716
  450MOL0     H62095  -0.078   8.867   0.868 -0.8030 -0.6320 -0.6302
  450MOL0     H62096   0.149   8.758   0.533  1.9947  3.6387 -0.5350
  450MOL0     H62097   0.449   9.355   1.073  3.3644  1.7110 -1.2041
  450MOL0     H62098   0.586   9.310   1.237 -0.3724 -0.6807 -0.5511
  450MOL0     H62099   0.626   9.141   1.258 -0.1852  0.3791  1.4006
  450MOL0     H62100   0.752   9.246   1.191 -0.3716  1.3197 -0.6279
  451MOL0     O62101   3.152   8.026   9.532  0.2525  0.3829 -0.0800
  451MOL0     C62102   3.031   8.020   9.528 -0.0190  0.6095  0.8394
  451MOL0     O62103   2.948   8.118   9.493  0.1675 -1.3203  0.2140
  451MOL0     C62104   3.004   8.242   9.453 -0.2347 -0.0299  0.4794
  451MOL0     C62105   3.098   8.248   9.347 -0.3777  0.1531 -0.3822
  451MOL0     C62106   3.151   8.372   9.324 -0.8652  0.3235  0.2751
  451MOL0     C62107   3.131   8.487   9.391 -0.7465 -0.4229 -0.0964
  451MOL0     O62108   3.214   8.588   9.361 -0.8343 -0.0114 -0.1186
  451MOL0     C62109   3.218   8.702   9.449  0.6199 -0.4828 -0.2504
  451MOL0     C62110   3.305   8.814   9.398  0.0579 -0.4370 -0.2311
  451MOL0     C62111   3.452   8.764   9.412  0.1651 -0.8622 -0.6816
  451MOL0     C62112   3.545   8.866   9.354  0.0213 -0.8106 -0.7854
  451MOL0     C62113   3.689   8.850   9.398 -0.5915  0.2632 -0.3135
  451MOL0     C62114   3.788   8.939   9.329 -0.1163  0.4327 -0.5553
  451MOL0     C62115   3.932   8.925   9.366 -0.2153  0.1360  0.7422
  451MOL0     C62116   3.968   8.863   9.502  0.4149  0.5333  1.2081
  451MOL0     N62117   3.959   8.954   9.605 -1.1338 -0.7513  0.7482
  451MOL0     C62118   3.981   8.915   9.741  0.0813 -0.3150  0.2103
  451MOL0     C62119   3.977   9.037   9.805 -0.2188  0.6035 -0.4088
  451MOL0     C62120   3.982   9.066   9.951 -0.1570  0.1240  0.4706
  451MOL0     C62121   4.110   9.019  10.010 -0.1083  0.1914 -1.0444
  451MOL0     C62122   4.154   9.100  10.140 -0.4854  1.2141  0.1388
  451MOL0     C62123   4.074   9.060  10.265 -0.6688  0.1237 -0.0492
  451MOL0     O62124   4.105   9.154  10.373  0.0796 -0.3463  0.1645
  451MOL0     C62125   4.226   9.173  10.430  0.2933  0.6162  0.2100
  451MOL0     C62126   4.298   9.291  10.415 -0.4606  0.4956  0.3500
  451MOL0     C62127   4.428   9.310  10.459  0.0451 -0.2045 -0.4402
  451MOL0     C62128   4.492   9.440  10.418  0.0688 -0.4005 -0.5626
  451MOL0     C62129   4.487   9.207  10.534  0.6228 -0.5256  0.3615
  451MOL0     C62130   4.612   9.225  10.601 -0.2283  0.0791 -0.7191
  451MOL0     O62131   4.593   9.225  10.743  0.3614 -0.0199  0.8718
  451MOL0     C62132   4.699   9.265  10.817 -1.1187 -0.1112 -0.4880
  451MOL0     C62133   4.760   9.189  10.917  0.3971  0.7077  0.9571
  451MOL0     C62134   4.863   9.232  10.998  0.0355  0.4652  0.8102
  451MOL0     C62135   4.900   9.363  10.993  0.3986 -0.5384 -0.0121
  451MOL0     O62136   4.993   9.395  11.091 -0.3236  0.2252  0.0164
  451MOL0     C62137   5.061   9.522  11.070 -0.0158 -0.7322  0.0274
  451MOL0     C62138   5.191   9.511  11.140  0.2960 -0.1970  0.1984
  451MOL0     C62139   5.181   9.476  11.284  0.1440  0.6636 -0.4661
  451MOL0     C62140   5.108   9.575  11.372 -0.0029  0.3051 -0.2015
  451MOL0     C62141   5.108   9.517  11.513 -0.1516  0.3992  0.2690
  451MOL0     C62142   5.008   9.587  11.608  0.4897 -0.1312  0.5957
  451MOL0     C62143   5.021   9.543  11.753  0.1395 -0.6284 -0.9142
  451MOL0     C62144   5.119   9.632  11.829 -0.4886 -0.2659 -0.3567
  451MOL0    Cl62145   5.064   9.803  11.794 -0.0144 -0.5101  0.1855
  451MOL0     C62146   4.846   9.451  10.894  0.2076  0.8597 -0.5461
  451MOL0     C62147   4.756   9.397  10.800 -0.0095 -0.3581 -0.3679
  451MOL0     O62148   4.716   9.249  10.537  0.3877 -0.3293 -0.1838
  451MOL0     C62149   4.412   9.095  10.565 -0.7618  0.3552  0.2043
  451MOL0     C62150   4.282   9.072  10.508 -0.6678 -0.6320 -0.1895
  451MOL0     N62151   3.949   9.139   9.717 -0.2020 -0.8207  0.2083
  451MOL0     N62152   3.939   9.089   9.600 -0.3676  0.4666  0.2444
  451MOL0     C62153   3.040   8.484   9.495 -0.2789  0.1162  0.1863
  451MOL0     C62154   2.973   8.360   9.523  0.5386 -0.6461  0.5272
  451MOL0     C62155   2.958   7.885   9.541 -0.0906  0.5080 -0.3519
  451MOL0     C62156   2.815   7.880   9.520  0.1067 -0.6140 -0.2619
  451MOL0     C62157   2.755   7.760   9.533  0.8040 -0.0558 -0.7768
  451MOL0     C62158   2.824   7.638   9.546  0.3859  1.0460  0.6472
  451MOL0     O62159   2.768   7.516   9.526 -0.4412 -0.2947 -0.6485
  451MOL0     C62160   2.626   7.508   9.540  0.2161 -0.3130  0.4060
  451MOL0     C62161   2.590   7.359   9.569 -0.2403 -0.0288  0.1482
  451MOL0     C62162   2.658   7.293   9.691 -0.5241  0.6367  0.4188
  451MOL0     C62163   2.599   7.350   9.818 -0.3064 -0.3339  0.1862
  451MOL0     C62164   2.631   7.263   9.934  1.4017  0.0432  0.3146
  451MOL0     C62165   2.636   7.183  10.024  0.5261  0.6375 -0.2866
  451MOL0     C62166   2.960   7.642   9.573 -0.7569  0.3657  0.0557
  451MOL0     C62167   3.029   7.764   9.575  0.3361 -0.2025  0.6197
  451MOL0     C62168   3.184   7.757   9.615 -0.4951 -0.0283  0.2715
  451MOL0     H62169   3.142   8.159   9.302 -1.1109 -0.5303  0.2171
  451MOL0     H62170   3.228   8.391   9.249 -2.4979 -1.5123 -2.0380
  451MOL0     H62171   3.254   8.670   9.547 -0.1778  1.7929  0.8695
  451MOL0     H62172   3.121   8.749   9.468 -0.4144 -2.5853 -0.0243
  451MOL0     H62173   3.285   8.830   9.292 -1.2005 -2.2179 -0.3094
  451MOL0     H62174   3.278   8.899   9.461  0.5969 -0.5485  0.1608
  451MOL0     H62175   3.482   8.735   9.513  0.7984 -6.0930 -2.0616
  451MOL0     H62176   3.471   8.671   9.357 -0.8414 -1.3580 -0.2337
  451MOL0     H62177   3.532   8.851   9.246 -0.9279 -3.4805 -0.3742
  451MOL0     H62178   3.520   8.971   9.372 -0.3579 -0.7595 -1.5413
  451MOL0     H62179   3.727   8.749   9.379  1.6317  1.1230 -0.7686
  451MOL0     H62180   3.697   8.865   9.506  1.8566  1.5116 -0.5896
  451MOL0     H62181   3.773   8.929   9.221  4.2094 -0.3082 -1.2581
  451MOL0     H62182   3.758   9.039   9.362 -0.4776 -0.6090  2.6325
  451MOL0     H62183   3.974   9.026   9.356 -2.4768  1.1123  0.3280
  451MOL0     H62184   3.982   8.873   9.285 -1.6302  3.2196 -2.3721
  451MOL0     H62185   3.914   8.770   9.525  1.4399 -0.1478  0.9495
  451MOL0     H62186   4.073   8.833   9.499  0.7495  1.0765  4.5896
  451MOL0     H62187   3.993   8.817   9.786 -0.0392 -0.0666  0.7836
  451MOL0     H62188   3.893   9.034  10.005 -1.6022  1.5068 -0.9719
  451MOL0     H62189   3.975   9.173   9.973 -2.5224 -0.2118  1.5872
  451MOL0     H62190   4.108   8.910  10.015  2.0766  0.0058 -2.5781
  451MOL0     H62191   4.195   9.035   9.943  2.0815  1.2064  1.7522
  451MOL0     H62192   4.256   9.068  10.164 -0.8225  0.4509  0.5699
  451MOL0     H62193   4.153   9.209  10.128  0.0670  0.9399 -3.3952
  451MOL0     H62194   3.965   9.061  10.268 -0.7646  2.9954 -1.1046
  451MOL0     H62195   4.103   8.959  10.292 -3.4756 -1.0584 -1.0524
  451MOL0     H62196   4.253   9.367  10.351 -0.3295 -1.8277 -2.7628
  451MOL0     H62197   4.570   9.460  10.493 -0.5059 -0.9010  0.1892
  451MOL0     H62198   4.414   9.515  10.433 -1.7983 -2.0897 -1.3605
  451MOL0     H62199   4.532   9.448  10.317 -0.5658 -0.3756 -0.8102
  451MOL0     H62200   4.724   9.088  10.935  1.3170 -0.2090 -1.8392
  451MOL0     H62201   4.908   9.192  11.088  3.4157 -1.0799 -1.3817
  451MOL0     H62202   5.082   9.522  10.962 -0.3649 -0.5274 -0.0408
  451MOL0     H62203   5.011   9.616  11.094 -0.5826 -1.3817  1.5098
  451MOL0     H62204   5.246   9.431  11.089 -0.4058  0.0510 -0.9785
  451MOL0     H62205   5.247   9.602  11.115  2.5183 -1.5832 -0.1778
  451MOL0     H62206   5.282   9.445  11.311 -0.9329 -2.6656  0.2534
  451MOL0     H62207   5.121   9.386  11.299  0.1185  0.5166 -1.3933
  451MOL0     H62208   5.006   9.583  11.334  0.8933  0.1241 -2.8826
  451MOL0     H62209   5.168   9.667  11.376 -1.3242  1.8015 -5.7592
  451MOL0     H62210   5.090   9.409  11.522 -0.5338  0.6092  3.1466
  451MOL0     H62211   5.207   9.538  11.555 -0.2699 -0.3777  0.9656
  451MOL0     H62212   4.914   9.541  11.577  2.2356 -3.5417 -0.1400
  451MOL0     H62213   4.996   9.693  11.582  2.3555  0.1603  0.7826
  451MOL0     H62214   5.061   9.443  11.764  1.2965 -0.0220  0.8074
  451MOL0     H62215   4.922   9.542  11.800  0.4680  0.4513 -0.1581
  451MOL0     H62216   5.216   9.615  11.782 -1.3598 -0.8142 -2.0310
  451MOL0     H62217   5.121   9.609  11.936  1.5549  0.6835 -0.1314
  451MOL0     H62218   4.867   9.557  10.908  1.0711  0.6580 -0.3076
  451MOL0     H62219   4.717   9.456  10.718 -0.9220  2.9883  2.2879
  451MOL0     H62220   4.451   9.015  10.627 -1.0677 -3.2631 -3.8214
  451MOL0     H62221   4.232   8.979  10.533 -1.3814  0.5642  3.4150
  451MOL0     H62222   3.033   8.575   9.554 -0.3705  0.7022 -0.7178
  451MOL0     H62223   2.903   8.351   9.605  1.0078  2.8852  1.4958
  451MOL0     H62224   2.760   7.970   9.498  1.5653 -0.0393 -1.7329
  451MOL0     H62225   2.648   7.758   9.514  1.0498  0.0751 -2.3593
  451MOL0     H62226   2.587   7.575   9.617 -0.8667 -2.3888  1.7561
  451MOL0     H62227   2.573   7.535   9.448 -0.7523  0.9256  1.2898
  451MOL0     H62228   2.639   7.313   9.482 -1.4429 -1.5552  0.2451
  451MOL0     H62229   2.481   7.346   9.568 -0.2095 -0.4830 -1.7089
  451MOL0     H62230   2.643   7.185   9.690 -0.1312  0.5816 -0.4108
  451MOL0     H62231   2.765   7.313   9.689 -1.0635  4.1388 -0.2034
  451MOL0     H62232   2.490   7.347   9.808 -0.2844 -0.5523 -0.0274
  451MOL0     H62233   2.642   7.446   9.846  3.3191 -1.6313 -0.3458
  451MOL0     H62234   2.640   7.113  10.104  0.3537 -1.7662 -2.2615
  451MOL0     H62235   3.014   7.551   9.599  0.8958  1.9128  2.5506
  451MOL0     H62236   3.257   7.782   9.538  2.4795 -0.4115  2.7494
  451MOL0     H62237   3.209   7.820   9.701  3.0574 -0.1340 -0.5302
  451MOL0     H62238   3.209   7.656   9.649  2.8131  0.8452  0.8200
  452MOL0     O62239  10.035   2.468  11.313  0.8877  0.7265 -0.4516
  452MOL0     C62240   9.923   2.491  11.366  0.1279 -0.8704  0.0644
  452MOL0     O62241   9.802   2.457  11.317 -0.1381  0.5733  0.4242
  452MOL0     C62242   9.788   2.373  11.201  0.4750 -0.8388  0.1014
  452MOL0     C62243   9.705   2.420  11.093 -0.6465 -0.1970  0.1957
  452MOL0     C62244   9.677   2.347  10.976 -0.0832 -0.2074 -1.1272
  452MOL0     C62245   9.738   2.221  10.968  0.5993  1.0737  0.1670
  452MOL0     O62246   9.686   2.136  10.866 -0.4059  0.2116 -0.2080
  452MOL0     C62247   9.723   1.997  10.868 -0.0063  0.7243 -0.0984
  452MOL0     C62248   9.633   1.922  10.967  0.8345  0.0583  0.4018
  452MOL0     C62249   9.483   1.898  10.945  0.8451 -0.5642 -0.5253
  452MOL0     C62250   9.474   1.834  10.805 -0.2489  0.3049 -0.3268
  452MOL0     C62251   9.328   1.843  10.766 -0.1027  0.0438 -0.1045
  452MOL0     C62252   9.291   1.749  10.640  0.4471  1.0640  0.4036
  452MOL0     C62253   9.232   1.829  10.520 -0.0165  0.0427 -0.0760
  452MOL0     C62254   9.220   1.730  10.403 -0.0473 -0.3794  0.1619
  452MOL0     N62255   9.127   1.619  10.434  0.6487  0.5538 -0.2381
  452MOL0     C62256   8.991   1.629  10.417  0.0106  0.6016  0.5562
  452MOL0     C62257   8.939   1.509  10.457 -0.4063  0.0587  0.1506
  452MOL0     C62258   8.796   1.470  10.479 -0.1574 -0.1793 -0.3820
  452MOL0     C62259   8.701   1.592  10.520 -0.6457 -0.6032 -0.1449
  452MOL0     C62260   8.556   1.546  10.545  0.1707  0.3147  0.5248
  452MOL0     C62261   8.483   1.634  10.651 -0.4125  0.0591 -0.5640
  452MOL0     O62262   8.423   1.749  10.578  0.1528  0.3299  0.3633
  452MOL0     C62263   8.328   1.824  10.636  0.4613  0.6342 -0.1108
  452MOL0     C62264   8.319   1.956  10.624 -0.0575 -0.8337  0.1960
  452MOL0     C62265   8.222   2.040  10.668 -0.3946 -0.1803  0.2947
  452MOL0     C62266   8.227   2.186  10.626  0.1300 -0.2771  0.1112
  452MOL0     C62267   8.120   1.983  10.755 -0.1728 -1.0101  0.2825
  452MOL0     C62268   8.010   2.056  10.828 -0.3013  0.8237 -0.9542
  452MOL0     O62269   7.917   1.971  10.881  0.4463 -0.4017 -0.3691
  452MOL0     C62270   7.815   2.013  10.958  0.8007 -0.2312  0.3792
  452MOL0     C62271   7.796   1.970  11.098  0.7556  0.7579  0.1375
  452MOL0     C62272   7.699   2.022  11.175  0.0966  0.0459 -0.5209
  452MOL0     C62273   7.599   2.101  11.123 -0.0131  0.8723  1.2026
  452MOL0     O62274   7.499   2.137  11.205 -0.1288 -0.5011 -1.1697
  452MOL0     C62275   7.522   2.277  11.231 -0.3419 -0.6456  0.6420
  452MOL0     C62276   7.494   2.303  11.379 -0.2494 -0.1242  0.4821
  452MOL0     C62277   7.485   2.451  11.403 -0.2526  0.1730  0.8623
  452MOL0     C62278   7.391   2.539  11.323 -0.1688  0.6930 -0.3553
  452MOL0     C62279   7.375   2.692  11.346 -0.2007  0.2790  0.1854
  452MOL0     C62280   7.307   2.742  11.469 -0.3430 -0.4385 -0.8074
  452MOL0     C62281   7.169   2.691  11.513  0.0303  0.5757  0.3796
  452MOL0     C62282   7.079   2.798  11.581 -0.7269  0.0601 -0.1526
  452MOL0    Cl62283   6.913   2.748  11.603 -0.0579 -0.0567 -0.0934
  452MOL0     C62284   7.612   2.149  10.987  0.1399 -0.1136 -0.1537
  452MOL0     C62285   7.724   2.111  10.910 -0.0994 -0.2653 -0.0365
  452MOL0     O62286   8.002   2.182  10.825 -0.4110  0.9564 -0.1104
  452MOL0     C62287   8.128   1.840  10.769 -0.4974  0.6021 -0.1372
  452MOL0     C62288   8.233   1.765  10.712  0.0503  0.4421 -0.9034
  452MOL0     N62289   9.045   1.436  10.505 -0.0028  0.2300 -0.1197
  452MOL0     N62290   9.158   1.493  10.483  0.2282 -0.1846 -0.4253
  452MOL0     C62291   9.810   2.173  11.081 -1.0465 -0.2072 -0.4071
  452MOL0     C62292   9.838   2.248  11.198  0.0065  0.1975  0.6008
  452MOL0     C62293   9.920   2.578  11.484 -0.1474  0.3836  0.1595
  452MOL0     C62294   9.799   2.585  11.558 -0.2919 -0.5628 -0.2028
  452MOL0     C62295   9.785   2.670  11.670  0.6215  0.0099 -0.6265
  452MOL0     C62296   9.898   2.730  11.722  0.7818  0.4495 -0.4355
  452MOL0     O62297   9.869   2.805  11.836  0.1436 -0.1402 -0.5757
  452MOL0     C62298   9.975   2.890  11.899 -0.1859  0.8088  0.2854
  452MOL0     C62299   9.975   3.031  11.843 -0.4782  0.8616 -0.2618
  452MOL0     C62300  10.049   3.128  11.939 -0.8019  0.4613  0.3205
  452MOL0     C62301   9.950   3.187  12.049 -0.3637 -0.1852  0.5932
  452MOL0     C62302   9.958   3.114  12.168 -0.1328  0.2680 -0.7896
  452MOL0     C62303   9.970   3.043  12.267  0.8478  0.2028  0.3058
  452MOL0     C62304  10.011   2.728  11.654  0.2931  0.0781  0.2220
  452MOL0     C62305  10.021   2.662  11.537 -0.4214  0.0385  0.4658
  452MOL0     C62306  10.141   2.703  11.456  0.5179 -0.2958 -0.0895
  452MOL0     H62307   9.662   2.519  11.100 -2.9065 -0.7060 -3.6352
  452MOL0     H62308   9.607   2.386  10.903 -1.0880 -2.0247 -1.1985
  452MOL0     H62309   9.831   1.997  10.888 -0.4225 -1.3172  2.6322
  452MOL0     H62310   9.722   1.942  10.774  0.1271 -3.5592  2.1714
  452MOL0     H62311   9.685   1.827  10.987 -3.0283 -1.8152  2.7867
  452MOL0     H62312   9.619   1.967  11.066 -1.6203 -1.4911  0.8269
  452MOL0     H62313   9.428   1.849  11.025  0.8845  2.6182  1.6451
  452MOL0     H62314   9.444   2.001  10.946 -1.9332 -1.5149  1.6792
  452MOL0     H62315   9.534   1.884  10.728  1.6270  0.3978  1.1202
  452MOL0     H62316   9.510   1.731  10.801 -0.5123  0.2396 -1.6127
  452MOL0     H62317   9.306   1.948  10.745  1.8200  1.0932  2.5920
  452MOL0     H62318   9.265   1.823  10.852  2.5597  2.5795  2.6828
  452MOL0     H62319   9.383   1.706  10.598 -0.9240  0.8469 -2.6767
  452MOL0     H62320   9.220   1.669  10.664 -1.7283  3.0355  0.9171
  452MOL0     H62321   9.303   1.911  10.507  3.1763 -1.5611  4.5109
  452MOL0     H62322   9.136   1.868  10.556 -0.0285  0.0374 -0.1030
  452MOL0     H62323   9.195   1.787  10.313  0.9953  2.0394  1.3058
  452MOL0     H62324   9.314   1.676  10.385 -1.6232 -3.7165  1.0375
  452MOL0     H62325   8.954   1.719  10.368  0.8863  0.1189 -1.0642
  452MOL0     H62326   8.785   1.399  10.562 -0.7181 -2.0136 -1.9543
  452MOL0     H62327   8.751   1.434  10.386 -1.7021  2.5138 -0.7774
  452MOL0     H62328   8.741   1.644  10.607 -2.7405  2.8802 -1.0446
  452MOL0     H62329   8.702   1.665  10.438 -1.4570  1.6982  1.7819
  452MOL0     H62330   8.496   1.550  10.454 -1.6453  2.2728  1.7184
  452MOL0     H62331   8.566   1.447  10.591  1.1707  1.7126  3.5496
  452MOL0     H62332   8.401   1.579  10.700  1.1344 -2.0570 -0.2256
  452MOL0     H62333   8.547   1.677  10.728  0.2769 -1.8766  0.0098
  452MOL0     H62334   8.399   1.997  10.564 -0.4639 -0.4659 -0.0948
  452MOL0     H62335   8.169   2.202  10.535 -0.3349  0.0453  0.4636
  452MOL0     H62336   8.330   2.222  10.614 -0.3136  0.6715 -0.9955
  452MOL0     H62337   8.176   2.249  10.698  0.0041  2.5863 -2.2973
  452MOL0     H62338   7.865   1.894  11.133 -0.4918  0.4558  2.1388
  452MOL0     H62339   7.666   1.998  11.276 -2.8067  0.3955 -1.2833
  452MOL0     H62340   7.626   2.306  11.219  0.0450 -2.4164 -0.6769
  452MOL0     H62341   7.466   2.336  11.157  0.3554 -0.0163  0.6124
  452MOL0     H62342   7.397   2.260  11.406  1.2573 -2.9144  1.8991
  452MOL0     H62343   7.565   2.247  11.440 -1.8325 -1.2070  1.4111
  452MOL0     H62344   7.585   2.493  11.387  2.0490 -4.8917 -0.1241
  452MOL0     H62345   7.464   2.466  11.509 -0.5190  2.1214  0.5601
  452MOL0     H62346   7.290   2.499  11.312  0.2668 -0.8825  0.9802
  452MOL0     H62347   7.437   2.532  11.224  2.3355 -0.3222  0.7973
  452MOL0     H62348   7.469   2.746  11.332 -0.3339 -0.0725 -2.7046
  452MOL0     H62349   7.320   2.719  11.255  2.3323 -0.6113 -1.7233
  452MOL0     H62350   7.295   2.850  11.463 -0.5306 -0.2500  1.7519
  452MOL0     H62351   7.373   2.734  11.557  0.6014 -1.0278 -1.5463
  452MOL0     H62352   7.182   2.597  11.568 -1.6689 -0.6583 -1.2118
  452MOL0     H62353   7.124   2.663  11.418 -3.6844  0.3353  2.0617
  452MOL0     H62354   7.088   2.889  11.522 -3.5329 -0.2183 -1.1567
  452MOL0     H62355   7.123   2.811  11.681 -1.5573  0.8228  0.1235
  452MOL0     H62356   7.545   2.222  10.942  3.0758  2.0010 -1.4364
  452MOL0     H62357   7.736   2.153  10.810  0.6323  1.5774  0.7810
  452MOL0     H62358   8.057   1.777  10.821  2.9537 -2.2779  1.5298
  452MOL0     H62359   8.209   1.659  10.716 -1.1739  0.7461  0.6725
  452MOL0     H62360   9.843   2.070  11.068  0.2983  0.2291 -0.6927
  452MOL0     H62361   9.896   2.197  11.273  1.7615  2.0192  0.5637
  452MOL0     H62362   9.710   2.524  11.552 -1.3565  0.8855  0.2506
  452MOL0     H62363   9.691   2.681  11.724  0.7357  0.5707 -0.5403
  452MOL0     H62364   9.941   2.894  12.003  3.3721 -0.4953  1.6718
  452MOL0     H62365  10.076   2.848  11.903 -0.9973 -1.2851 -0.1176
  452MOL0     H62366   9.869   3.056  11.830 -1.7717 -3.6891 -0.3606
  452MOL0     H62367  10.034   3.032  11.751  1.5954 -0.0717  0.9891
  452MOL0     H62368  10.132   3.082  11.994 -0.4249 -0.9863 -1.3716
  452MOL0     H62369  10.103   3.207  11.888  1.5981 -0.6106  1.0766
  452MOL0     H62370   9.856   3.217  12.001  0.6825 -1.3878 -2.4884
  452MOL0     H62371   9.982   3.286  12.083 -0.4162 -0.4598  1.4479
  452MOL0     H62372   9.977   2.976  12.350  0.2495 -2.2262 -1.4667
  452MOL0     H62373  10.101   2.770  11.695  1.0931  0.9643 -2.2530
  452MOL0     H62374  10.203   2.616  11.433  1.9784  1.1562 -1.9544
  452MOL0     H62375  10.122   2.761  11.365 -0.1983  2.7221  1.8122
  452MOL0     H62376  10.212   2.762  11.515  1.7225  0.0809 -1.8353
  453MOL0     O62377   9.390   6.177   1.143 -0.1174 -0.0447 -0.3606
  453MOL0     C62378   9.307   6.206   1.226 -0.4000  0.0448  0.8548
  453MOL0     O62379   9.256   6.324   1.249 -0.7498 -0.1473  0.1033
  453MOL0     C62380   9.292   6.432   1.167  1.1870  0.1745 -0.0602
  453MOL0     C62381   9.428   6.462   1.145  0.3655 -0.2932 -0.0845
  453MOL0     C62382   9.464   6.567   1.053  0.7980 -0.2833 -0.0193
  453MOL0     C62383   9.357   6.647   1.000 -0.2225 -0.3258 -0.0267
  453MOL0     O62384   9.391   6.758   0.925  0.6482  0.4354 -0.1328
  453MOL0     C62385   9.294   6.814   0.833 -0.0250 -0.6700  0.1935
  453MOL0     C62386   9.345   6.930   0.741  0.1803 -0.3322  0.4280
  453MOL0     C62387   9.234   6.997   0.661 -0.3444  0.0236  0.6265
  453MOL0     C62388   9.154   6.894   0.587  0.5260  1.4317 -0.3506
  453MOL0     C62389   9.071   6.948   0.476  0.0855 -0.2602  1.4347
  453MOL0     C62390   8.952   6.862   0.423  0.7492 -0.1189 -0.6952
  453MOL0     C62391   8.984   6.726   0.355 -0.1860 -1.0571  0.0304
  453MOL0     C62392   9.032   6.723   0.212 -0.3963  1.1450  0.4327
  453MOL0     N62393   9.054   6.582   0.171 -0.0026 -0.1887  0.0189
  453MOL0     C62394   8.949   6.494   0.155  0.6038  0.0521  0.7387
  453MOL0     C62395   9.013   6.372   0.118  0.7191  0.1294 -0.8566
  453MOL0     C62396   8.947   6.237   0.080 -0.0458 -0.2364  1.2389
  453MOL0     C62397   8.967   6.204  -0.075 -0.1381 -0.5370 -1.1671
  453MOL0     C62398   8.895   6.081  -0.116 -0.5691  0.5440  0.2876
  453MOL0     C62399   8.908   6.041  -0.257  1.1002 -0.0984  0.4807
  453MOL0     O62400   8.820   5.930  -0.281  0.1872  0.1591  0.0726
  453MOL0     C62401   8.765   5.918  -0.400 -0.1553  0.0109  0.6339
  453MOL0     C62402   8.781   6.012  -0.507 -0.4243 -0.2509  0.0085
  453MOL0     C62403   8.719   5.992  -0.630 -1.0367 -0.1835 -0.7599
  453MOL0     C62404   8.767   6.076  -0.745 -0.3345  0.1981 -0.1452
  453MOL0     C62405   8.634   5.888  -0.647  0.9092 -0.0808  0.3623
  453MOL0     C62406   8.575   5.857  -0.775 -0.2409 -0.2673  0.2984
  453MOL0     O62407   8.442   5.875  -0.775 -0.1123  0.1293  0.8502
  453MOL0     C62408   8.374   5.847  -0.888  0.0084 -1.0515 -1.2526
  453MOL0     C62409   8.417   5.881  -1.021  0.4259  0.3382 -0.4626
  453MOL0     C62410   8.324   5.865  -1.124  0.6700  0.1605  0.5687
  453MOL0     C62411   8.203   5.806  -1.117  0.0579 -0.1157 -0.5321
  453MOL0     O62412   8.106   5.793  -1.219  0.9489 -0.0346 -0.6936
  453MOL0     C62413   8.137   5.867  -1.345  0.6467 -0.1087 -0.3127
  453MOL0     C62414   8.022   5.848  -1.454  0.5475 -1.4142 -0.0597
  453MOL0     C62415   7.898   5.921  -1.405 -0.1342  0.3191  0.5481
  453MOL0     C62416   7.765   5.890  -1.476  0.1406  0.7370  0.0886
  453MOL0     C62417   7.654   5.968  -1.417 -0.0657  0.0851  0.6593
  453MOL0     C62418   7.658   6.116  -1.470  0.1644 -0.1786  0.8695
  453MOL0     C62419   7.533   6.189  -1.426 -0.2750  0.2196  0.8775
  453MOL0     C62420   7.526   6.333  -1.472  0.7939 -0.5326 -0.3752
  453MOL0    Cl62421   7.638   6.442  -1.373  0.0266 -0.2254 -0.5690
  453MOL0     C62422   8.161   5.773  -0.989  0.4703  1.4538 -0.1301
  453MOL0     C62423   8.237   5.793  -0.872 -0.6898  0.8647 -1.0414
  453MOL0     O62424   8.639   5.799  -0.857 -0.1426  0.1854  0.9130
  453MOL0     C62425   8.601   5.808  -0.544 -0.5468  0.1770 -0.0863
  453MOL0     C62426   8.670   5.816  -0.421  0.1891 -0.6089 -0.2316
  453MOL0     N62427   9.146   6.399   0.107 -0.6010  0.4860  0.7871
  453MOL0     N62428   9.171   6.520   0.142 -0.2504 -0.6430 -1.2790
  453MOL0     C62429   9.225   6.611   1.023  0.4319 -0.0458 -0.2558
  453MOL0     C62430   9.188   6.498   1.106  0.0068  0.5215 -0.2581
  453MOL0     C62431   9.254   6.101   1.305  0.0984  0.5320  0.7652
  453MOL0     C62432   9.339   6.000   1.347 -0.4805 -0.1703  0.2401
  453MOL0     C62433   9.297   5.908   1.441 -1.1233  0.6000  0.0886
  453MOL0     C62434   9.163   5.904   1.485 -0.6427 -0.5648  0.1316
  453MOL0     O62435   9.127   5.808   1.575 -0.0296  0.0744 -0.1500
  453MOL0     C62436   9.137   5.829   1.713  0.1617  0.3722 -0.3491
  453MOL0     C62437   9.032   5.914   1.772  0.6805 -0.1849  0.2997
  453MOL0     C62438   9.006   5.910   1.920 -0.3652  1.0732 -0.1048
  453MOL0     C62439   8.956   5.770   1.980  0.4840 -0.8184  1.1550
  453MOL0     C62440   9.056   5.665   1.996 -0.4208 -0.3605 -1.4694
  453MOL0     C62441   9.150   5.593   2.022 -0.0935  0.1147  0.4144
  453MOL0     C62442   9.076   5.997   1.441 -0.0318 -0.4428 -0.5896
  453MOL0     C62443   9.116   6.093   1.345 -0.3601 -0.4250  0.0318
  453MOL0     C62444   9.005   6.190   1.302  0.1623  0.0173  0.5315
  453MOL0     H62445   9.509   6.405   1.190  0.9878 -1.5185 -2.5902
  453MOL0     H62446   9.565   6.603   1.037 -0.4205  2.4232 -2.6245
  453MOL0     H62447   9.219   6.864   0.895  1.3228 -1.0128  2.2019
  453MOL0     H62448   9.257   6.731   0.772  1.0203 -2.6233  2.0873
  453MOL0     H62449   9.400   7.003   0.801 -1.3450  0.0224  1.4422
  453MOL0     H62450   9.416   6.890   0.668 -0.8899  0.0269 -0.8338
  453MOL0     H62451   9.169   7.052   0.728 -1.4934  0.6903 -0.9634
  453MOL0     H62452   9.275   7.074   0.595 -0.2398 -0.2634  0.3528
  453MOL0     H62453   9.221   6.813   0.558 -2.5140 -2.0091  1.3641
  453MOL0     H62454   9.084   6.848   0.657  0.5843  1.1298 -0.4892
  453MOL0     H62455   9.132   6.974   0.389 -0.0883 -1.9424  0.7817
  453MOL0     H62456   9.031   7.045   0.507 -0.6910 -0.3667  0.7959
  453MOL0     H62457   8.892   6.846   0.513 -2.3367  2.0622 -2.1890
  453MOL0     H62458   8.891   6.918   0.350 -1.8611  1.8310  2.6813
  453MOL0     H62459   8.890   6.672   0.361 -3.7719  3.7841 -3.6377
  453MOL0     H62460   9.057   6.674   0.418 -0.7267 -1.3721  0.4024
  453MOL0     H62461   8.955   6.771   0.151  0.9504  1.2016 -1.3382
  453MOL0     H62462   9.126   6.776   0.191 -0.4430  0.7348 -0.9459
  453MOL0     H62463   8.845   6.522   0.162  0.7353  1.6471 -2.1152
  453MOL0     H62464   8.842   6.255   0.105 -0.5298  3.9927 -2.4640
  453MOL0     H62465   8.987   6.165   0.152  0.1240 -0.9409  0.4505
  453MOL0     H62466   8.931   6.285  -0.139  1.3718 -0.3437 -1.8266
  453MOL0     H62467   9.075   6.187  -0.078  0.0783 -0.5948  2.4521
  453MOL0     H62468   8.932   5.998  -0.055  0.0891  2.4207  2.5520
  453MOL0     H62469   8.790   6.089  -0.088 -0.4158  0.5075  0.8938
  453MOL0     H62470   8.881   6.126  -0.320  0.3687  0.4068  1.4501
  453MOL0     H62471   9.010   6.006  -0.276  2.8899  2.0743  4.6833
  453MOL0     H62472   8.853   6.094  -0.510  0.0613 -0.6867 -2.2007
  453MOL0     H62473   8.814   6.010  -0.818 -0.0993  1.6463 -1.3421
  453MOL0     H62474   8.845   6.149  -0.720 -0.1910  0.4061 -1.1851
  453MOL0     H62475   8.690   6.133  -0.798  1.1513  2.9632  0.4586
  453MOL0     H62476   8.516   5.920  -1.044  0.6919 -1.2783 -2.3529
  453MOL0     H62477   8.352   5.900  -1.223 -0.5776  0.9669  0.4666
  453MOL0     H62478   8.133   5.976  -1.340 -0.1448 -0.1302 -0.3701
  453MOL0     H62479   8.233   5.830  -1.382  0.9165 -0.1666  0.4459
  453MOL0     H62480   8.052   5.892  -1.550 -0.2423 -1.8152 -0.5078
  453MOL0     H62481   8.001   5.747  -1.490  1.0237 -0.2073 -4.3187
  453MOL0     H62482   7.921   6.028  -1.408 -0.4310  0.3644 -1.7115
  453MOL0     H62483   7.881   5.891  -1.301 -2.7013  0.1398  0.1442
  453MOL0     H62484   7.743   5.783  -1.466 -1.5994  1.2440  3.0387
  453MOL0     H62485   7.765   5.915  -1.582  0.0623 -0.4033 -0.1951
  453MOL0     H62486   7.562   5.923  -1.457 -1.4125  0.7486  2.8806
  453MOL0     H62487   7.650   5.955  -1.309 -1.1063  1.5781  0.8275
  453MOL0     H62488   7.668   6.125  -1.578  1.7441  2.3482  1.1409
  453MOL0     H62489   7.750   6.165  -1.434  1.0468 -0.1072 -1.3575
  453MOL0     H62490   7.517   6.161  -1.322 -0.2817 -1.0946  0.5430
  453MOL0     H62491   7.445   6.146  -1.476  0.3710 -1.1001  0.8245
  453MOL0     H62492   7.423   6.367  -1.456  0.6391 -1.2473  0.1530
  453MOL0     H62493   7.537   6.352  -1.580 -1.7483  3.8260 -0.1248
  453MOL0     H62494   8.064   5.724  -0.980  0.1770  1.4058 -2.7236
  453MOL0     H62495   8.204   5.765  -0.773 -0.5634  3.5356 -0.1725
  453MOL0     H62496   8.530   5.728  -0.563  1.6889 -1.3696 -2.6034
  453MOL0     H62497   8.638   5.740  -0.351  0.3413 -0.7932 -0.3589
  453MOL0     H62498   9.140   6.666   0.984 -1.0688 -0.9824  1.5620
  453MOL0     H62499   9.087   6.468   1.127  0.3981 -0.8377 -0.2343
  453MOL0     H62500   9.444   5.991   1.321  0.6209  3.2561  2.6556
  453MOL0     H62501   9.374   5.838   1.471 -0.5520  1.6693  1.2169
  453MOL0     H62502   9.137   5.736   1.770 -1.8348  0.4006 -0.2405
  453MOL0     H62503   9.237   5.872   1.725  0.2182  0.6341 -1.6047
  453MOL0     H62504   8.932   5.888   1.736  1.0817  0.6555 -1.5493
  453MOL0     H62505   9.045   6.019   1.745 -0.3968  1.2408  4.5802
  453MOL0     H62506   9.100   5.926   1.973  0.2115 -1.9466 -0.0501
  453MOL0     H62507   8.944   5.993   1.953 -0.4502  0.2708  1.9055
  453MOL0     H62508   8.868   5.738   1.924  0.1484 -0.4884  1.4881
  453MOL0     H62509   8.921   5.783   2.083  0.4345 -0.1989  1.0623
  453MOL0     H62510   9.228   5.526   2.051 -0.4365 -0.4090  0.1291
  453MOL0     H62511   8.973   5.994   1.475 -1.0493 -0.1919 -3.3513
  453MOL0     H62512   8.909   6.137   1.301 -0.5007  0.9674 -3.2853
  453MOL0     H62513   9.007   6.286   1.355 -1.2106  0.1587  0.3595
  453MOL0     H62514   9.021   6.211   1.196 -3.8539 -2.1181 -0.7411
  454MOL0     O62515   8.745   9.168  10.888  0.0356 -0.2404  0.3335
  454MOL0     C62516   8.778   9.155  11.005 -0.1249  1.4572 -0.4953
  454MOL0     O62517   8.823   9.029  11.053  0.2329  0.0792  0.2350
  454MOL0     C62518   8.828   8.930  10.961  0.2366  0.8283 -0.3694
  454MOL0     C62519   8.743   8.819  10.966  0.0415 -0.0497  0.0233
  454MOL0     C62520   8.731   8.730  10.863 -0.0603  1.0193 -0.5143
  454MOL0     C62521   8.816   8.739  10.755 -0.2431  0.5211 -0.0735
  454MOL0     O62522   8.789   8.655  10.651 -0.1852  0.5435  0.5429
  454MOL0     C62523   8.758   8.714  10.524 -0.4619  0.4379 -0.4830
  454MOL0     C62524   8.780   8.605  10.418 -0.0257  0.2872  0.4105
  454MOL0     C62525   8.736   8.458  10.456 -0.3898  0.8380  0.1772
  454MOL0     C62526   8.736   8.343  10.357 -0.8024  0.1057  0.8943
  454MOL0     C62527   8.878   8.317  10.291 -0.5227 -0.7253  0.8352
  454MOL0     C62528   8.881   8.191  10.212  0.7809 -0.1028  0.7069
  454MOL0     C62529   9.015   8.162  10.151  0.6426 -0.9544 -0.5703
  454MOL0     C62530   9.070   8.278  10.064  0.6120 -0.0607  0.1266
  454MOL0     N62531   9.200   8.260  10.001 -0.4012  0.7313 -0.2658
  454MOL0     C62532   9.322   8.284  10.065 -0.7016 -0.3219  0.3535
  454MOL0     C62533   9.408   8.327   9.970  1.3470  0.0562  0.2256
  454MOL0     C62534   9.554   8.372   9.986  0.3242 -0.2787  0.1559
  454MOL0     C62535   9.559   8.506   9.937  0.0391 -1.1216  0.2666
  454MOL0     C62536   9.684   8.576   9.993  0.4185 -0.8211 -0.1424
  454MOL0     C62537   9.720   8.728   9.947  0.0113  0.1812  0.3447
  454MOL0     O62538   9.844   8.760  10.006  0.0813  0.2863 -0.7834
  454MOL0     C62539   9.916   8.854   9.946 -0.0375  1.3000  0.6331
  454MOL0     C62540  10.052   8.842   9.962 -0.0515  0.1457  0.0075
  454MOL0     C62541  10.143   8.917   9.887  0.0818 -0.4423 -0.3585
  454MOL0     C62542  10.293   8.883   9.892 -0.6361 -0.3987  0.4150
  454MOL0     C62543  10.097   9.027   9.805  1.0615  0.6562 -0.7270
  454MOL0     C62544  10.179   9.108   9.722  0.5072 -0.8077  0.4721
  454MOL0     O62545  10.114   9.173   9.618  0.4347 -0.9518  0.1853
  454MOL0     C62546  10.180   9.245   9.516 -0.3967  0.4909  0.0257
  454MOL0     C62547  10.119   9.350   9.459 -0.3264 -0.1728  0.2625
  454MOL0     C62548  10.182   9.422   9.347  0.0357  0.3941 -0.3747
  454MOL0     C62549  10.310   9.382   9.309  0.1933 -0.1144  0.3232
  454MOL0     O62550  10.366   9.449   9.209  0.5884 -0.3549  0.2860
  454MOL0     C62551  10.478   9.399   9.139 -0.8357 -0.6545  0.6947
  454MOL0     C62552  10.510   9.490   9.022 -0.2622  0.6657  0.9229
  454MOL0     C62553  10.552   9.640   9.065  0.5071  0.5015  0.5199
  454MOL0     C62554  10.580   9.711   8.935 -0.0824  0.9781 -0.0459
  454MOL0     C62555  10.616   9.858   8.959  0.4811  0.2955  0.1368
  454MOL0     C62556  10.663   9.937   8.835 -0.1061 -0.4316  0.5241
  454MOL0     C62557  10.674  10.079   8.857 -0.0380 -0.1562  0.4126
  454MOL0     C62558  10.713  10.157   8.735 -0.2730 -0.4821  0.7986
  454MOL0    Cl62559  10.829  10.088   8.619  0.4462 -0.2600 -0.6070
  454MOL0     C62560  10.375   9.268   9.366  0.3159 -0.4452 -0.4290
  454MOL0     C62561  10.301   9.209   9.469  0.2451 -0.3487  0.6021
  454MOL0     O62562  10.302   9.119   9.749 -0.0914  0.1187 -0.0239
  454MOL0     C62563   9.955   9.046   9.796  0.7591  0.1725 -0.8850
  454MOL0     C62564   9.865   8.959   9.870 -0.0786  0.3329  0.6413
  454MOL0     N62565   9.342   8.316   9.847 -0.6060 -0.0598  0.4869
  454MOL0     N62566   9.222   8.282   9.866  0.1566  0.1484 -0.5279
  454MOL0     C62567   8.907   8.837  10.747 -0.1740 -1.8159  0.1642
  454MOL0     C62568   8.909   8.936  10.849 -0.0885 -0.2600  0.6840
  454MOL0     C62569   8.771   9.268  11.104  0.0312 -0.1200 -0.5167
  454MOL0     C62570   8.797   9.233  11.241 -0.5158 -0.1945 -0.1713
  454MOL0     C62571   8.820   9.333  11.339  0.2887  0.2559  0.9353
  454MOL0     C62572   8.786   9.466  11.302  0.1349  0.2189 -0.4250
  454MOL0     O62573   8.777   9.562  11.403  0.3792  0.2235 -0.1685
  454MOL0     C62574   8.898   9.636  11.437  1.0306  0.4429  0.3468
  454MOL0     C62575   8.974   9.566  11.557 -0.1391  0.3707  0.7616
  454MOL0     C62576   9.093   9.638  11.619  0.1941  0.4469 -0.2520
  454MOL0     C62577   9.053   9.757  11.694 -0.2600 -0.4894  0.6030
  454MOL0     C62578   9.175   9.838  11.735  0.6510  0.2023  0.8640
  454MOL0     C62579   9.282   9.875  11.760 -0.0064  0.9363 -0.2465
  454MOL0     C62580   8.757   9.497  11.169  0.1756 -0.8982 -0.0677
  454MOL0     C62581   8.753   9.404  11.070  0.8924  0.1835  0.5870
  454MOL0     C62582   8.709   9.447  10.924 -1.0092  1.8002  0.3198
  454MOL0     H62583   8.669   8.807  11.045 -0.5772  2.8815  0.0156
  454MOL0     H62584   8.660   8.647  10.856  2.3773 -1.5532  2.4085
  454MOL0     H62585   8.819   8.801  10.499  1.1135 -0.9950 -1.8999
  454MOL0     H62586   8.652   8.743  10.524 -0.1754  1.6981 -2.6883
  454MOL0     H62587   8.731   8.636  10.325  3.4514  2.6295 -0.8350
  454MOL0     H62588   8.885   8.602  10.387  0.5244  2.2554  1.8821
  454MOL0     H62589   8.803   8.429  10.538 -1.4461  2.0816  1.5427
  454MOL0     H62590   8.632   8.458  10.489 -0.7180 -1.0828 -0.7416
  454MOL0     H62591   8.699   8.253  10.406  0.5195 -2.0952 -1.8417
  454MOL0     H62592   8.675   8.365  10.269 -0.5447 -2.6691 -0.0773
  454MOL0     H62593   8.944   8.317  10.378 -1.3317 -3.1677  1.5279
  454MOL0     H62594   8.907   8.404  10.230  1.6593 -1.6228  0.4954
  454MOL0     H62595   8.849   8.104  10.269 -0.9925 -0.7081 -1.0668
  454MOL0     H62596   8.808   8.196  10.131  0.5427  0.7134  0.9604
  454MOL0     H62597   9.012   8.070  10.092  0.5347 -1.0624 -0.3969
  454MOL0     H62598   9.085   8.130  10.228  2.2643 -1.6618 -2.2489
  454MOL0     H62599   9.006   8.306   9.980  0.5686 -0.1955  0.1147
  454MOL0     H62600   9.096   8.359  10.133  2.4344 -0.3248 -0.2201
  454MOL0     H62601   9.330   8.274  10.173 -1.9400  1.3294  0.6373
  454MOL0     H62602   9.627   8.315   9.928 -0.4300  2.6379 -4.1456
  454MOL0     H62603   9.571   8.370  10.094  1.3732  1.0724  0.0417
  454MOL0     H62604   9.570   8.498   9.828 -0.2331  0.6156  0.0854
  454MOL0     H62605   9.476   8.572   9.961  2.8389  2.3988  1.1138
  454MOL0     H62606   9.667   8.580  10.101 -1.8658 -0.3134 -0.4629
  454MOL0     H62607   9.772   8.516   9.966  2.5184  0.8311  2.5343
  454MOL0     H62608   9.705   8.720   9.839 -0.9616 -0.1930  0.5045
  454MOL0     H62609   9.649   8.801   9.986  1.5974  0.9536  1.9468
  454MOL0     H62610  10.095   8.767  10.028 -2.0461 -0.9037  0.1845
  454MOL0     H62611  10.309   8.791   9.949 -1.9986 -1.2832 -0.5831
  454MOL0     H62612  10.351   8.965   9.936 -1.1524 -0.1359  0.6041
  454MOL0     H62613  10.332   8.860   9.792  0.5017 -1.7865  1.1379
  454MOL0     H62614  10.018   9.372   9.492  0.0276 -0.0580  1.3265
  454MOL0     H62615  10.119   9.498   9.301 -1.5782 -0.6002  0.1209
  454MOL0     H62616  10.571   9.407   9.197  1.8158 -3.4971 -2.7151
  454MOL0     H62617  10.465   9.295   9.109 -0.5289 -1.3600  2.8348
  454MOL0     H62618  10.594   9.437   8.975 -1.0124 -0.1182  0.4335
  454MOL0     H62619  10.430   9.488   8.947 -1.4728  2.4984  2.1069
  454MOL0     H62620  10.638   9.626   9.131  1.2323 -2.6714 -0.9046
  454MOL0     H62621  10.460   9.681   9.108 -0.7037  0.4139 -1.7716
  454MOL0     H62622  10.494   9.698   8.868 -0.2814 -1.4131  0.5969
  454MOL0     H62623  10.659   9.662   8.879  0.3011 -2.5232  3.1550
  454MOL0     H62624  10.523   9.904   8.995 -0.0590 -1.1526  0.6836
  454MOL0     H62625  10.689   9.864   9.041  3.0271  2.3691 -2.0939
  454MOL0     H62626  10.597   9.935   8.748  0.4360 -0.5543  0.1050
  454MOL0     H62627  10.758   9.893   8.802 -0.2225  0.4009 -1.0519
  454MOL0     H62628  10.746  10.096   8.937  0.4101 -2.0693  0.4538
  454MOL0     H62629  10.579  10.129   8.881 -0.8614 -0.6397 -1.5854
  454MOL0     H62630  10.761  10.249   8.770  2.4527 -1.3762 -0.2859
  454MOL0     H62631  10.626  10.188   8.676 -0.8514 -2.7886  0.3394
  454MOL0     H62632  10.477   9.234   9.353  0.4078 -0.4369  0.2640
  454MOL0     H62633  10.338   9.123   9.524 -1.2594 -2.0710 -0.9321
  454MOL0     H62634   9.899   9.119   9.740  3.3253  2.2448 -0.9714
  454MOL0     H62635   9.761   8.989   9.865 -0.3600 -0.5609  0.8552
  454MOL0     H62636   8.958   8.850  10.653 -2.3373  1.3237 -0.7182
  454MOL0     H62637   8.962   9.029  10.830 -3.2994  1.2092 -2.3933
  454MOL0     H62638   8.797   9.129  11.272 -0.1130 -0.2960 -0.5043
  454MOL0     H62639   8.844   9.300  11.440 -0.4665 -1.1406  0.6913
  454MOL0     H62640   8.960   9.651  11.348  1.2270  3.1683  0.8481
  454MOL0     H62641   8.850   9.732  11.456 -1.8154 -0.9113  0.6298
  454MOL0     H62642   9.018   9.473  11.519 -0.7297  0.7559 -0.9603
  454MOL0     H62643   8.901   9.543  11.635  0.9542  1.8647  2.2922
  454MOL0     H62644   9.146   9.573  11.689 -1.5679 -0.2726  0.4776
  454MOL0     H62645   9.163   9.671  11.542 -0.4532  1.0198 -0.6078
  454MOL0     H62646   8.982   9.750  11.776 -0.8476  5.8073  1.0749
  454MOL0     H62647   9.005   9.822  11.621 -1.2187 -1.8557 -0.0244
  454MOL0     H62648   9.387   9.892  11.774  0.7043 -2.3691 -0.5891
  454MOL0     H62649   8.745   9.604  11.152  0.5008 -1.1746 -2.3507
  454MOL0     H62650   8.709   9.556  10.915  1.0169  2.0245  2.0985
  454MOL0     H62651   8.779   9.419  10.844 -0.5930 -0.4700  1.4104
  454MOL0     H62652   8.611   9.404  10.903 -0.8678  1.3265  0.6039
  455MOL0     O62653   7.880   2.564   4.537 -0.5449 -0.3988 -0.5999
  455MOL0     C62654   7.970   2.532   4.457 -0.0159 -1.0212  0.3262
  455MOL0     O62655   8.017   2.403   4.455 -0.1877  0.1237  0.3981
  455MOL0     C62656   7.961   2.304   4.534 -0.3315 -0.8490  1.1240
  455MOL0     C62657   7.835   2.250   4.503  0.1538 -0.0405 -0.4121
  455MOL0     C62658   7.783   2.160   4.588  0.4166  0.2217 -0.0181
  455MOL0     C62659   7.845   2.115   4.707 -0.5525 -0.2607 -0.1695
  455MOL0     O62660   7.803   2.017   4.791 -0.4977 -0.6907 -0.5427
  455MOL0     C62661   7.666   1.996   4.814  0.2859 -0.0504 -0.1944
  455MOL0     C62662   7.601   2.120   4.866 -0.2565 -0.2772 -0.3820
  455MOL0     C62663   7.678   2.182   4.986  0.2446  0.6625  0.4897
  455MOL0     C62664   7.587   2.280   5.059 -0.9921  0.1296  0.1872
  455MOL0     C62665   7.477   2.226   5.166  0.1832  0.4983  0.4453
  455MOL0     C62666   7.410   2.339   5.247 -0.8507  0.2196  0.2978
  455MOL0     C62667   7.260   2.342   5.249  0.5712  0.1277  0.6488
  455MOL0     C62668   7.205   2.466   5.324 -0.2653  0.0054  0.5532
  455MOL0     N62669   7.169   2.431   5.459  0.5964 -0.4981 -0.1692
  455MOL0     C62670   7.051   2.378   5.505  0.2016  0.0243  0.0285
  455MOL0     C62671   7.066   2.371   5.641 -0.4580 -0.8188  1.5984
  455MOL0     C62672   6.960   2.333   5.738  1.0554  0.0609  0.5104
  455MOL0     C62673   6.854   2.453   5.763  0.4027  0.9174  0.0559
  455MOL0     C62674   6.924   2.557   5.849  0.0894 -0.6205 -0.6384
  455MOL0     C62675   6.856   2.699   5.843  0.2979 -0.5734 -0.1054
  455MOL0     O62676   6.723   2.687   5.857  0.0153  0.0834  0.2867
  455MOL0     C62677   6.661   2.752   5.962 -0.3694 -0.8901 -0.0143
  455MOL0     C62678   6.525   2.794   5.933 -0.3060  0.7046 -0.4484
  455MOL0     C62679   6.448   2.857   6.028  0.2921 -0.2915  0.3081
  455MOL0     C62680   6.317   2.930   5.980  0.4433 -0.1112 -1.2842
  455MOL0     C62681   6.491   2.852   6.156 -0.1816  0.4399 -0.2721
  455MOL0     C62682   6.402   2.904   6.268  0.1906  0.5164 -0.1582
  455MOL0     O62683   6.268   2.885   6.254  0.4117 -0.0218 -0.5403
  455MOL0     C62684   6.185   2.895   6.369 -0.4765  0.2302  0.7431
  455MOL0     C62685   6.052   2.902   6.340 -0.0415 -0.3893 -0.1543
  455MOL0     C62686   5.951   2.888   6.430  0.9094  0.7801 -0.5040
  455MOL0     C62687   5.978   2.882   6.568 -1.4384 -0.3840  0.6457
  455MOL0     O62688   5.871   2.866   6.643 -0.3748  0.4383  0.3639
  455MOL0     C62689   5.883   2.840   6.780  0.3121 -0.7634 -0.4395
  455MOL0     C62690   5.735   2.838   6.826  0.2801 -0.0440 -0.3243
  455MOL0     C62691   5.633   2.751   6.747  0.4108  0.5945  0.1482
  455MOL0     C62692   5.492   2.778   6.788  0.7321 -0.1975  0.3675
  455MOL0     C62693   5.382   2.710   6.700  0.2632 -0.4130  0.5694
  455MOL0     C62694   5.243   2.771   6.728  0.8943  0.3176 -0.2791
  455MOL0     C62695   5.228   2.921   6.678  0.2916  0.6290  0.7213
  455MOL0     C62696   5.078   2.974   6.710 -0.6136 -0.6153 -0.0475
  455MOL0    Cl62697   5.065   3.150   6.672  0.2988 -0.1837 -0.0833
  455MOL0     C62698   6.120   2.884   6.607 -0.2990 -0.0163  0.1291
  455MOL0     C62699   6.220   2.893   6.509 -0.2263  0.0688  0.6384
  455MOL0     O62700   6.467   2.950   6.365 -0.7278  0.8798 -0.9546
  455MOL0     C62701   6.625   2.818   6.182 -1.0836 -0.1569 -0.0763
  455MOL0     C62702   6.713   2.778   6.087  0.2388 -0.2661 -0.8431
  455MOL0     N62703   7.181   2.433   5.674 -0.6168  0.5077 -0.4874
  455MOL0     N62704   7.240   2.463   5.566 -0.6711  0.1131 -0.0298
  455MOL0     C62705   7.971   2.169   4.731 -0.1433 -0.3875  0.8878
  455MOL0     C62706   8.034   2.257   4.641  0.6685  0.4543 -0.0006
  455MOL0     C62707   8.045   2.633   4.367 -1.0881 -0.6369 -0.0361
  455MOL0     C62708   8.109   2.579   4.256  0.0031 -0.7233  0.0328
  455MOL0     C62709   8.171   2.665   4.166  0.7029 -0.2813  0.7658
  455MOL0     C62710   8.179   2.807   4.188 -0.4365  0.1701  0.1422
  455MOL0     O62711   8.255   2.896   4.104 -0.2792 -0.9448 -0.1969
  455MOL0     C62712   8.319   2.835   3.991 -0.4318 -0.1697  0.3733
  455MOL0     C62713   8.393   2.944   3.921  0.3843 -0.2470  0.3956
  455MOL0     C62714   8.502   2.892   3.826  0.1793  0.6575 -0.7234
  455MOL0     C62715   8.590   2.993   3.763 -0.0329 -0.5557 -0.2500
  455MOL0     C62716   8.640   2.960   3.627 -0.4917 -0.2426  0.4152
  455MOL0     C62717   8.680   2.926   3.516  0.3090 -0.0136  0.8371
  455MOL0     C62718   8.130   2.853   4.306  0.2990  0.6802 -0.8984
  455MOL0     C62719   8.053   2.772   4.397  0.1965 -0.8325  1.4929
  455MOL0     C62720   8.010   2.844   4.531  0.1460 -0.4203  0.2143
  455MOL0     H62721   7.779   2.279   4.415 -2.2842  0.0581  1.0851
  455MOL0     H62722   7.689   2.115   4.556 -1.5117  3.4962  0.6141
  455MOL0     H62723   7.678   1.913   4.885  4.6112 -0.6759 -1.3740
  455MOL0     H62724   7.619   1.963   4.721  0.4747 -2.8027  0.6000
  455MOL0     H62725   7.597   2.204   4.796  2.6580  3.2533  3.1813
  455MOL0     H62726   7.497   2.094   4.887 -0.2389 -0.1536 -0.1369
  455MOL0     H62727   7.724   2.109   5.054  1.9263  2.4374  1.3317
  455MOL0     H62728   7.761   2.234   4.940 -1.8379  2.6732 -1.2252
  455MOL0     H62729   7.644   2.344   5.127 -1.9216  1.4127 -0.2153
  455MOL0     H62730   7.544   2.352   4.990 -1.2540 -2.3682 -2.4087
  455MOL0     H62731   7.522   2.160   5.240 -0.0966  0.8555  0.9456
  455MOL0     H62732   7.400   2.172   5.111 -1.1808  1.1675  1.6122
  455MOL0     H62733   7.446   2.320   5.349  1.9601  0.1022 -0.6174
  455MOL0     H62734   7.451   2.434   5.212 -1.5537 -0.0225 -1.2325
  455MOL0     H62735   7.214   2.254   5.296  1.3811 -0.2299  0.8043
  455MOL0     H62736   7.239   2.350   5.142  3.0608  0.1088  0.0930
  455MOL0     H62737   7.286   2.540   5.320 -0.3545  0.1689  1.6695
  455MOL0     H62738   7.126   2.518   5.268 -0.8964  0.8947  2.2001
  455MOL0     H62739   6.970   2.342   5.442 -1.4409  3.0203  0.2691
  455MOL0     H62740   6.998   2.281   5.826 -2.3898  1.5554  3.1191
  455MOL0     H62741   6.891   2.260   5.696  0.1839  0.1669  1.7023
  455MOL0     H62742   6.802   2.497   5.678 -1.3248  0.9965  1.1098
  455MOL0     H62743   6.774   2.414   5.827  1.3028 -0.5902  0.3285
  455MOL0     H62744   6.919   2.527   5.954 -0.2203  0.6040 -0.2849
  455MOL0     H62745   7.031   2.556   5.824  0.2279 -2.8606 -0.1445
  455MOL0     H62746   6.901   2.765   5.918  2.3566  2.1993 -3.4250
  455MOL0     H62747   6.883   2.747   5.748 -0.3046  1.8711  0.8827
  455MOL0     H62748   6.498   2.768   5.831 -2.9508 -3.5185  1.0473
  455MOL0     H62749   6.341   3.009   5.907 -2.3579  2.0255 -0.0464
  455MOL0     H62750   6.263   2.985   6.058 -3.2413 -3.5958 -1.0599
  455MOL0     H62751   6.254   2.860   5.923  1.0139 -0.3497 -1.6375
  455MOL0     H62752   6.019   2.911   6.237 -0.8303  2.3625  0.2650
  455MOL0     H62753   5.842   2.886   6.421  0.3279  1.7481  3.8344
  455MOL0     H62754   5.932   2.745   6.804  2.8559  0.4457 -0.5620
  455MOL0     H62755   5.943   2.924   6.817  0.8721 -1.2350 -0.2633
  455MOL0     H62756   5.735   2.806   6.931  0.9666 -0.1287 -0.3452
  455MOL0     H62757   5.694   2.940   6.829  3.0536  1.1459 -0.5021
  455MOL0     H62758   5.635   2.644   6.769 -0.4722  0.4544 -0.3717
  455MOL0     H62759   5.648   2.776   6.641 -2.3547  0.4035 -0.3570
  455MOL0     H62760   5.478   2.886   6.797  0.0241 -0.2086 -0.4625
  455MOL0     H62761   5.478   2.740   6.890 -0.3807 -3.7328 -0.9551
  455MOL0     H62762   5.402   2.720   6.593 -0.5731  2.1879  0.5859
  455MOL0     H62763   5.378   2.602   6.717 -1.5528 -0.8630 -2.0193
  455MOL0     H62764   5.222   2.768   6.836  1.2650  2.5976 -0.0944
  455MOL0     H62765   5.163   2.716   6.678  0.2123  1.6198 -0.6652
  455MOL0     H62766   5.251   2.938   6.573  0.6866  2.3374  1.0597
  455MOL0     H62767   5.293   2.989   6.733 -0.0740  0.8180  0.9221
  455MOL0     H62768   5.051   2.958   6.815  0.1844 -0.1245  0.2393
  455MOL0     H62769   5.005   2.920   6.648  1.1507  0.9544 -3.7936
  455MOL0     H62770   6.146   2.863   6.710 -1.4659 -0.8355  0.2761
  455MOL0     H62771   6.320   2.914   6.547 -0.3749  2.0473  0.0870
  455MOL0     H62772   6.669   2.826   6.281  0.0385 -0.2554 -0.5417
  455MOL0     H62773   6.812   2.751   6.122  0.5759  0.4840 -1.1926
  455MOL0     H62774   8.032   2.142   4.817  1.2189 -1.2797 -0.3138
  455MOL0     H62775   8.135   2.295   4.647  1.5065 -1.0802 -2.8496
  455MOL0     H62776   8.095   2.472   4.240 -2.6060 -0.2451 -1.5062
  455MOL0     H62777   8.215   2.617   4.078 -2.1700  1.1350 -1.6390
  455MOL0     H62778   8.384   2.754   4.026 -0.8449 -0.6816 -0.0176
  455MOL0     H62779   8.243   2.784   3.931 -1.3682  1.7299 -0.1328
  455MOL0     H62780   8.439   3.010   3.994 -1.3046  1.1368  0.2847
  455MOL0     H62781   8.320   2.996   3.858  0.7652 -0.1332  0.0438
  455MOL0     H62782   8.574   2.826   3.874  1.0976  0.2342 -2.5980
  455MOL0     H62783   8.455   2.832   3.747 -0.4764 -0.1010  0.2068
  455MOL0     H62784   8.672   3.026   3.829 -1.3128  1.8114  0.2534
  455MOL0     H62785   8.531   3.084   3.756 -1.6808 -1.4675  1.0079
  455MOL0     H62786   8.721   2.893   3.423  1.6280  0.5578  1.1893
  455MOL0     H62787   8.160   2.953   4.336 -1.9082 -0.0376  5.1866
  455MOL0     H62788   7.937   2.787   4.591  0.1820  0.5394  1.2040
  455MOL0     H62789   8.089   2.858   4.605 -1.1346  0.7966  1.4055
  455MOL0     H62790   7.982   2.946   4.503  3.1295  0.4167  0.0187
  456MOL0     O62791   5.021   8.106   3.712 -0.4865 -0.3479 -0.1963
  456MOL0     C62792   4.932   8.113   3.796  0.5861 -0.2923  1.6469
  456MOL0     O62793   4.818   8.041   3.791 -1.4634 -1.0636  0.7856
  456MOL0     C62794   4.821   7.915   3.730  0.4488  0.7315 -0.2358
  456MOL0     C62795   4.939   7.841   3.707  0.1908  0.7852  0.3707
  456MOL0     C62796   4.937   7.719   3.635  0.2676 -0.5725 -0.4320
  456MOL0     C62797   4.814   7.668   3.583  0.0115 -0.3386  0.3501
  456MOL0     O62798   4.803   7.548   3.516 -0.0083 -0.1425 -0.1557
  456MOL0     C62799   4.687   7.465   3.526  0.6326 -0.0496 -0.5028
  456MOL0     C62800   4.705   7.333   3.447 -0.0100 -0.2517  0.3324
  456MOL0     C62801   4.661   7.363   3.306 -0.3390 -0.5471 -1.1308
  456MOL0     C62802   4.775   7.437   3.219  1.2605 -0.2028  0.6542
  456MOL0     C62803   4.730   7.457   3.078  0.5068  0.1290  0.3256
  456MOL0     C62804   4.817   7.543   3.001 -0.4372 -0.2736  0.3428
  456MOL0     C62805   4.767   7.557   2.855 -1.0640  0.3367 -0.4245
  456MOL0     C62806   4.872   7.625   2.765 -0.7917 -0.2422 -0.8271
  456MOL0     N62807   4.865   7.577   2.626  0.7802  0.0829 -0.1267
  456MOL0     C62808   4.866   7.444   2.585 -0.1134  0.5294 -0.5575
  456MOL0     C62809   4.884   7.442   2.454 -0.6941 -0.2544 -0.0755
  456MOL0     C62810   4.900   7.320   2.362  0.3197 -0.5198  0.0115
  456MOL0     C62811   4.900   7.185   2.431 -0.3827 -0.9059 -0.3368
  456MOL0     C62812   4.918   7.057   2.351  0.8146  0.8041  0.8376
  456MOL0     C62813   4.781   7.021   2.281 -0.3379 -0.1059 -0.4969
  456MOL0     O62814   4.755   7.120   2.179 -0.0287  0.3642 -0.6136
  456MOL0     C62815   4.675   7.092   2.075 -0.5976 -0.2483 -0.0621
  456MOL0     C62816   4.666   7.189   1.971 -0.4682  0.5634 -0.1619
  456MOL0     C62817   4.578   7.174   1.872 -0.0996  0.4263 -0.5720
  456MOL0     C62818   4.552   7.291   1.782 -0.1244 -0.6696  1.0793
  456MOL0     C62819   4.515   7.050   1.856  0.6626  0.6181  0.4748
  456MOL0     C62820   4.444   7.017   1.727  0.0037  0.4278 -0.7986
  456MOL0     O62821   4.387   6.891   1.721 -0.5030 -0.9456 -0.1980
  456MOL0     C62822   4.340   6.835   1.605  0.0850 -0.4376  0.8001
  456MOL0     C62823   4.399   6.861   1.478 -0.1308  0.1158  0.2173
  456MOL0     C62824   4.349   6.796   1.363  0.3537  0.4173  0.1211
  456MOL0     C62825   4.244   6.704   1.364  1.2384  0.2039 -0.1599
  456MOL0     O62826   4.183   6.644   1.252  1.2124  0.5925  0.0290
  456MOL0     C62827   4.244   6.676   1.130 -0.1492 -0.7080  0.1751
  456MOL0     C62828   4.183   6.654   0.998 -0.1211  1.1224  0.0350
  456MOL0     C62829   4.264   6.695   0.871  0.2761  1.0773 -0.7058
  456MOL0     C62830   4.179   6.681   0.748  0.5675 -0.9000 -0.2873
  456MOL0     C62831   4.241   6.745   0.627  0.1035 -0.2526 -0.5726
  456MOL0     C62832   4.350   6.662   0.561  1.0292  0.3425 -0.4863
  456MOL0     C62833   4.282   6.562   0.469  0.4972 -0.3039  0.0724
  456MOL0     C62834   4.374   6.442   0.439  1.2466 -0.3872 -0.1583
  456MOL0    Cl62835   4.418   6.362   0.595  0.1529  0.2616  0.0320
  456MOL0     C62836   4.190   6.671   1.497  0.5587 -0.3019  0.3456
  456MOL0     C62837   4.247   6.732   1.608  0.5114 -0.6944  0.0456
  456MOL0     O62838   4.440   7.097   1.634  0.7915  0.1116 -1.0515
  456MOL0     C62839   4.525   6.953   1.952  0.9235  0.2768 -0.3005
  456MOL0     C62840   4.599   6.978   2.069 -0.3516  0.3025  0.2540
  456MOL0     N62841   4.904   7.577   2.414  0.0645  0.1542 -0.6129
  456MOL0     N62842   4.881   7.654   2.514  0.0326  0.6113 -1.2124
  456MOL0     C62843   4.702   7.732   3.632 -0.5860 -0.4232  0.3326
  456MOL0     C62844   4.702   7.853   3.706 -0.4494  0.1865  0.1399
  456MOL0     C62845   4.939   8.218   3.891  0.2391  0.6300 -0.0288
  456MOL0     C62846   4.820   8.289   3.926 -0.4091  0.1229 -1.3637
  456MOL0     C62847   4.823   8.362   4.052 -0.1920 -0.4021  0.1443
  456MOL0     C62848   4.941   8.389   4.133 -0.2415  0.3605 -0.2604
  456MOL0     O62849   4.948   8.446   4.262 -0.1038 -0.4106 -0.2236
  456MOL0     C62850   4.825   8.512   4.313 -0.5178  0.8616  0.3277
  456MOL0     C62851   4.857   8.595   4.439  0.9516  0.6432  0.2994
  456MOL0     C62852   4.731   8.668   4.482  0.2986 -0.1961 -0.1863
  456MOL0     C62853   4.603   8.579   4.498  0.1805  0.1837  0.3780
  456MOL0     C62854   4.529   8.535   4.379 -0.2963  1.2487 -0.1354
  456MOL0     C62855   4.484   8.515   4.267  0.0223  0.3045 -0.6358
  456MOL0     C62856   5.052   8.323   4.084 -1.0136  0.1830  0.2664
  456MOL0     C62857   5.060   8.240   3.969  0.1687 -0.0501  0.4251
  456MOL0     C62858   5.185   8.154   3.958 -0.5649  0.1553 -0.6727
  456MOL0     H62859   5.031   7.878   3.751 -0.8914  1.6255  2.0309
  456MOL0     H62860   5.027   7.662   3.612 -1.0494 -3.1620  0.4298
  456MOL0     H62861   4.604   7.531   3.498 -0.6932 -1.3853  0.1644
  456MOL0     H62862   4.672   7.447   3.633 -1.1806  0.3131 -0.6524
  456MOL0     H62863   4.811   7.309   3.451  0.0175 -1.1988 -2.8919
  456MOL0     H62864   4.642   7.250   3.481 -0.0320 -1.6938 -2.8306
  456MOL0     H62865   4.642   7.269   3.253  0.9655 -0.9157 -0.9757
  456MOL0     H62866   4.572   7.426   3.299 -0.3346 -0.2077  1.2490
  456MOL0     H62867   4.790   7.538   3.258  0.5457  0.3958 -0.5920
  456MOL0     H62868   4.872   7.386   3.221 -0.1812 -3.1578  0.9472
  456MOL0     H62869   4.627   7.496   3.080 -1.0063 -3.4568 -0.2021
  456MOL0     H62870   4.726   7.362   3.024  1.3136 -0.4143  1.1950
  456MOL0     H62871   4.833   7.644   3.039  1.5895  0.5559 -2.4181
  456MOL0     H62872   4.918   7.500   2.999  0.5405  1.8898 -0.1601
  456MOL0     H62873   4.676   7.619   2.857 -1.4781 -0.2789  0.9037
  456MOL0     H62874   4.750   7.457   2.815  0.0591  1.0511 -2.9170
  456MOL0     H62875   4.858   7.733   2.760  2.1316  0.1822 -4.3714
  456MOL0     H62876   4.976   7.614   2.798 -1.1878 -1.9018 -0.0130
  456MOL0     H62877   4.862   7.369   2.664  1.3113  2.1621  1.1595
  456MOL0     H62878   4.990   7.333   2.302  2.1859  2.8190  3.0868
  456MOL0     H62879   4.817   7.324   2.291 -0.2700 -0.2106  0.7022
  456MOL0     H62880   4.992   7.192   2.490  0.2559 -0.6936 -1.3342
  456MOL0     H62881   4.807   7.175   2.488  0.5579 -1.0631  1.2436
  456MOL0     H62882   5.003   7.064   2.283  0.5232 -1.6072  0.1014
  456MOL0     H62883   4.935   6.978   2.425 -0.9554 -0.7047 -0.2460
  456MOL0     H62884   4.790   6.921   2.237 -2.3650  0.3100 -2.0465
  456MOL0     H62885   4.700   7.022   2.355  0.3271 -1.1572  0.2631
  456MOL0     H62886   4.725   7.278   1.987  1.2506 -1.0077  3.6224
  456MOL0     H62887   4.549   7.389   1.831 -0.8000  0.1495 -0.5297
  456MOL0     H62888   4.452   7.295   1.737  1.3048  0.9125 -2.2202
  456MOL0     H62889   4.624   7.303   1.701 -0.3771 -0.1448  0.9294
  456MOL0     H62890   4.487   6.922   1.462  0.5026 -1.2145 -1.7297
  456MOL0     H62891   4.389   6.828   1.267  2.6062  2.0977  1.5303
  456MOL0     H62892   4.262   6.784   1.131  1.4775 -0.9481  1.7853
  456MOL0     H62893   4.343   6.630   1.123  1.4597  1.8702  3.1722
  456MOL0     H62894   4.161   6.547   0.997 -0.5665  1.1655  1.9842
  456MOL0     H62895   4.088   6.709   0.993  0.7252  2.5454 -2.3301
  456MOL0     H62896   4.364   6.651   0.869  1.4837  3.5070  1.0713
  456MOL0     H62897   4.277   6.803   0.888  0.0790  0.6609  2.8082
  456MOL0     H62898   4.079   6.720   0.766  0.9570  0.2162 -0.4645
  456MOL0     H62899   4.156   6.576   0.725  1.5994 -1.2410  0.1268
  456MOL0     H62900   4.165   6.764   0.550  0.3823  3.7177 -0.0644
  456MOL0     H62901   4.289   6.840   0.652 -0.5805 -1.0738  5.0353
  456MOL0     H62902   4.399   6.610   0.643 -0.0372  2.0907  1.3468
  456MOL0     H62903   4.429   6.719   0.512 -0.7225  4.8271  1.3338
  456MOL0     H62904   4.268   6.614   0.374  1.9690  0.8510  0.4494
  456MOL0     H62905   4.185   6.522   0.498 -0.0349  1.1243  0.3474
  456MOL0     H62906   4.459   6.490   0.391  1.9256 -1.3192  0.0813
  456MOL0     H62907   4.337   6.369   0.366  1.1306  0.3113 -0.8073
  456MOL0     H62908   4.113   6.595   1.495 -1.5541  1.7150 -2.5082
  456MOL0     H62909   4.207   6.689   1.700  0.3402 -0.0568  0.2756
  456MOL0     H62910   4.491   6.851   1.937  1.7173  0.0381 -0.4940
  456MOL0     H62911   4.593   6.914   2.156 -1.1018 -0.3496 -0.2604
  456MOL0     H62912   4.608   7.696   3.592  0.4357  0.0558 -2.7495
  456MOL0     H62913   4.604   7.886   3.741 -0.5681 -1.1402  1.1383
  456MOL0     H62914   4.729   8.290   3.868 -2.0513 -3.1019  0.8439
  456MOL0     H62915   4.731   8.415   4.074 -0.4046 -0.9335  0.5433
  456MOL0     H62916   4.789   8.585   4.240 -1.6364 -0.4905 -0.5023
  456MOL0     H62917   4.757   8.429   4.334  0.5527  0.4160  2.3675
  456MOL0     H62918   4.936   8.670   4.426 -0.1110  1.8786  0.8300
  456MOL0     H62919   4.875   8.515   4.511 -2.6951  0.4199  1.1222
  456MOL0     H62920   4.757   8.706   4.581  0.6184 -2.7517  0.7941
  456MOL0     H62921   4.700   8.754   4.421 -0.8810 -0.9408 -0.6711
  456MOL0     H62922   4.533   8.642   4.554  1.3062 -0.5558  2.7888
  456MOL0     H62923   4.642   8.494   4.556  0.9616  1.0371  1.1309
  456MOL0     H62924   4.446   8.506   4.167 -2.4327  0.4724  0.2153
  456MOL0     H62925   5.140   8.333   4.146 -1.8931 -1.9240  1.9833
  456MOL0     H62926   5.249   8.175   4.044  1.9784 -0.1509 -2.4059
  456MOL0     H62927   5.157   8.048   3.956 -0.0054  0.0129 -2.4521
  456MOL0     H62928   5.238   8.168   3.864  2.0233  0.4506  0.7487
  457MOL0     O62929   9.379   2.797   5.113  0.0430 -0.3589 -0.1062
  457MOL0     C62930   9.278   2.859   5.084 -0.0517  0.1634  0.2587
  457MOL0     O62931   9.238   2.886   4.959  0.1172  0.8117  0.7663
  457MOL0     C62932   9.326   2.870   4.861  0.0568  0.4860  0.0789
  457MOL0     C62933   9.455   2.932   4.860 -0.3590  0.1228 -0.4418
  457MOL0     C62934   9.517   2.937   4.738  0.0133  0.1904  0.7202
  457MOL0     C62935   9.485   2.876   4.625  0.4782  1.2627  0.8092
  457MOL0     O62936   9.568   2.903   4.523 -0.3018 -0.8316  0.5109
  457MOL0     C62937   9.550   2.842   4.391  0.1299 -0.4267 -0.5908
  457MOL0     C62938   9.666   2.889   4.305  0.2328  0.4842  0.1476
  457MOL0     C62939   9.795   2.856   4.372 -0.3470 -0.4509 -0.1607
  457MOL0     C62940   9.906   2.839   4.257 -0.0164 -0.9809 -0.4816
  457MOL0     C62941   9.932   2.946   4.155  0.4381  0.2040  0.2510
  457MOL0     C62942  10.078   2.948   4.112  0.4378  0.3885 -0.0787
  457MOL0     C62943  10.120   3.055   4.015  0.2794 -0.1343 -0.2892
  457MOL0     C62944  10.080   3.203   4.037  0.5508 -0.0423  0.2724
  457MOL0     N62945   9.943   3.246   3.993 -0.1977 -0.3242  1.0344
  457MOL0     C62946   9.886   3.209   3.879  0.5499  0.5927  0.4852
  457MOL0     C62947   9.749   3.225   3.890  0.5224  0.0254  0.1396
  457MOL0     C62948   9.636   3.198   3.785 -0.2655  0.1449 -1.3983
  457MOL0     C62949   9.586   3.062   3.822  0.1315  0.5652 -0.5702
  457MOL0     C62950   9.686   2.942   3.776 -0.1768 -0.6603 -0.1303
  457MOL0     C62951   9.612   2.814   3.799  0.0386 -0.1791 -0.1039
  457MOL0     O62952   9.537   2.778   3.680  0.1383  0.6225 -0.0528
  457MOL0     C62953   9.453   2.666   3.687  0.6106  0.2945 -0.5678
  457MOL0     C62954   9.355   2.644   3.587 -0.3433 -0.2754  0.5321
  457MOL0     C62955   9.262   2.531   3.580  0.4435  0.9634 -0.2993
  457MOL0     C62956   9.194   2.493   3.443 -0.3108  0.4033  0.0494
  457MOL0     C62957   9.262   2.445   3.688  0.3885 -0.4912  0.4913
  457MOL0     C62958   9.176   2.323   3.694 -0.8115 -0.2544 -0.0670
  457MOL0     O62959   9.243   2.225   3.768  1.2010 -0.4214 -0.7870
  457MOL0     C62960   9.180   2.106   3.787  1.2770  0.6572  0.0776
  457MOL0     C62961   9.047   2.077   3.816 -0.6692 -1.0309  0.6050
  457MOL0     C62962   9.018   1.949   3.874  0.3340  0.6721 -0.3875
  457MOL0     C62963   9.108   1.837   3.859  0.6645 -0.9802 -0.4586
  457MOL0     O62964   9.086   1.714   3.909  0.1183  0.2087  0.0052
  457MOL0     C62965   8.948   1.664   3.926 -0.0119  0.0666 -0.3194
  457MOL0     C62966   8.952   1.515   3.933 -0.6578 -0.4124  0.3900
  457MOL0     C62967   8.988   1.463   3.786 -0.5550 -0.2365  1.2523
  457MOL0     C62968   8.980   1.309   3.777 -0.2861  0.2836  0.0039
  457MOL0     C62969   8.843   1.240   3.766  0.1493 -0.0073  0.7072
  457MOL0     C62970   8.780   1.271   3.631  0.5189 -0.3784 -0.1068
  457MOL0     C62971   8.642   1.204   3.615  0.6829  0.1362 -0.2985
  457MOL0     C62972   8.656   1.072   3.541  0.4737  0.5158 -0.6061
  457MOL0    Cl62973   8.502   1.000   3.500  0.1161  0.2459  0.7594
  457MOL0     C62974   9.235   1.862   3.807  0.6884  0.6374 -0.3904
  457MOL0     C62975   9.269   1.998   3.781  0.2683 -0.2950  0.9177
  457MOL0     O62976   9.067   2.313   3.645  0.2459  0.2125  0.1789
  457MOL0     C62977   9.361   2.460   3.783 -0.6270 -0.6187  0.2979
  457MOL0     C62978   9.454   2.560   3.781  0.0131  0.6986  0.3904
  457MOL0     N62979   9.723   3.290   4.005 -1.1560  0.1378 -1.0653
  457MOL0     N62980   9.841   3.294   4.071 -0.3757  0.2829  0.5524
  457MOL0     C62981   9.365   2.800   4.629 -1.0698  0.7905  1.4537
  457MOL0     C62982   9.283   2.799   4.741  0.2169 -0.9430 -0.1253
  457MOL0     C62983   9.178   2.904   5.193 -0.1066 -0.7035 -0.0090
  457MOL0     C62984   9.069   2.985   5.162 -0.1715 -0.0859  0.5227
  457MOL0     C62985   8.991   3.043   5.254 -0.0334 -0.2628  1.0867
  457MOL0     C62986   9.002   3.019   5.384  0.0813  0.0452 -0.4105
  457MOL0     O62987   8.934   3.062   5.493 -0.4521 -0.1198 -0.0206
  457MOL0     C62988   8.832   3.162   5.464  0.3931 -0.1658  0.2109
  457MOL0     C62989   8.757   3.187   5.603 -1.5951 -0.5371  0.5224
  457MOL0     C62990   8.658   3.075   5.632 -0.1644 -0.4952 -0.0760
  457MOL0     C62991   8.617   3.069   5.777  0.2579 -0.2389  0.4987
  457MOL0     C62992   8.576   3.206   5.813  0.0358 -0.4505  0.3400
  457MOL0     C62993   8.555   3.320   5.848  0.3808  1.2782  0.7982
  457MOL0     C62994   9.107   2.934   5.418  0.0521  0.3365  0.1446
  457MOL0     C62995   9.193   2.870   5.332 -0.5851 -0.0925 -0.0853
  457MOL0     C62996   9.308   2.794   5.387 -0.1683  0.2260 -0.3821
  457MOL0     H62997   9.490   2.993   4.943  3.2650 -0.6466 -1.2199
  457MOL0     H62998   9.605   3.000   4.745 -1.5025  2.4424  0.6579
  457MOL0     H62999   9.461   2.884   4.344  0.8360  2.4039  0.3967
  457MOL0     H63000   9.554   2.733   4.396 -0.4855 -0.5046 -1.5690
  457MOL0     H63001   9.660   2.839   4.208 -0.5979 -2.8423  1.7744
  457MOL0     H63002   9.665   2.996   4.286  0.6153  0.5313  0.3771
  457MOL0     H63003   9.811   2.935   4.447  3.7001  0.1425 -1.4283
  457MOL0     H63004   9.802   2.755   4.413 -0.3678 -0.4515 -0.1593
  457MOL0     H63005   9.995   2.826   4.318 -0.6716 -2.6131  0.1737
  457MOL0     H63006   9.887   2.751   4.195  0.7987 -0.0970 -2.0673
  457MOL0     H63007   9.900   3.044   4.191 -1.2027 -0.1634 -0.1146
  457MOL0     H63008   9.869   2.932   4.067  2.1423 -2.0803 -0.6894
  457MOL0     H63009  10.142   2.955   4.200 -2.3838 -0.3444  2.2032
  457MOL0     H63010  10.097   2.850   4.069 -1.1237  0.9730 -2.2993
  457MOL0     H63011  10.104   3.027   3.910  0.3668  0.3656 -0.4415
  457MOL0     H63012  10.229   3.055   4.024  0.5920 -0.4917 -3.1565
  457MOL0     H63013  10.093   3.233   4.141 -1.0034  1.9602 -0.0633
  457MOL0     H63014  10.154   3.262   3.981 -2.8303  1.9739 -2.5353
  457MOL0     H63015   9.937   3.177   3.789  2.2048  0.8448  1.2824
  457MOL0     H63016   9.661   3.201   3.678 -1.4806 -3.3309 -1.9086
  457MOL0     H63017   9.552   3.265   3.807  2.0808  3.2996 -1.4118
  457MOL0     H63018   9.559   3.049   3.927  1.5832 -0.1059 -0.2631
  457MOL0     H63019   9.485   3.051   3.781 -0.5767 -0.1158  1.2718
  457MOL0     H63020   9.705   2.947   3.668  0.1678  0.6071 -0.0255
  457MOL0     H63021   9.776   2.943   3.839 -0.6550 -0.0855  0.5555
  457MOL0     H63022   9.689   2.739   3.816  1.0015  0.4244 -1.6145
  457MOL0     H63023   9.549   2.823   3.888  1.0547 -1.7935  0.8250
  457MOL0     H63024   9.336   2.712   3.504  2.2544  0.1561  0.1953
  457MOL0     H63025   9.211   2.391   3.407 -0.0221  0.0248  1.2201
  457MOL0     H63026   9.219   2.567   3.367 -1.2298 -2.6879 -3.5809
  457MOL0     H63027   9.086   2.496   3.462 -0.0790 -0.0301  1.5771
  457MOL0     H63028   8.979   2.162   3.815  0.5393  0.0006 -1.8863
  457MOL0     H63029   8.919   1.920   3.907 -0.0083  3.5409  1.4538
  457MOL0     H63030   8.916   1.715   4.018  2.4538  1.8757 -0.3590
  457MOL0     H63031   8.884   1.693   3.843 -0.4893 -2.4228 -0.9202
  457MOL0     H63032   9.033   1.502   4.005  3.8189  2.1977 -3.6100
  457MOL0     H63033   8.850   1.484   3.960 -0.9678  0.7090  0.5405
  457MOL0     H63034   9.088   1.503   3.765 -1.1140  0.0690 -1.0608
  457MOL0     H63035   8.929   1.512   3.708  1.1465 -0.6262 -0.3564
  457MOL0     H63036   9.018   1.260   3.867 -0.7739 -0.2710 -0.0931
  457MOL0     H63037   9.036   1.271   3.691 -1.2383 -2.4693  0.5248
  457MOL0     H63038   8.851   1.132   3.782 -2.3595  0.2422  5.9254
  457MOL0     H63039   8.781   1.280   3.847 -1.3161  2.7887 -1.6378
  457MOL0     H63040   8.849   1.237   3.553  3.1111  3.3911  0.2576
  457MOL0     H63041   8.767   1.379   3.616 -0.9253 -0.7727 -2.1015
  457MOL0     H63042   8.582   1.271   3.553  0.1392  0.4654  0.5717
  457MOL0     H63043   8.592   1.184   3.710  1.3155  1.9523  0.4590
  457MOL0     H63044   8.706   0.985   3.585 -0.5837 -2.4346 -4.5992
  457MOL0     H63045   8.708   1.094   3.447  3.6994  1.0226  1.1413
  457MOL0     H63046   9.310   1.784   3.799 -1.3733 -1.3554 -1.6358
  457MOL0     H63047   9.371   2.015   3.746 -0.0313  0.9885  0.6055
  457MOL0     H63048   9.379   2.394   3.868  1.4167  1.5286  1.6681
  457MOL0     H63049   9.526   2.542   3.861 -1.8828 -5.5438  1.1993
  457MOL0     H63050   9.339   2.744   4.540  5.1259 -2.1058  0.9100
  457MOL0     H63051   9.183   2.757   4.728 -0.5712  1.3826 -2.5870
  457MOL0     H63052   9.041   3.003   5.058 -2.5979 -0.0543  1.1052
  457MOL0     H63053   8.908   3.104   5.219  2.4626  2.5533 -0.3636
  457MOL0     H63054   8.872   3.252   5.418 -0.3236  0.7372  1.2993
  457MOL0     H63055   8.763   3.107   5.398  1.1989 -2.2024  0.9780
  457MOL0     H63056   8.712   3.286   5.602 -0.5787 -0.0230  2.0694
  457MOL0     H63057   8.833   3.187   5.681 -0.8042 -2.8525 -0.1444
  457MOL0     H63058   8.569   3.086   5.570  0.6551 -2.1842 -1.6846
  457MOL0     H63059   8.701   2.983   5.591 -1.8222 -0.5818 -1.7297
  457MOL0     H63060   8.699   3.033   5.839  0.9026 -0.2360 -0.3416
  457MOL0     H63061   8.534   2.999   5.790 -0.3747  0.7956  2.6928
  457MOL0     H63062   8.535   3.423   5.869  1.4382  1.2391  2.1858
  457MOL0     H63063   9.123   2.917   5.524 -0.3095  0.4123  0.2118
  457MOL0     H63064   9.289   2.781   5.494  2.8765  0.4084  0.2771
  457MOL0     H63065   9.310   2.696   5.338  3.6103  1.1594 -2.4632
  457MOL0     H63066   9.410   2.831   5.375  0.4752 -1.9998 -2.3995
  458MOL0     O63067   6.677   9.262   3.744 -1.0747  0.1649 -0.3732
  458MOL0     C63068   6.668   9.293   3.622 -0.1664 -0.2501 -0.4235
  458MOL0     O63069   6.643   9.207   3.516  0.8200  0.7651 -0.7748
  458MOL0     C63070   6.635   9.072   3.546  0.1528  0.5919  0.1589
  458MOL0     C63071   6.753   9.003   3.542  0.3919  0.5420 -0.3524
  458MOL0     C63072   6.742   8.861   3.540  0.2835 -0.1835  0.5377
  458MOL0     C63073   6.621   8.796   3.544 -0.1928 -0.1390  0.3205
  458MOL0     O63074   6.628   8.660   3.544 -0.9254 -0.4930 -0.1453
  458MOL0     C63075   6.532   8.587   3.626 -0.0442 -0.3784  0.1079
  458MOL0     C63076   6.564   8.587   3.779 -0.2304 -1.1011  0.2604
  458MOL0     C63077   6.682   8.497   3.806  0.1379 -0.0387  0.0011
  458MOL0     C63078   6.710   8.475   3.958 -0.1174  0.4032  0.0264
  458MOL0     C63079   6.832   8.395   3.989 -0.6612  0.5585  0.8843
  458MOL0     C63080   6.839   8.365   4.136  0.4437 -0.4530 -0.3730
  458MOL0     C63081   6.860   8.478   4.232  0.1689  0.2879  0.2575
  458MOL0     C63082   6.838   8.429   4.373  0.4631  0.2743 -0.4021
  458MOL0     N63083   6.693   8.418   4.408 -0.3843 -0.3783 -0.0389
  458MOL0     C63084   6.644   8.304   4.463  0.3706  0.0903  0.2668
  458MOL0     C63085   6.508   8.318   4.457  0.2224  0.0617  0.2569
  458MOL0     C63086   6.397   8.225   4.499 -0.2914  0.2269  0.1137
  458MOL0     C63087   6.294   8.283   4.606 -0.7983  0.3941  0.3119
  458MOL0     C63088   6.354   8.323   4.749  0.1316  0.1762 -0.6282
  458MOL0     C63089   6.275   8.421   4.833  0.1540 -0.5686 -0.0198
  458MOL0     O63090   6.355   8.429   4.945 -0.1939 -0.3447  0.6883
  458MOL0     C63091   6.307   8.482   5.062 -0.2635  0.8453 -0.2756
  458MOL0     C63092   6.400   8.475   5.167  0.5412 -0.0875  0.2076
  458MOL0     C63093   6.363   8.531   5.290  0.5570  0.0782  0.1565
  458MOL0     C63094   6.475   8.510   5.386 -0.3298 -0.3211 -0.6598
  458MOL0     C63095   6.241   8.605   5.307  0.6202 -0.3809 -0.1801
  458MOL0     C63096   6.197   8.666   5.433 -0.3318 -0.4346 -0.4126
  458MOL0     O63097   6.278   8.662   5.544  0.2481  0.1401  0.6110
  458MOL0     C63098   6.223   8.689   5.672  0.5254 -0.2023 -0.0946
  458MOL0     C63099   6.309   8.733   5.774  0.2770 -0.4178  0.1105
  458MOL0     C63100   6.255   8.786   5.894 -0.7414 -0.1973  0.0935
  458MOL0     C63101   6.116   8.783   5.915 -0.9029  0.5915 -0.7178
  458MOL0     O63102   6.080   8.832   6.035  0.5180  0.3972 -0.2328
  458MOL0     C63103   6.121   8.752   6.146 -0.7666  0.1165 -0.2011
  458MOL0     C63104   6.090   8.835   6.277  0.5128 -0.0478  0.1887
  458MOL0     C63105   6.171   8.767   6.390  1.1356 -0.0143 -0.3555
  458MOL0     C63106   6.140   8.820   6.532 -0.5579  0.0908  0.5426
  458MOL0     C63107   6.249   8.765   6.613 -0.0093  0.0032 -0.2689
  458MOL0     C63108   6.242   8.780   6.771 -0.4316 -0.1720  0.7595
  458MOL0     C63109   6.215   8.928   6.819 -0.1303 -0.1528 -0.0061
  458MOL0     C63110   6.204   8.930   6.969 -0.3252 -0.1251 -0.2601
  458MOL0    Cl63111   6.365   8.970   7.032  0.2660  0.3575  0.4899
  458MOL0     C63112   6.032   8.730   5.817  0.0423  0.0635  0.1875
  458MOL0     C63113   6.084   8.692   5.693  0.5205  0.5042  0.3887
  458MOL0     O63114   6.092   8.732   5.422 -0.0721  0.4337  0.7025
  458MOL0     C63115   6.155   8.597   5.191 -0.3157 -0.2828 -0.2523
  458MOL0     C63116   6.182   8.524   5.082  0.0608  0.2632  0.2678
  458MOL0     N63117   6.476   8.427   4.380 -0.7270  0.5115 -1.2005
  458MOL0     N63118   6.587   8.494   4.359 -0.3782 -0.2704  0.0611
  458MOL0     C63119   6.508   8.874   3.558  1.3072 -0.1203 -0.9064
  458MOL0     C63120   6.513   9.012   3.550  0.1810 -0.8101  0.1287
  458MOL0     C63121   6.674   9.434   3.596 -0.3541  0.2843  0.9072
  458MOL0     C63122   6.609   9.515   3.688 -0.1389 -0.8050 -0.3379
  458MOL0     C63123   6.597   9.654   3.669 -0.2778 -0.3401  0.4503
  458MOL0     C63124   6.669   9.705   3.555  0.2660 -0.3490 -0.0899
  458MOL0     O63125   6.680   9.840   3.514  0.3353  0.0765 -0.3360
  458MOL0     C63126   6.584   9.934   3.557  0.2099 -0.0786 -0.8765
  458MOL0     C63127   6.437   9.891   3.527 -1.0415 -0.4573  0.4674
  458MOL0     C63128   6.414   9.811   3.388  0.3326  0.4901 -0.3218
  458MOL0     C63129   6.481   9.887   3.278  0.4010 -0.0561 -0.0135
  458MOL0     C63130   6.455   9.854   3.142  0.0516  0.3162 -0.0171
  458MOL0     C63131   6.459   9.813   3.025  0.5388  0.1827  0.8103
  458MOL0     C63132   6.746   9.629   3.476 -0.1022  0.1455  0.1685
  458MOL0     C63133   6.745   9.488   3.484  0.8169 -0.7150 -1.4088
  458MOL0     C63134   6.818   9.407   3.377  0.0693  0.3761 -0.6494
  458MOL0     H63135   6.850   9.050   3.529  1.4380 -1.7262 -1.4852
  458MOL0     H63136   6.831   8.800   3.534 -0.2260 -0.8469 -0.4838
  458MOL0     H63137   6.534   8.484   3.591  3.4171  0.5649 -3.0322
  458MOL0     H63138   6.429   8.624   3.617  0.3257  1.2281  1.6961
  458MOL0     H63139   6.568   8.689   3.818  0.3291  0.1290 -2.7096
  458MOL0     H63140   6.482   8.553   3.843 -1.0874 -0.4237 -0.4531
  458MOL0     H63141   6.660   8.404   3.754  1.8825  0.1997 -1.2525
  458MOL0     H63142   6.764   8.533   3.743 -0.9068  0.6859 -0.9811
  458MOL0     H63143   6.715   8.572   4.009 -3.8746 -0.0565  1.5961
  458MOL0     H63144   6.626   8.414   3.991 -1.1587 -0.3670 -3.6651
  458MOL0     H63145   6.920   8.446   3.948 -0.0979 -0.5970  0.6017
  458MOL0     H63146   6.832   8.300   3.934 -3.2272  2.6383 -3.1547
  458MOL0     H63147   6.740   8.332   4.172  2.7142 -1.0735  6.8624
  458MOL0     H63148   6.901   8.276   4.152 -2.4121 -2.6280 -0.3660
  458MOL0     H63149   6.782   8.551   4.209 -0.0034  0.5809  1.6587
  458MOL0     H63150   6.964   8.506   4.216  1.1748 -0.8141  3.8359
  458MOL0     H63151   6.897   8.339   4.391  1.2189  1.2535  2.5477
  458MOL0     H63152   6.878   8.508   4.437  3.1426 -0.8762 -0.5151
  458MOL0     H63153   6.689   8.210   4.492  0.4555  0.1305  0.2638
  458MOL0     H63154   6.456   8.142   4.540 -0.7001 -0.0060  0.2283
  458MOL0     H63155   6.339   8.209   4.408  1.1168 -0.4115 -0.7092
  458MOL0     H63156   6.239   8.370   4.569 -3.3535 -1.4128 -0.4398
  458MOL0     H63157   6.205   8.221   4.624 -1.1646  1.6407  3.5711
  458MOL0     H63158   6.375   8.233   4.807  1.1383  1.0685  0.4312
  458MOL0     H63159   6.452   8.369   4.732  0.8768 -0.0603  2.4460
  458MOL0     H63160   6.258   8.525   4.804  0.7581  0.9029  4.1843
  458MOL0     H63161   6.184   8.368   4.863  0.6717 -1.3243  0.2276
  458MOL0     H63162   6.494   8.427   5.146  1.4541  1.8284 -0.3131
  458MOL0     H63163   6.436   8.476   5.483  2.6137  2.0168  1.5432
  458MOL0     H63164   6.522   8.606   5.407 -2.3616  0.5496  0.2192
  458MOL0     H63165   6.565   8.452   5.366  1.0110  1.6533 -0.6741
  458MOL0     H63166   6.415   8.728   5.754  0.8593 -1.7961  3.1003
  458MOL0     H63167   6.313   8.841   5.967  1.3747  2.7149 -3.4455
  458MOL0     H63168   6.077   8.651   6.146  1.2313 -0.8036 -0.2231
  458MOL0     H63169   6.227   8.726   6.144 -0.8358 -0.3697  1.3656
  458MOL0     H63170   6.127   8.936   6.260 -1.0613  1.1464  3.0513
  458MOL0     H63171   5.988   8.850   6.315  0.4436  1.7399 -0.6271
  458MOL0     H63172   6.277   8.765   6.363  0.8308 -0.4081 -1.5827
  458MOL0     H63173   6.164   8.658   6.391  2.7799 -0.1502 -0.8908
  458MOL0     H63174   6.044   8.788   6.575 -0.1829 -1.8660  0.0046
  458MOL0     H63175   6.139   8.930   6.532 -1.1895  0.1835 -2.1959
  458MOL0     H63176   6.250   8.661   6.581  1.3165  0.1783 -0.8549
  458MOL0     H63177   6.337   8.816   6.573  0.6150 -0.8314  0.0246
  458MOL0     H63178   6.335   8.745   6.817  1.6188  0.1276 -2.7640
  458MOL0     H63179   6.166   8.714   6.811  1.6606 -2.3684  1.3338
  458MOL0     H63180   6.120   8.958   6.773 -0.6469 -1.6782 -0.0123
  458MOL0     H63181   6.291   8.995   6.780  0.8233 -1.0925  0.1840
  458MOL0     H63182   6.199   8.826   7.002 -1.5441  0.5225  1.8119
  458MOL0     H63183   6.115   8.981   7.007 -0.0307  0.6314 -0.5663
  458MOL0     H63184   5.925   8.724   5.830  0.2006 -0.6629  1.2843
  458MOL0     H63185   6.019   8.638   5.626  0.5141  1.5247 -0.4671
  458MOL0     H63186   6.055   8.640   5.186  1.0875  3.5658  1.2323
  458MOL0     H63187   6.112   8.523   4.999  0.2783  3.2811 -0.0526
  458MOL0     H63188   6.405   8.840   3.557  1.4791 -0.7044  0.1509
  458MOL0     H63189   6.423   9.070   3.533  0.7231 -0.3146 -1.1374
  458MOL0     H63190   6.556   9.473   3.773 -0.3796  0.6232  0.2464
  458MOL0     H63191   6.542   9.712   3.743 -0.8933 -1.6394  1.0464
  458MOL0     H63192   6.590   9.932   3.666  1.5123  1.8237 -0.8860
  458MOL0     H63193   6.597  10.032   3.512 -1.0402  1.5117  1.9829
  458MOL0     H63194   6.385   9.985   3.510  2.9819  2.2969  1.8590
  458MOL0     H63195   6.393   9.834   3.610  0.5140 -0.0745  1.6017
  458MOL0     H63196   6.434   9.704   3.399  0.8392  0.5153 -0.9249
  458MOL0     H63197   6.307   9.823   3.371  0.1410 -0.6119 -0.0146
  458MOL0     H63198   6.589   9.870   3.286  0.7983  1.2703 -1.8715
  458MOL0     H63199   6.453   9.989   3.304  1.7526 -0.3098  2.8807
  458MOL0     H63200   6.458   9.751   2.938  2.9942  0.1278  0.7584
  458MOL0     H63201   6.807   9.675   3.399  1.8414 -0.7803  1.0757
  458MOL0     H63202   6.873   9.475   3.311 -0.4320  1.9652  0.5144
  458MOL0     H63203   6.887   9.338   3.427 -1.4347 -1.6322 -1.2043
  458MOL0     H63204   6.753   9.342   3.317  0.1075 -0.3845  0.1106
  459MOL0     O63205   8.306   7.570   1.093 -0.0860  0.2316  0.8729
  459MOL0     C63206   8.389   7.479   1.070 -0.2205 -0.6393  0.2597
  459MOL0     O63207   8.471   7.472   0.967 -0.1017  0.7309 -0.7572
  459MOL0     C63208   8.502   7.573   0.883 -0.5215 -0.3167  0.2966
  459MOL0     C63209   8.620   7.563   0.807 -0.8286  0.5377  0.0559
  459MOL0     C63210   8.656   7.630   0.694 -0.2595 -0.5252  0.0793
  459MOL0     C63211   8.561   7.731   0.655 -0.2576 -0.4225 -0.1064
  459MOL0     O63212   8.582   7.817   0.541  0.5939 -0.3532 -0.2048
  459MOL0     C63213   8.667   7.762   0.434  0.6856  0.1019 -0.0502
  459MOL0     C63214   8.689   7.867   0.327 -0.2387  1.0152  0.5894
  459MOL0     C63215   8.561   7.885   0.239 -0.7726  0.0409 -0.1445
  459MOL0     C63216   8.539   7.785   0.126 -0.0236  0.3347  0.0820
  459MOL0     C63217   8.446   7.846   0.030  0.3766 -0.2524 -1.1917
  459MOL0     C63218   8.434   7.756  -0.099  0.3868 -0.3687 -0.3243
  459MOL0     C63219   8.317   7.805  -0.184  0.0459  0.5420 -0.1524
  459MOL0     C63220   8.332   7.732  -0.313  0.0620 -0.0221  0.2555
  459MOL0     N63221   8.215   7.739  -0.410  0.2209  0.5036  0.5804
  459MOL0     C63222   8.086   7.701  -0.393 -0.2578 -0.7594  0.0854
  459MOL0     C63223   8.024   7.748  -0.505  0.2829 -0.3708 -0.4051
  459MOL0     C63224   7.877   7.754  -0.542 -0.2234  0.9575 -0.0332
  459MOL0     C63225   7.809   7.876  -0.477  0.7880  0.6229  0.9664
  459MOL0     C63226   7.698   7.942  -0.564 -0.3373  0.3796 -0.2748
  459MOL0     C63227   7.631   8.063  -0.505 -0.1373  0.3794 -0.7225
  459MOL0     O63228   7.730   8.162  -0.472  0.4073  0.5528  0.2563
  459MOL0     C63229   7.694   8.286  -0.427  0.7142  0.2598 -0.0390
  459MOL0     C63230   7.563   8.348  -0.437  0.5750 -0.1168  0.2881
  459MOL0     C63231   7.536   8.482  -0.414 -0.2577 -0.5885  0.8687
  459MOL0     C63232   7.395   8.538  -0.438  0.6710 -0.6148 -0.6735
  459MOL0     C63233   7.646   8.562  -0.365 -0.2391 -0.3437  0.7148
  459MOL0     C63234   7.645   8.711  -0.342  0.2900  0.4692  0.1942
  459MOL0     O63235   7.530   8.782  -0.344  0.0982 -0.5592 -0.4811
  459MOL0     C63236   7.514   8.916  -0.309 -0.3018 -0.1068 -1.0160
  459MOL0     C63237   7.596   9.025  -0.358 -0.6372 -0.2731  0.1682
  459MOL0     C63238   7.579   9.153  -0.316  0.1993  0.6981  0.6837
  459MOL0     C63239   7.475   9.185  -0.237  0.1087 -0.5855 -1.1236
  459MOL0     O63240   7.467   9.313  -0.181  0.1746  0.3230  0.1614
  459MOL0     C63241   7.422   9.431  -0.249  0.0453  0.7713 -0.0083
  459MOL0     C63242   7.397   9.537  -0.149  0.3347 -0.4758 -0.9564
  459MOL0     C63243   7.278   9.516  -0.058  0.4385 -0.2288 -1.3642
  459MOL0     C63244   7.243   9.648   0.012 -0.1219  0.7427  0.5209
  459MOL0     C63245   7.159   9.746  -0.089  0.1437 -0.1182 -0.4022
  459MOL0     C63246   7.098   9.860  -0.009 -0.0835  0.0670 -0.9780
  459MOL0     C63247   6.963   9.820   0.056 -1.1561  0.2831 -0.3698
  459MOL0     C63248   6.907   9.938   0.128 -0.3822  0.4005 -0.2253
  459MOL0    Cl63249   7.014  10.011   0.255 -0.3774 -0.0489 -0.1100
  459MOL0     C63250   7.387   9.087  -0.192 -0.1482 -0.0742 -0.1313
  459MOL0     C63251   7.396   8.953  -0.235 -0.0434 -0.3327  0.2089
  459MOL0     O63252   7.755   8.761  -0.312 -0.0507 -0.0129 -0.1758
  459MOL0     C63253   7.776   8.504  -0.351 -0.7709  0.2708  0.5763
  459MOL0     C63254   7.795   8.368  -0.370 -0.2176 -0.3758 -0.0176
  459MOL0     N63255   8.117   7.803  -0.586  0.2356  0.4209 -0.2425
  459MOL0     N63256   8.229   7.796  -0.532  0.3567 -0.1945 -0.1017
  459MOL0     C63257   8.435   7.741   0.720  0.3066  0.6010  0.2076
  459MOL0     C63258   8.408   7.661   0.827 -0.5438 -0.4638  0.5977
  459MOL0     C63259   8.381   7.358   1.161 -0.0017  1.1220 -0.7556
  459MOL0     C63260   8.501   7.285   1.185  0.3141  1.0065 -0.9185
  459MOL0     C63261   8.510   7.173   1.266  0.8054  0.5846  0.0844
  459MOL0     C63262   8.405   7.128   1.346  0.1788 -0.1719 -0.2367
  459MOL0     O63263   8.408   7.033   1.444  0.0792 -0.8849  0.7636
  459MOL0     C63264   8.530   6.960   1.469  0.3642  0.5068  0.4630
  459MOL0     C63265   8.538   6.848   1.365 -0.4175 -0.6581 -0.2515
  459MOL0     C63266   8.416   6.774   1.371  0.4070  0.4674  0.6420
  459MOL0     C63267   8.324   6.815   1.242 -0.6439  0.6343  0.1001
  459MOL0     C63268   8.259   6.690   1.199  0.3379  0.2232  0.6688
  459MOL0     C63269   8.192   6.603   1.146 -0.7933  0.1301  0.8751
  459MOL0     C63270   8.284   7.205   1.332  0.6452 -0.2585 -0.0605
  459MOL0     C63271   8.266   7.311   1.238 -0.1364  0.2000  0.4888
  459MOL0     C63272   8.132   7.387   1.233 -0.0169  0.4296 -0.8597
  459MOL0     H63273   8.689   7.487   0.842  1.6042  2.4651 -0.3047
  459MOL0     H63274   8.750   7.598   0.650  0.4656  1.4717  0.0947
  459MOL0     H63275   8.631   7.667   0.394  1.1054 -0.3140  0.5445
  459MOL0     H63276   8.765   7.750   0.483  1.1602  1.9288 -0.4854
  459MOL0     H63277   8.716   7.961   0.374  0.8137 -1.0241  4.5354
  459MOL0     H63278   8.769   7.836   0.260 -1.3563  1.0851 -0.8141
  459MOL0     H63279   8.472   7.899   0.300  1.2288  4.3708  2.2840
  459MOL0     H63280   8.585   7.981   0.191  3.9028  0.3548  2.2637
  459MOL0     H63281   8.629   7.757   0.070  2.0289  3.0906  1.7339
  459MOL0     H63282   8.501   7.689   0.164  0.3346 -0.2865 -1.0864
  459MOL0     H63283   8.478   7.946  -0.002  1.0652  0.8268  2.3831
  459MOL0     H63284   8.346   7.850   0.072  1.5193 -0.3117  1.7443
  459MOL0     H63285   8.528   7.741  -0.151 -0.3986 -1.1907 -1.5556
  459MOL0     H63286   8.412   7.654  -0.066  2.6352 -0.2118  1.9847
  459MOL0     H63287   8.325   7.913  -0.202  1.2485 -0.1714 -5.3247
  459MOL0     H63288   8.223   7.785  -0.131 -0.9059  0.1718 -1.9211
  459MOL0     H63289   8.415   7.775  -0.369 -1.5195  0.3126 -1.9454
  459MOL0     H63290   8.346   7.624  -0.299 -0.0090 -0.3686 -2.0675
  459MOL0     H63291   8.040   7.659  -0.303  1.1155 -0.0927  1.1321
  459MOL0     H63292   7.823   7.664  -0.512  2.7453 -1.5012 -1.4919
  459MOL0     H63293   7.864   7.756  -0.651  0.9537 -2.2753 -0.3348
  459MOL0     H63294   7.766   7.849  -0.380  1.8911  0.4461  1.4143
  459MOL0     H63295   7.884   7.954  -0.484  0.4809  0.7717 -1.7487
  459MOL0     H63296   7.737   7.972  -0.662 -2.8089 -0.0542 -1.4791
  459MOL0     H63297   7.624   7.866  -0.589  2.5352 -2.6160 -0.3712
  459MOL0     H63298   7.579   8.105  -0.592 -0.2364 -2.3403 -2.0886
  459MOL0     H63299   7.574   8.040  -0.415  1.5800 -1.5784 -0.0655
  459MOL0     H63300   7.478   8.291  -0.473 -1.8206 -0.2481  5.3562
  459MOL0     H63301   7.339   8.457  -0.486  1.6641 -0.6543 -1.8227
  459MOL0     H63302   7.400   8.625  -0.504 -2.0086  1.5799  1.7757
  459MOL0     H63303   7.350   8.564  -0.342  0.5299 -1.9633 -0.3556
  459MOL0     H63304   7.681   9.002  -0.422 -0.9601  0.3520 -0.5081
  459MOL0     H63305   7.640   9.234  -0.354  2.8046 -1.7963 -0.8987
  459MOL0     H63306   7.488   9.456  -0.333  0.3902  0.3931  0.1463
  459MOL0     H63307   7.322   9.411  -0.289 -0.2949 -0.8147  1.5022
  459MOL0     H63308   7.485   9.555  -0.086 -0.2986 -1.0299  0.1006
  459MOL0     H63309   7.386   9.624  -0.215  0.3301 -1.2226 -1.9600
  459MOL0     H63310   7.307   9.440   0.014  0.0458  0.5997 -0.3128
  459MOL0     H63311   7.200   9.478  -0.125  0.6955 -1.9561 -0.7110
  459MOL0     H63312   7.329   9.698   0.055  1.0170 -1.4623  0.9211
  459MOL0     H63313   7.171   9.630   0.092 -0.5027  2.4198  0.6087
  459MOL0     H63314   7.226   9.772  -0.172 -1.3367 -2.0512 -2.3423
  459MOL0     H63315   7.075   9.694  -0.136  0.1290 -1.3293  0.9051
  459MOL0     H63316   7.076   9.937  -0.084  1.5747 -0.8798 -2.5237
  459MOL0     H63317   7.160   9.902   0.071  0.4178  2.8639 -2.7027
  459MOL0     H63318   6.975   9.737   0.125  1.1536  1.9667  1.4217
  459MOL0     H63319   6.902   9.792  -0.030  0.0263 -1.4306 -0.6886
  459MOL0     H63320   6.821   9.895   0.181 -1.4484 -0.8838 -2.8377
  459MOL0     H63321   6.887  10.011   0.050 -0.8881 -1.7348 -2.1926
  459MOL0     H63322   7.304   9.120  -0.129 -1.9423 -4.3195  0.0242
  459MOL0     H63323   7.323   8.883  -0.195 -0.3781 -1.7990 -2.6763
  459MOL0     H63324   7.867   8.557  -0.327 -0.1447 -0.8454  0.7751
  459MOL0     H63325   7.901   8.346  -0.365  0.9834  4.5229  1.4556
  459MOL0     H63326   8.363   7.812   0.681  0.4359 -0.1802 -1.5303
  459MOL0     H63327   8.307   7.664   0.865  0.1580 -1.3808  2.7116
  459MOL0     H63328   8.594   7.301   1.130  2.1290 -1.5055  1.1699
  459MOL0     H63329   8.604   7.121   1.279  0.7443 -0.1560 -2.0088
  459MOL0     H63330   8.619   7.023   1.467  1.9891 -1.6636 -0.8593
  459MOL0     H63331   8.526   6.918   1.570  0.7839 -1.6431 -0.3502
  459MOL0     H63332   8.629   6.797   1.397 -0.4996 -1.4651 -1.2411
  459MOL0     H63333   8.554   6.885   1.263 -1.5074  0.1284 -0.1561
  459MOL0     H63334   8.433   6.666   1.365  0.9080  0.5069  1.2425
  459MOL0     H63335   8.354   6.782   1.461 -0.7783  0.3378 -0.1311
  459MOL0     H63336   8.376   6.852   1.153 -2.3062 -0.7098 -1.5194
  459MOL0     H63337   8.247   6.885   1.274 -0.7442  0.7089 -0.3021
  459MOL0     H63338   8.158   6.517   1.091  1.9853 -2.2168  2.5279
  459MOL0     H63339   8.203   7.184   1.401  1.6273  0.7243  1.4713
  459MOL0     H63340   8.143   7.495   1.248 -2.5538  0.6660 -0.2079
  459MOL0     H63341   8.088   7.387   1.133 -1.0242  0.8210 -0.4272
  459MOL0     H63342   8.053   7.359   1.303  1.0626  2.2801  1.2634
  460MOL0     O63343   6.553   9.568   4.729 -0.4667 -0.4360  0.4705
  460MOL0     C63344   6.564   9.471   4.807 -0.8812 -0.9523 -0.1942
  460MOL0     O63345   6.634   9.359   4.777  0.1263  0.7196 -0.0272
  460MOL0     C63346   6.708   9.337   4.662 -0.4313 -0.3584  0.5143
  460MOL0     C63347   6.668   9.235   4.565 -0.4293  0.1078 -0.4282
  460MOL0     C63348   6.754   9.199   4.457 -0.0723 -0.1107 -0.0615
  460MOL0     C63349   6.879   9.257   4.446  0.6908  0.4346  0.1669
  460MOL0     O63350   6.983   9.219   4.363  0.1100 -0.0491  0.3283
  460MOL0     C63351   6.978   9.078   4.325 -0.7646  0.0991 -0.4296
  460MOL0     C63352   7.122   9.039   4.284 -0.8255 -0.5583 -0.3983
  460MOL0     C63353   7.225   9.034   4.400 -0.1455 -0.4232  0.2493
  460MOL0     C63354   7.353   8.959   4.354 -0.0284  0.4399  1.0595
  460MOL0     C63355   7.443   8.939   4.479 -0.2060 -0.4373 -0.5697
  460MOL0     C63356   7.569   8.866   4.438 -0.1159 -0.5360  0.4610
  460MOL0     C63357   7.652   8.824   4.558 -0.0260  0.7051 -0.1191
  460MOL0     C63358   7.785   8.900   4.580  0.1106 -0.1772 -0.1755
  460MOL0     N63359   7.869   8.868   4.464 -0.4129 -0.5219  0.0135
  460MOL0     C63360   7.918   8.742   4.444  1.0629 -0.0578 -0.7308
  460MOL0     C63361   8.017   8.757   4.346 -0.6772 -0.6125 -0.0626
  460MOL0     C63362   8.093   8.645   4.289  0.1602  0.6041  0.2439
  460MOL0     C63363   8.150   8.553   4.395  0.4276 -0.4408  1.0660
  460MOL0     C63364   8.268   8.474   4.329  0.2041 -0.2191  0.4266
  460MOL0     C63365   8.339   8.382   4.426  0.4781  0.4433  0.5769
  460MOL0     O63366   8.408   8.462   4.522  0.1469  0.4754  0.0408
  460MOL0     C63367   8.530   8.415   4.555 -0.3927 -0.7850 -0.0298
  460MOL0     C63368   8.540   8.287   4.622 -0.0350 -0.1081 -0.4723
  460MOL0     C63369   8.657   8.224   4.662  0.7865 -0.7055 -0.2595
  460MOL0     C63370   8.664   8.095   4.731  0.6085 -0.4859 -0.0828
  460MOL0     C63371   8.774   8.298   4.632  0.2792  0.9092 -0.0926
  460MOL0     C63372   8.902   8.233   4.654  0.0686 -0.3216  0.4342
  460MOL0     O63373   8.933   8.131   4.570  0.1762  0.0864  0.2069
  460MOL0     C63374   9.049   8.072   4.598  0.3378  0.1750  0.2982
  460MOL0     C63375   9.045   7.961   4.675  0.5400  0.3447 -1.0291
  460MOL0     C63376   9.163   7.887   4.704 -0.2599 -0.4828  0.7028
  460MOL0     C63377   9.279   7.912   4.632  0.3338 -0.7020  0.6296
  460MOL0     O63378   9.380   7.831   4.660  0.2484  0.6808  0.6118
  460MOL0     C63379   9.468   7.796   4.551  0.0473 -0.5240  0.2036
  460MOL0     C63380   9.518   7.658   4.574 -0.5057 -0.9455 -0.2207
  460MOL0     C63381   9.409   7.543   4.602 -0.0832 -0.0511  0.3096
  460MOL0     C63382   9.475   7.412   4.545  0.1293 -0.6757 -0.5577
  460MOL0     C63383   9.419   7.283   4.599  0.1076 -0.2415 -0.0968
  460MOL0     C63384   9.265   7.275   4.570  1.4703 -0.0722  0.1972
  460MOL0     C63385   9.208   7.131   4.585  0.1362 -0.6148 -0.9591
  460MOL0     C63386   9.069   7.133   4.540  0.6347  0.6668  0.4075
  460MOL0    Cl63387   8.958   7.218   4.649 -0.1450  0.5674  0.0911
  460MOL0     C63388   9.285   8.030   4.553  0.7907  0.0893  0.6318
  460MOL0     C63389   9.167   8.113   4.535 -0.2440  0.0207 -0.9526
  460MOL0     O63390   8.961   8.263   4.755 -0.5776 -0.0458 -0.2581
  460MOL0     C63391   8.767   8.423   4.557  0.9378 -0.1103 -0.4821
  460MOL0     C63392   8.646   8.481   4.519  0.0167  0.4373  0.2945
  460MOL0     N63393   8.029   8.891   4.319 -0.0450  0.7385  0.4936
  460MOL0     N63394   7.938   8.957   4.385  0.1777 -0.3826 -0.2489
  460MOL0     C63395   6.902   9.364   4.523  0.1771 -0.7073 -0.1741
  460MOL0     C63396   6.819   9.411   4.625 -0.2033 -0.3477  0.0802
  460MOL0     C63397   6.509   9.485   4.942  0.3443 -0.2511 -0.3640
  460MOL0     C63398   6.412   9.587   4.960  0.3811 -0.2967 -0.3866
  460MOL0     C63399   6.362   9.622   5.086  0.4719 -1.3395 -0.3530
  460MOL0     C63400   6.384   9.548   5.194 -0.0269  0.5292 -0.4222
  460MOL0     O63401   6.325   9.583   5.316  0.3581 -0.1466  0.4578
  460MOL0     C63402   6.389   9.531   5.434 -0.0993  0.9836 -0.3484
  460MOL0     C63403   6.324   9.584   5.559 -0.1803 -0.1888 -0.8393
  460MOL0     C63404   6.324   9.479   5.684 -0.0546 -0.3618  0.2207
  460MOL0     C63405   6.246   9.527   5.807  0.4455 -0.2012  0.1994
  460MOL0     C63406   6.325   9.537   5.932 -0.3707 -0.2671  0.2910
  460MOL0     C63407   6.396   9.554   6.025 -0.6563 -0.7603 -0.5532
  460MOL0     C63408   6.477   9.445   5.182 -0.3237  0.1394  0.0410
  460MOL0     C63409   6.541   9.409   5.056  0.2041 -0.6529 -0.0714
  460MOL0     C63410   6.651   9.309   5.057 -0.0048  0.7647  0.2895
  460MOL0     H63411   6.574   9.184   4.585 -1.6221  1.7491 -1.6036
  460MOL0     H63412   6.726   9.122   4.386 -1.6565 -0.3797  0.8004
  460MOL0     H63413   6.922   9.071   4.232  1.0967  0.5869 -1.6589
  460MOL0     H63414   6.937   9.017   4.406  2.8215 -1.8129  0.1780
  460MOL0     H63415   7.123   8.944   4.230  1.0631 -1.1333  0.5344
  460MOL0     H63416   7.167   9.112   4.216  0.4781  0.2076  1.2070
  460MOL0     H63417   7.247   9.134   4.438  1.1968 -0.5303 -0.2118
  460MOL0     H63418   7.175   8.985   4.483  2.0587 -1.2494  1.1492
  460MOL0     H63419   7.324   8.861   4.316 -1.1642  0.8612  0.7648
  460MOL0     H63420   7.408   9.015   4.278  2.9890 -1.6941  1.5075
  460MOL0     H63421   7.386   8.892   4.559  1.4584 -0.2655  0.7555
  460MOL0     H63422   7.481   9.030   4.526  1.2365 -1.6378  0.6907
  460MOL0     H63423   7.538   8.775   4.386 -2.2301 -0.0304  0.7444
  460MOL0     H63424   7.629   8.931   4.373  2.5418 -3.8133 -0.6671
  460MOL0     H63425   7.671   8.717   4.557 -0.0725  0.6826  0.8047
  460MOL0     H63426   7.598   8.849   4.650  1.0410 -0.0852  0.7464
  460MOL0     H63427   7.755   9.005   4.578 -1.5734 -0.5700  1.4218
  460MOL0     H63428   7.831   8.874   4.676 -1.4228  0.6615  0.8244
  460MOL0     H63429   7.878   8.647   4.479  0.7376 -0.9262 -3.2600
  460MOL0     H63430   8.171   8.693   4.229 -0.7449  0.6829 -0.9021
  460MOL0     H63431   8.030   8.592   4.217  1.7518  1.4074 -1.8460
  460MOL0     H63432   8.164   8.612   4.486  0.0437  1.2173  0.1090
  460MOL0     H63433   8.073   8.481   4.424  3.1472 -4.0439 -0.0313
  460MOL0     H63434   8.222   8.416   4.248 -1.6872 -2.5627  2.9907
  460MOL0     H63435   8.340   8.545   4.286  0.3214  1.6092  3.3886
  460MOL0     H63436   8.268   8.321   4.482 -0.5254 -0.1440 -1.2658
  460MOL0     H63437   8.405   8.322   4.363  1.4342  0.6854  1.3222
  460MOL0     H63438   8.456   8.220   4.635  0.1479 -0.3445 -0.5138
  460MOL0     H63439   8.666   8.025   4.647 -3.5639  1.5095 -2.1735
  460MOL0     H63440   8.571   8.066   4.781  0.1340  0.4349 -0.4156
  460MOL0     H63441   8.743   8.086   4.806 -0.2624 -3.1164  0.6378
  460MOL0     H63442   8.949   7.932   4.717  1.7383 -1.0691  0.9377
  460MOL0     H63443   9.157   7.813   4.783 -1.9971  3.2716  4.4628
  460MOL0     H63444   9.405   7.793   4.461 -0.0623 -0.5028  0.2803
  460MOL0     H63445   9.547   7.868   4.530 -1.4020  0.8258 -0.9485
  460MOL0     H63446   9.578   7.624   4.490  1.6821  0.2458  0.7709
  460MOL0     H63447   9.593   7.659   4.654 -1.3021  0.6517  0.5735
  460MOL0     H63448   9.319   7.571   4.547 -0.1140 -1.5576 -0.4467
  460MOL0     H63449   9.383   7.542   4.708  0.9560  1.1204  0.6049
  460MOL0     H63450   9.581   7.429   4.567 -0.6219  3.8775  0.4882
  460MOL0     H63451   9.460   7.398   4.438  0.4081 -3.2281 -0.3372
  460MOL0     H63452   9.463   7.201   4.542  0.3061 -0.4821  0.3939
  460MOL0     H63453   9.447   7.259   4.702 -0.3086 -2.5266 -0.4464
  460MOL0     H63454   9.250   7.314   4.469 -2.5808  0.3435  0.7754
  460MOL0     H63455   9.209   7.341   4.637  0.2860 -0.1384 -0.6866
  460MOL0     H63456   9.222   7.094   4.687 -3.0778 -0.6262 -0.4321
  460MOL0     H63457   9.267   7.073   4.513  0.4810  2.2593 -3.2267
  460MOL0     H63458   9.029   7.031   4.529  0.3609  0.9832 -2.3982
  460MOL0     H63459   9.059   7.182   4.443  0.0611 -1.5229 -0.7286
  460MOL0     H63460   9.374   8.053   4.495  1.5403 -3.8596 -0.0295
  460MOL0     H63461   9.175   8.199   4.470  2.8168 -0.6952 -1.6427
  460MOL0     H63462   8.857   8.482   4.546  2.3291 -1.6822  1.6905
  460MOL0     H63463   8.639   8.582   4.479 -0.5549  1.3408  2.4941
  460MOL0     H63464   6.995   9.419   4.515  0.9602 -2.2062 -2.4189
  460MOL0     H63465   6.852   9.486   4.695  0.8021  0.2228 -0.9755
  460MOL0     H63466   6.378   9.647   4.876 -0.7032 -0.3065  0.0297
  460MOL0     H63467   6.298   9.709   5.092  1.2893 -0.7227 -0.4940
  460MOL0     H63468   6.379   9.423   5.442 -1.5122  1.0807 -0.5327
  460MOL0     H63469   6.496   9.554   5.432 -0.3064  2.9969  3.0856
  460MOL0     H63470   6.220   9.607   5.536 -0.4413 -1.8286 -1.4103
  460MOL0     H63471   6.379   9.678   5.571  1.3544 -0.9239 -1.7445
  460MOL0     H63472   6.295   9.377   5.654  0.6706 -0.7711  0.8766
  460MOL0     H63473   6.426   9.458   5.716  1.2529  0.1527 -3.1588
  460MOL0     H63474   6.152   9.472   5.817  0.9075 -1.0822 -0.2294
  460MOL0     H63475   6.215   9.631   5.790 -0.4688  0.0956  3.0969
  460MOL0     H63476   6.470   9.568   6.102  1.6087 -2.7902 -2.1877
  460MOL0     H63477   6.510   9.381   5.264  1.0570 -1.1754 -1.4561
  460MOL0     H63478   6.637   9.228   4.985 -0.5884  0.8388  0.3149
  460MOL0     H63479   6.746   9.364   5.046 -0.3482  1.6418  1.5395
  460MOL0     H63480   6.647   9.262   5.155 -2.3820  1.6070  0.6646
  461MOL0     O63481   0.696   9.519   6.056 -0.3202 -0.3359 -0.0582
  461MOL0     C63482   0.790   9.438   6.032 -0.3118 -0.4757 -0.1566
  461MOL0     O63483   0.770   9.322   5.970 -0.3837 -0.4812 -0.1450
  461MOL0     C63484   0.653   9.280   5.915  1.0539 -0.3674 -0.7946
  461MOL0     C63485   0.536   9.276   5.995 -0.6978  0.3306 -0.1726
  461MOL0     C63486   0.417   9.218   5.948 -0.3808 -0.3916  0.5456
  461MOL0     C63487   0.409   9.169   5.818 -0.6690 -0.4280  0.6587
  461MOL0     O63488   0.289   9.135   5.761  0.1983  0.7504 -0.2771
  461MOL0     C63489   0.280   9.103   5.625 -1.0068 -0.1860  0.0600
  461MOL0     C63490   0.135   9.108   5.575  0.1853  0.3808 -0.1872
  461MOL0     C63491   0.041   9.041   5.673 -0.3043 -0.1817 -0.2837
  461MOL0     C63492  -0.098   9.061   5.618 -1.1054  0.5955 -0.7483
  461MOL0     C63493  -0.136   8.967   5.503  0.1721 -0.3012 -0.6439
  461MOL0     C63494  -0.271   9.019   5.441  0.0694  0.3663  0.4687
  461MOL0     C63495  -0.331   8.899   5.374  0.3138  0.4351 -0.5485
  461MOL0     C63496  -0.406   8.819   5.478 -0.4183  0.1700  0.2131
  461MOL0     N63497  -0.503   8.737   5.420  0.6290  0.1531  0.6123
  461MOL0     C63498  -0.639   8.756   5.382 -1.5378  0.2806 -0.3090
  461MOL0     C63499  -0.677   8.636   5.332 -0.2134 -0.0681  0.3097
  461MOL0     C63500  -0.810   8.588   5.282  0.8377  0.2502 -0.1478
  461MOL0     C63501  -0.834   8.623   5.130  0.3751  0.1896 -0.5289
  461MOL0     C63502  -0.928   8.745   5.117 -0.3316  0.1169  0.0306
  461MOL0     C63503  -0.922   8.796   4.978  0.4021 -0.0065  0.0753
  461MOL0     O63504  -1.035   8.866   4.938 -0.1458 -0.1569 -0.3279
  461MOL0     C63505  -1.066   8.907   4.811 -0.1101 -1.1954 -0.3631
  461MOL0     C63506  -0.983   8.889   4.703 -0.3454  0.3310 -0.8611
  461MOL0     C63507  -1.029   8.920   4.572 -0.4955  0.0543 -0.7302
  461MOL0     C63508  -0.929   8.904   4.468 -0.2111 -0.4562  0.2678
  461MOL0     C63509  -1.156   8.980   4.553  0.0564  0.0943 -0.2695
  461MOL0     C63510  -1.205   9.026   4.421  0.0783  0.9706 -0.1671
  461MOL0     O63511  -1.164   8.958   4.309  0.1940 -0.2005  0.4075
  461MOL0     C63512  -1.216   8.971   4.183 -0.1189  1.1704 -0.8665
  461MOL0     C63513  -1.158   8.895   4.081 -0.0528  0.0563 -0.0886
  461MOL0     C63514  -1.208   8.876   3.958 -0.2092 -0.0334  0.5515
  461MOL0     C63515  -1.328   8.943   3.925 -0.0218  0.6052  0.3167
  461MOL0     O63516  -1.371   8.927   3.792  1.0089  0.0086 -0.9118
  461MOL0     C63517  -1.508   8.904   3.782  0.5212  0.1519  0.6473
  461MOL0     C63518  -1.541   8.883   3.627 -0.6986  0.3412  1.3210
  461MOL0     C63519  -1.660   8.783   3.616  0.9296 -0.4456  0.8837
  461MOL0     C63520  -1.720   8.772   3.469 -0.0734 -0.6209  0.9200
  461MOL0     C63521  -1.646   8.685   3.365 -0.5438  0.0026  0.2647
  461MOL0     C63522  -1.723   8.694   3.233 -0.7730  0.2038  0.2578
  461MOL0     C63523  -1.747   8.561   3.164 -1.2053  0.1645 -0.3227
  461MOL0     C63524  -1.836   8.565   3.043 -0.6558  0.5930 -0.1764
  461MOL0    Cl63525  -2.000   8.614   3.086  0.2778  0.0584  0.1421
  461MOL0     C63526  -1.390   9.017   4.019 -0.3074  0.7407  0.0892
  461MOL0     C63527  -1.337   9.035   4.147  0.1356  0.4278 -0.4650
  461MOL0     O63528  -1.281   9.121   4.418 -0.7025  0.0416 -0.4952
  461MOL0     C63529  -1.233   8.998   4.670  0.1660  0.1736  0.0388
  461MOL0     C63530  -1.192   8.960   4.794 -0.5506 -0.0446 -0.0068
  461MOL0     N63531  -0.567   8.552   5.331 -0.0495  0.5259 -0.1342
  461MOL0     N63532  -0.462   8.613   5.381 -0.8181 -0.2480  0.6478
  461MOL0     C63533   0.534   9.152   5.746  0.4269 -0.7884 -0.7832
  461MOL0     C63534   0.653   9.205   5.796  0.5603 -0.7302 -0.3338
  461MOL0     C63535   0.923   9.486   6.073  0.8458 -0.3050  0.1136
  461MOL0     C63536   0.988   9.423   6.183 -0.2956 -0.0748  0.8373
  461MOL0     C63537   1.098   9.474   6.241  0.0754  0.1458 -0.9066
  461MOL0     C63538   1.157   9.590   6.197  0.0940 -0.2312  0.0743
  461MOL0     O63539   1.263   9.651   6.254 -0.2972 -0.2436  0.4701
  461MOL0     C63540   1.281   9.654   6.399 -0.6233 -0.8437  0.3976
  461MOL0     C63541   1.351   9.533   6.456  0.0466  0.5078  0.6335
  461MOL0     C63542   1.281   9.482   6.582 -0.6419  0.6410 -0.0081
  461MOL0     C63543   1.371   9.364   6.640 -0.9848 -0.4023  0.1473
  461MOL0     C63544   1.313   9.332   6.774 -1.1039 -0.1480  0.4113
  461MOL0     C63545   1.286   9.304   6.890 -0.1617  0.5380  0.3414
  461MOL0     C63546   1.092   9.649   6.089 -0.4261  0.0447  1.3602
  461MOL0     C63547   0.976   9.603   6.021  0.9678  1.1410 -0.3880
  461MOL0     C63548   0.917   9.676   5.908  0.2580 -0.7167  0.4966
  461MOL0     H63549   0.544   9.323   6.093 -0.3056  0.3338 -0.2034
  461MOL0     H63550   0.323   9.223   6.002  0.9616  1.4734  2.8897
  461MOL0     H63551   0.322   9.002   5.617  0.1466  0.3137 -0.4423
  461MOL0     H63552   0.349   9.170   5.572  1.0391 -1.6899  0.7086
  461MOL0     H63553   0.110   9.210   5.543  0.3744  0.1490 -1.1247
  461MOL0     H63554   0.140   9.050   5.482 -0.4647  2.1471 -1.3689
  461MOL0     H63555   0.074   8.937   5.683  0.4889 -0.0720 -1.4545
  461MOL0     H63556   0.038   9.089   5.771  0.1440 -0.5537 -0.0838
  461MOL0     H63557  -0.157   9.047   5.709  2.5517 -2.3840  1.4461
  461MOL0     H63558  -0.111   9.163   5.580 -1.2109  1.9492  2.5762
  461MOL0     H63559  -0.152   8.864   5.537  2.4804 -1.9236 -3.8845
  461MOL0     H63560  -0.059   8.953   5.427  0.0474  0.1233 -0.8525
  461MOL0     H63561  -0.340   9.061   5.515 -0.2035  1.8639 -0.5824
  461MOL0     H63562  -0.264   9.107   5.376  0.7013 -0.6405 -0.8727
  461MOL0     H63563  -0.259   8.842   5.314  0.7434 -1.2498  1.4526
  461MOL0     H63564  -0.412   8.939   5.312 -1.1312  1.0933  1.6381
  461MOL0     H63565  -0.332   8.759   5.531  0.6737  0.1114 -1.3064
  461MOL0     H63566  -0.453   8.876   5.559 -0.6805  0.0678  0.1340
  461MOL0     H63567  -0.706   8.841   5.388 -0.4138  1.1797 -0.1145
  461MOL0     H63568  -0.892   8.622   5.346  1.1772 -1.4810  1.2882
  461MOL0     H63569  -0.802   8.479   5.293  0.1972  0.3364  1.4770
  461MOL0     H63570  -0.742   8.648   5.077 -0.2066  0.4424 -1.4587
  461MOL0     H63571  -0.881   8.537   5.082 -4.4334  2.0191  0.2879
  461MOL0     H63572  -1.026   8.726   5.160  0.6374  1.9576  3.4644
  461MOL0     H63573  -0.881   8.821   5.181  1.1783  0.2176 -1.1446
  461MOL0     H63574  -0.830   8.855   4.972 -0.8334  1.9033 -1.0058
  461MOL0     H63575  -0.917   8.706   4.916  0.3219  1.3085 -1.9550
  461MOL0     H63576  -0.884   8.852   4.725 -0.4094 -0.4805 -1.8590
  461MOL0     H63577  -0.975   8.832   4.398  0.0761  1.9933 -2.6514
  461MOL0     H63578  -0.834   8.863   4.504 -0.7790 -0.3741  1.9298
  461MOL0     H63579  -0.910   8.998   4.417  0.2923 -0.7615 -0.1244
  461MOL0     H63580  -1.065   8.844   4.107  1.8854  2.4682 -1.7900
  461MOL0     H63581  -1.165   8.820   3.875 -0.0487  2.2665 -1.0271
  461MOL0     H63582  -1.540   8.821   3.845  0.6714 -0.6535 -0.3115
  461MOL0     H63583  -1.570   8.991   3.805  1.4970  0.2832  3.0571
  461MOL0     H63584  -1.553   8.982   3.583  1.6114  0.6850  1.3347
  461MOL0     H63585  -1.453   8.833   3.584  0.0826 -0.1159  3.3048
  461MOL0     H63586  -1.748   8.814   3.674 -0.2784 -0.5983 -0.7984
  461MOL0     H63587  -1.642   8.687   3.666  2.7255 -1.2098 -1.1326
  461MOL0     H63588  -1.704   8.874   3.434  0.4964 -1.1046 -0.2893
  461MOL0     H63589  -1.824   8.740   3.474 -0.9008  1.0286 -2.7345
  461MOL0     H63590  -1.549   8.735   3.358 -1.3590  1.7394  0.7230
  461MOL0     H63591  -1.635   8.583   3.402 -0.7151 -0.7057 -1.5355
  461MOL0     H63592  -1.661   8.758   3.169 -0.3831 -0.5550 -0.1334
  461MOL0     H63593  -1.821   8.739   3.247 -1.0615  0.4254 -2.1256
  461MOL0     H63594  -1.777   8.491   3.243 -0.1175  0.2628  0.1960
  461MOL0     H63595  -1.647   8.531   3.134 -0.5546  2.1909 -0.3141
  461MOL0     H63596  -1.833   8.467   2.994  0.5995  0.4362  0.1853
  461MOL0     H63597  -1.799   8.643   2.976 -0.1082  0.5344  0.0529
  461MOL0     H63598  -1.476   9.078   3.995  0.6419  1.5600 -1.3614
  461MOL0     H63599  -1.403   9.080   4.220 -2.9088  1.7956 -3.7713
  461MOL0     H63600  -1.329   9.049   4.664 -1.0850 -2.1886 -1.5806
  461MOL0     H63601  -1.244   8.999   4.881  0.8611 -1.5050  1.5613
  461MOL0     H63602   0.532   9.099   5.652  0.8139  1.4775 -2.1371
  461MOL0     H63603   0.744   9.193   5.739  0.9205  0.9286 -0.1751
  461MOL0     H63604   0.946   9.342   6.242  2.2075 -2.0884  0.0342
  461MOL0     H63605   1.128   9.423   6.332 -2.8062  1.0203  0.6582
  461MOL0     H63606   1.341   9.742   6.426  2.3524 -2.5955 -0.1455
  461MOL0     H63607   1.181   9.651   6.444  0.0682  0.1905  2.1231
  461MOL0     H63608   1.458   9.546   6.472  0.4855  2.1287 -2.7277
  461MOL0     H63609   1.348   9.456   6.378 -1.0956  0.2743  0.8904
  461MOL0     H63610   1.271   9.563   6.655 -0.6715  0.5288  0.1129
  461MOL0     H63611   1.178   9.451   6.563 -0.5966  0.7833 -0.4897
  461MOL0     H63612   1.474   9.399   6.651 -1.5212  1.3404 -0.1099
  461MOL0     H63613   1.378   9.280   6.570 -0.9781 -0.8619  0.6973
  461MOL0     H63614   1.262   9.291   6.993  2.3057 -1.8630  0.7382
  461MOL0     H63615   1.139   9.739   6.051 -2.3916  2.1374  3.4861
  461MOL0     H63616   0.927   9.628   5.810 -0.6322  0.3821 -0.1644
  461MOL0     H63617   0.813   9.703   5.928 -0.0985 -2.0108  0.4427
  461MOL0     H63618   0.959   9.776   5.890 -3.6316  0.7754 -1.6682
  462MOL0     O63619   5.717   4.121   5.537  0.3929 -0.0759  0.1257
  462MOL0     C63620   5.779   4.086   5.437 -0.3171  0.5816  0.3435
  462MOL0     O63621   5.910   4.072   5.425 -0.1818 -0.3975  0.7484
  462MOL0     C63622   5.990   4.077   5.539  0.5945  0.6715 -1.4034
  462MOL0     C63623   6.039   4.204   5.579  0.0641 -0.9759 -0.1048
  462MOL0     C63624   6.125   4.216   5.690 -0.1774 -0.0689 -0.2887
  462MOL0     C63625   6.162   4.103   5.770  0.5974  1.6723 -0.2408
  462MOL0     O63626   6.257   4.122   5.878  1.1921 -0.0873  0.1582
  462MOL0     C63627   6.376   4.048   5.875 -0.4939 -0.8133  0.7884
  462MOL0     C63628   6.493   4.127   5.807  0.7264 -0.7021  0.1883
  462MOL0     C63629   6.524   4.257   5.875 -0.8265 -1.1775 -0.1201
  462MOL0     C63630   6.639   4.346   5.812  0.0868 -0.6353  0.0571
  462MOL0     C63631   6.636   4.490   5.858  0.5096 -0.2746 -0.3504
  462MOL0     C63632   6.740   4.566   5.778  0.5912 -0.3236 -0.5392
  462MOL0     C63633   6.766   4.705   5.838 -0.1264 -0.0600 -0.4659
  462MOL0     C63634   6.649   4.808   5.825  0.1516  1.1430 -0.6403
  462MOL0     N63635   6.643   4.872   5.693  1.0524  0.0001 -0.1168
  462MOL0     C63636   6.543   4.963   5.666  0.0246 -0.5188 -0.3752
  462MOL0     C63637   6.555   4.975   5.521  0.1918 -0.2883 -0.6861
  462MOL0     C63638   6.455   5.041   5.424  0.3328 -0.1289  0.9585
  462MOL0     C63639   6.318   5.078   5.471  0.0019  0.1472  0.0168
  462MOL0     C63640   6.229   5.144   5.359 -0.4126  0.2332 -0.5010
  462MOL0     C63641   6.079   5.144   5.391  0.5124  0.0980  0.5198
  462MOL0     O63642   6.023   5.047   5.301 -0.6528 -0.2144  0.1127
  462MOL0     C63643   5.929   5.079   5.202  0.0315 -0.0355 -0.8347
  462MOL0     C63644   5.843   4.971   5.165  0.5350 -0.6542 -0.4170
  462MOL0     C63645   5.739   4.991   5.070 -0.4679 -0.2598 -0.3762
  462MOL0     C63646   5.664   4.872   5.035  0.0118 -0.5628  0.3171
  462MOL0     C63647   5.733   5.118   5.008 -1.2740  0.2647 -0.3423
  462MOL0     C63648   5.621   5.160   4.924  0.8801 -0.3990 -0.3066
  462MOL0     O63649   5.631   5.283   4.861  0.0105  0.1297  0.4544
  462MOL0     C63650   5.530   5.312   4.769 -0.7694 -0.3256  0.1949
  462MOL0     C63651   5.394   5.328   4.810 -0.1096  0.6233 -0.5760
  462MOL0     C63652   5.294   5.358   4.722  0.9085 -1.0538  0.6129
  462MOL0     C63653   5.328   5.375   4.584 -0.0547  0.2218 -0.1894
  462MOL0     O63654   5.227   5.398   4.485  0.2775  0.0992  0.5792
  462MOL0     C63655   5.121   5.305   4.489  0.1428  0.2999  0.0814
  462MOL0     C63656   5.004   5.380   4.429  0.5185 -0.8066 -0.3910
  462MOL0     C63657   4.881   5.294   4.445 -0.0190 -0.0617 -0.5906
  462MOL0     C63658   4.769   5.345   4.343 -0.4828 -0.5576 -0.5653
  462MOL0     C63659   4.641   5.256   4.351 -0.3219 -0.8930 -0.2591
  462MOL0     C63660   4.563   5.270   4.226  1.0734  0.3397  0.5094
  462MOL0     C63661   4.461   5.151   4.215 -0.0567 -0.6497  0.0698
  462MOL0     C63662   4.387   5.162   4.075 -0.6230  0.1082  1.0265
  462MOL0    Cl63663   4.507   5.159   3.933  0.3240  0.0753 -0.7537
  462MOL0     C63664   5.464   5.356   4.545  0.9574  0.3998  0.6323
  462MOL0     C63665   5.567   5.330   4.639 -0.3343  0.4354  0.9279
  462MOL0     O63666   5.530   5.083   4.903 -0.2324 -0.0453  1.1205
  462MOL0     C63667   5.833   5.218   5.040  0.4770 -0.2688 -0.0401
  462MOL0     C63668   5.932   5.198   5.130  0.3830  0.0095 -0.2186
  462MOL0     N63669   6.663   4.905   5.483  0.0337 -0.1772 -0.5945
  462MOL0     N63670   6.716   4.839   5.579  0.4074 -1.0432 -0.1578
  462MOL0     C63671   6.123   3.974   5.731 -0.3236  0.1258  0.5349
  462MOL0     C63672   6.030   3.973   5.624 -0.6924 -0.2345  0.0352
  462MOL0     C63673   5.703   4.076   5.298 -0.4269  1.1922  0.3242
  462MOL0     C63674   5.774   4.084   5.178  0.3605  0.0192  0.3986
  462MOL0     C63675   5.716   4.073   5.051  0.3690  0.2419  1.4697
  462MOL0     C63676   5.577   4.056   5.043 -0.0287  0.8941  1.0945
  462MOL0     O63677   5.512   4.053   4.926  0.0887 -0.8808  0.4978
  462MOL0     C63678   5.569   4.106   4.810 -0.0411 -0.0087  0.2337
  462MOL0     C63679   5.480   4.053   4.689 -0.4220  0.0153 -0.3889
  462MOL0     C63680   5.534   4.088   4.550  0.5894 -0.2649 -0.5822
  462MOL0     C63681   5.527   4.240   4.511 -0.1102 -0.1469 -0.8129
  462MOL0     C63682   5.650   4.279   4.443  0.8063 -0.2743 -0.2692
  462MOL0     C63683   5.751   4.301   4.392 -0.6624 -0.6428  0.4582
  462MOL0     C63684   5.500   4.050   5.159  0.2697 -0.3612  0.9299
  462MOL0     C63685   5.559   4.055   5.283 -0.8409  0.2446 -0.5128
  462MOL0     C63686   5.459   4.055   5.395 -0.3560 -0.1474  0.0924
  462MOL0     H63687   6.008   4.289   5.519  1.1895  0.5092  1.2965
  462MOL0     H63688   6.177   4.306   5.722  1.3660 -2.0347  3.2315
  462MOL0     H63689   6.355   3.954   5.823 -0.2834  0.0024 -0.8294
  462MOL0     H63690   6.408   4.010   5.972  0.5997 -1.6018  0.1446
  462MOL0     H63691   6.591   4.079   5.800  0.8538 -0.5864  1.0597
  462MOL0     H63692   6.459   4.148   5.705 -2.9287 -1.8664  1.0098
  462MOL0     H63693   6.439   4.326   5.869 -1.6567 -2.2605 -1.4507
  462MOL0     H63694   6.550   4.233   5.978 -1.4641  3.3903  1.3571
  462MOL0     H63695   6.730   4.301   5.853  0.3745  1.8463  2.4135
  462MOL0     H63696   6.641   4.333   5.703  0.8774 -0.6230  0.0673
  462MOL0     H63697   6.656   4.493   5.966 -1.8826  2.9435  0.1472
  462MOL0     H63698   6.537   4.536   5.847  0.8471  0.7178  0.6233
  462MOL0     H63699   6.827   4.501   5.786  0.0606 -0.8499  1.9299
  462MOL0     H63700   6.723   4.570   5.670  1.6095 -1.1087 -0.7467
  462MOL0     H63701   6.860   4.741   5.795 -0.6369  2.1348  0.1690
  462MOL0     H63702   6.790   4.682   5.942  1.4786  0.6118 -0.6657
  462MOL0     H63703   6.548   4.768   5.831  0.6812 -0.1470 -0.0770
  462MOL0     H63704   6.669   4.875   5.909  1.7296 -1.4408  1.1796
  462MOL0     H63705   6.468   5.002   5.734  1.2447  0.4024  0.4768
  462MOL0     H63706   6.444   4.990   5.328 -0.2083  1.6194  0.0411
  462MOL0     H63707   6.491   5.142   5.401  1.7948 -0.9266 -0.4296
  462MOL0     H63708   6.272   4.982   5.495 -2.9713  2.1954  3.7091
  462MOL0     H63709   6.328   5.141   5.560 -2.0737  0.7401 -0.1088
  462MOL0     H63710   6.253   5.250   5.342 -1.9420  0.4009 -1.8153
  462MOL0     H63711   6.248   5.087   5.268  0.6920  2.1572 -1.5647
  462MOL0     H63712   6.045   5.122   5.493 -2.3073 -1.5881 -0.6592
  462MOL0     H63713   6.034   5.241   5.371  1.7055 -0.0938 -4.2068
  462MOL0     H63714   5.877   4.878   5.208  2.5693  1.7558  3.9274
  462MOL0     H63715   5.557   4.890   5.045  0.0319 -0.9088  1.3374
  462MOL0     H63716   5.701   4.787   5.094 -2.0433 -0.5279  1.7789
  462MOL0     H63717   5.681   4.855   4.929 -0.4063  2.6687 -0.3670
  462MOL0     H63718   5.375   5.317   4.916  0.6796  0.7634 -0.4114
  462MOL0     H63719   5.192   5.351   4.759  0.7322 -0.1978  0.3324
  462MOL0     H63720   5.141   5.213   4.432 -1.5474  0.5114 -0.9173
  462MOL0     H63721   5.091   5.271   4.588  0.5062 -1.1886 -0.2860
  462MOL0     H63722   4.990   5.484   4.461  1.1756  0.0138 -2.5550
  462MOL0     H63723   5.033   5.397   4.324 -0.8604  1.3490 -0.4713
  462MOL0     H63724   4.853   5.307   4.550 -1.9426 -0.4342 -1.0202
  462MOL0     H63725   4.905   5.189   4.423  0.1034  0.0319 -0.9101
  462MOL0     H63726   4.811   5.367   4.245 -1.2842  0.9116 -0.6151
  462MOL0     H63727   4.737   5.440   4.387  0.8331 -0.2647 -0.1777
  462MOL0     H63728   4.667   5.150   4.345  1.0256 -0.5237 -1.7048
  462MOL0     H63729   4.583   5.269   4.442  1.3763 -2.4039  1.1263
  462MOL0     H63730   4.634   5.270   4.142  0.1080  0.5539 -0.3320
  462MOL0     H63731   4.517   5.369   4.222 -0.5586 -0.4094 -0.7879
  462MOL0     H63732   4.391   5.174   4.295 -0.5566  1.6488 -0.9311
  462MOL0     H63733   4.507   5.053   4.224  0.6444 -0.4074 -0.6917
  462MOL0     H63734   4.329   5.254   4.065 -5.2826 -2.6475 -1.2103
  462MOL0     H63735   4.308   5.086   4.067 -0.1923 -0.4971  2.3350
  462MOL0     H63736   5.499   5.364   4.442  1.2820 -1.7761  0.5285
  462MOL0     H63737   5.669   5.328   4.603 -1.4096  3.5642 -3.0429
  462MOL0     H63738   5.836   5.305   4.976  0.0713  0.5546  1.0314
  462MOL0     H63739   6.010   5.273   5.127 -1.2307  1.7511 -2.1204
  462MOL0     H63740   6.142   3.884   5.788 -0.4103  0.2920  0.8293
  462MOL0     H63741   5.998   3.871   5.606  1.9518 -1.2733  0.6614
  462MOL0     H63742   5.883   4.089   5.171  0.3096 -1.4045 -3.0284
  462MOL0     H63743   5.780   4.073   4.963  1.1615  1.8145  2.0158
  462MOL0     H63744   5.568   4.215   4.796 -0.5666  0.1041  1.0786
  462MOL0     H63745   5.670   4.066   4.800  0.2711  0.3372  1.7524
  462MOL0     H63746   5.376   4.083   4.698 -0.6145 -0.1090 -1.9594
  462MOL0     H63747   5.495   3.947   4.713  1.4250  0.4117  0.4402
  462MOL0     H63748   5.639   4.059   4.543  1.0295 -0.0362  3.1206
  462MOL0     H63749   5.473   4.028   4.482  2.2206 -0.3987 -2.0149
  462MOL0     H63750   5.507   4.293   4.604  1.4591 -3.7656  1.8009
  462MOL0     H63751   5.434   4.247   4.454 -1.2068 -2.9914  0.4665
  462MOL0     H63752   5.837   4.331   4.336 -0.7760  1.9755  1.5384
  462MOL0     H63753   5.392   4.042   5.148  0.1279 -0.1888  2.0507
  462MOL0     H63754   5.500   3.990   5.474  3.7176  1.0593 -0.7991
  462MOL0     H63755   5.427   4.154   5.429 -2.5546  0.0174 -2.2316
  462MOL0     H63756   5.363   4.008   5.374 -0.3401 -0.3043  0.3524
  463MOL0     O63757   1.252   7.497   1.729 -0.7924  0.1972 -0.2453
  463MOL0     C63758   1.315   7.545   1.823  0.4178  0.7365  0.5788
  463MOL0     O63759   1.449   7.519   1.838 -0.3442  0.2621 -0.0911
  463MOL0     C63760   1.504   7.435   1.747  0.3435 -0.9672  1.2757
  463MOL0     C63761   1.557   7.484   1.632 -0.2304 -0.4843 -0.4442
  463MOL0     C63762   1.618   7.386   1.540  0.4303 -0.3464 -0.3235
  463MOL0     C63763   1.631   7.252   1.573 -0.0080 -0.6435 -0.7307
  463MOL0     O63764   1.692   7.150   1.499 -0.8369  0.0520 -0.0926
  463MOL0     C63765   1.756   7.190   1.371  0.0800 -0.2302  0.2850
  463MOL0     C63766   1.785   7.069   1.287  0.0725 -0.2906 -0.6749
  463MOL0     C63767   1.845   7.079   1.150  0.4771  0.3410  0.2871
  463MOL0     C63768   1.780   7.182   1.050 -0.4270  0.3981 -0.3913
  463MOL0     C63769   1.840   7.163   0.906  0.2792  0.3740 -0.2790
  463MOL0     C63770   1.806   7.019   0.856  0.5663 -0.3351 -0.5132
  463MOL0     C63771   1.731   7.016   0.733 -0.3971 -0.7774 -0.0504
  463MOL0     C63772   1.825   7.079   0.615 -0.3135  0.3249 -1.2140
  463MOL0     N63773   1.896   6.982   0.529 -0.4571  0.1815  1.1551
  463MOL0     C63774   2.008   6.907   0.564 -0.1715  0.2488 -0.1065
  463MOL0     C63775   2.049   6.847   0.447  0.5423 -0.4863 -0.6140
  463MOL0     C63776   2.163   6.749   0.434  0.0186  0.7175  0.2220
  463MOL0     C63777   2.114   6.601   0.415 -0.2334  0.3654 -0.5387
  463MOL0     C63778   2.142   6.546   0.277  0.1475  0.3006 -0.3239
  463MOL0     C63779   2.158   6.392   0.275  0.2655 -0.2027 -0.2789
  463MOL0     O63780   2.286   6.346   0.318 -0.3104  0.2436  0.0330
  463MOL0     C63781   2.400   6.408   0.262  0.3647 -0.4017 -0.6218
  463MOL0     C63782   2.449   6.390   0.130  0.7008  0.0070  0.3011
  463MOL0     C63783   2.558   6.455   0.074  0.3811  0.4918  0.5254
  463MOL0     C63784   2.583   6.424  -0.074 -0.6266  0.2117 -0.3936
  463MOL0     C63785   2.627   6.556   0.156 -0.0820 -0.1391 -0.8052
  463MOL0     C63786   2.752   6.628   0.111  0.0222  1.0436 -0.7557
  463MOL0     O63787   2.782   6.749   0.177 -0.0940  0.1070  0.3783
  463MOL0     C63788   2.897   6.827   0.147  0.4189 -0.1126  0.0458
  463MOL0     C63789   2.874   6.964   0.121  0.6792 -0.7778  1.0637
  463MOL0     C63790   2.972   7.054   0.081  0.7545 -0.5835 -0.3263
  463MOL0     C63791   3.099   6.995   0.054 -0.3620  0.2370 -0.4931
  463MOL0     O63792   3.198   7.074   0.005  0.0204 -0.1595 -0.2821
  463MOL0     C63793   3.237   7.042  -0.126 -0.7259  0.7178  0.7671
  463MOL0     C63794   3.361   7.127  -0.176 -0.7812 -0.3121 -0.3459
  463MOL0     C63795   3.365   7.133  -0.328 -0.3729 -1.2116  0.8034
  463MOL0     C63796   3.505   7.088  -0.380  0.5662  0.1153 -0.5158
  463MOL0     C63797   3.536   7.131  -0.528  0.5011  0.0565 -0.7991
  463MOL0     C63798   3.688   7.143  -0.559  0.1618 -0.1546 -0.3287
  463MOL0     C63799   3.769   7.235  -0.470  0.5403 -0.4489  0.1020
  463MOL0     C63800   3.858   7.326  -0.553 -0.2673 -0.5778  0.2602
  463MOL0    Cl63801   4.003   7.235  -0.631  0.5223 -0.4086 -0.0993
  463MOL0     C63802   3.132   6.854   0.089 -0.7457 -0.6445  0.6814
  463MOL0     C63803   3.027   6.775   0.138  0.8103 -0.0533 -0.5053
  463MOL0     O63804   2.816   6.584   0.014 -0.1072 -0.3188  0.1486
  463MOL0     C63805   2.573   6.593   0.285  0.3692  1.4416  0.2591
  463MOL0     C63806   2.461   6.517   0.342 -0.1105  0.1696 -0.4721
  463MOL0     N63807   1.960   6.887   0.348 -0.6432  0.7017 -0.0671
  463MOL0     N63808   1.863   6.956   0.398 -0.4917 -1.3544  0.0727
  463MOL0     C63809   1.568   7.210   1.689  0.6713 -0.6171 -0.5971
  463MOL0     C63810   1.519   7.304   1.775  0.3213 -0.7597 -0.1162
  463MOL0     C63811   1.251   7.627   1.917 -0.0619 -0.2087 -0.1719
  463MOL0     C63812   1.326   7.683   2.021 -0.3112 -0.7922  0.9544
  463MOL0     C63813   1.279   7.773   2.109  0.8622 -0.2540 -0.5233
  463MOL0     C63814   1.138   7.807   2.100  1.0851  0.0129 -0.4924
  463MOL0     O63815   1.075   7.904   2.189 -0.1943  0.1136  0.1859
  463MOL0     C63816   1.162   8.010   2.241  0.5777 -0.2793  0.5118
  463MOL0     C63817   1.092   8.153   2.260 -1.1259  0.3665  0.0205
  463MOL0     C63818   1.202   8.255   2.285  0.0293 -0.2698 -0.2645
  463MOL0     C63819   1.158   8.388   2.232  0.4122 -0.7072  0.5018
  463MOL0     C63820   1.137   8.387   2.081  0.1200 -0.9481 -0.2264
  463MOL0     C63821   1.158   8.397   1.956 -0.3702  0.6225  0.2248
  463MOL0     C63822   1.060   7.736   2.014 -0.2739  0.3489 -0.1921
  463MOL0     C63823   1.109   7.645   1.929  0.1061  0.0017 -0.1013
  463MOL0     C63824   1.005   7.566   1.858  1.1923 -0.4976  0.0050
  463MOL0     H63825   1.542   7.584   1.593  2.8313 -0.6718 -2.4691
  463MOL0     H63826   1.652   7.429   1.446 -1.6383  1.2938 -0.4063
  463MOL0     H63827   1.842   7.249   1.403 -0.6727 -1.5365  5.6608
  463MOL0     H63828   1.693   7.263   1.319  1.4163  0.8199  0.0909
  463MOL0     H63829   1.862   7.023   1.350  2.1768  1.6809 -1.6356
  463MOL0     H63830   1.698   7.004   1.278 -0.7638  0.8110 -0.7271
  463MOL0     H63831   1.950   7.109   1.158  0.2349  1.8947 -1.5175
  463MOL0     H63832   1.841   6.980   1.104  1.5339  0.0840  0.7194
  463MOL0     H63833   1.673   7.161   1.049  0.0376 -2.2784  0.4263
  463MOL0     H63834   1.794   7.286   1.081 -0.5600  1.2919 -3.0419
  463MOL0     H63835   1.949   7.170   0.916  0.0080  1.4025  3.9506
  463MOL0     H63836   1.798   7.240   0.841  0.5657 -0.2249 -1.1872
  463MOL0     H63837   1.900   6.965   0.845  0.6373 -0.6491  1.2622
  463MOL0     H63838   1.748   6.964   0.930  0.9633  0.3939  0.3734
  463MOL0     H63839   1.639   7.074   0.738 -0.1745 -0.4974  0.9551
  463MOL0     H63840   1.705   6.911   0.721  1.2477 -1.1851 -0.2899
  463MOL0     H63841   1.760   7.151   0.564 -1.8387  1.3580  1.9383
  463MOL0     H63842   1.906   7.129   0.668  0.0291 -1.2016 -0.2211
  463MOL0     H63843   2.038   6.901   0.668  1.3223 -2.7679 -0.6088
  463MOL0     H63844   2.222   6.757   0.525 -1.1282  2.1160  0.8712
  463MOL0     H63845   2.230   6.775   0.352 -1.6130  2.3119 -0.6701
  463MOL0     H63846   2.180   6.541   0.478  1.0651  2.1119 -0.1640
  463MOL0     H63847   2.007   6.593   0.438  0.0566  2.9242  2.4121
  463MOL0     H63848   2.057   6.571   0.212  0.2913  0.5234 -0.4254
  463MOL0     H63849   2.238   6.590   0.250  2.0196 -1.8547  2.2919
  463MOL0     H63850   2.081   6.340   0.332  0.0419  0.8983  0.4463
  463MOL0     H63851   2.146   6.364   0.169  4.0542  3.5798 -2.0123
  463MOL0     H63852   2.385   6.317   0.081 -1.9885  2.4611 -0.1590
  463MOL0     H63853   2.571   6.511  -0.140 -0.4165  0.8879  0.4369
  463MOL0     H63854   2.530   6.337  -0.114  1.3953 -0.8814 -0.8411
  463MOL0     H63855   2.684   6.387  -0.091 -0.6857 -0.9481  1.4678
  463MOL0     H63856   2.779   7.014   0.135  0.7749 -0.5481  0.8945
  463MOL0     H63857   2.952   7.160   0.072  1.0897 -0.6208 -1.6096
  463MOL0     H63858   3.276   6.940  -0.128  2.4496  1.8036  0.6820
  463MOL0     H63859   3.156   7.078  -0.190 -0.4332  1.4845  0.8097
  463MOL0     H63860   3.346   7.231  -0.145  2.9595  0.2480  0.1608
  463MOL0     H63861   3.451   7.094  -0.123 -0.5607 -1.5885 -1.4517
  463MOL0     H63862   3.354   7.237  -0.360 -2.0715 -1.9488 -1.2808
  463MOL0     H63863   3.277   7.082  -0.368 -1.1360  0.6245  0.0326
  463MOL0     H63864   3.522   6.981  -0.365 -0.2672 -0.7776 -4.8049
  463MOL0     H63865   3.577   7.149  -0.324 -0.6115  0.0752  1.1014
  463MOL0     H63866   3.468   7.072  -0.590 -3.0417 -0.3783  3.0481
  463MOL0     H63867   3.490   7.229  -0.544 -0.2069 -0.1361 -0.0554
  463MOL0     H63868   3.693   7.169  -0.665 -0.8597 -2.2889 -0.9649
  463MOL0     H63869   3.731   7.042  -0.556 -0.7942 -0.7122 -2.7239
  463MOL0     H63870   3.824   7.176  -0.396 -2.2370 -1.8609  1.1758
  463MOL0     H63871   3.697   7.304  -0.425  0.0902  1.0864 -2.7456
  463MOL0     H63872   3.910   7.395  -0.487 -1.0061  0.2742 -0.0354
  463MOL0     H63873   3.795   7.375  -0.627  1.1410  2.1465  0.7352
  463MOL0     H63874   3.233   6.817   0.076  0.9488  2.8806  2.4356
  463MOL0     H63875   3.041   6.669   0.161 -1.5822 -0.5787 -1.2702
  463MOL0     H63876   2.623   6.667   0.346 -1.1153  2.2494  0.5492
  463MOL0     H63877   2.425   6.546   0.440 -1.8895  3.1462 -1.8610
  463MOL0     H63878   1.570   7.103   1.706  4.5862 -0.5773 -0.0347
  463MOL0     H63879   1.474   7.260   1.864  0.4837 -0.5029  0.0922
  463MOL0     H63880   1.433   7.664   2.029 -0.0718 -0.3648 -0.8388
  463MOL0     H63881   1.345   7.808   2.188 -0.0846  0.9745 -0.2579
  463MOL0     H63882   1.199   7.987   2.342 -0.4835  1.3635  1.3301
  463MOL0     H63883   1.239   8.029   2.166 -0.8605 -2.8212 -1.7763
  463MOL0     H63884   1.017   8.147   2.340  2.1370 -0.2242  3.2733
  463MOL0     H63885   1.045   8.167   2.162  0.4019 -0.4140 -0.8549
  463MOL0     H63886   1.226   8.279   2.390  0.0090  0.1793 -0.3581
  463MOL0     H63887   1.296   8.222   2.240  1.5356 -0.8865  2.9956
  463MOL0     H63888   1.227   8.463   2.270  0.1108 -0.1568 -0.0201
  463MOL0     H63889   1.058   8.416   2.266  1.0883 -0.6191  2.5613
  463MOL0     H63890   1.190   8.410   1.854 -1.3730 -1.5593 -0.4297
  463MOL0     H63891   0.955   7.760   2.008 -0.1750  0.6647 -0.8338
  463MOL0     H63892   0.921   7.563   1.927  1.6021  1.1945  0.6185
  463MOL0     H63893   0.976   7.607   1.761  2.1412 -1.2466 -0.6114
  463MOL0     H63894   1.040   7.465   1.835  2.1677 -0.1303 -0.1869
  464MOL0     O63895  11.454   5.236   1.272 -0.2037 -0.0185  0.5619
  464MOL0     C63896  11.480   5.356   1.283 -0.1421 -0.0583 -0.1069
  464MOL0     O63897  11.394   5.456   1.261  0.6183 -0.6722 -0.0177
  464MOL0     C63898  11.264   5.427   1.209 -1.1501 -0.1995 -0.6311
  464MOL0     C63899  11.251   5.358   1.089  0.7644 -0.2724 -0.1554
  464MOL0     C63900  11.126   5.351   1.018  1.1043  0.4477  0.8916
  464MOL0     C63901  11.011   5.413   1.072 -0.0923  0.8707 -0.1127
  464MOL0     O63902  10.883   5.422   1.014  0.1308  0.2540 -0.2552
  464MOL0     C63903  10.854   5.322   0.915  0.4861  0.4030  0.3454
  464MOL0     C63904  10.864   5.177   0.955 -1.4146  0.3069 -0.3176
  464MOL0     C63905  10.784   5.128   1.079  0.5109 -0.2725  0.1304
  464MOL0     C63906  10.645   5.083   1.031  0.5858 -0.2911 -0.2391
  464MOL0     C63907  10.571   5.038   1.160 -0.4930  0.3959  0.3605
  464MOL0     C63908  10.431   4.986   1.127 -0.3045  0.2094  0.6087
  464MOL0     C63909  10.366   4.943   1.257  0.7605  0.6875  0.9178
  464MOL0     C63910  10.213   4.901   1.233 -0.1635 -0.0528 -0.1722
  464MOL0     N63911  10.125   5.011   1.184  0.0719  0.0993  0.3652
  464MOL0     C63912  10.066   5.102   1.272 -0.8046  0.1663 -0.5958
  464MOL0     C63913  10.034   5.211   1.190  0.4680  1.0954  0.5505
  464MOL0     C63914   9.973   5.346   1.227  0.3044 -0.4652  0.2498
  464MOL0     C63915   9.834   5.315   1.279  0.5394  0.0279 -0.5716
  464MOL0     C63916   9.743   5.237   1.181 -0.1028  1.4454 -0.2641
  464MOL0     C63917   9.706   5.313   1.055 -0.2643  0.3617 -0.7454
  464MOL0     O63918   9.639   5.428   1.111  0.3371  0.1336 -0.1203
  464MOL0     C63919   9.502   5.421   1.145  0.2071  0.4091 -0.2205
  464MOL0     C63920   9.417   5.310   1.141 -0.0402  0.7147  0.6705
  464MOL0     C63921   9.285   5.311   1.184  0.5872 -0.3021  0.7488
  464MOL0     C63922   9.204   5.188   1.158  0.1250  0.6573 -0.2611
  464MOL0     C63923   9.232   5.439   1.234 -0.3865 -0.0878 -0.7079
  464MOL0     C63924   9.089   5.463   1.278  0.2924 -0.0161  0.4692
  464MOL0     O63925   9.068   5.575   1.338  0.7494 -1.1126 -0.0330
  464MOL0     C63926   8.948   5.585   1.414 -0.3142 -0.2000 -0.1107
  464MOL0     C63927   8.919   5.490   1.508  0.2437 -0.2890 -0.5616
  464MOL0     C63928   8.829   5.519   1.608  0.7171 -0.0787 -0.3618
  464MOL0     C63929   8.748   5.638   1.602  0.1219 -1.2384 -0.4163
  464MOL0     O63930   8.666   5.686   1.704  0.2505  0.8328 -0.6883
  464MOL0     C63931   8.647   5.610   1.821  0.2073  0.2723 -0.1897
  464MOL0     C63932   8.566   5.690   1.938 -0.4773 -0.6344  0.9205
  464MOL0     C63933   8.436   5.729   1.879  1.2677 -0.3463 -0.6124
  464MOL0     C63934   8.336   5.766   1.994  0.4053  0.1451  0.8729
  464MOL0     C63935   8.186   5.740   1.944 -0.2231  0.2629  0.1789
  464MOL0     C63936   8.078   5.754   2.049 -0.2331 -0.1384  0.1153
  464MOL0     C63937   7.948   5.694   1.987  0.2597 -0.6851 -0.5797
  464MOL0     C63938   7.856   5.656   2.104 -0.3291 -0.0108 -0.3186
  464MOL0    Cl63939   7.779   5.808   2.155  0.7727 -0.5647 -0.4461
  464MOL0     C63940   8.768   5.726   1.494  0.0114  0.7821 -0.0133
  464MOL0     C63941   8.863   5.695   1.403 -0.3988  0.0430  0.0564
  464MOL0     O63942   9.004   5.383   1.248 -0.3208  0.2154  0.1620
  464MOL0     C63943   9.313   5.556   1.230 -0.5349 -0.2813 -0.1762
  464MOL0     C63944   9.450   5.538   1.196 -1.1498 -0.5212 -0.3258
  464MOL0     N63945  10.050   5.169   1.057  0.0826  0.2946  0.2487
  464MOL0     N63946  10.102   5.046   1.053 -0.2668 -0.4122 -0.9385
  464MOL0     C63947  11.018   5.474   1.195 -0.2929 -0.1271 -0.3235
  464MOL0     C63948  11.139   5.483   1.271  0.1357  0.0027  0.9447
  464MOL0     C63949  11.621   5.394   1.340 -0.1594  0.0301 -1.1123
  464MOL0     C63950  11.717   5.291   1.363  1.1658  0.2516  0.3591
  464MOL0     C63951  11.851   5.314   1.397  0.1485 -0.0194 -0.7806
  464MOL0     C63952  11.903   5.435   1.431  0.3180 -0.4815  0.2055
  464MOL0     O63953  12.034   5.464   1.460 -0.6950  0.7381  0.4469
  464MOL0     C63954  12.127   5.350   1.486  0.7821  0.4897 -1.3321
  464MOL0     C63955  12.103   5.273   1.616 -0.4545 -0.1721  1.0596
  464MOL0     C63956  12.129   5.128   1.609 -0.0204 -0.0501  1.5218
  464MOL0     C63957  12.272   5.090   1.595  0.1895 -1.1631  0.3669
  464MOL0     C63958  12.304   5.094   1.457  0.1792  0.7296  0.2064
  464MOL0     C63959  12.338   5.101   1.338 -0.0100 -0.1197  0.3870
  464MOL0     C63960  11.813   5.540   1.418 -0.4077 -1.0113 -0.6117
  464MOL0     C63961  11.681   5.524   1.364 -0.1189  0.2769 -1.0189
  464MOL0     C63962  11.590   5.641   1.349  0.4726 -0.3871 -0.6392
  464MOL0     H63963  11.335   5.306   1.045  0.3269  0.4254 -1.9207
  464MOL0     H63964  11.121   5.306   0.919  1.1718 -1.9154  1.8771
  464MOL0     H63965  10.923   5.340   0.833  2.4355 -1.2593  1.5189
  464MOL0     H63966  10.748   5.333   0.887  0.1669 -1.2299  0.7899
  464MOL0     H63967  10.843   5.109   0.872  0.5903 -1.0135  0.2000
  464MOL0     H63968  10.970   5.152   0.964 -1.6466 -2.0494 -2.7089
  464MOL0     H63969  10.831   5.042   1.126  1.2963 -1.0033 -1.8724
  464MOL0     H63970  10.775   5.215   1.146  1.9386  0.6616 -0.8348
  464MOL0     H63971  10.597   5.165   0.977 -1.2571 -2.5200 -2.2325
  464MOL0     H63972  10.651   5.002   0.957 -2.0297  0.4771 -1.4017
  464MOL0     H63973  10.571   5.119   1.233  2.8153  0.6385  0.2193
  464MOL0     H63974  10.635   4.957   1.196  0.1745 -0.0964 -1.7459
  464MOL0     H63975  10.372   5.059   1.070  0.4266  0.4251  0.1065
  464MOL0     H63976  10.446   4.901   1.060  0.6383 -0.8333  2.0781
  464MOL0     H63977  10.371   5.032   1.321  0.3011 -0.3187  2.4105
  464MOL0     H63978  10.416   4.857   1.302  0.4949 -0.2967 -0.5708
  464MOL0     H63979  10.209   4.816   1.165 -1.1036  0.4187 -0.7331
  464MOL0     H63980  10.176   4.869   1.331 -1.4019  1.9645  0.0862
  464MOL0     H63981  10.063   5.094   1.381 -2.2595 -3.9135 -0.7567
  464MOL0     H63982   9.966   5.408   1.138 -3.1341 -1.6243 -0.4535
  464MOL0     H63983  10.043   5.386   1.301  0.7967  0.8189 -0.8782
  464MOL0     H63984   9.845   5.259   1.372 -0.8647 -1.4281 -1.2397
  464MOL0     H63985   9.786   5.410   1.305  0.5809  0.6689 -2.6364
  464MOL0     H63986   9.785   5.143   1.144  2.1728  1.0498  2.9327
  464MOL0     H63987   9.656   5.190   1.227  0.7000 -0.4623 -0.5928
  464MOL0     H63988   9.801   5.334   1.004  0.9089 -2.5202  0.0397
  464MOL0     H63989   9.641   5.249   0.994 -2.2076  4.0387 -2.8841
  464MOL0     H63990   9.461   5.215   1.113 -2.1705  0.2479 -1.4373
  464MOL0     H63991   9.131   5.217   1.083  0.6913 -1.1514 -1.5783
  464MOL0     H63992   9.152   5.157   1.250  0.7587 -0.8510 -0.3738
  464MOL0     H63993   9.262   5.098   1.131 -1.8582 -0.8651  0.3288
  464MOL0     H63994   8.976   5.397   1.507  0.5962 -0.1532  2.0973
  464MOL0     H63995   8.818   5.439   1.681  0.1089  1.0682  0.8345
  464MOL0     H63996   8.593   5.522   1.784  0.8086  0.2466 -1.0377
  464MOL0     H63997   8.745   5.582   1.861 -1.0997 -3.6405  0.6726
  464MOL0     H63998   8.560   5.621   2.022  0.6993 -0.2563  1.3237
  464MOL0     H63999   8.615   5.784   1.966 -1.8020  1.9655 -4.1029
  464MOL0     H64000   8.397   5.645   1.821  0.7767 -1.0471  0.7003
  464MOL0     H64001   8.445   5.818   1.816  2.3593  0.4984  0.6902
  464MOL0     H64002   8.371   5.864   2.027  2.1065  0.0121 -0.3984
  464MOL0     H64003   8.352   5.710   2.087  0.5682 -0.1439  0.6712
  464MOL0     H64004   8.168   5.825   1.877  0.8822  0.1995 -0.2138
  464MOL0     H64005   8.176   5.648   1.886 -3.2293 -1.4638  3.0991
  464MOL0     H64006   8.066   5.858   2.082  0.9280  1.3428 -3.5999
  464MOL0     H64007   8.109   5.701   2.139 -3.1872  1.8221  2.4890
  464MOL0     H64008   7.963   5.610   1.919 -1.8933 -1.9175  0.3799
  464MOL0     H64009   7.912   5.774   1.922 -0.0670  0.1655  0.6124
  464MOL0     H64010   7.900   5.607   2.191 -3.8463 -0.7471  1.2478
  464MOL0     H64011   7.773   5.595   2.066 -2.0505  0.6536  2.0582
  464MOL0     H64012   8.700   5.810   1.483 -1.8306 -0.4954  0.9412
  464MOL0     H64013   8.872   5.760   1.316  1.5685 -1.1801 -0.7415
  464MOL0     H64014   9.275   5.650   1.269  0.2078 -0.5707  1.3006
  464MOL0     H64015   9.516   5.624   1.193 -0.5039 -0.8274  2.6647
  464MOL0     H64016  10.934   5.529   1.237  0.4437 -1.1011  2.5968
  464MOL0     H64017  11.151   5.535   1.366  0.0087 -0.1905  1.0673
  464MOL0     H64018  11.680   5.189   1.363 -3.0479  1.5787 -0.8497
  464MOL0     H64019  11.911   5.225   1.413 -0.5009 -0.0047  2.1525
  464MOL0     H64020  12.130   5.286   1.397  1.5552 -2.0657  0.3943
  464MOL0     H64021  12.224   5.399   1.494  1.0618 -0.3223  0.8245
  464MOL0     H64022  12.002   5.294   1.653 -1.3488 -1.9503 -0.2018
  464MOL0     H64023  12.170   5.312   1.693  0.6726 -1.5743  0.8236
  464MOL0     H64024  12.091   5.083   1.701 -0.8292  2.1672  2.3140
  464MOL0     H64025  12.071   5.091   1.524  2.3322  1.5630 -0.9525
  464MOL0     H64026  12.293   4.990   1.634  0.6370 -0.4239  2.1113
  464MOL0     H64027  12.347   5.154   1.643 -0.5299 -0.1923  0.2228
  464MOL0     H64028  12.364   5.105   1.234  1.0461 -1.4755  0.5681
  464MOL0     H64029  11.860   5.637   1.427 -0.8197 -0.7549 -1.1975
  464MOL0     H64030  11.525   5.634   1.437  3.6795  0.4019  1.9963
  464MOL0     H64031  11.639   5.739   1.357  0.1621 -0.2358 -0.5665
  464MOL0     H64032  11.537   5.634   1.254 -1.1094 -0.2733  0.2060
  465MOL0     O64033   8.160   5.605   3.505  0.2813 -0.3528 -0.3298
  465MOL0     C64034   8.086   5.561   3.593 -0.2182  0.5404 -0.4921
  465MOL0     O64035   8.072   5.427   3.619  0.2635  0.5416  0.1755
  465MOL0     C64036   8.127   5.318   3.548  0.7013  0.8737  0.4497
  465MOL0     C64037   8.238   5.323   3.464  0.3575  0.4716  0.2807
  465MOL0     C64038   8.274   5.207   3.392  1.2855 -0.4568  0.0334
  465MOL0     C64039   8.199   5.085   3.423 -0.6673 -0.1070 -0.4109
  465MOL0     O64040   8.228   4.969   3.356  0.0946  0.2282  0.6033
  465MOL0     C64041   8.231   4.978   3.215  0.1109 -0.3595 -0.0184
  465MOL0     C64042   8.334   4.880   3.166 -0.0212 -0.3589 -0.6333
  465MOL0     C64043   8.475   4.895   3.231 -0.3000 -0.9169 -0.8248
  465MOL0     C64044   8.572   4.797   3.183  0.1827  0.1282 -0.1254
  465MOL0     C64045   8.708   4.798   3.252  0.3630 -0.6139 -0.2974
  465MOL0     C64046   8.690   4.776   3.406 -0.7796  0.0628  0.8072
  465MOL0     C64047   8.822   4.783   3.474  0.6066  0.4322  1.1603
  465MOL0     C64048   8.800   4.715   3.619  0.5157 -0.4873 -0.3043
  465MOL0     N64049   8.898   4.765   3.710 -0.6876 -0.0873 -0.1667
  465MOL0     C64050   8.889   4.778   3.844  1.0432  0.6307  0.7178
  465MOL0     C64051   9.018   4.802   3.882 -0.0738  0.3203  0.0859
  465MOL0     C64052   9.073   4.800   4.017  0.3861  0.5127 -0.7710
  465MOL0     C64053   9.008   4.916   4.090  0.4117  0.2347  0.4370
  465MOL0     C64054   9.058   4.946   4.223 -1.2663 -0.8922 -0.5384
  465MOL0     C64055   9.042   4.840   4.336 -0.1859 -0.0874 -0.3071
  465MOL0     O64056   9.140   4.739   4.311 -0.5270  0.5426 -0.2457
  465MOL0     C64057   9.139   4.618   4.380  1.0470 -0.8826 -0.0846
  465MOL0     C64058   9.064   4.598   4.491  0.9393  0.0119 -0.7525
  465MOL0     C64059   9.075   4.484   4.574  0.5117  0.3066  1.0078
  465MOL0     C64060   9.003   4.489   4.707 -1.2410  0.1352 -0.4913
  465MOL0     C64061   9.165   4.380   4.537 -0.1940 -0.7501  0.4289
  465MOL0     C64062   9.193   4.258   4.620 -0.0654 -0.0264 -0.4168
  465MOL0     O64063   9.122   4.234   4.726  0.3617  0.1783 -0.2485
  465MOL0     C64064   9.159   4.128   4.808  0.0976  0.4826  0.4949
  465MOL0     C64065   9.269   4.133   4.887  0.0796  0.5921  0.6419
  465MOL0     C64066   9.309   4.022   4.965  0.3239  0.1036  0.8410
  465MOL0     C64067   9.232   3.902   4.980 -0.2688 -0.6218  0.2913
  465MOL0     O64068   9.250   3.794   5.065  0.4069 -0.2394 -0.5374
  465MOL0     C64069   9.364   3.795   5.151  0.8689  0.4768  0.3675
  465MOL0     C64070   9.502   3.768   5.088  0.3455 -0.6160  0.1967
  465MOL0     C64071   9.613   3.814   5.170 -0.4026 -1.2429  1.3775
  465MOL0     C64072   9.616   3.737   5.302  0.2940  0.3506 -0.3758
  465MOL0     C64073   9.747   3.770   5.355  0.6406 -0.8384 -0.1375
  465MOL0     C64074   9.862   3.683   5.311  0.2060 -1.0158 -0.0136
  465MOL0     C64075   9.962   3.708   5.423  0.4002  0.1303 -0.0762
  465MOL0     C64076  10.110   3.669   5.390 -0.4916  0.7961 -0.3539
  465MOL0    Cl64077  10.165   3.773   5.255 -0.3339  0.0141  0.2449
  465MOL0     C64078   9.125   3.906   4.907  0.3046  0.3150 -0.4654
  465MOL0     C64079   9.082   4.011   4.813 -1.1257  0.3297 -0.0849
  465MOL0     O64080   9.288   4.189   4.584  0.5791  0.0267  0.2159
  465MOL0     C64081   9.235   4.398   4.418 -0.2782 -0.5409  0.2300
  465MOL0     C64082   9.230   4.515   4.341  0.4005  0.3070  0.0153
  465MOL0     N64083   9.102   4.793   3.772 -0.0608 -0.5592  0.0293
  465MOL0     N64084   9.033   4.775   3.673  0.3163 -0.3677 -0.0157
  465MOL0     C64085   8.105   5.079   3.512 -0.2944  0.1669 -0.2544
  465MOL0     C64086   8.067   5.198   3.567 -0.3450  0.3139 -0.4806
  465MOL0     C64087   7.992   5.645   3.679  0.1631 -0.2945  0.2334
  465MOL0     C64088   7.937   5.582   3.787  0.3208 -0.5781  1.2660
  465MOL0     C64089   7.833   5.634   3.860 -0.5926 -0.3161  0.0384
  465MOL0     C64090   7.797   5.768   3.838  0.1792 -0.6733  0.6404
  465MOL0     O64091   7.695   5.825   3.903 -1.0365 -0.0289 -0.2988
  465MOL0     C64092   7.622   5.745   4.010 -1.2094 -0.0038 -0.4112
  465MOL0     C64093   7.514   5.831   4.079 -0.3871 -0.6215 -0.1024
  465MOL0     C64094   7.443   5.760   4.191  0.6536 -0.0882 -0.7642
  465MOL0     C64095   7.538   5.750   4.308  0.0639 -0.2967  0.4816
  465MOL0     C64096   7.477   5.715   4.435  0.2922  0.3837  0.4314
  465MOL0     C64097   7.436   5.657   4.542 -0.2202 -0.0076 -1.0576
  465MOL0     C64098   7.858   5.846   3.737  0.0902  0.4181  0.7684
  465MOL0     C64099   7.958   5.786   3.657 -0.3916  0.0727  0.0102
  465MOL0     C64100   7.996   5.867   3.535  0.3735 -0.8406 -0.0346
  465MOL0     H64101   8.290   5.416   3.447  2.5447 -0.8522 -0.6823
  465MOL0     H64102   8.359   5.216   3.325  0.0927 -2.1742 -1.8215
  465MOL0     H64103   8.263   5.073   3.171  0.2036 -1.2703 -2.0630
  465MOL0     H64104   8.132   4.959   3.172 -0.2301  2.0126 -0.4543
  465MOL0     H64105   8.301   4.777   3.181  2.7561 -1.0353  1.8312
  465MOL0     H64106   8.354   4.916   3.065  0.8123  1.4693  0.1432
  465MOL0     H64107   8.528   4.989   3.213  2.6438 -1.3874  3.9176
  465MOL0     H64108   8.452   4.891   3.338 -1.8260  0.0326 -1.0780
  465MOL0     H64109   8.529   4.700   3.209  0.6341  0.0495  0.3544
  465MOL0     H64110   8.564   4.789   3.075 -3.3761  0.8371 -0.0406
  465MOL0     H64111   8.750   4.896   3.228  0.5855  0.2372  3.1155
  465MOL0     H64112   8.761   4.719   3.197  1.3229 -2.0930  2.5901
  465MOL0     H64113   8.631   4.855   3.454 -2.4265 -1.1562  0.8564
  465MOL0     H64114   8.642   4.681   3.430 -1.0948 -0.0483 -0.1873
  465MOL0     H64115   8.839   4.891   3.479 -1.1871  0.7173  1.6064
  465MOL0     H64116   8.902   4.737   3.414 -1.9038 -0.8547 -1.4318
  465MOL0     H64117   8.700   4.742   3.655  0.0213 -0.4754 -1.6521
  465MOL0     H64118   8.816   4.607   3.625  0.3612 -0.5018 -0.1390
  465MOL0     H64119   8.797   4.767   3.899 -0.6044  0.0684 -1.9890
  465MOL0     H64120   9.179   4.821   4.004  0.5681 -0.4939 -0.9889
  465MOL0     H64121   9.052   4.706   4.069  1.0226  1.7832  1.9660
  465MOL0     H64122   9.021   5.005   4.028 -2.0511 -0.3576 -1.0735
  465MOL0     H64123   8.901   4.901   4.105  0.4343  0.5081  0.9218
  465MOL0     H64124   9.161   4.982   4.227 -2.1980  1.9918  2.2196
  465MOL0     H64125   9.009   5.041   4.246  0.2117 -0.2311  0.0413
  465MOL0     H64126   9.081   4.896   4.421  2.1881  1.6855 -2.3824
  465MOL0     H64127   8.941   4.802   4.353  1.1966 -3.2045  1.9732
  465MOL0     H64128   9.001   4.681   4.521  1.4620  0.5469 -1.1037
  465MOL0     H64129   8.942   4.578   4.727 -4.3071 -1.6980 -0.9918
  465MOL0     H64130   9.074   4.469   4.787 -2.2572 -1.0267  0.1441
  465MOL0     H64131   8.931   4.406   4.713 -1.7106  0.4861 -1.1441
  465MOL0     H64132   9.328   4.223   4.884  0.2486  0.7080  3.8962
  465MOL0     H64133   9.401   4.037   5.021 -0.2850 -0.6417  2.1151
  465MOL0     H64134   9.374   3.890   5.204 -0.1963  0.2690  0.9770
  465MOL0     H64135   9.349   3.715   5.225  1.9340 -0.4929 -0.4308
  465MOL0     H64136   9.500   3.660   5.072 -1.0136 -1.2259  3.5261
  465MOL0     H64137   9.497   3.826   4.995  1.3399 -0.2845  0.3413
  465MOL0     H64138   9.608   3.922   5.188 -1.0355 -1.1628  0.7931
  465MOL0     H64139   9.705   3.800   5.112 -1.9282  0.9416 -1.9093
  465MOL0     H64140   9.599   3.630   5.289  3.1210 -0.1045 -0.9433
  465MOL0     H64141   9.527   3.768   5.359 -0.6212 -1.4260 -0.7543
  465MOL0     H64142   9.771   3.876   5.352 -0.1184 -0.4729  3.0520
  465MOL0     H64143   9.731   3.747   5.461 -3.2827  0.5364 -0.2595
  465MOL0     H64144   9.899   3.724   5.216  2.4048  1.0481  1.5857
  465MOL0     H64145   9.827   3.581   5.293 -3.8074 -0.1816  1.9242
  465MOL0     H64146   9.937   3.644   5.509 -2.6736  1.3465  0.0626
  465MOL0     H64147   9.963   3.812   5.457  3.0042 -0.4460  1.9082
  465MOL0     H64148  10.104   3.562   5.368 -0.5118  1.1874 -2.4834
  465MOL0     H64149  10.172   3.695   5.475 -0.1299  0.3568 -0.4789
  465MOL0     H64150   9.043   3.837   4.924 -1.1570  1.8731 -0.9160
  465MOL0     H64151   8.988   4.000   4.760 -1.1363  0.4132 -0.0827
  465MOL0     H64152   9.302   4.322   4.380 -0.1071 -0.0274 -0.5265
  465MOL0     H64153   9.305   4.518   4.263  3.3131  3.1002  2.6541
  465MOL0     H64154   8.066   4.978   3.518 -0.4662  0.3254  2.2376
  465MOL0     H64155   7.987   5.199   3.640  1.9903  0.4456  2.2314
  465MOL0     H64156   7.962   5.479   3.811 -0.5505 -1.1887 -0.3160
  465MOL0     H64157   7.784   5.566   3.930 -0.2809 -1.0012 -0.4029
  465MOL0     H64158   7.568   5.665   3.958 -0.5300  0.5852 -2.0964
  465MOL0     H64159   7.691   5.709   4.087 -1.2492 -2.0019 -1.2509
  465MOL0     H64160   7.440   5.841   3.999  0.9970  1.7233 -1.1970
  465MOL0     H64161   7.550   5.932   4.101  0.2210 -0.7664 -0.4139
  465MOL0     H64162   7.351   5.808   4.225  1.7322  2.2474 -0.9961
  465MOL0     H64163   7.420   5.660   4.152 -0.2434  0.5745 -1.9852
  465MOL0     H64164   7.588   5.847   4.314  0.0490  0.0500 -2.8097
  465MOL0     H64165   7.609   5.669   4.286  1.9303  1.4768 -0.3191
  465MOL0     H64166   7.402   5.630   4.640 -2.4168 -0.4896 -1.8910
  465MOL0     H64167   7.826   5.947   3.716  0.7011  0.7388  1.3247
  465MOL0     H64168   8.083   5.825   3.484 -0.4903 -2.5558 -0.1830
  465MOL0     H64169   7.908   5.858   3.470 -0.7658 -0.1634  1.3427
  465MOL0     H64170   8.018   5.970   3.564 -4.6014 -0.6902  5.0330
  466MOL0     O64171   5.899   0.111   1.803 -0.1203 -0.4502 -0.2162
  466MOL0     C64172   5.933   0.018   1.876  0.3148  0.1920  0.3553
  466MOL0     O64173   6.051   0.008   1.937 -0.2640  0.4516 -0.0833
  466MOL0     C64174   6.135   0.119   1.952  1.0343 -0.4156 -0.3000
  466MOL0     C64175   6.240   0.144   1.862 -0.2562 -0.5050  0.2941
  466MOL0     C64176   6.333   0.251   1.881  0.2836  0.1156  0.0160
  466MOL0     C64177   6.318   0.331   1.998  0.0634 -0.4374  0.0759
  466MOL0     O64178   6.408   0.425   2.034 -0.2225 -0.0975  0.1897
  466MOL0     C64179   6.551   0.411   2.004 -0.4354 -0.3216 -0.4486
  466MOL0     C64180   6.639   0.400   2.134  0.8765 -0.8483 -1.2019
  466MOL0     C64181   6.665   0.544   2.191  0.7461 -0.6245  0.1840
  466MOL0     C64182   6.714   0.530   2.335  0.3305  0.7051 -0.1530
  466MOL0     C64183   6.704   0.675   2.395  0.2510  1.2851 -0.2601
  466MOL0     C64184   6.734   0.671   2.544 -1.3374 -0.2808  0.1372
  466MOL0     C64185   6.738   0.806   2.611 -0.0814  0.2830  0.0118
  466MOL0     C64186   6.725   0.788   2.762  0.4737 -0.5201  0.2149
  466MOL0     N64187   6.767   0.910   2.837  1.1793  0.3486 -0.2647
  466MOL0     C64188   6.690   1.019   2.864  0.7584 -0.4268 -0.4260
  466MOL0     C64189   6.771   1.117   2.909 -0.5526  0.2085  0.0575
  466MOL0     C64190   6.734   1.253   2.960 -0.3626  0.3257 -0.7357
  466MOL0     C64191   6.654   1.256   3.094  0.0301  0.6581  0.5355
  466MOL0     C64192   6.546   1.362   3.112  0.1684 -0.3361  0.6000
  466MOL0     C64193   6.555   1.422   3.249 -0.4004  0.3624 -0.6185
  466MOL0     O64194   6.454   1.526   3.262  0.0860  0.8743 -0.6895
  466MOL0     C64195   6.444   1.569   3.390  0.2118 -0.5618  0.3797
  466MOL0     C64196   6.493   1.705   3.409  0.4359  0.5917 -0.3292
  466MOL0     C64197   6.443   1.784   3.519 -0.5029  0.2517  0.0533
  466MOL0     C64198   6.490   1.929   3.522  0.3400 -0.3676  0.2635
  466MOL0     C64199   6.357   1.726   3.614  0.3358  0.9073 -0.0444
  466MOL0     C64200   6.286   1.794   3.732 -0.4094  0.7700  0.5374
  466MOL0     O64201   6.359   1.874   3.809  1.0045 -0.0398  0.0744
  466MOL0     C64202   6.310   1.921   3.925 -0.4102 -0.3844  0.9865
  466MOL0     C64203   6.352   2.050   3.967  0.8680 -0.1908 -0.9436
  466MOL0     C64204   6.312   2.102   4.086  0.3180  0.2116  0.5334
  466MOL0     C64205   6.219   2.035   4.164  0.1383  0.8293  1.1786
  466MOL0     O64206   6.184   2.072   4.288  0.3044  0.2020 -0.1624
  466MOL0     C64207   6.235   2.193   4.348 -0.5278 -0.7818 -0.3335
  466MOL0     C64208   6.152   2.232   4.467 -0.4304  0.4969 -0.0945
  466MOL0     C64209   6.105   2.130   4.570 -0.9810 -0.7946  0.4611
  466MOL0     C64210   6.061   2.180   4.705  0.4538 -0.7014 -0.4590
  466MOL0     C64211   5.986   2.088   4.800  0.2298 -0.1456  0.9113
  466MOL0     C64212   6.072   1.977   4.870 -0.0926  0.5300  0.6272
  466MOL0     C64213   5.994   1.861   4.938 -0.4298  0.1827  0.0555
  466MOL0     C64214   6.062   1.736   4.960 -0.4314 -0.4071 -0.7657
  466MOL0    Cl64215   6.073   1.649   4.808 -0.4973 -0.1633 -0.3661
  466MOL0     C64216   6.175   1.908   4.125  0.0267  0.6216 -0.4571
  466MOL0     C64217   6.222   1.855   4.000  0.2287 -0.0405  0.1815
  466MOL0     O64218   6.162   1.776   3.739  0.1945  0.3260 -0.9647
  466MOL0     C64219   6.323   1.589   3.596  0.6529 -0.1179 -0.6399
  466MOL0     C64220   6.366   1.515   3.489  0.0491 -0.6665 -0.0104
  466MOL0     N64221   6.898   1.077   2.891 -0.8552  0.1216 -0.0258
  466MOL0     N64222   6.891   0.961   2.832 -0.6692  0.0457  0.2110
  466MOL0     C64223   6.211   0.306   2.094  0.6051 -0.6904  0.0351
  466MOL0     C64224   6.127   0.201   2.065  0.7590  0.8754 -0.0541
  466MOL0     C64225   5.843  -0.098   1.885 -0.1327 -0.0097  0.5371
  466MOL0     C64226   5.858  -0.175   2.003 -0.4767 -0.1295  0.2758
  466MOL0     C64227   5.775  -0.283   2.027 -1.0831 -0.5364  0.7744
  466MOL0     C64228   5.669  -0.314   1.948  0.3315 -0.1434 -0.0118
  466MOL0     O64229   5.570  -0.408   1.980  0.6670  0.3021  0.0782
  466MOL0     C64230   5.582  -0.483   2.103  0.2734 -0.0598 -0.1720
  466MOL0     C64231   5.459  -0.563   2.115 -0.1067 -0.3015  0.3143
  466MOL0     C64232   5.429  -0.610   2.257 -0.1505 -0.0204  0.4719
  466MOL0     C64233   5.436  -0.762   2.281  0.2260  0.0999  0.3671
  466MOL0     C64234   5.439  -0.806   2.420  0.2910 -0.7239 -0.2406
  466MOL0     C64235   5.437  -0.845   2.534  0.0244  0.6530 -0.5127
  466MOL0     C64236   5.647  -0.231   1.842 -0.0478  0.2977  0.1701
  466MOL0     C64237   5.739  -0.130   1.803  0.1814 -0.5395  0.0731
  466MOL0     C64238   5.718  -0.082   1.666  0.1805  0.4220 -0.1448
  466MOL0     H64239   6.255   0.091   1.768  2.2759  3.3315 -1.7463
  466MOL0     H64240   6.406   0.280   1.806 -2.9515  3.3573 -2.2236
  466MOL0     H64241   6.587   0.496   1.946  1.5668 -1.2008 -0.5791
  466MOL0     H64242   6.570   0.320   1.947  2.1591  0.5169 -1.0127
  466MOL0     H64243   6.582   0.338   2.206 -0.8865  0.7399 -1.1507
  466MOL0     H64244   6.732   0.348   2.109  3.2247  2.9103 -1.0562
  466MOL0     H64245   6.722   0.616   2.132 -1.5743  0.0171 -1.4261
  466MOL0     H64246   6.568   0.594   2.196  0.6015 -0.9183  0.3518
  466MOL0     H64247   6.661   0.466   2.406 -1.0930  2.0951  0.0853
  466MOL0     H64248   6.820   0.502   2.332  0.3154  0.6555 -0.1922
  466MOL0     H64249   6.604   0.714   2.374 -0.1059  0.3254 -0.4083
  466MOL0     H64250   6.777   0.743   2.350  1.2823  1.1353  1.1313
  466MOL0     H64251   6.669   0.601   2.597 -1.1178 -0.0233  0.7681
  466MOL0     H64252   6.833   0.629   2.562 -1.0693  1.5751  4.3516
  466MOL0     H64253   6.653   0.860   2.568  1.4184  0.1124 -3.4805
  466MOL0     H64254   6.828   0.853   2.572  0.8212 -1.8124 -0.5895
  466MOL0     H64255   6.618   0.770   2.775 -0.8364  2.6548 -3.9502
  466MOL0     H64256   6.792   0.709   2.796  0.3295 -0.2181  1.2137
  466MOL0     H64257   6.582   1.028   2.861  0.6214 -0.3829  2.2718
  466MOL0     H64258   6.678   1.315   2.889  0.3190  0.7501 -0.9124
  466MOL0     H64259   6.820   1.320   2.969 -0.7045  0.8002 -0.9397
  466MOL0     H64260   6.605   1.158   3.102  1.4965 -0.3350 -1.6145
  466MOL0     H64261   6.726   1.251   3.177 -1.5392  0.5760  1.9378
  466MOL0     H64262   6.557   1.436   3.033  2.7407  1.0497  2.1151
  466MOL0     H64263   6.452   1.307   3.098  1.2022 -1.8476 -0.8552
  466MOL0     H64264   6.543   1.341   3.322  0.7256  0.9421  0.2402
  466MOL0     H64265   6.652   1.472   3.257 -1.6507  2.8179  0.0824
  466MOL0     H64266   6.567   1.736   3.335  0.6053 -0.5330 -0.6627
  466MOL0     H64267   6.403   1.987   3.489  1.2370 -0.1937 -1.9632
  466MOL0     H64268   6.569   1.947   3.449 -0.9051 -0.2986 -1.1191
  466MOL0     H64269   6.524   1.966   3.618 -0.4485  1.4676 -0.1313
  466MOL0     H64270   6.424   2.104   3.907  0.8827 -2.4695 -3.1511
  466MOL0     H64271   6.362   2.190   4.126  1.8456 -0.3968  0.0224
  466MOL0     H64272   6.341   2.186   4.374  0.0381  2.5455 -1.3020
  466MOL0     H64273   6.215   2.277   4.282 -1.0684 -1.5086 -1.1165
  466MOL0     H64274   6.223   2.293   4.525 -0.4917  1.1638 -0.7148
  466MOL0     H64275   6.070   2.297   4.436  0.0964  0.9643 -0.5329
  466MOL0     H64276   6.176   2.051   4.597  0.6885  0.7213  0.6200
  466MOL0     H64277   6.010   2.087   4.537 -0.6987  0.2604 -1.9184
  466MOL0     H64278   5.997   2.262   4.671 -2.5055 -1.3162  3.0433
  466MOL0     H64279   6.134   2.238   4.762  0.5739 -1.3700  0.0801
  466MOL0     H64280   5.945   2.154   4.876  0.9626 -0.9175  2.0142
  466MOL0     H64281   5.906   2.042   4.741  0.4907  1.5225 -0.8488
  466MOL0     H64282   6.140   2.025   4.941  0.8714  0.1460 -0.0149
  466MOL0     H64283   6.134   1.930   4.794 -2.0525 -1.1610 -0.0384
  466MOL0     H64284   5.903   1.848   4.880 -0.8809  2.8543  0.0328
  466MOL0     H64285   5.965   1.901   5.036 -1.5308  2.3014 -1.0753
  466MOL0     H64286   6.006   1.668   5.024  0.1791 -1.0570 -0.9019
  466MOL0     H64287   6.159   1.754   5.007 -0.2011 -2.0292 -0.5637
  466MOL0     H64288   6.098   1.843   4.166 -0.0483  1.0633  0.1122
  466MOL0     H64289   6.177   1.761   3.968  1.4159 -1.1623  1.5872
  466MOL0     H64290   6.249   1.535   3.655 -0.9946  1.5824 -1.0478
  466MOL0     H64291   6.325   1.415   3.486  1.8320 -1.4469 -3.2746
  466MOL0     H64292   6.199   0.358   2.188 -1.9571 -2.6855  0.9314
  466MOL0     H64293   6.046   0.164   2.127  0.6684 -1.0595 -1.2616
  466MOL0     H64294   5.936  -0.156   2.076  0.3155 -1.3271 -0.2404
  466MOL0     H64295   5.792  -0.350   2.112 -1.3433 -1.1681  0.3341
  466MOL0     H64296   5.668  -0.551   2.101 -1.3199 -2.1737 -0.4800
  466MOL0     H64297   5.589  -0.408   2.182 -2.0784  0.2621 -0.1967
  466MOL0     H64298   5.481  -0.646   2.047  1.2525 -0.4019  0.8462
  466MOL0     H64299   5.380  -0.496   2.078 -0.0081 -0.2493  0.1967
  466MOL0     H64300   5.513  -0.568   2.313  1.9009  2.1290 -3.7078
  466MOL0     H64301   5.347  -0.552   2.302  0.6041 -0.2921  2.2558
  466MOL0     H64302   5.516  -0.801   2.217 -0.2375  2.1961 -1.6064
  466MOL0     H64303   5.344  -0.804   2.240 -0.3033  0.0340  1.5946
  466MOL0     H64304   5.435  -0.876   2.636  0.2557 -0.1082 -0.7325
  466MOL0     H64305   5.560  -0.252   1.779  0.1177  1.1895 -0.3767
  466MOL0     H64306   5.648  -0.146   1.612 -1.2945  2.0797 -0.2941
  466MOL0     H64307   5.666   0.014   1.663  2.1639  1.5228 -1.1006
  466MOL0     H64308   5.809  -0.068   1.607  0.7746 -2.1030  0.0550
  467MOL0     O64309   4.673  10.904   0.149 -0.5190 -0.4320  0.1684
  467MOL0     C64310   4.719  10.838   0.055 -0.2700 -0.1083 -0.1936
  467MOL0     O64311   4.850  10.811   0.029 -0.3968 -0.2634 -0.2418
  467MOL0     C64312   4.944  10.863   0.116  0.3286 -0.8031 -0.1474
  467MOL0     C64313   5.006  10.778   0.211 -0.0195 -0.3648  0.0481
  467MOL0     C64314   5.128  10.815   0.267 -0.1283  0.3722 -0.3607
  467MOL0     C64315   5.195  10.929   0.238 -1.2978  0.0486  0.8433
  467MOL0     O64316   5.325  10.954   0.284  0.2670 -0.4450 -0.2895
  467MOL0     C64317   5.404  10.838   0.276 -0.8142  0.3530 -0.0917
  467MOL0     C64318   5.561  10.860   0.260  0.4273  0.1839  0.0053
  467MOL0     C64319   5.637  10.726   0.299 -0.3056 -0.9084 -0.2185
  467MOL0     C64320   5.782  10.740   0.342  0.8767 -0.3300 -0.1472
  467MOL0     C64321   5.861  10.607   0.342 -0.2691 -0.4459  0.4133
  467MOL0     C64322   6.016  10.611   0.384  0.9228 -0.4569  0.1140
  467MOL0     C64323   6.012  10.649   0.536 -0.1540  0.1002  0.0159
  467MOL0     C64324   6.154  10.649   0.593  0.2727 -0.0542 -1.0146
  467MOL0     N64325   6.169  10.647   0.744  0.6266 -0.1268  0.3118
  467MOL0     C64326   6.073  10.616   0.837 -0.3570 -0.2312  0.2063
  467MOL0     C64327   6.139  10.597   0.951  0.0793 -0.0438 -0.0500
  467MOL0     C64328   6.088  10.578   1.091 -0.3536 -0.3809  0.9952
  467MOL0     C64329   6.171  10.629   1.206 -0.6230  0.2791  0.3600
  467MOL0     C64330   6.088  10.592   1.326  0.3178  0.1475 -0.8215
  467MOL0     C64331   6.150  10.607   1.456 -0.7432  0.6225 -0.7651
  467MOL0     O64332   6.270  10.537   1.461  0.0660  0.1444  0.2274
  467MOL0     C64333   6.329  10.518   1.578 -0.0921  0.3790 -0.1288
  467MOL0     C64334   6.428  10.417   1.585  0.5399 -0.9319  0.0364
  467MOL0     C64335   6.490  10.386   1.706 -0.7939  0.3089  0.3162
  467MOL0     C64336   6.590  10.264   1.703 -0.2362 -0.1956  0.0004
  467MOL0     C64337   6.458  10.449   1.823  0.0716 -0.4154  0.2312
  467MOL0     C64338   6.508  10.419   1.950 -1.1085 -0.1407 -0.2050
  467MOL0     O64339   6.644  10.378   1.961 -0.6575  0.3435  0.3562
  467MOL0     C64340   6.699  10.369   2.086  1.0021 -0.2223 -0.4188
  467MOL0     C64341   6.801  10.448   2.136 -0.0279  0.3788  0.3544
  467MOL0     C64342   6.854  10.418   2.266  0.3459 -0.0495  0.0022
  467MOL0     C64343   6.801  10.313   2.354 -0.1637 -0.1882  0.8464
  467MOL0     O64344   6.857  10.280   2.472 -0.5832  0.6740 -0.0356
  467MOL0     C64345   6.986  10.340   2.506 -0.8038 -0.5692  0.5193
  467MOL0     C64346   7.026  10.284   2.641 -0.6341 -0.4042 -0.0367
  467MOL0     C64347   7.175  10.274   2.669  0.0527 -0.5494 -0.2496
  467MOL0     C64348   7.206  10.175   2.789  0.8538  0.5899  1.0606
  467MOL0     C64349   7.212  10.257   2.910 -0.7044 -0.0719  0.3132
  467MOL0     C64350   7.267  10.175   3.037  0.4550 -0.3065 -0.6688
  467MOL0     C64351   7.183  10.054   3.061  0.2337 -0.4716 -0.1246
  467MOL0     C64352   7.240   9.969   3.181  0.1434  0.6044  0.0719
  467MOL0    Cl64353   7.370   9.862   3.121  0.5737 -0.0485 -0.3072
  467MOL0     C64354   6.704  10.236   2.306 -0.4179 -0.0190 -0.8303
  467MOL0     C64355   6.652  10.271   2.177 -0.5649  0.4677  0.3380
  467MOL0     O64356   6.443  10.461   2.043  0.3161  0.0957 -1.0599
  467MOL0     C64357   6.365  10.554   1.817 -0.8007  0.9311 -0.6221
  467MOL0     C64358   6.297  10.585   1.694  0.0249  0.1868 -0.6635
  467MOL0     N64359   6.274  10.597   0.927 -0.0146 -1.3046  0.1760
  467MOL0     N64360   6.290  10.627   0.807  0.1016  0.8877  0.5168
  467MOL0     C64361   5.132  11.017   0.144 -0.4051  0.6315 -0.3551
  467MOL0     C64362   5.012  10.982   0.088  0.2631  0.2230  0.0917
  467MOL0     C64363   4.632  10.820  -0.065  0.6613  0.1498  0.0501
  467MOL0     C64364   4.680  10.839  -0.201  0.0350 -0.3730 -0.7159
  467MOL0     C64365   4.598  10.822  -0.311 -0.5296 -0.2789 -0.9007
  467MOL0     C64366   4.476  10.766  -0.302 -0.1141 -0.1571 -0.8554
  467MOL0     O64367   4.391  10.749  -0.406 -0.3680  0.2150 -0.1727
  467MOL0     C64368   4.435  10.779  -0.541 -0.3182 -0.4112 -0.3716
  467MOL0     C64369   4.325  10.740  -0.656  0.7547  0.5530 -0.3044
  467MOL0     C64370   4.264  10.601  -0.624 -0.3943  0.0212  0.6600
  467MOL0     C64371   4.114  10.583  -0.670 -0.2073  0.6225 -0.7638
  467MOL0     C64372   4.061  10.445  -0.635 -0.1325 -0.3935 -0.2921
  467MOL0     C64373   4.029  10.341  -0.590 -0.2398  0.5260  0.0044
  467MOL0     C64374   4.427  10.750  -0.173 -1.1100  0.1756  0.1299
  467MOL0     C64375   4.501  10.776  -0.062  0.5229 -0.1411 -0.0879
  467MOL0     C64376   4.411  10.760   0.073  0.5695 -0.0654  0.4840
  467MOL0     H64377   4.964  10.680   0.230 -1.3009  0.1367 -0.1075
  467MOL0     H64378   5.174  10.741   0.332  1.1185 -0.1241 -1.7633
  467MOL0     H64379   5.369  10.781   0.189 -0.9250  0.0150  0.1764
  467MOL0     H64380   5.384  10.775   0.363  0.1342 -0.5749 -0.5220
  467MOL0     H64381   5.578  10.898   0.159 -2.0398  0.0071 -0.5370
  467MOL0     H64382   5.598  10.938   0.327 -0.9673  0.2992  0.6737
  467MOL0     H64383   5.583  10.672   0.377  3.3921 -3.5418  0.8093
  467MOL0     H64384   5.630  10.662   0.210 -1.1344  1.8477 -2.2675
  467MOL0     H64385   5.826  10.807   0.268  0.9899  1.9524  1.8725
  467MOL0     H64386   5.789  10.783   0.443  2.1168 -1.4882  0.2905
  467MOL0     H64387   5.866  10.553   0.247  1.1654 -1.5579  1.0868
  467MOL0     H64388   5.798  10.537   0.398 -2.8583  1.3324 -0.0955
  467MOL0     H64389   6.072  10.518   0.369  0.6835 -0.5993  0.0752
  467MOL0     H64390   6.066  10.694   0.335 -2.6757  1.5770 -0.4779
  467MOL0     H64391   5.952  10.576   0.591  0.5570 -1.0883 -0.7284
  467MOL0     H64392   5.968  10.746   0.557  0.7344  0.0229  2.6329
  467MOL0     H64393   6.217  10.571   0.548  1.2650  0.7552 -1.0688
  467MOL0     H64394   6.192  10.746   0.562 -0.7689  0.3222 -1.1341
  467MOL0     H64395   5.966  10.628   0.834 -0.6260 -2.3328 -2.1691
  467MOL0     H64396   6.066  10.472   1.103 -1.9358  0.0570  2.2783
  467MOL0     H64397   5.990  10.627   1.089  1.0483  2.7434  1.6459
  467MOL0     H64398   6.262  10.568   1.203 -0.6533  0.1712  1.1645
  467MOL0     H64399   6.190  10.735   1.190  0.2770 -0.2693 -2.9603
  467MOL0     H64400   5.992  10.644   1.333 -0.4698 -1.3500  0.3328
  467MOL0     H64401   6.066  10.485   1.331  1.1932  0.0149  1.8316
  467MOL0     H64402   6.177  10.712   1.459 -2.0253  0.9820 -1.0898
  467MOL0     H64403   6.081  10.578   1.537  1.3614  0.9869  1.2646
  467MOL0     H64404   6.462  10.374   1.491  3.4286 -1.5723  1.2716
  467MOL0     H64405   6.561  10.193   1.781 -1.5642 -1.0471 -1.2216
  467MOL0     H64406   6.692  10.299   1.721 -0.0729 -0.3652 -0.5823
  467MOL0     H64407   6.583  10.218   1.604  0.5593 -0.1352 -0.0920
  467MOL0     H64408   6.824  10.538   2.080  0.8939  0.1795  0.4070
  467MOL0     H64409   6.919  10.496   2.304  1.7140 -1.1297 -0.0760
  467MOL0     H64410   7.060  10.319   2.428 -1.0593 -0.7011  0.3097
  467MOL0     H64411   6.985  10.449   2.511  0.1934 -0.4635 -1.2024
  467MOL0     H64412   6.970  10.337   2.719 -1.9107  1.7241 -2.2802
  467MOL0     H64413   7.005  10.177   2.627 -2.2671 -0.1388  0.1764
  467MOL0     H64414   7.200  10.378   2.692 -4.2889  0.9831 -1.5138
  467MOL0     H64415   7.237  10.263   2.579 -0.5917  1.0157 -0.9237
  467MOL0     H64416   7.302  10.129   2.764  1.8998  1.7242  2.6869
  467MOL0     H64417   7.133  10.094   2.793 -0.7015  1.6601 -2.1378
  467MOL0     H64418   7.292  10.330   2.896  0.2260 -0.9603  0.8848
  467MOL0     H64419   7.118  10.306   2.939  0.0792 -0.1239  3.3646
  467MOL0     H64420   7.248  10.232   3.128 -1.8755 -0.6950 -0.8397
  467MOL0     H64421   7.374  10.154   3.036  0.9502  1.5403  2.0825
  467MOL0     H64422   7.175   9.992   2.971 -1.2674 -0.6371  0.0968
  467MOL0     H64423   7.084  10.082   3.098 -0.2311 -1.0023 -0.9387
  467MOL0     H64424   7.156   9.907   3.212 -2.3149  3.0531 -1.2508
  467MOL0     H64425   7.284  10.030   3.261 -1.4177  2.7056 -0.5703
  467MOL0     H64426   6.651  10.156   2.357 -2.8210  0.7692 -1.8884
  467MOL0     H64427   6.582  10.200   2.132 -1.0195  1.2523 -0.2122
  467MOL0     H64428   6.348  10.624   1.898 -3.7174 -0.8869  0.5080
  467MOL0     H64429   6.227  10.668   1.691 -1.4755 -0.8683  1.7493
  467MOL0     H64430   5.195  11.102   0.121  0.2793 -0.1105 -1.2947
  467MOL0     H64431   4.967  11.044   0.011 -0.8999 -2.4416 -1.5024
  467MOL0     H64432   4.785  10.863  -0.214  0.1094 -1.3342 -2.1998
  467MOL0     H64433   4.649  10.826  -0.407  1.9629 -0.2485  0.3369
  467MOL0     H64434   4.471  10.882  -0.548  2.0580 -1.2669 -1.9519
  467MOL0     H64435   4.526  10.720  -0.557 -0.1242 -0.1085 -0.3930
  467MOL0     H64436   4.369  10.745  -0.756 -2.2386 -0.3872 -1.7566
  467MOL0     H64437   4.235  10.802  -0.649  1.9354  2.2882  0.3767
  467MOL0     H64438   4.327  10.524  -0.669 -1.6452  0.3555 -1.8047
  467MOL0     H64439   4.247  10.586  -0.516 -3.8116 -2.3262 -0.0412
  467MOL0     H64440   4.112  10.592  -0.779  0.6976  0.1728 -0.8300
  467MOL0     H64441   4.057  10.655  -0.611  2.8363  1.3148  1.5779
  467MOL0     H64442   4.004  10.248  -0.542  0.1517  0.0320 -0.7284
  467MOL0     H64443   4.328  10.707  -0.156 -0.5690 -1.4308 -0.5156
  467MOL0     H64444   4.477  10.755   0.160  0.8551  2.2269  0.4574
  467MOL0     H64445   4.343  10.844   0.088 -1.9458 -1.9079  0.0943
  467MOL0     H64446   4.349  10.670   0.072  0.8116 -0.2516 -0.9681
  468MOL0     O64447   7.599   6.764   6.492 -0.0122 -0.0756  0.7006
  468MOL0     C64448   7.481   6.785   6.481 -0.3378 -0.1646  0.4749
  468MOL0     O64449   7.391   6.806   6.587 -0.0855 -0.9638 -0.2361
  468MOL0     C64450   7.449   6.814   6.715 -0.6291 -0.4246 -0.5729
  468MOL0     C64451   7.410   6.715   6.809  0.4939 -0.2382  0.3364
  468MOL0     C64452   7.460   6.719   6.943 -0.0620  0.0434 -0.7899
  468MOL0     C64453   7.550   6.823   6.978  0.8250 -0.6160 -0.1725
  468MOL0     O64454   7.606   6.832   7.105  0.3828 -0.4245 -0.0981
  468MOL0     C64455   7.565   6.736   7.206 -0.2450 -0.4855 -0.3572
  468MOL0     C64456   7.630   6.761   7.333 -0.5932 -0.5283  0.0150
  468MOL0     C64457   7.781   6.799   7.328 -0.5970 -0.1955  0.4517
  468MOL0     C64458   7.864   6.667   7.342 -0.3703 -0.2666  0.7638
  468MOL0     C64459   8.014   6.681   7.336 -0.0442 -0.2263 -1.0539
  468MOL0     C64460   8.093   6.552   7.326 -0.8104 -0.6345  0.4420
  468MOL0     C64461   8.244   6.571   7.325  1.0156  0.2220 -0.5079
  468MOL0     C64462   8.304   6.615   7.463  0.4837  0.0609 -0.1392
  468MOL0     N64463   8.450   6.623   7.462  0.4551 -0.0642  0.1744
  468MOL0     C64464   8.519   6.704   7.381 -0.8808  0.4381 -0.3965
  468MOL0     C64465   8.651   6.675   7.418  0.8305  0.9520  0.6757
  468MOL0     C64466   8.760   6.752   7.356  0.6460  0.3236  0.0168
  468MOL0     C64467   8.800   6.679   7.225  1.3527  1.3679 -0.8009
  468MOL0     C64468   8.898   6.769   7.147  0.3150 -0.9218 -0.2872
  468MOL0     C64469   8.974   6.693   7.034 -0.3527  0.1424  0.4443
  468MOL0     O64470   9.061   6.783   6.954 -0.2439  0.3065  0.2601
  468MOL0     C64471   9.178   6.724   6.903 -0.0526 -0.2804  0.9026
  468MOL0     C64472   9.209   6.588   6.919  0.4607 -0.8468 -1.1778
  468MOL0     C64473   9.337   6.535   6.883 -0.5927 -0.4117  0.7083
  468MOL0     C64474   9.362   6.378   6.890 -0.5708  1.5319 -0.2207
  468MOL0     C64475   9.438   6.615   6.823  0.3420  0.4133  0.7890
  468MOL0     C64476   9.572   6.577   6.814 -0.4859 -0.5021  0.2674
  468MOL0     O64477   9.631   6.615   6.698  0.3304  0.2952  0.0357
  468MOL0     C64478   9.765   6.591   6.696  0.5136  0.2863  0.7658
  468MOL0     C64479   9.823   6.475   6.645 -0.0004 -0.4949  0.0191
  468MOL0     C64480   9.961   6.463   6.639  0.2335 -0.4852  0.4643
  468MOL0     C64481  10.044   6.562   6.688  0.5958  1.2323  0.3589
  468MOL0     O64482  10.176   6.551   6.678 -0.8242 -0.4298 -0.1388
  468MOL0     C64483  10.226   6.438   6.756  0.1091 -0.0992 -0.6515
  468MOL0     C64484  10.307   6.345   6.664 -0.3532 -0.2644  0.4768
  468MOL0     C64485  10.393   6.254   6.749  0.2779  0.0853  0.0561
  468MOL0     C64486  10.460   6.155   6.659  0.2935  0.3501  1.0032
  468MOL0     C64487  10.486   6.006   6.710  0.3442 -0.3710 -0.5930
  468MOL0     C64488  10.369   5.907   6.719  0.4109 -0.7886 -0.2866
  468MOL0     C64489  10.295   5.891   6.581 -0.4209 -0.1161  0.4593
  468MOL0     C64490  10.215   5.759   6.570 -0.6453  1.2227  0.8423
  468MOL0    Cl64491  10.083   5.773   6.447 -0.0925 -0.0269  0.7076
  468MOL0     C64492   9.989   6.679   6.724  0.3953  0.8086 -0.1610
  468MOL0     C64493   9.846   6.690   6.730 -0.2715 -0.1932 -0.2791
  468MOL0     O64494   9.635   6.525   6.911  0.8213  0.2947 -0.4796
  468MOL0     C64495   9.400   6.744   6.791  0.3748 -0.8997 -0.7370
  468MOL0     C64496   9.276   6.802   6.834  0.5382  0.0684  0.4466
  468MOL0     N64497   8.645   6.570   7.509  0.3370  0.1377 -0.6853
  468MOL0     N64498   8.525   6.531   7.527  0.6989  1.0215 -0.1201
  468MOL0     C64499   7.587   6.921   6.882  0.1576  0.8503 -0.5032
  468MOL0     C64500   7.536   6.920   6.754  1.5400  0.2315  0.0628
  468MOL0     C64501   7.423   6.808   6.345 -0.2731  0.1233  0.6372
  468MOL0     C64502   7.283   6.792   6.319  0.0834 -0.1326 -0.0362
  468MOL0     C64503   7.227   6.823   6.194  0.3341 -0.3307  0.1630
  468MOL0     C64504   7.309   6.843   6.086  0.7671 -0.8937  0.4366
  468MOL0     O64505   7.252   6.829   5.961  1.1142 -0.1122  0.1067
  468MOL0     C64506   7.321   6.816   5.837 -1.4055 -0.2279 -0.4988
  468MOL0     C64507   7.359   6.667   5.830  0.6010 -0.0563 -0.5817
  468MOL0     C64508   7.232   6.596   5.781  0.3224  0.6588  0.4899
  468MOL0     C64509   7.224   6.604   5.626  0.6057  0.8629 -1.3560
  468MOL0     C64510   7.143   6.491   5.575  1.0309  0.1850 -0.3461
  468MOL0     C64511   7.065   6.390   5.564 -0.8665 -0.3639  0.3632
  468MOL0     C64512   7.449   6.865   6.099  0.7354  0.5534  0.3998
  468MOL0     C64513   7.502   6.849   6.234 -0.4939  0.2491 -0.7190
  468MOL0     C64514   7.646   6.885   6.245 -0.0404 -0.9394  0.6581
  468MOL0     H64515   7.337   6.643   6.774  1.6414 -1.4010  0.2577
  468MOL0     H64516   7.429   6.641   7.011 -1.1134  2.0155  1.1172
  468MOL0     H64517   7.596   6.634   7.184  2.8025 -1.0261  4.7652
  468MOL0     H64518   7.459   6.747   7.231 -0.1045  0.9886 -0.2900
  468MOL0     H64519   7.573   6.843   7.377 -2.7558 -0.4873 -2.6204
  468MOL0     H64520   7.613   6.670   7.391  0.0102  0.3940  1.7201
  468MOL0     H64521   7.805   6.854   7.237 -0.3134 -2.1415 -0.7206
  468MOL0     H64522   7.808   6.860   7.415  0.1884  1.0867 -0.6497
  468MOL0     H64523   7.838   6.613   7.433 -1.1455 -1.7258 -0.2841
  468MOL0     H64524   7.834   6.599   7.262  3.3708 -1.2328  0.0367
  468MOL0     H64525   8.058   6.731   7.424  0.5336 -3.6061  0.7266
  468MOL0     H64526   8.033   6.736   7.243  0.8908 -2.8013 -2.4802
  468MOL0     H64527   8.066   6.483   7.407 -0.8409  0.2001  1.1653
  468MOL0     H64528   8.070   6.507   7.229 -1.1691  0.9811 -0.2495
  468MOL0     H64529   8.285   6.640   7.249  1.1350  1.2866  0.4942
  468MOL0     H64530   8.276   6.469   7.303 -0.1653 -0.0169 -1.1893
  468MOL0     H64531   8.264   6.714   7.488 -0.6606 -0.3221 -0.4217
  468MOL0     H64532   8.259   6.550   7.539 -1.1136  0.7345 -0.4788
  468MOL0     H64533   8.477   6.775   7.311 -3.2950  2.3334  2.6662
  468MOL0     H64534   8.837   6.767   7.432 -0.9919  0.5539  1.7208
  468MOL0     H64535   8.719   6.849   7.326  0.7892 -0.7852 -4.3290
  468MOL0     H64536   8.841   6.581   7.251  2.2997  1.2555 -2.6072
  468MOL0     H64537   8.714   6.659   7.160  0.6233 -4.7188  1.4013
  468MOL0     H64538   8.850   6.858   7.106  0.5205  0.0772  1.5265
  468MOL0     H64539   8.984   6.797   7.208  0.3306 -3.4025  0.9516
  468MOL0     H64540   9.030   6.616   7.089 -1.1126  0.0957  1.1705
  468MOL0     H64541   8.908   6.642   6.964  3.0995 -4.2882 -0.0631
  468MOL0     H64542   9.131   6.519   6.950 -1.1102  1.6768  0.9475
  468MOL0     H64543   9.455   6.354   6.943  0.4571 -0.9096 -2.8787
  468MOL0     H64544   9.380   6.343   6.788 -2.7534  0.1116 -0.1739
  468MOL0     H64545   9.283   6.331   6.948 -0.7136  2.1645  0.1098
  468MOL0     H64546   9.759   6.397   6.606 -2.1459  1.5138 -0.7390
  468MOL0     H64547   9.996   6.370   6.596 -0.1028 -0.3351 -0.1583
  468MOL0     H64548  10.283   6.468   6.844  0.3226 -0.4024 -0.6844
  468MOL0     H64549  10.146   6.383   6.806  0.6780  1.5369  2.2707
  468MOL0     H64550  10.238   6.289   6.601  1.0320 -0.8458 -0.5945
  468MOL0     H64551  10.384   6.393   6.603  0.1978 -0.7643  0.7550
  468MOL0     H64552  10.321   6.209   6.817  1.8925 -1.5759  0.7386
  468MOL0     H64553  10.470   6.306   6.808 -1.5873  0.2902  2.4616
  468MOL0     H64554  10.559   6.193   6.633 -0.5411  1.8091 -0.2584
  468MOL0     H64555  10.404   6.150   6.565  4.9559  2.6793 -2.2920
  468MOL0     H64556  10.560   5.962   6.643  1.1319 -1.5898  1.0328
  468MOL0     H64557  10.528   6.007   6.811 -0.0953  3.2656 -0.3068
  468MOL0     H64558  10.306   5.964   6.788  2.2421  0.7246  0.2304
  468MOL0     H64559  10.397   5.810   6.761  1.8235 -0.5064 -0.4929
  468MOL0     H64560  10.374   5.876   6.506  0.2797 -0.9613  1.3433
  468MOL0     H64561  10.236   5.978   6.553 -1.2467 -0.1498  2.0100
  468MOL0     H64562  10.167   5.744   6.667 -0.3652  1.8610  1.0858
  468MOL0     H64563  10.273   5.673   6.536 -2.4493  1.4405 -3.3877
  468MOL0     H64564  10.055   6.759   6.757 -0.3330  1.8070 -1.0489
  468MOL0     H64565   9.800   6.783   6.761  1.9134  0.7282  0.3515
  468MOL0     H64566   9.475   6.809   6.747  0.3603  1.2427  2.1018
  468MOL0     H64567   9.261   6.908   6.817 -1.1835 -0.2133  0.0491
  468MOL0     H64568   7.669   6.981   6.919  0.9100 -0.7161  0.4562
  468MOL0     H64569   7.570   6.992   6.680  0.6650  0.6953  0.1013
  468MOL0     H64570   7.221   6.776   6.406  3.9402  0.5399  3.1426
  468MOL0     H64571   7.119   6.818   6.182 -0.0324  2.7965  1.1559
  468MOL0     H64572   7.263   6.855   5.753 -0.1925 -0.3384 -1.3943
  468MOL0     H64573   7.412   6.875   5.843 -1.7161  0.1148  1.9141
  468MOL0     H64574   7.389   6.630   5.929  0.4859  1.8374  0.1978
  468MOL0     H64575   7.446   6.658   5.764  2.0747 -0.2871  1.2795
  468MOL0     H64576   7.247   6.491   5.807  3.3815  0.6143 -1.0159
  468MOL0     H64577   7.136   6.635   5.818 -0.1508 -0.6277  0.6593
  468MOL0     H64578   7.328   6.586   5.597  0.6344 -1.1643 -0.1229
  468MOL0     H64579   7.196   6.707   5.602  0.4308  1.6370  1.7738
  468MOL0     H64580   7.013   6.298   5.550 -0.6606 -0.3741 -0.3832
  468MOL0     H64581   7.511   6.893   6.014 -0.9418  3.6776  0.0787
  468MOL0     H64582   7.671   6.976   6.300  0.0810  0.3110 -1.3499
  468MOL0     H64583   7.708   6.804   6.286  2.2690  1.0163  1.3006
  468MOL0     H64584   7.693   6.904   6.148 -0.9769  0.3465  0.4348
  469MOL0     O64585  10.884   0.475   8.642  0.3149 -0.3348  0.8055
  469MOL0     C64586  10.808   0.522   8.730  0.1562  0.4853 -0.9307
  469MOL0     O64587  10.820   0.638   8.790  0.2687  0.4904  0.5946
  469MOL0     C64588  10.896   0.745   8.759 -0.0802  0.3730  0.0074
  469MOL0     C64589  10.871   0.860   8.828 -0.3680 -0.4319  0.2265
  469MOL0     C64590  10.967   0.967   8.809 -0.2046  0.3592  0.4732
  469MOL0     C64591  11.064   0.966   8.707  0.0089 -1.3564 -0.3963
  469MOL0     O64592  11.144   1.072   8.676 -0.2752 -0.1045 -0.7313
  469MOL0     C64593  11.187   1.165   8.776 -0.5561 -0.2084 -0.4144
  469MOL0     C64594  11.260   1.278   8.704 -0.6861 -0.4659  0.5532
  469MOL0     C64595  11.159   1.391   8.660  0.1771 -0.2502 -0.3395
  469MOL0     C64596  11.230   1.486   8.564 -0.4439  0.0021  0.9569
  469MOL0     C64597  11.353   1.570   8.622 -0.1236 -0.1338  0.0119
  469MOL0     C64598  11.451   1.617   8.519  0.7943 -0.6920 -0.1374
  469MOL0     C64599  11.531   1.494   8.471 -1.3400  0.4838 -0.4676
  469MOL0     C64600  11.669   1.519   8.398  0.2595 -0.0187  0.4182
  469MOL0     N64601  11.772   1.551   8.502 -0.6853 -0.7620 -0.1253
  469MOL0     C64602  11.777   1.671   8.572 -0.6515 -0.3854  0.5310
  469MOL0     C64603  11.854   1.656   8.676  0.0038  0.8609 -0.3102
  469MOL0     C64604  11.881   1.741   8.792 -0.0793 -0.4864 -0.0762
  469MOL0     C64605  11.858   1.661   8.930  0.5680  0.1833  0.3708
  469MOL0     C64606  11.903   1.741   9.054  0.4876 -0.0233 -0.1885
  469MOL0     C64607  12.056   1.734   9.066 -0.5559  0.1179 -1.1705
  469MOL0     O64608  12.081   1.843   9.162  0.8238  0.4029  0.3996
  469MOL0     C64609  12.204   1.858   9.221 -0.4646  0.2345  0.5531
  469MOL0     C64610  12.235   1.979   9.279 -1.0052 -0.5197 -0.0379
  469MOL0     C64611  12.347   1.998   9.365 -0.2139 -0.8820  0.4618
  469MOL0     C64612  12.348   2.125   9.449 -0.0315 -0.1054 -0.5176
  469MOL0     C64613  12.442   1.894   9.382  0.6570 -0.3519  0.5312
  469MOL0     C64614  12.561   1.895   9.469 -0.8775  0.3128  0.1521
  469MOL0     O64615  12.542   1.948   9.599  0.2229  0.1046 -0.2091
  469MOL0     C64616  12.665   1.981   9.665  0.3387  0.1425 -0.4195
  469MOL0     C64617  12.726   2.092   9.616 -0.3448  0.0208 -0.3797
  469MOL0     C64618  12.833   2.138   9.694 -0.5011  0.3774  0.2582
  469MOL0     C64619  12.885   2.061   9.801  0.2323 -0.2431 -0.4934
  469MOL0     O64620  12.995   2.087   9.887  0.4865 -0.2293 -0.1058
  469MOL0     C64621  12.997   2.230   9.929  0.2209 -0.8245 -0.7173
  469MOL0     C64622  13.057   2.253  10.071 -0.5387  0.9826 -0.2371
  469MOL0     C64623  12.984   2.177  10.189  0.3067  0.4882  0.1814
  469MOL0     C64624  13.052   2.196  10.328 -0.1204 -0.5165  1.3493
  469MOL0     C64625  13.005   2.096  10.432 -0.2849  0.5138  0.2532
  469MOL0     C64626  12.853   2.071  10.431  0.7396  0.4770  0.1794
  469MOL0     C64627  12.813   1.994  10.560  0.1116  0.0258  0.1152
  469MOL0     C64628  12.694   1.910  10.522  0.7686  0.4724 -0.5831
  469MOL0    Cl64629  12.660   1.813  10.674 -1.1455  0.2385  0.1050
  469MOL0     C64630  12.824   1.939   9.834  0.4731 -0.0040 -0.0899
  469MOL0     C64631  12.705   1.906   9.774  0.4748  0.6496 -0.3361
  469MOL0     O64632  12.669   1.869   9.413  0.1713 -0.2486  0.4042
  469MOL0     C64633  12.417   1.780   9.309 -0.0659 -0.0070 -0.9587
  469MOL0     C64634  12.302   1.756   9.237  1.2998 -0.8977  0.3892
  469MOL0     N64635  11.908   1.523   8.674 -0.5420 -0.3380 -0.3269
  469MOL0     N64636  11.858   1.464   8.570  0.4048  0.1469 -0.1011
  469MOL0     C64637  11.072   0.857   8.628 -0.2014  0.0230  0.5971
  469MOL0     C64638  10.994   0.743   8.657  0.0628 -0.1657  0.7790
  469MOL0     C64639  10.688   0.450   8.771  0.4447  0.2124 -0.1622
  469MOL0     C64640  10.585   0.516   8.839  0.3797 -0.0465 -0.1931
  469MOL0     C64641  10.475   0.453   8.876  0.2760 -0.1817 -0.0479
  469MOL0     C64642  10.452   0.318   8.857 -0.8523  0.8292 -0.6652
  469MOL0     O64643  10.343   0.247   8.903  0.3148 -0.1382  0.1996
  469MOL0     C64644  10.358   0.192   9.039  0.3124 -0.1583  0.0856
  469MOL0     C64645  10.244   0.092   9.057  0.3469  0.5709  0.3928
  469MOL0     C64646  10.245   0.028   9.199 -0.1225  1.1202  0.5957
  469MOL0     C64647  10.124  -0.058   9.224  0.5456 -0.7082  0.4531
  469MOL0     C64648  10.125  -0.196   9.170  0.3377 -0.0160 -0.1508
  469MOL0     C64649  10.111  -0.311   9.128 -0.2656  0.7565  0.4490
  469MOL0     C64650  10.552   0.248   8.793  0.3606  0.1863  0.2737
  469MOL0     C64651  10.666   0.307   8.744 -0.4257 -1.4046 -0.4028
  469MOL0     C64652  10.766   0.219   8.674 -0.6781  0.8529  0.0174
  469MOL0     H64653  10.786   0.861   8.896 -2.2358  0.3036 -1.9970
  469MOL0     H64654  10.938   1.060   8.858 -0.1419 -0.2914  1.7875
  469MOL0     H64655  11.246   1.111   8.851 -0.8051 -0.5594 -0.4658
  469MOL0     H64656  11.102   1.212   8.826 -2.0168 -0.4663 -2.5029
  469MOL0     H64657  11.337   1.322   8.768 -1.2179  1.2692  0.0730
  469MOL0     H64658  11.316   1.238   8.620  0.3831 -0.9560  1.4708
  469MOL0     H64659  11.078   1.347   8.602 -0.1947  0.3745 -0.2975
  469MOL0     H64660  11.127   1.449   8.747  0.1202  2.8813 -2.2881
  469MOL0     H64661  11.265   1.422   8.482  0.7019  2.2469 -0.4217
  469MOL0     H64662  11.159   1.564   8.535 -1.7765 -0.8018  1.9496
  469MOL0     H64663  11.403   1.513   8.702 -0.1469  0.7174  0.6524
  469MOL0     H64664  11.303   1.652   8.674 -1.2848  0.1787 -1.5372
  469MOL0     H64665  11.396   1.671   8.441 -3.8058  1.1272  3.8835
  469MOL0     H64666  11.518   1.684   8.574 -1.7676 -1.9219  5.0430
  469MOL0     H64667  11.467   1.434   8.404  0.4946  1.3627 -3.1627
  469MOL0     H64668  11.555   1.433   8.558  3.9940  1.9210 -0.6086
  469MOL0     H64669  11.707   1.433   8.343 -0.0131 -0.2177  0.5385
  469MOL0     H64670  11.672   1.606   8.332 -0.7900 -0.0664  0.2787
  469MOL0     H64671  11.718   1.760   8.554 -1.0895 -0.4288  1.6950
  469MOL0     H64672  11.810   1.824   8.792 -2.2721 -2.2518  0.9135
  469MOL0     H64673  11.987   1.770   8.786 -0.1430 -0.1206  0.4779
  469MOL0     H64674  11.761   1.612   8.938  2.2558 -3.2206  2.4883
  469MOL0     H64675  11.923   1.573   8.926  2.8109  1.7339  0.8180
  469MOL0     H64676  11.865   1.843   9.040  1.1085  0.2377  0.0076
  469MOL0     H64677  11.852   1.693   9.138 -0.4579  1.7725  0.3180
  469MOL0     H64678  12.088   1.641   9.113  0.5472 -1.6917 -5.0421
  469MOL0     H64679  12.109   1.751   8.971  2.5620 -0.7266  0.2689
  469MOL0     H64680  12.154   2.051   9.272 -2.0287 -1.7833 -2.4288
  469MOL0     H64681  12.449   2.150   9.483  0.4009 -2.3718  0.0264
  469MOL0     H64682  12.277   2.122   9.533  1.4419  1.4485  0.8445
  469MOL0     H64683  12.308   2.205   9.385  0.4506  1.5578  1.1702
  469MOL0     H64684  12.688   2.139   9.526  3.9445  1.9972 -1.3983
  469MOL0     H64685  12.883   2.222   9.646 -3.1347  1.6485 -0.4577
  469MOL0     H64686  13.068   2.277   9.860 -0.1387 -0.8366 -1.1032
  469MOL0     H64687  12.901   2.282   9.924  1.3415  1.2840 -1.2658
  469MOL0     H64688  13.165   2.234  10.073 -0.9280 -1.6904  2.2213
  469MOL0     H64689  13.042   2.358  10.099 -1.4766  0.5997  0.7788
  469MOL0     H64690  12.990   2.070  10.168  2.3057  1.2266 -4.2692
  469MOL0     H64691  12.880   2.210  10.192 -0.0331 -0.4754 -0.6640
  469MOL0     H64692  13.042   2.296  10.370  5.8472  0.0647  2.2650
  469MOL0     H64693  13.159   2.188  10.308 -0.5209 -2.1511 -0.4379
  469MOL0     H64694  13.059   2.005  10.406 -1.4599 -0.2076  0.2479
  469MOL0     H64695  13.041   2.137  10.526 -0.2051  0.9676  0.0279
  469MOL0     H64696  12.812   2.024  10.341 -1.9940 -3.6691  3.2162
  469MOL0     H64697  12.808   2.170  10.434  1.1400  1.0570 -4.6779
  469MOL0     H64698  12.810   2.066  10.643  1.3146 -0.2335  0.4052
  469MOL0     H64699  12.894   1.922  10.580 -0.1471  0.0997  1.5898
  469MOL0     H64700  12.735   1.846  10.444 -0.5616 -1.7047  0.3977
  469MOL0     H64701  12.612   1.971  10.483 -0.4747 -1.5794 -1.3507
  469MOL0     H64702  12.868   1.876   9.910  4.1313  1.5313 -0.7462
  469MOL0     H64703  12.638   1.829   9.809 -1.8593  2.0744 -1.4740
  469MOL0     H64704  12.482   1.695   9.325  3.1275  2.1575 -1.5781
  469MOL0     H64705  12.287   1.655   9.202  1.2971 -1.4245  1.8441
  469MOL0     H64706  11.128   0.854   8.535 -3.3261 -3.3856 -1.4693
  469MOL0     H64707  11.008   0.659   8.589  1.3563  1.1340 -0.6442
  469MOL0     H64708  10.605   0.622   8.855 -1.0260  0.1157  0.5893
  469MOL0     H64709  10.397   0.511   8.925  1.1094 -0.3543  1.5439
  469MOL0     H64710  10.455   0.142   9.050 -0.6829 -1.9310  1.4732
  469MOL0     H64711  10.354   0.277   9.107 -0.3112 -0.8156  0.8946
  469MOL0     H64712  10.266   0.019   8.979 -0.1105  0.9938 -0.1330
  469MOL0     H64713  10.150   0.145   9.039 -0.3660 -0.3162  1.4350
  469MOL0     H64714  10.335  -0.035   9.208  0.0851  1.4045  0.5276
  469MOL0     H64715  10.248   0.105   9.277  1.3546  3.6831 -1.7975
  469MOL0     H64716  10.037  -0.001   9.191  0.6893 -0.2036  0.9383
  469MOL0     H64717  10.129  -0.075   9.332  1.9206  0.9458  0.6915
  469MOL0     H64718  10.108  -0.415   9.102  2.0344 -0.2136  3.4815
  469MOL0     H64719  10.550   0.144   8.763 -3.3336  0.0188  0.7251
  469MOL0     H64720  10.789   0.231   8.568  0.6572 -0.9085  0.0659
  469MOL0     H64721  10.861   0.221   8.730 -0.7171 -0.2554  0.1319
  469MOL0     H64722  10.749   0.112   8.689  3.0494  0.1415  0.1854
  470MOL0     O64723  10.822   0.199   1.917 -0.5539  0.4195 -0.1153
  470MOL0     C64724  10.754   0.099   1.903 -0.6548  0.7161 -0.1734
  470MOL0     O64725  10.645   0.087   1.821 -0.1286  0.1910 -0.3434
  470MOL0     C64726  10.615   0.198   1.747  1.0025  0.8254  0.2686
  470MOL0     C64727  10.591   0.327   1.792 -0.4372  0.3587  0.0971
  470MOL0     C64728  10.530   0.424   1.714  0.0092 -0.2887  0.0874
  470MOL0     C64729  10.491   0.385   1.587  0.7986  0.1062  0.3968
  470MOL0     O64730  10.429   0.480   1.504 -0.3701 -0.3351 -0.3718
  470MOL0     C64731  10.444   0.470   1.366  0.6230 -0.7122 -0.1606
  470MOL0     C64732  10.380   0.588   1.291  0.1868 -0.6157  0.1330
  470MOL0     C64733  10.409   0.599   1.145 -0.5825  0.0604  0.0341
  470MOL0     C64734  10.336   0.725   1.088 -1.1475  0.5849 -0.0832
  470MOL0     C64735  10.362   0.726   0.940  0.2934 -0.1519  0.0127
  470MOL0     C64736  10.282   0.843   0.882  0.1346 -0.1656 -0.2100
  470MOL0     C64737  10.339   0.900   0.748 -0.5741 -0.2754 -0.1852
  470MOL0     C64738  10.361   0.792   0.642 -0.4925 -0.4255  0.0720
  470MOL0     N64739  10.230   0.732   0.612 -0.7538  0.3523 -0.0653
  470MOL0     C64740  10.121   0.809   0.566 -0.6791 -0.2703 -0.3950
  470MOL0     C64741  10.024   0.713   0.547 -0.4882  0.3953 -0.4068
  470MOL0     C64742   9.877   0.727   0.515 -0.3850  0.7257 -0.9526
  470MOL0     C64743   9.808   0.796   0.634  1.1245 -0.2257  0.5280
  470MOL0     C64744   9.652   0.796   0.619  0.3485 -0.9981  0.1948
  470MOL0     C64745   9.578   0.868   0.739 -0.7448  0.2799  0.2373
  470MOL0     O64746   9.609   1.010   0.755  0.0086  0.9485  0.8324
  470MOL0     C64747   9.553   1.109   0.674 -0.5048 -0.0794 -0.2708
  470MOL0     C64748   9.434   1.083   0.608  0.1149 -0.1168  0.4198
  470MOL0     C64749   9.368   1.176   0.525  0.0387 -0.3954 -0.5567
  470MOL0     C64750   9.240   1.125   0.452  0.0253  0.3157  0.2280
  470MOL0     C64751   9.416   1.309   0.514  0.0187  0.2185 -0.2484
  470MOL0     C64752   9.347   1.407   0.428 -0.0020 -0.7303  0.0796
  470MOL0     O64753   9.289   1.365   0.315  0.4853 -0.7345  0.0946
  470MOL0     C64754   9.252   1.460   0.216  0.8717 -0.0674 -0.2975
  470MOL0     C64755   9.329   1.453   0.106  0.0501  0.1500 -0.9570
  470MOL0     C64756   9.307   1.540  -0.004 -0.1876 -0.4067 -0.8669
  470MOL0     C64757   9.192   1.623  -0.001  0.5216 -0.8556  0.2543
  470MOL0     O64758   9.171   1.708  -0.113  0.7059  1.3403 -0.1491
  470MOL0     C64759   9.045   1.771  -0.149 -0.2394  0.0637  0.0764
  470MOL0     C64760   9.081   1.851  -0.278  0.0001 -0.1012 -0.0909
  470MOL0     C64761   9.139   1.991  -0.253  1.0348 -0.1446  0.0462
  470MOL0     C64762   9.154   2.046  -0.397 -0.8599 -1.3725 -0.6574
  470MOL0     C64763   9.197   2.194  -0.385 -0.5865 -0.8415  0.4091
  470MOL0     C64764   9.232   2.255  -0.522  0.5052 -0.4631  0.8496
  470MOL0     C64765   9.098   2.270  -0.613 -0.1802  0.1264  0.4841
  470MOL0     C64766   9.107   2.375  -0.725 -0.4990  0.0851  0.3907
  470MOL0    Cl64767   9.092   2.537  -0.671 -0.1366  0.4142 -0.1559
  470MOL0     C64768   9.101   1.614   0.110  0.1541 -0.0470  0.6747
  470MOL0     C64769   9.128   1.535   0.212 -0.0447 -0.1925  0.4113
  470MOL0     O64770   9.358   1.527   0.464  0.0230  0.5103  0.7174
  470MOL0     C64771   9.529   1.342   0.603 -0.0378  0.3103 -0.1750
  470MOL0     C64772   9.598   1.243   0.673 -0.7901 -0.3229 -0.5524
  470MOL0     N64773  10.069   0.586   0.576 -0.4136  0.0326 -0.1450
  470MOL0     N64774  10.192   0.600   0.618  0.4647  0.1637  0.2441
  470MOL0     C64775  10.517   0.258   1.537 -0.1288 -0.0347  0.5868
  470MOL0     C64776  10.577   0.164   1.615  0.1242  0.2217  1.1108
  470MOL0     C64777  10.781  -0.012   1.979  0.3934  0.6225 -0.2082
  470MOL0     C64778  10.898  -0.089   1.948 -0.1510  0.2155 -1.4418
  470MOL0     C64779  10.928  -0.210   2.016  0.0928  0.0460 -0.6686
  470MOL0     C64780  10.849  -0.257   2.119  0.6328 -1.1910 -0.0728
  470MOL0     O64781  10.882  -0.369   2.192 -0.0647 -0.0318 -0.1121
  470MOL0     C64782  10.804  -0.418   2.308 -0.2002  0.5588  0.2044
  470MOL0     C64783  10.867  -0.555   2.335 -1.1514  0.5146 -0.3938
  470MOL0     C64784  11.003  -0.556   2.406 -0.3529 -0.3801 -0.0457
  470MOL0     C64785  11.053  -0.700   2.445  0.6818  0.2091 -0.3182
  470MOL0     C64786  11.145  -0.761   2.358  0.2221 -0.7120 -0.3743
  470MOL0     C64787  11.239  -0.798   2.287 -0.1366  0.5426 -0.3595
  470MOL0     C64788  10.738  -0.172   2.149 -0.6336  0.2778  0.3872
  470MOL0     C64789  10.702  -0.049   2.090 -1.1597 -0.6451  0.1956
  470MOL0     C64790  10.568   0.033   2.122 -0.5528  0.5280  0.5444
  470MOL0     H64791  10.643   0.359   1.882  2.0680  2.3650 -1.9153
  470MOL0     H64792  10.498   0.520   1.754 -1.3497 -1.0639  0.9279
  470MOL0     H64793  10.400   0.376   1.334  1.2237 -0.6964 -1.0612
  470MOL0     H64794  10.548   0.469   1.334 -0.1204  2.3026 -3.1597
  470MOL0     H64795  10.273   0.581   1.314  0.5663 -0.3780  2.1942
  470MOL0     H64796  10.420   0.676   1.342  2.0958 -1.0018 -0.6401
  470MOL0     H64797  10.513   0.630   1.130 -0.4004  0.8756  2.5753
  470MOL0     H64798  10.375   0.509   1.092  0.5130 -0.8278  0.7887
  470MOL0     H64799  10.228   0.713   1.101 -1.0273 -2.7024 -1.1381
  470MOL0     H64800  10.369   0.820   1.132 -0.7608 -1.0386  3.5575
  470MOL0     H64801  10.326   0.634   0.893  0.6673 -0.3716  0.1478
  470MOL0     H64802  10.469   0.748   0.933  0.1731  0.3811 -0.1944
  470MOL0     H64803  10.185   0.796   0.863 -0.6665  0.8875  1.0879
  470MOL0     H64804  10.273   0.919   0.960  4.1429  0.3169 -0.0459
  470MOL0     H64805  10.433   0.954   0.763 -0.7585  0.7537 -2.3957
  470MOL0     H64806  10.262   0.975   0.726 -0.6403 -0.0274  0.8215
  470MOL0     H64807  10.406   0.831   0.551 -3.3981  0.2488 -1.2012
  470MOL0     H64808  10.435   0.723   0.684 -1.1059 -2.0469 -1.3616
  470MOL0     H64809  10.113   0.917   0.560  3.4660  0.1279 -2.8335
  470MOL0     H64810   9.832   0.627   0.508  0.8241  0.2641 -2.9792
  470MOL0     H64811   9.868   0.776   0.418 -1.1923 -2.7201 -2.7943
  470MOL0     H64812   9.832   0.739   0.724 -0.6673 -2.4384 -0.3047
  470MOL0     H64813   9.834   0.902   0.644  0.8028 -0.0820 -0.1571
  470MOL0     H64814   9.621   0.836   0.522  0.8396 -1.4511 -0.1507
  470MOL0     H64815   9.625   0.691   0.627  1.3035 -1.1414  2.1371
  470MOL0     H64816   9.471   0.844   0.733 -0.5442 -0.7074  0.4801
  470MOL0     H64817   9.615   0.822   0.831 -1.8212  0.4690  0.7882
  470MOL0     H64818   9.394   0.983   0.620  0.9312 -0.6838 -1.2419
  470MOL0     H64819   9.183   1.049   0.506 -0.4523  1.0522  0.7848
  470MOL0     H64820   9.272   1.073   0.361  0.2595  1.2941 -0.2716
  470MOL0     H64821   9.173   1.206   0.422 -1.2762 -0.2168  1.5929
  470MOL0     H64822   9.420   1.396   0.115 -0.7265 -1.1909 -1.2743
  470MOL0     H64823   9.392   1.525  -0.071  1.1357 -2.1600  1.0672
  470MOL0     H64824   8.966   1.700  -0.172  1.8077 -2.3316 -0.0191
  470MOL0     H64825   9.013   1.843  -0.072 -0.4066 -0.5982  0.6318
  470MOL0     H64826   9.166   1.801  -0.327  1.6457  0.9828  1.5169
  470MOL0     H64827   8.997   1.863  -0.347 -0.1459  0.2513  0.1493
  470MOL0     H64828   9.232   1.988  -0.195  0.3495  0.1223  1.2027
  470MOL0     H64829   9.060   2.047  -0.201  0.5893 -0.6007 -0.1227
  470MOL0     H64830   9.054   2.044  -0.441 -2.1897  3.1400  1.6497
  470MOL0     H64831   9.232   1.987  -0.448  2.6376  2.3886 -0.1504
  470MOL0     H64832   9.122   2.258  -0.338 -0.6669 -1.8583  1.7185
  470MOL0     H64833   9.280   2.188  -0.314 -1.3813 -0.1412  1.4284
  470MOL0     H64834   9.313   2.200  -0.571  0.2067  0.7323 -1.1114
  470MOL0     H64835   9.276   2.354  -0.505  0.1529 -0.0849 -0.3322
  470MOL0     H64836   9.019   2.298  -0.543 -0.4131  1.5282 -0.2926
  470MOL0     H64837   9.073   2.173  -0.657 -0.1696 -0.8305  2.4984
  470MOL0     H64838   9.017   2.347  -0.780  0.2878  0.2653 -1.0501
  470MOL0     H64839   9.183   2.351  -0.801 -5.1050 -2.8649 -3.9544
  470MOL0     H64840   9.011   1.674   0.110  0.5466  0.5648  1.2268
  470MOL0     H64841   9.076   1.525   0.307 -0.6381 -1.4900 -0.0228
  470MOL0     H64842   9.558   1.446   0.609 -1.4494  0.7422 -0.6620
  470MOL0     H64843   9.684   1.270   0.733 -1.4906  0.7435 -0.0028
  470MOL0     H64844  10.478   0.230   1.440 -1.2752  1.1157  0.6746
  470MOL0     H64845  10.584   0.060   1.586  0.2520  0.2811  0.9255
  470MOL0     H64846  10.975  -0.063   1.876  0.1532  2.4993 -0.3891
  470MOL0     H64847  11.015  -0.269   1.992  1.0896  0.1968  2.2284
  470MOL0     H64848  10.800  -0.351   2.394 -3.1280 -0.8696  1.3478
  470MOL0     H64849  10.701  -0.434   2.275 -0.0681  0.1563 -0.0250
  470MOL0     H64850  10.868  -0.609   2.240 -0.0024  0.3985 -0.3260
  470MOL0     H64851  10.788  -0.612   2.385 -0.2553 -1.2807 -0.9485
  470MOL0     H64852  11.069  -0.501   2.338  1.9317  1.0726  3.0730
  470MOL0     H64853  10.993  -0.488   2.492  0.5653 -1.8780  1.3027
  470MOL0     H64854  10.961  -0.759   2.458 -0.2753  1.6029 -0.5920
  470MOL0     H64855  11.098  -0.694   2.545 -0.6915 -0.3498  0.3647
  470MOL0     H64856  11.323  -0.809   2.222 -0.4588 -0.0116 -0.6902
  470MOL0     H64857  10.671  -0.202   2.229  0.9962 -0.0602  1.7034
  470MOL0     H64858  10.517   0.051   2.028  1.7608 -3.0350 -1.6642
  470MOL0     H64859  10.500  -0.008   2.198  0.2550 -0.4668  0.7624
  470MOL0     H64860  10.602   0.129   2.161  0.7219 -0.2849  1.5446
  471MOL0     O64861  11.281   5.934   1.469  0.3272 -0.2380  0.2907
  471MOL0     C64862  11.189   6.014   1.445 -1.0493 -0.2918 -0.0165
  471MOL0     O64863  11.201   6.145   1.441  0.4875  0.5860  0.0369
  471MOL0     C64864  11.328   6.203   1.437  0.0654 -0.7744  0.4532
  471MOL0     C64865  11.458   6.139   1.400  0.3080 -0.1079  0.5651
  471MOL0     C64866  11.570   6.201   1.393 -0.0824  0.0602 -0.4470
  471MOL0     C64867  11.578   6.329   1.436 -0.1765  0.2707 -0.9333
  471MOL0     O64868  11.701   6.395   1.425  0.8437  0.1736  0.2123
  471MOL0     C64869  11.699   6.510   1.338  0.4282  1.0621 -0.3543
  471MOL0     C64870  11.720   6.476   1.195 -0.1695 -0.2533  0.9505
  471MOL0     C64871  11.746   6.597   1.101 -0.3314 -0.2531 -0.5718
  471MOL0     C64872  11.617   6.660   1.044 -0.0507  0.9909  0.6119
  471MOL0     C64873  11.538   6.760   1.130  0.2949 -0.1272  0.4832
  471MOL0     C64874  11.431   6.836   1.054 -0.3214 -0.0084 -0.2437
  471MOL0     C64875  11.489   6.941   0.963  0.2899 -0.0335 -0.1867
  471MOL0     C64876  11.569   7.043   1.036 -0.5148 -0.6039  0.3395
  471MOL0     N64877  11.499   7.099   1.158 -1.3113 -0.8067  0.9128
  471MOL0     C64878  11.451   7.232   1.173  0.7925 -0.4151  1.2678
  471MOL0     C64879  11.405   7.245   1.296  0.0164  0.7373 -0.5196
  471MOL0     C64880  11.348   7.368   1.356  0.2431 -0.3294  0.0531
  471MOL0     C64881  11.220   7.343   1.448 -0.8676 -0.0154  0.9237
  471MOL0     C64882  11.244   7.402   1.585  0.0725  0.6075  1.1727
  471MOL0     C64883  11.232   7.559   1.575 -0.5911  0.2336  0.1171
  471MOL0     O64884  11.095   7.590   1.543  0.8807 -0.0241  0.2723
  471MOL0     C64885  11.066   7.723   1.537  0.7787 -0.3163 -0.2431
  471MOL0     C64886  10.929   7.757   1.520 -1.1451  0.2514 -0.0012
  471MOL0     C64887  10.890   7.883   1.479 -0.1054  0.5383 -0.3530
  471MOL0     C64888  10.737   7.910   1.465  0.3731  0.1457  0.3653
  471MOL0     C64889  10.987   7.987   1.468  0.3412  0.3602  0.8719
  471MOL0     C64890  10.958   8.120   1.421 -0.5598 -0.4033  0.3217
  471MOL0     O64891  10.895   8.139   1.300  0.5155 -0.7701  0.7061
  471MOL0     C64892  10.914   8.260   1.230 -0.2604  0.5164 -0.0535
  471MOL0     C64893  10.871   8.382   1.283  0.1564  0.8128  0.5588
  471MOL0     C64894  10.868   8.502   1.212 -1.4489 -0.1465 -0.6521
  471MOL0     C64895  10.915   8.496   1.076  1.0103  0.8850 -0.0078
  471MOL0     O64896  10.925   8.612   1.015 -0.8600  0.1943 -0.2096
  471MOL0     C64897  10.812   8.665   0.946 -0.5565  0.2384 -1.0217
  471MOL0     C64898  10.722   8.760   1.015 -0.1229 -0.8234 -0.8982
  471MOL0     C64899  10.804   8.862   1.104 -0.6694  0.5474  0.0491
  471MOL0     C64900  10.723   8.979   1.139  0.2179  0.6762  0.4030
  471MOL0     C64901  10.808   9.090   1.202  0.0671  0.3967 -0.3481
  471MOL0     C64902  10.729   9.207   1.255 -0.2222 -0.6073  1.6147
  471MOL0     C64903  10.648   9.178   1.383 -1.0623 -0.5084  0.2313
  471MOL0     C64904  10.590   9.305   1.451 -0.0245  0.1427  0.1848
  471MOL0    Cl64905  10.732   9.359   1.554  0.1427  0.3009  0.3322
  471MOL0     C64906  10.957   8.375   1.019 -0.0657  0.2454  0.2918
  471MOL0     C64907  10.970   8.262   1.098  0.9224  0.9409  0.6471
  471MOL0     O64908  10.983   8.215   1.506  0.4737  0.7049 -0.0571
  471MOL0     C64909  11.119   7.951   1.497 -0.7883 -0.1056 -0.3174
  471MOL0     C64910  11.158   7.823   1.529  0.0191  0.6167 -0.6037
  471MOL0     N64911  11.430   7.119   1.358  0.2385  0.1431  0.4930
  471MOL0     N64912  11.501   7.039   1.281  0.3102 -0.4873 -0.0245
  471MOL0     C64913  11.463   6.392   1.481  0.1023 -0.1106  0.1407
  471MOL0     C64914  11.340   6.330   1.490 -0.2705 -0.0667  0.4804
  471MOL0     C64915  11.055   5.946   1.413  0.7216  0.0994  0.7999
  471MOL0     C64916  11.033   5.819   1.472 -0.4736 -1.3024 -0.2999
  471MOL0     C64917  10.917   5.747   1.438  0.2149 -0.1999  0.1675
  471MOL0     C64918  10.828   5.797   1.338  0.4969 -0.1257 -0.6434
  471MOL0     O64919  10.723   5.711   1.296 -0.1369 -0.2384 -0.0275
  471MOL0     C64920  10.700   5.709   1.155  0.0486  0.2484 -0.3215
  471MOL0     C64921  10.590   5.605   1.117  0.2482 -0.4370  0.6575
  471MOL0     C64922  10.458   5.662   1.164 -0.5065  0.2941  0.5487
  471MOL0     C64923  10.333   5.595   1.102 -0.2552 -0.2118 -0.2734
  471MOL0     C64924  10.322   5.455   1.133 -0.0622  0.0648  0.1949
  471MOL0     C64925  10.325   5.333   1.159  0.6120 -0.9421  0.7451
  471MOL0     C64926  10.844   5.928   1.289 -0.1341  0.5687  0.0127
  471MOL0     C64927  10.960   6.001   1.324  0.0162 -0.4110  0.1001
  471MOL0     C64928  10.971   6.134   1.244 -1.0180  0.4281 -0.7142
  471MOL0     H64929  11.473   6.038   1.365  2.1416  0.4426 -0.4102
  471MOL0     H64930  11.658   6.155   1.349 -0.7154  0.1458 -1.8588
  471MOL0     H64931  11.779   6.572   1.381 -0.8916  2.4767  0.1491
  471MOL0     H64932  11.611   6.575   1.346 -3.3019 -3.3633 -1.3840
  471MOL0     H64933  11.813   6.418   1.189  0.4842  0.8902 -0.7546
  471MOL0     H64934  11.638   6.417   1.155  0.3830  0.0538 -0.7055
  471MOL0     H64935  11.805   6.681   1.140 -3.0616  1.3233  0.4540
  471MOL0     H64936  11.803   6.554   1.018 -2.2513 -0.8593 -1.6447
  471MOL0     H64937  11.654   6.702   0.950  1.1599 -0.3288  0.4594
  471MOL0     H64938  11.546   6.577   1.032  0.3062  0.2094  3.3058
  471MOL0     H64939  11.606   6.821   1.191  0.8551  1.0882 -1.2962
  471MOL0     H64940  11.482   6.709   1.209 -0.6592  0.8980  0.4844
  471MOL0     H64941  11.372   6.766   0.993  1.8230 -3.5837  1.4874
  471MOL0     H64942  11.365   6.884   1.126 -1.8274  2.6817 -3.1473
  471MOL0     H64943  11.415   6.992   0.901 -1.2324  0.1715  1.6795
  471MOL0     H64944  11.546   6.882   0.891 -2.4793 -2.8746 -0.2993
  471MOL0     H64945  11.660   6.994   1.073  0.0154 -0.7617 -1.0805
  471MOL0     H64946  11.589   7.125   0.966 -1.0585 -0.6314  0.1448
  471MOL0     H64947  11.447   7.304   1.092  1.2825 -0.9474  0.7626
  471MOL0     H64948  11.335   7.438   1.273  0.0035 -1.2149 -0.6697
  471MOL0     H64949  11.425   7.400   1.427 -1.2023 -0.4430  1.7484
  471MOL0     H64950  11.132   7.389   1.403 -0.0818  1.9565  1.3050
  471MOL0     H64951  11.212   7.237   1.475  1.4924  0.2312  2.9665
  471MOL0     H64952  11.167   7.367   1.654  0.9859 -5.9753 -0.4451
  471MOL0     H64953  11.335   7.362   1.632 -0.2306 -0.7527  0.6451
  471MOL0     H64954  11.265   7.591   1.675 -0.8447 -2.4849  1.1675
  471MOL0     H64955  11.305   7.603   1.507 -0.6020  1.2117  0.7092
  471MOL0     H64956  10.859   7.674   1.521 -2.1724  1.1011  0.3296
  471MOL0     H64957  10.718   8.017   1.475  1.7779  0.8106 -2.7786
  471MOL0     H64958  10.674   7.852   1.532  0.0465  0.4791  0.3471
  471MOL0     H64959  10.706   7.885   1.363 -2.2419 -0.7361  1.2925
  471MOL0     H64960  10.835   8.377   1.385 -0.2780 -0.9457  0.3489
  471MOL0     H64961  10.843   8.598   1.255  0.5604 -0.4320  1.3588
  471MOL0     H64962  10.850   8.721   0.860 -3.9389  0.2952 -2.6674
  471MOL0     H64963  10.753   8.581   0.908  0.4701 -1.4099  0.8611
  471MOL0     H64964  10.677   8.821   0.936  0.6776 -2.3512 -2.5989
  471MOL0     H64965  10.646   8.706   1.072  1.1035 -1.9011 -0.2581
  471MOL0     H64966  10.903   8.875   1.060 -0.4955  0.6923  0.4776
  471MOL0     H64967  10.826   8.827   1.205  0.7782  1.4236  0.0593
  471MOL0     H64968  10.647   8.946   1.211  0.1750  0.3940  0.2306
  471MOL0     H64969  10.686   9.032   1.051  4.2018  2.1656 -0.5629
  471MOL0     H64970  10.861   9.039   1.283  1.8887  0.2013 -1.5987
  471MOL0     H64971  10.890   9.118   1.134  1.7247 -0.6876  1.1119
  471MOL0     H64972  10.662   9.244   1.177 -1.2089 -0.4529  2.5152
  471MOL0     H64973  10.798   9.290   1.272 -0.3591 -0.5549  1.9211
  471MOL0     H64974  10.720   9.132   1.450  1.5034 -2.0823 -3.2580
  471MOL0     H64975  10.559   9.116   1.366 -3.4877  2.1347  2.2657
  471MOL0     H64976  10.505   9.276   1.514 -0.4666  0.2302 -0.3692
  471MOL0     H64977  10.560   9.386   1.384 -1.4935 -0.3650  0.1958
  471MOL0     H64978  10.985   8.391   0.916  1.1436 -2.3847  0.1300
  471MOL0     H64979  10.998   8.175   1.040 -2.9988 -0.0969 -0.0229
  471MOL0     H64980  11.196   8.027   1.503 -0.3068 -0.6789  2.2094
  471MOL0     H64981  11.264   7.806   1.544  0.0426  1.6197  0.4757
  471MOL0     H64982  11.467   6.492   1.523  1.1356 -0.3043  0.5366
  471MOL0     H64983  11.249   6.385   1.512 -1.7839 -1.1691 -2.4991
  471MOL0     H64984  11.093   5.791   1.558 -1.7066 -0.6480  0.8209
  471MOL0     H64985  10.894   5.648   1.474 -0.8005  0.5150  1.5922
  471MOL0     H64986  10.687   5.802   1.099  3.2533  1.5217  0.8011
  471MOL0     H64987  10.797   5.674   1.120  0.7125  0.5985  1.0911
  471MOL0     H64988  10.604   5.502   1.151  3.0723 -1.1616 -2.1590
  471MOL0     H64989  10.578   5.605   1.008 -2.0105  1.3172  0.8334
  471MOL0     H64990  10.445   5.663   1.273 -1.0753  0.3631  0.4849
  471MOL0     H64991  10.445   5.766   1.132 -0.8299  0.7660  2.1293
  471MOL0     H64992  10.328   5.615   0.995 -0.6380 -0.2234 -0.2585
  471MOL0     H64993  10.247   5.648   1.144 -1.5887 -1.9422 -0.7231
  471MOL0     H64994  10.322   5.227   1.167  0.2418 -1.1136 -1.3052
  471MOL0     H64995  10.771   5.962   1.216  2.2271  3.0559 -1.3775
  471MOL0     H64996  11.019   6.210   1.306 -4.2476  2.2771 -0.2236
  471MOL0     H64997  11.040   6.125   1.159 -0.3079 -0.5934 -0.0532
  471MOL0     H64998  10.870   6.168   1.217 -2.4285 -2.8339 -0.0247
  472MOL0     O64999   7.944   9.946   9.912 -0.6856  0.5925  0.3547
  472MOL0     C65000   8.019   9.873   9.856  0.3352  0.1523  0.9674
  472MOL0     O65001   8.141   9.821   9.896 -0.7371  0.3841 -0.1286
  472MOL0     C65002   8.198   9.849  10.017 -1.0357 -0.1040  0.7788
  472MOL0     C65003   8.176   9.958  10.100 -0.0935  0.0958 -0.9901
  472MOL0     C65004   8.244   9.987  10.217  0.3737  0.5834 -0.0522
  472MOL0     C65005   8.351   9.896  10.256  0.2434  0.3973  0.0340
  472MOL0     O65006   8.425   9.926  10.367  0.5890 -0.1522 -0.0771
  472MOL0     C65007   8.391   9.867  10.488  0.1124 -0.2952 -0.8578
  472MOL0     C65008   8.516   9.787  10.540  0.0284 -0.5155  0.4499
  472MOL0     C65009   8.557   9.669  10.450 -0.4253  0.7996  0.6357
  472MOL0     C65010   8.616   9.549  10.532 -0.2209  0.1211 -0.4395
  472MOL0     C65011   8.636   9.428  10.437 -0.6036  0.5533  0.5853
  472MOL0     C65012   8.684   9.299  10.518  0.4538  0.3935  0.8995
  472MOL0     C65013   8.679   9.163  10.443 -0.7423  0.3726  0.5486
  472MOL0     C65014   8.531   9.118  10.424  0.2643 -0.5510  0.1443
  472MOL0     N65015   8.525   9.020  10.311  1.0134 -0.1077 -0.6871
  472MOL0     C65016   8.490   9.053  10.183  1.1208 -0.1764 -0.3384
  472MOL0     C65017   8.528   8.946  10.107 -0.6701  0.8848  0.4218
  472MOL0     C65018   8.500   8.923   9.961 -0.0464 -0.2222  0.3713
  472MOL0     C65019   8.354   8.895   9.939  0.4280 -0.4453 -0.3472
  472MOL0     C65020   8.326   8.912   9.787  0.4072 -0.2939  0.3671
  472MOL0     C65021   8.274   9.047   9.747 -0.6370 -0.2432 -0.0360
  472MOL0     O65022   8.393   9.121   9.733  0.1084 -0.4361 -0.8667
  472MOL0     C65023   8.389   9.236   9.655 -0.5142 -1.5657 -0.5662
  472MOL0     C65024   8.337   9.362   9.709 -0.7284  0.3432 -0.4410
  472MOL0     C65025   8.320   9.465   9.629  0.8096 -0.2048 -0.3840
  472MOL0     C65026   8.250   9.587   9.685 -0.2464 -0.7018 -0.1641
  472MOL0     C65027   8.365   9.465   9.491 -0.6669 -0.2624  0.5805
  472MOL0     C65028   8.380   9.589   9.401  0.1501  0.4928  0.0601
  472MOL0     O65029   8.408   9.546   9.275 -1.0626  0.1122 -0.0717
  472MOL0     C65030   8.414   9.642   9.171  1.0469  0.1533 -0.6802
  472MOL0     C65031   8.526   9.725   9.157  0.8649  0.4573  0.1552
  472MOL0     C65032   8.529   9.821   9.063  0.6560  0.7810  0.7881
  472MOL0     C65033   8.424   9.832   8.965  0.0937  0.1680 -0.3145
  472MOL0     O65034   8.432   9.932   8.866  0.3410 -0.1842 -1.0449
  472MOL0     C65035   8.495  10.054   8.884 -0.8783  0.0275  0.3219
  472MOL0     C65036   8.453  10.162   8.794  0.4002 -0.2776 -0.1942
  472MOL0     C65037   8.505  10.123   8.650 -0.9070  0.0545  1.1029
  472MOL0     C65038   8.511  10.248   8.545  0.3603  0.1436 -0.9160
  472MOL0     C65039   8.373  10.291   8.503  0.5033 -0.4311 -0.2776
  472MOL0     C65040   8.380  10.387   8.387 -0.7011 -0.9041  0.2377
  472MOL0     C65041   8.241  10.449   8.369 -0.6794 -0.0746 -0.3676
  472MOL0     C65042   8.225  10.499   8.228  0.2485  0.7184 -0.8488
  472MOL0    Cl65043   8.329  10.634   8.200 -0.0659  0.0341  0.0629
  472MOL0     C65044   8.318   9.730   8.968 -1.0191  0.3127 -0.5923
  472MOL0     C65045   8.308   9.647   9.080 -0.9122  0.4321 -0.3842
  472MOL0     O65046   8.380   9.713   9.439  0.3845  0.3602 -0.4110
  472MOL0     C65047   8.398   9.335   9.439  1.0007  1.4038 -0.3656
  472MOL0     C65048   8.395   9.221   9.519 -0.6069  0.3074 -0.3771
  472MOL0     N65049   8.589   8.854  10.193  0.2271 -0.0420  0.2536
  472MOL0     N65050   8.586   8.902  10.313 -0.2034  0.3890 -0.3113
  472MOL0     C65051   8.372   9.784  10.178 -0.3315  0.4737  0.8265
  472MOL0     C65052   8.307   9.762  10.053 -0.1137 -0.0566 -0.8597
  472MOL0     C65053   7.979   9.844   9.722 -0.2587  1.0655 -0.4496
  472MOL0     C65054   8.083   9.855   9.627 -0.5728 -1.2608  0.8614
  472MOL0     C65055   8.061   9.825   9.494  0.3888 -0.2869  0.1687
  472MOL0     C65056   7.942   9.770   9.463  0.0715  0.1749 -0.6529
  472MOL0     O65057   7.899   9.734   9.344 -0.2678  0.0980  0.7095
  472MOL0     C65058   7.994   9.706   9.242 -0.3265  0.2519 -0.9704
  472MOL0     C65059   7.921   9.657   9.110 -0.1390 -0.2869 -0.2159
  472MOL0     C65060   7.874   9.509   9.133  1.0758  0.5197  0.2171
  472MOL0     C65061   7.777   9.469   9.025 -0.0671  0.5986  0.0159
  472MOL0     C65062   7.852   9.458   8.903  1.2331  0.3935 -0.2384
  472MOL0     C65063   7.910   9.427   8.801  0.7355  0.3263  1.1912
  472MOL0     C65064   7.840   9.740   9.561 -0.8273  0.1982 -0.6183
  472MOL0     C65065   7.856   9.781   9.700  0.3743 -0.0920  0.1511
  472MOL0     C65066   7.742   9.762   9.796 -0.4831 -0.1101 -0.1090
  472MOL0     H65067   8.102  10.028  10.063  0.8655  0.6450 -1.9401
  472MOL0     H65068   8.213  10.078  10.267  3.5638  1.5776  0.3137
  472MOL0     H65069   8.305   9.801  10.488 -0.3227  0.2288  0.2735
  472MOL0     H65070   8.359   9.942  10.561 -1.4181 -2.2193  0.5466
  472MOL0     H65071   8.594   9.861  10.558 -2.6732  2.2720  1.5754
  472MOL0     H65072   8.494   9.741  10.637 -2.8093 -2.4007 -0.9188
  472MOL0     H65073   8.474   9.626  10.393  1.3649  0.0551 -1.5537
  472MOL0     H65074   8.634   9.698  10.377 -3.8007 -0.4138 -3.9010
  472MOL0     H65075   8.711   9.569  10.582  1.0722  0.6120 -2.9332
  472MOL0     H65076   8.550   9.508  10.609 -0.2758  1.7886  0.4661
  472MOL0     H65077   8.707   9.459  10.359  1.0416 -2.8294  0.5393
  472MOL0     H65078   8.537   9.412  10.393 -1.1171  2.8156  0.8459
  472MOL0     H65079   8.787   9.301  10.556  0.2070 -1.7494  1.8250
  472MOL0     H65080   8.625   9.280  10.608  2.3845  3.3325  2.9793
  472MOL0     H65081   8.730   9.082  10.496  3.2189  1.2705 -1.4823
  472MOL0     H65082   8.740   9.176  10.353  0.3785 -2.9555  0.6920
  472MOL0     H65083   8.497   9.068  10.516 -0.0950 -2.3341 -0.9154
  472MOL0     H65084   8.472   9.207  10.402  0.5688  0.0139  1.4800
  472MOL0     H65085   8.448   9.148  10.154  0.6280 -0.7377 -1.5370
  472MOL0     H65086   8.567   8.840   9.938  1.9113  0.6823  2.4117
  472MOL0     H65087   8.525   9.014   9.906 -0.2297 -0.5223 -0.2199
  472MOL0     H65088   8.327   8.793   9.968 -2.1049  0.5974  1.2513
  472MOL0     H65089   8.279   8.950   9.997 -0.5572 -1.3878 -0.6782
  472MOL0     H65090   8.420   8.884   9.739  0.7408  1.3158  0.0030
  472MOL0     H65091   8.241   8.848   9.763 -1.9341  2.9419 -0.7037
  472MOL0     H65092   8.230   9.033   9.647  4.2898  1.1831 -2.7184
  472MOL0     H65093   8.195   9.089   9.811 -0.7113  2.1484 -1.5536
  472MOL0     H65094   8.302   9.364   9.811  0.0477 -0.0031 -0.1633
  472MOL0     H65095   8.310   9.678   9.693 -0.9265 -0.3254  0.8631
  472MOL0     H65096   8.218   9.565   9.787 -2.8707  0.0796 -0.7352
  472MOL0     H65097   8.157   9.609   9.630 -0.0913  1.0399  0.1996
  472MOL0     H65098   8.607   9.708   9.227  0.9355 -3.6417 -0.7015
  472MOL0     H65099   8.617   9.881   9.043  0.9619  0.0468 -0.1332
  472MOL0     H65100   8.477  10.091   8.986  2.6614  2.5493  0.2121
  472MOL0     H65101   8.603  10.042   8.886 -0.6312  1.9430 -0.1102
  472MOL0     H65102   8.353  10.195   8.822  1.1762 -0.1397  2.8830
  472MOL0     H65103   8.513  10.252   8.816  4.0970 -1.9964 -2.2822
  472MOL0     H65104   8.443  10.039   8.617 -0.5455  0.8186 -1.7026
  472MOL0     H65105   8.608  10.086   8.653 -1.0663 -0.7599 -1.4850
  472MOL0     H65106   8.563  10.214   8.455  0.5066  0.6919 -1.0369
  472MOL0     H65107   8.562  10.333   8.590 -2.4000  0.5302  1.7834
  472MOL0     H65108   8.304  10.210   8.478  1.6440 -1.5403  0.0172
  472MOL0     H65109   8.339  10.349   8.589  1.1078 -0.4102 -0.0463
  472MOL0     H65110   8.420  10.336   8.299 -0.0872 -0.2812  0.1496
  472MOL0     H65111   8.460  10.461   8.397 -0.5543 -1.0414  0.0876
  472MOL0     H65112   8.236  10.538   8.431  0.8214  2.2379 -3.3132
  472MOL0     H65113   8.168  10.374   8.402  1.2867 -1.4972  0.9981
  472MOL0     H65114   8.116  10.506   8.214 -0.1681  0.1832  1.6703
  472MOL0     H65115   8.260  10.416   8.166 -0.1515 -1.8964  2.1758
  472MOL0     H65116   8.245   9.715   8.889 -2.2684 -2.7056  0.9999
  472MOL0     H65117   8.219   9.586   9.089 -1.3862  0.8115 -2.1362
  472MOL0     H65118   8.418   9.320   9.333 -0.5261 -1.6455 -0.3121
  472MOL0     H65119   8.414   9.118   9.489  0.2142 -0.4891  2.5898
  472MOL0     H65120   8.439   9.705  10.210 -1.3206  0.3929  2.8719
  472MOL0     H65121   8.335   9.681   9.987  1.5894  1.5995 -2.2533
  472MOL0     H65122   8.182   9.899   9.635 -1.6255  1.4118  0.1190
  472MOL0     H65123   8.137   9.834   9.418 -1.8009 -0.8652 -2.2414
  472MOL0     H65124   8.045   9.800   9.221 -1.2700  0.6098 -1.7324
  472MOL0     H65125   8.070   9.633   9.272  0.6028  1.9607  1.0409
  472MOL0     H65126   7.999   9.668   9.034 -0.4909 -1.4483 -0.7722
  472MOL0     H65127   7.837   9.722   9.083  0.3940 -0.7340 -3.3178
  472MOL0     H65128   7.955   9.436   9.134 -2.0458 -3.5163 -3.0567
  472MOL0     H65129   7.817   9.509   9.227  0.7197 -1.4584  0.0410
  472MOL0     H65130   7.695   9.542   9.026  1.1613  2.1005  2.6952
  472MOL0     H65131   7.749   9.368   9.056  2.0760  0.2014  0.8353
  472MOL0     H65132   7.945   9.394   8.706 -0.4118  0.8180  0.5707
  472MOL0     H65133   7.744   9.699   9.534 -0.1256 -2.1951  0.2705
  472MOL0     H65134   7.778   9.792   9.895  3.3837  2.8874 -2.1435
  472MOL0     H65135   7.653   9.818   9.765  0.2751  0.6734 -0.9516
  472MOL0     H65136   7.712   9.657   9.796  0.3587 -0.3589  0.0604
  473MOL0     O65137   6.181   1.933  11.277 -0.5202 -0.2934 -0.2706
  473MOL0     C65138   6.094   1.944  11.367  0.7637 -0.8506 -0.0285
  473MOL0     O65139   6.102   2.032  11.471 -0.5752 -0.7925  0.8959
  473MOL0     C65140   6.202   2.126  11.469  1.2029  0.4968  0.6037
  473MOL0     C65141   6.333   2.096  11.495 -0.3255  1.7555  0.7185
  473MOL0     C65142   6.431   2.186  11.466 -0.0287  0.1152 -0.0929
  473MOL0     C65143   6.410   2.312  11.415  0.1603 -0.3523  0.4465
  473MOL0     O65144   6.507   2.406  11.371 -0.9064 -0.4228 -0.2507
  473MOL0     C65145   6.646   2.377  11.409 -0.6605 -0.1353 -0.0031
  473MOL0     C65146   6.728   2.499  11.397 -0.0661  0.4779  0.3067
  473MOL0     C65147   6.874   2.464  11.361 -0.5277  0.1285 -0.7336
  473MOL0     C65148   6.946   2.343  11.437 -0.6288 -0.4382 -0.0090
  473MOL0     C65149   7.066   2.290  11.360  0.1694  0.1350  0.0904
  473MOL0     C65150   7.016   2.202  11.244  0.1359  1.3533  0.2414
  473MOL0     C65151   7.122   2.097  11.191 -0.1704  0.5466 -0.4422
  473MOL0     C65152   7.060   2.004  11.089 -0.6281  0.3371  0.2373
  473MOL0     N65153   7.151   1.895  11.055 -0.1279  0.9758 -0.2372
  473MOL0     C65154   7.288   1.907  11.045  0.9461 -0.5134  0.3227
  473MOL0     C65155   7.338   1.784  11.034  0.7394 -0.1583  1.8924
  473MOL0     C65156   7.476   1.739  10.981 -0.1349 -0.6665 -0.8065
  473MOL0     C65157   7.490   1.735  10.834 -0.4325 -0.0305  0.8333
  473MOL0     C65158   7.632   1.702  10.789 -0.1872  0.7532 -0.6972
  473MOL0     C65159   7.651   1.735  10.640  0.1202 -0.0224 -1.3431
  473MOL0     O65160   7.787   1.696  10.612 -0.7607 -0.3278 -0.0067
  473MOL0     C65161   7.839   1.752  10.494 -0.2413 -0.0527  0.1418
  473MOL0     C65162   7.972   1.717  10.455  1.0509  0.4534  0.3066
  473MOL0     C65163   8.025   1.755  10.334 -0.3396  0.4981  0.2175
  473MOL0     C65164   8.162   1.696  10.300  0.3014  0.2810  0.0643
  473MOL0     C65165   7.961   1.845  10.254  0.4522 -0.3048 -0.1378
  473MOL0     C65166   8.020   1.901  10.125  0.3265 -0.1576 -0.2820
  473MOL0     O65167   7.947   1.886  10.001  0.5695  0.0478  0.0087
  473MOL0     C65168   8.008   1.871   9.878  0.8359 -0.5306  0.4035
  473MOL0     C65169   7.918   1.856   9.768  0.3630 -0.1070 -0.4074
  473MOL0     C65170   7.964   1.803   9.646  0.3456 -0.7394  0.0027
  473MOL0     C65171   8.098   1.782   9.624  0.4170 -0.0609  0.0958
  473MOL0     O65172   8.128   1.740   9.492  0.0929  0.4660  0.2431
  473MOL0     C65173   8.264   1.738   9.453 -0.2043  0.4484 -0.6077
  473MOL0     C65174   8.258   1.703   9.304 -0.5259 -0.6624  0.0553
  473MOL0     C65175   8.202   1.824   9.221 -0.3637  0.1579  0.3303
  473MOL0     C65176   8.171   1.803   9.069  0.5723  0.8925  0.6652
  473MOL0     C65177   8.033   1.804   9.045  0.1459 -0.1651 -0.4888
  473MOL0     C65178   7.949   1.691   9.103  0.4952  1.5165  0.6131
  473MOL0     C65179   7.798   1.699   9.068 -0.4427 -0.7219 -0.2140
  473MOL0     C65180   7.719   1.786   9.163 -0.1539 -0.0356 -0.3176
  473MOL0    Cl65181   7.727   1.728   9.330  0.1974 -0.4155  0.1828
  473MOL0     C65182   8.181   1.784   9.736 -0.2053  0.4401  0.5749
  473MOL0     C65183   8.136   1.824   9.855  0.1612  0.0741 -0.4086
  473MOL0     O65184   8.128   1.958  10.137  0.2967  0.1014 -0.0129
  473MOL0     C65185   7.831   1.896  10.287  0.4366  0.1295 -0.2020
  473MOL0     C65186   7.769   1.848  10.410  0.2846 -0.9754 -0.3573
  473MOL0     N65187   7.232   1.692  11.016  0.2751 -0.0900 -0.0895
  473MOL0     N65188   7.119   1.771  11.018  0.2669 -0.3248  0.2232
  473MOL0     C65189   6.277   2.349  11.384 -0.4452 -0.0213  0.0718
  473MOL0     C65190   6.176   2.257  11.416  0.0177  0.5942 -0.1579
  473MOL0     C65191   5.973   1.863  11.358  0.2570  0.0521  0.7396
  473MOL0     C65192   5.982   1.722  11.329 -0.0551 -0.1632  0.1885
  473MOL0     C65193   5.865   1.640  11.325 -0.7074 -0.3734  0.3926
  473MOL0     C65194   5.737   1.702  11.347  0.2465  0.7195 -0.2103
  473MOL0     O65195   5.616   1.642  11.348  0.3554  0.4219  0.5557
  473MOL0     C65196   5.610   1.508  11.325 -0.3590 -0.3380  0.2388
  473MOL0     C65197   5.467   1.457  11.354 -0.7284  0.1016  0.1130
  473MOL0     C65198   5.469   1.312  11.297  0.7102  0.2963 -0.2255
  473MOL0     C65199   5.512   1.199  11.394  0.7540 -0.3124  0.4951
  473MOL0     C65200   5.543   1.073  11.325  0.0366 -1.8960 -0.3153
  473MOL0     C65201   5.561   0.974  11.261  0.1249  0.2330 -0.2520
  473MOL0     C65202   5.731   1.842  11.372  0.6153  0.1432  0.9761
  473MOL0     C65203   5.844   1.919  11.376  0.6604  1.4372 -1.0016
  473MOL0     C65204   5.827   2.068  11.385 -0.5103 -0.3473 -0.6577
  473MOL0     H65205   6.357   1.997  11.532  1.0556  1.2134 -1.4413
  473MOL0     H65206   6.530   2.170  11.509  0.3098  1.4746 -0.3314
  473MOL0     H65207   6.674   2.293  11.345 -2.4794 -2.4620  2.0748
  473MOL0     H65208   6.657   2.351  11.515 -0.9401  0.0447  0.0703
  473MOL0     H65209   6.690   2.564  11.317  0.5229  0.9859  0.4300
  473MOL0     H65210   6.725   2.558  11.489 -1.1832  1.6927 -0.4764
  473MOL0     H65211   6.875   2.464  11.252 -2.2469 -0.1257 -0.7756
  473MOL0     H65212   6.933   2.550  11.395 -2.5426  1.5536 -0.6694
  473MOL0     H65213   6.989   2.373  11.534 -1.7910  3.6215 -0.5610
  473MOL0     H65214   6.876   2.266  11.470 -0.9181  0.4171  1.5244
  473MOL0     H65215   7.125   2.230  11.431  0.5962  1.1060  0.5853
  473MOL0     H65216   7.126   2.372  11.320  3.5243 -1.5225  1.2869
  473MOL0     H65217   6.924   2.151  11.271  2.4940 -2.1699  2.5655
  473MOL0     H65218   6.986   2.268  11.162 -1.6762 -2.4048 -2.4299
  473MOL0     H65219   7.147   2.034  11.277 -1.9441 -0.5184 -0.6510
  473MOL0     H65220   7.220   2.139  11.167  0.0452 -0.1928 -0.9103
  473MOL0     H65221   6.974   1.953  11.133 -0.9255  0.4372 -0.2278
  473MOL0     H65222   7.025   2.065  11.006 -1.8613 -0.1370  0.3852
  473MOL0     H65223   7.332   2.004  11.028 -1.8633  0.8754  0.2772
  473MOL0     H65224   7.483   1.634  11.010  1.2562 -1.0103 -2.2674
  473MOL0     H65225   7.559   1.789  11.032  0.6418 -1.8093 -0.9144
  473MOL0     H65226   7.414   1.670  10.789 -0.4751 -0.4432  1.4841
  473MOL0     H65227   7.465   1.837  10.804  2.7326  0.2931 -1.1656
  473MOL0     H65228   7.688   1.780  10.841 -0.8657 -0.5927  2.2390
  473MOL0     H65229   7.659   1.601  10.822  3.0492  1.0650 -2.0046
  473MOL0     H65230   7.570   1.693  10.580  0.0201 -1.1850 -0.4450
  473MOL0     H65231   7.637   1.842  10.623  0.0203  0.7287  2.6198
  473MOL0     H65232   8.026   1.643  10.514  0.3543 -3.1458 -3.1040
  473MOL0     H65233   8.173   1.671  10.194  1.7537 -0.9326  0.4625
  473MOL0     H65234   8.174   1.599  10.349 -0.8751 -2.3131 -4.1973
  473MOL0     H65235   8.243   1.766  10.324  0.9395  1.0302 -3.5488
  473MOL0     H65236   7.816   1.869   9.803  0.5394  0.0354  0.0554
  473MOL0     H65237   7.891   1.802   9.566  0.2222 -2.4549  0.1023
  473MOL0     H65238   8.313   1.834   9.472 -0.1315 -0.3222  4.9269
  473MOL0     H65239   8.325   1.666   9.508  1.5778  2.2917 -0.0329
  473MOL0     H65240   8.364   1.680   9.287  0.0838 -1.0780  3.7624
  473MOL0     H65241   8.199   1.612   9.296 -0.8888 -0.5505  1.2852
  473MOL0     H65242   8.273   1.907   9.225 -0.8643  0.6838 -1.1290
  473MOL0     H65243   8.119   1.873   9.272  1.3436  3.3416  0.3104
  473MOL0     H65244   8.215   1.714   9.024 -2.6841 -0.2115 -0.6707
  473MOL0     H65245   8.203   1.895   9.019 -1.1423  1.7962  1.1311
  473MOL0     H65246   7.997   1.900   9.086  0.0690 -0.6389  0.5942
  473MOL0     H65247   8.021   1.812   8.937  1.3746 -0.7094 -0.6812
  473MOL0     H65248   7.972   1.677   9.209  0.3723 -0.9031  0.3874
  473MOL0     H65249   7.981   1.597   9.056  0.3018  0.5042  2.4321
  473MOL0     H65250   7.753   1.600   9.081 -3.6434  0.4760 -1.0415
  473MOL0     H65251   7.787   1.728   8.963 -1.1996 -5.1681 -1.5703
  473MOL0     H65252   7.614   1.794   9.134  0.4239 -2.3328 -3.5100
  473MOL0     H65253   7.758   1.888   9.156  1.2170 -0.5432 -0.3745
  473MOL0     H65254   8.275   1.737   9.709 -1.5791 -0.9035 -2.2195
  473MOL0     H65255   8.192   1.814   9.948 -1.9828  0.9154  1.0502
  473MOL0     H65256   7.772   1.968  10.233 -2.0451 -0.5077  1.4731
  473MOL0     H65257   7.672   1.892  10.430  0.8970  0.9685 -1.3923
  473MOL0     H65258   6.264   2.449  11.346  1.1526  1.1752  2.4407
  473MOL0     H65259   6.071   2.273  11.391 -1.4273 -4.6522  1.2159
  473MOL0     H65260   6.078   1.681  11.299  0.2047  0.1662  0.5621
  473MOL0     H65261   5.886   1.536  11.304  3.9819  0.6655 -1.3170
  473MOL0     H65262   5.642   1.499  11.221 -0.0759  2.3653  0.0354
  473MOL0     H65263   5.689   1.454  11.379 -1.1911 -2.1587 -0.2574
  473MOL0     H65264   5.392   1.529  11.318 -0.9509 -0.1085  0.1579
  473MOL0     H65265   5.471   1.445  11.463 -0.5611 -0.2186  0.0727
  473MOL0     H65266   5.369   1.287  11.260  0.8728 -1.3724  0.3622
  473MOL0     H65267   5.537   1.297  11.213  1.3524 -4.2839  0.8457
  473MOL0     H65268   5.439   1.178  11.473  0.5330  0.8811  0.6293
  473MOL0     H65269   5.602   1.236  11.444  0.6694 -0.8780  1.0870
  473MOL0     H65270   5.580   0.883  11.208  0.2859  0.3420 -0.3801
  473MOL0     H65271   5.635   1.881  11.404 -2.0980 -3.1398 -2.2292
  473MOL0     H65272   5.859   2.113  11.479  2.1494 -1.0807 -1.1122
  473MOL0     H65273   5.870   2.112  11.295 -0.3617  0.0765 -0.3803
  473MOL0     H65274   5.727   2.102  11.359  0.0074  1.3713 -0.5245
  474MOL0     O65275   6.498  10.010   9.849 -0.2614 -0.6823 -0.8407
  474MOL0     C65276   6.518  10.064   9.958 -0.0819  0.4665  0.3326
  474MOL0     O65277   6.636  10.071  10.019  0.3469  0.0717  0.2621
  474MOL0     C65278   6.723   9.969   9.985  0.2664 -0.3938 -0.9264
  474MOL0     C65279   6.808   9.991   9.880 -0.2957  0.0862  0.3921
  474MOL0     C65280   6.906   9.901   9.835  0.3043 -0.5191  0.3729
  474MOL0     C65281   6.922   9.787   9.916  0.0830 -0.3149 -0.4056
  474MOL0     O65282   6.996   9.683   9.873 -0.5863 -0.0036  0.5054
  474MOL0     C65283   7.046   9.686   9.742 -0.2990 -0.4391 -1.0059
  474MOL0     C65284   7.118   9.550   9.734 -0.5536  0.0485  1.1108
  474MOL0     C65285   7.249   9.547   9.786  0.2335 -0.0599  0.1259
  474MOL0     C65286   7.331   9.422   9.749  0.2329 -0.7488 -0.7478
  474MOL0     C65287   7.479   9.426   9.789 -0.4563  0.2103 -0.8686
  474MOL0     C65288   7.505   9.430   9.941  0.0070  1.0284  0.1975
  474MOL0     C65289   7.443   9.315  10.030 -0.1004 -0.6856  0.5856
  474MOL0     C65290   7.471   9.168   9.982  0.3778 -1.0590 -0.8433
  474MOL0     N65291   7.608   9.141   9.953 -0.5338 -0.1616 -1.1197
  474MOL0     C65292   7.712   9.133  10.045  1.1775  0.0262  0.3666
  474MOL0     C65293   7.823   9.084   9.986  0.2870  0.4246  0.5852
  474MOL0     C65294   7.958   9.054  10.046 -0.0815  0.0240  0.9893
  474MOL0     C65295   7.967   8.912  10.106  0.0883 -0.0210 -0.7471
  474MOL0     C65296   7.968   8.794  10.003 -0.6577  0.0305 -0.3665
  474MOL0     C65297   8.023   8.667  10.076  0.9804 -0.5773 -0.8781
  474MOL0     O65298   8.161   8.689  10.110 -0.2389 -0.1998  0.2974
  474MOL0     C65299   8.211   8.625  10.217 -0.5686  0.3940 -0.7076
  474MOL0     C65300   8.175   8.495  10.259 -0.7310  0.4365  0.7943
  474MOL0     C65301   8.225   8.425  10.359  0.4304  0.2869 -0.1723
  474MOL0     C65302   8.167   8.279  10.370  1.0461 -0.3962  0.0177
  474MOL0     C65303   8.320   8.482  10.448  0.2619  0.1789 -0.6942
  474MOL0     C65304   8.373   8.408  10.556  0.3303 -0.3023 -0.0915
  474MOL0     O65305   8.432   8.287  10.530 -0.7379 -0.1134 -1.5939
  474MOL0     C65306   8.469   8.214  10.644  1.1327 -0.2519 -0.6161
  474MOL0     C65307   8.404   8.095  10.685  0.5974 -0.5651 -0.1670
  474MOL0     C65308   8.446   8.009  10.790 -0.1724 -0.7396 -0.6385
  474MOL0     C65309   8.562   8.052  10.860 -0.0948 -0.8445 -0.0047
  474MOL0     O65310   8.603   7.967  10.961  0.5352 -0.5602  0.0854
  474MOL0     C65311   8.718   8.003  11.039  0.3543 -0.4395  0.0723
  474MOL0     C65312   8.719   7.910  11.159  0.1428  0.2316 -1.2420
  474MOL0     C65313   8.853   7.938  11.231  0.4952 -0.5447 -0.5081
  474MOL0     C65314   8.854   7.877  11.367 -0.7854 -0.2389 -0.6007
  474MOL0     C65315   8.976   7.927  11.445 -0.1895  0.3536 -0.6758
  474MOL0     C65316   8.979   7.862  11.580  1.0374  0.6186  0.2230
  474MOL0     C65317   9.122   7.842  11.642 -0.7553 -0.2148  0.2027
  474MOL0     C65318   9.127   7.772  11.783  0.8771  0.5214 -0.1136
  474MOL0    Cl65319   9.089   7.600  11.776  0.2828  0.1944  0.2705
  474MOL0     C65320   8.618   8.179  10.827 -0.2016 -0.8278 -0.5499
  474MOL0     C65321   8.570   8.262  10.728 -0.5891 -0.4180 -0.2002
  474MOL0     O65322   8.372   8.467  10.666  0.0663 -0.7410  0.1858
  474MOL0     C65323   8.358   8.620  10.415 -0.1086  0.7704 -0.1502
  474MOL0     C65324   8.305   8.684  10.304  0.6959  0.6633 -0.2544
  474MOL0     N65325   7.785   9.056   9.854  0.3026 -0.2307 -0.2808
  474MOL0     N65326   7.666   9.101   9.837  0.7088 -0.2418 -0.1112
  474MOL0     C65327   6.844   9.765  10.026 -0.6902  0.2486  0.0568
  474MOL0     C65328   6.741   9.853  10.048  0.3968  1.0132 -0.5413
  474MOL0     C65329   6.405  10.125  10.035  0.9608 -0.3940  0.3002
  474MOL0     C65330   6.410  10.130  10.176  0.1042  0.8943  0.0260
  474MOL0     C65331   6.294  10.188  10.250 -0.5146  0.2828  1.0004
  474MOL0     C65332   6.194  10.247  10.183  1.2213  0.1908  0.1022
  474MOL0     O65333   6.087  10.281  10.266  0.1310 -0.0669 -0.4283
  474MOL0     C65334   6.013  10.395  10.208  0.5905 -0.0895 -0.2531
  474MOL0     C65335   5.945  10.459  10.330 -0.1218 -0.4452  0.4674
  474MOL0     C65336   5.864  10.581  10.294 -0.1664 -0.1809  0.1600
  474MOL0     C65337   5.781  10.585  10.166  0.3196  0.2527 -0.0408
  474MOL0     C65338   5.733  10.719  10.132 -1.1462  0.4564  0.5857
  474MOL0     C65339   5.704  10.828  10.096 -1.3785 -0.3541  0.5827
  474MOL0     C65340   6.194  10.258  10.050  0.3575  0.5239  0.2328
  474MOL0     C65341   6.300  10.203   9.973  0.0034 -0.0197  0.9249
  474MOL0     C65342   6.291  10.226   9.821 -0.4767 -0.4449  1.0958
  474MOL0     H65343   6.801  10.086   9.827 -0.9915  0.1436  0.5759
  474MOL0     H65344   6.956   9.918   9.740  1.7954  0.0818  1.2222
  474MOL0     H65345   7.118   9.767   9.729 -0.8612  0.6266  1.6880
  474MOL0     H65346   6.959   9.698   9.677 -0.0035  3.1503 -0.9358
  474MOL0     H65347   7.062   9.477   9.794  1.5059 -2.3445  0.2851
  474MOL0     H65348   7.122   9.519   9.629 -2.1609  1.7304  0.4925
  474MOL0     H65349   7.296   9.638   9.747  2.0461 -1.6820 -1.6803
  474MOL0     H65350   7.244   9.559   9.895 -3.9389 -1.3641  0.2709
  474MOL0     H65351   7.293   9.328   9.790 -1.6098 -0.8593 -2.5615
  474MOL0     H65352   7.321   9.409   9.641 -1.1052  1.3024 -0.9019
  474MOL0     H65353   7.516   9.520   9.746 -2.5771  0.9947 -1.0739
  474MOL0     H65354   7.532   9.344   9.741  0.2960 -0.8601  1.6152
  474MOL0     H65355   7.613   9.434   9.961 -0.1542  0.7690  1.1867
  474MOL0     H65356   7.466   9.526   9.975 -0.0791  0.8190  0.7092
  474MOL0     H65357   7.336   9.338  10.044  0.3224  0.4455  2.3629
  474MOL0     H65358   7.494   9.335  10.125  3.2280 -2.1478 -0.7484
  474MOL0     H65359   7.437   9.104  10.064 -1.0173  0.3331 -0.2859
  474MOL0     H65360   7.413   9.148   9.891  0.3193 -1.7883 -0.6516
  474MOL0     H65361   7.725   9.190  10.137 -1.5709 -0.1188  0.9404
  474MOL0     H65362   7.983   9.127  10.123  0.2701  0.2963  0.6238
  474MOL0     H65363   8.032   9.059   9.965 -1.6333 -0.2301 -0.4967
  474MOL0     H65364   8.051   8.903  10.176 -2.1735 -0.8722  2.0509
  474MOL0     H65365   7.875   8.908  10.164  0.5864 -0.2295  0.0498
  474MOL0     H65366   7.863   8.780   9.978 -2.0453  5.4338  1.1152
  474MOL0     H65367   8.021   8.809   9.908 -0.2232 -3.2222 -0.7482
  474MOL0     H65368   7.961   8.644  10.163  0.6022  1.9481 -0.3912
  474MOL0     H65369   8.017   8.582  10.008 -1.5616  0.8619 -2.6572
  474MOL0     H65370   8.094   8.452  10.200 -0.1594  0.9490 -0.4151
  474MOL0     H65371   8.176   8.250  10.475 -0.6263 -0.3200  0.2162
  474MOL0     H65372   8.239   8.216  10.318  3.8073  1.7641  0.9483
  474MOL0     H65373   8.067   8.276  10.325  1.7514  1.1048 -1.7593
  474MOL0     H65374   8.322   8.074  10.617  0.2137  0.3795 -0.0178
  474MOL0     H65375   8.397   7.917  10.818 -1.8805 -0.0572 -1.2440
  474MOL0     H65376   8.803   7.977  10.975  1.5631 -0.5493  1.6445
  474MOL0     H65377   8.714   8.104  11.081 -0.8414 -1.2352  2.0239
  474MOL0     H65378   8.632   7.917  11.226 -2.4218 -1.5220 -4.1214
  474MOL0     H65379   8.715   7.804  11.131  1.8101 -1.4805  3.9439
  474MOL0     H65380   8.856   8.046  11.248 -1.6374 -0.5180  0.0062
  474MOL0     H65381   8.945   7.917  11.175  1.2607 -0.7233  0.7747
  474MOL0     H65382   8.860   7.767  11.367 -1.0845 -0.2574  0.2430
  474MOL0     H65383   8.761   7.911  11.412 -1.5518 -2.1487 -0.6334
  474MOL0     H65384   9.065   7.916  11.382 -2.1933  0.1036 -3.6962
  474MOL0     H65385   8.969   8.034  11.466 -0.8446  0.1431  0.2029
  474MOL0     H65386   8.928   7.765  11.586  0.0802  0.9609 -1.5891
  474MOL0     H65387   8.929   7.932  11.648  0.6973 -1.1286  1.8560
  474MOL0     H65388   9.174   7.937  11.653  0.5184 -0.5422 -2.3150
  474MOL0     H65389   9.177   7.777  11.573 -0.8417 -0.5420  0.4373
  474MOL0     H65390   9.062   7.820  11.857 -1.6210  1.7012 -2.9150
  474MOL0     H65391   9.230   7.765  11.821  0.1183  1.1641  2.2408
  474MOL0     H65392   8.698   8.214  10.891 -0.6005 -3.7092  1.7084
  474MOL0     H65393   8.611   8.356  10.692 -0.6005  0.2048  1.3092
  474MOL0     H65394   8.437   8.673  10.467  1.8253  0.1173 -2.2747
  474MOL0     H65395   8.328   8.787  10.276  0.0455  0.6808 -0.7357
  474MOL0     H65396   6.864   9.672  10.078  2.0403 -0.3984 -1.8853
  474MOL0     H65397   6.671   9.823  10.126 -0.1877  2.4585 -0.4834
  474MOL0     H65398   6.494  10.083  10.226 -0.9747 -0.9293  0.2196
  474MOL0     H65399   6.311  10.196  10.357  0.1162 -0.7045  0.9802
  474MOL0     H65400   6.078  10.466  10.156  1.1439  0.5680  1.2957
  474MOL0     H65401   5.943  10.349  10.137  1.3880  2.5819 -2.9809
  474MOL0     H65402   6.021  10.503  10.395  1.3017 -0.0956 -1.3626
  474MOL0     H65403   5.875  10.398  10.388 -2.8677  1.4415 -0.6726
  474MOL0     H65404   5.793  10.593  10.376 -0.2968 -3.1139  0.5781
  474MOL0     H65405   5.926  10.671  10.296 -0.9702  0.3851  1.6161
  474MOL0     H65406   5.687  10.531  10.179  1.1426 -1.3476 -0.4665
  474MOL0     H65407   5.836  10.535  10.086 -0.1771  0.3920 -0.4755
  474MOL0     H65408   5.688  10.929  10.065 -1.3682 -0.5052  0.0770
  474MOL0     H65409   6.110  10.300   9.995 -0.3778  0.0747  0.9759
  474MOL0     H65410   6.364  10.293   9.775 -3.4798  1.4642 -1.2478
  474MOL0     H65411   6.300  10.137   9.759  0.0371  2.6487 -3.8033
  474MOL0     H65412   6.196  10.273   9.794  0.4284  1.7375  1.4812
  475MOL0     O65413   8.072   2.978   3.698  0.1997 -0.8252  0.1517
  475MOL0     C65414   8.020   2.891   3.626  0.0170 -0.9367 -0.4937
  475MOL0     O65415   7.888   2.881   3.610  0.2242  0.8855 -0.5513
  475MOL0     C65416   7.800   2.962   3.682 -0.6682  0.8387 -0.7879
  475MOL0     C65417   7.817   3.098   3.671  0.8622  0.1025 -0.1583
  475MOL0     C65418   7.741   3.184   3.748  0.0050 -0.1554 -0.5490
  475MOL0     C65419   7.644   3.134   3.840  0.0809 -0.2502 -0.3509
  475MOL0     O65420   7.558   3.210   3.910 -0.8634  0.8664 -0.4682
  475MOL0     C65421   7.553   3.350   3.896  0.0965  0.0230 -0.0951
  475MOL0     C65422   7.462   3.416   4.002  0.3865  0.8843  0.0792
  475MOL0     C65423   7.315   3.400   3.947 -0.1146 -0.6512 -0.0260
  475MOL0     C65424   7.211   3.424   4.052  0.0207  0.4021  0.6465
  475MOL0     C65425   7.071   3.376   4.024 -0.0404  0.3536 -0.1324
  475MOL0     C65426   6.960   3.403   4.120  0.6642  0.7126 -0.6283
  475MOL0     C65427   6.830   3.320   4.103  1.6991  0.6595  0.1338
  475MOL0     C65428   6.717   3.397   4.034 -0.4491 -0.3464  0.4892
  475MOL0     N65429   6.693   3.525   4.094  0.2822 -0.5192 -0.1702
  475MOL0     C65430   6.627   3.553   4.207 -0.2092 -0.7524 -0.5300
  475MOL0     C65431   6.649   3.692   4.229 -0.9906  0.6552  0.8460
  475MOL0     C65432   6.622   3.775   4.344  0.9912  0.4509 -0.5604
  475MOL0     C65433   6.555   3.917   4.304  0.3354  0.8454  0.8010
  475MOL0     C65434   6.419   3.891   4.246 -0.4259 -0.2697 -1.0224
  475MOL0     C65435   6.362   4.014   4.165  0.0088 -0.2295  0.4260
  475MOL0     O65436   6.348   4.130   4.255 -0.2724  0.4942  0.3280
  475MOL0     C65437   6.272   4.115   4.370  0.9184  0.7274 -0.5813
  475MOL0     C65438   6.327   4.142   4.490 -0.2749 -0.2561  0.4580
  475MOL0     C65439   6.262   4.159   4.612 -0.0787  0.0683  0.0845
  475MOL0     C65440   6.343   4.217   4.728 -0.4474  0.3251 -0.2221
  475MOL0     C65441   6.120   4.149   4.614  0.3373 -0.6778  0.0966
  475MOL0     C65442   6.030   4.201   4.731 -0.6236 -0.4461  0.1048
  475MOL0     O65443   6.078   4.296   4.816 -0.6109 -0.0549  0.1997
  475MOL0     C65444   6.005   4.333   4.930  0.1502  0.8331  0.6238
  475MOL0     C65445   5.864   4.352   4.936 -0.2995  0.2315  0.4507
  475MOL0     C65446   5.802   4.394   5.049 -0.3549 -0.0453 -0.1867
  475MOL0     C65447   5.868   4.425   5.165  0.2707 -0.2838  0.3641
  475MOL0     O65448   5.807   4.453   5.283 -0.3934 -0.5729  0.6311
  475MOL0     C65449   5.659   4.453   5.287 -0.3078 -0.5371  0.4242
  475MOL0     C65450   5.618   4.458   5.430 -0.1938 -0.6717 -0.3894
  475MOL0     C65451   5.656   4.572   5.525 -0.2748 -0.0740  0.9400
  475MOL0     C65452   5.544   4.687   5.537 -0.6255  0.2790 -0.7148
  475MOL0     C65453   5.518   4.758   5.400  1.0974  0.3425 -0.1480
  475MOL0     C65454   5.429   4.882   5.422 -0.3743  0.5161  0.0216
  475MOL0     C65455   5.403   4.961   5.286  0.3679 -0.4790 -0.4785
  475MOL0     C65456   5.288   5.062   5.300  0.0457  0.3901 -0.4901
  475MOL0    Cl65457   5.274   5.142   5.150  0.0853  0.0127 -0.4513
  475MOL0     C65458   6.007   4.399   5.164 -0.8019 -0.4041 -0.5120
  475MOL0     C65459   6.071   4.351   5.054 -0.9430 -1.2587  0.1986
  475MOL0     O65460   5.921   4.153   4.731 -0.0464  0.0460  0.3076
  475MOL0     C65461   6.053   4.123   4.494  0.8125 -0.1547  1.6975
  475MOL0     C65462   6.131   4.096   4.376 -0.0103 -0.2295 -0.6007
  475MOL0     N65463   6.724   3.739   4.122  0.0154 -0.0552  0.3330
  475MOL0     N65464   6.747   3.639   4.042  0.5319  0.4277 -0.2640
  475MOL0     C65465   7.626   2.997   3.846 -0.6251  0.5842  0.5055
  475MOL0     C65466   7.714   2.909   3.783 -0.2547  0.0402  0.1414
  475MOL0     C65467   8.116   2.803   3.558 -0.5609  0.1334 -0.2079
  475MOL0     C65468   8.249   2.819   3.571 -0.2068 -0.3385  0.0917
  475MOL0     C65469   8.335   2.739   3.491  0.0926 -0.7077 -0.0256
  475MOL0     C65470   8.287   2.633   3.411  0.3056 -0.5557  1.2534
  475MOL0     O65471   8.383   2.565   3.348 -0.1138 -0.4986 -0.0866
  475MOL0     C65472   8.341   2.479   3.236  0.0916  0.1965  0.1297
  475MOL0     C65473   8.430   2.519   3.121  0.1228  0.6331 -0.3071
  475MOL0     C65474   8.577   2.494   3.163  0.6640  0.3456 -0.3364
  475MOL0     C65475   8.673   2.543   3.061  0.2707  0.0581 -0.8149
  475MOL0     C65476   8.807   2.494   3.087 -0.3141 -0.3561  0.0485
  475MOL0     C65477   8.922   2.457   3.103  0.1705  0.1081 -1.3412
  475MOL0     C65478   8.151   2.625   3.395 -0.0216  1.3235  0.4888
  475MOL0     C65479   8.066   2.699   3.474 -0.9389  0.1376 -0.2998
  475MOL0     C65480   7.917   2.651   3.445 -0.4872  0.4851 -0.8335
  475MOL0     H65481   7.894   3.140   3.607  2.3558 -1.8056  0.2725
  475MOL0     H65482   7.751   3.291   3.735 -1.1656  0.4442  2.5192
  475MOL0     H65483   7.523   3.376   3.794 -2.9455 -0.5614  0.5713
  475MOL0     H65484   7.654   3.393   3.905 -0.1079  0.4182  0.3339
  475MOL0     H65485   7.481   3.378   4.103  1.0706  2.3674  0.5487
  475MOL0     H65486   7.486   3.523   3.999  1.6389  0.6113 -3.2819
  475MOL0     H65487   7.300   3.470   3.864  3.7298 -0.1936 -0.5156
  475MOL0     H65488   7.310   3.295   3.919 -0.0190 -1.6473  3.3147
  475MOL0     H65489   7.243   3.366   4.140  2.4578 -0.2414 -0.5904
  475MOL0     H65490   7.211   3.530   4.077 -1.8810  0.2225  1.6296
  475MOL0     H65491   7.078   3.268   4.007 -2.6927  0.1421 -0.3770
  475MOL0     H65492   7.027   3.418   3.933 -1.8152 -0.7285  0.1718
  475MOL0     H65493   7.002   3.377   4.218  1.3623  0.7086 -0.9229
  475MOL0     H65494   6.939   3.507   4.146  2.2048  1.5504 -2.5112
  475MOL0     H65495   6.788   3.286   4.198  2.0819  0.7609  0.3415
  475MOL0     H65496   6.844   3.231   4.040 -1.1204 -2.0692  2.9979
  475MOL0     H65497   6.746   3.417   3.931  0.8072 -0.7070  0.7564
  475MOL0     H65498   6.634   3.327   4.019  0.2222 -0.6703 -2.1285
  475MOL0     H65499   6.566   3.482   4.262  1.4546 -0.8547  1.2947
  475MOL0     H65500   6.703   3.800   4.412 -1.8231  1.1512  2.8531
  475MOL0     H65501   6.552   3.713   4.402  0.0575  1.3583 -0.6970
  475MOL0     H65502   6.553   3.981   4.392 -1.0404  0.8041  0.8316
  475MOL0     H65503   6.626   3.954   4.230 -1.7270 -1.9062 -2.9016
  475MOL0     H65504   6.427   3.805   4.180  0.8456 -1.4536  0.5852
  475MOL0     H65505   6.344   3.863   4.321  0.2609 -0.5687 -0.4378
  475MOL0     H65506   6.422   4.049   4.080 -2.0922 -1.0394 -1.4591
  475MOL0     H65507   6.259   3.990   4.138 -0.0355 -1.9004  1.9010
  475MOL0     H65508   6.430   4.176   4.497 -0.8408  1.9956 -1.1373
  475MOL0     H65509   6.444   4.176   4.718 -1.0108 -1.3528  0.5225
  475MOL0     H65510   6.303   4.160   4.813  2.5082 -1.2960  0.2361
  475MOL0     H65511   6.341   4.325   4.740  2.5120  0.2290  2.7149
  475MOL0     H65512   5.796   4.335   4.853  0.9560 -1.7478 -0.2545
  475MOL0     H65513   5.694   4.395   5.039 -0.4885 -1.6290  0.8327
  475MOL0     H65514   5.624   4.530   5.217 -0.0482 -2.0438 -1.4300
  475MOL0     H65515   5.621   4.360   5.246  0.0803  0.0116 -1.2370
  475MOL0     H65516   5.508   4.463   5.430 -0.1864  2.7967  1.3241
  475MOL0     H65517   5.651   4.365   5.477  0.2055  0.2850  1.3241
  475MOL0     H65518   5.753   4.611   5.492  0.0809 -1.5408  0.1490
  475MOL0     H65519   5.669   4.530   5.625 -2.8451 -0.6797  1.0875
  475MOL0     H65520   5.583   4.754   5.614  0.0051 -2.5534  1.5865
  475MOL0     H65521   5.452   4.649   5.581 -1.1907  0.3338 -1.8053
  475MOL0     H65522   5.611   4.788   5.351  0.5181 -0.1061 -1.5817
  475MOL0     H65523   5.462   4.701   5.326  1.0306  0.2675 -0.0394
  475MOL0     H65524   5.471   4.962   5.484  0.2292  1.9452 -2.1143
  475MOL0     H65525   5.332   4.862   5.470 -0.3317  3.2518  1.4345
  475MOL0     H65526   5.384   4.885   5.210  0.8479 -1.4466  0.3411
  475MOL0     H65527   5.494   5.011   5.251  1.7086 -0.7854  2.2892
  475MOL0     H65528   5.299   5.116   5.394 -3.2956 -1.0806  0.9306
  475MOL0     H65529   5.204   4.993   5.315  1.9902 -2.4868 -1.8074
  475MOL0     H65530   6.064   4.430   5.251 -2.9801  1.3349  0.4130
  475MOL0     H65531   6.177   4.331   5.068 -0.0984  0.6309 -2.7028
  475MOL0     H65532   5.946   4.131   4.483  1.1508  1.7283 -2.0708
  475MOL0     H65533   6.077   4.077   4.283 -1.9287 -0.2273  0.4628
  475MOL0     H65534   7.547   2.961   3.910 -2.0246  1.7907 -0.4826
  475MOL0     H65535   7.709   2.801   3.798  1.8383 -0.2629 -0.9752
  475MOL0     H65536   8.286   2.906   3.625 -1.8379  1.0430 -0.9111
  475MOL0     H65537   8.440   2.756   3.510  0.0063 -0.8877  0.6474
  475MOL0     H65538   8.363   2.372   3.241 -2.2099 -0.5073 -2.0941
  475MOL0     H65539   8.234   2.481   3.212  0.1832 -0.7928 -0.3973
  475MOL0     H65540   8.416   2.626   3.106  0.9664  0.9813  1.1587
  475MOL0     H65541   8.412   2.463   3.029 -2.4825 -1.7207  1.4362
  475MOL0     H65542   8.595   2.540   3.260 -0.1694 -2.3708  1.2030
  475MOL0     H65543   8.599   2.387   3.160 -0.3858  0.1124 -0.2042
  475MOL0     H65544   8.675   2.652   3.049  0.7260  0.3588  1.5587
  475MOL0     H65545   8.646   2.494   2.967 -1.2980 -3.7833  1.3923
  475MOL0     H65546   9.024   2.428   3.117  0.0238  0.4092  0.6909
  475MOL0     H65547   8.101   2.557   3.326 -1.2053  0.6204  1.9605
  475MOL0     H65548   7.864   2.626   3.537  0.6071  2.2550  0.3415
  475MOL0     H65549   7.863   2.736   3.401  2.8849  2.1546 -2.0955
  475MOL0     H65550   7.916   2.565   3.378 -0.2399 -0.0535 -0.1485
  476MOL0     O65551   8.789   6.828   9.389 -0.3656  0.1519  0.4569
  476MOL0     C65552   8.892   6.769   9.365  0.3136  0.4077 -0.0515
  476MOL0     O65553   8.900   6.673   9.274  0.0808 -0.7220  0.3333
  476MOL0     C65554   8.782   6.626   9.226  0.2334  0.5798  0.6182
  476MOL0     C65555   8.749   6.656   9.097 -0.3600  0.9196 -0.2636
  476MOL0     C65556   8.628   6.608   9.044 -0.3076  0.1889  0.5301
  476MOL0     C65557   8.536   6.537   9.118 -0.0762 -0.0594  0.2866
  476MOL0     O65558   8.423   6.486   9.059  0.7658  1.1064  0.0216
  476MOL0     C65559   8.419   6.469   8.914 -0.0510  0.0504 -0.4866
  476MOL0     C65560   8.289   6.409   8.869  0.4434 -0.0487  0.8515
  476MOL0     C65561   8.174   6.507   8.886  0.7702  0.1688  0.8382
  476MOL0     C65562   8.035   6.471   8.833  0.7906  0.4880 -0.0693
  476MOL0     C65563   7.927   6.573   8.886  0.9916 -0.6540  1.1238
  476MOL0     C65564   7.788   6.534   8.849  0.6770  0.4865  0.0506
  476MOL0     C65565   7.687   6.633   8.893 -0.0400 -0.5841 -0.0747
  476MOL0     C65566   7.644   6.612   9.044  0.7867  0.0136 -0.6815
  476MOL0     N65567   7.563   6.726   9.084 -0.3687  0.2917 -0.2964
  476MOL0     C65568   7.612   6.843   9.129  0.0454  1.0973 -0.8734
  476MOL0     C65569   7.508   6.929   9.101 -0.5218  0.0761 -0.1145
  476MOL0     C65570   7.508   7.079   9.137  0.2882 -0.1313 -0.1506
  476MOL0     C65571   7.623   7.140   9.067  0.2842 -0.1621  0.2863
  476MOL0     C65572   7.604   7.174   8.918  1.3823 -0.8750 -0.9943
  476MOL0     C65573   7.711   7.259   8.853 -0.8293 -0.4729  0.3794
  476MOL0     O65574   7.843   7.208   8.882  0.6759  0.3450  0.2070
  476MOL0     C65575   7.952   7.261   8.815 -0.2054 -1.2585 -0.8431
  476MOL0     C65576   7.955   7.357   8.713  0.9413  0.9056 -0.8174
  476MOL0     C65577   8.071   7.374   8.644 -0.4025 -0.3891  0.0391
  476MOL0     C65578   8.043   7.464   8.527 -0.1021  0.2300  0.0563
  476MOL0     C65579   8.201   7.323   8.679  0.2614 -1.2186  0.4645
  476MOL0     C65580   8.326   7.372   8.624  0.0160 -0.5846  0.3545
  476MOL0     O65581   8.439   7.351   8.700  0.4383  0.0152  0.2423
  476MOL0     C65582   8.559   7.424   8.690  0.4904  0.3691  0.3768
  476MOL0     C65583   8.678   7.372   8.739 -1.1110  0.0715  0.2836
  476MOL0     C65584   8.802   7.436   8.729  0.3826 -0.2010  0.2152
  476MOL0     C65585   8.819   7.563   8.662  0.8537  0.1473  0.6249
  476MOL0     O65586   8.931   7.640   8.654 -0.4726  0.0592 -0.4063
  476MOL0     C65587   9.053   7.584   8.700  0.0998 -0.3297 -0.7917
  476MOL0     C65588   9.166   7.681   8.697  0.0569  0.3941 -0.0274
  476MOL0     C65589   9.132   7.815   8.757  0.4053 -0.3260 -0.4507
  476MOL0     C65590   9.138   7.800   8.900  0.0200 -0.4665 -0.2677
  476MOL0     C65591   9.131   7.928   8.982 -0.3279  0.4676  0.4189
  476MOL0     C65592   9.204   7.928   9.117 -0.3194 -0.4615 -0.0365
  476MOL0     C65593   9.146   8.027   9.212  0.1060 -0.1648 -0.2003
  476MOL0     C65594   9.212   8.024   9.350  0.3162  0.0608  0.7684
  476MOL0    Cl65595   9.142   7.880   9.437  0.0552  0.3656  0.0306
  476MOL0     C65596   8.694   7.617   8.616 -0.4914 -0.6419  0.2060
  476MOL0     C65597   8.578   7.547   8.626 -0.2416 -0.7676  0.2299
  476MOL0     O65598   8.335   7.408   8.503 -0.0341  0.7055 -0.2910
  476MOL0     C65599   8.197   7.241   8.790 -0.5159  0.9235  0.6962
  476MOL0     C65600   8.075   7.204   8.851 -1.0210 -0.1129  0.3026
  476MOL0     N65601   7.404   6.859   9.044  0.0725  0.5098 -0.0851
  476MOL0     N65602   7.436   6.735   9.036 -0.4117 -0.2851  0.7434
  476MOL0     C65603   8.555   6.527   9.256  0.0375  0.3506 -0.4848
  476MOL0     C65604   8.687   6.554   9.301 -0.3077  0.7826  0.6673
  476MOL0     C65605   9.014   6.818   9.416 -0.8812 -0.1818 -0.0166
  476MOL0     C65606   9.126   6.782   9.344  0.1441 -0.6295  0.1771
  476MOL0     C65607   9.256   6.825   9.375  0.5298 -0.1037  0.1314
  476MOL0     C65608   9.269   6.907   9.485 -1.2610 -0.5661 -0.0104
  476MOL0     O65609   9.385   6.967   9.521  0.2738  0.9204  1.0022
  476MOL0     C65610   9.450   6.906   9.629 -0.8561  0.5067  0.5872
  476MOL0     C65611   9.600   6.881   9.590 -0.3795  0.6637  0.7735
  476MOL0     C65612   9.626   6.771   9.495 -0.7852  0.7445  0.7280
  476MOL0     C65613   9.774   6.780   9.443 -0.1353  0.2532 -0.3410
  476MOL0     C65614   9.787   6.656   9.366  0.0230 -0.1431  0.0039
  476MOL0     C65615   9.782   6.556   9.304 -0.8039  0.4006 -0.2021
  476MOL0     C65616   9.155   6.947   9.561  0.3640 -0.3127  0.3535
  476MOL0     C65617   9.023   6.893   9.543 -0.5191  0.3891  1.2701
  476MOL0     C65618   8.917   6.908   9.636 -0.2328  0.8459 -0.6057
  476MOL0     H65619   8.817   6.703   9.026 -0.9012  2.5252  0.2526
  476MOL0     H65620   8.619   6.616   8.936 -2.3452 -2.0616  0.4426
  476MOL0     H65621   8.498   6.398   8.887 -2.3806 -3.5315  1.3986
  476MOL0     H65622   8.433   6.564   8.862 -1.2837  0.8186  0.5458
  476MOL0     H65623   8.305   6.367   8.769 -3.3255 -0.7830  0.3840
  476MOL0     H65624   8.270   6.318   8.927  0.0107 -1.8937 -1.9411
  476MOL0     H65625   8.164   6.530   8.992 -1.8775 -0.0980  0.7074
  476MOL0     H65626   8.207   6.596   8.831 -0.3706  0.0801 -0.0239
  476MOL0     H65627   8.038   6.461   8.724  0.9919 -4.1191  0.1289
  476MOL0     H65628   8.018   6.376   8.886  1.7587 -0.2802 -1.0852
  476MOL0     H65629   7.932   6.672   8.839 -0.7644 -0.6420  0.8858
  476MOL0     H65630   7.947   6.584   8.993  2.3087 -1.9303  1.0378
  476MOL0     H65631   7.772   6.535   8.740  0.3316  3.1987  0.0688
  476MOL0     H65632   7.765   6.438   8.896 -1.2071  1.5772  1.4529
  476MOL0     H65633   7.598   6.634   8.831  0.8024 -1.3838 -1.3310
  476MOL0     H65634   7.727   6.732   8.868  3.8717 -1.7165  0.9549
  476MOL0     H65635   7.600   6.513   9.058 -2.2969  1.5273  1.4388
  476MOL0     H65636   7.736   6.606   9.103 -0.0390 -0.4646  0.6010
  476MOL0     H65637   7.714   6.863   9.160  0.8802 -2.7481 -0.5930
  476MOL0     H65638   7.521   7.094   9.245  2.3591  1.0229 -0.5002
  476MOL0     H65639   7.414   7.122   9.101 -0.1328  0.1166  1.1812
  476MOL0     H65640   7.633   7.238   9.113 -0.7895 -0.0618  0.3202
  476MOL0     H65641   7.713   7.080   9.086 -1.0785 -1.8361  1.7866
  476MOL0     H65642   7.589   7.086   8.855 -0.3203  0.3383 -2.3636
  476MOL0     H65643   7.513   7.234   8.912 -0.5057 -2.9802  2.6783
  476MOL0     H65644   7.691   7.259   8.745  2.2689 -0.8456 -0.2646
  476MOL0     H65645   7.710   7.364   8.883 -1.2669  0.1336 -1.6059
  476MOL0     H65646   7.867   7.413   8.682  0.2754 -1.5831 -3.9620
  476MOL0     H65647   7.941   7.504   8.520  0.6943  2.4448  0.5119
  476MOL0     H65648   8.057   7.402   8.438  0.1126 -1.5443  1.2752
  476MOL0     H65649   8.103   7.554   8.517  0.0203  0.0770 -0.6598
  476MOL0     H65650   8.685   7.275   8.788 -0.5870 -0.3958 -0.6855
  476MOL0     H65651   8.886   7.380   8.769  2.0509  1.3634 -0.9650
  476MOL0     H65652   9.043   7.544   8.801 -2.0595 -2.1719 -1.6373
  476MOL0     H65653   9.084   7.500   8.636 -1.8287 -0.9748 -0.9508
  476MOL0     H65654   9.239   7.623   8.754 -1.8018 -1.5842  0.4748
  476MOL0     H65655   9.182   7.697   8.590 -1.3992  1.3473 -0.1225
  476MOL0     H65656   9.029   7.839   8.729 -1.5897 -2.2595  4.2087
  476MOL0     H65657   9.203   7.887   8.715  2.4465 -0.5568  2.3388
  476MOL0     H65658   9.238   7.760   8.916  1.5690  2.6555 -1.2907
  476MOL0     H65659   9.055   7.736   8.932 -1.2614  1.3895  0.3044
  476MOL0     H65660   9.188   8.006   8.932 -0.6903 -0.2035 -1.0856
  476MOL0     H65661   9.022   7.942   8.981 -0.6534 -1.7703 -0.4351
  476MOL0     H65662   9.311   7.944   9.108 -0.2981 -0.7964 -0.4059
  476MOL0     H65663   9.192   7.830   9.163  0.5159  0.3974  2.1458
  476MOL0     H65664   9.039   8.008   9.226  0.5939 -2.1295  1.1979
  476MOL0     H65665   9.152   8.125   9.163  0.2709 -1.1725 -2.2841
  476MOL0     H65666   9.173   8.119   9.389 -1.9152 -0.7763  0.7294
  476MOL0     H65667   9.321   8.022   9.355  0.5197  2.1148 -1.2540
  476MOL0     H65668   8.706   7.720   8.583  1.1659 -0.4774  1.1843
  476MOL0     H65669   8.488   7.599   8.595 -1.7518 -2.4179  1.6232
  476MOL0     H65670   8.293   7.198   8.818  0.2450 -1.8803 -4.7473
  476MOL0     H65671   8.075   7.144   8.941  1.0010  2.0028  1.8309
  476MOL0     H65672   8.485   6.477   9.323  1.4403  1.0240  1.5929
  476MOL0     H65673   8.714   6.516   9.400  1.9038 -0.4727 -0.3475
  476MOL0     H65674   9.119   6.718   9.257 -1.9577  0.4757 -0.5259
  476MOL0     H65675   9.341   6.791   9.317 -0.0662 -1.0298 -0.2333
  476MOL0     H65676   9.451   6.989   9.700  0.2530  3.5091 -2.6354
  476MOL0     H65677   9.408   6.811   9.663  6.1746 -3.1842  0.8163
  476MOL0     H65678   9.652   6.858   9.684 -3.3570 -1.3713  2.0650
  476MOL0     H65679   9.643   6.974   9.553 -2.0163  2.5014  3.1944
  476MOL0     H65680   9.598   6.677   9.542  0.9198 -1.3204 -2.1230
  476MOL0     H65681   9.560   6.783   9.408 -0.5547 -0.9570  0.2914
  476MOL0     H65682   9.842   6.769   9.528  2.8942  0.9872 -2.5307
  476MOL0     H65683   9.782   6.875   9.391  1.1672  1.4624  1.9252
  476MOL0     H65684   9.775   6.454   9.271 -1.9847 -0.8549  3.5076
  476MOL0     H65685   9.162   7.029   9.631  2.1372  0.5547 -0.7778
  476MOL0     H65686   8.857   6.818   9.646 -0.1549  0.9562  1.1000
  476MOL0     H65687   8.968   6.926   9.732  3.0700  1.3791 -2.3087
  476MOL0     H65688   8.858   6.999   9.620  1.8177  2.2801 -0.5620
  477MOL0     O65689   0.256   7.895   1.963  0.6536 -0.1832 -0.6866
  477MOL0     C65690   0.311   7.957   1.870 -0.6657 -0.5808 -0.2907
  477MOL0     O65691   0.296   8.089   1.840 -0.7196 -0.1263 -0.2748
  477MOL0     C65692   0.258   8.171   1.943 -0.4665 -0.6534  0.3743
  477MOL0     C65693   0.175   8.278   1.901  0.3535 -1.0712 -0.2895
  477MOL0     C65694   0.134   8.369   1.997  0.3972 -0.4485  1.4325
  477MOL0     C65695   0.184   8.370   2.121 -0.1051 -0.4211 -0.0700
  477MOL0     O65696   0.127   8.459   2.209  0.1863 -0.1687  0.2983
  477MOL0     C65697   0.069   8.405   2.329  0.1176 -0.1861  0.5349
  477MOL0     C65698   0.013   8.518   2.416 -0.5186 -0.3824 -0.2838
  477MOL0     C65699  -0.085   8.617   2.363  0.1908  0.0970  0.1925
  477MOL0     C65700  -0.113   8.741   2.453  0.1860 -0.2120 -0.4113
  477MOL0     C65701  -0.171   8.854   2.368  0.1494 -0.2180 -0.0849
  477MOL0     C65702  -0.188   8.980   2.449  0.4312  0.1479  0.5681
  477MOL0     C65703  -0.245   9.091   2.356 -0.0439 -0.5866 -0.2306
  477MOL0     C65704  -0.402   9.083   2.336  0.4245  0.3076  0.1370
  477MOL0     N65705  -0.477   9.128   2.459  0.2874 -0.0921  0.9629
  477MOL0     C65706  -0.542   9.247   2.482  0.0144  0.7336  0.6750
  477MOL0     C65707  -0.615   9.237   2.602 -0.1476 -0.4186  0.0735
  477MOL0     C65708  -0.713   9.340   2.650  0.8619  0.3483 -0.0516
  477MOL0     C65709  -0.853   9.305   2.606  0.3872  0.3639  0.8007
  477MOL0     C65710  -0.877   9.357   2.461 -0.6646  0.3029  0.6968
  477MOL0     C65711  -1.024   9.363   2.419  0.2998  0.3223 -0.0519
  477MOL0     O65712  -1.042   9.296   2.291  0.5383  0.2521  0.2052
  477MOL0     C65713  -1.166   9.286   2.227  0.0061 -0.2695 -0.4088
  477MOL0     C65714  -1.278   9.338   2.280 -0.0942 -0.7394  0.0019
  477MOL0     C65715  -1.401   9.325   2.214  1.0509  0.9457  0.2674
  477MOL0     C65716  -1.513   9.376   2.282 -0.8064 -0.0350 -0.3317
  477MOL0     C65717  -1.412   9.244   2.092  0.4308  0.3137  0.1970
  477MOL0     C65718  -1.547   9.226   2.026 -0.3740 -0.4648 -0.2878
  477MOL0     O65719  -1.582   9.099   2.002 -0.2110 -0.7729  0.1950
  477MOL0     C65720  -1.710   9.076   1.954 -0.1537  0.2790 -0.1197
  477MOL0     C65721  -1.759   9.112   1.823 -0.1448 -0.1348  0.8496
  477MOL0     C65722  -1.892   9.065   1.782  0.1848 -0.7634  0.1083
  477MOL0     C65723  -1.977   8.995   1.867  0.2968 -0.1287  0.0248
  477MOL0     O65724  -2.113   8.984   1.854 -0.2866  0.0430 -0.3767
  477MOL0     C65725  -2.175   8.988   1.721 -0.2590 -0.3166  0.5111
  477MOL0     C65726  -2.127   8.869   1.638  0.4797 -0.3904  0.0708
  477MOL0     C65727  -2.202   8.873   1.514  0.0374 -0.1179  0.0684
  477MOL0     C65728  -2.130   8.945   1.392 -0.2633  0.3482 -0.3705
  477MOL0     C65729  -2.066   8.838   1.311 -0.3861  0.5942  0.1376
  477MOL0     C65730  -2.169   8.768   1.224 -0.4057  0.0745 -0.2702
  477MOL0     C65731  -2.154   8.815   1.077 -0.4702  0.6701 -0.7690
  477MOL0     C65732  -2.060   8.728   0.988 -0.4077 -0.2704 -0.0834
  477MOL0    Cl65733  -2.113   8.559   1.001  0.0163  0.1408  0.3806
  477MOL0     C65734  -1.926   8.969   1.999 -0.8219 -0.5991 -0.5281
  477MOL0     C65735  -1.796   8.999   2.036 -0.4356  1.2210  0.2354
  477MOL0     O65736  -1.598   9.330   2.001  0.1399  0.0641  0.4059
  477MOL0     C65737  -1.299   9.168   2.047  0.3610 -0.2497 -0.2127
  477MOL0     C65738  -1.178   9.199   2.111 -0.2414  0.6939 -0.3266
  477MOL0     N65739  -0.583   9.103   2.651  0.2436  0.3554  0.6058
  477MOL0     N65740  -0.506   9.042   2.563  0.4724  0.1413 -0.2206
  477MOL0     C65741   0.273   8.269   2.165  0.1489 -0.9171 -0.0924
  477MOL0     C65742   0.309   8.174   2.079 -0.6615 -0.1167  0.7470
  477MOL0     C65743   0.399   7.880   1.780 -0.5661 -0.5463 -0.3562
  477MOL0     C65744   0.394   7.909   1.643 -0.4983 -0.2300  0.5127
  477MOL0     C65745   0.489   7.829   1.565 -0.6691 -0.1925 -0.5690
  477MOL0     C65746   0.565   7.724   1.610 -0.0298 -0.0632 -0.5681
  477MOL0     O65747   0.637   7.640   1.528 -0.6293 -0.0782  0.3004
  477MOL0     C65748   0.695   7.687   1.402  0.2741  0.4375 -0.8468
  477MOL0     C65749   0.774   7.826   1.409  1.0217  0.5459  0.1623
  477MOL0     C65750   0.886   7.844   1.506 -0.4193 -0.1373  0.7309
  477MOL0     C65751   0.895   7.977   1.576  1.1277 -0.2444  0.8583
  477MOL0     C65752   1.015   7.981   1.658  0.1979 -0.5450 -0.9884
  477MOL0     C65753   1.113   7.983   1.725 -0.5599  0.8136 -0.4826
  477MOL0     C65754   0.559   7.697   1.744 -0.0972  0.4773  0.7606
  477MOL0     C65755   0.484   7.776   1.830  0.2808  0.1628  0.0147
  477MOL0     C65756   0.496   7.735   1.980  0.3472 -0.4366  0.1684
  477MOL0     H65757   0.150   8.287   1.795 -1.0696  0.8534  0.1555
  477MOL0     H65758   0.073   8.449   1.956  0.4405 -0.5349  1.1999
  477MOL0     H65759   0.139   8.344   2.386  0.3063 -1.0831 -0.6245
  477MOL0     H65760  -0.006   8.331   2.299 -0.4883  1.1614 -1.4567
  477MOL0     H65761  -0.037   8.470   2.500  2.1316 -0.8902  1.1338
  477MOL0     H65762   0.099   8.566   2.464 -1.8971  0.2745  1.5990
  477MOL0     H65763  -0.034   8.661   2.277  0.9720  1.5095  1.3385
  477MOL0     H65764  -0.172   8.569   2.318  0.3393  2.2282 -2.6559
  477MOL0     H65765  -0.180   8.723   2.537  0.4948  0.3380 -0.0422
  477MOL0     H65766  -0.025   8.791   2.495 -0.0684 -0.5991  0.5970
  477MOL0     H65767  -0.265   8.816   2.326 -0.8472  2.6407 -0.6781
  477MOL0     H65768  -0.115   8.878   2.277 -2.2872 -0.0637 -1.6411
  477MOL0     H65769  -0.258   8.971   2.532 -0.0613  2.9701  0.5506
  477MOL0     H65770  -0.095   9.010   2.498  0.2567  1.4194  0.1686
  477MOL0     H65771  -0.198   9.107   2.259 -2.9836  1.8310 -1.4453
  477MOL0     H65772  -0.214   9.190   2.390  0.8391  0.6173 -4.0248
  477MOL0     H65773  -0.429   9.142   2.247  3.0020  0.6554 -0.5059
  477MOL0     H65774  -0.415   8.977   2.314  2.1617  0.2867 -0.9712
  477MOL0     H65775  -0.560   9.333   2.418 -0.9085  0.1551  0.1462
  477MOL0     H65776  -0.689   9.444   2.625 -3.4105  1.2918 -1.0717
  477MOL0     H65777  -0.702   9.338   2.759  0.5958 -0.3588 -0.0373
  477MOL0     H65778  -0.864   9.198   2.630 -0.9642  0.9533  3.1669
  477MOL0     H65779  -0.933   9.353   2.663 -1.5598 -0.8677 -0.7574
  477MOL0     H65780  -0.834   9.457   2.471  1.7437 -0.6215  0.1854
  477MOL0     H65781  -0.822   9.296   2.389 -0.2068  0.8276  0.5970
  477MOL0     H65782  -1.076   9.305   2.496  1.1165 -0.0038  0.2632
  477MOL0     H65783  -1.048   9.469   2.404  0.3176  0.5764  1.4767
  477MOL0     H65784  -1.258   9.393   2.371  2.8655 -1.9859  0.1940
  477MOL0     H65785  -1.568   9.291   2.323 -0.3346 -0.9855 -1.5810
  477MOL0     H65786  -1.592   9.431   2.229 -1.1458 -2.0655 -2.0832
  477MOL0     H65787  -1.483   9.443   2.362  0.6461 -1.1964  0.1353
  477MOL0     H65788  -1.693   9.176   1.766 -0.9519 -0.5316 -0.5732
  477MOL0     H65789  -1.933   9.100   1.688  2.1360  2.8395  0.4222
  477MOL0     H65790  -2.283   8.978   1.738 -0.1850 -0.7286  0.7551
  477MOL0     H65791  -2.158   9.087   1.678  3.1968 -0.2596  1.7448
  477MOL0     H65792  -2.019   8.865   1.624  0.3711 -1.9700 -0.6239
  477MOL0     H65793  -2.161   8.773   1.678 -0.2344 -0.7786 -1.3788
  477MOL0     H65794  -2.302   8.915   1.524  0.2120  0.4143 -0.3539
  477MOL0     H65795  -2.216   8.771   1.478  2.6653  0.1380 -1.9773
  477MOL0     H65796  -2.050   9.007   1.431  0.2152  1.8361 -3.4350
  477MOL0     H65797  -2.200   9.011   1.339  2.7485  1.7709 -2.8567
  477MOL0     H65798  -1.996   8.891   1.246  2.9211 -2.3443  1.0424
  477MOL0     H65799  -2.000   8.775   1.371  0.4138  0.3842 -0.9226
  477MOL0     H65800  -2.275   8.779   1.249 -1.3561 -3.1464 -2.2427
  477MOL0     H65801  -2.144   8.662   1.239  0.0302  0.2050 -0.0366
  477MOL0     H65802  -2.128   8.922   1.073 -2.8769  1.3201 -1.2976
  477MOL0     H65803  -2.255   8.810   1.035 -1.4221 -0.6777  1.5308
  477MOL0     H65804  -1.955   8.734   1.017  0.2494 -2.7271 -1.6545
  477MOL0     H65805  -2.061   8.763   0.885  2.0671  1.9233  0.5368
  477MOL0     H65806  -1.999   8.923   2.064 -2.3571  3.4708  0.9438
  477MOL0     H65807  -1.768   8.965   2.135 -1.6169  0.2116  0.2373
  477MOL0     H65808  -1.320   9.093   1.972 -1.7075 -1.4765  1.5038
  477MOL0     H65809  -1.081   9.164   2.078 -1.4986 -1.4501 -1.9606
  477MOL0     H65810   0.316   8.274   2.264 -2.1120 -2.4774  1.0185
  477MOL0     H65811   0.370   8.092   2.116 -2.4402 -0.8933  2.1207
  477MOL0     H65812   0.334   7.985   1.594  1.4740  0.4564 -0.9818
  477MOL0     H65813   0.500   7.847   1.459  1.3580  0.6268 -0.2806
  477MOL0     H65814   0.768   7.612   1.370  2.1685  1.0611  1.6480
  477MOL0     H65815   0.610   7.701   1.335 -2.8659 -2.0061  2.3079
  477MOL0     H65816   0.699   7.907   1.408  1.3604  1.0226 -3.7915
  477MOL0     H65817   0.811   7.836   1.307 -0.6318  1.3025 -0.4054
  477MOL0     H65818   0.870   7.766   1.581  1.5754 -1.1959  0.1143
  477MOL0     H65819   0.980   7.827   1.453 -1.2465  1.0421 -1.2320
  477MOL0     H65820   0.801   7.977   1.632  0.6782 -0.2749  0.1097
  477MOL0     H65821   0.891   8.062   1.508  0.2089 -1.4848 -0.7166
  477MOL0     H65822   1.179   7.959   1.806 -1.5357  1.8828  0.6458
  477MOL0     H65823   0.630   7.627   1.788  0.2025  1.4094  1.8231
  477MOL0     H65824   0.583   7.669   1.992 -0.8830 -2.7313 -2.6243
  477MOL0     H65825   0.485   7.823   2.045 -1.2761 -0.4514 -0.0672
  477MOL0     H65826   0.412   7.671   2.008  0.6175 -0.7126  0.3556
  478MOL0     O65827  10.197   9.921   5.623 -0.3220 -0.0409  0.3473
  478MOL0     C65828  10.260   9.976   5.529 -0.8531  0.5652  0.0854
  478MOL0     O65829  10.392   9.956   5.506  0.6354  0.1276 -0.0263
  478MOL0     C65830  10.459   9.871   5.585 -0.7839  1.2076 -0.2405
  478MOL0     C65831  10.490   9.900   5.717  0.7359  0.1344 -0.0882
  478MOL0     C65832  10.520   9.803   5.806  0.3373 -0.4264 -1.0274
  478MOL0     C65833  10.517   9.663   5.774 -0.3499 -1.7740  1.1628
  478MOL0     O65834  10.547   9.579   5.873 -0.1673  1.0672 -0.2940
  478MOL0     C65835  10.588   9.445   5.835 -0.2490 -0.6832  0.7015
  478MOL0     C65836  10.646   9.349   5.937  0.3212  0.4903  0.8450
  478MOL0     C65837  10.746   9.416   6.031 -0.1072  0.1979  0.1595
  478MOL0     C65838  10.770   9.317   6.158  0.2796  0.2894  0.4500
  478MOL0     C65839  10.896   9.368   6.217 -0.9068  0.4556 -0.0882
  478MOL0     C65840  10.938   9.271   6.323  0.4723  0.0077 -0.5661
  478MOL0     C65841  11.076   9.318   6.380 -0.1238 -0.6789 -0.0660
  478MOL0     C65842  11.134   9.209   6.474 -0.4618  0.0097  0.1513
  478MOL0     N65843  11.273   9.187   6.446 -0.4680  0.2863  0.2961
  478MOL0     C65844  11.373   9.287   6.433 -0.8015 -0.1287 -0.4727
  478MOL0     C65845  11.494   9.221   6.441 -0.8618 -0.1741 -1.0078
  478MOL0     C65846  11.632   9.289   6.425  0.8422  0.2813 -0.3851
  478MOL0     C65847  11.745   9.192   6.399  1.0168 -0.0080 -0.3728
  478MOL0     C65848  11.875   9.242   6.347  0.3639 -0.2228  1.0416
  478MOL0     C65849  11.993   9.251   6.439 -0.4835 -0.7569 -0.1555
  478MOL0     O65850  12.107   9.311   6.371 -0.3222 -0.1386  0.5633
  478MOL0     C65851  12.187   9.388   6.443 -0.7403  0.0784  0.4249
  478MOL0     C65852  12.246   9.337   6.559 -0.0302  0.4107 -0.5347
  478MOL0     C65853  12.335   9.419   6.634  0.7565  0.5734  0.4560
  478MOL0     C65854  12.398   9.370   6.763 -0.6541 -0.3211 -0.1625
  478MOL0     C65855  12.371   9.549   6.585  0.8089  0.0210 -0.4323
  478MOL0     C65856  12.452   9.645   6.669  1.0722  0.5584 -0.1200
  478MOL0     O65857  12.455   9.631   6.799  0.4127  0.9038  0.0552
  478MOL0     C65858  12.523   9.709   6.890  0.9040  0.1500  0.4692
  478MOL0     C65859  12.646   9.668   6.929 -0.6612 -0.2365  0.3322
  478MOL0     C65860  12.720   9.756   7.014  1.1958 -0.0352 -0.6692
  478MOL0     C65861  12.675   9.880   7.052 -0.7927  0.5470 -0.3069
  478MOL0     O65862  12.773   9.944   7.123  0.1226 -0.8087  0.2094
  478MOL0     C65863  12.779  10.088   7.114 -0.4791  0.8447 -0.5438
  478MOL0     C65864  12.862  10.134   6.995 -0.8560  0.4222  0.2624
  478MOL0     C65865  12.904  10.283   6.993 -0.1887 -0.1957  0.3529
  478MOL0     C65866  12.988  10.321   7.112  0.2149  0.0550 -0.1490
  478MOL0     C65867  13.043  10.456   7.076 -0.3279 -0.5943  0.5540
  478MOL0     C65868  13.108  10.527   7.199 -0.1729 -0.0615 -0.6360
  478MOL0     C65869  13.182  10.663   7.156 -0.0966 -0.4638  1.8947
  478MOL0     C65870  13.303  10.691   7.246  0.7688 -0.1798 -0.6438
  478MOL0    Cl65871  13.336  10.860   7.206 -0.3820  0.8413  0.4479
  478MOL0     C65872  12.547   9.922   7.009  0.8859  0.0951  0.0091
  478MOL0     C65873  12.472   9.837   6.926 -0.9147  0.7461  0.5339
  478MOL0     O65874  12.511   9.735   6.609 -1.0462  1.3804  0.0548
  478MOL0     C65875  12.303   9.597   6.470 -0.0944  0.3249 -0.8061
  478MOL0     C65876  12.221   9.510   6.392 -0.3720 -0.1992 -0.0411
  478MOL0     N65877  11.468   9.087   6.448 -0.6766  0.0743 -0.2473
  478MOL0     N65878  11.340   9.070   6.463 -0.1023  0.0424  0.9323
  478MOL0     C65879  10.499   9.631   5.642  0.8578  0.2104  0.5074
  478MOL0     C65880  10.464   9.736   5.554  0.7117  0.1549  0.7571
  478MOL0     C65881  10.188  10.066   5.434  0.0297  0.3812 -0.5104
  478MOL0     C65882  10.257  10.164   5.364  0.3171 -0.1887 -0.1850
  478MOL0     C65883  10.186  10.250   5.276  0.1696 -0.3757 -0.6979
  478MOL0     C65884  10.056  10.233   5.249  0.9405 -0.0087  0.2718
  478MOL0     O65885   9.999  10.329   5.160  0.1012 -0.2477 -0.3039
  478MOL0     C65886   9.981  10.453   5.227 -0.6130 -0.8806  0.8431
  478MOL0     C65887   9.879  10.538   5.151  0.8047  0.6529  0.7879
  478MOL0     C65888   9.734  10.479   5.151  0.6480  0.3710 -1.1056
  478MOL0     C65889   9.627  10.551   5.222 -1.0834  0.0682 -0.2789
  478MOL0     C65890   9.613  10.685   5.169  0.7830 -0.6464 -0.2837
  478MOL0     C65891   9.579  10.787   5.114  0.2004  0.3836 -0.2793
  478MOL0     C65892   9.988  10.128   5.303  0.3764  0.7245  0.7191
  478MOL0     C65893  10.056  10.046   5.402  0.4483  0.4239  0.8497
  478MOL0     C65894   9.974   9.945   5.457  0.3881  0.2553 -0.5035
  478MOL0     H65895  10.488  10.004   5.748 -3.3368  0.2819 -0.3005
  478MOL0     H65896  10.525   9.829   5.912  0.5389  0.1136 -1.1654
  478MOL0     H65897  10.671   9.454   5.764  1.1773 -2.9446  1.9397
  478MOL0     H65898  10.504   9.400   5.780  0.2845  0.6332 -1.2999
  478MOL0     H65899  10.559   9.313   5.992  0.5293 -0.5269  0.5250
  478MOL0     H65900  10.690   9.263   5.886 -0.9797 -0.6770  1.6157
  478MOL0     H65901  10.842   9.433   5.981  1.4118  0.9834  3.0865
  478MOL0     H65902  10.700   9.511   6.060  2.9469  1.9009 -0.2003
  478MOL0     H65903  10.690   9.319   6.232 -0.2250 -0.1746 -0.0776
  478MOL0     H65904  10.784   9.212   6.131  1.6739 -0.2665  2.9819
  478MOL0     H65905  10.893   9.473   6.246  1.4697  0.2278  1.2943
  478MOL0     H65906  10.971   9.362   6.137 -0.2067  0.2561  0.5707
  478MOL0     H65907  10.863   9.269   6.402 -0.3180 -0.5329 -1.3162
  478MOL0     H65908  10.950   9.172   6.277 -1.2147  0.3685 -1.8732
  478MOL0     H65909  11.080   9.416   6.426 -0.3395 -0.7703  0.1476
  478MOL0     H65910  11.150   9.316   6.298  1.8993 -4.8318  1.5140
  478MOL0     H65911  11.123   9.239   6.578  1.1678  0.8960  0.1089
  478MOL0     H65912  11.084   9.113   6.461 -0.5948  0.1776 -0.6604
  478MOL0     H65913  11.359   9.393   6.416 -2.4820 -0.5490 -2.0745
  478MOL0     H65914  11.651   9.353   6.512 -2.6036 -0.7667  1.3378
  478MOL0     H65915  11.618   9.354   6.338 -0.1817 -1.0223 -1.2257
  478MOL0     H65916  11.753   9.134   6.492  0.2467  2.0569  1.0648
  478MOL0     H65917  11.702   9.122   6.327 -0.2725 -1.9605  2.1074
  478MOL0     H65918  11.914   9.177   6.269  5.3579  1.3954  1.8076
  478MOL0     H65919  11.848   9.339   6.304  0.4592 -0.2362  0.9508
  478MOL0     H65920  11.981   9.314   6.527  1.5534  1.6529 -1.4698
  478MOL0     H65921  12.012   9.146   6.466  1.5095  0.1798  2.5409
  478MOL0     H65922  12.215   9.240   6.596  1.5506 -0.1116 -0.5199
  478MOL0     H65923  12.391   9.261   6.773 -1.2473 -0.4484 -1.5909
  478MOL0     H65924  12.346   9.420   6.845 -0.2639  0.3588 -0.3246
  478MOL0     H65925  12.505   9.392   6.757 -0.7547  0.1876 -0.0646
  478MOL0     H65926  12.701   9.575   6.925  1.4885  0.9981 -0.4396
  478MOL0     H65927  12.817   9.726   7.052  0.2970 -1.1077  0.9231
  478MOL0     H65928  12.683  10.140   7.124 -1.9329 -1.6441 -0.5313
  478MOL0     H65929  12.826  10.127   7.205 -1.8400  2.8029 -0.6301
  478MOL0     H65930  12.940  10.061   6.971  1.3303  2.2079  1.5396
  478MOL0     H65931  12.800  10.121   6.906 -1.9134 -0.0269  1.0425
  478MOL0     H65932  12.819  10.351   6.986  0.1370  0.0359 -1.8417
  478MOL0     H65933  12.963  10.293   6.902 -1.9243 -4.1977 -1.4662
  478MOL0     H65934  13.066  10.245   7.128 -0.2612 -0.7058 -1.2616
  478MOL0     H65935  12.926  10.322   7.202 -1.1090  2.8550 -0.9851
  478MOL0     H65936  13.126  10.450   7.004 -0.1343  1.2036  0.5931
  478MOL0     H65937  12.967  10.512   7.021  0.9640 -0.5614 -1.2920
  478MOL0     H65938  13.173  10.460   7.256 -0.7416  0.1472  0.2864
  478MOL0     H65939  13.029  10.550   7.271 -0.2820 -1.2730 -0.3462
  478MOL0     H65940  13.105  10.740   7.163 -0.7087 -0.8452 -0.1041
  478MOL0     H65941  13.203  10.660   7.049  1.0802  3.4203  1.8877
  478MOL0     H65942  13.386  10.625   7.220 -1.0664 -2.5533 -0.7651
  478MOL0     H65943  13.275  10.684   7.352 -3.1908  1.9611 -1.3390
  478MOL0     H65944  12.504  10.018   7.035  1.3273 -0.0153  1.2011
  478MOL0     H65945  12.369   9.865   6.906 -1.7738 -0.9545  2.2528
  478MOL0     H65946  12.324   9.702   6.452 -1.5312  0.9581  0.8420
  478MOL0     H65947  12.169   9.543   6.303 -0.8374 -2.5999 -0.7341
  478MOL0     H65948  10.506   9.532   5.599 -1.3892  0.7068 -1.2395
  478MOL0     H65949  10.441   9.696   5.456 -0.4884 -0.3219  1.2108
  478MOL0     H65950  10.359  10.194   5.387 -0.0264 -0.3386  1.5985
  478MOL0     H65951  10.237  10.340   5.244  0.5138 -0.9260 -1.7549
  478MOL0     H65952   9.937  10.437   5.326 -0.6038  1.1718  1.2147
  478MOL0     H65953  10.079  10.500   5.238  0.2965 -2.5750  0.4162
  478MOL0     H65954   9.906  10.545   5.046 -1.1443 -1.1150  0.1013
  478MOL0     H65955   9.875  10.639   5.193 -1.2511  1.7742 -1.8656
  478MOL0     H65956   9.703  10.475   5.046  0.9108 -0.5402 -1.1529
  478MOL0     H65957   9.730  10.376   5.188 -0.7526  0.6173 -0.4869
  478MOL0     H65958   9.654  10.564   5.327  0.8137 -1.3968 -0.5444
  478MOL0     H65959   9.533  10.497   5.204 -0.2694 -1.4891 -0.0378
  478MOL0     H65960   9.562  10.863   5.040  1.7671 -0.7292 -1.8526
  478MOL0     H65961   9.883  10.115   5.279  0.2191  2.1562  0.5559
  478MOL0     H65962  10.021   9.846   5.452  0.3252  0.2337 -0.6685
  478MOL0     H65963   9.958   9.976   5.561 -0.3728  0.5395 -0.6976
  478MOL0     H65964   9.873   9.930   5.417  1.1292  1.3999 -2.9639
  479MOL0     O65965   3.680   5.056   0.806  0.0759 -0.3723 -0.6386
  479MOL0     C65966   3.612   5.141   0.751  0.5347  0.3923  0.6270
  479MOL0     O65967   3.479   5.117   0.720  0.5459 -0.2379  0.4406
  479MOL0     C65968   3.427   4.994   0.750  0.3382 -0.3889 -0.0599
  479MOL0     C65969   3.477   4.881   0.690  0.4163 -0.2919  0.2364
  479MOL0     C65970   3.432   4.752   0.718 -0.0418  0.1025  0.4677
  479MOL0     C65971   3.318   4.737   0.796 -0.1502  0.1085  0.3265
  479MOL0     O65972   3.268   4.609   0.812  0.0616  0.0473  0.3938
  479MOL0     C65973   3.236   4.563   0.938  0.8098  0.4017 -0.7691
  479MOL0     C65974   3.346   4.583   1.041 -0.4467  0.5849 -0.0394
  479MOL0     C65975   3.322   4.505   1.171 -0.2773 -0.0914 -0.2329
  479MOL0     C65976   3.436   4.528   1.275 -0.1660 -0.5870 -0.6247
  479MOL0     C65977   3.437   4.437   1.401 -0.4649 -1.1657  0.0024
  479MOL0     C65978   3.469   4.505   1.533 -0.0245  0.2669  0.5899
  479MOL0     C65979   3.607   4.563   1.554  0.2820  0.9357 -0.4463
  479MOL0     C65980   3.623   4.632   1.693  0.5353 -0.0198  0.5056
  479MOL0     N65981   3.593   4.540   1.805  0.1012  0.2067  0.3948
  479MOL0     C65982   3.471   4.511   1.849  0.0281 -0.4004 -0.8164
  479MOL0     C65983   3.484   4.415   1.944  1.2186  0.5451 -0.4389
  479MOL0     C65984   3.374   4.383   2.039  0.9493  0.4847 -0.0000
  479MOL0     C65985   3.357   4.478   2.159 -0.4999 -0.1334  0.0128
  479MOL0     C65986   3.460   4.453   2.273 -0.2297  0.0897  0.1002
  479MOL0     C65987   3.445   4.318   2.336  0.2152 -0.2662 -0.5064
  479MOL0     O65988   3.553   4.233   2.324 -0.0534  0.9939  0.4460
  479MOL0     C65989   3.543   4.106   2.350 -0.5355  1.1665  0.6753
  479MOL0     C65990   3.443   4.043   2.426 -0.0480 -0.4031  0.2484
  479MOL0     C65991   3.454   3.907   2.455  0.4310  0.8584  0.4366
  479MOL0     C65992   3.334   3.840   2.509 -0.3994 -0.8977  0.5320
  479MOL0     C65993   3.578   3.838   2.432  0.4669 -0.8771  0.6952
  479MOL0     C65994   3.601   3.695   2.476  0.3967 -1.1439 -0.4577
  479MOL0     O65995   3.516   3.642   2.570 -0.4372 -0.0729 -0.3799
  479MOL0     C65996   3.541   3.513   2.596 -0.0838 -0.7401 -0.7360
  479MOL0     C65997   3.586   3.478   2.728 -0.6799 -0.0820  0.2932
  479MOL0     C65998   3.623   3.334   2.755  0.4721 -0.2615  0.8480
  479MOL0     C65999   3.585   3.239   2.662 -0.3420 -0.3455 -0.7544
  479MOL0     O66000   3.587   3.109   2.681  0.5158  0.8965 -0.4968
  479MOL0     C66001   3.646   3.045   2.792  0.4084  1.2215 -0.5885
  479MOL0     C66002   3.641   2.891   2.763  0.6437 -0.6706 -0.3511
  479MOL0     C66003   3.767   2.847   2.691 -0.0377 -0.4289  0.2272
  479MOL0     C66004   3.774   2.695   2.679  0.7660  0.0868 -0.7324
  479MOL0     C66005   3.697   2.654   2.549  0.1943  0.4799  0.3902
  479MOL0     C66006   3.700   2.503   2.515 -1.0548  0.8659 -0.0787
  479MOL0     C66007   3.613   2.458   2.403 -0.5640 -0.0991  0.5403
  479MOL0     C66008   3.694   2.379   2.298 -0.5944  1.0008 -0.8410
  479MOL0    Cl66009   3.576   2.291   2.196 -0.7066  0.1859  0.2036
  479MOL0     C66010   3.525   3.283   2.547  0.4872 -0.0529 -0.7401
  479MOL0     C66011   3.504   3.413   2.509  0.8199  0.6291 -0.1559
  479MOL0     O66012   3.705   3.645   2.433 -0.1754 -0.8511 -0.2796
  479MOL0     C66013   3.678   3.903   2.358 -0.4559 -0.8349 -0.1332
  479MOL0     C66014   3.660   4.037   2.317  0.5188  0.8045 -0.6169
  479MOL0     N66015   3.613   4.376   1.945  0.1218 -0.2100 -0.2489
  479MOL0     N66016   3.679   4.453   1.863 -0.6387 -0.7264 -0.4251
  479MOL0     C66017   3.267   4.845   0.861  1.1075  1.2436  0.1296
  479MOL0     C66018   3.325   4.967   0.844  0.0542  0.0257 -0.1617
  479MOL0     C66019   3.678   5.271   0.720  0.7529 -0.4906  0.8106
  479MOL0     C66020   3.606   5.352   0.628 -0.2349 -0.5029  0.2529
  479MOL0     C66021   3.673   5.466   0.579 -0.1408 -0.9291  0.2031
  479MOL0     C66022   3.797   5.514   0.627  0.0124 -0.0389  0.1148
  479MOL0     O66023   3.867   5.634   0.596 -0.0383  0.4894  0.6975
  479MOL0     C66024   3.847   5.690   0.467  0.2223  0.2385  0.1321
  479MOL0     C66025   3.945   5.629   0.367 -0.3557 -0.3377  0.5489
  479MOL0     C66026   4.090   5.692   0.358  1.0006 -0.7957  0.0068
  479MOL0     C66027   4.188   5.601   0.289  0.0452 -0.2902 -0.5143
  479MOL0     C66028   4.172   5.604   0.144 -0.1446 -0.1846 -0.5547
  479MOL0     C66029   4.157   5.590   0.027  0.3263  0.1691  0.0070
  479MOL0     C66030   3.856   5.436   0.723 -0.4935  0.3691 -0.0142
  479MOL0     C66031   3.804   5.317   0.762  0.1799 -0.7502  0.1026
  479MOL0     C66032   3.881   5.248   0.872 -1.1153  0.0463 -0.4514
  479MOL0     H66033   3.562   4.890   0.623 -0.5985 -0.2041 -1.0804
  479MOL0     H66034   3.478   4.663   0.677  0.0567 -0.1814  1.1879
  479MOL0     H66035   3.219   4.455   0.941 -0.7506  0.5982 -1.6479
  479MOL0     H66036   3.143   4.610   0.970  1.0701 -0.6184  1.7462
  479MOL0     H66037   3.434   4.542   0.990  0.4592  1.3011  0.9063
  479MOL0     H66038   3.374   4.685   1.069  3.0480  0.0376 -1.0310
  479MOL0     H66039   3.233   4.540   1.223  0.6293  1.4266  0.3729
  479MOL0     H66040   3.322   4.399   1.146 -0.7864 -0.7053  2.1498
  479MOL0     H66041   3.535   4.520   1.229 -0.5482  0.0705 -1.5792
  479MOL0     H66042   3.418   4.633   1.299  1.7621  0.0565 -1.7514
  479MOL0     H66043   3.502   4.352   1.381  1.4892  0.5592 -1.3605
  479MOL0     H66044   3.334   4.400   1.414 -1.1113  0.6434  0.3363
  479MOL0     H66045   3.391   4.580   1.549 -0.3914  0.2240 -0.8322
  479MOL0     H66046   3.470   4.429   1.612  1.2666 -0.7649 -0.3782
  479MOL0     H66047   3.628   4.647   1.487  3.7299  1.3005  0.8700
  479MOL0     H66048   3.680   4.484   1.530 -2.2701 -2.1429  1.0693
  479MOL0     H66049   3.724   4.673   1.705  1.2886 -1.7563  0.4912
  479MOL0     H66050   3.552   4.714   1.703 -0.1686 -0.6537  0.7494
  479MOL0     H66051   3.382   4.566   1.821 -1.4777 -1.8552  0.8024
  479MOL0     H66052   3.393   4.283   2.079  3.1545  0.5285 -0.7787
  479MOL0     H66053   3.276   4.380   1.990  0.1026  2.7364  1.4060
  479MOL0     H66054   3.358   4.577   2.112 -0.4411  0.1300  0.5590
  479MOL0     H66055   3.259   4.450   2.198  0.3632  0.2225  2.6946
  479MOL0     H66056   3.561   4.454   2.230 -2.0215 -2.4916 -4.8504
  479MOL0     H66057   3.444   4.527   2.352 -1.4374  1.3758 -1.2994
  479MOL0     H66058   3.428   4.337   2.442  2.4589  0.5210 -0.2326
  479MOL0     H66059   3.360   4.262   2.295 -0.3095  1.1602 -1.4552
  479MOL0     H66060   3.345   4.090   2.427 -1.1501 -2.5679  2.5314
  479MOL0     H66061   3.250   3.910   2.507 -0.3008 -0.7107 -2.5397
  479MOL0     H66062   3.349   3.815   2.614  1.1680 -0.1007  0.5169
  479MOL0     H66063   3.301   3.754   2.449 -0.1495 -0.2084 -0.6185
  479MOL0     H66064   3.617   3.548   2.804 -0.1010  1.3457 -1.1958
  479MOL0     H66065   3.658   3.304   2.854 -2.4151  0.6550  2.2699
  479MOL0     H66066   3.754   3.065   2.797  1.3197 -2.7915 -0.5960
  479MOL0     H66067   3.598   3.059   2.889  1.1184  0.8711 -0.1750
  479MOL0     H66068   3.623   2.828   2.850 -2.5637 -1.4251 -1.4267
  479MOL0     H66069   3.553   2.864   2.704  1.1818 -1.1076 -0.9697
  479MOL0     H66070   3.850   2.897   2.742 -0.6145  3.6144 -2.3478
  479MOL0     H66071   3.770   2.889   2.590 -3.0652 -2.1608 -0.7148
  479MOL0     H66072   3.733   2.641   2.764  2.3103 -1.6829 -1.0377
  479MOL0     H66073   3.879   2.664   2.676  0.5468 -1.0278  1.4543
  479MOL0     H66074   3.590   2.671   2.560 -0.0610 -1.0255  0.3495
  479MOL0     H66075   3.727   2.723   2.469  0.8815 -1.8559 -1.4771
  479MOL0     H66076   3.676   2.446   2.606  1.3209  0.7368  0.5263
  479MOL0     H66077   3.802   2.467   2.500 -0.7519  0.4110  2.5105
  479MOL0     H66078   3.561   2.540   2.352 -0.4130 -0.4148 -0.1328
  479MOL0     H66079   3.537   2.388   2.439  0.4306 -0.9077  1.1228
  479MOL0     H66080   3.759   2.300   2.338 -0.5708 -0.2558 -3.1902
  479MOL0     H66081   3.752   2.452   2.241 -1.2666  3.0445  0.9432
  479MOL0     H66082   3.486   3.213   2.475  2.1010 -0.6112 -1.1015
  479MOL0     H66083   3.456   3.424   2.412 -2.2301 -4.6167  0.3631
  479MOL0     H66084   3.772   3.860   2.326 -0.4231 -0.0667 -1.1200
  479MOL0     H66085   3.744   4.081   2.264  2.1019 -0.7739  0.4899
  479MOL0     H66086   3.198   4.840   0.945 -1.1137 -2.4201 -1.6505
  479MOL0     H66087   3.303   5.051   0.910  1.4493 -0.3068  0.7765
  479MOL0     H66088   3.509   5.318   0.593  0.0349 -2.1659  0.9904
  479MOL0     H66089   3.634   5.518   0.492  1.6597  2.5681  1.2713
  479MOL0     H66090   3.741   5.695   0.440  0.5035 -0.4431 -1.2006
  479MOL0     H66091   3.867   5.797   0.477  0.4522 -0.0013  2.8264
  479MOL0     H66092   3.904   5.646   0.267 -1.6791 -0.3437  1.0722
  479MOL0     H66093   3.942   5.522   0.390 -1.0687 -0.6944 -1.0707
  479MOL0     H66094   4.081   5.791   0.313  1.4902 -0.7382  0.0311
  479MOL0     H66095   4.137   5.715   0.454 -2.0647  1.8646  1.0655
  479MOL0     H66096   4.153   5.504   0.326 -0.0597  0.3212  1.0932
  479MOL0     H66097   4.285   5.614   0.337 -1.0224  2.3802  1.1713
  479MOL0     H66098   4.140   5.585  -0.078 -0.1951 -0.5548  0.1183
  479MOL0     H66099   3.952   5.475   0.754  0.5949  0.5065 -3.1450
  479MOL0     H66100   3.939   5.174   0.816  0.3610  0.4556  0.5007
  479MOL0     H66101   3.942   5.322   0.924 -0.1586 -1.6670  1.0019
  479MOL0     H66102   3.817   5.201   0.947 -1.4485 -1.6251 -1.7191
  480MOL0     O66103   4.581   6.532   2.828 -0.5337 -0.0597 -0.2888
  480MOL0     C66104   4.579   6.596   2.931 -0.9930  0.1338 -0.8703
  480MOL0     O66105   4.572   6.736   2.942 -0.5872  0.3632 -0.0685
  480MOL0     C66106   4.533   6.805   2.831 -0.1831 -0.1392  0.0242
  480MOL0     C66107   4.624   6.891   2.774 -0.7509  0.2679 -0.9782
  480MOL0     C66108   4.604   6.957   2.653  0.1724 -0.7029 -0.1726
  480MOL0     C66109   4.490   6.925   2.572 -0.4085  0.6355 -0.6694
  480MOL0     O66110   4.465   6.974   2.454  0.1839  0.3233  0.6285
  480MOL0     C66111   4.331   7.011   2.425  0.6744 -0.1871  1.2420
  480MOL0     C66112   4.329   7.137   2.331 -0.6146 -0.0366 -0.6902
  480MOL0     C66113   4.399   7.266   2.387 -0.7753  0.8107  0.3082
  480MOL0     C66114   4.459   7.351   2.275  0.2615 -0.7183 -0.7365
  480MOL0     C66115   4.520   7.491   2.334 -0.0544 -0.6522 -0.3878
  480MOL0     C66116   4.440   7.623   2.295 -0.1766  0.0580  0.3288
  480MOL0     C66117   4.496   7.753   2.358 -0.2857  0.0969  0.0136
  480MOL0     C66118   4.509   7.735   2.519  0.8450 -0.4427  0.0777
  480MOL0     N66119   4.531   7.869   2.584 -0.3184  0.0938  0.7789
  480MOL0     C66120   4.639   7.952   2.548 -0.0237  0.2340  0.7783
  480MOL0     C66121   4.644   8.025   2.654  0.8582  1.3697 -0.7096
  480MOL0     C66122   4.744   8.133   2.676  0.5967 -0.6699  1.4098
  480MOL0     C66123   4.859   8.088   2.761 -0.3204  0.7457  0.0743
  480MOL0     C66124   4.938   8.199   2.821 -0.6721  0.0071  1.0557
  480MOL0     C66125   5.022   8.289   2.715 -0.2200 -0.5304  0.2847
  480MOL0     O66126   5.111   8.366   2.807  0.8164 -0.5998  0.6790
  480MOL0     C66127   5.174   8.482   2.752 -0.0467  0.5678  0.5653
  480MOL0     C66128   5.215   8.579   2.842 -0.6176  0.3901 -0.0870
  480MOL0     C66129   5.298   8.693   2.814 -0.0389 -0.1940 -0.1382
  480MOL0     C66130   5.322   8.775   2.935 -0.0553 -0.7282  0.3612
  480MOL0     C66131   5.328   8.716   2.685 -0.3186 -0.1254  0.0903
  480MOL0     C66132   5.403   8.838   2.644  0.5213 -0.5659 -0.7698
  480MOL0     O66133   5.466   8.833   2.515  0.9837  0.2432 -1.3028
  480MOL0     C66134   5.542   8.933   2.471 -0.2610  0.1799 -1.0396
  480MOL0     C66135   5.678   8.906   2.465  0.5044  0.5197 -0.3079
  480MOL0     C66136   5.768   9.013   2.421  1.0076 -0.0730 -0.4667
  480MOL0     C66137   5.720   9.137   2.378 -0.1081 -0.1160 -1.1294
  480MOL0     O66138   5.801   9.216   2.305  1.7261  0.3091  0.1362
  480MOL0     C66139   5.760   9.347   2.291  0.5212 -0.3353  0.6062
  480MOL0     C66140   5.874   9.437   2.229  0.2084  0.0499 -0.8638
  480MOL0     C66141   5.948   9.378   2.107  0.3974  0.8423 -0.3594
  480MOL0     C66142   6.041   9.470   2.044 -0.0960 -0.7732 -0.1893
  480MOL0     C66143   6.120   9.396   1.935  0.1131 -1.2935 -0.5534
  480MOL0     C66144   6.216   9.490   1.865 -0.6208 -0.5962  0.0540
  480MOL0     C66145   6.302   9.419   1.765  0.0489  0.6863  0.4984
  480MOL0     C66146   6.384   9.525   1.680  0.3857  0.3611  1.1829
  480MOL0    Cl66147   6.275   9.621   1.582  0.1164  0.1615 -0.2285
  480MOL0     C66148   5.577   9.166   2.396 -0.6941 -0.4934  0.0161
  480MOL0     C66149   5.498   9.061   2.443 -0.4541  0.3702 -0.1665
  480MOL0     O66150   5.391   8.942   2.710  0.5682  0.3606 -0.4575
  480MOL0     C66151   5.302   8.617   2.586 -0.4573 -0.0762  0.2473
  480MOL0     C66152   5.228   8.499   2.624  0.3183 -0.7658 -0.4865
  480MOL0     N66153   4.533   7.999   2.750  0.5696  0.6470 -0.0192
  480MOL0     N66154   4.471   7.903   2.698  0.5824 -0.0644 -0.7083
  480MOL0     C66155   4.402   6.833   2.631  0.2306  0.1785  0.1639
  480MOL0     C66156   4.426   6.770   2.749  0.3304  0.0470  0.4193
  480MOL0     C66157   4.579   6.514   3.054 -0.2836  0.3553 -0.8435
  480MOL0     C66158   4.496   6.396   3.068  0.1659  0.2168 -0.5151
  480MOL0     C66159   4.484   6.333   3.191 -0.0749 -0.1727 -0.3800
  480MOL0     C66160   4.575   6.356   3.289  0.5354  0.1604 -0.6906
  480MOL0     O66161   4.566   6.286   3.412 -0.0115 -0.4504  0.4895
  480MOL0     C66162   4.657   6.309   3.518 -0.3776 -0.3371  0.3198
  480MOL0     C66163   4.795   6.248   3.490  0.2997  0.5940 -0.0473
  480MOL0     C66164   4.877   6.274   3.624  0.0265  0.6262  0.2356
  480MOL0     C66165   5.008   6.194   3.614  0.4219  0.1710 -0.0155
  480MOL0     C66166   4.990   6.051   3.638 -0.2701 -0.4293 -0.0075
  480MOL0     C66167   4.984   5.929   3.649  0.7972  0.1961 -0.3147
  480MOL0     C66168   4.672   6.453   3.264 -0.4025 -0.6665 -0.1002
  480MOL0     C66169   4.665   6.548   3.164  0.1496  0.5002  1.1460
  480MOL0     C66170   4.756   6.665   3.137 -0.5526  0.5412 -0.1422
  480MOL0     H66171   4.713   6.914   2.833 -1.3792 -0.3472  0.2392
  480MOL0     H66172   4.685   7.021   2.619  1.4541 -1.7210  0.8629
  480MOL0     H66173   4.272   7.041   2.512 -4.2329 -0.8164 -1.5025
  480MOL0     H66174   4.277   6.927   2.381 -0.6819  1.9991 -1.5658
  480MOL0     H66175   4.384   7.113   2.239  1.2961  2.4156 -0.2877
  480MOL0     H66176   4.226   7.156   2.302 -1.7399 -2.0432  1.6285
  480MOL0     H66177   4.325   7.315   2.451 -1.8842 -1.4499  0.8591
  480MOL0     H66178   4.481   7.245   2.456  0.7247  0.6027 -1.4381
  480MOL0     H66179   4.554   7.309   2.240  1.3623  1.2499 -0.2307
  480MOL0     H66180   4.397   7.366   2.186  1.0203 -0.2800 -1.2018
  480MOL0     H66181   4.623   7.508   2.302 -0.8040  1.0117 -2.1727
  480MOL0     H66182   4.513   7.476   2.442 -0.6484 -2.3159 -0.6287
  480MOL0     H66183   4.424   7.640   2.188  1.4419  3.1339  0.4645
  480MOL0     H66184   4.343   7.601   2.340  0.8832 -3.6983  1.1992
  480MOL0     H66185   4.432   7.840   2.342  1.3552  1.4346  0.3630
  480MOL0     H66186   4.591   7.790   2.317  0.7977 -0.2947  2.0459
  480MOL0     H66187   4.409   7.701   2.547  0.4316  1.1715  0.6198
  480MOL0     H66188   4.589   7.668   2.552 -0.4044 -0.0291  4.5819
  480MOL0     H66189   4.706   7.948   2.462  0.2559  0.8447  0.9621
  480MOL0     H66190   4.696   8.219   2.723 -0.6368  0.4618 -1.6279
  480MOL0     H66191   4.787   8.175   2.585 -0.6197  0.1248  1.1667
  480MOL0     H66192   4.826   8.039   2.854  4.4392 -2.1262  0.5894
  480MOL0     H66193   4.923   8.012   2.717 -0.4710  1.0789 -0.7449
  480MOL0     H66194   4.868   8.258   2.881 -1.0455  0.5266  0.1337
  480MOL0     H66195   5.001   8.154   2.897 -1.8841 -3.5671  0.1097
  480MOL0     H66196   5.084   8.224   2.653 -0.1968 -0.2450  0.0047
  480MOL0     H66197   4.971   8.367   2.657  1.0861  1.9537  2.2602
  480MOL0     H66198   5.183   8.567   2.945 -0.3408 -2.1544 -0.2195
  480MOL0     H66199   5.335   8.700   3.014 -0.7116  0.1289  1.3066
  480MOL0     H66200   5.228   8.828   2.957 -1.5235 -3.0505  0.0912
  480MOL0     H66201   5.410   8.839   2.940 -0.2752 -0.5235  3.1726
  480MOL0     H66202   5.720   8.813   2.500 -2.1101  0.2542  2.5741
  480MOL0     H66203   5.868   8.974   2.410  0.3184 -2.0854  0.0197
  480MOL0     H66204   5.671   9.360   2.228 -0.8042  1.4975  2.7288
  480MOL0     H66205   5.726   9.397   2.382  0.7097  1.2283 -0.1465
  480MOL0     H66206   5.849   9.544   2.225  0.2260  0.0439 -1.2216
  480MOL0     H66207   5.946   9.443   2.311 -0.2691 -0.0104 -0.4389
  480MOL0     H66208   5.874   9.347   2.033 -1.1315 -0.7118  1.7070
  480MOL0     H66209   6.008   9.295   2.146  1.7887 -0.7527 -5.1062
  480MOL0     H66210   6.115   9.512   2.113 -1.7345  0.5958  0.7910
  480MOL0     H66211   5.987   9.559   2.011 -0.2612  0.5493  3.3029
  480MOL0     H66212   6.176   9.312   1.977 -1.7632 -2.4986 -0.3368
  480MOL0     H66213   6.053   9.347   1.864 -1.6540  1.4542 -0.9527
  480MOL0     H66214   6.281   9.547   1.932  0.0459  2.7674 -3.1025
  480MOL0     H66215   6.155   9.564   1.812 -0.2561 -0.1841  0.1985
  480MOL0     H66216   6.240   9.364   1.693  0.9568 -1.5694  1.3795
  480MOL0     H66217   6.358   9.338   1.812 -2.1992 -2.4107 -1.7427
  480MOL0     H66218   6.463   9.480   1.620  2.1187 -0.3295  3.8074
  480MOL0     H66219   6.452   9.589   1.736  1.3242 -0.6151  1.1907
  480MOL0     H66220   5.539   9.264   2.368 -0.0877 -0.3795 -0.4248
  480MOL0     H66221   5.391   9.067   2.458 -0.1438 -0.3675  3.0730
  480MOL0     H66222   5.316   8.635   2.480 -1.4598 -0.1028  0.1025
  480MOL0     H66223   5.219   8.421   2.549  2.0550 -1.6759  0.1996
  480MOL0     H66224   4.309   6.811   2.581 -2.0875  0.0329  4.1383
  480MOL0     H66225   4.355   6.694   2.779 -1.2879  0.7342 -1.4120
  480MOL0     H66226   4.427   6.371   2.989 -0.0254 -2.1591  0.3099
  480MOL0     H66227   4.397   6.269   3.202 -0.1565 -0.7718 -3.5237
  480MOL0     H66228   4.676   6.415   3.537  1.3904 -1.1131  3.8798
  480MOL0     H66229   4.616   6.273   3.613 -4.0406  0.0931 -0.9603
  480MOL0     H66230   4.843   6.288   3.400 -3.3536  3.4858 -0.9217
  480MOL0     H66231   4.780   6.142   3.467 -1.1232  0.3627  1.7561
  480MOL0     H66232   4.906   6.379   3.615 -1.8312  1.0582 -1.7258
  480MOL0     H66233   4.832   6.250   3.720  1.1500  1.6024  1.0351
  480MOL0     H66234   5.082   6.227   3.687  1.4750  1.6832 -1.6712
  480MOL0     H66235   5.049   6.203   3.513 -0.9788 -1.5623 -0.7946
  480MOL0     H66236   4.975   5.822   3.651 -1.3562  0.3060 -1.1318
  480MOL0     H66237   4.757   6.470   3.329 -0.4540  1.1964 -0.4736
  480MOL0     H66238   4.841   6.666   3.206 -1.0173 -1.3414  0.5388
  480MOL0     H66239   4.802   6.647   3.039 -2.3708  0.2557 -0.9887
  480MOL0     H66240   4.706   6.762   3.144  0.4844  0.9734  1.5043
  481MOL0     O66241   7.841   9.715  10.708  0.6423 -0.2926 -0.8076
  481MOL0     C66242   7.917   9.790  10.646 -0.0044  0.3199  0.0155
  481MOL0     O66243   8.050   9.795  10.666  0.2124  0.4901 -0.3757
  481MOL0     C66244   8.105   9.707  10.766 -0.5266  0.1687 -0.4486
  481MOL0     C66245   8.060   9.574  10.794 -1.0104  0.0243 -0.8075
  481MOL0     C66246   8.134   9.485  10.872 -0.0476 -0.0280  0.1351
  481MOL0     C66247   8.260   9.529  10.933  0.3391  0.5374 -0.0282
  481MOL0     O66248   8.327   9.446  11.020 -0.4322  0.3278  0.1338
  481MOL0     C66249   8.372   9.487  11.149 -1.0556  0.0371 -0.0432
  481MOL0     C66250   8.282   9.440  11.268  0.1805  0.4095  1.3852
  481MOL0     C66251   8.347   9.405  11.400 -0.2944 -0.7577  0.0233
  481MOL0     C66252   8.396   9.532  11.468 -0.0759 -0.4791 -0.1893
  481MOL0     C66253   8.490   9.509  11.590 -0.0102  0.0455 -0.2321
  481MOL0     C66254   8.404   9.470  11.714  0.4500  0.2383 -0.3552
  481MOL0     C66255   8.510   9.421  11.820  0.4609 -0.6255 -0.5477
  481MOL0     C66256   8.546   9.270  11.821  0.3776  0.5319 -0.1495
  481MOL0     N66257   8.570   9.202  11.698 -0.4724  0.1932  1.1748
  481MOL0     C66258   8.487   9.141  11.610 -0.1759 -0.6287 -0.5954
  481MOL0     C66259   8.561   9.083  11.515  0.6165 -0.3887 -0.7158
  481MOL0     C66260   8.510   9.005  11.397  0.5586 -0.2603 -0.2694
  481MOL0     C66261   8.453   9.085  11.281 -0.0076  0.2130 -0.1189
  481MOL0     C66262   8.425   8.990  11.151 -0.0550  0.5133 -0.3513
  481MOL0     C66263   8.409   9.076  11.025  0.4550 -0.7462  0.0632
  481MOL0     O66264   8.360   9.005  10.920 -0.4078  1.2324  0.4904
  481MOL0     C66265   8.303   9.060  10.810  0.9834 -0.7104 -0.5804
  481MOL0     C66266   8.214   8.981  10.738 -0.8114  0.2535 -0.1681
  481MOL0     C66267   8.166   9.014  10.617  0.5341 -0.6434  0.2439
  481MOL0     C66268   8.102   8.909  10.547  0.1809 -0.7555  0.4560
  481MOL0     C66269   8.192   9.140  10.562 -0.7442  0.7962  0.3622
  481MOL0     C66270   8.158   9.196  10.427  0.3459 -0.3351  0.5201
  481MOL0     O66271   8.149   9.332  10.427 -0.3229 -0.0641 -0.1776
  481MOL0     C66272   8.113   9.387  10.303 -0.9934  0.0431 -1.0421
  481MOL0     C66273   8.217   9.408  10.216 -0.5036 -0.4083 -0.0326
  481MOL0     C66274   8.194   9.438  10.081  0.9367  0.1172  0.4987
  481MOL0     C66275   8.060   9.453  10.035  0.3967 -0.3828  0.2056
  481MOL0     O66276   8.036   9.466   9.904  0.6375  0.1601  0.3211
  481MOL0     C66277   7.906   9.426   9.855 -0.4612  0.0576 -0.3712
  481MOL0     C66278   7.905   9.420   9.697  1.1816 -0.1257  0.6853
  481MOL0     C66279   7.981   9.307   9.638 -0.4642  0.5907 -0.2136
  481MOL0     C66280   7.986   9.299   9.491 -0.0717  0.8829 -0.2541
  481MOL0     C66281   7.979   9.149   9.450 -0.0441 -0.4112 -0.8818
  481MOL0     C66282   7.974   9.123   9.304  0.8880  0.6130  0.1518
  481MOL0     C66283   8.110   9.145   9.242  0.4702  0.9276 -0.6051
  481MOL0     C66284   8.107   9.112   9.096 -0.3462 -0.1710  1.3153
  481MOL0    Cl66285   8.146   9.248   8.983 -0.1038 -0.7061 -0.1613
  481MOL0     C66286   7.954   9.436  10.127 -0.3121  0.0457  0.4677
  481MOL0     C66287   7.985   9.405  10.264  0.5490 -1.0462  0.3251
  481MOL0     O66288   8.133   9.119  10.329 -0.0180  0.3044  0.6225
  481MOL0     C66289   8.257   9.231  10.655  0.7239  0.8314  0.0852
  481MOL0     C66290   8.324   9.189  10.770  0.4965  0.2277  0.9587
  481MOL0     N66291   8.698   9.105  11.538  0.4524 -0.5454 -0.5132
  481MOL0     N66292   8.700   9.185  11.642  0.5363 -0.0759 -0.3032
  481MOL0     C66293   8.310   9.653  10.893 -0.4663 -0.9049 -0.2445
  481MOL0     C66294   8.233   9.741  10.809  1.6425  0.0431  0.7559
  481MOL0     C66295   7.864   9.871  10.536 -0.4408 -0.0756  0.2401
  481MOL0     C66296   7.789   9.979  10.564  0.1228 -0.3727  0.5287
  481MOL0     C66297   7.717  10.046  10.461 -0.1230  0.1433  0.0234
  481MOL0     C66298   7.734  10.017  10.328  0.0075 -0.4360  0.1381
  481MOL0     O66299   7.656  10.095  10.243  0.2940  0.3157 -0.0128
  481MOL0     C66300   7.711  10.128  10.113  0.2871  1.0209  0.2727
  481MOL0     C66301   7.652  10.251  10.062  0.4540 -0.1906  0.4653
  481MOL0     C66302   7.707  10.376  10.135 -0.3651 -0.6351 -0.2730
  481MOL0     C66303   7.685  10.389  10.286  0.2278 -1.1114  0.2658
  481MOL0     C66304   7.808  10.351  10.354 -1.5141 -0.7580  0.1976
  481MOL0     C66305   7.922  10.314  10.394  0.0135  0.8960  1.0447
  481MOL0     C66306   7.827   9.918  10.293  0.2032  0.2775 -1.6701
  481MOL0     C66307   7.892   9.849  10.399 -0.3932  0.7101 -1.1887
  481MOL0     C66308   7.974   9.744  10.346  1.2333  0.2223  0.1452
  481MOL0     H66309   7.965   9.531  10.762 -1.8684  1.1147  0.1863
  481MOL0     H66310   8.105   9.386  10.905  0.6114  1.1693  5.1354
  481MOL0     H66311   8.362   9.595  11.158  0.9771  0.2330  0.4072
  481MOL0     H66312   8.479   9.464  11.156 -0.0759  3.8934 -0.2164
  481MOL0     H66313   8.198   9.508  11.285 -0.8978 -0.9267  1.5975
  481MOL0     H66314   8.239   9.345  11.234 -1.5956  2.5874 -3.3676
  481MOL0     H66315   8.266   9.369  11.463 -1.0466  1.3231  0.3228
  481MOL0     H66316   8.431   9.335  11.407  0.2616 -0.0801  0.2656
  481MOL0     H66317   8.455   9.584  11.392  1.5066 -1.2781  0.4325
  481MOL0     H66318   8.312   9.597  11.493 -0.1017  0.1834 -1.8590
  481MOL0     H66319   8.538   9.602  11.622  0.3730 -0.7612  1.6599
  481MOL0     H66320   8.563   9.432  11.562 -0.5826 -0.3773 -0.6115
  481MOL0     H66321   8.361   9.565  11.747 -2.2915 -0.9779 -0.1631
  481MOL0     H66322   8.316   9.407  11.699 -0.4695  1.4826 -0.2930
  481MOL0     H66323   8.471   9.453  11.917  0.4445  0.4338 -0.8871
  481MOL0     H66324   8.596   9.484  11.799  0.3853 -0.6429 -0.9066
  481MOL0     H66325   8.636   9.260  11.882  1.8486  1.5842 -2.0120
  481MOL0     H66326   8.465   9.221  11.875  1.8732  0.8591  2.5669
  481MOL0     H66327   8.379   9.134  11.623 -0.0783 -0.2848  0.4818
  481MOL0     H66328   8.429   8.938  11.426  0.1963 -0.9334 -2.6285
  481MOL0     H66329   8.599   8.951  11.362  3.7375  4.4462 -0.3810
  481MOL0     H66330   8.354   9.128  11.299 -1.6023 -3.0030 -0.4799
  481MOL0     H66331   8.528   9.162  11.260  1.4365 -0.6888  1.4451
  481MOL0     H66332   8.514   8.930  11.130  1.8527  1.9581  2.8120
  481MOL0     H66333   8.347   8.915  11.166  1.9695 -1.4311  1.1831
  481MOL0     H66334   8.328   9.145  11.050 -0.1813 -0.2029 -3.0780
  481MOL0     H66335   8.496   9.139  11.004  0.9186 -2.1382 -2.6646
  481MOL0     H66336   8.200   8.877  10.766  0.2488  0.3812  0.9173
  481MOL0     H66337   8.017   8.938  10.486  1.5148  1.7300 -0.3544
  481MOL0     H66338   8.065   8.830  10.613 -2.2866  1.1550  1.5198
  481MOL0     H66339   8.177   8.870  10.477 -0.8008  1.4231 -1.9453
  481MOL0     H66340   8.320   9.397  10.248 -1.0304  1.6472  2.7019
  481MOL0     H66341   8.274   9.431  10.008 -0.7528  1.1561 -1.5567
  481MOL0     H66342   7.885   9.321   9.880  0.7418  0.0557  0.7305
  481MOL0     H66343   7.830   9.497   9.889 -0.0922  0.3970 -0.2513
  481MOL0     H66344   7.799   9.410   9.671  0.3225  0.3269  3.5553
  481MOL0     H66345   7.938   9.517   9.659  0.5321 -0.8393 -1.8678
  481MOL0     H66346   7.944   9.212   9.678  3.4246 -0.3621  1.5612
  481MOL0     H66347   8.084   9.318   9.673 -0.2020  1.8998 -1.2840
  481MOL0     H66348   8.075   9.352   9.455 -1.0805  1.9354 -1.2270
  481MOL0     H66349   7.912   9.362   9.442 -0.8518 -0.0482 -0.2835
  481MOL0     H66350   8.073   9.109   9.488  0.2380  0.5863 -0.4944
  481MOL0     H66351   7.890   9.113   9.503  0.8677  1.3570  2.0851
  481MOL0     H66352   7.912   9.195   9.250  0.4478 -0.1708 -0.4105
  481MOL0     H66353   7.922   9.030   9.278 -1.6238  1.5088  1.5908
  481MOL0     H66354   8.183   9.072   9.280  2.4457  1.2785 -3.3519
  481MOL0     H66355   8.136   9.249   9.263 -1.0046  1.5532 -1.7229
  481MOL0     H66356   8.005   9.080   9.074 -0.3515 -2.0444  3.6270
  481MOL0     H66357   8.176   9.031   9.066  1.2070  1.7914 -0.7427
  481MOL0     H66358   7.848   9.440  10.105 -0.2848 -0.1876  0.2981
  481MOL0     H66359   7.906   9.384  10.337 -2.5642  1.4694 -2.0509
  481MOL0     H66360   8.262   9.338  10.637  1.6477  1.4237  3.3673
  481MOL0     H66361   8.389   9.257  10.824 -0.7444  0.2932  2.4416
  481MOL0     H66362   8.409   9.688  10.920 -0.4143 -1.5632  0.4511
  481MOL0     H66363   8.277   9.838  10.787 -0.4816  0.9350  0.1778
  481MOL0     H66364   7.766  10.010  10.666  0.8826  0.1411  0.5544
  481MOL0     H66365   7.663  10.131  10.501 -0.0956 -1.1335  3.0741
  481MOL0     H66366   7.820  10.119  10.114  0.1910 -0.4597  0.7681
  481MOL0     H66367   7.682  10.040  10.054  3.7027  0.9462 -1.5117
  481MOL0     H66368   7.544  10.240  10.081  1.0361 -1.9958  3.2984
  481MOL0     H66369   7.666  10.259   9.954 -0.5811  1.6632  0.4197
  481MOL0     H66370   7.815  10.391  10.122 -0.3492 -0.5139 -0.0140
  481MOL0     H66371   7.656  10.458  10.083 -0.7147 -1.2453 -0.9059
  481MOL0     H66372   7.595  10.333  10.313 -1.4691  0.5420 -1.5914
  481MOL0     H66373   7.648  10.490  10.307  0.9976 -0.7516 -0.0916
  481MOL0     H66374   8.018  10.269  10.406  0.4750  0.9899 -1.6620
  481MOL0     H66375   7.851   9.886  10.192  3.4379 -1.6745 -0.4060
  481MOL0     H66376   7.917   9.652  10.331 -1.2916  1.6625  0.2959
  481MOL0     H66377   8.020   9.773  10.252  1.8346  0.2615  0.4422
  481MOL0     H66378   8.057   9.723  10.415 -0.7412 -1.0759  2.2909
  482MOL0     O66379   0.129   1.459   0.240 -0.8757  1.0916 -0.4454
  482MOL0     C66380   0.064   1.359   0.203 -0.6440 -0.6611 -1.0850
  482MOL0     O66381   0.099   1.238   0.244  0.6447  0.2527  0.1988
  482MOL0     C66382   0.110   1.199   0.376  0.4710 -0.1224 -0.3771
  482MOL0     C66383   0.079   1.282   0.485 -0.3783 -1.2517 -1.0758
  482MOL0     C66384   0.093   1.238   0.617  0.2389  1.1041 -0.1833
  482MOL0     C66385   0.132   1.107   0.645 -0.5401 -0.8120  0.7705
  482MOL0     O66386   0.142   1.057   0.772 -0.4723 -0.3022  0.0627
  482MOL0     C66387   0.018   1.042   0.834 -0.7263  0.5905  0.2741
  482MOL0     C66388   0.022   1.000   0.982  0.6126 -0.2742 -0.6584
  482MOL0     C66389   0.092   0.865   1.000  0.0623  0.3007  0.7721
  482MOL0     C66390  -0.010   0.758   0.947  0.6231 -0.4065 -0.1680
  482MOL0     C66391   0.055   0.624   0.975 -0.3948 -0.6610 -0.4685
  482MOL0     C66392  -0.033   0.509   0.957  0.8002  0.4101 -0.2159
  482MOL0     C66393   0.014   0.378   1.022  1.5571  0.5041  0.0149
  482MOL0     C66394   0.137   0.314   0.958 -0.9748  0.1831  0.0610
  482MOL0     N66395   0.192   0.211   1.042  0.3243 -0.0604 -0.5877
  482MOL0     C66396   0.207   0.215   1.176  0.4659  0.5440  0.1130
  482MOL0     C66397   0.267   0.097   1.212 -0.2177 -0.8993 -0.8701
  482MOL0     C66398   0.306   0.060   1.350 -0.0085 -0.1434  0.1368
  482MOL0     C66399   0.432   0.134   1.383  0.0370 -0.2402  0.0894
  482MOL0     C66400   0.504   0.074   1.508 -0.4912 -0.3994  0.6409
  482MOL0     C66401   0.536  -0.069   1.485 -0.2376  0.0113 -0.3506
  482MOL0     O66402   0.604  -0.110   1.598 -0.0037  0.8386 -0.3258
  482MOL0     C66403   0.682  -0.227   1.577  0.3008 -0.3165  0.0935
  482MOL0     C66404   0.629  -0.350   1.587  0.6815  0.0748  0.9906
  482MOL0     C66405   0.703  -0.457   1.560  0.2884 -0.3971  0.5611
  482MOL0     C66406   0.635  -0.592   1.564  0.0479  0.1010 -0.1990
  482MOL0     C66407   0.848  -0.443   1.548 -0.0350  0.5528  0.4139
  482MOL0     C66408   0.948  -0.563   1.530 -1.2648  0.2266 -0.2183
  482MOL0     O66409   1.078  -0.546   1.570  0.2042 -0.4457 -0.1881
  482MOL0     C66410   1.166  -0.655   1.568  1.3861 -0.5180  1.5108
  482MOL0     C66411   1.227  -0.691   1.445  0.4975  0.0765  0.4726
  482MOL0     C66412   1.317  -0.798   1.440 -0.2492 -0.2974  0.3369
  482MOL0     C66413   1.345  -0.871   1.557  0.3555 -0.1280  0.5120
  482MOL0     O66414   1.428  -0.978   1.572 -0.3371 -0.0991 -0.0195
  482MOL0     C66415   1.484  -1.049   1.462 -0.3665  0.8389 -0.3811
  482MOL0     C66416   1.612  -1.099   1.504 -0.7646 -0.6139  0.9462
  482MOL0     C66417   1.609  -1.212   1.605 -0.7107  1.0902  0.3684
  482MOL0     C66418   1.753  -1.238   1.648 -0.0258  0.2144 -0.0966
  482MOL0     C66419   1.772  -1.345   1.751  0.7872  0.3773  0.6642
  482MOL0     C66420   1.691  -1.332   1.880  0.0010  0.3349  0.1346
  482MOL0     C66421   1.726  -1.440   1.990 -0.0565 -0.4930 -0.6261
  482MOL0     C66422   1.637  -1.440   2.107  0.6763  0.6232  0.6537
  482MOL0    Cl66423   1.625  -1.288   2.189 -0.0272  0.1132 -0.3233
  482MOL0     C66424   1.283  -0.827   1.681 -0.7730 -0.5989 -0.1699
  482MOL0     C66425   1.204  -0.713   1.685 -0.3665 -0.1529 -0.2199
  482MOL0     O66426   0.907  -0.657   1.460 -0.5021  0.2652 -0.6402
  482MOL0     C66427   0.905  -0.312   1.544  0.8489  0.1891  0.0084
  482MOL0     C66428   0.818  -0.206   1.555  0.5008  0.1675  0.4447
  482MOL0     N66429   0.293   0.026   1.098  0.8030  0.1068 -0.3083
  482MOL0     N66430   0.249   0.095   1.000 -0.5727  0.1657  0.9886
  482MOL0     C66431   0.165   1.030   0.538  0.8094 -0.1646  0.3399
  482MOL0     C66432   0.159   1.066   0.406  0.3158 -0.3364 -1.3580
  482MOL0     C66433  -0.029   1.367   0.076 -0.3914 -0.6401 -0.5385
  482MOL0     C66434  -0.077   1.250   0.018 -0.3988 -0.1865 -0.2062
  482MOL0     C66435  -0.171   1.258  -0.082 -0.0201  0.3154 -0.6261
  482MOL0     C66436  -0.195   1.383  -0.154  1.1759  0.6415 -0.6049
  482MOL0     O66437  -0.261   1.368  -0.274 -0.7829 -0.3036  0.0304
  482MOL0     C66438  -0.267   1.489  -0.352  0.0148 -0.1670  0.0837
  482MOL0     C66439  -0.341   1.467  -0.480 -0.7441  0.5717  0.7522
  482MOL0     C66440  -0.309   1.348  -0.574  0.1099  0.9797  0.4482
  482MOL0     C66441  -0.193   1.385  -0.667 -0.7068  0.3332 -0.3662
  482MOL0     C66442  -0.159   1.294  -0.772  0.2559 -0.0789 -0.2587
  482MOL0     C66443  -0.133   1.232  -0.876  0.7475 -0.1783  0.7899
  482MOL0     C66444  -0.142   1.495  -0.100 -0.0242  0.3048  0.1391
  482MOL0     C66445  -0.056   1.491   0.014  0.1743 -0.1244 -0.1540
  482MOL0     C66446  -0.013   1.630   0.073  0.8268 -0.2613 -0.3101
  482MOL0     H66447   0.044   1.383   0.465  3.1858  0.3786  0.0756
  482MOL0     H66448   0.075   1.313   0.694  2.7907  1.6411 -0.0215
  482MOL0     H66449  -0.048   0.977   0.777  0.5538  1.0310 -1.8227
  482MOL0     H66450  -0.035   1.138   0.837 -3.2215 -0.6952 -0.3766
  482MOL0     H66451   0.073   1.080   1.036  2.1932 -0.2434 -2.1326
  482MOL0     H66452  -0.080   0.989   1.022 -0.1273  3.1730 -1.3280
  482MOL0     H66453   0.191   0.862   0.954  0.0223  1.3301  0.6124
  482MOL0     H66454   0.108   0.846   1.106 -2.0220 -0.2241  1.0367
  482MOL0     H66455  -0.105   0.756   1.002  0.7157 -0.6994 -0.0199
  482MOL0     H66456  -0.025   0.780   0.841  1.3556  2.2372  0.2115
  482MOL0     H66457   0.093   0.625   1.078  0.4687 -1.6244 -0.7669
  482MOL0     H66458   0.136   0.618   0.903 -1.1523  0.1455 -1.4224
  482MOL0     H66459  -0.135   0.513   0.997  0.3834 -2.0685 -0.8522
  482MOL0     H66460  -0.032   0.477   0.853  2.4938 -0.9422  0.1721
  482MOL0     H66461  -0.069   0.308   1.011  1.6672  0.5024 -0.9251
  482MOL0     H66462   0.020   0.383   1.131 -1.0017  1.5216  0.1894
  482MOL0     H66463   0.122   0.282   0.855  0.0099  0.6789 -0.2455
  482MOL0     H66464   0.221   0.382   0.942  0.7687 -1.5529  1.3985
  482MOL0     H66465   0.182   0.292   1.248 -4.4301 -1.5584  1.0505
  482MOL0     H66466   0.303  -0.048   1.368  1.4044 -0.4653 -1.2862
  482MOL0     H66467   0.226   0.097   1.415  1.0367  0.9832  0.8059
  482MOL0     H66468   0.501   0.117   1.299  0.6331  1.1956  0.2518
  482MOL0     H66469   0.410   0.240   1.401 -0.9439 -0.7726  2.3772
  482MOL0     H66470   0.590   0.138   1.526  0.9878 -1.6170 -1.7167
  482MOL0     H66471   0.428   0.075   1.587 -0.1853  0.4428  0.9295
  482MOL0     H66472   0.446  -0.131   1.475 -1.4289  1.7783 -1.0023
  482MOL0     H66473   0.595  -0.081   1.394  1.2664  0.9454  0.4642
  482MOL0     H66474   0.521  -0.356   1.597  0.4026  1.3529 -0.7795
  482MOL0     H66475   0.545  -0.593   1.627  1.6581  0.2261  2.2458
  482MOL0     H66476   0.704  -0.663   1.611  1.0076  0.0260 -1.6895
  482MOL0     H66477   0.603  -0.626   1.465 -2.1288  0.1527  0.4232
  482MOL0     H66478   1.199  -0.640   1.353  3.9563  0.4304 -0.5674
  482MOL0     H66479   1.364  -0.819   1.345  0.7307  0.9964  0.5049
  482MOL0     H66480   1.418  -1.133   1.438 -0.8117  0.6864  1.2525
  482MOL0     H66481   1.505  -0.983   1.377 -3.7960  0.3493 -1.7717
  482MOL0     H66482   1.661  -1.144   1.418 -0.1351  3.2475 -0.9342
  482MOL0     H66483   1.673  -1.019   1.547 -0.0878 -1.2112  1.0992
  482MOL0     H66484   1.561  -1.300   1.560  1.5032 -0.5719  1.0672
  482MOL0     H66485   1.556  -1.176   1.693  0.0795  1.9552  0.5016
  482MOL0     H66486   1.798  -1.144   1.681 -3.6002  2.2975 -0.7316
  482MOL0     H66487   1.816  -1.273   1.566  1.1759  0.2772  0.7694
  482MOL0     H66488   1.748  -1.445   1.714 -0.0080 -1.2640  5.0666
  482MOL0     H66489   1.880  -1.355   1.766  0.9856  4.4796  3.6730
  482MOL0     H66490   1.584  -1.345   1.861  0.4724 -2.4746 -1.2069
  482MOL0     H66491   1.704  -1.230   1.917  0.4776  1.0613 -1.9167
  482MOL0     H66492   1.827  -1.422   2.027 -0.0083 -0.2521 -0.8719
  482MOL0     H66493   1.733  -1.532   1.930 -1.7628  0.4055 -2.2988
  482MOL0     H66494   1.665  -1.503   2.191 -1.8060 -0.0388  1.0584
  482MOL0     H66495   1.540  -1.473   2.070  0.9041  1.2076 -0.5614
  482MOL0     H66496   1.299  -0.874   1.777  0.3621 -1.5922 -0.8320
  482MOL0     H66497   1.178  -0.672   1.783 -2.4042 -0.4135 -0.5995
  482MOL0     H66498   1.011  -0.295   1.527  0.6631  1.1996 -0.1862
  482MOL0     H66499   0.852  -0.104   1.566  0.7148  0.2856 -1.1645
  482MOL0     H66500   0.207   0.930   0.543 -2.1099 -1.4153  2.6013
  482MOL0     H66501   0.187   0.996   0.329 -0.9601 -1.4216 -0.8607
  482MOL0     H66502  -0.044   1.158   0.064 -1.3261 -0.9263 -0.9694
  482MOL0     H66503  -0.211   1.168  -0.129  0.6956  0.2026 -1.0294
  482MOL0     H66504  -0.323   1.564  -0.295  1.6312  2.0306 -1.0244
  482MOL0     H66505  -0.163   1.520  -0.370 -0.3464  1.4508  0.6085
  482MOL0     H66506  -0.333   1.558  -0.539  1.9446 -0.5125 -0.7518
  482MOL0     H66507  -0.449   1.462  -0.462 -1.6674  2.6151 -3.2576
  482MOL0     H66508  -0.297   1.249  -0.529  1.9511  1.0906  0.2723
  482MOL0     H66509  -0.380   1.332  -0.656  0.5971  1.2400 -0.0241
  482MOL0     H66510  -0.109   1.383  -0.596 -0.5496  2.1102 -0.4567
  482MOL0     H66511  -0.208   1.483  -0.713 -1.8416  0.7403  0.8011
  482MOL0     H66512  -0.098   1.170  -0.955 -0.2079 -0.2966  0.4393
  482MOL0     H66513  -0.156   1.592  -0.147 -2.5272 -0.3396 -0.5770
  482MOL0     H66514  -0.046   1.634   0.177  1.0904 -3.1787 -0.0326
  482MOL0     H66515   0.094   1.653   0.076  1.3439 -2.3238 -1.1912
  482MOL0     H66516  -0.066   1.703   0.012 -2.1624 -2.6612 -0.8426
  483MOL0     O66517   6.711   8.690   9.309  0.4716  0.1557  0.1532
  483MOL0     C66518   6.588   8.689   9.321  0.1366 -0.2042  1.4778
  483MOL0     O66519   6.499   8.741   9.231  0.2388  0.7323 -0.4755
  483MOL0     C66520   6.531   8.770   9.101 -0.2056 -1.1473  0.8367
  483MOL0     C66521   6.460   8.876   9.043  0.9625  0.8361  0.4329
  483MOL0     C66522   6.493   8.928   8.914 -0.0533  0.6345  1.4474
  483MOL0     C66523   6.592   8.865   8.831 -0.1922 -0.6377  0.4420
  483MOL0     O66524   6.627   8.901   8.706  0.5808 -0.1865  0.2475
  483MOL0     C66525   6.587   9.032   8.657  0.4372 -0.1378 -0.0446
  483MOL0     C66526   6.618   9.021   8.511 -0.5005 -0.1266 -0.1139
  483MOL0     C66527   6.636   9.153   8.440  0.1064 -0.8986 -0.1302
  483MOL0     C66528   6.679   9.144   8.292  0.5313  0.7558 -0.2235
  483MOL0     C66529   6.692   9.287   8.236 -0.5721 -0.4186  0.3218
  483MOL0     C66530   6.572   9.364   8.170  0.2741  0.4822  0.4135
  483MOL0     C66531   6.586   9.516   8.138  0.2660  0.8582 -0.3408
  483MOL0     C66532   6.717   9.524   8.053  0.7715 -0.0280  0.6117
  483MOL0     N66533   6.725   9.655   7.986  0.0453  0.0053  0.2555
  483MOL0     C66534   6.683   9.666   7.860 -0.0353  0.1953 -0.1017
  483MOL0     C66535   6.730   9.785   7.811 -0.0158 -0.6524  0.1513
  483MOL0     C66536   6.701   9.836   7.671  0.0037 -1.3775 -1.2165
  483MOL0     C66537   6.592   9.948   7.676 -0.5305 -0.4726  0.0628
  483MOL0     C66538   6.635  10.082   7.732 -0.8675  0.0871  0.5341
  483MOL0     C66539   6.741  10.148   7.643 -0.2976 -0.3842 -0.4913
  483MOL0     O66540   6.740  10.288   7.648  0.3172  0.0116  0.0623
  483MOL0     C66541   6.795  10.364   7.751  0.0262  0.1018  0.1331
  483MOL0     C66542   6.770  10.498   7.753  1.3343 -0.0252 -0.0532
  483MOL0     C66543   6.817  10.583   7.847 -0.3938  0.1300  0.3276
  483MOL0     C66544   6.776  10.729   7.837 -1.0696  0.0328 -0.1559
  483MOL0     C66545   6.910  10.533   7.945 -0.5749  0.3491  0.2288
  483MOL0     C66546   6.984  10.626   8.035 -0.1624  0.4453  0.2097
  483MOL0     O66547   7.040  10.571   8.141  0.8606 -0.1254  0.0275
  483MOL0     C66548   7.126  10.645   8.217  0.1619  0.2628  0.7119
  483MOL0     C66549   7.263  10.619   8.180  0.9461 -0.4016  0.5238
  483MOL0     C66550   7.366  10.671   8.264 -0.3348  1.3135  0.2549
  483MOL0     C66551   7.332  10.747   8.377  0.0804  0.1408 -0.2932
  483MOL0     O66552   7.416  10.791   8.473 -0.2598 -0.2935 -0.6059
  483MOL0     C66553   7.513  10.880   8.409  0.2472 -0.4997  0.6499
  483MOL0     C66554   7.533  11.015   8.477  0.3133 -0.3498 -0.3427
  483MOL0     C66555   7.636  11.008   8.593 -0.0992 -0.4657  0.1111
  483MOL0     C66556   7.646  11.138   8.678  0.2830  0.5297  0.1419
  483MOL0     C66557   7.764  11.126   8.780  0.1213 -0.4081  0.6444
  483MOL0     C66558   7.907  11.068   8.731  0.2574  0.0946 -0.0408
  483MOL0     C66559   8.004  11.097   8.841  0.3535 -1.2753 -1.1502
  483MOL0     C66560   8.147  11.107   8.790  0.3153 -0.7503 -0.7856
  483MOL0    Cl66561   8.168  11.260   8.714  0.4227  0.2607 -0.0355
  483MOL0     C66562   7.194  10.770   8.406 -0.2889 -0.1183  0.2893
  483MOL0     C66563   7.095  10.715   8.334  0.2478  0.4314 -0.2835
  483MOL0     O66564   7.018  10.734   7.992  0.1089  0.2376  0.1772
  483MOL0     C66565   6.927  10.397   7.952 -0.9287  0.3326  0.0433
  483MOL0     C66566   6.874  10.310   7.858  0.4282 -0.2702  0.0418
  483MOL0     N66567   6.809   9.842   7.914  0.0968  1.1502  0.1132
  483MOL0     N66568   6.804   9.761   8.021 -0.3165  1.0729 -0.0466
  483MOL0     C66569   6.661   8.760   8.896  0.3442  0.2493 -0.2772
  483MOL0     C66570   6.628   8.705   9.025  1.0658 -0.1923  0.4141
  483MOL0     C66571   6.525   8.629   9.439 -0.5165 -0.2944 -0.2429
  483MOL0     C66572   6.399   8.559   9.429  0.1176  0.1026  0.8757
  483MOL0     C66573   6.335   8.502   9.536  0.3389  0.1223 -0.0505
  483MOL0     C66574   6.395   8.496   9.661 -0.6958  0.9326  0.3254
  483MOL0     O66575   6.339   8.419   9.767  0.6545 -0.7443  0.3678
  483MOL0     C66576   6.197   8.396   9.780 -0.2701 -1.2338 -0.0791
  483MOL0     C66577   6.138   8.282   9.700  0.2318  0.2368 -0.0226
  483MOL0     C66578   6.181   8.138   9.745 -0.1203  0.2587  0.7231
  483MOL0     C66579   6.337   8.128   9.740  1.0669  0.7312  0.9904
  483MOL0     C66580   6.365   7.992   9.717 -0.8016 -0.2872 -0.5000
  483MOL0     C66581   6.378   7.881   9.669 -0.0951  0.5881  0.3310
  483MOL0     C66582   6.519   8.563   9.680  0.5065 -0.2524 -0.4163
  483MOL0     C66583   6.582   8.638   9.573  0.5866  0.4203 -1.6646
  483MOL0     C66584   6.705   8.721   9.617  0.5069 -0.2985 -0.3003
  483MOL0     H66585   6.371   8.926   9.083 -0.3861  1.5243 -3.0619
  483MOL0     H66586   6.434   9.010   8.875 -1.0403 -1.2496 -1.3180
  483MOL0     H66587   6.648   9.108   8.706 -0.9105  0.4357  0.7757
  483MOL0     H66588   6.479   9.046   8.667 -0.0280 -1.4837 -2.4346
  483MOL0     H66589   6.714   8.970   8.498 -0.3161 -0.2893  1.6792
  483MOL0     H66590   6.541   8.955   8.470 -1.5529  0.4544  0.8890
  483MOL0     H66591   6.546   9.214   8.452  0.9751  0.4389 -0.2199
  483MOL0     H66592   6.705   9.206   8.507 -0.5691  1.0189 -0.8795
  483MOL0     H66593   6.767   9.083   8.270  0.5113  0.4144  0.6111
  483MOL0     H66594   6.612   9.091   8.223  0.3820 -0.4034  0.7618
  483MOL0     H66595   6.780   9.287   8.171  0.4940  0.8022  1.6946
  483MOL0     H66596   6.722   9.349   8.321 -0.4462 -0.7026  0.4861
  483MOL0     H66597   6.546   9.302   8.084  1.7163 -0.6141  0.7208
  483MOL0     H66598   6.490   9.348   8.240  1.2084 -0.4837  1.3264
  483MOL0     H66599   6.598   9.564   8.236 -1.7384 -2.3845  1.6817
  483MOL0     H66600   6.500   9.549   8.077 -1.1648 -0.3922  0.9225
  483MOL0     H66601   6.809   9.505   8.110  1.2190  2.3788  0.8119
  483MOL0     H66602   6.724   9.442   7.982  0.2633 -1.7217  2.4210
  483MOL0     H66603   6.626   9.591   7.805  1.3212 -0.7848 -0.2190
  483MOL0     H66604   6.671   9.753   7.607  2.1193 -2.8432 -0.4148
  483MOL0     H66605   6.788   9.884   7.625 -0.5386  0.8708 -0.0834
  483MOL0     H66606   6.551   9.968   7.576  0.8263  5.6220  0.3429
  483MOL0     H66607   6.505   9.925   7.739 -0.9561  2.2697  0.6015
  483MOL0     H66608   6.547  10.147   7.731 -2.5157 -2.0543  0.5610
  483MOL0     H66609   6.683  10.079   7.830  2.4499  3.3330 -0.7654
  483MOL0     H66610   6.841  10.105   7.656 -0.8519 -1.3396  0.8889
  483MOL0     H66611   6.708  10.131   7.540 -1.2760  1.2690 -0.4840
  483MOL0     H66612   6.699  10.526   7.676 -3.8938  1.9982  4.7179
  483MOL0     H66613   6.841  10.773   7.762  0.7576 -1.9605  0.1663
  483MOL0     H66614   6.796  10.786   7.928  1.3480 -2.3794  0.9664
  483MOL0     H66615   6.669  10.733   7.812 -0.8866  1.3251 -0.8038
  483MOL0     H66616   7.290  10.571   8.086  1.9575  1.6290 -0.2664
  483MOL0     H66617   7.470  10.649   8.243 -1.3423 -0.0003 -4.4358
  483MOL0     H66618   7.607  10.823   8.414  0.3475 -0.7063 -2.2460
  483MOL0     H66619   7.482  10.903   8.307  2.0324  0.7164  0.3244
  483MOL0     H66620   7.560  11.089   8.402  1.5795 -0.3473  0.0875
  483MOL0     H66621   7.437  11.046   8.520  0.7896  0.3048  0.2827
  483MOL0     H66622   7.730  10.983   8.544  0.3382  0.7416  0.3030
  483MOL0     H66623   7.600  10.925   8.654 -0.1949  0.8285  1.8805
  483MOL0     H66624   7.548  11.156   8.724  0.4451  2.4835 -0.2167
  483MOL0     H66625   7.669  11.222   8.612 -2.0876  0.5862 -0.7226
  483MOL0     H66626   7.782  11.226   8.821  3.2053 -0.6688  0.1710
  483MOL0     H66627   7.738  11.055   8.859  1.4565 -3.1527 -1.2451
  483MOL0     H66628   7.929  11.122   8.638 -1.9036  2.1002  0.5258
  483MOL0     H66629   7.907  10.960   8.716  1.2986  0.2541 -1.3451
  483MOL0     H66630   7.999  11.032   8.929 -1.9806  0.7594  0.3313
  483MOL0     H66631   7.984  11.196   8.884 -1.3314 -1.5534 -1.2481
  483MOL0     H66632   8.158  11.027   8.717  1.1825 -0.8881 -0.5023
  483MOL0     H66633   8.212  11.106   8.878 -3.6367  2.4117  2.5819
  483MOL0     H66634   7.188  10.843   8.486  3.8122  0.2837  0.4648
  483MOL0     H66635   6.990  10.721   8.362 -0.1541 -3.4353 -0.4992
  483MOL0     H66636   6.998  10.359   8.025  0.7163 -1.6687 -2.4246
  483MOL0     H66637   6.900  10.205   7.848  4.0318  0.5253 -0.2788
  483MOL0     H66638   6.741   8.715   8.839  2.6416  3.5332  0.0626
  483MOL0     H66639   6.682   8.615   9.054 -0.1679 -1.0931 -0.0040
  483MOL0     H66640   6.366   8.551   9.326  1.1287 -0.0782  0.5475
  483MOL0     H66641   6.245   8.452   9.502  2.0766 -0.9232 -3.5885
  483MOL0     H66642   6.181   8.365   9.884  2.8271 -0.2095  0.8261
  483MOL0     H66643   6.148   8.493   9.766  0.0660 -1.1314 -0.5968
  483MOL0     H66644   6.153   8.292   9.592 -1.0612 -1.9280 -0.4661
  483MOL0     H66645   6.031   8.287   9.719  0.0741  0.8348 -1.0201
  483MOL0     H66646   6.157   8.100   9.845  2.3666  1.4854  1.8828
  483MOL0     H66647   6.139   8.074   9.667 -2.2265  3.6430 -1.1851
  483MOL0     H66648   6.380   8.171   9.831  1.6111  0.6662  0.7687
  483MOL0     H66649   6.385   8.175   9.654  0.0817  0.6367  0.3638
  483MOL0     H66650   6.383   7.785   9.621 -0.1892  1.1204 -0.7959
  483MOL0     H66651   6.578   8.557   9.771  0.1504  4.4629  0.4000
  483MOL0     H66652   6.740   8.806   9.557  0.1782  1.3003  1.6634
  483MOL0     H66653   6.681   8.780   9.706  0.1241  0.3710 -0.8344
  483MOL0     H66654   6.791   8.657   9.641  0.7459  0.8729  2.3688
  484MOL0     O66655   1.679   6.700  10.669  0.6307  0.0097 -0.5602
  484MOL0     C66656   1.638   6.653  10.776  0.2985 -0.2932  0.8001
  484MOL0     O66657   1.689   6.669  10.902  0.1420  0.4269 -0.4605
  484MOL0     C66658   1.797   6.747  10.930  0.2521  0.7335  0.3710
  484MOL0     C66659   1.857   6.846  10.844 -0.1071 -0.5850  0.1897
  484MOL0     C66660   1.953   6.934  10.899 -1.0839  0.7973 -0.0672
  484MOL0     C66661   1.993   6.927  11.035 -1.5983  0.3984  0.9761
  484MOL0     O66662   2.078   7.012  11.090 -0.1822 -0.4524  1.1594
  484MOL0     C66663   2.184   7.061  11.007 -0.4489 -0.1741  0.2835
  484MOL0     C66664   2.276   7.159  11.071  0.6808  0.3701 -0.5948
  484MOL0     C66665   2.371   7.108  11.182 -0.2381  0.4457 -0.0491
  484MOL0     C66666   2.479   7.023  11.135  0.4861 -0.3313  0.9502
  484MOL0     C66667   2.597   7.006  11.239 -0.1507  0.0258  0.7351
  484MOL0     C66668   2.703   6.913  11.191  0.2028  0.6637 -0.1347
  484MOL0     C66669   2.793   6.882  11.308  0.3349  0.4963  0.3802
  484MOL0     C66670   2.891   6.763  11.275 -0.4022 -0.9479 -0.4293
  484MOL0     N66671   2.985   6.802  11.166  1.2231 -0.4656 -0.4989
  484MOL0     C66672   2.966   6.760  11.034 -0.6003 -0.3457  0.3816
  484MOL0     C66673   3.081   6.795  10.964  0.1603  0.1973 -0.3024
  484MOL0     C66674   3.108   6.801  10.818 -0.6642 -0.1975 -0.0312
  484MOL0     C66675   3.004   6.890  10.737 -0.0683 -0.0495  0.4292
  484MOL0     C66676   3.027   6.881  10.586 -0.5367  0.7645 -0.3365
  484MOL0     C66677   3.004   6.737  10.538  0.0275 -0.3778 -0.1525
  484MOL0     O66678   2.879   6.674  10.580  0.0097 -0.0564  0.4219
  484MOL0     C66679   2.758   6.689  10.512 -0.2067  0.4595  0.2796
  484MOL0     C66680   2.742   6.740  10.392 -0.1547  0.0955 -0.1913
  484MOL0     C66681   2.619   6.737  10.325 -0.7885 -0.4688 -0.1671
  484MOL0     C66682   2.612   6.822  10.198 -0.0512  0.3793 -0.2320
  484MOL0     C66683   2.506   6.671  10.371  0.3601  1.0893 -0.6569
  484MOL0     C66684   2.372   6.663  10.292 -0.4921  1.2648 -0.7865
  484MOL0     O66685   2.363   6.673  10.160 -0.6838 -0.4580 -0.0550
  484MOL0     C66686   2.256   6.631  10.095  0.3462  0.1176  0.9914
  484MOL0     C66687   2.250   6.497  10.057  0.7924 -0.7497  0.6829
  484MOL0     C66688   2.135   6.433  10.012  0.2958 -0.2675 -0.8073
  484MOL0     C66689   2.020   6.504   9.986 -0.7015  0.0806 -0.1443
  484MOL0     O66690   1.904   6.444   9.942 -0.3154 -0.5653  0.4688
  484MOL0     C66691   1.920   6.314   9.881 -0.5442 -0.1140 -0.6903
  484MOL0     C66692   1.789   6.282   9.818  0.2472  1.0593  0.2991
  484MOL0     C66693   1.764   6.143   9.751  0.2481 -0.3691 -0.2775
  484MOL0     C66694   1.814   6.025   9.825  0.0131 -0.0256 -0.2025
  484MOL0     C66695   1.814   5.894   9.746  0.2021  1.1692  0.3542
  484MOL0     C66696   1.867   5.779   9.825  0.6324 -0.2423 -0.0455
  484MOL0     C66697   1.888   5.662   9.727 -0.2547  0.4087  0.1024
  484MOL0     C66698   2.038   5.643   9.706  0.1416  0.1844  1.0189
  484MOL0    Cl66699   2.053   5.478   9.636 -0.7045 -0.3399 -0.6027
  484MOL0     C66700   2.013   6.631  10.022 -0.7522  0.1639 -0.4594
  484MOL0     C66701   2.132   6.697  10.077 -0.3985 -0.1427 -0.5028
  484MOL0     O66702   2.279   6.625  10.358  0.1009  0.1364  0.0908
  484MOL0     C66703   2.516   6.617  10.492 -0.1285  0.4807 -1.1989
  484MOL0     C66704   2.644   6.615  10.560 -0.5805 -0.5855 -0.9853
  484MOL0     N66705   3.164   6.858  11.063  0.4280 -0.0250  0.2903
  484MOL0     N66706   3.105   6.865  11.175  0.5776  0.4733 -0.1162
  484MOL0     C66707   1.929   6.838  11.113 -0.3143 -0.1878 -0.6617
  484MOL0     C66708   1.847   6.743  11.063  0.9198 -0.9649  0.0624
  484MOL0     C66709   1.540   6.551  10.778 -0.8145  0.6234 -0.6229
  484MOL0     C66710   1.553   6.450  10.872  0.1534 -0.9917  0.1652
  484MOL0     C66711   1.454   6.349  10.880 -0.9380 -0.2212 -0.1639
  484MOL0     C66712   1.346   6.347  10.797  0.7138 -1.0120  0.0106
  484MOL0     O66713   1.249   6.252  10.794  0.2106  1.0625 -0.3111
  484MOL0     C66714   1.268   6.138  10.887  0.4156 -0.9636  0.3520
  484MOL0     C66715   1.366   6.039  10.839 -0.7757 -0.5320  1.0001
  484MOL0     C66716   1.451   5.991  10.964 -0.2528  0.4842  0.5035
  484MOL0     C66717   1.535   5.862  10.934  0.5777 -0.4995 -0.0722
  484MOL0     C66718   1.623   5.886  10.814  0.7310  0.5070  1.0205
  484MOL0     C66719   1.689   5.906  10.713 -0.7327 -0.4130  0.3013
  484MOL0     C66720   1.330   6.462  10.722 -0.2537 -1.1251  0.3137
  484MOL0     C66721   1.425   6.562  10.706 -0.8476 -0.0796 -0.1597
  484MOL0     C66722   1.392   6.675  10.613  0.1730  0.1892  0.2218
  484MOL0     H66723   1.833   6.868  10.741  1.0544 -2.4699 -0.5512
  484MOL0     H66724   1.983   7.010  10.828 -1.9086  0.6212 -0.6082
  484MOL0     H66725   2.132   7.112  10.925 -1.2022  0.8843  1.3934
  484MOL0     H66726   2.241   6.975  10.971 -0.8446 -1.4155  2.4672
  484MOL0     H66727   2.335   7.197  10.987  0.3776 -2.6978 -2.3323
  484MOL0     H66728   2.212   7.232  11.121 -1.7454 -3.0812  1.8293
  484MOL0     H66729   2.424   7.185  11.238 -1.1551 -0.4966  2.2397
  484MOL0     H66730   2.312   7.053  11.256 -2.0016  0.8420 -1.1190
  484MOL0     H66731   2.450   6.921  11.107 -0.1495 -0.0038  0.3922
  484MOL0     H66732   2.516   7.071  11.044 -1.6973  1.4606  0.9325
  484MOL0     H66733   2.566   6.959  11.333  2.9079  1.0896  2.4239
  484MOL0     H66734   2.650   7.100  11.256  1.1897 -0.0171 -2.4751
  484MOL0     H66735   2.658   6.823  11.149  0.8990  0.9782 -1.6200
  484MOL0     H66736   2.754   6.972  11.114 -1.1639  0.6176 -1.1074
  484MOL0     H66737   2.731   6.866  11.397 -1.5177  1.5100 -0.6670
  484MOL0     H66738   2.858   6.968  11.329 -0.3262  1.0503  0.1921
  484MOL0     H66739   2.944   6.740  11.367  0.6251  1.2634 -0.3907
  484MOL0     H66740   2.836   6.673  11.249 -1.3676 -1.2006  2.2017
  484MOL0     H66741   2.872   6.728  10.990  0.6942 -2.8867 -0.7704
  484MOL0     H66742   3.087   6.702  10.778 -3.6572 -0.7692  2.5576
  484MOL0     H66743   3.213   6.828  10.802 -0.9475  0.8170 -0.2954
  484MOL0     H66744   2.905   6.857  10.770  1.1686 -3.8796  0.9068
  484MOL0     H66745   3.015   6.993  10.770 -2.6518 -0.1067  1.7434
  484MOL0     H66746   2.949   6.946  10.544 -1.1245 -0.1648 -0.7260
  484MOL0     H66747   3.123   6.921  10.552  0.5016 -1.4390 -0.1828
  484MOL0     H66748   3.030   6.751  10.432 -0.5517 -1.1868 -0.4114
  484MOL0     H66749   3.075   6.670  10.589 -0.6324 -0.9419  0.0404
  484MOL0     H66750   2.820   6.797  10.342 -0.2031  0.0837 -0.2795
  484MOL0     H66751   2.679   6.907  10.208 -1.0900  1.1895 -0.0333
  484MOL0     H66752   2.512   6.854  10.171 -0.4250 -0.0612  0.5862
  484MOL0     H66753   2.660   6.764  10.118  2.1028  2.7518 -0.7884
  484MOL0     H66754   2.335   6.434  10.082  2.4133  0.0255 -2.3505
  484MOL0     H66755   2.155   6.333   9.975 -0.0566  0.0325 -1.8409
  484MOL0     H66756   1.989   6.323   9.796  0.3845  2.6156  0.2508
  484MOL0     H66757   1.960   6.236   9.947 -1.3249  1.4475  1.7488
  484MOL0     H66758   1.711   6.291   9.895  0.2061  0.3052  0.3464
  484MOL0     H66759   1.754   6.357   9.745 -2.8100 -0.3713  0.1387
  484MOL0     H66760   1.802   6.155   9.649 -2.2237 -0.9027 -1.3379
  484MOL0     H66761   1.658   6.123   9.729  0.1932 -0.5253  0.1201
  484MOL0     H66762   1.759   6.014   9.919  1.6497 -0.0297  0.8014
  484MOL0     H66763   1.913   6.051   9.863 -1.1870  1.1376  2.3468
  484MOL0     H66764   1.716   5.869   9.705  0.7029  2.0850 -1.5245
  484MOL0     H66765   1.872   5.896   9.653  0.5303 -6.3409 -0.2675
  484MOL0     H66766   1.784   5.766   9.895  2.2244  2.0262  2.4763
  484MOL0     H66767   1.960   5.797   9.880  0.4775 -2.4290  1.0644
  484MOL0     H66768   1.850   5.679   9.626  2.4010  0.0713 -1.0595
  484MOL0     H66769   1.854   5.568   9.772 -1.2303 -0.2504 -1.9184
  484MOL0     H66770   2.094   5.655   9.799  2.2457 -1.6437  0.1120
  484MOL0     H66771   2.083   5.715   9.637 -2.8307  0.4950 -0.7458
  484MOL0     H66772   1.917   6.681  10.018 -1.4004 -0.8907  0.8804
  484MOL0     H66773   2.131   6.804  10.096 -0.1168  0.3908 -3.0927
  484MOL0     H66774   2.435   6.562  10.538  0.8651  0.3285  0.4814
  484MOL0     H66775   2.653   6.569  10.658 -0.0665 -0.9160 -1.1852
  484MOL0     H66776   1.932   6.837  11.221  4.2647  0.2547 -0.6035
  484MOL0     H66777   1.799   6.677  11.135  0.2602  0.1160  0.6321
  484MOL0     H66778   1.638   6.447  10.939  2.6456  1.3071 -2.6073
  484MOL0     H66779   1.466   6.272  10.956 -0.8840  2.1998  2.4108
  484MOL0     H66780   1.295   6.166  10.989 -1.1144  1.2124  0.2315
  484MOL0     H66781   1.174   6.085  10.904  0.2293 -0.3677  1.2402
  484MOL0     H66782   1.437   6.087  10.770 -0.8660 -0.2083  1.1312
  484MOL0     H66783   1.325   5.954  10.785 -1.7112  1.4413 -1.5824
  484MOL0     H66784   1.529   6.061  10.996  2.9172 -3.1116  1.3111
  484MOL0     H66785   1.383   5.966  11.045  0.8419  1.5254  1.8046
  484MOL0     H66786   1.470   5.777  10.912  1.1290 -0.7534 -0.7701
  484MOL0     H66787   1.592   5.851  11.028  0.8187  0.5670 -0.0902
  484MOL0     H66788   1.738   5.920  10.619 -1.2084 -2.5587 -0.3237
  484MOL0     H66789   1.233   6.453  10.674  1.1256 -0.7242 -2.8314
  484MOL0     H66790   1.431   6.774  10.641 -0.1301  0.9259 -1.8024
  484MOL0     H66791   1.446   6.652  10.521  0.6478  2.8715 -0.2554
  484MOL0     H66792   1.287   6.691  10.589 -0.9346 -0.9439  3.6490
  485MOL0     O66793  10.361   7.518   6.575  0.3064 -0.8300  0.4566
  485MOL0     C66794  10.319   7.639   6.564  0.8932  0.3804  0.2189
  485MOL0     O66795  10.374   7.749   6.625 -0.2933 -0.1249 -0.6994
  485MOL0     C66796  10.492   7.719   6.693  0.7316  0.4134 -0.5529
  485MOL0     C66797  10.621   7.742   6.641 -0.6308  0.2314 -0.2976
  485MOL0     C66798  10.737   7.720   6.732 -0.0376 -0.3768  0.4548
  485MOL0     C66799  10.711   7.680   6.866 -0.2031  0.8828 -0.1727
  485MOL0     O66800  10.818   7.681   6.948  0.4479  0.0032  0.2064
  485MOL0     C66801  10.837   7.575   7.048 -0.5330  0.3759  0.5074
  485MOL0     C66802  10.972   7.588   7.109 -0.5468  0.3106 -0.1391
  485MOL0     C66803  11.014   7.482   7.224 -0.4448 -0.7433  0.9833
  485MOL0     C66804  11.163   7.510   7.253 -0.0036  0.7448 -0.4927
  485MOL0     C66805  11.259   7.419   7.166 -0.0156  0.1938  0.1049
  485MOL0     C66806  11.254   7.273   7.230 -0.4990  0.1990 -0.1060
  485MOL0     C66807  11.302   7.162   7.130 -0.1973  0.1212 -0.2496
  485MOL0     C66808  11.449   7.140   7.107  0.5386 -0.2456 -1.4038
  485MOL0     N66809  11.471   7.039   7.011 -0.7050  0.5448 -0.4851
  485MOL0     C66810  11.415   7.038   6.886 -0.0753 -0.4850 -0.4346
  485MOL0     C66811  11.457   6.921   6.827  0.6713 -0.0580 -0.1391
  485MOL0     C66812  11.415   6.887   6.683  0.5554 -0.0713 -0.3366
  485MOL0     C66813  11.495   6.782   6.618  0.1255  0.9799  0.6944
  485MOL0     C66814  11.447   6.742   6.472  0.0242 -0.3079 -0.4979
  485MOL0     C66815  11.531   6.624   6.411 -0.8572  0.5922  0.5394
  485MOL0     O66816  11.463   6.573   6.298  0.3582 -0.0791  0.6128
  485MOL0     C66817  11.538   6.514   6.197  0.0120  0.3674  0.0227
  485MOL0     C66818  11.480   6.466   6.080  0.6096  0.6775 -0.6259
  485MOL0     C66819  11.538   6.397   5.977  0.3494 -0.2473 -0.5978
  485MOL0     C66820  11.453   6.346   5.865  0.1685 -0.0496 -0.7250
  485MOL0     C66821  11.676   6.378   5.986 -0.1150  0.7991  0.0564
  485MOL0     C66822  11.764   6.329   5.871 -0.1958 -1.1745 -1.2746
  485MOL0     O66823  11.885   6.279   5.899  0.6673  0.2468  0.2722
  485MOL0     C66824  11.948   6.220   5.792  0.6312 -1.0347 -0.4551
  485MOL0     C66825  11.882   6.126   5.705 -0.1455 -0.3187 -0.2993
  485MOL0     C66826  11.948   6.088   5.588 -0.2648  0.3870 -0.8633
  485MOL0     C66827  12.078   6.138   5.557 -0.3045 -0.0620  0.6047
  485MOL0     O66828  12.148   6.086   5.449 -0.2658  0.1575  0.1554
  485MOL0     C66829  12.290   6.096   5.445 -0.5539 -0.6114 -0.2402
  485MOL0     C66830  12.370   5.982   5.368 -0.2048  0.2142 -0.6079
  485MOL0     C66831  12.523   5.999   5.397  0.5042  0.1446 -0.9380
  485MOL0     C66832  12.631   5.945   5.304  0.6134 -0.7095 -0.0370
  485MOL0     C66833  12.654   6.031   5.189  0.3049 -0.3339 -0.3379
  485MOL0     C66834  12.782   5.988   5.113  0.3142  0.2687  0.7065
  485MOL0     C66835  12.806   6.079   4.991  0.7499 -0.3045  0.2399
  485MOL0     C66836  12.929   6.044   4.914 -0.1320  0.2046 -0.2449
  485MOL0    Cl66837  13.078   6.054   5.007  0.3089 -0.2849  0.1570
  485MOL0     C66838  12.131   6.233   5.644 -1.2616 -0.3752 -0.4835
  485MOL0     C66839  12.073   6.267   5.765  0.9061 -0.1769  0.3213
  485MOL0     O66840  11.727   6.357   5.759 -0.5243  0.2441  0.2335
  485MOL0     C66841  11.738   6.412   6.101  0.1405 -0.7603 -0.2266
  485MOL0     C66842  11.676   6.492   6.199  0.7015  0.4179  0.0809
  485MOL0     N66843  11.536   6.850   6.916  0.6050 -0.2739 -0.4624
  485MOL0     N66844  11.546   6.921   7.022 -0.0436  0.0323  0.2028
  485MOL0     C66845  10.583   7.650   6.908 -0.1342  0.1511 -0.2974
  485MOL0     C66846  10.477   7.667   6.825  0.5650 -0.4209 -0.5025
  485MOL0     C66847  10.198   7.670   6.482  0.0116 -0.5274  0.1412
  485MOL0     C66848  10.133   7.556   6.424  0.2813 -0.0335 -1.1785
  485MOL0     C66849  10.023   7.582   6.341  0.1800 -0.4993 -0.5596
  485MOL0     C66850   9.967   7.709   6.327 -0.6328 -0.1559  1.0009
  485MOL0     O66851   9.862   7.735   6.254  0.1671 -0.1702  0.2723
  485MOL0     C66852   9.846   7.673   6.125  0.6506 -0.4199  1.2793
  485MOL0     C66853   9.746   7.746   6.026  0.3871 -0.2316 -0.4640
  485MOL0     C66854   9.761   7.902   6.033 -0.6125 -0.2717 -0.1466
  485MOL0     C66855   9.885   7.940   5.950 -0.5654 -0.1832 -0.4757
  485MOL0     C66856  10.000   7.954   6.043 -0.4502 -0.7164  0.7072
  485MOL0     C66857  10.090   7.967   6.115  0.3682  1.2328 -0.8114
  485MOL0     C66858  10.032   7.815   6.378 -0.4509  0.4568  0.1485
  485MOL0     C66859  10.140   7.805   6.458  0.4470  0.3432  0.7657
  485MOL0     C66860  10.190   7.925   6.533  0.1654  0.3831 -0.5991
  485MOL0     H66861  10.630   7.777   6.538  0.6754 -0.8694 -0.5754
  485MOL0     H66862  10.836   7.751   6.702 -0.9860  1.1871 -1.2908
  485MOL0     H66863  10.828   7.477   7.000  0.1790  1.9198 -3.0946
  485MOL0     H66864  10.759   7.570   7.125 -2.3061 -0.5758 -1.2647
  485MOL0     H66865  11.040   7.586   7.024 -1.1468  1.9787 -0.7151
  485MOL0     H66866  10.994   7.688   7.149  1.6870 -0.0618 -0.3325
  485MOL0     H66867  10.948   7.506   7.308 -2.4567  0.4586 -0.8350
  485MOL0     H66868  11.000   7.380   7.189  0.9005 -0.1861 -1.3978
  485MOL0     H66869  11.182   7.618   7.245 -0.1623  0.9322  1.3193
  485MOL0     H66870  11.182   7.492   7.359  1.4426  0.2016 -0.8145
  485MOL0     H66871  11.361   7.459   7.172  1.1044 -2.3192 -0.9261
  485MOL0     H66872  11.236   7.429   7.059 -0.1613 -1.1666 -0.0011
  485MOL0     H66873  11.310   7.264   7.324 -4.1669 -1.3103  2.1661
  485MOL0     H66874  11.150   7.244   7.248 -0.6048 -0.9842 -2.2909
  485MOL0     H66875  11.252   7.165   7.032  0.8150 -3.1156 -0.9782
  485MOL0     H66876  11.254   7.076   7.177 -2.1497  1.4049  0.2553
  485MOL0     H66877  11.481   7.235   7.064 -1.4154  0.9216 -0.4243
  485MOL0     H66878  11.500   7.116   7.200 -0.8820  1.1456 -0.2167
  485MOL0     H66879  11.352   7.115   6.842  2.6044  2.1481 -0.0452
  485MOL0     H66880  11.428   6.982   6.630  2.0031 -1.5653 -2.8644
  485MOL0     H66881  11.308   6.866   6.678 -0.4810  4.1335  0.3567
  485MOL0     H66882  11.601   6.809   6.610  0.5334 -0.3890  1.2395
  485MOL0     H66883  11.483   6.694   6.681  1.1148 -1.0323 -1.7415
  485MOL0     H66884  11.345   6.704   6.478  0.0350 -0.3281 -0.4374
  485MOL0     H66885  11.444   6.840   6.424  2.2275  0.5953  1.0118
  485MOL0     H66886  11.635   6.654   6.393 -1.0872  0.8827 -0.3222
  485MOL0     H66887  11.534   6.551   6.493 -2.0424  2.2060  2.0992
  485MOL0     H66888  11.373   6.476   6.074  0.5397  0.8896  0.7094
  485MOL0     H66889  11.350   6.383   5.867 -0.0383 -0.5737  2.0997
  485MOL0     H66890  11.446   6.238   5.881  1.2472  0.0420  0.5724
  485MOL0     H66891  11.492   6.370   5.766 -0.2626 -0.3035 -0.9644
  485MOL0     H66892  11.782   6.086   5.719 -0.6478 -0.1921 -3.0126
  485MOL0     H66893  11.903   6.027   5.510 -2.0437  2.2024 -1.3499
  485MOL0     H66894  12.319   6.194   5.406 -0.3975  0.1590  1.7143
  485MOL0     H66895  12.332   6.096   5.546  2.2989  0.3775 -1.3199
  485MOL0     H66896  12.343   5.883   5.406  4.6544 -1.4896 -0.8356
  485MOL0     H66897  12.350   5.994   5.262 -0.9088  0.6426 -0.4331
  485MOL0     H66898  12.551   5.946   5.489 -0.9947 -3.4964 -2.3939
  485MOL0     H66899  12.540   6.106   5.410  0.5654  0.0419 -0.1037
  485MOL0     H66900  12.601   5.843   5.278  2.0532 -2.0249  2.9717
  485MOL0     H66901  12.726   5.943   5.357  0.3469  0.0517  0.4818
  485MOL0     H66902  12.560   6.035   5.133 -0.2528  0.7245  0.6267
  485MOL0     H66903  12.655   6.137   5.215 -2.5801 -0.5327  0.8882
  485MOL0     H66904  12.776   5.880   5.100  2.8421  0.1608 -0.1429
  485MOL0     H66905  12.869   6.002   5.178  1.1494  0.7681 -0.4761
  485MOL0     H66906  12.826   6.177   5.035  1.0800 -0.8012  1.2261
  485MOL0     H66907  12.718   6.090   4.927  0.6193 -2.4722 -0.0469
  485MOL0     H66908  12.925   6.107   4.825 -1.2936 -1.2779 -1.2874
  485MOL0     H66909  12.930   5.945   4.869  1.0633  0.1744 -0.1968
  485MOL0     H66910  12.223   6.283   5.616 -1.8504  0.2608 -1.3163
  485MOL0     H66911  12.131   6.322   5.838 -1.1713  0.5612  1.4692
  485MOL0     H66912  11.843   6.393   6.118 -0.2619 -1.7104  1.3785
  485MOL0     H66913  11.733   6.519   6.287 -0.9663 -2.7316  2.3301
  485MOL0     H66914  10.571   7.612   7.009 -0.7382 -0.1235 -0.4684
  485MOL0     H66915  10.374   7.666   6.860  1.4925  1.8392  2.6444
  485MOL0     H66916  10.141   7.448   6.436 -2.2996  0.0248  3.0947
  485MOL0     H66917   9.975   7.495   6.295  0.6986 -2.9215  3.0913
  485MOL0     H66918   9.938   7.650   6.071 -0.0861 -1.0622  0.2506
  485MOL0     H66919   9.792   7.578   6.134  0.7135 -0.6278 -0.2759
  485MOL0     H66920   9.642   7.738   6.059 -0.1436 -0.2087 -2.0397
  485MOL0     H66921   9.751   7.719   5.921  1.9999  1.3831 -0.8496
  485MOL0     H66922   9.671   7.946   5.990 -2.7882 -1.4630  2.8400
  485MOL0     H66923   9.776   7.947   6.131  1.3100  0.3210 -0.6714
  485MOL0     H66924   9.854   8.036   5.906 -1.5877  1.4901  3.4013
  485MOL0     H66925   9.906   7.868   5.871 -0.7620 -1.5028  0.6375
  485MOL0     H66926  10.174   7.972   6.182 -0.7545  1.3053  0.6597
  485MOL0     H66927   9.992   7.912   6.349 -2.0805  0.2648  1.6012
  485MOL0     H66928  10.273   7.961   6.472 -1.9747 -2.4297 -5.7292
  485MOL0     H66929  10.110   8.000   6.530  1.6097  2.0994  0.9878
  485MOL0     H66930  10.201   7.910   6.641 -3.9397  0.7108  0.0133
  486MOL0     O66931   6.484   4.402  10.086 -0.2346  0.2607 -0.5611
  486MOL0     C66932   6.557   4.323  10.148 -0.1867  0.3639  0.1516
  486MOL0     O66933   6.555   4.197  10.134 -0.0376 -0.6427  0.8863
  486MOL0     C66934   6.459   4.148  10.040 -1.0526  0.6200 -0.0671
  486MOL0     C66935   6.501   4.101   9.913  0.4760  0.1065 -0.2738
  486MOL0     C66936   6.419   4.042   9.828  0.7805  0.6910 -0.2435
  486MOL0     C66937   6.290   4.027   9.866  0.1879  0.6856  0.5935
  486MOL0     O66938   6.199   3.953   9.791  0.9917  0.2671  0.2994
  486MOL0     C66939   6.175   3.984   9.651  0.1598 -0.4290 -0.1372
  486MOL0     C66940   6.046   3.913   9.609 -0.6230  0.2625  0.3077
  486MOL0     C66941   5.934   4.020   9.629 -0.4296  0.6332 -0.5913
  486MOL0     C66942   5.906   4.055   9.775  0.1810 -0.0614 -0.1161
  486MOL0     C66943   5.768   4.120   9.793 -0.8408 -0.0512  0.3382
  486MOL0     C66944   5.652   4.020   9.785 -1.0082 -1.3580 -0.6629
  486MOL0     C66945   5.644   3.918   9.899 -0.1440 -0.8415 -0.1489
  486MOL0     C66946   5.511   3.844   9.906  0.3046 -0.9061  0.3551
  486MOL0     N66947   5.385   3.931   9.924 -0.0348  0.4240 -0.3399
  486MOL0     C66948   5.390   4.040  10.006 -0.1378 -0.4643 -0.3050
  486MOL0     C66949   5.287   4.114   9.973 -0.8020  0.4799 -1.6079
  486MOL0     C66950   5.257   4.247  10.046  0.0240  0.2403  0.0530
  486MOL0     C66951   5.105   4.245  10.051  1.0222 -0.1995 -0.0526
  486MOL0     C66952   5.060   4.353  10.138  0.0861 -0.8970 -0.6964
  486MOL0     C66953   4.944   4.443  10.082  0.6138  0.3078  0.3662
  486MOL0     O66954   4.973   4.484   9.943  0.1480 -0.2767 -0.3905
  486MOL0     C66955   4.902   4.590   9.907  0.6104  0.2183 -0.7957
  486MOL0     C66956   4.756   4.594   9.908 -0.4065  0.6184 -0.2984
  486MOL0     C66957   4.686   4.711   9.871 -0.1338 -0.3471 -0.4760
  486MOL0     C66958   4.539   4.696   9.885 -0.9251  0.0846  0.5801
  486MOL0     C66959   4.759   4.826   9.828 -0.4750  0.0356  0.8166
  486MOL0     C66960   4.685   4.953   9.782 -0.1071  0.8828 -0.6531
  486MOL0     O66961   4.743   5.075   9.813  0.1639  0.1414 -0.4393
  486MOL0     C66962   4.657   5.187   9.827 -0.2866  1.0987  0.6031
  486MOL0     C66963   4.513   5.174   9.843  0.5008 -0.6317 -1.1468
  486MOL0     C66964   4.433   5.282   9.864 -0.4911 -0.3884  0.3291
  486MOL0     C66965   4.486   5.409   9.856  0.4812  0.6124 -0.2868
  486MOL0     O66966   4.395   5.518   9.858 -0.2123  0.5191  0.2928
  486MOL0     C66967   4.444   5.637   9.902 -0.4836 -0.4276  0.0370
  486MOL0     C66968   4.328   5.737   9.935  0.6181  0.5778 -0.5277
  486MOL0     C66969   4.280   5.718  10.084  0.6461  0.5657 -0.1620
  486MOL0     C66970   4.312   5.839  10.163 -0.2926 -0.1444 -0.2677
  486MOL0     C66971   4.323   5.804  10.321 -1.3389  0.0599  0.7487
  486MOL0     C66972   4.206   5.728  10.373 -0.5699 -0.2090 -0.1439
  486MOL0     C66973   4.205   5.714  10.525  0.0792  0.2894  0.2556
  486MOL0     C66974   4.064   5.683  10.580 -0.1911  0.3481  0.0686
  486MOL0    Cl66975   3.967   5.832  10.547 -0.1947 -0.2830  0.0574
  486MOL0     C66976   4.627   5.429   9.849 -0.0458  0.7634 -0.3961
  486MOL0     C66977   4.711   5.310   9.836 -0.1813 -0.4549 -0.0964
  486MOL0     O66978   4.592   4.934   9.704 -0.4457  0.0909 -0.1617
  486MOL0     C66979   4.900   4.821   9.812 -0.0514 -0.3633 -0.8097
  486MOL0     C66980   4.968   4.703   9.860  0.4595  0.0576  0.4998
  486MOL0     N66981   5.223   4.046   9.873 -0.5816  0.9107 -0.1258
  486MOL0     N66982   5.296   3.946   9.832  0.4330  0.4694  0.9961
  486MOL0     C66983   6.237   4.070   9.990  0.4014  0.5886  0.4850
  486MOL0     C66984   6.324   4.110  10.081  0.5117 -0.3483  0.4025
  486MOL0     C66985   6.657   4.373  10.254  1.5342  0.6705  0.3092
  486MOL0     C66986   6.731   4.276  10.324  0.8876  0.2271  0.0033
  486MOL0     C66987   6.829   4.316  10.414  0.0901 -0.7294  0.8321
  486MOL0     C66988   6.851   4.445  10.450  0.3135 -0.0389 -0.0571
  486MOL0     O66989   6.946   4.479  10.542 -0.6392  0.5946  0.2407
  486MOL0     C66990   6.922   4.413  10.663  0.7832 -0.1001  0.9256
  486MOL0     C66991   7.019   4.463  10.760 -0.4823 -0.3626 -0.0095
  486MOL0     C66992   6.949   4.465  10.900 -0.3010  0.5243 -0.0565
  486MOL0     C66993   7.042   4.552  10.982  0.5452 -0.7063  0.4605
  486MOL0     C66994   7.025   4.519  11.127  0.4270 -1.0053  0.1647
  486MOL0     C66995   6.993   4.506  11.239  0.7402  0.0457 -0.4172
  486MOL0     C66996   6.769   4.539  10.388  0.4714  0.6295  0.3830
  486MOL0     C66997   6.673   4.510  10.288 -0.5087 -0.3386 -0.5481
  486MOL0     C66998   6.618   4.634  10.208 -0.0373 -0.1795 -0.5055
  486MOL0     H66999   6.608   4.116   9.901  0.6268  0.8768  1.5897
  486MOL0     H67000   6.451   3.998   9.734  0.2050 -1.2341  0.4136
  486MOL0     H67001   6.248   3.931   9.589 -2.1416 -0.7187 -2.8248
  486MOL0     H67002   6.162   4.090   9.630 -2.7233 -1.0655 -2.2607
  486MOL0     H67003   6.047   3.871   9.508  1.2938 -0.4413  0.5776
  486MOL0     H67004   6.032   3.839   9.687  1.3177  1.0842  1.5013
  486MOL0     H67005   5.949   4.108   9.565  3.0558 -0.3480 -1.2730
  486MOL0     H67006   5.844   3.975   9.587  1.7818 -1.9520 -2.9209
  486MOL0     H67007   5.923   3.965   9.836 -0.2054 -1.5092 -2.0336
  486MOL0     H67008   5.988   4.113   9.818  0.2794 -1.0327  1.0675
  486MOL0     H67009   5.756   4.181   9.703  0.4182 -0.7736 -0.3425
  486MOL0     H67010   5.767   4.187   9.880 -0.7006 -2.0549  1.9648
  486MOL0     H67011   5.558   4.075   9.777 -1.7070 -2.6799 -2.3864
  486MOL0     H67012   5.666   3.974   9.687  2.4660  0.0240 -0.9474
  486MOL0     H67013   5.669   3.970   9.993  2.7598 -2.2452 -0.0278
  486MOL0     H67014   5.722   3.842   9.897 -1.2524 -2.0064 -0.2490
  486MOL0     H67015   5.497   3.785   9.815 -0.2730 -0.8404  0.4031
  486MOL0     H67016   5.534   3.775   9.988 -1.8297 -2.8612 -0.5781
  486MOL0     H67017   5.455   4.065  10.090 -0.0700  2.1506 -1.0236
  486MOL0     H67018   5.285   4.339   9.993  0.4464  1.7573  2.7434
  486MOL0     H67019   5.312   4.256  10.140 -3.2808  0.4013  2.1088
  486MOL0     H67020   5.056   4.254   9.953 -2.4971 -1.0624  1.4697
  486MOL0     H67021   5.069   4.151  10.094  2.5304  0.0102  1.8093
  486MOL0     H67022   5.029   4.321  10.238  1.0340  1.9076  0.5900
  486MOL0     H67023   5.136   4.428  10.161 -1.8451  1.8009 -2.5650
  486MOL0     H67024   4.855   4.381  10.076  1.6624 -1.1276 -1.5602
  486MOL0     H67025   4.940   4.529  10.149  0.3888  0.9277 -0.4257
  486MOL0     H67026   4.701   4.516   9.960 -1.4390  1.0703 -0.6929
  486MOL0     H67027   4.503   4.593   9.897 -0.6296 -0.0625  0.2064
  486MOL0     H67028   4.495   4.735   9.793 -0.3662 -1.2324 -0.2673
  486MOL0     H67029   4.513   4.745   9.979  2.2872  0.9374  1.1407
  486MOL0     H67030   4.469   5.074   9.841  0.6990 -0.7190 -1.1994
  486MOL0     H67031   4.325   5.283   9.864 -0.5348 -0.3135 -2.1405
  486MOL0     H67032   4.519   5.632   9.981  0.1744 -1.4057 -0.6101
  486MOL0     H67033   4.495   5.675   9.813  1.5337  2.6605  2.3022
  486MOL0     H67034   4.374   5.836   9.924 -0.5381  0.9823 -1.9000
  486MOL0     H67035   4.246   5.734   9.863  0.2886  1.8927 -0.2454
  486MOL0     H67036   4.324   5.626  10.123 -1.3256 -1.4166 -2.3196
  486MOL0     H67037   4.171   5.704  10.083  0.5238  0.7923  2.7500
  486MOL0     H67038   4.248   5.925  10.137  0.8617  0.8118 -0.0624
  486MOL0     H67039   4.409   5.883  10.139  0.1712  0.2704  2.1766
  486MOL0     H67040   4.420   5.754  10.334  0.3548  3.3314  1.7599
  486MOL0     H67041   4.340   5.896  10.376  0.9790 -0.9986  1.9829
  486MOL0     H67042   4.224   5.625  10.339  4.4764  0.6714 -1.0335
  486MOL0     H67043   4.113   5.760  10.325 -1.7451  0.3495  2.3628
  486MOL0     H67044   4.249   5.804  10.568  2.8727  0.3718 -2.4600
  486MOL0     H67045   4.268   5.627  10.542 -0.2114 -0.1047 -0.6136
  486MOL0     H67046   4.058   5.655  10.685  0.1203  0.4768  0.1216
  486MOL0     H67047   4.021   5.595  10.529  0.9272  0.1181 -0.5097
  486MOL0     H67048   4.677   5.525   9.862  1.2299  0.0847 -0.1324
  486MOL0     H67049   4.815   5.338   9.822 -0.3854 -0.4390 -1.8463
  486MOL0     H67050   4.947   4.911   9.773  2.1399 -0.9874  0.2342
  486MOL0     H67051   5.076   4.708   9.866  0.5875 -1.4232 -0.1553
  486MOL0     H67052   6.134   4.040  10.009  0.5875 -0.9555 -0.7436
  486MOL0     H67053   6.291   4.144  10.179 -0.4792 -4.6065  1.7291
  486MOL0     H67054   6.736   4.170  10.301 -0.8743  0.2938 -0.9222
  486MOL0     H67055   6.909   4.250  10.446  1.2606 -0.8236 -1.9703
  486MOL0     H67056   6.823   4.454  10.682 -0.3965 -1.6384 -1.3962
  486MOL0     H67057   6.933   4.304  10.665 -0.7586 -0.2784  0.8607
  486MOL0     H67058   7.048   4.564  10.729  3.2722 -0.9788  0.9710
  486MOL0     H67059   7.113   4.407  10.748 -0.9306 -0.9274 -0.9608
  486MOL0     H67060   6.856   4.521  10.885  1.0711  2.9341 -0.0482
  486MOL0     H67061   6.923   4.366  10.940  0.4944  0.7240  0.9780
  486MOL0     H67062   7.019   4.658  10.971  1.4244 -0.4990  0.5545
  486MOL0     H67063   7.143   4.525  10.950  1.2167 -0.8721  2.5781
  486MOL0     H67064   6.972   4.485  11.342  0.4044 -1.9612 -0.8545
  486MOL0     H67065   6.790   4.645  10.397  1.1459  0.4246  1.3343
  486MOL0     H67066   6.510   4.647  10.196  0.2949  2.5121 -1.1202
  486MOL0     H67067   6.664   4.718  10.260 -0.7201  1.5354 -2.5521
  486MOL0     H67068   6.654   4.638  10.105 -1.6328  1.6470 -1.0425
  487MOL0     O67069  10.788   6.921   1.529  0.1581 -0.1380 -0.3088
  487MOL0     C67070  10.842   6.809   1.525 -0.2230 -0.6987 -0.0031
  487MOL0     O67071  10.770   6.693   1.526  0.1585 -0.1186  1.0235
  487MOL0     C67072  10.635   6.702   1.543  0.2431  1.1204 -0.3328
  487MOL0     C67073  10.573   6.761   1.654 -0.2404 -0.5073 -0.2328
  487MOL0     C67074  10.445   6.740   1.691  0.6713  0.5216  0.6651
  487MOL0     C67075  10.366   6.640   1.623  0.1941  0.1808  0.1136
  487MOL0     O67076  10.238   6.628   1.658  0.3325  0.5284  0.6244
  487MOL0     C67077  10.161   6.733   1.594  0.3147  0.0294  0.3840
  487MOL0     C67078  10.031   6.748   1.678 -0.6874 -0.0429  0.5304
  487MOL0     C67079  10.057   6.795   1.820 -0.4278 -0.4381 -0.3332
  487MOL0     C67080   9.939   6.750   1.906 -0.4883 -0.5145  0.0478
  487MOL0     C67081   9.902   6.836   2.033  0.2864 -0.5747  0.0696
  487MOL0     C67082   9.775   6.777   2.116  0.2712 -0.4588  0.2535
  487MOL0     C67083   9.749   6.870   2.233 -0.2848 -0.2908  0.0806
  487MOL0     C67084   9.655   6.980   2.193  0.0867  0.1625  0.0878
  487MOL0     N67085   9.616   7.044   2.314 -1.2791  0.8764  0.1973
  487MOL0     C67086   9.698   7.117   2.402 -0.3262 -0.9330 -0.2386
  487MOL0     C67087   9.603   7.163   2.497  0.0467  0.3930 -0.8897
  487MOL0     C67088   9.631   7.232   2.635 -0.9042 -0.6283 -0.3986
  487MOL0     C67089   9.654   7.126   2.743  0.7706  0.9809  0.3349
  487MOL0     C67090   9.529   7.077   2.813  0.5638  0.7937  0.0740
  487MOL0     C67091   9.436   7.185   2.871  0.6731  0.6378  0.7629
  487MOL0     O67092   9.521   7.294   2.926 -0.9752  0.0857  0.0376
  487MOL0     C67093   9.466   7.406   2.980 -0.3599 -0.6185 -0.0210
  487MOL0     C67094   9.542   7.525   3.001 -0.0578 -0.4022 -0.4677
  487MOL0     C67095   9.500   7.642   3.053  0.9843 -0.5746 -0.0811
  487MOL0     C67096   9.600   7.754   3.063 -0.1747  0.1674 -0.6626
  487MOL0     C67097   9.360   7.655   3.082  0.5587 -0.0739 -0.5478
  487MOL0     C67098   9.305   7.782   3.131 -0.3673 -0.1647  0.0142
  487MOL0     O67099   9.170   7.788   3.135  0.0848  0.1346 -0.4321
  487MOL0     C67100   9.109   7.899   3.200 -0.7889  0.0492  0.3179
  487MOL0     C67101   9.113   8.032   3.142  0.8225  0.1803  0.7556
  487MOL0     C67102   9.041   8.135   3.212 -0.6516  0.4210 -0.4871
  487MOL0     C67103   8.967   8.122   3.326  0.7310  0.6901 -0.3707
  487MOL0     O67104   8.894   8.224   3.383 -0.1000 -0.0926  0.0297
  487MOL0     C67105   8.778   8.187   3.460  0.0975  0.5172  0.0977
  487MOL0     C67106   8.690   8.308   3.482  0.3207 -0.6818  0.3327
  487MOL0     C67107   8.670   8.410   3.363  0.1571 -0.4592  0.3070
  487MOL0     C67108   8.550   8.394   3.279 -0.1648 -0.0026 -0.0045
  487MOL0     C67109   8.421   8.415   3.358 -0.4305 -0.3082 -0.0658
  487MOL0     C67110   8.311   8.437   3.256  0.0612 -0.1398  0.2499
  487MOL0     C67111   8.172   8.465   3.317 -0.8296 -0.7758  0.1394
  487MOL0     C67112   8.070   8.485   3.202 -0.5382 -0.6583 -0.0772
  487MOL0    Cl67113   8.037   8.324   3.132  0.0942 -0.2867  0.0763
  487MOL0     C67114   8.955   7.994   3.381  0.2498 -0.6562 -0.6675
  487MOL0     C67115   9.023   7.886   3.315  0.7348 -0.0976  0.9495
  487MOL0     O67116   9.383   7.851   3.198 -0.0988 -0.3751  0.5808
  487MOL0     C67117   9.288   7.540   3.072  0.2919  0.1090  0.2903
  487MOL0     C67118   9.330   7.424   3.007  0.1711  0.7579 -0.4362
  487MOL0     N67119   9.481   7.122   2.445  0.1133  0.6940 -0.7056
  487MOL0     N67120   9.484   7.040   2.353  0.0139  0.1436 -0.8092
  487MOL0     C67121  10.430   6.571   1.518  1.5294 -0.1879  0.6320
  487MOL0     C67122  10.559   6.602   1.477  0.1143  0.1322  0.8311
  487MOL0     C67123  10.995   6.793   1.540 -0.6735  0.2549  0.6640
  487MOL0     C67124  11.048   6.672   1.595 -0.1547 -0.3556 -0.8516
  487MOL0     C67125  11.183   6.660   1.616 -0.0016 -0.7752  0.3017
  487MOL0     C67126  11.272   6.765   1.572  0.0774  0.4601  0.1296
  487MOL0     O67127  11.404   6.724   1.578  0.1376  0.0534 -0.0765
  487MOL0     C67128  11.519   6.811   1.570 -1.2909 -0.2512  0.1891
  487MOL0     C67129  11.551   6.843   1.727 -1.0419  0.2536  1.0295
  487MOL0     C67130  11.465   6.950   1.788  0.1589 -1.2963  0.2170
  487MOL0     C67131  11.483   6.962   1.940  0.9170 -1.2198 -0.7364
  487MOL0     C67132  11.615   6.994   1.990 -0.1529  0.1484 -0.3489
  487MOL0     C67133  11.718   7.006   2.055  0.4751 -0.1660  0.2265
  487MOL0     C67134  11.223   6.879   1.510 -0.4651 -0.0257  0.2743
  487MOL0     C67135  11.080   6.895   1.499 -0.4452 -0.4805  0.1935
  487MOL0     C67136  11.035   7.007   1.408  0.0581 -0.2588  0.0693
  487MOL0     H67137  10.633   6.815   1.726  0.4512 -0.6132 -0.7175
  487MOL0     H67138  10.408   6.780   1.785 -2.7040  0.9038 -0.6822
  487MOL0     H67139  10.155   6.698   1.491  1.6545  0.2889  0.1983
  487MOL0     H67140  10.201   6.834   1.605 -2.5887  1.1786  1.2617
  487MOL0     H67141   9.971   6.828   1.634 -2.0065 -0.4957  1.4629
  487MOL0     H67142   9.978   6.653   1.671  0.7042 -0.7033 -2.1037
  487MOL0     H67143  10.148   6.756   1.866 -2.8842 -2.1439  3.6000
  487MOL0     H67144  10.066   6.904   1.808 -0.9881 -0.6377 -3.4406
  487MOL0     H67145   9.848   6.736   1.847 -0.1326  0.7468 -0.8438
  487MOL0     H67146   9.972   6.649   1.934  0.4208 -0.3039 -0.2507
  487MOL0     H67147   9.871   6.938   2.006  0.8366 -0.4410 -0.0738
  487MOL0     H67148   9.991   6.853   2.095 -0.1349 -2.0926  1.1570
  487MOL0     H67149   9.682   6.753   2.065  0.9018 -1.3425 -0.5087
  487MOL0     H67150   9.805   6.689   2.174  0.9366 -0.9312 -0.7873
  487MOL0     H67151   9.844   6.898   2.280 -0.5636 -1.9473  1.7716
  487MOL0     H67152   9.701   6.817   2.316  2.0714 -1.9579  0.4791
  487MOL0     H67153   9.705   7.060   2.137 -2.6248  2.1443  0.3251
  487MOL0     H67154   9.574   6.945   2.128 -1.0322  0.7350  1.1335
  487MOL0     H67155   9.804   7.138   2.406 -0.5067  0.1050 -0.5329
  487MOL0     H67156   9.542   7.293   2.651 -2.7119 -2.6649 -2.1417
  487MOL0     H67157   9.714   7.302   2.629 -1.6345  0.2915 -0.0053
  487MOL0     H67158   9.699   7.040   2.692  0.0216  1.7383 -1.6900
  487MOL0     H67159   9.719   7.157   2.825  1.9227  0.4543 -0.3645
  487MOL0     H67160   9.468   7.016   2.746 -0.3901  1.2488  0.5137
  487MOL0     H67161   9.563   7.010   2.893  0.1625 -3.0994 -2.6969
  487MOL0     H67162   9.371   7.208   2.786  3.3410 -0.4575 -1.7395
  487MOL0     H67163   9.373   7.147   2.952 -0.0803 -1.7135 -0.8106
  487MOL0     H67164   9.647   7.509   2.980 -0.2010 -2.6199  0.2293
  487MOL0     H67165   9.561   7.843   3.012 -1.0380 -0.1716 -0.6238
  487MOL0     H67166   9.695   7.721   3.021 -0.5701 -2.0898  0.0651
  487MOL0     H67167   9.622   7.792   3.163  1.7930  1.3874 -1.5032
  487MOL0     H67168   9.169   8.038   3.049 -0.3227  0.2496  0.0503
  487MOL0     H67169   9.060   8.235   3.174  1.8190  0.4122  0.5544
  487MOL0     H67170   8.720   8.107   3.414  0.6840  1.2995 -2.1498
  487MOL0     H67171   8.800   8.145   3.559 -0.6957 -1.8606 -0.6858
  487MOL0     H67172   8.591   8.272   3.512  0.5283  0.6250  2.7954
  487MOL0     H67173   8.721   8.368   3.568  0.7065  1.8035 -1.4171
  487MOL0     H67174   8.756   8.406   3.295  1.8952  0.1789  2.3850
  487MOL0     H67175   8.657   8.508   3.410  0.2562 -0.8554  1.1786
  487MOL0     H67176   8.562   8.294   3.237  0.7679  0.6374 -1.3207
  487MOL0     H67177   8.555   8.459   3.191 -2.5915 -2.9163 -2.5425
  487MOL0     H67178   8.395   8.324   3.414 -0.4139 -1.7056 -2.2153
  487MOL0     H67179   8.421   8.505   3.420 -1.1359 -1.1127  1.1413
  487MOL0     H67180   8.311   8.341   3.204  1.1994 -0.7109  1.2746
  487MOL0     H67181   8.342   8.521   3.193 -0.0401 -1.4907 -1.6780
  487MOL0     H67182   8.170   8.555   3.379 -1.0724 -2.2001  2.3028
  487MOL0     H67183   8.139   8.383   3.382 -1.3356 -2.0715 -1.6820
  487MOL0     H67184   8.108   8.561   3.133  4.3941  0.0268  2.8159
  487MOL0     H67185   7.971   8.519   3.234 -1.1325 -3.1653  0.9362
  487MOL0     H67186   8.904   7.958   3.469  2.2035 -1.9695  0.0012
  487MOL0     H67187   9.007   7.786   3.355 -1.2703  0.2265  1.0579
  487MOL0     H67188   9.181   7.542   3.087 -0.6354 -2.5156 -4.0297
  487MOL0     H67189   9.263   7.339   2.999 -0.0336  1.1110 -3.1797
  487MOL0     H67190  10.377   6.508   1.447 -0.1879 -0.8638  2.4131
  487MOL0     H67191  10.600   6.545   1.394  0.1964  0.0898  0.9002
  487MOL0     H67192  10.978   6.596   1.627 -1.3034  0.7874 -0.5546
  487MOL0     H67193  11.225   6.567   1.654  2.2737 -0.2094 -0.6045
  487MOL0     H67194  11.598   6.751   1.524 -1.1696  0.2405 -0.2524
  487MOL0     H67195  11.491   6.899   1.511 -0.6639  0.3074  0.7101
  487MOL0     H67196  11.651   6.889   1.723 -0.6638 -0.6218 -0.3342
  487MOL0     H67197  11.560   6.749   1.782  0.9155 -0.9490 -1.1619
  487MOL0     H67198  11.497   7.043   1.742  2.9603 -2.3044 -0.0590
  487MOL0     H67199  11.357   6.946   1.769 -0.2596  3.8852 -0.0346
  487MOL0     H67200  11.445   6.871   1.988 -0.1738 -1.6711 -2.3699
  487MOL0     H67201  11.421   7.044   1.975  2.2110 -0.6663  0.3641
  487MOL0     H67202  11.807   7.030   2.110  2.4013  1.4722 -3.2846
  487MOL0     H67203  11.301   6.947   1.475 -1.5680  0.1857 -1.9163
  487MOL0     H67204  10.990   7.094   1.457  1.3548  1.0564 -0.9943
  487MOL0     H67205  11.117   7.058   1.358  3.0476 -2.4221  2.4195
  487MOL0     H67206  10.976   6.960   1.329  0.6653  0.8768 -1.0901
  488MOL0     O67207   5.760  11.336   0.529  0.9029 -0.1121  0.4234
  488MOL0     C67208   5.696  11.241   0.495  0.6432  0.7250 -0.3544
  488MOL0     O67209   5.746  11.117   0.476  0.9166  0.1898 -0.5230
  488MOL0     C67210   5.882  11.107   0.493  0.1828 -0.9867  0.0502
  488MOL0     C67211   5.947  11.107   0.622 -0.0208  0.8455  0.0302
  488MOL0     C67212   6.084  11.069   0.641 -0.1678  0.1171  0.9478
  488MOL0     C67213   6.162  11.023   0.536 -0.1027 -0.0724 -0.0887
  488MOL0     O67214   6.290  10.993   0.552  0.3203 -0.5744  0.1005
  488MOL0     C67215   6.351  10.968   0.680 -0.6818 -0.5496  0.1421
  488MOL0     C67216   6.425  11.092   0.725  0.8296 -0.3746  0.5087
  488MOL0     C67217   6.494  11.084   0.866 -0.6376 -0.6938  0.5001
  488MOL0     C67218   6.390  11.102   0.979  0.1064  0.5207  0.6125
  488MOL0     C67219   6.460  11.084   1.115  0.6393  0.3017 -0.4973
  488MOL0     C67220   6.470  10.932   1.148 -0.2233 -0.6146  0.2386
  488MOL0     C67221   6.571  10.902   1.261 -1.1194  0.1314 -0.3105
  488MOL0     C67222   6.584  10.755   1.287 -0.4207 -0.0150  0.3265
  488MOL0     N67223   6.685  10.734   1.390  0.0814  0.1699 -0.5234
  488MOL0     C67224   6.806  10.671   1.369 -0.2030  1.2390 -0.0111
  488MOL0     C67225   6.846  10.646   1.501 -0.3988 -0.4103 -0.8374
  488MOL0     C67226   6.982  10.583   1.548  0.1778  0.5227 -0.9664
  488MOL0     C67227   7.074  10.696   1.588  0.3112 -0.4293 -0.1303
  488MOL0     C67228   7.200  10.662   1.653 -0.1636 -0.5801 -0.0150
  488MOL0     C67229   7.182  10.617   1.794  0.3966  0.4770 -0.3881
  488MOL0     O67230   7.115  10.711   1.876  0.5437  0.4400  1.1955
  488MOL0     C67231   7.156  10.717   2.004  0.4896 -0.5079 -0.1536
  488MOL0     C67232   7.208  10.838   2.045  0.4984  0.8827  0.4652
  488MOL0     C67233   7.245  10.856   2.174  0.2140 -0.6074  0.0275
  488MOL0     C67234   7.304  10.993   2.204  0.2363 -0.5856 -0.7266
  488MOL0     C67235   7.207  10.758   2.273 -0.3841  0.6381 -0.5221
  488MOL0     C67236   7.224  10.779   2.424  0.4584  1.0187  0.5947
  488MOL0     O67237   7.250  10.664   2.495 -0.0163  0.1237  0.8260
  488MOL0     C67238   7.257  10.668   2.631 -0.2609 -0.0557 -0.1005
  488MOL0     C67239   7.370  10.621   2.700  0.8768 -0.2775 -0.2815
  488MOL0     C67240   7.360  10.616   2.839  0.2810 -0.4027 -0.3749
  488MOL0     C67241   7.246  10.662   2.918  0.5924  0.5283 -0.7877
  488MOL0     O67242   7.238  10.666   3.057  0.3827 -0.5483 -0.3587
  488MOL0     C67243   7.351  10.621   3.133  0.0489  0.1480  0.3909
  488MOL0     C67244   7.339  10.665   3.277  0.5896 -1.0386 -0.4452
  488MOL0     C67245   7.480  10.671   3.344  0.0158 -0.7809  0.3628
  488MOL0     C67246   7.462  10.657   3.504 -0.6526 -0.8281 -1.1460
  488MOL0     C67247   7.368  10.763   3.561 -0.0340 -0.6952 -1.0819
  488MOL0     C67248   7.426  10.898   3.573 -0.1719 -0.5802  0.4409
  488MOL0     C67249   7.366  10.997   3.674  0.2937 -0.2552 -0.0091
  488MOL0     C67250   7.390  11.145   3.640 -0.1494  0.0229 -0.6601
  488MOL0    Cl67251   7.369  11.255   3.791 -0.6451 -0.0419  0.2621
  488MOL0     C67252   7.132  10.708   2.845 -0.4766 -0.2205 -0.1601
  488MOL0     C67253   7.140  10.705   2.706 -0.1282  1.1632  0.3711
  488MOL0     O67254   7.220  10.892   2.473  1.5133 -0.0044  0.6739
  488MOL0     C67255   7.152  10.639   2.233 -0.3361 -1.1201  0.5781
  488MOL0     C67256   7.137  10.618   2.102 -0.4380  0.3591  0.4098
  488MOL0     N67257   6.757  10.703   1.594  0.2562 -0.0488 -0.4150
  488MOL0     N67258   6.658  10.744   1.523  0.5151  0.7242 -0.3650
  488MOL0     C67259   6.107  11.024   0.406 -0.4526 -0.2074 -0.4791
  488MOL0     C67260   5.974  11.069   0.385 -0.5609 -0.3267 -0.8063
  488MOL0     C67261   5.556  11.276   0.449  0.6049  1.2899 -0.0475
  488MOL0     C67262   5.511  11.256   0.316  0.6170 -0.4905 -0.9535
  488MOL0     C67263   5.383  11.296   0.273 -0.2863 -0.4081  0.3486
  488MOL0     C67264   5.299  11.362   0.366 -0.0973  0.3697 -1.1507
  488MOL0     O67265   5.194  11.436   0.312 -0.4027 -0.0275 -0.1209
  488MOL0     C67266   5.063  11.429   0.366  0.6118  0.2538 -0.4830
  488MOL0     C67267   4.981  11.319   0.288  0.1383 -0.1590 -0.0363
  488MOL0     C67268   4.829  11.326   0.328 -0.2408 -1.3717  0.6413
  488MOL0     C67269   4.753  11.226   0.253 -0.4490  0.6631 -0.5274
  488MOL0     C67270   4.608  11.250   0.275  0.4037 -0.4362 -0.8614
  488MOL0     C67271   4.487  11.269   0.286  0.2571 -0.6563  0.2138
  488MOL0     C67272   5.343  11.372   0.506 -0.2468  0.6741  0.3755
  488MOL0     C67273   5.466  11.326   0.545 -0.7079 -0.3514  0.6078
  488MOL0     C67274   5.511  11.342   0.695 -0.1324 -1.0992 -0.0375
  488MOL0     H67275   5.889  11.123   0.712 -2.3415 -2.2939 -0.7503
  488MOL0     H67276   6.126  11.071   0.741  1.6703 -0.8416  0.2555
  488MOL0     H67277   6.424  10.886   0.673  1.4710  1.3512 -1.5654
  488MOL0     H67278   6.276  10.942   0.755 -1.1874 -1.4444 -0.6486
  488MOL0     H67279   6.504  11.122   0.655 -1.7758  1.0288 -2.0747
  488MOL0     H67280   6.344  11.165   0.718 -0.8157 -2.2778 -3.9709
  488MOL0     H67281   6.553  10.996   0.892  0.5299  0.3322  1.4718
  488MOL0     H67282   6.570  11.163   0.872 -1.8001  0.5195 -0.2490
  488MOL0     H67283   6.341  11.200   0.983  1.2941  1.0972  2.3063
  488MOL0     H67284   6.317  11.024   0.957 -0.8080  1.7946 -1.0806
  488MOL0     H67285   6.408  11.150   1.185  3.2109  3.1620 -1.0484
  488MOL0     H67286   6.560  11.128   1.108 -0.7013  3.6339 -0.5626
  488MOL0     H67287   6.374  10.887   1.175 -0.0032  0.2221  2.6443
  488MOL0     H67288   6.510  10.879   1.061 -0.7112 -1.4202  0.4927
  488MOL0     H67289   6.531  10.958   1.346 -1.9513  0.0985 -0.6677
  488MOL0     H67290   6.673  10.934   1.236 -0.0658 -3.2060 -0.7475
  488MOL0     H67291   6.483  10.727   1.317 -0.0965 -0.6839  0.8428
  488MOL0     H67292   6.611  10.698   1.198 -2.2521  1.4931 -1.2720
  488MOL0     H67293   6.853  10.662   1.272 -1.9802  0.3895 -0.8281
  488MOL0     H67294   7.029  10.516   1.474  0.2118 -3.2871  2.1823
  488MOL0     H67295   6.970  10.510   1.628  1.2585 -0.6696 -1.8405
  488MOL0     H67296   7.083  10.756   1.497 -0.6545  0.6452  0.4581
  488MOL0     H67297   7.022  10.764   1.656  3.1929  4.4861 -2.3900
  488MOL0     H67298   7.255  10.587   1.595 -0.7188 -1.0870  0.1093
  488MOL0     H67299   7.268  10.747   1.668 -0.1420 -0.5130 -0.4889
  488MOL0     H67300   7.109  10.536   1.786 -2.1185  2.8005 -3.3262
  488MOL0     H67301   7.276  10.589   1.843  0.3673  0.0169 -0.5918
  488MOL0     H67302   7.229  10.906   1.963  0.6174  0.8009  0.4274
  488MOL0     H67303   7.369  11.017   2.120 -0.6233 -1.3534 -1.6273
  488MOL0     H67304   7.364  11.002   2.295 -0.4104  2.3535 -0.4934
  488MOL0     H67305   7.233  11.075   2.199  0.3916 -0.4968 -1.5904
  488MOL0     H67306   7.452  10.581   2.642  1.6920 -0.8018  1.1804
  488MOL0     H67307   7.450  10.588   2.892 -0.4558 -0.8826  0.6644
  488MOL0     H67308   7.352  10.512   3.130 -3.1368 -0.0724  2.3488
  488MOL0     H67309   7.447  10.658   3.097  0.2093  1.3803  1.9704
  488MOL0     H67310   7.298  10.766   3.280 -2.1365 -2.0753  2.0620
  488MOL0     H67311   7.271  10.599   3.331 -0.3308  0.8522  0.7976
  488MOL0     H67312   7.525  10.769   3.324  2.8594 -2.0563  0.0118
  488MOL0     H67313   7.548  10.595   3.304  0.0042 -0.2098 -0.7874
  488MOL0     H67314   7.553  10.657   3.564 -2.1130  1.3708  1.2551
  488MOL0     H67315   7.420  10.557   3.516  4.0031 -2.9112  0.1625
  488MOL0     H67316   7.275  10.769   3.505  0.5899  0.0249 -2.0833
  488MOL0     H67317   7.346  10.736   3.664  0.6578  0.2340 -0.6688
  488MOL0     H67318   7.411  10.940   3.473  1.3210 -0.4777  0.2294
  488MOL0     H67319   7.533  10.893   3.594 -0.3517 -1.8895  1.1751
  488MOL0     H67320   7.403  10.990   3.777  0.4469  3.3220  0.3002
  488MOL0     H67321   7.258  10.987   3.690  0.6584 -0.3131  3.0151
  488MOL0     H67322   7.326  11.194   3.566  1.0156  3.8228  0.5965
  488MOL0     H67323   7.495  11.147   3.608  0.2804 -2.6713  0.3164
  488MOL0     H67324   7.043  10.730   2.903  1.6179 -0.0766  3.3116
  488MOL0     H67325   7.052  10.740   2.654  0.5413  0.2974 -1.4168
  488MOL0     H67326   7.122  10.569   2.309 -2.0691 -1.5817 -0.4772
  488MOL0     H67327   7.096  10.526   2.061  4.0012 -1.0745 -1.4202
  488MOL0     H67328   6.177  10.998   0.327 -0.1699  2.4079 -1.1787
  488MOL0     H67329   5.933  11.057   0.285  1.6949  3.2771 -2.3531
  488MOL0     H67330   5.569  11.201   0.242  2.1769 -0.8498  0.4832
  488MOL0     H67331   5.345  11.293   0.172  0.8389  1.3317 -0.1707
  488MOL0     H67332   5.054  11.402   0.472 -2.1688 -1.3666 -1.0458
  488MOL0     H67333   5.014  11.526   0.350  0.5851  0.5639  1.2178
  488MOL0     H67334   5.020  11.221   0.316  2.2282  0.7182  0.2826
  488MOL0     H67335   5.003  11.348   0.185 -0.8349  1.2823  0.1253
  488MOL0     H67336   4.808  11.313   0.435  3.8885  0.5885  1.9067
  488MOL0     H67337   4.777  11.417   0.296 -0.7230 -2.0708 -0.6266
  488MOL0     H67338   4.777  11.129   0.297  1.3301 -0.1619 -3.1113
  488MOL0     H67339   4.788  11.207   0.151  1.5102 -2.4285  0.5866
  488MOL0     H67340   4.381  11.274   0.301  0.4122  0.3042  1.0652
  488MOL0     H67341   5.287  11.440   0.570 -0.5578  1.1860 -0.4311
  488MOL0     H67342   5.531  11.240   0.729 -0.9959 -1.4525 -0.5612
  488MOL0     H67343   5.593  11.413   0.710 -0.9473 -0.1110 -0.1542
  488MOL0     H67344   5.432  11.378   0.763 -0.3207  0.3346 -0.9815
  489MOL0     O67345   1.823   8.308   4.265 -0.3533  0.4945 -0.5512
  489MOL0     C67346   1.759   8.300   4.158  0.0889  0.3401  0.4220
  489MOL0     O67347   1.632   8.350   4.132  0.3844  0.3040 -0.0878
  489MOL0     C67348   1.581   8.449   4.212  0.1062  0.1733 -0.0300
  489MOL0     C67349   1.512   8.553   4.141 -0.6808  0.5738 -0.1631
  489MOL0     C67350   1.425   8.639   4.210 -0.4632 -0.1524  0.7678
  489MOL0     C67351   1.405   8.616   4.347 -0.2796  1.1327  0.2862
  489MOL0     O67352   1.319   8.699   4.415 -0.3357  0.5849 -0.4830
  489MOL0     C67353   1.194   8.637   4.444 -0.2077 -0.1770  0.9754
  489MOL0     C67354   1.115   8.594   4.321 -0.1021  0.2390 -0.4789
  489MOL0     C67355   0.978   8.531   4.359  0.0752  0.6210  0.0186
  489MOL0     C67356   0.979   8.381   4.383 -0.1683 -0.4032 -0.3185
  489MOL0     C67357   0.834   8.341   4.378  0.6615  0.4798  0.1076
  489MOL0     C67358   0.826   8.190   4.392 -0.4124 -0.9753  0.0465
  489MOL0     C67359   0.683   8.148   4.414 -0.1298  0.2462  0.0519
  489MOL0     C67360   0.665   7.992   4.419 -0.0416 -0.2767 -0.4767
  489MOL0     N67361   0.525   7.957   4.458  0.8618 -0.2236 -0.2378
  489MOL0     C67362   0.487   7.943   4.595  0.7935  0.0632  0.3421
  489MOL0     C67363   0.356   7.917   4.588 -0.2973 -0.7366  0.2884
  489MOL0     C67364   0.273   7.849   4.693 -0.1485 -0.7451 -0.0682
  489MOL0     C67365   0.127   7.875   4.679  0.2201 -0.5586 -0.4273
  489MOL0     C67366   0.050   7.791   4.573  0.2541 -0.3088 -0.2560
  489MOL0     C67367  -0.100   7.798   4.601 -0.0355  0.5779  0.2159
  489MOL0     O67368  -0.145   7.760   4.730  0.2726 -0.9734  0.5605
  489MOL0     C67369  -0.283   7.768   4.756 -0.8472 -0.0622  0.3701
  489MOL0     C67370  -0.328   7.688   4.856  0.0251 -0.1921  0.2486
  489MOL0     C67371  -0.460   7.699   4.904  0.1189 -0.8325 -0.3239
  489MOL0     C67372  -0.494   7.618   5.031  0.0720  0.0095 -0.1178
  489MOL0     C67373  -0.556   7.775   4.828  0.2018  0.1250 -0.2866
  489MOL0     C67374  -0.694   7.777   4.873  0.6318 -0.4110 -1.1638
  489MOL0     O67375  -0.750   7.904   4.895  0.1413  0.3811 -0.2262
  489MOL0     C67376  -0.879   7.889   4.938 -0.1032 -0.7644  0.2231
  489MOL0     C67377  -0.971   7.922   4.840  0.3072  0.8614 -0.3893
  489MOL0     C67378  -1.109   7.899   4.864 -1.1158  0.1134 -0.1080
  489MOL0     C67379  -1.160   7.852   4.983 -0.5208  0.3382  0.5085
  489MOL0     O67380  -1.296   7.837   4.984  0.8780  0.0469 -0.7202
  489MOL0     C67381  -1.351   7.770   5.099 -0.6498 -0.4660  0.6420
  489MOL0     C67382  -1.504   7.775   5.092  0.8729 -0.1490  0.1759
  489MOL0     C67383  -1.552   7.918   5.102  0.4584  0.3215  0.1355
  489MOL0     C67384  -1.531   7.988   5.232 -0.0165 -0.4699 -0.2751
  489MOL0     C67385  -1.576   8.137   5.220 -0.1995  0.3533 -0.8758
  489MOL0     C67386  -1.536   8.206   5.357 -0.5660 -0.3536 -0.1944
  489MOL0     C67387  -1.559   8.355   5.344 -0.0052 -1.2344 -0.5387
  489MOL0     C67388  -1.569   8.440   5.476 -0.0392  0.1264 -0.6117
  489MOL0    Cl67389  -1.434   8.461   5.587  0.2137 -0.0713 -0.1027
  489MOL0     C67390  -1.068   7.827   5.091  0.0049 -0.4840 -0.0239
  489MOL0     C67391  -0.930   7.840   5.060 -0.6002 -0.2615  0.0705
  489MOL0     O67392  -0.752   7.673   4.897  0.1948 -0.8169  1.0027
  489MOL0     C67393  -0.511   7.848   4.716 -0.4008  0.2382 -0.2648
  489MOL0     C67394  -0.371   7.850   4.690 -0.2602 -0.3265 -0.0312
  489MOL0     N67395   0.320   7.936   4.454 -0.1329 -0.0495 -0.0333
  489MOL0     N67396   0.420   7.958   4.379  0.6601  0.1481 -0.5257
  489MOL0     C67397   1.470   8.515   4.420  0.1636  0.3526  0.6502
  489MOL0     C67398   1.563   8.436   4.354 -0.7449 -0.4528 -0.5239
  489MOL0     C67399   1.808   8.217   4.039 -0.7402 -0.7727 -0.4736
  489MOL0     C67400   1.719   8.196   3.932 -0.5294 -0.5763  0.7298
  489MOL0     C67401   1.744   8.112   3.826 -0.1229  0.1121  0.1573
  489MOL0     C67402   1.858   8.037   3.826  0.4511  0.5249  0.1093
  489MOL0     O67403   1.874   7.949   3.725  0.7011  0.8781  0.2261
  489MOL0     C67404   2.008   7.924   3.694  0.4725  0.0138  0.0287
  489MOL0     C67405   2.039   7.855   3.567 -0.0751  0.1351 -0.1072
  489MOL0     C67406   2.035   7.957   3.458  0.0709  0.1863 -0.2935
  489MOL0     C67407   1.885   8.015   3.422 -0.4893  0.5851  0.2906
  489MOL0     C67408   1.799   7.915   3.371  0.1845 -0.1878 -0.4277
  489MOL0     C67409   1.727   7.819   3.348 -0.2683 -0.4760 -0.2745
  489MOL0     C67410   1.953   8.050   3.931  0.3657 -0.2414  0.5826
  489MOL0     C67411   1.928   8.134   4.034 -0.2622 -0.0402 -0.1449
  489MOL0     C67412   2.047   8.154   4.129 -0.2346 -0.2881 -0.4024
  489MOL0     H67413   1.522   8.566   4.033  1.4687  2.3862  0.1750
  489MOL0     H67414   1.377   8.722   4.159  0.7885 -1.0726 -2.1422
  489MOL0     H67415   1.130   8.704   4.502 -2.8424 -0.1944 -1.6667
  489MOL0     H67416   1.204   8.547   4.505 -0.4076 -1.7288 -1.1595
  489MOL0     H67417   1.100   8.685   4.263 -1.0545 -1.1706 -2.6243
  489MOL0     H67418   1.170   8.529   4.252  0.9703 -0.9910  1.4369
  489MOL0     H67419   0.924   8.563   4.448 -3.4516 -1.5494 -1.1549
  489MOL0     H67420   0.911   8.563   4.278  0.7389  0.6913 -0.5125
  489MOL0     H67421   1.035   8.347   4.295  0.3987 -3.1377  0.9777
  489MOL0     H67422   1.032   8.334   4.467  1.0615 -1.2505 -1.5239
  489MOL0     H67423   0.784   8.364   4.283 -0.8174 -0.5383  0.6120
  489MOL0     H67424   0.771   8.385   4.455 -1.2548 -1.0010 -0.5482
  489MOL0     H67425   0.879   8.140   4.310 -2.8166 -0.7154 -1.8105
  489MOL0     H67426   0.871   8.169   4.489 -0.7872 -2.5731 -0.0866
  489MOL0     H67427   0.618   8.191   4.337 -0.8013  0.5188  0.7524
  489MOL0     H67428   0.656   8.200   4.507 -1.3298  1.1723 -0.7748
  489MOL0     H67429   0.696   7.955   4.321  1.1963 -0.4710 -0.0274
  489MOL0     H67430   0.726   7.950   4.499 -0.1560 -1.8326 -1.1763
  489MOL0     H67431   0.548   7.936   4.685  0.5945 -0.5916  0.4375
  489MOL0     H67432   0.301   7.920   4.772 -1.2128  0.5759 -0.8275
  489MOL0     H67433   0.300   7.746   4.715 -0.1083 -1.1877 -2.0263
  489MOL0     H67434   0.078   7.856   4.775  1.3718 -0.5884  0.1633
  489MOL0     H67435   0.116   7.981   4.656  0.2550 -0.8305 -1.8180
  489MOL0     H67436   0.062   7.841   4.476 -0.4539 -3.2382 -1.9632
  489MOL0     H67437   0.084   7.688   4.561 -0.1346 -0.1337 -4.3792
  489MOL0     H67438  -0.128   7.903   4.593 -2.7298 -0.1111 -0.4181
  489MOL0     H67439  -0.155   7.739   4.527  1.4075 -1.8982  1.0035
  489MOL0     H67440  -0.260   7.621   4.907  0.4426  0.9590  1.2612
  489MOL0     H67441  -0.553   7.681   5.098 -1.5621 -2.0254  0.4539
  489MOL0     H67442  -0.410   7.574   5.086  0.7529  1.0831 -0.2543
  489MOL0     H67443  -0.565   7.541   4.999 -1.4453  1.5106 -0.5007
  489MOL0     H67444  -0.931   7.962   4.748  0.0466  1.6616 -0.1669
  489MOL0     H67445  -1.170   7.910   4.774  0.7266 -4.2000 -2.1556
  489MOL0     H67446  -1.318   7.666   5.090  4.4380  0.8779  0.5531
  489MOL0     H67447  -1.324   7.806   5.199 -0.6332 -0.5499  0.6684
  489MOL0     H67448  -1.532   7.728   4.997  0.0992  2.4840 -0.9882
  489MOL0     H67449  -1.558   7.718   5.168 -1.6794 -0.6570 -1.8781
  489MOL0     H67450  -1.659   7.927   5.082  0.5867  1.5208 -0.1019
  489MOL0     H67451  -1.508   7.972   5.018  1.4570 -2.8927 -1.5660
  489MOL0     H67452  -1.425   7.995   5.256 -0.2556  4.1444  0.1894
  489MOL0     H67453  -1.586   7.943   5.315 -1.7498  0.5771 -0.7991
  489MOL0     H67454  -1.527   8.190   5.138 -1.0417 -2.1365 -3.1367
  489MOL0     H67455  -1.684   8.143   5.209 -0.3558 -0.8761 -0.2161
  489MOL0     H67456  -1.429   8.190   5.372 -0.2267 -1.0084 -2.8834
  489MOL0     H67457  -1.596   8.176   5.444  1.3119  1.0633  1.6911
  489MOL0     H67458  -1.653   8.375   5.292 -0.6113  0.8667  1.2394
  489MOL0     H67459  -1.468   8.394   5.297  1.5163 -1.4363  2.0444
  489MOL0     H67460  -1.650   8.398   5.536  0.0874  1.5948  0.6450
  489MOL0     H67461  -1.595   8.534   5.426  0.5324 -0.4708 -2.0716
  489MOL0     H67462  -1.104   7.818   5.193 -1.8121  2.0945 -0.3212
  489MOL0     H67463  -0.861   7.808   5.138  1.4092 -0.0432 -1.5437
  489MOL0     H67464  -0.572   7.901   4.643  2.1148 -2.2574 -4.6257
  489MOL0     H67465  -0.338   7.915   4.610 -2.1062  1.4825  0.6038
  489MOL0     H67466   1.456   8.514   4.527  0.0537  0.4535  0.6361
  489MOL0     H67467   1.623   8.365   4.410  0.3269  0.0353 -1.0087
  489MOL0     H67468   1.626   8.251   3.922 -0.7234 -1.1769 -0.9495
  489MOL0     H67469   1.675   8.084   3.747 -2.0373  5.1481 -0.3112
  489MOL0     H67470   2.076   8.006   3.719  0.0306  0.0769  1.1113
  489MOL0     H67471   2.040   7.851   3.770 -1.6100 -2.0197 -0.9168
  489MOL0     H67472   1.974   7.768   3.554 -0.5140  0.7255 -2.3089
  489MOL0     H67473   2.140   7.815   3.566  0.9701  2.5155 -2.8429
  489MOL0     H67474   2.101   8.040   3.486 -0.5555  0.1749  1.3047
  489MOL0     H67475   2.088   7.917   3.371 -1.4661 -0.6452 -0.8812
  489MOL0     H67476   1.890   8.093   3.346 -0.2161 -1.5188 -2.0061
  489MOL0     H67477   1.832   8.063   3.504 -3.2834 -0.5281 -0.7536
  489MOL0     H67478   1.668   7.733   3.324 -1.2748  0.1368 -0.0857
  489MOL0     H67479   2.036   7.980   3.933 -0.0896 -0.7769  1.3590
  489MOL0     H67480   2.031   8.100   4.223  1.2001  0.2230  0.1603
  489MOL0     H67481   2.139   8.109   4.090 -0.3025 -1.3669  0.6415
  489MOL0     H67482   2.066   8.260   4.144  0.1955 -0.4006 -0.1387
  490MOL0     O67483   4.038   9.708   1.917  0.8889 -0.5670  0.7728
  490MOL0     C67484   4.022   9.675   2.032  1.6195  0.0025 -0.6923
  490MOL0     O67485   3.897   9.643   2.087  0.4660 -0.4073 -0.2404
  490MOL0     C67486   3.788   9.605   2.011 -1.0126 -0.5084 -0.0558
  490MOL0     C67487   3.655   9.634   2.056  0.1266  0.4825 -0.3483
  490MOL0     C67488   3.549   9.597   1.973 -0.9607 -0.1494 -1.1516
  490MOL0     C67489   3.559   9.532   1.857  0.1450  0.1468  0.9410
  490MOL0     O67490   3.450   9.487   1.790  0.3524  0.0481  0.4584
  490MOL0     C67491   3.417   9.354   1.836  0.4818  0.7981 -0.2768
  490MOL0     C67492   3.290   9.298   1.770 -0.6474 -0.1412  0.5008
  490MOL0     C67493   3.285   9.141   1.748  0.1852  0.9174  0.2891
  490MOL0     C67494   3.261   9.064   1.882  0.1895  0.1019 -0.1160
  490MOL0     C67495   3.261   8.905   1.880 -0.4637 -0.7278  0.0267
  490MOL0     C67496   3.396   8.830   1.850 -0.2138  0.7187 -0.1231
  490MOL0     C67497   3.387   8.674   1.853  0.0424 -0.4440 -0.5797
  490MOL0     C67498   3.306   8.610   1.747  0.6141  0.8673  0.4477
  490MOL0     N67499   3.338   8.462   1.729 -0.3568  0.1604  0.3317
  490MOL0     C67500   3.330   8.403   1.606  0.7478  0.2270 -0.7336
  490MOL0     C67501   3.373   8.282   1.617  0.1605  0.2520  1.2458
  490MOL0     C67502   3.390   8.180   1.510 -0.6563 -1.3089 -0.3607
  490MOL0     C67503   3.287   8.069   1.495 -0.5641  0.1614  0.0533
  490MOL0     C67504   3.334   7.950   1.578 -0.4390 -0.7767 -0.6938
  490MOL0     C67505   3.272   7.820   1.533  0.1685  0.2452  0.0237
  490MOL0     O67506   3.322   7.721   1.631  0.0578  0.4549  0.2837
  490MOL0     C67507   3.273   7.592   1.624  0.0387  0.7008  0.0359
  490MOL0     C67508   3.169   7.555   1.536  0.6043  0.0842  0.2082
  490MOL0     C67509   3.108   7.429   1.545 -1.3087  0.2331  0.0433
  490MOL0     C67510   2.977   7.403   1.471  0.0369 -0.0966  0.1782
  490MOL0     C67511   3.172   7.329   1.625 -0.2478  0.6696 -0.8481
  490MOL0     C67512   3.126   7.179   1.633  0.7339  0.2881  0.0559
  490MOL0     O67513   3.197   7.104   1.727 -0.2894 -0.0458  0.9087
  490MOL0     C67514   3.189   6.966   1.699 -0.1784  0.2630  0.2133
  490MOL0     C67515   3.069   6.891   1.718  0.6780 -0.1326 -0.2571
  490MOL0     C67516   3.066   6.759   1.678  0.2878 -0.6101  0.3458
  490MOL0     C67517   3.177   6.699   1.624  0.0089  1.3176 -1.1010
  490MOL0     O67518   3.178   6.566   1.589 -0.4417 -0.4400  0.3889
  490MOL0     C67519   3.218   6.478   1.697 -0.1324 -0.4776  0.0947
  490MOL0     C67520   3.103   6.445   1.792 -1.6084  0.1871  0.2095
  490MOL0     C67521   3.144   6.340   1.901 -0.6605  0.3783 -0.3015
  490MOL0     C67522   3.120   6.195   1.873  0.1014  0.3145 -0.0829
  490MOL0     C67523   3.212   6.130   1.767  0.2491 -0.5453 -0.3563
  490MOL0     C67524   3.366   6.126   1.788  0.1221 -0.0429 -0.5960
  490MOL0     C67525   3.447   6.092   1.670 -0.0309 -0.5218  0.5761
  490MOL0     C67526   3.579   6.033   1.693  0.2979  0.3345  0.2877
  490MOL0    Cl67527   3.581   5.859   1.738  0.0475  0.1679 -0.4687
  490MOL0     C67528   3.288   6.775   1.597  0.7428 -0.8616  0.4220
  490MOL0     C67529   3.295   6.911   1.635  0.2144 -0.2931 -0.1492
  490MOL0     O67530   3.068   7.130   1.536 -0.0045 -0.3558 -1.0629
  490MOL0     C67531   3.278   7.363   1.709 -0.9280 -0.5246 -0.3223
  490MOL0     C67532   3.331   7.494   1.704  0.3457  0.7581 -0.4610
  490MOL0     N67533   3.405   8.260   1.751 -0.2299  0.5479  1.1046
  490MOL0     N67534   3.379   8.364   1.821 -0.3645 -0.7681  0.3335
  490MOL0     C67535   3.686   9.505   1.806 -0.2421  0.0251 -0.4620
  490MOL0     C67536   3.801   9.535   1.892 -0.2822  0.0870  1.0256
  490MOL0     C67537   4.135   9.680   2.124 -0.6308 -0.0070 -0.1278
  490MOL0     C67538   4.106   9.710   2.260 -0.2964 -0.4016 -0.0382
  490MOL0     C67539   4.203   9.714   2.358 -0.2306  0.1422  0.3575
  490MOL0     C67540   4.339   9.713   2.320  0.5315  0.5488 -0.7683
  490MOL0     O67541   4.425   9.702   2.426  0.8627  0.2871 -0.3186
  490MOL0     C67542   4.564   9.725   2.390  0.5002 -0.2103 -0.1317
  490MOL0     C67543   4.633   9.735   2.524 -0.2417  0.8030 -0.0611
  490MOL0     C67544   4.779   9.774   2.494 -0.5190 -0.4016  0.1106
  490MOL0     C67545   4.862   9.749   2.618  0.2697 -0.3264 -0.5838
  490MOL0     C67546   4.969   9.851   2.645 -0.5291 -0.9300  0.2507
  490MOL0     C67547   5.050   9.935   2.674  0.3338 -0.5327 -0.2643
  490MOL0     C67548   4.369   9.699   2.189  0.7400 -0.0550 -0.1136
  490MOL0     C67549   4.272   9.680   2.088 -0.6519 -0.5275  0.1216
  490MOL0     C67550   4.308   9.677   1.949  0.8606  1.1337  0.3677
  490MOL0     H67551   3.642   9.672   2.157 -2.4201 -1.9630  0.3593
  490MOL0     H67552   3.447   9.618   2.002 -0.7790  0.8368 -1.1861
  490MOL0     H67553   3.411   9.342   1.945 -2.1091 -1.3543 -0.5628
  490MOL0     H67554   3.501   9.287   1.817  1.1530  1.1791  1.1568
  490MOL0     H67555   3.199   9.326   1.825 -0.9963 -0.5366  0.1363
  490MOL0     H67556   3.292   9.339   1.668 -0.5968  0.0249  0.5681
  490MOL0     H67557   3.198   9.110   1.690 -0.1798  0.6355  0.9776
  490MOL0     H67558   3.381   9.108   1.707 -0.3404 -2.5027  1.5177
  490MOL0     H67559   3.329   9.103   1.958  1.4965  2.4972 -2.3443
  490MOL0     H67560   3.161   9.094   1.914  0.7745  2.7834 -0.5929
  490MOL0     H67561   3.185   8.870   1.810 -0.6988  1.0234 -0.6376
  490MOL0     H67562   3.226   8.864   1.975 -0.4061 -0.9014 -0.0265
  490MOL0     H67563   3.450   8.858   1.758 -0.1136 -3.1538 -1.4139
  490MOL0     H67564   3.466   8.856   1.930  1.8176 -3.9209 -0.0729
  490MOL0     H67565   3.363   8.644   1.955  2.0265 -1.2014 -0.2943
  490MOL0     H67566   3.490   8.638   1.843  0.6459  0.3862  1.9081
  490MOL0     H67567   3.201   8.623   1.775 -0.1399 -0.1466 -1.6905
  490MOL0     H67568   3.321   8.654   1.648 -0.4061 -1.3259 -0.7654
  490MOL0     H67569   3.280   8.449   1.520  0.6064  0.0708 -0.7338
  490MOL0     H67570   3.492   8.141   1.519 -0.0965  0.5543  2.3598
  490MOL0     H67571   3.391   8.237   1.416 -0.9597  0.7913  0.8627
  490MOL0     H67572   3.182   8.094   1.515 -0.0478  1.8110  0.8420
  490MOL0     H67573   3.292   8.032   1.392 -1.2845  3.3602 -1.2356
  490MOL0     H67574   3.442   7.937   1.566 -0.5154 -2.6318  0.2245
  490MOL0     H67575   3.312   7.967   1.684  1.8897  1.8411 -0.5061
  490MOL0     H67576   3.163   7.829   1.539  0.2190 -0.0955  3.9918
  490MOL0     H67577   3.290   7.775   1.435 -0.2802  0.1840 -0.0342
  490MOL0     H67578   3.103   7.626   1.487 -0.9803  0.3434  2.5107
  490MOL0     H67579   2.917   7.338   1.535  1.8369  0.3928  2.5105
  490MOL0     H67580   3.001   7.361   1.373 -0.4462  1.2526 -0.5541
  490MOL0     H67581   2.914   7.493   1.468 -0.7278 -0.5222  2.0855
  490MOL0     H67582   2.981   6.940   1.757 -0.2206 -1.5881 -0.3937
  490MOL0     H67583   2.981   6.700   1.710  0.2248 -0.0939  1.1739
  490MOL0     H67584   3.272   6.391   1.658  1.6095  1.2612 -1.5719
  490MOL0     H67585   3.288   6.533   1.760  1.1140 -1.8101 -0.0888
  490MOL0     H67586   3.077   6.537   1.845  1.3557  1.6855 -0.7417
  490MOL0     H67587   3.024   6.410   1.725  0.3188 -1.9486 -1.0989
  490MOL0     H67588   3.092   6.353   1.996  4.6175  0.0675  3.0222
  490MOL0     H67589   3.246   6.357   1.936 -1.3129  3.1965  0.4324
  490MOL0     H67590   3.020   6.191   1.829 -0.3660 -0.4953  0.9893
  490MOL0     H67591   3.128   6.139   1.967 -1.3622 -0.4572 -0.3952
  490MOL0     H67592   3.187   6.025   1.749  0.4576 -0.3243 -2.0949
  490MOL0     H67593   3.183   6.176   1.672 -4.0856 -0.9377  0.5624
  490MOL0     H67594   3.381   6.066   1.878 -0.6228 -0.7188 -0.9057
  490MOL0     H67595   3.388   6.232   1.806 -2.3836  0.9376 -2.6438
  490MOL0     H67596   3.452   6.184   1.612 -1.6346 -1.3596 -0.9983
  490MOL0     H67597   3.390   6.028   1.602  3.2542  0.1711 -3.2078
  490MOL0     H67598   3.641   6.095   1.758 -2.4126  1.5210  1.8938
  490MOL0     H67599   3.627   6.037   1.595 -1.9691  1.9378 -0.8302
  490MOL0     H67600   3.378   6.722   1.567 -0.5504 -2.6146 -0.5153
  490MOL0     H67601   3.375   6.979   1.608  0.8090 -0.3017  1.4275
  490MOL0     H67602   3.317   7.303   1.790 -0.8193  2.1714  1.7406
  490MOL0     H67603   3.407   7.519   1.778 -0.0860  1.4212 -0.2363
  490MOL0     H67604   3.699   9.455   1.711 -0.1027 -1.2978  0.2233
  490MOL0     H67605   3.899   9.506   1.854 -0.1040 -2.0626  2.9427
  490MOL0     H67606   4.004   9.707   2.297 -0.6175 -3.1176 -0.9165
  490MOL0     H67607   4.195   9.733   2.465 -1.6979  2.2551 -0.0673
  490MOL0     H67608   4.607   9.645   2.329 -3.6131 -1.1321 -2.1137
  490MOL0     H67609   4.569   9.821   2.338  1.1066 -0.3333 -0.3079
  490MOL0     H67610   4.625   9.645   2.585 -0.2090  2.0279  1.8370
  490MOL0     H67611   4.582   9.817   2.575  1.5289  1.1938  1.1549
  490MOL0     H67612   4.823   9.707   2.420  0.6629 -1.6882  1.8709
  490MOL0     H67613   4.785   9.879   2.464  1.4295  0.4988  3.1328
  490MOL0     H67614   4.904   9.648   2.615 -0.9227 -0.9113  0.9051
  490MOL0     H67615   4.797   9.736   2.705  0.6308  2.5129  0.1991
  490MOL0     H67616   5.108  10.014   2.718 -0.9927 -2.0045  4.8710
  490MOL0     H67617   4.474   9.685   2.167  0.8184 -1.9649  1.2448
  490MOL0     H67618   4.256   9.593   1.903  2.2741 -0.4243  1.4450
  490MOL0     H67619   4.274   9.770   1.902 -0.9450  0.7348  0.8192
  490MOL0     H67620   4.410   9.639   1.938 -0.4793 -3.1346  0.8647
  491MOL0     O67621  11.269   9.296   5.984 -0.1521  0.0156  0.8868
  491MOL0     C67622  11.247   9.304   5.862  0.9921  0.1007 -0.2777
  491MOL0     O67623  11.311   9.381   5.771  0.1208 -0.6479  0.3970
  491MOL0     C67624  11.413   9.463   5.815 -0.0858  0.3501  0.0411
  491MOL0     C67625  11.522   9.418   5.888 -0.7349 -0.0670  0.4010
  491MOL0     C67626  11.596   9.508   5.967  0.0189 -0.0552 -0.1292
  491MOL0     C67627  11.590   9.649   5.949  0.0456 -0.5252 -0.2053
  491MOL0     O67628  11.669   9.734   6.012 -0.1420 -0.4856 -0.8910
  491MOL0     C67629  11.776   9.692   6.087  0.5685  0.1552 -0.2398
  491MOL0     C67630  11.856   9.811   6.133 -0.0061 -0.3027 -0.3505
  491MOL0     C67631  11.768   9.913   6.204  0.9153 -0.6096 -0.1503
  491MOL0     C67632  11.847  10.030   6.257 -0.8381  0.7960 -0.1114
  491MOL0     C67633  11.763  10.143   6.312 -0.2410  0.4795  0.1432
  491MOL0     C67634  11.725  10.100   6.451  0.1436  0.3793 -0.6491
  491MOL0     C67635  11.663  10.218   6.534  0.0942 -0.1604 -0.4400
  491MOL0     C67636  11.655  10.198   6.684 -0.6416 -0.7069  0.2165
  491MOL0     N67637  11.591  10.299   6.765  0.8448 -0.0407 -0.0632
  491MOL0     C67638  11.598  10.433   6.764 -0.8570  0.2381  0.2504
  491MOL0     C67639  11.523  10.486   6.862  0.7087  0.0029  0.3973
  491MOL0     C67640  11.509  10.636   6.911 -0.0553  0.4296 -0.2151
  491MOL0     C67641  11.410  10.720   6.837 -0.2042  0.4717  0.5192
  491MOL0     C67642  11.265  10.675   6.881 -0.8111  0.6712 -0.1002
  491MOL0     C67643  11.160  10.773   6.829 -0.7645  0.1561 -0.6928
  491MOL0     O67644  11.185  10.788   6.690  0.0913  0.5524 -0.4746
  491MOL0     C67645  11.093  10.849   6.616 -0.6824  0.2890 -0.8744
  491MOL0     C67646  10.976  10.907   6.671  0.5657  0.0529 -1.1805
  491MOL0     C67647  10.887  10.981   6.594 -0.4615 -0.2157 -0.3812
  491MOL0     C67648  10.774  11.056   6.667  0.7103  0.5196 -0.1188
  491MOL0     C67649  10.914  10.999   6.456  0.0236  0.5853  1.0369
  491MOL0     C67650  10.837  11.097   6.367  0.1108  0.3605 -0.2588
  491MOL0     O67651  10.766  11.195   6.422 -0.0377 -0.2560  0.0637
  491MOL0     C67652  10.701  11.281   6.336  0.5983 -0.0004 -0.2268
  491MOL0     C67653  10.562  11.265   6.317  0.7312  0.2965 -0.9185
  491MOL0     C67654  10.497  11.360   6.246  0.0767 -0.1386  0.4762
  491MOL0     C67655  10.566  11.456   6.170  0.6697  0.1060 -0.1582
  491MOL0     O67656  10.470  11.523   6.096 -0.3137 -0.1288 -0.4442
  491MOL0     C67657  10.530  11.578   5.979 -0.6645  0.5486 -0.4453
  491MOL0     C67658  10.424  11.632   5.892  0.1047 -0.0172  0.1721
  491MOL0     C67659  10.333  11.724   5.979 -0.0741  0.3199 -0.2148
  491MOL0     C67660  10.214  11.798   5.924  0.1984  0.3973 -0.3517
  491MOL0     C67661  10.082  11.741   5.982  0.0110 -1.0687 -0.3770
  491MOL0     C67662   9.950  11.810   5.939 -0.0011 -1.1011  0.1049
  491MOL0     C67663   9.934  11.959   5.976 -0.2402  0.9812 -0.3391
  491MOL0     C67664   9.802  12.017   5.918 -0.8541  0.4300 -0.0512
  491MOL0    Cl67665   9.783  12.191   5.952  0.3162 -0.0375 -0.0386
  491MOL0     C67666  10.703  11.468   6.182  0.4410  0.1678  0.2610
  491MOL0     C67667  10.767  11.382   6.263 -0.4297 -0.2353 -0.0695
  491MOL0     O67668  10.852  11.084   6.249 -0.2562 -0.1641  0.0981
  491MOL0     C67669  11.019  10.929   6.402 -0.3820 -0.0880 -0.0447
  491MOL0     C67670  11.108  10.852   6.478  0.3208  1.0459  0.0802
  491MOL0     N67671  11.454  10.380   6.918 -0.2069 -0.1033  0.6173
  491MOL0     N67672  11.501  10.281   6.861 -0.2472  0.3641 -0.6537
  491MOL0     C67673  11.484   9.688   5.866  0.0823  0.0348 -0.4757
  491MOL0     C67674  11.393   9.606   5.806  0.1416 -0.3756 -0.2050
  491MOL0     C67675  11.131   9.232   5.820 -0.2270  1.3988 -0.2675
  491MOL0     C67676  11.042   9.305   5.743 -0.3902 -0.2331  0.2399
  491MOL0     C67677  10.932   9.245   5.690 -0.5929  0.1963  0.1883
  491MOL0     C67678  10.896   9.115   5.710 -0.4435 -0.2142  0.2622
  491MOL0     O67679  10.784   9.069   5.650 -0.3627  0.0139 -0.5391
  491MOL0     C67680  10.740   8.939   5.679 -0.9458 -0.7926  0.2531
  491MOL0     C67681  10.666   8.925   5.812 -0.6198 -0.6471  0.1353
  491MOL0     C67682  10.532   9.008   5.813  0.0505  0.2417  0.1975
  491MOL0     C67683  10.501   9.024   5.957  0.7239 -0.3267  0.9825
  491MOL0     C67684  10.468   8.898   6.014 -0.3319  0.5632 -0.2984
  491MOL0     C67685  10.463   8.790   6.082  0.6087  0.3023 -0.2646
  491MOL0     C67686  10.991   9.036   5.784  0.2057  1.0007 -0.0924
  491MOL0     C67687  11.109   9.094   5.848 -0.4983  0.2562 -0.2390
  491MOL0     C67688  11.195   9.005   5.936  0.6175 -0.3399 -1.4614
  491MOL0     H67689  11.532   9.312   5.906 -2.1309  0.0245  1.9307
  491MOL0     H67690  11.669   9.449   6.020 -1.8118 -3.6708 -1.3389
  491MOL0     H67691  11.838   9.622   6.030 -0.6285 -0.1952 -1.1454
  491MOL0     H67692  11.743   9.645   6.181 -1.1868 -0.2861 -1.0343
  491MOL0     H67693  11.927   9.780   6.210  1.3394  0.6863 -1.1598
  491MOL0     H67694  11.921   9.859   6.060  2.4895 -1.0382  1.2762
  491MOL0     H67695  11.698   9.940   6.124  1.4013 -2.8227 -1.4259
  491MOL0     H67696  11.705   9.872   6.284  0.2262 -1.5217 -1.1408
  491MOL0     H67697  11.907   9.982   6.335  0.0069  0.9903 -0.6395
  491MOL0     H67698  11.917  10.062   6.180 -1.9087  0.2665 -1.3519
  491MOL0     H67699  11.676  10.173   6.253 -1.8878 -1.0518  1.6692
  491MOL0     H67700  11.833  10.226   6.322  1.2611 -0.6585 -0.5444
  491MOL0     H67701  11.649  10.022   6.441 -0.8222  1.5437 -3.2867
  491MOL0     H67702  11.804  10.055   6.512  0.3336 -0.5957 -1.5931
  491MOL0     H67703  11.557  10.235   6.514  0.4832  3.4716 -0.0853
  491MOL0     H67704  11.701  10.318   6.514 -0.9647  0.3813  0.1649
  491MOL0     H67705  11.603  10.104   6.705 -1.0200 -0.9939 -1.8333
  491MOL0     H67706  11.757  10.203   6.725 -0.4877 -0.2601 -0.2099
  491MOL0     H67707  11.660  10.494   6.699 -0.5589  0.9680  1.1887
  491MOL0     H67708  11.609  10.679   6.904 -1.3347  3.5123 -2.2677
  491MOL0     H67709  11.488  10.635   7.019 -0.4703  0.9298 -0.2818
  491MOL0     H67710  11.433  10.826   6.854  1.9137  0.5288 -2.0824
  491MOL0     H67711  11.422  10.702   6.730  2.1928 -2.5852  1.1553
  491MOL0     H67712  11.247  10.578   6.835  1.2832 -0.2230  0.8268
  491MOL0     H67713  11.255  10.670   6.990  1.3453 -0.4420  0.0963
  491MOL0     H67714  11.063  10.734   6.864  0.9709 -0.7461  3.8691
  491MOL0     H67715  11.166  10.872   6.874 -4.5847  0.6279 -0.8847
  491MOL0     H67716  10.940  10.899   6.773  0.1081 -3.3768 -1.4919
  491MOL0     H67717  10.762  11.030   6.772  1.1302  1.3661  0.1470
  491MOL0     H67718  10.677  11.038   6.621  1.4393 -2.4313 -0.7130
  491MOL0     H67719  10.791  11.164   6.665 -2.2367  1.0798 -2.1702
  491MOL0     H67720  10.513  11.188   6.377  1.9674 -0.9569 -1.4514
  491MOL0     H67721  10.389  11.363   6.236 -0.0029 -0.1071  1.3377
  491MOL0     H67722  10.596  11.663   6.000  0.5905 -0.1108 -1.5455
  491MOL0     H67723  10.579  11.501   5.919 -1.1927 -1.7926  1.9551
  491MOL0     H67724  10.471  11.691   5.812  0.1971  0.3936  0.5247
  491MOL0     H67725  10.367  11.551   5.847 -0.1065  0.1120  0.2046
  491MOL0     H67726  10.397  11.796   6.031  0.3807 -0.2082 -0.0388
  491MOL0     H67727  10.285  11.648   6.041 -1.4193  0.0916 -1.4828
  491MOL0     H67728  10.224  11.780   5.817 -1.4355 -2.3589 -0.1383
  491MOL0     H67729  10.217  11.905   5.945  1.5034  0.4920 -0.9441
  491MOL0     H67730  10.076  11.632   5.973  1.7239 -1.7189  3.9331
  491MOL0     H67731  10.084  11.768   6.088 -2.2570  2.8965 -1.1326
  491MOL0     H67732   9.868  11.750   5.981 -0.1939 -1.0882 -0.2476
  491MOL0     H67733   9.930  11.815   5.831 -2.5692  0.1333  0.5468
  491MOL0     H67734  10.020  12.013   5.937  0.8562  0.2312  0.9673
  491MOL0     H67735   9.937  11.974   6.084 -0.8547 -2.5640  0.2882
  491MOL0     H67736   9.719  11.964   5.965  0.6204 -1.3970  0.5680
  491MOL0     H67737   9.802  12.006   5.809 -4.3938  0.2750 -0.1788
  491MOL0     H67738  10.754  11.539   6.117 -1.5328  0.8989 -0.5766
  491MOL0     H67739  10.875  11.390   6.257 -0.6217  1.9475 -4.0038
  491MOL0     H67740  11.045  10.933   6.297  3.6044 -0.8613  0.7537
  491MOL0     H67741  11.180  10.797   6.418 -1.7543  1.1555 -2.7336
  491MOL0     H67742  11.471   9.796   5.864 -1.7079 -0.1401  0.5154
  491MOL0     H67743  11.319   9.648   5.739  1.6775  2.3320 -0.3414
  491MOL0     H67744  11.058   9.412   5.735 -0.8857 -0.0663  1.3446
  491MOL0     H67745  10.880   9.313   5.623  0.9515  0.8019 -0.4478
  491MOL0     H67746  10.689   8.907   5.587  3.5468 -1.1716 -2.4084
  491MOL0     H67747  10.828   8.876   5.664  0.6289  1.5727 -1.0410
  491MOL0     H67748  10.731   8.958   5.894 -0.9554 -0.5116  0.3454
  491MOL0     H67749  10.654   8.816   5.819  2.4683 -1.0420  0.7463
  491MOL0     H67750  10.558   9.102   5.764  0.3400  1.2927  2.2549
  491MOL0     H67751  10.446   8.965   5.760 -1.1956 -0.3815  2.5574
  491MOL0     H67752  10.413   9.089   5.956  2.2310  1.8084 -0.1152
  491MOL0     H67753  10.578   9.085   6.006  0.0658  0.4689  1.0471
  491MOL0     H67754  10.461   8.703   6.144 -1.4771  1.3588  1.2806
  491MOL0     H67755  10.968   8.932   5.807 -0.0597  0.6420 -1.8466
  491MOL0     H67756  11.144   8.908   5.934 -4.8142  1.8347  3.2692
  491MOL0     H67757  11.298   8.999   5.901  0.8388 -0.8959 -0.7292
  491MOL0     H67758  11.181   9.034   6.041 -0.7764 -1.4352 -1.3088
  492MOL0     O67759   7.372   9.637   1.698 -0.7110  0.1928  0.3752
  492MOL0     C67760   7.491   9.639   1.726 -0.6273 -0.5632 -0.1020
  492MOL0     O67761   7.589   9.545   1.679 -1.1222 -0.7224  0.2724
  492MOL0     C67762   7.551   9.478   1.570 -0.0728 -0.2843  0.6393
  492MOL0     C67763   7.460   9.367   1.575 -0.4852 -0.6005 -0.9117
  492MOL0     C67764   7.433   9.281   1.473  0.2004  0.5588 -0.1834
  492MOL0     C67765   7.479   9.309   1.347  0.6476  0.4767 -0.4501
  492MOL0     O67766   7.437   9.226   1.246  0.4832 -0.2968 -0.2220
  492MOL0     C67767   7.515   9.222   1.123 -0.2798  0.2252  0.8030
  492MOL0     C67768   7.471   9.329   1.030 -0.2249 -0.3253 -0.1120
  492MOL0     C67769   7.322   9.325   0.981  0.5850  0.0882  0.2528
  492MOL0     C67770   7.266   9.446   0.914 -0.1025 -1.0747  0.2053
  492MOL0     C67771   7.125   9.440   0.849  0.6804 -0.6313 -0.5672
  492MOL0     C67772   7.008   9.420   0.940  0.1738  0.4362 -0.3392
  492MOL0     C67773   6.872   9.421   0.867  0.0094  0.3182 -0.7452
  492MOL0     C67774   6.840   9.291   0.793 -0.1301 -0.1199  0.2429
  492MOL0     N67775   6.700   9.291   0.762  0.8220  0.1035 -0.5676
  492MOL0     C67776   6.603   9.250   0.854 -0.4927 -0.5711 -0.0523
  492MOL0     C67777   6.483   9.250   0.784  0.2040 -0.2672  0.5720
  492MOL0     C67778   6.358   9.184   0.846 -0.6805 -0.7873  0.1469
  492MOL0     C67779   6.319   9.045   0.786  0.0318  0.8307  0.1346
  492MOL0     C67780   6.254   9.040   0.649 -0.5298 -0.2833 -1.0859
  492MOL0     C67781   6.234   8.904   0.611  0.3030 -0.4895  0.4059
  492MOL0     O67782   6.160   8.914   0.490  0.4242 -0.2436  0.9401
  492MOL0     C67783   6.158   8.798   0.420  1.2708 -0.2226  0.2606
  492MOL0     C67784   6.255   8.789   0.325 -0.2923  0.6022  0.8139
  492MOL0     C67785   6.275   8.674   0.245 -0.0904 -0.2666 -0.3567
  492MOL0     C67786   6.407   8.677   0.161  0.5962  0.3099 -0.4475
  492MOL0     C67787   6.178   8.570   0.251 -0.3898 -0.9541  0.0571
  492MOL0     C67788   6.170   8.452   0.174 -0.4056 -0.7463  0.4512
  492MOL0     O67789   6.262   8.442   0.085 -0.5574  0.8410  0.5473
  492MOL0     C67790   6.279   8.335  -0.001  0.1478  0.7361 -0.6564
  492MOL0     C67791   6.187   8.304  -0.107 -0.1736 -0.3493 -0.1872
  492MOL0     C67792   6.204   8.199  -0.193  0.2299  0.0833 -0.0043
  492MOL0     C67793   6.309   8.110  -0.174 -0.4192  0.5744 -0.6370
  492MOL0     O67794   6.327   8.022  -0.277 -0.1125 -0.2864  0.2511
  492MOL0     C67795   6.440   8.040  -0.363  0.3178  0.1155  0.6124
  492MOL0     C67796   6.381   8.115  -0.490  0.6965 -0.5735  0.3488
  492MOL0     C67797   6.482   8.185  -0.576  0.1751 -0.5545  0.4016
  492MOL0     C67798   6.536   8.309  -0.508 -0.2796 -0.1322 -0.4796
  492MOL0     C67799   6.584   8.426  -0.597 -0.4151 -0.2220  0.3773
  492MOL0     C67800   6.715   8.397  -0.672 -0.1100 -0.7315 -0.2720
  492MOL0     C67801   6.830   8.353  -0.587 -0.2247 -0.4320 -0.3180
  492MOL0     C67802   6.970   8.401  -0.620  0.2262 -0.2045  0.1353
  492MOL0    Cl67803   7.088   8.326  -0.511  0.1312 -0.1072 -0.1442
  492MOL0     C67804   6.397   8.125  -0.066  1.2485  0.2006  0.5355
  492MOL0     C67805   6.384   8.245   0.014 -0.1979  0.3239  0.4462
  492MOL0     O67806   6.075   8.376   0.184 -0.4741 -0.1671  0.9035
  492MOL0     C67807   6.073   8.593   0.338  0.3441  0.3746 -1.1797
  492MOL0     C67808   6.065   8.696   0.429 -0.2987  0.9276 -0.1853
  492MOL0     N67809   6.510   9.288   0.650 -0.5817  0.5561  0.4482
  492MOL0     N67810   6.641   9.303   0.643  0.2210 -0.1483  0.6960
  492MOL0     C67811   7.557   9.424   1.333  1.5809 -0.3542  0.7887
  492MOL0     C67812   7.593   9.514   1.440  0.2494 -0.1454 -0.2939
  492MOL0     C67813   7.538   9.727   1.835 -0.1467 -0.1602 -0.0462
  492MOL0     C67814   7.660   9.706   1.896  0.4607  0.7500 -0.1689
  492MOL0     C67815   7.726   9.789   1.980  0.9264 -0.0366 -0.9985
  492MOL0     C67816   7.655   9.895   2.036  0.2458  0.4098 -0.5128
  492MOL0     O67817   7.712   9.977   2.133  0.0437 -0.2240 -0.3757
  492MOL0     C67818   7.645  10.041   2.245 -0.3708  0.4754 -0.2060
  492MOL0     C67819   7.697   9.955   2.360  0.0999  0.1098 -1.4068
  492MOL0     C67820   7.653  10.015   2.506  0.6414  1.7796 -0.3932
  492MOL0     C67821   7.668   9.916   2.615  0.1154  0.2744  0.3034
  492MOL0     C67822   7.612   9.970   2.740 -0.5320 -0.4728  0.8576
  492MOL0     C67823   7.572   9.990   2.852 -0.6962  0.1469 -0.0030
  492MOL0     C67824   7.526   9.923   1.988 -0.9831  0.0645  0.0145
  492MOL0     C67825   7.467   9.838   1.886 -0.4374 -0.2085  1.1302
  492MOL0     C67826   7.340   9.877   1.821  0.5811  0.3070 -0.7763
  492MOL0     H67827   7.415   9.368   1.673  1.6155  1.3153  0.1202
  492MOL0     H67828   7.371   9.192   1.485 -1.3922  1.4380 -1.4393
  492MOL0     H67829   7.479   9.130   1.076 -3.1108  2.3778 -1.6310
  492MOL0     H67830   7.622   9.209   1.143  0.0216  0.6000 -0.4934
  492MOL0     H67831   7.489   9.431   1.062  2.3027 -0.7344 -0.0351
  492MOL0     H67832   7.534   9.326   0.941  0.9410  2.3586  0.5369
  492MOL0     H67833   7.304   9.244   0.910 -1.5633  0.8308 -0.1229
  492MOL0     H67834   7.254   9.310   1.065  0.2630  2.7055  0.5495
  492MOL0     H67835   7.278   9.541   0.967  2.5226 -0.4752 -1.2945
  492MOL0     H67836   7.329   9.458   0.825  0.9600 -6.2428 -0.0306
  492MOL0     H67837   7.137   9.360   0.775  2.8565 -1.6533  0.7965
  492MOL0     H67838   7.097   9.533   0.798 -1.5273 -0.6885  0.4512
  492MOL0     H67839   7.031   9.322   0.984  1.1361  0.6495 -0.3426
  492MOL0     H67840   7.006   9.503   1.011  1.2145 -0.0505  0.2849
  492MOL0     H67841   6.870   9.506   0.797 -0.6508  2.3845  1.6272
  492MOL0     H67842   6.793   9.438   0.941  0.7628 -1.2274  0.4565
  492MOL0     H67843   6.897   9.288   0.699 -1.3728  0.5914 -0.5555
  492MOL0     H67844   6.854   9.210   0.865  0.5599 -0.5966 -0.4176
  492MOL0     H67845   6.617   9.215   0.956 -0.3058  1.6346  0.7400
  492MOL0     H67846   6.274   9.250   0.825 -0.2623 -1.0291 -2.8387
  492MOL0     H67847   6.379   9.171   0.952 -0.2437 -1.9826 -0.0654
  492MOL0     H67848   6.413   8.989   0.779 -0.0559  0.8458 -1.3409
  492MOL0     H67849   6.262   8.988   0.861 -0.4079 -1.3233 -1.7257
  492MOL0     H67850   6.161   9.098   0.653  0.7932  1.9240  0.0600
  492MOL0     H67851   6.313   9.096   0.575  0.6080 -0.2531 -0.1791
  492MOL0     H67852   6.330   8.852   0.604  0.6339 -0.0917  1.7150
  492MOL0     H67853   6.161   8.846   0.668 -2.1596 -0.8285 -2.7954
  492MOL0     H67854   6.330   8.867   0.318  1.5915 -1.2307 -4.2582
  492MOL0     H67855   6.460   8.773   0.155  3.4403 -1.2476 -2.8642
  492MOL0     H67856   6.398   8.649   0.056  3.0914 -3.1968  0.0957
  492MOL0     H67857   6.469   8.601   0.210  1.7585  0.9484 -0.9013
  492MOL0     H67858   6.108   8.374  -0.134  0.6689  0.4720 -0.5805
  492MOL0     H67859   6.144   8.180  -0.281  2.1871  4.2458 -2.5259
  492MOL0     H67860   6.522   8.082  -0.304  1.9356 -3.1256  0.9178
  492MOL0     H67861   6.476   7.943  -0.399  1.4266  1.0316 -0.8699
  492MOL0     H67862   6.322   8.049  -0.555  1.6119 -0.4569 -0.6299
  492MOL0     H67863   6.305   8.182  -0.450 -0.0623 -1.2258  0.0139
  492MOL0     H67864   6.421   8.223  -0.658  0.3244 -1.9823 -0.4020
  492MOL0     H67865   6.562   8.114  -0.598  1.3819  0.6823  0.6406
  492MOL0     H67866   6.611   8.277  -0.436 -0.1137 -1.1419 -1.0897
  492MOL0     H67867   6.461   8.363  -0.448  0.6680  0.6201  0.0587
  492MOL0     H67868   6.510   8.419  -0.678  1.5638 -0.1776 -1.5099
  492MOL0     H67869   6.591   8.512  -0.529  2.6194 -2.1535  2.8061
  492MOL0     H67870   6.746   8.483  -0.731 -3.3465 -0.5339 -1.9170
  492MOL0     H67871   6.704   8.332  -0.760  0.5601  1.9591 -2.4970
  492MOL0     H67872   6.824   8.244  -0.592  0.2596 -0.5256  0.8414
  492MOL0     H67873   6.821   8.389  -0.484 -1.7055  0.9199 -0.8850
  492MOL0     H67874   6.972   8.508  -0.599 -1.2047 -0.2247  0.5041
  492MOL0     H67875   7.000   8.375  -0.722 -1.3205 -1.6903  0.0190
  492MOL0     H67876   6.485   8.064  -0.046  1.2597  0.6178  1.8628
  492MOL0     H67877   6.438   8.271   0.104  0.9800 -0.7843  0.0933
  492MOL0     H67878   5.996   8.519   0.352 -0.0479  0.7437 -1.3677
  492MOL0     H67879   5.981   8.686   0.497  0.1307 -3.4064 -0.0309
  492MOL0     H67880   7.604   9.441   1.236  0.5130 -1.9786 -0.0632
  492MOL0     H67881   7.650   9.603   1.417  1.7205 -0.5111  1.6215
  492MOL0     H67882   7.709   9.610   1.882 -0.7364 -0.5549  3.3953
  492MOL0     H67883   7.818   9.745   2.017  1.0206  1.2789  0.4517
  492MOL0     H67884   7.673  10.146   2.261  0.5395  0.1758  0.2138
  492MOL0     H67885   7.536  10.034   2.237 -0.3430  0.2089 -0.3616
  492MOL0     H67886   7.803   9.936   2.376  0.1147  1.6046  0.7003
  492MOL0     H67887   7.642   9.861   2.346  0.4843 -0.6277  1.3673
  492MOL0     H67888   7.715  10.103   2.525  3.5203  0.0099 -0.9652
  492MOL0     H67889   7.547  10.039   2.505  0.3452  1.0101  2.5461
  492MOL0     H67890   7.773   9.895   2.638  1.0750  2.1185 -2.0129
  492MOL0     H67891   7.615   9.824   2.588  2.4737 -0.0326 -4.4058
  492MOL0     H67892   7.536  10.023   2.948 -4.1055  1.9725 -1.7404
  492MOL0     H67893   7.465   9.995   2.041  0.4044  0.5861  0.9520
  492MOL0     H67894   7.301   9.962   1.877 -3.4675 -2.0459  0.3920
  492MOL0     H67895   7.361   9.897   1.715  1.5869 -1.9974 -1.0909
  492MOL0     H67896   7.264   9.798   1.823  0.5278  0.3703 -0.0854
  493MOL0     O67897   6.688   7.131   4.359  0.0184 -0.7065 -0.2225
  493MOL0     C67898   6.662   7.125   4.480 -0.2417  1.2028  0.1940
  493MOL0     O67899   6.742   7.173   4.576 -0.0043 -0.1701  0.1951
  493MOL0     C67900   6.863   7.209   4.531 -0.3697  0.2674  0.6402
  493MOL0     C67901   6.894   7.334   4.476  1.0406  0.7963  0.2538
  493MOL0     C67902   7.022   7.368   4.432  1.1916  0.0258  0.6879
  493MOL0     C67903   7.125   7.279   4.451 -0.5399 -0.2848  0.4628
  493MOL0     O67904   7.252   7.318   4.414 -0.1011  0.1322  0.0800
  493MOL0     C67905   7.372   7.248   4.448  0.1409 -0.0889 -0.5562
  493MOL0     C67906   7.437   7.177   4.331 -0.3009 -0.1934  0.3163
  493MOL0     C67907   7.496   7.273   4.217  0.5149 -0.8448 -0.5115
  493MOL0     C67908   7.594   7.204   4.122 -0.0081  0.1522  0.4865
  493MOL0     C67909   7.503   7.164   4.006  0.7502 -0.0776 -0.7284
  493MOL0     C67910   7.541   7.029   3.935 -0.5271 -0.1884  0.1219
  493MOL0     C67911   7.563   6.920   4.031  0.3257 -0.8866 -0.7490
  493MOL0     C67912   7.573   6.776   3.975 -0.3603 -0.7893  0.2093
  493MOL0     N67913   7.446   6.703   3.957  0.5527 -0.4513 -0.8115
  493MOL0     C67914   7.316   6.718   4.010 -0.6269  0.0044  0.2441
  493MOL0     C67915   7.258   6.604   3.981 -0.3352  0.8236 -0.0952
  493MOL0     C67916   7.118   6.565   4.022 -0.2522  0.5097  0.5448
  493MOL0     C67917   7.022   6.621   3.917 -0.3474 -0.2820 -0.0208
  493MOL0     C67918   6.877   6.618   3.973  0.9203 -0.2756 -0.6979
  493MOL0     C67919   6.824   6.490   4.033 -0.7202  0.5904 -0.1943
  493MOL0     O67920   6.781   6.400   3.928  0.0830 -0.3510  0.3882
  493MOL0     C67921   6.676   6.317   3.967 -0.5730 -0.6083 -0.3058
  493MOL0     C67922   6.642   6.270   4.097  0.6027  1.2012  0.2136
  493MOL0     C67923   6.535   6.178   4.128 -0.9770  0.8384  0.3683
  493MOL0     C67924   6.517   6.139   4.271  0.7194  0.6988  0.5582
  493MOL0     C67925   6.463   6.121   4.023 -0.9859 -0.2444  0.5435
  493MOL0     C67926   6.338   6.048   4.048  0.1643  1.4519 -0.3357
  493MOL0     O67927   6.259   6.036   3.938 -0.2308 -0.4565  0.7692
  493MOL0     C67928   6.135   6.000   3.961  0.0886  0.3287  0.0202
  493MOL0     C67929   6.098   5.868   3.931 -0.0820  0.2037 -0.7674
  493MOL0     C67930   5.964   5.828   3.936  0.1587 -0.1133 -0.2851
  493MOL0     C67931   5.874   5.918   3.991 -0.8577  0.2675  0.4611
  493MOL0     O67932   5.744   5.884   3.997  0.3212 -0.1874  0.2932
  493MOL0     C67933   5.694   5.852   4.117  0.2865 -0.6704  0.7086
  493MOL0     C67934   5.596   5.749   4.099  0.6758  0.0328 -0.2319
  493MOL0     C67935   5.515   5.729   4.227 -0.3542 -0.0654 -0.4172
  493MOL0     C67936   5.459   5.583   4.220 -0.1577 -0.2698  0.5592
  493MOL0     C67937   5.329   5.559   4.136 -0.1299  0.6965 -0.0343
  493MOL0     C67938   5.310   5.407   4.127 -0.7294  0.5434  0.3075
  493MOL0     C67939   5.168   5.391   4.078 -0.0876  1.2344 -0.4429
  493MOL0     C67940   5.117   5.243   4.072  0.2313  0.6282  0.5679
  493MOL0    Cl67941   5.192   5.159   3.926  0.3616 -0.2600  0.0232
  493MOL0     C67942   5.910   6.048   4.030  0.2049 -0.2291 -0.5130
  493MOL0     C67943   6.042   6.094   4.016 -0.4472  0.0355 -0.5267
  493MOL0     O67944   6.312   5.996   4.157 -0.5087 -0.3543  0.4764
  493MOL0     C67945   6.511   6.157   3.892 -0.5501  0.0286  0.2596
  493MOL0     C67946   6.610   6.247   3.857  0.0147 -0.1347 -2.1425
  493MOL0     N67947   7.333   6.522   3.888 -0.3995 -0.6991 -0.0628
  493MOL0     N67948   7.445   6.595   3.879  0.5406  0.8653  0.3002
  493MOL0     C67949   7.094   7.142   4.494  0.6551  0.7179 -0.3443
  493MOL0     C67950   6.959   7.112   4.538 -0.1314  0.5732 -0.0123
  493MOL0     C67951   6.535   7.064   4.529 -0.3246 -0.3672  0.2366
  493MOL0     C67952   6.531   7.048   4.667  0.4520  0.2559  0.1878
  493MOL0     C67953   6.420   6.969   4.714  0.6101 -0.0870 -0.1603
  493MOL0     C67954   6.316   6.908   4.635 -0.4755  0.3916  0.0059
  493MOL0     O67955   6.216   6.849   4.706  0.1954  0.1564 -0.3100
  493MOL0     C67956   6.161   6.730   4.638  0.5446 -0.6884 -0.4580
  493MOL0     C67957   6.076   6.668   4.753 -0.3366  0.9570 -0.1075
  493MOL0     C67958   5.965   6.758   4.787  0.5476 -1.3209  0.7127
  493MOL0     C67959   5.841   6.694   4.834  0.6156 -0.9267 -0.1903
  493MOL0     C67960   5.869   6.630   4.960 -0.7274  0.4291 -0.4885
  493MOL0     C67961   5.877   6.586   5.074 -0.1017  0.3994  0.7564
  493MOL0     C67962   6.327   6.929   4.494 -0.6118 -0.5873  0.2772
  493MOL0     C67963   6.436   7.003   4.439 -0.0346  0.1344 -0.5833
  493MOL0     C67964   6.437   7.018   4.285  0.2041  0.2128 -0.4647
  493MOL0     H67965   6.806   7.398   4.475 -0.1243 -0.7338  0.3962
  493MOL0     H67966   7.037   7.464   4.383 -0.1296 -0.8412 -1.5816
  493MOL0     H67967   7.371   7.173   4.527  1.9905 -0.5058 -0.8679
  493MOL0     H67968   7.436   7.331   4.482 -0.1726  0.0859 -0.3906
  493MOL0     H67969   7.521   7.124   4.376 -0.4627  1.5271  2.7810
  493MOL0     H67970   7.357   7.110   4.295 -0.8191  0.9366 -0.7162
  493MOL0     H67971   7.418   7.317   4.155  0.2733 -0.0705  0.3214
  493MOL0     H67972   7.540   7.362   4.263  2.6195 -3.7552  3.8350
  493MOL0     H67973   7.671   7.266   4.076 -1.1288  1.3289  0.1479
  493MOL0     H67974   7.640   7.121   4.178 -1.5458  0.1412  1.8018
  493MOL0     H67975   7.492   7.254   3.946  1.1930 -0.0693 -0.7992
  493MOL0     H67976   7.406   7.136   4.048  0.6165 -0.1219 -1.0620
  493MOL0     H67977   7.463   7.002   3.864 -0.2867 -1.7025  0.4020
  493MOL0     H67978   7.638   7.032   3.884  0.7101 -1.8071  2.1962
  493MOL0     H67979   7.481   6.926   4.104 -0.0489 -0.3692 -1.2039
  493MOL0     H67980   7.660   6.937   4.079  0.9139 -2.8398 -1.1578
  493MOL0     H67981   7.632   6.784   3.884  1.9821  1.8482  1.7927
  493MOL0     H67982   7.642   6.722   4.040  0.5556  1.5435  1.3063
  493MOL0     H67983   7.272   6.799   4.068 -1.7190  0.4579 -1.1587
  493MOL0     H67984   7.089   6.605   4.119  0.4749  1.7752  0.2567
  493MOL0     H67985   7.112   6.456   4.017 -1.6048  0.6071 -0.4844
  493MOL0     H67986   7.038   6.723   3.882  0.7564 -0.4233  0.0410
  493MOL0     H67987   7.026   6.559   3.827 -0.6522  0.2054 -0.3741
  493MOL0     H67988   6.873   6.699   4.047 -1.1660 -1.1300  0.2006
  493MOL0     H67989   6.807   6.636   3.891 -0.6340 -1.6493  0.2731
  493MOL0     H67990   6.900   6.448   4.100 -1.5906  0.7230  0.9168
  493MOL0     H67991   6.750   6.513   4.110 -0.2546 -0.8125  0.7191
  493MOL0     H67992   6.696   6.305   4.184  3.9990  1.3700 -1.7770
  493MOL0     H67993   6.428   6.189   4.309  1.3869  2.6566 -0.3338
  493MOL0     H67994   6.606   6.172   4.327  3.0721 -0.1592 -2.3891
  493MOL0     H67995   6.511   6.030   4.279  2.2334  0.7010  3.8231
  493MOL0     H67996   6.169   5.790   3.906  0.8263  1.2263 -1.5030
  493MOL0     H67997   5.927   5.731   3.904 -1.9572  0.5032  0.1048
  493MOL0     H67998   5.775   5.818   4.182  1.8608 -0.3384 -0.9771
  493MOL0     H67999   5.638   5.925   4.176 -0.0485 -0.6543  0.3751
  493MOL0     H68000   5.526   5.780   4.021 -2.1050  0.3677  2.2357
  493MOL0     H68001   5.655   5.663   4.066  0.5272 -0.6150  1.1339
  493MOL0     H68002   5.430   5.798   4.219 -1.1050 -0.9226 -0.1574
  493MOL0     H68003   5.562   5.758   4.321 -4.6691 -0.1853  2.0501
  493MOL0     H68004   5.441   5.558   4.325  0.6918 -0.3643  0.6872
  493MOL0     H68005   5.540   5.518   4.188 -1.1873 -1.4541  0.2995
  493MOL0     H68006   5.238   5.605   4.175 -2.5189 -2.6441 -1.1680
  493MOL0     H68007   5.345   5.598   4.035  1.7249  0.0642 -0.0152
  493MOL0     H68008   5.320   5.361   4.226 -2.9617 -1.2679 -0.2131
  493MOL0     H68009   5.378   5.358   4.057 -0.3946 -2.0604  2.3268
  493MOL0     H68010   5.155   5.423   3.975  1.2531 -1.6762 -1.6131
  493MOL0     H68011   5.096   5.453   4.133 -1.9896 -2.4972  1.6900
  493MOL0     H68012   5.011   5.242   4.043  0.6779 -4.8434 -2.1663
  493MOL0     H68013   5.133   5.180   4.160  1.7023 -1.9722 -1.4262
  493MOL0     H68014   5.830   6.110   4.067  1.1984 -1.0024  3.2857
  493MOL0     H68015   6.061   6.191   4.060  0.5798 -0.3419 -0.1111
  493MOL0     H68016   6.451   6.111   3.815 -0.3171  1.4566 -0.8025
  493MOL0     H68017   6.641   6.255   3.753  0.7077  0.2835 -1.9091
  493MOL0     H68018   7.170   7.066   4.508  0.3024  0.7430  2.1416
  493MOL0     H68019   6.951   7.011   4.577  4.0151  0.4357  0.8959
  493MOL0     H68020   6.607   7.078   4.739  0.6488  0.6154 -0.1660
  493MOL0     H68021   6.405   6.956   4.821 -0.5877  1.3520 -0.1387
  493MOL0     H68022   6.102   6.778   4.559  0.0547  2.3711  1.5758
  493MOL0     H68023   6.241   6.664   4.603  1.0228  0.0450 -0.7840
  493MOL0     H68024   6.141   6.661   4.841 -0.6300 -0.9349  0.0024
  493MOL0     H68025   6.038   6.572   4.717  0.2262  1.1170 -1.1411
  493MOL0     H68026   5.985   6.839   4.857  0.6165  0.5759 -1.3949
  493MOL0     H68027   5.938   6.806   4.693  1.7181 -0.9243  0.5646
  493MOL0     H68028   5.791   6.631   4.760  0.8643 -1.5354  0.1562
  493MOL0     H68029   5.769   6.769   4.867  1.6776  0.0921 -0.1186
  493MOL0     H68030   5.892   6.541   5.170  2.2489 -2.3794 -0.7419
  493MOL0     H68031   6.247   6.883   4.437 -0.4024 -0.8787  0.2129
  493MOL0     H68032   6.444   7.124   4.258 -2.4985  1.3074  2.5438
  493MOL0     H68033   6.529   6.965   4.258  1.2012  0.7959  1.6277
  493MOL0     H68034   6.352   6.963   4.244  1.5873 -0.9160 -1.9777
  494MOL0     O68035   6.011   0.631   0.863 -0.0830 -0.1472 -0.0351
  494MOL0     C68036   5.976   0.571   0.763 -0.2249  0.1274 -0.7124
  494MOL0     O68037   5.898   0.461   0.763  0.4614  1.4102  0.9067
  494MOL0     C68038   5.857   0.425   0.879 -0.8456 -0.8236 -0.7898
  494MOL0     C68039   5.933   0.355   0.973  1.0762  0.9537 -0.1565
  494MOL0     C68040   5.875   0.311   1.086  1.2807 -0.7176 -0.2378
  494MOL0     C68041   5.739   0.351   1.116 -0.9760  0.1667 -0.8057
  494MOL0     O68042   5.682   0.317   1.239 -0.2144  0.9948 -0.1449
  494MOL0     C68043   5.732   0.216   1.330  0.3712 -0.5750  0.3402
  494MOL0     C68044   5.860   0.261   1.419 -0.1211  0.1871 -0.1760
  494MOL0     C68045   5.836   0.399   1.471  0.2104  0.5545  0.9022
  494MOL0     C68046   5.933   0.430   1.590 -0.3314 -0.0800  0.6778
  494MOL0     C68047   5.894   0.565   1.664 -0.6915  0.8145  0.1812
  494MOL0     C68048   6.012   0.609   1.741 -0.1192 -0.9221  0.3134
  494MOL0     C68049   6.021   0.534   1.883 -0.1029 -0.2153 -0.1917
  494MOL0     C68050   5.940   0.610   1.988  0.3312 -0.1428 -0.8257
  494MOL0     N68051   5.999   0.591   2.124 -0.5745  1.2105  0.6973
  494MOL0     C68052   6.117   0.653   2.161  0.2575 -0.1828 -1.0235
  494MOL0     C68053   6.124   0.636   2.298 -0.4752  0.2197  0.7535
  494MOL0     C68054   6.252   0.645   2.391  1.0741 -0.5911  0.6000
  494MOL0     C68055   6.318   0.503   2.424 -0.0077 -0.1885  1.0287
  494MOL0     C68056   6.240   0.417   2.529  0.0903 -1.3350 -0.2785
  494MOL0     C68057   6.217   0.480   2.671 -0.4565  0.6000  0.5107
  494MOL0     O68058   6.342   0.530   2.707 -0.4228 -0.3172  0.0608
  494MOL0     C68059   6.350   0.648   2.786  0.9633 -0.2700  0.4100
  494MOL0     C68060   6.340   0.777   2.733 -0.5898 -0.1910  0.4670
  494MOL0     C68061   6.326   0.884   2.810  0.7125  0.0598  0.2972
  494MOL0     C68062   6.287   1.024   2.751  0.0743 -0.7142 -0.2819
  494MOL0     C68063   6.327   0.873   2.949 -0.4985  0.5432  0.0878
  494MOL0     C68064   6.316   0.985   3.043 -0.3270  0.1480 -0.4572
  494MOL0     O68065   6.243   0.944   3.155 -0.3849 -0.2678 -0.3993
  494MOL0     C68066   6.202   1.041   3.239 -0.0752 -1.2518  0.0482
  494MOL0     C68067   6.273   1.066   3.357  0.4081 -0.0428 -0.4946
  494MOL0     C68068   6.219   1.156   3.455 -0.0901  0.1184  0.0133
  494MOL0     C68069   6.103   1.232   3.424 -0.3807 -0.3272 -0.5186
  494MOL0     O68070   6.067   1.331   3.519 -1.0196  0.1708  1.1981
  494MOL0     C68071   5.939   1.410   3.511 -0.3512  1.1414 -0.6911
  494MOL0     C68072   5.924   1.467   3.655  0.7047 -1.1385 -1.0033
  494MOL0     C68073   5.772   1.492   3.681  0.1904  0.6866  0.0305
  494MOL0     C68074   5.755   1.526   3.833 -0.3641  0.3352 -0.1002
  494MOL0     C68075   5.611   1.528   3.874 -0.5714  0.6133  0.0151
  494MOL0     C68076   5.563   1.382   3.924 -0.2709  0.2603 -0.4975
  494MOL0     C68077   5.411   1.388   3.944  0.8593  0.5317 -0.1016
  494MOL0     C68078   5.361   1.268   4.030  0.4146  1.0482  0.9210
  494MOL0    Cl68079   5.186   1.276   4.066 -0.4470 -0.0070  0.0672
  494MOL0     C68080   6.032   1.213   3.305 -0.6506 -0.6271 -0.4541
  494MOL0     C68081   6.080   1.113   3.218 -0.3562 -0.6494  1.0494
  494MOL0     O68082   6.374   1.095   3.022  0.0804  0.0027 -0.0499
  494MOL0     C68083   6.337   0.742   3.007 -0.0156  0.1502 -0.1373
  494MOL0     C68084   6.350   0.630   2.923  1.4380  0.0594  0.9488
  494MOL0     N68085   6.007   0.593   2.344 -0.4272 -0.3016 -0.8293
  494MOL0     N68086   5.930   0.574   2.241  0.1300 -0.6208 -0.0527
  494MOL0     C68087   5.662   0.415   1.022 -0.9798 -0.1721 -0.3608
  494MOL0     C68088   5.727   0.453   0.902 -0.2323 -0.2481 -0.6684
  494MOL0     C68089   6.069   0.594   0.646  0.6021  0.1606  0.5635
  494MOL0     C68090   6.050   0.519   0.527 -0.4302  0.1931 -0.2219
  494MOL0     C68091   6.149   0.510   0.427  0.6106 -0.1701 -0.8730
  494MOL0     C68092   6.272   0.570   0.441 -0.0840 -0.5172 -0.2683
  494MOL0     O68093   6.373   0.541   0.351 -0.2292 -0.3421  0.0526
  494MOL0     C68094   6.378   0.416   0.277 -0.8820 -0.3806  0.5762
  494MOL0     C68095   6.525   0.401   0.223  0.3400  0.1180 -0.3000
  494MOL0     C68096   6.563   0.267   0.146  0.1523  0.0463  0.4347
  494MOL0     C68097   6.502   0.257  -0.002  0.8960  0.7456 -0.2926
  494MOL0     C68098   6.571   0.346  -0.099  0.1036  0.6102 -0.6996
  494MOL0     C68099   6.612   0.435  -0.174  0.0560 -0.1399 -0.5789
  494MOL0     C68100   6.291   0.657   0.550 -0.0805 -0.4221  0.0254
  494MOL0     C68101   6.192   0.672   0.654  0.3400  0.2602  0.8461
  494MOL0     C68102   6.206   0.792   0.742 -0.7949 -0.4058  0.8554
  494MOL0     H68103   6.036   0.324   0.958  0.5153 -2.9150  2.4238
  494MOL0     H68104   5.943   0.257   1.151  0.3006 -0.7965  0.7654
  494MOL0     H68105   5.745   0.123   1.275 -1.6913 -1.3986  1.1318
  494MOL0     H68106   5.644   0.185   1.387 -0.8056  0.4763 -0.8343
  494MOL0     H68107   5.874   0.196   1.505  1.4946  3.3228  2.1319
  494MOL0     H68108   5.954   0.274   1.364  1.1705  0.3853  1.9792
  494MOL0     H68109   5.858   0.466   1.386  1.5910 -1.8648 -0.7572
  494MOL0     H68110   5.731   0.412   1.498 -0.3434  0.0265 -0.8356
  494MOL0     H68111   5.937   0.344   1.656 -1.7777  0.7233  1.8700
  494MOL0     H68112   6.030   0.438   1.541 -1.1412  1.1430 -0.8277
  494MOL0     H68113   5.802   0.550   1.722 -2.1181  4.3291 -0.9441
  494MOL0     H68114   5.864   0.645   1.597  1.4324  2.0904  0.6509
  494MOL0     H68115   6.106   0.591   1.688  1.8685  0.8882  2.9638
  494MOL0     H68116   6.013   0.718   1.746  0.5492 -0.7067 -2.6633
  494MOL0     H68117   6.126   0.539   1.914  0.0604 -3.2923  0.0110
  494MOL0     H68118   5.984   0.431   1.882  2.5447 -1.2878  1.7921
  494MOL0     H68119   5.931   0.717   1.970 -0.8957  0.7954  4.0024
  494MOL0     H68120   5.835   0.582   1.990  0.7545 -1.9276  1.6692
  494MOL0     H68121   6.201   0.686   2.102  2.3101  0.8668  2.2218
  494MOL0     H68122   6.222   0.691   2.486 -1.4922  1.5226 -1.0724
  494MOL0     H68123   6.322   0.720   2.353 -1.3120  0.8743 -1.2007
  494MOL0     H68124   6.325   0.434   2.339  0.1746 -1.5940  2.1452
  494MOL0     H68125   6.423   0.506   2.457  0.8137  0.9141 -1.4405
  494MOL0     H68126   6.138   0.405   2.491 -0.5833  2.6879 -0.1724
  494MOL0     H68127   6.290   0.320   2.536  3.0590  0.0263 -0.9166
  494MOL0     H68128   6.149   0.566   2.672 -0.6110  0.5677  4.1466
  494MOL0     H68129   6.181   0.409   2.745  0.8685  0.1845  0.7872
  494MOL0     H68130   6.338   0.795   2.626  1.5104  1.0596  0.5888
  494MOL0     H68131   6.367   1.097   2.762 -0.1354 -0.3404 -1.1573
  494MOL0     H68132   6.205   1.072   2.807  1.1114  1.9465 -0.9122
  494MOL0     H68133   6.258   1.026   2.645  1.0560  1.0833 -0.5436
  494MOL0     H68134   6.366   1.012   3.373 -0.6279 -1.3017  1.8566
  494MOL0     H68135   6.280   1.172   3.544 -1.7045  2.0268  0.8543
  494MOL0     H68136   5.948   1.491   3.438 -0.0333  0.7979 -1.0383
  494MOL0     H68137   5.850   1.359   3.473 -0.4165 -0.2046  1.1309
  494MOL0     H68138   5.967   1.391   3.720  1.0329  2.8588  4.1266
  494MOL0     H68139   5.984   1.553   3.687  1.8414 -2.5869  0.9130
  494MOL0     H68140   5.712   1.406   3.651 -0.1651  1.1054 -0.4648
  494MOL0     H68141   5.747   1.584   3.627 -0.2333  0.4188 -0.2291
  494MOL0     H68142   5.802   1.625   3.834  0.5581 -0.0489 -1.3967
  494MOL0     H68143   5.813   1.461   3.900  0.8421  0.3088 -1.1174
  494MOL0     H68144   5.606   1.589   3.965 -1.0497  0.6055 -0.0018
  494MOL0     H68145   5.545   1.558   3.792 -1.0183 -0.3306  0.0201
  494MOL0     H68146   5.618   1.368   4.017 -2.2665 -1.6463  0.4773
  494MOL0     H68147   5.587   1.304   3.852  1.2162  0.6927 -0.4988
  494MOL0     H68148   5.363   1.394   3.846  0.6297  2.6703  0.0919
  494MOL0     H68149   5.378   1.477   4.000  0.1841 -1.1828  2.3907
  494MOL0     H68150   5.421   1.249   4.119 -1.2615 -0.6023  1.7851
  494MOL0     H68151   5.378   1.178   3.971  1.3004  2.6398 -1.3879
  494MOL0     H68152   5.962   1.294   3.287 -1.4549 -1.0160  0.8374
  494MOL0     H68153   6.021   1.093   3.129  0.8712 -0.3427  0.1432
  494MOL0     H68154   6.330   0.720   3.113  0.3454  1.4501  0.1794
  494MOL0     H68155   6.354   0.529   2.961 -1.7272 -0.2512  0.7048
  494MOL0     H68156   5.555   0.435   1.030 -1.5374 -2.2752 -1.8422
  494MOL0     H68157   5.672   0.508   0.827 -1.6602  0.8746  1.1182
  494MOL0     H68158   5.948   0.487   0.508 -0.5186 -0.3056  0.9896
  494MOL0     H68159   6.138   0.454   0.335 -0.2331 -1.3588 -0.0698
  494MOL0     H68160   6.342   0.326   0.329 -2.2710  0.1982  0.6607
  494MOL0     H68161   6.310   0.437   0.194 -1.6888  0.5589  1.4541
  494MOL0     H68162   6.593   0.414   0.308  3.2386 -0.7638 -2.3213
  494MOL0     H68163   6.554   0.474   0.147 -1.9440 -0.3707 -1.7377
  494MOL0     H68164   6.670   0.262   0.125  0.2631 -5.4348  0.7437
  494MOL0     H68165   6.534   0.179   0.203 -1.3284  0.0536 -0.2645
  494MOL0     H68166   6.396   0.283  -0.006  0.6001 -0.2709  0.6641
  494MOL0     H68167   6.516   0.154  -0.035  1.1622  0.8065 -0.3701
  494MOL0     H68168   6.632   0.516  -0.240 -3.8647  0.4405 -1.3096
  494MOL0     H68169   6.374   0.727   0.548  1.9416 -2.6741 -1.7286
  494MOL0     H68170   6.112   0.847   0.733 -0.7502 -0.2422  1.3381
  494MOL0     H68171   6.221   0.756   0.844  1.4333 -0.5001  0.5293
  494MOL0     H68172   6.286   0.860   0.714 -0.7084 -1.2631 -1.1313
  495MOL0     O68173   6.313  11.022   3.673  0.5858  0.2347 -0.3872
  495MOL0     C68174   6.203  10.968   3.668 -0.0222  0.2390  0.3253
  495MOL0     O68175   6.087  10.986   3.752 -0.3287 -0.0228 -0.4031
  495MOL0     C68176   6.108  11.085   3.842 -0.0559  0.8279 -0.4585
  495MOL0     C68177   6.077  11.224   3.828  0.2217 -0.0063 -0.4978
  495MOL0     C68178   6.108  11.317   3.929 -0.5192  0.8800 -0.0437
  495MOL0     C68179   6.161  11.282   4.053 -0.2635 -0.1718  1.2469
  495MOL0     O68180   6.184  11.359   4.163 -0.4331  0.5478 -0.7730
  495MOL0     C68181   6.179  11.504   4.153  0.7011 -0.6927 -0.4129
  495MOL0     C68182   6.039  11.562   4.192 -0.0454  0.1713  0.0634
  495MOL0     C68183   6.034  11.718   4.210 -0.2825 -0.0535 -0.1178
  495MOL0     C68184   5.883  11.770   4.211  0.0679 -0.1949  0.4092
  495MOL0     C68185   5.861  11.908   4.268 -1.0064 -1.1864 -0.0677
  495MOL0     C68186   5.710  11.944   4.272 -0.2583  0.5255 -0.4013
  495MOL0     C68187   5.684  12.089   4.313 -0.2730  0.9144 -0.1102
  495MOL0     C68188   5.533  12.112   4.314  0.2118  1.2568  0.4794
  495MOL0     N68189   5.460  12.095   4.442 -0.4601 -0.2474 -1.4777
  495MOL0     C68190   5.412  12.199   4.513 -0.3889 -0.1860  0.0135
  495MOL0     C68191   5.348  12.140   4.612 -0.0252  0.4621 -0.3000
  495MOL0     C68192   5.272  12.192   4.720  0.0500 -1.3434 -1.0756
  495MOL0     C68193   5.125  12.238   4.668 -0.1857  0.0068  0.2164
  495MOL0     C68194   5.031  12.127   4.709 -0.7487 -0.3981 -0.3160
  495MOL0     C68195   4.892  12.163   4.663  0.8616 -0.4893 -0.5507
  495MOL0     O68196   4.796  12.054   4.684  0.5238 -0.5943 -0.0515
  495MOL0     C68197   4.672  12.073   4.628  0.0342 -0.3307 -1.3572
  495MOL0     C68198   4.621  12.193   4.563  0.7781  0.1308 -0.4362
  495MOL0     C68199   4.483  12.213   4.528  0.2376 -0.5136  0.4424
  495MOL0     C68200   4.436  12.333   4.448  0.8012  0.1642 -0.2102
  495MOL0     C68201   4.394  12.109   4.554 -0.0732  0.4595  0.8275
  495MOL0     C68202   4.250  12.113   4.510  0.4438 -0.1277  0.8011
  495MOL0     O68203   4.174  12.233   4.527  0.1078 -0.7547 -0.1716
  495MOL0     C68204   4.044  12.246   4.469  0.8757 -0.5213 -0.1791
  495MOL0     C68205   4.035  12.274   4.330 -0.2209 -0.0614 -0.3199
  495MOL0     C68206   3.903  12.300   4.274 -1.0943 -0.5106  0.7382
  495MOL0     C68207   3.786  12.296   4.353 -0.6383  0.4519  0.5886
  495MOL0     O68208   3.662  12.339   4.319  0.3867 -0.0066 -0.0812
  495MOL0     C68209   3.638  12.377   4.174 -0.4491 -0.0042  0.1556
  495MOL0     C68210   3.497  12.392   4.150 -0.0253  0.2567 -0.1070
  495MOL0     C68211   3.466  12.394   4.010  0.5944 -0.6526 -0.9654
  495MOL0     C68212   3.317  12.394   3.964 -0.8925  0.6964  0.3925
  495MOL0     C68213   3.309  12.431   3.815  0.1232 -1.0476  0.2478
  495MOL0     C68214   3.178  12.402   3.750  0.3596  1.4087  0.0833
  495MOL0     C68215   3.169  12.424   3.599 -0.8637 -0.6848 -0.0186
  495MOL0     C68216   3.037  12.372   3.548 -0.8205 -0.0199 -0.3693
  495MOL0    Cl68217   2.909  12.488   3.579 -0.2224 -0.3132  0.6330
  495MOL0     C68218   3.804  12.263   4.485  0.7890 -0.0162  0.6761
  495MOL0     C68219   3.930  12.242   4.547 -0.0184 -0.4619 -0.7198
  495MOL0     O68220   4.202  12.010   4.475 -0.4736 -0.2786 -0.9154
  495MOL0     C68221   4.446  11.989   4.618  0.2956 -0.4357 -0.1278
  495MOL0     C68222   4.576  11.976   4.661  0.6775 -0.1614 -0.2878
  495MOL0     N68223   5.375  12.000   4.605 -0.1909 -0.7064 -0.2391
  495MOL0     N68224   5.453  11.972   4.508 -0.2297  0.1193 -0.5236
  495MOL0     C68225   6.183  11.135   4.062 -0.0301  0.2210  0.6186
  495MOL0     C68226   6.156  11.043   3.960  0.3522 -0.2659 -0.6615
  495MOL0     C68227   6.192  10.865   3.564 -0.6065  0.4403 -0.1596
  495MOL0     C68228   6.096  10.763   3.573 -0.6663  0.2250  0.6451
  495MOL0     C68229   6.093  10.663   3.484 -0.4501  1.1173 -0.2124
  495MOL0     C68230   6.194  10.645   3.393 -0.3424  0.0927  0.0811
  495MOL0     O68231   6.222  10.537   3.317  0.4658  1.0168 -0.3054
  495MOL0     C68232   6.138  10.412   3.322 -0.7322  0.1133 -0.3331
  495MOL0     C68233   6.139  10.330   3.185 -0.7316 -0.1990  0.5472
  495MOL0     C68234   6.274  10.273   3.151  0.0534 -0.2283 -0.2492
  495MOL0     C68235   6.268  10.188   3.028 -1.8920  0.2901  0.5044
  495MOL0     C68236   6.181  10.063   3.034  0.2485 -0.0425  0.4461
  495MOL0     C68237   6.085   9.987   3.041  0.4537 -0.2449  0.1898
  495MOL0     C68238   6.284  10.747   3.365 -0.5742 -0.1685 -0.2120
  495MOL0     C68239   6.287  10.860   3.453 -0.1069  0.3889 -0.2992
  495MOL0     C68240   6.389  10.967   3.419 -0.5373 -0.2532 -0.5148
  495MOL0     H68241   6.034  11.270   3.739  1.4211 -0.2212 -1.2175
  495MOL0     H68242   6.076  11.420   3.918  1.2707  1.4817  0.1367
  495MOL0     H68243   6.213  11.532   4.053  2.0742 -0.4560  0.0960
  495MOL0     H68244   6.250  11.548   4.224  1.3882 -2.4935  0.0462
  495MOL0     H68245   5.973  11.524   4.114  0.5255 -1.3064  0.2688
  495MOL0     H68246   6.006  11.516   4.285  1.6940 -0.1500  0.5635
  495MOL0     H68247   6.080  11.739   4.307 -0.9473 -1.9753  0.6727
  495MOL0     H68248   6.078  11.771   4.126 -1.7540  1.4596  0.0178
  495MOL0     H68249   5.851  11.769   4.106 -0.7774 -1.6362  0.6479
  495MOL0     H68250   5.827  11.688   4.256  2.7447 -2.4845 -0.1819
  495MOL0     H68251   5.917  11.983   4.211  0.8521 -1.9159  0.7319
  495MOL0     H68252   5.894  11.914   4.372 -3.3163  0.7834  0.6549
  495MOL0     H68253   5.681  11.926   4.168 -1.2043 -3.3908  0.3707
  495MOL0     H68254   5.656  11.876   4.339 -0.5179  2.1332  1.0915
  495MOL0     H68255   5.735  12.142   4.232  0.0579 -0.3511 -0.7461
  495MOL0     H68256   5.721  12.118   4.412 -4.8555  2.7903  1.3327
  495MOL0     H68257   5.515  12.212   4.276  0.8882  0.7987 -1.1029
  495MOL0     H68258   5.497  12.047   4.233  1.4770  1.7027 -0.4761
  495MOL0     H68259   5.419  12.308   4.507  0.3734 -0.0135  2.6762
  495MOL0     H68260   5.305  12.277   4.780 -1.4797 -0.8275 -0.9287
  495MOL0     H68261   5.264  12.115   4.797 -0.5396  2.3652  2.8990
  495MOL0     H68262   5.095  12.335   4.709 -1.5379  0.3046 -1.3810
  495MOL0     H68263   5.124  12.259   4.561 -0.3948  0.7685  0.3667
  495MOL0     H68264   5.061  12.024   4.686 -3.0996 -1.4343  0.9608
  495MOL0     H68265   5.038  12.127   4.818  0.7106  0.3455 -0.3854
  495MOL0     H68266   4.858  12.257   4.709  4.3733 -0.0233  1.4533
  495MOL0     H68267   4.895  12.186   4.556  2.1102 -0.0506 -0.4373
  495MOL0     H68268   4.693  12.266   4.528 -0.3791  1.0504 -0.9797
  495MOL0     H68269   4.524  12.390   4.416  1.8536 -1.5175 -0.4094
  495MOL0     H68270   4.385  12.407   4.510  3.5551  2.9122 -0.9531
  495MOL0     H68271   4.373  12.306   4.363  2.4746 -3.0696 -0.5541
  495MOL0     H68272   4.125  12.278   4.269 -0.0316  1.2360  0.0153
  495MOL0     H68273   3.887  12.336   4.173 -3.3508 -0.4021  1.0647
  495MOL0     H68274   3.693  12.460   4.131 -1.0885  0.1742 -0.3388
  495MOL0     H68275   3.674  12.293   4.114 -1.0095 -1.9781  2.3963
  495MOL0     H68276   3.441  12.314   4.202  0.4809  0.7485  1.2255
  495MOL0     H68277   3.461  12.488   4.189 -0.3479 -0.3597  1.1527
  495MOL0     H68278   3.524  12.311   3.968  0.6728 -0.7038 -0.7543
  495MOL0     H68279   3.498  12.488   3.964 -5.4135  0.7839 -3.1929
  495MOL0     H68280   3.275  12.472   4.029 -1.5762 -0.2864  1.1588
  495MOL0     H68281   3.266  12.300   3.987 -2.4513  1.3300 -0.3230
  495MOL0     H68282   3.332  12.538   3.807 -1.7865 -0.5500  0.9570
  495MOL0     H68283   3.383  12.368   3.765  1.6997  0.8396  0.0728
  495MOL0     H68284   3.099  12.463   3.797 -2.0625 -0.7510 -0.9130
  495MOL0     H68285   3.158  12.297   3.776  1.1178  1.2168 -0.0993
  495MOL0     H68286   3.252  12.378   3.545 -0.7130  0.4569 -0.7788
  495MOL0     H68287   3.169  12.533   3.601 -0.1570 -0.6857  0.1003
  495MOL0     H68288   3.019  12.273   3.592 -0.0885 -0.5537 -1.2501
  495MOL0     H68289   3.041  12.365   3.439 -1.6452  0.0462 -0.4143
  495MOL0     H68290   3.715  12.255   4.546  0.3186  0.1306  0.0140
  495MOL0     H68291   3.931  12.206   4.649  2.5827 -2.1564 -1.2297
  495MOL0     H68292   4.380  11.903   4.631 -0.2071 -0.0676 -0.2446
  495MOL0     H68293   4.601  11.881   4.707 -2.2159 -1.5104 -1.3011
  495MOL0     H68294   6.206  11.106   4.164 -0.1848  0.4599  0.7259
  495MOL0     H68295   6.163  10.935   3.972  0.2172 -0.2243 -0.2032
  495MOL0     H68296   6.026  10.755   3.655 -1.1811  1.1801  0.3096
  495MOL0     H68297   6.023  10.582   3.504  0.6285  0.6693  2.0401
  495MOL0     H68298   6.181  10.347   3.399  0.8916 -0.5080 -1.6969
  495MOL0     H68299   6.035  10.432   3.351 -0.7948 -1.0894  0.3629
  495MOL0     H68300   6.101  10.395   3.106 -1.5775  0.6553  1.6137
  495MOL0     H68301   6.069  10.250   3.209 -2.1174  1.4853  2.5249
  495MOL0     H68302   6.350  10.351   3.147 -1.4879  1.2888 -0.6494
  495MOL0     H68303   6.300  10.207   3.235 -0.2043  1.3260  1.0880
  495MOL0     H68304   6.367  10.153   2.999 -1.5649 -1.4350  3.3509
  495MOL0     H68305   6.237  10.255   2.948 -1.0782  4.2223  3.1842
  495MOL0     H68306   5.998   9.924   3.042  0.8538 -0.8245  1.7855
  495MOL0     H68307   6.354  10.731   3.284 -0.8779 -0.4056 -0.4299
  495MOL0     H68308   6.471  10.947   3.488 -2.0954  0.7002  1.7369
  495MOL0     H68309   6.413  10.963   3.312  0.7003  0.2515 -0.2687
  495MOL0     H68310   6.347  11.064   3.447 -0.4886 -0.5343  0.5687
  496MOL0     O68311   5.153  10.404   3.909  0.0359 -0.4645  0.8504
  496MOL0     C68312   5.184  10.409   3.786 -0.2198 -0.0068  1.3664
  496MOL0     O68313   5.131  10.491   3.698  0.9024  0.4577  0.1210
  496MOL0     C68314   5.014  10.558   3.727  0.0103 -0.3747 -0.6011
  496MOL0     C68315   5.026  10.697   3.699 -0.1857 -0.3276  0.1047
  496MOL0     C68316   4.906  10.779   3.719 -0.7975  0.5033 -0.6736
  496MOL0     C68317   4.785  10.717   3.762 -0.2602 -0.4013  0.0178
  496MOL0     O68318   4.676  10.793   3.791 -0.3590  0.0520  0.9146
  496MOL0     C68319   4.633  10.894   3.702  0.4465  0.3709 -0.1985
  496MOL0     C68320   4.481  10.926   3.726  0.2584  0.6540  0.2207
  496MOL0     C68321   4.398  10.795   3.752  0.2311  0.4293 -0.3653
  496MOL0     C68322   4.431  10.679   3.654  1.2041  0.3590  0.0518
  496MOL0     C68323   4.354  10.539   3.673  0.6136 -0.1482 -0.3953
  496MOL0     C68324   4.200  10.549   3.685 -0.6904  0.5746 -0.3765
  496MOL0     C68325   4.138  10.405   3.699 -0.2287  0.1710 -1.2455
  496MOL0     C68326   4.086  10.355   3.560  0.3452 -0.5038 -0.7741
  496MOL0     N68327   3.994  10.243   3.601 -0.3108 -0.0402  0.1066
  496MOL0     C68328   4.038  10.120   3.626  0.2104  0.7243  0.1294
  496MOL0     C68329   3.914  10.057   3.640 -0.4692 -0.2610  0.5537
  496MOL0     C68330   3.883   9.909   3.674 -0.4987 -0.1315 -0.5522
  496MOL0     C68331   3.821   9.900   3.817 -0.3006  0.5663 -0.2898
  496MOL0     C68332   3.874   9.788   3.918  0.1618  0.3681  0.3168
  496MOL0     C68333   3.845   9.646   3.859 -0.1343  0.6154 -0.1266
  496MOL0     O68334   3.704   9.628   3.822 -1.3059 -0.1276  0.4027
  496MOL0     C68335   3.678   9.592   3.698  0.4187 -0.0544  0.9402
  496MOL0     C68336   3.598   9.673   3.618 -0.0631  0.8876  0.3076
  496MOL0     C68337   3.567   9.643   3.486  0.2441  0.7160  0.3024
  496MOL0     C68338   3.477   9.732   3.405 -0.3787 -0.5685 -0.0130
  496MOL0     C68339   3.620   9.521   3.429 -0.5460  0.7055 -0.0405
  496MOL0     C68340   3.605   9.472   3.288  0.8734 -0.0297  0.0119
  496MOL0     O68341   3.500   9.528   3.220  0.2825 -0.0918  0.0822
  496MOL0     C68342   3.513   9.528   3.087 -0.0427 -1.1207  0.6747
  496MOL0     C68343   3.392   9.533   3.010 -0.7771  0.9725 -0.4236
  496MOL0     C68344   3.386   9.566   2.876  0.1905  0.3354  0.4843
  496MOL0     C68345   3.505   9.589   2.809 -0.0215  0.7888 -0.6284
  496MOL0     O68346   3.525   9.604   2.679  0.2981  0.6191  0.3606
  496MOL0     C68347   3.418   9.545   2.591  0.1197 -0.2728 -0.4485
  496MOL0     C68348   3.341   9.650   2.528 -0.8686 -0.2253  0.1991
  496MOL0     C68349   3.239   9.602   2.421 -0.7657  0.2153  0.1219
  496MOL0     C68350   3.090   9.613   2.462 -0.2693  0.6551 -0.1259
  496MOL0     C68351   3.002   9.566   2.340  0.4323  0.5904  0.3212
  496MOL0     C68352   2.852   9.610   2.350  0.2646 -0.7150 -0.7595
  496MOL0     C68353   2.786   9.590   2.483  0.0122 -1.3377 -0.4773
  496MOL0     C68354   2.763   9.446   2.529  0.1578 -0.3430  0.8350
  496MOL0    Cl68355   2.657   9.362   2.419  0.0155  0.6363 -0.1574
  496MOL0     C68356   3.622   9.600   2.891 -0.0041  0.4365  0.5734
  496MOL0     C68357   3.624   9.565   3.023 -0.4823 -0.3384  0.5055
  496MOL0     O68358   3.683   9.386   3.240  0.1231 -0.2067  0.1664
  496MOL0     C68359   3.694   9.437   3.514 -0.1876  0.3202  0.7732
  496MOL0     C68360   3.733   9.474   3.641  0.0746  0.1837 -0.5075
  496MOL0     N68361   3.813  10.140   3.604 -0.8681  0.1848 -0.4401
  496MOL0     N68362   3.859  10.251   3.591  0.2535 -0.3294  0.7805
  496MOL0     C68363   4.781  10.587   3.789  0.2097  0.1980 -0.0311
  496MOL0     C68364   4.896  10.506   3.774 -0.0271 -0.4317  0.5914
  496MOL0     C68365   5.287  10.318   3.727  0.3267 -0.5378  0.5976
  496MOL0     C68366   5.307  10.320   3.589  0.5993  0.1757  0.5429
  496MOL0     C68367   5.408  10.252   3.529 -1.4450 -0.0570  0.2645
  496MOL0     C68368   5.492  10.172   3.608  0.2494  0.3290  0.4169
  496MOL0     O68369   5.598  10.102   3.555 -0.0153  1.1171  0.5566
  496MOL0     C68370   5.559  10.011   3.447  1.1275 -0.2021  0.5069
  496MOL0     C68371   5.658  10.007   3.338  0.2467  0.0233 -1.1123
  496MOL0     C68372   5.648   9.873   3.263 -0.4752 -0.9131  0.3482
  496MOL0     C68373   5.772   9.859   3.171  0.2350 -0.4270 -0.4428
  496MOL0     C68374   5.791   9.715   3.145  0.6307  0.4964 -0.0626
  496MOL0     C68375   5.824   9.595   3.134 -0.1061  0.5119  0.2938
  496MOL0     C68376   5.469  10.167   3.748  0.2426 -0.4139  0.2962
  496MOL0     C68377   5.361  10.230   3.804  0.4130 -0.0760  0.0701
  496MOL0     C68378   5.321  10.183   3.943  0.7836  0.2708 -0.1696
  496MOL0     H68379   5.117  10.741   3.662  1.5246 -2.3695  1.6321
  496MOL0     H68380   4.910  10.885   3.696  2.7717  0.1417 -2.5185
  496MOL0     H68381   4.636  10.855   3.600  3.1929 -2.1309  0.6741
  496MOL0     H68382   4.704  10.977   3.714  0.7244  0.2886 -1.1808
  496MOL0     H68383   4.469  10.996   3.810 -0.7340  1.4370 -0.5551
  496MOL0     H68384   4.441  10.978   3.639 -4.7034 -3.0654 -0.1430
  496MOL0     H68385   4.415  10.756   3.852  1.7421 -3.5496 -1.9623
  496MOL0     H68386   4.289  10.810   3.753  0.1040 -0.0098  2.7747
  496MOL0     H68387   4.425  10.723   3.554 -3.1386  1.6756  0.6670
  496MOL0     H68388   4.537  10.657   3.668  1.5839  1.0798 -1.4952
  496MOL0     H68389   4.395  10.505   3.769 -0.7127  0.5542  0.4526
  496MOL0     H68390   4.394  10.487   3.585  2.7657  2.5381 -1.1320
  496MOL0     H68391   4.194  10.601   3.781  0.8855  0.4471 -0.1767
  496MOL0     H68392   4.161  10.606   3.600 -0.3798  2.4775  0.6933
  496MOL0     H68393   4.051  10.406   3.766  0.5079  1.5705 -0.2263
  496MOL0     H68394   4.202  10.327   3.741  1.2267  0.6869 -2.4098
  496MOL0     H68395   4.041  10.434   3.500 -3.9401 -1.7488  0.4541
  496MOL0     H68396   4.165  10.315   3.497  0.5018 -0.5984 -0.5198
  496MOL0     H68397   4.141  10.087   3.636 -0.0508  0.1318  1.0105
  496MOL0     H68398   3.973   9.848   3.659  1.1468  1.7295  1.0831
  496MOL0     H68399   3.803   9.869   3.611 -1.9109 -2.2090  2.2802
  496MOL0     H68400   3.827  10.003   3.854  0.9526  0.9693 -1.5359
  496MOL0     H68401   3.715   9.887   3.793 -0.3945  1.0234 -0.1340
  496MOL0     H68402   3.982   9.800   3.928  0.4859 -0.3110 -1.9321
  496MOL0     H68403   3.830   9.805   4.017  1.5240  0.3755  0.9311
  496MOL0     H68404   3.907   9.627   3.771  1.6695  2.3590  0.7135
  496MOL0     H68405   3.854   9.575   3.942  2.6258  0.7169 -0.2632
  496MOL0     H68406   3.544   9.757   3.659  2.0356  3.5041 -1.9286
  496MOL0     H68407   3.541   9.762   3.321  1.1201 -1.0277  0.9179
  496MOL0     H68408   3.457   9.818   3.469  2.0677 -0.5014  0.7703
  496MOL0     H68409   3.386   9.692   3.360 -1.3379  1.8650 -0.3835
  496MOL0     H68410   3.298   9.518   3.063 -1.1433  0.6047 -1.1667
  496MOL0     H68411   3.290   9.592   2.832  0.8045  1.0556 -0.4750
  496MOL0     H68412   3.465   9.476   2.521  1.5351  0.4016 -0.1994
  496MOL0     H68413   3.352   9.482   2.652 -0.7175 -0.7229 -1.7784
  496MOL0     H68414   3.273   9.708   2.592 -0.1530  2.2222 -1.1109
  496MOL0     H68415   3.403   9.730   2.485  2.9006 -3.7639 -1.5949
  496MOL0     H68416   3.259   9.499   2.389  1.8479  0.2408  1.4611
  496MOL0     H68417   3.254   9.667   2.334 -0.1647 -1.2614 -0.9045
  496MOL0     H68418   3.067   9.718   2.482  3.0270  1.6804 -1.0749
  496MOL0     H68419   3.052   9.549   2.542 -0.3148  1.1631  0.2641
  496MOL0     H68420   3.034   9.623   2.252 -0.8002  1.7083  0.5847
  496MOL0     H68421   3.007   9.457   2.329 -1.0008 -0.1153  4.8430
  496MOL0     H68422   2.801   9.547   2.276 -0.0142 -0.4671 -0.7813
  496MOL0     H68423   2.830   9.713   2.322  1.5999  0.5153  2.2620
  496MOL0     H68424   2.687   9.634   2.473  0.5616  0.2555  0.6163
  496MOL0     H68425   2.839   9.650   2.558 -0.7622  1.2823 -1.9125
  496MOL0     H68426   2.726   9.453   2.631  0.7084  2.0215  0.9353
  496MOL0     H68427   2.859   9.395   2.542  0.5749  0.0414 -0.5250
  496MOL0     H68428   3.718   9.623   2.845 -0.1638 -2.3655 -1.3993
  496MOL0     H68429   3.711   9.565   3.088 -0.7567  0.0702  0.8818
  496MOL0     H68430   3.727   9.339   3.481 -0.9027  0.7177 -1.2854
  496MOL0     H68431   3.789   9.409   3.707 -0.5128  0.6528  0.4757
  496MOL0     H68432   4.693  10.534   3.823  1.7795 -0.7431  2.9234
  496MOL0     H68433   4.891  10.402   3.804  0.0993 -0.4213  0.6490
  496MOL0     H68434   5.241  10.375   3.523 -0.6113  0.8347  2.2393
  496MOL0     H68435   5.428  10.250   3.422 -0.5419 -1.4808  0.4322
  496MOL0     H68436   5.532   9.914   3.490 -4.3169  0.6577 -0.1646
  496MOL0     H68437   5.468  10.052   3.401 -0.5189 -0.7790  3.0374
  496MOL0     H68438   5.761  10.018   3.374  0.4222  0.8996 -1.8475
  496MOL0     H68439   5.646  10.085   3.263 -0.7922  0.7897 -0.1890
  496MOL0     H68440   5.635   9.785   3.328 -2.7503 -2.2323 -1.7221
  496MOL0     H68441   5.556   9.888   3.206  0.1628  0.3517 -0.3939
  496MOL0     H68442   5.861   9.883   3.229 -2.0533  2.3296  2.2688
  496MOL0     H68443   5.768   9.925   3.084  1.6867  0.0265 -0.1940
  496MOL0     H68444   5.841   9.489   3.125  3.1123  1.0803 -2.0714
  496MOL0     H68445   5.518  10.090   3.807 -1.1136 -1.1110  0.5482
  496MOL0     H68446   5.370  10.093   3.982 -2.0945 -0.1635  2.9469
  496MOL0     H68447   5.351  10.267   4.006  1.1520 -1.5318  2.2199
  496MOL0     H68448   5.215  10.159   3.954  0.3805  2.5635  1.5783
  497MOL0     O68449   0.683   0.340   6.789 -0.5697  0.6228  0.3883
  497MOL0     C68450   0.624   0.327   6.895  0.1696  0.5207  0.0322
  497MOL0     O68451   0.554   0.217   6.938  0.6142 -0.8388  0.1337
  497MOL0     C68452   0.497   0.146   6.834 -0.7068  0.8184  0.7232
  497MOL0     C68453   0.570   0.038   6.767  0.0794  0.6785  0.0806
  497MOL0     C68454   0.514  -0.024   6.659  0.1158 -0.3656  0.3246
  497MOL0     C68455   0.386   0.017   6.608 -0.2727  0.6700  0.7535
  497MOL0     O68456   0.326  -0.041   6.503  0.0575  0.3222 -0.9457
  497MOL0     C68457   0.379  -0.164   6.456  0.3254  0.4392  0.7987
  497MOL0     C68458   0.496  -0.163   6.353  0.5801 -0.0782  0.2798
  497MOL0     C68459   0.464  -0.085   6.224  0.2033  0.9260  0.9556
  497MOL0     C68460   0.349  -0.159   6.146  0.7351  0.5143 -0.6602
  497MOL0     C68461   0.333  -0.092   6.013 -0.5095 -0.0119  0.0651
  497MOL0     C68462   0.224  -0.159   5.925 -0.2760  0.0261  0.5975
  497MOL0     C68463   0.149  -0.068   5.839  0.4987  0.0198 -0.2874
  497MOL0     C68464   0.056   0.027   5.911  0.0953 -0.3753  0.1664
  497MOL0     N68465  -0.051   0.051   5.809  1.1970 -0.6362 -1.6951
  497MOL0     C68466  -0.034   0.134   5.698 -0.6922  0.8023 -0.7545
  497MOL0     C68467  -0.141   0.101   5.618 -0.4567 -0.4001 -0.7176
  497MOL0     C68468  -0.179   0.142   5.478  0.4015  1.5107 -0.3818
  497MOL0     C68469  -0.065   0.122   5.370 -0.2054 -0.4216  0.0137
  497MOL0     C68470   0.015   0.249   5.330  0.0949  0.3072  0.7318
  497MOL0     C68471  -0.055   0.369   5.284 -0.2964 -0.1243 -0.3063
  497MOL0     O68472  -0.146   0.330   5.181 -0.9513 -0.0187  0.0480
  497MOL0     C68473  -0.130   0.393   5.061  0.4467  0.0001  0.2697
  497MOL0     C68474  -0.167   0.325   4.946  0.7753 -0.1993 -0.3943
  497MOL0     C68475  -0.174   0.374   4.819 -0.2229 -0.7284 -0.4947
  497MOL0     C68476  -0.244   0.317   4.698 -0.1579 -0.3391  0.6146
  497MOL0     C68477  -0.122   0.508   4.804  0.0001  0.1064  1.1764
  497MOL0     C68478  -0.104   0.566   4.665  0.4526  0.7625 -0.1713
  497MOL0     O68479  -0.032   0.498   4.573  0.2479 -0.0942 -0.2257
  497MOL0     C68480  -0.031   0.535   4.446  0.1855 -0.0902 -0.2292
  497MOL0     C68481  -0.053   0.435   4.353 -0.5448 -0.6112 -0.7165
  497MOL0     C68482  -0.048   0.465   4.215  0.5074  0.2244 -0.5110
  497MOL0     C68483  -0.031   0.599   4.170  0.1656  0.4475 -0.0089
  497MOL0     O68484  -0.033   0.634   4.037 -0.4781  0.6952 -0.0502
  497MOL0     C68485   0.089   0.673   3.981 -0.7089  0.0902  0.5554
  497MOL0     C68486   0.103   0.600   3.845 -0.1404 -0.3113 -0.4837
  497MOL0     C68487   0.148   0.455   3.871  0.2926 -0.4674 -0.6809
  497MOL0     C68488   0.180   0.373   3.743 -0.0346 -0.2229 -0.1213
  497MOL0     C68489   0.193   0.222   3.781 -0.4526  0.2605 -0.7580
  497MOL0     C68490   0.221   0.143   3.649  0.8601  0.0548 -0.4184
  497MOL0     C68491   0.186  -0.007   3.681 -0.6306 -0.4601  0.1294
  497MOL0     C68492   0.297  -0.091   3.623  0.8503 -0.2252  0.2964
  497MOL0    Cl68493   0.263  -0.262   3.674 -0.1805 -0.0639 -0.1429
  497MOL0     C68494   0.002   0.697   4.265  0.2459  0.6228 -0.0557
  497MOL0     C68495   0.017   0.662   4.407  1.0999 -0.1240 -0.3734
  497MOL0     O68496  -0.153   0.677   4.640 -0.7656 -0.1473  0.5976
  497MOL0     C68497  -0.074   0.575   4.909 -0.7543  0.0417  0.9640
  497MOL0     C68498  -0.083   0.523   5.038 -0.8884  0.1088  0.3722
  497MOL0     N68499  -0.221   0.013   5.689  0.2761  0.2914  0.2556
  497MOL0     N68500  -0.166  -0.019   5.803 -0.1526 -1.4085 -0.5992
  497MOL0     C68501   0.316   0.110   6.682  0.8094  0.8071  0.5101
  497MOL0     C68502   0.369   0.175   6.796 -0.1898  0.2089 -0.2592
  497MOL0     C68503   0.655   0.431   6.996 -0.2119  0.2584 -0.0504
  497MOL0     C68504   0.678   0.384   7.122 -0.0395 -0.5462 -0.1623
  497MOL0     C68505   0.722   0.481   7.213  0.4446  0.7721  0.1777
  497MOL0     C68506   0.755   0.619   7.187  0.2613  0.8911  0.4846
  497MOL0     O68507   0.802   0.698   7.284  0.3692 -0.0316 -0.5129
  497MOL0     C68508   0.798   0.673   7.427  0.0063 -0.2897  0.9300
  497MOL0     C68509   0.840   0.796   7.519  0.2595  0.0944 -0.0916
  497MOL0     C68510   0.986   0.837   7.525  0.0335  0.5678  0.6757
  497MOL0     C68511   1.060   0.891   7.397  0.2971  0.5766 -0.2154
  497MOL0     C68512   1.064   1.034   7.395  0.1787  0.2795 -0.7899
  497MOL0     C68513   1.063   1.152   7.413 -0.0255 -0.6589 -0.7769
  497MOL0     C68514   0.729   0.666   7.056 -0.5069  0.2622 -0.4867
  497MOL0     C68515   0.673   0.569   6.964  0.2133  0.0668  1.6871
  497MOL0     C68516   0.650   0.622   6.822  0.3453  0.4030 -1.0675
  497MOL0     H68517   0.666   0.005   6.803 -0.3727  0.6393  1.2952
  497MOL0     H68518   0.574  -0.108   6.626  0.2196 -0.7646  1.4841
  497MOL0     H68519   0.298  -0.225   6.415  0.9669 -0.2103  0.4751
  497MOL0     H68520   0.405  -0.237   6.533 -2.0679 -2.0065 -0.5318
  497MOL0     H68521   0.576  -0.109   6.404 -1.1217 -0.9415  4.2053
  497MOL0     H68522   0.534  -0.265   6.338  2.5519  0.2460  2.5288
  497MOL0     H68523   0.439   0.018   6.251 -0.1905  0.9582  0.4754
  497MOL0     H68524   0.551  -0.088   6.157 -1.1490 -0.9824 -0.8573
  497MOL0     H68525   0.367  -0.266   6.131  0.5395  0.2511  0.8355
  497MOL0     H68526   0.250  -0.166   6.193 -0.5314  0.4838 -3.1116
  497MOL0     H68527   0.430  -0.086   5.964 -1.2661  2.6005 -1.2777
  497MOL0     H68528   0.313   0.015   6.013 -0.7656 -0.0545 -0.5998
  497MOL0     H68529   0.268  -0.229   5.854  0.1840  1.2328 -0.3481
  497MOL0     H68530   0.165  -0.226   5.988  0.4630 -0.1396  1.1166
  497MOL0     H68531   0.088  -0.135   5.777 -2.3752  1.3634  0.9167
  497MOL0     H68532   0.196  -0.009   5.760  1.3850  0.2271  0.3839
  497MOL0     H68533   0.017  -0.018   6.002  1.5664  0.7187  1.3957
  497MOL0     H68534   0.118   0.113   5.941  1.1483 -0.7721 -0.7976
  497MOL0     H68535   0.052   0.195   5.672  0.0621 -0.6314 -1.8006
  497MOL0     H68536  -0.209   0.247   5.472 -0.9455  1.2235  0.8452
  497MOL0     H68537  -0.272   0.092   5.450  1.3260  0.1464 -1.1349
  497MOL0     H68538   0.005   0.049   5.412 -0.8396 -0.9578  0.1708
  497MOL0     H68539  -0.113   0.073   5.284  2.8874 -0.0053 -2.0914
  497MOL0     H68540   0.083   0.284   5.408  0.4183  1.2010  0.0636
  497MOL0     H68541   0.079   0.225   5.244  1.7061  0.3650  1.8644
  497MOL0     H68542  -0.121   0.410   5.360 -1.1914 -0.6792 -0.7639
  497MOL0     H68543   0.021   0.442   5.254  0.0273  0.1687  1.1697
  497MOL0     H68544  -0.215   0.230   4.967 -0.0709  0.9597  3.8064
  497MOL0     H68545  -0.280   0.395   4.630  0.8478  0.7635  1.3130
  497MOL0     H68546  -0.338   0.271   4.730 -1.6817  2.8756  1.1692
  497MOL0     H68547  -0.180   0.250   4.640 -0.2114 -1.6641  2.0323
  497MOL0     H68548  -0.068   0.334   4.389  0.6106 -0.0104  1.7027
  497MOL0     H68549  -0.065   0.376   4.156  0.3791 -0.6401  0.7810
  497MOL0     H68550   0.085   0.782   3.966 -1.0920 -0.1032 -0.9209
  497MOL0     H68551   0.173   0.649   4.047  0.8579  0.3439 -1.2561
  497MOL0     H68552   0.008   0.596   3.791 -0.7751 -0.2725  0.5864
  497MOL0     H68553   0.182   0.654   3.793 -0.2286 -0.4649 -0.7768
  497MOL0     H68554   0.066   0.416   3.932 -2.0034  1.6039 -2.2821
  497MOL0     H68555   0.235   0.467   3.937 -0.1842  2.0964 -0.4002
  497MOL0     H68556   0.273   0.406   3.697 -0.7577 -0.5521 -1.8747
  497MOL0     H68557   0.106   0.383   3.664  1.4492 -1.3959 -1.7424
  497MOL0     H68558   0.272   0.212   3.856 -0.9263 -0.2186 -0.3122
  497MOL0     H68559   0.099   0.183   3.820 -1.5746  0.2251 -3.3242
  497MOL0     H68560   0.323   0.167   3.617  0.3055 -1.0810 -3.4279
  497MOL0     H68561   0.147   0.183   3.578  0.0229  2.7125  1.7780
  497MOL0     H68562   0.089  -0.041   3.644 -0.6037 -1.2202  0.7536
  497MOL0     H68563   0.180  -0.027   3.788  1.8423  0.0678  0.4346
  497MOL0     H68564   0.400  -0.080   3.659  1.1934 -2.1161 -0.0200
  497MOL0     H68565   0.305  -0.078   3.515 -1.7673 -0.2745  0.0245
  497MOL0     H68566   0.028   0.800   4.241  1.7841  0.7882  2.0381
  497MOL0     H68567   0.047   0.734   4.483  0.0821 -0.1703  0.0919
  497MOL0     H68568  -0.032   0.674   4.897 -0.3857  0.3968  4.1748
  497MOL0     H68569  -0.057   0.585   5.123  0.0668  1.7038 -1.0164
  497MOL0     H68570   0.216   0.129   6.647  0.3783  2.4628  2.4210
  497MOL0     H68571   0.311   0.256   6.839  1.1676  1.8548 -1.3863
  497MOL0     H68572   0.652   0.282   7.148 -0.6485 -0.1838  0.6742
  497MOL0     H68573   0.750   0.453   7.314  0.7530  2.1124  0.4867
  497MOL0     H68574   0.696   0.649   7.459 -1.2013  2.9221 -0.1058
  497MOL0     H68575   0.856   0.581   7.442 -0.1607 -0.7387 -0.9061
  497MOL0     H68576   0.820   0.766   7.623  2.6646  1.7193  0.9373
  497MOL0     H68577   0.776   0.873   7.477 -2.0209 -1.4073  0.4388
  497MOL0     H68578   0.991   0.916   7.601 -0.2154  3.1511 -1.8051
  497MOL0     H68579   1.039   0.753   7.570 -0.5667 -0.4044 -0.3761
  497MOL0     H68580   1.010   0.855   7.307 -5.3467  1.3000  2.2133
  497MOL0     H68581   1.162   0.853   7.399 -0.2366 -0.9212  0.8764
  497MOL0     H68582   1.033   1.255   7.408 -0.8146 -0.8701 -0.5484
  497MOL0     H68583   0.740   0.770   7.027  3.2724 -0.1734 -1.1761
  497MOL0     H68584   0.744   0.625   6.766 -0.2991  0.1760 -2.1854
  497MOL0     H68585   0.583   0.560   6.761  0.4652 -2.4477  1.4453
  497MOL0     H68586   0.613   0.724   6.833  0.7517  0.4105  0.5598
  498MOL0     O68587   1.144   6.728   5.015 -0.0234  0.2590 -1.0413
  498MOL0     C68588   1.194   6.633   5.070  0.0085  0.2726  0.2456
  498MOL0     O68589   1.189   6.505   5.016  0.3722 -0.4282 -0.0343
  498MOL0     C68590   1.207   6.482   4.886 -0.6700 -0.3143 -0.0181
  498MOL0     C68591   1.305   6.556   4.806 -0.1375  0.8113 -1.5918
  498MOL0     C68592   1.340   6.525   4.675  0.5712 -0.8588 -0.4193
  498MOL0     C68593   1.272   6.419   4.614  0.7165  0.3941  0.9944
  498MOL0     O68594   1.303   6.377   4.485  0.2169  0.0740  0.2954
  498MOL0     C68595   1.334   6.468   4.381  0.4930 -0.3307 -0.4036
  498MOL0     C68596   1.338   6.390   4.253  0.0536  0.0943  0.2744
  498MOL0     C68597   1.453   6.288   4.249 -0.8439  0.6629  0.1213
  498MOL0     C68598   1.425   6.194   4.131 -0.1960  0.4447 -0.2644
  498MOL0     C68599   1.420   6.258   3.992  0.7259  0.6391 -0.6868
  498MOL0     C68600   1.561   6.300   3.933 -0.3730 -0.0576  0.1677
  498MOL0     C68601   1.551   6.355   3.796 -0.3438 -0.1257 -0.4345
  498MOL0     C68602   1.556   6.242   3.690  1.1426 -0.2954 -0.3711
  498MOL0     N68603   1.508   6.293   3.560  0.2060 -0.5292 -0.4176
  498MOL0     C68604   1.508   6.208   3.453 -0.1086 -0.3394 -0.9988
  498MOL0     C68605   1.444   6.285   3.356 -0.3945 -0.2877 -0.1243
  498MOL0     C68606   1.416   6.229   3.215 -0.4194  0.2109 -0.2234
  498MOL0     C68607   1.514   6.295   3.110  0.1886  0.4740  0.9201
  498MOL0     C68608   1.500   6.236   2.964 -0.2111  0.0239  0.9549
  498MOL0     C68609   1.612   6.287   2.874  0.0775  0.3575  0.4593
  498MOL0     O68610   1.604   6.215   2.748 -0.3127 -0.6427 -0.2038
  498MOL0     C68611   1.720   6.186   2.686 -0.7395  0.5152 -0.7117
  498MOL0     C68612   1.824   6.280   2.689  0.3023  0.8652  0.1920
  498MOL0     C68613   1.953   6.256   2.629 -0.7889  0.2456 -0.4077
  498MOL0     C68614   2.051   6.371   2.617  0.4901  0.9565  0.0964
  498MOL0     C68615   1.988   6.123   2.577  0.9848  0.4768 -0.1946
  498MOL0     C68616   2.113   6.073   2.510 -0.4536 -0.3853  0.9587
  498MOL0     O68617   2.130   5.941   2.487 -0.2785 -0.2283 -0.0521
  498MOL0     C68618   2.238   5.885   2.410  0.4353 -0.0509  0.0632
  498MOL0     C68619   2.357   5.944   2.368 -1.0649 -0.9093  0.7665
  498MOL0     C68620   2.457   5.870   2.308  0.3020 -1.1624  0.4791
  498MOL0     C68621   2.434   5.732   2.276 -0.4020  0.7252  0.5610
  498MOL0     O68622   2.539   5.665   2.215 -0.4501  0.6485  0.1293
  498MOL0     C68623   2.558   5.523   2.233  0.2257  0.2608 -0.6018
  498MOL0     C68624   2.579   5.469   2.097  0.3052 -0.1746 -0.5396
  498MOL0     C68625   2.651   5.330   2.098 -0.1235 -0.0160 -0.0595
  498MOL0     C68626   2.606   5.243   1.981 -0.3347  0.7351 -0.6872
  498MOL0     C68627   2.711   5.122   1.972 -0.1527  0.2840 -0.0150
  498MOL0     C68628   2.660   5.019   1.872 -0.4739  0.0969 -0.3324
  498MOL0     C68629   2.768   4.925   1.820 -1.3782  1.0999 -0.5550
  498MOL0     C68630   2.723   4.861   1.691 -0.0695 -0.0987 -0.4023
  498MOL0    Cl68631   2.595   4.741   1.697  0.7307 -0.2085 -0.2802
  498MOL0     C68632   2.306   5.677   2.298 -0.1003 -0.4359  0.0646
  498MOL0     C68633   2.218   5.756   2.364  0.2908  0.2444 -0.8172
  498MOL0     O68634   2.182   6.159   2.457 -0.1558 -0.6182 -0.0964
  498MOL0     C68635   1.877   6.029   2.585 -1.0144 -0.6634 -0.6759
  498MOL0     C68636   1.757   6.060   2.632 -0.5142  0.3778 -0.9282
  498MOL0     N68637   1.406   6.409   3.401 -1.2053 -0.2679  0.7276
  498MOL0     N68638   1.464   6.416   3.518 -0.3891  0.0669 -0.2327
  498MOL0     C68639   1.165   6.351   4.681 -0.2407 -0.8781 -0.2144
  498MOL0     C68640   1.147   6.381   4.821  0.5521  0.6090 -0.0154
  498MOL0     C68641   1.265   6.647   5.197 -0.4310 -1.1629 -0.9756
  498MOL0     C68642   1.237   6.765   5.270 -0.9200 -0.1562 -0.7897
  498MOL0     C68643   1.314   6.795   5.381  0.5406  0.6034 -0.1933
  498MOL0     C68644   1.417   6.721   5.424  0.7055  0.0231 -0.9077
  498MOL0     O68645   1.492   6.773   5.529  0.9864 -0.2066 -0.0692
  498MOL0     C68646   1.612   6.708   5.574  0.2491  0.2164  0.3226
  498MOL0     C68647   1.633   6.762   5.715 -0.2229 -0.0138  0.2956
  498MOL0     C68648   1.754   6.694   5.793 -0.3219  0.3730 -0.2462
  498MOL0     C68649   1.884   6.770   5.764 -0.3870  0.2647  0.5063
  498MOL0     C68650   1.954   6.728   5.639 -0.1045 -0.2866  0.2414
  498MOL0     C68651   2.015   6.710   5.537 -0.3875  0.4062 -0.1064
  498MOL0     C68652   1.446   6.607   5.358 -0.2646 -0.3448 -0.4330
  498MOL0     C68653   1.368   6.560   5.247  0.7134 -0.5296 -0.9731
  498MOL0     C68654   1.390   6.419   5.197 -0.5127 -0.1764 -0.1052
  498MOL0     H68655   1.357   6.638   4.856 -1.3151  0.5647  0.1517
  498MOL0     H68656   1.417   6.584   4.627  1.1060  0.7637  2.2234
  498MOL0     H68657   1.426   6.525   4.396  0.1894  0.0295  0.1183
  498MOL0     H68658   1.250   6.536   4.365 -1.2985 -1.7204  2.3932
  498MOL0     H68659   1.238   6.358   4.221  0.4145  2.4621 -4.0055
  498MOL0     H68660   1.368   6.460   4.174  5.4567 -0.0993  1.7786
  498MOL0     H68661   1.543   6.350   4.252 -0.3128  0.3912 -4.1449
  498MOL0     H68662   1.446   6.215   4.330  1.9450  0.6515  0.4443
  498MOL0     H68663   1.486   6.105   4.149 -2.0166 -0.7379  0.2699
  498MOL0     H68664   1.324   6.165   4.161 -0.6430  2.4456  0.2726
  498MOL0     H68665   1.347   6.339   3.985 -1.8284 -1.1905  2.0577
  498MOL0     H68666   1.371   6.178   3.935  0.1484  0.5530 -0.0890
  498MOL0     H68667   1.583   6.386   3.996  1.5044 -0.3441 -0.0367
  498MOL0     H68668   1.633   6.217   3.940  0.0644  0.3047 -0.0336
  498MOL0     H68669   1.629   6.431   3.786 -2.7415  3.4645  4.3022
  498MOL0     H68670   1.461   6.416   3.787 -2.2329 -2.7304 -0.3321
  498MOL0     H68671   1.655   6.198   3.677  0.0049 -3.2005 -0.0824
  498MOL0     H68672   1.488   6.162   3.723 -1.1615  1.8725  0.5081
  498MOL0     H68673   1.544   6.105   3.456  1.1747  0.1018 -0.8057
  498MOL0     H68674   1.312   6.252   3.187 -0.3424 -0.6960 -1.3244
  498MOL0     H68675   1.429   6.121   3.211  2.6449  0.4178  1.5426
  498MOL0     H68676   1.499   6.403   3.102 -0.2214  0.2731 -3.1615
  498MOL0     H68677   1.612   6.285   3.157  1.3941 -2.5979 -1.8321
  498MOL0     H68678   1.521   6.128   2.965 -2.3166 -0.4235  1.3026
  498MOL0     H68679   1.398   6.254   2.930  0.2117 -0.4271 -0.6156
  498MOL0     H68680   1.600   6.393   2.848 -0.6654 -0.3232 -2.3180
  498MOL0     H68681   1.710   6.269   2.918  1.2122  1.0215 -1.7024
  498MOL0     H68682   1.803   6.374   2.741 -0.8193 -0.1748  1.7256
  498MOL0     H68683   2.152   6.337   2.641  0.2218  1.0706  1.5377
  498MOL0     H68684   2.027   6.451   2.688 -1.7030  1.0352 -0.6534
  498MOL0     H68685   2.042   6.402   2.513 -0.9618 -1.2183 -0.5016
  498MOL0     H68686   2.382   6.047   2.391  3.4560 -2.0024  1.5872
  498MOL0     H68687   2.547   5.920   2.274 -0.5092 -1.1793 -1.9089
  498MOL0     H68688   2.649   5.505   2.291  0.3202  0.9416 -0.5345
  498MOL0     H68689   2.481   5.476   2.294  2.9600 -4.0313  0.0109
  498MOL0     H68690   2.489   5.467   2.035  2.9327  2.5187 -4.9296
  498MOL0     H68691   2.647   5.528   2.035  0.1055 -2.8853 -3.5987
  498MOL0     H68692   2.636   5.278   2.193  1.1550 -1.2566 -0.5075
  498MOL0     H68693   2.758   5.349   2.087  0.1200 -1.5500 -0.4701
  498MOL0     H68694   2.593   5.291   1.884 -1.7823 -1.9457 -1.9451
  498MOL0     H68695   2.511   5.193   2.000  1.1486 -1.6570  1.1241
  498MOL0     H68696   2.803   5.159   1.926 -1.8943  2.0890 -2.2598
  498MOL0     H68697   2.726   5.079   2.072  0.4939  0.4492 -0.0380
  498MOL0     H68698   2.607   5.081   1.799 -1.5080  1.3517  1.4121
  498MOL0     H68699   2.588   4.959   1.927 -1.6395  0.1048 -1.7774
  498MOL0     H68700   2.802   4.858   1.900 -1.2690  1.8365  0.0241
  498MOL0     H68701   2.859   4.982   1.797  1.0112 -0.8781  3.0042
  498MOL0     H68702   2.809   4.824   1.634 -0.6001  1.9156 -2.6892
  498MOL0     H68703   2.691   4.943   1.626 -0.6677  0.0919  0.1278
  498MOL0     H68704   2.273   5.575   2.280 -3.0857  0.5203 -0.3304
  498MOL0     H68705   2.120   5.715   2.386  0.6437  0.3212  1.1287
  498MOL0     H68706   1.893   5.925   2.557 -0.8723 -1.6082  2.5163
  498MOL0     H68707   1.681   5.987   2.658  1.2027 -1.2516 -0.1478
  498MOL0     H68708   1.124   6.273   4.618 -1.4732 -0.5884  0.1884
  498MOL0     H68709   1.080   6.322   4.883  3.4579 -1.8777  1.0161
  498MOL0     H68710   1.157   6.835   5.247  0.6236  2.0273  0.2057
  498MOL0     H68711   1.296   6.894   5.423  0.8331  0.3925  0.4435
  498MOL0     H68712   1.611   6.600   5.592 -1.0612 -0.1074 -1.4328
  498MOL0     H68713   1.702   6.724   5.514  0.7894 -0.5121  0.9132
  498MOL0     H68714   1.543   6.742   5.775  0.4258  4.9467  3.5271
  498MOL0     H68715   1.642   6.871   5.705  0.6156 -0.1683 -0.7099
  498MOL0     H68716   1.726   6.713   5.897 -1.9475  1.9308 -0.9055
  498MOL0     H68717   1.770   6.590   5.763  0.6392  1.0838 -2.4790
  498MOL0     H68718   1.952   6.750   5.847  0.0756 -3.2066 -0.5087
  498MOL0     H68719   1.866   6.876   5.747  1.0279 -0.0547 -4.7723
  498MOL0     H68720   2.073   6.689   5.449 -0.8320  1.0689 -0.5686
  498MOL0     H68721   1.544   6.563   5.377  0.3403  1.2439  0.3613
  498MOL0     H68722   1.488   6.387   5.234 -0.2408 -0.0761 -0.7323
  498MOL0     H68723   1.306   6.357   5.230 -0.6950 -0.5392 -1.2145
  498MOL0     H68724   1.397   6.417   5.088  0.4502 -0.7727 -0.0475
  499MOL0     O68725   1.122   5.490   8.770 -0.6052 -0.0508  0.2330
  499MOL0     C68726   1.107   5.523   8.887  0.4108  1.2477 -1.1148
  499MOL0     O68727   1.071   5.430   8.988  0.0534 -0.8980 -0.0630
  499MOL0     C68728   1.080   5.299   8.959 -0.2906  0.2965  0.2247
  499MOL0     C68729   0.974   5.233   8.894  0.0500 -0.0565  1.0048
  499MOL0     C68730   1.003   5.102   8.853 -0.4796  0.2386  0.7317
  499MOL0     C68731   1.126   5.039   8.871 -0.8741  0.1548  0.3187
  499MOL0     O68732   1.146   4.906   8.830  0.3757  0.5118  0.9806
  499MOL0     C68733   1.257   4.881   8.757 -0.0577 -0.0226 -0.0830
  499MOL0     C68734   1.260   4.742   8.695 -0.0866  0.1234  0.0295
  499MOL0     C68735   1.363   4.730   8.577  0.3997  0.6879  0.5283
  499MOL0     C68736   1.343   4.596   8.512 -0.9434 -0.1997  0.9510
  499MOL0     C68737   1.417   4.580   8.379  0.4171  0.3299 -0.1371
  499MOL0     C68738   1.425   4.435   8.321 -0.4443  0.2253 -0.5760
  499MOL0     C68739   1.460   4.440   8.170 -0.4048  0.0425 -0.3912
  499MOL0     C68740   1.608   4.478   8.161 -0.0750 -0.5219  0.8640
  499MOL0     N68741   1.656   4.503   8.024  0.3646 -0.1104  0.7363
  499MOL0     C68742   1.604   4.434   7.909  0.1463 -0.1868  0.1773
  499MOL0     C68743   1.704   4.432   7.817 -0.3747 -0.9131 -0.1598
  499MOL0     C68744   1.687   4.362   7.681 -0.6425  0.4282  0.5523
  499MOL0     C68745   1.634   4.456   7.576  0.3129 -0.6575  1.1157
  499MOL0     C68746   1.735   4.573   7.542 -0.0814 -0.3090 -0.2177
  499MOL0     C68747   1.697   4.661   7.425  0.1487 -0.1543 -0.1973
  499MOL0     O68748   1.711   4.574   7.310  0.5757 -0.2563 -0.5681
  499MOL0     C68749   1.635   4.600   7.203  0.9632 -0.7488  0.1246
  499MOL0     C68750   1.696   4.572   7.082 -0.3235 -0.0062  0.6896
  499MOL0     C68751   1.631   4.595   6.960  1.5362 -0.5739  0.2628
  499MOL0     C68752   1.707   4.559   6.834  0.6983 -0.1194  0.5148
  499MOL0     C68753   1.490   4.636   6.962  0.6841 -0.8163  0.8237
  499MOL0     C68754   1.402   4.663   6.842 -0.0460  0.4006 -0.4702
  499MOL0     O68755   1.276   4.679   6.847  0.3388 -0.1109 -0.0104
  499MOL0     C68756   1.220   4.746   6.741 -0.8003 -0.1033 -0.3942
  499MOL0     C68757   1.250   4.881   6.733 -0.0466 -0.1924  0.0236
  499MOL0     C68758   1.187   4.955   6.628 -0.4856  0.2956 -0.0214
  499MOL0     C68759   1.108   4.892   6.523  0.6198 -0.1218 -0.1863
  499MOL0     O68760   1.046   4.950   6.413 -0.3615 -0.3378  0.5260
  499MOL0     C68761   1.083   5.088   6.373  0.7020  0.2444 -0.1569
  499MOL0     C68762   1.007   5.112   6.243  0.6051  0.0248  0.7754
  499MOL0     C68763   1.011   5.269   6.197  0.1025 -0.1176 -0.1102
  499MOL0     C68764   0.943   5.310   6.069  0.2138  1.3737 -0.3323
  499MOL0     C68765   0.969   5.462   6.022 -0.1692  0.4821 -1.0031
  499MOL0     C68766   0.903   5.564   6.113  0.5810  0.1574 -0.2293
  499MOL0     C68767   0.937   5.711   6.079 -0.0405 -0.7730  0.1912
  499MOL0     C68768   0.915   5.806   6.203 -0.2677 -0.0197 -0.6763
  499MOL0    Cl68769   0.910   5.978   6.159 -0.4992  0.2427  0.2916
  499MOL0     C68770   1.082   4.756   6.532 -0.8305 -0.1075  0.4926
  499MOL0     C68771   1.139   4.685   6.644 -0.2242 -0.1013  1.0225
  499MOL0     O68772   1.473   4.698   6.741  0.5540  0.3296 -0.6245
  499MOL0     C68773   1.431   4.670   7.083  0.3173  0.0301  0.2858
  499MOL0     C68774   1.510   4.653   7.198 -0.0029  0.2512  0.4147
  499MOL0     N68775   1.804   4.517   7.870  0.6549  0.3805 -0.0286
  499MOL0     N68776   1.780   4.550   7.996 -0.4194  0.3982 -0.5158
  499MOL0     C68777   1.221   5.100   8.947 -0.2113 -0.7121 -0.0418
  499MOL0     C68778   1.200   5.234   8.986 -0.0484  0.3852 -0.4157
  499MOL0     C68779   1.103   5.669   8.922 -0.0996  0.0905  0.0303
  499MOL0     C68780   1.026   5.751   8.834 -0.5980  0.8609  1.1385
  499MOL0     C68781   1.002   5.892   8.861 -0.5946  0.3133  0.3743
  499MOL0     C68782   1.067   5.955   8.970  0.0082  0.0776  0.3556
  499MOL0     O68783   1.074   6.092   8.982  0.0335 -0.2952 -0.1087
  499MOL0     C68784   1.183   6.158   8.916 -0.0866 -1.1333 -0.4987
  499MOL0     C68785   1.263   6.225   9.025  0.2123 -0.0082 -0.3075
  499MOL0     C68786   1.380   6.297   8.968 -0.2140  0.9698  0.6701
  499MOL0     C68787   1.357   6.437   8.930 -0.5348 -0.3016  0.8409
  499MOL0     C68788   1.304   6.529   9.029  0.2826 -0.0430 -0.5351
  499MOL0     C68789   1.260   6.610   9.107  0.0895  0.2821 -0.2683
  499MOL0     C68790   1.140   5.872   9.052 -0.2739  0.1061  1.3701
  499MOL0     C68791   1.158   5.731   9.034  1.0011 -0.7555  0.0575
  499MOL0     C68792   1.224   5.647   9.140  0.2915  0.3431 -0.4895
  499MOL0     H68793   0.880   5.282   8.870  0.2893  0.7770  1.7163
  499MOL0     H68794   0.927   5.048   8.798  1.1736 -0.1399 -1.3189
  499MOL0     H68795   1.341   4.892   8.826 -1.1907  0.9346  1.1657
  499MOL0     H68796   1.257   4.943   8.667 -0.4002 -0.6045 -0.4942
  499MOL0     H68797   1.293   4.662   8.763  1.3229 -1.9259 -2.8823
  499MOL0     H68798   1.156   4.734   8.661 -0.1511  0.3609  0.1676
  499MOL0     H68799   1.341   4.823   8.524 -0.5534  0.3815  0.3751
  499MOL0     H68800   1.466   4.728   8.613  0.6902 -3.3810  0.0378
  499MOL0     H68801   1.365   4.530   8.597  1.4271  1.8382  2.0658
  499MOL0     H68802   1.237   4.583   8.492 -0.5334 -0.0239 -1.7611
  499MOL0     H68803   1.519   4.610   8.403  0.7045 -0.2770 -0.6118
  499MOL0     H68804   1.382   4.644   8.298  2.3332 -0.5056 -1.6896
  499MOL0     H68805   1.486   4.369   8.382 -0.7968 -1.1900 -1.7100
  499MOL0     H68806   1.326   4.390   8.333 -0.5722 -0.3576 -3.1924
  499MOL0     H68807   1.398   4.509   8.111 -1.8610 -1.2378 -0.4182
  499MOL0     H68808   1.435   4.340   8.132 -0.0849 -0.3680  0.4588
  499MOL0     H68809   1.637   4.565   8.219 -1.6610 -0.6581  1.9344
  499MOL0     H68810   1.668   4.393   8.197 -1.5215 -1.3393  1.4358
  499MOL0     H68811   1.508   4.383   7.909 -0.2588  0.3586  3.4123
  499MOL0     H68812   1.610   4.284   7.675  0.8129 -1.0484  0.3641
  499MOL0     H68813   1.781   4.313   7.654 -2.2110 -2.1953 -0.4971
  499MOL0     H68814   1.625   4.401   7.482 -0.1119  0.7929  0.2561
  499MOL0     H68815   1.536   4.495   7.606  0.7446  1.3358  0.1153
  499MOL0     H68816   1.738   4.639   7.630  1.0594 -0.1986 -0.3151
  499MOL0     H68817   1.835   4.531   7.527 -1.1626 -2.9486 -0.4643
  499MOL0     H68818   1.595   4.695   7.446  0.7145 -0.0029  2.7350
  499MOL0     H68819   1.759   4.750   7.415 -0.5985  0.1785 -2.3408
  499MOL0     H68820   1.804   4.559   7.077 -0.5807 -2.2482 -0.7507
  499MOL0     H68821   1.778   4.481   6.864 -0.2237 -1.0102  0.4147
  499MOL0     H68822   1.755   4.651   6.797  0.1350  0.2180  0.6194
  499MOL0     H68823   1.650   4.514   6.753  1.4669 -0.5572  0.2057
  499MOL0     H68824   1.314   4.922   6.810 -0.7639  0.5767  0.2199
  499MOL0     H68825   1.205   5.061   6.612  1.1649  0.0165 -0.2025
  499MOL0     H68826   1.050   5.156   6.452  1.3599  0.3644  0.0167
  499MOL0     H68827   1.189   5.094   6.347  0.6658  1.6129 -0.0286
  499MOL0     H68828   1.045   5.050   6.161 -1.2539  1.0094 -0.9422
  499MOL0     H68829   0.903   5.084   6.261  0.0506 -0.0244 -2.0441
  499MOL0     H68830   1.113   5.308   6.190  0.4723 -0.8059  1.1418
  499MOL0     H68831   0.962   5.321   6.279  0.4393 -0.4376  0.2973
  499MOL0     H68832   0.835   5.297   6.081  0.6666 -1.3909  2.0373
  499MOL0     H68833   0.984   5.250   5.987 -0.0129  1.1754 -0.3036
  499MOL0     H68834   1.076   5.483   6.017  0.4575 -1.9558  0.3752
  499MOL0     H68835   0.935   5.477   5.919 -0.3662  0.0086 -1.0127
  499MOL0     H68836   0.949   5.537   6.208 -1.1812  1.9673  1.2333
  499MOL0     H68837   0.795   5.552   6.119  0.6429  0.0355  0.8408
  499MOL0     H68838   0.864   5.742   6.003 -3.0372 -2.9425  1.9688
  499MOL0     H68839   1.042   5.721   6.051  0.1006 -2.6256 -0.0449
  499MOL0     H68840   1.001   5.803   6.271 -0.0481 -1.6556 -0.9806
  499MOL0     H68841   0.824   5.776   6.255 -1.2620 -0.6250 -2.6911
  499MOL0     H68842   0.998   4.712   6.478 -0.9270 -0.1628  0.6889
  499MOL0     H68843   1.120   4.578   6.657 -0.1351 -0.1546  0.7168
  499MOL0     H68844   1.333   4.715   7.097  1.3392  2.0929  1.1162
  499MOL0     H68845   1.456   4.686   7.286 -0.9979  2.5750 -0.9788
  499MOL0     H68846   1.318   5.055   8.968 -0.1864 -0.4025  0.5221
  499MOL0     H68847   1.278   5.290   9.036 -0.5923  0.6249  0.1745
  499MOL0     H68848   0.986   5.704   8.745  0.0341  0.7299  0.9225
  499MOL0     H68849   0.956   5.957   8.787  0.3062 -0.2942 -0.7550
  499MOL0     H68850   1.247   6.089   8.860 -0.7879 -0.0008 -2.8595
  499MOL0     H68851   1.144   6.238   8.852  1.3229  1.0865  1.2588
  499MOL0     H68852   1.298   6.143   9.087  0.7472 -3.3868 -4.5507
  499MOL0     H68853   1.202   6.295   9.083  0.0078  2.7830 -3.5329
  499MOL0     H68854   1.456   6.307   9.046 -2.8225  0.9153  3.4224
  499MOL0     H68855   1.424   6.248   8.881 -0.9515  1.4915 -0.0061
  499MOL0     H68856   1.290   6.437   8.844  0.0051  0.2476  0.4081
  499MOL0     H68857   1.445   6.480   8.881 -0.7193 -1.9137 -1.0167
  499MOL0     H68858   1.231   6.694   9.168  2.1406  1.9483 -1.4558
  499MOL0     H68859   1.193   5.910   9.139  3.1706  1.7370 -1.2020
  499MOL0     H68860   1.315   5.597   9.106  1.2015  1.9437 -0.4943
  499MOL0     H68861   1.247   5.707   9.228 -2.0039  0.2615  0.2373
  499MOL0     H68862   1.158   5.564   9.167 -1.8609  1.4198 -2.1503
  500MOL0     O68863   4.566   7.046   3.868 -0.0017  0.2550  0.2696
  500MOL0     C68864   4.593   7.142   3.945  0.1252 -0.3356  0.1923
  500MOL0     O68865   4.710   7.214   3.948  0.7798 -0.0883  0.8135
  500MOL0     C68866   4.791   7.178   3.848 -0.2148 -0.0446  0.8375
  500MOL0     C68867   4.847   7.047   3.838  0.4490  0.2019  0.2032
  500MOL0     C68868   4.946   7.019   3.742  0.3662 -0.3531  0.1128
  500MOL0     C68869   5.011   7.128   3.681 -0.3852 -0.5403 -0.4585
  500MOL0     O68870   5.122   7.100   3.604  0.0658 -0.2261  0.3630
  500MOL0     C68871   5.225   7.199   3.586  0.9099 -0.3730 -0.2951
  500MOL0     C68872   5.368   7.123   3.589  0.2518  0.5599 -0.3300
  500MOL0     C68873   5.488   7.210   3.553 -0.0570 -0.1678  0.3652
  500MOL0     C68874   5.609   7.120   3.562 -0.0982  0.4048 -0.2470
  500MOL0     C68875   5.734   7.192   3.581 -0.3493 -0.8391  0.4287
  500MOL0     C68876   5.758   7.270   3.453 -0.2659 -0.9314  1.0382
  500MOL0     C68877   5.912   7.316   3.429 -0.0672 -0.5965 -0.0684
  500MOL0     C68878   5.964   7.417   3.539 -0.6452  0.0713 -0.0724
  500MOL0     N68879   5.882   7.534   3.553 -0.0158  0.4878 -0.4894
  500MOL0     C68880   5.871   7.639   3.469 -0.3933 -0.3419 -0.0262
  500MOL0     C68881   5.782   7.717   3.534  0.7430  0.2838 -0.8033
  500MOL0     C68882   5.699   7.825   3.472 -0.3721 -0.0364  0.0798
  500MOL0     C68883   5.761   7.875   3.342  0.3674  0.2756 -0.4717
  500MOL0     C68884   5.728   7.788   3.216  0.0107  0.0521 -0.8419
  500MOL0     C68885   5.728   7.874   3.096 -0.1730  0.3129 -0.2124
  500MOL0     O68886   5.857   7.934   3.071 -0.1492  0.3933 -0.2445
  500MOL0     C68887   5.949   7.853   3.017  0.3844 -0.1667 -0.7134
  500MOL0     C68888   5.934   7.719   2.978  0.7274  0.2932  0.8556
  500MOL0     C68889   6.032   7.646   2.913 -1.0268 -0.0825  0.0559
  500MOL0     C68890   6.011   7.495   2.884 -0.0579 -0.3676 -0.8583
  500MOL0     C68891   6.154   7.710   2.874  0.1579 -0.5367 -0.4126
  500MOL0     C68892   6.262   7.648   2.791 -0.1671  0.1488 -0.8267
  500MOL0     O68893   6.377   7.728   2.774  0.9243 -0.2675 -0.0957
  500MOL0     C68894   6.487   7.689   2.716 -0.2424  0.0267  0.7916
  500MOL0     C68895   6.571   7.794   2.672  0.3116 -0.4496  0.3542
  500MOL0     C68896   6.690   7.758   2.611 -0.1612  0.2209  0.2669
  500MOL0     C68897   6.730   7.629   2.590 -1.3839  0.0616  0.4205
  500MOL0     O68898   6.852   7.612   2.535 -0.2163 -0.6592  0.7523
  500MOL0     C68899   6.914   7.498   2.551 -0.0409 -0.2295 -0.1746
  500MOL0     C68900   7.044   7.489   2.461  0.7247 -1.1142  0.1748
  500MOL0     C68901   7.168   7.592   2.467 -0.6297  1.0251  0.7726
  500MOL0     C68902   7.298   7.551   2.395 -0.0492 -0.6039  0.2900
  500MOL0     C68903   7.424   7.629   2.432  1.0842  0.4692  0.6252
  500MOL0     C68904   7.411   7.781   2.427 -0.0952  0.0629 -0.3376
  500MOL0     C68905   7.537   7.862   2.476  0.8028 -0.0821 -1.0077
  500MOL0     C68906   7.569   7.854   2.625  0.0678  0.1884 -0.5379
  500MOL0    Cl68907   7.714   7.962   2.633  0.1056  0.3144 -0.1458
  500MOL0     C68908   6.639   7.532   2.606  0.2450  0.4105 -0.5642
  500MOL0     C68909   6.529   7.556   2.690  0.5698 -0.3593  0.8404
  500MOL0     O68910   6.250   7.532   2.746  0.2052 -0.2052 -0.4227
  500MOL0     C68911   6.174   7.847   2.904  0.5209 -0.1362 -0.3207
  500MOL0     C68912   6.078   7.917   2.983  0.8266  1.0330 -0.9120
  500MOL0     N68913   5.734   7.655   3.652 -0.0484 -0.4758  0.2992
  500MOL0     N68914   5.799   7.544   3.651 -0.0504 -0.3465 -0.1616
  500MOL0     C68915   4.968   7.258   3.708  0.3241 -0.2516 -0.3491
  500MOL0     C68916   4.858   7.284   3.792 -0.9190 -0.3771  1.3774
  500MOL0     C68917   4.474   7.174   4.045 -0.1244  0.6276 -0.5515
  500MOL0     C68918   4.380   7.069   4.068 -0.3005 -0.1991  0.6947
  500MOL0     C68919   4.278   7.082   4.160  0.2601 -0.2830  0.3163
  500MOL0     C68920   4.263   7.201   4.232 -0.4030  1.0602 -0.3469
  500MOL0     O68921   4.164   7.222   4.329 -0.6305 -0.0489 -0.3384
  500MOL0     C68922   4.108   7.123   4.422 -0.8173  0.1095 -0.4389
  500MOL0     C68923   4.210   7.125   4.542  0.9799  0.0432 -0.3233
  500MOL0     C68924   4.182   7.250   4.626 -0.7557 -0.0429 -0.3149
  500MOL0     C68925   4.305   7.282   4.720  0.3207  0.3370 -0.4243
  500MOL0     C68926   4.417   7.356   4.651  0.1709 -0.9002 -1.0944
  500MOL0     C68927   4.501   7.420   4.597 -0.2040 -0.2026  0.4400
  500MOL0     C68928   4.355   7.307   4.209  0.7527  1.0686 -0.2044
  500MOL0     C68929   4.453   7.295   4.108  0.5286  0.3521 -0.5764
  500MOL0     C68930   4.526   7.415   4.067  0.0521 -0.0548 -0.9379
  500MOL0     H68931   4.802   6.967   3.896 -0.6827  1.6641  1.4229
  500MOL0     H68932   4.966   6.915   3.719  0.9433  0.4277 -3.4840
  500MOL0     H68933   5.226   7.283   3.656 -0.0819 -0.4142 -0.2166
  500MOL0     H68934   5.211   7.237   3.484  2.8046 -1.1577 -0.8933
  500MOL0     H68935   5.383   7.096   3.693 -2.6993  0.0700  0.0475
  500MOL0     H68936   5.370   7.031   3.530  0.5789 -1.9641  3.3447
  500MOL0     H68937   5.485   7.258   3.454  1.8157  0.5422  0.6170
  500MOL0     H68938   5.486   7.301   3.613  2.3453  0.4631 -0.4167
  500MOL0     H68939   5.603   7.060   3.652  3.5489 -0.5703 -0.4832
  500MOL0     H68940   5.610   7.051   3.477 -0.3404  0.3808 -0.2319
  500MOL0     H68941   5.812   7.118   3.597  0.6946 -0.6494 -3.0177
  500MOL0     H68942   5.725   7.260   3.666 -2.2241 -1.3936  0.7220
  500MOL0     H68943   5.715   7.214   3.370 -1.6685  0.0644  1.0614
  500MOL0     H68944   5.693   7.358   3.459  0.2059 -0.3156 -1.6676
  500MOL0     H68945   5.915   7.381   3.341 -1.1530 -0.9820 -0.4114
  500MOL0     H68946   5.971   7.228   3.403 -0.7596 -0.0391 -4.1893
  500MOL0     H68947   5.977   7.366   3.635  3.9917 -1.5690 -1.3125
  500MOL0     H68948   6.060   7.458   3.505 -0.9534  2.2958  1.5128
  500MOL0     H68949   5.931   7.642   3.379  0.1715 -1.1531  0.2968
  500MOL0     H68950   5.686   7.909   3.541 -2.1661 -2.0239  2.3217
  500MOL0     H68951   5.595   7.791   3.465 -0.6766  0.5092  1.6101
  500MOL0     H68952   5.733   7.978   3.319 -0.4837  0.5150  1.4380
  500MOL0     H68953   5.869   7.882   3.357  0.6361 -2.2695 -0.7420
  500MOL0     H68954   5.798   7.704   3.215  3.7754  2.7449  2.6023
  500MOL0     H68955   5.624   7.756   3.229 -0.1018  0.9268  0.6143
  500MOL0     H68956   5.699   7.812   3.011 -3.3672  0.0809  0.9264
  500MOL0     H68957   5.658   7.957   3.108  1.8920  1.9716  0.9769
  500MOL0     H68958   5.843   7.670   3.013  1.4816 -1.3030  0.6929
  500MOL0     H68959   6.025   7.469   2.779  1.6761 -1.3978 -0.4262
  500MOL0     H68960   5.912   7.461   2.913  0.6392 -2.9006 -1.2233
  500MOL0     H68961   6.090   7.438   2.935  0.7745  1.0328 -0.5009
  500MOL0     H68962   6.557   7.899   2.696 -0.7799 -0.8027  1.3571
  500MOL0     H68963   6.761   7.834   2.582  0.5409 -0.9173 -1.0880
  500MOL0     H68964   6.938   7.492   2.657 -0.3520 -0.4822 -0.1179
  500MOL0     H68965   6.854   7.410   2.525 -0.8961  0.3380 -0.1929
  500MOL0     H68966   7.079   7.387   2.477 -0.3685 -1.3934  0.9408
  500MOL0     H68967   7.011   7.492   2.356  0.4335 -1.7599  0.2421
  500MOL0     H68968   7.195   7.597   2.573  1.2623 -1.9006  0.5433
  500MOL0     H68969   7.141   7.691   2.429  1.8444  0.9654 -1.4464
  500MOL0     H68970   7.280   7.557   2.287 -1.0552  4.2018  0.5359
  500MOL0     H68971   7.313   7.447   2.425 -2.2201 -0.9949  0.1517
  500MOL0     H68972   7.455   7.602   2.533  3.5769 -3.2310 -0.9034
  500MOL0     H68973   7.507   7.588   2.375 -0.3761 -0.3018 -1.0551
  500MOL0     H68974   7.330   7.800   2.498  1.0242  1.8515  0.5360
  500MOL0     H68975   7.389   7.815   2.325  0.2257  5.0888  1.0029
  500MOL0     H68976   7.509   7.966   2.456 -2.8596 -0.6216  0.5346
  500MOL0     H68977   7.618   7.835   2.408  1.1853  1.9288 -1.4028
  500MOL0     H68978   7.589   7.752   2.660  0.0389  1.0898  2.3690
  500MOL0     H68979   7.487   7.885   2.691 -1.2581 -2.0625 -1.0487
  500MOL0     H68980   6.662   7.430   2.579  2.6185  1.2448 -1.9593
  500MOL0     H68981   6.468   7.481   2.739  0.2211  0.9750  2.5653
  500MOL0     H68982   6.255   7.915   2.880  0.0918  0.5263  0.0790
  500MOL0     H68983   6.088   8.021   3.014  4.8407  0.3211  0.8327
  500MOL0     H68984   5.017   7.338   3.654 -1.7784  0.6440 -1.0273
  500MOL0     H68985   4.825   7.385   3.816  1.0127  0.8880 -0.9356
  500MOL0     H68986   4.383   6.984   4.000 -0.5591  2.2644 -2.6431
  500MOL0     H68987   4.202   7.004   4.159  0.6896 -0.7019 -0.2771
  500MOL0     H68988   4.005   7.147   4.447 -0.8411  1.6299 -1.8208
  500MOL0     H68989   4.120   7.022   4.381  2.4079 -1.0143  2.7344
  500MOL0     H68990   4.312   7.110   4.507  0.2149 -4.3601 -1.3061
  500MOL0     H68991   4.184   7.038   4.604  0.2103  0.2395 -0.3587
  500MOL0     H68992   4.172   7.339   4.564 -1.6510 -0.6168 -0.9999
  500MOL0     H68993   4.086   7.239   4.676 -2.0344  1.0202 -2.4156
  500MOL0     H68994   4.334   7.186   4.765 -1.4598  0.4508  1.1220
  500MOL0     H68995   4.270   7.339   4.806  0.2175 -4.3143  3.0390
  500MOL0     H68996   4.575   7.489   4.562 -2.5583  3.3344  1.8730
  500MOL0     H68997   4.339   7.393   4.273 -1.3617  0.2298  0.4847
  500MOL0     H68998   4.620   7.415   4.123 -0.1442 -2.4791 -0.5047
  500MOL0     H68999   4.564   7.420   3.964 -1.3806  1.9306 -1.4369
  500MOL0     H69000   4.466   7.503   4.090 -0.6844 -0.3225 -1.7825
  501MOL0     O69001   3.609   1.631   9.571 -0.1342  0.4771  0.6868
  501MOL0     C69002   3.593   1.528   9.636  0.3493  0.6671 -0.3012
  501MOL0     O69003   3.477   1.454   9.644 -0.6351 -0.3173  0.2402
  501MOL0     C69004   3.373   1.484   9.570  0.1729 -0.1377  0.5245
  501MOL0     C69005   3.288   1.595   9.610  0.0271  0.1019 -0.4217
  501MOL0     C69006   3.172   1.628   9.528 -0.9435 -0.6123  0.6385
  501MOL0     C69007   3.155   1.567   9.403 -0.2404 -0.0164 -0.5965
  501MOL0     O69008   3.069   1.614   9.310  0.3404  0.0870 -0.3623
  501MOL0     C69009   2.936   1.584   9.331 -0.8609  0.7251 -1.0625
  501MOL0     C69010   2.852   1.653   9.224  0.0196  1.0596  0.3061
  501MOL0     C69011   2.711   1.599   9.237  1.6176 -0.8756  0.9006
  501MOL0     C69012   2.611   1.684   9.157 -0.5205  0.1956 -0.0413
  501MOL0     C69013   2.469   1.614   9.168  0.0204  1.0677 -0.7582
  501MOL0     C69014   2.365   1.686   9.088  0.2140 -0.1417  0.1189
  501MOL0     C69015   2.222   1.669   9.152  0.0672 -0.4481 -0.2419
  501MOL0     C69016   2.116   1.771   9.109  0.1987 -0.6735  0.6688
  501MOL0     N69017   2.117   1.913   9.156 -0.0047  0.2140  0.3653
  501MOL0     C69018   2.189   2.015   9.110 -0.2555 -1.2999  1.0789
  501MOL0     C69019   2.177   2.115   9.192  0.1608  0.2917 -0.1169
  501MOL0     C69020   2.237   2.246   9.177 -0.3115 -0.4200 -0.4451
  501MOL0     C69021   2.336   2.278   9.299  0.1752 -0.0212  0.1486
  501MOL0     C69022   2.397   2.420   9.289 -0.4130  0.3598  0.8975
  501MOL0     C69023   2.505   2.439   9.183 -0.8085 -0.5699 -0.1893
  501MOL0     O69024   2.612   2.338   9.180  0.4023 -0.0011  0.4056
  501MOL0     C69025   2.707   2.326   9.281  0.4236  0.0004  0.0240
  501MOL0     C69026   2.710   2.410   9.393  0.3029  0.4532  0.6736
  501MOL0     C69027   2.811   2.400   9.489  0.7835  0.3629 -0.4089
  501MOL0     C69028   2.794   2.493   9.593  0.6013 -0.3276 -0.9242
  501MOL0     C69029   2.909   2.297   9.475  0.1851 -0.1936 -0.1583
  501MOL0     C69030   3.010   2.276   9.579  0.3717 -0.5706  0.5986
  501MOL0     O69031   3.100   2.170   9.550  0.8612 -0.2174  0.1213
  501MOL0     C69032   3.127   2.085   9.656  0.2017  0.2026  0.3022
  501MOL0     C69033   3.244   2.001   9.668 -0.2901  1.3209 -0.0270
  501MOL0     C69034   3.285   1.919   9.776  0.1677  0.5123  0.0939
  501MOL0     C69035   3.186   1.887   9.867 -0.3511 -0.4510 -0.3084
  501MOL0     O69036   3.180   1.776   9.947 -0.4701 -0.2636 -0.6060
  501MOL0     C69037   3.301   1.725  10.007 -0.5234  0.1610 -0.7156
  501MOL0     C69038   3.310   1.574  10.012  0.0128 -0.4621 -0.2310
  501MOL0     C69039   3.443   1.527  10.058  0.1307  0.0882 -0.5911
  501MOL0     C69040   3.470   1.401   9.996 -0.1083 -0.0458 -0.3221
  501MOL0     C69041   3.581   1.336  10.065 -1.0794 -0.1777  0.1949
  501MOL0     C69042   3.604   1.193  10.018 -1.2388  0.3844  0.1987
  501MOL0     C69043   3.502   1.082  10.035  0.9531 -0.2185 -1.0184
  501MOL0     C69044   3.564   0.949  10.077  0.8298  0.1137  0.4298
  501MOL0    Cl69045   3.677   0.887   9.942 -0.0979  0.2365  0.2098
  501MOL0     C69046   3.067   1.964   9.868  0.2619 -0.0161 -0.4319
  501MOL0     C69047   3.042   2.055   9.763  0.3463  0.0596  0.4655
  501MOL0     O69048   3.023   2.342   9.677 -0.2101 -0.5741 -0.2260
  501MOL0     C69049   2.902   2.208   9.359  0.2249  0.1806 -0.6547
  501MOL0     C69050   2.807   2.230   9.267 -0.0453 -0.7403  0.6594
  501MOL0     N69051   2.108   2.074   9.304  0.0631  0.0782  0.2031
  501MOL0     N69052   2.072   1.951   9.282  0.1180 -0.4791  0.0177
  501MOL0     C69053   3.249   1.468   9.356 -0.0902  0.2862 -0.5412
  501MOL0     C69054   3.357   1.424   9.443  0.3251  0.3509  0.7838
  501MOL0     C69055   3.715   1.480   9.698  0.2033 -0.4919  0.0571
  501MOL0     C69056   3.785   1.574   9.780 -0.7885 -0.7512  0.3982
  501MOL0     C69057   3.911   1.536   9.833  0.1293  0.8689  0.7614
  501MOL0     C69058   3.965   1.406   9.822 -0.0649 -0.7059 -0.6091
  501MOL0     O69059   4.081   1.392   9.895 -0.2958 -0.6755  0.0333
  501MOL0     C69060   4.150   1.269   9.888  0.6673  0.4312 -1.0269
  501MOL0     C69061   4.113   1.174   9.995  0.6912  0.3087 -0.0101
  501MOL0     C69062   4.212   1.063  10.013  0.2129  0.4384  0.2821
  501MOL0     C69063   4.160   0.930   9.953 -0.7146 -0.2910 -0.1093
  501MOL0     C69064   4.115   0.934   9.813 -0.0528 -0.0172 -0.5837
  501MOL0     C69065   4.054   0.950   9.707 -0.0968  0.4336 -0.6024
  501MOL0     C69066   3.896   1.319   9.743  0.7386  0.6177 -0.1868
  501MOL0     C69067   3.774   1.354   9.680  0.4180 -0.4826  0.2704
  501MOL0     C69068   3.710   1.256   9.582 -0.5426 -0.4435 -0.2790
  501MOL0     H69069   3.313   1.633   9.709 -0.4326  1.6868 -0.8896
  501MOL0     H69070   3.112   1.715   9.555  0.6262  0.6260  0.3269
  501MOL0     H69071   2.918   1.629   9.429  3.6280 -1.0265  0.8518
  501MOL0     H69072   2.923   1.476   9.343  1.3420  0.5933  1.1863
  501MOL0     H69073   2.853   1.761   9.239 -4.7289  1.7637 -2.6132
  501MOL0     H69074   2.893   1.635   9.124  1.4269  1.4024  0.7957
  501MOL0     H69075   2.701   1.496   9.203  0.5769 -0.5329  0.1249
  501MOL0     H69076   2.683   1.611   9.342  3.3337  0.0616  1.3000
  501MOL0     H69077   2.605   1.790   9.184 -0.0387  0.6587 -1.6420
  501MOL0     H69078   2.641   1.683   9.052 -0.4470  0.3954 -0.0238
  501MOL0     H69079   2.438   1.626   9.272 -0.8681  0.0778 -0.9011
  501MOL0     H69080   2.477   1.506   9.157 -1.4030  0.4462  2.8315
  501MOL0     H69081   2.393   1.792   9.090 -0.0040 -0.0495 -1.1540
  501MOL0     H69082   2.361   1.661   8.982 -3.2648 -1.6296  0.4582
  501MOL0     H69083   2.242   1.671   9.259  2.7886 -2.6245 -0.5708
  501MOL0     H69084   2.179   1.569   9.146 -2.1201  0.4533 -0.2832
  501MOL0     H69085   2.126   1.779   9.001 -3.1607  1.9514  0.4054
  501MOL0     H69086   2.013   1.738   9.125 -0.7378  1.3272 -0.7938
  501MOL0     H69087   2.245   2.022   9.017 -2.5542 -2.4519 -0.5061
  501MOL0     H69088   2.162   2.322   9.153 -0.6880 -1.0626 -1.3319
  501MOL0     H69089   2.297   2.239   9.086  0.6429  0.4110  0.1002
  501MOL0     H69090   2.277   2.269   9.391 -0.1078  0.2680 -0.0055
  501MOL0     H69091   2.423   2.211   9.299  1.3175  1.3193 -2.3164
  501MOL0     H69092   2.314   2.480   9.250 -1.9474 -2.9933 -1.4903
  501MOL0     H69093   2.422   2.454   9.389 -3.0382 -0.8975  2.0784
  501MOL0     H69094   2.452   2.451   9.088 -0.7442 -0.5189 -0.2193
  501MOL0     H69095   2.557   2.532   9.207 -0.7346 -0.7290  0.2808
  501MOL0     H69096   2.636   2.489   9.403  1.9133  2.4368 -1.7909
  501MOL0     H69097   2.870   2.571   9.590 -0.9524  1.2369 -2.1396
  501MOL0     H69098   2.804   2.437   9.687  1.1473  1.2645  0.0061
  501MOL0     H69099   2.701   2.551   9.596  0.2075 -0.7350 -3.2744
  501MOL0     H69100   3.327   2.005   9.598  1.1992 -5.0388  0.7841
  501MOL0     H69101   3.382   1.870   9.775  0.0717  0.2788  1.1701
  501MOL0     H69102   3.394   1.758   9.959  0.1975  2.1425  1.7911
  501MOL0     H69103   3.309   1.754  10.113  2.3425 -0.6802 -0.6042
  501MOL0     H69104   3.223   1.547  10.073  0.0387  2.0505  1.0454
  501MOL0     H69105   3.277   1.533   9.917  1.2366 -2.7661  0.2561
  501MOL0     H69106   3.442   1.517  10.167  0.4575  2.9282 -0.2709
  501MOL0     H69107   3.532   1.585  10.035  1.5638 -1.6857  0.2273
  501MOL0     H69108   3.477   1.427   9.890 -0.3975 -0.5362 -0.4655
  501MOL0     H69109   3.389   1.328  10.006 -1.4292  1.0839 -2.1532
  501MOL0     H69110   3.673   1.394  10.058 -0.6665 -0.6416  1.5505
  501MOL0     H69111   3.557   1.319  10.171  1.3422  1.9230  1.1672
  501MOL0     H69112   3.689   1.162  10.080 -1.7188 -1.9474 -0.2160
  501MOL0     H69113   3.650   1.203   9.919  0.7047  1.6179  1.1757
  501MOL0     H69114   3.447   1.070   9.941 -4.2302  0.4308  1.6007
  501MOL0     H69115   3.428   1.112  10.109  0.5155  0.2309 -1.6251
  501MOL0     H69116   3.481   0.881  10.097 -0.3924  1.3564 -0.1917
  501MOL0     H69117   3.622   0.963  10.169 -0.8676  3.2655  1.1677
  501MOL0     H69118   2.989   1.940   9.940  0.3000 -1.0331 -0.7117
  501MOL0     H69119   2.939   2.090   9.764 -0.1170 -1.2266  1.3610
  501MOL0     H69120   2.975   2.132   9.334 -3.0052 -3.5980  0.4552
  501MOL0     H69121   2.801   2.161   9.183  0.1143  1.3148 -1.1297
  501MOL0     H69122   3.255   1.425   9.257  1.9315  4.7354 -2.5864
  501MOL0     H69123   3.435   1.356   9.408 -1.1282 -0.6491 -0.6499
  501MOL0     H69124   3.746   1.670   9.811  5.5643  2.6078 -0.3525
  501MOL0     H69125   3.972   1.618   9.870  0.5877  0.3225  1.2292
  501MOL0     H69126   4.145   1.217   9.792  2.5006 -0.6924 -0.5381
  501MOL0     H69127   4.255   1.295   9.904  0.7493 -1.2232  1.8258
  501MOL0     H69128   4.018   1.127   9.969  1.1987 -1.1667  0.6657
  501MOL0     H69129   4.099   1.228  10.090 -1.4481  5.3198 -2.7847
  501MOL0     H69130   4.313   1.071   9.971 -0.3791 -2.4099 -1.9827
  501MOL0     H69131   4.216   1.039  10.119  1.7531  1.7722  0.5742
  501MOL0     H69132   4.071   0.903  10.011 -1.3292 -1.1062 -1.3749
  501MOL0     H69133   4.227   0.844   9.951 -2.4803 -1.7629 -2.4672
  501MOL0     H69134   4.019   0.943   9.606  1.2537 -1.2331 -1.0079
  501MOL0     H69135   3.934   1.223   9.713 -0.9492  0.5543 -2.4138
  501MOL0     H69136   3.602   1.256   9.593 -0.4713 -1.5314  0.5668
  501MOL0     H69137   3.726   1.292   9.480  1.5540  1.7595  0.7207
  501MOL0     H69138   3.753   1.156   9.591 -3.8348 -1.7971  2.1336
  502MOL0     O69139   3.589   4.523  11.047  0.3108  0.6665 -0.4709
  502MOL0     C69140   3.674   4.457  10.977 -1.1897 -0.6999 -0.5944
  502MOL0     O69141   3.642   4.398  10.856 -0.0917 -0.1509 -0.3367
  502MOL0     C69142   3.504   4.396  10.833  0.1024 -0.9673 -1.7779
  502MOL0     C69143   3.437   4.517  10.814 -0.1000 -0.2356 -0.7632
  502MOL0     C69144   3.298   4.516  10.810 -0.1596  0.1650 -0.2000
  502MOL0     C69145   3.219   4.400  10.810 -0.4916  0.7708  0.6559
  502MOL0     O69146   3.083   4.415  10.792 -0.4116 -0.3652  0.7079
  502MOL0     C69147   2.998   4.301  10.814  0.9461 -0.9511  0.5127
  502MOL0     C69148   2.864   4.364  10.832  0.0044 -0.2356 -0.3824
  502MOL0     C69149   2.758   4.270  10.856  0.4302 -0.6253  0.6833
  502MOL0     C69150   2.769   4.177  10.970 -0.1030  1.0321  0.3317
  502MOL0     C69151   2.751   4.250  11.100  0.5975 -0.1584 -0.6831
  502MOL0     C69152   2.785   4.178  11.230  0.9332  0.5525  1.2735
  502MOL0     C69153   2.709   4.238  11.351  0.0553 -0.1532  0.5198
  502MOL0     C69154   2.767   4.163  11.468 -0.4176  0.2347 -0.1362
  502MOL0     N69155   2.710   4.204  11.601 -0.4486 -0.2142 -0.6800
  502MOL0     C69156   2.606   4.143  11.671  0.5716  0.2076 -0.5627
  502MOL0     C69157   2.603   4.199  11.786 -0.6807  0.0158 -0.0779
  502MOL0     C69158   2.516   4.168  11.909  0.7151  0.9489 -0.9299
  502MOL0     C69159   2.420   4.288  11.931 -0.0671  0.4947  0.0251
  502MOL0     C69160   2.330   4.242  12.056  0.3028  0.1867 -0.1974
  502MOL0     C69161   2.243   4.368  12.083 -0.3342  0.3205  0.3209
  502MOL0     O69162   2.145   4.393  11.971 -0.3334  0.7752 -0.7019
  502MOL0     C69163   2.033   4.471  11.997 -1.1573  1.3072 -1.2361
  502MOL0     C69164   2.033   4.574  12.086 -0.3402 -0.1060  0.1731
  502MOL0     C69165   1.936   4.668  12.089 -0.0717  0.3669 -1.1076
  502MOL0     C69166   1.955   4.796  12.160  0.5883  0.0921  0.0156
  502MOL0     C69167   1.812   4.639  12.024 -0.0146 -0.5106 -0.2566
  502MOL0     C69168   1.698   4.729  12.032  0.2029 -0.0825 -0.5578
  502MOL0     O69169   1.610   4.711  12.135 -0.5345 -0.5975 -0.3008
  502MOL0     C69170   1.517   4.814  12.162  0.1899  1.0589  0.2836
  502MOL0     C69171   1.505   4.870  12.285 -0.5041  0.5839 -0.7273
  502MOL0     C69172   1.395   4.955  12.314  0.2593  0.2302 -0.9043
  502MOL0     C69173   1.299   4.995  12.221  0.2361 -0.1670 -0.2651
  502MOL0     O69174   1.199   5.073  12.265 -0.0548 -0.0134 -0.1709
  502MOL0     C69175   1.105   5.114  12.161 -0.2779  1.2742 -0.3908
  502MOL0     C69176   1.001   5.214  12.209  0.6933  0.5797  0.0927
  502MOL0     C69177   0.912   5.171  12.339  0.2983 -0.6534 -0.1317
  502MOL0     C69178   0.776   5.108  12.320 -0.0624  0.2483 -0.2656
  502MOL0     C69179   0.664   5.189  12.247 -0.2593 -0.0663 -1.2541
  502MOL0     C69180   0.629   5.322  12.319  0.4494 -0.3362  0.2850
  502MOL0     C69181   0.611   5.295  12.470  0.4543  0.1515  0.4037
  502MOL0     C69182   0.572   5.417  12.560 -1.4507  0.0392  0.5490
  502MOL0    Cl69183   0.400   5.474  12.559 -0.0167  0.3224  0.2333
  502MOL0     C69184   1.312   4.928  12.094  0.3543  0.6933 -0.3501
  502MOL0     C69185   1.425   4.840  12.061 -0.5591 -0.1422 -0.4329
  502MOL0     O69186   1.708   4.828  11.955 -0.4577  0.3724 -0.3736
  502MOL0     C69187   1.809   4.531  11.934  1.6052  1.1000 -0.5542
  502MOL0     C69188   1.922   4.448  11.923  1.2690 -0.0014 -0.1960
  502MOL0     N69189   2.694   4.298  11.792 -0.5847 -0.8143  0.5696
  502MOL0     N69190   2.756   4.302  11.679  0.6394  0.0428 -0.0593
  502MOL0     C69191   3.290   4.273  10.826 -0.9174  0.3547 -0.0467
  502MOL0     C69192   3.430   4.280  10.843  0.0239 -0.3138 -0.2518
  502MOL0     C69193   3.816   4.458  11.020 -0.1589  0.0569 -1.0941
  502MOL0     C69194   3.844   4.545  11.130 -0.5516  1.2090 -0.0622
  502MOL0     C69195   3.982   4.556  11.169 -0.1371  0.8628 -0.1546
  502MOL0     C69196   4.089   4.502  11.095  0.5725 -0.5531 -0.8273
  502MOL0     O69197   4.217   4.505  11.123 -0.2787  0.0856 -0.3565
  502MOL0     C69198   4.260   4.569  11.239  0.3918 -1.2061  0.5748
  502MOL0     C69199   4.387   4.505  11.287 -1.0402  1.2020  0.4403
  502MOL0     C69200   4.459   4.597  11.390 -0.5671 -0.1181 -0.1260
  502MOL0     C69201   4.554   4.520  11.482  0.5422  1.0005  0.1484
  502MOL0     C69202   4.672   4.450  11.432 -0.0974  0.4302 -0.0624
  502MOL0     C69203   4.763   4.375  11.392 -0.5765  0.7382  0.3109
  502MOL0     C69204   4.059   4.413  10.991 -0.5048 -0.3710 -0.1339
  502MOL0     C69205   3.927   4.387  10.955  0.4455  0.5540 -0.7181
  502MOL0     C69206   3.904   4.306  10.829 -0.5639 -0.3598  0.4672
  502MOL0     H69207   3.499   4.606  10.808  1.8626 -1.5745 -1.3930
  502MOL0     H69208   3.243   4.602  10.774 -3.6659 -1.4467  0.8775
  502MOL0     H69209   3.029   4.255  10.909  2.0042  0.5434  0.9269
  502MOL0     H69210   2.996   4.233  10.729  0.3150 -0.8632  0.4524
  502MOL0     H69211   2.873   4.428  10.920 -1.8632  5.5910 -3.8750
  502MOL0     H69212   2.838   4.422  10.743 -2.1786  0.2302  0.4902
  502MOL0     H69213   2.671   4.331  10.881 -0.0309 -0.6093 -0.8695
  502MOL0     H69214   2.734   4.223  10.761  2.2284 -0.5007  0.1165
  502MOL0     H69215   2.685   4.108  10.971  1.9058 -1.5994  2.0118
  502MOL0     H69216   2.866   4.125  10.974 -0.2104  0.7228 -0.8303
  502MOL0     H69217   2.648   4.287  11.098  0.2502 -1.0442 -3.9660
  502MOL0     H69218   2.801   4.346  11.116 -1.0033  0.5474  0.4383
  502MOL0     H69219   2.746   4.077  11.212 -0.4744  1.5811 -2.3284
  502MOL0     H69220   2.894   4.181  11.236  0.9555 -0.6253  1.9370
  502MOL0     H69221   2.601   4.222  11.343 -0.0129  1.0292 -4.9533
  502MOL0     H69222   2.725   4.346  11.360  1.1868 -0.1393 -1.2207
  502MOL0     H69223   2.742   4.057  11.457  0.4153  0.2464 -2.7267
  502MOL0     H69224   2.875   4.177  11.475 -0.7608  4.5290 -0.8294
  502MOL0     H69225   2.542   4.060  11.642  2.0535 -1.8535  1.7093
  502MOL0     H69226   2.571   4.140  11.999 -0.3935  3.2105  0.5288
  502MOL0     H69227   2.454   4.082  11.882  0.2528 -0.4027  3.6768
  502MOL0     H69228   2.483   4.372  11.961  1.6798 -0.9083  0.5001
  502MOL0     H69229   2.364   4.308  11.839 -0.7424  1.7655  0.6913
  502MOL0     H69230   2.262   4.164  12.021 -1.3735  1.8589 -0.8413
  502MOL0     H69231   2.392   4.216  12.142 -0.6941  0.2173  0.5456
  502MOL0     H69232   2.201   4.374  12.184 -0.4335 -0.7150  0.3571
  502MOL0     H69233   2.321   4.444  12.072 -0.4704  0.3162 -0.7816
  502MOL0     H69234   2.122   4.612  12.135 -1.0817 -0.3179  1.7345
  502MOL0     H69235   2.042   4.792  12.226  1.4627 -3.7943 -1.1021
  502MOL0     H69236   1.864   4.815  12.218  1.8110  1.0087  1.7124
  502MOL0     H69237   1.968   4.868  12.079 -1.0687  0.4833  0.0633
  502MOL0     H69238   1.574   4.818  12.350 -0.1583  1.1582 -0.6311
  502MOL0     H69239   1.370   4.980  12.417 -3.0217  0.6269 -1.6703
  502MOL0     H69240   1.156   5.158  12.075  0.7573  0.3872 -0.2511
  502MOL0     H69241   1.050   5.024  12.131  3.1195 -0.2626 -2.5189
  502MOL0     H69242   1.052   5.305  12.243 -0.5166  0.9749  0.9514
  502MOL0     H69243   0.941   5.240  12.122 -1.9862  0.6788  1.8611
  502MOL0     H69244   0.887   5.256  12.403 -3.3368 -2.2730  0.8754
  502MOL0     H69245   0.970   5.092  12.388 -0.1045 -1.1770 -0.4894
  502MOL0     H69246   0.737   5.074  12.417  0.3488 -1.7173 -0.7482
  502MOL0     H69247   0.786   5.018  12.260  2.5605  0.6404 -0.5158
  502MOL0     H69248   0.688   5.199  12.141  1.1071 -1.3976 -1.0982
  502MOL0     H69249   0.571   5.132  12.251 -0.6082  0.4496  3.2745
  502MOL0     H69250   0.542   5.369  12.274 -1.1322 -1.8343  1.6410
  502MOL0     H69251   0.706   5.398  12.306  1.2149 -1.0492  0.5328
  502MOL0     H69252   0.705   5.259  12.514 -0.2258 -1.9383  0.2571
  502MOL0     H69253   0.526   5.226  12.471 -0.9945  1.6764 -3.2771
  502MOL0     H69254   0.639   5.498  12.530  1.0631 -2.2444 -0.4086
  502MOL0     H69255   0.606   5.376  12.655  4.3449 -2.2820 -2.0510
  502MOL0     H69256   1.237   4.933  12.016 -1.8372  1.4231  1.6927
  502MOL0     H69257   1.422   4.785  11.967 -2.1949  2.0655 -1.7794
  502MOL0     H69258   1.723   4.514  11.870 -0.8698 -0.7683  2.9362
  502MOL0     H69259   1.930   4.367  11.851 -3.0212  0.3690 -1.3598
  502MOL0     H69260   3.246   4.175  10.812  3.0223 -1.3885 -1.8043
  502MOL0     H69261   3.483   4.186  10.854  3.3146  1.7340  3.4111
  502MOL0     H69262   3.773   4.609  11.181 -4.5142 -0.1006 -3.3898
  502MOL0     H69263   3.985   4.617  11.259  1.7714 -3.6297  3.2361
  502MOL0     H69264   4.283   4.672  11.209 -2.2614 -1.3416 -2.3763
  502MOL0     H69265   4.196   4.589  11.326  1.2832  0.4972  0.8925
  502MOL0     H69266   4.455   4.495  11.202 -1.3063  1.0402  0.2445
  502MOL0     H69267   4.368   4.408  11.335 -0.0694  1.2503  0.9434
  502MOL0     H69268   4.513   4.671  11.330  0.9496 -2.3727 -1.7230
  502MOL0     H69269   4.389   4.650  11.455 -1.2614 -5.7210  4.5479
  502MOL0     H69270   4.489   4.454  11.541  0.1478 -0.9671 -2.3205
  502MOL0     H69271   4.602   4.601  11.538  2.3749  0.7414 -0.9435
  502MOL0     H69272   4.835   4.309  11.348 -1.0092  0.4108  0.0781
  502MOL0     H69273   4.127   4.348  10.936 -2.5564 -1.6757 -1.2539
  502MOL0     H69274   3.846   4.347  10.745 -0.9594  1.4571  1.5734
  502MOL0     H69275   3.999   4.279  10.782 -0.4340  0.5128  0.2113
  502MOL0     H69276   3.876   4.206  10.864 -0.4250 -0.8638 -0.8143
  503MOL0     O69277   4.410   8.716  10.494  0.4575 -0.3766  0.3786
  503MOL0     C69278   4.370   8.695  10.602 -0.1482  0.2477 -0.0109
  503MOL0     O69279   4.447   8.702  10.718 -1.0006 -0.3852 -0.0404
  503MOL0     C69280   4.577   8.746  10.725 -0.7876 -0.0284 -0.6383
  503MOL0     C69281   4.654   8.829  10.634  0.0581  1.1889 -0.4214
  503MOL0     C69282   4.793   8.873  10.651  0.1606  0.3264 -0.8882
  503MOL0     C69283   4.844   8.854  10.780  0.2086  0.3391  0.1467
  503MOL0     O69284   4.967   8.902  10.820  0.4502 -0.0590 -0.5530
  503MOL0     C69285   5.028   9.017  10.760  0.1179 -0.8989 -0.4546
  503MOL0     C69286   5.170   9.040  10.822  0.3481  0.2745  0.2931
  503MOL0     C69287   5.259   8.914  10.825 -0.1105  1.2043  0.3996
  503MOL0     C69288   5.280   8.845  10.690 -0.3727 -0.0771 -0.5815
  503MOL0     C69289   5.385   8.737  10.693  0.1262 -0.6677  0.5555
  503MOL0     C69290   5.346   8.637  10.591  0.2113 -0.1494  1.0107
  503MOL0     C69291   5.437   8.519  10.577 -0.4801 -0.0680  0.1302
  503MOL0     C69292   5.399   8.433  10.451  0.5511 -0.1518  0.2344
  503MOL0     N69293   5.514   8.372  10.391 -0.3302  0.7264  0.9063
  503MOL0     C69294   5.583   8.274  10.457  0.3699 -0.6320 -0.1081
  503MOL0     C69295   5.706   8.272  10.404 -0.2973  0.2293  0.3452
  503MOL0     C69296   5.814   8.173  10.441 -0.6172 -0.3092  0.4978
  503MOL0     C69297   5.796   8.030  10.383 -1.0134 -0.0621  0.6074
  503MOL0     C69298   5.674   7.950  10.423 -0.9320  1.0609 -0.6829
  503MOL0     C69299   5.650   7.825  10.338  0.6066 -0.7611 -0.5184
  503MOL0     O69300   5.776   7.756  10.326 -0.2950 -0.5529  0.5948
  503MOL0     C69301   5.776   7.639  10.240 -0.2785 -0.4976  0.1203
  503MOL0     C69302   5.667   7.554  10.218  0.1069  0.3622 -0.0223
  503MOL0     C69303   5.675   7.435  10.134  0.4818  0.3583  1.1052
  503MOL0     C69304   5.553   7.341  10.137  0.2856 -0.2024 -0.2162
  503MOL0     C69305   5.793   7.403  10.064 -0.9185  0.2967 -0.0607
  503MOL0     C69306   5.811   7.292   9.965 -1.1640  0.8603  0.2836
  503MOL0     O69307   5.930   7.292   9.905  0.2670 -0.1728  0.3081
  503MOL0     C69308   5.962   7.237   9.785  0.5586 -0.0065 -0.1494
  503MOL0     C69309   6.088   7.212   9.763 -0.7421 -0.2927 -0.3003
  503MOL0     C69310   6.135   7.149   9.648  0.6100 -0.0622  0.0786
  503MOL0     C69311   6.045   7.132   9.538 -0.6041  1.2394  0.0283
  503MOL0     O69312   6.067   7.066   9.417 -0.8006 -0.7968 -0.2424
  503MOL0     C69313   6.200   7.025   9.386  0.0701  0.3798  0.1080
  503MOL0     C69314   6.213   6.981   9.239  0.7978 -0.6009 -0.3371
  503MOL0     C69315   6.138   7.079   9.144 -1.1479 -1.0413  1.2126
  503MOL0     C69316   6.170   7.044   8.993  0.7655  0.7819 -0.5459
  503MOL0     C69317   6.113   7.138   8.893  1.1628  0.7938 -0.3942
  503MOL0     C69318   6.176   7.275   8.893  0.9832 -0.8248 -0.6174
  503MOL0     C69319   6.111   7.375   8.783  0.2565 -0.4352  0.0270
  503MOL0     C69320   6.179   7.516   8.797 -0.5570  0.7409 -0.0074
  503MOL0    Cl69321   6.158   7.610   8.655 -0.0337  0.4010 -0.0094
  503MOL0     C69322   5.914   7.166   9.564  0.3717  0.5246  0.1519
  503MOL0     C69323   5.864   7.223   9.688  0.1552  0.0896  0.4594
  503MOL0     O69324   5.729   7.201   9.954 -0.6523  0.6751  0.5558
  503MOL0     C69325   5.901   7.490  10.098 -0.2208  0.1570  0.1573
  503MOL0     C69326   5.895   7.597  10.187  0.4834  0.2627 -0.0356
  503MOL0     N69327   5.707   8.378  10.314 -0.3640 -1.3559  0.4086
  503MOL0     N69328   5.588   8.432  10.298 -0.4075 -0.1150 -0.1072
  503MOL0     C69329   4.771   8.776  10.875  0.2013 -0.6282  0.4240
  503MOL0     C69330   4.644   8.726  10.849  0.8164  0.2347  0.2591
  503MOL0     C69331   4.225   8.697  10.624 -0.2886 -0.1294  0.3860
  503MOL0     C69332   4.185   8.713  10.757 -0.6736 -0.6121  0.7185
  503MOL0     C69333   4.051   8.696  10.789  0.5157  0.7530  0.6570
  503MOL0     C69334   3.952   8.694  10.700 -0.1364 -0.1852  0.2152
  503MOL0     O69335   3.820   8.679  10.724  0.1521 -0.2923 -1.1603
  503MOL0     C69336   3.776   8.665  10.865  0.7157  0.0642 -0.6924
  503MOL0     C69337   3.627   8.660  10.887  0.0509  0.0353 -0.2496
  503MOL0     C69338   3.580   8.657  11.031 -0.0431 -0.7325  0.4574
  503MOL0     C69339   3.611   8.534  11.110  0.8788  0.6189  0.7070
  503MOL0     C69340   3.633   8.566  11.255 -0.0130  0.1363  0.1953
  503MOL0     C69341   3.635   8.572  11.383 -0.3573 -0.1423 -0.1066
  503MOL0     C69342   3.988   8.699  10.565  0.1737  0.0144  1.1133
  503MOL0     C69343   4.125   8.685  10.529  0.2508 -0.5434 -0.0690
  503MOL0     C69344   4.155   8.653  10.379  0.3994  1.0944 -0.4410
  503MOL0     H69345   4.609   8.867  10.543  2.3219  0.8423 -1.7820
  503MOL0     H69346   4.851   8.947  10.597  1.7984 -1.1832 -1.3011
  503MOL0     H69347   4.979   9.114  10.777 -1.7303 -1.5155 -1.9211
  503MOL0     H69348   5.048   9.005  10.653  1.3802  4.5103 -1.1266
  503MOL0     H69349   5.222   9.113  10.760 -0.8755  0.2235 -0.8407
  503MOL0     H69350   5.160   9.076  10.925 -0.3966 -0.6862  0.5726
  503MOL0     H69351   5.353   8.946  10.871 -0.5496  2.6591  0.3587
  503MOL0     H69352   5.208   8.845  10.893 -2.2648  0.7095 -1.5821
  503MOL0     H69353   5.192   8.794  10.648  1.2254 -1.9266 -1.8824
  503MOL0     H69354   5.302   8.923  10.617  2.5680  1.2248  1.4750
  503MOL0     H69355   5.396   8.692  10.792  4.7271  2.9169  2.0413
  503MOL0     H69356   5.483   8.768  10.654 -1.4723  0.3903 -3.0184
  503MOL0     H69357   5.248   8.596  10.616 -0.0825 -0.7616 -0.9082
  503MOL0     H69358   5.344   8.686  10.493  0.9955  1.1000  1.5937
  503MOL0     H69359   5.445   8.457  10.667 -2.4124 -1.3109 -0.4863
  503MOL0     H69360   5.533   8.563  10.552 -0.7564  0.1498 -0.5738
  503MOL0     H69361   5.334   8.348  10.476 -0.1535  0.7678  1.6404
  503MOL0     H69362   5.351   8.497  10.377  2.1815 -0.3540 -1.0534
  503MOL0     H69363   5.543   8.215  10.539  0.1633 -0.3818 -0.0259
  503MOL0     H69364   5.830   8.156  10.548 -2.6707 -0.6484  0.7937
  503MOL0     H69365   5.910   8.216  10.414 -0.5320 -1.2118 -0.7327
  503MOL0     H69366   5.802   8.035  10.274  0.6469  0.3461  0.6985
  503MOL0     H69367   5.884   7.980  10.424 -0.9370  0.6775  1.3798
  503MOL0     H69368   5.673   7.921  10.528  1.5333 -2.4660 -1.4629
  503MOL0     H69369   5.585   8.012  10.417 -1.1034  1.0783  1.3243
  503MOL0     H69370   5.574   7.768  10.392  2.0362  0.6861  3.3997
  503MOL0     H69371   5.607   7.859  10.244 -1.1970  0.2933  0.6349
  503MOL0     H69372   5.585   7.589  10.280 -0.5289 -2.2539  0.7574
  503MOL0     H69373   5.599   7.259  10.192  2.6201  0.8342 -0.5014
  503MOL0     H69374   5.517   7.314  10.037 -1.3859  2.7037 -0.5067
  503MOL0     H69375   5.471   7.380  10.197 -0.3696 -1.2890 -0.3801
  503MOL0     H69376   6.170   7.243   9.827  0.9997  1.5002 -3.1471
  503MOL0     H69377   6.232   7.102   9.658 -0.7441 -3.1827 -0.1186
  503MOL0     H69378   6.278   7.097   9.411  0.8595 -0.5370  0.3832
  503MOL0     H69379   6.229   6.944   9.454  0.3612 -0.4775 -1.0049
  503MOL0     H69380   6.321   6.974   9.221  0.9501 -0.0341  0.2984
  503MOL0     H69381   6.171   6.881   9.232 -1.0429  0.1999 -1.1953
  503MOL0     H69382   6.169   7.182   9.162 -1.7542  0.2850 -3.8235
  503MOL0     H69383   6.032   7.080   9.169 -1.2717  0.7703  0.7692
  503MOL0     H69384   6.134   6.943   8.972  1.5779 -0.1060  1.9844
  503MOL0     H69385   6.278   7.046   8.978  0.4697  3.2214 -3.0049
  503MOL0     H69386   6.120   7.093   8.793 -3.0529  0.4353 -0.7178
  503MOL0     H69387   6.010   7.166   8.918  1.5809  0.6970  1.5377
  503MOL0     H69388   6.285   7.276   8.886  1.0210  0.6634 -0.1699
  503MOL0     H69389   6.162   7.322   8.991 -2.1449 -2.8786  0.0362
  503MOL0     H69390   6.006   7.395   8.809 -0.0776 -1.3554 -0.5699
  503MOL0     H69391   6.102   7.342   8.679 -1.3704  1.7578 -0.6027
  503MOL0     H69392   6.283   7.488   8.818 -1.5610 -0.7937  3.5156
  503MOL0     H69393   6.138   7.572   8.881 -0.9892 -0.4489  0.5950
  503MOL0     H69394   5.848   7.157   9.479 -0.4026 -0.8422  0.8654
  503MOL0     H69395   5.759   7.248   9.695 -0.4413 -2.3014  0.8349
  503MOL0     H69396   5.992   7.473  10.042  1.1163 -0.4171  2.3876
  503MOL0     H69397   5.984   7.657  10.200  1.8070 -1.7876  0.9152
  503MOL0     H69398   4.822   8.764  10.971  3.2410  0.6743 -0.9117
  503MOL0     H69399   4.587   8.665  10.919  0.4882  1.3080  0.9364
  503MOL0     H69400   4.255   8.736  10.837  1.3866  1.0314 -1.4204
  503MOL0     H69401   4.029   8.706  10.895 -3.1930  1.9263 -0.0822
  503MOL0     H69402   3.826   8.585  10.920 -1.1125  0.9964  2.6318
  503MOL0     H69403   3.813   8.761  10.902 -0.6441  1.1672 -2.0672
  503MOL0     H69404   3.595   8.570  10.834  1.7775  0.2209 -1.7249
  503MOL0     H69405   3.589   8.752  10.842  2.1118  0.6656 -0.8545
  503MOL0     H69406   3.626   8.741  11.083  0.6543 -0.6337 -0.3031
  503MOL0     H69407   3.471   8.668  11.042 -0.1562 -0.9978 -0.3313
  503MOL0     H69408   3.703   8.483  11.082  0.6173  0.6916 -0.3425
  503MOL0     H69409   3.528   8.463  11.105  1.6978 -0.3179 -0.1511
  503MOL0     H69410   3.646   8.576  11.490 -0.1861  2.0432 -0.1626
  503MOL0     H69411   3.912   8.694  10.487 -1.2140  2.9156  2.1326
  503MOL0     H69412   4.189   8.744  10.329 -1.4575  0.4594 -3.0885
  503MOL0     H69413   4.235   8.578  10.371 -0.4709  0.0651  0.1492
  503MOL0     H69414   4.066   8.643  10.317  0.9228 -2.7092 -0.8503
  504MOL0     O69415   9.847   8.490   1.365 -0.0848  0.7550  0.4665
  504MOL0     C69416   9.755   8.546   1.420  0.3146  0.3342 -0.2005
  504MOL0     O69417   9.627   8.507   1.445  0.0989 -0.1943 -0.2546
  504MOL0     C69418   9.610   8.375   1.431 -0.8243 -0.0345  0.5206
  504MOL0     C69419   9.694   8.280   1.488 -0.1857  0.4657  0.2788
  504MOL0     C69420   9.681   8.141   1.458 -0.9485  0.9728 -0.6424
  504MOL0     C69421   9.576   8.093   1.378 -0.0269  0.2756 -0.4059
  504MOL0     O69422   9.567   7.950   1.362 -0.9150 -0.5786  1.2526
  504MOL0     C69423   9.512   7.900   1.242  0.9412  0.2189 -1.0242
  504MOL0     C69424   9.514   7.749   1.223  1.0236 -0.1365  0.8120
  504MOL0     C69425   9.650   7.688   1.249  1.0002  1.3171  0.4903
  504MOL0     C69426   9.637   7.534   1.253  0.5509 -0.0916  1.5082
  504MOL0     C69427   9.767   7.478   1.299 -0.3055 -0.1462  0.0487
  504MOL0     C69428   9.748   7.333   1.345  0.3250 -0.0438  0.1862
  504MOL0     C69429   9.885   7.271   1.389 -0.3119  0.0168 -0.0113
  504MOL0     C69430   9.952   7.329   1.513 -0.3029 -0.2162 -0.8028
  504MOL0     N69431  10.062   7.244   1.559 -1.0126 -1.0817 -0.1063
  504MOL0     C69432  10.189   7.270   1.534 -0.8730 -0.3531  0.0704
  504MOL0     C69433  10.264   7.169   1.581  0.5825 -0.3104  0.2979
  504MOL0     C69434  10.414   7.151   1.574 -0.4866  0.0470 -0.2131
  504MOL0     C69435  10.491   7.190   1.701  0.1501 -0.3478 -1.0032
  504MOL0     C69436  10.640   7.147   1.683 -0.3142 -0.3314  0.1394
  504MOL0     C69437  10.708   7.236   1.567 -0.7790  0.3193 -0.1644
  504MOL0     O69438  10.732   7.377   1.600  0.4721  0.1441 -0.6873
  504MOL0     C69439  10.820   7.417   1.698  0.3571  0.5680 -0.0332
  504MOL0     C69440  10.904   7.321   1.756  0.3067 -0.2190 -0.6068
  504MOL0     C69441  11.000   7.355   1.849  0.7361  0.7379 -0.8191
  504MOL0     C69442  11.082   7.254   1.926 -0.3755 -0.0645 -0.3012
  504MOL0     C69443  11.018   7.490   1.882 -0.1323 -1.0515 -0.5102
  504MOL0     C69444  11.140   7.539   1.952 -0.2347  0.8525  0.5973
  504MOL0     O69445  11.124   7.636   2.042  0.1187 -0.0868  0.0356
  504MOL0     C69446  11.226   7.694   2.110  0.3037  0.0166  0.1069
  504MOL0     C69447  11.292   7.629   2.222 -0.4170  0.3172 -0.5390
  504MOL0     C69448  11.394   7.692   2.289  0.0571 -0.4455  0.1724
  504MOL0     C69449  11.452   7.817   2.252  0.1159  0.2352 -0.1408
  504MOL0     O69450  11.555   7.877   2.320 -0.6118  0.2438  0.5659
  504MOL0     C69451  11.687   7.858   2.258 -0.1835  0.4414  0.1986
  504MOL0     C69452  11.795   7.830   2.362  0.0561 -0.7589  1.1725
  504MOL0     C69453  11.792   7.687   2.409 -0.4327 -0.4239  1.0724
  504MOL0     C69454  11.931   7.637   2.440 -0.4030  1.1596 -0.0085
  504MOL0     C69455  11.929   7.522   2.542  0.4297 -0.1266  0.5668
  504MOL0     C69456  12.066   7.455   2.551  0.7852  0.1391  0.0747
  504MOL0     C69457  12.057   7.336   2.646  0.1967 -0.6175 -0.7346
  504MOL0     C69458  12.205   7.302   2.697  0.4991 -0.2293  0.1081
  504MOL0    Cl69459  12.187   7.156   2.796  0.1852  0.0929 -0.3361
  504MOL0     C69460  11.384   7.876   2.146  0.1816  0.0912 -0.5280
  504MOL0     C69461  11.270   7.823   2.077 -0.0691  0.2195  0.2250
  504MOL0     O69462  11.247   7.496   1.924 -0.1303  0.7484  0.2521
  504MOL0     C69463  10.923   7.582   1.833 -0.7793 -0.3330 -0.7602
  504MOL0     C69464  10.817   7.543   1.750  0.1330  0.1023  0.3941
  504MOL0     N69465  10.173   7.081   1.629  0.5062 -0.3639 -0.2343
  504MOL0     N69466  10.053   7.125   1.630 -0.3988 -0.4090  1.0323
  504MOL0     C69467   9.492   8.185   1.317 -0.6544 -0.2851  0.6968
  504MOL0     C69468   9.506   8.324   1.349  0.7674  1.7672 -1.5510
  504MOL0     C69469   9.788   8.700   1.444  0.1816  0.3019  0.7388
  504MOL0     C69470   9.786   8.786   1.334  0.5752 -0.0630 -0.2762
  504MOL0     C69471   9.827   8.918   1.346 -0.1964 -0.1581 -0.1540
  504MOL0     C69472   9.871   8.973   1.461  0.5250 -0.8242 -0.6710
  504MOL0     O69473   9.898   9.106   1.490 -1.0377  0.1709 -0.6929
  504MOL0     C69474   9.908   9.212   1.390 -0.2008  0.7063 -0.7095
  504MOL0     C69475   9.773   9.271   1.343  0.6454 -0.4426 -0.2466
  504MOL0     C69476   9.714   9.366   1.451 -0.5117  0.0170  1.4542
  504MOL0     C69477   9.590   9.426   1.397 -0.2305  0.3090 -0.5996
  504MOL0     C69478   9.611   9.495   1.271 -0.0974  0.3539 -1.2177
  504MOL0     C69479   9.640   9.552   1.170  0.5495 -0.7828  0.3498
  504MOL0     C69480   9.880   8.888   1.571  0.6097  0.0424  1.1064
  504MOL0     C69481   9.853   8.761   1.557 -0.0493  0.0155  0.1056
  504MOL0     C69482   9.878   8.671   1.669 -0.0299 -0.2470  0.1989
  504MOL0     H69483   9.779   8.308   1.549  0.5502 -2.0630  0.5355
  504MOL0     H69484   9.737   8.056   1.496 -1.3428  0.2053 -1.7546
  504MOL0     H69485   9.567   7.956   1.166  2.0558 -1.5820 -1.5857
  504MOL0     H69486   9.407   7.927   1.255  0.7816 -1.3964  1.9210
  504MOL0     H69487   9.438   7.700   1.284 -0.5579 -1.0761 -1.7597
  504MOL0     H69488   9.492   7.730   1.117 -3.1847 -2.6498  1.9158
  504MOL0     H69489   9.716   7.714   1.166  1.5985  1.9626  1.1564
  504MOL0     H69490   9.698   7.722   1.342  2.2120  1.8639 -0.3167
  504MOL0     H69491   9.559   7.510   1.326 -0.4856  1.5168  0.9933
  504MOL0     H69492   9.599   7.511   1.153 -0.3649 -2.6172  2.3543
  504MOL0     H69493   9.802   7.545   1.378  0.0365  1.6459 -1.5244
  504MOL0     H69494   9.839   7.480   1.216  0.1782 -0.1221  0.4668
  504MOL0     H69495   9.664   7.343   1.415 -1.2551  0.0282 -1.6409
  504MOL0     H69496   9.711   7.269   1.265 -2.2190 -1.6681  2.4854
  504MOL0     H69497   9.958   7.266   1.308 -0.9399 -2.3188 -0.4984
  504MOL0     H69498   9.874   7.163   1.404  1.5944 -1.1056 -4.8167
  504MOL0     H69499  10.002   7.422   1.485 -0.6272  0.6182  1.2434
  504MOL0     H69500   9.871   7.344   1.586  0.3645 -5.8149  1.6232
  504MOL0     H69501  10.227   7.357   1.482 -0.8039 -1.7226 -2.2972
  504MOL0     H69502  10.440   7.218   1.491  0.0137 -1.1695 -1.0720
  504MOL0     H69503  10.444   7.052   1.539  2.4829  1.1383 -1.0358
  504MOL0     H69504  10.479   7.293   1.734 -2.9806 -1.2162  0.9979
  504MOL0     H69505  10.451   7.134   1.787 -1.2296  1.0921 -0.6623
  504MOL0     H69506  10.691   7.166   1.777  1.9136 -1.2391 -0.8229
  504MOL0     H69507  10.643   7.041   1.656  1.0790  0.2057 -2.1065
  504MOL0     H69508  10.806   7.191   1.548 -0.8659  0.0587 -0.0038
  504MOL0     H69509  10.651   7.243   1.474  0.0358  1.7785 -0.5824
  504MOL0     H69510  10.895   7.219   1.720 -1.6018  0.7000 -2.9716
  504MOL0     H69511  11.182   7.244   1.881  0.0150  1.7936  0.0729
  504MOL0     H69512  11.039   7.153   1.929 -0.5123 -0.1745 -3.0784
  504MOL0     H69513  11.094   7.289   2.028  0.9711  2.2610 -1.1912
  504MOL0     H69514  11.250   7.536   2.259 -1.3002  1.1170  0.5439
  504MOL0     H69515  11.427   7.652   2.385 -0.0656  1.8241  1.2211
  504MOL0     H69516  11.694   7.776   2.186 -0.1484 -0.3298  1.0699
  504MOL0     H69517  11.711   7.942   2.192 -2.1305 -1.2611 -2.9154
  504MOL0     H69518  11.895   7.852   2.324 -0.4887  0.7934  0.5401
  504MOL0     H69519  11.789   7.898   2.447  4.5117 -0.4115  1.4160
  504MOL0     H69520  11.748   7.614   2.341 -1.6727  0.4439  0.9212
  504MOL0     H69521  11.722   7.692   2.493 -1.0836 -1.0074  0.5801
  504MOL0     H69522  11.972   7.722   2.494 -2.3124  0.7824  2.1682
  504MOL0     H69523  11.989   7.613   2.350 -0.4018 -0.2190  0.3349
  504MOL0     H69524  11.910   7.571   2.637  0.2328 -0.6804  0.8178
  504MOL0     H69525  11.843   7.457   2.519 -2.8077  3.5210  1.3326
  504MOL0     H69526  12.145   7.526   2.577 -0.7763  1.5552  1.1626
  504MOL0     H69527  12.101   7.416   2.455 -0.2391  0.4819 -0.4565
  504MOL0     H69528  12.012   7.252   2.591  0.5098 -0.2328 -1.5967
  504MOL0     H69529  12.002   7.362   2.737 -1.6792  0.6864 -2.1645
  504MOL0     H69530  12.248   7.386   2.752  1.2641  0.0124 -0.8408
  504MOL0     H69531  12.273   7.277   2.615  1.0469  2.0244 -0.1941
  504MOL0     H69532  11.415   7.974   2.110 -1.7547 -0.0522 -2.7896
  504MOL0     H69533  11.226   7.874   1.992 -1.3739 -0.1109  0.6793
  504MOL0     H69534  10.929   7.687   1.860  0.3971  0.1343 -2.6106
  504MOL0     H69535  10.735   7.607   1.717 -1.3432 -1.8906 -0.0122
  504MOL0     H69536   9.421   8.158   1.238 -1.0700 -1.9846  1.6049
  504MOL0     H69537   9.431   8.385   1.300  0.1550  1.2349 -1.2843
  504MOL0     H69538   9.754   8.743   1.239 -0.2121 -0.6391  0.2450
  504MOL0     H69539   9.803   8.971   1.254  0.9456 -0.3821 -0.6001
  504MOL0     H69540   9.965   9.294   1.435 -3.2506  1.3491  2.4353
  504MOL0     H69541   9.966   9.174   1.306  2.1200 -0.7877  1.4055
  504MOL0     H69542   9.689   9.203   1.323 -2.4484  3.5255 -2.3824
  504MOL0     H69543   9.795   9.325   1.250  1.4855 -2.2266 -1.1326
  504MOL0     H69544   9.686   9.305   1.538 -2.6801 -2.4522 -0.8177
  504MOL0     H69545   9.784   9.445   1.483 -2.1340  1.7309  0.9422
  504MOL0     H69546   9.547   9.493   1.472  1.0471  0.8950 -0.3631
  504MOL0     H69547   9.517   9.347   1.378 -2.1625  1.9574 -0.3900
  504MOL0     H69548   9.680   9.607   1.087  1.2367  1.4126  2.0303
  504MOL0     H69549   9.925   8.925   1.663 -1.1569  1.3902  1.4954
  504MOL0     H69550   9.780   8.644   1.709 -0.4621 -0.3535 -0.8861
  504MOL0     H69551   9.922   8.576   1.636  1.0409  1.2378 -3.0283
  504MOL0     H69552   9.946   8.710   1.745  2.4271 -0.8488 -1.5352
  505MOL0     O69553   6.958   2.283  10.534  0.1650 -0.5930  0.2685
  505MOL0     C69554   6.877   2.365  10.490 -0.2154  0.1877 -0.2905
  505MOL0     O69555   6.910   2.481  10.421  0.8302 -0.1988  0.0391
  505MOL0     C69556   7.042   2.493  10.386 -1.1670 -0.2788  0.2043
  505MOL0     C69557   7.082   2.473  10.249  0.6224 -0.2902  0.4626
  505MOL0     C69558   7.206   2.491  10.210 -0.1411 -0.3186  0.0446
  505MOL0     C69559   7.300   2.533  10.303  0.2832  0.5911  0.2826
  505MOL0     O69560   7.427   2.551  10.249  0.1785  0.0405 -0.1082
  505MOL0     C69561   7.493   2.670  10.300  0.3114  0.9032 -0.5620
  505MOL0     C69562   7.591   2.734  10.199  0.9158 -0.5842 -0.4443
  505MOL0     C69563   7.535   2.844  10.113  0.3342  0.1924  0.5576
  505MOL0     C69564   7.443   2.771  10.009  0.4470 -0.6271  0.4987
  505MOL0     C69565   7.508   2.771   9.866  0.8544 -0.7076  0.2049
  505MOL0     C69566   7.433   2.702   9.752 -0.3385  0.2474  1.0338
  505MOL0     C69567   7.523   2.712   9.622  0.3859  0.1243  0.2851
  505MOL0     C69568   7.602   2.583   9.605 -0.1010  0.7040 -0.4267
  505MOL0     N69569   7.677   2.585   9.473 -0.1377 -0.2925  0.7783
  505MOL0     C69570   7.631   2.575   9.342  0.3115  1.2334  0.1287
  505MOL0     C69571   7.744   2.583   9.266  0.4915 -0.2579 -0.1573
  505MOL0     C69572   7.755   2.575   9.118 -0.5020  0.0540  0.0464
  505MOL0     C69573   7.799   2.434   9.077 -0.2814 -0.3088  0.4109
  505MOL0     C69574   7.692   2.329   9.085  0.5212 -0.3585 -0.0574
  505MOL0     C69575   7.739   2.191   9.040 -0.0380  0.8592 -0.3464
  505MOL0     O69576   7.798   2.227   8.918 -0.4496  0.7461  0.0803
  505MOL0     C69577   7.862   2.127   8.858 -0.5802  0.0772  0.5907
  505MOL0     C69578   7.782   2.032   8.794 -1.0544  0.2510 -0.3780
  505MOL0     C69579   7.841   1.926   8.725 -0.4500 -0.5488 -0.3594
  505MOL0     C69580   7.746   1.837   8.645 -0.9723 -0.1750 -0.0652
  505MOL0     C69581   7.982   1.910   8.725 -0.1092 -0.8216 -0.2270
  505MOL0     C69582   8.062   1.810   8.650  0.1122  0.5472 -0.6694
  505MOL0     O69583   8.200   1.817   8.666  0.4481  1.0865  0.4193
  505MOL0     C69584   8.265   1.729   8.584 -0.6385 -0.3612 -0.1376
  505MOL0     C69585   8.338   1.782   8.477 -0.1085 -0.5694 -0.4864
  505MOL0     C69586   8.414   1.690   8.406 -0.2102 -0.6182  0.4419
  505MOL0     C69587   8.428   1.558   8.444 -0.2731  0.0978 -0.3933
  505MOL0     O69588   8.507   1.486   8.361 -0.9593  0.1397 -1.5300
  505MOL0     C69589   8.567   1.366   8.409  0.0360 -1.0262  0.2448
  505MOL0     C69590   8.684   1.333   8.320 -0.5793 -0.4624 -0.5486
  505MOL0     C69591   8.808   1.366   8.405 -0.4920 -0.6157  0.4069
  505MOL0     C69592   8.947   1.346   8.351 -0.9808 -0.2272 -0.4857
  505MOL0     C69593   9.035   1.288   8.459  0.6382 -0.3320 -0.5340
  505MOL0     C69594   9.182   1.287   8.430 -0.7363 -0.0612  0.0298
  505MOL0     C69595   9.251   1.254   8.560 -0.1436 -0.5078  0.4130
  505MOL0     C69596   9.400   1.244   8.531 -0.3834 -0.8607 -0.9114
  505MOL0    Cl69597   9.418   1.088   8.429 -0.1870 -0.3821 -0.2054
  505MOL0     C69598   8.363   1.516   8.558 -1.2286  0.7644 -0.5377
  505MOL0     C69599   8.275   1.597   8.626  0.1327  0.2613  0.2294
  505MOL0     O69600   8.003   1.718   8.586  0.3087 -0.3446  0.2132
  505MOL0     C69601   8.063   2.012   8.784  0.3847  0.0266  0.4638
  505MOL0     C69602   8.000   2.128   8.849 -0.4890  0.3470 -0.5194
  505MOL0     N69603   7.855   2.599   9.357  0.3053 -0.3058  0.6851
  505MOL0     N69604   7.813   2.596   9.470  0.8511 -0.0222 -0.3346
  505MOL0     C69605   7.268   2.561  10.438 -0.1351 -0.7832  0.2924
  505MOL0     C69606   7.142   2.531  10.480  0.3870  0.0992  0.0819
  505MOL0     C69607   6.730   2.324  10.505  0.8021  0.4865 -0.6561
  505MOL0     C69608   6.697   2.237  10.612 -0.3776  1.0637 -0.4166
  505MOL0     C69609   6.569   2.195  10.638  0.0686  0.2132 -0.5975
  505MOL0     C69610   6.463   2.255  10.569 -0.2647 -0.3878  0.1020
  505MOL0     O69611   6.329   2.238  10.591  0.1321  0.0394 -0.2498
  505MOL0     C69612   6.297   2.151  10.705  0.4816 -0.5745  0.3409
  505MOL0     C69613   6.145   2.120  10.724  0.4312 -0.7729  0.1296
  505MOL0     C69614   6.089   2.184  10.850 -0.1387  0.1156 -0.8051
  505MOL0     C69615   5.943   2.149  10.876  0.8666  0.1919  1.0027
  505MOL0     C69616   5.858   2.207  10.772 -0.0399  0.7781  0.6521
  505MOL0     C69617   5.801   2.284  10.690 -1.1637  0.4861  0.1553
  505MOL0     C69618   6.493   2.335  10.455  0.0372 -0.5036 -0.4637
  505MOL0     C69619   6.624   2.377  10.419  0.2362  0.1025  0.4108
  505MOL0     C69620   6.652   2.453  10.288 -0.3755  0.8309 -0.2938
  505MOL0     H69621   7.017   2.431  10.172  0.9547  1.9159 -1.1183
  505MOL0     H69622   7.230   2.473  10.106 -1.4501  0.3954 -0.3948
  505MOL0     H69623   7.556   2.632  10.381  0.1110 -0.4457 -1.0182
  505MOL0     H69624   7.420   2.738  10.345 -0.4983 -0.9833  1.1700
  505MOL0     H69625   7.666   2.775  10.267 -2.4218  1.6935  2.2230
  505MOL0     H69626   7.636   2.653  10.142 -0.4128 -1.0250 -0.8908
  505MOL0     H69627   7.465   2.898  10.178 -2.2233 -0.9652 -1.1055
  505MOL0     H69628   7.617   2.908  10.079  0.9136  0.1441  1.7949
  505MOL0     H69629   7.421   2.672  10.050 -3.3144  0.8049  2.3859
  505MOL0     H69630   7.343   2.816  10.013 -0.1985 -1.6277 -2.4162
  505MOL0     H69631   7.605   2.720   9.873  1.6100  0.1107 -2.7823
  505MOL0     H69632   7.534   2.874   9.841  0.3241 -0.3590  1.0213
  505MOL0     H69633   7.399   2.602   9.781  0.5433 -0.5133 -0.4071
  505MOL0     H69634   7.337   2.745   9.722  0.1964  0.6025 -0.2458
  505MOL0     H69635   7.578   2.806   9.620 -0.0252  0.3554 -0.2836
  505MOL0     H69636   7.454   2.719   9.537  2.4568 -2.9314 -1.8940
  505MOL0     H69637   7.670   2.564   9.688  0.7509  0.4241 -1.1642
  505MOL0     H69638   7.527   2.504   9.600  0.8493 -0.2827  0.3342
  505MOL0     H69639   7.529   2.551   9.312  0.6501  0.1527 -0.2089
  505MOL0     H69640   7.833   2.650   9.100 -1.6864  1.4516  0.5731
  505MOL0     H69641   7.665   2.604   9.063  0.5268  0.3879 -1.5227
  505MOL0     H69642   7.840   2.437   8.976  1.7920  0.5898  1.2314
  505MOL0     H69643   7.889   2.405   9.132  3.0015  0.3366 -4.0315
  505MOL0     H69644   7.665   2.310   9.189  3.9659 -0.2618  1.0031
  505MOL0     H69645   7.603   2.364   9.031 -0.2862  0.1149  1.5216
  505MOL0     H69646   7.802   2.137   9.112  2.7367  1.3185 -2.2817
  505MOL0     H69647   7.646   2.135   9.025 -1.1025  1.5851  2.7298
  505MOL0     H69648   7.674   2.037   8.797 -1.0275  1.9324 -0.9765
  505MOL0     H69649   7.779   1.836   8.540  0.3837 -3.0863  0.2928
  505MOL0     H69650   7.647   1.883   8.639 -1.2080 -0.8140 -1.6443
  505MOL0     H69651   7.734   1.735   8.682  3.0970 -1.4902 -1.8094
  505MOL0     H69652   8.326   1.886   8.451  3.0668 -0.5701 -2.4555
  505MOL0     H69653   8.462   1.714   8.312  1.6532 -1.0501  1.2487
  505MOL0     H69654   8.603   1.384   8.510  2.0832  1.6939 -0.8478
  505MOL0     H69655   8.495   1.284   8.415  0.0183 -0.9414  1.2085
  505MOL0     H69656   8.692   1.228   8.291 -2.7162 -0.8642  0.1382
  505MOL0     H69657   8.689   1.383   8.223  1.0981 -3.4162 -2.1027
  505MOL0     H69658   8.806   1.302   8.494  0.5366 -0.9438  0.2088
  505MOL0     H69659   8.812   1.468   8.443 -1.2573 -1.1230  1.9512
  505MOL0     H69660   8.994   1.437   8.311 -0.0533 -1.4817 -2.3840
  505MOL0     H69661   8.938   1.270   8.274 -1.5779 -0.4416 -0.2110
  505MOL0     H69662   9.014   1.330   8.558  4.6118 -1.1728  0.8198
  505MOL0     H69663   9.008   1.182   8.464 -0.7845  0.0766  2.5480
  505MOL0     H69664   9.222   1.382   8.394  0.4966 -0.4247  0.3943
  505MOL0     H69665   9.201   1.237   8.334 -5.3122  0.5996 -1.4509
  505MOL0     H69666   9.216   1.160   8.604 -2.4010 -0.8758 -1.8903
  505MOL0     H69667   9.231   1.333   8.633  2.6415  1.1772 -0.5046
  505MOL0     H69668   9.450   1.235   8.628  0.1479  1.2853 -0.9306
  505MOL0     H69669   9.445   1.329   8.480  1.9876 -2.0452 -0.9000
  505MOL0     H69670   8.393   1.417   8.589  1.3904  1.3895 -0.7990
  505MOL0     H69671   8.221   1.570   8.716  2.6878  0.6791  1.9899
  505MOL0     H69672   8.171   2.015   8.785  0.4139 -0.6826  1.2702
  505MOL0     H69673   8.064   2.203   8.895 -0.4785  0.1330 -0.1777
  505MOL0     H69674   7.340   2.611  10.501 -0.5608  0.3792 -0.0991
  505MOL0     H69675   7.133   2.537  10.588  3.0299 -3.8222  0.7031
  505MOL0     H69676   6.776   2.188  10.668  0.0674  4.0270  1.7832
  505MOL0     H69677   6.564   2.113  10.708  3.9591  0.6310  0.3895
  505MOL0     H69678   6.336   2.051  10.683 -0.7161 -1.3494  1.5698
  505MOL0     H69679   6.336   2.178  10.803 -2.4354 -1.4082  1.8483
  505MOL0     H69680   6.135   2.012  10.737  2.1327 -0.9106  0.5304
  505MOL0     H69681   6.097   2.156  10.633  0.0177  0.5104  0.8401
  505MOL0     H69682   6.150   2.157  10.936  1.0541 -1.9315 -2.1895
  505MOL0     H69683   6.101   2.292  10.849 -2.6460  0.8203  5.1378
  505MOL0     H69684   5.911   2.182  10.975 -0.0395  1.3213  0.3465
  505MOL0     H69685   5.931   2.040  10.878 -2.0610  0.2832 -2.4320
  505MOL0     H69686   5.748   2.342  10.617  1.6053  2.5366 -0.3977
  505MOL0     H69687   6.408   2.358  10.392  0.2072 -1.1764 -0.9537
  505MOL0     H69688   6.553   2.458  10.243 -0.7473 -0.4896  0.3407
  505MOL0     H69689   6.690   2.555  10.304  0.0918  0.3216  2.1410
  505MOL0     H69690   6.732   2.401  10.234 -1.5204 -1.0294 -0.2803
  506MOL0     O69691   2.958   0.198   8.866  0.1658  0.8835  0.6644
  506MOL0     C69692   3.027   0.162   8.965  0.3514 -0.2953  0.6887
  506MOL0     O69693   3.160   0.122   8.951 -0.0613  0.5896 -1.1042
  506MOL0     C69694   3.229   0.128   8.828  0.3276 -0.0003  0.2741
  506MOL0     C69695   3.192   0.062   8.714 -0.3717 -0.1150 -0.2957
  506MOL0     C69696   3.286   0.047   8.609 -0.5218 -0.2923  1.0241
  506MOL0     C69697   3.414   0.100   8.625  0.1588  0.2286  0.6669
  506MOL0     O69698   3.494   0.058   8.521  1.3472  1.5676 -0.5854
  506MOL0     C69699   3.625   0.112   8.509 -0.2016 -0.3631  0.4104
  506MOL0     C69700   3.723   0.035   8.601  0.2649  0.6540 -0.1728
  506MOL0     C69701   3.846   0.122   8.609  0.5738  0.6023 -0.6428
  506MOL0     C69702   3.942   0.093   8.720  0.5158  0.9172 -0.0186
  506MOL0     C69703   4.074   0.171   8.714  0.2433 -0.2851 -0.0363
  506MOL0     C69704   4.059   0.321   8.717  0.0605 -0.4260 -0.0509
  506MOL0     C69705   4.189   0.402   8.702  0.1009 -0.3775 -0.5843
  506MOL0     C69706   4.169   0.549   8.721  0.7326 -0.4693 -0.5373
  506MOL0     N69707   4.274   0.646   8.687 -0.3317  0.2800  0.9399
  506MOL0     C69708   4.402   0.656   8.729 -0.6149 -0.8753  0.0109
  506MOL0     C69709   4.433   0.785   8.721  0.5155  0.1090  0.3630
  506MOL0     C69710   4.564   0.842   8.770 -0.4798  0.5175 -1.3863
  506MOL0     C69711   4.684   0.800   8.690 -0.0416  0.0173  0.0190
  506MOL0     C69712   4.814   0.867   8.723  0.3880  0.0245  0.2062
  506MOL0     C69713   4.932   0.843   8.627 -0.3905 -0.5832 -0.5920
  506MOL0     O69714   4.989   0.715   8.652 -0.8508  0.5467 -0.6368
  506MOL0     C69715   5.080   0.708   8.757  0.1642  0.6051  0.8582
  506MOL0     C69716   5.106   0.822   8.847  0.0326  0.0413 -0.2726
  506MOL0     C69717   5.197   0.800   8.956  0.5308  0.6707  0.1893
  506MOL0     C69718   5.212   0.924   9.046  1.1255  0.5919  0.6506
  506MOL0     C69719   5.263   0.671   8.968 -0.4007 -0.9115 -0.0468
  506MOL0     C69720   5.360   0.630   9.082 -0.1823 -0.1211 -0.1539
  506MOL0     O69721   5.454   0.527   9.086  0.5265  0.0566 -0.0927
  506MOL0     C69722   5.548   0.523   9.186 -0.4896 -1.0276 -0.0116
  506MOL0     C69723   5.611   0.643   9.218  0.7084 -0.6467 -0.0931
  506MOL0     C69724   5.697   0.659   9.328  0.2477  0.3391  0.5675
  506MOL0     C69725   5.716   0.545   9.405  0.4955  0.2682  0.1119
  506MOL0     O69726   5.800   0.543   9.510 -0.3148 -0.2309 -0.0562
  506MOL0     C69727   5.938   0.539   9.474  0.6473  0.2525  0.8875
  506MOL0     C69728   6.031   0.591   9.575  0.6134 -0.1669 -0.7700
  506MOL0     C69729   6.052   0.495   9.688  0.6319 -0.1558  0.9941
  506MOL0     C69730   6.083   0.574   9.807 -0.5993  0.3301  0.2885
  506MOL0     C69731   6.146   0.497   9.925 -0.3534 -0.6660  0.9103
  506MOL0     C69732   6.057   0.505  10.054 -0.2593 -0.2079  0.2794
  506MOL0     C69733   6.119   0.445  10.185  0.3940  0.1345  0.2163
  506MOL0     C69734   6.092   0.291  10.194  0.2358 -0.4301 -0.3961
  506MOL0    Cl69735   6.179   0.203  10.078 -0.2931 -0.1789 -0.1093
  506MOL0     C69736   5.652   0.424   9.371 -1.0085 -0.0768 -0.4804
  506MOL0     C69737   5.572   0.414   9.257  0.7867 -0.2002  0.0666
  506MOL0     O69738   5.323   0.690   9.184 -0.3825  0.0457 -0.5156
  506MOL0     C69739   5.230   0.569   8.877  0.6355 -0.3997  0.0947
  506MOL0     C69740   5.139   0.584   8.778 -0.1598 -0.5079 -0.0398
  506MOL0     N69741   4.329   0.847   8.657 -0.4185 -0.2200  0.4401
  506MOL0     N69742   4.237   0.764   8.639 -0.6592  0.1519  0.0762
  506MOL0     C69743   3.447   0.177   8.737  0.2962  0.9335  0.0931
  506MOL0     C69744   3.351   0.189   8.838  0.8913 -0.0090 -0.1179
  506MOL0     C69745   2.957   0.165   9.097 -1.7281 -0.4071  0.1978
  506MOL0     C69746   3.039   0.174   9.216  0.6326  0.4537  1.1045
  506MOL0     C69747   2.978   0.173   9.342  0.9995  0.3553 -0.5451
  506MOL0     C69748   2.839   0.161   9.353 -0.5090 -1.0386  0.7810
  506MOL0     O69749   2.799   0.165   9.485 -0.0820 -0.4625 -0.1974
  506MOL0     C69750   2.660   0.139   9.504 -0.2282 -0.2049  0.8868
  506MOL0     C69751   2.642   0.129   9.664 -0.2452 -0.1585 -0.4413
  506MOL0     C69752   2.623   0.257   9.746  0.3384  0.0091 -0.2241
  506MOL0     C69753   2.760   0.336   9.767  0.8077  0.2539 -0.1365
  506MOL0     C69754   2.749   0.444   9.866  0.2857 -0.1010 -0.2393
  506MOL0     C69755   2.747   0.546   9.923  0.0319 -0.1573 -0.4498
  506MOL0     C69756   2.757   0.146   9.240 -0.1089  0.0243  1.2400
  506MOL0     C69757   2.818   0.140   9.116 -0.3094  0.3516  0.3762
  506MOL0     C69758   2.723   0.108   9.005  0.3441  0.0055  0.0961
  506MOL0     H69759   3.089   0.030   8.699 -1.0005  1.5941  0.1740
  506MOL0     H69760   3.254  -0.003   8.518 -0.1715  0.7303  0.3232
  506MOL0     H69761   3.614   0.220   8.521  1.1608 -0.2391  0.6532
  506MOL0     H69762   3.653   0.107   8.404 -0.6613  1.5886  0.1542
  506MOL0     H69763   3.683   0.010   8.699  0.6823 -1.2348 -0.4360
  506MOL0     H69764   3.742  -0.062   8.553  1.2077  0.6380  0.2068
  506MOL0     H69765   3.895   0.117   8.511 -0.7912 -1.0861 -1.2917
  506MOL0     H69766   3.810   0.223   8.627 -2.1447 -0.7402  2.8577
  506MOL0     H69767   3.893   0.118   8.815 -2.3117 -1.2839 -0.7480
  506MOL0     H69768   3.967  -0.013   8.723  2.8338  1.4100  2.9096
  506MOL0     H69769   4.129   0.159   8.620  0.5079 -1.5475  0.2554
  506MOL0     H69770   4.140   0.140   8.795  3.0276 -0.1038 -2.0842
  506MOL0     H69771   4.002   0.344   8.627 -2.4707 -3.7568  0.4820
  506MOL0     H69772   3.997   0.351   8.803  0.0092  1.0907 -0.5920
  506MOL0     H69773   4.243   0.384   8.609  0.8355  2.4245 -0.7886
  506MOL0     H69774   4.251   0.362   8.782 -1.4869 -0.5531  0.6224
  506MOL0     H69775   4.067   0.571   8.685 -0.0748 -1.2663  1.1526
  506MOL0     H69776   4.158   0.563   8.829 -1.7597 -1.9593 -0.5046
  506MOL0     H69777   4.454   0.568   8.764 -0.4777 -0.0220  2.1087
  506MOL0     H69778   4.595   0.813   8.871  1.8853  0.0308 -2.1900
  506MOL0     H69779   4.558   0.951   8.769  1.3830  0.7798  1.6886
  506MOL0     H69780   4.694   0.691   8.691  0.3201  0.0476  1.4496
  506MOL0     H69781   4.674   0.826   8.584 -1.0197  1.4685  0.4514
  506MOL0     H69782   4.784   0.971   8.737 -1.6418 -0.7603  2.4382
  506MOL0     H69783   4.840   0.836   8.825  0.6179 -1.3878 -0.2637
  506MOL0     H69784   4.904   0.853   8.522 -2.0412  5.3796  0.0631
  506MOL0     H69785   5.000   0.928   8.630 -1.3086  0.1493  0.8241
  506MOL0     H69786   5.048   0.914   8.852 -0.9846 -0.6503  2.6245
  506MOL0     H69787   5.193   1.019   8.995  1.5955 -0.3230 -1.3328
  506MOL0     H69788   5.311   0.923   9.092  3.2585 -0.1716 -3.4407
  506MOL0     H69789   5.136   0.918   9.124 -0.7242  2.4249 -0.8807
  506MOL0     H69790   5.609   0.734   9.158 -1.3239  0.3886  1.4549
  506MOL0     H69791   5.751   0.750   9.348  1.0457 -0.3945  1.9058
  506MOL0     H69792   5.972   0.436   9.460  2.6817  0.9500  0.3589
  506MOL0     H69793   5.944   0.600   9.383 -2.2257 -1.2115 -0.4538
  506MOL0     H69794   6.126   0.611   9.525  2.4253 -0.2993  2.3542
  506MOL0     H69795   5.997   0.689   9.610  1.9583  0.1040 -0.1667
  506MOL0     H69796   6.136   0.429   9.666  0.6205  0.4393 -1.0300
  506MOL0     H69797   5.967   0.427   9.697 -1.0089  1.6164 -0.2456
  506MOL0     H69798   5.987   0.615   9.841 -0.8772  0.3647 -0.5099
  506MOL0     H69799   6.146   0.660   9.784 -0.4515  0.0018 -0.5459
  506MOL0     H69800   6.164   0.392   9.901  0.9207  0.0858 -1.8175
  506MOL0     H69801   6.250   0.528   9.939 -0.1503  0.0924 -1.7647
  506MOL0     H69802   5.956   0.468  10.034 -1.3876  1.5624  2.3284
  506MOL0     H69803   6.046   0.613  10.064 -1.4187 -0.0289 -2.2635
  506MOL0     H69804   6.064   0.489  10.269 -4.6203  2.3522 -3.6473
  506MOL0     H69805   6.225   0.468  10.193  0.3114 -0.1776  3.4227
  506MOL0     H69806   5.983   0.279  10.191 -0.1074  2.0897 -0.2034
  506MOL0     H69807   6.123   0.263  10.295 -3.2259 -0.0218  0.9407
  506MOL0     H69808   5.673   0.331   9.423  4.7266  0.7843 -0.6602
  506MOL0     H69809   5.528   0.319   9.228  0.4607  0.4976 -1.8508
  506MOL0     H69810   5.281   0.474   8.863 -2.0265 -2.0030  0.5581
  506MOL0     H69811   5.115   0.518   8.695  4.2440 -0.3890 -1.6686
  506MOL0     H69812   3.549   0.208   8.758  0.3575  0.4844  0.4616
  506MOL0     H69813   3.372   0.242   8.930  4.8708 -0.8103 -0.3998
  506MOL0     H69814   3.145   0.194   9.202 -0.0972  3.9217 -0.3998
  506MOL0     H69815   3.046   0.179   9.426  0.7456 -2.6028 -0.0053
  506MOL0     H69816   2.591   0.213   9.461 -1.3236 -1.7470 -0.0982
  506MOL0     H69817   2.630   0.044   9.459 -2.2764  1.3511 -1.2438
  506MOL0     H69818   2.724   0.065   9.698  0.6976  1.4033  0.3407
  506MOL0     H69819   2.556   0.062   9.671  1.4707 -2.2655  2.5447
  506MOL0     H69820   2.557   0.323   9.689 -0.7181 -0.3238  0.5651
  506MOL0     H69821   2.563   0.236   9.836 -1.2211  1.6168 -0.8259
  506MOL0     H69822   2.791   0.390   9.677 -2.9597  1.8459 -0.6877
  506MOL0     H69823   2.829   0.256   9.793 -3.7073 -3.5630  1.5549
  506MOL0     H69824   2.735   0.642   9.970 -2.2359  0.3639 -1.9339
  506MOL0     H69825   2.652   0.132   9.264  0.2847  0.2998  3.3113
  506MOL0     H69826   2.757   0.026   8.942 -2.9192 -1.5704  0.2068
  506MOL0     H69827   2.626   0.068   9.034  0.0224 -2.9713 -4.1415
  506MOL0     H69828   2.711   0.202   8.951  1.6634 -0.8150 -1.7379
  507MOL0     O69829   5.152  10.283   4.289  0.2290  0.3822  0.7465
  507MOL0     C69830   5.228  10.207   4.352  0.5835  0.0594  1.0844
  507MOL0     O69831   5.225  10.069   4.352 -0.2235 -0.0531 -0.2534
  507MOL0     C69832   5.111  10.008   4.296 -0.2571 -0.2239 -0.1262
  507MOL0     C69833   5.109   9.960   4.164  0.6789 -1.0364  0.1299
  507MOL0     C69834   5.004   9.880   4.122  0.3325  0.1396  0.1681
  507MOL0     C69835   4.893   9.855   4.199 -0.3725 -1.0224  0.9089
  507MOL0     O69836   4.765   9.805   4.160 -0.5959 -0.1856  0.1690
  507MOL0     C69837   4.725   9.831   4.026  0.4179 -0.5585 -0.2619
  507MOL0     C69838   4.588   9.781   4.004  0.5875 -0.3577 -0.2213
  507MOL0     C69839   4.488   9.842   4.114  0.7318  0.1867  0.5447
  507MOL0     C69840   4.343   9.790   4.102 -0.7102  0.0306 -0.1269
  507MOL0     C69841   4.316   9.672   4.200  0.2583 -0.4995  0.2620
  507MOL0     C69842   4.198   9.583   4.160 -0.1639  0.0494 -0.9708
  507MOL0     C69843   4.206   9.492   4.041  0.5815  0.2346  0.4155
  507MOL0     C69844   4.086   9.406   4.041  0.6822  0.4167 -0.6550
  507MOL0     N69845   4.084   9.318   3.924  0.0877 -0.0127 -0.0706
  507MOL0     C69846   4.151   9.200   3.914 -0.7378  0.3987  0.2957
  507MOL0     C69847   4.136   9.164   3.787  0.2166 -0.4297 -0.5190
  507MOL0     C69848   4.198   9.046   3.717  0.3279  0.1344  0.2694
  507MOL0     C69849   4.090   8.953   3.657 -0.4337  0.3474  0.0338
  507MOL0     C69850   4.151   8.812   3.641 -1.0914  0.0639 -0.5375
  507MOL0     C69851   4.065   8.708   3.575 -0.2043  0.3191  0.2567
  507MOL0     O69852   3.928   8.693   3.628 -1.0140 -0.0132  0.4933
  507MOL0     C69853   3.854   8.603   3.550  0.8654  0.7585  0.0601
  507MOL0     C69854   3.901   8.531   3.441  0.5948 -1.0708  0.4107
  507MOL0     C69855   3.834   8.443   3.367 -0.2554 -0.5653 -0.2663
  507MOL0     C69856   3.906   8.385   3.246  0.0463 -0.5315 -0.1796
  507MOL0     C69857   3.701   8.417   3.391  0.7325  0.7414  0.6710
  507MOL0     C69858   3.625   8.316   3.318  0.1993  0.3154 -0.0928
  507MOL0     O69859   3.485   8.332   3.329 -0.5458  0.0952  1.2231
  507MOL0     C69860   3.416   8.228   3.284 -0.0692 -0.4042  0.8294
  507MOL0     C69861   3.358   8.137   3.373  0.1238  0.8059  0.4339
  507MOL0     C69862   3.281   8.028   3.334 -0.1174  0.3598 -0.6182
  507MOL0     C69863   3.267   8.000   3.199  0.9272 -0.5637  1.3166
  507MOL0     O69864   3.214   7.879   3.160  0.0300 -0.0625 -0.9599
  507MOL0     C69865   3.214   7.826   3.032 -0.4315 -0.0291  0.3281
  507MOL0     C69866   3.345   7.774   2.985 -0.4230  0.0955 -0.9139
  507MOL0     C69867   3.402   7.672   3.087 -0.4352  0.4521  0.6647
  507MOL0     C69868   3.522   7.591   3.011  0.0293 -0.0776 -0.6571
  507MOL0     C69869   3.599   7.498   3.099 -0.9706  0.4845  0.1514
  507MOL0     C69870   3.536   7.355   3.101 -0.6461  0.7946  0.7777
  507MOL0     C69871   3.626   7.250   3.172  0.2134 -0.4752 -0.4213
  507MOL0     C69872   3.746   7.197   3.088 -0.1114  0.2951 -0.0043
  507MOL0    Cl69873   3.858   7.103   3.201 -0.2834  0.3103 -0.0846
  507MOL0     C69874   3.312   8.102   3.108  0.1611  0.7063  0.0565
  507MOL0     C69875   3.388   8.211   3.150  0.9115  0.1919 -0.6274
  507MOL0     O69876   3.683   8.218   3.272  1.3112 -0.1780  0.5820
  507MOL0     C69877   3.645   8.482   3.500  1.1085 -0.0473 -0.0501
  507MOL0     C69878   3.717   8.565   3.583 -0.5974 -0.1796 -0.2021
  507MOL0     N69879   4.064   9.266   3.724  0.4894  0.0305 -0.1422
  507MOL0     N69880   4.039   9.360   3.806 -0.1681 -0.5691  0.2938
  507MOL0     C69881   4.892   9.892   4.330 -0.8242 -0.2998 -0.2076
  507MOL0     C69882   5.007   9.965   4.374 -0.7101 -0.0819 -0.5247
  507MOL0     C69883   5.333  10.266   4.424 -0.2169 -0.0060 -1.3145
  507MOL0     C69884   5.375  10.205   4.546  0.3761  0.7308 -0.0152
  507MOL0     C69885   5.488  10.249   4.613  0.2358 -0.5746 -0.4346
  507MOL0     C69886   5.553  10.371   4.579  0.2814 -0.2050 -0.4944
  507MOL0     O69887   5.658  10.414   4.659 -0.1211 -0.6286  0.3966
  507MOL0     C69888   5.699  10.552   4.662  0.8455 -0.0096  0.4312
  507MOL0     C69889   5.789  10.563   4.780  0.3442  0.9261 -0.5709
  507MOL0     C69890   5.720  10.548   4.916  0.7008  1.3320  1.0191
  507MOL0     C69891   5.826  10.532   5.022 -0.3564 -0.5669  0.2795
  507MOL0     C69892   5.915  10.652   5.032  0.2090 -0.3637 -0.0034
  507MOL0     C69893   5.951  10.772   5.047  0.1376 -0.3865  0.5626
  507MOL0     C69894   5.510  10.419   4.453  0.1006  0.2096  0.0875
  507MOL0     C69895   5.406  10.376   4.374 -0.3776 -0.2626 -0.4663
  507MOL0     C69896   5.383  10.443   4.245 -0.1716 -0.7776 -0.2672
  507MOL0     H69897   5.193   9.974   4.096  0.0500 -2.8029 -1.1005
  507MOL0     H69898   5.014   9.860   4.015  1.1058 -1.1565  0.4476
  507MOL0     H69899   4.798   9.787   3.958  2.3075  3.1302 -0.8678
  507MOL0     H69900   4.725   9.938   4.001 -2.2054 -0.5811 -0.6603
  507MOL0     H69901   4.543   9.801   3.907  1.2878  2.0913 -0.0886
  507MOL0     H69902   4.593   9.673   4.026 -1.2653 -0.3935  0.1886
  507MOL0     H69903   4.528   9.856   4.215 -1.2413 -0.7273  1.5070
  507MOL0     H69904   4.475   9.941   4.070 -0.9244 -0.4045 -0.3549
  507MOL0     H69905   4.269   9.869   4.119  2.2336  2.9376  0.1116
  507MOL0     H69906   4.337   9.756   3.998 -1.0358  0.1342 -0.1425
  507MOL0     H69907   4.304   9.707   4.303 -0.8734  1.3012 -0.4308
  507MOL0     H69908   4.410   9.617   4.209 -0.6387 -1.7830  2.4360
  507MOL0     H69909   4.196   9.518   4.248  0.0864  4.3866  2.5813
  507MOL0     H69910   4.098   9.628   4.154  0.6380  1.7397 -2.5630
  507MOL0     H69911   4.292   9.425   4.049 -1.2163 -2.2937 -0.4742
  507MOL0     H69912   4.216   9.550   3.948  1.3065 -1.8383 -0.8634
  507MOL0     H69913   4.105   9.344   4.130  1.8923  0.6085 -0.7659
  507MOL0     H69914   3.999   9.470   4.054  0.4433 -0.0921  0.4570
  507MOL0     H69915   4.187   9.150   4.003 -1.5559  0.9761  0.9551
  507MOL0     H69916   4.258   9.001   3.796  2.5277  0.8928 -0.8637
  507MOL0     H69917   4.267   9.071   3.635 -1.2727 -1.6932 -1.7632
  507MOL0     H69918   4.001   8.962   3.720 -1.3881  2.1081 -1.4757
  507MOL0     H69919   4.075   8.989   3.555  3.5797  0.0151 -0.8241
  507MOL0     H69920   4.238   8.811   3.574 -1.6295  1.2891 -1.2761
  507MOL0     H69921   4.177   8.770   3.739  2.2019 -0.5461 -1.5530
  507MOL0     H69922   4.067   8.724   3.467 -1.3084  1.0233  0.3236
  507MOL0     H69923   4.127   8.619   3.585  0.9372  0.2701 -4.7613
  507MOL0     H69924   4.002   8.542   3.402  1.0327 -0.7575  1.5714
  507MOL0     H69925   4.005   8.430   3.234 -0.1218 -0.1784 -0.2701
  507MOL0     H69926   3.859   8.404   3.149 -1.2208  1.2977  0.7384
  507MOL0     H69927   3.915   8.278   3.267  1.4868 -0.2123  0.9744
  507MOL0     H69928   3.390   8.150   3.476  1.4517  0.0471  0.1369
  507MOL0     H69929   3.253   7.946   3.400  0.8107 -1.4923 -2.4203
  507MOL0     H69930   3.135   7.751   3.026 -1.0704  0.4894  1.8631
  507MOL0     H69931   3.176   7.902   2.963 -1.5753 -1.4235 -0.6311
  507MOL0     H69932   3.344   7.736   2.882  1.2014  0.0917 -0.9553
  507MOL0     H69933   3.424   7.849   2.987  3.2727 -3.3321 -2.7095
  507MOL0     H69934   3.335   7.589   3.112  0.7401 -0.9746 -0.7337
  507MOL0     H69935   3.442   7.724   3.175 -0.0138 -0.7050  1.1723
  507MOL0     H69936   3.587   7.672   2.976 -1.6130  2.6184  2.0646
  507MOL0     H69937   3.487   7.542   2.920  2.0816 -0.8844 -1.0602
  507MOL0     H69938   3.701   7.488   3.061 -0.6348 -0.8586  1.3008
  507MOL0     H69939   3.599   7.534   3.202  0.2635  1.0881 -0.0379
  507MOL0     H69940   3.511   7.324   3.000 -3.3898  3.2380  0.5640
  507MOL0     H69941   3.446   7.366   3.162  0.4395 -1.0710  2.8971
  507MOL0     H69942   3.569   7.165   3.210  2.2757 -1.3274  0.9279
  507MOL0     H69943   3.664   7.303   3.260  1.4045 -1.1200 -0.5343
  507MOL0     H69944   3.795   7.289   3.055 -1.4699  0.0917 -2.8601
  507MOL0     H69945   3.716   7.133   3.005 -1.4348  1.8565 -0.7923
  507MOL0     H69946   3.282   8.092   3.005  0.4784  2.8109 -0.2741
  507MOL0     H69947   3.406   8.287   3.074 -1.4604 -0.8503 -2.3374
  507MOL0     H69948   3.541   8.460   3.520  0.5456  3.5916  1.7509
  507MOL0     H69949   3.668   8.603   3.672  0.5568 -1.4397  1.0368
  507MOL0     H69950   4.808   9.861   4.393 -0.8684  0.7522  0.2673
  507MOL0     H69951   5.016   9.974   4.482  1.4622 -3.1286 -0.3227
  507MOL0     H69952   5.317  10.129   4.597  0.4025  1.2874  0.8580
  507MOL0     H69953   5.522  10.202   4.705  1.4143  0.0833 -0.5169
  507MOL0     H69954   5.752  10.598   4.579  0.6103  0.7413  0.6890
  507MOL0     H69955   5.612  10.614   4.689  2.1279  2.3871 -0.6592
  507MOL0     H69956   5.851  10.653   4.770  1.3069  0.6740  2.0941
  507MOL0     H69957   5.862  10.482   4.779  0.1470  0.7205  0.2416
  507MOL0     H69958   5.657  10.630   4.948 -1.1434  0.4533 -0.1648
  507MOL0     H69959   5.656  10.459   4.914  0.1152  1.7053 -1.8536
  507MOL0     H69960   5.893  10.448   4.998 -1.6424 -2.1739  2.0651
  507MOL0     H69961   5.780  10.500   5.116  0.4424 -0.3077  0.7742
  507MOL0     H69962   6.003  10.865   5.058  0.3463 -0.2737 -1.1131
  507MOL0     H69963   5.568  10.505   4.418  0.3717 -0.7507 -2.0110
  507MOL0     H69964   5.342  10.383   4.163  0.3392  1.6776 -2.4449
  507MOL0     H69965   5.325  10.532   4.272 -0.1095 -1.1854  1.3087
  507MOL0     H69966   5.473  10.481   4.196 -0.7221 -0.2189 -0.8835
  508MOL0     O69967   9.330   1.237   9.616  0.3650 -0.0726  0.6259
  508MOL0     C69968   9.309   1.335   9.680  0.1557 -0.3226 -0.8452
  508MOL0     O69969   9.220   1.347   9.773  0.3177 -0.0912 -0.3078
  508MOL0     C69970   9.180   1.231   9.830  1.0914 -0.3389 -0.5099
  508MOL0     C69971   9.042   1.194   9.833  0.4249  0.0088 -0.1660
  508MOL0     C69972   8.997   1.077   9.888  0.6257  0.0704  0.0988
  508MOL0     C69973   9.090   0.988   9.949  0.1522 -0.2416  0.0383
  508MOL0     O69974   9.033   0.871   9.993 -0.2738  0.1220  0.0340
  508MOL0     C69975   9.116   0.807  10.097 -0.2039 -0.7978  0.6448
  508MOL0     C69976   9.030   0.703  10.166  0.3216 -0.3281 -0.0290
  508MOL0     C69977   9.094   0.618  10.276  0.4007 -0.0332 -0.6612
  508MOL0     C69978   9.208   0.525  10.224 -0.0869 -0.0673  0.4346
  508MOL0     C69979   9.267   0.427  10.324  0.4528 -0.1927  0.1966
  508MOL0     C69980   9.413   0.384  10.294 -0.2315 -0.1718  0.1895
  508MOL0     C69981   9.467   0.291  10.408 -1.1393 -0.0318  0.0024
  508MOL0     C69982   9.489   0.381  10.537  0.7106 -0.7870 -0.5228
  508MOL0     N69983   9.605   0.478  10.526 -0.5519 -0.0195  0.7887
  508MOL0     C69984   9.729   0.435  10.475  0.3212 -0.2068  0.4078
  508MOL0     C69985   9.805   0.539  10.458  0.1708  0.1524  0.0231
  508MOL0     C69986   9.942   0.538  10.406  0.1517  0.3787 -0.1658
  508MOL0     C69987  10.056   0.551  10.514  0.2994 -0.4570 -0.7408
  508MOL0     C69988  10.065   0.439  10.622  0.4303  0.1940  0.4280
  508MOL0     C69989  10.121   0.309  10.566 -0.3832  0.1545 -0.0566
  508MOL0     O69990  10.265   0.304  10.564 -0.6103 -0.3717  0.3212
  508MOL0     C69991  10.335   0.192  10.545 -0.0289  0.8908 -0.2913
  508MOL0     C69992  10.453   0.218  10.491 -0.0671  0.2936 -0.1032
  508MOL0     C69993  10.553   0.117  10.467  0.0560  0.6367  0.4824
  508MOL0     C69994  10.682   0.164  10.407 -0.9436  0.3788  0.4026
  508MOL0     C69995  10.531  -0.012  10.525 -0.6981 -0.5355 -0.1123
  508MOL0     C69996  10.632  -0.123  10.531  0.6435 -0.1870 -0.3477
  508MOL0     O69997  10.598  -0.217  10.622  0.3210 -0.2889 -1.1356
  508MOL0     C69998  10.669  -0.329  10.653  0.2567 -0.5411  0.9573
  508MOL0     C69999  10.795  -0.374  10.606  0.2684  0.5174 -1.0055
  508MOL0     C70000  10.859  -0.490  10.660 -0.6607 -0.4432  0.0426
  508MOL0     C70001  10.806  -0.564  10.761 -0.1950 -0.7163 -0.1182
  508MOL0     O70002  10.863  -0.672  10.809  0.5296 -0.5194  0.4340
  508MOL0     C70003  10.979  -0.653  10.890 -0.0178  0.6049  0.1250
  508MOL0     C70004  10.959  -0.749  11.011 -1.2853 -0.1624 -0.3411
  508MOL0     C70005  10.832  -0.718  11.084  0.8040 -0.3091 -0.0617
  508MOL0     C70006  10.824  -0.802  11.214  0.5335  0.3586  0.2464
  508MOL0     C70007  10.687  -0.768  11.281  0.5383 -0.3791  0.6016
  508MOL0     C70008  10.645  -0.855  11.398 -0.1581 -0.0922  0.3366
  508MOL0     C70009  10.559  -0.784  11.500 -0.2624 -0.7458  0.1601
  508MOL0     C70010  10.648  -0.706  11.596  0.4178 -0.1948  0.7616
  508MOL0    Cl70011  10.556  -0.570  11.666  0.2645 -0.4872 -0.6230
  508MOL0     C70012  10.677  -0.517  10.809 -0.1491 -0.3771 -0.3134
  508MOL0     C70013  10.613  -0.397  10.765 -0.5468  0.8658 -0.6386
  508MOL0     O70014  10.712  -0.146  10.436 -0.3714 -0.3620 -0.7343
  508MOL0     C70015  10.406  -0.038  10.580 -0.6581 -0.7823  0.2190
  508MOL0     C70016  10.313   0.062  10.590 -0.3609 -0.4329 -0.4381
  508MOL0     N70017   9.723   0.654  10.485 -0.6666  0.0951 -0.2216
  508MOL0     N70018   9.604   0.614  10.520 -0.3419 -0.7580  0.3930
  508MOL0     C70019   9.222   1.025   9.957 -0.6098 -0.3546  0.7191
  508MOL0     C70020   9.272   1.142   9.895 -0.0182 -0.5366 -0.1322
  508MOL0     C70021   9.383   1.457   9.643  0.2957  0.7885  0.1608
  508MOL0     C70022   9.313   1.577   9.620 -0.9154 -0.3469 -0.3179
  508MOL0     C70023   9.380   1.690   9.582 -0.7213 -1.3377  0.1250
  508MOL0     C70024   9.520   1.698   9.555 -0.3628  0.0630  0.2307
  508MOL0     O70025   9.564   1.812   9.495 -0.2879  0.2738 -0.1383
  508MOL0     C70026   9.701   1.809   9.451 -0.0982 -0.4030 -1.2735
  508MOL0     C70027   9.806   1.848   9.557  0.6239  1.0181  0.5240
  508MOL0     C70028   9.943   1.851   9.501 -0.6045 -0.7267 -0.5064
  508MOL0     C70029  10.023   1.718   9.500  0.5228  0.2090 -0.3920
  508MOL0     C70030  10.170   1.746   9.495  0.4723 -0.6006 -0.1862
  508MOL0     C70031  10.287   1.775   9.495  0.0482 -0.4545  0.6104
  508MOL0     C70032   9.586   1.571   9.574  0.3868  0.3806  1.0194
  508MOL0     C70033   9.520   1.451   9.611  0.5709 -0.3893  0.3890
  508MOL0     C70034   9.605   1.328   9.634  0.3254  0.8412  0.0399
  508MOL0     H70035   8.960   1.252   9.791 -0.4664 -0.2146  1.2133
  508MOL0     H70036   8.894   1.045   9.896 -0.0068  1.9664  0.0908
  508MOL0     H70037   9.143   0.887  10.166 -1.1486  0.5380 -0.4828
  508MOL0     H70038   9.201   0.753  10.054 -1.6634 -0.3732 -3.2455
  508MOL0     H70039   8.940   0.747  10.211  0.1017  0.4140 -1.1515
  508MOL0     H70040   9.003   0.640  10.080 -2.6089  0.2870  0.3331
  508MOL0     H70041   9.123   0.684  10.358 -3.0392  0.4257  0.3348
  508MOL0     H70042   9.008   0.559  10.309 -1.4337  3.3819  1.1964
  508MOL0     H70043   9.177   0.467  10.137  1.6170 -1.0170  0.4124
  508MOL0     H70044   9.292   0.588  10.193 -0.7229 -0.5320 -2.4456
  508MOL0     H70045   9.205   0.337  10.321  2.4408 -1.6374 -3.2471
  508MOL0     H70046   9.263   0.464  10.427  0.4770 -1.6942  0.7712
  508MOL0     H70047   9.432   0.322  10.206  2.4216 -1.1693  1.3610
  508MOL0     H70048   9.473   0.470  10.264  1.0103 -0.6942  1.0986
  508MOL0     H70049   9.565   0.245  10.391 -1.6386 -0.2693 -2.6744
  508MOL0     H70050   9.392   0.214  10.429 -1.6689  0.7560  1.1294
  508MOL0     H70051   9.400   0.436  10.569 -0.0787 -1.1706 -1.9414
  508MOL0     H70052   9.506   0.320  10.626  1.2755  0.6849  0.4127
  508MOL0     H70053   9.756   0.330  10.467 -1.7308 -0.6585 -1.8193
  508MOL0     H70054   9.961   0.620  10.336  1.4202  2.6617  2.6304
  508MOL0     H70055   9.952   0.441  10.357 -2.2504 -0.8497  1.5855
  508MOL0     H70056  10.153   0.566  10.466  0.6899 -1.1615 -0.1877
  508MOL0     H70057  10.016   0.637  10.568  3.3652 -0.9256  2.6161
  508MOL0     H70058  10.136   0.472  10.698  3.1182 -2.2849 -0.7974
  508MOL0     H70059   9.967   0.415  10.662  0.0594 -3.8520 -2.3235
  508MOL0     H70060  10.094   0.240  10.647 -0.2743  1.9668  1.5804
  508MOL0     H70061  10.079   0.268  10.474  0.1979  3.1391 -1.7838
  508MOL0     H70062  10.470   0.324  10.471 -0.5124  0.4721  0.4369
  508MOL0     H70063  10.758   0.086  10.395  0.0658  1.2239  1.1338
  508MOL0     H70064  10.722   0.250  10.460 -3.3167  2.5754 -1.1312
  508MOL0     H70065  10.663   0.209  10.310 -0.0718  0.4045  0.2373
  508MOL0     H70066  10.851  -0.318  10.532  1.8634  1.5373  0.8829
  508MOL0     H70067  10.944  -0.524  10.601 -2.9977 -0.2947 -3.7150
  508MOL0     H70068  11.072  -0.681  10.839  1.0608  0.0408  2.2695
  508MOL0     H70069  10.997  -0.547  10.912  1.2967  0.4632 -0.1487
  508MOL0     H70070  10.964  -0.856  10.987 -0.6074 -0.0501 -0.7084
  508MOL0     H70071  11.036  -0.725  11.084 -1.0875 -2.2085  0.1897
  508MOL0     H70072  10.746  -0.735  11.018  1.9247 -4.9111 -0.7301
  508MOL0     H70073  10.847  -0.618  11.126  2.4892 -0.2961 -0.5869
  508MOL0     H70074  10.905  -0.772  11.281 -0.4514  3.2143  0.3042
  508MOL0     H70075  10.818  -0.911  11.201 -4.0847 -0.1759  4.0724
  508MOL0     H70076  10.684  -0.663  11.314  0.3511 -0.2706  0.2411
  508MOL0     H70077  10.608  -0.772  11.207 -2.1190 -1.6888  3.3175
  508MOL0     H70078  10.740  -0.890  11.440 -0.7828 -0.1132  1.7949
  508MOL0     H70079  10.581  -0.937  11.368  0.0562 -1.0297  2.2531
  508MOL0     H70080  10.495  -0.855  11.554 -2.2064  1.7525  1.4158
  508MOL0     H70081  10.492  -0.714  11.448 -0.3261 -2.9736 -3.0521
  508MOL0     H70082  10.732  -0.651  11.554 -0.5298 -0.5936 -1.8061
  508MOL0     H70083  10.689  -0.773  11.672  0.1607 -0.4241  0.6964
  508MOL0     H70084  10.638  -0.553  10.904  0.8405 -1.5881 -0.3396
  508MOL0     H70085  10.525  -0.357  10.814  0.5506  2.4331  0.1050
  508MOL0     H70086  10.388  -0.142  10.607 -2.0822 -0.5069  0.3828
  508MOL0     H70087  10.224   0.021  10.638 -0.7156  1.1755  0.3475
  508MOL0     H70088   9.296   0.950   9.984 -2.1241 -2.1373  0.1553
  508MOL0     H70089   9.374   1.175   9.911  0.5406 -2.8080  1.4610
  508MOL0     H70090   9.207   1.595   9.635 -0.3911  2.6143  0.5475
  508MOL0     H70091   9.313   1.769   9.548  0.5337 -0.4897 -0.4856
  508MOL0     H70092   9.736   1.708   9.426  1.4159 -0.0687 -0.6051
  508MOL0     H70093   9.720   1.880   9.369 -1.4793  0.0471 -1.2212
  508MOL0     H70094   9.795   1.768   9.630 -2.1112  0.2344 -0.6199
  508MOL0     H70095   9.790   1.945   9.605  1.2007  2.6078 -2.2666
  508MOL0     H70096   9.942   1.888   9.399  0.2841 -1.2287 -0.7030
  508MOL0     H70097  10.004   1.916   9.564  1.6323 -1.4433 -1.8309
  508MOL0     H70098  10.002   1.649   9.418  3.0853 -2.2776  0.8569
  508MOL0     H70099   9.997   1.658   9.587  0.6202  1.7646  0.7493
  508MOL0     H70100  10.394   1.768   9.495  0.0405 -1.9064  3.5926
  508MOL0     H70101   9.693   1.560   9.566  0.4691  0.3028  2.0717
  508MOL0     H70102   9.575   1.281   9.728 -1.9992 -0.8232 -1.4332
  508MOL0     H70103   9.600   1.251   9.557 -3.0960 -1.3093  2.1109
  508MOL0     H70104   9.710   1.353   9.650  0.4886  0.1995  0.0106
  509MOL0     O70105  11.334   6.851   8.270 -0.1233  0.7391 -0.5850
  509MOL0     C70106  11.349   6.857   8.396  0.2127  0.5427  0.1413
  509MOL0     O70107  11.259   6.901   8.485 -0.2819 -0.2228 -0.6393
  509MOL0     C70108  11.129   6.922   8.454  0.6257  0.0378 -0.9226
  509MOL0     C70109  11.092   7.014   8.362  0.2757 -0.3497  0.0174
  509MOL0     C70110  10.958   7.041   8.333  0.0492 -0.1265  0.5204
  509MOL0     C70111  10.859   6.971   8.399  1.2222  0.4625 -0.6755
  509MOL0     O70112  10.720   6.980   8.372 -0.2751 -0.0250  0.1846
  509MOL0     C70113  10.665   7.109   8.370 -0.7898 -0.4019 -0.2959
  509MOL0     C70114  10.549   7.119   8.270  0.9354 -0.0216  0.3392
  509MOL0     C70115  10.596   7.103   8.114  0.5572  1.0588  0.1599
  509MOL0     C70116  10.502   7.140   7.997 -0.1952 -0.1916 -0.0293
  509MOL0     C70117  10.482   7.280   8.012  0.6325 -0.2689 -0.3259
  509MOL0     C70118  10.405   7.333   7.892 -0.4499 -0.3318  1.0015
  509MOL0     C70119  10.314   7.448   7.935  0.0339 -0.2529 -0.1696
  509MOL0     C70120  10.203   7.448   7.827 -0.0672  0.6276  0.5568
  509MOL0     N70121  10.147   7.582   7.814 -0.2343 -0.8022 -0.7079
  509MOL0     C70122  10.158   7.662   7.702  0.6815 -0.5257 -0.3692
  509MOL0     C70123  10.099   7.775   7.738  0.4509 -0.1633  0.0806
  509MOL0     C70124  10.111   7.915   7.663  0.0454 -0.1182 -0.3453
  509MOL0     C70125   9.991   7.935   7.574 -0.1992 -0.1498 -0.2224
  509MOL0     C70126   9.861   7.953   7.658  0.1146 -0.8148  0.5302
  509MOL0     C70127   9.728   7.991   7.592  0.3783  0.9162 -0.4521
  509MOL0     O70128   9.702   7.931   7.463 -0.2332  0.3247 -0.0004
  509MOL0     C70129   9.576   7.895   7.430  0.6109  0.1522  0.3014
  509MOL0     C70130   9.514   7.775   7.465  0.7125  0.5618 -0.3476
  509MOL0     C70131   9.377   7.745   7.443  0.2444 -0.2643 -0.4040
  509MOL0     C70132   9.321   7.615   7.482  0.0538  0.1868 -0.1960
  509MOL0     C70133   9.297   7.838   7.368 -0.1393  0.8923 -0.6731
  509MOL0     C70134   9.152   7.809   7.327 -0.2218  0.1782  0.4648
  509MOL0     O70135   9.120   7.885   7.219  0.0359  0.0518  0.3442
  509MOL0     C70136   8.998   7.871   7.152 -0.5620 -0.6779 -0.7127
  509MOL0     C70137   8.888   7.789   7.191 -0.2213  0.1536  0.3139
  509MOL0     C70138   8.779   7.798   7.106  0.1826  0.1631 -0.6400
  509MOL0     C70139   8.775   7.876   6.991 -0.5000 -0.8132 -0.5932
  509MOL0     O70140   8.660   7.892   6.929 -0.4950  0.2368  0.2783
  509MOL0     C70141   8.644   7.893   6.786 -0.2600 -0.0124 -0.8828
  509MOL0     C70142   8.687   7.773   6.711 -0.9976 -0.0575  0.1361
  509MOL0     C70143   8.591   7.650   6.713 -0.2409 -0.3836 -0.4882
  509MOL0     C70144   8.554   7.601   6.852  0.1273 -0.5946  0.0963
  509MOL0     C70145   8.479   7.467   6.856 -0.4466 -0.2800  0.3262
  509MOL0     C70146   8.338   7.481   6.813  0.0600  0.1082 -0.3430
  509MOL0     C70147   8.250   7.369   6.863 -0.5440 -0.3610 -0.3656
  509MOL0     C70148   8.130   7.340   6.769  0.1993 -0.6559 -0.8614
  509MOL0    Cl70149   8.018   7.468   6.752 -0.1795  0.1045 -0.3364
  509MOL0     C70150   8.884   7.954   6.948 -0.9162  1.2240  1.0162
  509MOL0     C70151   8.996   7.949   7.030  0.5656  1.3583 -1.4917
  509MOL0     O70152   9.086   7.717   7.377  0.3105  0.1101 -0.3512
  509MOL0     C70153   9.362   7.960   7.335  0.6027  0.1169  0.5252
  509MOL0     C70154   9.497   7.986   7.374  0.4095 -0.2925  0.5419
  509MOL0     N70155  10.046   7.761   7.861  0.2889  0.2104 -0.0586
  509MOL0     N70156  10.081   7.645   7.908 -0.3571  0.5128 -0.5169
  509MOL0     C70157  10.892   6.864   8.485 -0.3118  0.1279  0.0014
  509MOL0     C70158  11.024   6.844   8.515 -0.1997  0.5010  0.9121
  509MOL0     C70159  11.471   6.791   8.451 -0.6340  0.0301 -0.5567
  509MOL0     C70160  11.466   6.737   8.586 -0.2241  0.3052 -0.0429
  509MOL0     C70161  11.581   6.685   8.642  0.0455 -0.0780 -0.5875
  509MOL0     C70162  11.705   6.664   8.576  0.5774 -0.2876 -0.5600
  509MOL0     O70163  11.807   6.609   8.649  0.1041  0.3624  0.7820
  509MOL0     C70164  11.799   6.466   8.690  0.5793  0.3496 -0.9147
  509MOL0     C70165  11.928   6.398   8.656  0.0560  0.3991 -0.4461
  509MOL0     C70166  11.936   6.366   8.507 -0.0035  0.2735  0.7298
  509MOL0     C70167  12.075   6.306   8.485  0.8281  0.3887  0.7684
  509MOL0     C70168  12.101   6.297   8.347  0.1854  0.2115 -0.4695
  509MOL0     C70169  12.109   6.289   8.228 -0.2161 -0.0856  0.3575
  509MOL0     C70170  11.715   6.726   8.451  0.8341  0.4176 -1.1248
  509MOL0     C70171  11.601   6.779   8.382  0.3719 -0.0274  0.2864
  509MOL0     C70172  11.632   6.835   8.248  0.1028 -0.3581 -1.2611
  509MOL0     H70173  11.173   7.073   8.319  2.5617 -3.6066 -0.5582
  509MOL0     H70174  10.928   7.114   8.258 -0.6247  1.5333  2.3255
  509MOL0     H70175  10.735   7.183   8.329  2.3257 -1.6813  2.2353
  509MOL0     H70176  10.621   7.149   8.461 -1.8429  4.0973 -2.5188
  509MOL0     H70177  10.477   7.040   8.297  1.2181 -1.1534 -1.9768
  509MOL0     H70178  10.505   7.216   8.296  0.3315 -0.7325  2.1775
  509MOL0     H70179  10.689   7.159   8.099  1.0514  0.5806  1.2652
  509MOL0     H70180  10.622   6.999   8.093 -0.9196  0.4718  1.0509
  509MOL0     H70181  10.550   7.113   7.902 -3.9802 -2.4650 -1.5311
  509MOL0     H70182  10.406   7.089   8.007 -0.4203  0.1273 -0.5556
  509MOL0     H70183  10.577   7.333   8.028 -1.4206  3.7692 -0.2693
  509MOL0     H70184  10.425   7.308   8.101  1.2509  0.1586 -0.0522
  509MOL0     H70185  10.467   7.350   7.804 -3.2645 -2.7302 -1.6625
  509MOL0     H70186  10.341   7.255   7.850  0.0696  0.0398 -0.5523
  509MOL0     H70187  10.358   7.547   7.921  1.5575 -0.7548  0.8465
  509MOL0     H70188  10.267   7.436   8.032 -1.5847  0.9612 -0.7614
  509MOL0     H70189  10.232   7.415   7.727 -2.8272 -0.6771  0.0764
  509MOL0     H70190  10.123   7.383   7.864 -0.1267  0.1020 -0.4683
  509MOL0     H70191  10.195   7.639   7.602  0.3350 -1.7583 -0.2354
  509MOL0     H70192  10.211   7.919   7.618 -0.1426  2.3241 -0.6965
  509MOL0     H70193  10.117   7.996   7.737 -1.6436  0.6206 -0.9796
  509MOL0     H70194  10.006   8.021   7.508 -0.5273  1.0476  1.2332
  509MOL0     H70195   9.970   7.845   7.515 -1.7153 -2.9331  4.0851
  509MOL0     H70196   9.828   7.861   7.707 -2.2489  0.8242  2.2123
  509MOL0     H70197   9.887   8.030   7.731  1.2534 -0.9695  0.3204
  509MOL0     H70198   9.649   7.977   7.667 -1.3216  3.3564 -1.6544
  509MOL0     H70199   9.739   8.098   7.570  0.3797  0.6059 -2.0278
  509MOL0     H70200   9.565   7.693   7.515 -2.4713 -1.9111 -0.8303
  509MOL0     H70201   9.269   7.565   7.400 -1.7597 -1.3912  1.7855
  509MOL0     H70202   9.249   7.613   7.565  2.5908 -2.7655  2.1772
  509MOL0     H70203   9.393   7.541   7.518 -3.0398 -2.3134  1.4065
  509MOL0     H70204   8.887   7.719   7.274 -1.9102 -0.3234 -0.0761
  509MOL0     H70205   8.696   7.734   7.136  0.1715  0.6138  0.3047
  509MOL0     H70206   8.536   7.898   6.767 -0.2052 -0.6057 -1.3915
  509MOL0     H70207   8.703   7.976   6.747 -1.8516  2.0050  0.7701
  509MOL0     H70208   8.703   7.810   6.609  1.3132  0.1168  0.4931
  509MOL0     H70209   8.781   7.734   6.751 -0.7052 -1.8808 -2.1196
  509MOL0     H70210   8.629   7.565   6.656  1.2946  0.1457 -0.3050
  509MOL0     H70211   8.498   7.688   6.669 -0.0697 -0.3886 -0.8565
  509MOL0     H70212   8.491   7.681   6.892 -0.2833 -0.6548 -0.4184
  509MOL0     H70213   8.637   7.595   6.922 -1.3183 -0.2125  1.9031
  509MOL0     H70214   8.527   7.386   6.800 -1.6349 -1.4212  0.9043
  509MOL0     H70215   8.468   7.431   6.959 -0.0071 -1.4147 -0.0044
  509MOL0     H70216   8.328   7.492   6.705  2.6615  2.6061 -0.4579
  509MOL0     H70217   8.305   7.577   6.856  0.2740  0.1855 -0.3496
  509MOL0     H70218   8.211   7.383   6.964  1.1781  1.8890  0.0664
  509MOL0     H70219   8.315   7.281   6.871  0.1632  0.3388  2.5237
  509MOL0     H70220   8.072   7.262   6.818 -0.5429  1.2985  1.5905
  509MOL0     H70221   8.170   7.308   6.672 -0.6251 -3.0100 -0.4842
  509MOL0     H70222   8.884   8.014   6.857 -3.0218  0.9949  0.7936
  509MOL0     H70223   9.084   8.003   6.997  1.7167  0.5508  0.1736
  509MOL0     H70224   9.302   8.039   7.291  2.1360  0.3693 -1.2382
  509MOL0     H70225   9.542   8.084   7.362  2.3935 -1.3415 -1.2570
  509MOL0     H70226  10.808   6.802   8.514 -1.9809  1.3146 -2.0150
  509MOL0     H70227  11.062   6.762   8.575  0.4255 -0.6020 -0.9065
  509MOL0     H70228  11.372   6.743   8.639 -0.8484  0.1633 -1.1013
  509MOL0     H70229  11.562   6.671   8.748 -1.2435 -0.7468 -0.8789
  509MOL0     H70230  11.779   6.466   8.798 -1.9330 -1.8516 -1.2852
  509MOL0     H70231  11.704   6.426   8.655 -1.8420  2.3718  2.6558
  509MOL0     H70232  11.939   6.311   8.722 -3.0578  0.4992  0.3967
  509MOL0     H70233  12.001   6.474   8.684 -2.4379  2.3777  1.1179
  509MOL0     H70234  11.854   6.296   8.491  1.5500 -1.9544  2.0469
  509MOL0     H70235  11.926   6.462   8.456 -3.5186 -0.1727  0.3706
  509MOL0     H70236  12.079   6.205   8.525  1.0017  1.0669  2.5749
  509MOL0     H70237  12.160   6.368   8.517  0.9702  1.0691 -0.8304
  509MOL0     H70238  12.112   6.272   8.122  0.6897 -0.3339  0.4159
  509MOL0     H70239  11.814   6.696   8.418  1.3799 -0.3186  0.9987
  509MOL0     H70240  11.561   6.915   8.223 -0.8458 -0.8466 -0.2044
  509MOL0     H70241  11.730   6.883   8.238  0.1215 -0.3391 -0.9954
  509MOL0     H70242  11.622   6.754   8.176  1.5862 -2.6434  0.9281
  510MOL0     O70243   3.758   4.903   2.536 -0.5137 -0.3475 -0.1072
  510MOL0     C70244   3.801   4.972   2.629  0.3811  0.4585 -0.0633
  510MOL0     O70245   3.924   5.041   2.616  0.3336  0.0899 -0.0224
  510MOL0     C70246   3.992   5.038   2.494  0.5775 -1.6038  0.7184
  510MOL0     C70247   3.971   5.144   2.401 -0.7320  0.6941  0.1234
  510MOL0     C70248   4.037   5.140   2.282  0.2048 -0.0642 -0.7105
  510MOL0     C70249   4.123   5.033   2.247 -0.3689  0.1524  0.1739
  510MOL0     O70250   4.177   5.024   2.116  0.3955  0.4053 -0.2667
  510MOL0     C70251   4.107   5.094   2.004 -0.3353  0.5109  0.4999
  510MOL0     C70252   4.151   5.019   1.884  0.8073 -0.3570  0.6950
  510MOL0     C70253   4.083   4.883   1.882 -0.3073 -0.7704  0.4253
  510MOL0     C70254   4.143   4.783   1.776 -0.0236 -0.5496  0.1190
  510MOL0     C70255   4.119   4.636   1.804  0.7316 -0.1144 -0.0493
  510MOL0     C70256   3.972   4.581   1.801  0.0326 -0.7352  0.5205
  510MOL0     C70257   3.983   4.425   1.795 -0.1546  0.1049  0.5362
  510MOL0     C70258   3.993   4.357   1.927 -0.5098 -0.4824 -0.3983
  510MOL0     N70259   4.000   4.201   1.898  0.9797 -0.2089  0.4101
  510MOL0     C70260   3.904   4.107   1.934  0.4924  0.3564  0.1112
  510MOL0     C70261   3.946   3.996   1.867  1.0490 -0.4330  0.0237
  510MOL0     C70262   3.870   3.865   1.858  0.5983  0.2539 -0.6912
  510MOL0     C70263   3.908   3.787   1.729  0.0318 -0.4976 -0.4057
  510MOL0     C70264   3.816   3.671   1.718 -0.5319 -1.1132  1.4515
  510MOL0     C70265   3.887   3.580   1.607 -0.1280  0.1736 -0.2252
  510MOL0     O70266   3.809   3.457   1.616 -0.6426 -0.4255 -0.0829
  510MOL0     C70267   3.865   3.343   1.560 -0.0869  0.7678  0.6531
  510MOL0     C70268   3.990   3.328   1.502 -0.8463  0.1982  0.3485
  510MOL0     C70269   4.030   3.208   1.452  0.3591 -0.4309  0.7133
  510MOL0     C70270   4.171   3.200   1.399  1.0996 -0.1553 -0.0564
  510MOL0     C70271   3.948   3.095   1.462  0.3911  0.0458  0.6096
  510MOL0     C70272   3.984   2.960   1.411 -0.6869 -0.5055  0.4301
  510MOL0     O70273   3.927   2.853   1.475 -0.5330  0.3619  0.7652
  510MOL0     C70274   3.996   2.734   1.482 -0.1551  0.8922  0.5696
  510MOL0     C70275   3.919   2.626   1.543  0.5203  0.3720  0.2818
  510MOL0     C70276   3.967   2.502   1.545  1.3716  0.3991  0.0214
  510MOL0     C70277   4.094   2.465   1.497  0.7566  0.1333 -0.4809
  510MOL0     O70278   4.126   2.333   1.500 -0.1300  0.0907 -1.2375
  510MOL0     C70279   4.251   2.297   1.454  0.4324  0.3312 -0.2081
  510MOL0     C70280   4.278   2.157   1.503  0.6664 -0.2292 -0.5300
  510MOL0     C70281   4.183   2.043   1.464 -0.6068  0.0958 -0.2075
  510MOL0     C70282   4.239   1.911   1.514 -0.2781  0.3965  1.1107
  510MOL0     C70283   4.213   1.911   1.668  0.5181  0.1308  0.2677
  510MOL0     C70284   4.260   1.780   1.728 -0.7968  0.3901  0.5353
  510MOL0     C70285   4.203   1.750   1.872 -0.9226  0.2692 -0.4569
  510MOL0     C70286   4.293   1.653   1.961  0.9781 -0.2177 -0.1796
  510MOL0    Cl70287   4.192   1.621   2.108 -0.0417 -0.6692  0.0881
  510MOL0     C70288   4.174   2.574   1.449 -0.4053  0.0152 -0.3236
  510MOL0     C70289   4.123   2.704   1.431  0.2698 -1.0098 -0.0061
  510MOL0     O70290   4.033   2.956   1.300 -0.5219  0.6569 -0.8587
  510MOL0     C70291   3.819   3.112   1.527 -0.7240  0.5402  0.3048
  510MOL0     C70292   3.777   3.236   1.577  0.0180 -0.4783 -0.8122
  510MOL0     N70293   4.076   4.018   1.823  0.3291  0.7305  0.1315
  510MOL0     N70294   4.108   4.146   1.835  0.4285 -0.7901 -1.4995
  510MOL0     C70295   4.144   4.927   2.343 -0.5177  0.0878  0.2769
  510MOL0     C70296   4.084   4.936   2.467 -0.1262  0.7493  0.4805
  510MOL0     C70297   3.716   4.977   2.748  0.0599 -1.3424 -0.1537
  510MOL0     C70298   3.791   4.996   2.866  0.5914  1.0389 -0.0225
  510MOL0     C70299   3.730   4.995   2.991  0.4437  0.5820  0.3270
  510MOL0     C70300   3.594   4.967   3.000 -0.1878  0.0159 -0.5125
  510MOL0     O70301   3.526   4.974   3.118  0.5376 -0.0312  0.1870
  510MOL0     C70302   3.586   4.982   3.248  0.3222 -0.2321  0.3469
  510MOL0     C70303   3.480   4.992   3.368  0.0750  0.0382  0.7595
  510MOL0     C70304   3.381   4.873   3.383 -0.7923 -0.3722  0.2755
  510MOL0     C70305   3.273   4.865   3.265 -0.9325  0.5124  0.2848
  510MOL0     C70306   3.179   4.759   3.293  0.8756 -0.5203 -0.0242
  510MOL0     C70307   3.076   4.689   3.313 -0.0131  0.0424 -0.3263
  510MOL0     C70308   3.523   4.943   2.886  0.2017 -0.5529 -0.1440
  510MOL0     C70309   3.575   4.940   2.761 -0.2810  0.0759 -0.8168
  510MOL0     C70310   3.482   4.904   2.649 -0.0865 -0.0317 -0.1934
  510MOL0     H70311   3.904   5.228   2.415  0.7872  2.1435 -0.9077
  510MOL0     H70312   4.027   5.222   2.212  0.7856  0.4183 -0.2408
  510MOL0     H70313   4.138   5.199   2.005  0.5682  0.2513  1.1961
  510MOL0     H70314   3.998   5.092   2.016 -0.7500  3.2920 -1.8298
  510MOL0     H70315   4.136   5.076   1.792  0.2549 -0.4275  0.7346
  510MOL0     H70316   4.258   4.999   1.879  0.6156 -1.1847 -0.6212
  510MOL0     H70317   4.097   4.827   1.975  0.1418 -0.8844  0.2939
  510MOL0     H70318   3.976   4.890   1.864  0.2843  1.4492 -3.0288
  510MOL0     H70319   4.094   4.807   1.681 -0.4968  0.6256  0.6385
  510MOL0     H70320   4.251   4.795   1.765 -0.2859  1.7090 -0.6319
  510MOL0     H70321   4.161   4.614   1.902  0.6697 -0.5190 -0.1122
  510MOL0     H70322   4.180   4.580   1.732  2.6349 -1.4072  2.4044
  510MOL0     H70323   3.924   4.617   1.892 -4.1421  0.2935 -1.8523
  510MOL0     H70324   3.935   4.620   1.706  1.6964  2.5531  1.0938
  510MOL0     H70325   4.068   4.407   1.728 -1.2884  0.1637 -0.9675
  510MOL0     H70326   3.894   4.381   1.750 -1.5575  1.9946  1.3152
  510MOL0     H70327   4.078   4.393   1.985 -1.2862 -0.7392  0.9496
  510MOL0     H70328   3.906   4.386   1.986  1.5114  3.5773  0.9396
  510MOL0     H70329   3.814   4.126   1.991  0.3710  2.0785 -0.5884
  510MOL0     H70330   3.763   3.886   1.866  0.6030 -0.5078  3.6817
  510MOL0     H70331   3.888   3.803   1.946 -0.3204 -0.9313 -1.3084
  510MOL0     H70332   3.901   3.854   1.643  3.4466 -0.4159 -0.7839
  510MOL0     H70333   4.015   3.762   1.734  0.5984  1.8771  1.3386
  510MOL0     H70334   3.806   3.629   1.819 -0.8381  1.4997  2.5982
  510MOL0     H70335   3.720   3.710   1.684  0.0856 -0.2049  0.6899
  510MOL0     H70336   3.882   3.609   1.501  0.9943 -2.1871 -1.0078
  510MOL0     H70337   3.990   3.561   1.639 -1.0837 -3.4314  1.1198
  510MOL0     H70338   4.058   3.413   1.496 -1.3392  0.7544  2.1518
  510MOL0     H70339   4.163   3.168   1.295  2.9520 -0.9568 -0.0021
  510MOL0     H70340   4.245   3.139   1.453  0.2679 -1.5137 -0.4008
  510MOL0     H70341   4.213   3.300   1.411  2.3349 -0.8829  2.6325
  510MOL0     H70342   3.822   2.650   1.586  1.5912 -0.2190  3.2007
  510MOL0     H70343   3.891   2.435   1.583 -0.0038  2.1624  0.5017
  510MOL0     H70344   4.259   2.298   1.345 -5.0920  0.2844 -0.8740
  510MOL0     H70345   4.328   2.363   1.497 -0.2996  0.2914  1.2264
  510MOL0     H70346   4.386   2.142   1.494  0.4337 -2.4698 -0.0627
  510MOL0     H70347   4.256   2.168   1.610 -2.5232  1.1102 -1.2197
  510MOL0     H70348   4.190   2.028   1.355 -2.8256 -0.3737 -0.3379
  510MOL0     H70349   4.082   2.060   1.502 -1.0086 -3.5855  0.7930
  510MOL0     H70350   4.343   1.898   1.483 -1.2954 -1.8742 -1.8948
  510MOL0     H70351   4.185   1.829   1.466 -0.1404  1.4356 -0.9584
  510MOL0     H70352   4.244   1.991   1.735  0.6721  0.6707 -0.4313
  510MOL0     H70353   4.104   1.904   1.665  0.4299  0.7193  1.5595
  510MOL0     H70354   4.369   1.775   1.727 -0.7499  1.1306 -1.4610
  510MOL0     H70355   4.215   1.706   1.662  1.3570  0.2185 -0.8244
  510MOL0     H70356   4.102   1.713   1.851 -2.6257  0.6384  5.4759
  510MOL0     H70357   4.183   1.838   1.934 -0.2541 -0.3985  0.7139
  510MOL0     H70358   4.386   1.704   1.987  1.5957 -1.0919 -0.6343
  510MOL0     H70359   4.328   1.565   1.907  0.2603 -1.4185  1.2575
  510MOL0     H70360   4.266   2.555   1.395 -0.4797 -0.8519 -0.1467
  510MOL0     H70361   4.184   2.773   1.375  1.6019 -1.3793  0.9352
  510MOL0     H70362   3.741   3.037   1.514  0.8830 -0.9993 -0.9420
  510MOL0     H70363   3.686   3.256   1.633  1.1840  0.7754  0.7141
  510MOL0     H70364   4.209   4.849   2.305  1.6579  1.7019  0.4755
  510MOL0     H70365   4.091   4.854   2.539 -0.6921  0.3828  0.1251
  510MOL0     H70366   3.899   5.003   2.867  0.7589 -1.0324  1.4586
  510MOL0     H70367   3.776   5.021   3.086 -1.2680  2.3817  0.7102
  510MOL0     H70368   3.658   4.900   3.260  2.2958  1.2834 -0.4596
  510MOL0     H70369   3.647   5.073   3.254 -0.5278  0.5344 -1.7427
  510MOL0     H70370   3.414   5.078   3.352 -2.0931 -2.0413 -2.9906
  510MOL0     H70371   3.541   5.010   3.457  1.8694  0.1346 -0.4465
  510MOL0     H70372   3.436   4.780   3.367 -2.6101 -1.2385 -1.3029
  510MOL0     H70373   3.330   4.874   3.479 -0.3949 -3.4869  0.6153
  510MOL0     H70374   3.318   4.850   3.167  2.3382  0.3060  1.7060
  510MOL0     H70375   3.231   4.966   3.264  0.8001  1.2622  0.5107
  510MOL0     H70376   2.991   4.625   3.322 -1.8921  1.7445 -4.0485
  510MOL0     H70377   3.418   4.932   2.909  0.0236  2.4009  0.8142
  510MOL0     H70378   3.487   4.795   2.652 -0.3140 -0.0328  0.5838
  510MOL0     H70379   3.380   4.930   2.677  0.2401 -0.3131  1.3704
  510MOL0     H70380   3.519   4.943   2.554 -0.7290 -0.5042 -0.6429
  511MOL0     O70381   3.307   1.617   7.187  0.2182  0.2234  0.5772
  511MOL0     C70382   3.253   1.522   7.135 -0.0086  0.0253  0.4660
  511MOL0     O70383   3.235   1.398   7.192  0.1440  0.1056  0.3023
  511MOL0     C70384   3.283   1.383   7.316  0.5252  0.1909 -0.6778
  511MOL0     C70385   3.412   1.360   7.346  0.2961  0.4476 -0.0795
  511MOL0     C70386   3.456   1.357   7.480  0.5742  0.4687  0.7143
  511MOL0     C70387   3.363   1.356   7.578  0.0585 -0.6215  0.0747
  511MOL0     O70388   3.421   1.354   7.698  0.3492  0.4440 -0.4768
  511MOL0     C70389   3.381   1.444   7.804 -0.3536  0.0765 -0.7135
  511MOL0     C70390   3.452   1.406   7.937  0.4729 -0.1830  0.0940
  511MOL0     C70391   3.612   1.408   7.943  0.8069 -0.6057  0.2491
  511MOL0     C70392   3.642   1.404   8.097  0.5725 -0.1567  0.7277
  511MOL0     C70393   3.787   1.384   8.117 -0.0617 -0.7160 -0.5130
  511MOL0     C70394   3.878   1.492   8.051 -0.1526 -0.1550  0.5855
  511MOL0     C70395   4.026   1.486   8.090  0.3430 -0.1281  0.1338
  511MOL0     C70396   4.046   1.577   8.215  0.4330  0.2118  0.0546
  511MOL0     N70397   4.185   1.571   8.250 -0.2101  0.3265  0.3335
  511MOL0     C70398   4.294   1.615   8.175 -0.1126 -0.1629 -0.3083
  511MOL0     C70399   4.403   1.579   8.250  0.1706  0.1940  0.4155
  511MOL0     C70400   4.541   1.599   8.213 -0.8131  0.0883 -0.1445
  511MOL0     C70401   4.635   1.481   8.218 -0.3690 -0.3837  1.0781
  511MOL0     C70402   4.771   1.554   8.203  0.3478  0.5155 -0.0396
  511MOL0     C70403   4.882   1.451   8.178  0.5033  0.2052  0.1334
  511MOL0     O70404   4.966   1.445   8.288  0.5333 -0.0652  0.1259
  511MOL0     C70405   5.086   1.391   8.274  0.8299  0.2355  0.0454
  511MOL0     C70406   5.120   1.311   8.172  0.0428  0.2202  0.1433
  511MOL0     C70407   5.250   1.253   8.153  0.9625  0.4687 -0.5360
  511MOL0     C70408   5.262   1.154   8.039  0.5546  1.2750  0.1787
  511MOL0     C70409   5.352   1.282   8.255 -0.1081 -0.4912  0.6790
  511MOL0     C70410   5.484   1.230   8.249 -0.7536  0.1773 -0.9171
  511MOL0     O70411   5.537   1.196   8.374 -0.5274  0.0879  0.6493
  511MOL0     C70412   5.646   1.121   8.387 -0.5275  0.3728  0.8011
  511MOL0     C70413   5.774   1.167   8.338  1.8897 -0.3588 -1.2841
  511MOL0     C70414   5.894   1.102   8.368 -0.2056  0.2440  0.2037
  511MOL0     C70415   5.888   0.985   8.449  1.1683  0.9970  0.6746
  511MOL0     O70416   6.013   0.933   8.481  0.0264 -0.4412  0.3307
  511MOL0     C70417   6.017   0.864   8.601  0.2735 -0.0448  0.2643
  511MOL0     C70418   6.165   0.847   8.662 -0.0867  0.3316 -0.5499
  511MOL0     C70419   6.197   0.691   8.658  0.6838  0.2892  0.1822
  511MOL0     C70420   6.338   0.661   8.682 -1.3971 -0.4758  0.0876
  511MOL0     C70421   6.373   0.515   8.682 -0.2690 -0.0155  0.4074
  511MOL0     C70422   6.489   0.467   8.785  0.8081 -0.2349  0.0857
  511MOL0     C70423   6.549   0.327   8.741 -0.5092 -0.6239  0.0605
  511MOL0     C70424   6.653   0.277   8.840  0.4331 -0.3335  0.4139
  511MOL0    Cl70425   6.695   0.113   8.798 -0.1050  0.4047 -0.2657
  511MOL0     C70426   5.767   0.929   8.484 -0.3294  0.7970 -1.0052
  511MOL0     C70427   5.640   0.996   8.456  0.6074 -0.0872  0.5237
  511MOL0     O70428   5.552   1.229   8.148  0.6259  0.2212  0.0525
  511MOL0     C70429   5.317   1.363   8.359 -0.1619  0.3239  0.0790
  511MOL0     C70430   5.183   1.410   8.369 -0.6617 -0.4249 -0.0917
  511MOL0     N70431   4.353   1.498   8.356  0.3586  0.0446  0.4789
  511MOL0     N70432   4.228   1.499   8.359 -0.4685  0.5432 -0.1648
  511MOL0     C70433   3.231   1.367   7.554  0.4969 -0.8071 -0.0619
  511MOL0     C70434   3.189   1.385   7.419 -0.0880  0.8282 -0.1399
  511MOL0     C70435   3.191   1.543   6.999 -0.0114 -0.9464  0.5762
  511MOL0     C70436   3.067   1.493   6.968 -0.0251 -0.2939  0.4603
  511MOL0     C70437   3.005   1.507   6.850 -0.0930  0.5876  0.2065
  511MOL0     C70438   3.062   1.578   6.740  0.7815 -0.8261  0.2649
  511MOL0     O70439   2.988   1.576   6.621 -0.2552 -0.0342  0.0165
  511MOL0     C70440   3.055   1.522   6.505  0.3356  0.0423 -0.0003
  511MOL0     C70441   3.095   1.367   6.524 -0.7129 -0.0995  0.2600
  511MOL0     C70442   3.201   1.333   6.421  0.5054 -0.9644 -0.1972
  511MOL0     C70443   3.150   1.319   6.273  0.3354 -0.2717 -0.1578
  511MOL0     C70444   3.243   1.263   6.179  0.4596 -0.3367  0.2306
  511MOL0     C70445   3.331   1.216   6.111 -0.2075  0.8010  0.3687
  511MOL0     C70446   3.186   1.638   6.761 -0.5696 -0.5597  0.1855
  511MOL0     C70447   3.246   1.623   6.892  0.7425  1.4251  0.7049
  511MOL0     C70448   3.370   1.692   6.893 -0.0222  0.3379 -0.3243
  511MOL0     H70449   3.483   1.356   7.264  0.1876 -0.9843 -0.1171
  511MOL0     H70450   3.558   1.329   7.506  1.6924  0.3230 -3.1230
  511MOL0     H70451   3.272   1.443   7.811 -0.3509  0.8812 -0.4684
  511MOL0     H70452   3.412   1.542   7.765  1.7837 -0.3491 -0.1756
  511MOL0     H70453   3.416   1.488   8.000 -1.7850  0.1636 -1.5548
  511MOL0     H70454   3.418   1.315   7.987 -1.3310 -0.3836 -1.3957
  511MOL0     H70455   3.645   1.320   7.886  0.5410 -1.8668  1.9466
  511MOL0     H70456   3.657   1.499   7.903 -2.1611  1.7985  1.9719
  511MOL0     H70457   3.606   1.492   8.151 -4.1596  0.3621 -2.6398
  511MOL0     H70458   3.581   1.327   8.144  1.6402 -0.5386  1.5193
  511MOL0     H70459   3.820   1.285   8.083 -3.1187 -1.8888 -0.4038
  511MOL0     H70460   3.827   1.394   8.219 -0.8205  1.6430 -0.3954
  511MOL0     H70461   3.875   1.464   7.945  0.0958  0.8574  0.3023
  511MOL0     H70462   3.838   1.594   8.053  2.3019  0.8900  1.8191
  511MOL0     H70463   4.097   1.515   8.012 -0.7091 -1.4157 -1.3889
  511MOL0     H70464   4.059   1.382   8.099  2.8457  0.5410 -0.5457
  511MOL0     H70465   4.022   1.679   8.185  0.1764 -0.0413 -0.6201
  511MOL0     H70466   3.977   1.545   8.294  0.2817  0.1940 -0.0839
  511MOL0     H70467   4.296   1.667   8.080  2.5909 -3.1948 -2.1518
  511MOL0     H70468   4.572   1.667   8.292 -1.0054  1.6488 -1.3695
  511MOL0     H70469   4.543   1.669   8.129  3.0273  2.2340  1.4834
  511MOL0     H70470   4.635   1.433   8.316  0.1991 -4.4122 -0.6725
  511MOL0     H70471   4.618   1.415   8.132  0.7247  1.2772 -0.4755
  511MOL0     H70472   4.768   1.629   8.123 -0.3017  2.0955  1.3986
  511MOL0     H70473   4.783   1.618   8.291  0.6398  0.6221 -0.1567
  511MOL0     H70474   4.831   1.356   8.161  1.9355 -0.6483  0.4737
  511MOL0     H70475   4.936   1.487   8.090  1.1808 -0.9798  0.0517
  511MOL0     H70476   5.048   1.276   8.098 -3.0341 -0.2533  3.1341
  511MOL0     H70477   5.224   1.200   7.947 -0.2161 -0.7045 -0.5497
  511MOL0     H70478   5.216   1.056   8.056  1.6687  0.6515 -0.2858
  511MOL0     H70479   5.369   1.137   8.023  0.4828  1.4048 -0.4957
  511MOL0     H70480   5.769   1.253   8.272 -1.5029 -0.1745 -0.9792
  511MOL0     H70481   5.988   1.127   8.321  1.0022 -1.5372  1.5428
  511MOL0     H70482   5.967   0.910   8.687  0.4619  1.8744 -0.6066
  511MOL0     H70483   5.974   0.765   8.580 -0.1635  0.4277 -1.1712
  511MOL0     H70484   6.239   0.909   8.611  0.7007 -0.0613  0.0878
  511MOL0     H70485   6.163   0.887   8.764 -0.3071  1.0499 -0.8259
  511MOL0     H70486   6.150   0.652   8.567 -0.6608  2.4686 -0.1484
  511MOL0     H70487   6.140   0.639   8.736  0.7229  2.1919  1.5520
  511MOL0     H70488   6.368   0.710   8.775  1.4044  0.6444 -1.2888
  511MOL0     H70489   6.397   0.710   8.603 -1.8082 -2.0900 -1.2606
  511MOL0     H70490   6.276   0.464   8.684 -1.2360  1.6367 -1.0785
  511MOL0     H70491   6.411   0.490   8.582  0.6639 -1.7058  1.1474
  511MOL0     H70492   6.439   0.472   8.882 -0.4418  4.9128 -0.5625
  511MOL0     H70493   6.566   0.544   8.784 -0.3812  0.9918 -1.6985
  511MOL0     H70494   6.591   0.333   8.640 -0.4273 -1.3884  0.0460
  511MOL0     H70495   6.459   0.266   8.733 -0.9654  0.0351  0.0604
  511MOL0     H70496   6.603   0.273   8.937 -0.2102  0.2764  0.1157
  511MOL0     H70497   6.732   0.353   8.840 -0.6034  0.7888 -0.6026
  511MOL0     H70498   5.744   0.835   8.533 -4.5481  0.6068 -2.8685
  511MOL0     H70499   5.542   0.958   8.484  1.0312 -2.6386 -1.1338
  511MOL0     H70500   5.384   1.387   8.441 -1.2616 -1.3924  1.5440
  511MOL0     H70501   5.138   1.455   8.457 -0.4196  1.3697 -0.8568
  511MOL0     H70502   3.158   1.371   7.634 -0.1564  0.4897 -0.6880
  511MOL0     H70503   3.085   1.409   7.403  0.2769  1.1286 -2.5022
  511MOL0     H70504   3.018   1.440   7.049 -2.1090  1.8098  0.6743
  511MOL0     H70505   2.915   1.447   6.839  1.5447 -2.2136  0.8863
  511MOL0     H70506   2.991   1.543   6.419  0.6091 -1.5928 -0.6286
  511MOL0     H70507   3.155   1.566   6.495  1.2784 -1.9335  0.3010
  511MOL0     H70508   3.009   1.299   6.522  0.9272 -2.3002 -1.8393
  511MOL0     H70509   3.144   1.363   6.622  0.0757  0.1382 -0.1158
  511MOL0     H70510   3.282   1.406   6.426 -1.7712  1.7361 -0.4747
  511MOL0     H70511   3.248   1.236   6.444  0.0719 -1.3112 -0.7412
  511MOL0     H70512   3.110   1.415   6.239 -0.8700  0.3033  2.6604
  511MOL0     H70513   3.059   1.258   6.272 -0.3332  0.6252  1.5947
  511MOL0     H70514   3.403   1.187   6.037 -0.5567 -0.3225  0.4449
  511MOL0     H70515   3.233   1.691   6.678  2.8511  1.4362  3.1420
  511MOL0     H70516   3.408   1.742   6.804  3.0346 -0.1540  0.5941
  511MOL0     H70517   3.373   1.770   6.970 -0.2343 -0.7266  0.7929
  511MOL0     H70518   3.455   1.628   6.918  0.5618  0.4597 -1.8933
  512MOL0     O70519   7.015   6.857   1.545 -0.0661  0.1246  0.5841
  512MOL0     C70520   6.891   6.880   1.564 -0.2390 -0.1969  0.0621
  512MOL0     O70521   6.840   6.994   1.613 -0.7729 -0.2848  0.3435
  512MOL0     C70522   6.929   7.063   1.698  0.6737 -0.1359  0.0188
  512MOL0     C70523   6.909   7.042   1.835  0.4762  0.2190  0.4648
  512MOL0     C70524   7.007   7.074   1.923  0.3663 -0.3672 -0.0416
  512MOL0     C70525   7.116   7.148   1.877  0.0905 -0.4728 -1.4950
  512MOL0     O70526   7.213   7.168   1.966 -0.7232 -0.3985 -0.7563
  512MOL0     C70527   7.328   7.090   1.948 -0.0136 -0.0552  0.2709
  512MOL0     C70528   7.434   7.131   2.051  0.2206  0.1804 -0.7296
  512MOL0     C70529   7.531   7.018   2.071  0.0266  0.3292 -0.2707
  512MOL0     C70530   7.662   7.083   2.129  0.2315  0.7134 -0.3748
  512MOL0     C70531   7.781   6.997   2.116  0.7952 -0.5743 -0.0754
  512MOL0     C70532   7.774   6.858   2.192  0.2427 -0.4054 -0.6456
  512MOL0     C70533   7.907   6.797   2.216  1.1069  0.9057  0.1269
  512MOL0     C70534   7.906   6.657   2.287 -0.1244  0.2720  0.7532
  512MOL0     N70535   7.826   6.558   2.212 -0.1614  0.0850 -0.1566
  512MOL0     C70536   7.878   6.493   2.099 -0.0374  0.8669 -0.6343
  512MOL0     C70537   7.789   6.397   2.082  0.0022 -0.0136  0.3907
  512MOL0     C70538   7.789   6.293   1.980  0.8357  0.3550 -0.3924
  512MOL0     C70539   7.889   6.186   2.017  1.0436  0.3156  0.1732
  512MOL0     C70540   7.928   6.088   1.896  0.1377  0.0461  0.0701
  512MOL0     C70541   8.044   6.151   1.815 -0.0443  0.4329  0.5828
  512MOL0     O70542   8.177   6.168   1.881 -0.1272 -0.1960  0.2980
  512MOL0     C70543   8.273   6.198   1.800  0.0256 -0.0476 -0.6182
  512MOL0     C70544   8.384   6.120   1.805  0.6209 -0.2086  0.5790
  512MOL0     C70545   8.489   6.141   1.720 -0.2178 -0.4333 -0.7963
  512MOL0     C70546   8.616   6.056   1.736  0.5626  0.2220 -0.1267
  512MOL0     C70547   8.473   6.242   1.618 -0.0117  0.6440 -0.2970
  512MOL0     C70548   8.568   6.262   1.507  0.1499 -0.3272  0.1032
  512MOL0     O70549   8.552   6.378   1.437 -0.3190  0.1582 -0.8642
  512MOL0     C70550   8.641   6.416   1.339  0.8806  0.1199 -0.5022
  512MOL0     C70551   8.770   6.452   1.362 -0.5203  0.0988  0.5600
  512MOL0     C70552   8.835   6.528   1.263 -0.6643  0.6738 -0.2205
  512MOL0     C70553   8.788   6.530   1.135 -0.3906  0.1886  0.3942
  512MOL0     O70554   8.863   6.597   1.038 -0.9225 -0.2253 -0.8219
  512MOL0     C70555   8.806   6.649   0.920  1.0336  0.5978  0.1856
  512MOL0     C70556   8.749   6.784   0.948  0.2203  0.5500 -0.0208
  512MOL0     C70557   8.717   6.850   0.810 -1.1933  0.8033 -0.1666
  512MOL0     C70558   8.665   6.989   0.842 -0.5428 -0.3468  0.2318
  512MOL0     C70559   8.714   7.077   0.717  0.1808 -0.4678 -0.8842
  512MOL0     C70560   8.677   7.222   0.728  0.7767 -0.4869 -0.2283
  512MOL0     C70561   8.700   7.286   0.597  0.2510 -0.7346  0.0234
  512MOL0     C70562   8.855   7.309   0.586 -0.1791 -0.1618  0.6254
  512MOL0    Cl70563   8.887   7.406   0.438  0.0381 -0.5969 -0.3179
  512MOL0     C70564   8.660   6.473   1.105  0.1578 -1.0852  0.0626
  512MOL0     C70565   8.589   6.416   1.211 -0.7124 -1.1029  0.5392
  512MOL0     O70566   8.647   6.173   1.479 -0.2025 -0.3272 -0.3241
  512MOL0     C70567   8.366   6.330   1.624 -0.0582  0.0218  0.4541
  512MOL0     C70568   8.263   6.310   1.714  0.4639 -0.2067 -1.3238
  512MOL0     N70569   7.694   6.399   2.182 -0.5132  0.0241 -0.4200
  512MOL0     N70570   7.706   6.501   2.252  0.0108  0.2521  0.6118
  512MOL0     C70571   7.135   7.176   1.744  0.1069  0.6036  0.5835
  512MOL0     C70572   7.042   7.124   1.649 -0.4138  0.4698  0.1479
  512MOL0     C70573   6.778   6.789   1.514  0.1123 -0.1848  0.4366
  512MOL0     C70574   6.641   6.845   1.500  0.2876  0.1559  0.3476
  512MOL0     C70575   6.535   6.756   1.462 -0.1447  0.1537 -0.0580
  512MOL0     C70576   6.552   6.624   1.443  0.7167 -0.1739 -0.0485
  512MOL0     O70577   6.440   6.560   1.410 -0.6533 -0.6793 -0.0974
  512MOL0     C70578   6.428   6.421   1.420 -0.4508  0.5545 -0.3927
  512MOL0     C70579   6.301   6.363   1.476 -0.6036  0.3764 -1.0126
  512MOL0     C70580   6.299   6.216   1.487 -1.1253  0.1788  0.3765
  512MOL0     C70581   6.420   6.149   1.551 -0.1678 -0.4694  0.4312
  512MOL0     C70582   6.378   6.016   1.593  0.4985  0.2098  0.2200
  512MOL0     C70583   6.359   5.909   1.647 -0.0384 -0.2743 -0.5085
  512MOL0     C70584   6.685   6.568   1.451  0.0829 -0.7025  0.4005
  512MOL0     C70585   6.796   6.649   1.488  0.9049 -0.2454 -0.5252
  512MOL0     C70586   6.926   6.574   1.485  0.7386 -0.2574  0.4272
  512MOL0     H70587   6.822   6.990   1.872  1.8457 -2.7243 -0.1658
  512MOL0     H70588   6.996   7.051   2.029 -0.6060 -4.1476 -0.7988
  512MOL0     H70589   7.371   7.102   1.849  2.0459  3.1459  1.4094
  512MOL0     H70590   7.294   6.988   1.969 -1.2463  0.8069  2.9970
  512MOL0     H70591   7.475   7.224   2.012 -0.8094 -0.1994 -2.8177
  512MOL0     H70592   7.376   7.161   2.139 -0.8048  0.7953 -1.5859
  512MOL0     H70593   7.483   6.936   2.125 -1.6319  1.8346  0.6606
  512MOL0     H70594   7.554   6.982   1.971 -2.7616  2.4043 -1.8028
  512MOL0     H70595   7.673   7.176   2.073 -0.1967  1.9131  1.4624
  512MOL0     H70596   7.640   7.116   2.231  0.2160  2.4328 -0.9034
  512MOL0     H70597   7.872   7.053   2.139  1.8909 -2.8642  1.5117
  512MOL0     H70598   7.799   6.976   2.010 -1.3315 -0.6244 -0.4850
  512MOL0     H70599   7.712   6.851   2.282  1.7960 -1.9101  0.3746
  512MOL0     H70600   7.707   6.788   2.140 -3.0803  0.1999  2.4552
  512MOL0     H70601   7.972   6.859   2.278  2.5847  0.1010 -0.5674
  512MOL0     H70602   7.956   6.782   2.120  0.9698  0.1269  0.1695
  512MOL0     H70603   8.006   6.614   2.295 -0.2190 -1.2431 -3.6100
  512MOL0     H70604   7.863   6.665   2.388  1.6979 -0.7269  1.6598
  512MOL0     H70605   7.966   6.523   2.043  1.0761  0.8900  1.0628
  512MOL0     H70606   7.816   6.342   1.887 -1.0385  2.1424 -0.0543
  512MOL0     H70607   7.688   6.252   1.973 -1.2959  4.3595  2.7514
  512MOL0     H70608   7.968   6.250   2.059 -0.5100  2.2470  0.3418
  512MOL0     H70609   7.854   6.137   2.108  2.0441 -1.2297 -0.2315
  512MOL0     H70610   7.945   5.989   1.938  1.5443  0.1979 -0.1158
  512MOL0     H70611   7.858   6.079   1.813  1.3353 -1.4146 -0.8253
  512MOL0     H70612   8.080   6.098   1.726 -0.2158  3.0801 -1.1653
  512MOL0     H70613   8.010   6.249   1.779  1.1294  0.4450 -0.5764
  512MOL0     H70614   8.386   6.037   1.875  2.4663 -0.2822  0.4864
  512MOL0     H70615   8.626   6.011   1.835 -0.4489  1.8144  0.7430
  512MOL0     H70616   8.703   6.121   1.722 -0.4137  1.4631 -0.5359
  512MOL0     H70617   8.615   5.977   1.661  0.9420 -2.6663  2.6768
  512MOL0     H70618   8.816   6.431   1.458 -2.5227  0.1243  1.5803
  512MOL0     H70619   8.927   6.585   1.275  0.3918 -0.7812 -1.1703
  512MOL0     H70620   8.873   6.652   0.835  0.2236 -1.2881 -0.5609
  512MOL0     H70621   8.717   6.599   0.881  1.2013 -0.6561  1.3581
  512MOL0     H70622   8.659   6.763   1.005  0.1554  0.4783 -0.1512
  512MOL0     H70623   8.829   6.839   0.999  0.3721 -1.0843  1.5772
  512MOL0     H70624   8.645   6.789   0.755 -2.3046  2.1996 -0.3105
  512MOL0     H70625   8.810   6.849   0.751 -1.3667  2.1345 -0.4948
  512MOL0     H70626   8.713   7.031   0.930 -0.6817 -0.4625  0.3632
  512MOL0     H70627   8.557   6.998   0.856 -0.3250  2.4540  0.5701
  512MOL0     H70628   8.821   7.065   0.702  0.3053 -1.2910  0.4751
  512MOL0     H70629   8.664   7.049   0.624 -2.1097  0.9631 -0.1974
  512MOL0     H70630   8.725   7.276   0.810  0.8675  0.1020 -0.6669
  512MOL0     H70631   8.568   7.229   0.733  0.6879  0.7734 -2.5232
  512MOL0     H70632   8.639   7.375   0.580  1.1572 -0.3732 -1.5040
  512MOL0     H70633   8.670   7.221   0.515  1.3940 -1.6176  0.2853
  512MOL0     H70634   8.905   7.212   0.576 -0.8214 -0.4546  0.1014
  512MOL0     H70635   8.885   7.368   0.672 -2.5820  1.8626  0.1862
  512MOL0     H70636   8.631   6.466   1.001 -0.4332 -1.2977  0.2388
  512MOL0     H70637   8.483   6.397   1.201 -0.7071 -0.8314 -0.0948
  512MOL0     H70638   8.352   6.412   1.555  0.7668 -0.9766 -0.9618
  512MOL0     H70639   8.176   6.374   1.708 -2.4386 -3.1143  3.0740
  512MOL0     H70640   7.229   7.220   1.712 -0.3715  2.4028  1.4853
  512MOL0     H70641   7.052   7.128   1.541  1.4912  2.2698  0.3355
  512MOL0     H70642   6.630   6.949   1.531 -0.2316 -0.0760  0.9789
  512MOL0     H70643   6.437   6.802   1.450 -1.1622 -1.5521  1.2914
  512MOL0     H70644   6.449   6.372   1.325  1.3182  0.0152  0.2232
  512MOL0     H70645   6.514   6.387   1.479 -1.2235 -1.3108 -0.2893
  512MOL0     H70646   6.209   6.387   1.422 -0.5057  1.5455 -0.6699
  512MOL0     H70647   6.280   6.394   1.579  0.6775 -3.1612  0.4738
  512MOL0     H70648   6.218   6.201   1.560  0.5632 -1.9957  1.9228
  512MOL0     H70649   6.266   6.177   1.390 -0.4782 -2.6314  1.1846
  512MOL0     H70650   6.458   6.208   1.635  0.5436 -3.6824  2.5780
  512MOL0     H70651   6.496   6.143   1.472  0.2423  3.7537  0.2703
  512MOL0     H70652   6.349   5.822   1.708 -0.8152  1.4641  2.0367
  512MOL0     H70653   6.698   6.464   1.421  5.6418 -0.8909  2.3550
  512MOL0     H70654   6.976   6.576   1.582  3.2990  0.4149 -0.8028
  512MOL0     H70655   6.913   6.473   1.446  1.8115  0.1483 -1.0823
  512MOL0     H70656   6.997   6.620   1.415  1.4199 -0.6980  0.8181
  513MOL0     O70657   3.254   6.827   5.202  0.6008  0.1590  0.3927
  513MOL0     C70658   3.346   6.794   5.273 -0.0819  0.0996  0.6598
  513MOL0     O70659   3.464   6.728   5.233 -0.0781 -1.4273 -1.0651
  513MOL0     C70660   3.472   6.670   5.109  0.0904 -0.7225  0.2429
  513MOL0     C70661   3.378   6.583   5.051  0.8094  0.4152 -0.2861
  513MOL0     C70662   3.404   6.506   4.937 -0.4102 -0.4823 -0.5277
  513MOL0     C70663   3.514   6.534   4.865 -0.1648  0.7060  0.3036
  513MOL0     O70664   3.534   6.471   4.752 -0.6339 -0.2836  0.4967
  513MOL0     C70665   3.447   6.512   4.649 -0.1978 -0.0339 -0.1301
  513MOL0     C70666   3.484   6.426   4.531  0.2226 -1.0601 -0.8529
  513MOL0     C70667   3.431   6.280   4.540  0.4796 -0.9830 -0.3482
  513MOL0     C70668   3.449   6.215   4.404  0.2089  0.5593  0.1436
  513MOL0     C70669   3.407   6.065   4.414  0.2833 -0.0379 -0.1411
  513MOL0     C70670   3.427   5.982   4.291 -0.4310  0.6374 -0.2261
  513MOL0     C70671   3.374   5.838   4.301  0.3080  1.5399 -0.9901
  513MOL0     C70672   3.479   5.733   4.317 -0.0244 -0.3913 -0.9130
  513MOL0     N70673   3.553   5.737   4.447  0.7022  1.0823 -0.0687
  513MOL0     C70674   3.686   5.766   4.457 -0.1464  0.0732  0.6235
  513MOL0     C70675   3.717   5.739   4.594 -0.0819 -0.1950  0.3204
  513MOL0     C70676   3.857   5.750   4.640 -0.5092  0.7413  0.1467
  513MOL0     C70677   3.916   5.605   4.670  0.7071 -0.2367  0.3602
  513MOL0     C70678   4.069   5.589   4.670 -1.1330  0.6537  0.2535
  513MOL0     C70679   4.138   5.643   4.794 -0.2015 -0.2604 -0.5236
  513MOL0     O70680   4.142   5.790   4.797 -0.6248  1.1979  0.8228
  513MOL0     C70681   4.236   5.855   4.869  0.3672  0.5220  0.0805
  513MOL0     C70682   4.310   5.951   4.802 -0.1920 -0.2162 -0.2844
  513MOL0     C70683   4.395   6.036   4.869  0.1343  1.0756 -0.3872
  513MOL0     C70684   4.458   6.142   4.782 -0.2808  0.1765 -0.0176
  513MOL0     C70685   4.418   6.025   5.012 -0.1128 -0.5047  0.3589
  513MOL0     C70686   4.521   6.095   5.084 -1.0752 -0.7381  1.1696
  513MOL0     O70687   4.540   6.044   5.207  0.3099 -0.2612  0.2905
  513MOL0     C70688   4.631   6.112   5.292 -0.5437 -0.1825  0.4706
  513MOL0     C70689   4.760   6.077   5.305  0.5965  0.6549 -0.7924
  513MOL0     C70690   4.844   6.142   5.395  0.5449  0.2486  0.1685
  513MOL0     C70691   4.802   6.256   5.458  0.1542  0.1468 -0.2763
  513MOL0     O70692   4.882   6.300   5.557 -0.2116 -0.6236  0.1018
  513MOL0     C70693   4.856   6.408   5.650  0.0522 -0.3592 -0.6785
  513MOL0     C70694   4.739   6.377   5.743 -1.7543 -0.1037  1.0250
  513MOL0     C70695   4.675   6.508   5.778 -0.4018 -0.6264 -0.4541
  513MOL0     C70696   4.769   6.626   5.807  0.2211  0.2560 -0.1554
  513MOL0     C70697   4.677   6.737   5.848  0.5037 -0.2053  0.0780
  513MOL0     C70698   4.619   6.742   5.998  0.4632 -0.2588 -0.1499
  513MOL0     C70699   4.728   6.740   6.102  0.7086  0.2325 -0.4411
  513MOL0     C70700   4.677   6.806   6.224  1.1014  0.2757 -0.8427
  513MOL0    Cl70701   4.657   6.976   6.200 -0.2450  0.5820 -0.6635
  513MOL0     C70702   4.680   6.305   5.425  0.5371 -0.1345 -0.2094
  513MOL0     C70703   4.586   6.233   5.346 -0.0877  0.4430 -0.7180
  513MOL0     O70704   4.586   6.193   5.033 -0.7944  0.1604 -0.5044
  513MOL0     C70705   4.332   5.932   5.073 -0.2215  0.1140  0.0958
  513MOL0     C70706   4.247   5.846   5.007 -0.5155 -0.5420  0.0163
  513MOL0     N70707   3.606   5.688   4.651 -0.1596 -0.0135  0.2607
  513MOL0     N70708   3.509   5.682   4.566 -0.0510 -0.3098 -0.3778
  513MOL0     C70709   3.615   6.623   4.921 -1.0296  0.2689  0.1947
  513MOL0     C70710   3.590   6.690   5.038 -0.4377 -1.0329 -0.0497
  513MOL0     C70711   3.322   6.815   5.419 -0.0035 -0.4103 -0.5819
  513MOL0     C70712   3.189   6.843   5.462 -0.5648 -0.4031 -0.2923
  513MOL0     C70713   3.148   6.827   5.595  0.0793  0.9723 -0.7768
  513MOL0     C70714   3.247   6.775   5.689 -0.6428  0.1071 -0.3138
  513MOL0     O70715   3.204   6.754   5.820 -0.3856 -0.0528 -0.3016
  513MOL0     C70716   3.299   6.750   5.926 -0.1394  0.7829 -0.0666
  513MOL0     C70717   3.225   6.748   6.073  0.0746 -0.1601  0.1400
  513MOL0     C70718   3.314   6.714   6.188 -0.4545  0.1285 -0.0957
  513MOL0     C70719   3.426   6.823   6.202  0.7096  0.3442 -0.0084
  513MOL0     C70720   3.531   6.770   6.291  0.4496  1.2646  1.1845
  513MOL0     C70721   3.603   6.713   6.374  0.2781  0.8913 -0.1612
  513MOL0     C70722   3.382   6.767   5.652 -0.1559  0.5158  0.4880
  513MOL0     C70723   3.424   6.787   5.519  0.2426  0.4186 -1.1677
  513MOL0     C70724   3.573   6.766   5.482  1.0283  0.3656  1.1561
  513MOL0     H70725   3.296   6.554   5.116  1.5815 -0.2576  0.4112
  513MOL0     H70726   3.352   6.414   4.913 -0.2061 -1.0885  1.1944
  513MOL0     H70727   3.452   6.618   4.623  3.4263 -0.4422 -1.8432
  513MOL0     H70728   3.342   6.497   4.675 -1.0283  3.0011 -1.2435
  513MOL0     H70729   3.449   6.483   4.444  0.6004  2.4861  1.1129
  513MOL0     H70730   3.594   6.423   4.536  0.1402 -3.3773  1.7581
  513MOL0     H70731   3.488   6.230   4.618 -0.8585  0.7885  1.8984
  513MOL0     H70732   3.324   6.298   4.557  1.3495  2.6255  2.4057
  513MOL0     H70733   3.401   6.277   4.327 -2.5341 -2.7030 -1.0175
  513MOL0     H70734   3.556   6.218   4.383  0.4858 -1.6360  1.0135
  513MOL0     H70735   3.301   6.063   4.441 -0.6111  0.9556 -3.2525
  513MOL0     H70736   3.461   6.016   4.496  2.5485  0.8059 -1.0349
  513MOL0     H70737   3.363   6.024   4.213 -1.0247 -0.0933 -0.1457
  513MOL0     H70738   3.523   5.992   4.239 -0.0001 -0.0403  0.4377
  513MOL0     H70739   3.332   5.805   4.205 -0.6187 -0.5729  0.0697
  513MOL0     H70740   3.295   5.833   4.377  0.0248  0.7984 -1.3128
  513MOL0     H70741   3.429   5.635   4.310 -0.5503 -0.0489 -2.0371
  513MOL0     H70742   3.554   5.729   4.238  1.2816 -2.4518  0.3312
  513MOL0     H70743   3.754   5.800   4.381  0.6625 -1.1631  0.7562
  513MOL0     H70744   3.857   5.798   4.738 -0.3291 -0.1270  0.5826
  513MOL0     H70745   3.919   5.796   4.563 -1.4422  0.0502 -1.0545
  513MOL0     H70746   3.870   5.579   4.766  1.7375 -0.2505  0.8572
  513MOL0     H70747   3.873   5.541   4.592  1.5442  0.2779 -0.5406
  513MOL0     H70748   4.084   5.481   4.671 -0.1278  0.7087  3.5072
  513MOL0     H70749   4.118   5.629   4.581 -0.3440 -2.3250 -0.7542
  513MOL0     H70750   4.086   5.609   4.884  1.0276 -0.5362  0.1147
  513MOL0     H70751   4.240   5.610   4.816 -0.5540 -2.0852 -1.5273
  513MOL0     H70752   4.300   5.960   4.694  3.4368  4.6233 -0.5510
  513MOL0     H70753   4.429   6.129   4.678 -2.3574  1.0633  0.3916
  513MOL0     H70754   4.564   6.117   4.786 -0.5623 -1.0986  3.3186
  513MOL0     H70755   4.433   6.245   4.808  1.9013  0.5512  0.8288
  513MOL0     H70756   4.791   5.989   5.250 -1.4877  1.5727 -3.6545
  513MOL0     H70757   4.947   6.119   5.420  1.0467  0.7881 -1.2985
  513MOL0     H70758   4.939   6.429   5.718  1.1145  1.7391 -2.5023
  513MOL0     H70759   4.847   6.496   5.586  2.5722 -0.7878 -1.7563
  513MOL0     H70760   4.663   6.322   5.686 -2.1794  1.3215  0.1645
  513MOL0     H70761   4.762   6.320   5.834 -2.2630  0.7000  1.6635
  513MOL0     H70762   4.620   6.494   5.872  2.8424 -1.4313  1.4712
  513MOL0     H70763   4.612   6.529   5.691 -3.5490 -3.6468  0.8293
  513MOL0     H70764   4.825   6.651   5.716 -0.3656  2.0025 -0.0726
  513MOL0     H70765   4.836   6.601   5.889 -0.0629  0.3486  0.1089
  513MOL0     H70766   4.724   6.833   5.826 -0.2824 -0.2049 -1.8276
  513MOL0     H70767   4.591   6.745   5.781  0.1809  0.1756  0.5318
  513MOL0     H70768   4.560   6.656   6.029 -0.0865  0.9406  2.4002
  513MOL0     H70769   4.559   6.833   6.005 -0.2049 -0.6843 -0.2688
  513MOL0     H70770   4.810   6.802   6.064 -0.0400 -0.3739 -3.2913
  513MOL0     H70771   4.774   6.642   6.121 -0.2797 -0.4216 -1.3022
  513MOL0     H70772   4.745   6.781   6.306 -0.7966  0.3850  0.8366
  513MOL0     H70773   4.583   6.754   6.246 -0.4037  2.8545 -0.7487
  513MOL0     H70774   4.649   6.405   5.455 -0.1497  0.9206 -3.8858
  513MOL0     H70775   4.485   6.271   5.341  0.2221  1.1876 -1.4558
  513MOL0     H70776   4.342   5.924   5.181 -3.8613 -3.4799  0.4043
  513MOL0     H70777   4.197   5.775   5.073  1.0687 -0.5992  1.2151
  513MOL0     H70778   3.716   6.628   4.881 -0.7314 -0.7431  0.7776
  513MOL0     H70779   3.661   6.761   5.080 -1.5564  0.1303 -0.0450
  513MOL0     H70780   3.109   6.874   5.395 -1.1970 -0.9723  0.1905
  513MOL0     H70781   3.043   6.838   5.621  0.6411  1.3502  1.5595
  513MOL0     H70782   3.360   6.661   5.909 -0.4124  0.5168  0.3118
  513MOL0     H70783   3.359   6.842   5.919  1.2141 -0.0163  0.6386
  513MOL0     H70784   3.146   6.674   6.065  0.1654 -0.1513 -1.0815
  513MOL0     H70785   3.188   6.848   6.099  1.0637  0.5943 -1.2093
  513MOL0     H70786   3.261   6.687   6.279  0.6935  1.5210  1.0446
  513MOL0     H70787   3.362   6.619   6.162 -2.5779 -0.8858 -0.4972
  513MOL0     H70788   3.381   6.913   6.245 -3.5768 -1.0438 -1.0320
  513MOL0     H70789   3.467   6.855   6.106 -1.5453 -1.6543 -1.7593
  513MOL0     H70790   3.666   6.678   6.454 -0.5645  3.2550  1.6462
  513MOL0     H70791   3.459   6.760   5.728 -1.3638 -0.3035  1.6732
  513MOL0     H70792   3.641   6.814   5.553  2.0088 -0.8407  1.0664
  513MOL0     H70793   3.595   6.659   5.476 -2.0648 -0.2990 -0.6620
  513MOL0     H70794   3.607   6.824   5.396  2.1150 -2.2411 -0.2744
  514MOL0     O70795   9.399   7.241   6.174  0.0555  0.0039  0.1200
  514MOL0     C70796   9.396   7.345   6.107 -0.8228 -0.8807 -0.0685
  514MOL0     O70797   9.501   7.432   6.076 -0.7008  0.6686  0.3529
  514MOL0     C70798   9.617   7.385   6.121 -0.6951 -0.4277  0.4886
  514MOL0     C70799   9.709   7.343   6.023  0.4298 -0.1951  0.0393
  514MOL0     C70800   9.833   7.290   6.056  0.5180 -1.1051  0.2348
  514MOL0     C70801   9.873   7.285   6.195  0.4301  0.5396 -0.0901
  514MOL0     O70802   9.990   7.226   6.223 -0.8252  0.0255 -0.2203
  514MOL0     C70803  10.029   7.185   6.358  1.3067  0.2368  0.4476
  514MOL0     C70804  10.173   7.144   6.369  1.0995 -0.4445  0.4345
  514MOL0     C70805  10.196   7.095   6.513  0.0302  0.3659  0.3667
  514MOL0     C70806  10.320   7.009   6.508  0.0736  0.6250 -0.1265
  514MOL0     C70807  10.350   6.951   6.642  0.0898  0.3355 -0.1037
  514MOL0     C70808  10.485   6.887   6.647  0.5619 -0.7240  0.1682
  514MOL0     C70809  10.509   6.839   6.786 -0.7870  0.1998  0.7418
  514MOL0     C70810  10.505   6.687   6.783 -0.6496 -0.1510  0.1239
  514MOL0     N70811  10.630   6.625   6.749  0.0151 -0.0117 -0.2599
  514MOL0     C70812  10.744   6.689   6.728 -0.5785 -0.7276  0.3822
  514MOL0     C70813  10.842   6.593   6.729  1.0977  0.5956 -0.1571
  514MOL0     C70814  10.987   6.608   6.702  0.7895  0.4142  0.3629
  514MOL0     C70815  11.056   6.474   6.696  1.3414 -0.0322  0.6655
  514MOL0     C70816  11.202   6.491   6.647 -0.5942 -0.5947  0.7278
  514MOL0     C70817  11.281   6.365   6.693  0.4664 -1.1599  0.4137
  514MOL0     O70818  11.416   6.390   6.657 -0.5941  0.2494 -0.4128
  514MOL0     C70819  11.506   6.289   6.690  0.3738 -0.3442 -0.1282
  514MOL0     C70820  11.478   6.161   6.728  0.2194  0.2932 -0.3736
  514MOL0     C70821  11.585   6.079   6.762 -0.5313  0.0412  0.1014
  514MOL0     C70822  11.546   5.929   6.799  0.6262 -0.9313  0.5379
  514MOL0     C70823  11.722   6.125   6.756 -0.2485 -0.1361 -0.5519
  514MOL0     C70824  11.833   6.028   6.770 -0.2054 -0.0831  0.6773
  514MOL0     O70825  11.897   6.043   6.887 -0.8070 -0.5166  0.1553
  514MOL0     C70826  12.019   5.982   6.897 -0.2520  1.0104  0.0084
  514MOL0     C70827  12.039   5.851   6.954  0.0214 -0.1076  0.0736
  514MOL0     C70828  12.168   5.799   6.958 -0.2289  0.6077  0.5559
  514MOL0     C70829  12.281   5.869   6.902 -0.0314  0.2570 -0.3860
  514MOL0     O70830  12.405   5.815   6.907 -0.3309  0.7551  0.1356
  514MOL0     C70831  12.519   5.893   6.896 -0.8234 -0.0476  0.6682
  514MOL0     C70832  12.653   5.818   6.915  0.4686  0.3442  0.6603
  514MOL0     C70833  12.766   5.917   6.924 -0.3399 -0.5072  0.0672
  514MOL0     C70834  12.854   5.900   6.804 -0.0170 -0.5990  0.1217
  514MOL0     C70835  12.814   5.990   6.683  0.3566 -0.7507  0.3887
  514MOL0     C70836  12.904   5.952   6.563  0.6212 -0.1679  0.0939
  514MOL0     C70837  12.851   6.033   6.434 -0.1269 -0.3598 -0.2748
  514MOL0     C70838  12.749   5.956   6.349  0.3428 -0.5235 -0.3956
  514MOL0    Cl70839  12.836   5.837   6.252 -0.4132  0.5151 -0.1961
  514MOL0     C70840  12.255   5.998   6.851  0.0683 -0.0959 -1.0760
  514MOL0     C70841  12.128   6.053   6.856 -0.0516 -0.0398 -0.1464
  514MOL0     O70842  11.861   5.943   6.683 -1.1170 -0.2427  0.1459
  514MOL0     C70843  11.746   6.257   6.718 -0.2322  0.1703  0.9249
  514MOL0     C70844  11.637   6.336   6.682  0.4633  0.1917  0.0173
  514MOL0     N70845  10.773   6.469   6.756 -0.1900  0.4084  0.5349
  514MOL0     N70846  10.653   6.488   6.771  0.0799  0.0242 -0.0673
  514MOL0     C70847   9.780   7.329   6.289  0.3426 -0.2552 -0.3918
  514MOL0     C70848   9.657   7.385   6.251  0.0753  0.8580  0.2149
  514MOL0     C70849   9.261   7.397   6.072 -0.6107  0.1062 -0.6265
  514MOL0     C70850   9.250   7.536   6.047  0.2658 -0.3762  0.2495
  514MOL0     C70851   9.129   7.598   6.030 -0.1955  0.2743  0.6732
  514MOL0     C70852   9.013   7.526   6.025  0.7824  0.7843  1.3404
  514MOL0     O70853   8.890   7.577   6.000 -0.3646  0.4598  0.6467
  514MOL0     C70854   8.881   7.720   5.985 -0.2409  0.1993 -0.2084
  514MOL0     C70855   8.733   7.751   5.975  0.4453 -0.7268 -0.0933
  514MOL0     C70856   8.670   7.708   5.849  0.1099  0.8338 -0.2503
  514MOL0     C70857   8.514   7.716   5.858 -0.3072  0.1967 -0.1346
  514MOL0     C70858   8.478   7.591   5.925 -0.3043  0.7976  0.0647
  514MOL0     C70859   8.453   7.488   5.990 -0.5599  0.6293  0.0354
  514MOL0     C70860   9.014   7.392   6.046 -0.3497  0.1017  1.4152
  514MOL0     C70861   9.137   7.322   6.064 -0.3534  0.1702  0.2823
  514MOL0     C70862   9.144   7.176   6.091 -0.0322  0.0992  0.7973
  514MOL0     H70863   9.688   7.345   5.916  0.9041 -0.9378 -0.0822
  514MOL0     H70864   9.900   7.257   5.978  1.8653  2.7026 -0.4165
  514MOL0     H70865   9.964   7.102   6.389  0.2988  0.6704 -0.4797
  514MOL0     H70866  10.012   7.266   6.429 -1.7404  0.5780 -0.5136
  514MOL0     H70867  10.182   7.064   6.295 -0.5428  0.1190 -0.4152
  514MOL0     H70868  10.231   7.230   6.332 -1.2491  1.6977  1.4202
  514MOL0     H70869  10.207   7.183   6.578  1.2839  0.2764  0.3057
  514MOL0     H70870  10.119   7.022   6.540  0.1450  0.8637  2.2082
  514MOL0     H70871  10.306   6.927   6.437 -4.6398  0.8478  0.2387
  514MOL0     H70872  10.396   7.075   6.466 -1.1945  2.2486  0.0475
  514MOL0     H70873  10.271   6.885   6.679  1.2051 -0.2889  1.2412
  514MOL0     H70874  10.359   7.039   6.706 -2.0973  2.1409 -2.0595
  514MOL0     H70875  10.473   6.808   6.573 -1.0341  0.4675 -0.9179
  514MOL0     H70876  10.557   6.964   6.616 -0.3710  0.4388  0.8195
  514MOL0     H70877  10.432   6.876   6.853  0.1877  2.2722  0.7882
  514MOL0     H70878  10.603   6.876   6.830  0.8289 -2.0766 -0.5462
  514MOL0     H70879  10.489   6.651   6.885 -0.0203 -0.5687  0.0854
  514MOL0     H70880  10.420   6.643   6.730  0.1453 -1.8922  0.2103
  514MOL0     H70881  10.767   6.792   6.702  2.5007 -1.3537  0.2760
  514MOL0     H70882  11.024   6.677   6.778 -0.0945  0.0107  1.1742
  514MOL0     H70883  10.989   6.640   6.597  0.1878 -0.0211  0.2170
  514MOL0     H70884  11.051   6.429   6.796 -1.4792 -0.3955  0.4395
  514MOL0     H70885  11.001   6.409   6.628  1.6370 -0.1670  0.5527
  514MOL0     H70886  11.202   6.510   6.540 -2.8308  2.3969  1.1200
  514MOL0     H70887  11.248   6.577   6.698  1.6298  0.2639 -2.4434
  514MOL0     H70888  11.278   6.352   6.802  1.1073  2.3993  0.9728
  514MOL0     H70889  11.239   6.279   6.639 -3.1063 -0.4941  1.8544
  514MOL0     H70890  11.385   6.107   6.737  0.7921 -0.4113  2.0102
  514MOL0     H70891  11.490   5.888   6.714  1.9173 -2.1275  0.2298
  514MOL0     H70892  11.473   5.940   6.880  0.3580  1.8609  0.0264
  514MOL0     H70893  11.626   5.862   6.830  0.9216 -0.9222 -0.1890
  514MOL0     H70894  11.956   5.788   6.983  0.2834 -0.0613  0.9758
  514MOL0     H70895  12.192   5.708   7.012 -0.9905 -1.1596 -1.9196
  514MOL0     H70896  12.514   5.939   6.797 -0.9727 -1.6821 -0.1212
  514MOL0     H70897  12.510   5.978   6.964 -1.3574  0.2434  0.2441
  514MOL0     H70898  12.658   5.756   7.005  1.1036  0.1218  0.4792
  514MOL0     H70899  12.662   5.746   6.833  0.9340  2.4993 -1.3000
  514MOL0     H70900  12.824   5.880   7.009 -2.2053 -2.3851  0.6187
  514MOL0     H70901  12.735   6.021   6.939 -0.2598 -0.7452  2.1220
  514MOL0     H70902  12.848   5.797   6.770 -5.5031 -0.7744  0.7040
  514MOL0     H70903  12.956   5.921   6.839 -0.4636 -1.5156  2.1146
  514MOL0     H70904  12.711   5.989   6.648  0.4779  1.6269 -0.1552
  514MOL0     H70905  12.840   6.092   6.710  2.6419 -1.5723  1.5604
  514MOL0     H70906  12.886   5.844   6.555 -1.1005 -0.1044  2.2214
  514MOL0     H70907  13.013   5.959   6.571  0.9247  1.0339 -3.3861
  514MOL0     H70908  12.937   6.061   6.373 -0.6758 -1.0138 -1.3761
  514MOL0     H70909  12.804   6.126   6.468  1.5895  0.4823 -0.0809
  514MOL0     H70910  12.696   6.024   6.282  2.4491  0.4495 -1.1567
  514MOL0     H70911  12.675   5.909   6.415 -0.3261  0.8821 -0.0999
  514MOL0     H70912  12.343   6.058   6.829  0.5266 -0.9625 -1.6465
  514MOL0     H70913  12.103   6.150   6.816  1.4801  0.7662  0.7674
  514MOL0     H70914  11.847   6.296   6.713  0.7924 -2.4416 -0.8233
  514MOL0     H70915  11.651   6.429   6.626 -1.9578 -1.1554 -3.1038
  514MOL0     H70916   9.801   7.323   6.396 -0.2258 -3.2668 -0.3649
  514MOL0     H70917   9.592   7.428   6.327  0.5810 -1.2764  1.9795
  514MOL0     H70918   9.336   7.602   6.059  0.1932 -0.3475  0.6435
  514MOL0     H70919   9.134   7.706   6.016 -1.1791  0.1740 -0.5944
  514MOL0     H70920   8.915   7.772   6.075 -3.3226  0.7099  0.7904
  514MOL0     H70921   8.938   7.755   5.899  2.6355  0.8903  1.8333
  514MOL0     H70922   8.714   7.859   5.981 -1.3158 -0.8803 -1.8600
  514MOL0     H70923   8.684   7.711   6.064 -1.9979  2.6074  0.2663
  514MOL0     H70924   8.696   7.771   5.763 -1.8612 -2.5570 -3.6254
  514MOL0     H70925   8.691   7.605   5.821 -3.6480 -0.5762  1.4136
  514MOL0     H70926   8.465   7.715   5.760  0.7933  2.4363 -0.7848
  514MOL0     H70927   8.485   7.807   5.911 -1.2655  1.9252 -3.3132
  514MOL0     H70928   8.438   7.389   6.029  0.7058 -0.7815 -2.8018
  514MOL0     H70929   8.919   7.340   6.051 -1.1988  1.3103 -0.9297
  514MOL0     H70930   9.047   7.137   6.058 -0.4713  2.3725 -0.8393
  514MOL0     H70931   9.217   7.127   6.026  1.8709  3.2785  0.3216
  514MOL0     H70932   9.169   7.139   6.190  0.6351 -3.7924 -0.6397
  515MOL0     O70933   2.274   2.142   8.484 -0.3155 -0.0764  0.8105
  515MOL0     C70934   2.168   2.200   8.477 -1.1077  0.2171  0.5222
  515MOL0     O70935   2.130   2.288   8.578  0.2263  0.7292  0.5002
  515MOL0     C70936   2.229   2.355   8.644  0.1699 -0.3255 -1.5678
  515MOL0     C70937   2.332   2.424   8.579 -0.0699  0.1766 -0.7088
  515MOL0     C70938   2.409   2.519   8.644  0.4550 -0.3633  0.8344
  515MOL0     C70939   2.388   2.532   8.785 -0.9865 -0.0792  0.0482
  515MOL0     O70940   2.461   2.621   8.864  0.5125  0.0161  0.7600
  515MOL0     C70941   2.549   2.712   8.796 -0.0201  0.7102 -0.7338
  515MOL0     C70942   2.688   2.636   8.771  0.0174 -1.4234 -0.3008
  515MOL0     C70943   2.783   2.739   8.736 -0.3409  0.7536 -0.4377
  515MOL0     C70944   2.931   2.698   8.750 -0.2806  0.4360  0.3080
  515MOL0     C70945   3.028   2.818   8.739 -0.0139 -0.2981  0.4555
  515MOL0     C70946   3.030   2.871   8.591 -0.2138  0.0142  0.5130
  515MOL0     C70947   3.120   2.985   8.586 -0.5253 -0.5540  0.4521
  515MOL0     C70948   3.132   3.028   8.439 -0.9967  0.1943 -0.5012
  515MOL0     N70949   3.191   2.917   8.361  0.0366  0.2226  0.8462
  515MOL0     C70950   3.124   2.842   8.270 -0.5201  1.1515 -0.5714
  515MOL0     C70951   3.219   2.769   8.196 -0.1233  0.9436 -0.3118
  515MOL0     C70952   3.199   2.686   8.085 -0.1208  1.1452  0.5858
  515MOL0     C70953   3.302   2.717   7.984 -0.3912  0.2369  0.0894
  515MOL0     C70954   3.271   2.624   7.863  0.4790 -0.1262 -0.8398
  515MOL0     C70955   3.359   2.655   7.753 -0.0649 -1.6829 -0.7316
  515MOL0     O70956   3.498   2.620   7.775  0.4779  0.3371  0.0336
  515MOL0     C70957   3.543   2.500   7.715  0.1843  0.9808  0.0640
  515MOL0     C70958   3.675   2.494   7.680 -0.4230  0.2477 -0.3264
  515MOL0     C70959   3.736   2.390   7.605  0.1561  0.7537  0.3046
  515MOL0     C70960   3.883   2.420   7.565  0.5339 -0.0321 -0.6999
  515MOL0     C70961   3.655   2.285   7.553 -0.7914 -0.0435 -0.2104
  515MOL0     C70962   3.701   2.176   7.463  0.1683 -0.0906 -0.4990
  515MOL0     O70963   3.640   2.052   7.477 -1.3191  0.7176 -0.0856
  515MOL0     C70964   3.706   1.935   7.428 -0.4978 -0.2360 -0.2287
  515MOL0     C70965   3.621   1.837   7.411  0.0610  0.4135  0.2210
  515MOL0     C70966   3.665   1.708   7.375 -0.5545 -0.2944  0.4995
  515MOL0     C70967   3.799   1.691   7.326 -0.4350  0.0164 -0.7814
  515MOL0     O70968   3.835   1.564   7.293 -0.5992 -0.3154 -0.0748
  515MOL0     C70969   3.887   1.541   7.157  0.2690 -0.3602 -0.5373
  515MOL0     C70970   3.884   1.396   7.116 -0.0060  0.4960  0.5956
  515MOL0     C70971   3.916   1.386   6.967 -0.1503  0.8705  0.7883
  515MOL0     C70972   3.877   1.247   6.920 -0.9153 -0.2592 -0.5612
  515MOL0     C70973   3.878   1.234   6.764  0.9616  0.4366 -0.8061
  515MOL0     C70974   3.854   1.091   6.721 -0.5551 -0.1901  0.0938
  515MOL0     C70975   3.724   1.034   6.781  0.4674 -0.1661 -0.7495
  515MOL0     C70976   3.678   0.908   6.710 -0.3558  0.2202 -0.1858
  515MOL0    Cl70977   3.796   0.783   6.719 -0.0258  0.0027  0.6440
  515MOL0     C70978   3.888   1.799   7.332 -0.2471 -0.1123 -0.4933
  515MOL0     C70979   3.845   1.925   7.387  0.5317  0.5635 -0.8894
  515MOL0     O70980   3.781   2.210   7.378 -0.1328 -0.0250 -0.2269
  515MOL0     C70981   3.523   2.282   7.605 -0.2943  0.3211  0.2662
  515MOL0     C70982   3.468   2.385   7.691  0.4236 -0.2981  0.3339
  515MOL0     N70983   3.339   2.802   8.256  0.6184 -0.1195 -0.2986
  515MOL0     N70984   3.320   2.895   8.347  0.2110 -0.1929  0.2386
  515MOL0     C70985   2.299   2.451   8.850 -0.7433 -0.8253  0.0438
  515MOL0     C70986   2.214   2.374   8.783  0.6938 -0.1889 -0.5158
  515MOL0     C70987   2.060   2.170   8.375 -0.3900  0.8669  0.0654
  515MOL0     C70988   1.948   2.251   8.378  0.0524 -0.1885 -0.8250
  515MOL0     C70989   1.842   2.210   8.301  1.4537  0.4164 -0.6883
  515MOL0     C70990   1.848   2.103   8.219 -0.0161 -0.0520 -0.7284
  515MOL0     O70991   1.736   2.071   8.141  0.3867  0.0845  0.6668
  515MOL0     C70992   1.715   1.942   8.074  0.6509  0.9211  1.1450
  515MOL0     C70993   1.574   1.890   8.074 -0.5506  0.1805  0.1451
  515MOL0     C70994   1.494   1.914   8.202  0.1449  0.9308  0.5842
  515MOL0     C70995   1.549   1.842   8.331  0.7294 -0.1908  1.0904
  515MOL0     C70996   1.518   1.702   8.327  0.0783 -0.0734 -0.3083
  515MOL0     C70997   1.479   1.590   8.336  0.1246 -0.5549  0.4013
  515MOL0     C70998   1.969   2.037   8.200  0.5211 -0.5069 -0.0590
  515MOL0     C70999   2.079   2.065   8.277 -0.5457  0.1862  0.7479
  515MOL0     C71000   2.202   1.976   8.258 -0.9680  0.3900 -0.5839
  515MOL0     H71001   2.339   2.411   8.471  0.2766  2.0842 -0.9572
  515MOL0     H71002   2.475   2.570   8.575 -1.0933  0.3917 -0.1525
  515MOL0     H71003   2.562   2.783   8.879 -2.5127 -0.7988  1.0734
  515MOL0     H71004   2.490   2.751   8.713  0.4260 -2.2711 -2.5871
  515MOL0     H71005   2.715   2.594   8.868 -1.2877  2.2674  1.8837
  515MOL0     H71006   2.678   2.559   8.694 -0.0611 -0.8381 -0.8787
  515MOL0     H71007   2.763   2.767   8.632 -2.4832  0.9826 -0.0156
  515MOL0     H71008   2.776   2.830   8.796 -3.9047  1.1939 -1.2824
  515MOL0     H71009   2.965   2.664   8.848  1.6361  0.8221 -0.1705
  515MOL0     H71010   2.951   2.613   8.684 -0.4736 -0.0426  0.8567
  515MOL0     H71011   3.132   2.789   8.757  0.6339  0.8252 -1.2597
  515MOL0     H71012   2.999   2.900   8.804 -0.7044  1.2072 -1.6476
  515MOL0     H71013   3.062   2.782   8.537  0.2120 -1.4589  3.0198
  515MOL0     H71014   2.932   2.908   8.559 -0.2225  0.0331  0.5620
  515MOL0     H71015   3.219   2.958   8.624 -0.6724 -0.1091  1.1739
  515MOL0     H71016   3.078   3.063   8.651 -0.1793  0.8767 -0.9669
  515MOL0     H71017   3.031   3.048   8.403 -1.5402  1.8748  1.7245
  515MOL0     H71018   3.196   3.116   8.429 -0.0040 -0.2891  1.1593
  515MOL0     H71019   3.017   2.857   8.258 -0.4227  1.3075 -1.2988
  515MOL0     H71020   3.097   2.702   8.050 -0.1735 -0.2616  0.0520
  515MOL0     H71021   3.216   2.584   8.121 -1.4647 -0.1577 -2.1469
  515MOL0     H71022   3.293   2.824   7.962 -2.9902  0.2223  0.8306
  515MOL0     H71023   3.403   2.700   8.024  0.0950 -0.4575 -1.3827
  515MOL0     H71024   3.280   2.517   7.884  0.0771 -0.4435 -2.1719
  515MOL0     H71025   3.171   2.643   7.823  0.4181 -2.1437 -1.7660
  515MOL0     H71026   3.308   2.615   7.665  0.0971  0.0459 -1.6420
  515MOL0     H71027   3.368   2.764   7.751  4.1113 -1.7599  1.6793
  515MOL0     H71028   3.741   2.574   7.714  1.3354 -0.6606 -1.4119
  515MOL0     H71029   3.925   2.486   7.642 -0.3565 -0.5500  0.2516
  515MOL0     H71030   3.881   2.474   7.470 -0.2279 -0.2027 -0.7830
  515MOL0     H71031   3.940   2.329   7.546 -0.8393 -0.8363 -1.0708
  515MOL0     H71032   3.516   1.855   7.433 -0.6145  0.0897 -2.3661
  515MOL0     H71033   3.591   1.629   7.368 -1.2158  0.4501 -1.2595
  515MOL0     H71034   3.829   1.604   7.088  0.1931  0.4087  0.2054
  515MOL0     H71035   3.993   1.569   7.151  0.5804 -1.8589 -3.3601
  515MOL0     H71036   3.966   1.349   7.171  2.4043 -0.3455 -3.3298
  515MOL0     H71037   3.796   1.340   7.148  2.3797 -2.9076  1.8363
  515MOL0     H71038   4.017   1.393   6.927  0.0631 -0.0032  1.1404
  515MOL0     H71039   3.854   1.455   6.909  1.0968  0.7251 -0.7569
  515MOL0     H71040   3.774   1.231   6.954 -1.2000  4.0599  1.2663
  515MOL0     H71041   3.946   1.182   6.974 -2.5747 -1.6551 -0.0097
  515MOL0     H71042   3.805   1.299   6.717  1.1809  0.1068 -1.6179
  515MOL0     H71043   3.973   1.268   6.723  0.9973  1.9933  0.4557
  515MOL0     H71044   3.937   1.034   6.763  1.5632 -1.2246 -4.7870
  515MOL0     H71045   3.874   1.088   6.613  3.9617  1.8358  0.6622
  515MOL0     H71046   3.641   1.105   6.774 -0.0062 -0.7985 -1.8841
  515MOL0     H71047   3.735   1.004   6.886 -0.9024 -3.4226 -1.4021
  515MOL0     H71048   3.650   0.929   6.607 -1.2918  0.6519  0.1389
  515MOL0     H71049   3.586   0.865   6.751  0.5680 -2.8261 -1.0513
  515MOL0     H71050   3.994   1.788   7.311  0.7694  3.4275  1.9025
  515MOL0     H71051   3.916   2.007   7.395 -1.0506  1.8926  0.4363
  515MOL0     H71052   3.459   2.202   7.570  0.4484 -0.7970  1.3982
  515MOL0     H71053   3.366   2.383   7.728 -0.2460  1.3584 -1.2742
  515MOL0     H71054   2.297   2.464   8.957 -0.3687  0.1243 -0.0532
  515MOL0     H71055   2.143   2.314   8.839 -1.9773  1.7911 -1.5400
  515MOL0     H71056   1.938   2.339   8.441  0.3156 -0.7154 -0.0404
  515MOL0     H71057   1.748   2.265   8.305  0.8334 -0.6865  2.1036
  515MOL0     H71058   1.744   1.965   7.971 -0.6694  0.8162  0.7223
  515MOL0     H71059   1.778   1.867   8.124  0.4543  0.9036  1.3702
  515MOL0     H71060   1.577   1.783   8.052  0.4029  0.7267 -2.8806
  515MOL0     H71061   1.525   1.943   7.992 -1.3122 -0.2632  0.3099
  515MOL0     H71062   1.480   2.021   8.220 -2.0602  0.6954  0.5855
  515MOL0     H71063   1.390   1.895   8.174  1.0679  0.7347 -3.1830
  515MOL0     H71064   1.504   1.902   8.410  1.4138  1.6447  0.1649
  515MOL0     H71065   1.658   1.853   8.325  0.8839 -1.5036 -4.6785
  515MOL0     H71066   1.433   1.493   8.337 -2.1925  0.4466 -0.7776
  515MOL0     H71067   1.979   1.955   8.130  0.2336 -1.5871  1.1144
  515MOL0     H71068   2.297   2.013   8.299 -1.5308 -0.7651  1.9675
  515MOL0     H71069   2.181   1.881   8.308 -2.7421  0.2070 -1.6138
  515MOL0     H71070   2.212   1.966   8.150  2.0362 -2.0598 -0.2018
  516MOL0     O71071   3.234   3.614   1.958  0.4639 -0.0772 -0.2766
  516MOL0     C71072   3.338   3.589   2.018 -0.4485  0.1676 -0.1692
  516MOL0     O71073   3.445   3.681   2.037 -1.1373 -0.1974 -0.4852
  516MOL0     C71074   3.459   3.785   1.945  0.7421 -0.6220 -0.6138
  516MOL0     C71075   3.502   3.905   1.984 -0.6942  0.2392 -0.1340
  516MOL0     C71076   3.513   4.020   1.903  0.0794  0.7448  0.6713
  516MOL0     C71077   3.494   4.013   1.766 -0.1075  0.4261 -0.3551
  516MOL0     O71078   3.507   4.119   1.676  0.4962 -0.6625 -0.4045
  516MOL0     C71079   3.641   4.172   1.655 -0.0899  0.3632 -1.1325
  516MOL0     C71080   3.733   4.072   1.574  0.3332  0.0054  0.2461
  516MOL0     C71081   3.730   4.115   1.428  0.7169  1.1174  0.3215
  516MOL0     C71082   3.860   4.052   1.360  0.2838 -0.4360  0.9541
  516MOL0     C71083   3.983   4.146   1.388  1.4013  0.3634 -0.3011
  516MOL0     C71084   4.040   4.179   1.253  0.5955  0.0730  0.0488
  516MOL0     C71085   4.158   4.277   1.259 -0.5769  0.4165  0.1649
  516MOL0     C71086   4.138   4.418   1.312 -0.1990  0.4156  0.1070
  516MOL0     N71087   4.027   4.482   1.241 -0.1489 -0.6615 -0.1851
  516MOL0     C71088   4.021   4.492   1.105 -0.0691  0.2564 -0.5477
  516MOL0     C71089   3.891   4.527   1.081  0.0818 -1.3766 -0.4293
  516MOL0     C71090   3.819   4.535   0.957  0.0203 -0.8543  0.0733
  516MOL0     C71091   3.859   4.659   0.864  0.3564  0.6355  0.6932
  516MOL0     C71092   3.825   4.621   0.720  0.6625  0.3543  0.2142
  516MOL0     C71093   3.865   4.733   0.622  0.2959 -0.3542 -0.3197
  516MOL0     O71094   3.784   4.728   0.503 -0.3418  0.4009  0.8741
  516MOL0     C71095   3.779   4.846   0.433  0.4674  0.2064  0.0645
  516MOL0     C71096   3.859   4.959   0.451 -1.1558  0.0901 -0.0815
  516MOL0     C71097   3.839   5.081   0.380  0.1628 -0.4321 -0.4628
  516MOL0     C71098   3.938   5.192   0.410  0.3032 -0.0753  0.5002
  516MOL0     C71099   3.728   5.094   0.297  0.3430 -0.2666 -0.5269
  516MOL0     C71100   3.708   5.212   0.211 -0.0099 -0.9711  0.0725
  516MOL0     O71101   3.704   5.338   0.263 -0.1934  0.1143 -1.1154
  516MOL0     C71102   3.678   5.438   0.173  0.2602 -0.5645  0.0382
  516MOL0     C71103   3.548   5.461   0.148 -0.2263  1.1535  1.3319
  516MOL0     C71104   3.511   5.541   0.034 -0.5467 -0.2753 -0.1408
  516MOL0     C71105   3.613   5.602  -0.046  0.0346 -0.3584 -0.7809
  516MOL0     O71106   3.602   5.677  -0.156 -0.3024 -0.6129 -0.1871
  516MOL0     C71107   3.492   5.767  -0.160  0.5193 -0.8173  0.5727
  516MOL0     C71108   3.504   5.894  -0.251  1.0452 -0.0226 -0.3535
  516MOL0     C71109   3.614   5.987  -0.214  0.2561  0.1789 -0.6569
  516MOL0     C71110   3.740   5.939  -0.285 -0.0747 -0.1566  0.2841
  516MOL0     C71111   3.860   6.015  -0.223  0.2553  0.0125 -0.6606
  516MOL0     C71112   3.982   6.014  -0.327 -0.3312  1.8399  0.3855
  516MOL0     C71113   4.093   6.112  -0.275  0.5955 -0.3618 -0.8247
  516MOL0     C71114   4.212   6.023  -0.209  0.1745  0.7090  0.6556
  516MOL0    Cl71115   4.143   5.939  -0.065 -0.3823 -0.2906  0.5001
  516MOL0     C71116   3.744   5.587  -0.005  1.2468  0.4979  0.2392
  516MOL0     C71117   3.772   5.508   0.095 -1.1916  0.1558 -0.4251
  516MOL0     O71118   3.697   5.187   0.092  0.8321  0.8401 -0.0086
  516MOL0     C71119   3.653   4.973   0.269  0.4217 -0.7358  0.1926
  516MOL0     C71120   3.684   4.855   0.332  0.0900 -0.9705  1.1769
  516MOL0     N71121   3.818   4.530   1.202 -0.8487  0.4672 -0.2206
  516MOL0     N71122   3.908   4.504   1.295 -0.1226  0.8461 -0.1157
  516MOL0     C71123   3.466   3.881   1.717  0.1062  0.1731 -0.1410
  516MOL0     C71124   3.440   3.777   1.815  0.0777  0.2952  0.3154
  516MOL0     C71125   3.338   3.461   2.098  0.1610 -0.2704  0.5523
  516MOL0     C71126   3.224   3.390   2.119 -0.3869 -0.2916 -0.5709
  516MOL0     C71127   3.223   3.264   2.186 -0.3612  0.1128 -0.8720
  516MOL0     C71128   3.347   3.200   2.213 -0.0439  0.0564  1.3706
  516MOL0     O71129   3.340   3.069   2.248 -0.0426 -0.0048  0.2439
  516MOL0     C71130   3.447   2.985   2.283 -0.8675 -0.5161  0.1489
  516MOL0     C71131   3.388   2.846   2.294  0.0589  0.1275  0.2729
  516MOL0     C71132   3.276   2.844   2.395  0.2643 -0.1998 -0.5888
  516MOL0     C71133   3.264   2.701   2.463 -0.0639  0.3501  0.3691
  516MOL0     C71134   3.237   2.597   2.363 -0.1563  0.4553 -0.0811
  516MOL0     C71135   3.216   2.498   2.298  0.1827 -0.3597 -0.3345
  516MOL0     C71136   3.468   3.267   2.196 -0.3165 -0.3510 -1.0110
  516MOL0     C71137   3.465   3.397   2.145  0.4048  0.4366 -0.6028
  516MOL0     C71138   3.600   3.461   2.131  0.1926  0.0667 -0.3779
  516MOL0     H71139   3.541   3.920   2.085  0.4994 -1.6724 -0.2646
  516MOL0     H71140   3.567   4.107   1.939  1.1117 -0.0117  0.9890
  516MOL0     H71141   3.694   4.197   1.747 -0.5839 -5.1233  1.0499
  516MOL0     H71142   3.650   4.268   1.604 -0.2995  1.3467  0.6115
  516MOL0     H71143   3.837   4.091   1.602  0.4286  1.0000 -0.7093
  516MOL0     H71144   3.698   3.969   1.586 -2.7423  1.1489  2.1858
  516MOL0     H71145   3.641   4.066   1.387 -0.6695  0.4905  3.7309
  516MOL0     H71146   3.713   4.221   1.409 -0.5593  1.2580  1.9431
  516MOL0     H71147   3.882   3.955   1.405 -2.5534 -1.0627  1.1211
  516MOL0     H71148   3.824   4.045   1.257 -3.5921 -0.1591  2.1318
  516MOL0     H71149   4.060   4.087   1.439  0.4166 -1.3170 -0.7058
  516MOL0     H71150   3.961   4.242   1.436  0.4930 -0.3623  0.7581
  516MOL0     H71151   4.069   4.085   1.206 -1.1950  0.5341 -2.1593
  516MOL0     H71152   3.963   4.231   1.195  1.5917  1.0824 -0.3910
  516MOL0     H71153   4.204   4.284   1.160 -1.4217  0.7749 -0.2081
  516MOL0     H71154   4.238   4.235   1.322  0.6295  0.5703 -1.2106
  516MOL0     H71155   4.119   4.410   1.420  3.2614 -1.3613  0.7244
  516MOL0     H71156   4.233   4.466   1.292  0.8775 -2.6903 -3.3144
  516MOL0     H71157   4.097   4.466   1.033  1.5160 -3.3496  2.1065
  516MOL0     H71158   3.710   4.538   0.964  0.0669 -1.0190  1.0359
  516MOL0     H71159   3.857   4.444   0.909 -1.0088 -2.2673  1.8269
  516MOL0     H71160   3.801   4.744   0.903 -3.0971 -0.5824 -1.3385
  516MOL0     H71161   3.964   4.688   0.876  0.3615  0.6088  0.7179
  516MOL0     H71162   3.875   4.527   0.693  1.8130  1.1715 -0.6380
  516MOL0     H71163   3.720   4.592   0.709  1.2466 -2.7256  1.5965
  516MOL0     H71164   3.857   4.830   0.672 -1.3750  0.5337 -2.1754
  516MOL0     H71165   3.968   4.714   0.592  0.5406 -2.6870  1.6835
  516MOL0     H71166   3.945   4.946   0.516  1.5084  0.4279 -3.2353
  516MOL0     H71167   3.905   5.281   0.355 -0.8346 -0.6475  0.2251
  516MOL0     H71168   4.036   5.154   0.383  1.0416  0.0060  2.8279
  516MOL0     H71169   3.929   5.202   0.519  2.9195  1.4283  0.6536
  516MOL0     H71170   3.473   5.407   0.205  1.7001 -1.0067  1.9608
  516MOL0     H71171   3.406   5.553   0.013 -0.4094  0.9754 -0.1750
  516MOL0     H71172   3.403   5.709  -0.188  0.7799 -0.5201 -0.9293
  516MOL0     H71173   3.491   5.808  -0.058  3.5530  0.4515  0.1777
  516MOL0     H71174   3.513   5.864  -0.356  1.7592 -0.2772 -0.2214
  516MOL0     H71175   3.413   5.953  -0.238  0.1475 -0.7351 -2.7759
  516MOL0     H71176   3.631   5.989  -0.106  0.4178  3.1834 -0.6671
  516MOL0     H71177   3.603   6.091  -0.244  2.9718  0.4608 -0.8783
  516MOL0     H71178   3.733   5.971  -0.389  0.9896 -2.0430 -0.4182
  516MOL0     H71179   3.753   5.831  -0.275  0.6484 -0.1084 -0.0649
  516MOL0     H71180   3.829   6.119  -0.217 -2.2162 -0.6563 -0.5097
  516MOL0     H71181   3.879   5.975  -0.123 -1.2638 -0.2242 -0.4370
  516MOL0     H71182   3.944   6.048  -0.424 -4.5073 -2.8051 -0.0663
  516MOL0     H71183   4.010   5.909  -0.341 -1.0794  1.3111  2.3832
  516MOL0     H71184   4.055   6.181  -0.200  2.1031 -1.3555  0.9333
  516MOL0     H71185   4.138   6.162  -0.362 -1.1914 -0.3478 -1.7895
  516MOL0     H71186   4.298   6.082  -0.176  0.3839 -0.4938  2.3499
  516MOL0     H71187   4.247   5.946  -0.278 -2.3338 -0.6929  0.8279
  516MOL0     H71188   3.828   5.636  -0.054  1.9760  1.6073  2.4363
  516MOL0     H71189   3.873   5.482   0.125 -1.2958  0.7741  0.4847
  516MOL0     H71190   3.575   4.983   0.194 -0.5971 -0.6665  1.2237
  516MOL0     H71191   3.624   4.768   0.308  0.3099 -0.2867 -2.3500
  516MOL0     H71192   3.462   3.844   1.615 -0.1349 -0.6389  0.1574
  516MOL0     H71193   3.424   3.672   1.790  1.3005 -0.6196  2.9960
  516MOL0     H71194   3.132   3.441   2.092 -0.0975  1.2588  1.1340
  516MOL0     H71195   3.137   3.207   2.221  0.2297  0.6440  1.6576
  516MOL0     H71196   3.526   2.980   2.208 -2.4027  1.2325 -1.6809
  516MOL0     H71197   3.492   3.002   2.382 -0.9105  0.0030  0.0804
  516MOL0     H71198   3.466   2.781   2.335  0.9746  2.2320  2.1217
  516MOL0     H71199   3.357   2.803   2.199  0.9896  2.0099 -0.9381
  516MOL0     H71200   3.281   2.932   2.461  0.5225  2.4146 -3.8211
  516MOL0     H71201   3.176   2.864   2.356 -1.2035 -1.3145  2.3287
  516MOL0     H71202   3.183   2.698   2.536 -1.1033 -2.9196 -0.7350
  516MOL0     H71203   3.354   2.687   2.524  0.6405  1.6813 -0.3059
  516MOL0     H71204   3.205   2.411   2.236 -1.4201 -2.4423  2.6654
  516MOL0     H71205   3.558   3.215   2.225  1.4926  2.5396 -1.0804
  516MOL0     H71206   3.601   3.564   2.168  0.9384  0.2379 -0.8533
  516MOL0     H71207   3.686   3.401   2.163 -0.7224 -0.1061  1.9955
  516MOL0     H71208   3.610   3.466   2.022  1.4587  0.1145 -0.2815
  517MOL0     O71209   0.690   5.319  11.314 -0.4924  0.8296 -0.2491
  517MOL0     C71210   0.805   5.277  11.335  0.3399  0.3898 -0.1098
  517MOL0     O71211   0.841   5.152  11.375 -0.5134 -0.1693  0.6083
  517MOL0     C71212   0.756   5.050  11.355 -1.1123  0.6089  0.2810
  517MOL0     C71213   0.676   5.007  11.459  0.2732  0.8077  0.3817
  517MOL0     C71214   0.581   4.902  11.437  0.0301 -0.4893  0.1940
  517MOL0     C71215   0.573   4.848  11.310  0.0879 -0.8402  0.3499
  517MOL0     O71216   0.476   4.750  11.289 -0.2308 -0.0751  0.1440
  517MOL0     C71217   0.443   4.706  11.157 -0.7153  0.7335  0.5478
  517MOL0     C71218   0.308   4.620  11.157  0.1926 -0.4849 -1.0980
  517MOL0     C71219   0.268   4.555  11.028  0.8472 -0.1422 -0.6578
  517MOL0     C71220   0.370   4.452  10.977  0.2779  1.2679 -0.1988
  517MOL0     C71221   0.309   4.358  10.868 -0.2829  0.0074 -0.5490
  517MOL0     C71222   0.196   4.255  10.895 -0.2581  0.0397  0.1201
  517MOL0     C71223   0.183   4.165  10.778 -0.0192 -0.3029 -0.5236
  517MOL0     C71224   0.082   4.048  10.777 -0.5729  0.2078 -0.4186
  517MOL0     N71225   0.125   3.950  10.878  1.5753  0.0197  0.3256
  517MOL0     C71226   0.125   3.960  11.019  0.7579  0.2847 -0.7437
  517MOL0     C71227   0.173   3.844  11.072 -0.1290  0.0914 -0.5948
  517MOL0     C71228   0.191   3.810  11.215  0.4615 -0.2235 -0.8138
  517MOL0     C71229   0.322   3.853  11.271  0.3994  0.2002 -0.0321
  517MOL0     C71230   0.437   3.748  11.241  0.3869 -0.3963  0.1422
  517MOL0     C71231   0.573   3.816  11.240 -0.0055 -0.5438 -0.3331
  517MOL0     O71232   0.604   3.849  11.376  0.2617  0.4717 -0.8646
  517MOL0     C71233   0.719   3.905  11.411 -0.3353 -1.3173  0.0045
  517MOL0     C71234   0.800   3.981  11.317  0.2268  0.0461  0.6413
  517MOL0     C71235   0.921   4.048  11.363  1.3625  0.7675  1.2072
  517MOL0     C71236   1.006   4.130  11.269  0.3886 -0.3153 -0.5320
  517MOL0     C71237   0.957   4.045  11.505 -1.0333 -0.4111 -0.2392
  517MOL0     C71238   1.058   4.132  11.565 -1.0834  1.1137 -0.2135
  517MOL0     O71239   1.058   4.168  11.702  0.2189 -0.1296 -0.6773
  517MOL0     C71240   1.161   4.197  11.778  0.3468 -0.2058  0.9597
  517MOL0     C71241   1.300   4.156  11.746  0.0410 -0.6963  1.1995
  517MOL0     C71242   1.397   4.182  11.839  1.1196  0.0089  0.0959
  517MOL0     C71243   1.372   4.243  11.959  0.1450 -0.5692  0.2623
  517MOL0     O71244   1.479   4.268  12.043 -0.1021  0.2133 -0.2722
  517MOL0     C71245   1.477   4.265  12.184  0.1938  0.1835  0.6142
  517MOL0     C71246   1.516   4.400  12.229 -0.1041 -0.4206 -0.0546
  517MOL0     C71247   1.533   4.410  12.383  0.2791  0.2731  0.4991
  517MOL0     C71248   1.468   4.302  12.469 -0.6147 -0.0759  0.6564
  517MOL0     C71249   1.484   4.321  12.621 -0.0990  0.2172  0.4114
  517MOL0     C71250   1.427   4.452  12.675 -0.7342  0.3349  0.3862
  517MOL0     C71251   1.415   4.455  12.829 -0.4779  0.4186  0.8531
  517MOL0     C71252   1.298   4.375  12.878 -0.0281 -1.1602 -0.5496
  517MOL0    Cl71253   1.143   4.425  12.793  0.1597 -0.2542  0.0899
  517MOL0     C71254   1.239   4.268  11.995 -0.2702 -0.4937  0.3456
  517MOL0     C71255   1.131   4.241  11.905 -0.7908 -0.0279 -0.1444
  517MOL0     O71256   1.158   4.144  11.493 -0.2662  0.3147 -0.0363
  517MOL0     C71257   0.881   3.966  11.590  0.2020 -0.8071 -0.5970
  517MOL0     C71258   0.760   3.911  11.538  0.2856 -0.0051 -0.3092
  517MOL0     N71259   0.188   3.769  10.965  0.4432 -0.2921 -0.1211
  517MOL0     N71260   0.160   3.827  10.852 -0.6662 -0.4063  0.9267
  517MOL0     C71261   0.664   4.886  11.212 -0.0019 -0.0639 -0.0768
  517MOL0     C71262   0.758   4.990  11.236  0.0373  0.0823  0.8886
  517MOL0     C71263   0.917   5.372  11.321  0.3754 -0.2603  0.2244
  517MOL0     C71264   1.039   5.355  11.400 -0.3805  0.5194 -0.2486
  517MOL0     C71265   1.142   5.458  11.411 -0.2839  0.4835  0.0745
  517MOL0     C71266   1.130   5.565  11.327  1.1048 -0.6887  0.1318
  517MOL0     O71267   1.220   5.662  11.322  0.2020  0.2380 -0.1457
  517MOL0     C71268   1.204   5.768  11.416 -0.2858  0.5679  0.3967
  517MOL0     C71269   1.299   5.876  11.360 -0.1798 -0.3167 -0.4727
  517MOL0     C71270   1.295   6.000  11.448 -0.3133  0.8464  0.7138
  517MOL0     C71271   1.359   6.104  11.361 -0.7923 -0.5552  0.9107
  517MOL0     C71272   1.254   6.173  11.279 -0.0305  0.6704 -0.2200
  517MOL0     C71273   1.169   6.228  11.228  0.6282 -0.6684 -0.1926
  517MOL0     C71274   1.012   5.570  11.249 -0.6829  0.0720  0.0266
  517MOL0     C71275   0.910   5.487  11.237 -0.0282  0.0410  0.4433
  517MOL0     C71276   0.791   5.526  11.149  0.2154  0.5129 -0.2451
  517MOL0     H71277   0.685   5.049  11.559 -0.8259  3.4846 -0.5384
  517MOL0     H71278   0.515   4.874  11.519 -0.3075  1.5981  0.7032
  517MOL0     H71279   0.522   4.652  11.104 -0.9175  0.4274  0.5581
  517MOL0     H71280   0.421   4.789  11.088  2.2974  2.7542  1.7587
  517MOL0     H71281   0.314   4.545  11.236  1.1901 -0.3761 -1.0660
  517MOL0     H71282   0.226   4.683  11.194  0.9493 -1.0767  1.7562
  517MOL0     H71283   0.174   4.501  11.035  0.3845  0.3000 -2.8567
  517MOL0     H71284   0.249   4.629  10.950  0.5255 -2.3552 -2.7866
  517MOL0     H71285   0.460   4.500  10.938  0.2911  0.6625 -0.9319
  517MOL0     H71286   0.398   4.390  11.063  0.0105 -3.1474 -2.9890
  517MOL0     H71287   0.403   4.310  10.841  0.5932  0.8338  0.9020
  517MOL0     H71288   0.279   4.428  10.789  0.9210  0.4439 -0.6455
  517MOL0     H71289   0.228   4.195  10.981 -1.8773 -0.9255  0.0801
  517MOL0     H71290   0.097   4.293  10.923  0.0412  0.0636  1.2063
  517MOL0     H71291   0.280   4.122  10.751  1.0408  2.0010 -0.5688
  517MOL0     H71292   0.154   4.222  10.689 -1.7385  0.0060  0.2082
  517MOL0     H71293  -0.018   4.082  10.807 -0.2300  3.1922 -2.2474
  517MOL0     H71294   0.073   4.008  10.675 -1.4491 -1.6588  0.3428
  517MOL0     H71295   0.084   4.050  11.065  2.6914  0.8139  0.0525
  517MOL0     H71296   0.180   3.701  11.208  1.2393 -0.3324 -0.3759
  517MOL0     H71297   0.110   3.853  11.275  1.8990 -0.5683  1.4868
  517MOL0     H71298   0.350   3.955  11.243  0.5444 -0.0594 -0.8705
  517MOL0     H71299   0.298   3.844  11.377  0.0329 -1.8347 -0.2566
  517MOL0     H71300   0.426   3.671  11.317 -0.6605 -1.4666 -1.0359
  517MOL0     H71301   0.419   3.689  11.150 -0.2789 -2.6655  1.6695
  517MOL0     H71302   0.648   3.746  11.203  0.9858  0.1890  0.2492
  517MOL0     H71303   0.583   3.905  11.178  2.1217  1.4304  2.6069
  517MOL0     H71304   0.756   3.986  11.218 -3.9929 -1.2412  2.2479
  517MOL0     H71305   1.018   4.233  11.306  4.5612  0.5252 -3.5257
  517MOL0     H71306   0.962   4.141  11.170  1.7523  0.7710 -1.0634
  517MOL0     H71307   1.110   4.098  11.258  1.3894  2.1341  0.8319
  517MOL0     H71308   1.338   4.107  11.658  3.2086 -0.2120  2.1724
  517MOL0     H71309   1.499   4.163  11.806  1.7065  0.9566  1.2571
  517MOL0     H71310   1.383   4.227  12.224 -1.0031  1.1793 -1.1215
  517MOL0     H71311   1.569   4.207  12.196  0.4291 -0.0541 -1.7294
  517MOL0     H71312   1.620   4.404  12.193  0.7313  0.4164  2.2563
  517MOL0     H71313   1.463   4.488  12.192 -1.4608 -1.6760 -1.1796
  517MOL0     H71314   1.482   4.505  12.404 -2.2242 -0.4068 -1.8214
  517MOL0     H71315   1.640   4.408  12.405  0.7647  0.7400 -1.5395
  517MOL0     H71316   1.509   4.208  12.431  0.1470  1.2385 -2.0129
  517MOL0     H71317   1.359   4.294  12.468 -0.5832 -0.6517 -0.9875
  517MOL0     H71318   1.427   4.236  12.660 -1.2102  1.8057  2.4619
  517MOL0     H71319   1.590   4.299  12.641  0.1106  0.8738  0.0400
  517MOL0     H71320   1.335   4.458  12.617  0.6091 -0.4259 -1.9792
  517MOL0     H71321   1.489   4.539  12.651  1.1648 -0.8530  0.7727
  517MOL0     H71322   1.397   4.561  12.851 -1.7132 -0.5538  5.4189
  517MOL0     H71323   1.504   4.417  12.880 -0.8315 -1.3858  0.1997
  517MOL0     H71324   1.293   4.388  12.986 -1.0256 -3.8266 -0.2060
  517MOL0     H71325   1.320   4.268  12.866  5.4865 -0.1757 -2.3784
  517MOL0     H71326   1.218   4.303  12.096 -2.9316 -2.6406  0.6688
  517MOL0     H71327   1.029   4.258  11.939 -0.3712 -2.0466  2.5322
  517MOL0     H71328   0.909   3.952  11.694  0.2513 -0.2206 -0.5296
  517MOL0     H71329   0.697   3.861  11.611  0.4966  0.6298  0.3195
  517MOL0     H71330   0.657   4.852  11.109  1.6592 -2.0471  0.4194
  517MOL0     H71331   0.820   5.021  11.153 -0.9824 -1.2856 -0.4598
  517MOL0     H71332   1.042   5.265  11.461 -3.0619 -0.1924 -1.0288
  517MOL0     H71333   1.224   5.454  11.483 -1.3822  0.5157  1.3592
  517MOL0     H71334   1.102   5.808  11.417 -0.1752  0.8877 -0.3638
  517MOL0     H71335   1.222   5.736  11.519  1.3007  1.3586  0.4015
  517MOL0     H71336   1.276   5.897  11.255  1.4258 -2.1320 -1.2287
  517MOL0     H71337   1.402   5.841  11.367  0.5816  1.8728  0.1372
  517MOL0     H71338   1.192   6.030  11.468  0.0598  1.6273  1.5235
  517MOL0     H71339   1.354   5.983  11.538 -1.2679  0.3172  1.2597
  517MOL0     H71340   1.439   6.064  11.298  0.6084  0.6214  1.8529
  517MOL0     H71341   1.403   6.174  11.433 -0.8527 -0.6241  1.0138
  517MOL0     H71342   1.088   6.291  11.196  1.4013 -0.6679 -2.2867
  517MOL0     H71343   0.986   5.666  11.206  0.0509  1.2468  2.0227
  517MOL0     H71344   0.825   5.595  11.071 -2.0858  0.5112 -1.3555
  517MOL0     H71345   0.758   5.435  11.098  2.7092  0.1477 -1.3522
  517MOL0     H71346   0.709   5.572  11.206 -1.6567  0.1941 -2.5353
  518MOL0     O71347   8.395   3.905  10.158 -0.0024 -0.7303  0.0314
  518MOL0     C71348   8.392   3.991  10.247  0.1138 -0.0789 -0.0979
  518MOL0     O71349   8.297   3.995  10.346 -0.5871 -0.9588  0.2761
  518MOL0     C71350   8.201   3.900  10.338 -0.3978 -0.6959  0.6008
  518MOL0     C71351   8.225   3.760  10.328  0.1896  0.2643 -0.8808
  518MOL0     C71352   8.125   3.659  10.323  0.0766  0.2126 -0.2318
  518MOL0     C71353   7.986   3.697  10.330  0.1146 -0.2517  0.3624
  518MOL0     O71354   7.899   3.597  10.311  0.2862 -0.1912  0.5547
  518MOL0     C71355   7.803   3.602  10.206 -0.1945 -0.1413  0.5925
  518MOL0     C71356   7.664   3.562  10.245  0.2389 -0.4557 -0.2357
  518MOL0     C71357   7.609   3.646  10.368 -0.4398 -0.7401  0.4188
  518MOL0     C71358   7.455   3.660  10.372  0.0534 -0.2808  0.0564
  518MOL0     C71359   7.392   3.535  10.446 -0.0775 -0.1889 -0.0699
  518MOL0     C71360   7.254   3.489  10.397 -0.1554  0.1260  0.7688
  518MOL0     C71361   7.153   3.433  10.503  0.0403 -0.8355  0.4058
  518MOL0     C71362   7.214   3.310  10.595 -0.3022 -0.3605 -0.0071
  518MOL0     N71363   7.109   3.212  10.644 -0.3691 -0.3129  0.1814
  518MOL0     C71364   6.980   3.209  10.606  0.4059  0.6751 -0.2918
  518MOL0     C71365   6.926   3.098  10.665  0.4376 -0.5090  0.9276
  518MOL0     C71366   6.775   3.058  10.657  0.1698  0.5153 -0.7286
  518MOL0     C71367   6.727   2.961  10.779  0.3061 -0.8990 -0.3167
  518MOL0     C71368   6.616   2.872  10.738  0.0074 -0.2616  0.5256
  518MOL0     C71369   6.478   2.931  10.758 -0.3472  0.1438  0.9186
  518MOL0     O71370   6.453   2.946  10.896  0.0374 -0.1291 -0.3950
  518MOL0     C71371   6.318   2.978  10.924 -0.5738 -0.7625 -1.4773
  518MOL0     C71372   6.229   3.026  10.835 -0.6496  0.3797 -0.2202
  518MOL0     C71373   6.105   3.074  10.869 -0.0876 -0.4184 -0.5716
  518MOL0     C71374   6.014   3.123  10.758  0.6552 -0.3093  0.4142
  518MOL0     C71375   6.061   3.078  11.010 -0.5246 -0.0097  0.8023
  518MOL0     C71376   5.924   3.118  11.062 -0.8062  0.5686  0.0490
  518MOL0     O71377   5.918   3.153  11.200 -0.2297  0.0354  0.0948
  518MOL0     C71378   5.796   3.193  11.235  0.0453  0.3204  0.3829
  518MOL0     C71379   5.722   3.098  11.308 -0.3220 -0.1427  1.0556
  518MOL0     C71380   5.592   3.136  11.357 -0.5248 -0.6654 -0.0688
  518MOL0     C71381   5.539   3.267  11.342  0.4924 -0.4765 -0.7668
  518MOL0     O71382   5.403   3.283  11.379 -0.3835  0.3890  0.0496
  518MOL0     C71383   5.358   3.418  11.380  0.6163  0.0064  0.0885
  518MOL0     C71384   5.219   3.414  11.443  0.0233  0.3409 -0.3069
  518MOL0     C71385   5.140   3.553  11.457  0.5566  0.4644 -0.3202
  518MOL0     C71386   5.088   3.586  11.317  0.3692 -1.0751 -0.2623
  518MOL0     C71387   4.973   3.495  11.260  0.2817 -1.2434 -0.0012
  518MOL0     C71388   4.901   3.554  11.132 -0.0526  0.2618  0.3765
  518MOL0     C71389   4.991   3.586  11.017  0.8159  0.0554  0.0253
  518MOL0     C71390   4.922   3.616  10.882 -0.3478 -0.1393 -0.4465
  518MOL0    Cl71391   4.850   3.787  10.894  0.0976 -0.1781  0.4510
  518MOL0     C71392   5.630   3.363  11.287  0.2769 -0.0697  1.1647
  518MOL0     C71393   5.747   3.322  11.231  1.1498 -0.3953  0.3503
  518MOL0     O71394   5.837   3.124  10.979 -0.3028 -0.1987 -0.8145
  518MOL0     C71395   6.157   3.031  11.098  0.7943 -0.2247 -0.4589
  518MOL0     C71396   6.281   2.982  11.060  0.1545  0.1367  0.6553
  518MOL0     N71397   7.021   3.037  10.740 -0.1330 -0.4606 -0.1039
  518MOL0     N71398   7.130   3.111  10.729 -0.1507 -0.5098 -0.1321
  518MOL0     C71399   7.958   3.835  10.331  0.3535  0.9570  0.3672
  518MOL0     C71400   8.056   3.936  10.341 -1.5195 -1.0596 -0.3986
  518MOL0     C71401   8.491   4.104  10.247  0.0230  0.5356  0.0954
  518MOL0     C71402   8.456   4.217  10.321 -0.5379 -0.0285  1.6033
  518MOL0     C71403   8.538   4.324  10.321 -0.3235  0.3537  1.1579
  518MOL0     C71404   8.656   4.332  10.247 -0.0496  0.3750 -0.3566
  518MOL0     O71405   8.758   4.429  10.251  0.6163  0.1499  0.1723
  518MOL0     C71406   8.738   4.545  10.334  1.2339  1.2280  0.4278
  518MOL0     C71407   8.866   4.577  10.422 -0.2797  0.4733 -0.1058
  518MOL0     C71408   8.830   4.678  10.527 -0.5391  0.2664 -0.6691
  518MOL0     C71409   8.742   4.796  10.497 -0.0703 -0.1371  0.1633
  518MOL0     C71410   8.723   4.882  10.615 -0.3962 -0.3455  0.0978
  518MOL0     C71411   8.696   4.941  10.710  0.9276 -0.6956 -0.4821
  518MOL0     C71412   8.689   4.220  10.165  0.3458 -0.5603 -0.2350
  518MOL0     C71413   8.612   4.104  10.166 -0.7518 -0.0782  0.0441
  518MOL0     C71414   8.656   3.989  10.063  0.3550 -0.3470 -0.5756
  518MOL0     H71415   8.329   3.734  10.341  1.4057  5.0834  1.5598
  518MOL0     H71416   8.158   3.557  10.310 -1.2298 -0.1093 -1.1952
  518MOL0     H71417   7.836   3.527  10.133  0.7307  1.2505 -0.4702
  518MOL0     H71418   7.798   3.702  10.162  0.7395 -0.0133  0.7587
  518MOL0     H71419   7.587   3.571  10.168 -2.2888 -2.8050  1.7704
  518MOL0     H71420   7.656   3.457  10.274 -2.0293 -0.2051  0.2646
  518MOL0     H71421   7.650   3.603  10.460 -2.3784  2.4130  2.9264
  518MOL0     H71422   7.658   3.744  10.368  0.3231 -1.0691 -1.2915
  518MOL0     H71423   7.431   3.742  10.440  0.6389  0.7985 -1.0228
  518MOL0     H71424   7.419   3.690  10.274 -0.3448  2.5484  0.9702
  518MOL0     H71425   7.386   3.556  10.553 -1.9633  1.7145 -0.4716
  518MOL0     H71426   7.467   3.459  10.425 -0.6635 -0.6145 -0.6757
  518MOL0     H71427   7.203   3.573  10.348 -0.5428  0.0855  1.0929
  518MOL0     H71428   7.262   3.414  10.317  1.0339  0.8288  0.2032
  518MOL0     H71429   7.058   3.403  10.458 -0.0475  0.1583 -0.0789
  518MOL0     H71430   7.117   3.510  10.572 -0.4597 -2.1771  1.7129
  518MOL0     H71431   7.283   3.241  10.545 -0.3486 -0.2801 -0.1811
  518MOL0     H71432   7.272   3.353  10.677  0.1986 -1.9729  0.5270
  518MOL0     H71433   6.919   3.263  10.535  0.9865 -0.7156 -1.8982
  518MOL0     H71434   6.760   2.996  10.568  1.4890 -0.5333 -0.2495
  518MOL0     H71435   6.714   3.147  10.637  2.6249  1.8287 -2.9679
  518MOL0     H71436   6.808   2.890  10.799 -0.1377 -1.0984  0.8348
  518MOL0     H71437   6.704   3.016  10.870 -3.1606 -1.2900 -0.8272
  518MOL0     H71438   6.634   2.844  10.634  0.7927  1.1804  0.2519
  518MOL0     H71439   6.625   2.788  10.808  1.5467  2.0542  3.3334
  518MOL0     H71440   6.468   3.021  10.696 -1.3372  1.2924  2.6723
  518MOL0     H71441   6.402   2.861  10.723  0.0969  1.7107 -3.9116
  518MOL0     H71442   6.250   3.018  10.728  1.1674  0.8058  0.0664
  518MOL0     H71443   5.974   3.224  10.772  0.4466 -0.3574  0.1721
  518MOL0     H71444   5.937   3.050  10.732  0.7734  0.2478 -1.7492
  518MOL0     H71445   6.075   3.135  10.667 -0.0909  0.4861 -0.0006
  518MOL0     H71446   5.763   2.998  11.314  1.8838  0.7778  3.5705
  518MOL0     H71447   5.543   3.048  11.395  1.7413 -2.5506 -1.1996
  518MOL0     H71448   5.418   3.484  11.443 -1.5240  1.2554  0.9265
  518MOL0     H71449   5.367   3.461  11.280  0.0987  0.3367  0.1809
  518MOL0     H71450   5.161   3.347  11.379 -0.6440  2.9014 -2.5482
  518MOL0     H71451   5.229   3.374  11.545 -0.0951  0.3621 -0.2870
  518MOL0     H71452   5.218   3.619  11.496  0.2338 -0.4260  1.9815
  518MOL0     H71453   5.063   3.542  11.533  2.7386  0.5157  2.0326
  518MOL0     H71454   5.176   3.572  11.253  1.7361 -1.0000  1.4889
  518MOL0     H71455   5.051   3.688  11.320 -0.5918 -1.4264  2.3479
  518MOL0     H71456   5.010   3.392  11.250 -1.2710 -2.2747  3.5139
  518MOL0     H71457   4.900   3.486  11.340  0.2655  1.8777  0.4607
  518MOL0     H71458   4.856   3.648  11.162 -2.4207 -1.2965  2.0669
  518MOL0     H71459   4.819   3.493  11.092  0.2677 -1.1111  1.7324
  518MOL0     H71460   5.051   3.496  11.001  1.6595  0.4122  1.0548
  518MOL0     H71461   5.049   3.677  11.034 -1.6322  1.7400 -0.1970
  518MOL0     H71462   4.841   3.543  10.874 -1.0351  0.5426  0.2200
  518MOL0     H71463   4.986   3.616  10.793  1.1194 -1.4109  0.5496
  518MOL0     H71464   5.604   3.468  11.275 -2.3461 -0.8189 -0.3743
  518MOL0     H71465   5.814   3.391  11.182 -2.0988  2.4487 -0.4493
  518MOL0     H71466   6.144   3.043  11.205  1.6547 -0.7590 -0.2849
  518MOL0     H71467   6.334   2.939  11.145 -1.8194  0.8297  2.3410
  518MOL0     H71468   7.853   3.864  10.328  0.8347  2.6745 -1.2084
  518MOL0     H71469   8.044   4.042  10.359  1.7242 -1.0538  3.1106
  518MOL0     H71470   8.371   4.218  10.387 -2.7275  1.4091 -1.0409
  518MOL0     H71471   8.502   4.407  10.382 -4.0407 -0.4072  0.2176
  518MOL0     H71472   8.723   4.618  10.254 -1.8849  0.6774  0.3718
  518MOL0     H71473   8.644   4.533  10.388  0.1211  0.0680 -1.6367
  518MOL0     H71474   8.943   4.616  10.354 -0.1110 -2.2268 -1.6239
  518MOL0     H71475   8.906   4.490  10.475  2.2799  3.4973  3.5099
  518MOL0     H71476   8.802   4.623  10.617 -0.1094  0.8319 -0.1750
  518MOL0     H71477   8.930   4.719  10.546 -1.3267  2.2552 -0.5936
  518MOL0     H71478   8.644   4.759  10.467  0.8767 -3.5511  0.8909
  518MOL0     H71479   8.784   4.852  10.413  1.1769  3.0960  2.7201
  518MOL0     H71480   8.661   5.006  10.789 -0.3880 -0.7420 -1.0085
  518MOL0     H71481   8.774   4.223  10.098 -0.6237  2.8363 -1.5088
  518MOL0     H71482   8.604   3.987   9.968  1.7689 -0.3948 -1.3749
  518MOL0     H71483   8.764   4.005  10.050  0.5352  2.1453  2.6058
  518MOL0     H71484   8.633   3.896  10.117  2.0003 -0.0527  0.7213
  519MOL0     O71485   3.208  11.294   3.511 -0.3391  0.3442  0.2636
  519MOL0     C71486   3.267  11.399   3.477 -0.3167 -0.7924  1.2224
  519MOL0     O71487   3.206  11.503   3.413  0.3587  0.5441  0.2046
  519MOL0     C71488   3.071  11.512   3.386 -0.0504  0.1357 -0.0841
  519MOL0     C71489   3.017  11.527   3.256  0.6695 -0.7020  0.0930
  519MOL0     C71490   2.880  11.552   3.235 -0.0812 -0.4033  0.5923
  519MOL0     C71491   2.793  11.564   3.330  0.5569 -0.6706 -0.1579
  519MOL0     O71492   2.676  11.615   3.283  0.7951  0.3457 -0.1480
  519MOL0     C71493   2.551  11.570   3.340 -0.2620 -0.7197 -0.4112
  519MOL0     C71494   2.499  11.647   3.465 -0.0405 -0.0868 -0.0697
  519MOL0     C71495   2.439  11.784   3.424 -0.1451 -0.3665 -0.5320
  519MOL0     C71496   2.385  11.858   3.552 -0.5976 -0.1103 -0.1695
  519MOL0     C71497   2.320  11.983   3.501  0.1561 -0.2056 -0.2755
  519MOL0     C71498   2.263  12.076   3.613  0.5414 -0.9550 -0.4643
  519MOL0     C71499   2.375  12.139   3.710 -0.2189 -0.0074  0.8939
  519MOL0     C71500   2.310  12.224   3.817  0.3905 -0.2281  0.2211
  519MOL0     N71501   2.407  12.324   3.876 -0.1120  0.5060 -0.7182
  519MOL0     C71502   2.504  12.308   3.971  0.1225 -0.1548  0.3817
  519MOL0     C71503   2.556  12.434   3.989 -0.4403 -0.4031 -0.1959
  519MOL0     C71504   2.668  12.478   4.069  0.5914 -0.3486 -0.4941
  519MOL0     C71505   2.788  12.544   3.990  0.1234 -0.0270 -0.4170
  519MOL0     C71506   2.911  12.554   4.087  0.3632  0.1725  0.7555
  519MOL0     C71507   2.982  12.417   4.128 -0.4823  0.3505  0.6665
  519MOL0     O71508   3.086  12.451   4.220 -0.3324  0.7243  0.5998
  519MOL0     C71509   3.072  12.420   4.349  0.7346 -0.4052 -0.0263
  519MOL0     C71510   3.188  12.393   4.420  0.0081 -0.3571  0.1927
  519MOL0     C71511   3.179  12.374   4.558 -0.2575 -0.1042  0.7317
  519MOL0     C71512   3.308  12.354   4.629 -0.1398  0.1080 -0.2027
  519MOL0     C71513   3.057  12.381   4.621  0.7618  1.3005 -1.2584
  519MOL0     C71514   3.043  12.379   4.775 -0.6450 -0.6062  0.5486
  519MOL0     O71515   3.149  12.425   4.839  0.4523 -0.3961 -0.2761
  519MOL0     C71516   3.157  12.398   4.976 -1.2758  0.1806  0.1671
  519MOL0     C71517   3.247  12.299   5.020 -0.4357 -0.5459  0.0226
  519MOL0     C71518   3.260  12.277   5.163  0.1800 -0.1007 -0.0413
  519MOL0     C71519   3.170  12.341   5.248 -0.2136  0.0276 -1.1599
  519MOL0     O71520   3.164  12.334   5.387 -0.5979 -0.4254  0.0379
  519MOL0     C71521   3.288  12.303   5.450 -0.1575 -0.4541 -0.1332
  519MOL0     C71522   3.270  12.163   5.502 -0.6949  0.1893  0.6158
  519MOL0     C71523   3.344  12.144   5.635  0.3472 -0.1090  0.7309
  519MOL0     C71524   3.336  12.004   5.677 -0.3583  0.4500 -0.5435
  519MOL0     C71525   3.438  11.966   5.798 -0.0247 -0.6277  0.5537
  519MOL0     C71526   3.422  11.825   5.850 -0.5715  0.2002 -0.8179
  519MOL0     C71527   3.282  11.805   5.915 -1.2559 -0.9452  0.4441
  519MOL0     C71528   3.283  11.676   5.986 -0.3306  0.6032  0.5264
  519MOL0    Cl71529   3.362  11.706   6.152 -0.3779 -0.0389 -0.2706
  519MOL0     C71530   3.076  12.429   5.197 -0.0601  0.7573  0.1484
  519MOL0     C71531   3.073  12.466   5.062 -0.0394  0.0921  0.2291
  519MOL0     O71532   2.947  12.328   4.818  0.8946  0.2169 -0.2605
  519MOL0     C71533   2.940  12.401   4.549  0.1169 -0.0675  0.4010
  519MOL0     C71534   2.942  12.422   4.412  0.2045  0.6254 -0.8798
  519MOL0     N71535   2.489  12.526   3.906 -0.0617 -0.0755  0.2714
  519MOL0     N71536   2.388  12.461   3.849 -0.5684  0.1992  0.1683
  519MOL0     C71537   2.841  11.538   3.463  0.0432 -0.0085  0.5967
  519MOL0     C71538   2.980  11.519   3.493 -0.4511 -1.1450  0.0773
  519MOL0     C71539   3.405  11.410   3.524 -0.6297  0.4972 -0.5784
  519MOL0     C71540   3.478  11.306   3.585  0.9869 -1.1846 -0.8254
  519MOL0     C71541   3.607  11.316   3.626 -0.6805  0.0712 -0.0301
  519MOL0     C71542   3.685  11.421   3.579  0.2633  0.6924 -0.9347
  519MOL0     O71543   3.820  11.415   3.615  0.9323  0.0210  0.1379
  519MOL0     C71544   3.920  11.462   3.522 -1.5278  0.4630  0.1438
  519MOL0     C71545   4.069  11.430   3.558  0.9842  1.0285 -1.5335
  519MOL0     C71546   4.163  11.501   3.468  0.4679  0.3608 -0.1654
  519MOL0     C71547   4.188  11.646   3.514 -0.0296  0.2239  0.3654
  519MOL0     C71548   4.298  11.712   3.444  0.2181  0.7512  0.2083
  519MOL0     C71549   4.397  11.765   3.392  0.3189  0.1848  0.8189
  519MOL0     C71550   3.624  11.529   3.512  0.2374  0.6207  0.2129
  519MOL0     C71551   3.483  11.529   3.489  0.2958  0.5741 -0.0673
  519MOL0     C71552   3.428  11.656   3.419 -0.1336 -0.3189 -0.1175
  519MOL0     H71553   3.084  11.525   3.170 -0.4276  1.2624 -0.8635
  519MOL0     H71554   2.845  11.565   3.134  3.0173  0.9487 -0.4284
  519MOL0     H71555   2.567  11.463   3.356 -0.3578 -0.7588 -0.5756
  519MOL0     H71556   2.475  11.582   3.263 -1.6312  0.9568  1.0956
  519MOL0     H71557   2.417  11.591   3.510 -2.2435  1.6439 -1.7265
  519MOL0     H71558   2.583  11.664   3.533 -0.9395  0.8337  0.8431
  519MOL0     H71559   2.520  11.842   3.379  0.1082  1.8619  2.5165
  519MOL0     H71560   2.352  11.778   3.358 -1.1615  1.1942  0.5890
  519MOL0     H71561   2.314  11.801   3.612  0.2101  1.5863  2.5860
  519MOL0     H71562   2.469  11.879   3.620 -0.5247  0.0827 -0.3190
  519MOL0     H71563   2.244  11.971   3.424  2.4860  2.9305 -3.4219
  519MOL0     H71564   2.393  12.042   3.444 -0.9927  0.2704 -1.2795
  519MOL0     H71565   2.216  12.163   3.566 -2.8856 -1.8722  0.9853
  519MOL0     H71566   2.188  12.023   3.672  1.8124  0.5097  2.6927
  519MOL0     H71567   2.454  12.189   3.654  1.6385 -1.9195  1.6304
  519MOL0     H71568   2.416  12.054   3.766 -2.0668 -0.6174  1.3795
  519MOL0     H71569   2.229  12.289   3.782  0.6601  1.2244  2.1589
  519MOL0     H71570   2.264  12.159   3.892  1.2013 -3.6628 -2.0265
  519MOL0     H71571   2.538  12.216   4.018 -1.8624 -0.2105  1.8482
  519MOL0     H71572   2.708  12.400   4.136 -1.1154 -0.9100 -0.0939
  519MOL0     H71573   2.635  12.555   4.140  0.2016 -1.5486  0.6790
  519MOL0     H71574   2.824  12.470   3.918  0.7313 -1.6877  1.4763
  519MOL0     H71575   2.758  12.638   3.943 -1.3806  0.5219  1.5099
  519MOL0     H71576   2.983  12.621   4.038 -0.6704  1.2771  0.6901
  519MOL0     H71577   2.890  12.605   4.181 -0.9380  0.8227  0.1361
  519MOL0     H71578   2.913  12.346   4.174 -0.8835  0.6090  0.4826
  519MOL0     H71579   3.022  12.364   4.041  0.0921  2.8975 -0.7394
  519MOL0     H71580   3.289  12.381   4.383  0.2331 -0.7048  0.9125
  519MOL0     H71581   3.388  12.328   4.559  0.2047  2.0669 -0.6045
  519MOL0     H71582   3.314  12.270   4.698 -0.4211 -1.3407 -1.8717
  519MOL0     H71583   3.337  12.451   4.670 -2.5664  1.3955 -1.2880
  519MOL0     H71584   3.312  12.257   4.944 -0.6791  0.6329 -0.8714
  519MOL0     H71585   3.338  12.209   5.197 -0.0121  0.3642  1.3860
  519MOL0     H71586   3.379  12.312   5.390  0.9606 -2.0318  1.2248
  519MOL0     H71587   3.314  12.373   5.530  2.2050 -0.5184 -0.7654
  519MOL0     H71588   3.163  12.142   5.514 -1.1031  1.0340 -1.1631
  519MOL0     H71589   3.301  12.089   5.428 -5.7305 -1.3870 -0.3073
  519MOL0     H71590   3.291  12.215   5.700 -3.7404  1.6305 -3.9208
  519MOL0     H71591   3.451  12.167   5.628  0.2964 -0.2582 -0.9001
  519MOL0     H71592   3.352  11.927   5.601 -0.3671  1.1003 -1.2207
  519MOL0     H71593   3.236  11.986   5.717 -1.1448  1.0231 -2.1324
  519MOL0     H71594   3.542  11.969   5.766  0.1191 -1.1422  0.9626
  519MOL0     H71595   3.435  12.033   5.884 -2.0812  0.8706 -0.6081
  519MOL0     H71596   3.500  11.803   5.923 -3.3090 -1.5049  1.8712
  519MOL0     H71597   3.428  11.765   5.759  1.1287  0.6300 -1.0137
  519MOL0     H71598   3.214  11.788   5.831  0.4149  0.0642 -1.1877
  519MOL0     H71599   3.249  11.898   5.963 -2.7659 -0.0468 -2.1164
  519MOL0     H71600   3.344  11.601   5.934 -0.2529  0.4093  0.8938
  519MOL0     H71601   3.182  11.636   5.990  0.2604 -0.9540  0.4212
  519MOL0     H71602   3.001  12.473   5.263  1.0550  1.4026  1.0271
  519MOL0     H71603   3.001  12.538   5.026  0.8857  2.3864  2.5923
  519MOL0     H71604   2.841  12.415   4.592 -0.9285  3.8997 -2.5811
  519MOL0     H71605   2.848  12.442   4.361 -0.6610 -0.7217  0.0976
  519MOL0     H71606   2.766  11.550   3.541  0.1446 -2.0904  1.0884
  519MOL0     H71607   3.027  11.506   3.590 -0.9225  0.6611  0.5825
  519MOL0     H71608   3.427  11.211   3.605  2.1292 -1.7536 -0.5316
  519MOL0     H71609   3.656  11.243   3.690  1.8938  0.2853 -1.6544
  519MOL0     H71610   3.899  11.430   3.419 -0.3384  0.3970 -0.0925
  519MOL0     H71611   3.916  11.571   3.525  0.5056  0.5656  0.9454
  519MOL0     H71612   4.077  11.321   3.545 -2.9788  0.5630 -1.4754
  519MOL0     H71613   4.078  11.462   3.662  1.9741  1.1270 -1.6375
  519MOL0     H71614   4.247  11.431   3.470 -0.8860 -1.3010  1.2545
  519MOL0     H71615   4.124  11.512   3.366 -0.9247  1.0845  0.4083
  519MOL0     H71616   4.209  11.657   3.621 -1.5002  3.9780  0.4269
  519MOL0     H71617   4.108  11.719   3.496  0.6864  0.4347 -2.4700
  519MOL0     H71618   4.478  11.816   3.343  1.6159 -3.3449 -1.0207
  519MOL0     H71619   3.703  11.597   3.484  4.1042 -3.4517  0.1801
  519MOL0     H71620   3.335  11.695   3.461 -0.0211  0.4936 -0.5854
  519MOL0     H71621   3.494  11.743   3.430 -0.9769  0.3263 -0.0466
  519MOL0     H71622   3.412  11.636   3.313  1.2928  0.4922 -0.5206
  520MOL0     O71623   3.960  10.638   8.088  1.3438 -0.0942 -0.3933
  520MOL0     C71624   3.839  10.621   8.075 -0.3175 -0.0661  1.1279
  520MOL0     O71625   3.762  10.701   7.992  0.0524  0.1958 -0.0365
  520MOL0     C71626   3.815  10.820   7.943  0.4269  0.4942 -0.3182
  520MOL0     C71627   3.862  10.915   8.029 -0.1947 -0.3489  0.5916
  520MOL0     C71628   3.897  11.036   7.970 -0.3840  0.8449 -0.6413
  520MOL0     C71629   3.900  11.056   7.827 -0.4995 -0.2359 -0.0328
  520MOL0     O71630   3.957  11.179   7.798 -0.7447 -0.6020  0.7305
  520MOL0     C71631   3.997  11.198   7.664 -0.5627  0.0517  0.2056
  520MOL0     C71632   4.087  11.323   7.660  0.0625 -0.5666  0.6055
  520MOL0     C71633   4.004  11.443   7.716  0.1158  0.2796 -0.3985
  520MOL0     C71634   4.100  11.555   7.745  0.9580 -0.0188  0.1632
  520MOL0     C71635   4.009  11.672   7.794 -0.2793  0.3087 -0.3973
  520MOL0     C71636   4.093  11.810   7.810  0.1606  0.4928  0.3575
  520MOL0     C71637   4.205  11.794   7.912 -0.0693 -1.1364 -0.7950
  520MOL0     C71638   4.244  11.940   7.956  0.4089  0.3052  0.4171
  520MOL0     N71639   4.328  11.998   7.853 -0.2148 -0.4449 -0.4969
  520MOL0     C71640   4.463  11.989   7.849 -0.4208 -0.1000  0.4019
  520MOL0     C71641   4.502  12.076   7.750  1.2442 -0.3104  0.9525
  520MOL0     C71642   4.635  12.128   7.713  0.2774 -0.3333  1.0095
  520MOL0     C71643   4.630  12.280   7.672 -0.0686  0.0009  0.4482
  520MOL0     C71644   4.599  12.296   7.518 -0.8498  0.4621 -0.9858
  520MOL0     C71645   4.584  12.441   7.478  1.0324 -0.3626 -0.8978
  520MOL0     O71646   4.694  12.525   7.472  0.3891  0.7265 -0.7125
  520MOL0     C71647   4.724  12.578   7.351 -0.5985  0.4382 -0.5773
  520MOL0     C71648   4.773  12.709   7.347  0.2094  0.3066  0.3158
  520MOL0     C71649   4.798  12.784   7.228  0.2921 -0.0215  0.6287
  520MOL0     C71650   4.846  12.924   7.255  0.2071 -0.3386 -0.6092
  520MOL0     C71651   4.761  12.731   7.106  1.0722 -0.0918  0.4685
  520MOL0     C71652   4.755  12.815   6.985  0.2656  0.7354  0.6338
  520MOL0     O71653   4.679  12.762   6.887  0.4779  0.1959  0.2914
  520MOL0     C71654   4.680  12.817   6.758  0.0630 -0.1093 -0.2671
  520MOL0     C71655   4.720  12.740   6.650 -0.8706 -0.2826  0.4624
  520MOL0     C71656   4.715  12.795   6.523 -0.3472  0.4150  0.3711
  520MOL0     C71657   4.664  12.923   6.502  0.7484  0.2888 -0.7212
  520MOL0     O71658   4.664  12.974   6.377 -0.0036 -0.0434 -0.2897
  520MOL0     C71659   4.552  13.048   6.337  0.4149 -0.3702 -0.5920
  520MOL0     C71660   4.589  13.089   6.192 -0.8257  0.0369  0.6156
  520MOL0     C71661   4.541  12.974   6.096  0.4119 -0.4087 -0.1207
  520MOL0     C71662   4.562  13.020   5.947 -0.8124  0.1661  0.1409
  520MOL0     C71663   4.492  12.929   5.850  0.9765 -0.0953  0.8635
  520MOL0     C71664   4.537  12.785   5.849 -0.3631 -0.4668 -0.6634
  520MOL0     C71665   4.447  12.707   5.755  0.0405  0.4782  0.9659
  520MOL0     C71666   4.302  12.673   5.809 -0.6518 -0.3748 -0.6761
  520MOL0    Cl71667   4.297  12.671   5.987  0.1372  0.1304 -0.2172
  520MOL0     C71668   4.616  12.996   6.605  1.2163 -0.1343 -1.2556
  520MOL0     C71669   4.623  12.943   6.738 -0.8850  0.1831  0.3386
  520MOL0     O71670   4.807  12.926   6.980 -0.2706 -0.0471 -0.4087
  520MOL0     C71671   4.716  12.596   7.112 -0.8036 -0.0503  0.4608
  520MOL0     C71672   4.696  12.524   7.231  0.4606  0.2207  0.7923
  520MOL0     N71673   4.388  12.110   7.680 -0.6026 -0.5755  0.3438
  520MOL0     N71674   4.285  12.071   7.749 -0.4893  1.7354  0.4305
  520MOL0     C71675   3.852  10.952   7.739 -0.0268 -0.4648 -0.6067
  520MOL0     C71676   3.816  10.834   7.803 -0.6803  1.1198  0.4309
  520MOL0     C71677   3.769  10.508   8.138 -0.5854  0.1758  0.2262
  520MOL0     C71678   3.653  10.457   8.080  0.0147 -0.5606 -0.6395
  520MOL0     C71679   3.592  10.338   8.135  0.2090  0.0158 -0.2895
  520MOL0     C71680   3.639  10.274   8.247  0.0025  0.1884 -0.2901
  520MOL0     O71681   3.562  10.175   8.286 -0.9735  0.6230  0.2849
  520MOL0     C71682   3.565  10.116   8.417  0.3472 -0.5343 -0.2837
  520MOL0     C71683   3.679  10.021   8.455  0.1753 -0.2447 -0.0346
  520MOL0     C71684   3.679   9.878   8.397  0.5367  0.8615  0.1860
  520MOL0     C71685   3.549   9.799   8.429  0.6551  0.4768  0.7634
  520MOL0     C71686   3.503   9.804   8.570 -0.6009  0.3106 -0.5908
  520MOL0     C71687   3.455   9.813   8.682 -1.0722  0.3248  0.3926
  520MOL0     C71688   3.747  10.327   8.310 -0.1073  0.6347 -1.0079
  520MOL0     C71689   3.814  10.440   8.256  0.0352  0.2716 -0.0766
  520MOL0     C71690   3.930  10.494   8.336 -0.1470 -0.6923 -0.0142
  520MOL0     H71691   3.863  10.880   8.132  2.2388 -1.0687  0.3855
  520MOL0     H71692   3.931  11.114   8.037  0.0331 -1.3236  1.8315
  520MOL0     H71693   3.909  11.209   7.600  1.1237  0.6251 -2.1786
  520MOL0     H71694   4.059  11.117   7.625 -0.9282  0.7296 -1.9415
  520MOL0     H71695   4.168  11.309   7.732 -2.3053 -1.6520  3.2685
  520MOL0     H71696   4.115  11.345   7.557 -0.9104  0.1573  0.4756
  520MOL0     H71697   3.930  11.470   7.640 -1.2321 -0.2901  0.6760
  520MOL0     H71698   3.951  11.417   7.808  1.4429 -2.9646 -0.4020
  520MOL0     H71699   4.177  11.535   7.821  0.9669 -2.7564 -0.4739
  520MOL0     H71700   4.162  11.580   7.658  0.7333 -1.9728 -0.6141
  520MOL0     H71701   3.970  11.638   7.890 -1.5547  0.6047 -0.7980
  520MOL0     H71702   3.920  11.684   7.732 -0.3711  0.4471 -0.2393
  520MOL0     H71703   4.146  11.840   7.719 -1.0545 -0.9868 -0.9010
  520MOL0     H71704   4.020  11.891   7.824  1.3009  1.9800 -1.7383
  520MOL0     H71705   4.287  11.747   7.858 -0.4802 -1.7303 -0.9088
  520MOL0     H71706   4.178  11.736   8.001 -1.3344  1.6388  0.7858
  520MOL0     H71707   4.152  11.999   7.968  2.7045  3.6699  3.5137
  520MOL0     H71708   4.302  11.928   8.048  3.3616  2.2477 -1.0162
  520MOL0     H71709   4.542  11.947   7.910  2.7650  0.6247 -2.8902
  520MOL0     H71710   4.673  12.074   7.626 -2.7577 -1.8328  0.5138
  520MOL0     H71711   4.706  12.117   7.796  0.2876 -0.8124  0.9371
  520MOL0     H71712   4.554  12.317   7.742 -3.1754 -4.0789 -0.3582
  520MOL0     H71713   4.724  12.332   7.693  1.8847 -2.4967 -1.5363
  520MOL0     H71714   4.677  12.255   7.453  2.8834  4.2324  0.5916
  520MOL0     H71715   4.505  12.246   7.493  0.1594 -1.8498 -0.3618
  520MOL0     H71716   4.515  12.463   7.396 -0.2791  0.4357  0.3721
  520MOL0     H71717   4.533  12.483   7.565  1.9118  0.2370 -0.6556
  520MOL0     H71718   4.808  12.736   7.446  0.2560  1.7326 -0.0663
  520MOL0     H71719   4.848  12.960   7.359  1.2088  0.2833 -0.8357
  520MOL0     H71720   4.768  12.990   7.214  0.9249  0.0886 -1.3087
  520MOL0     H71721   4.936  12.967   7.211 -0.8583  0.0682 -2.4700
  520MOL0     H71722   4.742  12.635   6.666 -1.9103 -0.3515  1.6600
  520MOL0     H71723   4.742  12.734   6.438 -0.9926  0.7277 -0.0658
  520MOL0     H71724   4.468  12.977   6.338  0.8347 -0.8699 -0.6174
  520MOL0     H71725   4.538  13.142   6.391 -1.3530  0.4295 -2.2911
  520MOL0     H71726   4.551  13.186   6.160 -0.7993  0.0668  0.6753
  520MOL0     H71727   4.698  13.095   6.198 -0.5913 -2.9288  1.0771
  520MOL0     H71728   4.432  12.965   6.098  0.5282 -2.4093 -0.3573
  520MOL0     H71729   4.587  12.878   6.121 -1.1580 -0.5055  2.6832
  520MOL0     H71730   4.669  13.016   5.923 -0.8347 -3.4845  0.0254
  520MOL0     H71731   4.527  13.122   5.926 -0.0926  0.3638 -0.1384
  520MOL0     H71732   4.389  12.930   5.886  0.9479 -0.0975  0.7824
  520MOL0     H71733   4.494  12.958   5.745 -0.1927  0.0746  0.8732
  520MOL0     H71734   4.530  12.728   5.942  2.3222 -3.1101 -1.8985
  520MOL0     H71735   4.644  12.775   5.826  0.0731 -0.8404  1.3645
  520MOL0     H71736   4.500  12.617   5.722 -2.1402 -1.1938  1.8078
  520MOL0     H71737   4.441  12.767   5.664  2.0316 -0.5051  0.1194
  520MOL0     H71738   4.255  12.578   5.780 -0.4788 -1.0702  1.1653
  520MOL0     H71739   4.232  12.749   5.773 -0.6848 -0.2905 -0.4311
  520MOL0     H71740   4.568  13.092   6.592  2.8506  0.9960  0.5534
  520MOL0     H71741   4.578  13.000   6.819 -2.2681  2.9857 -2.2091
  520MOL0     H71742   4.716  12.544   7.017 -0.0705 -1.5728  1.2564
  520MOL0     H71743   4.664  12.421   7.224  4.0259 -0.9196 -1.6309
  520MOL0     H71744   3.861  10.965   7.632  1.1393 -0.8172 -0.5627
  520MOL0     H71745   3.787  10.746   7.746  0.0916  0.7768  0.5581
  520MOL0     H71746   3.621  10.494   7.983  0.8731  0.4773 -0.5552
  520MOL0     H71747   3.502  10.305   8.084 -0.9715  2.3358  0.1542
  520MOL0     H71748   3.578  10.199   8.487 -0.6819  1.4477 -2.3087
  520MOL0     H71749   3.469  10.063   8.417 -0.4880  0.8933  1.1336
  520MOL0     H71750   3.695  10.007   8.562  1.4254  1.3398  0.0276
  520MOL0     H71751   3.761  10.075   8.406  0.6374 -1.3738 -0.5458
  520MOL0     H71752   3.683   9.882   8.288 -3.3997  2.3586 -0.0661
  520MOL0     H71753   3.762   9.819   8.437  0.4597  0.8131  0.2779
  520MOL0     H71754   3.549   9.695   8.396  0.2254  0.3135  1.2710
  520MOL0     H71755   3.477   9.853   8.366  0.3941 -1.4615 -0.6823
  520MOL0     H71756   3.412   9.829   8.779 -3.1369 -1.5426 -0.1365
  520MOL0     H71757   3.787  10.290   8.404 -1.3007  0.5768 -0.5045
  520MOL0     H71758   3.943  10.452   8.437  1.8615 -3.7473 -1.3748
  520MOL0     H71759   4.014  10.463   8.273  0.1986  2.0338 -1.0364
  520MOL0     H71760   3.938  10.603   8.340 -3.3340 -0.3476 -0.4850
  521MOL0     O71761   2.640  10.100   7.792 -0.5641  0.3319 -0.3020
  521MOL0     C71762   2.711  10.012   7.741 -0.1012 -1.7449  0.1264
  521MOL0     O71763   2.711   9.880   7.771  0.7341  0.0921 -0.4076
  521MOL0     C71764   2.604   9.825   7.836  0.1194 -0.5477  0.6571
  521MOL0     C71765   2.522   9.747   7.762  0.9978  0.1847  0.6161
  521MOL0     C71766   2.415   9.676   7.827 -0.2891  0.0046  0.2225
  521MOL0     C71767   2.388   9.707   7.963 -0.2747  0.5052 -0.2036
  521MOL0     O71768   2.267   9.668   8.012 -0.0867  0.1873  0.0260
  521MOL0     C71769   2.196   9.760   8.092 -0.2446 -0.3550 -0.1415
  521MOL0     C71770   2.114   9.692   8.211  0.3249 -0.0533  0.1327
  521MOL0     C71771   2.201   9.677   8.337 -0.0042 -0.2230  0.3781
  521MOL0     C71772   2.126   9.593   8.440  0.1741  0.1475 -0.4673
  521MOL0     C71773   2.210   9.591   8.566 -0.0392 -0.0295  0.8466
  521MOL0     C71774   2.134   9.521   8.675  0.1733 -0.0168 -0.8660
  521MOL0     C71775   1.992   9.590   8.703 -0.0600  0.0795  0.2746
  521MOL0     C71776   1.915   9.540   8.832 -0.7355 -0.9995  0.0558
  521MOL0     N71777   1.781   9.588   8.844 -0.0030  0.2882 -1.0237
  521MOL0     C71778   1.664   9.516   8.832  0.3140  1.0041 -0.5423
  521MOL0     C71779   1.576   9.617   8.837  1.2960  0.1218  0.2252
  521MOL0     C71780   1.424   9.623   8.836  0.0920  0.7676 -0.3089
  521MOL0     C71781   1.370   9.676   8.699 -0.9096  0.0815 -0.4482
  521MOL0     C71782   1.354   9.827   8.706 -0.4540  0.2461  0.7032
  521MOL0     C71783   1.249   9.881   8.603 -0.1539 -0.2178  0.7476
  521MOL0     O71784   1.130   9.800   8.615  0.0519 -0.5918 -0.4884
  521MOL0     C71785   1.000   9.842   8.622 -0.5427 -0.1811  0.5978
  521MOL0     C71786   0.899   9.752   8.609  0.5789  0.0040 -0.4212
  521MOL0     C71787   0.760   9.786   8.608  0.4621  0.0641 -0.5113
  521MOL0     C71788   0.669   9.668   8.597  0.2655 -0.2335  0.2936
  521MOL0     C71789   0.726   9.920   8.632 -0.3963  0.0336  0.4626
  521MOL0     C71790   0.587   9.959   8.658 -0.3333 -0.4553  0.4440
  521MOL0     O71791   0.505   9.872   8.719 -0.1576 -0.9287  0.4039
  521MOL0     C71792   0.370   9.899   8.754 -0.4526  0.2197  0.4523
  521MOL0     C71793   0.322   9.846   8.872  0.3679 -0.0066 -0.1458
  521MOL0     C71794   0.182   9.857   8.899  0.0297  0.5484  0.2838
  521MOL0     C71795   0.094   9.926   8.817  0.1496 -0.8638 -0.2408
  521MOL0     O71796  -0.033   9.937   8.874 -0.8292 -0.6975  1.0061
  521MOL0     C71797  -0.106  10.046   8.814  0.1673 -0.6801 -0.8179
  521MOL0     C71798  -0.240  10.062   8.880 -0.5988  0.0501  0.3826
  521MOL0     C71799  -0.314  10.197   8.862 -0.2162 -0.2145 -0.2470
  521MOL0     C71800  -0.324  10.221   8.711  1.0942  0.3500 -0.4671
  521MOL0     C71801  -0.374  10.365   8.679  0.0667  1.2028 -0.5172
  521MOL0     C71802  -0.315  10.418   8.544  0.3887  0.0636  0.1295
  521MOL0     C71803  -0.430  10.487   8.464  0.0921 -1.0904  0.6828
  521MOL0     C71804  -0.555  10.396   8.431  0.5690 -0.0891  0.2265
  521MOL0    Cl71805  -0.515  10.233   8.344 -0.5683  0.9158 -0.5740
  521MOL0     C71806   0.145   9.987   8.706 -0.5016  0.2036  0.2050
  521MOL0     C71807   0.276   9.973   8.668 -0.5574  0.2778  0.5220
  521MOL0     O71808   0.558  10.070   8.610  0.7686  0.6811 -0.7939
  521MOL0     C71809   0.830  10.011   8.646  0.5737 -0.3816 -0.9389
  521MOL0     C71810   0.964   9.971   8.650  0.2747 -0.5534  0.1247
  521MOL0     N71811   1.640   9.737   8.859  0.5574  0.4960 -0.2041
  521MOL0     N71812   1.762   9.722   8.876 -0.3849  0.7692 -0.0449
  521MOL0     C71813   2.474   9.795   8.031  0.1239  0.6792  0.0833
  521MOL0     C71814   2.583   9.850   7.965  0.7198 -0.1269  0.2400
  521MOL0     C71815   2.814  10.076   7.653  0.4773  0.4543 -0.6931
  521MOL0     C71816   2.859  10.213   7.674  0.2506 -0.3032  0.7045
  521MOL0     C71817   2.969  10.257   7.600 -1.1048 -0.2537 -0.0151
  521MOL0     C71818   3.038  10.177   7.502  0.1718 -0.9552  0.0948
  521MOL0     O71819   3.142  10.212   7.426  0.5753 -0.6180  0.5317
  521MOL0     C71820   3.254  10.257   7.505 -0.4702  0.2228 -0.1673
  521MOL0     C71821   3.374  10.245   7.409 -0.9643 -0.5027  0.4951
  521MOL0     C71822   3.367  10.369   7.311 -0.1382 -0.1948  0.8359
  521MOL0     C71823   3.447  10.344   7.185 -0.4036 -0.2420  0.1041
  521MOL0     C71824   3.588  10.359   7.196 -0.5512  0.5817 -0.3477
  521MOL0     C71825   3.705  10.379   7.200  0.4218 -0.0858  0.6183
  521MOL0     C71826   2.984  10.051   7.482 -0.7521  0.2926 -0.0425
  521MOL0     C71827   2.878   9.996   7.560 -0.8633 -0.4082 -0.2374
  521MOL0     C71828   2.830   9.861   7.523 -0.2414 -0.3057  0.3403
  521MOL0     H71829   2.542   9.733   7.656  2.1017  2.2103  0.5143
  521MOL0     H71830   2.352   9.601   7.782  0.8477 -0.3547 -0.8266
  521MOL0     H71831   2.126   9.791   8.014 -0.4662 -1.5771 -0.4355
  521MOL0     H71832   2.248   9.852   8.122 -0.0222  0.2428 -2.2177
  521MOL0     H71833   2.033   9.761   8.238  0.9956  1.3202 -1.2346
  521MOL0     H71834   2.081   9.589   8.190 -0.9277  0.3277  0.1766
  521MOL0     H71835   2.300   9.635   8.318 -0.4198 -0.0420 -2.6713
  521MOL0     H71836   2.226   9.778   8.371 -1.8214  1.3317 -2.4458
  521MOL0     H71837   2.024   9.632   8.443  0.6078  1.2753  0.3857
  521MOL0     H71838   2.135   9.490   8.405 -0.7774  0.4492 -1.6622
  521MOL0     H71839   2.242   9.692   8.594  3.3271 -1.3174  2.1810
  521MOL0     H71840   2.307   9.546   8.543 -0.9988 -2.0999  0.6820
  521MOL0     H71841   2.105   9.426   8.629 -0.9825  1.0590 -2.4704
  521MOL0     H71842   2.195   9.514   8.765  1.7056  2.9287 -1.5189
  521MOL0     H71843   1.920   9.556   8.628  0.8120 -0.4856 -0.3258
  521MOL0     H71844   1.998   9.699   8.698  1.1173  0.0475  0.5981
  521MOL0     H71845   1.919   9.431   8.833 -2.7631 -1.1366  2.8368
  521MOL0     H71846   1.979   9.567   8.916  0.3269 -1.4722 -0.5789
  521MOL0     H71847   1.641   9.412   8.813  0.7377  0.2369  2.5923
  521MOL0     H71848   1.387   9.680   8.922  2.2931 -1.2977  2.1934
  521MOL0     H71849   1.391   9.519   8.850  1.1489  0.3308 -0.9229
  521MOL0     H71850   1.436   9.649   8.616 -0.5510  2.1479 -0.9024
  521MOL0     H71851   1.277   9.619   8.695 -0.0296 -1.5578  0.9745
  521MOL0     H71852   1.321   9.863   8.804 -0.3785  3.8033 -0.4456
  521MOL0     H71853   1.448   9.878   8.686  0.6331 -2.3121 -1.3305
  521MOL0     H71854   1.233   9.989   8.612 -0.1747 -0.3396  2.5254
  521MOL0     H71855   1.297   9.861   8.507 -0.1910  2.1887  0.1748
  521MOL0     H71856   0.919   9.647   8.590 -1.4450 -0.4904 -0.0117
  521MOL0     H71857   0.581   9.698   8.539 -0.0120  1.5502  1.5404
  521MOL0     H71858   0.642   9.631   8.696 -3.2010  2.1239  0.4162
  521MOL0     H71859   0.708   9.574   8.558 -1.0662 -0.1120 -1.4633
  521MOL0     H71860   0.379   9.789   8.945  0.5211  0.7026  0.3008
  521MOL0     H71861   0.144   9.803   8.985  1.2719 -1.0028 -0.0868
  521MOL0     H71862  -0.063  10.142   8.843  0.1265 -1.0103  0.4170
  521MOL0     H71863  -0.116  10.037   8.706 -0.6256  0.4267 -0.8451
  521MOL0     H71864  -0.302   9.979   8.842  1.1204 -0.0395 -2.4971
  521MOL0     H71865  -0.228  10.040   8.986 -3.2385  0.0561  0.7558
  521MOL0     H71866  -0.242  10.267   8.907 -0.4304  0.3662 -0.8020
  521MOL0     H71867  -0.416  10.194   8.901  0.0866  2.1319  0.8799
  521MOL0     H71868  -0.374  10.143   8.653  2.0477 -0.2408 -0.5193
  521MOL0     H71869  -0.220  10.210   8.677  1.3907  0.6129  0.3444
  521MOL0     H71870  -0.484  10.361   8.681  0.0978 -1.2179 -0.4296
  521MOL0     H71871  -0.351  10.445   8.750  3.8178  1.4039 -1.7778
  521MOL0     H71872  -0.280  10.331   8.486  1.7403 -0.3479  1.5043
  521MOL0     H71873  -0.229  10.484   8.553  2.0771 -1.7703 -1.4107
  521MOL0     H71874  -0.388  10.529   8.372  1.3330  0.6204  1.9480
  521MOL0     H71875  -0.474  10.575   8.513  3.1468  2.2219 -1.9585
  521MOL0     H71876  -0.607  10.450   8.351  0.5296 -2.2053 -1.2445
  521MOL0     H71877  -0.627  10.377   8.511 -2.0035  1.1111 -1.6578
  521MOL0     H71878   0.084  10.047   8.639 -2.7183 -0.8768  1.1611
  521MOL0     H71879   0.306  10.027   8.579 -0.2261 -1.0491 -0.1930
  521MOL0     H71880   0.819  10.119   8.659  3.1785  0.2672 -3.2474
  521MOL0     H71881   1.036  10.051   8.641  2.5432 -2.5676 -0.6417
  521MOL0     H71882   2.460   9.814   8.137 -1.2489 -2.1776  0.5080
  521MOL0     H71883   2.646   9.925   8.010 -1.7969  1.2400  1.7393
  521MOL0     H71884   2.815  10.274   7.752  1.1885  0.0779  0.9383
  521MOL0     H71885   3.006  10.355   7.628  1.0272 -0.5796 -1.4266
  521MOL0     H71886   3.236  10.358   7.542  4.2337  1.7891 -1.4444
  521MOL0     H71887   3.267  10.188   7.589 -0.9895  0.0939 -0.1905
  521MOL0     H71888   3.371  10.151   7.354  2.7690 -1.7006  2.0663
  521MOL0     H71889   3.463  10.250   7.472 -2.1880 -1.6936  2.4382
  521MOL0     H71890   3.266  10.390   7.276  0.7096  4.1465  0.3684
  521MOL0     H71891   3.399  10.461   7.360 -1.8153  0.7805  0.1922
  521MOL0     H71892   3.415  10.406   7.100 -0.6045 -0.6108 -0.0940
  521MOL0     H71893   3.436  10.238   7.157  1.9128 -1.1156  2.1718
  521MOL0     H71894   3.810  10.377   7.219  0.4106 -2.5548  0.7985
  521MOL0     H71895   3.044   9.985   7.420 -0.9847  1.3029 -1.3957
  521MOL0     H71896   2.834   9.860   7.414  1.0085 -0.5090  0.3714
  521MOL0     H71897   2.875   9.776   7.575 -1.4550  0.0465  2.0223
  521MOL0     H71898   2.723   9.855   7.540 -0.1398 -0.6762  0.8762
  522MOL0     O71899   2.366   5.194   4.184  0.3990  0.0919  0.6415
  522MOL0     C71900   2.301   5.096   4.158  0.3304 -0.8006 -0.1340
  522MOL0     O71901   2.351   4.969   4.138 -0.3664  0.2307  0.1445
  522MOL0     C71902   2.467   4.952   4.071 -0.2653  0.5112  0.8891
  522MOL0     C71903   2.553   4.846   4.106  0.2535  0.2698  0.2541
  522MOL0     C71904   2.671   4.814   4.025 -0.0563  0.3069 -0.6261
  522MOL0     C71905   2.685   4.885   3.908 -0.0672  0.1334 -1.5551
  522MOL0     O71906   2.780   4.871   3.823  0.4092  0.0884  0.0709
  522MOL0     C71907   2.907   4.934   3.847 -0.5567 -0.0051 -1.1226
  522MOL0     C71908   3.013   4.875   3.759 -0.0260  0.5297  1.2668
  522MOL0     C71909   3.130   4.982   3.741  0.5001  0.3741 -0.2854
  522MOL0     C71910   3.136   5.051   3.606  0.1482 -0.8608 -0.4179
  522MOL0     C71911   3.257   5.144   3.598 -0.4946  0.3499 -0.0682
  522MOL0     C71912   3.227   5.277   3.673 -0.5083 -0.0337  0.3809
  522MOL0     C71913   3.347   5.362   3.627  1.0836 -0.1070  0.1344
  522MOL0     C71914   3.385   5.480   3.732  0.6594 -0.0781 -0.0619
  522MOL0     N71915   3.460   5.582   3.665 -0.2184  0.4229 -0.1090
  522MOL0     C71916   3.597   5.575   3.668 -0.0253 -0.9108 -0.5775
  522MOL0     C71917   3.643   5.665   3.576  0.4228 -0.0952 -0.0918
  522MOL0     C71918   3.785   5.714   3.542  0.0408 -0.5250  0.2761
  522MOL0     C71919   3.796   5.856   3.597 -0.8890  0.3930 -0.0683
  522MOL0     C71920   3.931   5.921   3.563 -0.2463  0.0648  0.2573
  522MOL0     C71921   3.939   6.065   3.609 -0.5099 -1.4975 -0.2229
  522MOL0     O71922   4.067   6.118   3.579 -0.1495  0.3565  0.2627
  522MOL0     C71923   4.103   6.244   3.590  0.0767  0.1299  0.2430
  522MOL0     C71924   4.000   6.342   3.599 -0.6015 -0.2099 -0.0208
  522MOL0     C71925   4.027   6.480   3.587 -0.8301  0.9422 -0.3582
  522MOL0     C71926   3.913   6.572   3.557  0.1801 -0.4925  0.3442
  522MOL0     C71927   4.167   6.518   3.610 -0.3442 -0.2186  0.2650
  522MOL0     C71928   4.209   6.665   3.623  0.2614 -0.5828 -0.5871
  522MOL0     O71929   4.107   6.758   3.644 -0.0310 -0.1211 -0.2931
  522MOL0     C71930   4.131   6.898   3.640  0.0098  1.2166 -0.2056
  522MOL0     C71931   4.045   6.971   3.555 -0.6739 -0.3899 -1.0971
  522MOL0     C71932   4.073   7.111   3.537  0.0705 -0.6770  0.5284
  522MOL0     C71933   4.186   7.166   3.584  0.0550  0.3194  0.1988
  522MOL0     O71934   4.200   7.303   3.572  0.8485  0.1315  0.8894
  522MOL0     C71935   4.319   7.346   3.508  0.0276  0.6604 -0.3799
  522MOL0     C71936   4.296   7.432   3.382  0.1626  0.1674 -0.1686
  522MOL0     C71937   4.144   7.472   3.365 -0.4851  0.3924  0.3049
  522MOL0     C71938   4.122   7.558   3.233 -0.6218  0.0374  0.1705
  522MOL0     C71939   3.978   7.600   3.216 -0.4212  0.6341 -0.1473
  522MOL0     C71940   3.916   7.677   3.336  0.4098  0.0932  0.3053
  522MOL0     C71941   3.807   7.762   3.279 -0.1317  0.2705  0.2137
  522MOL0     C71942   3.742   7.846   3.388  0.8599 -0.7146 -0.1367
  522MOL0    Cl71943   3.585   7.775   3.462  0.2501  0.1588  0.2868
  522MOL0     C71944   4.263   7.089   3.670  0.0069  0.8733 -0.3678
  522MOL0     C71945   4.235   6.960   3.709  0.1405 -0.5564  0.0836
  522MOL0     O71946   4.327   6.689   3.585 -0.0796 -0.1877 -1.5254
  522MOL0     C71947   4.261   6.408   3.603 -0.1373  0.1079  0.2196
  522MOL0     C71948   4.235   6.280   3.585  0.2103  0.1097 -0.5998
  522MOL0     N71949   3.523   5.708   3.514 -0.4273 -0.4907  0.0723
  522MOL0     N71950   3.413   5.659   3.563 -0.0618  0.0070  0.4057
  522MOL0     C71951   2.602   4.985   3.878 -0.1036  0.3858 -0.4152
  522MOL0     C71952   2.498   5.029   3.958 -0.0124  0.1510  0.4048
  522MOL0     C71953   2.158   5.102   4.168 -0.0292 -0.4512  0.5015
  522MOL0     C71954   2.091   5.086   4.054 -0.1601  0.5332  0.8984
  522MOL0     C71955   1.947   5.096   4.054 -0.3450  0.4816 -0.3900
  522MOL0     C71956   1.879   5.118   4.169 -0.8036  0.0106 -0.1718
  522MOL0     O71957   1.739   5.118   4.163  0.6039  0.4587  0.2922
  522MOL0     C71958   1.655   5.166   4.266 -0.0507  0.2389 -0.7982
  522MOL0     C71959   1.541   5.245   4.216  0.4706 -0.7696  0.3967
  522MOL0     C71960   1.451   5.309   4.332 -0.5156 -0.1330 -0.4748
  522MOL0     C71961   1.529   5.420   4.415 -0.2268  0.2573 -0.5477
  522MOL0     C71962   1.448   5.462   4.533 -1.5826  0.0615  0.9829
  522MOL0     C71963   1.383   5.511   4.616  0.4769 -0.4016  0.7569
  522MOL0     C71964   1.952   5.146   4.281  0.4584 -0.7971 -0.5958
  522MOL0     C71965   2.085   5.136   4.284  0.0459  0.4109 -0.7304
  522MOL0     C71966   2.164   5.160   4.409 -0.4462  0.5847  0.4039
  522MOL0     H71967   2.536   4.803   4.204 -1.9202  1.8151  0.6209
  522MOL0     H71968   2.747   4.745   4.058 -1.3671 -1.1992 -0.6110
  522MOL0     H71969   2.942   4.921   3.949 -0.7358  2.7566 -0.6206
  522MOL0     H71970   2.887   5.042   3.842 -2.1891 -0.2051  0.3012
  522MOL0     H71971   3.046   4.782   3.805 -1.3339  0.5503  2.3124
  522MOL0     H71972   2.973   4.839   3.664  1.1592  0.6687  0.7011
  522MOL0     H71973   3.125   5.054   3.823 -2.8066 -1.7297  1.5709
  522MOL0     H71974   3.219   4.918   3.740  0.1963 -0.0832 -1.9399
  522MOL0     H71975   3.136   4.977   3.525 -0.3446 -2.1436  0.7135
  522MOL0     H71976   3.044   5.108   3.592  0.7384 -0.0737 -1.1999
  522MOL0     H71977   3.265   5.175   3.493 -3.7246 -0.5190 -0.6625
  522MOL0     H71978   3.350   5.093   3.626 -0.5874  0.5827  0.6909
  522MOL0     H71979   3.127   5.311   3.646 -1.1031 -2.0020 -0.0542
  522MOL0     H71980   3.238   5.262   3.781  1.1136 -3.8622 -0.1601
  522MOL0     H71981   3.319   5.408   3.531  2.9006  1.2242  0.1949
  522MOL0     H71982   3.442   5.311   3.611  1.0458 -0.4081  0.8477
  522MOL0     H71983   3.292   5.525   3.770 -1.7828 -2.9988 -2.1114
  522MOL0     H71984   3.452   5.444   3.811 -0.9088  0.3195  1.5340
  522MOL0     H71985   3.665   5.512   3.725  1.7973  1.8191  0.4355
  522MOL0     H71986   3.797   5.712   3.433 -3.4890  2.8688 -0.3749
  522MOL0     H71987   3.858   5.647   3.588 -1.8047 -0.4392  3.6161
  522MOL0     H71988   3.719   5.927   3.567 -2.4717 -1.4154 -0.5335
  522MOL0     H71989   3.798   5.848   3.707 -3.6756  2.8617  0.2749
  522MOL0     H71990   4.023   5.874   3.600 -0.9492  0.9096  3.3886
  522MOL0     H71991   3.945   5.925   3.455  4.3262 -0.3691  0.6496
  522MOL0     H71992   3.859   6.117   3.556 -1.1365 -1.9627  0.2505
  522MOL0     H71993   3.918   6.073   3.716  1.1976 -0.4382  0.0832
  522MOL0     H71994   3.900   6.304   3.617  0.2352 -1.8841  1.3337
  522MOL0     H71995   3.816   6.522   3.543 -0.4166  0.7144  0.0317
  522MOL0     H71996   3.933   6.619   3.460 -1.6977  0.2872  0.2876
  522MOL0     H71997   3.896   6.649   3.633  0.3048 -1.1163  1.0063
  522MOL0     H71998   3.957   6.921   3.515 -2.1042  1.4342 -0.3954
  522MOL0     H71999   4.004   7.184   3.497 -2.2624 -2.1707  1.6287
  522MOL0     H72000   4.378   7.396   3.585 -0.2171 -2.2895  1.8968
  522MOL0     H72001   4.366   7.259   3.461 -1.5762  0.1764 -1.1702
  522MOL0     H72002   4.352   7.524   3.398  0.1911  0.0370  0.5161
  522MOL0     H72003   4.335   7.391   3.288 -0.3201 -1.0088  0.1235
  522MOL0     H72004   4.105   7.518   3.456 -4.3239 -1.6127 -0.1075
  522MOL0     H72005   4.084   7.381   3.376  0.2245 -0.1707 -0.3404
  522MOL0     H72006   4.154   7.497   3.149 -0.5443 -1.7136  1.4021
  522MOL0     H72007   4.187   7.646   3.233  3.1758 -2.5754 -0.6662
  522MOL0     H72008   3.992   7.659   3.125 -1.6232  1.1597 -0.0138
  522MOL0     H72009   3.921   7.509   3.193  0.3804 -0.5682  2.2642
  522MOL0     H72010   3.991   7.733   3.393 -0.2624 -1.2181  2.5489
  522MOL0     H72011   3.868   7.602   3.398 -0.4000  0.8165  0.5722
  522MOL0     H72012   3.732   7.707   3.221 -0.4241  0.8557  0.0374
  522MOL0     H72013   3.852   7.826   3.203 -3.6301  0.3733 -1.9832
  522MOL0     H72014   3.704   7.936   3.340 -0.5300  0.0884  2.2557
  522MOL0     H72015   3.820   7.872   3.460  1.3760 -0.2283 -0.8592
  522MOL0     H72016   4.348   7.136   3.720 -0.1421  1.2872 -0.4982
  522MOL0     H72017   4.301   6.898   3.769 -0.7322 -2.2394 -0.6159
  522MOL0     H72018   4.366   6.429   3.622  0.6857 -3.2690 -0.0258
  522MOL0     H72019   4.322   6.215   3.584  1.3749  1.5940  0.1260
  522MOL0     H72020   2.623   5.030   3.781  1.0004 -0.1393 -0.4284
  522MOL0     H72021   2.434   5.107   3.918 -0.6080  0.3903  1.7530
  522MOL0     H72022   2.143   5.058   3.963  2.0499  0.9466  1.9676
  522MOL0     H72023   1.895   5.075   3.961  0.4166 -1.1420 -0.4728
  522MOL0     H72024   1.612   5.086   4.328 -1.9638  0.2337 -2.0281
  522MOL0     H72025   1.708   5.236   4.331 -2.6892 -0.3351  2.2415
  522MOL0     H72026   1.490   5.170   4.155 -1.2960  1.2444 -0.7178
  522MOL0     H72027   1.569   5.320   4.141 -2.5039 -0.7410 -0.8248
  522MOL0     H72028   1.354   5.346   4.297 -1.3703 -2.3234 -0.5965
  522MOL0     H72029   1.419   5.228   4.399 -1.2598  1.6987  1.4746
  522MOL0     H72030   1.543   5.509   4.353  1.5659  3.6305  4.1691
  522MOL0     H72031   1.632   5.391   4.439  0.5334  3.0882 -0.0896
  522MOL0     H72032   1.309   5.560   4.677  0.4260 -0.1923  0.5346
  522MOL0     H72033   1.908   5.179   4.374 -0.4196  0.4370 -1.4171
  522MOL0     H72034   2.085   5.182   4.482 -0.4955  1.5513  0.0722
  522MOL0     H72035   2.227   5.073   4.427 -3.1411 -1.8239 -0.9764
  522MOL0     H72036   2.221   5.253   4.398  1.3009 -0.6468 -1.6201
  523MOL0     O72037   2.015   8.592   6.847  0.2816 -1.3444 -0.0160
  523MOL0     C72038   1.971   8.488   6.808  0.6251  0.1865  0.6555
  523MOL0     O72039   1.966   8.379   6.888 -0.0367  0.0874 -0.4621
  523MOL0     C72040   2.065   8.359   6.977  0.2777 -0.1617  0.2107
  523MOL0     C72041   2.200   8.361   6.927 -0.4804  0.0232 -0.0067
  523MOL0     C72042   2.307   8.339   7.014  0.4225 -0.8824  0.3512
  523MOL0     C72043   2.289   8.311   7.142  0.6010  0.4706 -1.1010
  523MOL0     O72044   2.404   8.299   7.210 -0.5280 -0.3370 -0.1007
  523MOL0     C72045   2.410   8.375   7.336 -1.2587  0.6928 -0.5729
  523MOL0     C72046   2.504   8.487   7.318  0.1361  0.3226 -0.0756
  523MOL0     C72047   2.651   8.463   7.294  0.7731  0.7769  0.5331
  523MOL0     C72048   2.735   8.472   7.427  0.4754  0.2590  0.3625
  523MOL0     C72049   2.806   8.340   7.470  0.2363  0.6957  0.3224
  523MOL0     C72050   2.864   8.347   7.615  0.2952  0.2765 -0.4069
  523MOL0     C72051   2.998   8.408   7.619  0.3781 -0.8183 -0.8291
  523MOL0     C72052   3.072   8.372   7.751  0.0202  0.4241 -0.3395
  523MOL0     N72053   2.986   8.404   7.867  0.3381 -0.2305  0.5022
  523MOL0     C72054   2.964   8.536   7.895  0.1080  0.3975 -0.1067
  523MOL0     C72055   2.865   8.529   7.987 -0.5423  0.0701 -0.2183
  523MOL0     C72056   2.816   8.656   8.050 -0.4935  0.2797 -0.5123
  523MOL0     C72057   2.655   8.657   8.082 -0.2958 -0.6923  0.0774
  523MOL0     C72058   2.620   8.585   8.209  0.3449  0.5213 -0.5246
  523MOL0     C72059   2.655   8.663   8.344  0.2391 -0.4235 -0.9216
  523MOL0     O72060   2.628   8.580   8.459  0.3894 -0.4502 -0.2606
  523MOL0     C72061   2.504   8.518   8.498  0.6236  0.2046  0.2803
  523MOL0     C72062   2.380   8.542   8.434  0.0833 -0.4414 -0.8848
  523MOL0     C72063   2.266   8.482   8.475  0.3222 -0.0193 -0.5859
  523MOL0     C72064   2.147   8.511   8.400 -0.1804 -0.2653  1.4158
  523MOL0     C72065   2.260   8.398   8.595 -0.1058 -0.2780 -0.2586
  523MOL0     C72066   2.143   8.323   8.645  0.5190 -0.2169 -0.0477
  523MOL0     O72067   2.019   8.392   8.629  0.2676  0.0325 -0.1504
  523MOL0     C72068   1.895   8.333   8.656 -0.9187 -0.8264 -0.1031
  523MOL0     C72069   1.797   8.363   8.561 -0.8376 -0.5249 -0.6798
  523MOL0     C72070   1.666   8.327   8.586 -0.6315  0.5359  0.0834
  523MOL0     C72071   1.632   8.277   8.709 -0.5459  0.3700  0.0306
  523MOL0     O72072   1.494   8.281   8.729 -0.4718  0.7811 -0.7285
  523MOL0     C72073   1.450   8.248   8.862 -1.2849  0.3719 -0.5113
  523MOL0     C72074   1.306   8.204   8.848  0.4866  0.3545 -0.3387
  523MOL0     C72075   1.235   8.187   8.985  0.3444 -0.3253  0.2179
  523MOL0     C72076   1.082   8.220   8.962 -0.1807  1.1861 -0.4010
  523MOL0     C72077   1.008   8.220   9.094 -0.3149 -0.1271 -0.0673
  523MOL0     C72078   1.053   8.110   9.192 -0.0931  0.3660 -0.6083
  523MOL0     C72079   0.967   8.101   9.313 -0.1101  0.5682 -0.7202
  523MOL0     C72080   1.002   7.973   9.385 -0.3848 -0.0041 -0.3172
  523MOL0    Cl72081   0.946   7.979   9.553  0.4860  0.0237 -0.1000
  523MOL0     C72082   1.738   8.237   8.801  0.7664  0.3624 -0.1126
  523MOL0     C72083   1.868   8.271   8.773 -0.2468  0.1803 -1.5548
  523MOL0     O72084   2.156   8.207   8.681  0.2121 -0.6252  0.4060
  523MOL0     C72085   2.383   8.385   8.656 -0.6564  0.7531 -0.4531
  523MOL0     C72086   2.498   8.444   8.614  0.3879  0.2637 -0.2629
  523MOL0     N72087   2.834   8.401   8.011 -0.1439 -0.0878 -0.3224
  523MOL0     N72088   2.905   8.321   7.944 -0.3184  1.1805  0.2411
  523MOL0     C72089   2.157   8.301   7.195 -0.3220 -0.2583  0.3467
  523MOL0     C72090   2.043   8.325   7.117  0.3684  0.4832  1.2633
  523MOL0     C72091   1.898   8.485   6.674  0.5110 -0.6121 -0.5797
  523MOL0     C72092   1.884   8.361   6.617  0.2892 -0.8819 -0.1262
  523MOL0     C72093   1.826   8.346   6.493  0.3350  0.4985  0.3422
  523MOL0     C72094   1.774   8.456   6.430  0.9041 -0.2535 -0.7170
  523MOL0     O72095   1.732   8.440   6.300 -0.7494  0.1960 -0.6121
  523MOL0     C72096   1.604   8.496   6.273  0.0272 -0.1817  0.0678
  523MOL0     C72097   1.630   8.583   6.146  0.1505  0.4039  0.3281
  523MOL0     C72098   1.493   8.630   6.102  0.2064  0.6738 -0.2317
  523MOL0     C72099   1.509   8.696   5.957 -0.0273 -0.0778  0.1823
  523MOL0     C72100   1.389   8.764   5.916  0.3997  0.4123 -0.0046
  523MOL0     C72101   1.285   8.812   5.867 -0.0140  0.6231 -0.0709
  523MOL0     C72102   1.766   8.576   6.489 -0.1305 -0.4228 -0.0491
  523MOL0     C72103   1.842   8.599   6.602 -0.0799  0.0032 -0.4573
  523MOL0     C72104   1.846   8.741   6.646  0.7058  1.2236 -0.8383
  523MOL0     H72105   2.231   8.373   6.824 -1.6675 -2.8554 -0.7987
  523MOL0     H72106   2.411   8.336   6.982  1.6283  1.2029  3.5058
  523MOL0     H72107   2.442   8.301   7.409 -1.1570 -0.5183 -1.8110
  523MOL0     H72108   2.312   8.411   7.369 -1.0792  2.5881 -1.8982
  523MOL0     H72109   2.459   8.543   7.236 -3.5158  1.6205  2.5496
  523MOL0     H72110   2.498   8.562   7.398 -1.0752  0.8164 -0.6001
  523MOL0     H72111   2.663   8.364   7.249 -2.1069  0.6123 -0.0668
  523MOL0     H72112   2.690   8.541   7.228 -1.9244  2.1812  0.4503
  523MOL0     H72113   2.796   8.561   7.409  1.1076 -0.0218  1.0539
  523MOL0     H72114   2.668   8.493   7.511  2.1483 -0.3381  1.8983
  523MOL0     H72115   2.886   8.327   7.396 -1.2951  0.3858 -1.3188
  523MOL0     H72116   2.740   8.255   7.454 -0.2274  1.1517 -0.2411
  523MOL0     H72117   2.802   8.397   7.691  0.8040 -1.1645  1.0093
  523MOL0     H72118   2.869   8.241   7.638 -1.9274 -0.3292 -2.2958
  523MOL0     H72119   2.991   8.515   7.599 -2.7927 -0.0413  3.0968
  523MOL0     H72120   3.059   8.360   7.542 -0.4529  0.7916 -2.5698
  523MOL0     H72121   3.087   8.263   7.746 -1.2306  0.2499 -0.8007
  523MOL0     H72122   3.176   8.403   7.758  0.5151 -1.0624 -0.6597
  523MOL0     H72123   3.002   8.625   7.845  0.7158 -0.1908 -0.7202
  523MOL0     H72124   2.845   8.741   7.987 -1.1376  1.0914  0.2532
  523MOL0     H72125   2.881   8.664   8.137  1.4688  2.1559 -2.0331
  523MOL0     H72126   2.631   8.763   8.095  0.1126 -0.7622  1.5624
  523MOL0     H72127   2.611   8.605   7.996 -1.7216  1.7387 -0.7753
  523MOL0     H72128   2.513   8.561   8.217  0.3821  0.8279  1.7559
  523MOL0     H72129   2.671   8.489   8.210  1.5060  0.8861  4.7263
  523MOL0     H72130   2.756   8.705   8.343 -0.4850  1.8291  2.5455
  523MOL0     H72131   2.589   8.750   8.360  0.1323 -0.2143 -2.3769
  523MOL0     H72132   2.366   8.623   8.362 -0.6604  0.2589  0.0091
  523MOL0     H72133   2.161   8.564   8.305 -0.0308  0.9503  2.0968
  523MOL0     H72134   2.075   8.575   8.453 -2.4855 -2.1794  0.7560
  523MOL0     H72135   2.105   8.417   8.364 -1.3491 -0.1694  2.4536
  523MOL0     H72136   1.825   8.413   8.468 -0.6089  0.5197 -0.0698
  523MOL0     H72137   1.581   8.343   8.521  1.4948  2.4233 -2.4576
  523MOL0     H72138   1.517   8.170   8.900 -0.8235  1.5226  1.1501
  523MOL0     H72139   1.463   8.337   8.924  3.2151 -0.4881  0.0695
  523MOL0     H72140   1.253   8.278   8.786  2.8962  1.4266 -1.2470
  523MOL0     H72141   1.304   8.102   8.808 -1.9485  0.2814 -0.1621
  523MOL0     H72142   1.261   8.255   9.067 -0.4469 -2.2100  2.1458
  523MOL0     H72143   1.259   8.090   9.030 -1.6787  0.1316  2.4626
  523MOL0     H72144   1.036   8.147   8.895  2.9947  0.7669 -2.3149
  523MOL0     H72145   1.082   8.323   8.925  2.8314  2.0387  1.6044
  523MOL0     H72146   1.002   8.314   9.150 -0.9553 -0.7806  0.9775
  523MOL0     H72147   0.905   8.193   9.068 -0.8169  1.0119  0.6555
  523MOL0     H72148   1.159   8.112   9.216  0.6061 -1.6411 -3.0609
  523MOL0     H72149   1.042   8.018   9.133  2.3871 -0.7580  0.5558
  523MOL0     H72150   0.858   8.099   9.300 -0.1260  2.6340 -1.3159
  523MOL0     H72151   0.989   8.191   9.372  0.2974 -1.0264  1.7163
  523MOL0     H72152   1.111   7.965   9.382 -0.1842  2.0514 -0.0133
  523MOL0     H72153   0.955   7.892   9.329 -3.4444  1.8683 -0.6587
  523MOL0     H72154   1.712   8.195   8.898 -1.9278 -0.6083 -1.1563
  523MOL0     H72155   1.943   8.256   8.850 -1.5764 -0.9764 -0.4048
  523MOL0     H72156   2.377   8.317   8.741  0.8488 -1.9237 -2.3709
  523MOL0     H72157   2.594   8.438   8.664  1.0741 -1.5834 -1.6938
  523MOL0     H72158   2.152   8.276   7.300 -2.0954  2.7977  1.1110
  523MOL0     H72159   1.944   8.301   7.155 -0.5480 -0.5589 -1.4803
  523MOL0     H72160   1.915   8.266   6.660 -3.9561 -2.1211  0.6474
  523MOL0     H72161   1.812   8.250   6.443 -2.7829  1.3467 -0.6252
  523MOL0     H72162   1.526   8.423   6.251 -0.8991  1.5867 -3.2266
  523MOL0     H72163   1.566   8.565   6.349  2.2377  1.2415 -0.0176
  523MOL0     H72164   1.685   8.523   6.073  2.4442  2.4073  0.2725
  523MOL0     H72165   1.691   8.672   6.164 -0.2037  0.1469  3.3105
  523MOL0     H72166   1.418   8.551   6.103  0.6706  0.1363 -2.5327
  523MOL0     H72167   1.462   8.695   6.184  0.3515  1.4999 -0.8246
  523MOL0     H72168   1.534   8.615   5.889  2.8501  0.0775  0.9120
  523MOL0     H72169   1.595   8.764   5.955  0.8317 -1.1421 -0.2525
  523MOL0     H72170   1.208   8.876   5.830  0.6199  1.4130 -0.0618
  523MOL0     H72171   1.720   8.658   6.435 -0.2075 -1.4858 -1.6806
  523MOL0     H72172   1.785   8.759   6.734 -2.4970  2.7151 -3.1732
  523MOL0     H72173   1.948   8.778   6.658  1.3065  0.4591 -2.9786
  523MOL0     H72174   1.804   8.815   6.577  1.9863  1.6305 -1.2129
  524MOL0     O72175  11.349  11.311   7.473 -0.2855 -0.4271  0.0955
  524MOL0     C72176  11.240  11.298   7.536  0.4164  0.5602 -0.2230
  524MOL0     O72177  11.227  11.229   7.655  0.6177 -0.0356  0.9655
  524MOL0     C72178  11.338  11.192   7.713  0.1261  0.6189  0.3703
  524MOL0     C72179  11.372  11.260   7.827  0.1598 -0.0923  0.4826
  524MOL0     C72180  11.469  11.231   7.916 -0.8255 -0.8864  0.1034
  524MOL0     C72181  11.543  11.115   7.882 -0.4369 -0.4903  0.0390
  524MOL0     O72182  11.653  11.086   7.951 -0.7115  0.0821 -0.4108
  524MOL0     C72183  11.658  11.132   8.088 -0.3386  0.4358  0.5348
  524MOL0     C72184  11.800  11.110   8.134 -0.0316  0.1283 -0.1153
  524MOL0     C72185  11.826  11.129   8.288 -0.2862  0.0371 -0.2438
  524MOL0     C72186  11.973  11.181   8.316 -0.1518 -0.1560  0.3449
  524MOL0     C72187  11.999  11.227   8.465  0.1536  0.5120  0.1076
  524MOL0     C72188  12.152  11.238   8.512  0.5531 -0.6534  1.1368
  524MOL0     C72189  12.231  11.334   8.425  0.3038  0.3409 -0.2721
  524MOL0     C72190  12.196  11.486   8.445 -0.2114  1.4106 -0.8114
  524MOL0     N72191  12.220  11.522   8.580  1.0719 -0.3447  0.4090
  524MOL0     C72192  12.347  11.550   8.618 -0.3495 -0.4491 -0.7556
  524MOL0     C72193  12.334  11.582   8.751  0.5298 -1.5995  0.7675
  524MOL0     C72194  12.445  11.615   8.841 -0.4426 -0.4006  0.0693
  524MOL0     C72195  12.485  11.502   8.932  0.1665  0.0322 -0.1206
  524MOL0     C72196  12.593  11.526   9.045  0.8519 -0.5834  0.2764
  524MOL0     C72197  12.527  11.577   9.177 -0.1341  0.2590 -0.6339
  524MOL0     O72198  12.407  11.507   9.214  0.2876  0.5828 -0.2580
  524MOL0     C72199  12.449  11.387   9.279  0.4915 -0.4204 -1.0187
  524MOL0     C72200  12.429  11.268   9.211 -0.2206 -0.6454  0.1154
  524MOL0     C72201  12.447  11.143   9.270 -0.1930 -0.5685  0.1745
  524MOL0     C72202  12.410  11.016   9.197  1.3476  0.6261 -0.4531
  524MOL0     C72203  12.505  11.127   9.404  0.1237 -0.1056  0.0060
  524MOL0     C72204  12.530  11.012   9.488  0.1229 -0.3191 -0.5070
  524MOL0     O72205  12.513  11.037   9.622  0.2303 -0.0101 -0.3199
  524MOL0     C72206  12.549  10.944   9.719 -0.4355 -0.5765 -0.0481
  524MOL0     C72207  12.491  10.959   9.849  0.0244 -0.3601  0.6168
  524MOL0     C72208  12.520  10.871   9.955 -0.6486 -0.6581  0.2046
  524MOL0     C72209  12.599  10.755   9.930 -0.4486  0.0596 -0.9924
  524MOL0     O72210  12.619  10.642  10.015  0.0152  0.0322  0.4645
  524MOL0     C72211  12.633  10.685  10.147 -0.1453  0.2748 -0.4757
  524MOL0     C72212  12.770  10.759  10.159  0.8240 -0.1568 -0.2414
  524MOL0     C72213  12.893  10.667  10.145 -0.1884  0.0677  0.4009
  524MOL0     C72214  12.934  10.621  10.004  0.2354  0.6267 -0.6537
  524MOL0     C72215  12.974  10.728   9.904  0.2683 -0.6211 -0.7679
  524MOL0     C72216  13.017  10.670   9.770 -0.6845 -0.2264  0.4326
  524MOL0     C72217  13.049  10.779   9.668 -0.4883 -0.5168  0.1833
  524MOL0     C72218  13.179  10.852   9.683 -0.0617  1.6697 -0.0396
  524MOL0    Cl72219  13.216  10.975   9.569  0.1566 -0.1989 -0.1491
  524MOL0     C72220  12.667  10.744   9.807 -0.0293 -0.9799  1.1177
  524MOL0     C72221  12.644  10.838   9.700 -0.3546 -0.2311 -0.1989
  524MOL0     O72222  12.561  10.904   9.436 -0.0399  0.0267 -0.1452
  524MOL0     C72223  12.539  11.252   9.466 -0.1391  0.2368 -0.0936
  524MOL0     C72224  12.515  11.378   9.407  0.5499  0.8194 -0.2719
  524MOL0     N72225  12.200  11.579   8.790 -1.2803  0.4364 -0.4111
  524MOL0     N72226  12.133  11.554   8.686  0.2881  0.0392 -0.5325
  524MOL0     C72227  11.497  11.036   7.772 -0.6499  0.1043  0.2647
  524MOL0     C72228  11.399  11.081   7.685 -0.2137  0.7919 -0.0087
  524MOL0     C72229  11.119  11.347   7.470  0.8699  1.1003 -0.1278
  524MOL0     C72230  11.007  11.259   7.486  0.8844 -0.8365  1.2201
  524MOL0     C72231  10.893  11.285   7.420  0.4011 -0.3046  0.0344
  524MOL0     C72232  10.863  11.406   7.359  0.3713 -0.8783  0.8814
  524MOL0     O72233  10.753  11.427   7.287 -0.1714 -0.0201  0.6028
  524MOL0     C72234  10.677  11.547   7.323  0.1877 -0.2133  0.7117
  524MOL0     C72235  10.550  11.488   7.395 -0.1131  0.3883 -0.5886
  524MOL0     C72236  10.479  11.615   7.460  0.0044  0.2944 -0.8329
  524MOL0     C72237  10.368  11.662   7.353 -0.5054  0.2009  0.1646
  524MOL0     C72238  10.333  11.795   7.390  0.4995 -0.0168  0.3423
  524MOL0     C72239  10.289  11.896   7.434 -0.0884  0.6372 -0.1744
  524MOL0     C72240  10.963  11.507   7.370  0.1509  0.5049  0.7114
  524MOL0     C72241  11.097  11.479   7.421  0.1538  0.3585 -0.3749
  524MOL0     C72242  11.198  11.595   7.433  0.3736  0.3148 -1.1135
  524MOL0     H72243  11.323  11.356   7.838  0.2553 -0.1325  1.2837
  524MOL0     H72244  11.488  11.298   7.999 -0.3542  2.5043 -2.5417
  524MOL0     H72245  11.587  11.075   8.149  0.8617 -1.7884 -0.0416
  524MOL0     H72246  11.653  11.241   8.097  4.1307  1.1008 -2.1305
  524MOL0     H72247  11.807  11.003   8.115 -3.7743 -0.1000 -0.9947
  524MOL0     H72248  11.872  11.180   8.092 -1.5415  3.2180  2.0130
  524MOL0     H72249  11.754  11.212   8.294 -1.0121 -0.5333 -0.8321
  524MOL0     H72250  11.792  11.049   8.354 -0.2071 -0.4911 -0.8371
  524MOL0     H72251  12.042  11.100   8.290  2.0518  1.2989  1.3852
  524MOL0     H72252  11.982  11.271   8.255 -2.7232  1.3819  2.0132
  524MOL0     H72253  11.957  11.154   8.534  1.3547  2.0330  2.5978
  524MOL0     H72254  11.944  11.320   8.483  1.0986  1.3790 -1.2711
  524MOL0     H72255  12.149  11.265   8.618 -0.2405  0.2682  0.8863
  524MOL0     H72256  12.204  11.141   8.514  0.5751 -0.6359  1.4793
  524MOL0     H72257  12.218  11.299   8.322  0.6956 -1.4327  0.2468
  524MOL0     H72258  12.336  11.320   8.450 -0.0413 -0.2332  0.9723
  524MOL0     H72259  12.257  11.548   8.380  0.7139  2.7815  1.2572
  524MOL0     H72260  12.095  11.509   8.408 -1.6849 -1.1910  1.1833
  524MOL0     H72261  12.442  11.547   8.565  0.5388 -1.4420  0.7906
  524MOL0     H72262  12.418  11.704   8.899 -2.2072 -1.3253  0.7400
  524MOL0     H72263  12.534  11.649   8.786  0.4888  0.8571  2.2290
  524MOL0     H72264  12.394  11.466   8.981  0.6357  2.0813  2.5167
  524MOL0     H72265  12.526  11.424   8.868  1.3766  0.5277  0.0239
  524MOL0     H72266  12.646  11.432   9.066  1.0575 -0.3455  0.8297
  524MOL0     H72267  12.666  11.598   9.009  1.8211 -1.0458  1.2334
  524MOL0     H72268  12.601  11.576   9.258  0.1587  0.2609 -0.8986
  524MOL0     H72269  12.504  11.684   9.178 -0.9069  0.1016 -0.9791
  524MOL0     H72270  12.392  11.261   9.109  2.7716  1.1047 -1.2108
  524MOL0     H72271  12.499  10.976   9.149  0.0084 -3.2608 -0.0972
  524MOL0     H72272  12.344  11.040   9.113  0.9969 -2.3464 -1.1421
  524MOL0     H72273  12.356  10.940   9.256 -0.0365  0.9229 -1.2860
  524MOL0     H72274  12.424  11.044   9.853  1.1122  0.5586 -0.2119
  524MOL0     H72275  12.475  10.905  10.048  1.2793  0.8744  0.6564
  524MOL0     H72276  12.546  10.737  10.187 -2.9614 -3.7692 -0.8088
  524MOL0     H72277  12.627  10.600  10.215 -0.2826  1.0074  0.4596
  524MOL0     H72278  12.781  10.832  10.079 -0.3847  1.8510  1.3312
  524MOL0     H72279  12.777  10.810  10.255  0.4631 -0.9494  0.2230
  524MOL0     H72280  12.864  10.584  10.210 -0.6438  1.7127  2.4061
  524MOL0     H72281  12.985  10.711  10.184  1.6259 -2.7862 -0.3245
  524MOL0     H72282  12.861  10.552   9.961  1.1481 -2.5416  2.4158
  524MOL0     H72283  13.025  10.560  10.015 -1.0639 -0.9873  2.1738
  524MOL0     H72284  12.893  10.801   9.895 -1.2354 -1.7763  2.3062
  524MOL0     H72285  13.066  10.772   9.944  0.2936 -0.2698 -1.2029
  524MOL0     H72286  12.931  10.619   9.724 -1.4399  1.0987  0.3364
  524MOL0     H72287  13.100  10.600   9.785  0.3539  0.7451 -0.5237
  524MOL0     H72288  12.965  10.848   9.664  0.9083  1.7921  4.3282
  524MOL0     H72289  13.062  10.725   9.574 -0.1421  1.9081 -1.2344
  524MOL0     H72290  13.261  10.779   9.682 -0.2057  1.4308  1.9932
  524MOL0     H72291  13.176  10.901   9.781 -0.5493  0.9355  0.3200
  524MOL0     H72292  12.736  10.663   9.786 -0.2187 -0.6813 -0.8901
  524MOL0     H72293  12.708  10.812   9.617 -1.0840 -1.7914 -0.3122
  524MOL0     H72294  12.588  11.247   9.563  0.0579 -1.2280 -0.2488
  524MOL0     H72295  12.539  11.469   9.461 -2.0079  0.0145  2.5353
  524MOL0     H72296  11.558  10.949   7.749  2.5128  2.6692 -2.0317
  524MOL0     H72297  11.367  11.014   7.605 -1.3635 -2.2417  2.7226
  524MOL0     H72298  11.018  11.163   7.535 -1.4900 -1.6338  0.3777
  524MOL0     H72299  10.818  11.207   7.421  1.7847 -1.7214 -1.1903
  524MOL0     H72300  10.732  11.622   7.382 -1.1067  1.3712 -0.0186
  524MOL0     H72301  10.644  11.608   7.239  2.1153  0.8418  0.6670
  524MOL0     H72302  10.592  11.425   7.474  1.6836  0.7586 -1.2154
  524MOL0     H72303  10.480  11.423   7.341  1.1556 -3.0775  1.6592
  524MOL0     H72304  10.426  11.570   7.544 -2.7638  3.5220 -0.6374
  524MOL0     H72305  10.540  11.695   7.504  0.6550 -0.7270  0.1702
  524MOL0     H72306  10.275  11.606   7.366  0.6629 -1.3000  2.9034
  524MOL0     H72307  10.406  11.646   7.252 -2.3134  1.1763 -0.7103
  524MOL0     H72308  10.253  11.986   7.480 -1.1397  1.3087 -2.2155
  524MOL0     H72309  10.954  11.602   7.318  0.4134 -0.8952 -2.0886
  524MOL0     H72310  11.183  11.668   7.352  0.1563  0.7952 -0.6507
  524MOL0     H72311  11.184  11.640   7.532  1.9780 -0.7309 -0.3867
  524MOL0     H72312  11.300  11.558   7.431 -0.6244 -2.9890  1.0996
  525MOL0     O72313   3.052   2.265   3.202 -0.0851 -0.8392  0.1052
  525MOL0     C72314   3.065   2.184   3.109  0.0315 -0.8931 -0.1378
  525MOL0     O72315   2.974   2.139   3.028 -0.5011 -0.2245 -0.0792
  525MOL0     C72316   2.845   2.165   3.043  0.0197  0.5123  0.0431
  525MOL0     C72317   2.773   2.246   3.134 -0.3785 -0.8447  0.0924
  525MOL0     C72318   2.632   2.240   3.128  0.2679 -0.3316  0.5038
  525MOL0     C72319   2.556   2.166   3.036  0.7072 -0.1457 -1.5792
  525MOL0     O72320   2.421   2.160   3.039  0.7633  0.3945 -0.3210
  525MOL0     C72321   2.346   2.054   2.972 -0.5645 -0.7321 -0.1360
  525MOL0     C72322   2.194   2.086   2.993  0.7016  1.1734 -0.3046
  525MOL0     C72323   2.151   2.071   3.134 -0.4445 -0.0013 -0.0548
  525MOL0     C72324   2.173   1.931   3.190 -0.4897 -0.3199  0.1128
  525MOL0     C72325   2.129   1.914   3.343 -0.8416  0.4119 -0.2613
  525MOL0     C72326   2.199   1.795   3.419  0.8865 -0.0349  0.0277
  525MOL0     C72327   2.276   1.841   3.543 -0.2387  0.2264 -0.8856
  525MOL0     C72328   2.192   1.915   3.652  0.0984 -0.1339 -0.2447
  525MOL0     N72329   2.067   1.831   3.675  0.0338 -0.4233  0.6173
  525MOL0     C72330   2.067   1.691   3.703 -1.2340 -0.3279  0.3879
  525MOL0     C72331   1.944   1.654   3.685  0.0417  0.7039  0.3520
  525MOL0     C72332   1.893   1.510   3.691 -0.3542  0.3553  0.5702
  525MOL0     C72333   1.844   1.464   3.556 -0.3972  0.0830 -0.7704
  525MOL0     C72334   1.807   1.316   3.555  0.8384 -0.1310 -0.1278
  525MOL0     C72335   1.685   1.289   3.640 -0.2046 -0.7068  0.1349
  525MOL0     O72336   1.634   1.171   3.583 -0.5939  0.3512 -0.1344
  525MOL0     C72337   1.536   1.102   3.639 -0.1404 -0.2330  0.5714
  525MOL0     C72338   1.467   1.137   3.753 -0.0264 -0.7926 -0.4354
  525MOL0     C72339   1.362   1.067   3.815  0.4554 -0.4706  0.0604
  525MOL0     C72340   1.278   1.110   3.933 -0.3108 -0.5208  0.4106
  525MOL0     C72341   1.347   0.933   3.769 -0.5529 -0.6833 -0.2272
  525MOL0     C72342   1.252   0.833   3.815 -0.7692  0.7417  0.0937
  525MOL0     O72343   1.124   0.857   3.848 -0.1099  0.0187 -0.4385
  525MOL0     C72344   1.038   0.751   3.887 -0.5615 -0.4810 -0.2564
  525MOL0     C72345   1.004   0.747   4.026 -0.7394 -0.4110 -0.2632
  525MOL0     C72346   0.940   0.637   4.071 -0.0602  0.5319 -1.0258
  525MOL0     C72347   0.914   0.524   3.993  0.0032  0.5157 -0.3516
  525MOL0     O72348   0.852   0.420   4.056 -0.1188  0.2307 -0.2625
  525MOL0     C72349   0.900   0.293   4.011  0.0212  0.3368  0.1070
  525MOL0     C72350   0.831   0.181   4.090  0.3501 -0.4573 -0.2111
  525MOL0     C72351   0.888   0.039   4.056  0.4145 -0.5392 -0.8541
  525MOL0     C72352   1.020   0.014   4.148  0.5335 -0.4248  0.5202
  525MOL0     C72353   1.128  -0.069   4.073  0.3002  0.7181 -0.0781
  525MOL0     C72354   1.066  -0.195   4.015  0.2778  1.1177  0.0626
  525MOL0     C72355   1.157  -0.313   3.976 -0.3506 -0.1197 -0.6607
  525MOL0     C72356   1.095  -0.445   3.921  0.1482 -0.1014  0.2865
  525MOL0    Cl72357   1.202  -0.594   3.919  0.2470 -0.2594  0.5198
  525MOL0     C72358   0.932   0.534   3.857 -0.2147  0.7960 -0.3477
  525MOL0     C72359   1.004   0.636   3.804 -0.3129 -1.1220 -0.9319
  525MOL0     O72360   1.312   0.725   3.833  0.3822  0.4642 -0.0418
  525MOL0     C72361   1.411   0.908   3.647  0.1209  0.9891 -0.5027
  525MOL0     C72362   1.507   0.981   3.582 -0.8434  0.2426 -0.4521
  525MOL0     N72363   1.871   1.767   3.649 -0.3706  0.1649  0.5458
  525MOL0     N72364   1.945   1.871   3.636 -0.5861  0.6402 -0.5140
  525MOL0     C72365   2.630   2.089   2.945  0.5447 -0.1298  0.1752
  525MOL0     C72366   2.771   2.088   2.953  0.1904 -0.2169 -0.5289
  525MOL0     C72367   3.196   2.137   3.073  1.1890  0.2164 -0.3446
  525MOL0     C72368   3.208   2.010   2.995  0.0311 -0.3790  0.3570
  525MOL0     C72369   3.331   1.960   2.965  0.4016 -0.1679 -0.0215
  525MOL0     C72370   3.443   2.021   3.006 -0.5016 -0.0896 -0.1670
  525MOL0     O72371   3.558   1.957   2.967 -0.2983 -0.3451  1.0044
  525MOL0     C72372   3.684   1.989   3.025 -0.3435 -0.5464  0.0371
  525MOL0     C72373   3.818   1.923   2.978 -0.9316  0.3700 -0.1657
  525MOL0     C72374   3.848   1.964   2.836  0.0700  0.1014  0.2628
  525MOL0     C72375   3.876   2.112   2.811 -0.2621  0.2958 -0.2742
  525MOL0     C72376   3.983   2.156   2.902 -1.0919  0.3315 -0.8146
  525MOL0     C72377   4.083   2.170   2.983  0.0888  0.9848  0.2461
  525MOL0     C72378   3.432   2.129   3.090 -0.8992 -0.9547 -0.0452
  525MOL0     C72379   3.314   2.190   3.121  0.5524 -0.2881 -0.3413
  525MOL0     C72380   3.316   2.307   3.224 -0.1336  0.3037 -0.0105
  525MOL0     H72381   2.825   2.304   3.209 -0.2452  0.8547 -1.2428
  525MOL0     H72382   2.572   2.279   3.210 -0.6476 -1.8458  0.5864
  525MOL0     H72383   2.384   1.959   3.011 -1.7678 -0.1874  2.6205
  525MOL0     H72384   2.360   2.041   2.864 -0.4036 -1.5686 -0.0204
  525MOL0     H72385   2.180   2.191   2.968 -0.9845  1.3275  1.0442
  525MOL0     H72386   2.124   2.028   2.932 -0.2102 -1.6297  3.0441
  525MOL0     H72387   2.203   2.148   3.192 -0.8782  0.0135  0.3179
  525MOL0     H72388   2.043   2.088   3.144 -0.4524  0.3029 -0.6166
  525MOL0     H72389   2.134   1.851   3.126 -0.2176  0.2164 -0.7363
  525MOL0     H72390   2.281   1.916   3.183 -0.0408  1.8750  1.2750
  525MOL0     H72391   2.024   1.892   3.322 -0.0165  0.2508 -5.8445
  525MOL0     H72392   2.147   2.011   3.391 -0.3370  1.8975 -3.1847
  525MOL0     H72393   2.120   1.726   3.449  2.5214 -1.5525  1.0727
  525MOL0     H72394   2.272   1.731   3.369  1.1704 -0.0150  0.4104
  525MOL0     H72395   2.373   1.889   3.523  0.4140 -0.7787 -0.2414
  525MOL0     H72396   2.304   1.747   3.591 -1.1537  1.1524  1.6303
  525MOL0     H72397   2.261   1.906   3.736  0.1053  1.0958 -0.1008
  525MOL0     H72398   2.164   2.018   3.629  1.5549  0.3065 -0.1187
  525MOL0     H72399   2.160   1.642   3.730  0.4184  1.4491 -1.6773
  525MOL0     H72400   1.808   1.501   3.760 -0.6982  0.0604  0.1154
  525MOL0     H72401   1.964   1.436   3.728 -1.5593 -2.6625 -2.5590
  525MOL0     H72402   1.754   1.513   3.518 -1.7174 -2.3330 -0.9587
  525MOL0     H72403   1.922   1.480   3.480  0.2121 -4.1962 -1.3036
  525MOL0     H72404   1.792   1.282   3.453 -1.0885  0.0875  0.0420
  525MOL0     H72405   1.895   1.258   3.582  1.3412  0.8563  0.4252
  525MOL0     H72406   1.715   1.265   3.742 -0.8679 -1.7037  0.1125
  525MOL0     H72407   1.607   1.365   3.634  1.8159  1.5293  0.7741
  525MOL0     H72408   1.503   1.232   3.793  3.6581 -2.4983  0.7310
  525MOL0     H72409   1.172   1.088   3.918 -0.0306 -3.1147  1.7212
  525MOL0     H72410   1.281   1.216   3.958  1.8113 -0.4411  0.0664
  525MOL0     H72411   1.323   1.053   4.015 -2.5349 -3.1483 -0.0407
  525MOL0     H72412   1.022   0.834   4.089  1.0252 -2.9619  3.1113
  525MOL0     H72413   0.909   0.634   4.175  0.5625  1.2259 -0.8156
  525MOL0     H72414   0.887   0.260   3.907 -1.7042 -2.2773  1.0378
  525MOL0     H72415   1.006   0.289   4.037  0.0899 -3.0813 -0.1854
  525MOL0     H72416   0.839   0.184   4.200 -0.3309 -1.3618 -0.1326
  525MOL0     H72417   0.724   0.187   4.068  0.2147 -1.7272  0.0184
  525MOL0     H72418   0.908   0.045   3.948 -0.4410 -0.0782 -0.9956
  525MOL0     H72419   0.820  -0.042   4.084  0.5163 -0.5176 -0.5448
  525MOL0     H72420   0.991  -0.032   4.243  0.1051 -0.4024  0.4049
  525MOL0     H72421   1.067   0.109   4.176 -0.3419  0.6623 -1.4894
  525MOL0     H72422   1.172  -0.004   3.997 -2.1550  2.3644 -0.2204
  525MOL0     H72423   1.203  -0.096   4.148 -0.7512 -2.0175  0.1243
  525MOL0     H72424   1.012  -0.158   3.927  0.8616 -0.2143 -0.9016
  525MOL0     H72425   1.001  -0.240   4.090 -1.1180  0.6949 -1.3300
  525MOL0     H72426   1.223  -0.331   4.061 -0.1245  1.6265 -0.4172
  525MOL0     H72427   1.211  -0.268   3.892  0.0117 -1.2886 -1.0710
  525MOL0     H72428   1.054  -0.422   3.822  0.0432  2.0905  0.7921
  525MOL0     H72429   1.007  -0.472   3.980 -0.0852  0.8246  0.3826
  525MOL0     H72430   0.886   0.456   3.797 -3.2013  1.7723  0.5115
  525MOL0     H72431   1.031   0.632   3.700  0.8797 -4.5184 -0.6159
  525MOL0     H72432   1.403   0.811   3.598 -1.9745  0.1361  1.3445
  525MOL0     H72433   1.548   0.962   3.483  0.0437  3.5870 -0.8197
  525MOL0     H72434   2.575   2.021   2.881 -0.1903  0.6602 -0.0405
  525MOL0     H72435   2.826   2.013   2.897 -1.6079 -2.6381  0.7562
  525MOL0     H72436   3.118   1.954   2.971  0.8905 -1.2413 -1.0419
  525MOL0     H72437   3.342   1.862   2.919 -0.4894  0.5812 -1.9845
  525MOL0     H72438   3.704   2.096   3.031 -2.4492 -0.1845  1.5335
  525MOL0     H72439   3.676   1.968   3.132  3.2764 -1.2814  0.2906
  525MOL0     H72440   3.798   1.815   2.975 -2.7770  0.6713 -3.2562
  525MOL0     H72441   3.895   1.958   3.046 -1.7799  4.3071 -1.0003
  525MOL0     H72442   3.928   1.895   2.807  0.6124  0.8566 -0.0452
  525MOL0     H72443   3.759   1.934   2.778  2.1894 -1.0058 -2.6544
  525MOL0     H72444   3.790   2.178   2.824  0.1856  1.2239 -1.8121
  525MOL0     H72445   3.912   2.121   2.708  0.3034  1.3885  0.0041
  525MOL0     H72446   4.170   2.180   3.045 -0.4352  0.4856  1.0883
  525MOL0     H72447   3.519   2.177   3.134 -1.4480  2.4809 -2.4139
  525MOL0     H72448   3.285   2.409   3.199 -0.8881 -0.2043 -1.2342
  525MOL0     H72449   3.267   2.277   3.317 -3.6177  1.4458 -1.3106
  525MOL0     H72450   3.421   2.310   3.256  0.0328 -1.3713 -0.3349
  526MOL0     O72451   5.347   6.858   2.896  0.1615  0.3527 -1.5874
  526MOL0     C72452   5.277   6.793   2.968 -0.1537  0.4930  0.6015
  526MOL0     O72453   5.159   6.732   2.920  0.2735  0.1583 -0.0748
  526MOL0     C72454   5.124   6.729   2.782  0.5704 -0.1159 -0.1850
  526MOL0     C72455   5.206   6.671   2.687  0.1716  0.6156 -0.7916
  526MOL0     C72456   5.160   6.646   2.554  0.6103 -0.2589 -0.8707
  526MOL0     C72457   5.025   6.692   2.519 -0.9409  0.3684 -1.0491
  526MOL0     O72458   4.978   6.687   2.389 -0.1521  0.1655 -0.1870
  526MOL0     C72459   5.067   6.665   2.281  0.0376  0.3193  0.0696
  526MOL0     C72460   5.026   6.744   2.149 -0.4572 -1.2230 -0.5822
  526MOL0     C72461   4.909   6.670   2.094 -0.0379  0.8045  0.1701
  526MOL0     C72462   4.858   6.725   1.957  0.4245 -0.2378  0.2491
  526MOL0     C72463   4.745   6.650   1.886 -0.0946  0.2345  0.3259
  526MOL0     C72464   4.720   6.715   1.754  0.3913 -0.3195 -0.4969
  526MOL0     C72465   4.617   6.641   1.677  0.5779  1.2992  0.4459
  526MOL0     C72466   4.647   6.495   1.623 -0.2602 -0.9691 -0.9456
  526MOL0     N72467   4.736   6.487   1.513 -0.6987 -0.1724 -0.7701
  526MOL0     C72468   4.872   6.519   1.524  0.6053 -0.3225 -0.7846
  526MOL0     C72469   4.920   6.514   1.404  1.0369 -0.5862  0.5530
  526MOL0     C72470   5.064   6.551   1.390  1.3445 -0.1527 -0.0905
  526MOL0     C72471   5.133   6.492   1.267 -0.6867  1.1364 -0.1325
  526MOL0     C72472   5.164   6.344   1.295  0.1672  0.3392 -0.8147
  526MOL0     C72473   5.045   6.247   1.269  0.3871 -0.9047  0.6703
  526MOL0     O72474   5.105   6.117   1.240  0.4527  0.3375  0.1812
  526MOL0     C72475   5.012   6.014   1.233  0.5720 -0.3503 -0.6760
  526MOL0     C72476   4.876   6.021   1.192  0.0988 -0.2796 -0.4419
  526MOL0     C72477   4.796   5.904   1.175 -0.1243  0.4945  0.9238
  526MOL0     C72478   4.653   5.914   1.111 -0.0599  0.8162  0.4725
  526MOL0     C72479   4.857   5.777   1.192  0.8925 -0.5039  0.7136
  526MOL0     C72480   4.788   5.647   1.172  0.7283  0.6131 -0.8266
  526MOL0     O72481   4.650   5.631   1.213 -0.4133 -0.3159  0.0819
  526MOL0     C72482   4.597   5.502   1.194 -0.4282  0.1456  0.1515
  526MOL0     C72483   4.552   5.453   1.072 -1.2093  0.4586  0.8992
  526MOL0     C72484   4.497   5.324   1.060 -0.2700 -0.3270  1.0633
  526MOL0     C72485   4.469   5.256   1.177  0.5085  0.0751  0.0365
  526MOL0     O72486   4.404   5.131   1.185 -0.4188 -0.5710 -0.0697
  526MOL0     C72487   4.343   5.077   1.065 -0.2962 -0.7230 -0.1440
  526MOL0     C72488   4.238   4.965   1.087 -0.4312  0.8034  1.0948
  526MOL0     C72489   4.100   5.022   1.144 -0.4322  0.6714 -0.0620
  526MOL0     C72490   4.020   4.926   1.229 -1.1532 -0.6983  0.4385
  526MOL0     C72491   3.915   5.006   1.306  0.0817  0.6685  0.1230
  526MOL0     C72492   3.793   5.058   1.214  0.0207  0.2275 -1.4135
  526MOL0     C72493   3.718   4.948   1.129 -0.3096 -0.2107 -0.9943
  526MOL0     C72494   3.654   4.831   1.211  0.8857 -0.1037 -0.0016
  526MOL0    Cl72495   3.525   4.889   1.324 -0.1570 -0.0117  0.2783
  526MOL0     C72496   4.509   5.315   1.301 -0.2012  0.1255  0.2306
  526MOL0     C72497   4.568   5.437   1.315 -0.1743  0.6440 -0.2171
  526MOL0     O72498   4.856   5.549   1.134 -0.2830  0.5250 -0.2351
  526MOL0     C72499   4.992   5.775   1.234 -0.5141  0.8127  0.4155
  526MOL0     C72500   5.060   5.889   1.261 -0.5670  0.5517  0.2463
  526MOL0     N72501   4.816   6.483   1.318 -0.3226 -0.1544  0.0450
  526MOL0     N72502   4.709   6.470   1.383 -0.2421 -0.1159 -0.3858
  526MOL0     C72503   4.946   6.749   2.622 -0.5157 -1.2025  0.2545
  526MOL0     C72504   4.989   6.757   2.755 -0.5313  0.1686 -1.0120
  526MOL0     C72505   5.303   6.793   3.115 -0.1748  0.9588 -0.8034
  526MOL0     C72506   5.197   6.732   3.199 -1.4064  0.2393  0.8601
  526MOL0     C72507   5.200   6.738   3.337  0.3184 -0.2596 -0.0713
  526MOL0     C72508   5.315   6.783   3.406 -1.4883  0.7657  0.4654
  526MOL0     O72509   5.330   6.766   3.543 -0.9428  0.1097 -0.3852
  526MOL0     C72510   5.227   6.745   3.632 -0.1411 -0.1472  0.7101
  526MOL0     C72511   5.200   6.594   3.664 -0.0514 -0.2513 -0.1899
  526MOL0     C72512   5.103   6.593   3.779  0.7334  0.6651 -0.5424
  526MOL0     C72513   5.170   6.630   3.914 -0.7949 -0.2109  0.2634
  526MOL0     C72514   5.085   6.734   3.969  0.0056  0.5076 -0.3666
  526MOL0     C72515   5.036   6.836   4.007  0.2993  0.3127 -0.8990
  526MOL0     C72516   5.414   6.844   3.338 -0.1269  0.6879 -0.0934
  526MOL0     C72517   5.411   6.850   3.194 -0.3156 -0.6169  0.5561
  526MOL0     C72518   5.528   6.921   3.125 -0.2634  0.2584 -0.4952
  526MOL0     H72519   5.297   6.629   2.728 -0.5484 -1.1945 -0.9250
  526MOL0     H72520   5.211   6.590   2.477  0.0686 -0.7257 -0.8962
  526MOL0     H72521   5.087   6.562   2.249  1.6023  0.7451 -0.4285
  526MOL0     H72522   5.168   6.705   2.295  1.1184 -1.3563 -2.2877
  526MOL0     H72523   4.989   6.839   2.188  0.0063 -1.1873 -0.2281
  526MOL0     H72524   5.105   6.767   2.078  0.5029  1.2112  1.1193
  526MOL0     H72525   4.929   6.564   2.084  1.5740  0.7365  2.9991
  526MOL0     H72526   4.828   6.674   2.168  1.1874 -0.9272  1.6806
  526MOL0     H72527   4.835   6.831   1.973  1.5249  0.1089 -0.3258
  526MOL0     H72528   4.949   6.721   1.896  1.2248  1.2139  1.2850
  526MOL0     H72529   4.655   6.657   1.947  2.3314 -0.6610  4.3759
  526MOL0     H72530   4.774   6.546   1.868  0.1280  0.3534 -0.0216
  526MOL0     H72531   4.684   6.815   1.781 -1.8900 -1.3125  0.3947
  526MOL0     H72532   4.813   6.724   1.697  1.1593  2.4934  0.9919
  526MOL0     H72533   4.574   6.700   1.595 -3.1775 -0.9046  0.5795
  526MOL0     H72534   4.530   6.627   1.742 -0.9099  0.6347 -1.5560
  526MOL0     H72535   4.707   6.443   1.698  1.0329  0.7048 -0.7580
  526MOL0     H72536   4.555   6.439   1.605 -1.4233  1.5239 -3.4542
  526MOL0     H72537   4.919   6.543   1.619 -2.0953 -1.6444  1.0351
  526MOL0     H72538   5.117   6.541   1.486 -0.5748 -3.2603  0.8023
  526MOL0     H72539   5.058   6.659   1.374  2.6467 -0.1468 -0.6383
  526MOL0     H72540   5.080   6.505   1.172 -1.9475 -2.3484 -0.0590
  526MOL0     H72541   5.232   6.537   1.259 -0.9375  2.0156  1.2470
  526MOL0     H72542   5.249   6.330   1.228  0.5882  1.8582 -0.6329
  526MOL0     H72543   5.208   6.325   1.393  1.9640 -1.9227 -1.9636
  526MOL0     H72544   4.984   6.248   1.360 -2.1365  0.8026 -0.9147
  526MOL0     H72545   4.978   6.294   1.196 -0.3983  1.1656  2.6160
  526MOL0     H72546   4.830   6.119   1.179 -0.8652 -0.1454  2.8470
  526MOL0     H72547   4.609   6.011   1.133  1.6013  1.5862  0.5537
  526MOL0     H72548   4.577   5.844   1.147  0.9197 -0.5415  0.0039
  526MOL0     H72549   4.669   5.914   1.003 -1.2507  0.2307  0.2810
  526MOL0     H72550   4.585   5.506   0.983  3.6138 -2.8061  0.3482
  526MOL0     H72551   4.460   5.295   0.962 -3.8097 -0.2268  2.2476
  526MOL0     H72552   4.313   5.154   0.994  0.8695  1.1400  1.2716
  526MOL0     H72553   4.427   5.026   1.018  0.3009  2.0563 -2.3903
  526MOL0     H72554   4.227   4.906   0.996  1.9778  0.2113  1.0968
  526MOL0     H72555   4.287   4.901   1.161 -0.5555 -0.1078  0.4102
  526MOL0     H72556   4.045   5.051   1.055 -1.1258  0.2620  0.2284
  526MOL0     H72557   4.116   5.118   1.193 -1.1085  2.1493 -2.6055
  526MOL0     H72558   4.089   4.890   1.306 -0.2719 -0.0157 -0.0261
  526MOL0     H72559   3.980   4.843   1.170  1.8884 -0.6364 -1.9307
  526MOL0     H72560   3.876   4.940   1.384 -1.2310  0.1153 -0.9564
  526MOL0     H72561   3.962   5.097   1.346  0.3212  1.1381 -1.1859
  526MOL0     H72562   3.840   5.139   1.157  0.5867 -0.3757 -1.8122
  526MOL0     H72563   3.707   5.103   1.265 -0.0446  1.2392 -2.3713
  526MOL0     H72564   3.783   4.898   1.058  0.1031 -2.4712  0.8652
  526MOL0     H72565   3.645   4.999   1.065 -0.1907  1.8123  0.3736
  526MOL0     H72566   3.734   4.779   1.266 -0.5905 -1.6239  0.7881
  526MOL0     H72567   3.604   4.760   1.146 -1.5788  0.1058  1.5521
  526MOL0     H72568   4.488   5.255   1.389 -0.2030  0.7096  0.6346
  526MOL0     H72569   4.590   5.479   1.413 -2.2814 -2.5061  1.8128
  526MOL0     H72570   5.033   5.678   1.258 -0.1654  1.1270  1.1049
  526MOL0     H72571   5.163   5.871   1.293 -0.8930 -0.6949  0.6384
  526MOL0     H72572   4.847   6.775   2.587 -0.5549 -2.7942 -0.9367
  526MOL0     H72573   4.922   6.793   2.832  0.7671  1.2907 -0.3848
  526MOL0     H72574   5.105   6.695   3.155 -0.2384  0.2817 -1.7949
  526MOL0     H72575   5.122   6.690   3.395  0.0464  0.0523 -0.1813
  526MOL0     H72576   5.251   6.804   3.720 -2.3089 -0.4276  1.5728
  526MOL0     H72577   5.136   6.798   3.602  0.7495  1.6357  1.0397
  526MOL0     H72578   5.290   6.538   3.691  0.8611  1.1796 -0.1400
  526MOL0     H72579   5.148   6.538   3.585  0.6991 -2.2910  0.6860
  526MOL0     H72580   5.015   6.657   3.765  2.2835  2.7829 -0.9529
  526MOL0     H72581   5.054   6.495   3.786 -2.3687  2.2079  2.2270
  526MOL0     H72582   5.271   6.667   3.894 -1.8189  2.0755 -1.0613
  526MOL0     H72583   5.180   6.547   3.985 -0.0206  0.2081  0.6435
  526MOL0     H72584   4.983   6.925   4.033  3.4166  1.3612  2.9126
  526MOL0     H72585   5.497   6.893   3.387  1.1584  0.0461 -1.5321
  526MOL0     H72586   5.595   6.839   3.095 -1.2351 -1.3233  1.4233
  526MOL0     H72587   5.494   6.990   3.047  0.4948  0.6266 -0.5160
  526MOL0     H72588   5.581   6.975   3.204 -0.4201  0.7779 -0.7433
  527MOL0     O72589   1.978   2.192  11.441 -0.2367  1.0160  0.2850
  527MOL0     C72590   1.980   2.309  11.437 -0.0332 -0.2969  1.3039
  527MOL0     O72591   2.067   2.380  11.358  0.2825 -0.2321 -0.1198
  527MOL0     C72592   2.195   2.325  11.337  0.0512  0.2844 -0.0636
  527MOL0     C72593   2.267   2.361  11.228 -0.5766 -0.5143 -0.6524
  527MOL0     C72594   2.386   2.299  11.196 -0.5134 -0.0526  0.2524
  527MOL0     C72595   2.430   2.190  11.266 -0.3174 -0.6139 -0.4336
  527MOL0     O72596   2.542   2.133  11.210 -0.4372 -0.2279  0.3493
  527MOL0     C72597   2.611   2.041  11.296 -0.5767  0.7263  0.4126
  527MOL0     C72598   2.753   2.004  11.240  0.2842  0.0298 -0.1031
  527MOL0     C72599   2.754   1.956  11.094 -0.1428 -1.3589  0.2119
  527MOL0     C72600   2.900   1.950  11.044  0.4151  0.7789  0.3710
  527MOL0     C72601   2.904   1.886  10.902 -0.7616  0.4284  1.0470
  527MOL0     C72602   3.040   1.875  10.842 -0.0246 -0.3901  0.7384
  527MOL0     C72603   3.035   1.812  10.703 -0.4577  0.4537 -0.1565
  527MOL0     C72604   3.178   1.768  10.676 -1.1193 -0.2551  0.6174
  527MOL0     N72605   3.190   1.670  10.562  0.7810  0.8011 -1.1581
  527MOL0     C72606   3.283   1.570  10.570  0.1713 -0.5404  0.3857
  527MOL0     C72607   3.274   1.505  10.456  0.0405  1.2241 -0.0269
  527MOL0     C72608   3.352   1.388  10.412  0.1757 -0.6303  0.8880
  527MOL0     C72609   3.319   1.255  10.476  0.1597 -0.5591  0.0087
  527MOL0     C72610   3.186   1.189  10.429  0.5886 -0.5285  0.5868
  527MOL0     C72611   3.194   1.043  10.471  0.5117 -1.2758 -0.2526
  527MOL0     O72612   3.187   1.015  10.615  0.1269  0.5248  0.4430
  527MOL0     C72613   3.072   1.011  10.680 -0.4415 -0.6387  0.3369
  527MOL0     C72614   2.948   0.972  10.624 -0.2309  0.2059  0.0385
  527MOL0     C72615   2.827   0.961  10.697 -0.5519 -0.3864  0.2648
  527MOL0     C72616   2.708   0.916  10.614 -0.7249 -0.1788 -0.2245
  527MOL0     C72617   2.834   0.973  10.840 -0.4105  0.2566 -0.2775
  527MOL0     C72618   2.725   0.957  10.941 -0.6349  0.8312 -0.7059
  527MOL0     O72619   2.757   0.958  11.068  0.0419  0.1169  0.5059
  527MOL0     C72620   2.655   0.980  11.154 -0.5662  0.2395 -0.2550
  527MOL0     C72621   2.604   1.108  11.180  0.6377 -0.0984 -0.5173
  527MOL0     C72622   2.523   1.138  11.286  0.4108 -0.8981 -0.8747
  527MOL0     C72623   2.483   1.044  11.384 -0.9776 -1.1467  0.2550
  527MOL0     O72624   2.408   1.079  11.489  0.1630 -0.4226 -0.4882
  527MOL0     C72625   2.307   0.999  11.554  0.5736  0.1467 -0.0191
  527MOL0     C72626   2.171   1.050  11.507 -0.1054  0.2357 -0.1355
  527MOL0     C72627   2.065   0.990  11.599  0.7202  0.9192  1.1241
  527MOL0     C72628   2.071   0.836  11.634 -0.1742  0.6215  0.2155
  527MOL0     C72629   1.967   0.795  11.741  0.3827 -0.2510  0.1013
  527MOL0     C72630   1.830   0.868  11.720  0.5884 -1.1270  0.2364
  527MOL0     C72631   1.719   0.794  11.798 -0.2813  0.5100  0.2905
  527MOL0     C72632   1.596   0.876  11.818  0.5607 -0.4333 -0.1931
  527MOL0    Cl72633   1.660   1.026  11.897  0.2404  0.1508 -0.0731
  527MOL0     C72634   2.536   0.912  11.355 -0.5732  0.3642 -0.8643
  527MOL0     C72635   2.620   0.880  11.252 -0.0617 -1.0182  0.2356
  527MOL0     O72636   2.614   0.928  10.895 -0.4907  0.0082 -0.2549
  527MOL0     C72637   2.969   0.994  10.893  0.6163  1.3620  1.4606
  527MOL0     C72638   3.082   1.020  10.822 -0.0313 -0.4313  0.7439
  527MOL0     N72639   3.179   1.570  10.377 -0.2939 -0.2548  0.0614
  527MOL0     N72640   3.119   1.664  10.441 -0.6421 -0.0786 -0.5226
  527MOL0     C72641   2.363   2.147  11.388  0.3148  0.0389  0.4190
  527MOL0     C72642   2.242   2.219  11.424 -0.0864 -0.7150 -0.7202
  527MOL0     C72643   1.879   2.374  11.507  0.1773  1.2574  0.1018
  527MOL0     C72644   1.765   2.411  11.436 -0.2051 -0.9339  1.3669
  527MOL0     C72645   1.655   2.473  11.505  0.3996  0.3738  0.5245
  527MOL0     C72646   1.670   2.511  11.640 -0.6500 -0.1658 -0.2764
  527MOL0     O72647   1.574   2.584  11.714  0.3475  0.0961  0.6551
  527MOL0     C72648   1.448   2.620  11.651 -0.0715 -0.5242 -0.5830
  527MOL0     C72649   1.330   2.529  11.684 -0.5335  0.4656 -1.0261
  527MOL0     C72650   1.350   2.453  11.823  0.9427 -1.0674  0.3641
  527MOL0     C72651   1.223   2.384  11.855 -0.1254  0.9996  0.3207
  527MOL0     C72652   1.116   2.472  11.920  0.8055  0.3376  0.1912
  527MOL0     C72653   1.023   2.544  11.959  0.1972  0.3623  1.4253
  527MOL0     C72654   1.800   2.487  11.700  0.0185  0.8727  0.7779
  527MOL0     C72655   1.905   2.420  11.638 -0.1113  0.9041 -0.4562
  527MOL0     C72656   2.034   2.379  11.715  0.6365  0.1458  0.4316
  527MOL0     H72657   2.229   2.438  11.161 -0.2803  1.5223  1.3687
  527MOL0     H72658   2.438   2.331  11.106 -3.7178 -0.9924 -2.1324
  527MOL0     H72659   2.545   1.954  11.305 -0.2432  0.5444  1.2183
  527MOL0     H72660   2.614   2.078  11.399 -2.1222  1.3680  0.2578
  527MOL0     H72661   2.809   2.099  11.242 -1.1445  0.9185 -0.9739
  527MOL0     H72662   2.801   1.929  11.304 -0.1829 -0.5761 -0.4526
  527MOL0     H72663   2.701   1.862  11.078 -1.2912 -0.5769 -0.8648
  527MOL0     H72664   2.698   2.026  11.031  0.6286 -0.2783  0.7070
  527MOL0     H72665   2.942   2.051  11.041  0.9692  0.5237 -1.4951
  527MOL0     H72666   2.949   1.889  11.120 -0.8355  0.2765  0.8008
  527MOL0     H72667   2.835   1.941  10.838  0.3791  2.2367  1.2966
  527MOL0     H72668   2.870   1.782  10.911  1.5323 -0.3580  1.4865
  527MOL0     H72669   3.077   1.977  10.826 -3.1044  0.6866 -0.1925
  527MOL0     H72670   3.098   1.814  10.912  2.2403  3.2926  2.3865
  527MOL0     H72671   2.993   1.883  10.632 -0.7712  0.6625  0.2401
  527MOL0     H72672   2.967   1.726  10.709 -1.4889  1.2441 -0.3617
  527MOL0     H72673   3.239   1.857  10.655  0.1540 -0.1399  4.1567
  527MOL0     H72674   3.223   1.732  10.769 -0.8490 -0.7916  0.2855
  527MOL0     H72675   3.355   1.554  10.650  1.3826  0.1872 -0.5243
  527MOL0     H72676   3.459   1.408  10.415  0.9090 -3.0149 -2.6169
  527MOL0     H72677   3.340   1.367  10.305  2.3794 -1.4733  0.7647
  527MOL0     H72678   3.413   1.205  10.452  0.4756  0.5105 -1.1074
  527MOL0     H72679   3.316   1.264  10.585 -2.3705  1.1011 -0.1169
  527MOL0     H72680   3.101   1.237  10.479  0.0602 -1.5209  0.6772
  527MOL0     H72681   3.176   1.197  10.320  3.6318 -0.4396  0.2244
  527MOL0     H72682   3.110   0.994  10.421  2.6636 -2.0320 -3.3607
  527MOL0     H72683   3.292   1.005  10.443  1.9548  1.4664  0.6288
  527MOL0     H72684   2.940   0.952  10.518  0.0101 -0.0250  0.0637
  527MOL0     H72685   2.741   0.851  10.532  0.0501  0.1354 -0.1718
  527MOL0     H72686   2.653   1.000  10.571 -4.1505 -2.3403 -0.4423
  527MOL0     H72687   2.643   0.854  10.676 -0.4300 -0.4472 -0.1767
  527MOL0     H72688   2.625   1.189  11.111  2.5572 -0.1704 -0.0617
  527MOL0     H72689   2.488   1.240  11.280  2.2953 -0.1528  0.0427
  527MOL0     H72690   2.313   0.892  11.529 -0.4630  0.5230 -2.1698
  527MOL0     H72691   2.323   1.026  11.658 -0.1016  1.8692 -0.3423
  527MOL0     H72692   2.170   1.159  11.515  2.2552  0.2375  1.0084
  527MOL0     H72693   2.148   1.012  11.407 -3.5491  3.4142 -0.7660
  527MOL0     H72694   1.966   1.015  11.559  0.9916  0.9102  0.4468
  527MOL0     H72695   2.077   1.037  11.697 -0.2228  0.3142  1.5472
  527MOL0     H72696   2.168   0.807  11.673 -1.2044  0.1034  2.5255
  527MOL0     H72697   2.055   0.777  11.543 -1.9276 -0.1251  0.9700
  527MOL0     H72698   1.955   0.686  11.738 -0.4018 -0.1600 -0.5570
  527MOL0     H72699   2.001   0.824  11.841 -0.5283  2.4396 -0.2843
  527MOL0     H72700   1.812   0.881  11.612 -0.0165 -2.7876  0.1021
  527MOL0     H72701   1.847   0.970  11.755  2.5405  0.0999 -3.6704
  527MOL0     H72702   1.753   0.767  11.898  0.2369  0.0536 -0.0093
  527MOL0     H72703   1.704   0.703  11.739  0.2693  0.6430 -0.0644
  527MOL0     H72704   1.533   0.807  11.873  0.3402 -0.8025 -0.8923
  527MOL0     H72705   1.563   0.894  11.715 -0.3652 -1.5961 -0.1146
  527MOL0     H72706   2.522   0.826  11.419  1.9324  0.6654  0.1911
  527MOL0     H72707   2.658   0.781  11.229  2.1304  0.6742 -4.7620
  527MOL0     H72708   2.977   1.005  11.001 -2.0808 -0.1864  1.9021
  527MOL0     H72709   3.179   1.036  10.868 -0.0445  3.4931 -0.2203
  527MOL0     H72710   2.404   2.065  11.446  1.7362  1.1501  1.0581
  527MOL0     H72711   2.189   2.173  11.507  0.3192  1.7852  1.0046
  527MOL0     H72712   1.744   2.390  11.331 -1.5191  2.1184  0.9119
  527MOL0     H72713   1.572   2.491  11.437  0.1764 -1.6436  0.1900
  527MOL0     H72714   1.415   2.712  11.700  0.4850 -0.0417 -1.0916
  527MOL0     H72715   1.474   2.639  11.546  1.2160  1.1260 -0.0035
  527MOL0     H72716   1.329   2.445  11.614 -2.4569 -0.6621  0.2501
  527MOL0     H72717   1.246   2.597  11.670  0.5978  2.0901 -0.3417
  527MOL0     H72718   1.435   2.384  11.817  1.9563  0.2284 -0.5577
  527MOL0     H72719   1.360   2.533  11.896  0.5961  1.7685 -2.4941
  527MOL0     H72720   1.246   2.304  11.926 -3.3074 -0.0499  0.2933
  527MOL0     H72721   1.173   2.341  11.768 -0.7607  1.4081  0.4758
  527MOL0     H72722   0.935   2.591  11.998 -0.3313  0.2661  0.3713
  527MOL0     H72723   1.808   2.533  11.798 -2.7214  2.8677  0.1703
  527MOL0     H72724   2.060   2.273  11.705 -1.0223 -0.2935  0.4177
  527MOL0     H72725   2.117   2.423  11.660 -2.7683  1.9505 -3.8519
  527MOL0     H72726   2.023   2.396  11.822 -3.1942  0.9385  0.0585
  528MOL0     O72727   9.124   9.482  11.194  0.0752 -0.0266  1.4012
  528MOL0     C72728   9.159   9.395  11.116 -1.3781 -0.2470 -0.0976
  528MOL0     O72729   9.148   9.399  10.977  0.1958  0.1050 -0.1629
  528MOL0     C72730   9.082   9.493  10.913  0.5053 -0.2989  0.7100
  528MOL0     C72731   9.020   9.612  10.959 -0.8797  0.1348 -1.1886
  528MOL0     C72732   8.976   9.703  10.860  0.1191 -0.3257 -0.5910
  528MOL0     C72733   8.974   9.687  10.729 -0.3672  0.9798 -0.3112
  528MOL0     O72734   8.927   9.793  10.655  0.2298 -1.1855 -0.5939
  528MOL0     C72735   8.984   9.813  10.519  0.5744  0.1694 -0.0186
  528MOL0     C72736   8.953   9.953  10.465 -0.1413  0.4882  0.4757
  528MOL0     C72737   9.029   9.969  10.332  0.4328  0.0513  0.6649
  528MOL0     C72738   9.043  10.111  10.289 -0.2283  0.2966  0.1935
  528MOL0     C72739   9.089  10.134  10.144  0.7026 -0.6853 -0.4242
  528MOL0     C72740   9.005  10.055  10.036 -0.8051  0.2725 -0.3546
  528MOL0     C72741   9.042  10.088   9.894 -0.3204  0.9835  0.6795
  528MOL0     C72742   8.963  10.209   9.845 -0.7063 -0.5007  0.0109
  528MOL0     N72743   9.036  10.283   9.741  0.2410 -0.3826  0.8370
  528MOL0     C72744   9.029  10.248   9.605  0.2973  0.2166  0.2600
  528MOL0     C72745   9.124  10.323   9.551 -0.4673 -0.2385 -0.4881
  528MOL0     C72746   9.139  10.330   9.402  0.4363  0.6856  0.0380
  528MOL0     C72747   9.107  10.473   9.350 -1.1560  0.1926 -0.3729
  528MOL0     C72748   8.954  10.485   9.324 -0.3010  0.6216 -0.9265
  528MOL0     C72749   8.909  10.591   9.217  0.8557 -1.1986 -0.4450
  528MOL0     O72750   8.873  10.715   9.281 -0.5386 -0.1256 -0.5529
  528MOL0     C72751   8.740  10.741   9.274 -0.5020  0.2716  0.8513
  528MOL0     C72752   8.717  10.849   9.194  0.8051 -0.9520 -0.3062
  528MOL0     C72753   8.588  10.916   9.194 -0.6114 -0.0075  0.7498
  528MOL0     C72754   8.579  11.047   9.114  0.7834  0.0539 -0.0236
  528MOL0     C72755   8.482  10.853   9.258  0.2641  0.4832 -0.6301
  528MOL0     C72756   8.350  10.907   9.260 -0.1532 -0.2055 -1.2411
  528MOL0     O72757   8.329  11.041   9.275 -0.2474 -1.0283  0.0675
  528MOL0     C72758   8.207  11.101   9.260 -0.0038 -0.0466 -1.0506
  528MOL0     C72759   8.193  11.230   9.307  0.2416  0.7044  0.2518
  528MOL0     C72760   8.073  11.294   9.308  1.2557 -0.2374  0.2314
  528MOL0     C72761   7.959  11.234   9.265 -0.1322  0.6912 -1.8043
  528MOL0     O72762   7.839  11.299   9.289  0.2060 -0.4449  0.3453
  528MOL0     C72763   7.726  11.266   9.201 -0.1553 -0.4217  0.2211
  528MOL0     C72764   7.607  11.370   9.200 -0.3162 -0.7319 -0.2390
  528MOL0     C72765   7.533  11.361   9.339 -0.5978  0.3606  0.5236
  528MOL0     C72766   7.400  11.426   9.318 -0.2954 -0.0005 -0.3233
  528MOL0     C72767   7.308  11.421   9.441  1.0326 -0.8138  0.2653
  528MOL0     C72768   7.158  11.467   9.427 -0.5729  0.4888  0.2146
  528MOL0     C72769   7.155  11.598   9.351 -1.1763 -0.5627  0.0804
  528MOL0     C72770   7.026  11.682   9.359 -0.1627 -0.9252 -0.7063
  528MOL0    Cl72771   6.886  11.596   9.280  0.2130  0.4741  0.6288
  528MOL0     C72772   7.966  11.104   9.204 -0.0938  0.1081 -0.6604
  528MOL0     C72773   8.089  11.037   9.208 -0.0559 -0.0611  0.3239
  528MOL0     O72774   8.258  10.822   9.259  0.0618 -0.0826 -0.0576
  528MOL0     C72775   8.511  10.732   9.328 -0.0287 -0.2532  0.2310
  528MOL0     C72776   8.640  10.683   9.341  0.0894  0.4358  0.2497
  528MOL0     N72777   9.194  10.373   9.649 -0.6502  0.4346  0.3158
  528MOL0     N72778   9.147  10.362   9.765 -0.3965  0.4813 -0.5632
  528MOL0     C72779   9.030   9.564  10.681  0.7455 -0.5216 -0.7604
  528MOL0     C72780   9.087   9.478  10.774  0.6338 -1.0225  0.1094
  528MOL0     C72781   9.202   9.277  11.185 -0.2674  0.5301 -0.2684
  528MOL0     C72782   9.152   9.156  11.139 -0.1043  0.7341  0.5383
  528MOL0     C72783   9.195   9.034  11.198 -0.0407 -0.0231 -0.0746
  528MOL0     C72784   9.292   9.028  11.287 -0.1215 -0.0343  0.0860
  528MOL0     O72785   9.334   8.909  11.337 -0.0810 -0.0618 -0.4634
  528MOL0     C72786   9.328   8.888  11.480  0.5543  0.3016  0.0750
  528MOL0     C72787   9.325   8.733  11.514  0.2569  0.4111 -0.4664
  528MOL0     C72788   9.207   8.659  11.452 -0.5035 -0.0764 -0.4420
  528MOL0     C72789   9.079   8.666  11.538  0.7846 -0.0026  0.4812
  528MOL0     C72790   8.978   8.755  11.469 -0.5031  0.1613 -0.4660
  528MOL0     C72791   8.902   8.821  11.400 -0.4241 -0.3133  0.1675
  528MOL0     C72792   9.335   9.156  11.348 -0.8954  1.0161  0.5031
  528MOL0     C72793   9.292   9.275  11.293  0.1916 -0.3878  0.8327
  528MOL0     C72794   9.359   9.400  11.335 -0.0002  0.1232 -0.6018
  528MOL0     H72795   9.003   9.644  11.061  3.3610 -0.2193 -0.2226
  528MOL0     H72796   8.946   9.800  10.898  2.1583 -0.1523  0.7721
  528MOL0     H72797   8.937   9.741  10.452  0.3173  0.5081 -0.2095
  528MOL0     H72798   9.091   9.788  10.518  0.6489  0.4876 -0.7104
  528MOL0     H72799   8.844   9.964  10.460 -0.1583  1.3449  2.2195
  528MOL0     H72800   8.989  10.033  10.529 -1.1931  0.6934  0.8305
  528MOL0     H72801   9.133   9.935  10.337  1.1742  1.9048 -0.8798
  528MOL0     H72802   8.977   9.910  10.256 -3.2426  0.0535  2.9408
  528MOL0     H72803   8.943  10.155  10.292  0.0603  1.2178 -1.8657
  528MOL0     H72804   9.104  10.167  10.360  0.9006 -2.2900  1.4054
  528MOL0     H72805   9.196  10.115  10.133  0.6184 -0.6027 -1.5539
  528MOL0     H72806   9.079  10.241  10.127  0.6269  0.0656  3.4987
  528MOL0     H72807   9.009   9.947  10.054  2.6016  0.2815 -0.3868
  528MOL0     H72808   8.900  10.078  10.055 -0.6797 -0.1754  1.0111
  528MOL0     H72809   9.024   9.993   9.842  1.0198  1.0149  0.1364
  528MOL0     H72810   9.147  10.117   9.885 -0.4902  1.6459  0.8137
  528MOL0     H72811   8.866  10.179   9.802  0.0448 -0.9059 -1.4820
  528MOL0     H72812   8.933  10.274   9.927 -1.7915  0.3814 -1.0430
  528MOL0     H72813   8.963  10.177   9.556  0.9055  0.6703 -1.2757
  528MOL0     H72814   9.088  10.248   9.351  3.5654 -2.4608  1.5551
  528MOL0     H72815   9.244  10.309   9.379 -0.4178 -2.0812 -1.7804
  528MOL0     H72816   9.127  10.542   9.433 -2.1285 -0.4257  0.3961
  528MOL0     H72817   9.163  10.476   9.256  2.7703 -5.5295  1.3004
  528MOL0     H72818   8.927  10.388   9.282 -0.5779  0.4737 -0.4095
  528MOL0     H72819   8.904  10.502   9.420  2.0630  0.0151  0.4935
  528MOL0     H72820   8.990  10.616   9.147 -0.5247  0.9175 -1.3908
  528MOL0     H72821   8.816  10.559   9.170  0.6208 -0.3963 -0.5312
  528MOL0     H72822   8.795  10.900   9.137 -0.5255  0.7559 -0.6863
  528MOL0     H72823   8.659  11.057   9.040  1.0119  3.5805  0.5139
  528MOL0     H72824   8.586  11.140   9.172  2.3835  0.7233 -1.2311
  528MOL0     H72825   8.484  11.043   9.060  1.5128  1.6457 -1.5241
  528MOL0     H72826   8.292  11.266   9.331  0.4995 -0.7951  1.6046
  528MOL0     H72827   8.062  11.391   9.356 -1.1298  0.0970 -0.8103
  528MOL0     H72828   7.770  11.276   9.102 -1.1511  0.1358 -0.1777
  528MOL0     H72829   7.692  11.166   9.232 -1.8051  0.8531  2.9073
  528MOL0     H72830   7.654  11.469   9.200  2.2587 -1.8640  0.9208
  528MOL0     H72831   7.542  11.354   9.114 -0.5520 -0.4292 -0.1154
  528MOL0     H72832   7.586  11.428   9.408 -0.5996  2.0321 -1.0094
  528MOL0     H72833   7.524  11.256   9.369  0.7990  0.0580 -0.0244
  528MOL0     H72834   7.349  11.379   9.234 -3.0997  0.0065  1.2593
  528MOL0     H72835   7.415  11.528   9.283 -2.3793 -0.1638 -1.8966
  528MOL0     H72836   7.307  11.319   9.481  0.5671 -1.7382 -1.9615
  528MOL0     H72837   7.364  11.482   9.512 -0.2984 -0.3242  0.9317
  528MOL0     H72838   7.106  11.476   9.523 -0.8060 -2.1140  0.3934
  528MOL0     H72839   7.103  11.396   9.365  2.1392 -0.6419 -1.0718
  528MOL0     H72840   7.191  11.576   9.250  1.3897 -1.0208  1.0046
  528MOL0     H72841   7.234  11.658   9.397 -2.0190  0.0822  0.7202
  528MOL0     H72842   7.043  11.784   9.323 -1.0353 -0.0329  1.2743
  528MOL0     H72843   7.002  11.693   9.465  0.1702 -3.9800 -0.2194
  528MOL0     H72844   7.876  11.057   9.166 -1.2126  0.8160  0.9902
  528MOL0     H72845   8.112  10.939   9.168  0.0747 -0.1058  0.5076
  528MOL0     H72846   8.427  10.690   9.382  0.8208 -0.7438  1.2088
  528MOL0     H72847   8.649  10.589   9.394  0.5889  1.0841  1.3335
  528MOL0     H72848   9.044   9.535  10.577 -0.5019 -0.8873 -0.8362
  528MOL0     H72849   9.149   9.399  10.732  1.2722 -1.7984  2.3699
  528MOL0     H72850   9.067   9.156  11.071 -3.1438 -0.2191  3.9861
  528MOL0     H72851   9.148   8.943  11.163  1.1284 -0.4852 -0.5116
  528MOL0     H72852   9.421   8.926  11.523  0.8648  2.5186 -2.3148
  528MOL0     H72853   9.234   8.928  11.520  0.3261 -1.0818  1.0173
  528MOL0     H72854   9.324   8.729  11.623  0.1843  0.6791 -0.4567
  528MOL0     H72855   9.411   8.685  11.467 -0.0736 -2.3118  1.4743
  528MOL0     H72856   9.187   8.696  11.351  2.0720  0.7880 -0.7124
  528MOL0     H72857   9.235   8.553  11.448 -1.0639 -0.3978  2.0626
  528MOL0     H72858   9.096   8.710  11.637 -1.7679  2.1260  0.0994
  528MOL0     H72859   9.028   8.571  11.558  0.2863  0.0748 -0.3534
  528MOL0     H72860   8.834   8.869  11.332  0.6638  4.9734  2.3658
  528MOL0     H72861   9.404   9.161  11.432 -0.9269 -0.0929  0.6180
  528MOL0     H72862   9.312   9.448  11.422  2.2824 -0.3745  0.9876
  528MOL0     H72863   9.461   9.380  11.369 -1.2994 -2.4482  2.3076
  528MOL0     H72864   9.358   9.481  11.261  1.4132  1.2546  0.5666
  529MOL0     O72865   1.691   2.934   0.715 -0.0904  0.4427 -0.4905
  529MOL0     C72866   1.720   2.827   0.655  0.4811 -0.5768 -0.7600
  529MOL0     O72867   1.627   2.744   0.590  0.2745 -0.9861  0.2255
  529MOL0     C72868   1.488   2.774   0.598 -0.8316  0.6621  0.2756
  529MOL0     C72869   1.409   2.786   0.478  0.4742  0.2757 -1.1571
  529MOL0     C72870   1.271   2.817   0.498  1.0605 -0.2741  0.1630
  529MOL0     C72871   1.212   2.827   0.625 -0.2536 -0.4866 -0.0459
  529MOL0     O72872   1.072   2.848   0.606 -0.3761  0.8156  0.4405
  529MOL0     C72873   0.988   2.821   0.713 -0.1427  0.7885 -0.9057
  529MOL0     C72874   0.849   2.817   0.659 -0.2786  0.5972 -1.6074
  529MOL0     C72875   0.746   2.774   0.768 -0.2778  0.7919 -0.4093
  529MOL0     C72876   0.610   2.745   0.706  0.2289 -0.4416  0.7546
  529MOL0     C72877   0.489   2.754   0.815 -0.0375  0.1400  0.3133
  529MOL0     C72878   0.355   2.790   0.741 -0.6635 -0.2365  0.3822
  529MOL0     C72879   0.234   2.837   0.838 -1.0535  0.4639  0.5677
  529MOL0     C72880   0.091   2.853   0.780 -0.2298  0.4520  0.3103
  529MOL0     N72881  -0.009   2.861   0.885 -0.0636  1.0191 -0.5279
  529MOL0     C72882  -0.150   2.862   0.862 -0.6530  0.9753 -0.7126
  529MOL0     C72883  -0.202   2.869   0.985  0.0805  0.4454  0.3320
  529MOL0     C72884  -0.351   2.874   1.019 -0.2046  0.1707  0.5297
  529MOL0     C72885  -0.441   2.824   0.902  0.0387 -0.4741  1.0026
  529MOL0     C72886  -0.586   2.843   0.929  0.2684  0.4157  0.5417
  529MOL0     C72887  -0.642   2.760   1.046 -0.2185 -0.9707 -0.4013
  529MOL0     O72888  -0.659   2.623   1.007  0.5356  0.2231 -0.5026
  529MOL0     C72889  -0.784   2.559   1.018 -0.6041 -0.0557 -0.1103
  529MOL0     C72890  -0.902   2.606   1.082  0.2842  0.3951 -0.2386
  529MOL0     C72891  -1.009   2.531   1.074  0.9351 -0.0488  0.1142
  529MOL0     C72892  -1.127   2.605   1.135  0.6477  1.0333  0.1613
  529MOL0     C72893  -1.011   2.414   0.999  0.3625 -0.4026 -0.4593
  529MOL0     C72894  -1.139   2.341   0.979 -0.9936 -0.1807  0.1538
  529MOL0     O72895  -1.234   2.350   1.079  0.1266  0.7205 -0.3639
  529MOL0     C72896  -1.366   2.319   1.046  0.6174  0.4776 -0.6617
  529MOL0     C72897  -1.407   2.191   1.003 -0.8161 -0.7195 -0.5373
  529MOL0     C72898  -1.539   2.166   0.967  0.8259  0.0999  0.1094
  529MOL0     C72899  -1.637   2.266   0.975  0.7428  0.6146 -0.2148
  529MOL0     O72900  -1.764   2.260   0.920 -0.6488  0.5928  0.1682
  529MOL0     C72901  -1.836   2.136   0.946 -0.3396 -0.1001 -0.3270
  529MOL0     C72902  -1.938   2.163   1.054  0.4100  0.3396  0.4391
  529MOL0     C72903  -2.063   2.243   0.992  0.3391  0.1867 -0.1688
  529MOL0     C72904  -2.042   2.394   0.975 -0.1722  0.4338  0.3728
  529MOL0     C72905  -2.154   2.463   0.895 -0.2653  0.7923 -0.3636
  529MOL0     C72906  -2.294   2.434   0.948 -0.1355  0.2539 -0.2175
  529MOL0     C72907  -2.411   2.491   0.861 -0.1467 -0.0076 -0.2626
  529MOL0     C72908  -2.540   2.435   0.916 -0.3911  0.2173  0.0450
  529MOL0    Cl72909  -2.585   2.496   1.082 -0.5540 -0.0907  0.3770
  529MOL0     C72910  -1.599   2.392   1.031  0.4620 -0.5425  0.3148
  529MOL0     C72911  -1.462   2.419   1.058  0.7840 -0.3523 -0.7142
  529MOL0     O72912  -1.144   2.282   0.872 -0.3378 -0.4044 -0.3044
  529MOL0     C72913  -0.899   2.356   0.955 -0.1036  0.0976 -0.4526
  529MOL0     C72914  -0.781   2.428   0.957  2.0013 -0.0937 -0.0326
  529MOL0     N72915  -0.104   2.872   1.078 -0.2704 -0.3169  0.6673
  529MOL0     N72916   0.008   2.878   1.017 -1.3614 -0.8294 -0.5421
  529MOL0     C72917   1.288   2.813   0.742  0.2393 -0.5039 -0.0474
  529MOL0     C72918   1.428   2.787   0.726 -0.2373  0.6721  0.4096
  529MOL0     C72919   1.857   2.780   0.661  0.6675 -1.0620  1.3332
  529MOL0     C72920   1.897   2.669   0.585 -0.1862  0.5947  0.2584
  529MOL0     C72921   2.032   2.630   0.583  1.0821 -0.0467  0.4780
  529MOL0     C72922   2.127   2.694   0.661 -0.0704  1.6033 -0.9358
  529MOL0     O72923   2.251   2.643   0.653 -0.4232  0.0435 -1.0153
  529MOL0     C72924   2.278   2.567   0.770  0.7257 -0.2385 -0.2594
  529MOL0     C72925   2.220   2.420   0.761 -0.8154 -0.4022 -0.3828
  529MOL0     C72926   2.242   2.339   0.889  0.2972  0.1421 -0.8007
  529MOL0     C72927   2.186   2.201   0.879 -1.1672  0.8909 -0.2911
  529MOL0     C72928   2.041   2.184   0.880 -0.0679  0.4787  0.2847
  529MOL0     C72929   1.927   2.170   0.898  0.4158  1.2980  0.0164
  529MOL0     C72930   2.085   2.796   0.746  0.5123  0.3518  0.6389
  529MOL0     C72931   1.953   2.836   0.748  0.0320 -0.1087 -0.0986
  529MOL0     C72932   1.925   2.936   0.855 -0.4006 -0.1879  1.4045
  529MOL0     H72933   1.456   2.774   0.381 -0.5027  1.5214 -1.8289
  529MOL0     H72934   1.203   2.809   0.414 -0.8027 -3.0929  1.7588
  529MOL0     H72935   1.002   2.890   0.797 -0.3981  0.7783 -0.8548
  529MOL0     H72936   1.017   2.723   0.752  1.8049  1.9245  0.6876
  529MOL0     H72937   0.824   2.918   0.626  2.7488  1.9803 -0.0629
  529MOL0     H72938   0.846   2.745   0.577  0.6045  0.2826 -1.3708
  529MOL0     H72939   0.793   2.685   0.810 -0.2633 -0.1767 -2.3623
  529MOL0     H72940   0.742   2.854   0.843  0.6950 -1.8540  2.7112
  529MOL0     H72941   0.591   2.828   0.637  0.3256  1.0319  2.4097
  529MOL0     H72942   0.597   2.653   0.649  1.1049  1.9155 -3.7680
  529MOL0     H72943   0.506   2.844   0.874 -0.3447 -0.5064  1.4241
  529MOL0     H72944   0.484   2.668   0.882  2.3423 -0.2653  0.0565
  529MOL0     H72945   0.364   2.876   0.675  1.7880 -0.3098  0.5522
  529MOL0     H72946   0.338   2.706   0.673 -1.5050  1.8121 -2.0603
  529MOL0     H72947   0.263   2.928   0.891  1.1539  0.1707 -0.0056
  529MOL0     H72948   0.225   2.756   0.912  2.9037 -2.2440 -1.5332
  529MOL0     H72949   0.071   2.948   0.729 -1.9614  0.7433  1.4703
  529MOL0     H72950   0.069   2.768   0.715  3.5147 -0.1865 -0.3750
  529MOL0     H72951  -0.200   2.863   0.765  0.7426  0.8903 -1.4704
  529MOL0     H72952  -0.371   2.980   1.036  0.1584  0.5712 -1.3459
  529MOL0     H72953  -0.358   2.828   1.118  2.9236  0.7355  1.1347
  529MOL0     H72954  -0.403   2.877   0.814 -0.5189  2.3455  2.3548
  529MOL0     H72955  -0.417   2.719   0.884 -2.4743 -1.6607  3.8224
  529MOL0     H72956  -0.604   2.948   0.953  0.7573  0.2248  1.8662
  529MOL0     H72957  -0.638   2.798   0.844 -0.6023 -0.3104  1.4268
  529MOL0     H72958  -0.571   2.765   1.129  0.1028 -0.2331 -0.7126
  529MOL0     H72959  -0.729   2.813   1.086 -0.3801  0.9715 -3.0469
  529MOL0     H72960  -0.888   2.695   1.143  3.1415  1.1026 -1.7009
  529MOL0     H72961  -1.151   2.569   1.236 -2.1455  2.7165  0.1932
  529MOL0     H72962  -1.221   2.597   1.079  0.0666  1.4385  1.0504
  529MOL0     H72963  -1.120   2.714   1.128  1.4804  0.8623 -3.3078
  529MOL0     H72964  -1.338   2.109   0.990  0.9729  0.4423  1.0476
  529MOL0     H72965  -1.552   2.070   0.918 -0.8214  0.6973 -0.6961
  529MOL0     H72966  -1.886   2.102   0.855 -1.3946  0.3804  0.0541
  529MOL0     H72967  -1.763   2.062   0.981 -3.1000 -2.0150  1.8654
  529MOL0     H72968  -1.978   2.068   1.091  0.5278  0.9813  2.3103
  529MOL0     H72969  -1.889   2.218   1.134  0.7925 -0.3978  0.7258
  529MOL0     H72970  -2.139   2.227   1.069  0.6735  0.6119  0.2522
  529MOL0     H72971  -2.097   2.211   0.892  0.2186  0.3959 -0.1962
  529MOL0     H72972  -1.956   2.400   0.909 -1.5672 -3.3238 -2.1659
  529MOL0     H72973  -2.025   2.425   1.079  1.8689 -1.7134  0.7801
  529MOL0     H72974  -2.126   2.568   0.905  1.4004  0.3804 -0.4233
  529MOL0     H72975  -2.144   2.429   0.791 -1.1367 -1.4959  0.2542
  529MOL0     H72976  -2.306   2.473   1.050 -2.5109 -1.6339  0.3103
  529MOL0     H72977  -2.300   2.325   0.954 -0.4486  0.3350  1.9136
  529MOL0     H72978  -2.389   2.458   0.758  1.6111  1.0242 -0.2561
  529MOL0     H72979  -2.425   2.598   0.872 -0.0036 -0.1328  1.2764
  529MOL0     H72980  -2.537   2.327   0.930 -2.3843  0.0784 -0.2899
  529MOL0     H72981  -2.620   2.456   0.845  1.0393  0.2128 -1.6198
  529MOL0     H72982  -1.678   2.465   1.045  0.3406 -0.6568  0.2253
  529MOL0     H72983  -1.445   2.511   1.113 -2.0912  0.3820 -0.9332
  529MOL0     H72984  -0.905   2.262   0.901 -0.2490  1.0371 -2.1656
  529MOL0     H72985  -0.695   2.387   0.905  2.6249  1.4004 -0.2429
  529MOL0     H72986   1.247   2.817   0.842 -1.2873  1.7634 -0.6907
  529MOL0     H72987   1.500   2.771   0.806  0.0270  1.6711  0.3924
  529MOL0     H72988   1.834   2.613   0.517  2.1731 -1.3413 -0.5085
  529MOL0     H72989   2.062   2.551   0.514 -1.1950  0.2812 -0.9786
  529MOL0     H72990   2.383   2.572   0.797  0.6265  3.9208 -0.0841
  529MOL0     H72991   2.244   2.612   0.863 -0.1172  1.2787 -1.2509
  529MOL0     H72992   2.284   2.372   0.687 -0.0829  0.9268 -0.6544
  529MOL0     H72993   2.116   2.416   0.727 -0.6142 -0.8215 -0.9628
  529MOL0     H72994   2.347   2.324   0.914 -0.3823 -0.6534  1.9670
  529MOL0     H72995   2.184   2.393   0.965  0.4300  0.2510 -0.7758
  529MOL0     H72996   2.240   2.145   0.956 -0.1049  2.3807  0.0860
  529MOL0     H72997   2.227   2.150   0.791 -2.6230 -2.2372  0.7020
  529MOL0     H72998   1.823   2.160   0.920  0.3728  1.8346  0.0653
  529MOL0     H72999   2.150   2.829   0.827 -2.8058  1.3092  3.0965
  529MOL0     H73000   2.003   2.942   0.932  0.1831  3.0463  0.7286
  529MOL0     H73001   1.909   3.026   0.795  0.1663 -0.9254  0.0997
  529MOL0     H73002   1.834   2.905   0.908 -1.4720 -0.4196 -0.4873
  530MOL0     O73003   6.860   7.494   3.629  0.0624  0.3192 -0.1708
  530MOL0     C73004   6.820   7.566   3.541 -0.0253  0.1018  0.4779
  530MOL0     O73005   6.695   7.605   3.528  0.3539  0.0646 -0.2073
  530MOL0     C73006   6.606   7.610   3.632  0.5013 -0.0813 -0.7467
  530MOL0     C73007   6.476   7.614   3.591  0.2079  1.0532  0.1489
  530MOL0     C73008   6.362   7.633   3.669 -0.1223  0.2697 -0.3987
  530MOL0     C73009   6.381   7.639   3.806 -0.1200  0.2880  0.8693
  530MOL0     O73010   6.274   7.657   3.890  0.1262  0.0809 -0.2643
  530MOL0     C73011   6.225   7.789   3.898  0.5984 -0.1978 -0.5457
  530MOL0     C73012   6.104   7.782   3.995  0.9546 -0.6398  0.5672
  530MOL0     C73013   5.973   7.706   3.943  0.3837  0.4035 -0.8285
  530MOL0     C73014   5.840   7.744   4.005 -0.8816 -0.0762  0.5344
  530MOL0     C73015   5.807   7.887   3.971 -0.6200 -0.6033  0.3094
  530MOL0     C73016   5.660   7.905   3.990 -0.5552  0.6574 -0.3168
  530MOL0     C73017   5.616   7.930   4.127 -0.5922 -0.0712  0.1240
  530MOL0     C73018   5.492   8.027   4.135  0.6205  0.1521  0.5640
  530MOL0     N73019   5.514   8.115   4.248 -0.4466 -0.1838 -0.5478
  530MOL0     C73020   5.467   8.097   4.373 -1.1080 -0.2990  0.0157
  530MOL0     C73021   5.486   8.211   4.439 -0.2480 -1.0767 -0.9689
  530MOL0     C73022   5.415   8.241   4.573 -0.4351  0.0353  0.5774
  530MOL0     C73023   5.291   8.340   4.559 -0.4159  0.1153 -0.1753
  530MOL0     C73024   5.227   8.361   4.693  0.2635  0.6515 -0.5079
  530MOL0     C73025   5.141   8.489   4.673  0.3605  0.3544 -0.1764
  530MOL0     O73026   5.051   8.510   4.785  0.2313  0.1059 -0.5330
  530MOL0     C73027   5.089   8.558   4.910  0.3296  0.4020 -0.7200
  530MOL0     C73028   4.995   8.559   5.010 -0.0820  0.2231  0.5984
  530MOL0     C73029   5.017   8.588   5.141  0.2991 -0.8222 -0.5229
  530MOL0     C73030   4.908   8.551   5.231 -0.4979  0.0452  0.4327
  530MOL0     C73031   5.150   8.630   5.179  0.3581 -0.2075 -0.2291
  530MOL0     C73032   5.190   8.658   5.322  0.3092  0.4036  0.8289
  530MOL0     O73033   5.318   8.678   5.346  0.0593  0.3260  0.4897
  530MOL0     C73034   5.366   8.676   5.479  0.2416 -0.5866  1.0802
  530MOL0     C73035   5.447   8.780   5.518 -0.0831  0.2907 -0.0300
  530MOL0     C73036   5.516   8.779   5.637 -0.5316  0.2593 -0.1421
  530MOL0     C73037   5.490   8.686   5.734 -0.7309 -0.7137 -0.0538
  530MOL0     O73038   5.516   8.692   5.868  0.6223  0.4333  0.7960
  530MOL0     C73039   5.565   8.818   5.912 -0.6863  0.3175 -0.0867
  530MOL0     C73040   5.451   8.913   5.962  0.2289  0.1434 -0.2392
  530MOL0     C73041   5.335   8.941   5.863  0.4455  1.0540  0.7390
  530MOL0     C73042   5.225   9.024   5.923  0.5626 -0.2334 -0.2923
  530MOL0     C73043   5.104   9.020   5.839  0.2453 -0.1123  0.3750
  530MOL0     C73044   5.095   9.139   5.746 -0.2377  0.4236  0.7983
  530MOL0     C73045   5.027   9.101   5.602 -0.7324  0.0238 -0.2451
  530MOL0     C73046   5.124   9.037   5.490  0.0403  0.2080 -0.0223
  530MOL0    Cl73047   5.182   9.164   5.378 -0.0441  0.3552  0.0271
  530MOL0     C73048   5.400   8.578   5.693 -0.3117 -1.0844 -0.4281
  530MOL0     C73049   5.345   8.578   5.569  0.2368  0.9813 -0.0551
  530MOL0     O73050   5.098   8.667   5.402  0.1450  0.1550 -0.2372
  530MOL0     C73051   5.239   8.655   5.073 -0.6982  0.2342  0.7486
  530MOL0     C73052   5.212   8.607   4.942  0.4531  0.8000 -0.9421
  530MOL0     N73053   5.553   8.301   4.357  0.2536 -0.3373 -0.2005
  530MOL0     N73054   5.578   8.242   4.237 -0.0422 -0.0422 -1.1218
  530MOL0     C73055   6.512   7.626   3.858 -0.1646  0.0599  0.3062
  530MOL0     C73056   6.629   7.619   3.779  0.8650  0.0287 -0.1036
  530MOL0     C73057   6.922   7.604   3.440 -0.8557  0.2254 -1.6079
  530MOL0     C73058   6.892   7.584   3.306 -0.1797  0.1784  0.1521
  530MOL0     C73059   6.987   7.601   3.202  0.6666  0.0940 -0.0911
  530MOL0     C73060   7.114   7.643   3.245  0.2046  0.2617  0.3091
  530MOL0     O73061   7.220   7.639   3.151  0.2365  0.1244 -0.0715
  530MOL0     C73062   7.338   7.722   3.166 -0.2562  0.6151 -0.1675
  530MOL0     C73063   7.388   7.740   3.022  0.4005 -0.3656 -0.1542
  530MOL0     C73064   7.531   7.791   3.020  0.5350 -0.0530 -0.2852
  530MOL0     C73065   7.531   7.935   3.050  0.4669 -0.7656 -0.3114
  530MOL0     C73066   7.653   8.007   2.995  0.0339 -0.2053 -0.2372
  530MOL0     C73067   7.755   8.074   2.977 -0.1205  0.0058 -0.3766
  530MOL0     C73068   7.141   7.687   3.379 -0.0498  1.1353  0.4100
  530MOL0     C73069   7.051   7.657   3.477 -0.0680 -0.6051  0.0835
  530MOL0     C73070   7.077   7.680   3.622 -0.8282 -0.9435 -0.3055
  530MOL0     H73071   6.475   7.607   3.482 -2.6719  2.1714  0.0312
  530MOL0     H73072   6.264   7.662   3.631  0.1676  4.3894  1.5187
  530MOL0     H73073   6.193   7.838   3.805  1.1406 -2.7476 -2.1816
  530MOL0     H73074   6.300   7.853   3.945  2.1525 -0.4012 -2.6058
  530MOL0     H73075   6.140   7.730   4.085  0.2752 -2.5408 -0.2122
  530MOL0     H73076   6.081   7.886   4.018  1.2602 -0.0763 -1.4435
  530MOL0     H73077   5.949   7.710   3.836 -3.2815 -2.9751 -0.3405
  530MOL0     H73078   5.990   7.599   3.959  1.4628 -0.3074 -5.1933
  530MOL0     H73079   5.766   7.677   3.959  0.8697 -1.3170 -0.5958
  530MOL0     H73080   5.836   7.726   4.113  0.4800 -0.5298  0.5322
  530MOL0     H73081   5.833   7.917   3.869 -0.2711  1.4270  0.9446
  530MOL0     H73082   5.861   7.957   4.036 -1.0231  0.4173 -0.4266
  530MOL0     H73083   5.624   7.987   3.927 -1.2516  0.1301 -0.6337
  530MOL0     H73084   5.612   7.812   3.958  2.7948 -0.4627 -2.5369
  530MOL0     H73085   5.694   7.971   4.192  1.7955 -2.1784 -1.2042
  530MOL0     H73086   5.597   7.831   4.169  1.0765 -1.7219 -2.6131
  530MOL0     H73087   5.476   8.093   4.050  1.3569  0.1068  0.3832
  530MOL0     H73088   5.400   7.972   4.154 -0.9915  2.2348 -0.7501
  530MOL0     H73089   5.420   8.013   4.423  0.4333 -0.4581  1.2453
  530MOL0     H73090   5.481   8.279   4.651  1.1034 -0.0883 -0.6205
  530MOL0     H73091   5.379   8.144   4.609  0.7802 -0.1327  1.4014
  530MOL0     H73092   5.321   8.433   4.510 -1.4867  0.3780 -0.3557
  530MOL0     H73093   5.219   8.294   4.491  0.3864 -0.6286 -0.5422
  530MOL0     H73094   5.174   8.273   4.732  0.0977  1.0309  0.1325
  530MOL0     H73095   5.302   8.387   4.769  0.3031  0.0534 -0.3318
  530MOL0     H73096   5.204   8.576   4.653 -1.4034  0.9759 -3.8518
  530MOL0     H73097   5.071   8.460   4.594 -0.9053 -1.4398  1.4745
  530MOL0     H73098   4.905   8.504   4.985  0.8752 -0.9974 -0.2789
  530MOL0     H73099   4.866   8.632   5.291 -0.9152 -0.3396  0.6727
  530MOL0     H73100   4.949   8.481   5.305  2.1972  1.3634  0.3159
  530MOL0     H73101   4.829   8.505   5.171  1.1007 -4.6843  1.5386
  530MOL0     H73102   5.463   8.864   5.451  2.2069  0.5406  0.7400
  530MOL0     H73103   5.576   8.868   5.648 -0.0336 -0.2785  1.9282
  530MOL0     H73104   5.637   8.813   5.994 -0.8630 -0.1996  0.0406
  530MOL0     H73105   5.618   8.868   5.831 -1.0260 -3.9083 -3.2424
  530MOL0     H73106   5.404   8.869   6.050 -2.0608 -1.8786 -2.2961
  530MOL0     H73107   5.494   9.010   5.989  1.2873 -0.5967  0.8023
  530MOL0     H73108   5.283   8.857   5.817 -3.5651  4.2345 -1.2338
  530MOL0     H73109   5.379   8.988   5.774 -0.8936  0.1834 -0.4089
  530MOL0     H73110   5.258   9.128   5.933  2.4653 -0.6196 -2.0528
  530MOL0     H73111   5.209   8.978   6.020 -0.9722 -0.4233 -0.6087
  530MOL0     H73112   5.082   8.926   5.786  0.7430  0.9846 -1.8987
  530MOL0     H73113   5.022   9.039   5.909 -1.1428  1.5793 -1.5742
  530MOL0     H73114   5.199   9.165   5.723 -0.4202  0.0552 -0.5464
  530MOL0     H73115   5.027   9.210   5.795 -2.4658 -1.3511  0.4590
  530MOL0     H73116   4.985   9.191   5.557  0.1238  1.1039  1.0435
  530MOL0     H73117   4.948   9.030   5.628 -1.3998  0.1190 -1.8998
  530MOL0     H73118   5.085   8.952   5.434  2.5385  1.1556 -3.5796
  530MOL0     H73119   5.205   8.979   5.534  0.3867 -0.6261 -1.6636
  530MOL0     H73120   5.385   8.493   5.759 -1.2168 -0.0073  0.8043
  530MOL0     H73121   5.283   8.499   5.529 -0.1151  1.7508 -1.0867
  530MOL0     H73122   5.340   8.693   5.088 -0.7060  1.0424 -1.0544
  530MOL0     H73123   5.299   8.621   4.877  1.3488  1.6340  0.3720
  530MOL0     H73124   6.521   7.647   3.964  2.3552 -0.3148  0.2340
  530MOL0     H73125   6.726   7.627   3.826 -0.0322  0.6549  1.7360
  530MOL0     H73126   6.794   7.550   3.272 -0.2616  1.7316 -1.3014
  530MOL0     H73127   6.979   7.569   3.099 -2.0417 -1.3734  0.4637
  530MOL0     H73128   7.307   7.817   3.210 -1.8280 -0.0268  0.1774
  530MOL0     H73129   7.421   7.685   3.228  0.1319  0.4021 -0.7977
  530MOL0     H73130   7.328   7.802   2.955  1.6812  1.8924  0.6773
  530MOL0     H73131   7.393   7.637   2.986 -0.1848 -1.0243  1.5330
  530MOL0     H73132   7.602   7.741   3.087  0.1429 -0.8170 -0.4350
  530MOL0     H73133   7.564   7.779   2.917  1.1005  2.8273 -0.5045
  530MOL0     H73134   7.508   7.951   3.156 -3.1558  1.0744 -1.1742
  530MOL0     H73135   7.446   7.982   2.998  0.4472  0.3831  0.7028
  530MOL0     H73136   7.840   8.138   2.962 -0.8304  0.5132 -2.5177
  530MOL0     H73137   7.240   7.726   3.400 -0.0776  0.6388  1.5556
  530MOL0     H73138   7.171   7.734   3.638 -0.5675 -0.1667 -3.6274
  530MOL0     H73139   7.000   7.749   3.657  1.2158  0.9829  0.6012
  530MOL0     H73140   7.072   7.596   3.693  0.9196  1.8880  3.5040
  531MOL0     O73141   6.051   1.033   5.912 -0.4559  0.0307  0.1221
  531MOL0     C73142   5.939   1.085   5.926 -0.6414 -0.1105  0.3637
  531MOL0     O73143   5.890   1.149   6.039  0.2483  0.0839 -0.5330
  531MOL0     C73144   5.968   1.155   6.152  0.2193 -0.1005 -1.6163
  531MOL0     C73145   5.912   1.133   6.271  0.0916  0.7123 -0.5121
  531MOL0     C73146   5.979   1.153   6.388  0.5105 -0.2458  0.1264
  531MOL0     C73147   6.114   1.180   6.394  0.0526 -0.4383 -0.1020
  531MOL0     O73148   6.151   1.212   6.522 -0.5993  0.7010  0.7374
  531MOL0     C73149   6.290   1.238   6.551 -0.2935  0.2729 -0.6100
  531MOL0     C73150   6.326   1.244   6.695 -0.1966  0.0844 -1.0392
  531MOL0     C73151   6.269   1.122   6.773 -0.3225  0.7745 -0.5093
  531MOL0     C73152   6.332   1.084   6.908  0.1915 -0.1099 -0.9312
  531MOL0     C73153   6.473   1.065   6.925 -0.2973 -0.0194  0.2445
  531MOL0     C73154   6.499   0.965   7.037 -0.4447 -0.7471  0.1433
  531MOL0     C73155   6.646   0.965   7.081 -0.6603 -0.2964  0.0571
  531MOL0     C73156   6.751   0.921   6.976 -0.5079 -0.1850  0.1480
  531MOL0     N73157   6.871   0.868   7.036 -0.1467  0.0307 -1.3320
  531MOL0     C73158   6.889   0.739   7.089  0.2075 -0.2583 -0.1476
  531MOL0     C73159   7.025   0.724   7.106 -0.1610  0.1096 -0.2395
  531MOL0     C73160   7.097   0.592   7.138  0.0659  0.2284 -0.1770
  531MOL0     C73161   7.141   0.539   6.998 -0.4354 -0.2226 -0.1326
  531MOL0     C73162   7.234   0.418   6.997  0.0533 -0.7221  0.4642
  531MOL0     C73163   7.144   0.288   7.013 -0.1700  0.1571  0.1075
  531MOL0     O73164   7.218   0.170   7.017 -0.7828  0.2511 -0.4094
  531MOL0     C73165   7.278   0.130   7.136  0.3913 -0.8466 -0.0575
  531MOL0     C73166   7.344   0.007   7.127  0.1267 -0.4993 -0.8163
  531MOL0     C73167   7.407  -0.047   7.233 -0.8390 -0.0831  0.1278
  531MOL0     C73168   7.447  -0.195   7.205 -0.8770 -0.8359 -0.3202
  531MOL0     C73169   7.425   0.017   7.356 -0.0840 -0.7348 -0.1676
  531MOL0     C73170   7.503  -0.038   7.469 -0.2824  0.3594 -0.7115
  531MOL0     O73171   7.502   0.038   7.581 -0.4530  0.3008 -0.2443
  531MOL0     C73172   7.620   0.060   7.644  0.1215  0.1272 -0.3326
  531MOL0     C73173   7.664   0.187   7.622 -0.7871 -1.0468 -0.5668
  531MOL0     C73174   7.784   0.232   7.686 -0.1563  0.3194  1.0948
  531MOL0     C73175   7.865   0.145   7.759 -0.7977  0.1237  0.1146
  531MOL0     O73176   7.984   0.198   7.805 -0.0112 -0.1921  0.5978
  531MOL0     C73177   8.095   0.107   7.836  0.1346 -1.1982  0.5096
  531MOL0     C73178   8.168   0.055   7.707 -0.7598  0.0798 -0.2901
  531MOL0     C73179   8.199   0.160   7.602  0.1746  0.9821  0.4047
  531MOL0     C73180   8.299   0.112   7.502 -0.1061  0.4949 -0.2910
  531MOL0     C73181   8.264  -0.020   7.424  0.2496 -0.3508 -0.1811
  531MOL0     C73182   8.134  -0.007   7.346 -0.2884 -0.5479 -0.0276
  531MOL0     C73183   8.141   0.082   7.212 -0.4314 -0.4154 -0.1641
  531MOL0     C73184   8.249   0.044   7.112 -0.4457 -0.4055 -0.8938
  531MOL0    Cl73185   8.210   0.127   6.956 -0.5471 -0.2248  0.3659
  531MOL0     C73186   7.816   0.008   7.780  0.0506 -0.1528 -0.4935
  531MOL0     C73187   7.689  -0.032   7.722 -0.1749 -0.3227 -0.2189
  531MOL0     O73188   7.584  -0.132   7.454 -0.4804  0.0758  0.0087
  531MOL0     C73189   7.354   0.138   7.361 -0.1437 -0.0878  0.5964
  531MOL0     C73190   7.286   0.200   7.252 -0.4071  0.5720 -0.6430
  531MOL0     N73191   7.087   0.844   7.075  0.1437  0.1830  0.0944
  531MOL0     N73192   7.000   0.925   7.033  0.0019 -0.0248 -0.3622
  531MOL0     C73193   6.181   1.200   6.277  0.8883 -0.1979  0.8507
  531MOL0     C73194   6.107   1.196   6.153 -0.2284  0.7769  0.4091
  531MOL0     C73195   5.855   1.081   5.803 -0.0086  0.1817  1.0637
  531MOL0     C73196   5.785   1.194   5.767  0.1754 -0.1002  0.9795
  531MOL0     C73197   5.704   1.201   5.656  0.1814 -0.5869 -1.0340
  531MOL0     C73198   5.686   1.089   5.570 -0.7572 -0.3643 -0.6047
  531MOL0     O73199   5.596   1.105   5.462  0.2889 -0.2487 -0.4374
  531MOL0     C73200   5.580   1.013   5.362 -0.2838  0.1338 -0.6713
  531MOL0     C73201   5.571   1.088   5.233  0.0275  0.4190  0.3152
  531MOL0     C73202   5.697   1.187   5.224 -0.3284 -0.8404  1.0719
  531MOL0     C73203   5.752   1.192   5.071  0.0981  0.4874 -0.3858
  531MOL0     C73204   5.881   1.265   5.069  0.2765 -0.0375  0.6779
  531MOL0     C73205   5.990   1.313   5.066 -0.1729 -0.2461 -0.0289
  531MOL0     C73206   5.767   0.979   5.588  0.3790  0.3778  0.0126
  531MOL0     C73207   5.859   0.981   5.696 -1.1960  0.3257  0.5352
  531MOL0     C73208   5.962   0.863   5.686 -0.6107 -0.5520 -0.2510
  531MOL0     H73209   5.808   1.102   6.272 -0.0907  1.1174 -2.8526
  531MOL0     H73210   5.921   1.139   6.479 -3.7585  0.9123 -2.1389
  531MOL0     H73211   6.321   1.325   6.492  0.0741 -1.1396 -2.5851
  531MOL0     H73212   6.340   1.154   6.502  0.6471  1.6209 -2.0571
  531MOL0     H73213   6.434   1.235   6.707  0.0632  2.0928 -1.5474
  531MOL0     H73214   6.283   1.335   6.738 -1.2049  0.4835 -2.7923
  531MOL0     H73215   6.167   1.141   6.806  0.1550  1.9014  0.4056
  531MOL0     H73216   6.277   1.032   6.712  0.0596  0.6229 -0.2442
  531MOL0     H73217   6.309   1.161   6.982  1.1462 -0.9057  0.2199
  531MOL0     H73218   6.282   0.989   6.932 -0.6276  0.6061  0.3098
  531MOL0     H73219   6.534   1.154   6.944  1.5832 -1.2870  0.4743
  531MOL0     H73220   6.514   1.037   6.828 -0.9881 -0.4032  0.0561
  531MOL0     H73221   6.425   0.979   7.116 -0.6011  0.4241 -0.1976
  531MOL0     H73222   6.486   0.865   6.995 -0.5824  0.6001 -3.3011
  531MOL0     H73223   6.657   0.918   7.180  1.1340  1.2882  0.6801
  531MOL0     H73224   6.669   1.070   7.104 -4.1832  0.9818 -1.5380
  531MOL0     H73225   6.701   0.845   6.915  1.5509 -2.9753  1.7252
  531MOL0     H73226   6.775   1.001   6.905 -3.0225  1.6844  1.2262
  531MOL0     H73227   6.809   0.668   7.103 -0.4471  0.7860  1.8036
  531MOL0     H73228   7.025   0.524   7.185 -1.1547  0.8733 -1.0515
  531MOL0     H73229   7.175   0.601   7.214 -0.4833 -3.5034  1.0454
  531MOL0     H73230   7.055   0.510   6.936 -0.7757 -2.1562  1.1655
  531MOL0     H73231   7.187   0.621   6.942 -3.1718  1.5016 -0.0736
  531MOL0     H73232   7.284   0.416   6.900  0.9315 -1.1211  0.9197
  531MOL0     H73233   7.307   0.427   7.077 -1.3700 -0.5406  1.7960
  531MOL0     H73234   7.086   0.305   7.105 -1.5386  2.3074 -1.0577
  531MOL0     H73235   7.055   0.276   6.950 -0.5344  0.2574  0.5948
  531MOL0     H73236   7.331  -0.039   7.030  2.5870  0.4752 -1.6855
  531MOL0     H73237   7.373  -0.249   7.146 -2.4894  0.8870  0.0571
  531MOL0     H73238   7.452  -0.244   7.303  0.8564  2.3467  1.3456
  531MOL0     H73239   7.553  -0.206   7.178 -0.2935 -0.8159  1.7625
  531MOL0     H73240   7.589   0.248   7.571 -1.9429 -1.5898  0.4359
  531MOL0     H73241   7.834   0.323   7.653 -1.2602  1.5297  2.6202
  531MOL0     H73242   8.173   0.173   7.876  1.3488 -3.0541  1.3147
  531MOL0     H73243   8.084   0.024   7.906 -4.3447 -1.5988 -0.3825
  531MOL0     H73244   8.266   0.015   7.735  0.8787  2.0414 -2.7152
  531MOL0     H73245   8.102  -0.023   7.668  1.7395 -1.7887 -1.0047
  531MOL0     H73246   8.238   0.249   7.652 -0.5708  1.1648  0.6880
  531MOL0     H73247   8.109   0.193   7.550  1.3414  1.7574 -1.1805
  531MOL0     H73248   8.390   0.087   7.557 -1.3555 -2.9161  0.4611
  531MOL0     H73249   8.321   0.200   7.440  0.3410  0.1149 -0.6839
  531MOL0     H73250   8.349  -0.039   7.357  1.3248  0.6817  0.8452
  531MOL0     H73251   8.250  -0.106   7.491 -1.7142 -0.4787 -0.7122
  531MOL0     H73252   8.050   0.021   7.411  0.7231  1.3302  0.5341
  531MOL0     H73253   8.120  -0.111   7.315 -3.4345 -0.5369  0.9923
  531MOL0     H73254   8.162   0.186   7.237 -0.5136 -0.8970  2.1204
  531MOL0     H73255   8.052   0.082   7.149  0.8517  0.5757 -2.0880
  531MOL0     H73256   8.267  -0.062   7.090  1.8636 -0.2131 -0.1779
  531MOL0     H73257   8.336   0.095   7.155 -0.5128  0.3106 -1.5861
  531MOL0     H73258   7.860  -0.067   7.845 -0.6107  0.7458  1.0511
  531MOL0     H73259   7.647  -0.132   7.728 -2.1669  0.5164  0.6596
  531MOL0     H73260   7.374   0.196   7.450  1.2533  0.5023 -0.0754
  531MOL0     H73261   7.243   0.298   7.272 -1.3185 -0.3006  2.1444
  531MOL0     H73262   6.287   1.222   6.285  0.4960  1.8237  1.0000
  531MOL0     H73263   6.163   1.210   6.061  1.6565  0.4542  1.4441
  531MOL0     H73264   5.806   1.282   5.828  0.4428  1.0093 -0.6417
  531MOL0     H73265   5.662   1.295   5.623  2.1938 -0.7363 -4.5604
  531MOL0     H73266   5.661   0.940   5.356 -0.0352  0.1997  1.2058
  531MOL0     H73267   5.485   0.961   5.381  0.6137 -1.7415 -1.1073
  531MOL0     H73268   5.478   1.145   5.231 -0.1429  0.2004  1.4802
  531MOL0     H73269   5.565   1.008   5.159  0.4483 -3.3001  3.9477
  531MOL0     H73270   5.678   1.289   5.257 -1.9831 -0.5280 -0.6233
  531MOL0     H73271   5.777   1.144   5.285  0.0483  0.2062  1.3288
  531MOL0     H73272   5.691   1.239   4.993 -0.7932 -2.2137 -1.4547
  531MOL0     H73273   5.764   1.090   5.034  3.7053 -0.3302  2.4633
  531MOL0     H73274   6.085   1.363   5.056 -1.7988  2.7630 -1.8268
  531MOL0     H73275   5.770   0.896   5.518 -2.8111  0.3731 -0.2265
  531MOL0     H73276   5.980   0.832   5.789 -0.7204 -1.3639 -0.4706
  531MOL0     H73277   5.908   0.783   5.635 -1.1183 -0.4499  0.1236
  531MOL0     H73278   6.056   0.900   5.643 -0.6795  0.3619  0.3502
  532MOL0     O73279  10.052   1.901  10.599  0.0372  0.1931  0.2083
  532MOL0     C73280  10.030   1.918  10.718  0.2254 -0.4587 -0.1240
  532MOL0     O73281   9.976   1.826  10.806 -0.2758  0.2772 -0.6575
  532MOL0     C73282   9.995   1.693  10.785  0.6313  0.1782 -0.1406
  532MOL0     C73283   9.895   1.611  10.840  0.1469 -0.3640 -0.3847
  532MOL0     C73284   9.904   1.473  10.824  0.2972 -0.0875  0.1004
  532MOL0     C73285  10.009   1.411  10.751  0.0655  0.2997  0.1136
  532MOL0     O73286  10.035   1.274  10.742  0.7514  0.1051 -0.2883
  532MOL0     C73287   9.925   1.197  10.789  0.0343 -0.1964 -0.4540
  532MOL0     C73288   9.965   1.052  10.762  0.3575  0.0822  1.1540
  532MOL0     C73289  10.110   1.018  10.796  0.0696  0.4604 -0.7268
  532MOL0     C73290  10.128   0.872  10.799 -0.3197 -0.0255 -0.9234
  532MOL0     C73291  10.278   0.842  10.832 -0.4241 -0.3599  0.1075
  532MOL0     C73292  10.316   0.692  10.801  0.4863 -0.2477  0.6536
  532MOL0     C73293  10.469   0.677  10.799  0.7779  1.0475  0.2412
  532MOL0     C73294  10.494   0.531  10.762  0.5446  0.6729  0.4805
  532MOL0     N73295  10.638   0.510  10.755  0.2520  0.4281  0.0788
  532MOL0     C73296  10.725   0.509  10.864  0.4854 -1.0520  1.1297
  532MOL0     C73297  10.845   0.471  10.811 -0.5670  0.6976  0.1395
  532MOL0     C73298  10.979   0.472  10.883 -0.0422  0.0951 -0.4775
  532MOL0     C73299  10.979   0.559  11.004 -0.7274 -0.6794 -0.2157
  532MOL0     C73300  10.945   0.705  10.989  0.2503 -0.2450 -0.2288
  532MOL0     C73301  10.951   0.785  11.115  0.2101 -1.4689  0.0066
  532MOL0     O73302  11.080   0.750  11.174  0.1060  0.7044 -0.6048
  532MOL0     C73303  11.127   0.798  11.287 -0.2400  0.3845 -0.3716
  532MOL0     C73304  11.230   0.731  11.348  0.1184  0.4651 -0.0126
  532MOL0     C73305  11.263   0.759  11.482  0.5697  0.5479 -0.1317
  532MOL0     C73306  11.374   0.681  11.550  0.7298 -1.2036  0.0991
  532MOL0     C73307  11.218   0.881  11.538 -0.8394 -0.3991 -0.3959
  532MOL0     C73308  11.259   0.939  11.669  0.2591 -0.8617  0.1035
  532MOL0     O73309  11.230   1.071  11.700 -0.3086 -0.1255  0.2764
  532MOL0     C73310  11.223   1.119  11.830  0.1527  0.4310 -1.0100
  532MOL0     C73311  11.272   1.243  11.867  0.0444  0.7004 -0.7319
  532MOL0     C73312  11.269   1.284  12.004 -0.2565  0.0148  0.7377
  532MOL0     C73313  11.214   1.202  12.100  1.0387  0.7603 -0.5124
  532MOL0     O73314  11.211   1.247  12.236 -0.1890 -0.4610  0.5682
  532MOL0     C73315  11.140   1.163  12.318 -0.9011  0.7772  1.1189
  532MOL0     C73316  11.140   1.209  12.462 -0.2084 -0.0469 -0.2970
  532MOL0     C73317  11.066   1.342  12.479  0.0315  0.6866  0.6749
  532MOL0     C73318  10.913   1.308  12.489 -1.1697  0.1654  0.0165
  532MOL0     C73319  10.811   1.417  12.516 -0.5709 -0.4540  0.3128
  532MOL0     C73320  10.813   1.542  12.421 -1.2056  0.2831  0.6239
  532MOL0     C73321  10.777   1.497  12.278  0.0546  0.6617 -0.2302
  532MOL0     C73322  10.786   1.608  12.174  0.4426  0.1018 -0.2516
  532MOL0    Cl73323  10.948   1.688  12.194  0.1122  0.6943 -0.1310
  532MOL0     C73324  11.163   1.079  12.061 -0.0925 -0.3619  0.2929
  532MOL0     C73325  11.170   1.041  11.930 -0.6202 -0.1840 -0.5542
  532MOL0     O73326  11.326   0.870  11.745 -0.1252  0.4833 -0.6769
  532MOL0     C73327  11.128   0.956  11.472  0.4670  0.4744  0.8548
  532MOL0     C73328  11.079   0.917  11.343  0.4595  0.7740 -0.2326
  532MOL0     N73329  10.825   0.430  10.684 -0.7502 -0.6165  0.1866
  532MOL0     N73330  10.699   0.452  10.648 -0.3667  0.2875 -0.3839
  532MOL0     C73331  10.107   1.494  10.706  0.7012 -0.1063  0.2066
  532MOL0     C73332  10.105   1.631  10.719 -0.3585 -0.7165 -0.8710
  532MOL0     C73333  10.050   2.060  10.762  1.0404  0.0810  0.8918
  532MOL0     C73334   9.986   2.167  10.692  0.4505 -0.3209 -0.2888
  532MOL0     C73335  10.009   2.299  10.722 -0.1340 -0.0420  0.1987
  532MOL0     C73336  10.104   2.328  10.826 -0.2866  0.3021  0.4000
  532MOL0     O73337  10.118   2.458  10.853 -0.7921 -0.2850 -0.8221
  532MOL0     C73338  10.111   2.485  10.991 -0.1166  1.0091  0.5067
  532MOL0     C73339  10.109   2.634  11.018  0.4062  0.0929  0.7134
  532MOL0     C73340   9.983   2.692  10.957 -0.4828  0.5644 -0.4239
  532MOL0     C73341   9.966   2.834  11.009 -0.4623 -0.4029 -0.1718
  532MOL0     C73342   9.901   2.833  11.136  0.5192  0.8685  0.7165
  532MOL0     C73343   9.822   2.837  11.233  0.0030  0.7872  0.6398
  532MOL0     C73344  10.172   2.225  10.888  1.0272  0.2363 -0.2645
  532MOL0     C73345  10.139   2.088  10.863  0.1858  0.3355 -0.8686
  532MOL0     C73346  10.224   1.981  10.930  0.0751  0.5698 -0.5824
  532MOL0     H73347   9.826   1.660  10.908  0.4368 -0.5908  0.0726
  532MOL0     H73348   9.832   1.417  10.882 -0.0233 -0.7123 -0.8766
  532MOL0     H73349   9.829   1.225  10.745 -0.8957 -0.6131  1.2215
  532MOL0     H73350   9.920   1.204  10.898  1.2239 -3.2741 -0.1050
  532MOL0     H73351   9.895   0.987  10.814  1.1838  0.0598  2.2829
  532MOL0     H73352   9.957   1.033  10.655  0.9925 -0.3479  1.1746
  532MOL0     H73353  10.174   1.067  10.723 -0.5108 -0.1698 -1.6798
  532MOL0     H73354  10.135   1.067  10.891  1.7507 -0.5871 -0.5902
  532MOL0     H73355  10.070   0.822  10.876  3.8632 -0.1493  2.5381
  532MOL0     H73356  10.102   0.838  10.698  2.9317  0.1734 -1.9798
  532MOL0     H73357  10.293   0.857  10.940 -2.5683  1.6049  0.2061
  532MOL0     H73358  10.333   0.904  10.761  0.8773 -1.9881 -0.3577
  532MOL0     H73359  10.266   0.622  10.869 -2.1804  2.9952  2.3100
  532MOL0     H73360  10.286   0.662  10.700  1.2153  3.0965 -0.6811
  532MOL0     H73361  10.504   0.688  10.902  0.7880  1.2205  0.2194
  532MOL0     H73362  10.519   0.752  10.736 -2.9176  3.4588 -0.1348
  532MOL0     H73363  10.462   0.456  10.835 -0.1766 -0.1877 -0.6845
  532MOL0     H73364  10.458   0.502  10.663 -1.9115  1.9168  0.9163
  532MOL0     H73365  10.708   0.549  10.963  0.1459  1.6567  0.0660
  532MOL0     H73366  11.054   0.500  10.808 -1.0435  0.0091 -1.5423
  532MOL0     H73367  11.010   0.373  10.917 -0.3367 -0.0276 -0.5689
  532MOL0     H73368  10.911   0.517  11.078  0.1817 -2.3679 -0.2599
  532MOL0     H73369  11.082   0.546  11.040 -0.8874  0.1194  0.5509
  532MOL0     H73370  11.013   0.751  10.917  1.0132 -2.8699 -1.3068
  532MOL0     H73371  10.844   0.707  10.947  0.7870 -0.7515 -1.5959
  532MOL0     H73372  10.941   0.893  11.097 -1.2509 -1.4253  0.9227
  532MOL0     H73373  10.880   0.753  11.191  0.0918  0.2819  0.6682
  532MOL0     H73374  11.291   0.649  11.311  0.2689 -0.2147  1.6679
  532MOL0     H73375  11.348   0.657  11.654  3.2502  2.2228  1.7591
  532MOL0     H73376  11.466   0.739  11.561 -0.9121  1.6099 -0.0318
  532MOL0     H73377  11.388   0.591  11.491  0.3156 -1.9335  1.0872
  532MOL0     H73378  11.308   1.308  11.788  2.7525 -0.8722 -0.9444
  532MOL0     H73379  11.324   1.374  12.028 -0.6861  0.8641 -1.2837
  532MOL0     H73380  11.039   1.136  12.285 -1.9473  0.6575  4.1551
  532MOL0     H73381  11.203   1.074  12.312 -0.1092  1.4277 -1.3240
  532MOL0     H73382  11.076   1.140  12.518 -0.9974  0.5402 -0.4491
  532MOL0     H73383  11.237   1.196  12.511 -1.2079 -5.8161  0.9182
  532MOL0     H73384  11.095   1.404  12.394  1.9797 -0.2849  0.5863
  532MOL0     H73385  11.114   1.403  12.557  0.8013  2.2719 -0.9669
  532MOL0     H73386  10.898   1.234  12.568 -0.9454 -1.7682 -1.6652
  532MOL0     H73387  10.895   1.258  12.393 -0.5894  1.7985 -0.9883
  532MOL0     H73388  10.709   1.378  12.507 -1.7460  2.7286 -2.2498
  532MOL0     H73389  10.844   1.442  12.617  1.1938 -2.4107  0.2656
  532MOL0     H73390  10.914   1.582  12.428 -0.0055 -2.5064  0.4247
  532MOL0     H73391  10.733   1.610  12.455 -0.7620 -0.6790  3.9768
  532MOL0     H73392  10.673   1.464  12.288  0.3213  0.2971  1.8577
  532MOL0     H73393  10.853   1.421  12.257  0.2187  0.4567  1.0565
  532MOL0     H73394  10.698   1.670  12.189  0.8540  2.6229 -5.8401
  532MOL0     H73395  10.777   1.563  12.075 -0.7299  1.8090 -0.9604
  532MOL0     H73396  11.108   1.011  12.125  1.0604 -2.3101 -0.6852
  532MOL0     H73397  11.136   0.939  11.909  3.2857 -1.5672 -0.8677
  532MOL0     H73398  11.088   1.042  11.523 -2.2604 -0.1191 -0.1139
  532MOL0     H73399  10.997   0.970  11.295 -1.0783 -0.2106  1.1779
  532MOL0     H73400  10.190   1.445  10.657 -0.7231 -0.2014 -2.2772
  532MOL0     H73401  10.180   1.697  10.677 -0.5127 -1.4934 -2.4125
  532MOL0     H73402   9.920   2.149  10.607  0.7474  0.7017 -0.7522
  532MOL0     H73403   9.970   2.379  10.660 -2.8712 -1.3729  0.0411
  532MOL0     H73404  10.021   2.449  11.042  0.0086 -2.2876 -1.3634
  532MOL0     H73405  10.195   2.443  11.047 -0.5741  0.1831  0.6011
  532MOL0     H73406  10.200   2.685  10.985  1.0614 -0.0259  2.2673
  532MOL0     H73407  10.103   2.666  11.122  0.9635  2.2554  0.1302
  532MOL0     H73408   9.988   2.687  10.848 -0.2279 -2.5038 -0.3563
  532MOL0     H73409   9.890   2.643  10.987 -1.2537  1.0063 -1.9891
  532MOL0     H73410   9.912   2.896  10.936  0.3415  1.4010  0.6920
  532MOL0     H73411  10.064   2.883  11.016  0.6247 -2.6593  1.2089
  532MOL0     H73412   9.776   2.821  11.328 -1.1249  0.5982  0.0824
  532MOL0     H73413  10.247   2.242  10.964  1.1220  1.6660 -0.6375
  532MOL0     H73414  10.152   1.929  10.994  0.3894  1.1439  0.2526
  532MOL0     H73415  10.264   1.915  10.853  1.7171 -0.7310  1.2674
  532MOL0     H73416  10.307   2.007  10.996 -1.0846 -1.7224  2.0033
  533MOL0     O73417   2.066   9.471   3.824  0.3661  0.0556  0.5597
  533MOL0     C73418   1.960   9.456   3.891 -0.3591 -0.4457  0.6762
  533MOL0     O73419   1.947   9.507   4.013  0.1616  0.7401 -1.2002
  533MOL0     C73420   2.051   9.583   4.073  1.2047 -0.3593  0.6603
  533MOL0     C73421   2.187   9.532   4.104  0.0190  0.6016 -0.4913
  533MOL0     C73422   2.271   9.606   4.181  0.7866 -0.7807 -0.8405
  533MOL0     C73423   2.238   9.735   4.215  0.0759 -0.9618 -0.7503
  533MOL0     O73424   2.316   9.809   4.304 -0.1409  1.0343  0.4742
  533MOL0     C73425   2.451   9.832   4.260 -0.6083  0.5612 -0.6999
  533MOL0     C73426   2.449   9.961   4.175  0.0327  0.8392  0.9190
  533MOL0     C73427   2.395  10.088   4.249  0.2853  0.6897 -0.5816
  533MOL0     C73428   2.505  10.137   4.360 -0.8667 -0.4435 -0.6800
  533MOL0     C73429   2.433  10.245   4.453 -0.7567  0.2506  0.3368
  533MOL0     C73430   2.356  10.186   4.573 -0.5468  0.4826 -0.0840
  533MOL0     C73431   2.281  10.311   4.631 -0.5115  0.1969  0.3953
  533MOL0     C73432   2.267  10.299   4.780  0.2837 -0.0802 -0.1011
  533MOL0     N73433   2.152  10.204   4.803 -0.2132  0.1954  0.5011
  533MOL0     C73434   2.160  10.079   4.788 -0.7479  0.5247  1.2023
  533MOL0     C73435   2.036  10.037   4.813 -0.6128 -0.4228  0.6690
  533MOL0     C73436   1.977   9.902   4.796 -0.7641  0.6691 -0.4142
  533MOL0     C73437   1.867   9.875   4.700 -0.1617 -0.3501 -0.4056
  533MOL0     C73438   1.884   9.944   4.553 -1.6130 -0.9271 -0.1156
  533MOL0     C73439   1.755   9.923   4.467  0.4562  0.1999  0.2918
  533MOL0     O73440   1.743   9.798   4.393 -0.6025  0.7764 -0.1506
  533MOL0     C73441   1.631   9.778   4.317  0.3338  0.2758  0.3693
  533MOL0     C73442   1.539   9.880   4.294 -0.2714 -0.4960  0.6371
  533MOL0     C73443   1.438   9.856   4.193 -0.5900 -0.0506 -0.1604
  533MOL0     C73444   1.359   9.980   4.145 -0.4181  0.6028 -1.3865
  533MOL0     C73445   1.422   9.724   4.127 -0.2667  0.0271  0.4687
  533MOL0     C73446   1.320   9.686   4.023 -0.6501  0.4679 -0.0870
  533MOL0     O73447   1.329   9.559   3.960 -1.1081  0.2777 -0.2214
  533MOL0     C73448   1.242   9.535   3.858 -1.8867 -0.0455 -0.7659
  533MOL0     C73449   1.258   9.612   3.738 -0.3013  0.2051  0.4932
  533MOL0     C73450   1.164   9.609   3.625 -0.2166 -0.3273 -0.1453
  533MOL0     C73451   1.062   9.513   3.631 -0.7108 -0.0465 -1.0782
  533MOL0     O73452   1.005   9.492   3.514  0.4153 -0.0348  0.9560
  533MOL0     C73453   0.870   9.434   3.524 -0.9502 -1.4246  1.5346
  533MOL0     C73454   0.802   9.443   3.396 -0.2253  0.7600  0.1033
  533MOL0     C73455   0.875   9.383   3.277  0.1381 -0.5021  0.2332
  533MOL0     C73456   0.786   9.310   3.175  0.1098  0.5893  0.5565
  533MOL0     C73457   0.745   9.166   3.237 -0.2106 -0.2662  0.9745
  533MOL0     C73458   0.702   9.060   3.135  1.1051  0.5023 -0.5327
  533MOL0     C73459   0.642   8.936   3.201  0.7375 -0.1233  0.5115
  533MOL0     C73460   0.559   8.853   3.103  0.1698 -1.4983  0.1685
  533MOL0    Cl73461   0.433   8.948   3.018 -0.1931  0.1514 -0.1086
  533MOL0     C73462   1.062   9.426   3.746 -0.0118 -0.1628  0.1889
  533MOL0     C73463   1.158   9.434   3.848 -0.0721 -0.0193 -1.2936
  533MOL0     O73464   1.226   9.761   4.009  0.2537  0.0703  0.0734
  533MOL0     C73465   1.517   9.626   4.161  0.5228  0.5866 -0.6343
  533MOL0     C73466   1.613   9.652   4.257 -0.6336 -0.2982 -0.1419
  533MOL0     N73467   1.956  10.142   4.852 -0.0498  0.1616  2.2005
  533MOL0     N73468   2.030  10.251   4.843  0.2750 -0.2406  0.7372
  533MOL0     C73469   2.119   9.794   4.177  0.3571  0.8514  1.1518
  533MOL0     C73470   2.015   9.715   4.099 -0.4517 -0.5618 -0.1255
  533MOL0     C73471   1.851   9.398   3.813 -0.4330 -0.6142 -0.0378
  533MOL0     C73472   1.863   9.266   3.773  0.1050 -0.3755  0.0294
  533MOL0     C73473   1.755   9.195   3.734  0.1704 -0.0153  0.1180
  533MOL0     C73474   1.632   9.263   3.712 -0.3116 -0.1560 -0.3304
  533MOL0     O73475   1.528   9.177   3.684  0.2377 -0.5666  0.4357
  533MOL0     C73476   1.395   9.227   3.642  0.3483 -0.7733  0.1872
  533MOL0     C73477   1.312   9.120   3.567  1.2436  0.1920 -0.0047
  533MOL0     C73478   1.166   9.161   3.572 -0.3737 -0.2072 -0.5731
  533MOL0     C73479   1.073   9.061   3.506  0.1355 -0.2382 -0.5776
  533MOL0     C73480   1.096   9.051   3.358 -0.5004  0.2061  0.3603
  533MOL0     C73481   1.114   9.066   3.239  0.9750  0.8593 -0.7006
  533MOL0     C73482   1.622   9.402   3.732 -0.3075  0.1076  0.0493
  533MOL0     C73483   1.729   9.463   3.792 -1.3324 -0.6556  0.2460
  533MOL0     C73484   1.705   9.615   3.809 -0.6014 -0.0748 -0.2820
  533MOL0     H73485   2.205   9.427   4.087 -0.9152  0.5483 -1.2425
  533MOL0     H73486   2.358   9.551   4.213  0.6023 -1.3415 -1.2758
  533MOL0     H73487   2.494   9.750   4.201 -1.7507  0.1730 -1.0137
  533MOL0     H73488   2.512   9.837   4.350 -1.0237 -1.2991 -0.2829
  533MOL0     H73489   2.551   9.987   4.148  0.0070 -1.6139 -1.9226
  533MOL0     H73490   2.393   9.929   4.087 -1.2782 -0.9136  2.3087
  533MOL0     H73491   2.380  10.170   4.178 -0.3157  1.3521  0.2800
  533MOL0     H73492   2.296  10.065   4.292  0.1014  1.6787 -0.4394
  533MOL0     H73493   2.538  10.054   4.424 -1.2356 -1.0797 -1.2998
  533MOL0     H73494   2.595  10.184   4.318 -2.7397  0.6960 -3.7252
  533MOL0     H73495   2.365  10.303   4.391  0.6465  0.8921 -0.6705
  533MOL0     H73496   2.514  10.312   4.485 -1.4392 -0.1800  3.2894
  533MOL0     H73497   2.283  10.112   4.542  0.9812 -0.6652 -1.1037
  533MOL0     H73498   2.430  10.140   4.640  0.2445  2.3412  0.4159
  533MOL0     H73499   2.183  10.329   4.587 -0.4703  1.0800  0.6481
  533MOL0     H73500   2.326  10.407   4.605 -0.2357  0.7265  2.6292
  533MOL0     H73501   2.363  10.267   4.822  0.1531  0.3292  0.5068
  533MOL0     H73502   2.239  10.386   4.839  0.0832  1.0896 -1.8473
  533MOL0     H73503   2.249  10.026   4.753 -1.1612 -1.4494  2.9582
  533MOL0     H73504   1.943   9.870   4.895 -0.6221 -2.5263 -1.2820
  533MOL0     H73505   2.058   9.829   4.786 -1.6944 -0.6607  1.1214
  533MOL0     H73506   1.850   9.767   4.687 -0.3025 -0.0833 -3.0898
  533MOL0     H73507   1.772   9.915   4.737  0.1650  0.7692 -0.7389
  533MOL0     H73508   1.893  10.051   4.573  0.4678 -1.6573  3.8002
  533MOL0     H73509   1.975   9.913   4.501 -2.3089  1.3382 -3.0132
  533MOL0     H73510   1.669   9.948   4.530 -1.1540  0.5873 -1.9184
  533MOL0     H73511   1.757  10.001   4.390 -0.4046  1.9252  1.9324
  533MOL0     H73512   1.551   9.984   4.320 -0.3898  0.1446 -1.6280
  533MOL0     H73513   1.396  10.072   4.191  0.6900 -1.5187  2.4848
  533MOL0     H73514   1.255   9.961   4.171  0.1626 -1.1588 -0.0876
  533MOL0     H73515   1.372   9.982   4.036 -0.1727 -2.4228 -1.5040
  533MOL0     H73516   1.331   9.691   3.748  1.7360 -1.6729  1.3839
  533MOL0     H73517   1.176   9.673   3.538  0.2276  1.3987  1.1280
  533MOL0     H73518   0.863   9.335   3.570 -1.6959 -2.7965 -1.3468
  533MOL0     H73519   0.805   9.489   3.593 -3.4730 -1.9125 -0.3078
  533MOL0     H73520   0.709   9.386   3.410  0.2288 -0.4654 -1.5289
  533MOL0     H73521   0.773   9.545   3.370 -0.3599  0.5988 -0.3984
  533MOL0     H73522   0.961   9.324   3.310  1.3448  0.2918 -1.3872
  533MOL0     H73523   0.921   9.464   3.220  0.0839 -1.5598 -1.3654
  533MOL0     H73524   0.839   9.296   3.080 -0.5625  1.8406 -0.0227
  533MOL0     H73525   0.697   9.370   3.152  0.3510  1.2520  1.3073
  533MOL0     H73526   0.830   9.114   3.281  0.4982  0.3127  0.3176
  533MOL0     H73527   0.670   9.172   3.316 -0.1659 -2.9481  1.3118
  533MOL0     H73528   0.790   9.027   3.079  2.3968  1.0730  1.1130
  533MOL0     H73529   0.630   9.106   3.066  1.9921  0.2325 -1.6850
  533MOL0     H73530   0.586   8.957   3.292 -0.7047 -1.5491  0.0019
  533MOL0     H73531   0.730   8.879   3.232  1.4744  1.1226  0.7588
  533MOL0     H73532   0.508   8.768   3.149 -3.2163 -1.5064 -3.1193
  533MOL0     H73533   0.623   8.813   3.024  1.0798  1.6828 -0.8416
  533MOL0     H73534   0.995   9.341   3.740  1.7699 -1.6129  0.0848
  533MOL0     H73535   1.160   9.357   3.924  0.0282 -0.6336 -1.9179
  533MOL0     H73536   1.532   9.526   4.123  1.4888  0.6200 -0.3791
  533MOL0     H73537   1.686   9.576   4.285 -1.7674 -2.4173 -2.5728
  533MOL0     H73538   2.100   9.901   4.184 -1.6948  0.9558 -2.9006
  533MOL0     H73539   1.917   9.755   4.074 -1.0919 -1.3187  1.0663
  533MOL0     H73540   1.954   9.208   3.786 -1.2151 -2.5449  0.0560
  533MOL0     H73541   1.764   9.088   3.723  5.1708  0.2146  0.0306
  533MOL0     H73542   1.349   9.250   3.738  0.0427 -1.6762  0.2636
  533MOL0     H73543   1.406   9.316   3.579 -1.8267 -1.5829 -1.4685
  533MOL0     H73544   1.327   9.021   3.612  0.3463 -1.3903 -2.9836
  533MOL0     H73545   1.343   9.110   3.463  3.0300 -0.1013  0.5245
  533MOL0     H73546   1.129   9.171   3.674  1.5596  0.3112  0.1224
  533MOL0     H73547   1.159   9.263   3.535 -0.0515  0.3807  0.9158
  533MOL0     H73548   0.970   9.096   3.519  1.1952  2.4891  1.3729
  533MOL0     H73549   1.080   8.962   3.553  0.1121  0.7584  1.6380
  533MOL0     H73550   1.143   9.075   3.136  1.1088 -0.2364 -0.7728
  533MOL0     H73551   1.529   9.458   3.733 -0.8623 -0.7274  2.2942
  533MOL0     H73552   1.632   9.626   3.891 -0.8826 -1.0043 -0.3963
  533MOL0     H73553   1.791   9.678   3.834  1.6588 -2.5764 -1.2997
  533MOL0     H73554   1.657   9.661   3.722  2.0191  3.6115 -0.0266
  534MOL0     O73555   1.516   3.615   8.403  0.5543  0.3340 -0.6240
  534MOL0     C73556   1.582   3.718   8.402  0.1814 -0.3851 -0.5736
  534MOL0     O73557   1.597   3.802   8.509  0.5512 -0.1779 -0.1132
  534MOL0     C73558   1.513   3.789   8.613  0.6318  0.6121 -0.8147
  534MOL0     C73559   1.372   3.804   8.610  0.0523  0.4322  0.0407
  534MOL0     C73560   1.290   3.779   8.714  0.3232  0.2679  0.2729
  534MOL0     C73561   1.337   3.773   8.840 -0.1844 -0.7475 -0.7010
  534MOL0     O73562   1.257   3.759   8.950 -0.2038 -0.3117 -0.1857
  534MOL0     C73563   1.126   3.713   8.931 -0.3204 -0.1821  1.3078
  534MOL0     C73564   1.022   3.819   8.957 -0.8882  0.1367  0.6223
  534MOL0     C73565   1.042   3.880   9.102  0.5299 -0.1540  0.0441
  534MOL0     C73566   0.935   3.983   9.134 -0.3855  0.0078 -0.0433
  534MOL0     C73567   0.930   4.057   9.271  0.3747 -0.5062  0.3211
  534MOL0     C73568   1.033   4.177   9.287  0.0012  0.7243 -0.9086
  534MOL0     C73569   0.981   4.306   9.232 -0.1825 -0.3366 -0.1911
  534MOL0     C73570   1.076   4.424   9.258  0.3035 -0.5252 -0.1984
  534MOL0     N73571   1.194   4.439   9.165  0.0449 -0.8174  0.1791
  534MOL0     C73572   1.327   4.448   9.202  0.7433  0.3428 -0.0706
  534MOL0     C73573   1.397   4.492   9.084  0.3985  0.0286 -0.2302
  534MOL0     C73574   1.542   4.482   9.063 -1.0047 -0.1426 -0.1274
  534MOL0     C73575   1.612   4.621   9.073  0.1068  0.5880 -0.0311
  534MOL0     C73576   1.618   4.694   8.938  0.1199 -0.7446 -0.5765
  534MOL0     C73577   1.703   4.634   8.833  0.2492 -0.5000  0.2445
  534MOL0     O73578   1.631   4.522   8.772  0.2734  0.2264  0.3494
  534MOL0     C73579   1.673   4.465   8.659 -0.8042  0.4600  0.8361
  534MOL0     C73580   1.655   4.335   8.633 -0.2212 -0.6736  0.5598
  534MOL0     C73581   1.713   4.262   8.529 -0.1450  0.2674 -0.1249
  534MOL0     C73582   1.674   4.118   8.517 -0.5910 -0.1866  0.4897
  534MOL0     C73583   1.801   4.327   8.443 -0.3079  0.2838  0.6752
  534MOL0     C73584   1.891   4.257   8.343 -0.8999  0.4691 -0.1570
  534MOL0     O73585   1.991   4.335   8.290 -0.3337 -0.2013 -0.4006
  534MOL0     C73586   2.070   4.281   8.199 -0.7739  0.2462 -0.1533
  534MOL0     C73587   2.195   4.218   8.233 -0.0846 -0.1160  0.7038
  534MOL0     C73588   2.274   4.164   8.131  0.1802  0.2199  0.2998
  534MOL0     C73589   2.234   4.172   7.997  0.5009 -0.2316 -0.4840
  534MOL0     O73590   2.305   4.130   7.885 -0.3044 -0.1468  0.4146
  534MOL0     C73591   2.409   4.033   7.904 -0.7956 -0.5991  0.6379
  534MOL0     C73592   2.482   4.011   7.771  0.0386 -0.1321  0.0295
  534MOL0     C73593   2.584   3.891   7.777 -0.3845  0.1788 -0.0794
  534MOL0     C73594   2.617   3.844   7.630 -0.3307 -1.1755 -1.4863
  534MOL0     C73595   2.705   3.712   7.631 -0.3952 -0.0316 -0.0790
  534MOL0     C73596   2.781   3.680   7.497 -0.9066 -0.2221 -0.0179
  534MOL0     C73597   2.889   3.579   7.526  0.4609 -0.7981  0.9137
  534MOL0     C73598   2.928   3.504   7.393 -1.3323 -0.8372  0.4097
  534MOL0    Cl73599   2.805   3.390   7.350 -0.1308 -0.0460 -0.4008
  534MOL0     C73600   2.111   4.224   7.969  0.0283  0.8783  0.2485
  534MOL0     C73601   2.024   4.277   8.066 -0.0208 -0.0043 -0.7996
  534MOL0     O73602   1.866   4.141   8.303  0.4306  0.6029 -0.5581
  534MOL0     C73603   1.804   4.469   8.460 -0.4501  0.0495 -0.3872
  534MOL0     C73604   1.738   4.537   8.559  0.1370  0.7036  0.5006
  534MOL0     N73605   1.301   4.528   8.996 -0.0456  0.3187 -0.1854
  534MOL0     N73606   1.184   4.488   9.042 -0.4063  0.3822 -0.3291
  534MOL0     C73607   1.478   3.766   8.855  0.4412 -1.3068  0.3529
  534MOL0     C73608   1.566   3.780   8.750  0.2880 -0.9542  1.2264
  534MOL0     C73609   1.649   3.758   8.272  0.0409  0.9897  0.0159
  534MOL0     C73610   1.758   3.840   8.266 -0.0777 -0.3506  1.0216
  534MOL0     C73611   1.839   3.843   8.157  0.1432  0.3904 -0.0178
  534MOL0     C73612   1.820   3.766   8.045 -0.5057  0.5630  0.0486
  534MOL0     O73613   1.913   3.751   7.936  0.6124 -0.9019  0.3957
  534MOL0     C73614   2.051   3.799   7.943 -0.3390 -0.6709 -0.6130
  534MOL0     C73615   2.141   3.692   8.003 -0.3588 -0.8199 -0.2204
  534MOL0     C73616   2.143   3.572   7.909 -0.0587 -0.0257 -0.1503
  534MOL0     C73617   2.238   3.461   7.936 -0.1914  0.4897  0.6537
  534MOL0     C73618   2.376   3.501   7.915  0.8246 -0.9084  0.4393
  534MOL0     C73619   2.496   3.529   7.895  0.0496  0.6633 -0.5534
  534MOL0     C73620   1.699   3.692   8.047 -0.2293  0.1619  0.4095
  534MOL0     C73621   1.612   3.694   8.153 -0.1871 -0.9952  0.3327
  534MOL0     C73622   1.487   3.616   8.134  0.3808 -0.3138  1.3207
  534MOL0     H73623   1.322   3.816   8.514 -4.2034  0.2831  1.9863
  534MOL0     H73624   1.184   3.781   8.691  0.7410 -0.5624 -2.0647
  534MOL0     H73625   1.099   3.648   9.015  0.7374  0.2827  2.0249
  534MOL0     H73626   1.099   3.665   8.836  2.0636  1.1344 -0.1104
  534MOL0     H73627   1.027   3.894   8.878 -1.4130  1.8029  2.1181
  534MOL0     H73628   0.923   3.773   8.955  0.1411 -2.2317  0.3099
  534MOL0     H73629   1.027   3.807   9.183 -0.8382 -0.0976 -0.1488
  534MOL0     H73630   1.142   3.923   9.113  1.3851 -2.0284 -0.0040
  534MOL0     H73631   0.954   4.060   9.058  0.0094 -0.2086 -0.1678
  534MOL0     H73632   0.836   3.939   9.124 -0.3895 -0.6333  2.3172
  534MOL0     H73633   0.937   3.986   9.354 -2.2752  0.4763  1.5393
  534MOL0     H73634   0.834   4.111   9.276  1.3982  1.2980  2.8773
  534MOL0     H73635   1.028   4.193   9.396 -1.8843 -0.4480 -0.7633
  534MOL0     H73636   1.137   4.153   9.266  0.3964  0.1152  1.4110
  534MOL0     H73637   0.882   4.326   9.274 -1.0977 -2.4781 -1.1605
  534MOL0     H73638   0.969   4.301   9.123 -0.5028  2.4123 -0.3728
  534MOL0     H73639   1.021   4.518   9.246  1.2134  0.0211 -0.1972
  534MOL0     H73640   1.122   4.420   9.357 -1.3383 -0.7006  0.5912
  534MOL0     H73641   1.363   4.420   9.301 -1.0494  0.6441  0.7177
  534MOL0     H73642   1.558   4.423   8.972 -5.8957 -1.1640 -0.6516
  534MOL0     H73643   1.581   4.412   9.137 -1.1676  1.1683  1.2483
  534MOL0     H73644   1.557   4.685   9.143 -3.9881 -1.5833 -0.9397
  534MOL0     H73645   1.715   4.617   9.109 -0.3793  2.8348  1.8538
  534MOL0     H73646   1.526   4.734   8.893  0.8359  1.7848  0.0512
  534MOL0     H73647   1.661   4.788   8.973 -3.7338  1.0673 -0.1276
  534MOL0     H73648   1.737   4.716   8.770  0.4952 -1.1619 -0.4960
  534MOL0     H73649   1.798   4.597   8.872  2.1768  2.4774 -1.2668
  534MOL0     H73650   1.575   4.288   8.689 -0.4525 -0.1209  0.6971
  534MOL0     H73651   1.605   4.091   8.597 -0.0006  0.5634  1.2720
  534MOL0     H73652   1.768   4.062   8.520  1.1289  2.5604  2.4367
  534MOL0     H73653   1.622   4.099   8.422 -1.0698 -0.3788  0.7833
  534MOL0     H73654   2.221   4.226   8.338 -1.0521  1.2601  0.8759
  534MOL0     H73655   2.368   4.117   8.161  0.2929 -1.3505 -2.2816
  534MOL0     H73656   2.491   4.075   7.964 -0.8049  2.5138 -1.3179
  534MOL0     H73657   2.366   3.939   7.938 -0.9393  0.2413  2.9918
  534MOL0     H73658   2.405   3.983   7.698 -2.8286  1.8917  2.0384
  534MOL0     H73659   2.532   4.105   7.746  0.2573 -0.1465  0.4165
  534MOL0     H73660   2.532   3.810   7.829  2.4786 -2.0279 -0.4028
  534MOL0     H73661   2.666   3.931   7.837 -0.0434  0.4726 -0.7306
  534MOL0     H73662   2.669   3.933   7.592 -3.4091  1.3880 -0.1854
  534MOL0     H73663   2.526   3.836   7.570 -1.1271  1.7381 -0.8780
  534MOL0     H73664   2.780   3.726   7.710 -1.3071 -0.9477  0.9882
  534MOL0     H73665   2.638   3.629   7.655 -1.3056  0.4668 -0.8298
  534MOL0     H73666   2.826   3.770   7.454 -1.1717  2.1282  4.0716
  534MOL0     H73667   2.709   3.645   7.422 -0.0067 -2.7898  0.2127
  534MOL0     H73668   2.848   3.507   7.598 -1.7797  0.0545  0.5800
  534MOL0     H73669   2.975   3.628   7.572  0.3560 -1.6095  2.0317
  534MOL0     H73670   3.018   3.442   7.405 -0.8880 -0.6880 -1.7975
  534MOL0     H73671   2.952   3.578   7.316 -0.1669  1.4966  2.8539
  534MOL0     H73672   2.080   4.219   7.865 -0.3363  1.1509  0.3413
  534MOL0     H73673   1.922   4.313   8.055 -0.5729 -1.1565  0.2654
  534MOL0     H73674   1.867   4.526   8.393 -4.5852  2.3638 -2.7722
  534MOL0     H73675   1.759   4.644   8.568  2.0884  0.4117 -0.1318
  534MOL0     H73676   1.514   3.743   8.955  2.6662  1.0553  0.2270
  534MOL0     H73677   1.671   3.759   8.767 -0.2303 -3.3485  1.8516
  534MOL0     H73678   1.778   3.901   8.354  1.6378 -1.1042  1.1961
  534MOL0     H73679   1.917   3.918   8.169  0.7436  0.0607 -1.5957
  534MOL0     H73680   2.083   3.827   7.842 -0.7258  2.8065  0.0848
  534MOL0     H73681   2.058   3.897   7.992 -0.0528 -0.6457 -0.7065
  534MOL0     H73682   2.101   3.684   8.105 -2.2360  1.6589 -0.6736
  534MOL0     H73683   2.240   3.738   8.000 -0.0647 -1.4779 -1.2527
  534MOL0     H73684   2.044   3.525   7.911  0.1683 -0.5119  0.0358
  534MOL0     H73685   2.159   3.616   7.811  3.6990 -0.4476  0.1453
  534MOL0     H73686   2.217   3.375   7.872 -1.1952  0.2500  1.2733
  534MOL0     H73687   2.229   3.420   8.037  3.8964 -1.3747  0.4557
  534MOL0     H73688   2.603   3.528   7.900  0.1975  3.0410 -1.6439
  534MOL0     H73689   1.676   3.643   7.953 -1.4600  1.2608  0.1070
  534MOL0     H73690   1.395   3.648   8.185 -1.6990 -2.7756 -0.6162
  534MOL0     H73691   1.454   3.601   8.031 -0.5347 -1.4060  1.7483
  534MOL0     H73692   1.506   3.513   8.165  1.8604 -0.2639  0.6512
  535MOL0     O73693   7.659   8.785   2.110  0.2363 -0.2135 -0.1840
  535MOL0     C73694   7.685   8.658   2.110 -0.5941 -1.8058 -0.1483
  535MOL0     O73695   7.608   8.562   2.162 -0.6354 -0.3426 -0.2062
  535MOL0     C73696   7.472   8.580   2.157 -0.3184  1.5550 -0.6251
  535MOL0     C73697   7.412   8.646   2.267  0.5466 -0.2551  0.1757
  535MOL0     C73698   7.268   8.672   2.270  0.2605 -0.1412  0.3538
  535MOL0     C73699   7.193   8.627   2.162  0.7649 -0.5735  0.8405
  535MOL0     O73700   7.058   8.667   2.152 -0.3882  0.0916 -0.2278
  535MOL0     C73701   6.985   8.741   2.261  0.4335  0.1320  0.6639
  535MOL0     C73702   6.843   8.756   2.220 -0.5780  0.3896  0.1111
  535MOL0     C73703   6.830   8.807   2.075 -0.3279  0.8417  0.3053
  535MOL0     C73704   6.724   8.757   1.969 -0.0989 -0.0994  0.5710
  535MOL0     C73705   6.758   8.616   1.915 -0.5275 -0.6881  0.9496
  535MOL0     C73706   6.669   8.598   1.777 -0.2943  0.3213 -0.8186
  535MOL0     C73707   6.708   8.475   1.705  1.7706  0.0672  0.3706
  535MOL0     C73708   6.666   8.350   1.790  0.2825  0.5593  0.3213
  535MOL0     N73709   6.663   8.243   1.689 -0.0398 -0.8485 -0.1119
  535MOL0     C73710   6.551   8.176   1.660  0.1365 -0.5310 -0.1617
  535MOL0     C73711   6.586   8.088   1.561 -0.4945 -0.4055 -0.8928
  535MOL0     C73712   6.491   7.981   1.520  0.7006  0.0599 -0.4302
  535MOL0     C73713   6.532   7.924   1.379  0.5632 -0.5413 -0.6446
  535MOL0     C73714   6.444   7.822   1.318 -0.0944 -1.1786  0.2047
  535MOL0     C73715   6.483   7.791   1.172 -0.6037  1.0513 -0.6718
  535MOL0     O73716   6.624   7.751   1.158 -0.1285  0.4224  0.2284
  535MOL0     C73717   6.671   7.701   1.034 -0.2405 -0.0795 -0.4854
  535MOL0     C73718   6.795   7.656   1.037 -0.0683  0.9529  1.3244
  535MOL0     C73719   6.847   7.592   0.917  0.0610  0.3204  0.6086
  535MOL0     C73720   6.993   7.544   0.942 -0.3797 -0.4893 -0.3851
  535MOL0     C73721   6.770   7.588   0.798 -0.5338  0.0062 -0.4700
  535MOL0     C73722   6.823   7.538   0.673  0.4212 -0.5779  0.3207
  535MOL0     O73723   6.739   7.542   0.569  0.6959 -0.4228 -0.0163
  535MOL0     C73724   6.779   7.486   0.446 -0.3165  0.6079 -0.3492
  535MOL0     C73725   6.785   7.565   0.327  1.1774 -0.8171 -0.0475
  535MOL0     C73726   6.788   7.510   0.201  1.0750 -0.7998 -0.2571
  535MOL0     C73727   6.785   7.369   0.191  0.6935  0.6451  1.0215
  535MOL0     O73728   6.783   7.301   0.074 -0.2613 -0.3518  0.4576
  535MOL0     C73729   6.752   7.372  -0.045  0.5618  0.1769  0.1853
  535MOL0     C73730   6.695   7.267  -0.148  0.1915  0.9203 -0.6149
  535MOL0     C73731   6.657   7.337  -0.274  0.0795  0.1729 -0.4037
  535MOL0     C73732   6.758   7.343  -0.386 -0.4922 -0.2121  0.2675
  535MOL0     C73733   6.682   7.386  -0.516 -1.4057 -1.0697 -0.6500
  535MOL0     C73734   6.708   7.545  -0.530  0.3184 -0.6455 -0.6366
  535MOL0     C73735   6.607   7.617  -0.621  0.1990  0.4963 -0.3317
  535MOL0     C73736   6.590   7.755  -0.554 -0.0112 -0.8138  0.3867
  535MOL0    Cl73737   6.756   7.833  -0.527  0.6439  0.2328 -0.0257
  535MOL0     C73738   6.803   7.295   0.308 -0.0233  0.2178 -0.0283
  535MOL0     C73739   6.787   7.348   0.434 -0.3280 -0.3502  0.6297
  535MOL0     O73740   6.936   7.512   0.659 -0.0149  0.0835 -1.0437
  535MOL0     C73741   6.634   7.635   0.808 -0.3772  0.2154  1.2858
  535MOL0     C73742   6.587   7.689   0.926  0.0708 -0.2781 -1.1363
  535MOL0     N73743   6.717   8.115   1.527  0.2760  0.7311 -0.0184
  535MOL0     N73744   6.765   8.214   1.602  0.6599 -0.4585 -0.3645
  535MOL0     C73745   7.254   8.551   2.061 -0.0924 -0.6738 -0.4437
  535MOL0     C73746   7.390   8.511   2.074  0.1529 -0.4908 -0.6706
  535MOL0     C73747   7.822   8.622   2.056  0.4139  0.6446  0.2000
  535MOL0     C73748   7.869   8.697   1.946  0.1133  0.3373 -0.2808
  535MOL0     C73749   7.991   8.670   1.882  0.7758 -0.1629  0.0150
  535MOL0     C73750   8.077   8.576   1.930 -0.2041 -0.3621 -0.6300
  535MOL0     O73751   8.200   8.555   1.884 -0.4603  0.0806 -0.2098
  535MOL0     C73752   8.301   8.647   1.908 -0.3314  0.0666 -0.3280
  535MOL0     C73753   8.368   8.606   2.043 -0.0215  0.0369  1.2204
  535MOL0     C73754   8.408   8.460   2.027 -0.2932 -0.8983 -1.8981
  535MOL0     C73755   8.494   8.417   2.141 -0.5860  0.6538 -0.7996
  535MOL0     C73756   8.413   8.402   2.260  0.4556 -0.6147  0.3684
  535MOL0     C73757   8.339   8.393   2.355  0.2088 -0.1589 -0.0668
  535MOL0     C73758   8.026   8.491   2.034 -0.0234 -0.1231  0.6693
  535MOL0     C73759   7.899   8.509   2.097 -0.3139 -0.3182 -0.2289
  535MOL0     C73760   7.849   8.401   2.193  0.2338  0.2110  0.3287
  535MOL0     H73761   7.477   8.691   2.340  0.7342  0.9769 -0.7115
  535MOL0     H73762   7.218   8.716   2.356 -0.2120  0.4849 -0.2340
  535MOL0     H73763   7.024   8.842   2.273 -1.4112  1.2682 -1.8634
  535MOL0     H73764   6.975   8.694   2.360 -3.3222  0.0767  0.4128
  535MOL0     H73765   6.786   8.666   2.243  0.2115  0.0240  0.6736
  535MOL0     H73766   6.804   8.831   2.290  1.1889  1.4849  0.0094
  535MOL0     H73767   6.816   8.915   2.091  0.8954  1.6807 -3.4081
  535MOL0     H73768   6.927   8.813   2.025 -0.0832  2.6956  0.8905
  535MOL0     H73769   6.625   8.756   2.016  1.3193  1.3774  3.9604
  535MOL0     H73770   6.729   8.816   1.878  0.9815 -2.3967 -0.9614
  535MOL0     H73771   6.739   8.526   1.976  3.0607 -0.0395  3.3465
  535MOL0     H73772   6.866   8.615   1.900 -0.4231  0.1647  1.5502
  535MOL0     H73773   6.565   8.592   1.812  0.4577  2.6607  2.2815
  535MOL0     H73774   6.673   8.690   1.719  1.2205  1.0971  0.4464
  535MOL0     H73775   6.809   8.482   1.662  0.3713  1.8280 -3.0699
  535MOL0     H73776   6.652   8.483   1.611  0.0671  1.3270  1.4341
  535MOL0     H73777   6.741   8.324   1.865  0.1090 -1.3592 -0.1087
  535MOL0     H73778   6.570   8.365   1.840  1.5569 -2.2400  4.0731
  535MOL0     H73779   6.458   8.189   1.714  0.6241  1.1406  0.3426
  535MOL0     H73780   6.389   8.020   1.516  0.4035 -0.3490  1.7663
  535MOL0     H73781   6.488   7.899   1.592  0.5636 -1.7406 -2.4099
  535MOL0     H73782   6.555   7.999   1.302 -2.3251  0.1914 -0.8934
  535MOL0     H73783   6.631   7.884   1.401 -0.0180 -0.5287  2.4537
  535MOL0     H73784   6.437   7.732   1.379 -0.0335 -2.2444 -1.3265
  535MOL0     H73785   6.345   7.868   1.310  1.2614  1.9076 -0.3074
  535MOL0     H73786   6.423   7.701   1.152 -1.0160  0.1719  3.6465
  535MOL0     H73787   6.460   7.869   1.099 -1.4036 -0.5057 -2.1731
  535MOL0     H73788   6.848   7.666   1.132  1.1301  5.1331  0.4171
  535MOL0     H73789   7.054   7.586   0.861 -2.8618  2.5243 -0.8634
  535MOL0     H73790   7.006   7.435   0.941  1.9561 -0.3120  1.6116
  535MOL0     H73791   7.029   7.575   1.040  0.1349 -3.8556  0.6189
  535MOL0     H73792   6.778   7.673   0.339  0.5724 -0.8561 -0.0372
  535MOL0     H73793   6.796   7.578   0.116 -0.2442 -0.3479 -0.0425
  535MOL0     H73794   6.679   7.451  -0.025  2.3810  1.7130  1.0762
  535MOL0     H73795   6.839   7.414  -0.097  0.5794 -1.6567 -1.3460
  535MOL0     H73796   6.765   7.184  -0.159 -3.0045 -2.3153  1.2281
  535MOL0     H73797   6.603   7.224  -0.106  0.0739  3.5901  2.2476
  535MOL0     H73798   6.613   7.432  -0.242 -0.2701  0.4518 -1.6615
  535MOL0     H73799   6.569   7.282  -0.310  1.4780 -0.5220 -3.0456
  535MOL0     H73800   6.792   7.241  -0.404  0.7130  0.3364 -0.7998
  535MOL0     H73801   6.845   7.407  -0.364  0.4164 -1.9402  1.9990
  535MOL0     H73802   6.717   7.342  -0.610 -2.0067  0.1362 -1.4615
  535MOL0     H73803   6.575   7.364  -0.504 -1.3364 -0.2435  2.1115
  535MOL0     H73804   6.806   7.582  -0.562  0.3510  2.5668  2.4136
  535MOL0     H73805   6.696   7.592  -0.431  0.2147  2.5175 -2.0322
  535MOL0     H73806   6.514   7.560  -0.618  0.6310 -0.2204  2.3624
  535MOL0     H73807   6.642   7.616  -0.724  1.7359  2.4809  0.1152
  535MOL0     H73808   6.537   7.740  -0.459 -0.2542 -2.1926  0.0607
  535MOL0     H73809   6.533   7.817  -0.623  2.1851 -3.0696 -3.8500
  535MOL0     H73810   6.791   7.188   0.296 -4.0938  0.4037  0.6372
  535MOL0     H73811   6.766   7.284   0.519  0.1410 -2.8543 -1.0388
  535MOL0     H73812   6.563   7.640   0.726 -1.7800  4.1730  2.5264
  535MOL0     H73813   6.483   7.720   0.923  0.5098  1.5726  1.0489
  535MOL0     H73814   7.200   8.512   1.975  1.1832  0.3935 -1.7787
  535MOL0     H73815   7.433   8.436   2.008  1.8959  0.4666 -0.6600
  535MOL0     H73816   7.805   8.780   1.918  0.4107  0.5992 -0.1971
  535MOL0     H73817   8.032   8.744   1.814  2.3611 -1.1358 -0.1445
  535MOL0     H73818   8.376   8.620   1.833 -0.8156 -0.6925 -0.5468
  535MOL0     H73819   8.271   8.752   1.915  2.0195  0.6943  2.2336
  535MOL0     H73820   8.288   8.607   2.118 -1.1466 -2.2384  0.1639
  535MOL0     H73821   8.448   8.676   2.070  0.9338 -0.3613 -0.4224
  535MOL0     H73822   8.315   8.403   2.018 -0.4379 -1.3972  1.3968
  535MOL0     H73823   8.471   8.453   1.937 -0.2125  1.3100 -2.0562
  535MOL0     H73824   8.583   8.478   2.159 -0.8230  0.1561  2.8301
  535MOL0     H73825   8.537   8.320   2.116  1.8974  2.0900 -2.4951
  535MOL0     H73826   8.277   8.391   2.442 -1.2014  2.5477 -0.9115
  535MOL0     H73827   8.078   8.397   2.048 -0.9642 -0.6992  0.3178
  535MOL0     H73828   7.833   8.441   2.293 -0.0091 -2.3093  1.3644
  535MOL0     H73829   7.753   8.370   2.152  0.3895 -0.0801  0.1860
  535MOL0     H73830   7.917   8.316   2.198  0.4216  0.4175  2.0501
  536MOL0     O73831   4.038   3.109   3.778 -0.4414  0.5930 -0.7773
  536MOL0     C73832   4.036   3.133   3.901  0.6567  0.2218  0.2248
  536MOL0     O73833   4.096   3.238   3.962 -0.5556  0.1027 -0.0633
  536MOL0     C73834   4.185   3.327   3.896 -0.1269  0.6507 -0.4152
  536MOL0     C73835   4.185   3.465   3.918 -0.5792  0.4138 -0.3306
  536MOL0     C73836   4.270   3.555   3.854 -0.1407 -0.3093  0.2242
  536MOL0     C73837   4.355   3.501   3.756 -0.8692 -0.4092  0.3022
  536MOL0     O73838   4.433   3.595   3.694  0.2164  0.2424  0.2813
  536MOL0     C73839   4.518   3.562   3.580  0.6880  0.1065  0.2713
  536MOL0     C73840   4.561   3.674   3.488 -0.0908  0.8917  0.2423
  536MOL0     C73841   4.614   3.792   3.566  0.4060  0.3504 -0.2154
  536MOL0     C73842   4.688   3.890   3.480 -0.3353  0.3869  0.7411
  536MOL0     C73843   4.760   4.001   3.561 -0.1213  1.1041  0.5392
  536MOL0     C73844   4.869   4.053   3.475 -0.4017  0.4557  0.1884
  536MOL0     C73845   4.996   4.071   3.570  0.2835  0.8107 -0.1123
  536MOL0     C73846   4.979   4.185   3.674  0.0609  1.1946 -0.7795
  536MOL0     N73847   4.900   4.294   3.611  0.4839  0.9431 -0.3057
  536MOL0     C73848   4.952   4.372   3.516  0.1543  0.7488 -0.4587
  536MOL0     C73849   4.848   4.456   3.486  0.2634 -0.4461 -0.3634
  536MOL0     C73850   4.866   4.572   3.391  0.6292  0.4261 -0.4291
  536MOL0     C73851   4.898   4.700   3.462  0.9357  0.0140 -0.1016
  536MOL0     C73852   4.937   4.819   3.373  0.9307 -0.5186  1.1392
  536MOL0     C73853   4.963   4.957   3.433 -0.1214  0.1493 -0.4381
  536MOL0     O73854   5.014   5.043   3.335 -0.0361  0.9224 -0.2548
  536MOL0     C73855   5.087   5.151   3.366  0.3152  0.5773  0.0522
  536MOL0     C73856   5.076   5.222   3.489  0.2282 -0.4890 -0.1208
  536MOL0     C73857   5.155   5.335   3.497 -0.1310  0.0792 -0.0067
  536MOL0     C73858   5.133   5.414   3.623 -0.8202 -0.7098  0.6848
  536MOL0     C73859   5.253   5.366   3.401 -0.4336  0.5930  0.0031
  536MOL0     C73860   5.342   5.480   3.428 -0.0531  0.5658  0.3441
  536MOL0     O73861   5.388   5.484   3.554  0.4584 -0.4394  0.3600
  536MOL0     C73862   5.473   5.583   3.590  0.6597 -1.1856  0.0143
  536MOL0     C73863   5.463   5.717   3.543 -0.1164 -0.5154  0.6177
  536MOL0     C73864   5.556   5.815   3.576  0.2416  0.1183 -0.6687
  536MOL0     C73865   5.664   5.784   3.665  0.5279 -1.1284  0.3493
  536MOL0     O73866   5.763   5.881   3.682  0.3705  0.3622 -0.2656
  536MOL0     C73867   5.877   5.860   3.602  0.2091  0.0815 -0.2871
  536MOL0     C73868   5.846   5.884   3.454 -0.5293  0.2744 -0.0714
  536MOL0     C73869   5.798   6.027   3.432 -0.3837  0.1841  0.6052
  536MOL0     C73870   5.743   6.052   3.283 -0.1970  0.1714  0.1991
  536MOL0     C73871   5.858   6.051   3.180  0.7068 -0.3799 -0.3659
  536MOL0     C73872   5.822   6.101   3.036  0.2027  0.8783 -0.1198
  536MOL0     C73873   5.939   6.144   2.959 -0.4799  0.0444 -0.8958
  536MOL0     C73874   5.898   6.190   2.809  1.2598  0.1397  0.1398
  536MOL0    Cl73875   5.814   6.343   2.809 -0.2570 -0.3471 -0.0990
  536MOL0     C73876   5.675   5.656   3.707 -1.3680 -0.3630 -0.0241
  536MOL0     C73877   5.589   5.551   3.664  0.2991 -0.7467 -0.5671
  536MOL0     O73878   5.387   5.529   3.325 -0.9951 -0.8548 -0.2210
  536MOL0     C73879   5.261   5.284   3.284  0.5212 -0.1145  0.0436
  536MOL0     C73880   5.180   5.176   3.270  0.1708 -0.0090 -0.5103
  536MOL0     N73881   4.737   4.429   3.573  0.0053 -0.3671  0.4328
  536MOL0     N73882   4.772   4.328   3.650 -0.2434  0.1488  0.2590
  536MOL0     C73883   4.363   3.364   3.724 -0.0949  0.4310 -0.1423
  536MOL0     C73884   4.276   3.279   3.796 -0.0367 -0.5943 -0.0578
  536MOL0     C73885   3.949   3.041   3.980 -0.1373  1.1407 -0.6218
  536MOL0     C73886   3.933   3.072   4.110  0.7607 -0.1964  0.0787
  536MOL0     C73887   3.843   3.013   4.198  0.4243  0.0905  0.3412
  536MOL0     C73888   3.756   2.910   4.152  0.5385 -0.4499 -0.2148
  536MOL0     O73889   3.664   2.849   4.224 -0.0968  0.8401  1.0760
  536MOL0     C73890   3.615   2.903   4.344  0.4210  0.3878 -0.0364
  536MOL0     C73891   3.583   2.762   4.413 -0.1575  0.0761 -0.2738
  536MOL0     C73892   3.502   2.780   4.538  0.1241 -0.4113  0.0498
  536MOL0     C73893   3.486   2.655   4.619  0.2132  0.8950 -0.9246
  536MOL0     C73894   3.616   2.618   4.683 -0.0518  0.3810 -0.1661
  536MOL0     C73895   3.704   2.575   4.747 -0.5529 -0.2103 -0.3101
  536MOL0     C73896   3.787   2.863   4.027  0.0193  0.3907 -0.4520
  536MOL0     C73897   3.883   2.922   3.940  0.7024 -0.0355  0.3723
  536MOL0     C73898   3.900   2.856   3.801 -0.9651  0.3042 -0.4491
  536MOL0     H73899   4.110   3.502   3.988  0.9544 -0.7923  2.0957
  536MOL0     H73900   4.273   3.664   3.860  2.1203 -0.0487 -2.8409
  536MOL0     H73901   4.480   3.475   3.525  0.9302 -0.9200  1.6575
  536MOL0     H73902   4.604   3.514   3.627 -0.6274 -0.1484  2.6044
  536MOL0     H73903   4.641   3.656   3.416 -0.3444  4.5072 -1.0988
  536MOL0     H73904   4.477   3.700   3.423 -0.3209 -1.1752 -0.3924
  536MOL0     H73905   4.541   3.847   3.626 -0.2617 -0.2862 -0.4249
  536MOL0     H73906   4.685   3.748   3.637  0.9087  0.5745 -0.5731
  536MOL0     H73907   4.761   3.836   3.420 -1.0666  0.2716 -0.0610
  536MOL0     H73908   4.613   3.931   3.411 -1.3403 -0.4082  1.3137
  536MOL0     H73909   4.788   3.951   3.655 -1.9978 -2.9645 -0.8311
  536MOL0     H73910   4.687   4.080   3.580 -0.6877  0.4637  1.1176
  536MOL0     H73911   4.897   3.976   3.402 -0.8588 -0.4513  0.9552
  536MOL0     H73912   4.851   4.151   3.431  4.2899  1.6902  0.4643
  536MOL0     H73913   5.078   4.099   3.503  0.0915  0.4866 -0.4915
  536MOL0     H73914   5.021   3.977   3.618 -2.4586  0.7874  1.4999
  536MOL0     H73915   4.919   4.154   3.760 -1.5391  1.7294 -1.6644
  536MOL0     H73916   5.074   4.220   3.716  0.7018 -0.4384 -0.8178
  536MOL0     H73917   5.051   4.372   3.470  0.3635 -0.6191 -0.0779
  536MOL0     H73918   4.772   4.594   3.339 -0.8578 -1.4587  1.2685
  536MOL0     H73919   4.954   4.545   3.332  3.4011  1.2930  2.9499
  536MOL0     H73920   4.809   4.729   3.518  1.1262  1.6039 -0.5802
  536MOL0     H73921   4.983   4.689   3.530  0.0430 -1.0982  0.8785
  536MOL0     H73922   5.031   4.804   3.320  1.8064  2.4703  1.6847
  536MOL0     H73923   4.875   4.825   3.283  1.3377 -2.7370  0.6548
  536MOL0     H73924   4.873   4.988   3.487  0.3354  0.6351  0.0558
  536MOL0     H73925   5.035   4.942   3.513 -3.1572 -1.7963  2.1809
  536MOL0     H73926   4.999   5.192   3.560  0.1656 -2.9274 -1.1523
  536MOL0     H73927   5.134   5.522   3.605  0.1708  0.0667  4.5579
  536MOL0     H73928   5.210   5.388   3.696 -2.2310 -0.2705  2.3943
  536MOL0     H73929   5.036   5.391   3.668 -0.7972  0.6058  1.4516
  536MOL0     H73930   5.389   5.748   3.470  1.8061  0.6020 -0.9567
  536MOL0     H73931   5.549   5.915   3.535  3.3749  0.3543 -0.8809
  536MOL0     H73932   5.961   5.919   3.641  1.5257 -3.8336  3.5579
  536MOL0     H73933   5.907   5.756   3.616  0.8749  0.6203  3.1079
  536MOL0     H73934   5.936   5.888   3.391  0.8801 -0.6218  1.7853
  536MOL0     H73935   5.780   5.804   3.418 -3.7824  2.6556  0.1192
  536MOL0     H73936   5.875   6.100   3.456 -0.0104  0.3438 -0.9494
  536MOL0     H73937   5.712   6.050   3.495 -0.3629 -1.9445  1.4803
  536MOL0     H73938   5.682   6.142   3.273  0.7051  0.8520  0.7649
  536MOL0     H73939   5.677   5.965   3.276 -1.0757  0.6395  1.9676
  536MOL0     H73940   5.944   6.101   3.225  1.3009 -0.3072 -1.5682
  536MOL0     H73941   5.888   5.946   3.177 -2.3992 -1.4747  1.1967
  536MOL0     H73942   5.749   6.183   3.044 -1.8442 -0.6345 -2.0216
  536MOL0     H73943   5.758   6.020   3.000 -0.6263  1.2867  0.4035
  536MOL0     H73944   5.998   6.052   2.952  2.8425  1.8484  0.9302
  536MOL0     H73945   5.999   6.222   3.007  0.2059 -0.5245 -0.8092
  536MOL0     H73946   5.828   6.114   2.774  0.7663 -0.3605  2.1106
  536MOL0     H73947   5.984   6.202   2.741  1.2315  0.2555  0.1248
  536MOL0     H73948   5.755   5.632   3.777 -1.7419  1.1181  0.9534
  536MOL0     H73949   5.608   5.449   3.696 -0.3054  0.3531  4.1295
  536MOL0     H73950   5.315   5.319   3.196 -0.8168  2.6609  0.2101
  536MOL0     H73951   5.185   5.126   3.173  1.5883  1.3303 -1.1745
  536MOL0     H73952   4.440   3.335   3.654  1.4004 -0.0785  1.6280
  536MOL0     H73953   4.292   3.174   3.775  1.4825 -0.2810 -0.6701
  536MOL0     H73954   3.981   3.162   4.148  0.4730 -0.7648  1.8896
  536MOL0     H73955   3.818   3.054   4.295 -0.9161 -0.9904  0.4886
  536MOL0     H73956   3.684   2.952   4.413 -1.4135  0.9023  1.5287
  536MOL0     H73957   3.519   2.953   4.330 -1.1035 -2.0202  0.9990
  536MOL0     H73958   3.676   2.709   4.434 -0.6667 -1.1651 -1.0624
  536MOL0     H73959   3.521   2.698   4.350 -2.2494  1.7204 -0.0306
  536MOL0     H73960   3.552   2.847   4.609 -1.2081  0.3861  0.2707
  536MOL0     H73961   3.406   2.824   4.509 -0.2644 -0.9232  0.5552
  536MOL0     H73962   3.440   2.577   4.559 -0.5269 -0.5843  1.4624
  536MOL0     H73963   3.421   2.679   4.703 -2.9751 -0.8592 -2.7188
  536MOL0     H73964   3.786   2.528   4.799  3.1040  5.3431 -0.2162
  536MOL0     H73965   3.734   2.774   3.995 -2.1865  1.4495  0.0489
  536MOL0     H73966   3.898   2.749   3.824  1.6235  1.1384  5.5168
  536MOL0     H73967   3.812   2.886   3.744 -0.1451  0.3333 -1.7275
  536MOL0     H73968   3.993   2.863   3.745 -0.9525  2.6366 -0.2576
  537MOL0     O73969   3.939   0.223   1.964 -0.5196  0.4265 -0.5812
  537MOL0     C73970   3.821   0.240   1.928 -0.1577 -0.0952  0.5057
  537MOL0     O73971   3.728   0.316   1.992  0.0336  0.4286 -0.6041
  537MOL0     C73972   3.784   0.393   2.091  0.9059  0.0297 -0.4087
  537MOL0     C73973   3.723   0.373   2.217 -0.2578 -0.3054  0.3016
  537MOL0     C73974   3.772   0.445   2.326  0.2780 -0.5523 -0.4195
  537MOL0     C73975   3.859   0.549   2.318 -1.2122 -0.4717 -0.2970
  537MOL0     O73976   3.862   0.626   2.429  0.1886  0.8547  0.2900
  537MOL0     C73977   3.818   0.760   2.394  0.1258 -0.7070 -0.3536
  537MOL0     C73978   3.812   0.848   2.524  0.3050  0.9896  0.2263
  537MOL0     C73979   3.729   0.801   2.634  0.0391  0.3386  1.5532
  537MOL0     C73980   3.743   0.890   2.752  0.3006  0.1896 -1.1450
  537MOL0     C73981   3.627   0.847   2.846  0.1075 -0.1150 -0.0875
  537MOL0     C73982   3.651   0.912   2.990  0.1677  0.5083  1.1553
  537MOL0     C73983   3.511   0.907   3.070  0.1654 -0.2418  0.4817
  537MOL0     C73984   3.489   0.753   3.117 -1.1419  0.3722  0.6100
  537MOL0     N73985   3.352   0.732   3.155  0.0112 -0.3391 -0.1589
  537MOL0     C73986   3.255   0.688   3.074  0.0801  1.1747 -0.2610
  537MOL0     C73987   3.157   0.643   3.164  0.4302  0.1666  0.6642
  537MOL0     C73988   3.013   0.617   3.129 -0.3716 -0.2997 -0.2022
  537MOL0     C73989   2.964   0.475   3.149 -0.4055 -0.7416 -0.7865
  537MOL0     C73990   3.056   0.374   3.074  0.1423 -0.9290  0.2830
  537MOL0     C73991   3.068   0.395   2.916  0.0827 -0.1582  0.0842
  537MOL0     O73992   2.934   0.376   2.864  0.3549  0.1016 -0.2944
  537MOL0     C73993   2.905   0.454   2.758  0.0392 -0.0610 -1.1552
  537MOL0     C73994   2.809   0.552   2.780  1.5651 -0.0057 -0.3680
  537MOL0     C73995   2.771   0.644   2.679 -0.3034 -0.5470 -0.6323
  537MOL0     C73996   2.654   0.746   2.713  0.1375  0.2964  0.4181
  537MOL0     C73997   2.841   0.642   2.557 -0.4020  0.5989  1.1367
  537MOL0     C73998   2.820   0.746   2.449  1.0451  0.2366  0.5102
  537MOL0     O73999   2.706   0.819   2.443 -0.3023  0.1604 -0.7049
  537MOL0     C74000   2.694   0.926   2.361  0.2058  0.3310  0.2704
  537MOL0     C74001   2.747   1.055   2.401  0.8881  0.9050  1.0612
  537MOL0     C74002   2.722   1.160   2.309  0.2217  0.3961 -0.6393
  537MOL0     C74003   2.649   1.144   2.191 -0.8969  0.3194  0.1404
  537MOL0     O74004   2.618   1.238   2.098  0.4201 -0.5082 -0.3569
  537MOL0     C74005   2.619   1.372   2.131  0.8317 -0.9333 -0.5198
  537MOL0     C74006   2.742   1.437   2.076 -1.6656 -0.8929 -0.1968
  537MOL0     C74007   2.762   1.574   2.148 -0.0713  0.4667  0.3022
  537MOL0     C74008   2.858   1.665   2.067 -0.3775  0.1970  0.2881
  537MOL0     C74009   2.920   1.777   2.156  0.2265  0.6229 -0.2054
  537MOL0     C74010   2.992   1.890   2.080  0.0547  0.6225 -0.5787
  537MOL0     C74011   3.128   1.825   2.061  0.0925 -0.3858 -0.3645
  537MOL0     C74012   3.239   1.930   2.030  0.2156 -0.4332  0.8678
  537MOL0    Cl74013   3.257   2.044   2.168 -0.1869 -0.2492  0.4910
  537MOL0     C74014   2.601   1.024   2.162 -0.5448 -0.7459 -0.4616
  537MOL0     C74015   2.626   0.910   2.241 -0.3370 -0.1182  0.2224
  537MOL0     O74016   2.904   0.753   2.364  0.0682 -0.5342 -0.2770
  537MOL0     C74017   2.945   0.548   2.544 -0.3968 -0.1324 -0.2316
  537MOL0     C74018   2.977   0.460   2.645 -0.5216 -0.7183 -0.2924
  537MOL0     N74019   3.197   0.657   3.286 -0.4201 -0.3221  0.1458
  537MOL0     N74020   3.313   0.714   3.283  0.2422  0.5759 -0.3300
  537MOL0     C74021   3.922   0.573   2.187  0.3301 -0.0728 -0.6758
  537MOL0     C74022   3.888   0.488   2.086 -0.1427 -0.0773 -0.6709
  537MOL0     C74023   3.765   0.137   1.828  0.7074 -0.1058 -1.5620
  537MOL0     C74024   3.771   0.000   1.839  0.1580 -0.0970 -0.3293
  537MOL0     C74025   3.715  -0.091   1.749  0.1307 -0.5707  0.3662
  537MOL0     C74026   3.651  -0.039   1.640  0.6284 -0.1381  0.1563
  537MOL0     O74027   3.598  -0.104   1.529  0.5544 -0.0246  0.5277
  537MOL0     C74028   3.615  -0.250   1.530 -0.0822  0.8818 -0.6266
  537MOL0     C74029   3.612  -0.286   1.384 -0.0774 -0.0189  0.2870
  537MOL0     C74030   3.652  -0.434   1.353  0.1445  0.0073  0.1206
  537MOL0     C74031   3.656  -0.453   1.204  0.5710 -0.3796 -0.4259
  537MOL0     C74032   3.520  -0.444   1.138 -0.6303  0.0598 -0.6721
  537MOL0     C74033   3.409  -0.453   1.095  0.9893  0.4150 -0.2505
  537MOL0     C74034   3.639   0.097   1.632 -0.8231 -0.3208  0.7115
  537MOL0     C74035   3.690   0.185   1.724  0.6327  0.7694  0.6188
  537MOL0     C74036   3.650   0.327   1.712 -0.0517  0.6307 -0.4236
  537MOL0     H74037   3.635   0.311   2.226 -1.1730  1.1636  1.9085
  537MOL0     H74038   3.708   0.419   2.410 -1.1140 -0.5575 -1.4548
  537MOL0     H74039   3.722   0.743   2.345 -0.3015  0.6875 -0.0506
  537MOL0     H74040   3.888   0.810   2.327 -0.7472  0.2356 -0.5820
  537MOL0     H74041   3.910   0.853   2.571 -0.8666  0.4252  2.9252
  537MOL0     H74042   3.780   0.944   2.483 -1.1350  0.4495  0.0238
  537MOL0     H74043   3.624   0.805   2.602  1.1949 -1.2928 -3.2125
  537MOL0     H74044   3.746   0.695   2.656  0.9123  0.1272 -0.0494
  537MOL0     H74045   3.841   0.880   2.800 -0.5576 -1.7169  0.3777
  537MOL0     H74046   3.728   0.996   2.733  2.0014  0.6640 -0.1210
  537MOL0     H74047   3.654   0.743   2.862  2.0774  0.6295  1.9559
  537MOL0     H74048   3.526   0.856   2.805 -0.2681 -0.6066  0.7028
  537MOL0     H74049   3.728   0.855   3.042  2.7379  1.4281 -1.3445
  537MOL0     H74050   3.691   1.014   2.979  0.0506  0.4184 -0.3751
  537MOL0     H74051   3.425   0.937   3.010  0.3693 -1.7966 -0.6464
  537MOL0     H74052   3.528   0.969   3.158 -0.7043  3.2444 -1.6256
  537MOL0     H74053   3.504   0.696   3.025 -0.0646  0.9646  0.4020
  537MOL0     H74054   3.557   0.734   3.200 -2.1424 -0.5917  1.2413
  537MOL0     H74055   3.256   0.680   2.966  1.8360  0.5455 -0.2257
  537MOL0     H74056   2.991   0.638   3.023 -0.1791  0.2962 -0.1267
  537MOL0     H74057   2.958   0.690   3.189 -0.4188 -1.7229  1.5700
  537MOL0     H74058   2.978   0.460   3.256 -1.0657 -1.1402 -0.7528
  537MOL0     H74059   2.858   0.478   3.121 -0.7991  2.9830  0.5457
  537MOL0     H74060   3.158   0.371   3.112  0.1601  0.1613  0.3628
  537MOL0     H74061   3.011   0.275   3.085  0.8576 -1.0873  2.1060
  537MOL0     H74062   3.104   0.496   2.895  1.0941 -0.7294 -1.0289
  537MOL0     H74063   3.138   0.322   2.875  0.5725  1.8794 -3.0522
  537MOL0     H74064   2.749   0.561   2.869  1.2103  1.7483 -0.7469
  537MOL0     H74065   2.569   0.735   2.646 -0.8756 -0.2720  1.7478
  537MOL0     H74066   2.677   0.850   2.687  2.3630  0.0261  1.1318
  537MOL0     H74067   2.618   0.746   2.816 -0.5159 -1.8203  0.2456
  537MOL0     H74068   2.807   1.069   2.491 -0.2155 -2.3571  2.4497
  537MOL0     H74069   2.758   1.259   2.336 -1.2204 -0.0740  3.6276
  537MOL0     H74070   2.527   1.417   2.092 -1.1424 -4.3206 -0.1951
  537MOL0     H74071   2.613   1.382   2.240  0.1976 -0.3080 -0.6061
  537MOL0     H74072   2.832   1.377   2.088  2.2159  3.9758 -1.7373
  537MOL0     H74073   2.744   1.445   1.967 -1.1015  2.4065 -0.0662
  537MOL0     H74074   2.807   1.552   2.246  0.9379 -3.2165 -0.8087
  537MOL0     H74075   2.673   1.635   2.159  0.9682  2.3377 -1.1032
  537MOL0     H74076   2.799   1.695   1.981 -0.2243  0.2970  0.2182
  537MOL0     H74077   2.939   1.602   2.028 -0.4874  0.4011 -0.2653
  537MOL0     H74078   2.836   1.821   2.211  0.4587 -0.3877  0.9965
  537MOL0     H74079   2.977   1.729   2.236  0.1090  1.6938  0.5476
  537MOL0     H74080   2.995   1.977   2.146  0.4953 -0.9875  1.6403
  537MOL0     H74081   2.939   1.906   1.986 -0.3649 -2.5852 -1.0090
  537MOL0     H74082   3.124   1.751   1.981 -2.1517  0.3578 -1.0298
  537MOL0     H74083   3.167   1.777   2.151  0.7958  1.6492  0.4747
  537MOL0     H74084   3.201   1.984   1.943 -0.9465  0.1459  1.6999
  537MOL0     H74085   3.334   1.885   2.002 -0.3038 -0.2645 -1.3175
  537MOL0     H74086   2.554   1.011   2.065  2.3336 -2.7697 -1.7294
  537MOL0     H74087   2.600   0.806   2.225 -0.4932  0.0547 -0.7726
  537MOL0     H74088   3.015   0.546   2.461 -1.5435  0.4897 -1.2469
  537MOL0     H74089   3.063   0.395   2.647 -0.3250 -0.4667 -0.5545
  537MOL0     H74090   3.985   0.661   2.182  1.7656 -0.9530  0.8598
  537MOL0     H74091   3.938   0.513   1.993 -0.2717  2.4344 -0.1182
  537MOL0     H74092   3.812  -0.037   1.933 -1.2263 -0.6468  0.0790
  537MOL0     H74093   3.723  -0.198   1.768  1.1699 -1.0221 -2.1844
  537MOL0     H74094   3.702  -0.292   1.582 -1.4646  1.1258  2.0817
  537MOL0     H74095   3.535  -0.285   1.596  4.0103  0.5383  4.9342
  537MOL0     H74096   3.684  -0.220   1.335 -1.7490  0.5146 -1.5702
  537MOL0     H74097   3.513  -0.260   1.344  0.4783 -1.4970 -2.2910
  537MOL0     H74098   3.748  -0.451   1.404  0.0532  0.4698  0.4642
  537MOL0     H74099   3.581  -0.506   1.392 -2.1032  0.1386 -3.3317
  537MOL0     H74100   3.703  -0.550   1.189  0.5488 -0.3732 -0.5345
  537MOL0     H74101   3.722  -0.381   1.156  0.9732  0.5817  1.4542
  537MOL0     H74102   3.308  -0.478   1.070  0.2300  2.3626  0.6502
  537MOL0     H74103   3.590   0.135   1.542  0.1240  0.6521  0.5849
  537MOL0     H74104   3.616   0.346   1.609  2.8071 -1.3080 -1.8624
  537MOL0     H74105   3.587   0.350   1.798  1.3527 -0.0322  0.8192
  537MOL0     H74106   3.743   0.384   1.720  0.4866 -0.4842  2.4715
  538MOL0     O74107  10.874   4.021   5.219 -0.5876  0.0755 -0.2467
  538MOL0     C74108  10.751   4.007   5.242 -0.3246  0.6923 -0.5696
  538MOL0     O74109  10.705   3.965   5.363  0.1729  0.6539 -0.0711
  538MOL0     C74110  10.787   3.924   5.467 -0.0234  0.5418  0.8381
  538MOL0     C74111  10.725   3.933   5.595  0.7474  0.0228  0.0084
  538MOL0     C74112  10.789   3.888   5.714 -0.3670 -0.6939 -0.7366
  538MOL0     C74113  10.908   3.833   5.700  0.8551 -0.3359 -0.1636
  538MOL0     O74114  10.971   3.766   5.802  0.2418  0.2986  0.4051
  538MOL0     C74115  10.934   3.778   5.938  0.0606  0.3429 -0.1400
  538MOL0     C74116  11.030   3.687   6.016 -0.8512  0.2022  0.5138
  538MOL0     C74117  10.986   3.708   6.169 -1.2585  0.4452 -0.0993
  538MOL0     C74118  11.081   3.620   6.249 -0.0231  0.0200 -0.4483
  538MOL0     C74119  11.035   3.624   6.393 -0.6541 -0.3866  1.2177
  538MOL0     C74120  11.112   3.528   6.476  0.1833  0.3226  0.2502
  538MOL0     C74121  11.106   3.567   6.624 -0.6918  0.3252  0.1175
  538MOL0     C74122  11.241   3.595   6.682  0.0759  0.0115  0.2130
  538MOL0     N74123  11.285   3.730   6.648 -0.4153  0.1835 -0.1174
  538MOL0     C74124  11.252   3.841   6.708  0.2908  0.8378 -0.9146
  538MOL0     C74125  11.306   3.939   6.638 -0.8486  0.2678 -0.4373
  538MOL0     C74126  11.298   4.090   6.669  0.8288 -0.2194 -0.4313
  538MOL0     C74127  11.203   4.167   6.570 -0.4363  0.1042  0.1902
  538MOL0     C74128  11.235   4.155   6.412 -0.7033 -0.1045 -0.6821
  538MOL0     C74129  11.132   4.078   6.334 -0.4693  0.8142  0.9090
  538MOL0     O74130  11.197   4.033   6.211 -0.1113 -0.3106  0.4004
  538MOL0     C74131  11.157   4.099   6.095  0.1335 -0.2384 -0.8039
  538MOL0     C74132  11.213   4.042   5.987  0.3540  0.2899  0.3886
  538MOL0     C74133  11.202   4.088   5.855  0.8297  0.0885  0.3354
  538MOL0     C74134  11.244   3.992   5.743 -0.7698  0.0581 -0.1020
  538MOL0     C74135  11.130   4.211   5.832  0.4651 -0.1886 -1.1074
  538MOL0     C74136  11.112   4.272   5.699  0.2477  1.0894 -0.4619
  538MOL0     O74137  11.163   4.206   5.592  0.1539 -0.0756 -0.2543
  538MOL0     C74138  11.153   4.277   5.472  0.8974 -0.6612  0.4113
  538MOL0     C74139  11.111   4.203   5.368  0.3703 -0.0986  0.1656
  538MOL0     C74140  11.109   4.253   5.234  0.2572 -0.2428 -0.3928
  538MOL0     C74141  11.165   4.381   5.204  0.6098 -0.1290 -0.1857
  538MOL0     O74142  11.167   4.407   5.072  0.1095 -0.8077 -0.4397
  538MOL0     C74143  11.209   4.542   5.034 -1.4951 -0.7043  0.7370
  538MOL0     C74144  11.216   4.547   4.887 -0.5680 -0.2617  0.1444
  538MOL0     C74145  11.076   4.578   4.829 -0.2784 -0.9536 -0.7363
  538MOL0     C74146  11.079   4.585   4.684 -0.7165  0.6333 -0.0947
  538MOL0     C74147  10.943   4.577   4.619 -1.2081 -0.1568 -0.9128
  538MOL0     C74148  10.887   4.715   4.577 -0.1388  0.1104 -0.8566
  538MOL0     C74149  10.856   4.804   4.695 -0.5621 -0.2769 -0.5330
  538MOL0     C74150  10.801   4.933   4.636  0.5403 -0.5962 -0.3381
  538MOL0    Cl74151  10.929   5.040   4.578 -0.8199 -0.5441  0.6657
  538MOL0     C74152  11.199   4.473   5.312  0.2971 -0.1440  0.6416
  538MOL0     C74153  11.197   4.411   5.445 -0.6180  1.0081 -0.5087
  538MOL0     O74154  11.038   4.368   5.691 -0.7769 -1.1547 -0.9480
  538MOL0     C74155  11.087   4.278   5.942 -0.2563 -0.2854  0.4405
  538MOL0     C74156  11.094   4.227   6.071  0.7774 -0.6526 -0.0002
  538MOL0     N74157  11.389   3.888   6.535  0.0324 -0.4523 -0.9749
  538MOL0     N74158  11.365   3.761   6.538 -0.2860  0.1076 -0.1316
  538MOL0     C74159  10.974   3.829   5.580 -0.8722 -0.2885 -0.4435
  538MOL0     C74160  10.908   3.869   5.458 -0.5322  0.1113 -0.6596
  538MOL0     C74161  10.654   4.052   5.140  0.2683 -0.6590  0.5541
  538MOL0     C74162  10.526   4.003   5.151 -0.4400 -0.4668  0.0588
  538MOL0     C74163  10.425   4.018   5.065 -0.5059 -0.0273  0.1268
  538MOL0     C74164  10.452   4.098   4.956 -0.8647  0.8129 -0.0688
  538MOL0     O74165  10.363   4.125   4.855  0.4134  0.5289 -0.5270
  538MOL0     C74166  10.242   4.051   4.864 -0.3207 -0.2908 -0.5378
  538MOL0     C74167  10.163   4.084   4.746  0.0203 -0.6205  0.1640
  538MOL0     C74168  10.203   4.030   4.612  0.4901 -0.4450 -0.1814
  538MOL0     C74169  10.102   4.072   4.510 -0.7445  0.0961  1.0404
  538MOL0     C74170  10.137   4.204   4.447 -0.3501  0.2920  0.3353
  538MOL0     C74171  10.182   4.299   4.398 -0.0108  0.3800  0.1492
  538MOL0     C74172  10.573   4.168   4.945  1.0402 -0.1849  0.7037
  538MOL0     C74173  10.680   4.140   5.032  0.8193  0.2354  0.3332
  538MOL0     C74174  10.808   4.208   5.006 -0.3643 -0.2467  0.8528
  538MOL0     H74175  10.620   3.961   5.600  0.9565  1.1636 -1.3389
  538MOL0     H74176  10.732   3.872   5.805  2.4718  0.3929  1.3624
  538MOL0     H74177  10.831   3.747   5.958  0.5502  0.0356  2.2379
  538MOL0     H74178  10.938   3.879   5.979 -0.0966 -1.8004  6.4462
  538MOL0     H74179  11.024   3.587   5.972  1.3697  0.8917 -1.5944
  538MOL0     H74180  11.128   3.735   6.002 -1.0326  0.8340  1.3419
  538MOL0     H74181  10.993   3.812   6.204 -2.2793  0.5658 -0.2160
  538MOL0     H74182  10.887   3.668   6.192  0.0440 -1.2351  3.1879
  538MOL0     H74183  11.093   3.516   6.218 -2.4293 -0.3347 -0.4036
  538MOL0     H74184  11.179   3.668   6.240 -1.5474  3.6985  0.4630
  538MOL0     H74185  10.928   3.602   6.402 -1.4643  1.6435 -1.7564
  538MOL0     H74186  11.053   3.728   6.422 -1.1571  0.4675 -1.2892
  538MOL0     H74187  11.076   3.425   6.462  1.4698 -0.3354  1.4345
  538MOL0     H74188  11.220   3.525   6.457  0.4119 -1.0249  1.5132
  538MOL0     H74189  11.071   3.472   6.667 -0.3721  0.6025  1.0057
  538MOL0     H74190  11.032   3.644   6.647 -1.2633  0.3115 -1.5616
  538MOL0     H74191  11.228   3.590   6.791  0.4384  0.4438  0.2801
  538MOL0     H74192  11.308   3.514   6.651  1.0300  0.5640  0.7782
  538MOL0     H74193  11.197   3.851   6.801  1.0709 -0.1185 -0.3430
  538MOL0     H74194  11.398   4.131   6.653 -0.0052  1.8048 -0.7512
  538MOL0     H74195  11.265   4.100   6.773  0.4928 -0.3866 -0.5233
  538MOL0     H74196  11.098   4.143   6.587  0.0330 -0.2893  2.8752
  538MOL0     H74197  11.210   4.273   6.595 -1.6567  0.3668 -0.4812
  538MOL0     H74198  11.248   4.253   6.366 -0.9467  0.9534  1.3648
  538MOL0     H74199  11.329   4.101   6.404 -1.3808 -1.3797 -0.3974
  538MOL0     H74200  11.107   3.993   6.398  0.8438  0.2781  0.7464
  538MOL0     H74201  11.045   4.144   6.326 -0.0949  1.5301  2.3423
  538MOL0     H74202  11.274   3.953   5.996  1.8155  1.0045 -1.5401
  538MOL0     H74203  11.182   3.984   5.653  0.5416 -1.8598 -0.9022
  538MOL0     H74204  11.244   3.886   5.767 -0.0658 -0.6573 -2.8853
  538MOL0     H74205  11.346   4.011   5.708 -0.1546 -2.7163 -0.0329
  538MOL0     H74206  11.068   4.105   5.382 -1.0507  0.1648 -1.9271
  538MOL0     H74207  11.076   4.184   5.157  2.1045  0.0694 -1.5439
  538MOL0     H74208  11.139   4.618   5.071 -1.4007 -0.0063 -0.4914
  538MOL0     H74209  11.306   4.565   5.078 -1.0523 -0.6583 -0.2592
  538MOL0     H74210  11.275   4.632   4.853 -2.2711  0.1479 -2.0621
  538MOL0     H74211  11.261   4.451   4.858  1.7007  0.5797  0.6886
  538MOL0     H74212  11.022   4.668   4.862 -0.8820 -0.6272 -2.4979
  538MOL0     H74213  11.019   4.491   4.862 -1.4015 -0.8704 -2.3631
  538MOL0     H74214  11.148   4.503   4.659  2.1640  2.2968  1.7519
  538MOL0     H74215  11.123   4.680   4.653 -0.9197  0.5661 -0.5928
  538MOL0     H74216  10.966   4.527   4.525 -1.0715 -0.4416 -0.7275
  538MOL0     H74217  10.880   4.522   4.688 -1.2684  4.8799  3.7426
  538MOL0     H74218  10.794   4.706   4.521 -1.5599 -1.3671  1.5460
  538MOL0     H74219  10.960   4.759   4.508 -0.3332  2.3444  0.2874
  538MOL0     H74220  10.942   4.811   4.761 -1.9029 -1.1642  1.4062
  538MOL0     H74221  10.775   4.744   4.737  0.0149  0.9296  2.5623
  538MOL0     H74222  10.744   4.997   4.704  0.6755 -0.6287 -0.1940
  538MOL0     H74223  10.731   4.905   4.556 -1.1478 -1.8644  1.4725
  538MOL0     H74224  11.228   4.577   5.300  0.4455 -0.1158  1.2487
  538MOL0     H74225  11.215   4.486   5.522  1.1840  2.6225 -2.3822
  538MOL0     H74226  11.036   4.373   5.933  1.5441  0.8179  1.4773
  538MOL0     H74227  11.043   4.294   6.139  2.1591  1.3949 -0.8518
  538MOL0     H74228  11.077   3.793   5.576  0.0289  1.2528  3.7903
  538MOL0     H74229  10.946   3.845   5.359  1.6005 -0.0552  0.1549
  538MOL0     H74230  10.511   3.935   5.235 -0.6944  0.7342  1.0018
  538MOL0     H74231  10.336   3.959   5.080 -0.2255 -0.3131  0.7255
  538MOL0     H74232  10.260   3.944   4.876 -1.2831 -0.4325 -0.2884
  538MOL0     H74233  10.191   4.088   4.953  3.5609  1.6042  1.1699
  538MOL0     H74234  10.140   4.191   4.746 -3.0282 -1.1669  0.9046
  538MOL0     H74235  10.063   4.040   4.759  0.2208 -1.3739 -0.7080
  538MOL0     H74236  10.303   4.068   4.590  0.5423  1.2528  2.4915
  538MOL0     H74237  10.201   3.921   4.624 -1.2790 -0.6679 -2.0213
  538MOL0     H74238   9.999   4.069   4.548 -0.4580 -1.9254  1.7795
  538MOL0     H74239  10.091   3.993   4.435 -2.9861  0.1876  1.1996
  538MOL0     H74240  10.226   4.376   4.337  1.3480  0.9847  1.8043
  538MOL0     H74241  10.593   4.217   4.850  0.5041  2.3027  1.7958
  538MOL0     H74242  10.877   4.131   4.972  0.1549  0.5131  0.1401
  538MOL0     H74243  10.812   4.277   4.922 -0.4800 -0.5394  0.6062
  538MOL0     H74244  10.843   4.250   5.101 -0.0475  1.1210  0.1542
  539MOL0     O74245   4.348   6.284  11.117  0.9823  0.9976 -0.0968
  539MOL0     C74246   4.327   6.351  11.208  0.3476 -1.2223 -0.4235
  539MOL0     O74247   4.225   6.447  11.214 -0.1735  0.3865  0.7400
  539MOL0     C74248   4.151   6.457  11.092  0.0718 -0.8091 -0.5853
  539MOL0     C74249   4.015   6.421  11.092 -0.5895  0.4018 -0.3912
  539MOL0     C74250   3.949   6.404  10.970  0.7026  0.0277 -0.9870
  539MOL0     C74251   4.012   6.435  10.848  0.4627  0.7258  0.8602
  539MOL0     O74252   3.952   6.404  10.730 -0.1433  0.1309 -0.4587
  539MOL0     C74253   3.948   6.256  10.709 -0.2083 -1.0618 -0.3445
  539MOL0     C74254   3.874   6.220  10.584 -0.8419  0.0084 -1.2687
  539MOL0     C74255   3.932   6.308  10.468 -0.0793 -0.0730  0.0163
  539MOL0     C74256   4.076   6.274  10.433 -0.7719  0.3662 -0.4712
  539MOL0     C74257   4.126   6.349  10.311  0.0380 -0.3670  0.5079
  539MOL0     C74258   4.279   6.363  10.295 -0.1100 -0.0343 -0.3278
  539MOL0     C74259   4.348   6.228  10.306 -0.7314 -0.4922  0.3939
  539MOL0     C74260   4.499   6.245  10.290 -0.2760  0.4749  0.7662
  539MOL0     N74261   4.575   6.132  10.230 -0.2717 -0.1746  0.1437
  539MOL0     C74262   4.655   6.142  10.116  0.5004  0.7214 -0.3968
  539MOL0     C74263   4.695   6.014  10.106 -0.4988 -0.5501 -0.3460
  539MOL0     C74264   4.785   5.983   9.991 -0.1558 -0.7005  0.2353
  539MOL0     C74265   4.929   5.955  10.036  0.3526  0.6060  0.6273
  539MOL0     C74266   4.985   5.825   9.978  0.4009 -0.0892  0.1885
  539MOL0     C74267   4.893   5.711  10.032 -0.6074  1.3382  0.5809
  539MOL0     O74268   4.952   5.585  10.060  0.5759  0.7013 -0.1890
  539MOL0     C74269   4.884   5.485  10.119  0.0220 -0.1209 -0.0087
  539MOL0     C74270   4.754   5.491  10.179 -0.2226 -0.0202  0.0109
  539MOL0     C74271   4.678   5.374  10.223 -0.2194  0.6838 -0.4926
  539MOL0     C74272   4.536   5.382  10.281 -0.7702 -0.3091 -0.7836
  539MOL0     C74273   4.746   5.250  10.221 -0.0045 -0.7582 -0.7715
  539MOL0     C74274   4.684   5.121  10.251  0.0457 -0.2545 -0.5492
  539MOL0     O74275   4.771   5.013  10.286  0.1362 -0.1094 -0.6212
  539MOL0     C74276   4.711   4.884  10.308  0.1209  0.5324 -0.1150
  539MOL0     C74277   4.607   4.855  10.393  1.3985 -0.5029  0.3880
  539MOL0     C74278   4.538   4.734  10.401  0.4148  0.8140 -0.1677
  539MOL0     C74279   4.584   4.626  10.334 -0.3773 -0.5128  0.4189
  539MOL0     O74280   4.532   4.496  10.317  0.7189 -0.9145 -0.2376
  539MOL0     C74281   4.387   4.486  10.313 -0.7381  0.1398  0.4046
  539MOL0     C74282   4.339   4.339  10.275 -0.6934 -0.1356 -0.7088
  539MOL0     C74283   4.353   4.258  10.406 -0.4611 -0.4458 -0.6567
  539MOL0     C74284   4.295   4.125  10.378  0.1543 -1.0233 -0.2573
  539MOL0     C74285   4.352   4.031  10.489 -1.1906 -0.5586  0.8647
  539MOL0     C74286   4.263   3.911  10.505 -0.8528 -0.6617  0.2435
  539MOL0     C74287   4.296   3.839  10.637 -1.1326 -0.5217  0.4527
  539MOL0     C74288   4.237   3.699  10.635  0.6715  0.4852 -0.5032
  539MOL0    Cl74289   4.056   3.709  10.596  0.5432  0.3910 -0.2183
  539MOL0     C74290   4.693   4.649  10.242  0.7975 -0.0296  0.0197
  539MOL0     C74291   4.765   4.772  10.232  0.5813 -0.4985 -0.8800
  539MOL0     O74292   4.566   5.103  10.235  0.1232  0.4364 -1.7208
  539MOL0     C74293   4.878   5.244  10.167  1.0040  0.6552 -0.4809
  539MOL0     C74294   4.938   5.360  10.116 -1.2592 -0.4624 -0.5688
  539MOL0     N74295   4.658   5.937  10.208  0.2375 -0.4675 -0.1527
  539MOL0     N74296   4.581   6.010  10.279 -0.2445 -0.4686 -0.1500
  539MOL0     C74297   4.142   6.475  10.841 -0.2910 -0.5301 -1.1049
  539MOL0     C74298   4.210   6.484  10.971  0.5178  0.5592  0.2313
  539MOL0     C74299   4.400   6.322  11.328  0.3605 -0.0556  0.3170
  539MOL0     C74300   4.522   6.249  11.316  0.3163  0.5704 -0.4669
  539MOL0     C74301   4.602   6.223  11.427 -0.9547 -0.2202 -0.4700
  539MOL0     C74302   4.572   6.280  11.548  0.4479 -0.0636  0.8300
  539MOL0     O74303   4.648   6.259  11.659  0.3748 -0.5171 -0.0329
  539MOL0     C74304   4.722   6.132  11.684  0.4478  0.4335  0.6213
  539MOL0     C74305   4.770   6.103  11.817  0.2834 -1.0667 -0.2016
  539MOL0     C74306   4.859   5.984  11.828  0.6885  0.2569 -0.0226
  539MOL0     C74307   5.000   6.019  11.880  0.5525 -0.8681  0.2543
  539MOL0     C74308   5.079   6.078  11.773  0.0867  1.0570  0.4203
  539MOL0     C74309   5.159   6.104  11.689 -0.0174  0.0978  0.3859
  539MOL0     C74310   4.449   6.340  11.561 -0.7826  0.2602  0.0175
  539MOL0     C74311   4.361   6.357  11.461 -0.5219  0.0363  0.0512
  539MOL0     C74312   4.234   6.428  11.503 -0.0030 -0.1815  0.5391
  539MOL0     H74313   3.963   6.399  11.184 -1.6254 -1.2390 -1.3013
  539MOL0     H74314   3.854   6.353  10.980  1.2865 -0.5850  3.8933
  539MOL0     H74315   3.887   6.218  10.792  1.3099 -0.0710  1.3000
  539MOL0     H74316   4.051   6.223  10.724  0.5389  1.1038 -0.3278
  539MOL0     H74317   3.895   6.116  10.558 -1.8966 -0.0242 -2.0613
  539MOL0     H74318   3.767   6.228  10.605 -0.4821 -0.9333  1.3656
  539MOL0     H74319   3.865   6.280  10.386 -2.1407 -1.5698  2.0839
  539MOL0     H74320   3.916   6.415  10.481  0.8845 -0.0588  1.2494
  539MOL0     H74321   4.148   6.287  10.514 -1.0467 -0.0424 -0.1559
  539MOL0     H74322   4.088   6.169  10.403 -2.4425 -0.7467  2.4010
  539MOL0     H74323   4.079   6.447  10.318 -0.1233 -0.3964 -0.1030
  539MOL0     H74324   4.087   6.293  10.225  0.6943  1.2407 -0.8870
  539MOL0     H74325   4.309   6.414  10.203  1.8103  1.1775  0.9048
  539MOL0     H74326   4.321   6.431  10.369  0.2280 -1.0804  0.4674
  539MOL0     H74327   4.301   6.161  10.233  2.2856 -1.2771 -0.9817
  539MOL0     H74328   4.340   6.173  10.400  0.4356  0.1787  0.9137
  539MOL0     H74329   4.525   6.330  10.227  1.1062 -1.1009 -0.9216
  539MOL0     H74330   4.527   6.276  10.391  0.2982  3.4669 -0.2166
  539MOL0     H74331   4.671   6.229  10.053 -2.5636  1.3327 -0.5006
  539MOL0     H74332   4.784   6.069   9.923 -2.8509 -2.2745 -1.9518
  539MOL0     H74333   4.733   5.901   9.940  0.2977 -1.5165  1.0700
  539MOL0     H74334   5.001   6.032  10.007  0.2047  0.3208 -0.5334
  539MOL0     H74335   4.935   5.966  10.145 -0.2789  1.3038  0.5986
  539MOL0     H74336   4.985   5.839   9.869 -1.3918  2.3256  0.4435
  539MOL0     H74337   5.084   5.809  10.022  1.0709 -2.9366 -1.9946
  539MOL0     H74338   4.853   5.757  10.123 -1.3413  1.5753  0.1447
  539MOL0     H74339   4.806   5.693   9.968  1.8238 -1.2075 -2.3755
  539MOL0     H74340   4.702   5.586  10.185  3.6864  2.3127  0.4560
  539MOL0     H74341   4.528   5.485  10.318 -1.3577  0.1501 -2.0963
  539MOL0     H74342   4.538   5.316  10.368  2.6277  1.6966  0.8985
  539MOL0     H74343   4.454   5.360  10.213 -1.9329  2.0855 -0.2804
  539MOL0     H74344   4.573   4.940  10.452  0.6430  0.0371 -0.7824
  539MOL0     H74345   4.458   4.723  10.474  3.1790 -2.7236  2.7408
  539MOL0     H74346   4.338   4.515  10.407  1.4140 -0.1199  1.6735
  539MOL0     H74347   4.345   4.559  10.244 -1.7041 -0.0239  0.8009
  539MOL0     H74348   4.235   4.344  10.242 -0.1346  1.6335 -2.4121
  539MOL0     H74349   4.402   4.291  10.199  1.5287 -0.3273  1.1394
  539MOL0     H74350   4.321   4.305  10.500  0.7735  0.3063 -0.5860
  539MOL0     H74351   4.455   4.230  10.433 -2.3345 -5.3559  2.7527
  539MOL0     H74352   4.320   4.084  10.280 -0.2654  0.9173 -1.2303
  539MOL0     H74353   4.188   4.129  10.397  0.0724 -1.8995 -0.5215
  539MOL0     H74354   4.448   3.999  10.446 -2.2499 -1.4718 -0.9825
  539MOL0     H74355   4.381   4.080  10.582 -3.6945 -0.0387  1.4462
  539MOL0     H74356   4.285   3.849  10.418  3.2103  0.0813  0.5086
  539MOL0     H74357   4.159   3.943  10.503 -0.8978 -0.8076 -2.4416
  539MOL0     H74358   4.250   3.892  10.720 -1.8288  0.4138 -0.5165
  539MOL0     H74359   4.404   3.832  10.655 -1.7339 -0.4671  5.2370
  539MOL0     H74360   4.250   3.655  10.734  0.6622  0.3361 -0.5684
  539MOL0     H74361   4.279   3.620  10.573  2.0979  0.2237  0.7367
  539MOL0     H74362   4.732   4.570  10.179 -1.8716  1.7236 -4.1875
  539MOL0     H74363   4.850   4.785  10.166 -0.5864  1.2142 -2.1634
  539MOL0     H74364   4.930   5.149  10.163 -0.5624 -0.3034  0.7896
  539MOL0     H74365   5.034   5.353  10.065  0.0105  0.2563  1.5746
  539MOL0     H74366   4.181   6.489  10.741  1.6710 -0.7420 -0.4264
  539MOL0     H74367   4.314   6.513  10.960  0.2982  0.7554 -1.7182
  539MOL0     H74368   4.546   6.206  11.220 -0.0129 -0.2492 -0.1921
  539MOL0     H74369   4.692   6.162  11.421  1.2496  2.8326 -0.7281
  539MOL0     H74370   4.663   6.045  11.654  1.4102  0.2713 -0.9213
  539MOL0     H74371   4.811   6.121  11.622 -1.2265  2.8999 -2.5349
  539MOL0     H74372   4.692   6.106  11.893 -0.9676 -1.2782 -1.4414
  539MOL0     H74373   4.831   6.190  11.845  0.2687 -1.3391  0.6928
  539MOL0     H74374   4.805   5.916  11.895 -1.6827 -0.2595 -2.2646
  539MOL0     H74375   4.859   5.930  11.732 -0.7287  3.8440 -2.2482
  539MOL0     H74376   5.054   5.930  11.913  1.1322 -0.2307  1.0712
  539MOL0     H74377   5.004   6.094  11.960  3.8825  1.2519 -1.6692
  539MOL0     H74378   5.237   6.134  11.621 -0.3860  0.5957  0.1778
  539MOL0     H74379   4.435   6.384  11.660 -0.9215  4.1241 -1.5594
  539MOL0     H74380   4.247   6.535  11.489 -0.9656 -0.1140  0.1171
  539MOL0     H74381   4.148   6.393  11.447 -0.9022  0.8283  1.2534
  539MOL0     H74382   4.213   6.411  11.609 -2.9045 -1.0453 -0.1000
  540MOL0     O74383   4.909   9.568   9.272 -0.3587 -0.0241  0.0424
  540MOL0     C74384   4.785   9.583   9.281  0.1947  0.7634 -0.1614
  540MOL0     O74385   4.710   9.671   9.217  0.0067 -0.1194 -0.2026
  540MOL0     C74386   4.760   9.760   9.132 -0.2195  0.1178  0.0399
  540MOL0     C74387   4.840   9.866   9.161  0.8726  0.4331 -0.9758
  540MOL0     C74388   4.886   9.955   9.063  0.7486 -0.1534 -1.0242
  540MOL0     C74389   4.858   9.931   8.932  0.0677 -0.3654  0.4955
  540MOL0     O74390   4.911  10.012   8.834  0.2313  0.3934 -0.2274
  540MOL0     C74391   4.904   9.977   8.696  0.2882  0.2104 -0.2940
  540MOL0     C74392   4.997  10.064   8.620  0.4468 -0.6257  0.6092
  540MOL0     C74393   5.141  10.039   8.656 -0.4887 -0.1195 -0.4183
  540MOL0     C74394   5.226  10.109   8.557 -0.4397  1.0175 -0.7217
  540MOL0     C74395   5.362  10.131   8.616  0.3735  0.2060 -0.8572
  540MOL0     C74396   5.479  10.185   8.534 -0.6703 -0.0728  0.6956
  540MOL0     C74397   5.610  10.107   8.574  0.0923  0.4372  0.9919
  540MOL0     C74398   5.727  10.161   8.505  0.1233  0.5655 -0.6968
  540MOL0     N74399   5.741  10.092   8.380  0.8198  0.3315  0.3699
  540MOL0     C74400   5.666  10.116   8.269  0.5016  0.2590  0.1635
  540MOL0     C74401   5.669  10.006   8.195  0.0879  0.0070 -0.1353
  540MOL0     C74402   5.591   9.978   8.075  0.5108 -0.5595  0.1519
  540MOL0     C74403   5.668  10.011   7.940 -0.4920 -0.0908 -0.2148
  540MOL0     C74404   5.760  10.129   7.946  0.1212 -0.2463  0.5244
  540MOL0     C74405   5.692  10.269   7.948  0.0408 -0.0756  0.5300
  540MOL0     O74406   5.588  10.277   7.849 -0.0640 -0.1062 -0.5386
  540MOL0     C74407   5.618  10.334   7.729  0.0854  0.8875 -0.5289
  540MOL0     C74408   5.632  10.472   7.715  0.0885  0.6878 -0.5278
  540MOL0     C74409   5.667  10.533   7.587  1.4250  0.1616 -0.2558
  540MOL0     C74410   5.679  10.683   7.583 -0.2575 -0.2957 -0.7069
  540MOL0     C74411   5.680  10.448   7.477  0.6345  0.2140 -0.2402
  540MOL0     C74412   5.702  10.500   7.342  1.0824 -0.6520  0.8351
  540MOL0     O74413   5.821  10.477   7.273 -0.3060  0.3471 -0.3568
  540MOL0     C74414   5.824  10.497   7.132  0.2208 -0.3409  0.0777
  540MOL0     C74415   5.944  10.523   7.077 -0.9497  0.2677  0.5846
  540MOL0     C74416   5.962  10.545   6.938  1.4156  0.7551  1.2523
  540MOL0     C74417   5.853  10.551   6.851  0.2903  1.0018  0.4609
  540MOL0     O74418   5.861  10.535   6.716  0.9036 -0.4312 -0.0583
  540MOL0     C74419   5.994  10.532   6.647 -0.3159 -0.2541  0.9923
  540MOL0     C74420   5.972  10.481   6.505 -0.8843 -0.1036  0.8174
  540MOL0     C74421   5.886  10.561   6.409 -0.0204 -0.0192  0.1914
  540MOL0     C74422   5.838  10.459   6.304  0.3419 -0.3975 -0.0556
  540MOL0     C74423   5.755  10.525   6.192 -0.0380  1.0479  0.2326
  540MOL0     C74424   5.816  10.636   6.112  0.2748  0.7207  0.2812
  540MOL0     C74425   5.943  10.597   6.035 -0.2858  0.8283  1.4053
  540MOL0     C74426   5.914  10.546   5.886  0.1559 -0.1108 -0.0437
  540MOL0    Cl74427   5.834  10.384   5.892  0.0054  0.5055  0.2403
  540MOL0     C74428   5.729  10.519   6.913  0.3831  0.7972  0.5774
  540MOL0     C74429   5.711  10.496   7.048  0.8006  0.8501  0.0312
  540MOL0     O74430   5.603  10.560   7.295 -0.0995 -0.0560 -0.7871
  540MOL0     C74431   5.676  10.310   7.499 -0.7122 -0.4538  0.4381
  540MOL0     C74432   5.642  10.247   7.620 -0.6965 -0.4613 -1.0171
  540MOL0     N74433   5.759   9.916   8.256 -0.4251 -0.5102  0.0104
  540MOL0     N74434   5.787   9.959   8.370 -0.2938 -0.1415  0.2932
  540MOL0     C74435   4.778   9.822   8.903  0.6969 -0.0112 -0.1004
  540MOL0     C74436   4.733   9.730   9.000  0.1184 -0.0893 -0.7954
  540MOL0     C74437   4.717   9.478   9.367 -0.6391  0.7066  0.3518
  540MOL0     C74438   4.806   9.389   9.438 -0.0167 -0.2192  0.2718
  540MOL0     C74439   4.760   9.297   9.528 -0.8850 -0.0807 -0.2071
  540MOL0     C74440   4.632   9.286   9.558  0.3892 -0.6840  0.9544
  540MOL0     O74441   4.610   9.198   9.658  0.2944 -0.0150  0.1090
  540MOL0     C74442   4.482   9.206   9.727  0.9158  1.0194 -0.4574
  540MOL0     C74443   4.365   9.107   9.683 -0.8268 -0.2589  0.0172
  540MOL0     C74444   4.368   9.049   9.536 -0.4395  0.3266  0.0076
  540MOL0     C74445   4.430   8.906   9.542 -0.0117 -0.4745  0.9082
  540MOL0     C74446   4.358   8.806   9.626  0.6703 -0.1807 -0.0139
  540MOL0     C74447   4.298   8.722   9.697  1.5129 -1.2599  0.4824
  540MOL0     C74448   4.538   9.363   9.498  0.2465 -1.2933  0.7107
  540MOL0     C74449   4.577   9.452   9.391 -0.0461  0.2497 -0.7215
  540MOL0     C74450   4.469   9.522   9.323 -0.4500  0.5623 -0.4059
  540MOL0     H74451   4.875   9.873   9.264 -0.5589 -0.1246 -0.4290
  540MOL0     H74452   4.957  10.031   9.094  0.6241 -0.8325  1.0501
  540MOL0     H74453   4.806  10.009   8.659 -0.2173 -0.0895  0.7334
  540MOL0     H74454   4.920   9.871   8.674 -0.4599 -0.1251  0.6733
  540MOL0     H74455   4.968  10.048   8.516 -3.7070 -0.4588  1.5509
  540MOL0     H74456   4.978  10.168   8.645  0.7528 -0.2817 -0.5422
  540MOL0     H74457   5.164  10.078   8.756 -0.0040 -0.1378 -0.5206
  540MOL0     H74458   5.165   9.932   8.659 -0.7615 -0.1664  0.3284
  540MOL0     H74459   5.235  10.047   8.468 -0.1469 -1.2574  0.8130
  540MOL0     H74460   5.186  10.211   8.546 -1.6299  0.8754  1.6013
  540MOL0     H74461   5.389  10.028   8.644 -0.8776  0.0835  0.0321
  540MOL0     H74462   5.353  10.196   8.704  3.2483  0.2817 -0.5235
  540MOL0     H74463   5.445  10.181   8.430 -3.5449 -1.2819  1.5773
  540MOL0     H74464   5.509  10.287   8.560  1.6177  0.0659 -2.0259
  540MOL0     H74465   5.597  10.006   8.535 -0.6105  0.1633  1.9009
  540MOL0     H74466   5.642  10.107   8.679  0.5963 -1.1107  0.8587
  540MOL0     H74467   5.719  10.267   8.480 -2.6790  0.8941  1.1020
  540MOL0     H74468   5.815  10.139   8.567 -0.7289 -1.4823 -0.1245
  540MOL0     H74469   5.591  10.193   8.252 -0.8074 -0.8172  0.8438
  540MOL0     H74470   5.500  10.038   8.076  0.8150 -0.0896  0.8913
  540MOL0     H74471   5.553   9.875   8.079 -1.1556  0.0192 -0.2442
  540MOL0     H74472   5.725   9.920   7.919  0.3243  0.3802 -0.0554
  540MOL0     H74473   5.594  10.023   7.860 -0.7631 -0.6538 -0.0538
  540MOL0     H74474   5.844  10.123   8.015 -0.0632 -1.0840  0.6866
  540MOL0     H74475   5.804  10.127   7.845  2.2918  2.4341  1.3000
  540MOL0     H74476   5.648  10.278   8.048  0.8027  0.2859  0.8390
  540MOL0     H74477   5.762  10.351   7.928  1.7766 -1.3760  0.9917
  540MOL0     H74478   5.621  10.528   7.807  2.0614  0.8540 -0.3475
  540MOL0     H74479   5.583  10.729   7.610 -0.8494 -2.5691  1.4124
  540MOL0     H74480   5.707  10.723   7.486 -2.3199  2.7378 -0.2086
  540MOL0     H74481   5.747  10.711   7.664 -0.6620 -1.6556  0.1387
  540MOL0     H74482   6.036  10.510   7.132  0.2588 -3.6231 -1.9143
  540MOL0     H74483   6.062  10.563   6.899  0.5010 -1.8286 -2.9932
  540MOL0     H74484   6.033  10.634   6.650 -1.3677  0.1741  0.7313
  540MOL0     H74485   6.053  10.451   6.691  0.4499  0.0424  0.5251
  540MOL0     H74486   6.066  10.450   6.460 -1.9234 -1.9490 -0.2225
  540MOL0     H74487   5.934  10.380   6.522  2.3482 -1.7646 -0.9508
  540MOL0     H74488   5.946  10.646   6.373 -0.1205 -0.1099 -0.1973
  540MOL0     H74489   5.798  10.609   6.455  1.0879  0.5584  1.7796
  540MOL0     H74490   5.764  10.398   6.356 -1.1967  0.6130 -0.9781
  540MOL0     H74491   5.921  10.403   6.260 -1.7269 -2.1082 -1.9644
  540MOL0     H74492   5.718  10.448   6.123 -2.0913  1.6404  0.5889
  540MOL0     H74493   5.661  10.564   6.233  0.1471 -1.0050  2.8119
  540MOL0     H74494   5.850  10.714   6.181 -3.7437  2.6686  0.3564
  540MOL0     H74495   5.748  10.688   6.044 -0.4510 -0.0077  0.4334
  540MOL0     H74496   6.009  10.532   6.094  2.9395  1.8481 -0.8254
  540MOL0     H74497   6.005  10.687   6.028 -1.7093  1.7118 -1.9424
  540MOL0     H74498   6.013  10.525   5.845  0.0298 -0.9185  0.0379
  540MOL0     H74499   5.851  10.620   5.835  1.5788  0.1789 -1.4777
  540MOL0     H74500   5.644  10.499   6.849  1.7981 -3.6783 -0.2894
  540MOL0     H74501   5.608  10.480   7.080  0.6405  1.5766 -0.0946
  540MOL0     H74502   5.697  10.235   7.422 -0.3966 -0.1493  0.2250
  540MOL0     H74503   5.628  10.139   7.625 -0.5960 -0.4235  0.5117
  540MOL0     H74504   4.753   9.800   8.800 -0.4179  0.6125  0.0255
  540MOL0     H74505   4.678   9.643   8.966  2.8320 -2.1131 -0.3316
  540MOL0     H74506   4.914   9.388   9.426  0.0494 -1.0433  0.8857
  540MOL0     H74507   4.834   9.240   9.583 -2.0677 -0.2140  1.3182
  540MOL0     H74508   4.511   9.178   9.828 -0.7235  4.8921  1.2718
  540MOL0     H74509   4.447   9.310   9.725  3.2537  1.9283  1.3485
  540MOL0     H74510   4.266   9.153   9.694 -1.1930 -1.1807  0.7281
  540MOL0     H74511   4.369   9.036   9.767 -0.3199  3.0765  3.0440
  540MOL0     H74512   4.270   9.057   9.488 -0.1278  0.3504 -0.6327
  540MOL0     H74513   4.424   9.119   9.474  0.8210 -1.6288 -1.1740
  540MOL0     H74514   4.528   8.916   9.589 -0.4444  0.0186  1.7324
  540MOL0     H74515   4.443   8.880   9.437 -1.1301  1.0473  0.3519
  540MOL0     H74516   4.250   8.647   9.757 -3.5055 -1.3571 -3.0717
  540MOL0     H74517   4.432   9.352   9.518  0.2361 -0.5634  1.0744
  540MOL0     H74518   4.405   9.445   9.280  1.6859 -0.5456 -1.7991
  540MOL0     H74519   4.414   9.586   9.392 -1.9524 -2.1968  1.1285
  540MOL0     H74520   4.506   9.574   9.234  4.2886 -1.5271  0.0498
  541MOL0     O74521   8.031   1.302   6.351 -0.4051 -0.0680  0.4951
  541MOL0     C74522   8.127   1.223   6.331 -0.7978 -0.3340  0.1069
  541MOL0     O74523   8.213   1.178   6.424 -0.1277  0.4166 -0.5907
  541MOL0     C74524   8.164   1.163   6.551  0.8507 -0.9359  0.0559
  541MOL0     C74525   8.190   1.272   6.626 -0.3947 -0.1690 -0.8968
  541MOL0     C74526   8.162   1.278   6.765 -0.0896  0.9405  1.1607
  541MOL0     C74527   8.085   1.174   6.821 -0.4512  0.0312 -0.3366
  541MOL0     O74528   8.066   1.189   6.957 -0.1179 -0.0297 -0.4694
  541MOL0     C74529   8.074   1.080   7.040  0.1701  0.5958 -0.5979
  541MOL0     C74530   7.995   1.113   7.175 -0.3943 -0.3763  0.7319
  541MOL0     C74531   7.841   1.097   7.138  0.1742  0.3793  0.2627
  541MOL0     C74532   7.792   0.982   7.044  0.3134  0.2100  0.2938
  541MOL0     C74533   7.634   0.991   7.034 -0.2497 -0.0620  0.2376
  541MOL0     C74534   7.583   0.855   6.969 -1.0850  0.7940 -0.8765
  541MOL0     C74535   7.430   0.853   6.983  0.3941  0.2758 -0.2765
  541MOL0     C74536   7.366   0.952   6.885  0.0513  0.1724 -0.1654
  541MOL0     N74537   7.352   1.093   6.939  0.7835 -0.0178 -0.7652
  541MOL0     C74538   7.287   1.129   7.057 -0.0786  0.3944 -1.2541
  541MOL0     C74539   7.315   1.253   7.073  0.4513 -0.9962  0.4335
  541MOL0     C74540   7.269   1.331   7.195  0.7156 -0.5436  0.4576
  541MOL0     C74541   7.121   1.385   7.184 -0.4864 -0.1371  0.1231
  541MOL0     C74542   7.019   1.266   7.165  0.8446  0.1994  0.4326
  541MOL0     C74543   6.868   1.309   7.165  0.4890 -0.8479  0.8080
  541MOL0     O74544   6.853   1.424   7.237 -0.4877  0.0157  0.4360
  541MOL0     C74545   6.720   1.456   7.283 -0.9028  0.2709  0.2254
  541MOL0     C74546   6.611   1.440   7.205 -0.0548  0.2151  0.5024
  541MOL0     C74547   6.484   1.505   7.242  0.2009 -0.6352 -0.8625
  541MOL0     C74548   6.380   1.498   7.140  0.0648 -0.0228  0.0582
  541MOL0     C74549   6.483   1.590   7.358  0.1474 -0.6950 -0.1473
  541MOL0     C74550   6.375   1.685   7.383 -0.3911  0.3226  0.3840
  541MOL0     O74551   6.397   1.788   7.464  0.5149  0.1299 -0.6332
  541MOL0     C74552   6.292   1.854   7.533 -0.7505 -0.3087 -0.4290
  541MOL0     C74553   6.212   1.790   7.625 -0.3355  0.4069 -0.0324
  541MOL0     C74554   6.118   1.848   7.691  1.0806 -0.4093 -0.5377
  541MOL0     C74555   6.102   1.987   7.670  1.0561 -0.0462  0.7114
  541MOL0     O74556   6.000   2.057   7.722 -0.1875 -0.0037 -1.0396
  541MOL0     C74557   5.864   2.016   7.690  0.7337  0.3097  0.4195
  541MOL0     C74558   5.750   2.118   7.735 -0.4739  0.3577  0.1252
  541MOL0     C74559   5.749   2.151   7.887 -0.3851  0.6495 -0.4264
  541MOL0     C74560   5.629   2.247   7.915 -0.3358 -0.0643  0.1433
  541MOL0     C74561   5.623   2.296   8.059  0.0154  0.2185  0.2999
  541MOL0     C74562   5.623   2.188   8.167  0.2203 -0.3566  0.9569
  541MOL0     C74563   5.574   2.237   8.302 -0.0265  0.3902 -0.5816
  541MOL0     C74564   5.597   2.134   8.405 -0.1957 -0.1189  0.0865
  541MOL0    Cl74565   5.776   2.115   8.440 -0.0265 -0.1119 -0.2092
  541MOL0     C74566   6.181   2.053   7.573  0.4902  0.7581 -0.2570
  541MOL0     C74567   6.279   1.988   7.499 -0.0715  0.0962  0.1305
  541MOL0     O74568   6.260   1.657   7.335 -0.1895  0.1306 -0.8920
  541MOL0     C74569   6.595   1.583   7.445  0.3188 -0.2138 -0.2758
  541MOL0     C74570   6.710   1.518   7.401 -0.5759  0.1412  0.1758
  541MOL0     N74571   7.386   1.298   6.954 -0.0255  0.5408 -0.5866
  541MOL0     N74572   7.397   1.197   6.874 -0.7471 -0.5878 -0.8830
  541MOL0     C74573   8.048   1.066   6.741  0.3748 -0.2890  0.2072
  541MOL0     C74574   8.085   1.062   6.605 -0.1813 -0.2131 -0.2345
  541MOL0     C74575   8.138   1.159   6.194  0.3708 -0.2801 -0.3738
  541MOL0     C74576   8.185   1.032   6.194  0.3756  0.6163  0.4627
  541MOL0     C74577   8.208   0.966   6.080  0.9053  0.4262  0.1634
  541MOL0     C74578   8.176   1.026   5.959  0.5951 -0.0595 -0.0656
  541MOL0     O74579   8.204   0.957   5.847  0.5080 -0.4127  0.2466
  541MOL0     C74580   8.311   1.017   5.773  1.0101 -0.7392  0.3805
  541MOL0     C74581   8.437   0.942   5.810  1.0602 -0.4664 -0.6924
  541MOL0     C74582   8.479   0.827   5.728 -0.4878  0.5887  0.0272
  541MOL0     C74583   8.385   0.701   5.740 -0.4156  0.2747  0.7235
  541MOL0     C74584   8.344   0.642   5.872  0.4928 -0.4933  0.4687
  541MOL0     C74585   8.304   0.606   5.977 -0.2414  0.7591 -0.1566
  541MOL0     C74586   8.113   1.151   5.953 -1.0683 -0.9681  0.4748
  541MOL0     C74587   8.100   1.222   6.073 -0.3479 -1.3305  0.5181
  541MOL0     C74588   8.054   1.364   6.065 -0.6271  0.7607  0.6453
  541MOL0     H74589   8.262   1.345   6.590  1.4719 -1.1641  0.5666
  541MOL0     H74590   8.196   1.359   6.828  0.0494 -0.0027  2.3392
  541MOL0     H74591   8.182   1.075   7.061  0.3176 -4.2805 -1.4718
  541MOL0     H74592   8.032   0.989   6.997 -1.2310  1.5570 -1.3458
  541MOL0     H74593   8.029   1.049   7.257  1.6200  1.4075  1.3775
  541MOL0     H74594   8.014   1.218   7.199 -0.8718 -0.3572  1.0522
  541MOL0     H74595   7.790   1.086   7.234 -1.2241  0.3700 -0.4580
  541MOL0     H74596   7.808   1.193   7.097 -2.8607 -0.9535 -0.6756
  541MOL0     H74597   7.826   0.991   6.941 -1.5633 -1.3177 -0.5189
  541MOL0     H74598   7.815   0.886   7.091 -0.7121  0.2385  0.8959
  541MOL0     H74599   7.616   1.074   6.966  0.8588  0.5453  0.6647
  541MOL0     H74600   7.588   1.005   7.133  1.5977  1.9125  0.8919
  541MOL0     H74601   7.624   0.835   6.870  4.5418  2.2932  0.7534
  541MOL0     H74602   7.627   0.772   7.025  1.2468  1.0825 -2.1738
  541MOL0     H74603   7.402   0.875   7.086  1.0395  2.7706 -0.5665
  541MOL0     H74604   7.386   0.756   6.959 -1.1582  1.0723 -0.8294
  541MOL0     H74605   7.434   0.949   6.798  0.7594 -0.3388  0.3968
  541MOL0     H74606   7.265   0.917   6.862 -1.7047  1.8416  3.9757
  541MOL0     H74607   7.219   1.078   7.125 -1.7583  4.8371  0.8366
  541MOL0     H74608   7.342   1.412   7.206  2.0376 -1.7369  0.7435
  541MOL0     H74609   7.288   1.267   7.281 -0.6180 -1.4663  0.1024
  541MOL0     H74610   7.092   1.444   7.272 -1.2102  1.8254 -1.3306
  541MOL0     H74611   7.120   1.448   7.094  0.6252  0.8603  0.7813
  541MOL0     H74612   7.033   1.210   7.072  0.9023 -2.7854  2.0932
  541MOL0     H74613   7.024   1.196   7.250 -0.0671  2.2045  2.2252
  541MOL0     H74614   6.843   1.326   7.060 -1.4569  4.7153  1.8195
  541MOL0     H74615   6.809   1.225   7.202  1.2108 -2.5245 -1.6331
  541MOL0     H74616   6.616   1.386   7.111  1.8403 -1.4775  1.5045
  541MOL0     H74617   6.346   1.601   7.127  0.8284  0.6657  2.8208
  541MOL0     H74618   6.292   1.439   7.170 -0.0199 -1.5735 -2.9145
  541MOL0     H74619   6.423   1.464   7.045  3.4046 -3.2842  2.4307
  541MOL0     H74620   6.236   1.686   7.647  1.3210  0.4850 -1.2451
  541MOL0     H74621   6.064   1.796   7.769 -0.0741 -0.0387 -1.0560
  541MOL0     H74622   5.863   2.010   7.581  1.6608  1.6351  0.3093
  541MOL0     H74623   5.845   1.917   7.733 -0.6090  0.7999  1.0013
  541MOL0     H74624   5.765   2.211   7.680  0.4612 -0.8717 -1.8364
  541MOL0     H74625   5.654   2.081   7.696  0.6908 -0.6471 -1.9722
  541MOL0     H74626   5.842   2.197   7.919 -1.2522  1.6107  0.8284
  541MOL0     H74627   5.729   2.057   7.941 -0.7248  1.3222  0.6487
  541MOL0     H74628   5.535   2.192   7.903 -1.3555  1.1480  2.0291
  541MOL0     H74629   5.633   2.333   7.848  0.1131 -1.9130 -2.3493
  541MOL0     H74630   5.704   2.367   8.078 -0.7671  1.3544 -0.5550
  541MOL0     H74631   5.533   2.357   8.073  0.8596  2.0474 -1.7084
  541MOL0     H74632   5.718   2.140   8.194 -0.4606 -0.2992  3.7344
  541MOL0     H74633   5.553   2.115   8.126  0.7024  1.1523 -3.0989
  541MOL0     H74634   5.467   2.249   8.278  0.2614  1.5324 -1.4032
  541MOL0     H74635   5.616   2.335   8.323 -1.1782  1.3454 -2.4640
  541MOL0     H74636   5.546   2.044   8.370 -0.8477 -0.4715  1.8840
  541MOL0     H74637   5.549   2.177   8.493 -0.1723  0.4271 -0.1571
  541MOL0     H74638   6.167   2.158   7.551 -0.5614  0.7304  0.2394
  541MOL0     H74639   6.333   2.050   7.428  1.9590  1.6715  2.8525
  541MOL0     H74640   6.591   1.639   7.538 -2.4225  0.5799 -0.7795
  541MOL0     H74641   6.805   1.532   7.452  1.1756 -1.0467 -2.5443
  541MOL0     H74642   7.990   0.984   6.782  2.0655 -0.7820  1.7481
  541MOL0     H74643   8.098   0.974   6.542  0.1392  1.4586 -2.6419
  541MOL0     H74644   8.217   0.971   6.278  0.0306  0.0162  0.1635
  541MOL0     H74645   8.244   0.864   6.071  0.4395  0.3984 -1.9462
  541MOL0     H74646   8.290   1.015   5.666 -0.5175 -1.0367  0.6695
  541MOL0     H74647   8.319   1.125   5.792 -1.6932 -0.4935  0.5007
  541MOL0     H74648   8.449   0.917   5.916 -1.4391  0.5647 -0.0949
  541MOL0     H74649   8.508   1.023   5.794  1.4317 -0.6533 -0.0556
  541MOL0     H74650   8.468   0.868   5.627 -0.6327 -1.1984 -0.7102
  541MOL0     H74651   8.583   0.796   5.724 -1.0589 -1.3927 -3.5512
  541MOL0     H74652   8.445   0.625   5.690  0.2133  0.7626  0.7252
  541MOL0     H74653   8.293   0.718   5.683  1.0790 -0.5030 -2.0963
  541MOL0     H74654   8.268   0.575   6.073  0.7254 -1.3599 -0.4197
  541MOL0     H74655   8.107   1.199   5.855  2.2432  0.4412  0.8164
  541MOL0     H74656   7.970   1.384   6.132 -0.4008 -2.0712  1.9111
  541MOL0     H74657   8.138   1.430   6.089 -0.7406  0.9458  0.5400
  541MOL0     H74658   8.026   1.390   5.963  2.8018  1.3303 -0.2754
  542MOL0     O74659   7.786   0.888   4.914 -0.0005  0.6708 -0.0256
  542MOL0     C74660   7.707   0.912   4.828 -0.4010  0.1487  0.7463
  542MOL0     O74661   7.614   1.014   4.825 -0.2080 -0.5377  0.0961
  542MOL0     C74662   7.561   1.052   4.948 -0.4828  0.0580  0.1523
  542MOL0     C74663   7.521   0.970   5.056 -0.1418 -0.2693 -1.3416
  542MOL0     C74664   7.501   1.025   5.188  0.9850  0.3632 -0.7027
  542MOL0     C74665   7.489   1.166   5.211  0.0648  0.5411  0.0768
  542MOL0     O74666   7.468   1.200   5.341  0.9485  0.6526  0.4273
  542MOL0     C74667   7.441   1.333   5.367  0.0219 -0.6281  0.7345
  542MOL0     C74668   7.369   1.338   5.497 -0.5174  0.1891  0.1572
  542MOL0     C74669   7.365   1.483   5.559  0.9195  0.1865  0.5069
  542MOL0     C74670   7.264   1.576   5.492 -0.1753  0.9514 -0.2680
  542MOL0     C74671   7.257   1.716   5.552 -1.1058  0.3385  0.8544
  542MOL0     C74672   7.157   1.733   5.669 -0.0340  0.0993  0.5885
  542MOL0     C74673   7.119   1.879   5.683 -0.0274 -0.1343  0.6386
  542MOL0     C74674   7.030   1.907   5.804 -0.5419 -0.6666  0.5312
  542MOL0     N74675   6.907   1.826   5.787 -0.0319 -0.1291 -0.0020
  542MOL0     C74676   6.891   1.702   5.829  0.0939  0.2101  0.0716
  542MOL0     C74677   6.770   1.665   5.780  0.3967 -0.2276 -0.0308
  542MOL0     C74678   6.710   1.536   5.810  0.0094  0.7382  0.1885
  542MOL0     C74679   6.783   1.426   5.729 -0.7372  0.8510 -0.8877
  542MOL0     C74680   6.743   1.425   5.574 -0.0649  0.5305  0.5611
  542MOL0     C74681   6.821   1.313   5.496 -1.0061 -0.1192  0.5851
  542MOL0     O74682   6.770   1.185   5.529  0.3097  0.5218 -0.3841
  542MOL0     C74683   6.842   1.067   5.502  0.4248 -0.3073 -0.3266
  542MOL0     C74684   6.973   1.066   5.462 -0.6349  0.2842 -0.1166
  542MOL0     C74685   7.047   0.948   5.425  0.7184 -0.2788  0.1566
  542MOL0     C74686   7.191   0.966   5.381 -0.0568  0.6198  0.1133
  542MOL0     C74687   6.973   0.828   5.413 -1.1342  0.2284  0.2661
  542MOL0     C74688   7.030   0.706   5.361 -0.4189 -0.5768  0.2490
  542MOL0     O74689   6.943   0.634   5.283  0.3434  0.0650  0.0568
  542MOL0     C74690   6.991   0.508   5.258  0.1227 -0.4971  0.1562
  542MOL0     C74691   6.928   0.402   5.322  0.1124 -0.3119 -0.5710
  542MOL0     C74692   6.956   0.271   5.284 -0.0043 -0.1704 -0.1896
  542MOL0     C74693   7.069   0.247   5.203  0.9016 -0.2333  1.0832
  542MOL0     O74694   7.116   0.122   5.182  0.4199 -0.3909 -0.6871
  542MOL0     C74695   7.153   0.061   5.314  0.5593 -0.6176  0.2154
  542MOL0     C74696   7.276  -0.023   5.293  0.5231  0.0955 -0.4252
  542MOL0     C74697   7.245  -0.154   5.213 -1.2998  0.1463 -0.0115
  542MOL0     C74698   7.376  -0.236   5.189 -0.4346 -0.8707  0.1991
  542MOL0     C74699   7.334  -0.381   5.173 -0.1373 -0.4720  0.1353
  542MOL0     C74700   7.460  -0.449   5.115 -0.7336 -0.4791  0.1472
  542MOL0     C74701   7.466  -0.421   4.966  0.3395  0.4881  0.1957
  542MOL0     C74702   7.603  -0.391   4.909 -0.3183 -0.1855  0.0880
  542MOL0    Cl74703   7.692  -0.542   4.918  0.0382 -0.0579 -0.1114
  542MOL0     C74704   7.136   0.355   5.135 -0.3512  0.4691 -0.4746
  542MOL0     C74705   7.095   0.484   5.168 -0.3145 -0.5875 -0.1833
  542MOL0     O74706   7.148   0.685   5.389  0.0613  0.6006  0.5542
  542MOL0     C74707   6.833   0.833   5.445 -0.3311  0.4474 -1.0111
  542MOL0     C74708   6.776   0.946   5.504 -0.1857  0.4001  0.2828
  542MOL0     N74709   6.720   1.766   5.709  0.4630 -0.1538 -0.0055
  542MOL0     N74710   6.805   1.859   5.700  0.1198 -0.0370  0.1815
  542MOL0     C74711   7.519   1.241   5.099  0.0234  0.2096  0.9045
  542MOL0     C74712   7.557   1.190   4.975  0.2697  0.6208  0.5290
  542MOL0     C74713   7.733   0.842   4.702  0.3911 -0.5569 -0.4569
  542MOL0     C74714   7.780   0.707   4.703  1.5223  0.2794 -0.5226
  542MOL0     C74715   7.816   0.632   4.587 -0.6034 -0.9261 -0.0033
  542MOL0     C74716   7.805   0.693   4.462  0.2983 -0.6831  0.2466
  542MOL0     O74717   7.849   0.633   4.342 -0.4291 -0.3340 -0.1681
  542MOL0     C74718   7.877   0.488   4.350  0.1518  0.9432  0.4900
  542MOL0     C74719   7.753   0.407   4.366  1.1012  1.0248 -1.1311
  542MOL0     C74720   7.772   0.262   4.318  0.3610  0.7113  0.0348
  542MOL0     C74721   7.886   0.184   4.384  1.0942  0.2613 -0.4971
  542MOL0     C74722   7.894   0.210   4.527  0.7226  0.0619  0.9082
  542MOL0     C74723   7.881   0.234   4.641 -0.4351 -0.1262  1.3645
  542MOL0     C74724   7.769   0.828   4.463  0.0490 -0.1822  0.2809
  542MOL0     C74725   7.735   0.901   4.580  0.0407 -0.3676  0.0609
  542MOL0     C74726   7.682   1.042   4.557 -0.2913 -0.2267 -0.1620
  542MOL0     H74727   7.528   0.862   5.051  0.6835 -0.1836 -2.4472
  542MOL0     H74728   7.492   0.956   5.271  2.2253 -1.2596 -1.8533
  542MOL0     H74729   7.373   1.374   5.292  2.9749  1.6809 -0.9289
  542MOL0     H74730   7.537   1.385   5.373 -1.4630  2.4140  0.3517
  542MOL0     H74731   7.278   1.278   5.497  0.1927 -0.9259 -0.2228
  542MOL0     H74732   7.444   1.287   5.558  3.0456  2.2347 -2.1280
  542MOL0     H74733   7.323   1.463   5.658 -1.1791 -1.1196 -0.5676
  542MOL0     H74734   7.460   1.536   5.572  0.0110  2.0429 -0.1497
  542MOL0     H74735   7.298   1.590   5.388  1.0973  1.8428  0.2436
  542MOL0     H74736   7.168   1.525   5.483  1.2671 -1.7333 -2.3281
  542MOL0     H74737   7.227   1.785   5.473 -0.4052 -0.4696 -0.1417
  542MOL0     H74738   7.352   1.748   5.598 -1.2614 -0.1304  1.5141
  542MOL0     H74739   7.069   1.675   5.640  0.9887 -0.8062 -0.8765
  542MOL0     H74740   7.187   1.676   5.757 -2.2632 -3.1397 -0.5645
  542MOL0     H74741   7.074   1.926   5.595  1.1661  0.4685  0.3220
  542MOL0     H74742   7.202   1.949   5.700  1.8182 -1.2368 -2.8552
  542MOL0     H74743   7.085   1.875   5.893 -0.0398  0.0961  0.4971
  542MOL0     H74744   7.010   2.013   5.819  3.9885  0.3787  0.3803
  542MOL0     H74745   6.965   1.653   5.890 -0.0561  0.7476  0.6945
  542MOL0     H74746   6.602   1.547   5.793 -0.1613  1.5798  1.6353
  542MOL0     H74747   6.716   1.503   5.914  3.6592  0.5672  0.0544
  542MOL0     H74748   6.890   1.443   5.750 -1.3254  0.7853  2.9684
  542MOL0     H74749   6.755   1.331   5.774  0.7396  0.9907  0.4095
  542MOL0     H74750   6.637   1.413   5.550  0.3176 -3.6824  0.3248
  542MOL0     H74751   6.778   1.514   5.520  0.4799 -0.8321 -1.4660
  542MOL0     H74752   6.840   1.331   5.390  2.3545  3.4289  1.5700
  542MOL0     H74753   6.922   1.326   5.536 -0.9808 -1.3000  0.9401
  542MOL0     H74754   7.020   1.162   5.447  0.7015 -0.0501  1.6502
  542MOL0     H74755   7.252   0.958   5.471 -2.7576 -3.4672  1.9128
  542MOL0     H74756   7.198   1.065   5.335 -0.6037  0.5483 -0.1332
  542MOL0     H74757   7.231   0.903   5.302  1.0414 -1.4835  2.2273
  542MOL0     H74758   6.858   0.421   5.402  3.1652  0.3671  2.1599
  542MOL0     H74759   6.894   0.189   5.320  1.3984 -0.7446  1.0308
  542MOL0     H74760   7.166   0.147   5.380 -2.9660 -0.7563  1.2420
  542MOL0     H74761   7.073   0.004   5.362  0.6515  0.6777  1.9922
  542MOL0     H74762   7.356   0.034   5.243 -1.7089  1.2749 -2.8989
  542MOL0     H74763   7.319  -0.042   5.392 -1.0290  1.5469  0.5870
  542MOL0     H74764   7.201  -0.124   5.118  2.8388  2.2403 -1.5482
  542MOL0     H74765   7.170  -0.206   5.272 -0.2890  0.1246  1.3029
  542MOL0     H74766   7.431  -0.222   5.282  3.0490  4.3206 -2.1896
  542MOL0     H74767   7.438  -0.196   5.108  0.6371 -0.1086  1.3716
  542MOL0     H74768   7.304  -0.418   5.271  1.5159 -0.5939  0.6354
  542MOL0     H74769   7.247  -0.385   5.107 -1.0638  1.6305  1.1383
  542MOL0     H74770   7.445  -0.557   5.121  2.5852 -1.0552 -0.4707
  542MOL0     H74771   7.550  -0.425   5.172  0.5316  0.1832 -2.0140
  542MOL0     H74772   7.406  -0.338   4.930  0.5384 -0.4129 -2.4488
  542MOL0     H74773   7.427  -0.506   4.909  1.7170 -0.6765  0.8827
  542MOL0     H74774   7.656  -0.309   4.958 -3.0641  1.0431  1.1779
  542MOL0     H74775   7.594  -0.377   4.800 -1.9269 -0.2072  0.1952
  542MOL0     H74776   7.221   0.324   5.074 -0.2858  3.4561 -2.0514
  542MOL0     H74777   7.146   0.575   5.139 -1.8967  1.0861  1.9707
  542MOL0     H74778   6.783   0.738   5.429  2.1254 -0.6508 -2.8208
  542MOL0     H74779   6.670   0.946   5.530 -0.9081 -4.2731 -1.7628
  542MOL0     H74780   7.515   1.349   5.109 -2.3173  0.2150  0.5382
  542MOL0     H74781   7.563   1.257   4.890 -3.9518 -0.9516 -1.2635
  542MOL0     H74782   7.796   0.657   4.798 -0.4860 -0.8109 -0.7117
  542MOL0     H74783   7.831   0.525   4.597 -0.9357 -0.9230  0.5722
  542MOL0     H74784   7.920   0.463   4.253 -1.3502  1.7533 -0.4312
  542MOL0     H74785   7.959   0.469   4.419 -0.8945 -1.3625  1.1993
  542MOL0     H74786   7.673   0.456   4.310 -1.5422 -2.2544 -0.5542
  542MOL0     H74787   7.715   0.409   4.469  0.1879 -1.7831 -1.3274
  542MOL0     H74788   7.682   0.209   4.349  1.8461 -0.0434  3.5237
  542MOL0     H74789   7.783   0.248   4.210  0.9770  0.4080  0.1270
  542MOL0     H74790   7.979   0.223   4.341  1.4453 -0.4739 -0.4193
  542MOL0     H74791   7.893   0.079   4.354  1.4844 -0.4918  2.0189
  542MOL0     H74792   7.885   0.265   4.744  1.9318  2.8650  0.5466
  542MOL0     H74793   7.765   0.891   4.374 -1.8464  0.0748  0.5087
  542MOL0     H74794   7.669   1.067   4.452 -0.7944  1.0248  0.1726
  542MOL0     H74795   7.589   1.064   4.612  0.6553  0.6936  1.1523
  542MOL0     H74796   7.755   1.114   4.596  0.4733 -1.9480  1.7788
  543MOL0     O74797   7.845   0.701   1.854  0.2970  0.7404  0.0285
  543MOL0     C74798   7.789   0.786   1.788  0.7048  0.1439 -0.1374
  543MOL0     O74799   7.841   0.909   1.745  0.2350  0.2208 -0.0370
  543MOL0     C74800   7.973   0.948   1.746  0.1115  0.0185  1.1180
  543MOL0     C74801   8.005   1.086   1.759 -1.2807 -0.5916 -0.0472
  543MOL0     C74802   8.137   1.132   1.756  0.0878  0.5095  0.2984
  543MOL0     C74803   8.238   1.038   1.742 -0.1427  0.3099 -0.0700
  543MOL0     O74804   8.372   1.089   1.730 -0.4475  0.4416  0.2238
  543MOL0     C74805   8.468   1.004   1.678 -1.3271  0.4318 -0.2601
  543MOL0     C74806   8.500   1.030   1.526 -0.3152 -0.2370 -0.0157
  543MOL0     C74807   8.610   1.141   1.514  0.2976  0.4281 -0.9317
  543MOL0     C74808   8.579   1.274   1.575  0.0975  0.0906  0.4772
  543MOL0     C74809   8.455   1.338   1.505  0.2284 -0.6562  0.0923
  543MOL0     C74810   8.407   1.474   1.569 -0.7838 -0.1219  0.5263
  543MOL0     C74811   8.280   1.528   1.503  0.1754 -0.2598  0.2847
  543MOL0     C74812   8.308   1.642   1.406  0.0070 -0.2437  0.3194
  543MOL0     N74813   8.388   1.755   1.454 -1.1167  0.0764  0.3523
  543MOL0     C74814   8.357   1.839   1.560  0.3823  0.6580  0.2336
  543MOL0     C74815   8.451   1.936   1.548  0.1168 -0.2791 -0.8215
  543MOL0     C74816   8.441   2.051   1.645 -0.3660  0.4574  1.7643
  543MOL0     C74817   8.579   2.110   1.662 -0.0635 -0.5562  0.4229
  543MOL0     C74818   8.578   2.240   1.746  0.6132  1.0104 -0.6009
  543MOL0     C74819   8.706   2.308   1.768 -0.5256  0.3250 -0.2017
  543MOL0     O74820   8.807   2.220   1.825 -0.4461  0.1578  0.6725
  543MOL0     C74821   8.942   2.263   1.829  0.5984  0.3844 -0.3508
  543MOL0     C74822   8.983   2.398   1.825 -0.1629  0.5606  1.1008
  543MOL0     C74823   9.116   2.438   1.838  1.0990  0.2539 -0.6812
  543MOL0     C74824   9.140   2.592   1.855 -0.5656  0.5748  0.2217
  543MOL0     C74825   9.215   2.340   1.850 -0.4890  0.3901  0.2022
  543MOL0     C74826   9.351   2.370   1.908 -0.0977  0.0702 -0.6377
  543MOL0     O74827   9.441   2.266   1.907 -0.9049  0.3274  0.1999
  543MOL0     C74828   9.573   2.294   1.915  0.3078 -0.2971 -0.5322
  543MOL0     C74829   9.630   2.244   2.031  0.0066 -0.1675  0.1785
  543MOL0     C74830   9.768   2.251   2.052  0.1790 -0.8699 -0.1937
  543MOL0     C74831   9.855   2.313   1.954  0.7999 -0.2646 -0.2907
  543MOL0     O74832   9.989   2.315   1.976  0.2886  0.2552  0.0257
  543MOL0     C74833  10.023   2.440   2.042 -0.0293 -0.6676  0.3302
  543MOL0     C74834  10.153   2.481   1.986  1.2051 -0.8001 -0.3480
  543MOL0     C74835  10.259   2.374   2.025 -0.5233  0.2700 -1.1910
  543MOL0     C74836  10.402   2.429   1.999  0.1385 -0.2984 -0.2707
  543MOL0     C74837  10.508   2.319   2.030 -0.4512 -0.5993 -0.2018
  543MOL0     C74838  10.652   2.371   1.988 -0.1776 -0.6180  0.1820
  543MOL0     C74839  10.762   2.293   2.069 -0.1798  0.0225 -0.1206
  543MOL0     C74840  10.889   2.279   1.989 -0.3856  0.1129 -0.0670
  543MOL0    Cl74841  11.011   2.197   2.095  0.1070  0.3320  0.3480
  543MOL0     C74842   9.793   2.368   1.842 -0.2078  1.1319  0.2195
  543MOL0     C74843   9.655   2.346   1.818  0.0347 -0.9936 -0.9081
  543MOL0     O74844   9.378   2.486   1.944  0.0609 -0.2290  0.7919
  543MOL0     C74845   9.169   2.208   1.853 -0.9193 -0.3386  0.6701
  543MOL0     C74846   9.036   2.166   1.843  0.2089  0.2493 -0.5194
  543MOL0     N74847   8.539   1.912   1.438  0.5122  0.5952 -0.1382
  543MOL0     N74848   8.495   1.795   1.387 -0.3618  0.6528  0.6470
  543MOL0     C74849   8.211   0.899   1.729  1.0909  0.3344 -0.1099
  543MOL0     C74850   8.072   0.857   1.724 -0.6105  0.5879  0.0819
  543MOL0     C74851   7.649   0.756   1.772 -0.6097 -0.3957 -0.8511
  543MOL0     C74852   7.608   0.626   1.741  0.8231 -0.0292  0.3486
  543MOL0     C74853   7.475   0.594   1.721  0.0045 -0.4369 -0.1633
  543MOL0     C74854   7.376   0.689   1.715 -0.1504 -0.1578 -0.1910
  543MOL0     O74855   7.241   0.663   1.716  0.1161  0.1459  0.2325
  543MOL0     C74856   7.182   0.550   1.663 -0.0598  0.2639 -0.2530
  543MOL0     C74857   7.031   0.583   1.652  0.8964  0.2711 -0.2301
  543MOL0     C74858   6.956   0.595   1.786 -1.0408 -0.0216 -1.0497
  543MOL0     C74859   6.803   0.642   1.772  0.7914  0.2811 -0.0732
  543MOL0     C74860   6.724   0.544   1.687  0.9285  0.0701 -0.3563
  543MOL0     C74861   6.648   0.468   1.637  0.9325  0.4533  0.3870
  543MOL0     C74862   7.415   0.820   1.749  0.5380  0.2810 -0.6109
  543MOL0     C74863   7.549   0.857   1.783  0.2412  0.2980  0.2099
  543MOL0     C74864   7.574   0.988   1.853 -0.1570  0.4111 -0.3434
  543MOL0     H74865   7.924   1.155   1.781  0.9732  2.6998 -1.2318
  543MOL0     H74866   8.148   1.239   1.761 -1.9221  0.9609 -2.7763
  543MOL0     H74867   8.452   0.898   1.701  0.3691  0.1769 -0.1223
  543MOL0     H74868   8.556   1.030   1.736 -0.6584  0.6434 -1.3466
  543MOL0     H74869   8.550   0.944   1.481  1.0478  1.2744 -1.5169
  543MOL0     H74870   8.410   1.045   1.465 -1.7258 -0.3005  1.9449
  543MOL0     H74871   8.700   1.104   1.563  1.5506  3.4081 -0.7471
  543MOL0     H74872   8.634   1.153   1.408  1.5184  1.0057 -0.6017
  543MOL0     H74873   8.551   1.264   1.680 -0.4258 -0.8959  0.2559
  543MOL0     H74874   8.666   1.338   1.557  0.1721 -0.6035 -2.0710
  543MOL0     H74875   8.369   1.274   1.526 -0.6637 -0.1010 -1.6483
  543MOL0     H74876   8.464   1.345   1.396 -0.2071  1.7987  0.1441
  543MOL0     H74877   8.405   1.472   1.679  0.2028  2.8568  0.6972
  543MOL0     H74878   8.492   1.542   1.557 -0.6159 -0.1072  1.6392
  543MOL0     H74879   8.206   1.549   1.582 -0.3274 -1.0241  0.0282
  543MOL0     H74880   8.235   1.441   1.455 -0.6223 -0.6476  1.6577
  543MOL0     H74881   8.363   1.595   1.324 -0.8308 -0.0415 -0.3805
  543MOL0     H74882   8.214   1.677   1.362  1.0088 -1.7984 -3.4368
  543MOL0     H74883   8.282   1.837   1.638  1.6004 -1.3713  1.4179
  543MOL0     H74884   8.404   2.004   1.737  0.1960 -2.6774  0.5179
  543MOL0     H74885   8.371   2.127   1.609  0.0845 -0.0147 -0.1876
  543MOL0     H74886   8.643   2.039   1.714  0.4367  0.5713  1.3948
  543MOL0     H74887   8.615   2.128   1.560  2.1378  0.2815  1.2842
  543MOL0     H74888   8.516   2.318   1.700 -0.4469 -0.4887 -1.8261
  543MOL0     H74889   8.542   2.216   1.846 -0.6249  0.3398 -1.1849
  543MOL0     H74890   8.743   2.355   1.677 -0.5881  0.9508  0.0859
  543MOL0     H74891   8.692   2.385   1.845  1.7502  0.4332  0.1988
  543MOL0     H74892   8.908   2.474   1.808  0.9967  1.2404 -1.5709
  543MOL0     H74893   9.045   2.644   1.838  0.0716  1.1196 -1.8565
  543MOL0     H74894   9.218   2.627   1.788  1.8068  0.8545  2.9322
  543MOL0     H74895   9.178   2.611   1.956  1.0988 -1.8356  0.1461
  543MOL0     H74896   9.562   2.198   2.102  1.4851 -2.5571  0.1796
  543MOL0     H74897   9.814   2.210   2.141 -0.9294  2.1711  1.9740
  543MOL0     H74898   9.948   2.518   2.027  0.5596 -0.2564 -0.5869
  543MOL0     H74899  10.041   2.437   2.150  6.3688  2.2389 -0.1666
  543MOL0     H74900  10.148   2.490   1.877 -0.9376 -4.1506 -0.6570
  543MOL0     H74901  10.189   2.576   2.028  1.2807 -1.8231  2.0071
  543MOL0     H74902  10.244   2.280   1.972 -2.1203  0.3581 -0.9376
  543MOL0     H74903  10.254   2.369   2.135 -1.3593  2.4279 -1.0833
  543MOL0     H74904  10.412   2.516   2.064  1.0103 -0.1486 -0.5837
  543MOL0     H74905  10.415   2.459   1.895  3.9778  1.6715  0.5961
  543MOL0     H74906  10.507   2.307   2.139 -0.2950 -2.2655 -0.3495
  543MOL0     H74907  10.494   2.227   1.973 -2.1374  1.2475 -3.0175
  543MOL0     H74908  10.669   2.478   1.999 -3.4197  0.0853 -0.6885
  543MOL0     H74909  10.657   2.344   1.882 -1.7912 -0.1659 -0.0361
  543MOL0     H74910  10.736   2.188   2.087 -0.1882 -0.0654 -0.6115
  543MOL0     H74911  10.779   2.356   2.157 -0.8011 -0.0874  0.0791
  543MOL0     H74912  10.925   2.379   1.961  1.4886 -0.0575  1.5357
  543MOL0     H74913  10.869   2.222   1.898 -0.8527 -0.9663  0.7020
  543MOL0     H74914   9.855   2.412   1.764  0.0803  1.2027  0.4875
  543MOL0     H74915   9.624   2.368   1.716 -0.1346  0.1538 -0.6214
  543MOL0     H74916   9.249   2.136   1.867  0.1387  0.6049 -0.2889
  543MOL0     H74917   9.007   2.063   1.859  0.3528  0.5525  2.2312
  543MOL0     H74918   8.286   0.820   1.724 -0.2580 -0.9415 -1.2853
  543MOL0     H74919   8.046   0.756   1.696  0.7637  0.0552  0.5987
  543MOL0     H74920   7.675   0.543   1.722  1.1452  0.8708 -2.9243
  543MOL0     H74921   7.468   0.487   1.707  2.1127 -0.7277  0.7462
  543MOL0     H74922   7.230   0.514   1.571 -0.2228 -1.9267  0.4661
  543MOL0     H74923   7.190   0.460   1.724  1.1749 -0.6746 -1.7277
  543MOL0     H74924   6.989   0.502   1.593  1.1767 -1.1312  1.4136
  543MOL0     H74925   7.016   0.677   1.597 -2.5445  1.3968  2.2363
  543MOL0     H74926   6.959   0.498   1.836  2.1508  0.5974  0.2035
  543MOL0     H74927   7.004   0.670   1.849  0.2026 -0.8429 -1.0028
  543MOL0     H74928   6.799   0.737   1.718 -1.3785  0.6141  0.5638
  543MOL0     H74929   6.755   0.657   1.869 -2.5686  0.0197 -1.5644
  543MOL0     H74930   6.577   0.393   1.608 -0.8095  2.1899 -0.1408
  543MOL0     H74931   7.336   0.895   1.755  2.0167  1.8260  0.6084
  543MOL0     H74932   7.654   0.975   1.927  0.1688 -3.6779 -1.1885
  543MOL0     H74933   7.605   1.070   1.788  1.0900  1.5459  1.5939
  543MOL0     H74934   7.481   1.017   1.903 -0.3043 -1.8694  0.8388
  544MOL0     O74935   9.482   3.795  11.216 -0.2235  0.4571  0.1947
  544MOL0     C74936   9.475   3.747  11.327  0.3811  0.4567 -0.3602
  544MOL0     O74937   9.361   3.739  11.401 -0.3412 -0.2331 -0.2909
  544MOL0     C74938   9.242   3.789  11.346 -0.3190 -0.6091 -0.8511
  544MOL0     C74939   9.185   3.893  11.411  0.7345 -0.3332 -0.0566
  544MOL0     C74940   9.059   3.946  11.378 -0.3911 -0.2997  0.5008
  544MOL0     C74941   8.983   3.888  11.272 -0.7012  0.4320  0.3436
  544MOL0     O74942   8.865   3.920  11.227 -0.4111  0.6895 -0.4261
  544MOL0     C74943   8.804   4.048  11.266 -0.3009 -0.2283 -0.2962
  544MOL0     C74944   8.684   4.071  11.178  0.1503  0.3771  0.3320
  544MOL0     C74945   8.606   4.198  11.226 -0.7786  0.3081  0.1598
  544MOL0     C74946   8.457   4.196  11.186  0.7958 -0.9030 -0.4166
  544MOL0     C74947   8.360   4.316  11.242 -0.2052 -0.1595 -0.2725
  544MOL0     C74948   8.365   4.334  11.388 -0.2151  0.5302 -0.2450
  544MOL0     C74949   8.302   4.220  11.470 -0.6500 -1.0341 -1.0287
  544MOL0     C74950   8.268   4.268  11.615 -0.1533 -0.3407 -0.3162
  544MOL0     N74951   8.389   4.287  11.695 -0.7202  0.3066 -0.6494
  544MOL0     C74952   8.482   4.190  11.728  0.8194 -0.0899 -0.0854
  544MOL0     C74953   8.577   4.256  11.799 -0.2798 -0.9182 -0.5527
  544MOL0     C74954   8.698   4.199  11.859 -0.4149 -0.8252  0.0140
  544MOL0     C74955   8.813   4.192  11.753 -0.0732 -0.3084  0.2219
  544MOL0     C74956   8.845   4.328  11.671  0.1872  0.1049 -0.6595
  544MOL0     C74957   8.956   4.309  11.575 -0.2617 -0.0170 -0.2752
  544MOL0     O74958   9.074   4.242  11.643 -0.0269  0.5131  0.0512
  544MOL0     C74959   9.200   4.217  11.602 -1.5756 -0.3804  0.7638
  544MOL0     C74960   9.306   4.181  11.692  0.2157  0.4838  0.0519
  544MOL0     C74961   9.440   4.163  11.656  1.5572 -0.5552  0.8595
  544MOL0     C74962   9.529   4.154  11.767 -0.2171 -0.4688  0.1833
  544MOL0     C74963   9.470   4.166  11.520 -0.2520 -0.0731  0.7832
  544MOL0     C74964   9.600   4.144  11.473 -0.5299  0.3105  0.1271
  544MOL0     O74965   9.671   4.046  11.548 -0.0065  0.2621  0.0265
  544MOL0     C74966   9.793   4.013  11.499 -0.9756 -0.8970 -0.4369
  544MOL0     C74967   9.811   3.980  11.363 -0.1585  0.1700 -0.6820
  544MOL0     C74968   9.934   3.940  11.318 -0.2984 -0.4246 -0.1338
  544MOL0     C74969  10.044   3.946  11.405 -0.5887  0.5302 -1.2296
  544MOL0     O74970  10.169   3.907  11.374 -0.2091  0.1054 -0.6528
  544MOL0     C74971  10.187   3.798  11.280 -0.4137  0.3645 -0.9128
  544MOL0     C74972  10.253   3.843  11.148  0.0064 -0.3466  0.4064
  544MOL0     C74973  10.264   3.728  11.046 -0.0100 -0.6772 -0.2634
  544MOL0     C74974  10.366   3.617  11.086 -0.2756 -0.3580 -0.3718
  544MOL0     C74975  10.411   3.538  10.955  1.1696  0.8789  0.3056
  544MOL0     C74976  10.546   3.464  10.986 -0.5626 -0.2806 -0.3790
  544MOL0     C74977  10.540   3.354  11.093  0.6175  0.3394  0.1940
  544MOL0     C74978  10.651   3.250  11.074 -0.4047  0.5945  0.1086
  544MOL0    Cl74979  10.808   3.338  11.066  0.0088 -0.0788  0.4379
  544MOL0     C74980  10.027   3.996  11.534  0.4320  0.8641 -0.2797
  544MOL0     C74981   9.900   4.023  11.586 -0.6929 -0.3327  0.4417
  544MOL0     O74982   9.640   4.212  11.374  0.1643  0.3850 -0.0055
  544MOL0     C74983   9.370   4.193  11.419  0.6358  0.8302 -0.1295
  544MOL0     C74984   9.236   4.218  11.463 -0.6383  0.0697 -0.7551
  544MOL0     N74985   8.543   4.390  11.826  0.1183 -0.2891 -0.5968
  544MOL0     N74986   8.424   4.400  11.764  0.4803  0.1504 -0.3689
  544MOL0     C74987   9.040   3.780  11.204  0.1365 -1.0398  0.5455
  544MOL0     C74988   9.174   3.743  11.231 -0.3464  0.1711  0.0457
  544MOL0     C74989   9.593   3.674  11.390  0.0195 -0.0791  0.3697
  544MOL0     C74990   9.717   3.677  11.321  0.4343  0.4311 -0.2746
  544MOL0     C74991   9.834   3.620  11.376 -0.0736  0.0024  0.0050
  544MOL0     C74992   9.834   3.585  11.509 -0.7532 -0.2907 -1.1374
  544MOL0     O74993   9.956   3.558  11.570 -0.1174 -1.0894  0.5036
  544MOL0     C74994   9.986   3.596  11.705  0.4074 -0.1623  0.5447
  544MOL0     C74995  10.146   3.582  11.719  0.3636  0.2801 -0.7058
  544MOL0     C74996  10.183   3.439  11.753  0.9207 -0.1491  0.1423
  544MOL0     C74997  10.319   3.407  11.707  0.0521 -0.3564  0.1529
  544MOL0     C74998  10.338   3.397  11.561 -0.3740 -0.2243  0.7074
  544MOL0     C74999  10.348   3.369  11.444  0.1927 -0.8968  0.7259
  544MOL0     C75000   9.723   3.599  11.582  0.9707  0.1096  0.8844
  544MOL0     C75001   9.602   3.630  11.524 -0.3724  0.0604  0.0587
  544MOL0     C75002   9.492   3.633  11.621 -0.0658 -0.5478 -0.2464
  544MOL0     H75003   9.251   3.924  11.491 -0.6071  1.9372  0.2553
  544MOL0     H75004   9.025   4.030  11.437  1.7828  3.2070 -2.7916
  544MOL0     H75005   8.865   4.139  11.266 -1.0008  0.4796  4.0821
  544MOL0     H75006   8.772   4.043  11.370  2.2984 -0.0769  0.6022
  544MOL0     H75007   8.723   4.087  11.077  2.6144 -0.8164  1.0329
  544MOL0     H75008   8.617   3.985  11.180  0.0292  0.2922  5.4699
  544MOL0     H75009   8.608   4.201  11.336  4.6267  2.4378  0.2934
  544MOL0     H75010   8.650   4.294  11.196  3.2301 -0.6471  2.2183
  544MOL0     H75011   8.450   4.202  11.077 -0.3054  1.0316 -0.2879
  544MOL0     H75012   8.421   4.098  11.219  1.4510 -0.6902  1.0243
  544MOL0     H75013   8.263   4.295  11.195  0.2578 -0.6770 -1.0080
  544MOL0     H75014   8.397   4.408  11.196  1.3564 -1.1623 -1.0745
  544MOL0     H75015   8.467   4.342  11.428  0.0723 -1.6364 -0.4123
  544MOL0     H75016   8.305   4.420  11.417  0.0212 -0.1887  2.7263
  544MOL0     H75017   8.366   4.131  11.471 -1.3749 -1.5645 -0.9075
  544MOL0     H75018   8.211   4.182  11.423 -0.7497 -0.8493 -0.9845
  544MOL0     H75019   8.214   4.363  11.606  1.4958  0.4908 -2.5101
  544MOL0     H75020   8.206   4.197  11.670 -0.5575 -0.1127 -0.4735
  544MOL0     H75021   8.465   4.086  11.705 -0.1783 -0.0630  0.4824
  544MOL0     H75022   8.672   4.096  11.886 -1.3670 -0.5478  0.1965
  544MOL0     H75023   8.718   4.260  11.948 -1.3351  0.5187 -0.6707
  544MOL0     H75024   8.906   4.152  11.794 -0.2591 -0.4214  0.5360
  544MOL0     H75025   8.774   4.121  11.680  2.3525 -1.1599 -0.3493
  544MOL0     H75026   8.759   4.365  11.615 -0.6833  0.3681  0.7844
  544MOL0     H75027   8.872   4.406  11.742  2.9728  0.4874 -2.0125
  544MOL0     H75028   8.921   4.242  11.497  2.6788 -0.8318 -1.0427
  544MOL0     H75029   8.992   4.406  11.539  1.7924 -0.5681  0.1664
  544MOL0     H75030   9.274   4.180  11.796  1.1817 -0.7513  0.3723
  544MOL0     H75031   9.551   4.051  11.797  1.4018 -0.2132 -0.0299
  544MOL0     H75032   9.503   4.220  11.850  0.1171  2.2515 -1.7364
  544MOL0     H75033   9.620   4.204  11.733 -1.7957  1.8286 -0.9540
  544MOL0     H75034   9.721   3.993  11.303 -0.6792  4.5797  0.7270
  544MOL0     H75035   9.941   3.907  11.215  0.5919  1.7858 -0.8526
  544MOL0     H75036  10.247   3.721  11.330 -0.5009  0.4602 -0.6573
  544MOL0     H75037  10.093   3.749  11.255  0.3124 -2.1825  0.8823
  544MOL0     H75038  10.196   3.931  11.117  0.7100  0.5761  1.6502
  544MOL0     H75039  10.351   3.885  11.173 -1.1918  3.5937 -0.8620
  544MOL0     H75040  10.287   3.782  10.953 -0.5432  2.5699  1.3328
  544MOL0     H75041  10.167   3.680  11.026  0.4877 -0.4413 -3.8551
  544MOL0     H75042  10.327   3.562  11.172 -0.3286  1.2659  0.6949
  544MOL0     H75043  10.451   3.664  11.136 -2.7327  1.8656  2.0803
  544MOL0     H75044  10.329   3.470  10.928  1.8102  0.3054 -0.2310
  544MOL0     H75045  10.422   3.610  10.872  3.7174 -0.0230 -0.2242
  544MOL0     H75046  10.624   3.532  11.020 -2.2544  0.0282  3.3856
  544MOL0     H75047  10.586   3.422  10.893  2.9459  0.7105  0.5309
  544MOL0     H75048  10.443   3.304  11.087  0.0101  1.2402  1.8147
  544MOL0     H75049  10.555   3.391  11.195  2.2873 -2.1903  0.9416
  544MOL0     H75050  10.642   3.191  10.982  5.1141  1.0390 -1.0882
  544MOL0     H75051  10.646   3.180  11.157 -2.9324 -1.7195 -1.8053
  544MOL0     H75052  10.115   3.995  11.598 -1.0987 -0.3510  1.9610
  544MOL0     H75053   9.896   4.056  11.690 -0.8428  1.2532 -0.0390
  544MOL0     H75054   9.404   4.182  11.316 -0.6418 -0.1008 -0.4882
  544MOL0     H75055   9.150   4.243  11.401  1.8800  1.5217 -3.9637
  544MOL0     H75056   8.994   3.735  11.117  3.2633  3.9034 -4.3942
  544MOL0     H75057   9.220   3.667  11.168 -1.8122  1.1050 -2.2652
  544MOL0     H75058   9.733   3.737  11.232 -1.0837  1.9160  0.4195
  544MOL0     H75059   9.925   3.626  11.317 -1.0702  0.4126 -1.5635
  544MOL0     H75060   9.959   3.701  11.721 -1.4684 -0.8711  2.5796
  544MOL0     H75061   9.928   3.536  11.775 -0.0829  0.6570  0.8522
  544MOL0     H75062  10.183   3.649  11.797  0.1694  1.9889 -2.0171
  544MOL0     H75063  10.187   3.617  11.624 -0.8621 -1.0495 -1.7612
  544MOL0     H75064  10.183   3.436  11.862 -0.9264 -2.6004  0.1628
  544MOL0     H75065  10.119   3.362  11.710  1.0335  1.2412 -2.7540
  544MOL0     H75066  10.334   3.306  11.745 -0.9758 -0.1681  1.1420
  544MOL0     H75067  10.400   3.469  11.747  0.4060 -0.8282  0.1668
  544MOL0     H75068  10.345   3.350  11.338  2.2006  1.9744  0.0375
  544MOL0     H75069   9.740   3.548  11.676  0.8201  0.0602  0.8847
  544MOL0     H75070   9.528   3.606  11.720 -1.1444 -1.8914 -0.1820
  544MOL0     H75071   9.458   3.736  11.630  0.4189 -0.4074  0.0235
  544MOL0     H75072   9.418   3.558  11.592 -2.3952  0.6744  2.1872
  545MOL0     O75073   1.346   3.924   2.020  0.0259 -0.6889 -0.5080
  545MOL0     C75074   1.267   4.009   2.051 -0.3125 -0.0758  1.1330
  545MOL0     O75075   1.215   4.030   2.170  0.2581 -0.8772 -0.2320
  545MOL0     C75076   1.276   3.970   2.272 -1.0321  0.6160  0.2265
  545MOL0     C75077   1.383   4.033   2.334  0.0712 -0.9145  0.2381
  545MOL0     C75078   1.436   3.983   2.450 -0.3524  0.0854  0.4216
  545MOL0     C75079   1.359   3.895   2.523  0.2997 -0.2035 -0.1957
  545MOL0     O75080   1.404   3.881   2.653 -0.0368  0.2741  0.6239
  545MOL0     C75081   1.448   3.745   2.676 -0.6905 -1.0989  0.4467
  545MOL0     C75082   1.486   3.741   2.830  0.3710  0.1634  0.1694
  545MOL0     C75083   1.584   3.625   2.852 -0.1727 -0.0544 -1.5802
  545MOL0     C75084   1.615   3.623   3.000 -0.6134 -0.2619  0.0833
  545MOL0     C75085   1.716   3.511   3.033  0.1121  0.7010 -1.0018
  545MOL0     C75086   1.732   3.498   3.183  0.3523  0.6485  0.0127
  545MOL0     C75087   1.830   3.375   3.208  0.6518  0.5345 -0.2343
  545MOL0     C75088   1.754   3.239   3.184 -0.1522 -0.5215 -0.2762
  545MOL0     N75089   1.831   3.125   3.220  0.5991 -0.0795  0.3049
  545MOL0     C75090   1.965   3.117   3.224 -0.3408  0.0763 -1.5749
  545MOL0     C75091   1.991   3.000   3.280 -0.2362 -0.3991 -0.7336
  545MOL0     C75092   2.140   2.929   3.287  0.6814  0.4994  1.0026
  545MOL0     C75093   2.186   2.899   3.427 -0.2422 -0.4541  1.0751
  545MOL0     C75094   2.117   2.775   3.488  0.6135 -1.0378 -0.5020
  545MOL0     C75095   2.141   2.762   3.638  0.2350  0.2669 -0.3408
  545MOL0     O75096   2.280   2.762   3.678  0.1348  0.4497 -0.4214
  545MOL0     C75097   2.344   2.651   3.633  0.0265  0.2969 -0.2108
  545MOL0     C75098   2.308   2.524   3.672  0.4998  0.9537  1.4981
  545MOL0     C75099   2.376   2.407   3.631 -0.9633 -0.3078 -0.4607
  545MOL0     C75100   2.300   2.277   3.668  0.0601 -0.0763  0.1373
  545MOL0     C75101   2.492   2.424   3.553  0.8952 -0.3736 -0.6209
  545MOL0     C75102   2.569   2.301   3.518 -1.3953  0.0016 -0.1040
  545MOL0     O75103   2.526   2.169   3.549  0.6315  0.5948 -0.3111
  545MOL0     C75104   2.592   2.068   3.481  0.4981  0.3854 -0.2807
  545MOL0     C75105   2.526   2.022   3.370 -0.1292  0.1988 -0.8315
  545MOL0     C75106   2.582   1.932   3.280 -0.4319  0.5004 -0.5500
  545MOL0     C75107   2.713   1.885   3.309  0.7655  0.9200  0.3670
  545MOL0     O75108   2.777   1.799   3.220 -0.3629 -0.0589  0.4354
  545MOL0     C75109   2.918   1.779   3.220  0.0355 -0.3109 -0.0446
  545MOL0     C75110   2.961   1.727   3.084 -0.0665 -0.8082 -0.1932
  545MOL0     C75111   3.104   1.685   3.074  0.3439 -0.0198  0.3084
  545MOL0     C75112   3.146   1.551   3.142 -0.2592 -0.4664  0.5343
  545MOL0     C75113   3.257   1.486   3.065  0.0888  0.2525  0.1555
  545MOL0     C75114   3.384   1.586   3.059  0.5886 -0.5258 -0.6415
  545MOL0     C75115   3.525   1.514   3.044  0.3315 -0.0974  0.4557
  545MOL0     C75116   3.551   1.419   3.158 -0.0768  0.4604 -0.7121
  545MOL0    Cl75117   3.716   1.347   3.137 -0.0109  0.0392  0.2285
  545MOL0     C75118   2.773   1.914   3.436 -0.3617  0.2869 -1.3037
  545MOL0     C75119   2.713   2.011   3.516  0.6525  0.3193  0.5835
  545MOL0     O75120   2.681   2.326   3.458 -0.3991  1.3298  0.2819
  545MOL0     C75121   2.527   2.552   3.505 -0.5859  0.2482 -0.1172
  545MOL0     C75122   2.446   2.663   3.538 -0.3547 -0.4402 -0.3841
  545MOL0     N75123   1.871   2.940   3.314  0.5564 -0.3679 -1.3426
  545MOL0     N75124   1.778   3.013   3.273 -0.1147 -0.5599  0.0674
  545MOL0     C75125   1.252   3.825   2.468 -0.1656  0.4207  0.1920
  545MOL0     C75126   1.206   3.873   2.340 -0.3538  0.5178 -0.9007
  545MOL0     C75127   1.215   4.093   1.941 -0.1819  0.2611  0.0184
  545MOL0     C75128   1.119   4.192   1.973  0.0673  0.4385 -0.1010
  545MOL0     C75129   1.073   4.279   1.883  0.3015 -0.1638 -0.8626
  545MOL0     C75130   1.106   4.274   1.752 -0.6181  0.3503  0.0846
  545MOL0     O75131   1.048   4.346   1.653 -0.0680  0.2827  0.6252
  545MOL0     C75132   0.995   4.472   1.687  0.2773  0.1053  0.3159
  545MOL0     C75133   0.938   4.560   1.584 -0.6742  0.3919 -0.5333
  545MOL0     C75134   0.815   4.653   1.623 -0.2484 -0.5690 -0.2989
  545MOL0     C75135   0.684   4.624   1.549  0.3815  0.5043  0.6222
  545MOL0     C75136   0.583   4.733   1.580 -0.5826 -0.8857 -0.5806
  545MOL0     C75137   0.495   4.821   1.591  0.0866  0.3162  0.1974
  545MOL0     C75138   1.195   4.178   1.707  0.2061 -0.4792  0.8096
  545MOL0     C75139   1.258   4.094   1.802 -0.4789 -0.0773 -0.6708
  545MOL0     C75140   1.370   4.014   1.747  0.4332 -0.4523 -0.3056
  545MOL0     H75141   1.440   4.110   2.284  1.4585 -3.3124 -2.1677
  545MOL0     H75142   1.521   4.035   2.492  1.0041 -1.7107  0.0474
  545MOL0     H75143   1.530   3.731   2.605 -0.4166 -0.9205  0.7284
  545MOL0     H75144   1.368   3.671   2.664 -1.3437 -0.3721  0.2522
  545MOL0     H75145   1.530   3.837   2.858 -3.6470  1.5671  2.6384
  545MOL0     H75146   1.389   3.730   2.881  0.4936  0.3739  0.4524
  545MOL0     H75147   1.524   3.536   2.835  0.6127 -0.5655 -1.7326
  545MOL0     H75148   1.676   3.631   2.792  2.3272 -1.1558  1.8131
  545MOL0     H75149   1.655   3.723   3.020  1.3782 -1.1119  0.5616
  545MOL0     H75150   1.522   3.604   3.055  0.1949 -3.7728  0.4620
  545MOL0     H75151   1.815   3.543   2.999 -0.3539  0.8123 -2.2871
  545MOL0     H75152   1.677   3.425   2.979  1.6204 -0.4385 -0.3358
  545MOL0     H75153   1.770   3.596   3.212 -1.2167  1.2478  0.1568
  545MOL0     H75154   1.635   3.485   3.231 -1.2553  0.9056 -2.9409
  545MOL0     H75155   1.861   3.384   3.313 -2.8206  0.7451  0.9098
  545MOL0     H75156   1.915   3.380   3.140  0.3532 -0.2676 -0.6792
  545MOL0     H75157   1.657   3.240   3.235 -0.2226 -1.3581 -0.3702
  545MOL0     H75158   1.730   3.231   3.078 -1.0806  1.7258 -0.2817
  545MOL0     H75159   2.033   3.195   3.190 -2.7661  1.6839 -3.0194
  545MOL0     H75160   2.206   2.999   3.235  0.0474  2.0677  2.2459
  545MOL0     H75161   2.141   2.838   3.225 -1.3738  1.7669 -1.0397
  545MOL0     H75162   2.294   2.881   3.415 -0.1126  0.9732 -0.3250
  545MOL0     H75163   2.165   2.987   3.489  0.2963 -2.0807  3.7080
  545MOL0     H75164   2.008   2.783   3.478  0.4382  2.5615  2.4109
  545MOL0     H75165   2.159   2.685   3.441  0.0571 -1.5342 -0.0680
  545MOL0     H75166   2.084   2.840   3.688 -6.4195 -2.9381 -1.8481
  545MOL0     H75167   2.094   2.673   3.682  1.6423 -0.5006 -0.2999
  545MOL0     H75168   2.219   2.524   3.734 -0.8694  0.8889 -0.3459
  545MOL0     H75169   2.198   2.296   3.703 -1.1783 -0.3520 -3.0392
  545MOL0     H75170   2.357   2.217   3.740 -0.2727 -1.1242 -0.4486
  545MOL0     H75171   2.284   2.220   3.576  0.0605 -1.8831  1.1946
  545MOL0     H75172   2.430   2.068   3.348 -0.6150  1.1075  2.6489
  545MOL0     H75173   2.529   1.914   3.187 -2.1205 -0.6535  0.5697
  545MOL0     H75174   2.961   1.873   3.255 -2.5804  0.2633  2.0068
  545MOL0     H75175   2.940   1.703   3.296  2.7978 -0.3210 -0.7676
  545MOL0     H75176   2.892   1.658   3.035  1.3894 -0.2428 -3.2634
  545MOL0     H75177   2.958   1.814   3.018  2.5258 -2.2252 -2.3384
  545MOL0     H75178   3.173   1.765   3.100  3.1353 -1.5177 -1.9455
  545MOL0     H75179   3.121   1.662   2.968  1.4265  0.0519  0.4534
  545MOL0     H75180   3.061   1.483   3.144 -0.1301 -1.0948 -4.2692
  545MOL0     H75181   3.163   1.582   3.246 -1.1280  4.3927 -0.4964
  545MOL0     H75182   3.270   1.390   3.115  0.1307 -0.1088 -0.5332
  545MOL0     H75183   3.231   1.464   2.961 -0.2713  0.1657  0.2629
  545MOL0     H75184   3.395   1.636   3.155  0.1440 -3.8501  1.3181
  545MOL0     H75185   3.365   1.650   2.973 -2.4350 -0.8763 -0.3552
  545MOL0     H75186   3.609   1.584   3.047  3.0590 -3.1676  1.2858
  545MOL0     H75187   3.513   1.460   2.950  1.6349 -2.8655  1.7836
  545MOL0     H75188   3.477   1.338   3.162  0.8505 -0.3826  0.1778
  545MOL0     H75189   3.540   1.466   3.256  2.6790  0.1212 -0.1547
  545MOL0     H75190   2.865   1.864   3.463 -0.9279  0.5016  1.3368
  545MOL0     H75191   2.758   2.029   3.613 -1.2609  0.4558  1.4857
  545MOL0     H75192   2.621   2.572   3.454 -0.3297  1.5350  0.7909
  545MOL0     H75193   2.469   2.752   3.480  2.8941 -1.2147 -0.4746
  545MOL0     H75194   1.198   3.739   2.506  1.8021 -3.0621 -4.0274
  545MOL0     H75195   1.127   3.824   2.285 -1.6065  0.8736  0.5252
  545MOL0     H75196   1.090   4.205   2.077  1.6377  1.7405  0.2062
  545MOL0     H75197   0.995   4.347   1.916  0.6407 -0.4804  0.6758
  545MOL0     H75198   0.910   4.459   1.756 -1.4817 -0.8553 -1.9055
  545MOL0     H75199   1.076   4.527   1.736  0.0467  3.3082 -2.5255
  545MOL0     H75200   0.918   4.499   1.496  1.1488  1.7843 -2.0099
  545MOL0     H75201   1.024   4.617   1.548 -0.8375 -0.0137 -1.6139
  545MOL0     H75202   0.799   4.634   1.730 -0.5497  1.2963  0.0305
  545MOL0     H75203   0.853   4.755   1.610  0.9851 -0.6418  2.1382
  545MOL0     H75204   0.637   4.527   1.570  0.9377  0.2729  0.8207
  545MOL0     H75205   0.702   4.615   1.442 -0.3245  0.2992  0.5104
  545MOL0     H75206   0.423   4.900   1.595 -0.7878 -0.4756  0.5144
  545MOL0     H75207   1.219   4.183   1.602  0.1343  2.4349  0.8286
  545MOL0     H75208   1.330   3.916   1.721  1.7007 -1.3596  1.0033
  545MOL0     H75209   1.417   4.056   1.658  1.2487 -0.5253  0.0901
  545MOL0     H75210   1.452   4.004   1.818  1.2405 -1.2814 -1.3390
  546MOL0     O75211   7.755   9.973   9.018  0.5134  0.0229 -1.0411
  546MOL0     C75212   7.738  10.070   8.948  0.6798 -0.2356  0.2458
  546MOL0     O75213   7.727  10.208   8.990  0.1911  0.4988 -0.1887
  546MOL0     C75214   7.721  10.247   9.120  1.1900  0.7330 -0.5693
  546MOL0     C75215   7.695  10.382   9.138 -1.2232 -0.4380  0.2285
  546MOL0     C75216   7.660  10.428   9.260  0.5886  0.2238  0.4288
  546MOL0     C75217   7.663  10.349   9.372 -0.1277  0.7910  0.5964
  546MOL0     O75218   7.617  10.387   9.495  0.0008  0.0136  0.7000
  546MOL0     C75219   7.703  10.472   9.563 -0.2269 -0.8934  0.3371
  546MOL0     C75220   7.657  10.521   9.708  0.1875 -0.7590 -0.1209
  546MOL0     C75221   7.762  10.602   9.777  0.0491 -0.3934  0.0958
  546MOL0     C75222   7.704  10.682   9.900  0.4029  0.1600  0.4998
  546MOL0     C75223   7.811  10.755   9.975 -0.3955  0.5795  0.4714
  546MOL0     C75224   7.771  10.852  10.099  0.4661  0.8041 -0.1539
  546MOL0     C75225   7.729  10.773  10.222  0.5761  0.0973  0.4585
  546MOL0     C75226   7.772  10.851  10.355  1.0785  0.2330 -0.2211
  546MOL0     N75227   7.741  10.772  10.477 -0.1748 -0.3502  0.4068
  546MOL0     C75228   7.612  10.760  10.532 -0.3772  0.4250  0.3243
  546MOL0     C75229   7.634  10.681  10.644  0.5977 -0.0427  0.2735
  546MOL0     C75230   7.527  10.648  10.740 -0.6901 -0.4507 -0.5914
  546MOL0     C75231   7.457  10.519  10.715 -0.2915  0.9809 -0.8108
  546MOL0     C75232   7.478  10.418  10.831 -0.0467  0.0326 -0.6409
  546MOL0     C75233   7.601  10.326  10.819  0.6029  0.5492  0.1942
  546MOL0     O75234   7.670  10.306  10.944  0.5174  0.2771 -0.6988
  546MOL0     C75235   7.798  10.252  10.960  0.1853 -0.1257  0.4496
  546MOL0     C75236   7.873  10.216  10.855 -0.2359 -0.1773  0.3908
  546MOL0     C75237   8.008  10.177  10.881  0.2323  0.8248 -0.7086
  546MOL0     C75238   8.091  10.129  10.768  0.1554 -0.0779 -0.9756
  546MOL0     C75239   8.055  10.172  11.015  0.4647 -0.3943 -0.2492
  546MOL0     C75240   8.193  10.136  11.053  1.3499  0.3913  0.5520
  546MOL0     O75241   8.235  10.007  11.024 -0.3626 -1.0598 -0.6768
  546MOL0     C75242   8.372   9.986  11.030  0.6704 -0.1776  0.6516
  546MOL0     C75243   8.415   9.900  11.136  1.0570 -0.2497  1.0439
  546MOL0     C75244   8.555   9.875  11.145 -0.5790  0.9571  0.0295
  546MOL0     C75245   8.647   9.941  11.059  0.0225  0.7899  0.4434
  546MOL0     O75246   8.775   9.913  11.045  0.5287  0.4826  0.0345
  546MOL0     C75247   8.856   9.933  11.158 -0.4221 -0.8322  0.5733
  546MOL0     C75248   8.986  10.012  11.119 -0.0077 -0.1402  0.1693
  546MOL0     C75249   9.087  10.030  11.241  0.7392  0.2961 -0.4085
  546MOL0     C75250   9.129   9.909  11.321 -0.1283  0.1749  0.6551
  546MOL0     C75251   9.217   9.811  11.244 -0.3385  0.4364  0.1879
  546MOL0     C75252   9.357   9.860  11.194 -0.2223 -0.2596 -0.4792
  546MOL0     C75253   9.459   9.903  11.304 -0.0954  0.3786 -0.2405
  546MOL0     C75254   9.490   9.801  11.408  0.9286 -0.2361 -1.5466
  546MOL0    Cl75255   9.610   9.887  11.509 -0.1651 -0.0378  0.2050
  546MOL0     C75256   8.590  10.011  10.951 -0.2938 -0.3560  0.5694
  546MOL0     C75257   8.456  10.048  10.939 -0.2954  0.4299  0.4610
  546MOL0     O75258   8.258  10.216  11.120  0.2427  0.9563 -0.1420
  546MOL0     C75259   7.976  10.218  11.126 -0.0609 -0.2779  0.3931
  546MOL0     C75260   7.843  10.255  11.099 -0.2764 -0.1120  0.0665
  546MOL0     N75261   7.761  10.630  10.638 -0.0072  0.2428  0.5590
  546MOL0     N75262   7.824  10.676  10.524  0.6583  0.7450 -0.0560
  546MOL0     C75263   7.697  10.214   9.356  0.2243  0.1316  0.4024
  546MOL0     C75264   7.719  10.165   9.231 -0.5956 -0.3318  0.2691
  546MOL0     C75265   7.714  10.042   8.807  0.0564  0.8321  0.3472
  546MOL0     C75266   7.659  10.155   8.737 -0.0457  1.0917 -0.9716
  546MOL0     C75267   7.650  10.150   8.599  0.5715  0.6314  0.0492
  546MOL0     C75268   7.676  10.036   8.524  0.1782  0.3622  0.7835
  546MOL0     O75269   7.657  10.035   8.386 -1.0013  0.4383  0.5456
  546MOL0     C75270   7.654   9.918   8.305  0.0743 -0.3812  0.1766
  546MOL0     C75271   7.641   9.935   8.150 -0.5108 -0.7027  1.2770
  546MOL0     C75272   7.733  10.044   8.095  0.5295 -0.1904  0.7834
  546MOL0     C75273   7.875   9.993   8.043  0.6318  0.2903 -0.5903
  546MOL0     C75274   7.977   9.980   8.146  0.2643  0.6319  1.1519
  546MOL0     C75275   8.056   9.993   8.232  0.0473  1.0606 -0.2618
  546MOL0     C75276   7.709   9.925   8.594  0.5521  0.4704 -0.7014
  546MOL0     C75277   7.739   9.920   8.732  0.6063 -0.4273  0.0458
  546MOL0     C75278   7.786   9.788   8.782 -0.2029  0.1570 -0.1883
  546MOL0     H75279   7.711  10.447   9.052  3.2851  2.6199  2.9732
  546MOL0     H75280   7.639  10.534   9.268 -1.3019 -0.2475  3.5626
  546MOL0     H75281   7.733  10.550   9.493 -2.4687  0.0712  0.3561
  546MOL0     H75282   7.791  10.412   9.587  1.1015  1.4637  1.6642
  546MOL0     H75283   7.574  10.588   9.688  2.6270  2.1756 -1.2318
  546MOL0     H75284   7.631  10.435   9.770  1.8576 -1.1324  0.1256
  546MOL0     H75285   7.833  10.532   9.822 -1.4404  0.1250  3.5556
  546MOL0     H75286   7.811  10.667   9.704 -3.9716  0.8898 -1.7803
  546MOL0     H75287   7.641  10.764   9.863 -1.5218 -0.5284  2.0984
  546MOL0     H75288   7.642  10.626   9.970  1.1882 -1.0999  0.2150
  546MOL0     H75289   7.861  10.823   9.904  0.5331 -1.5938 -1.0713
  546MOL0     H75290   7.871  10.671  10.009 -3.0948 -1.7434 -0.1511
  546MOL0     H75291   7.852  10.923  10.120 -0.4579  1.6631  0.6463
  546MOL0     H75292   7.688  10.917  10.070 -1.8354 -1.4489  1.0060
  546MOL0     H75293   7.775  10.674  10.223  0.2561 -0.0562  0.2407
  546MOL0     H75294   7.622  10.755  10.213  0.7764 -0.4923 -1.1126
  546MOL0     H75295   7.876  10.882  10.364  0.7917  0.5731  3.1758
  546MOL0     H75296   7.704  10.935  10.373  2.0754  0.7308  1.4283
  546MOL0     H75297   7.530  10.819  10.493  0.0915  0.9748  0.1605
  546MOL0     H75298   7.446  10.720  10.730 -0.7345 -0.3544  0.4329
  546MOL0     H75299   7.563  10.664  10.842  1.1913 -1.2909 -1.0716
  546MOL0     H75300   7.351  10.547  10.722 -1.1182 -1.7505 -1.1008
  546MOL0     H75301   7.482  10.472  10.619 -0.5224 -0.9017  0.0051
  546MOL0     H75302   7.482  10.471  10.927  1.4506  1.4238 -1.4429
  546MOL0     H75303   7.386  10.359  10.842 -0.4642  0.3849 -2.1150
  546MOL0     H75304   7.560  10.234  10.776 -0.0369  1.7017 -1.8068
  546MOL0     H75305   7.671  10.370  10.747  2.8210 -4.0336 -0.7912
  546MOL0     H75306   7.828  10.218  10.757 -0.5661 -1.6216  0.4868
  546MOL0     H75307   8.068  10.026  10.741  1.1218 -0.5324 -0.1057
  546MOL0     H75308   8.198  10.143  10.784 -0.3594  0.6500  2.5576
  546MOL0     H75309   8.065  10.189  10.680 -2.7403  0.7631  0.3291
  546MOL0     H75310   8.334   9.861  11.196 -0.4522 -0.0091 -0.7398
  546MOL0     H75311   8.593   9.812  11.225 -1.1755  0.6881  0.1070
  546MOL0     H75312   8.808   9.981  11.243  2.2125  2.3928  0.4800
  546MOL0     H75313   8.902   9.841  11.194  1.8811 -0.3816 -0.9742
  546MOL0     H75314   9.030   9.952  11.038 -2.1444 -1.3095 -0.1917
  546MOL0     H75315   8.966  10.113  11.081 -0.2137  0.3218  1.4654
  546MOL0     H75316   9.044  10.084  11.325  1.9407 -2.6128  2.2671
  546MOL0     H75317   9.168  10.094  11.204 -0.6067  0.8084 -2.6988
  546MOL0     H75318   9.036   9.855  11.339 -0.5772  0.0090 -1.7527
  546MOL0     H75319   9.167   9.934  11.420 -0.4119 -0.6069  0.9606
  546MOL0     H75320   9.229   9.726  11.312 -0.7753  1.5550  1.7035
  546MOL0     H75321   9.159   9.778  11.157  1.1223  2.6818 -1.7503
  546MOL0     H75322   9.338   9.939  11.121 -3.5413  2.3706  2.8546
  546MOL0     H75323   9.396   9.774  11.139  0.5920  0.7357 -1.5149
  546MOL0     H75324   9.413   9.983  11.362 -0.3828 -1.0294  1.5802
  546MOL0     H75325   9.559   9.920  11.261  1.2553 -3.3844  0.9874
  546MOL0     H75326   9.543   9.713  11.370  0.5020 -1.0531 -0.2995
  546MOL0     H75327   9.406   9.773  11.471  0.5092  1.8719 -1.0730
  546MOL0     H75328   8.665  10.069  10.896  1.4086  2.4444  5.2307
  546MOL0     H75329   8.424  10.123  10.868 -0.8471 -0.5879 -0.3955
  546MOL0     H75330   8.019  10.217  11.226  0.9738 -2.8760  0.0034
  546MOL0     H75331   7.779  10.299  11.175  0.7692  1.9686 -0.1598
  546MOL0     H75332   7.690  10.151   9.444  3.0988  0.9294  1.2880
  546MOL0     H75333   7.724  10.057   9.240 -0.2652 -0.1389  4.3085
  546MOL0     H75334   7.635  10.246   8.790  0.4829  0.3877  0.5353
  546MOL0     H75335   7.607  10.238   8.553 -2.6869 -0.0134  1.5335
  546MOL0     H75336   7.748   9.862   8.315  2.2150  3.1390  1.7499
  546MOL0     H75337   7.568   9.858   8.335 -0.2013 -0.0595  0.0418
  546MOL0     H75338   7.539   9.958   8.117  0.4940 -1.8709 -3.4488
  546MOL0     H75339   7.665   9.844   8.094  1.6435 -0.0268  1.0146
  546MOL0     H75340   7.685  10.090   8.008  0.0466 -2.5945 -0.3165
  546MOL0     H75341   7.750  10.128   8.162  1.1729  0.7888 -0.5600
  546MOL0     H75342   7.917  10.065   7.972  1.1525  1.0008  0.4109
  546MOL0     H75343   7.866   9.893   7.999  1.8795  0.0111 -0.2553
  546MOL0     H75344   8.138  10.002   8.300 -0.0197 -1.1960  0.1960
  546MOL0     H75345   7.714   9.842   8.525 -0.5174  1.1624 -1.6471
  546MOL0     H75346   7.703   9.725   8.815  1.1865 -0.8277  1.5870
  546MOL0     H75347   7.852   9.741   8.708  2.4153  1.1505  1.3869
  546MOL0     H75348   7.848   9.802   8.871  0.1132  0.3422 -0.4337
  547MOL0     O75349   7.084  10.493   4.873  0.6263  0.1364  0.2533
  547MOL0     C75350   7.069  10.414   4.965  0.4655 -0.5964  0.1030
  547MOL0     O75351   7.137  10.301   4.984  0.7823  0.2415  0.3546
  547MOL0     C75352   7.202  10.246   4.880  0.3689  1.0705 -0.3911
  547MOL0     C75353   7.138  10.175   4.782  0.2319  0.3562  0.4995
  547MOL0     C75354   7.210  10.107   4.687 -0.6206  0.2881  0.1134
  547MOL0     C75355   7.344  10.126   4.674 -0.1253 -0.3455  0.1478
  547MOL0     O75356   7.408  10.063   4.570 -0.1338 -0.8632 -0.5112
  547MOL0     C75357   7.547  10.091   4.566  0.4276  0.1178  0.1965
  547MOL0     C75358   7.598  10.047   4.428 -0.6501  0.1152 -0.1664
  547MOL0     C75359   7.512  10.097   4.309 -0.0575  0.3027 -0.4540
  547MOL0     C75360   7.602  10.154   4.197  0.4872  0.1962  0.2956
  547MOL0     C75361   7.526  10.239   4.093 -0.5559  0.4327 -0.8456
  547MOL0     C75362   7.615  10.324   4.004  0.0569  1.1349 -0.8280
  547MOL0     C75363   7.574  10.361   3.861 -0.7619  0.1601 -0.4306
  547MOL0     C75364   7.513  10.247   3.771 -0.4483 -0.8902  0.2662
  547MOL0     N75365   7.628  10.158   3.736 -1.3496 -0.7775  0.3405
  547MOL0     C75366   7.648  10.030   3.767 -0.0137  0.4730 -0.2466
  547MOL0     C75367   7.733   9.973   3.681  0.0665 -1.8591 -0.2445
  547MOL0     C75368   7.780   9.834   3.676 -0.0410  0.0728  0.4334
  547MOL0     C75369   7.925   9.838   3.631 -0.0161  0.1621 -0.4036
  547MOL0     C75370   7.961   9.868   3.493 -0.1539 -0.0534  0.4860
  547MOL0     C75371   8.112   9.838   3.448 -0.1968 -0.4478 -0.8868
  547MOL0     O75372   8.109   9.702   3.397 -0.3551 -0.3193  0.0285
  547MOL0     C75373   8.200   9.639   3.310  0.0627 -0.8336 -0.1203
  547MOL0     C75374   8.163   9.512   3.268  0.6053 -0.4641  0.1235
  547MOL0     C75375   8.241   9.442   3.186  0.1303 -0.3569  0.0869
  547MOL0     C75376   8.183   9.307   3.141 -0.2564 -0.7818  0.1348
  547MOL0     C75377   8.362   9.496   3.139 -0.1200  0.0523 -0.1236
  547MOL0     C75378   8.461   9.425   3.048  0.3323  0.0793 -0.2274
  547MOL0     O75379   8.419   9.360   2.939 -0.1750  0.2324 -0.0607
  547MOL0     C75380   8.506   9.277   2.873 -0.2711  0.0024 -0.3717
  547MOL0     C75381   8.520   9.279   2.734  0.1078  0.0361 -0.5009
  547MOL0     C75382   8.599   9.180   2.667 -0.7507  0.0539 -0.1730
  547MOL0     C75383   8.644   9.064   2.735  0.5923  0.5219  0.2887
  547MOL0     O75384   8.709   8.963   2.665  0.2164  0.3255 -0.0452
  547MOL0     C75385   8.796   8.998   2.552 -0.0655 -0.1458 -0.1667
  547MOL0     C75386   8.896   8.879   2.546 -0.0365 -0.1111  0.9598
  547MOL0     C75387   8.954   8.821   2.676 -0.3893 -0.5987  0.3228
  547MOL0     C75388   9.042   8.917   2.752  0.1667 -0.5581  0.3106
  547MOL0     C75389   9.136   8.843   2.855 -0.3385  0.1402  0.4335
  547MOL0     C75390   9.066   8.757   2.965  0.7545  0.3664 -0.6841
  547MOL0     C75391   9.166   8.682   3.062 -0.0400  0.2539 -0.1714
  547MOL0     C75392   9.113   8.568   3.157 -0.1736  0.4108  0.3749
  547MOL0    Cl75393   9.255   8.480   3.230  0.3457 -0.3119 -0.2775
  547MOL0     C75394   8.614   9.054   2.873  0.6003  0.6808  0.8372
  547MOL0     C75395   8.548   9.163   2.935 -0.3070  0.6319 -0.8834
  547MOL0     O75396   8.580   9.428   3.086  0.1183 -0.5660  0.1780
  547MOL0     C75397   8.403   9.618   3.191  0.6132 -0.0796  0.6954
  547MOL0     C75398   8.327   9.691   3.277  0.4638 -0.4884  0.1979
  547MOL0     N75399   7.770  10.087   3.603 -0.3485  0.4931  0.3625
  547MOL0     N75400   7.713  10.192   3.634  1.2813  0.1256  0.7787
  547MOL0     C75401   7.410  10.188   4.784 -0.5476  0.2617 -0.0849
  547MOL0     C75402   7.333  10.244   4.889 -0.1197  0.3017 -0.4080
  547MOL0     C75403   6.959  10.442   5.062 -0.5130 -0.7567  0.6483
  547MOL0     C75404   6.995  10.432   5.190  0.2602 -1.0082 -0.6679
  547MOL0     C75405   6.907  10.487   5.288  1.0210  0.4619 -0.2365
  547MOL0     C75406   6.784  10.539   5.253  0.0198 -0.1727 -0.3733
  547MOL0     O75407   6.693  10.591   5.350  0.5478  0.0390  0.2258
  547MOL0     C75408   6.718  10.607   5.490 -0.5842  0.3539 -0.3308
  547MOL0     C75409   6.643  10.716   5.560  0.3300  0.0748 -0.3344
  547MOL0     C75410   6.695  10.858   5.528 -1.1006  0.4787  0.2841
  547MOL0     C75411   6.650  10.973   5.617 -0.7582  0.6914 -0.4412
  547MOL0     C75412   6.687  10.935   5.755 -0.0155  0.1100  0.4380
  547MOL0     C75413   6.705  10.900   5.872  0.3914  0.3170  1.1263
  547MOL0     C75414   6.746  10.532   5.112 -0.6914  0.7264 -0.2775
  547MOL0     C75415   6.831  10.476   5.014 -0.4489 -0.3774  0.8577
  547MOL0     C75416   6.787  10.450   4.869 -0.6015 -0.3650  0.4003
  547MOL0     H75417   7.029  10.171   4.785  0.1702 -0.4204 -1.5772
  547MOL0     H75418   7.152  10.033   4.631 -1.0168 -0.4381  1.4321
  547MOL0     H75419   7.608  10.035   4.638  0.4239 -2.0047 -1.3426
  547MOL0     H75420   7.565  10.199   4.570 -2.2872  0.6974  5.7160
  547MOL0     H75421   7.701  10.084   4.430 -0.4715 -0.4024  0.8921
  547MOL0     H75422   7.610   9.939   4.421 -0.1105  0.1981 -0.5497
  547MOL0     H75423   7.457  10.010   4.273  3.0485 -0.7489 -3.1221
  547MOL0     H75424   7.443  10.178   4.337  0.9860  1.9982 -2.5183
  547MOL0     H75425   7.675  10.217   4.248  1.1278 -2.0449  2.3469
  547MOL0     H75426   7.663  10.086   4.137  3.3038  2.4645  0.3702
  547MOL0     H75427   7.473  10.317   4.148 -2.5275 -0.9305 -0.7169
  547MOL0     H75428   7.466  10.174   4.029 -0.4345  0.8699 -1.4116
  547MOL0     H75429   7.644  10.416   4.056 -0.6172  1.4395 -0.9828
  547MOL0     H75430   7.711  10.276   3.985 -0.8366 -0.0754 -2.6658
  547MOL0     H75431   7.662  10.408   3.816  1.0578  4.5258  6.2604
  547MOL0     H75432   7.506  10.447   3.868  0.3602  0.9738  0.7702
  547MOL0     H75433   7.431  10.200   3.826 -1.4177 -0.7729 -1.0279
  547MOL0     H75434   7.470  10.296   3.683 -0.7027 -2.9178 -0.8044
  547MOL0     H75435   7.598   9.979   3.849 -1.0583  0.1856 -1.0516
  547MOL0     H75436   7.723   9.776   3.603  2.7472 -0.9026 -1.1326
  547MOL0     H75437   7.758   9.776   3.766 -1.4897 -0.7209 -0.3858
  547MOL0     H75438   7.974   9.912   3.695 -4.4496  3.6252 -0.6000
  547MOL0     H75439   7.961   9.737   3.654 -0.2497  0.8063  3.5594
  547MOL0     H75440   7.903   9.803   3.427  2.8054 -1.4753 -0.9203
  547MOL0     H75441   7.949   9.975   3.473  0.4008 -0.1781 -0.6354
  547MOL0     H75442   8.137   9.907   3.367  1.4908 -0.5054 -0.4405
  547MOL0     H75443   8.185   9.857   3.527 -0.7338  0.5939 -0.6193
  547MOL0     H75444   8.063   9.473   3.287 -0.3442  1.1742 -1.1387
  547MOL0     H75445   8.189   9.318   3.032 -2.0213 -3.1777 -0.2821
  547MOL0     H75446   8.079   9.281   3.162 -0.5349  0.5491  0.4854
  547MOL0     H75447   8.245   9.223   3.173  2.2442  1.5161  1.8002
  547MOL0     H75448   8.466   9.357   2.683 -2.2316 -0.6027  0.8375
  547MOL0     H75449   8.605   9.201   2.561  0.4543 -2.0388 -0.5807
  547MOL0     H75450   8.731   9.003   2.464 -1.4699  2.6971  0.9004
  547MOL0     H75451   8.847   9.094   2.560  1.3444 -0.9569  1.0726
  547MOL0     H75452   8.843   8.802   2.489 -1.0004  1.7755 -0.8477
  547MOL0     H75453   8.981   8.918   2.489 -0.0825 -0.5790  0.5663
  547MOL0     H75454   9.010   8.735   2.637  0.7988  0.4366 -0.3258
  547MOL0     H75455   8.876   8.777   2.739 -1.2261  0.3875  0.0046
  547MOL0     H75456   8.983   8.998   2.797  0.1057  0.2394 -1.1589
  547MOL0     H75457   9.118   8.957   2.684 -1.0849 -0.0349 -0.8353
  547MOL0     H75458   9.193   8.778   2.787  0.7128  1.1302  0.3433
  547MOL0     H75459   9.212   8.912   2.893  0.5067  1.7019 -3.5980
  547MOL0     H75460   9.009   8.682   2.909  0.2671  2.1128 -2.6163
  547MOL0     H75461   8.993   8.818   3.020 -2.0120 -2.0760 -1.4048
  547MOL0     H75462   9.225   8.753   3.121  3.9898  0.5219 -3.9932
  547MOL0     H75463   9.239   8.627   3.003 -0.5997 -1.7528  0.9075
  547MOL0     H75464   9.053   8.500   3.095  3.6248 -0.9711 -2.1103
  547MOL0     H75465   9.048   8.610   3.235 -0.6505  0.7133 -0.1721
  547MOL0     H75466   8.657   8.970   2.926 -1.6441 -0.5029  0.9132
  547MOL0     H75467   8.515   9.152   3.038  2.5595 -0.2589  0.0447
  547MOL0     H75468   8.498   9.663   3.162 -0.1014 -0.1937 -2.0943
  547MOL0     H75469   8.373   9.780   3.319  0.7724 -0.7587  0.4339
  547MOL0     H75470   7.517  10.203   4.800 -0.4283 -2.1929  1.8679
  547MOL0     H75471   7.395  10.298   4.959  1.4833  0.7429 -2.0856
  547MOL0     H75472   7.095  10.416   5.228 -1.1355  0.3001  4.3785
  547MOL0     H75473   6.929  10.481   5.394  3.0878  0.2101 -0.6393
  547MOL0     H75474   6.713  10.517   5.551 -0.9972  1.6536  1.6479
  547MOL0     H75475   6.824  10.631   5.487 -0.1814 -1.1653  0.8217
  547MOL0     H75476   6.639  10.690   5.666  2.1900  0.6163 -0.0903
  547MOL0     H75477   6.538  10.712   5.530  0.5000  2.4188 -1.4670
  547MOL0     H75478   6.803  10.842   5.532 -1.5202 -3.4418  0.3934
  547MOL0     H75479   6.673  10.885   5.425 -1.7697  1.8432  0.7637
  547MOL0     H75480   6.544  10.975   5.593 -1.5565  1.0385  2.6540
  547MOL0     H75481   6.707  11.060   5.583  1.9481 -0.2466  1.3713
  547MOL0     H75482   6.719  10.853   5.967 -1.2136 -1.4364  0.5549
  547MOL0     H75483   6.644  10.567   5.094 -0.2095  1.9233 -0.7699
  547MOL0     H75484   6.739  10.542   4.835  1.3093  1.1699  1.6649
  547MOL0     H75485   6.858  10.409   4.797 -0.0282 -1.2455  1.4277
  547MOL0     H75486   6.706  10.378   4.881 -3.6512  2.6537 -0.4980
  548MOL0     O75487   8.522   1.537   2.410 -1.1767 -0.2734  0.2781
  548MOL0     C75488   8.437   1.582   2.486 -0.5990  0.3536 -0.1041
  548MOL0     O75489   8.352   1.509   2.561  0.2738 -0.6280 -0.1571
  548MOL0     C75490   8.373   1.370   2.573  0.7649 -0.0050 -0.0237
  548MOL0     C75491   8.440   1.312   2.682 -0.5812 -0.4970 -0.0353
  548MOL0     C75492   8.457   1.178   2.689 -0.9856  0.2915 -0.5351
  548MOL0     C75493   8.402   1.095   2.590 -0.3497  0.0329 -0.3319
  548MOL0     O75494   8.409   0.950   2.605  0.3246 -0.1961 -0.8206
  548MOL0     C75495   8.456   0.897   2.731  0.6900  0.2534 -0.8858
  548MOL0     C75496   8.461   0.744   2.709  0.2030  0.5061 -0.4224
  548MOL0     C75497   8.506   0.674   2.838 -0.1040 -0.1136 -0.5444
  548MOL0     C75498   8.638   0.727   2.905 -0.5268  0.2678  0.3089
  548MOL0     C75499   8.753   0.726   2.804  0.0484  0.4444 -0.3161
  548MOL0     C75500   8.885   0.747   2.886 -0.1142  0.8276 -0.2780
  548MOL0     C75501   9.012   0.724   2.799 -0.3892  0.1139  0.1500
  548MOL0     C75502   9.138   0.771   2.891  0.3020  0.1772  0.0852
  548MOL0     N75503   9.170   0.667   2.990 -0.5198  0.0141  0.3378
  548MOL0     C75504   9.120   0.659   3.110  0.0850  0.4295 -0.1172
  548MOL0     C75505   9.131   0.534   3.156  0.1176  0.1703 -0.0135
  548MOL0     C75506   9.098   0.487   3.295  0.0717  0.1395  0.9695
  548MOL0     C75507   8.956   0.425   3.301 -0.1648  0.2320 -0.2713
  548MOL0     C75508   8.933   0.370   3.451 -0.3546  0.9503  0.6652
  548MOL0     C75509   8.801   0.295   3.465 -0.7267 -0.1024 -0.0455
  548MOL0     O75510   8.808   0.167   3.407 -0.0869 -0.5557  0.2607
  548MOL0     C75511   8.693   0.115   3.359 -0.8509  0.0976 -0.1537
  548MOL0     C75512   8.701   0.028   3.250  0.3673  0.4105  0.2400
  548MOL0     C75513   8.592  -0.052   3.204 -0.5691  0.2363  0.5579
  548MOL0     C75514   8.636  -0.164   3.112 -0.2213 -0.7212 -0.0975
  548MOL0     C75515   8.473  -0.032   3.273  0.0903  0.2074  0.5079
  548MOL0     C75516   8.350  -0.107   3.227  0.4151 -0.4571  0.4485
  548MOL0     O75517   8.264  -0.141   3.334 -0.1922  0.2209 -0.5649
  548MOL0     C75518   8.131  -0.160   3.315 -0.0731 -0.1163 -0.1164
  548MOL0     C75519   8.059  -0.184   3.435 -0.2239 -0.0775 -0.4268
  548MOL0     C75520   7.922  -0.198   3.451 -0.1522 -0.7629 -0.0551
  548MOL0     C75521   7.847  -0.199   3.333  0.1044 -0.8371  0.1278
  548MOL0     O75522   7.712  -0.234   3.343 -0.4944 -0.2806  0.9519
  548MOL0     C75523   7.612  -0.170   3.262  0.1280 -0.5486 -0.1679
  548MOL0     C75524   7.480  -0.152   3.344  0.1001 -0.1541  0.1964
  548MOL0     C75525   7.502  -0.063   3.457 -0.2525 -0.0547 -0.7528
  548MOL0     C75526   7.408   0.065   3.471 -0.0944  0.0451  0.0876
  548MOL0     C75527   7.279   0.049   3.544  0.3069 -1.0998  0.0421
  548MOL0     C75528   7.172  -0.002   3.453  0.3740  0.3975 -0.4963
  548MOL0     C75529   7.056  -0.063   3.528 -1.0660 -0.1797  0.3633
  548MOL0     C75530   6.957   0.036   3.575 -0.2552  0.6000  0.5964
  548MOL0    Cl75531   6.832  -0.042   3.679 -0.1258 -0.3409  0.2441
  548MOL0     C75532   7.904  -0.170   3.211 -0.5382 -0.2470  0.0125
  548MOL0     C75533   8.044  -0.150   3.199 -0.4037  0.4131 -0.6484
  548MOL0     O75534   8.319  -0.111   3.106 -0.0331 -0.3645 -0.2850
  548MOL0     C75535   8.458   0.066   3.374  1.0967  0.3396 -0.5889
  548MOL0     C75536   8.570   0.141   3.417 -0.3767 -0.1104 -0.0386
  548MOL0     N75537   9.177   0.452   3.048 -0.4963 -0.5382  0.0328
  548MOL0     N75538   9.201   0.539   2.954 -0.4662 -0.1169 -0.2899
  548MOL0     C75539   8.338   1.146   2.482  0.6830 -0.4078 -1.0870
  548MOL0     C75540   8.329   1.281   2.478  0.0054  0.2978 -0.1162
  548MOL0     C75541   8.407   1.733   2.481 -0.1622  0.9860  0.7820
  548MOL0     C75542   8.270   1.757   2.468  0.0748 -0.0677  0.1852
  548MOL0     C75543   8.234   1.895   2.470 -0.9779 -0.4839  0.1191
  548MOL0     C75544   8.323   1.997   2.482  0.8196  0.2826 -0.7488
  548MOL0     O75545   8.263   2.120   2.491  0.6723 -0.4477 -0.1799
  548MOL0     C75546   8.346   2.239   2.485  0.1698 -0.5303 -0.2731
  548MOL0     C75547   8.391   2.286   2.352 -0.6476 -1.3768  0.0660
  548MOL0     C75548   8.285   2.335   2.256 -0.0962  0.7281 -0.5410
  548MOL0     C75549   8.333   2.345   2.109 -0.0526  0.0989 -0.3998
  548MOL0     C75550   8.258   2.433   2.030 -0.0256  0.0460  0.5689
  548MOL0     C75551   8.196   2.519   1.969  0.1292  0.2482 -0.5905
  548MOL0     C75552   8.464   1.973   2.477  0.1551  0.2658  0.3133
  548MOL0     C75553   8.509   1.835   2.480  0.2233  0.3677  0.8247
  548MOL0     C75554   8.650   1.792   2.471  0.3307 -0.4401  0.1382
  548MOL0     H75555   8.475   1.378   2.761  0.3668 -2.8171  1.5998
  548MOL0     H75556   8.507   1.142   2.778  1.0484 -2.8038 -2.7330
  548MOL0     H75557   8.376   0.912   2.803  0.9982 -0.6900 -0.3282
  548MOL0     H75558   8.551   0.938   2.767 -0.8448  2.5372  0.8429
  548MOL0     H75559   8.363   0.713   2.672 -1.2112  3.4240  0.4885
  548MOL0     H75560   8.531   0.726   2.627  2.4635 -0.0623  1.5133
  548MOL0     H75561   8.418   0.665   2.902 -1.6466  0.1093 -2.5370
  548MOL0     H75562   8.531   0.570   2.816 -0.2329 -0.4051  0.5982
  548MOL0     H75563   8.631   0.832   2.936  0.7801  0.4593 -0.0034
  548MOL0     H75564   8.665   0.670   2.994 -0.9119  1.2724  1.0944
  548MOL0     H75565   8.746   0.797   2.722  1.0422 -0.6989 -1.4445
  548MOL0     H75566   8.757   0.628   2.755 -0.7272 -0.3931  1.2175
  548MOL0     H75567   8.874   0.852   2.914 -1.9251  0.6131 -0.0911
  548MOL0     H75568   8.891   0.695   2.981 -2.8167  0.3552 -0.2768
  548MOL0     H75569   9.015   0.791   2.713  1.8954 -2.3104 -1.8382
  548MOL0     H75570   9.029   0.624   2.758  0.3798  0.1541  0.3444
  548MOL0     H75571   9.221   0.773   2.820  0.1381  2.4105 -0.1208
  548MOL0     H75572   9.118   0.866   2.942 -1.1487  2.4341 -4.1877
  548MOL0     H75573   9.078   0.736   3.174 -1.3211  0.7538 -1.3869
  548MOL0     H75574   9.106   0.572   3.364  1.4248  0.6531  0.2318
  548MOL0     H75575   9.176   0.415   3.320  1.8602  1.0282 -1.5506
  548MOL0     H75576   8.878   0.498   3.278  1.1843  2.9045  2.7679
  548MOL0     H75577   8.956   0.343   3.229  1.4171  0.0270 -0.0800
  548MOL0     H75578   9.021   0.318   3.491 -1.4176  1.0858  3.3746
  548MOL0     H75579   8.922   0.449   3.525 -1.1425  2.0404 -0.5696
  548MOL0     H75580   8.787   0.292   3.574  1.3189  1.8271  0.3468
  548MOL0     H75581   8.730   0.360   3.415  1.4362  0.4619 -2.6084
  548MOL0     H75582   8.798   0.012   3.205  0.2795  0.9557 -0.1597
  548MOL0     H75583   8.741  -0.187   3.132  0.2566 -1.0692 -2.6425
  548MOL0     H75584   8.628  -0.140   3.006  1.7880 -2.8608 -0.8179
  548MOL0     H75585   8.573  -0.249   3.136 -0.2921 -0.7663 -0.4325
  548MOL0     H75586   8.118  -0.187   3.526  0.7740 -2.9169 -1.0816
  548MOL0     H75587   7.861  -0.212   3.539 -0.8637 -0.0677 -0.4116
  548MOL0     H75588   7.652  -0.070   3.241  1.8264 -0.6430  2.1770
  548MOL0     H75589   7.588  -0.220   3.167  1.6678  0.9655 -1.4372
  548MOL0     H75590   7.397  -0.104   3.291 -1.4753  0.0928  2.6994
  548MOL0     H75591   7.440  -0.248   3.378  0.6972 -0.1960  0.7808
  548MOL0     H75592   7.602  -0.021   3.447  0.3483 -0.8437  1.4840
  548MOL0     H75593   7.492  -0.118   3.550 -3.1165 -2.7696 -2.4593
  548MOL0     H75594   7.380   0.105   3.373  0.9303 -2.0049 -1.1133
  548MOL0     H75595   7.481   0.134   3.515 -0.1514 -0.9443  1.8368
  548MOL0     H75596   7.304  -0.005   3.636 -0.1531  0.8872  1.3730
  548MOL0     H75597   7.261   0.149   3.583  3.1334 -0.3786 -0.2787
  548MOL0     H75598   7.208  -0.081   3.386  4.4929  0.1877  1.6441
  548MOL0     H75599   7.130   0.077   3.391  1.9614 -0.2937 -2.5630
  548MOL0     H75600   7.093  -0.109   3.620 -0.3281  2.6208  1.5636
  548MOL0     H75601   7.002  -0.136   3.467 -1.8741  1.9831 -1.6575
  548MOL0     H75602   6.902   0.079   3.491  3.7408  0.9607 -2.1054
  548MOL0     H75603   7.015   0.108   3.633  5.2256 -0.3850 -2.9602
  548MOL0     H75604   7.829  -0.162   3.133 -0.7256  2.3151  0.3693
  548MOL0     H75605   8.080  -0.135   3.098 -2.2040 -2.6659 -1.8714
  548MOL0     H75606   8.367   0.101   3.420  2.3613  1.5426  1.1312
  548MOL0     H75607   8.561   0.230   3.478  0.7641  1.1178 -1.5600
  548MOL0     H75608   8.304   1.098   2.390 -0.4905  1.2277 -1.5729
  548MOL0     H75609   8.298   1.339   2.392 -0.4652  3.2223  1.8597
  548MOL0     H75610   8.199   1.674   2.466 -0.0729 -0.0789  2.5883
  548MOL0     H75611   8.129   1.923   2.470 -0.5730  1.2241 -1.2554
  548MOL0     H75612   8.303   2.326   2.537  3.2632  1.0129 -0.0622
  548MOL0     H75613   8.445   2.228   2.530  0.1537  0.3450  0.0037
  548MOL0     H75614   8.441   2.205   2.299 -0.1904 -1.8305  1.1507
  548MOL0     H75615   8.461   2.368   2.372 -1.9561 -0.2566  0.2131
  548MOL0     H75616   8.195   2.274   2.263  1.2746 -1.4746 -1.2418
  548MOL0     H75617   8.270   2.436   2.296 -0.9460  1.0366 -1.5904
  548MOL0     H75618   8.328   2.250   2.054  1.5405 -0.6406  0.6615
  548MOL0     H75619   8.428   2.398   2.120 -0.1051  0.1716 -0.2958
  548MOL0     H75620   8.151   2.594   1.908  0.2916  0.6766 -0.1897
  548MOL0     H75621   8.542   2.046   2.457 -1.9183  2.1887 -1.3183
  548MOL0     H75622   8.668   1.744   2.375  2.4000  0.4819  0.0113
  548MOL0     H75623   8.714   1.881   2.478 -0.3079  0.0667 -0.3826
  548MOL0     H75624   8.679   1.710   2.537  0.6698  0.1109  0.6914
  549MOL0     O75625   2.442  10.269  10.327  0.0201 -0.1317 -0.0796
  549MOL0     C75626   2.399  10.201  10.236  0.9226 -0.6241  0.0372
  549MOL0     O75627   2.451  10.091  10.190  0.0768  0.5395  0.0219
  549MOL0     C75628   2.572  10.058  10.231 -0.2082 -0.0788 -0.3404
  549MOL0     C75629   2.586  10.017  10.361  0.9793  0.0272  0.4826
  549MOL0     C75630   2.716   9.990  10.407 -0.0814 -0.3204 -0.6755
  549MOL0     C75631   2.830   9.993  10.322  0.1636  0.1771 -0.7430
  549MOL0     O75632   2.960   9.961  10.359 -1.0078 -1.0785  0.0154
  549MOL0     C75633   2.964   9.848  10.454  0.3692  1.2943 -0.3063
  549MOL0     C75634   3.104   9.807  10.472 -0.5529 -0.1250  0.2291
  549MOL0     C75635   3.131   9.708  10.587 -0.0841  0.4834 -0.0499
  549MOL0     C75636   3.274   9.658  10.591 -0.5878  0.1847  1.0508
  549MOL0     C75637   3.291   9.567  10.716 -0.3879  0.1840  0.7400
  549MOL0     C75638   3.430   9.513  10.741  0.1314 -0.2188 -0.3035
  549MOL0     C75639   3.436   9.403  10.847  0.1716  0.3676  0.0282
  549MOL0     C75640   3.581   9.346  10.853 -0.9713 -0.2542 -0.2620
  549MOL0     N75641   3.581   9.224  10.936  0.3852  0.8809 -0.0163
  549MOL0     C75642   3.629   9.200  11.067  0.0814  0.2718  0.5916
  549MOL0     C75643   3.636   9.068  11.083  0.5391 -0.0692 -0.2502
  549MOL0     C75644   3.672   9.009  11.211 -0.3292 -0.2240  0.5551
  549MOL0     C75645   3.818   8.970  11.183  0.2553  0.3774 -0.3634
  549MOL0     C75646   3.870   8.909  11.300 -1.0968 -1.1545  0.7153
  549MOL0     C75647   4.022   8.851  11.273  0.1465 -0.4982 -0.1057
  549MOL0     O75648   4.024   8.743  11.188  0.1949  0.8248  0.0634
  549MOL0     C75649   4.147   8.668  11.184  0.7866  0.0073 -0.5980
  549MOL0     C75650   4.256   8.687  11.270 -0.6526  1.0434  0.8322
  549MOL0     C75651   4.378   8.615  11.250 -0.2463 -0.1542 -0.2101
  549MOL0     C75652   4.501   8.659  11.334 -0.2349  0.4245 -0.5691
  549MOL0     C75653   4.378   8.508  11.164  0.0610  0.7672  0.5904
  549MOL0     C75654   4.502   8.435  11.135 -0.2377  0.1794  0.2509
  549MOL0     O75655   4.630   8.481  11.148 -0.1799 -0.0411 -0.9501
  549MOL0     C75656   4.736   8.393  11.153  0.4024  0.6375 -0.3290
  549MOL0     C75657   4.801   8.355  11.034  0.2007 -0.3762  0.8375
  549MOL0     C75658   4.903   8.258  11.034  0.2850 -1.4732 -0.1005
  549MOL0     C75659   4.942   8.189  11.147  0.0149 -0.3327 -0.0366
  549MOL0     O75660   5.058   8.121  11.140 -0.3508 -0.2543  0.2982
  549MOL0     C75661   5.089   8.031  11.252  0.3086  0.4005 -0.1782
  549MOL0     C75662   5.162   7.903  11.206 -0.3557 -0.3701 -0.8186
  549MOL0     C75663   5.304   7.926  11.157 -0.0688 -0.6453  0.0127
  549MOL0     C75664   5.375   7.800  11.114 -0.5831  0.2290  0.0220
  549MOL0     C75665   5.506   7.827  11.035  0.6788 -0.5391 -0.2158
  549MOL0     C75666   5.482   7.890  10.896  0.8474  1.0853 -0.0627
  549MOL0     C75667   5.604   7.952  10.840 -0.5298 -0.3738  0.1146
  549MOL0     C75668   5.731   7.864  10.822  0.6063  0.0892 -0.1323
  549MOL0    Cl75669   5.697   7.710  10.741  0.0218  0.1449 -0.1795
  549MOL0     C75670   4.872   8.226  11.269  0.6117 -0.0331  0.2833
  549MOL0     C75671   4.777   8.328  11.268  0.9491 -0.6572 -0.0630
  549MOL0     O75672   4.478   8.321  11.097  0.5495  0.2085 -0.1144
  549MOL0     C75673   4.264   8.475  11.094 -0.0097  0.7274 -0.3797
  549MOL0     C75674   4.154   8.557  11.104 -0.1175 -0.4752  0.8084
  549MOL0     N75675   3.567   9.015  10.970 -0.3389  0.4992  0.2866
  549MOL0     N75676   3.535   9.112  10.887 -1.3952  0.2058 -0.1684
  549MOL0     C75677   2.807  10.026  10.187 -0.8751  0.1123 -0.1353
  549MOL0     C75678   2.681  10.068  10.143  0.0456 -0.0838  0.5430
  549MOL0     C75679   2.266  10.237  10.177 -0.1339 -0.9401  0.1136
  549MOL0     C75680   2.196  10.134  10.102  0.5677 -0.6916 -0.8529
  549MOL0     C75681   2.069  10.155  10.046  0.4893  0.1738  0.0293
  549MOL0     C75682   2.005  10.272  10.079 -0.0721 -0.5789  0.1488
  549MOL0     O75683   1.878  10.306  10.048  0.5579 -0.0651  0.0818
  549MOL0     C75684   1.795  10.215   9.967  0.0529 -0.3381  1.6080
  549MOL0     C75685   1.650  10.267   9.959 -0.0858 -0.5163  0.1466
  549MOL0     C75686   1.548  10.159   9.909  0.6620 -0.7870 -0.4354
  549MOL0     C75687   1.414  10.228   9.897 -0.3250 -0.3873 -0.5703
  549MOL0     C75688   1.398  10.297   9.770  0.3540 -0.5413 -0.0679
  549MOL0     C75689   1.369  10.361   9.663 -0.7756  0.2419 -0.1356
  549MOL0     C75690   2.077  10.375  10.138 -0.6053 -0.5843 -0.4222
  549MOL0     C75691   2.205  10.363  10.186 -0.6784  0.9255 -0.5610
  549MOL0     C75692   2.271  10.482  10.250 -0.1657  0.6354  0.8558
  549MOL0     H75693   2.499  10.010  10.425  0.3759  1.5626 -0.1322
  549MOL0     H75694   2.754   9.987  10.508  3.9426 -0.0603 -1.9985
  549MOL0     H75695   2.902   9.766  10.417 -1.6506  2.2463  0.8079
  549MOL0     H75696   2.915   9.885  10.545 -1.5613  0.9789 -1.1735
  549MOL0     H75697   3.136   9.752  10.383  0.0945 -3.4475  2.3449
  549MOL0     H75698   3.167   9.897  10.478  2.3853 -1.8310 -2.2268
  549MOL0     H75699   3.114   9.747  10.688  2.1977  0.8296  0.2610
  549MOL0     H75700   3.073   9.618  10.564 -0.9960  1.3003 -1.0361
  549MOL0     H75701   3.286   9.593  10.504 -1.4043  1.0646  0.2679
  549MOL0     H75702   3.357   9.728  10.596  0.7877 -1.1884 -1.2351
  549MOL0     H75703   3.213   9.490  10.708  3.6614 -4.2631 -1.0019
  549MOL0     H75704   3.285   9.622  10.810  0.5303 -1.8469  2.0685
  549MOL0     H75705   3.469   9.463  10.652  2.2463 -0.5907  0.7694
  549MOL0     H75706   3.492   9.598  10.772 -2.7975  0.9841  2.8520
  549MOL0     H75707   3.363   9.328  10.815 -0.1335  1.1240 -1.1217
  549MOL0     H75708   3.417   9.450  10.944  4.3273  1.2722  0.6157
  549MOL0     H75709   3.614   9.324  10.751 -2.9698 -1.2421 -0.7474
  549MOL0     H75710   3.639   9.424  10.905 -0.0615 -0.9933 -0.1538
  549MOL0     H75711   3.676   9.264  11.140  2.4490 -0.8480  0.1453
  549MOL0     H75712   3.613   8.919  11.231 -2.0274  0.6380 -0.3516
  549MOL0     H75713   3.659   9.086  11.287  1.3105  3.0125 -2.1521
  549MOL0     H75714   3.821   8.898  11.101 -1.7448 -0.4051  0.2086
  549MOL0     H75715   3.868   9.064  11.157  2.3678  0.4696  3.2338
  549MOL0     H75716   3.865   8.976  11.386  1.4387 -0.4797  0.4280
  549MOL0     H75717   3.808   8.824  11.328  1.0500 -3.3127 -0.7467
  549MOL0     H75718   4.076   8.928  11.217 -1.1559  0.4011 -0.1763
  549MOL0     H75719   4.075   8.839  11.368  1.1996  1.0785 -0.4511
  549MOL0     H75720   4.260   8.765  11.345 -2.6036  0.5140  1.5600
  549MOL0     H75721   4.576   8.711  11.274 -0.2029  2.6346  1.2345
  549MOL0     H75722   4.555   8.575  11.379  0.1400  2.2536  2.7199
  549MOL0     H75723   4.491   8.731  11.416 -0.9858 -0.1862 -0.1212
  549MOL0     H75724   4.775   8.408  10.943  1.8932 -1.3651 -0.2719
  549MOL0     H75725   4.958   8.246  10.941 -0.8514 -1.7596 -0.7719
  549MOL0     H75726   5.143   8.085  11.331  0.6844 -0.1578 -0.0488
  549MOL0     H75727   4.998   7.996  11.301  1.7504 -1.8080  1.1251
  549MOL0     H75728   5.143   7.828  11.283 -2.0644  1.0629  0.2209
  549MOL0     H75729   5.098   7.868  11.124 -0.3359 -1.7843 -0.2604
  549MOL0     H75730   5.360   7.970  11.241  1.0964 -0.7261 -0.6927
  549MOL0     H75731   5.285   7.993  11.072 -0.5065  0.8012  1.2019
  549MOL0     H75732   5.309   7.743  11.048 -0.8494  1.7940 -1.1122
  549MOL0     H75733   5.408   7.751  11.207  2.8442  2.9957  0.4796
  549MOL0     H75734   5.556   7.902  11.098  0.6001  0.0665 -0.8621
  549MOL0     H75735   5.559   7.732  11.027  2.0244  0.2742 -1.2942
  549MOL0     H75736   5.410   7.969  10.915 -1.0382 -0.2183 -1.4083
  549MOL0     H75737   5.437   7.821  10.824 -0.8914  1.2232  0.8348
  549MOL0     H75738   5.636   8.033  10.906 -2.4647  0.2898  0.2996
  549MOL0     H75739   5.587   7.988  10.738  0.9245 -2.3305 -0.8928
  549MOL0     H75740   5.773   7.845  10.921  1.5254 -0.8925 -0.6868
  549MOL0     H75741   5.800   7.923  10.761  0.4417  2.3309  1.7014
  549MOL0     H75742   4.900   8.176  11.361 -0.4747  1.0100  1.2125
  549MOL0     H75743   4.723   8.367  11.354  1.0176  0.1749 -0.3872
  549MOL0     H75744   4.263   8.390  11.027  2.9802  1.1301 -1.0580
  549MOL0     H75745   4.062   8.539  11.050  0.0894 -0.9525  0.6035
  549MOL0     H75746   2.884  10.034  10.111 -1.5735 -2.0499 -1.1370
  549MOL0     H75747   2.670  10.099  10.039  1.6183 -4.0614 -1.0066
  549MOL0     H75748   2.234  10.036  10.076 -1.4450 -2.5426  2.4284
  549MOL0     H75749   2.034  10.079   9.977 -0.9187  1.2850 -0.5442
  549MOL0     H75750   1.837  10.222   9.866  3.0554 -0.3576  2.7585
  549MOL0     H75751   1.788  10.112  10.002 -0.2807 -1.0218 -0.3519
  549MOL0     H75752   1.649  10.354   9.892 -0.6985 -2.5861 -2.7529
  549MOL0     H75753   1.625  10.291  10.063 -1.0042 -0.5307 -0.0584
  549MOL0     H75754   1.576  10.112   9.814 -0.0521  2.2686 -2.3130
  549MOL0     H75755   1.550  10.084   9.989  1.7525 -0.6274 -0.2999
  549MOL0     H75756   1.396  10.289   9.985  0.2862  2.2319 -2.1589
  549MOL0     H75757   1.323  10.167   9.900 -2.4340  2.5896  1.6694
  549MOL0     H75758   1.362  10.421   9.574  0.5848 -1.4976 -1.4846
  549MOL0     H75759   2.018  10.467  10.138 -0.7420 -0.6685  0.2141
  549MOL0     H75760   2.372  10.484  10.208  0.2475  0.6569  1.8396
  549MOL0     H75761   2.219  10.578  10.237 -0.5793  0.2850 -0.1907
  549MOL0     H75762   2.290  10.458  10.355 -2.6444 -2.6250  0.7210
  550MOL0     O75763   2.616   8.058   8.769 -0.5439  0.4285 -0.4365
  550MOL0     C75764   2.670   8.099   8.664  0.1937  0.0200 -0.2498
  550MOL0     O75765   2.605   8.119   8.556  0.4450  0.3434 -0.3170
  550MOL0     C75766   2.482   8.064   8.525 -1.0975  0.8165  0.1985
  550MOL0     C75767   2.402   8.131   8.431  0.1057  0.2200 -0.5717
  550MOL0     C75768   2.267   8.085   8.417  0.0682  0.9535  0.3367
  550MOL0     C75769   2.215   7.972   8.468  0.1783  0.1132  0.4707
  550MOL0     O75770   2.102   7.916   8.429 -0.4814  1.1066  0.2646
  550MOL0     C75771   1.987   7.997   8.461  0.4687 -0.2685  0.3904
  550MOL0     C75772   1.855   7.933   8.417  0.3181 -0.7367 -0.0823
  550MOL0     C75773   1.741   8.038   8.393 -0.2048 -0.2329 -0.1457
  550MOL0     C75774   1.604   7.997   8.359  0.1503  0.4208  0.0076
  550MOL0     C75775   1.488   8.105   8.352 -0.5947  0.5407  0.2888
  550MOL0     C75776   1.534   8.218   8.255 -0.0261 -0.4431 -1.1233
  550MOL0     C75777   1.413   8.320   8.237  0.8631 -0.6592 -0.2112
  550MOL0     C75778   1.481   8.433   8.149  0.4725 -0.5775 -0.4646
  550MOL0     N75779   1.375   8.495   8.077 -0.0370  0.1481  0.2124
  550MOL0     C75780   1.340   8.469   7.950 -0.5703 -1.0444 -0.6777
  550MOL0     C75781   1.260   8.572   7.908  0.3127 -0.9571  0.0471
  550MOL0     C75782   1.198   8.609   7.769 -0.4378 -0.6187 -0.0434
  550MOL0     C75783   1.310   8.650   7.679 -0.1988 -0.8257  0.2570
  550MOL0     C75784   1.246   8.667   7.536  0.6239 -0.2907 -0.3678
  550MOL0     C75785   1.365   8.706   7.447  0.4924  0.5709  0.8463
  550MOL0     O75786   1.337   8.649   7.314 -0.1292  0.1567  0.3760
  550MOL0     C75787   1.272   8.720   7.222 -0.0494  0.0229 -0.2033
  550MOL0     C75788   1.210   8.841   7.240  0.1222 -0.1481 -0.2383
  550MOL0     C75789   1.141   8.909   7.134  0.3191 -1.0849  1.0504
  550MOL0     C75790   1.099   9.046   7.172 -1.2879 -0.0195  0.3164
  550MOL0     C75791   1.137   8.843   7.013  0.4173 -0.2627 -0.4724
  550MOL0     C75792   1.090   8.919   6.886 -0.6948 -0.4902  0.9153
  550MOL0     O75793   1.146   8.880   6.768 -0.1490  0.5605  0.0373
  550MOL0     C75794   1.089   8.929   6.657  1.2085 -0.1822  0.9416
  550MOL0     C75795   1.090   9.064   6.626  0.0849  0.0858 -0.5952
  550MOL0     C75796   1.019   9.114   6.515  0.4867 -0.5040  0.3554
  550MOL0     C75797   0.959   9.028   6.425 -0.5448  0.7782 -0.2331
  550MOL0     O75798   0.884   9.086   6.326 -0.5667  0.3390  0.1327
  550MOL0     C75799   0.757   9.026   6.299  0.5419  0.1700 -0.1808
  550MOL0     C75800   0.755   8.938   6.174 -0.5658 -0.6665  0.5076
  550MOL0     C75801   0.623   8.858   6.163 -0.6679  0.4716  0.2489
  550MOL0     C75802   0.494   8.939   6.153  0.3879  0.6131  0.2636
  550MOL0     C75803   0.368   8.851   6.115  0.1446 -0.7244 -0.2936
  550MOL0     C75804   0.235   8.934   6.110  0.8453 -0.4442  0.1851
  550MOL0     C75805   0.115   8.847   6.076 -0.5336  0.5946  0.2870
  550MOL0     C75806  -0.012   8.890   6.158  1.2881  0.2739  0.4849
  550MOL0    Cl75807  -0.145   8.790   6.086  0.4217 -0.0201 -0.0110
  550MOL0     C75808   0.950   8.885   6.457  0.1898 -1.4635  0.1866
  550MOL0     C75809   1.020   8.842   6.568 -0.1557 -0.0331 -1.5209
  550MOL0     O75810   1.022   9.016   6.897 -0.3871 -0.7890  0.6208
  550MOL0     C75811   1.200   8.716   6.994  1.1638  0.9692 -0.0225
  550MOL0     C75812   1.257   8.651   7.104 -0.2055 -0.0972  0.0472
  550MOL0     N75813   1.245   8.657   8.014 -0.8907  0.3872  0.3337
  550MOL0     N75814   1.314   8.610   8.115  0.3228  0.2090 -0.5648
  550MOL0     C75815   2.302   7.897   8.546  0.0035 -0.5509 -0.9941
  550MOL0     C75816   2.429   7.944   8.573 -0.1416 -0.5568 -0.3066
  550MOL0     C75817   2.805   8.153   8.659  0.1449  1.0049  0.0158
  550MOL0     C75818   2.867   8.157   8.528  0.1800 -0.8471 -0.0246
  550MOL0     C75819   3.002   8.182   8.505 -0.0239 -0.9517 -0.3023
  550MOL0     C75820   3.081   8.204   8.616  0.3922 -0.7035 -1.9759
  550MOL0     O75821   3.219   8.230   8.609  0.3153  0.2017 -0.5235
  550MOL0     C75822   3.301   8.189   8.497 -0.5784 -0.2027  0.8172
  550MOL0     C75823   3.437   8.245   8.528 -0.1971  0.0569  0.5801
  550MOL0     C75824   3.489   8.169   8.648 -0.4661  0.0754 -0.0080
  550MOL0     C75825   3.637   8.202   8.654  0.0070 -0.4091  0.2957
  550MOL0     C75826   3.695   8.179   8.792 -0.5410  1.0886  0.5078
  550MOL0     C75827   3.737   8.145   8.905 -0.7304 -0.5026 -0.5960
  550MOL0     C75828   3.025   8.195   8.745 -0.2368 -0.2838 -0.4281
  550MOL0     C75829   2.890   8.176   8.767 -0.0003  1.0386  0.2420
  550MOL0     C75830   2.839   8.169   8.910 -0.8370  0.2283  0.5815
  550MOL0     H75831   2.432   8.222   8.380 -1.2530  1.1916  0.3007
  550MOL0     H75832   2.196   8.131   8.348  1.0289  3.5779  0.9706
  550MOL0     H75833   1.992   8.092   8.407  2.7411  0.0341  1.0225
  550MOL0     H75834   1.975   8.016   8.568  1.0469 -0.9053  0.5759
  550MOL0     H75835   1.875   7.873   8.328  0.2479 -1.9092  0.6614
  550MOL0     H75836   1.817   7.862   8.492  1.3759 -0.5245  0.6759
  550MOL0     H75837   1.740   8.102   8.482 -1.3430 -0.2492 -0.1356
  550MOL0     H75838   1.773   8.107   8.315  0.2811  0.5139  0.6948
  550MOL0     H75839   1.613   7.948   8.261 -0.5710  0.1023  0.0965
  550MOL0     H75840   1.580   7.926   8.438  0.2262 -0.2772 -0.5806
  550MOL0     H75841   1.462   8.147   8.449 -0.8192  0.4498  0.2687
  550MOL0     H75842   1.398   8.054   8.316 -2.0041  2.5745  0.7737
  550MOL0     H75843   1.622   8.269   8.296 -0.1248  0.0519 -1.5190
  550MOL0     H75844   1.567   8.176   8.160  0.5730 -0.9173 -0.7136
  550MOL0     H75845   1.371   8.351   8.333 -1.8579 -1.6625 -0.9927
  550MOL0     H75846   1.346   8.262   8.173  1.4494 -2.7787  0.9840
  550MOL0     H75847   1.529   8.503   8.218  1.9320 -0.5905 -1.4230
  550MOL0     H75848   1.563   8.394   8.088  0.3982 -3.9134  1.2970
  550MOL0     H75849   1.383   8.391   7.888 -0.3526  0.4518 -2.5016
  550MOL0     H75850   1.127   8.692   7.780 -1.2490 -1.1219 -1.3025
  550MOL0     H75851   1.139   8.531   7.721 -1.0072  0.1570 -0.6415
  550MOL0     H75852   1.369   8.737   7.710 -0.4832 -0.3365 -0.5119
  550MOL0     H75853   1.387   8.573   7.679  1.0301  0.3537 -0.3477
  550MOL0     H75854   1.207   8.569   7.507  0.9577  0.0943 -2.2830
  550MOL0     H75855   1.178   8.752   7.525  2.6973  1.4478 -0.4035
  550MOL0     H75856   1.394   8.811   7.448 -0.9047  1.0458  4.2944
  550MOL0     H75857   1.455   8.655   7.484 -0.7077 -1.7370  0.7494
  550MOL0     H75858   1.227   8.901   7.329  1.2236  0.8516 -1.0883
  550MOL0     H75859   1.098   9.066   7.280 -0.7844 -0.6991  0.4548
  550MOL0     H75860   1.004   9.068   7.124 -1.0472 -0.8775 -0.5763
  550MOL0     H75861   1.173   9.117   7.134 -0.1810 -0.8927  0.7711
  550MOL0     H75862   1.148   9.124   6.696 -0.6298 -0.9148  0.9274
  550MOL0     H75863   1.018   9.220   6.491 -2.4439  0.3798  3.5287
  550MOL0     H75864   0.711   8.979   6.385  0.6582 -0.1596 -0.2971
  550MOL0     H75865   0.687   9.108   6.280 -1.5550 -1.2110  1.3352
  550MOL0     H75866   0.773   8.994   6.082  4.2078 -0.8412  1.0550
  550MOL0     H75867   0.846   8.880   6.189  1.4581  1.2736 -2.9566
  550MOL0     H75868   0.613   8.786   6.245 -0.2707 -1.4380 -1.3094
  550MOL0     H75869   0.630   8.790   6.079 -1.2483 -1.2424  1.5229
  550MOL0     H75870   0.519   9.015   6.078  0.7634 -1.5226 -1.9231
  550MOL0     H75871   0.475   8.981   6.252  0.6078 -2.5350  1.7771
  550MOL0     H75872   0.374   8.816   6.012 -0.2365  0.0982 -0.6091
  550MOL0     H75873   0.358   8.769   6.186 -0.6391  0.8034  1.4653
  550MOL0     H75874   0.241   9.007   6.029 -1.5531 -0.1835  0.1733
  550MOL0     H75875   0.210   8.967   6.211 -2.7765  2.4014 -1.4068
  550MOL0     H75876   0.151   8.745   6.089  3.0069  1.6980  0.2996
  550MOL0     H75877   0.094   8.859   5.970 -0.7407  0.1986  0.2819
  550MOL0     H75878  -0.043   8.994   6.143  1.9310  0.6452  1.6292
  550MOL0     H75879  -0.009   8.861   6.263 -2.3664  1.7035  1.1211
  550MOL0     H75880   0.893   8.818   6.393  0.7282 -2.1298  0.4001
  550MOL0     H75881   1.023   8.734   6.584  0.9503  0.1890 -0.0878
  550MOL0     H75882   1.187   8.653   6.906  1.2301 -1.8269  1.8226
  550MOL0     H75883   1.308   8.557   7.088  0.4117  0.1288  0.6433
  550MOL0     H75884   2.285   7.799   8.590  3.8427 -1.0062 -0.1769
  550MOL0     H75885   2.497   7.879   8.627  1.4381 -0.6440 -2.2758
  550MOL0     H75886   2.804   8.146   8.440 -1.9560 -3.0201  1.6442
  550MOL0     H75887   3.053   8.172   8.410  3.0699 -1.2805  1.2401
  550MOL0     H75888   3.303   8.081   8.477  3.2656  0.4517 -4.9393
  550MOL0     H75889   3.267   8.235   8.404 -0.2100  1.7747  1.6206
  550MOL0     H75890   3.427   8.352   8.544  2.5508  0.6453 -0.9818
  550MOL0     H75891   3.501   8.239   8.439 -0.6431  3.4469 -0.1129
  550MOL0     H75892   3.432   8.196   8.737 -0.8675  1.3949 -0.6438
  550MOL0     H75893   3.482   8.061   8.631  1.4046 -0.2151  0.8125
  550MOL0     H75894   3.642   8.309   8.635  0.1816 -0.2411  1.2757
  550MOL0     H75895   3.697   8.150   8.578 -1.2256  0.7516 -1.5502
  550MOL0     H75896   3.765   8.130   9.008 -0.9855  0.8804 -0.2936
  550MOL0     H75897   3.080   8.209   8.838 -0.2132  0.3185 -0.5270
  550MOL0     H75898   2.810   8.070   8.948 -1.3280  0.1122 -0.0819
  550MOL0     H75899   2.900   8.215   8.988 -0.8428  0.8489  0.2271
  550MOL0     H75900   2.743   8.220   8.909 -2.4476 -2.5732  1.7358
  551MOL0     O75901   1.385   7.612   6.249 -0.3175 -0.3627 -0.0266
  551MOL0     C75902   1.381   7.576   6.133  0.0936  1.2224 -0.1955
  551MOL0     O75903   1.477   7.498   6.069 -0.0842  0.1126  0.0610
  551MOL0     C75904   1.590   7.474   6.143 -0.4270 -0.1092  0.3776
  551MOL0     C75905   1.645   7.348   6.144 -0.3922  0.1826 -0.6202
  551MOL0     C75906   1.759   7.312   6.220 -0.6595  0.4432 -0.9952
  551MOL0     C75907   1.833   7.401   6.292 -0.1223 -0.0158  0.3075
  551MOL0     O75908   1.943   7.377   6.367  0.1832 -0.0780  0.5138
  551MOL0     C75909   2.055   7.463   6.317  0.5376 -0.6689 -0.7001
  551MOL0     C75910   2.192   7.397   6.334 -1.1460  0.1759 -0.7409
  551MOL0     C75911   2.244   7.400   6.479  0.6557  0.8202 -0.2462
  551MOL0     C75912   2.387   7.335   6.484  0.6099 -0.1004 -0.3783
  551MOL0     C75913   2.465   7.367   6.617  0.2228  0.4517 -0.8074
  551MOL0     C75914   2.381   7.325   6.735 -0.7164  0.0296 -0.7997
  551MOL0     C75915   2.457   7.331   6.861 -0.0960  0.3589 -0.0388
  551MOL0     C75916   2.349   7.308   6.983 -0.7444  0.1881 -0.0423
  551MOL0     N75917   2.420   7.292   7.111 -0.0892  0.5567 -0.2105
  551MOL0     C75918   2.529   7.359   7.144 -0.4918 -1.0827 -0.2804
  551MOL0     C75919   2.537   7.334   7.272  0.3511  1.1619 -1.0581
  551MOL0     C75920   2.624   7.383   7.383 -0.0272  0.1961 -1.3541
  551MOL0     C75921   2.725   7.281   7.430 -1.4357  0.8126 -0.0852
  551MOL0     C75922   2.822   7.230   7.323  0.2959 -0.0951  1.0360
  551MOL0     C75923   2.766   7.113   7.239 -0.5100  0.5225 -0.2151
  551MOL0     O75924   2.809   6.980   7.285 -0.2232  0.8654 -0.5257
  551MOL0     C75925   2.754   6.930   7.400 -0.5448  0.1627 -0.4401
  551MOL0     C75926   2.838   6.894   7.501 -0.2176 -0.8454  0.4041
  551MOL0     C75927   2.798   6.837   7.619  0.0766 -0.2932 -0.1774
  551MOL0     C75928   2.891   6.800   7.722  0.0660  0.4286 -0.5538
  551MOL0     C75929   2.656   6.822   7.637 -0.7631  0.4084  0.1890
  551MOL0     C75930   2.588   6.779   7.757 -1.1922  0.1194 -0.3624
  551MOL0     O75931   2.467   6.721   7.750  0.0689 -0.4490 -0.0244
  551MOL0     C75932   2.395   6.703   7.865  0.0726 -0.0596 -0.0705
  551MOL0     C75933   2.279   6.779   7.889 -0.9564 -0.5132  0.0236
  551MOL0     C75934   2.194   6.757   8.002  0.8235  0.2649  0.4303
  551MOL0     C75935   2.226   6.649   8.084  0.1057 -1.2684 -0.2778
  551MOL0     O75936   2.161   6.613   8.202  0.8462 -0.0403 -0.2001
  551MOL0     C75937   2.045   6.689   8.246 -1.0367 -0.6571  0.8801
  551MOL0     C75938   1.987   6.615   8.364 -0.2835  0.6341  0.1856
  551MOL0     C75939   1.840   6.646   8.401  0.1589  0.2854 -0.9603
  551MOL0     C75940   1.814   6.607   8.553 -0.1155  0.1560  0.2530
  551MOL0     C75941   1.667   6.612   8.613 -0.2760  0.3757  0.8196
  551MOL0     C75942   1.614   6.750   8.620  0.6158  0.8877 -0.1411
  551MOL0     C75943   1.465   6.756   8.689  0.4003  0.0507 -0.2189
  551MOL0     C75944   1.411   6.897   8.711  0.0537 -0.3763  1.3623
  551MOL0    Cl75945   1.463   7.017   8.580  0.0168  0.4007  0.4635
  551MOL0     C75946   2.335   6.570   8.054 -0.3630  0.5938 -0.7648
  551MOL0     C75947   2.422   6.590   7.949 -0.3254 -0.4337 -1.7009
  551MOL0     O75948   2.637   6.824   7.857  0.5133 -0.4081 -0.1159
  551MOL0     C75949   2.573   6.840   7.518 -0.2863  0.0052 -0.2933
  551MOL0     C75950   2.622   6.883   7.402 -0.3767 -0.2514  0.3801
  551MOL0     N75951   2.430   7.257   7.314 -0.4602 -0.2326  0.3701
  551MOL0     N75952   2.355   7.235   7.208 -0.6931 -1.0973  0.1811
  551MOL0     C75953   1.777   7.527   6.295 -0.8385  0.1449 -0.0619
  551MOL0     C75954   1.665   7.568   6.217  0.2997 -0.2179 -1.1432
  551MOL0     C75955   1.264   7.600   6.059 -0.2585  0.2444 -0.3015
  551MOL0     C75956   1.153   7.516   6.070  0.9688  0.4850  0.2593
  551MOL0     C75957   1.034   7.528   6.000  0.2879 -0.4866 -0.5132
  551MOL0     C75958   1.026   7.634   5.907 -0.1915  0.7359  0.2286
  551MOL0     O75959   0.910   7.647   5.838  0.4598 -0.2373 -0.2410
  551MOL0     C75960   0.892   7.714   5.713 -0.1327  0.5325 -0.0555
  551MOL0     C75961   0.896   7.592   5.613 -0.4140 -0.3004  0.2990
  551MOL0     C75962   0.775   7.498   5.637  0.1191  0.2822 -0.4638
  551MOL0     C75963   0.768   7.380   5.540 -0.0360  0.1951 -0.7983
  551MOL0     C75964   0.791   7.416   5.398 -0.3864  0.0642  0.3482
  551MOL0     C75965   0.809   7.431   5.280 -0.0890 -0.0890 -0.0324
  551MOL0     C75966   1.136   7.726   5.895  0.7800  0.2855  0.1509
  551MOL0     C75967   1.250   7.711   5.968  0.3043 -0.5519 -0.5315
  551MOL0     C75968   1.363   7.809   5.941  0.2586  0.4523 -0.2841
  551MOL0     H75969   1.591   7.272   6.088  2.7553 -0.0114 -3.7719
  551MOL0     H75970   1.792   7.210   6.235 -0.7694  0.4050 -1.0121
  551MOL0     H75971   2.059   7.556   6.374 -0.5060 -0.2692 -1.2372
  551MOL0     H75972   2.046   7.495   6.213  0.4205 -1.5711 -0.9783
  551MOL0     H75973   2.180   7.293   6.304 -0.2857 -0.1294 -0.0475
  551MOL0     H75974   2.265   7.450   6.272  4.0182 -2.7059  2.3042
  551MOL0     H75975   2.262   7.507   6.497  0.8248  0.7059  0.2727
  551MOL0     H75976   2.182   7.350   6.553  1.1255  2.4829  1.3543
  551MOL0     H75977   2.377   7.227   6.470  2.0132 -0.3821  0.6048
  551MOL0     H75978   2.444   7.383   6.404 -0.5141  1.1452 -0.4624
  551MOL0     H75979   2.471   7.476   6.623 -2.3321  0.6724 -1.0021
  551MOL0     H75980   2.563   7.319   6.612  0.1891  0.3492 -0.5302
  551MOL0     H75981   2.298   7.395   6.732  1.3418  2.5815 -1.6362
  551MOL0     H75982   2.358   7.218   6.731  0.3963 -0.3069  0.6359
  551MOL0     H75983   2.521   7.419   6.876  3.2437 -2.0626  1.1337
  551MOL0     H75984   2.523   7.244   6.860 -1.5397 -0.7605 -0.2285
  551MOL0     H75985   2.290   7.400   6.984  0.1740  0.9446 -3.4488
  551MOL0     H75986   2.274   7.235   6.953  0.3044 -0.4876 -1.1505
  551MOL0     H75987   2.593   7.425   7.085 -0.5312  0.6359  1.4850
  551MOL0     H75988   2.562   7.401   7.471 -0.4024  0.9836 -1.7635
  551MOL0     H75989   2.667   7.481   7.360 -0.3797  1.3481  2.2123
  551MOL0     H75990   2.789   7.321   7.510 -1.5081 -0.6438  0.7247
  551MOL0     H75991   2.681   7.191   7.474  2.5493 -1.7381 -0.7760
  551MOL0     H75992   2.845   7.318   7.261 -0.2240  0.6794  1.9266
  551MOL0     H75993   2.908   7.201   7.385 -2.3634  2.1279  6.3734
  551MOL0     H75994   2.658   7.099   7.251 -0.1849 -4.4764 -0.7760
  551MOL0     H75995   2.787   7.130   7.133 -0.7631  4.9677  0.2781
  551MOL0     H75996   2.946   6.905   7.490 -0.3496  1.6582  0.9736
  551MOL0     H75997   2.880   6.697   7.757  2.1082 -0.1729 -1.5560
  551MOL0     H75998   2.872   6.863   7.809  0.2767 -0.5157  0.1892
  551MOL0     H75999   2.999   6.812   7.708  0.2869 -0.3905  0.3641
  551MOL0     H76000   2.267   6.869   7.829  2.5029  1.3371  1.7899
  551MOL0     H76001   2.104   6.813   8.024  0.9143  0.1039  1.2610
  551MOL0     H76002   2.082   6.789   8.269 -1.1206 -0.9638  2.4651
  551MOL0     H76003   1.971   6.702   8.166  0.7700  3.6102 -0.4008
  551MOL0     H76004   1.997   6.508   8.345  1.5154  0.5587  1.3198
  551MOL0     H76005   2.051   6.632   8.451  0.9428 -1.9195 -0.1240
  551MOL0     H76006   1.769   6.582   8.348  0.5101 -2.6385  1.7818
  551MOL0     H76007   1.814   6.750   8.379 -0.8420 -0.0200 -1.2495
  551MOL0     H76008   1.870   6.680   8.612  1.9981 -1.9094  0.9395
  551MOL0     H76009   1.844   6.503   8.571  0.0626  0.7477  4.2327
  551MOL0     H76010   1.597   6.568   8.542 -1.5399  3.5810 -0.1111
  551MOL0     H76011   1.656   6.567   8.712 -2.2905  1.5523  1.1968
  551MOL0     H76012   1.616   6.791   8.518  0.2342 -1.5520 -1.2065
  551MOL0     H76013   1.677   6.803   8.691 -1.8760  0.2556  2.7300
  551MOL0     H76014   1.470   6.712   8.789  1.6713 -0.0307 -0.3081
  551MOL0     H76015   1.392   6.701   8.629 -0.1251  1.9948 -1.4768
  551MOL0     H76016   1.443   6.940   8.806  0.3526  0.5802  0.8481
  551MOL0     H76017   1.302   6.902   8.707  0.0701  2.2699  2.3112
  551MOL0     H76018   2.362   6.498   8.130 -0.3359  1.6323  0.2178
  551MOL0     H76019   2.507   6.524   7.936 -2.6150 -3.3983 -2.5891
  551MOL0     H76020   2.467   6.820   7.532 -0.4557 -2.2305 -3.5675
  551MOL0     H76021   2.555   6.888   7.316  0.4921 -2.5467 -0.5194
  551MOL0     H76022   1.829   7.609   6.344 -0.4122 -0.9827  1.4437
  551MOL0     H76023   1.624   7.668   6.226  0.8510 -0.1467  1.6849
  551MOL0     H76024   1.151   7.419   6.117 -2.0373 -1.1145 -2.7471
  551MOL0     H76025   0.942   7.472   6.013 -0.0674  0.7317  3.2609
  551MOL0     H76026   0.790   7.751   5.698 -1.1272 -2.3750 -1.2408
  551MOL0     H76027   0.961   7.794   5.687  1.3694 -0.2186  1.4261
  551MOL0     H76028   0.987   7.532   5.623 -0.2084 -0.1817 -0.8108
  551MOL0     H76029   0.887   7.632   5.512 -4.2379  0.2756  0.6976
  551MOL0     H76030   0.779   7.456   5.738 -0.6677 -2.4933 -1.5084
  551MOL0     H76031   0.682   7.553   5.623 -0.9268  0.2916  4.6578
  551MOL0     H76032   0.669   7.334   5.547  0.4478 -0.7614  0.3037
  551MOL0     H76033   0.848   7.311   5.569 -0.0022  1.1764  1.7505
  551MOL0     H76034   0.822   7.440   5.174 -1.7811  1.8798 -0.1398
  551MOL0     H76035   1.132   7.803   5.819  0.8846  0.6807  0.5433
  551MOL0     H76036   1.451   7.750   5.915 -1.5531 -3.9036  2.3046
  551MOL0     H76037   1.340   7.883   5.864 -0.5039  1.8153  1.2021
  551MOL0     H76038   1.380   7.852   6.040  0.8789 -0.9614  0.2554
  552MOL0     O76039   4.141   9.452   8.976 -0.7030 -0.3106 -1.0392
  552MOL0     C76040   4.116   9.547   9.047  0.2843 -0.1828 -0.5055
  552MOL0     O76041   4.094   9.669   9.000 -0.2156  0.0390 -0.2250
  552MOL0     C76042   4.081   9.687   8.865 -0.2527  0.2556 -0.2763
  552MOL0     C76043   3.953   9.687   8.803 -0.6582  0.4327 -0.7286
  552MOL0     C76044   3.951   9.713   8.664 -0.3997  0.1549  0.6620
  552MOL0     C76045   4.075   9.745   8.594 -0.0099 -0.1219  0.1838
  552MOL0     O76046   4.069   9.796   8.473  0.8725  0.7450  0.1366
  552MOL0     C76047   4.052   9.937   8.462 -0.3505 -0.2068  0.1022
  552MOL0     C76048   4.182  10.016   8.456  0.1975  0.0133  0.1320
  552MOL0     C76049   4.157  10.145   8.387  0.3850  0.4552 -0.5863
  552MOL0     C76050   4.289  10.205   8.343  0.1717  0.0441 -0.4812
  552MOL0     C76051   4.281  10.347   8.282  0.4823  0.0192 -0.3162
  552MOL0     C76052   4.424  10.392   8.261  1.0472 -0.4273  0.1806
  552MOL0     C76053   4.420  10.524   8.177  0.0199 -0.8714 -1.2437
  552MOL0     C76054   4.380  10.500   8.036  0.7327  0.5653 -0.3635
  552MOL0     N76055   4.381  10.628   7.963  0.4371  0.6483 -0.2879
  552MOL0     C76056   4.262  10.683   7.920  0.5773 -0.8499  0.0550
  552MOL0     C76057   4.302  10.796   7.844  0.4844 -0.0332 -0.3410
  552MOL0     C76058   4.215  10.885   7.764  0.6093  0.5683  0.1676
  552MOL0     C76059   4.179  10.814   7.629 -0.1072  0.2893  1.1975
  552MOL0     C76060   4.305  10.805   7.533 -0.4623 -0.2564 -0.5069
  552MOL0     C76061   4.315  10.900   7.406  0.3092 -0.2555 -0.0006
  552MOL0     O76062   4.327  11.034   7.433 -0.5642 -0.2842 -0.0538
  552MOL0     C76063   4.331  11.132   7.339 -0.1916  0.1953  0.4814
  552MOL0     C76064   4.307  11.102   7.203 -0.4971 -0.2175 -0.2560
  552MOL0     C76065   4.307  11.200   7.104 -0.2823 -0.4601  0.6976
  552MOL0     C76066   4.255  11.157   6.964 -1.0916  0.7512 -1.0925
  552MOL0     C76067   4.353  11.331   7.138 -0.0006 -0.5847 -0.0037
  552MOL0     C76068   4.365  11.442   7.037  0.2256  0.5222 -0.0927
  552MOL0     O76069   4.478  11.513   7.046 -0.2263 -0.2547  0.1726
  552MOL0     C76070   4.481  11.626   6.964  0.0931  1.4791  0.0396
  552MOL0     C76071   4.539  11.618   6.833  0.0075  0.0801 -0.7787
  552MOL0     C76072   4.577  11.730   6.761  1.2056 -0.2085  0.2667
  552MOL0     C76073   4.555  11.860   6.809  0.4197 -0.0506 -0.2524
  552MOL0     O76074   4.597  11.979   6.752 -0.4968 -0.2372 -1.2085
  552MOL0     C76075   4.708  11.975   6.654  1.6687 -0.4570  0.0777
  552MOL0     C76076   4.659  11.952   6.505 -0.3954  0.7450 -0.5174
  552MOL0     C76077   4.560  12.066   6.479  0.6680  0.1610  0.6873
  552MOL0     C76078   4.558  12.085   6.326 -0.5618  0.1256 -0.7974
  552MOL0     C76079   4.469  12.204   6.284 -0.2730  0.8354 -0.0407
  552MOL0     C76080   4.524  12.333   6.326 -0.4686  0.6862 -0.4548
  552MOL0     C76081   4.425  12.446   6.280 -0.4083  1.1035 -0.1816
  552MOL0     C76082   4.504  12.577   6.296  1.1895 -0.2301  0.4063
  552MOL0    Cl76083   4.644  12.592   6.192  0.2260  0.0876 -0.0392
  552MOL0     C76084   4.476  11.870   6.922  0.3359 -0.0019 -0.6274
  552MOL0     C76085   4.449  11.758   7.003 -0.6695 -0.3280 -0.1247
  552MOL0     O76086   4.284  11.458   6.949 -1.1847 -0.3917  0.3529
  552MOL0     C76087   4.366  11.361   7.273  0.0924 -0.3795  1.1070
  552MOL0     C76088   4.350  11.261   7.370  0.2071  0.0046  0.2374
  552MOL0     N76089   4.440  10.804   7.848 -0.2246  0.0468  0.2195
  552MOL0     N76090   4.486  10.701   7.912  0.2890 -0.1433  0.4906
  552MOL0     C76091   4.203   9.726   8.654  0.4766  0.3943  0.3116
  552MOL0     C76092   4.200   9.707   8.791 -0.4877 -0.6563  0.0450
  552MOL0     C76093   4.112   9.541   9.195  0.6825 -0.6040 -0.9735
  552MOL0     C76094   4.116   9.660   9.271 -0.0733 -0.2087 -0.0129
  552MOL0     C76095   4.112   9.657   9.409 -0.0267  0.9974 -0.5790
  552MOL0     C76096   4.100   9.534   9.475  0.1626  0.3042 -0.0128
  552MOL0     O76097   4.074   9.536   9.611  0.7035  0.4145 -0.6125
  552MOL0     C76098   4.073   9.412   9.685 -0.6461  0.2085  0.5054
  552MOL0     C76099   4.098   9.444   9.837  0.4859  0.4856  0.8322
  552MOL0     C76100   4.225   9.526   9.866 -0.9549  0.1170  0.7327
  552MOL0     C76101   4.253   9.527  10.020 -1.5327  0.0352 -1.0757
  552MOL0     C76102   4.342   9.638  10.067  1.1275 -0.7816 -0.6546
  552MOL0     C76103   4.408   9.725  10.123  0.1781  0.1575 -0.1301
  552MOL0     C76104   4.084   9.417   9.391  0.1471  0.4369 -0.4995
  552MOL0     C76105   4.087   9.419   9.259  0.8492 -0.4508 -0.7703
  552MOL0     C76106   4.053   9.290   9.199 -0.4383  0.2378  0.2893
  552MOL0     H76107   3.861   9.688   8.861  0.2134  1.2021  0.6930
  552MOL0     H76108   3.856   9.728   8.614 -0.6865 -1.0209  0.8283
  552MOL0     H76109   3.993   9.985   8.541  0.3562  0.4802  0.2222
  552MOL0     H76110   3.993   9.942   8.370  1.1580  0.6564 -0.8583
  552MOL0     H76111   4.216  10.022   8.560 -0.7130 -2.4603  0.6377
  552MOL0     H76112   4.259   9.967   8.395 -0.0992  2.5272 -2.5058
  552MOL0     H76113   4.099  10.127   8.296  0.9820  1.1043 -1.1012
  552MOL0     H76114   4.107  10.216   8.454 -0.7267 -0.9201  0.1103
  552MOL0     H76115   4.362  10.211   8.424  1.0879  0.0861 -1.2936
  552MOL0     H76116   4.330  10.135   8.271 -2.1214 -1.5362 -0.3682
  552MOL0     H76117   4.226  10.418   8.345  0.4109  1.2646 -1.7340
  552MOL0     H76118   4.221  10.327   8.193  0.1304 -0.4633  0.0228
  552MOL0     H76119   4.470  10.418   8.357  3.0125 -2.3130 -0.1634
  552MOL0     H76120   4.482  10.310   8.219 -0.9641 -1.9930  0.3054
  552MOL0     H76121   4.521  10.565   8.181  0.2057 -1.4297  0.5670
  552MOL0     H76122   4.362  10.604   8.224  0.8945 -1.9344  1.9387
  552MOL0     H76123   4.458  10.443   7.985  1.0628  1.0618 -0.4141
  552MOL0     H76124   4.282  10.455   8.019 -0.4772  3.7867 -2.7851
  552MOL0     H76125   4.163  10.643   7.938  0.2259  0.1523  0.3769
  552MOL0     H76126   4.263  10.982   7.743  0.2233  0.8796  0.7190
  552MOL0     H76127   4.124  10.909   7.818 -0.2538 -2.8677  0.4910
  552MOL0     H76128   4.122  10.722   7.650 -1.0410  0.1646 -1.5044
  552MOL0     H76129   4.103  10.871   7.575 -0.9325 -0.6033  1.3818
  552MOL0     H76130   4.395  10.813   7.594 -1.0196 -1.9502  0.6265
  552MOL0     H76131   4.313  10.701   7.499  1.9668  0.6235 -2.9672
  552MOL0     H76132   4.396  10.873   7.337 -0.8385  2.1756 -2.4971
  552MOL0     H76133   4.222  10.885   7.351  1.7236  0.9777 -3.0403
  552MOL0     H76134   4.280  11.000   7.177  2.3457 -1.4320  1.2267
  552MOL0     H76135   4.315  11.189   6.878 -0.5079  1.0812 -0.5736
  552MOL0     H76136   4.164  11.216   6.957 -1.2958  0.9711  2.1326
  552MOL0     H76137   4.236  11.049   6.957  1.5600  0.1933 -1.0164
  552MOL0     H76138   4.537  11.517   6.792 -3.1509 -1.6752  2.9598
  552MOL0     H76139   4.629  11.714   6.667 -1.2127  1.9199 -1.5679
  552MOL0     H76140   4.748  12.075   6.673 -3.5244  2.3237 -1.7115
  552MOL0     H76141   4.775  11.894   6.685 -0.4642 -1.7536  1.5518
  552MOL0     H76142   4.747  11.946   6.441  1.2938  1.3678  1.6285
  552MOL0     H76143   4.605  11.858   6.490  2.9649 -1.5192  0.3873
  552MOL0     H76144   4.589  12.159   6.528 -1.0765  1.4366 -0.5869
  552MOL0     H76145   4.459  12.041   6.514  1.1916 -1.0117  1.4500
  552MOL0     H76146   4.513  11.998   6.278 -0.5664  0.4963 -1.4635
  552MOL0     H76147   4.660  12.100   6.291  0.0430 -2.8711 -0.5643
  552MOL0     H76148   4.461  12.205   6.175 -3.0320 -2.4900 -0.0697
  552MOL0     H76149   4.370  12.190   6.330  1.0151  0.3033  2.7516
  552MOL0     H76150   4.625  12.336   6.284  0.0700  1.2860  0.7977
  552MOL0     H76151   4.538  12.331   6.435 -3.3979  1.4576  0.0369
  552MOL0     H76152   4.328  12.439   6.330 -1.9399 -1.7047 -3.2470
  552MOL0     H76153   4.419  12.446   6.171  1.1624  1.1302 -0.2930
  552MOL0     H76154   4.519  12.590   6.403 -0.2008 -4.3157  1.2445
  552MOL0     H76155   4.433  12.655   6.268 -0.8334 -1.5585  1.6047
  552MOL0     H76156   4.449  11.969   6.955 -0.7993 -1.0282  1.7325
  552MOL0     H76157   4.409  11.774   7.103 -0.5006  3.1342 -0.5002
  552MOL0     H76158   4.368  11.462   7.313 -1.2701 -0.1982  0.7824
  552MOL0     H76159   4.358  11.297   7.472 -1.6659  1.0004  0.0945
  552MOL0     H76160   4.297   9.745   8.603 -0.2792 -2.1580 -2.3365
  552MOL0     H76161   4.290   9.713   8.851 -0.1302 -2.8666 -0.1657
  552MOL0     H76162   4.130   9.761   9.232  1.5948 -0.4878 -0.2075
  552MOL0     H76163   4.113   9.742   9.476 -3.6748 -0.6144  1.8759
  552MOL0     H76164   3.973   9.371   9.664 -0.7097 -0.2393  1.5863
  552MOL0     H76165   4.149   9.345   9.644  0.9148  2.7688 -1.0787
  552MOL0     H76166   4.095   9.351   9.894 -0.6370  0.8466  1.3938
  552MOL0     H76167   4.015   9.501   9.879 -1.4931 -1.3543 -0.4171
  552MOL0     H76168   4.314   9.493   9.811 -1.3932  2.1533 -1.3529
  552MOL0     H76169   4.218   9.628   9.828 -1.2970 -0.2490 -0.2405
  552MOL0     H76170   4.317   9.444  10.053 -1.1829  0.9011  0.5097
  552MOL0     H76171   4.166   9.509  10.084 -0.3315 -3.3528 -0.1640
  552MOL0     H76172   4.473   9.785  10.183 -0.8058 -1.4663  2.7406
  552MOL0     H76173   4.078   9.324   9.445  2.9306  1.2948  1.5475
  552MOL0     H76174   3.977   9.233   9.253 -0.7124  0.6971  0.3977
  552MOL0     H76175   3.999   9.319   9.108 -0.5383  1.3465  0.6799
  552MOL0     H76176   4.143   9.231   9.181 -0.8957 -1.0767  2.1114
  553MOL0     O76177   6.757   1.809   1.977  0.0572  0.3912 -0.5394
  553MOL0     C76178   6.820   1.802   2.084  0.3164 -1.0578  1.1181
  553MOL0     O76179   6.864   1.695   2.156 -0.2633 -0.0452  0.6714
  553MOL0     C76180   6.859   1.582   2.075 -0.5062  0.0701 -0.6775
  553MOL0     C76181   6.756   1.483   2.094  0.1637 -0.2560 -0.6069
  553MOL0     C76182   6.762   1.370   2.016 -0.8536 -0.2703 -0.1131
  553MOL0     C76183   6.861   1.349   1.906  0.3549 -0.2028 -0.6975
  553MOL0     O76184   6.866   1.247   1.811  0.4168 -0.6171 -0.2573
  553MOL0     C76185   6.745   1.165   1.813 -0.9781  0.7212 -0.0887
  553MOL0     C76186   6.756   1.049   1.701  0.1581 -0.2686  0.1866
  553MOL0     C76187   6.770   1.113   1.561 -0.0718 -0.4563  0.4732
  553MOL0     C76188   6.645   1.197   1.524 -0.1510  0.7349  0.1731
  553MOL0     C76189   6.655   1.256   1.385 -0.4227  0.0488  0.0446
  553MOL0     C76190   6.521   1.317   1.340  0.2219 -0.8291 -0.7634
  553MOL0     C76191   6.406   1.216   1.310  0.1220 -0.4283 -0.5855
  553MOL0     C76192   6.447   1.109   1.203  0.0796 -0.1000 -0.4413
  553MOL0     N76193   6.326   1.048   1.140 -0.6866  0.4714  0.4993
  553MOL0     C76194   6.243   0.950   1.188  0.5398  0.4239  1.2982
  553MOL0     C76195   6.154   0.926   1.080  0.3768 -0.0368  0.3581
  553MOL0     C76196   6.057   0.819   1.106  0.5866  0.0967 -0.2362
  553MOL0     C76197   5.970   0.842   1.232  0.2840 -0.6346 -0.4004
  553MOL0     C76198   5.885   0.735   1.282  0.3110  0.6510  0.3584
  553MOL0     C76199   5.766   0.699   1.192 -0.0620  0.7607 -0.3465
  553MOL0     O76200   5.672   0.804   1.195  0.4564 -0.5814 -0.3750
  553MOL0     C76201   5.551   0.761   1.243 -0.9749 -0.4133  0.1180
  553MOL0     C76202   5.524   0.690   1.357 -0.1341  0.2556  0.3596
  553MOL0     C76203   5.398   0.639   1.397 -0.7237 -0.2251 -0.4770
  553MOL0     C76204   5.375   0.541   1.515 -0.0287 -0.0177  0.0701
  553MOL0     C76205   5.298   0.661   1.299  0.1957  0.1195  0.3002
  553MOL0     C76206   5.160   0.615   1.302 -0.1853  1.0927  0.0570
  553MOL0     O76207   5.143   0.485   1.266 -0.4410 -0.1858 -0.1975
  553MOL0     C76208   5.018   0.434   1.266 -0.4299 -0.1009  0.1785
  553MOL0     C76209   4.928   0.447   1.368 -0.4283 -0.3330 -0.9516
  553MOL0     C76210   4.803   0.381   1.368 -0.1077 -0.1549 -0.3265
  553MOL0     C76211   4.768   0.275   1.267 -0.2662 -0.1076  1.0614
  553MOL0     O76212   4.653   0.199   1.286  0.1240  0.1321 -0.0191
  553MOL0     C76213   4.611   0.118   1.170 -0.5509  0.0110 -0.0873
  553MOL0     C76214   4.493   0.038   1.218  0.0623  0.1442  0.2450
  553MOL0     C76215   4.379   0.135   1.260  0.4366  0.5431  0.4981
  553MOL0     C76216   4.307   0.210   1.145 -0.1766 -0.0033  0.3761
  553MOL0     C76217   4.189   0.310   1.195  0.4332 -0.0045 -0.4350
  553MOL0     C76218   4.068   0.219   1.240  0.7997 -0.6759 -0.4456
  553MOL0     C76219   3.940   0.305   1.270  0.1749 -0.0906  0.4395
  553MOL0     C76220   3.832   0.223   1.349 -0.9048 -0.4539 -0.8296
  553MOL0    Cl76221   3.766   0.085   1.254  0.0010 -0.0076 -0.2162
  553MOL0     C76222   4.869   0.257   1.173 -0.0242 -0.2879 -0.9800
  553MOL0     C76223   4.991   0.332   1.170  1.2907  0.4484  0.0569
  553MOL0     O76224   5.069   0.696   1.305 -0.3565 -0.0896  0.0107
  553MOL0     C76225   5.324   0.748   1.192  0.1723  0.2704  0.0841
  553MOL0     C76226   5.453   0.791   1.157 -1.2772 -0.6382 -0.3145
  553MOL0     N76227   6.191   1.010   0.976  0.3147  0.3318 -0.6905
  553MOL0     N76228   6.287   1.085   1.017 -0.3927  0.8923  0.8842
  553MOL0     C76229   6.958   1.444   1.894 -0.5071  0.5342  0.4286
  553MOL0     C76230   6.961   1.560   1.976  0.9098 -0.0551  0.3854
  553MOL0     C76231   6.844   1.939   2.148  0.4822 -0.6338  0.8770
  553MOL0     C76232   6.892   1.934   2.278 -0.8540 -0.2315  0.8773
  553MOL0     C76233   6.929   2.043   2.355  0.2409  0.3017  0.0620
  553MOL0     C76234   6.891   2.175   2.303 -0.3748  0.1913  0.0951
  553MOL0     O76235   6.903   2.293   2.384 -0.1430  0.1843  1.1208
  553MOL0     C76236   6.958   2.281   2.519  0.1754 -0.4365 -0.4772
  553MOL0     C76237   6.965   2.431   2.573 -0.4390  0.2252  0.0106
  553MOL0     C76238   7.090   2.501   2.530 -0.3240  0.2700 -0.7762
  553MOL0     C76239   7.106   2.640   2.595 -0.7178  0.1514  0.0113
  553MOL0     C76240   7.002   2.719   2.534  0.5610 -0.0165  0.3756
  553MOL0     C76241   6.914   2.800   2.504 -0.1588 -0.0952 -0.5577
  553MOL0     C76242   6.851   2.180   2.170 -0.2873 -0.4750 -0.3328
  553MOL0     C76243   6.821   2.067   2.083 -0.4261 -0.7021 -0.6462
  553MOL0     C76244   6.774   2.089   1.949  0.1827 -0.2381 -0.4097
  553MOL0     H76245   6.680   1.499   2.169 -1.3951 -0.1864 -2.1568
  553MOL0     H76246   6.678   1.301   2.026 -1.9786  1.0175 -0.3734
  553MOL0     H76247   6.648   1.215   1.803 -0.2386  2.3208  0.4466
  553MOL0     H76248   6.738   1.110   1.908  0.3866 -0.2366 -0.4973
  553MOL0     H76249   6.843   0.991   1.734  0.5909 -0.9831 -2.0659
  553MOL0     H76250   6.663   0.991   1.700 -0.3190  0.3822  2.0045
  553MOL0     H76251   6.861   1.170   1.542 -0.5966 -0.0529 -0.9227
  553MOL0     H76252   6.769   1.023   1.499  1.5130 -1.6670  2.0759
  553MOL0     H76253   6.555   1.135   1.535  1.4535 -1.7617 -0.0771
  553MOL0     H76254   6.645   1.284   1.590  0.7541  1.6883 -1.0278
  553MOL0     H76255   6.693   1.187   1.309  2.6249  1.3871  0.1596
  553MOL0     H76256   6.728   1.337   1.395 -0.5118 -0.1553  2.9538
  553MOL0     H76257   6.485   1.373   1.426  2.4324 -1.7153  0.8437
  553MOL0     H76258   6.537   1.391   1.261 -0.2617  1.5475  1.2573
  553MOL0     H76259   6.309   1.257   1.282 -0.0690 -1.9545 -2.3485
  553MOL0     H76260   6.388   1.176   1.411  2.5409  1.0984  0.5487
  553MOL0     H76261   6.503   1.159   1.123 -1.9604  3.3859  0.1026
  553MOL0     H76262   6.510   1.028   1.241 -2.3035 -1.7171  0.3760
  553MOL0     H76263   6.261   0.900   1.282 -1.0737  0.0520  1.4386
  553MOL0     H76264   6.109   0.724   1.118 -3.1829 -2.0707  0.8083
  553MOL0     H76265   5.985   0.819   1.023 -1.9444  4.4848  1.6009
  553MOL0     H76266   6.039   0.864   1.313 -1.2310  0.1313  0.7283
  553MOL0     H76267   5.908   0.931   1.214  0.1076 -0.3811  1.3340
  553MOL0     H76268   5.952   0.648   1.280 -0.1901  0.2653 -1.5255
  553MOL0     H76269   5.851   0.740   1.386  0.1888 -1.4000  0.4475
  553MOL0     H76270   5.790   0.686   1.086  3.2225  2.2734  0.0877
  553MOL0     H76271   5.722   0.605   1.228 -1.9302  1.4409 -0.7562
  553MOL0     H76272   5.615   0.651   1.402  0.9377  0.4144 -1.5591
  553MOL0     H76273   5.461   0.472   1.516  1.6938  1.8065 -3.4089
  553MOL0     H76274   5.277   0.493   1.512 -0.0987  0.1760 -1.5221
  553MOL0     H76275   5.380   0.605   1.603  1.1614  0.4016 -0.2811
  553MOL0     H76276   4.957   0.507   1.455  2.0551  1.0990 -2.6288
  553MOL0     H76277   4.725   0.399   1.442 -0.6067  1.7720 -1.2566
  553MOL0     H76278   4.597   0.180   1.081  1.7903  0.1425 -0.4196
  553MOL0     H76279   4.694   0.049   1.154  0.0059  1.0880 -2.3023
  553MOL0     H76280   4.478  -0.043   1.146 -2.0231  2.4065 -2.0747
  553MOL0     H76281   4.513  -0.021   1.308 -0.8314 -2.1653 -0.9892
  553MOL0     H76282   4.419   0.216   1.321  2.2466 -0.6696  1.0191
  553MOL0     H76283   4.302   0.076   1.311  0.1203  0.9884  0.5383
  553MOL0     H76284   4.251   0.150   1.073  0.6032  0.2201 -0.4328
  553MOL0     H76285   4.388   0.258   1.089  1.6947 -2.5784  0.6829
  553MOL0     H76286   4.220   0.364   1.285  0.6419 -1.1530  0.2149
  553MOL0     H76287   4.165   0.380   1.115 -1.0648  0.7331  0.5986
  553MOL0     H76288   4.098   0.163   1.329 -1.1096  1.8490  1.9943
  553MOL0     H76289   4.032   0.147   1.166 -2.4154 -0.2766  0.5728
  553MOL0     H76290   3.887   0.345   1.183 -1.2222  0.1034  1.3549
  553MOL0     H76291   3.974   0.389   1.330  2.6605  0.2949 -1.3423
  553MOL0     H76292   3.752   0.285   1.391  1.1511  0.7839  1.6142
  553MOL0     H76293   3.888   0.194   1.439 -3.0093 -1.2691  0.2746
  553MOL0     H76294   4.868   0.181   1.096  1.4899  0.1200 -1.4454
  553MOL0     H76295   5.067   0.310   1.095  0.2301 -0.3072 -0.8339
  553MOL0     H76296   5.242   0.767   1.124  0.0654  0.8327  0.3685
  553MOL0     H76297   5.456   0.853   1.068  0.1378 -1.3192 -0.7592
  553MOL0     H76298   7.034   1.432   1.818  1.5232  2.1497  2.0572
  553MOL0     H76299   7.042   1.630   1.958 -1.3984  2.3516 -1.5746
  553MOL0     H76300   6.917   1.841   2.328  0.4818 -2.7773 -3.9066
  553MOL0     H76301   6.964   2.035   2.457  1.4092  4.9697  0.2663
  553MOL0     H76302   6.883   2.229   2.580 -1.6395  0.3367 -1.9362
  553MOL0     H76303   7.056   2.232   2.514  0.2259 -0.3097 -0.7091
  553MOL0     H76304   6.966   2.426   2.683 -1.6821  1.9752  0.1397
  553MOL0     H76305   6.875   2.483   2.539 -3.3267 -3.2205  1.7066
  553MOL0     H76306   7.176   2.446   2.567  1.0239  2.3871 -0.5830
  553MOL0     H76307   7.098   2.517   2.422  3.0178  1.2566 -0.4901
  553MOL0     H76308   7.203   2.685   2.573 -0.7693  0.9445  1.3085
  553MOL0     H76309   7.100   2.639   2.704  2.6660  0.6693  0.2862
  553MOL0     H76310   6.832   2.858   2.468  1.4296  1.3757 -2.0072
  553MOL0     H76311   6.825   2.275   2.125 -2.2711 -0.9759 -0.3592
  553MOL0     H76312   6.849   2.063   1.874  2.6179  5.2008 -0.3835
  553MOL0     H76313   6.677   2.048   1.922 -0.0193  1.1059 -1.8912
  553MOL0     H76314   6.768   2.198   1.938 -1.5965 -0.4354 -1.8909
  554MOL0     O76315  11.126   1.380   9.025  0.8919 -0.6946  0.1872
  554MOL0     C76316  11.153   1.479   9.093 -0.9036 -0.5504  0.9578
  554MOL0     O76317  11.272   1.527   9.122  0.3085  0.0607 -0.1122
  554MOL0     C76318  11.383   1.462   9.068 -0.3488 -0.2978  0.1177
  554MOL0     C76319  11.449   1.508   8.954  0.4112 -0.7263  0.1359
  554MOL0     C76320  11.553   1.432   8.907 -0.7964 -1.4709  0.8313
  554MOL0     C76321  11.597   1.312   8.965  0.8563 -0.4857  0.8884
  554MOL0     O76322  11.715   1.252   8.916 -0.2800 -0.4227  0.1551
  554MOL0     C76323  11.736   1.110   8.936  0.6384 -0.2904  0.4224
  554MOL0     C76324  11.846   1.055   8.841 -0.3461 -0.3744  0.0422
  554MOL0     C76325  11.882   0.911   8.865  0.5700 -0.0021 -0.3723
  554MOL0     C76326  11.950   0.859   8.734  0.6973 -0.1556 -0.8593
  554MOL0     C76327  11.932   0.706   8.716  0.1609 -0.0860  0.2891
  554MOL0     C76328  12.000   0.630   8.829 -0.2097 -0.4646 -0.3988
  554MOL0     C76329  11.998   0.480   8.826 -0.3233  0.3719 -0.1181
  554MOL0     C76330  11.873   0.429   8.887 -0.0614 -0.7161  0.3906
  554MOL0     N76331  11.848   0.463   9.028 -0.3612 -1.3027 -1.0242
  554MOL0     C76332  11.924   0.431   9.136 -0.2826  0.0773 -0.0807
  554MOL0     C76333  11.848   0.469   9.245  0.1597  0.0627  0.3999
  554MOL0     C76334  11.885   0.445   9.384  0.2023  0.9910  0.5034
  554MOL0     C76335  11.776   0.368   9.463 -0.1541  0.2850  0.0192
  554MOL0     C76336  11.838   0.290   9.579  0.4843 -0.3955 -0.5207
  554MOL0     C76337  11.743   0.177   9.641 -0.2460 -0.4537 -0.0661
  554MOL0     O76338  11.707   0.091   9.536  0.6996  0.3855 -0.6454
  554MOL0     C76339  11.569   0.087   9.526  1.0166  0.6067  0.9243
  554MOL0     C76340  11.507   0.002   9.623 -0.3232  0.5141  0.7036
  554MOL0     C76341  11.371  -0.025   9.615 -0.6907  0.7807 -1.3866
  554MOL0     C76342  11.312  -0.099   9.739  0.7591 -0.1554  0.4922
  554MOL0     C76343  11.302   0.020   9.502  0.1236  0.4542  0.3247
  554MOL0     C76344  11.157  -0.012   9.482 -0.1489 -0.4924 -0.0424
  554MOL0     O76345  11.083  -0.080   9.570  0.0539  0.1311 -0.1392
  554MOL0     C76346  10.963  -0.128   9.556  0.5777 -0.5780  0.8667
  554MOL0     C76347  10.854  -0.044   9.592 -0.0504  0.1292  0.3207
  554MOL0     C76348  10.720  -0.086   9.579 -0.7335  0.0019  0.2918
  554MOL0     C76349  10.692  -0.212   9.524 -0.2006 -1.0032 -0.1920
  554MOL0     O76350  10.554  -0.222   9.510 -0.6189  0.3236  0.5773
  554MOL0     C76351  10.518  -0.327   9.419  1.0437  0.6940 -0.1462
  554MOL0     C76352  10.373  -0.341   9.403  0.4786  0.6454 -0.6326
  554MOL0     C76353  10.307  -0.396   9.521  0.1996  1.0782 -0.2402
  554MOL0     C76354  10.162  -0.433   9.487 -1.0108 -0.3138  0.1993
  554MOL0     C76355  10.105  -0.514   9.602  0.1513 -0.1567 -0.1026
  554MOL0     C76356   9.964  -0.538   9.555 -0.0232 -0.0248 -0.5233
  554MOL0     C76357   9.892  -0.620   9.661  0.2473 -0.3675  0.2991
  554MOL0     C76358   9.776  -0.684   9.592 -1.0366  0.9682 -0.6921
  554MOL0    Cl76359   9.649  -0.562   9.545  0.1388  0.2999  0.1429
  554MOL0     C76360  10.793  -0.299   9.500 -0.1822 -0.4058  0.4368
  554MOL0     C76361  10.928  -0.260   9.518 -0.2112 -0.8616 -0.4751
  554MOL0     O76362  11.124   0.005   9.366  0.5261 -0.1275  0.0204
  554MOL0     C76363  11.368   0.095   9.396 -0.6565  0.2199 -0.2867
  554MOL0     C76364  11.501   0.125   9.414  0.4095  0.2689  0.0979
  554MOL0     N76365  11.728   0.536   9.205 -0.4067  0.1283 -0.0616
  554MOL0     N76366  11.735   0.525   9.073  0.2600 -0.2923 -0.0332
  554MOL0     C76367  11.515   1.264   9.071 -0.6777 -0.1874  1.1317
  554MOL0     C76368  11.419   1.345   9.126 -0.4185 -0.3634  0.4194
  554MOL0     C76369  11.043   1.573   9.122  0.5932 -0.0985 -0.3960
  554MOL0     C76370  10.937   1.605   9.027  0.3057  0.0654  0.3153
  554MOL0     C76371  10.848   1.707   9.047  0.9209  0.7726  0.8407
  554MOL0     C76372  10.847   1.779   9.166  0.2526 -0.1059  0.2355
  554MOL0     O76373  10.742   1.871   9.181 -0.2754 -0.8778 -0.2052
  554MOL0     C76374  10.716   1.920   9.310 -0.2274  1.0155  0.4121
  554MOL0     C76375  10.572   1.970   9.303  0.8369 -0.5275 -0.7065
  554MOL0     C76376  10.556   2.103   9.227  0.4943 -0.4213 -0.5389
  554MOL0     C76377  10.656   2.212   9.271 -0.5531 -0.4282 -0.0677
  554MOL0     C76378  10.647   2.321   9.167  0.1511  0.1991 -0.6956
  554MOL0     C76379  10.624   2.400   9.080 -0.3849 -0.7719  0.1389
  554MOL0     C76380  10.941   1.758   9.262 -0.2273  1.3335 -0.3002
  554MOL0     C76381  11.035   1.645   9.246  0.1499  0.1124  0.1524
  554MOL0     C76382  11.101   1.601   9.377  0.8661 -0.0457  0.2093
  554MOL0     H76383  11.422   1.602   8.907  1.7307  1.3913  3.2887
  554MOL0     H76384  11.613   1.461   8.822 -0.5075 -1.3658  1.0672
  554MOL0     H76385  11.647   1.050   8.913  0.1091 -0.1156  1.8902
  554MOL0     H76386  11.763   1.105   9.042 -0.3203 -0.3134  0.6728
  554MOL0     H76387  11.808   1.071   8.740 -0.6086 -0.2912  0.1530
  554MOL0     H76388  11.937   1.114   8.857 -0.8019  0.5030 -0.5580
  554MOL0     H76389  11.939   0.892   8.956 -2.7773 -2.1189  1.5056
  554MOL0     H76390  11.785   0.860   8.872  0.0618  0.6022 -2.3637
  554MOL0     H76391  11.902   0.912   8.651 -0.5483 -1.5873 -1.0911
  554MOL0     H76392  12.054   0.891   8.744  0.7005 -0.3030 -0.3798
  554MOL0     H76393  11.976   0.675   8.620  1.1028  1.1170  0.3094
  554MOL0     H76394  11.826   0.680   8.721 -0.5983  2.4028 -1.0532
  554MOL0     H76395  12.103   0.665   8.844 -0.5937  0.3809  0.3662
  554MOL0     H76396  11.971   0.663   8.929  3.3578 -4.2843  2.2691
  554MOL0     H76397  12.084   0.432   8.875 -1.3130 -2.5632 -1.0099
  554MOL0     H76398  12.001   0.430   8.728  1.3643 -0.5828  0.3636
  554MOL0     H76399  11.784   0.444   8.825 -0.4158 -0.3696  0.9728
  554MOL0     H76400  11.885   0.320   8.891  3.5012 -0.4274  0.7395
  554MOL0     H76401  12.018   0.378   9.141  0.4272  0.7947 -3.5359
  554MOL0     H76402  11.909   0.540   9.433  2.2734  0.0665  1.3742
  554MOL0     H76403  11.979   0.391   9.382 -0.0169  0.4844  2.2512
  554MOL0     H76404  11.686   0.415   9.504  0.2403 -2.1191  4.3065
  554MOL0     H76405  11.739   0.286   9.401  0.0214 -0.2905  0.6654
  554MOL0     H76406  11.927   0.230   9.560  0.0381 -2.4510  3.0452
  554MOL0     H76407  11.875   0.365   9.649  2.0981  1.9698 -3.6408
  554MOL0     H76408  11.796   0.121   9.719 -0.2873  3.3829  2.9800
  554MOL0     H76409  11.663   0.226   9.697  2.2281  3.1766  0.6241
  554MOL0     H76410  11.570  -0.036   9.703 -0.3048 -1.4042 -0.1524
  554MOL0     H76411  11.263  -0.193   9.711  2.1560 -0.1967 -2.1809
  554MOL0     H76412  11.238  -0.040   9.793 -0.8831  2.8467 -4.3726
  554MOL0     H76413  11.395  -0.127   9.804  1.8863  2.5193  0.3221
  554MOL0     H76414  10.870   0.059   9.623 -0.0147  0.5263 -0.9652
  554MOL0     H76415  10.643  -0.015   9.605  2.5878  4.0643  0.1068
  554MOL0     H76416  10.568  -0.315   9.322 -0.2310 -0.5709 -0.9959
  554MOL0     H76417  10.548  -0.418   9.472  2.5532  0.1017 -1.9068
  554MOL0     H76418  10.323  -0.243   9.399 -1.0450 -0.1329 -2.2392
  554MOL0     H76419  10.350  -0.409   9.321  1.6018 -1.4486  0.7083
  554MOL0     H76420  10.317  -0.316   9.594  1.5854  1.3152 -0.6467
  554MOL0     H76421  10.347  -0.495   9.546  0.0092  0.3619 -2.4866
  554MOL0     H76422  10.167  -0.500   9.401  0.8205  0.0555 -0.0091
  554MOL0     H76423  10.107  -0.338   9.482 -1.4549 -0.6348 -1.5454
  554MOL0     H76424  10.149  -0.614   9.613  0.4687 -0.0392 -0.2751
  554MOL0     H76425  10.118  -0.452   9.691 -1.8154 -1.3811  1.1175
  554MOL0     H76426   9.967  -0.593   9.461 -0.5222 -1.4838  0.2984
  554MOL0     H76427   9.920  -0.438   9.541  1.5251  0.6386 -0.8655
  554MOL0     H76428   9.872  -0.557   9.749 -0.4728  0.5327 -0.4885
  554MOL0     H76429   9.957  -0.697   9.704 -0.9504 -0.7923  1.3941
  554MOL0     H76430   9.718  -0.744   9.663 -1.4448  1.8815 -0.2334
  554MOL0     H76431   9.799  -0.759   9.515 -0.3209  0.5435 -0.0793
  554MOL0     H76432  10.791  -0.402   9.468  1.8831 -0.8343  1.5297
  554MOL0     H76433  11.008  -0.331   9.500  0.1950 -0.5599  0.1281
  554MOL0     H76434  11.321   0.111   9.300  0.8668  0.5967 -1.0088
  554MOL0     H76435  11.558   0.180   9.340 -0.1829  2.7163  1.3244
  554MOL0     H76436  11.546   1.168   9.112  1.5497  0.4622  1.1053
  554MOL0     H76437  11.367   1.314   9.216 -3.0994 -0.5538 -1.0610
  554MOL0     H76438  10.931   1.560   8.928  0.3803  0.4540  0.1314
  554MOL0     H76439  10.773   1.725   8.972  0.9553  1.1836  0.9042
  554MOL0     H76440  10.713   1.833   9.377 -3.4868  0.5364 -0.1723
  554MOL0     H76441  10.792   1.989   9.346  0.3284 -0.1852  1.6168
  554MOL0     H76442  10.531   1.995   9.401 -3.8123  0.8708 -2.7432
  554MOL0     H76443  10.508   1.890   9.267 -3.1403  2.0094  0.0444
  554MOL0     H76444  10.587   2.100   9.122  5.8832  1.2097  0.6955
  554MOL0     H76445  10.457   2.145   9.243  0.8071 -0.5202  2.0483
  554MOL0     H76446  10.762   2.186   9.269 -0.6169 -0.6960 -0.0182
  554MOL0     H76447  10.628   2.236   9.374  0.7855 -0.0014  0.2119
  554MOL0     H76448  10.593   2.466   9.001  0.2957  3.3481  3.0117
  554MOL0     H76449  10.954   1.820   9.350 -0.9102  1.3659 -0.2144
  554MOL0     H76450  11.058   1.505   9.408 -0.8506  0.6945  0.2711
  554MOL0     H76451  11.208   1.584   9.363  0.8781  0.6125 -0.5746
  554MOL0     H76452  11.086   1.677   9.454 -0.5989  0.9581 -1.0086
  555MOL0     O76453   8.145   6.640   6.160  0.0373  0.9664 -0.2316
  555MOL0     C76454   8.047   6.679   6.221  0.6924  0.3050 -0.2799
  555MOL0     O76455   7.915   6.690   6.170 -0.0896 -1.1028  0.9855
  555MOL0     C76456   7.900   6.692   6.029  0.1578  0.8066 -0.5417
  555MOL0     C76457   7.885   6.808   5.949  0.3519 -0.0383  0.4014
  555MOL0     C76458   7.870   6.789   5.810 -0.0533 -0.3702 -0.0451
  555MOL0     C76459   7.834   6.664   5.753  0.1458 -0.3243  0.8667
  555MOL0     O76460   7.810   6.637   5.615 -0.2230  0.6949  0.1832
  555MOL0     C76461   7.911   6.644   5.523 -0.8021 -0.3214 -0.0276
  555MOL0     C76462   7.859   6.596   5.387  0.1208  0.6582  0.1322
  555MOL0     C76463   7.817   6.452   5.364  0.4096  0.4321 -0.3025
  555MOL0     C76464   7.731   6.433   5.246 -0.1167  0.8164 -0.4322
  555MOL0     C76465   7.696   6.288   5.245  0.5986  0.3602  0.4102
  555MOL0     C76466   7.639   6.236   5.109  0.2406 -0.3494 -0.0776
  555MOL0     C76467   7.591   6.087   5.114 -0.6232 -0.0986 -0.7859
  555MOL0     C76468   7.696   5.988   5.065  0.1960  0.0994 -0.3992
  555MOL0     N76469   7.627   5.873   5.003 -0.6231 -0.5160  0.5590
  555MOL0     C76470   7.586   5.770   5.079  0.7369  0.8689  0.1020
  555MOL0     C76471   7.549   5.677   5.000 -0.2500  0.6693  0.7309
  555MOL0     C76472   7.497   5.543   5.036 -0.2074  0.0874 -1.2635
  555MOL0     C76473   7.391   5.549   5.142  0.8713  0.1305  0.5475
  555MOL0     C76474   7.339   5.408   5.183  0.3199  0.1827 -0.3704
  555MOL0     C76475   7.440   5.318   5.247 -0.2746  0.8337  0.2594
  555MOL0     O76476   7.470   5.384   5.365 -0.4093 -1.0348 -0.2292
  555MOL0     C76477   7.382   5.380   5.471 -1.0203 -0.3247  0.0320
  555MOL0     C76478   7.401   5.473   5.567  0.5618 -0.6362  0.0794
  555MOL0     C76479   7.326   5.484   5.686 -0.7410  0.5457 -0.1807
  555MOL0     C76480   7.364   5.591   5.783  1.0264 -0.0622 -1.0153
  555MOL0     C76481   7.229   5.386   5.716  0.7021 -0.7977  0.4164
  555MOL0     C76482   7.157   5.367   5.842 -0.1056  0.5102 -0.6943
  555MOL0     O76483   7.083   5.261   5.867  0.6135 -0.4790 -0.7087
  555MOL0     C76484   7.012   5.245   5.987  0.2019 -0.9917  0.7024
  555MOL0     C76485   6.993   5.120   6.045  0.7135  0.1357  0.3722
  555MOL0     C76486   6.918   5.109   6.164 -0.0100 -0.7217 -0.0012
  555MOL0     C76487   6.856   5.223   6.223 -0.1470  0.3854 -0.5874
  555MOL0     O76488   6.771   5.212   6.331  0.0835  0.2833 -0.5817
  555MOL0     C76489   6.750   5.328   6.416  0.5212  0.0565  0.3269
  555MOL0     C76490   6.683   5.279   6.550 -0.5198  0.4648 -0.1686
  555MOL0     C76491   6.577   5.184   6.528  0.5203  0.9506  0.2453
  555MOL0     C76492   6.536   5.118   6.651 -0.4673 -0.0222 -0.5985
  555MOL0     C76493   6.478   4.982   6.642  0.1784 -0.5968 -0.4176
  555MOL0     C76494   6.324   4.992   6.628 -0.0716  0.4129  0.1007
  555MOL0     C76495   6.256   4.866   6.561 -0.2808  0.5165 -0.5625
  555MOL0     C76496   6.210   4.893   6.418 -0.1138  0.6090 -0.0025
  555MOL0    Cl76497   6.086   5.033   6.396 -0.1054 -0.2301 -0.0746
  555MOL0     C76498   6.870   5.354   6.164 -0.6661 -0.6982 -0.0491
  555MOL0     C76499   6.953   5.361   6.055  0.2238  0.6658 -1.0990
  555MOL0     O76500   7.171   5.463   5.913  0.0069 -0.9944  0.1908
  555MOL0     C76501   7.200   5.297   5.612  0.1142  0.7038 -0.0428
  555MOL0     C76502   7.278   5.293   5.492  1.3131  0.7042 -0.0397
  555MOL0     N76503   7.584   5.709   4.868 -0.1074 -0.0885 -0.0910
  555MOL0     N76504   7.625   5.831   4.868  0.8243  0.0788  0.4974
  555MOL0     C76505   7.858   6.553   5.839  0.1337 -0.2503 -0.5266
  555MOL0     C76506   7.889   6.564   5.967 -0.8211 -0.2017 -0.0494
  555MOL0     C76507   8.067   6.715   6.362 -0.1010 -0.7607 -0.7849
  555MOL0     C76508   7.950   6.733   6.440  0.0315 -0.0773  0.0854
  555MOL0     C76509   7.954   6.750   6.585 -0.3895  0.8286  0.1783
  555MOL0     C76510   8.077   6.779   6.639  0.0329 -0.1092 -0.1779
  555MOL0     O76511   8.085   6.798   6.777  0.1273  0.3989 -0.1835
  555MOL0     C76512   7.970   6.818   6.846  1.2749 -0.3151  0.1219
  555MOL0     C76513   7.993   6.856   6.992  0.0549 -0.4331 -0.6220
  555MOL0     C76514   8.064   6.992   6.994 -0.5635  0.1960  0.6166
  555MOL0     C76515   8.036   7.074   7.124  0.2643  0.2600 -0.1474
  555MOL0     C76516   7.895   7.111   7.139 -0.6623  0.1896  0.2635
  555MOL0     C76517   7.775   7.126   7.141  0.4952  0.7012  0.2760
  555MOL0     C76518   8.191   6.784   6.563 -0.7663 -0.1408 -0.1164
  555MOL0     C76519   8.196   6.753   6.428 -0.0589  0.3451 -0.0400
  555MOL0     C76520   8.336   6.748   6.372 -0.0779  0.1534  0.6331
  555MOL0     H76521   7.905   6.911   5.976 -0.5700  1.3658 -3.6182
  555MOL0     H76522   7.878   6.875   5.745  4.9810 -0.2294  0.3457
  555MOL0     H76523   7.999   6.591   5.559  0.0277  1.3777  0.5692
  555MOL0     H76524   7.956   6.744   5.524 -0.0792 -0.6181 -0.7221
  555MOL0     H76525   7.769   6.654   5.365 -0.1912  0.6647  1.3111
  555MOL0     H76526   7.927   6.624   5.307 -1.5099 -2.7920 -2.7053
  555MOL0     H76527   7.910   6.395   5.354  0.3516 -0.1944  2.1224
  555MOL0     H76528   7.793   6.402   5.458  1.3062  1.4821  0.5204
  555MOL0     H76529   7.641   6.495   5.247 -0.2137  0.6760 -0.4675
  555MOL0     H76530   7.768   6.458   5.146  1.8902  1.5185  0.4410
  555MOL0     H76531   7.624   6.268   5.325  1.0533  0.3464  0.8185
  555MOL0     H76532   7.786   6.230   5.262 -0.3737 -0.9957  1.1406
  555MOL0     H76533   7.561   6.299   5.067  1.2157 -0.1562 -1.7086
  555MOL0     H76534   7.711   6.244   5.027 -2.2635  0.3671 -2.3520
  555MOL0     H76535   7.500   6.076   5.054 -1.4081  2.5172 -0.2169
  555MOL0     H76536   7.562   6.080   5.220  1.2594  2.6580  0.0298
  555MOL0     H76537   7.768   6.034   4.997 -0.2268  4.8742  1.9709
  555MOL0     H76538   7.753   5.954   5.152  0.8059 -3.6549 -2.0509
  555MOL0     H76539   7.592   5.762   5.187  1.5640 -1.9385 -0.0759
  555MOL0     H76540   7.588   5.487   5.058 -1.9652 -1.9174  1.7436
  555MOL0     H76541   7.444   5.498   4.951 -2.2963 -0.3433  0.1833
  555MOL0     H76542   7.427   5.589   5.237  0.8397  1.5000  0.0035
  555MOL0     H76543   7.306   5.613   5.117 -1.2867 -2.2776  1.3544
  555MOL0     H76544   7.248   5.420   5.243 -1.5208 -0.9687 -2.7726
  555MOL0     H76545   7.311   5.352   5.093  3.9625 -5.3235  1.3813
  555MOL0     H76546   7.402   5.217   5.262  0.9597  0.3701  0.4283
  555MOL0     H76547   7.520   5.307   5.172  0.0520  0.1187  0.6999
  555MOL0     H76548   7.484   5.542   5.552  1.3773 -1.6264 -0.0789
  555MOL0     H76549   7.274   5.651   5.803  2.2201  1.1321  1.0630
  555MOL0     H76550   7.427   5.672   5.748  2.0841 -0.7691 -0.7892
  555MOL0     H76551   7.407   5.544   5.871  2.7690 -0.8210 -2.2105
  555MOL0     H76552   7.026   5.025   6.006 -0.4109 -0.3063  0.4718
  555MOL0     H76553   6.912   5.012   6.214  0.9750 -0.6980  0.1719
  555MOL0     H76554   6.847   5.375   6.432 -0.1784  1.1765  1.4765
  555MOL0     H76555   6.674   5.394   6.372 -0.9522  0.3428  3.0679
  555MOL0     H76556   6.756   5.225   6.611 -4.0757 -2.1257  2.2099
  555MOL0     H76557   6.651   5.368   6.604 -0.2085  1.9012 -2.2501
  555MOL0     H76558   6.612   5.109   6.456 -1.2785 -0.3732  0.7020
  555MOL0     H76559   6.495   5.245   6.488 -0.3285  0.1269  0.7004
  555MOL0     H76560   6.470   5.189   6.703 -0.3750 -1.0440  0.9814
  555MOL0     H76561   6.619   5.109   6.722 -0.8712 -0.9912 -0.2309
  555MOL0     H76562   6.521   4.943   6.549  1.5357  0.8071 -0.4314
  555MOL0     H76563   6.494   4.911   6.724 -0.6896 -0.2266  0.0748
  555MOL0     H76564   6.299   5.085   6.577 -1.0880  0.7156  1.1277
  555MOL0     H76565   6.287   5.003   6.730  0.1742 -2.5095  0.6037
  555MOL0     H76566   6.173   4.839   6.627  1.6496  1.4510  2.4826
  555MOL0     H76567   6.325   4.781   6.565  0.6998  1.3235  2.0496
  555MOL0     H76568   6.173   4.797   6.380  2.3218 -0.8648  1.1114
  555MOL0     H76569   6.301   4.930   6.370  0.6054 -0.4883  0.4555
  555MOL0     H76570   6.818   5.443   6.200 -1.5550 -0.7080 -1.2474
  555MOL0     H76571   6.960   5.460   6.011  1.2953  1.5325  0.9124
  555MOL0     H76572   7.124   5.221   5.621  0.4248  0.3378 -0.4731
  555MOL0     H76573   7.249   5.220   5.418  2.8995  0.8743 -0.8867
  555MOL0     H76574   7.835   6.458   5.791 -4.7253 -0.4785  1.6407
  555MOL0     H76575   7.882   6.479   6.035 -2.2769 -0.0728  0.0004
  555MOL0     H76576   7.853   6.709   6.398  0.4761  0.8154 -1.5452
  555MOL0     H76577   7.858   6.760   6.635 -0.8547  0.4977 -0.6171
  555MOL0     H76578   7.921   6.902   6.796 -0.9520 -1.1648  0.7560
  555MOL0     H76579   7.904   6.731   6.846 -2.8029  2.3978  3.3010
  555MOL0     H76580   8.047   6.768   7.027  2.3291  1.1132 -0.0133
  555MOL0     H76581   7.898   6.862   7.047  0.1050 -1.6562 -0.3774
  555MOL0     H76582   8.172   6.974   6.983 -0.7761  0.3359 -2.8306
  555MOL0     H76583   8.016   7.050   6.915 -2.6236 -0.3510  1.4144
  555MOL0     H76584   8.080   7.174   7.113  1.2626 -0.2037 -0.5023
  555MOL0     H76585   8.064   7.033   7.222 -2.9265 -0.8298  0.4106
  555MOL0     H76586   7.671   7.139   7.161  0.4922 -0.0574  0.7985
  555MOL0     H76587   8.269   6.822   6.628 -1.1686 -0.3475  0.5025
  555MOL0     H76588   8.411   6.754   6.452  0.1397  0.6921  0.3991
  555MOL0     H76589   8.371   6.658   6.321 -0.6472  0.1018  0.3221
  555MOL0     H76590   8.349   6.821   6.291  1.0269 -0.7580 -0.0328
  556MOL0     O76591   0.310   0.896   6.209 -0.4007 -0.6094 -0.4872
  556MOL0     C76592   0.258   0.935   6.100 -0.0360 -0.2757  0.0577
  556MOL0     O76593   0.133   0.990   6.091 -0.4102 -0.1673 -0.4719
  556MOL0     C76594   0.058   1.017   6.201  0.2305  0.3713  0.8702
  556MOL0     C76595  -0.020   0.909   6.221  1.0182  0.6276 -1.0082
  556MOL0     C76596  -0.114   0.901   6.328  0.0894 -0.3050  0.5379
  556MOL0     C76597  -0.136   1.010   6.409  1.3271  0.8471  0.7850
  556MOL0     O76598  -0.212   0.983   6.508 -0.2004  0.0788 -0.4494
  556MOL0     C76599  -0.202   1.045   6.635 -0.0842  0.3352 -0.0095
  556MOL0     C76600  -0.238   0.953   6.752  0.6119  0.5594 -0.4257
  556MOL0     C76601  -0.151   0.826   6.777  0.4196 -0.2504 -0.6816
  556MOL0     C76602  -0.208   0.741   6.895  0.8894 -0.1839  0.0766
  556MOL0     C76603  -0.238   0.822   7.023  1.1450 -0.6907 -0.7479
  556MOL0     C76604  -0.122   0.906   7.076  0.2025 -0.4418  0.2024
  556MOL0     C76605  -0.157   0.981   7.208 -0.4121  0.0834  0.8157
  556MOL0     C76606  -0.049   1.085   7.244 -0.5381 -0.4449  0.0606
  556MOL0     N76607   0.067   1.020   7.304 -0.6201  0.0699 -0.1771
  556MOL0     C76608   0.190   0.989   7.255  0.2295 -0.1042  0.9316
  556MOL0     C76609   0.250   0.914   7.352  0.5969 -0.2570  0.1647
  556MOL0     C76610   0.373   0.839   7.319  0.3536  0.5745  0.0657
  556MOL0     C76611   0.354   0.679   7.323 -0.4589 -0.5781  0.2338
  556MOL0     C76612   0.276   0.618   7.197  0.0980  0.2730 -0.3301
  556MOL0     C76613   0.234   0.475   7.212  0.7371 -0.0619  1.2579
  556MOL0     O76614   0.189   0.411   7.080 -0.3068  0.0223 -0.0266
  556MOL0     C76615   0.059   0.363   7.077 -0.4427 -0.4878 -0.3374
  556MOL0     C76616   0.041   0.223   7.034 -0.6891 -1.1250  0.9234
  556MOL0     C76617  -0.088   0.166   7.023  0.2697 -0.2738 -0.5880
  556MOL0     C76618  -0.108   0.013   7.006  0.4322 -0.2262 -0.2056
  556MOL0     C76619  -0.207   0.250   7.039 -0.4352  0.2685  0.1120
  556MOL0     C76620  -0.346   0.216   6.999  0.7881 -0.4660  0.2149
  556MOL0     O76621  -0.365   0.127   6.898  0.2205 -0.2559  0.5122
  556MOL0     C76622  -0.484   0.070   6.876  1.0509 -0.0050  0.5507
  556MOL0     C76623  -0.576   0.039   6.985  0.0895  0.9586 -0.1789
  556MOL0     C76624  -0.693  -0.030   6.957  0.9185  1.2908  1.0823
  556MOL0     C76625  -0.733  -0.045   6.821 -0.9669 -0.3689  0.2983
  556MOL0     O76626  -0.838  -0.126   6.788  0.1276  0.2685  0.3675
  556MOL0     C76627  -0.928  -0.072   6.690 -0.5422 -0.0937  0.3139
  556MOL0     C76628  -1.065  -0.130   6.709  0.2312 -0.0446  0.7309
  556MOL0     C76629  -1.169  -0.067   6.615 -0.2244  0.4506 -0.4175
  556MOL0     C76630  -1.304  -0.139   6.626 -0.1170  0.4458  0.4408
  556MOL0     C76631  -1.416  -0.105   6.525 -0.0439  0.7037  0.2129
  556MOL0     C76632  -1.366  -0.129   6.386 -0.2549  0.0449 -0.5704
  556MOL0     C76633  -1.483  -0.124   6.280 -0.6584  0.8471 -0.1172
  556MOL0     C76634  -1.439  -0.137   6.132 -0.3829  0.0675 -0.6516
  556MOL0    Cl76635  -1.382  -0.309   6.095  0.0350 -0.0843  0.0893
  556MOL0     C76636  -0.643  -0.015   6.722  0.1215  0.1085  0.0035
  556MOL0     C76637  -0.520   0.050   6.749 -0.1317 -0.5418 -0.9468
  556MOL0     O76638  -0.436   0.274   7.061 -0.5738 -0.5174  0.0443
  556MOL0     C76639  -0.182   0.385   7.071 -0.5870  0.7453  0.5407
  556MOL0     C76640  -0.051   0.436   7.104  0.3922  0.1439  0.0706
  556MOL0     N76641   0.182   0.935   7.478  0.4462 -0.7683  0.2513
  556MOL0     N76642   0.070   0.994   7.445 -0.6847  0.7658  0.4075
  556MOL0     C76643  -0.055   1.126   6.385  0.2019 -0.0281  0.5937
  556MOL0     C76644   0.040   1.127   6.280 -0.6684  0.2890 -0.8377
  556MOL0     C76645   0.330   0.917   5.970 -0.6360 -0.4690 -0.4879
  556MOL0     C76646   0.246   0.856   5.876 -0.3840  1.0471  0.9532
  556MOL0     C76647   0.305   0.807   5.757  0.0208 -0.0337  0.3948
  556MOL0     C76648   0.441   0.830   5.731  0.1127  0.1742 -0.2590
  556MOL0     O76649   0.510   0.774   5.630 -0.1997 -1.2751 -0.6103
  556MOL0     C76650   0.468   0.815   5.506  0.0000  0.3763  0.6576
  556MOL0     C76651   0.558   0.758   5.394  0.0330 -0.4305 -0.2408
  556MOL0     C76652   0.695   0.827   5.395 -0.4081 -0.0960  0.3173
  556MOL0     C76653   0.775   0.811   5.258 -0.0113 -0.0615 -0.5238
  556MOL0     C76654   0.761   0.668   5.201 -0.2376 -0.6657 -0.3858
  556MOL0     C76655   0.768   0.546   5.183 -0.0523 -1.0161  0.8341
  556MOL0     C76656   0.523   0.894   5.826  0.8679  0.0815  0.1109
  556MOL0     C76657   0.469   0.935   5.947  0.4307  1.2077  0.5363
  556MOL0     C76658   0.561   1.007   6.042 -0.1040  0.2927  0.1507
  556MOL0     H76659  -0.010   0.819   6.159 -0.6323  0.1330 -0.6004
  556MOL0     H76660  -0.171   0.808   6.336  0.1576 -0.2245  2.2076
  556MOL0     H76661  -0.269   1.129   6.653 -0.0863  0.5182 -0.8334
  556MOL0     H76662  -0.102   1.090   6.636 -0.5968  1.5198 -0.5944
  556MOL0     H76663  -0.250   1.019   6.839 -3.8244 -0.8965  0.2934
  556MOL0     H76664  -0.337   0.914   6.730  1.7553 -3.6724  1.0859
  556MOL0     H76665  -0.145   0.768   6.684  3.4267  1.5723 -1.7542
  556MOL0     H76666  -0.050   0.865   6.791 -0.7362  2.1816  1.7818
  556MOL0     H76667  -0.306   0.704   6.862 -0.1465  2.2292  0.2411
  556MOL0     H76668  -0.138   0.659   6.910  1.0411 -0.5741 -2.3710
  556MOL0     H76669  -0.264   0.751   7.103  0.0999  2.3453  1.8320
  556MOL0     H76670  -0.323   0.887   7.002 -1.0946 -3.0376  0.3798
  556MOL0     H76671  -0.035   0.840   7.087  2.0402  1.9399  0.8639
  556MOL0     H76672  -0.080   0.982   7.009 -0.2775  0.5967  1.0520
  556MOL0     H76673  -0.168   0.903   7.284 -1.7499 -0.8379 -0.2766
  556MOL0     H76674  -0.253   1.030   7.197  0.1546  0.8107 -1.1799
  556MOL0     H76675  -0.013   1.149   7.163  2.7777 -1.4953  0.5309
  556MOL0     H76676  -0.100   1.139   7.324 -0.6749 -2.2540  1.2607
  556MOL0     H76677   0.227   1.010   7.156 -2.8189  0.2409 -0.2307
  556MOL0     H76678   0.451   0.868   7.390 -0.2986 -1.0555  1.5070
  556MOL0     H76679   0.404   0.863   7.217 -0.9932 -1.1562 -0.8072
  556MOL0     H76680   0.453   0.632   7.324 -0.2111 -0.0785  1.5942
  556MOL0     H76681   0.303   0.651   7.416  0.8952 -0.0264  1.1813
  556MOL0     H76682   0.174   0.657   7.193 -0.6613 -1.4077  1.2522
  556MOL0     H76683   0.337   0.632   7.107  0.5834 -1.1549 -0.2525
  556MOL0     H76684   0.327   0.421   7.233 -0.0293 -2.1174 -0.3179
  556MOL0     H76685   0.164   0.464   7.295 -1.1761 -1.1462 -0.4137
  556MOL0     H76686   0.130   0.167   7.005  0.9763  3.0194 -3.5577
  556MOL0     H76687  -0.173  -0.023   6.926 -0.6056 -1.0206  0.9834
  556MOL0     H76688  -0.134  -0.029   7.103  4.5168  1.1937  1.7643
  556MOL0     H76689  -0.014  -0.043   7.008  0.8292  0.4395  1.6087
  556MOL0     H76690  -0.544   0.049   7.088  0.0848 -0.9239  0.0242
  556MOL0     H76691  -0.741  -0.088   7.035  1.1292 -1.7409 -0.8624
  556MOL0     H76692  -0.929   0.037   6.700  2.7595  0.0056  0.6087
  556MOL0     H76693  -0.902  -0.094   6.587  0.7997 -1.1644  0.8585
  556MOL0     H76694  -1.054  -0.233   6.675  1.7168  0.9897 -2.3748
  556MOL0     H76695  -1.103  -0.132   6.812  4.2483 -1.8588  2.3923
  556MOL0     H76696  -1.131  -0.067   6.512 -0.9128  1.9350 -0.6948
  556MOL0     H76697  -1.181   0.039   6.640  1.7083  0.2181  1.9045
  556MOL0     H76698  -1.343  -0.134   6.728 -0.3522 -1.8389  0.5142
  556MOL0     H76699  -1.277  -0.245   6.620 -1.3685 -0.0664  2.8349
  556MOL0     H76700  -1.505  -0.166   6.542 -1.1587  2.3796  0.6236
  556MOL0     H76701  -1.458  -0.005   6.538 -0.6006  0.4999 -0.0102
  556MOL0     H76702  -1.332  -0.232   6.372  0.4457 -0.1476  1.9612
  556MOL0     H76703  -1.298  -0.049   6.357 -2.0270  2.2254  0.9962
  556MOL0     H76704  -1.559  -0.046   6.288 -0.7500  0.7054  0.5006
  556MOL0     H76705  -1.535  -0.217   6.307  1.8811 -0.0505  2.2118
  556MOL0     H76706  -1.370  -0.057   6.103 -4.1061  3.0866 -1.9661
  556MOL0     H76707  -1.529  -0.117   6.074 -1.1819 -0.5836  0.3267
  556MOL0     H76708  -0.676  -0.035   6.621  0.2238 -0.1225  0.0150
  556MOL0     H76709  -0.452   0.076   6.669 -0.7686 -1.1866 -1.7207
  556MOL0     H76710  -0.273   0.443   7.076 -0.5138  0.9755 -0.4926
  556MOL0     H76711  -0.056   0.532   7.153 -1.7581  0.1430 -0.0524
  556MOL0     H76712  -0.073   1.210   6.451  0.3897  0.2979  0.2322
  556MOL0     H76713   0.111   1.203   6.250  0.1721 -0.5887 -1.1155
  556MOL0     H76714   0.144   0.818   5.881 -1.0300  2.4252 -0.6388
  556MOL0     H76715   0.245   0.736   5.702  1.0149 -1.1176  0.6881
  556MOL0     H76716   0.363   0.787   5.496 -0.0125  0.8910 -1.1260
  556MOL0     H76717   0.466   0.925   5.507  2.6177  0.4986  0.2997
  556MOL0     H76718   0.518   0.772   5.294  2.4262 -0.2213 -1.2369
  556MOL0     H76719   0.566   0.651   5.415 -0.8224 -0.3665  0.4415
  556MOL0     H76720   0.681   0.935   5.403 -2.3739 -0.2207 -0.9185
  556MOL0     H76721   0.755   0.783   5.476 -1.8983 -1.5785  0.6652
  556MOL0     H76722   0.882   0.826   5.277 -0.4157  1.0103  1.0889
  556MOL0     H76723   0.741   0.892   5.193  0.5097  0.2838 -0.3739
  556MOL0     H76724   0.792   0.445   5.157  1.6426 -0.1154 -1.5273
  556MOL0     H76725   0.628   0.910   5.805  0.2583  2.0076 -1.8311
  556MOL0     H76726   0.538   0.977   6.144 -3.8482  1.1308 -0.2951
  556MOL0     H76727   0.665   0.975   6.030 -0.3264 -0.6670  0.6782
  556MOL0     H76728   0.555   1.116   6.047  0.1904  0.2676  4.6072
  557MOL0     O76729   4.482   4.739   8.941 -0.7228  0.0984 -0.5318
  557MOL0     C76730   4.550   4.675   9.017 -0.5462  0.0500  0.5470
  557MOL0     O76731   4.511   4.626   9.135 -0.6044 -0.1879 -0.0298
  557MOL0     C76732   4.445   4.713   9.212  0.7827  0.1782 -0.2374
  557MOL0     C76733   4.345   4.660   9.291  0.4800 -0.6159 -0.3619
  557MOL0     C76734   4.280   4.737   9.387 -0.3949 -0.0108  0.0295
  557MOL0     C76735   4.297   4.877   9.398  0.2648  0.1613 -0.0263
  557MOL0     O76736   4.262   4.955   9.505 -1.0608 -0.3214  0.3562
  557MOL0     C76737   4.169   4.904   9.594 -0.4659 -0.1424  0.7319
  557MOL0     C76738   4.117   5.011   9.682  0.2451  1.0217  0.1352
  557MOL0     C76739   4.023   5.126   9.633  0.3510 -0.0746 -0.0394
  557MOL0     C76740   4.089   5.255   9.575 -0.4650  0.5435 -0.3564
  557MOL0     C76741   3.988   5.361   9.570  0.4861  0.4448  0.2190
  557MOL0     C76742   4.048   5.495   9.541  0.3315 -0.8557 -0.8370
  557MOL0     C76743   3.939   5.609   9.559 -0.1184 -0.3804  0.3108
  557MOL0     C76744   3.993   5.731   9.641 -0.2048 -0.1689 -0.6563
  557MOL0     N76745   4.097   5.798   9.567 -0.7067 -0.3750  0.1554
  557MOL0     C76746   4.226   5.759   9.558  0.5172 -0.4102  0.0751
  557MOL0     C76747   4.291   5.865   9.501 -0.3117 -0.4765  0.3733
  557MOL0     C76748   4.441   5.875   9.468  0.9717 -0.4808  0.1946
  557MOL0     C76749   4.532   5.953   9.564  0.4773  0.8026  0.7984
  557MOL0     C76750   4.679   5.924   9.515 -0.0788 -0.1908  0.5076
  557MOL0     C76751   4.711   6.001   9.381 -1.0415  0.5195  0.4694
  557MOL0     O76752   4.633   6.109   9.337 -0.0978 -0.6222 -0.3888
  557MOL0     C76753   4.634   6.117   9.203 -0.2329 -0.2361  0.4819
  557MOL0     C76754   4.728   6.204   9.146 -0.2714 -0.0039 -0.0186
  557MOL0     C76755   4.763   6.195   9.009 -0.2857 -0.1639  0.5608
  557MOL0     C76756   4.870   6.301   8.970 -1.0547 -0.2879  0.0636
  557MOL0     C76757   4.687   6.116   8.916 -0.5335  1.5172  0.2704
  557MOL0     C76758   4.694   6.113   8.772  0.1642  0.0368  0.7077
  557MOL0     O76759   4.665   5.988   8.716 -0.3876 -0.2285 -0.5493
  557MOL0     C76760   4.650   5.975   8.584  0.2365  0.0986 -0.5596
  557MOL0     C76761   4.536   5.918   8.534  0.0965 -0.2307  0.1229
  557MOL0     C76762   4.506   5.920   8.393  0.1706  1.3594 -0.2482
  557MOL0     C76763   4.598   5.965   8.299  0.5948 -0.2917  0.3295
  557MOL0     O76764   4.568   5.967   8.163  0.8051 -0.3581 -0.5338
  557MOL0     C76765   4.429   5.981   8.122  0.2763 -1.0021  0.7864
  557MOL0     C76766   4.410   5.984   7.969 -0.1435 -0.0612 -0.0999
  557MOL0     C76767   4.474   5.852   7.911  0.8405 -0.3314 -0.5058
  557MOL0     C76768   4.420   5.834   7.780 -0.4913  0.2851  0.1856
  557MOL0     C76769   4.493   5.717   7.708  0.0848 -0.6169 -1.0098
  557MOL0     C76770   4.648   5.742   7.674  0.9817 -0.3462 -0.1901
  557MOL0     C76771   4.726   5.615   7.646 -1.0315  0.4721  0.0767
  557MOL0     C76772   4.665   5.516   7.552 -0.3145  0.4504  0.1725
  557MOL0    Cl76773   4.781   5.385   7.565  0.5727  0.0381 -0.0743
  557MOL0     C76774   4.718   6.011   8.351 -0.0474 -0.2860  0.0576
  557MOL0     C76775   4.753   6.006   8.490 -0.6108 -0.0885 -0.2645
  557MOL0     O76776   4.719   6.216   8.707 -0.6114  0.1400 -0.1708
  557MOL0     C76777   4.581   6.033   8.979 -0.1201  0.4366 -0.4931
  557MOL0     C76778   4.561   6.035   9.113 -0.4812  0.0948  0.4106
  557MOL0     N76779   4.192   5.972   9.493 -0.5633 -0.1024 -1.3654
  557MOL0     N76780   4.075   5.926   9.530  0.2125  0.9919 -0.9288
  557MOL0     C76781   4.390   4.929   9.307 -0.3093  0.2301  0.4628
  557MOL0     C76782   4.465   4.853   9.215 -0.3471 -0.5941  0.3109
  557MOL0     C76783   4.673   4.630   8.940 -0.7246 -0.3906 -0.7434
  557MOL0     C76784   4.700   4.684   8.804  0.9769 -0.5290  0.0519
  557MOL0     C76785   4.818   4.655   8.737 -0.6093  0.8097  0.0809
  557MOL0     C76786   4.923   4.577   8.791  0.5077 -0.0524 -0.5724
  557MOL0     O76787   5.042   4.554   8.714  0.0928 -0.5373  0.1597
  557MOL0     C76788   5.031   4.570   8.569 -0.4997  1.1321 -0.1272
  557MOL0     C76789   5.133   4.485   8.501 -0.0487  0.5012 -0.2599
  557MOL0     C76790   5.117   4.334   8.510 -1.2926  0.2203 -0.0253
  557MOL0     C76791   4.996   4.265   8.451 -0.2171 -0.6263 -0.1623
  557MOL0     C76792   4.977   4.304   8.312  0.1174  0.6408  0.3011
  557MOL0     C76793   4.950   4.380   8.211  0.4275  0.7032 -1.2713
  557MOL0     C76794   4.905   4.536   8.926  0.2918  0.9512  0.7890
  557MOL0     C76795   4.773   4.546   8.999 -0.0050  0.3673 -0.2073
  557MOL0     C76796   4.756   4.484   9.127  0.1677 -0.4788 -0.6365
  557MOL0     H76797   4.325   4.554   9.294 -1.1779 -0.3270 -0.1414
  557MOL0     H76798   4.217   4.686   9.459 -2.1142  0.8805 -0.7786
  557MOL0     H76799   4.232   4.837   9.653  2.2017  1.0865 -0.5545
  557MOL0     H76800   4.083   4.848   9.555 -1.3688  1.2241  0.6871
  557MOL0     H76801   4.057   4.960   9.757  0.2265 -2.0542 -1.7880
  557MOL0     H76802   4.201   5.046   9.743 -1.3735  0.1976  3.0447
  557MOL0     H76803   3.953   5.087   9.558 -2.2852 -0.7457  2.5539
  557MOL0     H76804   3.960   5.154   9.719  0.0962  0.6488 -0.4536
  557MOL0     H76805   4.169   5.285   9.643  1.8746 -0.1915 -2.5590
  557MOL0     H76806   4.133   5.230   9.477 -0.9287 -1.5171 -0.0896
  557MOL0     H76807   3.928   5.370   9.661 -0.5024  0.4219 -0.4118
  557MOL0     H76808   3.929   5.336   9.482  0.5612  1.3531 -0.0923
  557MOL0     H76809   4.141   5.513   9.597 -0.1236  1.6507 -0.7434
  557MOL0     H76810   4.093   5.494   9.441  1.3215 -4.1368 -0.4647
  557MOL0     H76811   3.849   5.571   9.608 -0.8054 -1.7170 -1.8203
  557MOL0     H76812   3.911   5.643   9.459  1.7391 -2.7186 -1.1189
  557MOL0     H76813   3.910   5.796   9.668 -0.3843 -0.6490 -0.0345
  557MOL0     H76814   4.040   5.694   9.733 -0.9425  0.3835 -0.0455
  557MOL0     H76815   4.280   5.670   9.587  0.7296 -0.9018 -1.7059
  557MOL0     H76816   4.444   5.923   9.370 -1.2854  4.1154  2.0829
  557MOL0     H76817   4.475   5.772   9.452  1.5506  0.0627 -2.3795
  557MOL0     H76818   4.508   6.058   9.547 -1.0563  0.0971 -1.9456
  557MOL0     H76819   4.510   5.925   9.668  0.3030 -3.2539 -0.1459
  557MOL0     H76820   4.747   5.971   9.587  1.7268  0.6490 -1.6085
  557MOL0     H76821   4.713   5.821   9.506  0.5149  0.1629 -2.3678
  557MOL0     H76822   4.816   6.030   9.372 -1.1072  0.3821 -1.1153
  557MOL0     H76823   4.698   5.916   9.313 -2.0453  0.1031  1.1516
  557MOL0     H76824   4.767   6.278   9.215 -1.0565 -2.0778  2.8750
  557MOL0     H76825   4.936   6.262   8.892  1.1050  1.3123  0.9867
  557MOL0     H76826   4.932   6.324   9.056 -1.4721  2.9053 -0.3396
  557MOL0     H76827   4.829   6.396   8.932  2.0250  1.5844  1.0934
  557MOL0     H76828   4.465   5.871   8.602 -0.3212  0.5738  0.2598
  557MOL0     H76829   4.412   5.872   8.365  3.3951 -4.7550 -2.5032
  557MOL0     H76830   4.383   5.900   8.178 -1.0892 -2.0752 -1.7449
  557MOL0     H76831   4.391   6.076   8.162  0.0523  1.2907 -4.1218
  557MOL0     H76832   4.305   5.997   7.941 -0.8537  1.5925  2.8960
  557MOL0     H76833   4.470   6.071   7.942  1.5529 -1.3557 -0.7061
  557MOL0     H76834   4.454   5.763   7.971  1.9340 -0.7866 -0.7836
  557MOL0     H76835   4.583   5.866   7.918  0.8577 -1.1324  1.6072
  557MOL0     H76836   4.446   5.920   7.717  0.9248 -2.7375 -3.7967
  557MOL0     H76837   4.312   5.818   7.779 -0.4375 -0.1000 -1.2655
  557MOL0     H76838   4.480   5.628   7.770  0.0937  0.6231  0.8499
  557MOL0     H76839   4.428   5.694   7.623 -1.3068  1.4464 -0.5970
  557MOL0     H76840   4.701   5.801   7.750 -1.2917  2.1666 -0.3957
  557MOL0     H76841   4.658   5.798   7.581  1.7809 -1.8523 -1.0427
  557MOL0     H76842   4.730   5.568   7.745 -2.0594  0.5922  0.1823
  557MOL0     H76843   4.826   5.638   7.607 -1.2991  0.5391 -0.5797
  557MOL0     H76844   4.673   5.545   7.447  2.1489  1.3813  0.5456
  557MOL0     H76845   4.563   5.493   7.583 -0.2176 -1.5736 -0.8505
  557MOL0     H76846   4.798   6.052   8.290  2.3131 -3.4166  0.7884
  557MOL0     H76847   4.854   6.032   8.521 -0.8742 -0.1898  0.7224
  557MOL0     H76848   4.505   5.971   8.933 -0.4992 -0.2035  0.9461
  557MOL0     H76849   4.478   5.977   9.153 -1.3182  0.3535 -0.9092
  557MOL0     H76850   4.436   5.024   9.330 -0.3976  0.3603  0.1049
  557MOL0     H76851   4.525   4.907   9.143 -0.7441 -1.2363 -0.5260
  557MOL0     H76852   4.634   4.750   8.749 -0.1163 -2.0093 -0.4885
  557MOL0     H76853   4.819   4.686   8.632  0.2141 -1.2067 -0.5473
  557MOL0     H76854   4.932   4.530   8.542 -0.4300 -1.8822  3.3602
  557MOL0     H76855   5.058   4.672   8.541  2.4595  1.0830  2.1140
  557MOL0     H76856   5.231   4.512   8.542 -1.2597  0.4295  2.9269
  557MOL0     H76857   5.150   4.513   8.397  2.5326  0.2701  0.0255
  557MOL0     H76858   5.208   4.290   8.469 -0.8643  0.7854  0.3055
  557MOL0     H76859   5.128   4.313   8.617 -0.6649 -1.6987 -0.4229
  557MOL0     H76860   4.911   4.295   8.512 -0.1978 -2.8068  1.0504
  557MOL0     H76861   5.002   4.157   8.467  0.1735 -0.4335  1.1209
  557MOL0     H76862   4.921   4.449   8.134  0.1567  2.5687  0.4192
  557MOL0     H76863   4.983   4.489   8.984  2.3372  3.3803  0.1686
  557MOL0     H76864   4.856   4.448   9.155  0.9598  2.5398  0.8400
  557MOL0     H76865   4.720   4.569   9.185  1.7387  0.9137 -1.6171
  557MOL0     H76866   4.683   4.402   9.124 -0.2385 -0.2496  1.3879
  558MOL0     O76867   8.791   3.124   0.447  0.0557  0.4353 -0.2788
  558MOL0     C76868   8.820   3.201   0.358  0.4128 -0.2860 -0.6501
  558MOL0     O76869   8.929   3.278   0.362 -0.1696 -0.6516 -0.8821
  558MOL0     C76870   8.993   3.275   0.481  0.6363  0.1137  0.0185
  558MOL0     C76871   9.002   3.391   0.552  0.0794  0.4787  0.2519
  558MOL0     C76872   9.079   3.414   0.667  0.3041  0.3320  0.3035
  558MOL0     C76873   9.145   3.307   0.727  0.3437 -0.0451 -0.2464
  558MOL0     O76874   9.207   3.345   0.844 -0.6143 -0.4891 -0.7969
  558MOL0     C76875   9.225   3.241   0.942  0.8807 -0.1607 -0.5727
  558MOL0     C76876   9.348   3.275   1.027 -0.0492 -0.5851 -0.1360
  558MOL0     C76877   9.464   3.323   0.945 -0.1280 -0.0498 -0.0637
  558MOL0     C76878   9.602   3.324   1.021  0.5401 -0.0047 -1.1110
  558MOL0     C76879   9.617   3.387   1.159  0.8282 -0.8409 -0.5054
  558MOL0     C76880   9.586   3.535   1.190 -0.0180 -0.0742  0.2334
  558MOL0     C76881   9.706   3.634   1.158 -0.2569  0.0963 -0.4986
  558MOL0     C76882   9.705   3.767   1.228 -0.2637  1.1032 -0.5427
  558MOL0     N76883   9.726   3.743   1.370  0.2646 -0.3824 -0.4076
  558MOL0     C76884   9.853   3.722   1.426  0.2558 -1.0684 -0.2818
  558MOL0     C76885   9.834   3.646   1.536  0.6625 -0.8587 -0.4458
  558MOL0     C76886   9.947   3.597   1.623  0.2630 -0.6241 -0.0882
  558MOL0     C76887  10.060   3.540   1.542 -1.0461  0.1965  0.5084
  558MOL0     C76888  10.185   3.496   1.623  0.1119 -1.3889  0.5005
  558MOL0     C76889  10.299   3.413   1.554 -0.8049 -0.1856 -0.1133
  558MOL0     O76890  10.391   3.348   1.643 -0.4845  0.6095 -1.1616
  558MOL0     C76891  10.488   3.265   1.583  0.7248  0.1648  0.4533
  558MOL0     C76892  10.547   3.296   1.456 -0.3197  1.0688  0.6122
  558MOL0     C76893  10.627   3.203   1.389 -0.9712  0.1634  0.1840
  558MOL0     C76894  10.693   3.263   1.260 -0.2753  0.2223  0.2885
  558MOL0     C76895  10.665   3.078   1.449  0.7689 -0.0221 -1.0740
  558MOL0     C76896  10.767   2.984   1.402  0.3991 -0.7177 -0.1103
  558MOL0     O76897  10.827   2.906   1.498  0.5950 -1.0995 -0.4831
  558MOL0     C76898  10.939   2.835   1.463 -1.0741  0.4744  0.2754
  558MOL0     C76899  10.944   2.703   1.503 -0.4537  0.4787 -0.0870
  558MOL0     C76900  11.051   2.615   1.478  0.0983  0.1018  0.7833
  558MOL0     C76901  11.171   2.669   1.415  0.9066 -0.3583 -0.1531
  558MOL0     O76902  11.268   2.573   1.384 -0.0258  0.8357 -0.3994
  558MOL0     C76903  11.378   2.615   1.302 -0.0142 -0.9746 -0.4341
  558MOL0     C76904  11.457   2.496   1.256  0.1525  0.1244 -0.1610
  558MOL0     C76905  11.594   2.533   1.208  0.7511  0.8231 -1.0169
  558MOL0     C76906  11.676   2.416   1.197 -0.4862  0.9116  0.7221
  558MOL0     C76907  11.810   2.443   1.139 -0.4032  0.1484 -0.0387
  558MOL0     C76908  11.892   2.316   1.119 -0.5185  0.6842  0.7963
  558MOL0     C76909  12.037   2.356   1.085 -0.4691 -0.6415 -0.3430
  558MOL0     C76910  12.130   2.238   1.075  0.1184 -0.7603 -0.3786
  558MOL0    Cl76911  12.284   2.291   1.029  0.1024  0.1802  0.1262
  558MOL0     C76912  11.171   2.805   1.387  0.2760 -1.5102  0.1178
  558MOL0     C76913  11.060   2.887   1.412 -0.0002 -0.4754  0.0319
  558MOL0     O76914  10.779   2.971   1.282 -0.0645 -0.3791  0.6448
  558MOL0     C76915  10.604   3.050   1.577  0.6583 -0.9498 -0.3375
  558MOL0     C76916  10.524   3.143   1.634  0.1880 -0.0348  0.0321
  558MOL0     N76917   9.697   3.620   1.550  0.2471 -0.3341 -0.1196
  558MOL0     N76918   9.635   3.689   1.458  0.4729  0.0872  0.2331
  558MOL0     C76919   9.141   3.181   0.667  0.4258  0.1929  0.4499
  558MOL0     C76920   9.066   3.172   0.544  0.5828 -0.3776  1.0767
  558MOL0     C76921   8.735   3.227   0.243  0.5645  0.6324  0.6412
  558MOL0     C76922   8.775   3.184   0.110  0.5548 -0.2313 -0.1864
  558MOL0     C76923   8.695   3.209  -0.009 -0.6248  0.9092 -0.4826
  558MOL0     C76924   8.578   3.269   0.007 -0.0168 -0.5764  0.5394
  558MOL0     O76925   8.536   3.303  -0.123  0.0047  0.4001  0.0079
  558MOL0     C76926   8.402   3.347  -0.149  0.0454  0.0188  0.3268
  558MOL0     C76927   8.297   3.235  -0.137 -1.3525  0.1253  0.7275
  558MOL0     C76928   8.159   3.290  -0.143  0.7416 -0.1376 -0.5047
  558MOL0     C76929   8.054   3.170  -0.135  0.2066 -0.3478 -0.1827
  558MOL0     C76930   8.051   3.123   0.007 -1.0199  0.5937 -0.0341
  558MOL0     C76931   8.046   3.083   0.120 -0.4578 -0.3679  0.8618
  558MOL0     C76932   8.527   3.292   0.135  0.3252 -0.2571  0.7890
  558MOL0     C76933   8.600   3.270   0.251  0.1404 -0.9815  1.0721
  558MOL0     C76934   8.551   3.327   0.384  0.3001  0.0424 -0.6195
  558MOL0     H76935   8.954   3.479   0.511 -0.5204 -0.7006 -1.6994
  558MOL0     H76936   9.091   3.509   0.717 -0.4956  0.1706  0.8086
  558MOL0     H76937   9.240   3.140   0.902 -1.2769  0.3021 -2.8077
  558MOL0     H76938   9.139   3.243   1.010  1.6031  0.7879  0.3520
  558MOL0     H76939   9.318   3.358   1.092 -2.5478 -0.4122 -1.4083
  558MOL0     H76940   9.380   3.183   1.078 -1.5364 -1.5497 -0.8709
  558MOL0     H76941   9.480   3.255   0.861 -0.8720 -0.1400 -0.1397
  558MOL0     H76942   9.443   3.420   0.898 -3.3911 -1.5036 -1.9558
  558MOL0     H76943   9.625   3.218   1.036 -0.5177 -0.0276  0.6335
  558MOL0     H76944   9.677   3.363   0.951  0.2473 -0.5360 -1.7335
  558MOL0     H76945   9.715   3.371   1.204  1.0118  0.2206 -0.4908
  558MOL0     H76946   9.535   3.345   1.218  2.9182 -1.9275  1.7891
  558MOL0     H76947   9.502   3.566   1.128  0.5603  2.0746  0.4627
  558MOL0     H76948   9.552   3.534   1.294 -5.4808 -1.9164 -1.2188
  558MOL0     H76949   9.701   3.637   1.049 -2.6869  0.6031 -0.4311
  558MOL0     H76950   9.798   3.582   1.186 -1.2190 -2.5611 -1.9438
  558MOL0     H76951   9.794   3.825   1.202 -0.2133  0.9569 -0.6968
  558MOL0     H76952   9.615   3.825   1.207 -3.6871 -2.6124  2.1622
  558MOL0     H76953   9.951   3.744   1.384  2.6626 -4.7918  2.6669
  558MOL0     H76954   9.919   3.513   1.688  2.5077 -0.1553  1.6274
  558MOL0     H76955   9.976   3.676   1.693  0.9156  0.7675 -1.8451
  558MOL0     H76956  10.024   3.451   1.491 -0.2840 -0.4267  1.0385
  558MOL0     H76957  10.083   3.608   1.459 -2.0254  0.2142  0.2342
  558MOL0     H76958  10.223   3.591   1.662 -1.2046 -1.3750  1.8701
  558MOL0     H76959  10.139   3.436   1.702 -0.9059 -1.3336 -0.0225
  558MOL0     H76960  10.251   3.339   1.491  0.3919  1.0040 -2.5630
  558MOL0     H76961  10.352   3.480   1.485 -0.2168 -0.8338 -0.3040
  558MOL0     H76962  10.525   3.390   1.407  1.1616  0.2550 -1.7798
  558MOL0     H76963  10.723   3.367   1.275  0.7881  0.3102 -1.9941
  558MOL0     H76964  10.619   3.269   1.180  0.9544  3.7665 -0.8013
  558MOL0     H76965  10.771   3.198   1.219 -1.6067 -1.2224 -0.0654
  558MOL0     H76966  10.856   2.664   1.552 -1.3663  0.7480 -1.4507
  558MOL0     H76967  11.044   2.512   1.514 -0.0361 -0.1764 -0.0121
  558MOL0     H76968  11.334   2.656   1.210 -1.7778  0.1091  0.8372
  558MOL0     H76969  11.442   2.691   1.350 -0.0971  0.1242 -1.9679
  558MOL0     H76970  11.457   2.420   1.335  3.6548 -0.9532 -1.0076
  558MOL0     H76971  11.405   2.450   1.171  0.2633 -0.1965 -0.0578
  558MOL0     H76972  11.645   2.583   1.291 -0.7130 -0.8258  0.9739
  558MOL0     H76973  11.591   2.599   1.121  0.5200  0.4274 -1.3080
  558MOL0     H76974  11.623   2.345   1.133 -0.3605  3.1384 -2.0769
  558MOL0     H76975  11.699   2.370   1.293 -1.5156 -1.8388 -0.2602
  558MOL0     H76976  11.812   2.498   1.045 -2.2162  1.4612  0.6169
  558MOL0     H76977  11.861   2.509   1.210 -3.4430 -0.4393  3.0068
  558MOL0     H76978  11.845   2.258   1.039  0.5438  1.2289 -0.2565
  558MOL0     H76979  11.896   2.252   1.208 -1.9579  0.1681  0.5028
  558MOL0     H76980  12.071   2.424   1.164  2.3782 -2.1275 -0.1547
  558MOL0     H76981  12.034   2.408   0.989 -0.4271  0.7237  0.3690
  558MOL0     H76982  12.102   2.164   0.999 -1.2877 -0.2063 -0.4434
  558MOL0     H76983  12.128   2.180   1.168 -2.2142 -0.9423 -0.4734
  558MOL0     H76984  11.259   2.852   1.343 -0.2524  0.6798  1.2456
  558MOL0     H76985  11.046   2.992   1.384 -0.5003 -0.8795 -1.3439
  558MOL0     H76986  10.615   2.956   1.630  1.7233 -0.4464  0.3654
  558MOL0     H76987  10.494   3.129   1.738  0.1626  0.8699  0.1520
  558MOL0     H76988   9.171   3.091   0.718 -2.8860 -1.3025 -0.0165
  558MOL0     H76989   9.072   3.076   0.494  2.1612  0.4146 -0.4010
  558MOL0     H76990   8.872   3.137   0.116 -0.2392 -1.8177  1.3890
  558MOL0     H76991   8.722   3.199  -0.114 -1.9700 -0.4106 -0.7345
  558MOL0     H76992   8.386   3.426  -0.075 -0.5299  0.1462  0.0711
  558MOL0     H76993   8.397   3.381  -0.253  0.2322 -0.5423  0.1330
  558MOL0     H76994   8.322   3.185  -0.043  3.0179 -1.8045 -1.1701
  558MOL0     H76995   8.315   3.161  -0.216  1.0902  2.0451 -0.6607
  558MOL0     H76996   8.143   3.355  -0.057 -2.0224  0.3319 -1.2924
  558MOL0     H76997   8.148   3.339  -0.240  0.8389 -2.7118 -1.8953
  558MOL0     H76998   8.094   3.084  -0.191  3.5533  1.9834 -1.6860
  558MOL0     H76999   7.952   3.196  -0.165 -0.0948  0.7312  1.6488
  558MOL0     H77000   8.057   3.053   0.223  0.8899 -0.1494  0.7948
  558MOL0     H77001   8.426   3.320   0.159  0.5487  0.2606  1.1348
  558MOL0     H77002   8.605   3.418   0.412  1.6525 -0.4163 -1.6218
  558MOL0     H77003   8.447   3.361   0.379 -1.0451 -3.5149 -0.1532
  558MOL0     H77004   8.574   3.254   0.462  2.3413  0.1172 -1.1107
  559MOL0     O77005   9.651   5.002   0.313 -0.1239 -0.3797  0.5632
  559MOL0     C77006   9.720   4.947   0.396 -0.1431  0.8661  0.4407
  559MOL0     O77007   9.843   4.896   0.379  0.3534 -0.0514 -0.2070
  559MOL0     C77008   9.925   4.942   0.278 -0.0831  0.3481 -0.7954
  559MOL0     C77009   9.922   4.889   0.147 -0.2029 -0.5737  0.0304
  559MOL0     C77010   9.980   4.962   0.044 -0.3589  0.1991 -0.1766
  559MOL0     C77011  10.067   5.063   0.065  0.3878  0.3828 -0.6688
  559MOL0     O77012  10.166   5.090  -0.027  0.6074  0.1723  0.8730
  559MOL0     C77013  10.247   5.220  -0.031  1.7625  0.5419 -0.2459
  559MOL0     C77014  10.328   5.231  -0.163 -0.7609 -0.0476 -0.0002
  559MOL0     C77015  10.246   5.222  -0.291 -0.8128 -0.3826 -0.0415
  559MOL0     C77016  10.335   5.277  -0.403  0.0205  0.5449  0.8345
  559MOL0     C77017  10.266   5.290  -0.542 -0.6679 -0.8759  0.7063
  559MOL0     C77018  10.227   5.152  -0.613 -0.1868 -0.6630 -0.5295
  559MOL0     C77019  10.199   5.165  -0.767 -0.0435  0.2115 -0.6952
  559MOL0     C77020  10.105   5.278  -0.798  0.2676  0.1248 -0.0886
  559MOL0     N77021   9.980   5.279  -0.722  0.8799 -0.1078  0.2369
  559MOL0     C77022   9.917   5.388  -0.657 -0.2802 -0.1288  1.4348
  559MOL0     C77023   9.813   5.333  -0.594  0.6772  0.0495  0.6431
  559MOL0     C77024   9.726   5.404  -0.487  0.5748  0.4588  0.8955
  559MOL0     C77025   9.740   5.339  -0.350 -0.4888 -1.3250 -0.2445
  559MOL0     C77026   9.869   5.382  -0.270  0.6852 -0.0069  1.3395
  559MOL0     C77027   9.857   5.511  -0.200  0.1423  0.2796  0.3492
  559MOL0     O77028   9.962   5.533  -0.115 -0.4940  0.0420 -0.0622
  559MOL0     C77029  10.080   5.575  -0.173 -0.1738  0.1553 -0.1458
  559MOL0     C77030  10.112   5.620  -0.296 -0.5449 -0.4924 -0.4580
  559MOL0     C77031  10.245   5.655  -0.337  0.1125 -0.2574  0.8454
  559MOL0     C77032  10.270   5.694  -0.483  0.4178 -0.2403  0.7759
  559MOL0     C77033  10.348   5.641  -0.242  0.2956 -0.2730  0.4269
  559MOL0     C77034  10.488   5.682  -0.258 -0.2224  0.1239  0.4461
  559MOL0     O77035  10.567   5.639  -0.152 -0.1014  0.0354  0.5102
  559MOL0     C77036  10.700   5.647  -0.158 -0.7329 -0.3348 -0.3989
  559MOL0     C77037  10.763   5.778  -0.171  0.1432 -0.6029 -0.3261
  559MOL0     C77038  10.909   5.784  -0.169  0.5292 -0.1627 -0.4744
  559MOL0     C77039  10.991   5.674  -0.152  0.3114  0.0099  0.5893
  559MOL0     O77040  11.129   5.672  -0.152  0.8235  0.6569 -0.0809
  559MOL0     C77041  11.212   5.787  -0.160 -0.3121  0.6902 -0.1074
  559MOL0     C77042  11.358   5.754  -0.143  0.6411 -1.0438 -0.5552
  559MOL0     C77043  11.451   5.724  -0.257 -0.2686 -0.4511 -0.2688
  559MOL0     C77044  11.402   5.604  -0.326 -1.2810  0.0235 -0.0215
  559MOL0     C77045  11.493   5.559  -0.445  0.2761 -0.6152 -0.0130
  559MOL0     C77046  11.481   5.415  -0.499  0.0676 -0.4829 -0.4563
  559MOL0     C77047  11.619   5.369  -0.565  0.0340 -0.6450  0.6320
  559MOL0     C77048  11.608   5.223  -0.618  0.0471 -0.0580  0.5669
  559MOL0    Cl77049  11.465   5.213  -0.724 -0.5299  0.1470  0.3887
  559MOL0     C77050  10.923   5.551  -0.132 -0.0552 -0.3693 -1.0637
  559MOL0     C77051  10.782   5.541  -0.130  0.6546  0.2801 -0.2361
  559MOL0     O77052  10.529   5.733  -0.359 -0.5595  0.7793  0.9858
  559MOL0     C77053  10.308   5.593  -0.118  0.1199  1.2700 -0.0727
  559MOL0     C77054  10.183   5.565  -0.078  0.6350  0.1176 -0.1847
  559MOL0     N77055   9.820   5.199  -0.602 -0.9146  0.3476 -0.1429
  559MOL0     N77056   9.912   5.167  -0.686 -0.5879 -0.0879  0.2601
  559MOL0     C77057  10.066   5.115   0.191 -0.4491 -1.2950  0.3537
  559MOL0     C77058  10.008   5.052   0.300  0.0726  0.1998  0.9441
  559MOL0     C77059   9.648   4.911   0.524  0.6834 -0.2043 -0.2562
  559MOL0     C77060   9.528   4.834   0.517  0.2602  0.2822 -0.2873
  559MOL0     C77061   9.457   4.788   0.628  0.7269 -0.9083  0.9449
  559MOL0     C77062   9.503   4.825   0.754 -0.4553  0.2765  0.4633
  559MOL0     O77063   9.423   4.792   0.859 -1.1362  0.1372 -0.2433
  559MOL0     C77064   9.448   4.828   0.995  0.2307 -0.2416  0.5315
  559MOL0     C77065   9.361   4.759   1.097  1.1580 -0.8097 -0.9103
  559MOL0     C77066   9.372   4.607   1.074  0.6966  0.3764  0.2451
  559MOL0     C77067   9.299   4.522   1.175 -0.7641  0.3391  0.7151
  559MOL0     C77068   9.157   4.528   1.159 -0.5895 -0.2426 -0.1448
  559MOL0     C77069   9.047   4.493   1.176  0.2512  0.4762  0.4316
  559MOL0     C77070   9.616   4.900   0.767  0.5221  0.2818 -0.3150
  559MOL0     C77071   9.691   4.944   0.653  0.4026  0.7493 -0.2917
  559MOL0     C77072   9.816   5.008   0.689 -0.3338 -0.6028 -0.2424
  559MOL0     H77073   9.853   4.812   0.114  1.6014 -2.9806  1.5906
  559MOL0     H77074   9.984   4.918  -0.055  0.8843 -2.1103  0.8263
  559MOL0     H77075  10.313   5.227   0.056 -1.7227 -0.4367  2.6799
  559MOL0     H77076  10.176   5.303  -0.037  0.9951 -0.1789 -1.7801
  559MOL0     H77077  10.384   5.325  -0.154 -0.1384 -0.4995  1.1156
  559MOL0     H77078  10.402   5.151  -0.167 -3.0659 -2.3096  0.3065
  559MOL0     H77079  10.212   5.119  -0.301  1.6296 -1.2208 -0.4727
  559MOL0     H77080  10.159   5.285  -0.272 -0.2824 -0.1105  1.6315
  559MOL0     H77081  10.368   5.375  -0.370  0.5757  0.2606  1.1270
  559MOL0     H77082  10.424   5.214  -0.411 -1.1572 -1.0936  0.0493
  559MOL0     H77083  10.335   5.344  -0.608 -0.0296 -0.6214  1.5685
  559MOL0     H77084  10.178   5.356  -0.538 -1.2433 -1.6075  0.3348
  559MOL0     H77085  10.314   5.090  -0.588  0.1912  0.1805  0.3382
  559MOL0     H77086  10.140   5.109  -0.562  0.3010 -0.0085  0.9014
  559MOL0     H77087  10.150   5.074  -0.805 -0.3879  1.2416 -2.8809
  559MOL0     H77088  10.299   5.182  -0.808  1.9566 -1.9671  2.7445
  559MOL0     H77089  10.165   5.369  -0.793 -0.4713  0.8942 -3.1636
  559MOL0     H77090  10.073   5.280  -0.903  0.9192  1.2402 -0.2827
  559MOL0     H77091   9.929   5.496  -0.659 -2.5478  0.2334 -2.0461
  559MOL0     H77092   9.621   5.388  -0.515  1.0930 -0.6602 -0.5421
  559MOL0     H77093   9.750   5.510  -0.480 -0.1372  0.7224 -0.3595
  559MOL0     H77094   9.652   5.376  -0.295  0.4903  0.8212 -0.0132
  559MOL0     H77095   9.727   5.231  -0.342 -0.8274 -1.2812 -0.1805
  559MOL0     H77096   9.895   5.296  -0.208  0.1718 -0.1552  1.3456
  559MOL0     H77097   9.944   5.397  -0.348 -0.4348  1.7343  0.5290
  559MOL0     H77098   9.841   5.591  -0.274  2.5208  0.1020 -0.4461
  559MOL0     H77099   9.772   5.512  -0.132 -2.9030  1.3339 -3.1327
  559MOL0     H77100  10.034   5.630  -0.371 -2.2776  1.6449  1.4773
  559MOL0     H77101  10.340   5.628  -0.536  3.2954  2.2809  1.1611
  559MOL0     H77102  10.308   5.796  -0.491  0.8228 -0.3380  1.4099
  559MOL0     H77103  10.175   5.689  -0.537 -0.3384 -2.5661  2.1997
  559MOL0     H77104  10.691   5.860  -0.172 -2.5637 -2.7824 -2.4475
  559MOL0     H77105  10.958   5.881  -0.174  0.4606 -0.1554 -1.1594
  559MOL0     H77106  11.210   5.829  -0.261  0.0335  0.1247 -0.3538
  559MOL0     H77107  11.197   5.859  -0.079 -3.0381  0.1893 -0.0678
  559MOL0     H77108  11.407   5.833  -0.086  0.2101 -0.2659 -1.2441
  559MOL0     H77109  11.363   5.666  -0.078  3.9724 -0.4376  0.2012
  559MOL0     H77110  11.549   5.716  -0.207  0.3182  1.2988 -1.0579
  559MOL0     H77111  11.461   5.811  -0.323  2.9703  1.0630  1.9494
  559MOL0     H77112  11.302   5.623  -0.366 -0.5220 -2.8820 -3.8939
  559MOL0     H77113  11.406   5.521  -0.254  0.3651  0.0159 -0.0998
  559MOL0     H77114  11.463   5.615  -0.534  1.0282 -1.5362 -0.8716
  559MOL0     H77115  11.600   5.572  -0.426  0.5731 -1.1753 -1.2037
  559MOL0     H77116  11.408   5.412  -0.580 -1.2664 -0.0926  0.7040
  559MOL0     H77117  11.456   5.338  -0.426 -0.4668 -0.2518 -0.3890
  559MOL0     H77118  11.699   5.371  -0.491  0.4651  4.9106  0.4586
  559MOL0     H77119  11.646   5.442  -0.642  0.1121 -0.7840  0.5266
  559MOL0     H77120  11.608   5.160  -0.529 -1.2517 -0.1669  0.5051
  559MOL0     H77121  11.698   5.210  -0.678 -1.1855  2.2807 -2.0254
  559MOL0     H77122  10.984   5.463  -0.115 -0.8872 -0.9237 -0.9019
  559MOL0     H77123  10.732   5.445  -0.118  2.8410 -1.1819 -2.0295
  559MOL0     H77124  10.374   5.572  -0.034 -2.1052  0.1995  1.5081
  559MOL0     H77125  10.179   5.524   0.023  0.1300 -0.3996 -0.4099
  559MOL0     H77126  10.125   5.204   0.206 -2.1385  0.1224 -0.9455
  559MOL0     H77127  10.011   5.103   0.396  2.5813  1.6780  0.1782
  559MOL0     H77128   9.483   4.807   0.422  0.5052  0.7862 -0.5508
  559MOL0     H77129   9.369   4.724   0.623  0.4318 -0.7797  3.2972
  559MOL0     H77130   9.544   4.779   1.015  0.6835  0.8206  1.0407
  559MOL0     H77131   9.458   4.934   1.022  0.3106  0.0196 -0.4952
  559MOL0     H77132   9.255   4.782   1.082  1.3718 -0.1957 -1.5368
  559MOL0     H77133   9.410   4.776   1.193  2.1666 -0.0869 -1.5370
  559MOL0     H77134   9.341   4.584   0.972  1.4687  2.3951 -0.5090
  559MOL0     H77135   9.480   4.592   1.085  0.7450  1.5075  1.5312
  559MOL0     H77136   9.328   4.549   1.277  1.1799 -5.0085  1.9096
  559MOL0     H77137   9.331   4.417   1.171 -1.9894 -0.0470  0.4882
  559MOL0     H77138   8.951   4.446   1.189 -0.3547  1.7427  0.6931
  559MOL0     H77139   9.658   4.934   0.862  0.2700  1.4758 -0.6153
  559MOL0     H77140   9.897   4.991   0.617  2.2291  2.0037  1.7862
  559MOL0     H77141   9.815   5.115   0.712  1.6133 -1.1289  2.8584
  559MOL0     H77142   9.840   4.963   0.786 -3.2641 -0.7564  0.4912
  560MOL0     O77143  10.255   6.135   0.416  0.1653 -0.0778 -0.2546
  560MOL0     C77144  10.187   6.036   0.436 -0.2504 -0.1988  0.2146
  560MOL0     O77145  10.155   5.941   0.343 -0.5957  0.2307  0.4237
  560MOL0     C77146  10.228   5.944   0.228 -0.4641 -0.3992 -0.5117
  560MOL0     C77147  10.156   5.956   0.111 -0.9968  1.0558  0.8865
  560MOL0     C77148  10.231   5.967  -0.019 -0.2038  0.3707  0.1660
  560MOL0     C77149  10.364   5.958  -0.031 -0.2334  0.0839  0.6354
  560MOL0     O77150  10.439   5.980  -0.144 -0.3642  0.8044  0.4237
  560MOL0     C77151  10.375   6.011  -0.267 -0.3636 -0.0735  0.1034
  560MOL0     C77152  10.345   6.163  -0.276  0.4321 -0.0166 -1.0376
  560MOL0     C77153  10.256   6.199  -0.400  0.1618 -0.5611 -0.3173
  560MOL0     C77154  10.351   6.266  -0.502  0.2279  1.0312  1.2584
  560MOL0     C77155  10.300   6.318  -0.630 -0.6357 -0.3145  0.8131
  560MOL0     C77156  10.189   6.408  -0.608  0.8860 -0.1719 -0.8002
  560MOL0     C77157  10.159   6.483  -0.741  0.7755  0.3559 -0.3598
  560MOL0     C77158  10.246   6.616  -0.745  0.3776  0.0790 -0.5943
  560MOL0     N77159  10.215   6.690  -0.866 -0.3907  0.0858 -0.2743
  560MOL0     C77160  10.096   6.714  -0.929 -0.4798  0.0960  0.1353
  560MOL0     C77161  10.129   6.771  -1.045  0.8399  0.1443  0.7758
  560MOL0     C77162  10.017   6.821  -1.130 -0.5298 -0.7953 -0.2589
  560MOL0     C77163   9.947   6.714  -1.210  0.2668 -0.1947  0.0073
  560MOL0     C77164  10.019   6.664  -1.340 -0.5030  0.5703 -0.7844
  560MOL0     C77165   9.979   6.530  -1.399 -0.5201  0.4098  0.3550
  560MOL0     O77166   9.995   6.428  -1.299 -0.3091 -0.1316  0.2827
  560MOL0     C77167   9.960   6.302  -1.338  0.6359  0.1048 -0.9957
  560MOL0     C77168   9.882   6.259  -1.445 -0.4327 -0.4643 -0.5283
  560MOL0     C77169   9.838   6.128  -1.466 -0.2157 -0.0829 -0.0051
  560MOL0     C77170   9.743   6.108  -1.589  0.6790  0.1166 -0.0981
  560MOL0     C77171   9.891   6.025  -1.381  0.4628 -0.2516 -0.3069
  560MOL0     C77172   9.848   5.887  -1.379 -0.9903  0.5725 -0.3909
  560MOL0     O77173   9.722   5.868  -1.438 -0.0840  0.2596 -0.0420
  560MOL0     C77174   9.662   5.743  -1.432  0.9287  0.5312 -0.9604
  560MOL0     C77175   9.699   5.633  -1.517 -0.6432  0.6369 -0.5518
  560MOL0     C77176   9.643   5.500  -1.511 -0.3525 -0.9070 -0.8891
  560MOL0     C77177   9.554   5.467  -1.408  0.5177 -0.0527  0.2271
  560MOL0     O77178   9.512   5.338  -1.379  0.0846 -0.0683  0.1690
  560MOL0     C77179   9.470   5.261  -1.496 -0.7337 -0.1969  0.0323
  560MOL0     C77180   9.455   5.118  -1.446  0.0196 -0.0066  0.0453
  560MOL0     C77181   9.578   5.035  -1.424 -0.7643 -0.3955 -0.2909
  560MOL0     C77182   9.679   5.029  -1.536  0.1438 -0.6845  1.5507
  560MOL0     C77183   9.735   4.885  -1.562  0.6604  0.2854 -0.2694
  560MOL0     C77184   9.802   4.825  -1.440  0.2759  0.5417 -0.2488
  560MOL0     C77185   9.864   4.687  -1.469  0.0499  0.0818 -0.9036
  560MOL0     C77186   9.891   4.617  -1.335  0.2067  0.0418  0.7158
  560MOL0    Cl77187  10.016   4.494  -1.376  0.1517 -0.0522 -0.5735
  560MOL0     C77188   9.524   5.575  -1.314  0.1566  0.0409  0.0877
  560MOL0     C77189   9.571   5.711  -1.329 -0.9449  1.4134  0.1418
  560MOL0     O77190   9.914   5.796  -1.324 -0.3965  0.5500  0.3015
  560MOL0     C77191   9.979   6.070  -1.276 -0.4161 -0.4211  0.7266
  560MOL0     C77192  10.005   6.202  -1.253  0.2824  0.1898  0.5779
  560MOL0     N77193  10.265   6.781  -1.046 -0.6703  0.3960  1.0786
  560MOL0     N77194  10.316   6.737  -0.942 -0.1199  0.2605  0.6553
  560MOL0     C77195  10.433   5.949   0.090 -0.6201  0.4034  0.2696
  560MOL0     C77196  10.373   5.950   0.218  0.3319  0.1689 -0.4042
  560MOL0     C77197  10.121   6.056   0.563  0.4637  0.6448  0.7121
  560MOL0     C77198   9.979   6.052   0.570 -0.8337  0.8722  1.1940
  560MOL0     C77199   9.921   6.063   0.692  0.7589  0.6024 -0.5532
  560MOL0     C77200   9.993   6.098   0.807  0.3107 -0.2198 -0.1480
  560MOL0     O77201   9.926   6.113   0.926  0.2452 -0.4676 -0.1967
  560MOL0     C77202   9.827   6.212   0.923 -0.0210  0.2779 -0.5079
  560MOL0     C77203   9.756   6.211   1.062  0.2684 -0.5793 -0.9125
  560MOL0     C77204   9.847   6.245   1.190  0.0349 -0.3024  1.6725
  560MOL0     C77205   9.916   6.383   1.192 -1.2817  0.5225 -0.6824
  560MOL0     C77206  10.050   6.385   1.129  0.2511 -1.1041  0.3803
  560MOL0     C77207  10.154   6.391   1.066  0.2805  0.7029 -0.1102
  560MOL0     C77208  10.129   6.106   0.799 -0.1921  0.9491  0.8007
  560MOL0     C77209  10.200   6.081   0.675 -0.5894  0.5485 -0.3068
  560MOL0     C77210  10.345   6.079   0.671  0.0115 -0.3147 -1.1446
  560MOL0     H77211  10.048   5.965   0.114 -1.3940 -1.5955 -1.4331
  560MOL0     H77212  10.174   5.991  -0.107  1.8631  2.7913 -0.6412
  560MOL0     H77213  10.290   5.946  -0.287 -1.8247  2.2042 -1.6898
  560MOL0     H77214  10.446   5.994  -0.349  0.4600  0.8598  0.5950
  560MOL0     H77215  10.287   6.196  -0.189  0.1746 -0.8064 -0.8977
  560MOL0     H77216  10.439   6.219  -0.270 -0.6794  1.8157  2.5118
  560MOL0     H77217  10.212   6.110  -0.448  2.8470 -1.6972 -0.8296
  560MOL0     H77218  10.182   6.272  -0.366  1.9544  0.1117  2.3901
  560MOL0     H77219  10.412   6.345  -0.456  2.3970  0.4949 -0.5333
  560MOL0     H77220  10.427   6.188  -0.517  0.8615  1.2841  2.9094
  560MOL0     H77221  10.267   6.238  -0.697 -0.2613  0.2919 -0.1139
  560MOL0     H77222  10.384   6.371  -0.676 -1.3564  1.0729  1.0487
  560MOL0     H77223  10.100   6.357  -0.569  1.5691  0.0559  1.1866
  560MOL0     H77224  10.207   6.490  -0.538 -0.8433  0.4947 -1.0841
  560MOL0     H77225  10.053   6.507  -0.744  0.8611  0.7219 -0.5547
  560MOL0     H77226  10.179   6.413  -0.823 -2.0290 -1.4190  0.3171
  560MOL0     H77227  10.214   6.674  -0.658 -0.1609 -1.7098  0.4689
  560MOL0     H77228  10.352   6.597  -0.726 -0.0899 -1.6968  0.4537
  560MOL0     H77229   9.998   6.679  -0.897 -1.6155  2.5435 -0.3649
  560MOL0     H77230  10.066   6.887  -1.203 -0.6600  1.1711  1.3397
  560MOL0     H77231   9.950   6.875  -1.063  1.7028  2.0452 -0.1192
  560MOL0     H77232   9.936   6.630  -1.141 -1.3026 -1.6443 -1.8992
  560MOL0     H77233   9.843   6.736  -1.237 -0.2100 -1.7426  0.4914
  560MOL0     H77234  10.008   6.741  -1.417  1.8059  2.7965  0.9177
  560MOL0     H77235  10.127   6.660  -1.319 -0.3602 -1.4201 -1.7299
  560MOL0     H77236   9.874   6.526  -1.430 -0.6817  1.5514  0.7018
  560MOL0     H77237  10.047   6.505  -1.482  0.0450  1.9223  0.3237
  560MOL0     H77238   9.843   6.342  -1.504  2.0791  1.7647  0.7155
  560MOL0     H77239   9.701   6.200  -1.630 -0.1447  0.3367  1.1988
  560MOL0     H77240   9.653   6.054  -1.560 -0.2256  2.9834  3.0186
  560MOL0     H77241   9.805   6.064  -1.668  1.8652  0.7748  0.4391
  560MOL0     H77242   9.787   5.652  -1.577  1.7428 -4.0024  0.9983
  560MOL0     H77243   9.690   5.423  -1.571  2.0206  0.0716 -0.4010
  560MOL0     H77244   9.371   5.288  -1.535 -0.8763 -1.0655 -0.2356
  560MOL0     H77245   9.540   5.257  -1.581 -0.7738 -0.3471  0.0059
  560MOL0     H77246   9.388   5.121  -1.359  1.0001 -1.4063  0.8880
  560MOL0     H77247   9.403   5.063  -1.526  1.6389 -0.4556 -0.7283
  560MOL0     H77248   9.548   4.942  -1.375 -1.0933 -0.3997 -0.4940
  560MOL0     H77249   9.626   5.084  -1.339 -0.0801 -0.2354 -0.7650
  560MOL0     H77250   9.756   5.105  -1.528 -0.2357  0.2040 -1.7702
  560MOL0     H77251   9.634   5.053  -1.633  0.0543 -1.9978  1.2485
  560MOL0     H77252   9.655   4.816  -1.586 -1.0081  2.6223 -1.9028
  560MOL0     H77253   9.807   4.889  -1.644  0.4970  0.9638 -0.3861
  560MOL0     H77254   9.721   4.801  -1.370 -1.8394 -2.2169 -3.3465
  560MOL0     H77255   9.877   4.895  -1.403  0.8159 -1.1637  2.1097
  560MOL0     H77256   9.958   4.708  -1.521  1.4925 -3.1662  0.1017
  560MOL0     H77257   9.798   4.621  -1.525  1.2787  0.7434 -3.2558
  560MOL0     H77258   9.800   4.562  -1.311 -0.4991  0.3446 -1.1035
  560MOL0     H77259   9.916   4.690  -1.257 -1.2114  0.9489  0.3753
  560MOL0     H77260   9.467   5.548  -1.226  0.6436 -2.2701 -0.2258
  560MOL0     H77261   9.539   5.792  -1.264  0.9210  2.0529  0.3173
  560MOL0     H77262  10.010   5.998  -1.201  1.0991  0.5694  1.0839
  560MOL0     H77263  10.068   6.231  -1.169  0.1361 -1.0460  1.1312
  560MOL0     H77264  10.541   5.956   0.096 -0.4124 -1.6716 -0.1851
  560MOL0     H77265  10.434   5.964   0.307 -1.3469 -1.9549  1.1757
  560MOL0     H77266   9.927   6.037   0.476  0.0523 -0.3454  0.8760
  560MOL0     H77267   9.816   6.036   0.701  0.8575 -0.5445 -2.4215
  560MOL0     H77268   9.867   6.312   0.909 -0.1834  0.3220 -0.6699
  560MOL0     H77269   9.756   6.180   0.845 -0.8362 -2.8386  1.3063
  560MOL0     H77270   9.711   6.111   1.076 -0.1660 -1.1586 -5.1618
  560MOL0     H77271   9.673   6.282   1.065 -1.5806 -2.5259 -2.2034
  560MOL0     H77272   9.788   6.234   1.281 -1.3459 -3.4164  0.5774
  560MOL0     H77273   9.919   6.164   1.203 -1.0592 -1.5606  0.3389
  560MOL0     H77274   9.925   6.413   1.297 -0.7503  0.2471 -0.6481
  560MOL0     H77275   9.866   6.462   1.136 -2.6907 -1.8108 -2.9742
  560MOL0     H77276  10.249   6.383   1.015 -0.2959 -0.5086 -1.0739
  560MOL0     H77277  10.183   6.143   0.886  0.7706 -0.2334  0.7366
  560MOL0     H77278  10.373   6.037   0.767 -3.2827 -2.4186 -0.9665
  560MOL0     H77279  10.393   6.015   0.596  1.6098 -2.0133  1.1973
  560MOL0     H77280  10.381   6.182   0.675  2.7824 -1.2350  1.4345
  561MOL0     O77281   1.015   5.610   5.737  0.0522 -0.7244  0.0964
  561MOL0     C77282   1.115   5.679   5.746  0.1374  0.8408 -0.2454
  561MOL0     O77283   1.240   5.650   5.697 -0.4890  0.7950  0.0665
  561MOL0     C77284   1.241   5.529   5.627 -0.7368 -0.4657  0.5047
  561MOL0     C77285   1.253   5.405   5.682  0.1768  0.0144 -1.1862
  561MOL0     C77286   1.263   5.294   5.599 -0.0425  0.4657  0.8026
  561MOL0     C77287   1.259   5.309   5.455 -0.0344  0.4712  0.5480
  561MOL0     O77288   1.278   5.201   5.369  0.0417  0.7616  0.2253
  561MOL0     C77289   1.410   5.136   5.363 -0.0327  0.6625 -1.1750
  561MOL0     C77290   1.387   4.985   5.353  0.3148 -0.3108 -1.0316
  561MOL0     C77291   1.348   4.929   5.215  0.1671 -0.2199 -0.4837
  561MOL0     C77292   1.454   4.834   5.154  0.6758 -0.4801 -0.7436
  561MOL0     C77293   1.398   4.768   5.030 -0.2481 -0.6224  0.1954
  561MOL0     C77294   1.511   4.693   4.966 -0.0800 -0.3472  0.5408
  561MOL0     C77295   1.450   4.614   4.847  0.2606 -0.7506  0.9174
  561MOL0     C77296   1.551   4.503   4.802 -0.0941 -1.0572 -0.0637
  561MOL0     N77297   1.676   4.565   4.747 -0.4516 -0.5952  0.2793
  561MOL0     C77298   1.682   4.646   4.638 -0.6045 -0.1417 -0.3591
  561MOL0     C77299   1.809   4.666   4.613 -0.0875  0.0595  0.4170
  561MOL0     C77300   1.852   4.769   4.513 -0.0757 -0.2493  0.4347
  561MOL0     C77301   1.953   4.728   4.410 -0.1162  0.0302  0.7047
  561MOL0     C77302   2.093   4.704   4.449  0.1485  0.5492  0.2913
  561MOL0     C77303   2.198   4.694   4.339  0.3594 -0.7464  0.8688
  561MOL0     O77304   2.171   4.592   4.240 -0.2972 -0.6389 -0.1326
  561MOL0     C77305   2.272   4.539   4.169  0.2194 -0.5718  0.2261
  561MOL0     C77306   2.397   4.511   4.219 -0.2686  0.3864  0.0775
  561MOL0     C77307   2.497   4.464   4.128  0.5436  0.9271 -0.1671
  561MOL0     C77308   2.638   4.443   4.180  0.0866 -0.3437  0.0538
  561MOL0     C77309   2.469   4.438   3.995  0.1814 -0.8966  0.7705
  561MOL0     C77310   2.559   4.393   3.899 -0.2544  0.3209  0.4750
  561MOL0     O77311   2.535   4.426   3.763 -0.1816 -0.1824 -0.6475
  561MOL0     C77312   2.628   4.404   3.661 -0.4503  0.4303 -0.0337
  561MOL0     C77313   2.610   4.280   3.597 -0.3169  0.2146  0.1139
  561MOL0     C77314   2.711   4.237   3.511 -0.4794  0.5190  0.1204
  561MOL0     C77315   2.824   4.314   3.480  0.9172  0.2502 -0.3320
  561MOL0     O77316   2.924   4.255   3.407  0.4018 -0.3902 -1.1386
  561MOL0     C77317   3.057   4.294   3.433 -0.4655  0.1053 -0.2439
  561MOL0     C77318   3.091   4.246   3.576  0.2692 -0.4648 -0.0769
  561MOL0     C77319   3.228   4.312   3.614  0.5066  0.5104 -0.5919
  561MOL0     C77320   3.201   4.454   3.668 -0.2462 -0.1461 -0.3442
  561MOL0     C77321   3.331   4.491   3.743 -0.0974  0.7338 -0.0668
  561MOL0     C77322   3.340   4.642   3.737  0.0476  1.4489 -0.5004
  561MOL0     C77323   3.437   4.727   3.816 -0.2841  0.0737 -0.5562
  561MOL0     C77324   3.591   4.689   3.783 -0.0727  0.2800  0.0105
  561MOL0    Cl77325   3.614   4.709   3.608  0.4623  0.2819 -0.4815
  561MOL0     C77326   2.828   4.445   3.533 -1.1892  0.1364  0.1418
  561MOL0     C77327   2.740   4.484   3.631 -0.1377  0.4896 -0.5189
  561MOL0     O77328   2.658   4.322   3.935  0.0518 -0.9753 -0.2339
  561MOL0     C77329   2.329   4.452   3.956 -0.4073  0.3585 -0.2825
  561MOL0     C77330   2.231   4.488   4.047  0.4405  0.3099  0.3761
  561MOL0     N77331   1.881   4.588   4.698 -0.1289  0.3001 -0.1190
  561MOL0     N77332   1.799   4.527   4.781 -0.5875 -0.1320  0.8172
  561MOL0     C77333   1.250   5.442   5.398 -0.0885 -0.2520  0.0044
  561MOL0     C77334   1.226   5.543   5.490 -1.0431 -0.4005 -0.1441
  561MOL0     C77335   1.099   5.824   5.783 -0.4828 -0.2931 -0.3200
  561MOL0     C77336   1.213   5.888   5.838 -0.3988  0.4863  0.2866
  561MOL0     C77337   1.202   6.017   5.871  0.6091 -0.0279 -0.2388
  561MOL0     C77338   1.086   6.081   5.868 -0.2967 -0.6907  0.7931
  561MOL0     O77339   1.090   6.214   5.904 -0.0352 -0.3969  1.1582
  561MOL0     C77340   0.965   6.290   5.876 -0.5385 -0.9047 -0.3624
  561MOL0     C77341   0.988   6.444   5.916  0.3880  0.1771  0.9845
  561MOL0     C77342   0.860   6.522   5.913  0.5150  0.5661 -0.0273
  561MOL0     C77343   0.867   6.658   5.989  0.0381  0.4461  0.2035
  561MOL0     C77344   0.861   6.636   6.134  0.6349 -0.5279 -0.1231
  561MOL0     C77345   0.848   6.626   6.257 -0.1125  0.5821  0.5105
  561MOL0     C77346   0.970   6.021   5.801 -0.4530 -0.3888  0.1605
  561MOL0     C77347   0.974   5.885   5.768  0.7073 -0.2852  0.1143
  561MOL0     C77348   0.856   5.827   5.699 -0.0321 -0.1836 -0.1900
  561MOL0     H77349   1.244   5.398   5.790 -1.0272  1.6217 -1.1354
  561MOL0     H77350   1.271   5.197   5.647  0.7812  0.2996  0.3528
  561MOL0     H77351   1.475   5.156   5.449 -2.5714  1.5985  0.6609
  561MOL0     H77352   1.470   5.172   5.279  0.6127  1.4463 -0.4095
  561MOL0     H77353   1.476   4.943   5.400 -1.7371 -1.3931  2.2076
  561MOL0     H77354   1.305   4.966   5.422  2.4349  0.8893  2.0219
  561MOL0     H77355   1.249   4.884   5.216 -0.5059  1.1803 -0.8373
  561MOL0     H77356   1.335   5.015   5.148 -1.6578 -0.1784 -0.1288
  561MOL0     H77357   1.539   4.894   5.119 -0.4682  0.4764 -1.9736
  561MOL0     H77358   1.469   4.760   5.233 -2.0399 -0.1520  0.1822
  561MOL0     H77359   1.357   4.836   4.956  0.4981 -0.5288 -0.1415
  561MOL0     H77360   1.320   4.694   5.052  0.9742 -2.6695 -1.9241
  561MOL0     H77361   1.584   4.766   4.930 -2.2538  1.3723 -0.5248
  561MOL0     H77362   1.564   4.621   5.031 -1.0131 -2.2102 -0.6845
  561MOL0     H77363   1.430   4.678   4.761 -1.3776 -1.6705  0.5745
  561MOL0     H77364   1.354   4.570   4.876 -0.3457  0.3508  0.6096
  561MOL0     H77365   1.582   4.441   4.887  0.0914 -1.0059 -0.0931
  561MOL0     H77366   1.503   4.427   4.740 -0.9829 -0.4026 -0.1832
  561MOL0     H77367   1.598   4.691   4.586 -0.1497 -0.4097 -1.3596
  561MOL0     H77368   1.905   4.851   4.562  1.0505 -1.3813  1.1853
  561MOL0     H77369   1.766   4.824   4.474  0.4715  1.1272  1.0935
  561MOL0     H77370   1.916   4.635   4.366  3.3559 -1.0910 -0.1949
  561MOL0     H77371   1.958   4.791   4.321  0.1377  0.1161  0.7780
  561MOL0     H77372   2.125   4.769   4.532 -1.0857  0.1030  1.1426
  561MOL0     H77373   2.088   4.602   4.489 -0.1633 -0.3990 -2.0032
  561MOL0     H77374   2.198   4.793   4.294 -0.3643 -1.9670 -2.0062
  561MOL0     H77375   2.295   4.678   4.389  0.4495 -2.4066  0.2343
  561MOL0     H77376   2.425   4.524   4.323  1.7134 -1.9349 -0.0680
  561MOL0     H77377   2.672   4.340   4.180 -1.2729 -0.8294 -1.0079
  561MOL0     H77378   2.650   4.475   4.284  0.2721 -0.0049 -0.0689
  561MOL0     H77379   2.704   4.515   4.130  1.4752 -2.4493 -1.2782
  561MOL0     H77380   2.541   4.208   3.640 -2.0649  1.7305 -0.0619
  561MOL0     H77381   2.713   4.133   3.478 -0.0483  1.1393 -1.9135
  561MOL0     H77382   3.120   4.240   3.361 -1.0825  1.1416 -1.6141
  561MOL0     H77383   3.068   4.402   3.418  2.4782  0.4364  3.0324
  561MOL0     H77384   3.016   4.280   3.649  1.0705 -3.2211  2.2660
  561MOL0     H77385   3.100   4.137   3.588 -0.3905 -0.7598 -1.9384
  561MOL0     H77386   3.289   4.327   3.524 -1.6320  1.3095 -2.0075
  561MOL0     H77387   3.282   4.249   3.685  0.2384  0.5139 -0.3857
  561MOL0     H77388   3.118   4.456   3.740 -2.5696 -1.0264 -2.8204
  561MOL0     H77389   3.174   4.522   3.587 -2.2638  1.4630  1.5437
  561MOL0     H77390   3.339   4.452   3.845  1.0112  0.3571 -0.2795
  561MOL0     H77391   3.422   4.449   3.699 -2.1284 -2.2079 -1.8381
  561MOL0     H77392   3.249   4.676   3.787 -0.6203 -1.7401  0.7082
  561MOL0     H77393   3.334   4.684   3.636 -1.0377  3.3593  0.3018
  561MOL0     H77394   3.416   4.719   3.923  1.6444  2.5535  0.1037
  561MOL0     H77395   3.437   4.832   3.785  2.2694 -0.0946 -1.3883
  561MOL0     H77396   3.627   4.593   3.821  2.1624  2.5528  4.4036
  561MOL0     H77397   3.658   4.760   3.831 -1.3404 -0.2136  2.6913
  561MOL0     H77398   2.914   4.508   3.512 -2.2543  2.6772  2.6623
  561MOL0     H77399   2.765   4.574   3.686  3.5050 -0.4934 -0.3019
  561MOL0     H77400   2.308   4.424   3.853  0.3983  1.2595 -0.6992
  561MOL0     H77401   2.127   4.488   4.014  0.4206  2.0121  0.3532
  561MOL0     H77402   1.227   5.445   5.292 -0.6829 -0.3856  0.1268
  561MOL0     H77403   1.204   5.643   5.453 -2.5134 -0.1097  1.3824
  561MOL0     H77404   1.305   5.832   5.853 -0.2284  0.0850 -1.8797
  561MOL0     H77405   1.299   6.055   5.899  1.6597 -2.0040 -1.0230
  561MOL0     H77406   0.939   6.288   5.770 -2.3307  0.5098  0.0059
  561MOL0     H77407   0.886   6.242   5.934 -1.6793  0.4810 -0.6877
  561MOL0     H77408   1.072   6.483   5.856  0.1489 -0.3167  0.3213
  561MOL0     H77409   1.024   6.449   6.020  1.3070  4.3198  0.6534
  561MOL0     H77410   0.836   6.536   5.807 -3.3017  1.0902  0.7586
  561MOL0     H77411   0.776   6.467   5.955 -0.7533  2.6253  0.2590
  561MOL0     H77412   0.783   6.716   5.950  1.4047  1.6885 -1.0153
  561MOL0     H77413   0.949   6.725   5.961 -1.3184  1.9612 -0.2407
  561MOL0     H77414   0.843   6.617   6.364  0.6403 -2.0329  0.3951
  561MOL0     H77415   0.878   6.074   5.777 -0.6983 -1.7105 -2.0598
  561MOL0     H77416   0.885   5.773   5.609 -0.0577 -1.6310  0.6285
  561MOL0     H77417   0.802   5.762   5.769 -0.6726  0.0727 -0.4385
  561MOL0     H77418   0.790   5.906   5.663 -1.6662 -1.0680  0.7490
  562MOL0     O77419   4.160   5.471   4.313  0.4293  0.8547  0.3625
  562MOL0     C77420   4.143   5.381   4.397 -0.1418  1.0491  0.0772
  562MOL0     O77421   4.236   5.337   4.489  0.6010  0.0354  0.1559
  562MOL0     C77422   4.339   5.411   4.536 -1.2456  0.4930 -0.3235
  562MOL0     C77423   4.386   5.380   4.663  0.5162  0.5546 -0.5331
  562MOL0     C77424   4.474   5.454   4.743 -0.0918  0.0217 -0.3085
  562MOL0     C77425   4.532   5.567   4.682 -0.0764 -0.2716  0.1286
  562MOL0     O77426   4.625   5.650   4.742  0.3007  0.5827  0.3576
  562MOL0     C77427   4.631   5.651   4.885 -0.2233  0.3016  0.1653
  562MOL0     C77428   4.723   5.768   4.929 -0.3490  0.2408  0.0268
  562MOL0     C77429   4.880   5.731   4.888  0.6940 -0.3256 -0.0235
  562MOL0     C77430   4.973   5.854   4.884 -0.3737  1.1076 -0.3365
  562MOL0     C77431   4.991   5.926   5.023  0.8219  0.5511 -0.0107
  562MOL0     C77432   5.116   6.016   5.021  0.3204  0.1178 -0.8105
  562MOL0     C77433   5.148   6.095   5.154  0.5073  0.6742 -0.0294
  562MOL0     C77434   5.291   6.096   5.203 -0.2535 -0.7462 -0.4560
  562MOL0     N77435   5.369   6.192   5.130 -0.3023  0.1622 -0.1411
  562MOL0     C77436   5.396   6.182   5.000  0.7650  0.2923 -0.0450
  562MOL0     C77437   5.431   6.309   4.975  0.4554  0.3164 -0.3436
  562MOL0     C77438   5.471   6.348   4.838  0.3217 -1.0231  0.1820
  562MOL0     C77439   5.622   6.382   4.837  0.0073 -0.0376  0.6102
  562MOL0     C77440   5.710   6.252   4.864 -0.0627  0.4022 -0.5700
  562MOL0     C77441   5.848   6.269   4.811  0.1377 -0.7439  0.1637
  562MOL0     O77442   5.954   6.209   4.893  0.7327  0.4177 -0.3612
  562MOL0     C77443   6.074   6.267   4.871  0.0265 -0.5783  0.4300
  562MOL0     C77444   6.141   6.228   4.753 -0.2286  0.4579  0.1505
  562MOL0     C77445   6.267   6.285   4.713  0.5989  0.1503 -1.0420
  562MOL0     C77446   6.322   6.260   4.574  0.1467 -0.1708 -0.1839
  562MOL0     C77447   6.328   6.371   4.807 -0.1572  0.0673 -0.2578
  562MOL0     C77448   6.444   6.455   4.782 -0.9307  0.3478  0.1405
  562MOL0     O77449   6.537   6.477   4.887  0.3042 -0.2177 -0.5273
  562MOL0     C77450   6.658   6.549   4.873 -0.7604 -0.5597  0.4515
  562MOL0     C77451   6.760   6.516   4.779 -0.6459 -0.3117  0.0638
  562MOL0     C77452   6.871   6.601   4.759  0.1079  0.0818  0.2605
  562MOL0     C77453   6.881   6.717   4.840 -0.4539  0.2780  0.0844
  562MOL0     O77454   6.990   6.803   4.836  0.5824  0.2192  0.3485
  562MOL0     C77455   7.102   6.776   4.753 -0.1693  0.0123 -0.5288
  562MOL0     C77456   7.184   6.654   4.796  0.8782 -0.3508 -0.0158
  562MOL0     C77457   7.297   6.632   4.693 -0.3917  0.0993 -0.4523
  562MOL0     C77458   7.414   6.548   4.738 -0.2036 -0.3659 -0.5525
  562MOL0     C77459   7.423   6.394   4.743  0.3129  0.4332  0.4522
  562MOL0     C77460   7.374   6.329   4.611  0.1119 -0.2969  0.3476
  562MOL0     C77461   7.391   6.180   4.628 -0.4055  0.2842 -0.1651
  562MOL0     C77462   7.335   6.100   4.503  0.2224 -0.8734  0.0856
  562MOL0    Cl77463   7.444   6.125   4.366  0.1967 -0.1509  0.5649
  562MOL0     C77464   6.785   6.745   4.934 -0.0725 -1.0482 -0.2913
  562MOL0     C77465   6.677   6.665   4.945 -0.4855 -0.0809 -0.5329
  562MOL0     O77466   6.450   6.501   4.672 -0.5264 -0.5292 -0.0921
  562MOL0     C77467   6.269   6.392   4.938  0.5916 -0.7984 -0.9858
  562MOL0     C77468   6.143   6.346   4.961  0.7135  0.4997 -0.5050
  562MOL0     N77469   5.428   6.398   5.083  0.8664 -0.0643  0.1612
  562MOL0     N77470   5.392   6.322   5.179  0.3391  0.2390 -0.3878
  562MOL0     C77471   4.496   5.595   4.553  0.5049  0.1643  0.3481
  562MOL0     C77472   4.398   5.523   4.478 -0.9469 -0.2175  1.2244
  562MOL0     C77473   4.013   5.300   4.390  0.0529 -0.1969  0.4218
  562MOL0     C77474   4.014   5.173   4.456  0.5614 -0.1741  0.0569
  562MOL0     C77475   3.909   5.087   4.436  0.4874 -0.0822 -0.3185
  562MOL0     C77476   3.794   5.120   4.366 -0.1185  0.0063 -0.2772
  562MOL0     O77477   3.683   5.049   4.335 -1.0701  0.3485 -0.5505
  562MOL0     C77478   3.637   4.972   4.448  0.6936  0.0739  0.2389
  562MOL0     C77479   3.502   4.903   4.423 -0.4112  0.5129 -0.7148
  562MOL0     C77480   3.443   4.918   4.283  0.0814 -0.7252 -0.0827
  562MOL0     C77481   3.345   4.807   4.255 -0.3451  0.3122  0.0080
  562MOL0     C77482   3.231   4.791   4.346 -0.1690 -0.1837  0.8088
  562MOL0     C77483   3.132   4.767   4.407  1.2246 -0.0769  0.1181
  562MOL0     C77484   3.787   5.251   4.315  0.5501 -0.1107  0.1337
  562MOL0     C77485   3.895   5.345   4.334  0.8707 -0.1025  0.1799
  562MOL0     C77486   3.879   5.480   4.285  0.1475  0.1544  0.0619
  562MOL0     H77487   4.351   5.289   4.710  1.9963  0.7410  1.0159
  562MOL0     H77488   4.503   5.422   4.842  0.1397  0.2877 -0.2882
  562MOL0     H77489   4.686   5.560   4.912  1.3925  0.7403 -1.4678
  562MOL0     H77490   4.526   5.659   4.912 -0.9004 -1.7573 -1.5971
  562MOL0     H77491   4.694   5.857   4.871  1.7815  1.2121  0.3550
  562MOL0     H77492   4.718   5.783   5.037 -0.2428  1.7074 -0.1481
  562MOL0     H77493   4.906   5.648   4.954 -5.4788 -1.4500  1.5882
  562MOL0     H77494   4.880   5.697   4.784  0.9750  1.4682 -0.6522
  562MOL0     H77495   5.065   5.806   4.849 -2.2000 -2.8918 -0.2727
  562MOL0     H77496   4.936   5.925   4.810 -2.0647  0.8124  0.1806
  562MOL0     H77497   5.008   5.854   5.104  0.2106  1.6825  1.1532
  562MOL0     H77498   4.905   5.990   5.047 -2.4061 -1.9321 -3.6059
  562MOL0     H77499   5.204   5.955   4.999  0.7111  0.9600 -1.6291
  562MOL0     H77500   5.097   6.077   4.932  1.3881  1.3262 -0.2488
  562MOL0     H77501   5.074   6.059   5.226 -4.3510  3.2664 -3.1868
  562MOL0     H77502   5.112   6.197   5.134  0.9907  0.6385 -1.1562
  562MOL0     H77503   5.297   6.124   5.308  5.0107 -1.1338 -0.3935
  562MOL0     H77504   5.317   5.991   5.220 -1.9372 -0.8155  2.5026
  562MOL0     H77505   5.382   6.095   4.937 -1.5241  1.2560 -0.9409
  562MOL0     H77506   5.407   6.432   4.809 -0.6376 -1.3467  1.2827
  562MOL0     H77507   5.456   6.268   4.765 -0.8819  1.1733 -2.1726
  562MOL0     H77508   5.646   6.423   4.739 -0.0494 -0.8333  0.2493
  562MOL0     H77509   5.634   6.462   4.911 -0.3140 -2.1529  3.1071
  562MOL0     H77510   5.725   6.248   4.973  2.6804 -1.6453 -0.9163
  562MOL0     H77511   5.669   6.158   4.826  1.6475 -0.9998  0.8268
  562MOL0     H77512   5.848   6.230   4.709  0.0258  0.0813 -0.1517
  562MOL0     H77513   5.865   6.376   4.805  2.2247 -1.1264 -3.9497
  562MOL0     H77514   6.093   6.162   4.681  1.1987 -1.9737  1.3001
  562MOL0     H77515   6.290   6.343   4.510  0.6580  1.7956  1.9480
  562MOL0     H77516   6.295   6.167   4.524  1.4018 -0.1956 -0.8365
  562MOL0     H77517   6.431   6.267   4.579  0.2752  0.4451 -2.5860
  562MOL0     H77518   6.747   6.421   4.729  0.7969 -1.1267  1.1777
  562MOL0     H77519   6.954   6.580   4.693  1.8812  0.8627  2.1558
  562MOL0     H77520   7.073   6.779   4.647 -0.9546 -0.4379 -0.3325
  562MOL0     H77521   7.162   6.859   4.791 -0.0047 -1.8928  3.9435
  562MOL0     H77522   7.228   6.654   4.896  2.1673 -1.5941 -0.5383
  562MOL0     H77523   7.121   6.564   4.803 -0.8871  0.7574 -0.8851
  562MOL0     H77524   7.335   6.730   4.664  0.6189 -0.4929 -1.1505
  562MOL0     H77525   7.251   6.581   4.607 -1.7918 -1.2560  1.0205
  562MOL0     H77526   7.430   6.577   4.842  0.3444 -1.3364 -0.3567
  562MOL0     H77527   7.502   6.584   4.685 -0.9346 -0.7181 -2.0541
  562MOL0     H77528   7.528   6.368   4.760  0.0819  0.2209  1.6489
  562MOL0     H77529   7.371   6.350   4.829  3.6063 -1.3476  1.7227
  562MOL0     H77530   7.440   6.354   4.527  2.9172 -2.1016  1.8412
  562MOL0     H77531   7.274   6.358   4.579  0.1633 -1.6334 -1.1766
  562MOL0     H77532   7.327   6.152   4.712 -2.3306  0.5609 -1.4654
  562MOL0     H77533   7.488   6.140   4.659 -0.1612 -1.0425 -2.4206
  562MOL0     H77534   7.238   6.136   4.469  1.7132  2.8576 -0.6817
  562MOL0     H77535   7.329   5.994   4.530 -0.1460 -0.7507  0.4990
  562MOL0     H77536   6.798   6.836   4.991  0.1878 -1.7258  0.7678
  562MOL0     H77537   6.612   6.686   5.030  1.5956 -2.2732  1.7773
  562MOL0     H77538   6.308   6.457   5.016 -1.5427 -0.3070 -0.2435
  562MOL0     H77539   6.085   6.362   5.051  0.8628  0.6578 -0.4366
  562MOL0     H77540   4.524   5.690   4.511 -0.5786  1.7810  3.0348
  562MOL0     H77541   4.362   5.551   4.380 -0.0532 -0.7697  0.7304
  562MOL0     H77542   4.103   5.131   4.501  1.2533  0.1462 -0.9890
  562MOL0     H77543   3.925   4.991   4.484  1.5362  0.3926  0.3159
  562MOL0     H77544   3.712   4.892   4.453  1.3333  0.6636  0.1555
  562MOL0     H77545   3.637   5.031   4.540 -0.6431  0.9559 -0.2996
  562MOL0     H77546   3.429   4.950   4.490  2.1314 -1.3212  3.7728
  562MOL0     H77547   3.501   4.796   4.446  1.2618  0.8970  1.3880
  562MOL0     H77548   3.396   5.017   4.272  1.7431  0.3348  1.7287
  562MOL0     H77549   3.524   4.912   4.210  3.4308 -1.5426  3.3538
  562MOL0     H77550   3.392   4.709   4.262  0.5902  0.6611 -1.0246
  562MOL0     H77551   3.314   4.801   4.150  1.3716 -0.1719 -0.4978
  562MOL0     H77552   3.035   4.749   4.448  0.0774 -2.1692 -3.1220
  562MOL0     H77553   3.706   5.288   4.254 -0.4231  1.1036  2.0901
  562MOL0     H77554   3.924   5.498   4.186 -0.8158  2.6319 -0.0120
  562MOL0     H77555   3.775   5.510   4.270  0.7844  2.1100 -0.8310
  562MOL0     H77556   3.913   5.557   4.355 -0.2133  1.0731 -0.7379
  563MOL0     O77557   7.463  10.286   2.135  0.0775  0.0717 -0.5674
  563MOL0     C77558   7.501  10.399   2.122 -0.4011  0.0664 -0.0947
  563MOL0     O77559   7.540  10.479   2.228  0.5667  0.4102  0.4183
  563MOL0     C77560   7.576  10.436   2.348 -0.2919  0.1648  0.1832
  563MOL0     C77561   7.709  10.463   2.388  0.4783 -0.5186 -0.7474
  563MOL0     C77562   7.745  10.438   2.528 -0.2527 -0.1496  0.1965
  563MOL0     C77563   7.644  10.381   2.608 -0.2024  0.3060 -0.9167
  563MOL0     O77564   7.659  10.336   2.736 -0.0804 -0.1894 -0.1581
  563MOL0     C77565   7.785  10.284   2.767 -0.4487 -0.1019 -0.1513
  563MOL0     C77566   7.884  10.388   2.826  0.3395 -0.6770 -0.6442
  563MOL0     C77567   7.843  10.441   2.968  0.7745 -0.5155 -1.1801
  563MOL0     C77568   7.935  10.559   3.018 -0.8971  0.0014  0.4531
  563MOL0     C77569   7.896  10.596   3.167 -1.1278  0.1864 -0.6675
  563MOL0     C77570   7.935  10.491   3.274  0.4671  0.1453  0.1799
  563MOL0     C77571   7.928  10.551   3.414  0.0672 -0.3645  0.8377
  563MOL0     C77572   8.011  10.476   3.519  1.1481  0.0769  0.5512
  563MOL0     N77573   7.995  10.522   3.657 -0.0139 -0.2773 -0.0791
  563MOL0     C77574   8.060  10.630   3.707 -0.7230  0.4448 -0.0115
  563MOL0     C77575   8.021  10.641   3.830  0.2375 -0.1351  0.6345
  563MOL0     C77576   8.067  10.738   3.935 -0.0173  0.4963  0.3175
  563MOL0     C77577   8.186  10.836   3.897  1.1914  0.1467  0.3604
  563MOL0     C77578   8.289  10.850   4.011  0.6160 -0.3297  0.3251
  563MOL0     C77579   8.255  10.922   4.149 -0.6314 -0.4170 -0.0061
  563MOL0     O77580   8.360  10.877   4.247 -0.1814 -0.1707  0.3441
  563MOL0     C77581   8.333  10.880   4.385 -0.7715  0.9430  0.2678
  563MOL0     C77582   8.424  10.822   4.474 -0.4145  0.0236 -0.3496
  563MOL0     C77583   8.408  10.842   4.614 -0.3712  0.7314 -0.5286
  563MOL0     C77584   8.484  10.747   4.706  0.4049  0.4389  0.8917
  563MOL0     C77585   8.308  10.921   4.666  0.5336  0.8265 -0.8892
  563MOL0     C77586   8.287  10.959   4.812 -0.3342  0.5909  0.2100
  563MOL0     O77587   8.190  11.049   4.844  1.1834  0.9263  0.3812
  563MOL0     C77588   8.150  11.058   4.975  0.9502  0.1205 -0.1503
  563MOL0     C77589   8.032  11.147   4.977  0.0819  0.3269 -0.1132
  563MOL0     C77590   7.967  11.181   5.104 -0.8855 -0.6658 -0.2410
  563MOL0     C77591   8.011  11.124   5.218 -0.3649  0.5719 -0.2429
  563MOL0     O77592   7.951  11.147   5.337  0.1552 -0.9731  0.5123
  563MOL0     C77593   7.813  11.112   5.350  0.2139 -1.0099 -0.9332
  563MOL0     C77594   7.758  11.152   5.484 -0.6922 -0.2197 -0.7574
  563MOL0     C77595   7.794  11.303   5.517  1.1657 -0.3942 -0.4370
  563MOL0     C77596   7.719  11.353   5.639 -0.7247 -0.0667  1.4378
  563MOL0     C77597   7.743  11.275   5.766 -0.5911  0.7678  0.3710
  563MOL0     C77598   7.661  11.328   5.881  0.0679  0.6837 -0.0674
  563MOL0     C77599   7.691  11.244   6.007 -1.3577 -0.4614  0.3356
  563MOL0     C77600   7.578  11.249   6.112 -0.9433  0.4908  0.0948
  563MOL0    Cl77601   7.644  11.177   6.258 -0.3095  0.2928  0.1733
  563MOL0     C77602   8.125  11.047   5.217  0.2329  0.7686 -0.2973
  563MOL0     C77603   8.196  11.008   5.103  0.5014 -0.7372 -0.1039
  563MOL0     O77604   8.371  10.920   4.894 -0.6554 -1.0523 -0.5201
  563MOL0     C77605   8.202  10.956   4.582  0.2214 -0.5808  0.8096
  563MOL0     C77606   8.217  10.949   4.440 -0.7405 -0.3997  0.5098
  563MOL0     N77607   7.926  10.535   3.858 -0.4225 -0.5614 -0.0149
  563MOL0     N77608   7.910  10.463   3.751  0.0569  0.0488 -0.4241
  563MOL0     C77609   7.514  10.348   2.563  0.4239  0.1183 -0.0197
  563MOL0     C77610   7.480  10.378   2.427 -0.6611  0.6210 -0.0829
  563MOL0     C77611   7.520  10.463   1.987  0.3315 -0.4520 -0.5592
  563MOL0     C77612   7.557  10.598   1.986 -0.8333 -0.1009 -0.1739
  563MOL0     C77613   7.564  10.668   1.871 -0.0094 -0.3433 -0.4198
  563MOL0     C77614   7.558  10.617   1.747  0.1344  0.1409  0.0358
  563MOL0     O77615   7.573  10.695   1.632  0.7222 -0.2439 -0.4496
  563MOL0     C77616   7.609  10.835   1.633  0.8709  0.7141 -0.1864
  563MOL0     C77617   7.690  10.865   1.507  0.4691  1.0883  0.2415
  563MOL0     C77618   7.777  10.986   1.526 -0.6795 -0.1133 -0.0689
  563MOL0     C77619   7.715  11.110   1.486 -0.3351  0.4264 -0.7002
  563MOL0     C77620   7.607  11.157   1.587 -0.1195  0.1361 -0.6577
  563MOL0     C77621   7.522  11.206   1.650  0.0050 -0.1166 -0.3084
  563MOL0     C77622   7.538  10.473   1.738  0.1778 -0.5563 -0.5531
  563MOL0     C77623   7.514  10.402   1.866  0.1542  0.0854 -0.2990
  563MOL0     C77624   7.491  10.258   1.842  0.9176 -0.0741  0.4609
  563MOL0     H77625   7.778  10.506   2.315 -0.9426  2.3417 -0.5308
  563MOL0     H77626   7.847  10.450   2.562 -0.2934 -0.9110  0.6015
  563MOL0     H77627   7.829  10.244   2.675 -2.5667  2.5960 -2.5249
  563MOL0     H77628   7.770  10.201   2.836  0.9283  0.4170  0.8258
  563MOL0     H77629   7.982  10.341   2.817  0.2533 -1.5565  2.0814
  563MOL0     H77630   7.893  10.466   2.750 -1.3999  0.1008 -0.1253
  563MOL0     H77631   7.742  10.483   2.961  0.2679 -0.4727  3.4460
  563MOL0     H77632   7.848  10.351   3.030 -1.2533 -1.0346 -1.6904
  563MOL0     H77633   8.036  10.518   3.020 -0.9264 -0.3418 -2.0363
  563MOL0     H77634   7.945  10.644   2.950 -0.9393 -1.2739 -1.2034
  563MOL0     H77635   7.790  10.619   3.172 -0.6836  2.5091 -0.9338
  563MOL0     H77636   7.947  10.687   3.198  1.2439 -1.8817  2.0834
  563MOL0     H77637   7.872  10.402   3.272  0.1470  0.3139  1.7363
  563MOL0     H77638   8.031  10.449   3.245  0.2058  0.4153 -1.1617
  563MOL0     H77639   7.823  10.558   3.441 -0.7137 -1.0452 -1.7803
  563MOL0     H77640   7.978  10.648   3.409  0.8795 -0.8380 -2.3424
  563MOL0     H77641   7.985  10.370   3.510  0.8492  0.2767 -1.3534
  563MOL0     H77642   8.116  10.477   3.486  0.0843 -3.6825 -4.1818
  563MOL0     H77643   8.137  10.686   3.653 -1.3695  0.1156 -1.3170
  563MOL0     H77644   8.098  10.674   4.018 -0.2201  0.4344  0.3462
  563MOL0     H77645   7.977  10.793   3.964  0.8515  2.3593 -0.3194
  563MOL0     H77646   8.231  10.796   3.805 -2.0330 -0.0264 -1.3125
  563MOL0     H77647   8.146  10.934   3.872  0.2887  0.4022  2.6320
  563MOL0     H77648   8.326  10.752   4.044  2.2167 -0.4114 -1.5266
  563MOL0     H77649   8.382  10.895   3.975  1.5460  0.5485  3.4683
  563MOL0     H77650   8.252  11.030   4.132 -0.7396 -0.5995 -1.3169
  563MOL0     H77651   8.158  10.889   4.187 -0.2712 -1.7517 -0.1992
  563MOL0     H77652   8.504  10.759   4.436  0.6535  2.0887 -1.7158
  563MOL0     H77653   8.428  10.719   4.796 -0.4597 -0.0268  0.2302
  563MOL0     H77654   8.573  10.802   4.737  0.3260  2.0316 -1.4204
  563MOL0     H77655   8.511  10.649   4.666  0.8052  0.4903  1.0334
  563MOL0     H77656   7.999  11.191   4.884 -1.5339 -1.4445 -0.4311
  563MOL0     H77657   7.879  11.243   5.113 -1.1925 -0.7808 -2.0047
  563MOL0     H77658   7.757  11.170   5.275  1.0971  0.7605 -0.2856
  563MOL0     H77659   7.800  11.005   5.334 -1.5449 -1.1188  0.8896
  563MOL0     H77660   7.649  11.157   5.492 -0.5444  1.7197  0.5883
  563MOL0     H77661   7.804  11.096   5.566  0.4933  0.5003 -0.9057
  563MOL0     H77662   7.767  11.367   5.432 -2.2332 -0.0576  0.7285
  563MOL0     H77663   7.902  11.298   5.532  1.1091  0.9581  0.6194
  563MOL0     H77664   7.619  11.352   5.594  1.0058 -0.1882 -2.9262
  563MOL0     H77665   7.747  11.458   5.646  0.3347 -0.1697 -0.5087
  563MOL0     H77666   7.731  11.166   5.764 -3.5554  1.0214 -0.7736
  563MOL0     H77667   7.848  11.290   5.790 -0.1048  2.5741 -2.4263
  563MOL0     H77668   7.556  11.346   5.858 -0.3648 -0.0673  1.2191
  563MOL0     H77669   7.718  11.415   5.914  3.0020 -0.1093 -2.5812
  563MOL0     H77670   7.785  11.278   6.052 -1.4476  0.8064 -0.3769
  563MOL0     H77671   7.719  11.139   5.988  3.0727  0.8364 -1.6840
  563MOL0     H77672   7.487  11.200   6.076 -1.8546 -0.1654  3.0492
  563MOL0     H77673   7.543  11.352   6.117 -5.1706 -0.6102 -2.4065
  563MOL0     H77674   8.156  11.016   5.317 -0.4349  2.6230  0.5256
  563MOL0     H77675   8.282  10.943   5.111  0.6672 -0.5504 -0.3210
  563MOL0     H77676   8.112  10.998   4.625 -0.1878 -1.2593  0.6301
  563MOL0     H77677   8.142  10.998   4.378  1.0173  0.7212 -0.8385
  563MOL0     H77678   7.443  10.309   2.635  0.6924 -0.0972  0.1289
  563MOL0     H77679   7.383  10.372   2.380 -0.2809  0.5592 -0.8761
  563MOL0     H77680   7.560  10.654   2.078  0.8126 -2.0997  1.0898
  563MOL0     H77681   7.572  10.775   1.885 -0.4114 -0.5973  2.3647
  563MOL0     H77682   7.524  10.903   1.638 -0.2939 -0.7766  2.2603
  563MOL0     H77683   7.671  10.861   1.719  1.3482  1.1571 -0.6586
  563MOL0     H77684   7.628  10.877   1.418 -0.0627 -1.4056  0.1900
  563MOL0     H77685   7.755  10.779   1.490  2.6678  1.7557  4.1719
  563MOL0     H77686   7.822  10.983   1.626 -0.2154 -0.4615 -0.2806
  563MOL0     H77687   7.867  10.978   1.463 -1.6667 -0.9396 -1.4129
  563MOL0     H77688   7.667  11.087   1.390 -0.1213 -2.0230 -0.2869
  563MOL0     H77689   7.784  11.194   1.479  2.3687 -1.6544 -0.7042
  563MOL0     H77690   7.448  11.226   1.726  1.4615 -0.7902  1.3598
  563MOL0     H77691   7.530  10.425   1.642  2.0713 -0.2562 -0.9056
  563MOL0     H77692   7.415  10.216   1.908 -0.9864  0.3089 -1.3873
  563MOL0     H77693   7.453  10.245   1.741 -1.0928  1.5501  0.9423
  563MOL0     H77694   7.574  10.188   1.857 -0.5446 -1.3622  3.3279
  564MOL0     O77695   1.140   1.411   5.121  0.8085  0.3190  0.4829
  564MOL0     C77696   1.180   1.517   5.073 -0.2443  0.5756 -0.3529
  564MOL0     O77697   1.097   1.624   5.052 -0.3256 -0.0235 -0.3889
  564MOL0     C77698   0.961   1.609   5.076  0.1078 -0.3378 -0.6962
  564MOL0     C77699   0.884   1.604   4.972  0.2164 -0.5730  0.8427
  564MOL0     C77700   0.751   1.607   4.980  0.1424  0.2971 -0.6503
  564MOL0     C77701   0.693   1.631   5.104  0.1440  0.0954 -0.4533
  564MOL0     O77702   0.561   1.655   5.097 -0.1118  0.8877  1.0482
  564MOL0     C77703   0.470   1.650   5.212 -0.2610 -0.0662  0.1247
  564MOL0     C77704   0.335   1.610   5.148 -0.1333  0.2174  0.1963
  564MOL0     C77705   0.230   1.652   5.243 -1.3937 -0.1440 -0.0235
  564MOL0     C77706   0.093   1.673   5.179 -0.5966  0.0983  0.0106
  564MOL0     C77707  -0.019   1.662   5.275 -0.6419  0.1470 -0.3560
  564MOL0     C77708  -0.151   1.732   5.227  0.0723  0.1456 -0.6056
  564MOL0     C77709  -0.266   1.637   5.224 -0.2176  0.7040 -0.2627
  564MOL0     C77710  -0.390   1.700   5.167 -0.1584 -0.6925 -0.1716
  564MOL0     N77711  -0.507   1.619   5.195 -0.5449 -0.1688 -0.8611
  564MOL0     C77712  -0.626   1.661   5.264 -0.5083 -0.0218  0.0604
  564MOL0     C77713  -0.693   1.549   5.257  0.1581  0.7181 -0.0218
  564MOL0     C77714  -0.840   1.538   5.283  0.4434  0.9545 -0.7118
  564MOL0     C77715  -0.890   1.389   5.276 -0.6338 -0.3307  0.7161
  564MOL0     C77716  -1.037   1.369   5.316  0.2313 -0.2086 -0.3252
  564MOL0     C77717  -1.095   1.231   5.262 -0.3126 -0.0759 -0.6106
  564MOL0     O77718  -1.224   1.193   5.303  0.6808  0.0302  0.2928
  564MOL0     C77719  -1.326   1.272   5.253 -0.1360  0.1068  0.7484
  564MOL0     C77720  -1.451   1.283   5.324 -0.6979 -0.1727  0.4545
  564MOL0     C77721  -1.547   1.370   5.268  0.5643 -0.2179  0.2389
  564MOL0     C77722  -1.678   1.367   5.347  0.5334 -0.4463 -0.3079
  564MOL0     C77723  -1.542   1.437   5.137  0.0252  0.5583 -0.7927
  564MOL0     C77724  -1.654   1.513   5.081  0.2670  0.4591  0.2432
  564MOL0     O77725  -1.662   1.517   4.948  0.4566  0.4830  1.2284
  564MOL0     C77726  -1.786   1.531   4.883 -0.4626 -0.0009 -0.0670
  564MOL0     C77727  -1.915   1.547   4.937 -0.4797  0.6582 -0.2097
  564MOL0     C77728  -2.025   1.553   4.859  0.4913  0.6049  0.3731
  564MOL0     C77729  -2.016   1.527   4.718 -0.0509 -0.9197 -0.1662
  564MOL0     O77730  -2.124   1.538   4.633  0.0067  0.2405  0.7445
  564MOL0     C77731  -2.264   1.507   4.664 -0.1406  0.2664  0.5165
  564MOL0     C77732  -2.288   1.357   4.680  0.1609  0.1905  0.3027
  564MOL0     C77733  -2.435   1.320   4.652  0.0393  0.2633 -0.0588
  564MOL0     C77734  -2.461   1.171   4.612 -0.0246 -0.0479  0.4256
  564MOL0     C77735  -2.481   1.082   4.734 -0.2254 -0.4056 -0.3888
  564MOL0     C77736  -2.486   0.932   4.715  0.3247  0.1639 -0.1362
  564MOL0     C77737  -2.532   0.889   4.855 -0.2738  0.2921 -0.8370
  564MOL0     C77738  -2.596   0.748   4.858 -0.2571 -0.5037  0.3847
  564MOL0    Cl77739  -2.474   0.646   4.778  0.7215 -0.3689  0.4458
  564MOL0     C77740  -1.890   1.521   4.661 -0.0886  0.0360 -0.2325
  564MOL0     C77741  -1.776   1.524   4.740 -0.5143  0.4859 -0.0710
  564MOL0     O77742  -1.729   1.581   5.154 -0.0504 -0.3081 -0.5684
  564MOL0     C77743  -1.422   1.401   5.068  0.8178 -0.6334  0.0837
  564MOL0     C77744  -1.320   1.329   5.121  0.1401  0.4361 -0.1635
  564MOL0     N77745  -0.616   1.440   5.219  0.7727 -0.1114  0.2797
  564MOL0     N77746  -0.502   1.483   5.192  0.6105 -0.3600 -0.0541
  564MOL0     C77747   0.772   1.619   5.220 -0.1455  0.7469 -0.1965
  564MOL0     C77748   0.908   1.609   5.204 -0.1100  0.5609 -0.3359
  564MOL0     C77749   1.327   1.537   5.033 -0.1430 -0.5140 -0.4938
  564MOL0     C77750   1.369   1.668   5.039 -0.2476  0.0642  0.4492
  564MOL0     C77751   1.490   1.699   4.996  0.0083  0.1462  0.3993
  564MOL0     C77752   1.579   1.594   4.950  0.1428  1.1605 -0.2672
  564MOL0     O77753   1.699   1.633   4.903  0.3247  0.8935 -0.1806
  564MOL0     C77754   1.799   1.621   5.005 -0.8187 -0.6351  0.2958
  564MOL0     C77755   1.924   1.678   4.954  0.1537 -0.7429  0.4609
  564MOL0     C77756   2.008   1.588   4.861  0.4205 -0.1037 -0.2970
  564MOL0     C77757   1.953   1.557   4.724  0.7729  0.6796 -0.0132
  564MOL0     C77758   2.053   1.480   4.654  0.4129  0.0065  0.9121
  564MOL0     C77759   2.144   1.447   4.585 -0.2194  0.0620  0.3596
  564MOL0     C77760   1.546   1.458   4.954  0.4810 -0.0824 -0.2756
  564MOL0     C77761   1.414   1.427   4.990  0.0826 -1.0117 -0.1192
  564MOL0     C77762   1.381   1.283   4.967  0.1866  0.6778 -0.0343
  564MOL0     H77763   0.936   1.593   4.877 -0.1870 -2.0579  0.7788
  564MOL0     H77764   0.679   1.602   4.898  0.8027  0.2301 -1.2372
  564MOL0     H77765   0.470   1.745   5.267  0.1579  1.7205 -2.7534
  564MOL0     H77766   0.501   1.572   5.282  0.0084 -0.2414 -0.1855
  564MOL0     H77767   0.315   1.660   5.053 -0.2538 -2.5751 -1.3393
  564MOL0     H77768   0.337   1.506   5.117 -2.3489 -0.1203  1.0175
  564MOL0     H77769   0.231   1.580   5.326  2.2669 -0.5390 -0.2728
  564MOL0     H77770   0.254   1.744   5.297  1.6915 -2.1383  2.3665
  564MOL0     H77771   0.081   1.774   5.140  0.0966 -0.5081 -1.9013
  564MOL0     H77772   0.067   1.601   5.101 -1.9123  0.5292  0.0337
  564MOL0     H77773   0.010   1.715   5.366  1.1373  0.0860 -0.8623
  564MOL0     H77774  -0.037   1.560   5.311 -2.6794  0.2257 -1.0341
  564MOL0     H77775  -0.177   1.811   5.298  0.4697  0.6366 -1.0088
  564MOL0     H77776  -0.139   1.772   5.126 -1.1330  0.1010 -0.7881
  564MOL0     H77777  -0.278   1.592   5.323 -0.3400 -1.0739 -1.0378
  564MOL0     H77778  -0.251   1.551   5.158 -1.2096  1.3657 -1.3764
  564MOL0     H77779  -0.399   1.799   5.213 -2.6239 -2.3472  3.3338
  564MOL0     H77780  -0.374   1.700   5.058  0.0848 -0.3491 -0.1406
  564MOL0     H77781  -0.671   1.760   5.254 -1.8449 -0.6652 -0.4755
  564MOL0     H77782  -0.894   1.607   5.218 -1.2403  1.3399  1.0218
  564MOL0     H77783  -0.857   1.574   5.385 -1.4672  2.5459 -1.5132
  564MOL0     H77784  -0.875   1.352   5.174  2.3367  0.0461  0.9505
  564MOL0     H77785  -0.830   1.330   5.346  0.6102 -2.0257 -1.6454
  564MOL0     H77786  -1.048   1.379   5.425  1.8589 -3.4693  0.2704
  564MOL0     H77787  -1.101   1.448   5.277 -2.1756 -1.5188  0.7422
  564MOL0     H77788  -1.089   1.228   5.153 -0.4748  3.0321 -0.8158
  564MOL0     H77789  -1.036   1.151   5.308  0.0169 -0.1973 -1.2414
  564MOL0     H77790  -1.449   1.238   5.423  0.5219  0.4607  0.7271
  564MOL0     H77791  -1.688   1.277   5.409  2.0866 -2.2745 -2.5207
  564MOL0     H77792  -1.763   1.340   5.284 -0.9676 -0.6413  1.7170
  564MOL0     H77793  -1.695   1.459   5.402 -1.0238 -1.1107  0.3854
  564MOL0     H77794  -1.921   1.569   5.043 -0.1418 -0.9384  0.1689
  564MOL0     H77795  -2.125   1.560   4.899  0.5574 -1.0562  0.9005
  564MOL0     H77796  -2.298   1.567   4.749  3.0693  1.2397  1.2694
  564MOL0     H77797  -2.319   1.536   4.574 -1.7251 -1.2512  0.9463
  564MOL0     H77798  -2.219   1.299   4.618  0.8708  1.4204 -0.1062
  564MOL0     H77799  -2.285   1.318   4.782  0.4841 -0.0348  0.2099
  564MOL0     H77800  -2.476   1.390   4.579 -0.2517  0.9600  0.7507
  564MOL0     H77801  -2.493   1.332   4.744 -0.1355  0.6924 -0.2221
  564MOL0     H77802  -2.377   1.125   4.559  1.3018  1.6338  0.9860
  564MOL0     H77803  -2.555   1.154   4.559  0.0569 -3.1676  1.0604
  564MOL0     H77804  -2.394   1.097   4.798  1.3392 -2.0384 -2.0371
  564MOL0     H77805  -2.572   1.115   4.785 -0.2252 -3.8744  2.1518
  564MOL0     H77806  -2.394   0.889   4.674 -0.6797  1.3864 -4.1180
  564MOL0     H77807  -2.570   0.907   4.650  0.5542  1.2947 -0.8943
  564MOL0     H77808  -2.595   0.960   4.909  0.5719  1.0012 -0.7691
  564MOL0     H77809  -2.440   0.895   4.914  0.9594 -2.4248 -2.2740
  564MOL0     H77810  -2.688   0.751   4.799  1.8138  1.6794 -3.0821
  564MOL0     H77811  -2.620   0.721   4.961 -0.5724  1.9474  1.0280
  564MOL0     H77812  -1.886   1.503   4.554 -1.5730 -1.6703 -0.0530
  564MOL0     H77813  -1.675   1.518   4.701  1.0697 -0.6933  3.6973
  564MOL0     H77814  -1.416   1.441   4.967 -2.9015 -2.5155 -1.0853
  564MOL0     H77815  -1.236   1.325   5.053  0.6432  0.2343  0.4571
  564MOL0     H77816   0.732   1.637   5.320 -1.0867 -0.2577 -0.3815
  564MOL0     H77817   0.973   1.619   5.291  0.4266  1.6190 -0.8380
  564MOL0     H77818   1.304   1.749   5.070 -0.9992  0.5419 -2.1413
  564MOL0     H77819   1.504   1.806   5.007 -1.1711  0.4418 -0.8130
  564MOL0     H77820   1.770   1.673   5.097  0.4121  0.8704 -0.1282
  564MOL0     H77821   1.814   1.513   5.016  3.8840 -0.3219 -0.9932
  564MOL0     H77822   1.986   1.695   5.042  0.9527 -2.3227  0.2515
  564MOL0     H77823   1.911   1.772   4.899 -1.6650 -1.0871  0.2459
  564MOL0     H77824   2.107   1.634   4.853 -0.6081  2.3775  0.3798
  564MOL0     H77825   2.018   1.492   4.912  1.2267 -0.6104 -1.3661
  564MOL0     H77826   1.918   1.646   4.670  0.5320  1.0617  0.7591
  564MOL0     H77827   1.867   1.489   4.728 -0.7209  2.2351 -2.6054
  564MOL0     H77828   2.238   1.430   4.536  0.0338  1.0385  0.4690
  564MOL0     H77829   1.622   1.393   4.913  0.2609 -1.3783  1.2616
  564MOL0     H77830   1.274   1.264   4.954 -0.3000  3.0419  0.1628
  564MOL0     H77831   1.441   1.227   4.895 -0.5891 -3.3510  2.1494
  564MOL0     H77832   1.404   1.237   5.064  1.4134  0.2884 -0.4906
  565MOL0     O77833  10.327   7.895   8.688  0.0755 -0.5552 -0.2939
  565MOL0     C77834  10.252   7.848   8.776 -0.4191 -0.2740  0.0544
  565MOL0     O77835  10.143   7.772   8.760  0.8724 -0.0217  0.2597
  565MOL0     C77836  10.114   7.714   8.640  0.7590 -0.7296  0.2433
  565MOL0     C77837  10.115   7.778   8.512  0.2883 -0.0492 -0.7537
  565MOL0     C77838  10.074   7.698   8.402  0.1922  0.4025 -0.2303
  565MOL0     C77839  10.044   7.565   8.400 -1.3242  0.1713 -0.4637
  565MOL0     O77840  10.025   7.506   8.279 -0.1969 -0.3314  0.0760
  565MOL0     C77841   9.924   7.404   8.269 -0.8826 -0.0419  0.2529
  565MOL0     C77842   9.899   7.411   8.115  0.2913 -0.8297 -0.4566
  565MOL0     C77843   9.779   7.341   8.053 -0.1645  0.1415 -0.1022
  565MOL0     C77844   9.779   7.184   8.082 -0.5329  0.1928  0.0155
  565MOL0     C77845   9.648   7.128   8.039 -0.0312  0.4198 -0.3412
  565MOL0     C77846   9.510   7.178   8.110  0.0303 -0.4674 -0.2893
  565MOL0     C77847   9.391   7.077   8.111 -0.2723 -0.2166  0.1213
  565MOL0     C77848   9.255   7.127   8.176 -0.0878 -0.0296  0.6980
  565MOL0     N77849   9.252   7.112   8.323 -0.2331 -0.3971  0.3591
  565MOL0     C77850   9.360   7.094   8.404  0.5545 -0.2136  0.3499
  565MOL0     C77851   9.303   7.091   8.527 -0.5345 -0.2567 -0.1281
  565MOL0     C77852   9.389   7.063   8.646 -0.3775 -0.8479  0.2798
  565MOL0     C77853   9.454   7.193   8.683  0.2681  0.0914  0.2015
  565MOL0     C77854   9.360   7.285   8.755  0.4307 -0.2308 -0.6966
  565MOL0     C77855   9.447   7.376   8.841  0.0989  0.3662 -0.3260
  565MOL0     O77856   9.550   7.444   8.763  0.2466  0.2752  0.0225
  565MOL0     C77857   9.629   7.530   8.836  0.3596 -1.0341  0.1809
  565MOL0     C77858   9.626   7.543   8.975  0.8417 -0.0510  0.0261
  565MOL0     C77859   9.678   7.656   9.030 -1.1186 -1.1237 -0.7431
  565MOL0     C77860   9.634   7.682   9.178 -0.1316 -0.1956 -0.0539
  565MOL0     C77861   9.761   7.749   8.955  1.2276  0.4293  0.1353
  565MOL0     C77862   9.832   7.872   9.016 -0.0340 -0.1801 -0.9961
  565MOL0     O77863   9.816   7.991   8.946 -0.3789 -0.8569 -0.3743
  565MOL0     C77864   9.885   8.100   8.995  0.1898 -0.6186  1.4644
  565MOL0     C77865   9.860   8.171   9.110  0.9064 -0.5532  0.0790
  565MOL0     C77866   9.943   8.274   9.150 -0.6125  1.2807  0.0254
  565MOL0     C77867  10.059   8.311   9.079  0.5510  0.4974  0.9977
  565MOL0     O77868  10.131   8.421   9.128  0.4411 -0.3658  0.2056
  565MOL0     C77869  10.241   8.470   9.055 -0.6856  0.7056  0.1142
  565MOL0     C77870  10.316   8.581   9.134  0.4762 -0.0985  0.1562
  565MOL0     C77871  10.420   8.517   9.237 -0.0303  0.5703 -0.2594
  565MOL0     C77872  10.556   8.474   9.172  1.5714  0.2361  0.1315
  565MOL0     C77873  10.669   8.423   9.265  0.4967 -0.2987  0.1712
  565MOL0     C77874  10.641   8.282   9.331 -0.4444 -0.4178 -0.1299
  565MOL0     C77875  10.767   8.235   9.408 -0.2927 -0.2524  0.3908
  565MOL0     C77876  10.749   8.083   9.431  0.1232  0.0312  0.0814
  565MOL0    Cl77877  10.842   8.027   9.567  0.4959  0.2047 -0.2996
  565MOL0     C77878  10.066   8.259   8.945 -0.0562  0.1627 -0.4655
  565MOL0     C77879   9.984   8.146   8.912  0.0054 -0.6504  0.2090
  565MOL0     O77880   9.899   7.861   9.123  0.4537 -0.3851  0.1310
  565MOL0     C77881   9.776   7.721   8.822  0.5053 -0.0587 -1.2327
  565MOL0     C77882   9.712   7.610   8.763  0.5151 -0.6911 -0.6425
  565MOL0     N77883   9.171   7.121   8.527 -0.0163 -0.9679 -0.2005
  565MOL0     N77884   9.139   7.121   8.403  0.2134  0.3536 -0.2446
  565MOL0     C77885  10.037   7.504   8.526  0.6115 -0.6132  0.5968
  565MOL0     C77886  10.063   7.579   8.645  1.4616 -0.2757  0.7917
  565MOL0     C77887  10.269   7.892   8.920 -0.0183 -0.1984  0.1372
  565MOL0     C77888  10.189   7.845   9.023 -0.4174 -0.0468 -0.1804
  565MOL0     C77889  10.199   7.883   9.159  0.1523 -0.4004 -1.3780
  565MOL0     C77890  10.291   7.980   9.198  0.0979  0.4863 -0.0658
  565MOL0     O77891  10.291   8.019   9.329 -0.8961  0.1454 -0.0641
  565MOL0     C77892  10.256   8.160   9.338 -0.8379 -0.5165  0.0958
  565MOL0     C77893  10.126   8.174   9.402 -0.0811  0.0943 -1.3092
  565MOL0     C77894  10.107   8.105   9.538  0.3447  0.0609 -0.1185
  565MOL0     C77895   9.959   8.140   9.586  0.1249 -0.3136 -0.0056
  565MOL0     C77896   9.927   8.105   9.721  0.6581 -0.0634 -0.0799
  565MOL0     C77897   9.899   8.058   9.824 -0.2630  0.3373 -0.0067
  565MOL0     C77898  10.370   8.038   9.100  0.3418 -0.1181  0.3693
  565MOL0     C77899  10.362   7.993   8.964 -0.4834  0.6007 -0.0830
  565MOL0     C77900  10.473   8.044   8.870 -0.4516 -0.8019 -0.1754
  565MOL0     H77901  10.150   7.880   8.497 -0.7037  0.4553  0.1973
  565MOL0     H77902  10.071   7.752   8.308 -3.3030 -3.0471 -2.4056
  565MOL0     H77903   9.832   7.430   8.322 -2.1905 -1.3603 -1.2648
  565MOL0     H77904   9.967   7.307   8.296  0.5494  0.1589 -1.1508
  565MOL0     H77905   9.878   7.514   8.086 -2.8016 -1.4613 -0.8002
  565MOL0     H77906   9.988   7.373   8.063  0.3190 -1.1717 -0.1628
  565MOL0     H77907   9.690   7.376   8.105  1.3193  1.6303  1.5911
  565MOL0     H77908   9.777   7.358   7.945  2.2184  0.0194 -0.2172
  565MOL0     H77909   9.864   7.145   8.026  1.7566  3.3583  0.9879
  565MOL0     H77910   9.808   7.157   8.184  1.1889 -0.9329 -0.7500
  565MOL0     H77911   9.635   7.019   8.039 -0.8766  0.5000 -1.3683
  565MOL0     H77912   9.642   7.162   7.935  0.0093 -0.4323 -0.6294
  565MOL0     H77913   9.529   7.177   8.218 -1.2666  2.5423  0.0498
  565MOL0     H77914   9.481   7.279   8.079  2.8463  1.0467  1.5927
  565MOL0     H77915   9.421   6.984   8.160  0.0851 -2.5806 -4.1112
  565MOL0     H77916   9.377   7.047   8.006 -0.0054 -2.5403  0.6897
  565MOL0     H77917   9.242   7.232   8.146  2.4843  0.1950  0.0854
  565MOL0     H77918   9.184   7.063   8.124 -0.3179  2.1569 -1.8857
  565MOL0     H77919   9.466   7.088   8.384  0.2569 -0.7539 -1.1878
  565MOL0     H77920   9.462   6.990   8.608  0.3282  0.1753 -0.3627
  565MOL0     H77921   9.334   7.015   8.729  0.7368 -2.8600 -0.0685
  565MOL0     H77922   9.546   7.164   8.734  3.3089 -3.0352 -5.9254
  565MOL0     H77923   9.492   7.242   8.593 -1.0984 -0.2146 -0.5642
  565MOL0     H77924   9.290   7.339   8.691  2.4852 -0.2891 -3.1256
  565MOL0     H77925   9.295   7.229   8.824  1.4877  0.1836  0.6728
  565MOL0     H77926   9.370   7.435   8.891 -3.6470 -3.3299 -1.2018
  565MOL0     H77927   9.492   7.316   8.921  0.0063  0.8995  0.1323
  565MOL0     H77928   9.568   7.478   9.040  1.5932  0.1908  0.9661
  565MOL0     H77929   9.561   7.760   9.199  0.5272  0.0997  1.2431
  565MOL0     H77930   9.728   7.706   9.228  0.0760 -0.1753 -0.4461
  565MOL0     H77931   9.589   7.588   9.211  0.5777 -0.5160  0.0265
  565MOL0     H77932   9.771   8.155   9.170 -0.7988  2.3931 -1.4448
  565MOL0     H77933   9.923   8.321   9.246 -1.2004 -2.9771  2.2281
  565MOL0     H77934  10.307   8.385   9.030 -0.6538  1.2592 -1.8677
  565MOL0     H77935  10.209   8.510   8.958  1.8685 -1.9602 -2.0239
  565MOL0     H77936  10.367   8.652   9.068 -2.3401  2.2739  0.3492
  565MOL0     H77937  10.238   8.642   9.180 -1.0235 -1.0375 -1.0538
  565MOL0     H77938  10.386   8.434   9.300  0.3456  0.7201  0.1504
  565MOL0     H77939  10.454   8.600   9.300 -1.9782 -0.0068  1.6865
  565MOL0     H77940  10.598   8.566   9.128 -0.2715  3.4959  4.4828
  565MOL0     H77941  10.546   8.411   9.083  0.0408 -1.1430  1.2224
  565MOL0     H77942  10.760   8.427   9.204 -0.6534  2.0435 -1.5678
  565MOL0     H77943  10.688   8.486   9.353  1.0989 -2.4455  1.6786
  565MOL0     H77944  10.621   8.211   9.251 -2.4817 -2.2047  1.8167
  565MOL0     H77945  10.553   8.280   9.396  0.3880 -0.7003  1.0188
  565MOL0     H77946  10.768   8.291   9.503 -0.0698  0.4854 -0.0369
  565MOL0     H77947  10.855   8.253   9.345  0.9678 -0.7439  1.9193
  565MOL0     H77948  10.783   8.024   9.346  1.6846  1.3002 -0.2042
  565MOL0     H77949  10.647   8.066   9.468 -0.0169  4.6915  2.6159
  565MOL0     H77950  10.139   8.296   8.874 -1.5628  2.9868 -0.6766
  565MOL0     H77951   9.994   8.088   8.821 -0.9836 -4.5944  2.4088
  565MOL0     H77952   9.835   7.796   8.770  1.4048  0.1888  0.0793
  565MOL0     H77953   9.719   7.593   8.656 -1.8309  0.0815 -0.9705
  565MOL0     H77954  10.016   7.398   8.516 -0.3151 -0.2135 -3.7747
  565MOL0     H77955  10.043   7.531   8.740 -2.1631  3.5008  2.2243
  565MOL0     H77956  10.113   7.769   9.011  0.3230 -0.6627 -1.1812
  565MOL0     H77957  10.129   7.837   9.228  0.6363 -0.4845 -0.9377
  565MOL0     H77958  10.332   8.214   9.395  2.0043 -2.2258 -1.7954
  565MOL0     H77959  10.245   8.210   9.241 -0.3038 -1.5770 -0.5280
  565MOL0     H77960  10.045   8.131   9.342  0.5113 -1.7946 -0.8235
  565MOL0     H77961  10.113   8.282   9.411  1.5365  0.2101  0.2737
  565MOL0     H77962  10.129   7.998   9.529 -0.8561 -0.3209  1.1689
  565MOL0     H77963  10.178   8.137   9.614 -0.2717 -2.5788  1.7151
  565MOL0     H77964   9.889   8.092   9.517  0.2046 -0.8937  0.3067
  565MOL0     H77965   9.956   8.248   9.571  1.9677 -0.0761  0.9891
  565MOL0     H77966   9.875   8.018   9.920 -0.6900  0.2068 -0.1686
  565MOL0     H77967  10.436   8.122   9.116  1.0304 -0.0645 -2.2614
  565MOL0     H77968  10.434   8.103   8.786  0.6056  0.2335  0.0422
  565MOL0     H77969  10.535   8.111   8.930 -0.4214 -2.5315  1.8349
  565MOL0     H77970  10.532   7.959   8.837 -1.3889 -2.2353  1.6751
  566MOL0     O77971  11.413  10.088  10.666  0.9836  0.4488 -0.0181
  566MOL0     C77972  11.365   9.973  10.674 -0.9122 -0.1936 -0.6662
  566MOL0     O77973  11.431   9.866  10.616  0.6287  0.1413 -0.6523
  566MOL0     C77974  11.550   9.889  10.548 -0.1726 -0.0988  0.4316
  566MOL0     C77975  11.653   9.957  10.603 -0.6886  0.8946  0.0383
  566MOL0     C77976  11.777   9.966  10.534 -0.2269 -0.5105  0.7252
  566MOL0     C77977  11.784   9.929  10.395 -0.3400  0.0843  0.6204
  566MOL0     O77978  11.903   9.969  10.328  0.4681 -0.2385  0.2299
  566MOL0     C77979  11.936   9.890  10.222 -0.4406  0.0233  0.0495
  566MOL0     C77980  12.060   9.947  10.163  0.1592 -0.1941 -0.1798
  566MOL0     C77981  12.117   9.887  10.032  0.5424 -0.6526 -0.6569
  566MOL0     C77982  12.236   9.968   9.984 -0.0053 -0.2201  0.5244
  566MOL0     C77983  12.359   9.902  10.035 -0.3180 -0.5103  0.0064
  566MOL0     C77984  12.395   9.775   9.961 -0.3190 -0.0816 -0.2684
  566MOL0     C77985  12.537   9.727   9.985  0.2489  0.0681 -0.4932
  566MOL0     C77986  12.547   9.669  10.127 -0.2251 -0.1173 -0.0547
  566MOL0     N77987  12.681   9.602  10.142  0.4095  0.1418  0.0553
  566MOL0     C77988  12.776   9.649  10.234  0.9020 -0.3195  1.0906
  566MOL0     C77989  12.881   9.562  10.208  0.2498 -0.3433 -0.4322
  566MOL0     C77990  13.012   9.552  10.283  0.1648 -0.6265 -1.1926
  566MOL0     C77991  13.136   9.505  10.198  0.6661  0.5050 -0.6988
  566MOL0     C77992  13.274   9.535  10.254  0.2403 -0.0741 -0.2467
  566MOL0     C77993  13.309   9.462  10.382 -0.1510  0.3623 -0.0452
  566MOL0     O77994  13.349   9.324  10.364  0.8449  0.0930 -0.6187
  566MOL0     C77995  13.370   9.247  10.483 -0.2549 -0.0539 -0.0526
  566MOL0     C77996  13.353   9.302  10.615 -0.0735 -0.0994  0.9153
  566MOL0     C77997  13.381   9.227  10.725 -0.4364  1.1613  0.0819
  566MOL0     C77998  13.380   9.294  10.861  0.4639  0.0379 -0.1220
  566MOL0     C77999  13.407   9.086  10.704 -0.0662 -0.4859  0.7033
  566MOL0     C78000  13.417   8.988  10.814 -0.1025 -0.2644 -0.3662
  566MOL0     O78001  13.483   8.875  10.793 -0.7342  0.4991  0.3683
  566MOL0     C78002  13.488   8.769  10.870 -1.2432  0.2018  0.3175
  566MOL0     C78003  13.523   8.651  10.801 -0.3921 -0.0589 -1.2068
  566MOL0     C78004  13.520   8.525  10.873  0.4798 -0.1512  0.7301
  566MOL0     C78005  13.461   8.510  10.997 -0.8568  0.7882 -0.6052
  566MOL0     O78006  13.447   8.385  11.067 -0.4897  0.3231  0.0186
  566MOL0     C78007  13.353   8.358  11.176 -0.2470 -0.0555 -0.2284
  566MOL0     C78008  13.359   8.206  11.228 -0.0911  0.8059 -0.0504
  566MOL0     C78009  13.492   8.182  11.307  0.8225 -0.0090 -0.3722
  566MOL0     C78010  13.494   8.031  11.355  0.1172  0.5224 -1.0673
  566MOL0     C78011  13.639   7.992  11.376  0.2191 -0.9000 -0.2553
  566MOL0     C78012  13.643   7.843  11.402 -0.6677  0.7449 -0.2534
  566MOL0     C78013  13.582   7.799  11.545 -0.3615 -0.1703  0.7526
  566MOL0     C78014  13.590   7.648  11.570  0.7734  0.1845 -0.4376
  566MOL0    Cl78015  13.535   7.565  11.425  0.3558 -0.2686  0.1048
  566MOL0     C78016  13.416   8.631  11.058 -0.4029 -0.2211 -0.0849
  566MOL0     C78017  13.438   8.757  11.005 -0.8518  0.5553 -0.2426
  566MOL0     O78018  13.344   9.013  10.911 -0.4555  0.3382  0.1141
  566MOL0     C78019  13.419   9.037  10.571 -0.0980  0.3188  0.5226
  566MOL0     C78020  13.408   9.119  10.463 -0.3046 -0.6535  0.1913
  566MOL0     N78021  12.854   9.471  10.109  0.3475  0.0002 -0.3168
  566MOL0     N78022  12.735   9.496  10.070  0.3305 -0.4192  1.3086
  566MOL0     C78023  11.685   9.849  10.344  0.3253 -0.1006  0.2701
  566MOL0     C78024  11.573   9.821  10.424  0.0247 -0.1186 -0.6520
  566MOL0     C78025  11.241   9.959  10.747  0.0067  0.3011  0.7287
  566MOL0     C78026  11.151   9.856  10.698 -0.3921  0.3984 -0.2996
  566MOL0     C78027  11.022   9.850  10.759 -0.6775 -0.5358  0.2206
  566MOL0     C78028  10.963   9.940  10.839  0.1010 -0.4816  0.0407
  566MOL0     O78029  10.828   9.939  10.870  1.2896 -0.7073 -0.1034
  566MOL0     C78030  10.728   9.951  10.767 -0.1999 -0.4889  0.1214
  566MOL0     C78031  10.586   9.973  10.815  0.8128  0.4592 -0.5846
  566MOL0     C78032  10.508  10.056  10.713  0.4563 -0.0385  0.3416
  566MOL0     C78033  10.501   9.980  10.583  0.6235 -0.2149  0.6650
  566MOL0     C78034  10.396  10.034  10.495 -0.2758  0.7087 -0.2163
  566MOL0     C78035  10.305  10.078  10.427 -0.4171  0.4144  0.3947
  566MOL0     C78036  11.055  10.029  10.895 -0.0134  0.2584 -0.5342
  566MOL0     C78037  11.190  10.043  10.851 -0.0464  0.0487  0.0112
  566MOL0     C78038  11.270  10.157  10.917 -0.3419  0.7901 -0.0959
  566MOL0     H78039  11.650   9.996  10.704  2.0680  0.5667  0.3398
  566MOL0     H78040  11.863  10.014  10.580 -0.1184  0.6383 -0.5969
  566MOL0     H78041  11.864   9.888  10.139  0.2593 -2.8324 -0.5944
  566MOL0     H78042  11.953   9.784  10.240 -1.2730 -0.6250 -2.5655
  566MOL0     H78043  12.029  10.049  10.137  2.0150  0.4270 -0.0911
  566MOL0     H78044  12.144   9.961  10.232 -0.2196  0.9383  0.0755
  566MOL0     H78045  12.139   9.781  10.045 -2.3097 -1.2526 -0.2844
  566MOL0     H78046  12.034   9.889   9.962  1.7960  3.2028 -2.2872
  566MOL0     H78047  12.237   9.958   9.875 -0.1925  3.3508  0.0920
  566MOL0     H78048  12.215  10.070  10.018 -2.0498 -0.4136 -0.0429
  566MOL0     H78049  12.360   9.898  10.145  0.9873  2.3693  0.1845
  566MOL0     H78050  12.445   9.965  10.013  2.4969 -3.2274  2.1842
  566MOL0     H78051  12.331   9.694   9.995 -1.9312  0.4053 -2.0201
  566MOL0     H78052  12.382   9.783   9.853  0.5998  0.8932 -0.3270
  566MOL0     H78053  12.607   9.810   9.970 -0.6078  0.9906  0.4525
  566MOL0     H78054  12.566   9.652   9.911 -2.9736 -1.5863 -0.2495
  566MOL0     H78055  12.540   9.750  10.201  1.5976 -0.6668  0.7763
  566MOL0     H78056  12.467   9.597  10.151  0.6785 -0.2763  2.9283
  566MOL0     H78057  12.774   9.734  10.302 -1.2183  1.2200 -0.7749
  566MOL0     H78058  13.005   9.489  10.372  0.1890 -3.2790 -2.9191
  566MOL0     H78059  13.031   9.655  10.311 -1.7130 -0.3785 -0.6650
  566MOL0     H78060  13.123   9.397  10.190 -0.5854  0.7464 -2.6441
  566MOL0     H78061  13.125   9.555  10.101 -1.9892  0.5127 -0.4743
  566MOL0     H78062  13.351   9.499  10.185  2.0910  1.3422  0.9982
  566MOL0     H78063  13.286   9.643  10.268  0.7610 -0.0246 -1.0603
  566MOL0     H78064  13.377   9.528  10.437 -2.8926  4.3208 -0.9619
  566MOL0     H78065  13.223   9.453  10.450 -0.1971  3.0209  0.3570
  566MOL0     H78066  13.335   9.404  10.645 -0.5563 -0.3537  1.5036
  566MOL0     H78067  13.283   9.276  10.907  1.2545 -1.0846  1.1966
  566MOL0     H78068  13.393   9.402  10.846  2.0156 -0.1405 -0.2254
  566MOL0     H78069  13.452   9.261  10.936  1.2340  0.5233 -0.6210
  566MOL0     H78070  13.556   8.644  10.698 -0.1748 -1.8122 -1.0523
  566MOL0     H78071  13.588   8.445  10.844  1.8803  0.5736  1.8626
  566MOL0     H78072  13.356   8.426  11.261  0.5414  3.4832 -2.8291
  566MOL0     H78073  13.249   8.363  11.145 -0.3430 -2.5710 -0.5687
  566MOL0     H78074  13.271   8.191  11.291 -1.0545  1.0319 -1.3023
  566MOL0     H78075  13.348   8.132  11.148 -0.2663  1.0744 -0.2759
  566MOL0     H78076  13.495   8.242  11.398 -0.0781 -1.2909  0.5422
  566MOL0     H78077  13.582   8.202  11.247  0.4590  3.4171  0.0356
  566MOL0     H78078  13.448   7.973  11.275  2.2308 -0.0244 -1.9685
  566MOL0     H78079  13.436   8.020  11.447  1.0572 -1.9356 -0.7065
  566MOL0     H78080  13.700   8.015  11.288  0.6862 -2.6509 -0.4224
  566MOL0     H78081  13.673   8.057  11.457  0.8565 -1.6410  0.0950
  566MOL0     H78082  13.746   7.805  11.399 -0.6358  0.8774 -1.9835
  566MOL0     H78083  13.597   7.789  11.319 -3.4054 -0.4359  1.8681
  566MOL0     H78084  13.479   7.837  11.551 -1.3026 -1.5618 -3.4780
  566MOL0     H78085  13.650   7.843  11.619  1.4811  0.2656 -1.1218
  566MOL0     H78086  13.525   7.630  11.656 -0.5150 -0.6982 -1.5524
  566MOL0     H78087  13.690   7.609  11.587  0.6605 -0.6527 -1.5994
  566MOL0     H78088  13.371   8.623  11.156  1.1459 -2.4095  0.5199
  566MOL0     H78089  13.414   8.847  11.060 -2.7882  1.5540 -2.5195
  566MOL0     H78090  13.460   8.941  10.540  0.0037  0.8209 -0.9420
  566MOL0     H78091  13.418   9.083  10.361  0.9065 -2.5399  0.9248
  566MOL0     H78092  11.673   9.809  10.244 -1.6783 -1.7285  1.0757
  566MOL0     H78093  11.501   9.746  10.392  0.2099 -0.4283 -0.3456
  566MOL0     H78094  11.182   9.776  10.632  3.1352  1.2900  0.0732
  566MOL0     H78095  10.955   9.777  10.715 -0.7816  0.5442 -1.4890
  566MOL0     H78096  10.765  10.022  10.693  2.5026  0.2504  2.0240
  566MOL0     H78097  10.729   9.851  10.721  4.0069 -1.3554  1.5907
  566MOL0     H78098  10.570  10.032  10.905 -2.1058 -0.2299 -0.5189
  566MOL0     H78099  10.538   9.876  10.830  0.9735  0.6328  1.1855
  566MOL0     H78100  10.411  10.070  10.762  0.1262 -0.2204 -0.2559
  566MOL0     H78101  10.549  10.156  10.699 -2.4798  0.9455 -2.6321
  566MOL0     H78102  10.470   9.881  10.618  0.4974 -0.8399 -1.0877
  566MOL0     H78103  10.597   9.981  10.531  0.9945  0.5167  1.3559
  566MOL0     H78104  10.237  10.107  10.350 -0.2173  0.2585  0.1558
  566MOL0     H78105  11.012  10.102  10.963 -0.4833 -0.7203  0.2449
  566MOL0     H78106  11.260  10.242  10.849 -1.3592 -0.8002 -2.0475
  566MOL0     H78107  11.229  10.174  11.017 -0.0332 -2.3002  0.6883
  566MOL0     H78108  11.375  10.129  10.927 -0.3055 -0.8071 -3.5434
  567MOL0     O78109   5.982  10.348   8.644 -0.7736  0.0802  0.1338
  567MOL0     C78110   6.043  10.434   8.702  0.9026  0.3903 -0.2494
  567MOL0     O78111   5.992  10.565   8.721 -0.8434 -0.2758 -0.6084
  567MOL0     C78112   5.867  10.595   8.680  1.3357  0.1584 -0.3655
  567MOL0     C78113   5.847  10.709   8.590  0.2392 -0.2647 -0.2973
  567MOL0     C78114   5.711  10.738   8.565  0.8144 -0.3630 -0.9809
  567MOL0     C78115   5.599  10.674   8.622 -0.8649  0.5448  0.3163
  567MOL0     O78116   5.474  10.725   8.607 -0.0794  0.1289 -0.1949
  567MOL0     C78117   5.441  10.867   8.602 -0.3947 -0.0833 -0.4955
  567MOL0     C78118   5.403  10.900   8.459 -1.1741 -0.3892 -0.1016
  567MOL0     C78119   5.353  11.046   8.447 -0.3409 -0.0600  0.2537
  567MOL0     C78120   5.201  11.055   8.432 -0.9153 -0.5752  1.0180
  567MOL0     C78121   5.126  11.057   8.567 -0.2352 -0.1959 -0.5028
  567MOL0     C78122   5.109  11.198   8.610  0.6346 -0.0069 -0.0870
  567MOL0     C78123   5.022  11.193   8.733 -0.2069 -0.4187 -0.6903
  567MOL0     C78124   5.012  11.339   8.792 -0.6009  0.9825  0.3722
  567MOL0     N78125   4.921  11.338   8.915 -0.4778  0.3706  0.4859
  567MOL0     C78126   4.787  11.361   8.937 -0.4291  0.0350  0.2791
  567MOL0     C78127   4.773  11.353   9.071  0.2111  0.9906 -0.5122
  567MOL0     C78128   4.644  11.369   9.145  0.1139  0.0369 -0.1565
  567MOL0     C78129   4.566  11.501   9.095  0.2204  0.6425  0.3690
  567MOL0     C78130   4.634  11.634   9.125 -0.6099  0.0827  0.2005
  567MOL0     C78131   4.700  11.657   9.266  0.0504  0.3771  0.1346
  567MOL0     O78132   4.593  11.650   9.358 -0.2962 -0.4860  0.4647
  567MOL0     C78133   4.567  11.776   9.411  0.2989 -0.2109 -0.1380
  567MOL0     C78134   4.439  11.834   9.398 -0.1645 -0.0539  0.2039
  567MOL0     C78135   4.406  11.955   9.460 -0.4065 -1.1747 -0.6246
  567MOL0     C78136   4.275  12.003   9.430  0.8196 -0.7621  0.1097
  567MOL0     C78137   4.501  12.013   9.549 -0.1155 -0.1867  0.2239
  567MOL0     C78138   4.473  12.123   9.628  0.1391 -0.8078  0.2144
  567MOL0     O78139   4.569  12.216   9.651 -0.4685 -0.0133 -0.3039
  567MOL0     C78140   4.578  12.305   9.759 -0.8237 -0.1866  0.4312
  567MOL0     C78141   4.670  12.408   9.760  0.0718 -0.7404 -0.3656
  567MOL0     C78142   4.682  12.503   9.863 -0.7941 -0.5685  0.0637
  567MOL0     C78143   4.623  12.483   9.985 -0.2198  0.4502  0.6120
  567MOL0     O78144   4.662  12.562  10.097 -0.1438  0.0004 -0.4309
  567MOL0     C78145   4.622  12.524  10.231  1.4135 -0.5048 -0.8668
  567MOL0     C78146   4.569  12.642  10.321 -0.0143 -0.1545  0.9742
  567MOL0     C78147   4.644  12.771  10.306 -0.1160  0.1397  1.0742
  567MOL0     C78148   4.636  12.869  10.421 -0.9866 -1.0121 -0.8646
  567MOL0     C78149   4.697  13.004  10.383  0.1816 -0.6259  0.1558
  567MOL0     C78150   4.722  13.081  10.513  0.1192 -0.0267 -0.1302
  567MOL0     C78151   4.792  13.216  10.490 -0.5206 -0.3174  0.5578
  567MOL0     C78152   4.765  13.303  10.614  0.3405 -0.0957 -0.2223
  567MOL0    Cl78153   4.782  13.215  10.769  0.1156  0.4330  0.3437
  567MOL0     C78154   4.535  12.377   9.993  0.2836  0.1575  0.6397
  567MOL0     C78155   4.524  12.278   9.889 -0.5943 -0.0225 -0.1578
  567MOL0     O78156   4.369  12.121   9.685  0.4168  0.2548  0.2558
  567MOL0     C78157   4.628  11.958   9.552  0.7267 -1.0458  0.7115
  567MOL0     C78158   4.664  11.836   9.492  0.3156 -0.4496 -0.5306
  567MOL0     N78159   4.893  11.326   9.132 -0.4000  0.3210 -0.0314
  567MOL0     N78160   4.979  11.332   9.042 -0.4198 -0.4414 -0.6749
  567MOL0     C78161   5.622  10.548   8.692  0.1717  0.0865 -0.3569
  567MOL0     C78162   5.756  10.522   8.734 -0.5397 -0.0420 -0.5953
  567MOL0     C78163   6.177  10.402   8.751 -0.2008 -0.3981  0.1648
  567MOL0     C78164   6.211  10.475   8.867  0.5407 -0.0028 -0.1176
  567MOL0     C78165   6.337  10.475   8.916 -0.4532 -0.4190  0.8225
  567MOL0     C78166   6.437  10.388   8.855  0.6022 -0.2960  0.6923
  567MOL0     O78167   6.556  10.373   8.922  0.5556  0.0831  0.3328
  567MOL0     C78168   6.662  10.314   8.860 -0.6507 -0.1602 -1.0167
  567MOL0     C78169   6.808  10.338   8.930  0.0856  0.2003 -0.6310
  567MOL0     C78170   6.803  10.255   9.057  0.7573 -0.2252 -0.0244
  567MOL0     C78171   6.946  10.244   9.119 -0.4695 -0.5745 -0.2297
  567MOL0     C78172   6.944  10.167   9.243  0.5634  0.8859 -0.2143
  567MOL0     C78173   6.933  10.103   9.345  0.0247  0.0027  0.2275
  567MOL0     C78174   6.402  10.318   8.739  0.4196 -0.0018 -0.2015
  567MOL0     C78175   6.279  10.333   8.675  0.5515 -0.2158 -0.6824
  567MOL0     C78176   6.278  10.282   8.537 -0.0848  0.7355  1.2875
  567MOL0     H78177   5.924  10.777   8.557 -2.5959  1.2902 -4.5558
  567MOL0     H78178   5.710  10.826   8.501 -1.4837 -0.4755 -1.1954
  567MOL0     H78179   5.532  10.918   8.634  0.3965 -0.5761 -1.8455
  567MOL0     H78180   5.358  10.890   8.668  0.9253  1.3606  0.7186
  567MOL0     H78181   5.486  10.897   8.388  2.2884  2.7736  3.3091
  567MOL0     H78182   5.330  10.829   8.419  0.5997 -2.1394 -0.4570
  567MOL0     H78183   5.383  11.070   8.550 -0.2605 -2.2376  0.7703
  567MOL0     H78184   5.414  11.091   8.368 -1.1381  2.0189  0.7542
  567MOL0     H78185   5.190  11.155   8.389  0.8885 -0.9594 -0.4756
  567MOL0     H78186   5.161  10.973   8.371 -5.2345  1.5628  0.5823
  567MOL0     H78187   5.176  11.003   8.648 -0.6377  1.0185  0.5725
  567MOL0     H78188   5.027  11.012   8.551 -0.4031  0.8524 -2.8062
  567MOL0     H78189   5.205  11.247   8.631  0.2689  1.1246 -0.9637
  567MOL0     H78190   5.055  11.262   8.541  1.4764  1.5867  0.6717
  567MOL0     H78191   5.056  11.130   8.816 -1.7402 -0.0275  0.2939
  567MOL0     H78192   4.923  11.160   8.701  0.0146  0.1968 -2.0858
  567MOL0     H78193   5.109  11.377   8.826 -0.8548  2.8704 -0.8652
  567MOL0     H78194   4.973  11.413   8.722 -0.8570 -0.0815 -0.6305
  567MOL0     H78195   4.703  11.369   8.868 -0.2856 -1.1128 -0.0464
  567MOL0     H78196   4.667  11.368   9.252 -0.1244  1.0421 -0.0800
  567MOL0     H78197   4.592  11.277   9.119  1.6003 -0.9368  0.1855
  567MOL0     H78198   4.529  11.505   8.992 -2.5637 -2.2665  1.0900
  567MOL0     H78199   4.479  11.504   9.162  0.5155 -0.0666  0.7909
  567MOL0     H78200   4.713  11.642   9.050 -0.1219 -2.2498  0.3803
  567MOL0     H78201   4.556  11.708   9.105 -2.0042 -1.0718  1.1054
  567MOL0     H78202   4.780  11.587   9.291 -2.0876 -2.4135 -0.3593
  567MOL0     H78203   4.742  11.758   9.266 -0.0971  0.6097  3.9017
  567MOL0     H78204   4.366  11.791   9.331  0.8551  1.4283 -1.9684
  567MOL0     H78205   4.212  11.974   9.514  0.2127 -1.3817 -0.5398
  567MOL0     H78206   4.214  11.952   9.355 -1.1785 -1.7501  2.2962
  567MOL0     H78207   4.268  12.111   9.415 -1.0991 -1.1111 -2.1036
  567MOL0     H78208   4.722  12.436   9.669 -2.3973 -1.6320 -2.1845
  567MOL0     H78209   4.764  12.574   9.862  1.6625 -3.0455  2.7094
  567MOL0     H78210   4.545  12.447  10.236 -1.1030  1.9119  3.0094
  567MOL0     H78211   4.706  12.476  10.283  1.6540 -0.5954 -1.3334
  567MOL0     H78212   4.466  12.652  10.285  0.0809  0.2292  0.8057
  567MOL0     H78213   4.564  12.606  10.424 -1.2314 -0.4617  0.8227
  567MOL0     H78214   4.618  12.813  10.208 -0.3611 -2.9640 -0.2838
  567MOL0     H78215   4.750  12.748  10.296  0.5176  2.8137  0.6710
  567MOL0     H78216   4.689  12.834  10.510  0.1793  0.0123 -1.1316
  567MOL0     H78217   4.531  12.866  10.450 -1.2827  2.9366 -1.0262
  567MOL0     H78218   4.782  12.981  10.318  0.7425 -0.3157  0.7725
  567MOL0     H78219   4.628  13.069  10.327 -1.5209 -2.2145  0.3228
  567MOL0     H78220   4.770  13.014  10.585 -4.8106 -2.2196  1.5915
  567MOL0     H78221   4.624  13.107  10.554 -0.4507  1.1660 -2.1380
  567MOL0     H78222   4.741  13.263  10.406 -1.9758  2.2671  2.7344
  567MOL0     H78223   4.896  13.193  10.466 -1.7973 -3.7202 -2.7500
  567MOL0     H78224   4.662  13.338  10.604  0.4185 -0.1748 -1.5079
  567MOL0     H78225   4.830  13.391  10.614  0.2030  0.1156  2.8606
  567MOL0     H78226   4.474  12.360  10.081  0.7327 -0.1964  0.8825
  567MOL0     H78227   4.466  12.188   9.906 -0.2640 -0.0824  0.6886
  567MOL0     H78228   4.707  11.993   9.617  1.8503 -2.9640  0.4319
  567MOL0     H78229   4.764  11.795   9.504 -0.3545 -1.5778  1.7919
  567MOL0     H78230   5.539  10.483   8.719  0.6093  0.9089  3.4681
  567MOL0     H78231   5.775  10.428   8.785  1.2944 -0.2310 -1.5529
  567MOL0     H78232   6.135  10.534   8.917 -1.5448 -1.9019 -0.8890
  567MOL0     H78233   6.367  10.547   8.992 -2.3303  5.2151 -3.0673
  567MOL0     H78234   6.644  10.208   8.841 -0.1236 -1.1517  3.0376
  567MOL0     H78235   6.681  10.370   8.769 -0.1851  2.0422  0.3575
  567MOL0     H78236   6.821  10.444   8.953 -1.7783  0.5199 -0.9080
  567MOL0     H78237   6.896  10.298   8.879  0.4363  1.2037 -0.8325
  567MOL0     H78238   6.737  10.297   9.134  4.0204  0.8536  2.4596
  567MOL0     H78239   6.774  10.150   9.042  1.7182 -0.9099  2.3006
  567MOL0     H78240   6.974  10.348   9.141  0.9862 -0.8694 -0.5561
  567MOL0     H78241   7.023  10.204   9.051  1.7276 -2.0192  2.8765
  567MOL0     H78242   6.913  10.037   9.428  0.5473  1.1003  1.2541
  567MOL0     H78243   6.487  10.263   8.700  1.2792 -1.8064  3.7116
  567MOL0     H78244   6.357  10.331   8.480 -0.8378 -0.9892 -1.4276
  567MOL0     H78245   6.302  10.176   8.531  2.0626  1.2409 -0.2786
  567MOL0     H78246   6.180  10.306   8.494  1.2664  2.9452 -0.8309
  568MOL0     O78247   2.166   7.612   6.017  0.5563 -0.8234 -0.8326
  568MOL0     C78248   2.098   7.717   5.997 -0.1243 -0.1603 -1.0264
  568MOL0     O78249   2.124   7.844   6.054  0.6030 -0.4911  0.3185
  568MOL0     C78250   2.230   7.855   6.138 -0.1303 -0.6292 -0.2224
  568MOL0     C78251   2.300   7.976   6.131  0.9846 -0.1029  0.0224
  568MOL0     C78252   2.407   8.006   6.220  0.6038 -0.4902  0.0534
  568MOL0     C78253   2.445   7.915   6.316 -0.2553 -0.0434  0.5478
  568MOL0     O78254   2.540   7.935   6.414 -0.1576 -0.0498  0.4929
  568MOL0     C78255   2.590   8.067   6.431  0.3599  0.0495 -0.6098
  568MOL0     C78256   2.486   8.153   6.503 -0.7942  0.1106  0.1609
  568MOL0     C78257   2.537   8.267   6.597 -0.2210  0.0064 -0.2132
  568MOL0     C78258   2.622   8.214   6.719  0.0227 -0.7093  0.3015
  568MOL0     C78259   2.686   8.329   6.815  1.5148 -0.4468 -0.3470
  568MOL0     C78260   2.768   8.269   6.934 -0.6471 -1.3763  0.2664
  568MOL0     C78261   2.897   8.215   6.877  0.1825  0.3329  0.2107
  568MOL0     C78262   2.997   8.209   6.992 -0.5355  0.5815  0.9852
  568MOL0     N78263   3.125   8.158   6.940 -0.0921  0.6782 -0.8808
  568MOL0     C78264   3.201   8.224   6.845  0.2938  0.2131  0.4914
  568MOL0     C78265   3.298   8.135   6.819 -0.4237 -0.1888  0.3257
  568MOL0     C78266   3.401   8.161   6.709  0.9157 -0.7116 -0.4524
  568MOL0     C78267   3.363   8.209   6.565 -0.2331  0.4464 -0.3367
  568MOL0     C78268   3.287   8.116   6.470 -0.8785  0.3977 -0.5237
  568MOL0     C78269   3.353   7.983   6.465  0.6447 -0.4134 -0.2081
  568MOL0     O78270   3.284   7.922   6.353  0.4370  0.3470 -0.2542
  568MOL0     C78271   3.309   7.967   6.222 -0.1249  1.1907 -0.2322
  568MOL0     C78272   3.417   8.046   6.184  0.4438  0.4658  0.4534
  568MOL0     C78273   3.430   8.070   6.044  0.1969 -0.0617 -0.0923
  568MOL0     C78274   3.557   8.147   6.003 -0.2951  0.1362  0.2017
  568MOL0     C78275   3.338   8.023   5.945  0.2275 -0.2676  0.2585
  568MOL0     C78276   3.340   8.055   5.801 -0.6095 -1.2053  0.9760
  568MOL0     O78277   3.223   8.024   5.734 -0.4389 -0.7291  0.1354
  568MOL0     C78278   3.229   8.041   5.597  0.3019  0.0581 -0.6850
  568MOL0     C78279   3.220   8.168   5.542  0.2292 -0.8400 -0.9428
  568MOL0     C78280   3.216   8.201   5.407  1.0516  0.7612  1.0463
  568MOL0     C78281   3.234   8.086   5.323 -0.1259  0.1979  0.2162
  568MOL0     O78282   3.241   8.121   5.192  0.0918  0.4434  0.2572
  568MOL0     C78283   3.310   8.031   5.095 -0.3591 -0.5876  0.7903
  568MOL0     C78284   3.360   8.110   4.974 -0.0517 -0.0010 -0.0119
  568MOL0     C78285   3.489   8.047   4.909  0.3168  0.9430 -0.4692
  568MOL0     C78286   3.548   8.146   4.809  0.7986 -0.6876 -0.0480
  568MOL0     C78287   3.685   8.097   4.756  0.2820 -0.3109  0.0387
  568MOL0     C78288   3.667   7.957   4.683  0.0072 -0.3964 -0.3344
  568MOL0     C78289   3.808   7.915   4.612 -0.2074  0.0412 -0.7256
  568MOL0     C78290   3.783   7.781   4.545 -0.0392  0.1009 -0.1531
  568MOL0    Cl78291   3.776   7.657   4.670  0.2893 -0.0812 -0.1119
  568MOL0     C78292   3.250   7.956   5.376  0.1578  0.5101 -0.3150
  568MOL0     C78293   3.244   7.932   5.517  0.5631 -0.9359 -0.8951
  568MOL0     O78294   3.442   8.094   5.743 -0.3310  0.1430  0.0308
  568MOL0     C78295   3.221   7.968   5.996  0.7672  0.4934 -0.1054
  568MOL0     C78296   3.214   7.926   6.135  0.4264 -0.4998 -0.6239
  568MOL0     N78297   3.288   8.031   6.904 -1.2685  0.4856  0.2847
  568MOL0     N78298   3.181   8.036   6.968  0.4260  0.0820 -0.3311
  568MOL0     C78299   2.384   7.791   6.320  0.3640 -0.2453  0.4470
  568MOL0     C78300   2.276   7.769   6.233 -0.5170 -0.4303  0.5644
  568MOL0     C78301   1.976   7.704   5.918 -0.4446 -0.8793 -0.3182
  568MOL0     C78302   1.978   7.618   5.806  0.6359 -0.4644 -0.3933
  568MOL0     C78303   1.877   7.624   5.706 -0.5135 -0.0473  0.2601
  568MOL0     C78304   1.765   7.704   5.716 -0.0107  0.6713  0.5185
  568MOL0     O78305   1.673   7.729   5.616 -0.0794  1.0260 -0.0125
  568MOL0     C78306   1.585   7.625   5.609 -0.3926  0.1607  0.1557
  568MOL0     C78307   1.466   7.662   5.547 -0.5038 -1.1020 -0.0472
  568MOL0     C78308   1.389   7.548   5.487  0.7523  0.8731 -1.3561
  568MOL0     C78309   1.246   7.593   5.453  0.7322  0.3099 -0.6979
  568MOL0     C78310   1.177   7.486   5.376  0.4212 -1.1140  0.5545
  568MOL0     C78311   1.122   7.403   5.318 -1.1631  0.6072  0.8721
  568MOL0     C78312   1.748   7.768   5.838  1.0271 -0.0566  0.2842
  568MOL0     C78313   1.847   7.765   5.937  0.4359  0.5002 -1.0619
  568MOL0     C78314   1.821   7.825   6.079  0.2223  0.1275  0.6838
  568MOL0     H78315   2.248   8.044   6.064 -1.9606 -0.8584  1.3645
  568MOL0     H78316   2.437   8.109   6.201 -0.9357 -0.0827 -0.3114
  568MOL0     H78317   2.616   8.116   6.337 -2.3820  2.7841 -0.0800
  568MOL0     H78318   2.680   8.057   6.492  0.4598  0.8808 -0.6179
  568MOL0     H78319   2.423   8.194   6.423 -1.6314  0.1342  0.8183
  568MOL0     H78320   2.413   8.092   6.557  0.9711 -0.7319  1.7247
  568MOL0     H78321   2.597   8.339   6.541  0.2805 -0.0151  0.2862
  568MOL0     H78322   2.450   8.318   6.639  0.9897 -0.2477  2.8245
  568MOL0     H78323   2.550   8.154   6.775 -0.8653  0.3976  0.3763
  568MOL0     H78324   2.698   8.145   6.680 -1.6933 -2.4316 -0.1609
  568MOL0     H78325   2.597   8.380   6.852  1.5328 -0.8239  0.2179
  568MOL0     H78326   2.753   8.401   6.767 -0.5631  1.9127  0.0943
  568MOL0     H78327   2.775   8.344   7.013 -3.0059 -1.3895  0.5591
  568MOL0     H78328   2.712   8.182   6.970  1.7305 -2.4155  1.6916
  568MOL0     H78329   2.940   8.268   6.792  0.7425 -2.8094 -1.5963
  568MOL0     H78330   2.874   8.113   6.844 -0.4668  0.4114  0.4042
  568MOL0     H78331   3.026   8.312   7.015  1.5806  0.7875 -2.0327
  568MOL0     H78332   2.967   8.141   7.073 -0.6983 -1.2821 -0.5544
  568MOL0     H78333   3.188   8.319   6.795 -0.6617 -0.9657 -1.6730
  568MOL0     H78334   3.466   8.073   6.713  1.6581 -0.1505  0.2921
  568MOL0     H78335   3.462   8.242   6.749 -0.5860 -0.4979  1.5556
  568MOL0     H78336   3.305   8.301   6.577 -2.5818 -0.9778 -0.1932
  568MOL0     H78337   3.460   8.239   6.524  0.0319  0.2668  0.1467
  568MOL0     H78338   3.182   8.107   6.496 -0.4251 -0.3363  1.2137
  568MOL0     H78339   3.288   8.164   6.371 -2.2045  1.4129 -0.0774
  568MOL0     H78340   3.459   8.005   6.447  0.4265  3.3602  1.9808
  568MOL0     H78341   3.349   7.920   6.554 -1.2779  0.8964  0.6865
  568MOL0     H78342   3.493   8.077   6.255  0.0034  3.4425 -0.2551
  568MOL0     H78343   3.627   8.175   6.082  3.2567 -0.4794 -2.4899
  568MOL0     H78344   3.522   8.243   5.966 -1.1954 -0.1634  0.2304
  568MOL0     H78345   3.618   8.098   5.927 -0.5467  2.1379 -1.3685
  568MOL0     H78346   3.218   8.247   5.616 -0.1105 -1.7873  0.0843
  568MOL0     H78347   3.201   8.305   5.378 -2.1491 -0.4649 -2.5632
  568MOL0     H78348   3.400   7.999   5.147  1.2313  2.2829  0.0415
  568MOL0     H78349   3.245   7.946   5.075  0.2586 -0.6294 -1.2875
  568MOL0     H78350   3.278   8.129   4.905  1.3794  1.2769 -1.4384
  568MOL0     H78351   3.389   8.210   5.007 -0.1537  0.3731 -1.0417
  568MOL0     H78352   3.459   7.948   4.874  0.5973  0.5749  0.3135
  568MOL0     H78353   3.555   8.037   4.995  0.8894 -2.4848 -1.1954
  568MOL0     H78354   3.552   8.243   4.858  2.3342 -0.2734 -0.9257
  568MOL0     H78355   3.482   8.155   4.723  0.5224 -2.1076 -0.0152
  568MOL0     H78356   3.722   8.172   4.686 -2.4026  0.5811 -0.5258
  568MOL0     H78357   3.748   8.089   4.845 -0.5769 -1.8369  0.5546
  568MOL0     H78358   3.579   7.965   4.618 -0.8667  1.1446  0.9638
  568MOL0     H78359   3.646   7.878   4.756  1.0837 -0.2601  0.1503
  568MOL0     H78360   3.895   7.912   4.678  0.9887 -1.3326 -2.2931
  568MOL0     H78361   3.844   7.976   4.529  1.8770 -0.8670 -0.5327
  568MOL0     H78362   3.868   7.744   4.487  0.1281 -3.2340  1.9265
  568MOL0     H78363   3.699   7.789   4.476  1.7804 -1.2850 -2.6999
  568MOL0     H78364   3.268   7.878   5.303  1.7120  0.0241  0.5485
  568MOL0     H78365   3.269   7.835   5.560  0.3853  0.3324  2.3591
  568MOL0     H78366   3.134   7.950   5.933  1.8643 -0.0772 -1.5158
  568MOL0     H78367   3.126   7.873   6.171  0.4870 -0.5179 -0.5025
  568MOL0     H78368   2.424   7.707   6.376  2.2311 -0.8695 -1.6742
  568MOL0     H78369   2.237   7.670   6.252  0.1908 -0.5784  1.2949
  568MOL0     H78370   2.068   7.558   5.790  1.3714  0.5488 -0.1302
  568MOL0     H78371   1.891   7.578   5.608 -2.3826 -1.7728  0.7260
  568MOL0     H78372   1.625   7.542   5.550 -1.0672 -0.4966  0.5892
  568MOL0     H78373   1.557   7.596   5.711 -1.3899  1.2718  0.2200
  568MOL0     H78374   1.485   7.724   5.459  1.6002 -2.1560 -0.4143
  568MOL0     H78375   1.420   7.721   5.627 -2.9526 -3.0106  0.0626
  568MOL0     H78376   1.425   7.515   5.390 -2.9355 -1.6290 -2.0870
  568MOL0     H78377   1.390   7.467   5.560  1.2509  0.7330 -1.5159
  568MOL0     H78378   1.254   7.674   5.379 -1.4036  1.0803 -0.1476
  568MOL0     H78379   1.193   7.626   5.542  0.4252  1.3412 -1.2377
  568MOL0     H78380   1.074   7.331   5.255  0.3226  0.6728 -0.3950
  568MOL0     H78381   1.655   7.822   5.852 -0.8759 -2.4765 -2.1282
  568MOL0     H78382   1.849   7.755   6.158  2.3783  1.0827  0.8649
  568MOL0     H78383   1.888   7.912   6.090 -1.3585  1.2528  1.9834
  568MOL0     H78384   1.722   7.871   6.089  0.0045 -0.6739  2.4928
  569MOL0     O78385   2.584   3.797   8.117 -0.0996  0.0101  0.4343
  569MOL0     C78386   2.577   3.686   8.171 -1.4447  0.6473 -0.5518
  569MOL0     O78387   2.685   3.591   8.177 -0.2265  0.0280  0.3243
  569MOL0     C78388   2.807   3.627   8.127 -0.5446 -0.8736 -0.0121
  569MOL0     C78389   2.832   3.712   8.017 -1.0708  0.4708 -0.3335
  569MOL0     C78390   2.961   3.723   7.960  0.5734  0.0835 -0.0571
  569MOL0     C78391   3.070   3.666   8.026 -0.4392  0.5832  0.5118
  569MOL0     O78392   3.194   3.678   7.970 -0.0118 -0.2116 -0.3653
  569MOL0     C78393   3.276   3.771   8.043 -1.3394  0.1539  0.6397
  569MOL0     C78394   3.236   3.911   8.017  0.1838  0.9465  0.3901
  569MOL0     C78395   3.305   4.005   8.117 -0.7758  0.0980  0.5245
  569MOL0     C78396   3.266   4.140   8.097  0.3364  0.0630  0.4704
  569MOL0     C78397   3.300   4.234   8.218  0.2663 -0.2910  0.5897
  569MOL0     C78398   3.440   4.286   8.201 -0.0412 -0.4372  0.1407
  569MOL0     C78399   3.465   4.416   8.281 -0.2979  0.4853  0.5103
  569MOL0     C78400   3.610   4.441   8.312  0.2941  0.4773  0.2791
  569MOL0     N78401   3.633   4.584   8.362 -0.7882  0.2260 -0.2576
  569MOL0     C78402   3.633   4.703   8.282 -0.5438  0.1097  0.7067
  569MOL0     C78403   3.684   4.796   8.365  0.1249 -0.7043  0.1937
  569MOL0     C78404   3.703   4.940   8.339  0.4767 -0.2932 -0.5754
  569MOL0     C78405   3.761   5.021   8.450  0.1409 -0.1031 -0.5330
  569MOL0     C78406   3.651   5.077   8.542  0.2443 -0.5086 -0.2275
  569MOL0     C78407   3.712   5.140   8.672 -0.2287 -0.6766 -0.3805
  569MOL0     O78408   3.606   5.227   8.723 -0.2254  0.3102 -0.1294
  569MOL0     C78409   3.636   5.309   8.824 -0.3222 -0.2189 -0.5072
  569MOL0     C78410   3.769   5.332   8.864 -0.9010 -1.0161 -0.5995
  569MOL0     C78411   3.799   5.421   8.965 -0.0187  0.1508  0.1789
  569MOL0     C78412   3.944   5.431   9.001 -0.0409 -0.1606  0.3539
  569MOL0     C78413   3.694   5.481   9.043 -0.7993 -0.2473 -1.1130
  569MOL0     C78414   3.713   5.566   9.167 -0.0678  0.1343 -0.7851
  569MOL0     O78415   3.604   5.641   9.203 -0.7529 -0.2087 -0.4164
  569MOL0     C78416   3.607   5.719   9.313  0.4477 -0.4404  0.7798
  569MOL0     C78417   3.712   5.806   9.346 -0.1561 -0.1831  0.7400
  569MOL0     C78418   3.696   5.910   9.431 -0.2666 -0.2331 -0.3945
  569MOL0     C78419   3.570   5.931   9.492 -0.0356  0.1296  0.2438
  569MOL0     O78420   3.534   6.028   9.587 -0.3219  0.0425  0.4476
  569MOL0     C78421   3.639   6.113   9.647  0.8916  0.7670 -0.0805
  569MOL0     C78422   3.646   6.247   9.576 -0.1608 -0.1928 -0.4167
  569MOL0     C78423   3.789   6.298   9.587 -0.3552 -1.0584  0.2642
  569MOL0     C78424   3.799   6.427   9.505  0.5307  0.2471  0.5476
  569MOL0     C78425   3.918   6.512   9.557 -0.1575  0.5072  0.1879
  569MOL0     C78426   3.939   6.638   9.479  1.3214  1.1362 -0.2563
  569MOL0     C78427   3.802   6.705   9.451  0.4502 -0.1698 -0.0226
  569MOL0     C78428   3.824   6.850   9.421  0.8593 -0.1064 -0.4854
  569MOL0    Cl78429   3.899   6.869   9.258 -0.4171 -0.0513  0.0782
  569MOL0     C78430   3.464   5.835   9.463 -0.5610  0.1789  0.4150
  569MOL0     C78431   3.486   5.723   9.381 -0.1256 -0.0274  0.9539
  569MOL0     O78432   3.808   5.549   9.237 -0.7098 -0.2274 -0.1831
  569MOL0     C78433   3.557   5.456   9.001 -0.2245  0.0467 -0.2458
  569MOL0     C78434   3.537   5.377   8.886 -0.7143  0.8116 -1.0159
  569MOL0     N78435   3.710   4.746   8.489 -0.1764 -0.5962  0.0042
  569MOL0     N78436   3.680   4.622   8.485  0.5578  0.5266 -0.1550
  569MOL0     C78437   3.038   3.578   8.133  0.1313 -0.4753 -0.2285
  569MOL0     C78438   2.914   3.560   8.191  0.3065 -0.6527  0.1781
  569MOL0     C78439   2.453   3.657   8.249 -0.1793 -0.4334 -0.1389
  569MOL0     C78440   2.362   3.768   8.271 -0.2316 -0.0658 -0.4679
  569MOL0     C78441   2.247   3.750   8.344  0.3879 -0.3191 -0.1459
  569MOL0     C78442   2.213   3.629   8.399 -0.1534 -0.0376 -0.6353
  569MOL0     O78443   2.116   3.604   8.491  0.1487 -0.2540 -0.2598
  569MOL0     C78444   2.034   3.713   8.544 -0.7447  0.2698 -0.0830
  569MOL0     C78445   1.949   3.671   8.668  0.8128 -0.3339  0.0228
  569MOL0     C78446   2.024   3.630   8.789 -1.0310 -0.0476  0.1373
  569MOL0     C78447   2.079   3.762   8.862  0.6267  0.6061  0.2151
  569MOL0     C78448   2.167   3.708   8.972  0.6544  0.1161 -0.7324
  569MOL0     C78449   2.250   3.665   9.048  0.2067 -0.3415  0.2329
  569MOL0     C78450   2.297   3.520   8.373 -0.8056  0.7452 -0.7078
  569MOL0     C78451   2.414   3.527   8.289 -0.1914 -0.9703  0.5206
  569MOL0     C78452   2.497   3.408   8.262 -0.6008  0.6402 -0.5417
  569MOL0     H78453   2.760   3.745   7.943  1.6538  0.8444 -3.0340
  569MOL0     H78454   2.995   3.764   7.865  1.7437 -0.8396 -0.0617
  569MOL0     H78455   3.374   3.763   7.996 -2.4446  2.4701 -2.4310
  569MOL0     H78456   3.273   3.748   8.150 -2.8662 -0.6709  0.4472
  569MOL0     H78457   3.259   3.934   7.912 -1.3319 -0.5110 -0.3183
  569MOL0     H78458   3.126   3.913   8.020  0.2088  1.0531  1.6535
  569MOL0     H78459   3.265   3.972   8.214 -1.0054 -2.8957 -0.4627
  569MOL0     H78460   3.412   3.998   8.095 -0.7232  0.7256  0.5815
  569MOL0     H78461   3.303   4.184   8.004 -0.5101  0.6990  0.4250
  569MOL0     H78462   3.157   4.139   8.089  0.4949 -0.7471 -3.8322
  569MOL0     H78463   3.289   4.169   8.306  3.0053 -1.3215  0.2725
  569MOL0     H78464   3.230   4.318   8.225 -1.2975 -1.6506  2.9737
  569MOL0     H78465   3.514   4.215   8.238 -0.6539 -1.7192 -1.0041
  569MOL0     H78466   3.466   4.299   8.096  1.5764  0.4606  0.6092
  569MOL0     H78467   3.435   4.415   8.387  0.6523  1.5427  0.8026
  569MOL0     H78468   3.424   4.500   8.224 -2.1308 -2.7562 -3.4504
  569MOL0     H78469   3.650   4.360   8.374 -1.8272 -0.3500  0.6644
  569MOL0     H78470   3.661   4.431   8.216  0.7385  0.7720  0.4846
  569MOL0     H78471   3.600   4.718   8.179 -0.0260 -0.2352  0.4852
  569MOL0     H78472   3.611   4.992   8.309 -0.5980 -0.9886  1.3898
  569MOL0     H78473   3.775   4.954   8.257 -1.1713 -2.2603 -2.4983
  569MOL0     H78474   3.842   4.963   8.497 -0.2647  0.1473  0.5014
  569MOL0     H78475   3.807   5.110   8.405 -1.3689  1.6650  1.2045
  569MOL0     H78476   3.586   5.133   8.474 -0.0859 -0.9686 -0.3008
  569MOL0     H78477   3.596   4.987   8.573  1.1730 -1.0233 -0.0301
  569MOL0     H78478   3.747   5.069   8.747  0.9605 -1.1372 -1.3438
  569MOL0     H78479   3.796   5.202   8.640 -1.0948  0.6728 -0.1240
  569MOL0     H78480   3.858   5.281   8.829 -0.8487 -2.7530  1.7860
  569MOL0     H78481   4.008   5.444   8.913  0.0992  0.0410  0.4864
  569MOL0     H78482   3.969   5.335   9.047  0.8563  0.0360  0.3042
  569MOL0     H78483   3.957   5.512   9.073  2.6712 -1.5810  1.5983
  569MOL0     H78484   3.804   5.803   9.288 -1.0311 -0.0659 -0.7044
  569MOL0     H78485   3.781   5.975   9.448 -2.3837  2.2023  1.7882
  569MOL0     H78486   3.609   6.136   9.750 -1.2770 -0.4597 -0.3845
  569MOL0     H78487   3.738   6.067   9.647  1.8733  2.7592  0.5104
  569MOL0     H78488   3.612   6.222   9.475 -0.6123  1.7057 -0.7743
  569MOL0     H78489   3.569   6.313   9.617 -0.1395 -0.8312  0.7181
  569MOL0     H78490   3.864   6.236   9.537  0.2732  0.0452 -0.1982
  569MOL0     H78491   3.820   6.317   9.690  1.4270  1.3473 -0.6339
  569MOL0     H78492   3.709   6.488   9.522  1.0881  0.3811  3.6413
  569MOL0     H78493   3.819   6.411   9.399 -0.8074 -0.2542  0.3576
  569MOL0     H78494   3.889   6.554   9.653  1.2225  2.1228 -0.0672
  569MOL0     H78495   4.009   6.454   9.571 -1.4379 -0.8875  3.8366
  569MOL0     H78496   3.992   6.620   9.385  0.0300 -0.8183 -0.6701
  569MOL0     H78497   3.998   6.708   9.539  0.8983  1.3544 -0.0894
  569MOL0     H78498   3.732   6.683   9.532  3.8626  0.3409  3.4067
  569MOL0     H78499   3.765   6.663   9.357  0.4920  3.0618 -1.5983
  569MOL0     H78500   3.871   6.906   9.502  3.0992 -1.6214 -0.6588
  569MOL0     H78501   3.721   6.885   9.414 -0.0924 -2.7472 -1.1167
  569MOL0     H78502   3.366   5.841   9.510 -1.0520  1.7962 -0.7329
  569MOL0     H78503   3.410   5.649   9.358  1.8918 -2.2421  1.0216
  569MOL0     H78504   3.472   5.499   9.052  0.1795 -1.1014  1.5042
  569MOL0     H78505   3.434   5.380   8.851 -0.9386 -0.0991 -0.4606
  569MOL0     H78506   3.122   3.525   8.178  2.5328  2.4026 -0.9809
  569MOL0     H78507   2.888   3.490   8.269 -1.3560  1.9313  2.1367
  569MOL0     H78508   2.391   3.868   8.240  1.4394 -0.2555  0.4153
  569MOL0     H78509   2.188   3.837   8.372  1.5689 -0.6009  3.8986
  569MOL0     H78510   2.098   3.800   8.563 -0.8677 -0.0601  2.0651
  569MOL0     H78511   1.967   3.749   8.466 -1.6410 -1.2193 -0.0361
  569MOL0     H78512   1.892   3.582   8.639  0.9170 -0.0754 -1.0111
  569MOL0     H78513   1.870   3.743   8.691 -1.3157 -1.6604 -2.4311
  569MOL0     H78514   1.976   3.562   8.861 -2.4806  1.4674  0.6663
  569MOL0     H78515   2.110   3.571   8.755  0.6439  2.8971 -1.1180
  569MOL0     H78516   1.995   3.816   8.908 -0.3381  0.1414 -0.9327
  569MOL0     H78517   2.126   3.831   8.792 -0.3580  3.4429  2.1372
  569MOL0     H78518   2.323   3.616   9.110 -0.2762 -1.3869 -0.0067
  569MOL0     H78519   2.281   3.423   8.419  1.1548 -0.2038 -1.9104
  569MOL0     H78520   2.575   3.409   8.339  0.6504 -0.8715 -1.7229
  569MOL0     H78521   2.423   3.332   8.286 -0.1294  1.1636  3.1117
  569MOL0     H78522   2.539   3.394   8.162  0.8738 -1.4169  0.3131
  570MOL0     O78523   2.384  11.151   6.567 -0.0814  0.8227  0.1920
  570MOL0     C78524   2.266  11.166   6.576 -0.4301 -0.4135  0.3004
  570MOL0     O78525   2.181  11.060   6.562 -0.1599  0.4826 -0.3901
  570MOL0     C78526   2.241  10.942   6.533  0.7297 -0.3806 -0.6526
  570MOL0     C78527   2.305  10.863   6.630  0.2431 -0.2801 -0.0928
  570MOL0     C78528   2.364  10.732   6.609  0.4142 -1.1505  0.5095
  570MOL0     C78529   2.339  10.673   6.489  0.3212 -0.2821  0.4467
  570MOL0     O78530   2.401  10.555   6.453  0.7398 -0.6728  0.1201
  570MOL0     C78531   2.486  10.479   6.551  0.4318  1.3394 -0.0648
  570MOL0     C78532   2.548  10.349   6.504  0.1320 -0.5569 -0.7141
  570MOL0     C78533   2.674  10.377   6.419  0.2530  0.0331  1.2578
  570MOL0     C78534   2.738  10.244   6.372 -0.1305  0.3486  0.6815
  570MOL0     C78535   2.873  10.209   6.432 -0.2415 -0.2491  0.1548
  570MOL0     C78536   2.993  10.307   6.384  0.7792  0.3164 -0.5991
  570MOL0     C78537   3.117  10.267   6.462 -0.0305  0.3258  0.1612
  570MOL0     C78538   3.237  10.337   6.404 -0.5518  0.0089  0.5648
  570MOL0     N78539   3.260  10.477   6.452 -0.4641 -0.1106 -0.5430
  570MOL0     C78540   3.200  10.593   6.407 -0.4274  0.2190 -0.5913
  570MOL0     C78541   3.249  10.695   6.488  0.5578  0.4056  0.4772
  570MOL0     C78542   3.214  10.837   6.487  0.2960  0.0544  0.6203
  570MOL0     C78543   3.297  10.922   6.575  0.0694  0.7575 -0.4029
  570MOL0     C78544   3.288  11.072   6.557 -1.2077  0.1741  0.8450
  570MOL0     C78545   3.343  11.138   6.669 -0.6864  0.4884 -0.0720
  570MOL0     O78546   3.332  11.273   6.621  0.6890  0.2189 -0.0448
  570MOL0     C78547   3.352  11.372   6.713 -0.2052 -0.8109 -0.0205
  570MOL0     C78548   3.343  11.362   6.854  1.1410 -1.4286  0.0855
  570MOL0     C78549   3.391  11.467   6.928 -0.0269  0.5348 -0.5113
  570MOL0     C78550   3.372  11.444   7.075  0.3073  0.2815 -0.9373
  570MOL0     C78551   3.436  11.591   6.859  0.1090  0.6957 -0.0307
  570MOL0     C78552   3.492  11.701   6.934  1.8342  0.6730 -0.1559
  570MOL0     O78553   3.461  11.826   6.897  0.8342  0.0723 -0.2480
  570MOL0     C78554   3.483  11.930   6.978  0.1708 -0.6789 -0.6028
  570MOL0     C78555   3.429  11.941   7.110 -0.3922  0.1696 -0.5558
  570MOL0     C78556   3.474  12.039   7.200  1.0083 -0.4431  0.4545
  570MOL0     C78557   3.571  12.138   7.171  0.7000  0.0904  0.8410
  570MOL0     O78558   3.645  12.205   7.257 -0.3813 -0.2346 -0.1803
  570MOL0     C78559   3.658  12.149   7.391 -1.0147 -0.1453  0.4279
  570MOL0     C78560   3.770  12.225   7.459  0.3614 -0.3183 -1.0832
  570MOL0     C78561   3.803  12.162   7.593 -0.1205  0.0850 -0.6473
  570MOL0     C78562   3.933  12.224   7.635 -0.2268  0.2036  0.8158
  570MOL0     C78563   3.967  12.213   7.784 -0.6132 -0.5803  0.7236
  570MOL0     C78564   3.918  12.326   7.872  0.1325 -0.5986  0.3084
  570MOL0     C78565   3.929  12.291   8.021  0.3872 -0.4890 -0.1090
  570MOL0     C78566   4.080  12.271   8.074 -0.6827 -0.0728  0.9182
  570MOL0    Cl78567   4.220  12.326   7.982 -0.2434 -0.3734 -0.0871
  570MOL0     C78568   3.612  12.127   7.036  0.1299 -0.4358 -0.8521
  570MOL0     C78569   3.573  12.033   6.942 -0.0692  1.0385  0.3972
  570MOL0     O78570   3.567  11.677   7.027  0.3907 -0.9232 -0.1944
  570MOL0     C78571   3.433  11.592   6.719 -0.5320 -0.4524  0.0292
  570MOL0     C78572   3.396  11.486   6.647 -1.2581  0.2602  0.5032
  570MOL0     N78573   3.335  10.641   6.581  0.1932 -0.3255  0.3784
  570MOL0     N78574   3.351  10.513   6.554  0.2969 -0.6525  0.0283
  570MOL0     C78575   2.275  10.745   6.389  0.5549  0.6118 -0.3176
  570MOL0     C78576   2.231  10.876   6.410  0.2238 -0.2143  0.5098
  570MOL0     C78577   2.209  11.304   6.602 -0.5673 -0.5825 -0.3469
  570MOL0     C78578   2.070  11.321   6.606 -0.6895  0.1889 -0.3821
  570MOL0     C78579   2.014  11.445   6.626 -0.0495  0.3816  0.0265
  570MOL0     C78580   2.095  11.556   6.642 -0.2755 -0.3071 -0.1689
  570MOL0     O78581   2.046  11.688   6.636  0.3507  0.1774 -0.0853
  570MOL0     C78582   1.922  11.718   6.696 -0.3837 -1.0942  1.2591
  570MOL0     C78583   1.878  11.651   6.829  0.5293 -0.4293 -0.4365
  570MOL0     C78584   1.781  11.750   6.908  0.5924  0.1723  0.3914
  570MOL0     C78585   1.644  11.777   6.834  0.0483 -0.6071 -0.4952
  570MOL0     C78586   1.551  11.857   6.917  0.0338 -0.4391  0.9263
  570MOL0     C78587   1.467  11.908   6.983 -0.9922 -1.7365 -0.5058
  570MOL0     C78588   2.234  11.544   6.666 -0.2715  0.1314  0.4423
  570MOL0     C78589   2.288  11.418   6.639 -0.8073  0.6222 -0.9558
  570MOL0     C78590   2.449  11.412   6.644 -0.2329 -0.3154 -0.5427
  570MOL0     H78591   2.307  10.911   6.728 -1.7044 -2.9162  1.3785
  570MOL0     H78592   2.421  10.683   6.687  0.4501 -0.2831  1.0365
  570MOL0     H78593   2.429  10.446   6.638 -1.8133 -0.4597 -2.0444
  570MOL0     H78594   2.572  10.542   6.573  1.8015 -0.2400 -0.6674
  570MOL0     H78595   2.576  10.296   6.595 -0.2655  1.4854  0.6558
  570MOL0     H78596   2.468  10.300   6.448  0.0117 -2.8430  1.2873
  570MOL0     H78597   2.644  10.437   6.333  1.8369  1.0280  1.3702
  570MOL0     H78598   2.741  10.440   6.478 -1.7027  1.1032  2.4387
  570MOL0     H78599   2.661  10.169   6.391 -0.3344 -0.2567 -2.0843
  570MOL0     H78600   2.755  10.246   6.264  0.1903  0.0310  0.7252
  570MOL0     H78601   2.907  10.111   6.396  0.0918 -1.6354  3.7696
  570MOL0     H78602   2.860  10.195   6.540 -0.6266 -3.8015 -0.2330
  570MOL0     H78603   3.009  10.276   6.280  2.2301  0.5864 -0.4710
  570MOL0     H78604   2.966  10.412   6.373  0.0109  0.1680 -0.1999
  570MOL0     H78605   3.130  10.160   6.441  1.6517  0.3562  0.9026
  570MOL0     H78606   3.110  10.280   6.570 -1.5984  2.4604 -0.1431
  570MOL0     H78607   3.324  10.281   6.437 -1.4918 -3.3740 -2.0987
  570MOL0     H78608   3.232  10.330   6.295  2.3661  0.5523  0.3220
  570MOL0     H78609   3.130  10.585   6.324 -0.7565 -2.9662 -0.1497
  570MOL0     H78610   3.106  10.854   6.498  0.4217  3.3101 -1.7497
  570MOL0     H78611   3.229  10.868   6.383 -1.6260  1.6469  0.7563
  570MOL0     H78612   3.274  10.901   6.680 -0.9673 -0.4330 -0.8513
  570MOL0     H78613   3.397  10.883   6.553 -0.7896 -0.8709 -1.5838
  570MOL0     H78614   3.348  11.093   6.468 -1.2247 -0.9343  0.5617
  570MOL0     H78615   3.189  11.114   6.537 -0.9213  0.0276 -1.1219
  570MOL0     H78616   3.297  11.116   6.766  0.5085 -3.9592 -0.2786
  570MOL0     H78617   3.448  11.110   6.679 -0.9172 -0.7982 -1.0236
  570MOL0     H78618   3.295  11.277   6.902 -1.1531 -0.3133 -0.0925
  570MOL0     H78619   3.393  11.338   7.092  2.2569  0.8222  0.3789
  570MOL0     H78620   3.271  11.468   7.109  0.9309  1.4448  0.1607
  570MOL0     H78621   3.451  11.488   7.136 -1.4701  1.7478  0.3951
  570MOL0     H78622   3.376  11.859   7.157  3.9129 -0.9370  3.0622
  570MOL0     H78623   3.440  12.044   7.303  2.5552 -1.0614  1.0161
  570MOL0     H78624   3.569  12.161   7.453 -1.9853  0.2520 -0.9893
  570MOL0     H78625   3.686  12.044   7.379 -0.0861  0.0409  0.9117
  570MOL0     H78626   3.861  12.223   7.398  0.5597 -0.0648 -0.7936
  570MOL0     H78627   3.727  12.322   7.485 -1.2075 -1.4523  0.8188
  570MOL0     H78628   3.810  12.053   7.595 -1.1641 -0.1112  3.8060
  570MOL0     H78629   3.735  12.181   7.676  0.5288 -1.1954  0.2130
  570MOL0     H78630   3.925  12.332   7.627  0.8400  0.2911  0.8276
  570MOL0     H78631   4.016  12.183   7.577  0.0646 -1.8598  2.5642
  570MOL0     H78632   3.919  12.128   7.833 -0.6326 -0.1730  1.4363
  570MOL0     H78633   4.076  12.207   7.789 -0.6598 -2.9520 -0.0453
  570MOL0     H78634   3.813  12.352   7.853 -0.1229 -0.1759  2.1252
  570MOL0     H78635   3.979  12.415   7.854  0.0943 -0.4713  0.7968
  570MOL0     H78636   3.874  12.198   8.037 -3.0981  1.7069  2.1003
  570MOL0     H78637   3.886  12.373   8.079  1.5975  1.0102 -1.2387
  570MOL0     H78638   4.107  12.166   8.091 -1.9169 -0.1741  2.4970
  570MOL0     H78639   4.094  12.328   8.166 -0.6997 -0.2256  1.0168
  570MOL0     H78640   3.702  12.182   7.008  1.4935 -1.6144  0.9829
  570MOL0     H78641   3.621  12.019   6.846  1.7969  1.1819  1.2637
  570MOL0     H78642   3.463  11.679   6.661 -1.1787  0.0739  0.4792
  570MOL0     H78643   3.408  11.488   6.539 -0.0295  2.3500  0.6157
  570MOL0     H78644   2.265  10.704   6.289 -1.5761  0.1217  0.0552
  570MOL0     H78645   2.184  10.937   6.334 -1.0250  1.0432  2.2017
  570MOL0     H78646   2.003  11.236   6.603  0.7858 -1.0639  0.3799
  570MOL0     H78647   1.907  11.460   6.618 -0.3561 -1.9949 -1.3372
  570MOL0     H78648   1.912  11.826   6.702  0.7538 -0.7804 -1.2683
  570MOL0     H78649   1.845  11.689   6.625 -0.7259  0.9824  0.7274
  570MOL0     H78650   1.960  11.616   6.893  0.1050 -0.4435  0.1147
  570MOL0     H78651   1.823  11.560   6.802  1.0165 -0.4150 -1.5126
  570MOL0     H78652   1.749  11.703   7.002  0.0310  1.7084  0.9913
  570MOL0     H78653   1.840  11.839   6.928 -2.6326  3.2030 -2.2814
  570MOL0     H78654   1.609  11.680   6.799 -0.5788 -0.2504 -0.8681
  570MOL0     H78655   1.667  11.833   6.743  2.6148  0.3335  0.6323
  570MOL0     H78656   1.395  11.970   7.031  0.7015  1.6914 -2.0442
  570MOL0     H78657   2.292  11.635   6.665 -0.2160  0.0941 -0.1950
  570MOL0     H78658   2.482  11.513   6.669 -0.5749  0.1115 -1.7341
  570MOL0     H78659   2.473  11.330   6.712  2.6326  1.7463  1.0941
  570MOL0     H78660   2.505  11.402   6.551  3.0821  3.9173  0.6990
  571MOL0     O78661   9.779   7.197   3.953 -0.8657  0.5038 -0.1355
  571MOL0     C78662   9.661   7.181   3.955  1.6487  0.9958  0.2362
  571MOL0     O78663   9.598   7.090   3.875  0.1332  0.2734 -0.0836
  571MOL0     C78664   9.651   7.013   3.772 -1.0785  0.4886 -0.3596
  571MOL0     C78665   9.773   7.035   3.706 -0.5345  0.1944 -0.3212
  571MOL0     C78666   9.833   6.947   3.620  0.4483 -0.3634 -0.2178
  571MOL0     C78667   9.757   6.838   3.572 -0.4106 -0.0565 -0.0608
  571MOL0     O78668   9.788   6.753   3.474 -0.6988  0.0294 -0.3513
  571MOL0     C78669   9.935   6.717   3.468  0.0397  0.9563  0.8153
  571MOL0     C78670   9.956   6.581   3.397  0.0380  0.3014 -0.0650
  571MOL0     C78671   9.954   6.460   3.493 -0.0777 -0.3212  0.0350
  571MOL0     C78672  10.088   6.408   3.530 -0.0026  0.2024 -1.1486
  571MOL0     C78673  10.162   6.336   3.415  0.3434 -0.4377 -0.0655
  571MOL0     C78674  10.308   6.328   3.469  0.4139 -0.0527  0.1786
  571MOL0     C78675  10.378   6.239   3.373 -0.2034 -0.9306 -0.0204
  571MOL0     C78676  10.516   6.220   3.426 -0.4521 -0.7380  0.1574
  571MOL0     N78677  10.604   6.339   3.449 -0.0231  0.3733 -1.1532
  571MOL0     C78678  10.683   6.391   3.351  0.1123 -0.2378 -1.0819
  571MOL0     C78679  10.758   6.482   3.422 -0.7408 -0.0903 -0.2025
  571MOL0     C78680  10.840   6.574   3.343 -0.8668  0.0003 -0.6318
  571MOL0     C78681  10.788   6.715   3.368 -0.6983 -0.2658 -0.5128
  571MOL0     C78682  10.864   6.818   3.282 -0.4655  0.8145 -0.2646
  571MOL0     C78683  10.786   6.951   3.284 -0.3669 -0.1929 -0.2993
  571MOL0     O78684  10.736   7.000   3.402  0.0538  0.1440  0.0772
  571MOL0     C78685  10.727   7.136   3.433 -0.5808  0.0698 -0.0191
  571MOL0     C78686  10.686   7.153   3.565  0.4811 -0.5391  0.3660
  571MOL0     C78687  10.660   7.284   3.619 -0.3448  0.6473 -0.3159
  571MOL0     C78688  10.608   7.298   3.768 -0.1792 -0.3010 -0.2080
  571MOL0     C78689  10.686   7.400   3.541 -0.5336  0.4525  0.3984
  571MOL0     C78690  10.669   7.537   3.584 -0.4345  0.3191  0.1066
  571MOL0     O78691  10.681   7.567   3.714 -0.4088 -0.3824 -0.3851
  571MOL0     C78692  10.596   7.670   3.760  0.2079 -0.4849 -0.3462
  571MOL0     C78693  10.644   7.796   3.780 -0.7235 -0.9992  0.0856
  571MOL0     C78694  10.562   7.896   3.841 -0.5654  0.7303 -0.1985
  571MOL0     C78695  10.427   7.871   3.859  0.3034 -0.3258 -0.4179
  571MOL0     O78696  10.346   7.975   3.901 -0.9181 -0.0485  0.2571
  571MOL0     C78697  10.216   7.948   3.958 -0.9336 -0.7386 -0.5537
  571MOL0     C78698  10.131   8.071   3.989  0.0641 -0.2376 -0.9668
  571MOL0     C78699  10.005   8.038   4.067 -0.0970 -0.1274  0.0403
  571MOL0     C78700   9.948   8.164   4.144 -0.2898  0.8572  0.8993
  571MOL0     C78701   9.800   8.140   4.171 -0.6613  0.3643 -0.1222
  571MOL0     C78702   9.753   8.254   4.270 -1.0085  0.5354 -1.5663
  571MOL0     C78703   9.615   8.212   4.338  0.7339 -0.1747  0.2918
  571MOL0     C78704   9.577   8.317   4.436 -0.9989  0.4651 -0.7472
  571MOL0    Cl78705   9.592   8.474   4.357 -0.1096 -0.1879 -0.2031
  571MOL0     C78706  10.380   7.742   3.829 -0.5726 -0.2341 -0.1938
  571MOL0     C78707  10.464   7.636   3.785  0.5915 -1.1558 -0.9364
  571MOL0     O78708  10.664   7.621   3.497  0.2883  0.3428 -0.4099
  571MOL0     C78709  10.730   7.373   3.409  0.5687  0.7627 -0.4206
  571MOL0     C78710  10.753   7.249   3.354  0.2541  0.9307 -0.4815
  571MOL0     N78711  10.738   6.481   3.559 -0.0724 -0.3367 -0.4875
  571MOL0     N78712  10.638   6.386   3.570 -0.5274  0.2215 -0.7187
  571MOL0     C78713   9.638   6.817   3.638 -0.0496 -0.2758  0.4682
  571MOL0     C78714   9.578   6.895   3.740 -0.3395  0.8540  0.5809
  571MOL0     C78715   9.582   7.281   4.039  0.5019  0.4213 -0.0528
  571MOL0     C78716   9.442   7.283   4.022 -0.2031 -0.0981  0.3945
  571MOL0     C78717   9.363   7.384   4.081 -0.2301  0.0287 -0.0107
  571MOL0     C78718   9.416   7.479   4.163 -0.4778 -0.0981 -0.4286
  571MOL0     O78719   9.326   7.559   4.236 -0.5366 -0.0116  0.2321
  571MOL0     C78720   9.189   7.573   4.178 -0.5546 -0.1254 -0.1970
  571MOL0     C78721   9.087   7.620   4.280 -0.2467  0.3797 -0.0159
  571MOL0     C78722   9.045   7.495   4.364  0.2602  0.4161  0.0253
  571MOL0     C78723   8.966   7.560   4.472 -0.0037  0.4233  0.1799
  571MOL0     C78724   8.843   7.630   4.422  0.1853 -0.6749  0.1127
  571MOL0     C78725   8.742   7.690   4.382 -0.3691  0.4683  0.0697
  571MOL0     C78726   9.554   7.474   4.195 -0.0678  0.2288  0.1414
  571MOL0     C78727   9.637   7.382   4.126 -1.0010  0.6201  0.2019
  571MOL0     C78728   9.782   7.413   4.135  0.5065 -0.3109  1.0065
  571MOL0     H78729   9.837   7.119   3.730  2.4938 -2.5662  2.1960
  571MOL0     H78730   9.932   6.976   3.586  0.9297 -0.0300  1.3832
  571MOL0     H78731   9.972   6.713   3.571  0.9170  0.8793  0.5033
  571MOL0     H78732   9.981   6.792   3.403  1.1104 -1.9982 -2.1102
  571MOL0     H78733   9.871   6.577   3.328  1.2448  1.8162 -1.7413
  571MOL0     H78734  10.054   6.581   3.350  0.4432  2.0684  0.6863
  571MOL0     H78735   9.904   6.484   3.588 -0.4349  0.9936 -0.4666
  571MOL0     H78736   9.886   6.378   3.470 -0.9223 -1.0189  4.1923
  571MOL0     H78737  10.144   6.497   3.560  0.7629 -1.0746  1.6392
  571MOL0     H78738  10.082   6.341   3.617 -0.2098 -0.9587 -2.0297
  571MOL0     H78739  10.160   6.395   3.322  0.7617 -0.0715  0.1573
  571MOL0     H78740  10.124   6.234   3.399  1.5647 -0.5825 -2.6046
  571MOL0     H78741  10.354   6.428   3.470  2.3507 -0.7998 -2.4626
  571MOL0     H78742  10.305   6.292   3.572 -1.3488  2.8589  1.2594
  571MOL0     H78743  10.397   6.280   3.273 -2.1765 -0.7767 -0.3766
  571MOL0     H78744  10.319   6.147   3.368 -1.5082 -0.2299  1.8363
  571MOL0     H78745  10.521   6.158   3.516 -0.9927  2.7189  2.8077
  571MOL0     H78746  10.574   6.173   3.347  0.3934 -1.9664  1.4657
  571MOL0     H78747  10.685   6.382   3.243 -0.2551  2.8638 -1.4360
  571MOL0     H78748  10.849   6.553   3.236 -0.4458  1.3939 -0.8860
  571MOL0     H78749  10.941   6.562   3.381 -0.9893  0.8869 -0.0130
  571MOL0     H78750  10.681   6.723   3.344 -0.9988  0.0654  0.8732
  571MOL0     H78751  10.795   6.723   3.477 -1.6206 -0.8773 -0.3928
  571MOL0     H78752  10.959   6.835   3.334 -1.4941  1.2270  1.5829
  571MOL0     H78753  10.887   6.783   3.181  0.2379 -0.7562  0.4107
  571MOL0     H78754  10.852   7.028   3.243 -1.5213  1.4498  0.8049
  571MOL0     H78755  10.693   6.938   3.227 -0.9602 -2.4130  1.0804
  571MOL0     H78756  10.646   7.069   3.622 -0.0147 -1.3229 -1.0973
  571MOL0     H78757  10.516   7.358   3.772  0.4791  0.8279 -1.3256
  571MOL0     H78758  10.699   7.329   3.819  1.0130 -0.1412 -2.3106
  571MOL0     H78759  10.563   7.207   3.809  1.3752  0.2895  3.1643
  571MOL0     H78760  10.748   7.818   3.756 -0.9675  0.9655  0.6226
  571MOL0     H78761  10.603   7.995   3.860  0.3992  0.4564 -0.8247
  571MOL0     H78762  10.155   7.894   3.885 -2.5947  2.2148 -1.5052
  571MOL0     H78763  10.227   7.880   4.043  0.5457  0.1469  0.0071
  571MOL0     H78764  10.182   8.154   4.038 -2.4607  1.1135 -0.4446
  571MOL0     H78765  10.093   8.092   3.888  0.4624 -3.2688 -1.8310
  571MOL0     H78766  10.031   7.968   4.148  2.3922  0.1635 -0.4116
  571MOL0     H78767   9.930   7.995   4.000 -1.0452  2.3528 -0.6136
  571MOL0     H78768   9.964   8.259   4.090 -0.4382  0.5295  0.2699
  571MOL0     H78769   9.997   8.168   4.242  0.0446 -1.2147  0.8617
  571MOL0     H78770   9.738   8.150   4.081 -1.8084 -6.1817 -0.5614
  571MOL0     H78771   9.782   8.040   4.209 -2.6262  0.2234 -1.2499
  571MOL0     H78772   9.736   8.343   4.209  1.9333  0.6807 -2.3146
  571MOL0     H78773   9.827   8.288   4.343 -0.7003 -1.7685 -0.7222
  571MOL0     H78774   9.624   8.118   4.393  3.1545 -0.2576 -0.1790
  571MOL0     H78775   9.531   8.200   4.269 -0.4680  0.5901  1.5590
  571MOL0     H78776   9.641   8.306   4.523  0.2708  0.3930 -1.6666
  571MOL0     H78777   9.472   8.298   4.462 -0.4164  1.0353  2.4403
  571MOL0     H78778  10.275   7.720   3.845  0.0702 -2.9067  0.9615
  571MOL0     H78779  10.428   7.534   3.780  1.5718 -1.6666  1.4811
  571MOL0     H78780  10.754   7.457   3.346  2.6006  0.6179  0.0888
  571MOL0     H78781  10.774   7.232   3.249  1.3915 -0.9312 -0.0082
  571MOL0     H78782   9.577   6.734   3.601 -1.7534  0.9191  0.4862
  571MOL0     H78783   9.484   6.859   3.780  0.0174 -1.9065 -0.8461
  571MOL0     H78784   9.384   7.206   3.972 -1.2111  1.2682 -0.6245
  571MOL0     H78785   9.265   7.363   4.040 -0.3362  0.3390  0.0840
  571MOL0     H78786   9.199   7.647   4.097  3.4954 -0.3391 -0.0939
  571MOL0     H78787   9.149   7.475   4.154 -2.3062 -0.4327  3.3477
  571MOL0     H78788   8.999   7.647   4.220  0.3342 -0.7644 -1.4434
  571MOL0     H78789   9.122   7.709   4.334 -2.9570  2.1584 -0.9709
  571MOL0     H78790   8.968   7.437   4.312  1.7660 -0.7754 -0.9658
  571MOL0     H78791   9.136   7.439   4.390 -0.4489 -1.4238 -1.1964
  571MOL0     H78792   9.026   7.632   4.528 -0.2782 -0.0307  1.0834
  571MOL0     H78793   8.934   7.486   4.546  0.9188  1.5576  1.7712
  571MOL0     H78794   8.649   7.741   4.368 -0.9719  0.3817  3.0610
  571MOL0     H78795   9.597   7.545   4.264 -0.4559  1.0148 -0.4088
  571MOL0     H78796   9.822   7.442   4.037  1.6179 -0.5570  1.3759
  571MOL0     H78797   9.807   7.494   4.204  0.8268  1.3725 -0.9628
  571MOL0     H78798   9.837   7.322   4.162  2.7748  0.8461  0.5795
  572MOL0     O78799   2.977   6.548   4.583  0.2829  1.1431 -0.1320
  572MOL0     C78800   2.982   6.438   4.638 -0.4491 -0.6824 -0.8037
  572MOL0     O78801   2.968   6.319   4.568 -0.2070  0.2088 -0.0724
  572MOL0     C78802   3.003   6.309   4.438 -0.1725 -0.8054  1.5177
  572MOL0     C78803   3.080   6.401   4.360  0.5796  0.1103 -0.2354
  572MOL0     C78804   3.082   6.392   4.219 -0.1766 -0.3109  0.9859
  572MOL0     C78805   3.033   6.282   4.162 -1.3665  1.3996  0.2578
  572MOL0     O78806   3.046   6.275   4.025 -0.5769  0.0172  0.4392
  572MOL0     C78807   2.934   6.258   3.942  0.7931  0.3761 -0.1126
  572MOL0     C78808   2.954   6.309   3.795  0.6990  0.9474 -0.5027
  572MOL0     C78809   3.001   6.452   3.796 -0.3171  0.0596  0.5443
  572MOL0     C78810   3.021   6.509   3.651  0.8459 -1.2156 -0.5658
  572MOL0     C78811   3.078   6.655   3.653 -0.1843 -0.7841  0.3181
  572MOL0     C78812   3.219   6.662   3.725 -0.0705  0.6155  0.0528
  572MOL0     C78813   3.298   6.780   3.674 -0.6354  1.0671  0.2941
  572MOL0     C78814   3.426   6.793   3.766  0.4943  0.2598  0.1802
  572MOL0     N78815   3.530   6.859   3.696 -0.1656 -0.5768  0.0507
  572MOL0     C78816   3.514   6.988   3.655 -0.0076  0.9436 -0.3100
  572MOL0     C78817   3.638   7.016   3.608  0.9380 -0.1695 -1.4506
  572MOL0     C78818   3.665   7.152   3.548  0.6550  0.0901  0.3803
  572MOL0     C78819   3.688   7.264   3.652 -0.3344 -0.1436 -0.1812
  572MOL0     C78820   3.727   7.398   3.589  0.1214 -0.1189 -0.3018
  572MOL0     C78821   3.736   7.517   3.688  0.7135  0.2360  0.7679
  572MOL0     O78822   3.613   7.526   3.763  0.4371  0.3657 -0.5380
  572MOL0     C78823   3.596   7.623   3.861 -0.6692 -0.1751 -1.3224
  572MOL0     C78824   3.492   7.597   3.952  0.3530 -0.1392 -0.2474
  572MOL0     C78825   3.444   7.692   4.044  0.7447 -0.3177  0.8379
  572MOL0     C78826   3.315   7.658   4.120 -0.5142  0.3089 -0.0953
  572MOL0     C78827   3.511   7.813   4.058 -0.0770  0.7652  0.8707
  572MOL0     C78828   3.464   7.915   4.155 -0.3322 -0.3550  0.4148
  572MOL0     O78829   3.546   8.020   4.157  0.0518 -0.2713 -0.3835
  572MOL0     C78830   3.518   8.123   4.239 -0.5124  0.6784  0.4549
  572MOL0     C78831   3.580   8.136   4.363  0.0517 -0.3165  0.4263
  572MOL0     C78832   3.570   8.266   4.433 -0.7505 -0.0002 -0.0611
  572MOL0     C78833   3.500   8.371   4.377 -0.0308 -0.5367 -0.4898
  572MOL0     O78834   3.489   8.492   4.442 -0.0954 -0.5635 -0.2680
  572MOL0     C78835   3.536   8.521   4.574 -0.0112  0.8148  0.2538
  572MOL0     C78836   3.538   8.672   4.592  0.4501  0.0122 -0.3219
  572MOL0     C78837   3.578   8.713   4.737  0.5575  0.0514 -1.1556
  572MOL0     C78838   3.548   8.864   4.746  0.2116 -0.3727  0.6272
  572MOL0     C78839   3.509   8.932   4.886 -0.9303 -0.4087  0.1914
  572MOL0     C78840   3.610   8.892   4.998 -0.6387  0.9005 -0.2357
  572MOL0     C78841   3.568   8.946   5.130  0.1822 -0.3357  0.2523
  572MOL0     C78842   3.535   8.847   5.237 -0.0441  0.9392  0.1323
  572MOL0    Cl78843   3.686   8.764   5.286 -0.0815  0.2058  0.2644
  572MOL0     C78844   3.449   8.350   4.250 -0.2645  0.7253 -0.2274
  572MOL0     C78845   3.449   8.230   4.183 -0.2372  0.6291  0.7306
  572MOL0     O78846   3.366   7.901   4.221  0.0427 -0.1721 -0.8214
  572MOL0     C78847   3.618   7.827   3.977  1.2258 -0.8762  0.2376
  572MOL0     C78848   3.659   7.740   3.878 -0.4685 -0.2423 -0.3624
  572MOL0     N78849   3.725   6.911   3.629  0.4773  0.2420  0.0779
  572MOL0     N78850   3.653   6.821   3.682  0.0307  0.0039  0.6572
  572MOL0     C78851   2.976   6.174   4.229 -0.0513  0.1752 -0.0934
  572MOL0     C78852   2.954   6.192   4.371  0.2534 -0.3684  0.3461
  572MOL0     C78853   2.994   6.454   4.783  0.1004  0.4239  0.6134
  572MOL0     C78854   2.927   6.559   4.850  0.2098 -0.7349 -0.0448
  572MOL0     C78855   2.943   6.568   4.986  0.4246 -0.0419  0.3212
  572MOL0     C78856   3.016   6.479   5.063  0.3209  0.3004 -1.1076
  572MOL0     O78857   3.020   6.487   5.203  0.5569 -0.4437  0.5163
  572MOL0     C78858   2.928   6.577   5.270  0.3767 -0.4731 -0.7221
  572MOL0     C78859   2.934   6.559   5.422 -0.1459 -1.3949  0.1729
  572MOL0     C78860   2.915   6.409   5.464 -0.2475  0.4251 -0.7878
  572MOL0     C78861   2.777   6.351   5.446 -0.0402 -0.0294  0.7636
  572MOL0     C78862   2.663   6.393   5.531 -0.6611  0.3498 -0.0687
  572MOL0     C78863   2.562   6.420   5.595  0.6473 -0.7343  0.8811
  572MOL0     C78864   3.081   6.377   4.997 -0.8353  0.3972 -0.0994
  572MOL0     C78865   3.072   6.362   4.863 -0.0001 -0.2079 -0.3203
  572MOL0     C78866   3.124   6.229   4.813  0.1073 -0.6313 -0.3982
  572MOL0     H78867   3.137   6.485   4.399  0.3221 -0.6309  1.8466
  572MOL0     H78868   3.127   6.474   4.164 -1.0657 -0.3499  0.1679
  572MOL0     H78869   2.853   6.313   3.990  2.7172  2.5438  0.8112
  572MOL0     H78870   2.907   6.153   3.956  1.2791  0.5878  3.3544
  572MOL0     H78871   3.029   6.243   3.750  1.6865  2.9865 -2.0430
  572MOL0     H78872   2.863   6.300   3.735  1.3242 -0.3111 -1.3074
  572MOL0     H78873   2.939   6.519   3.856 -1.8540 -2.8759  2.4221
  572MOL0     H78874   3.101   6.448   3.841  0.8972 -2.8168 -2.1022
  572MOL0     H78875   3.092   6.449   3.594  0.6799 -1.1819 -0.8100
  572MOL0     H78876   2.922   6.511   3.605 -0.5137  2.1453  2.0832
  572MOL0     H78877   3.009   6.729   3.695 -1.5541 -0.8122 -1.7300
  572MOL0     H78878   3.103   6.680   3.549  3.4389 -2.9852  0.4863
  572MOL0     H78879   3.210   6.667   3.834 -1.7055 -1.9655  0.1217
  572MOL0     H78880   3.274   6.570   3.704  0.3303 -0.3833  4.3690
  572MOL0     H78881   3.231   6.866   3.675 -0.8958  0.9511 -1.6789
  572MOL0     H78882   3.313   6.760   3.567 -1.3556  2.5988 -0.1186
  572MOL0     H78883   3.403   6.846   3.859  3.8759  1.5837  0.4216
  572MOL0     H78884   3.458   6.690   3.784  1.7329  0.9173  2.1789
  572MOL0     H78885   3.426   7.052   3.660  0.3019  1.3259  0.4671
  572MOL0     H78886   3.573   7.173   3.493  0.7306 -2.4129 -0.8268
  572MOL0     H78887   3.744   7.150   3.472  1.9226  0.7064  1.6184
  572MOL0     H78888   3.593   7.277   3.705 -1.7213 -1.1636 -2.3217
  572MOL0     H78889   3.759   7.232   3.729 -0.1049  0.7263 -0.0162
  572MOL0     H78890   3.826   7.392   3.542 -0.0588  0.7811 -0.8277
  572MOL0     H78891   3.652   7.434   3.518 -1.6742 -0.6168  1.2830
  572MOL0     H78892   3.819   7.499   3.757  2.2836 -0.7330 -1.3043
  572MOL0     H78893   3.758   7.604   3.626 -0.5929 -1.5142 -2.3598
  572MOL0     H78894   3.440   7.505   3.927  2.2102 -0.9431 -1.4220
  572MOL0     H78895   3.283   7.555   4.101  1.2243 -0.4665  0.9579
  572MOL0     H78896   3.234   7.727   4.093 -1.1675 -0.6745 -0.7231
  572MOL0     H78897   3.343   7.665   4.225  0.6483  0.7255 -0.4070
  572MOL0     H78898   3.646   8.062   4.406  1.3068  0.5601  0.0748
  572MOL0     H78899   3.618   8.278   4.529  0.1849 -3.4944  0.0362
  572MOL0     H78900   3.472   8.483   4.654  0.1756  3.6921  1.8839
  572MOL0     H78901   3.641   8.499   4.593 -0.9367 -4.1694  0.9882
  572MOL0     H78902   3.610   8.716   4.523 -1.4135  1.1603 -1.6200
  572MOL0     H78903   3.438   8.715   4.578  0.8571  1.5187  1.0056
  572MOL0     H78904   3.687   8.712   4.745  0.4558  0.7604  0.7202
  572MOL0     H78905   3.537   8.656   4.821 -0.1307  1.7374 -0.2827
  572MOL0     H78906   3.475   8.900   4.673 -0.2093  0.3334  1.3805
  572MOL0     H78907   3.642   8.909   4.713  0.3319 -0.6652  0.5657
  572MOL0     H78908   3.524   9.039   4.874  0.8995 -0.7921 -1.2500
  572MOL0     H78909   3.407   8.904   4.915 -0.3207 -0.8897  2.0213
  572MOL0     H78910   3.712   8.925   4.978  0.2072  0.5399  2.8466
  572MOL0     H78911   3.617   8.783   5.004 -1.5230  0.8284 -0.4147
  572MOL0     H78912   3.469   8.991   5.126  0.7234  1.1411  1.9702
  572MOL0     H78913   3.630   9.028   5.169 -0.8839  0.5469  0.1489
  572MOL0     H78914   3.451   8.785   5.204 -0.7448  0.5937  2.3651
  572MOL0     H78915   3.497   8.887   5.332 -4.7127 -5.8458  1.8512
  572MOL0     H78916   3.416   8.439   4.197 -0.3505  1.0356  0.3368
  572MOL0     H78917   3.396   8.218   4.089 -3.6853  2.0747  2.3172
  572MOL0     H78918   3.684   7.914   3.971  2.2946 -1.7349 -1.1780
  572MOL0     H78919   3.741   7.756   3.808 -0.7503 -1.4608 -0.9840
  572MOL0     H78920   2.941   6.081   4.185  1.7386 -0.4428 -0.3099
  572MOL0     H78921   2.898   6.111   4.416 -1.3713  1.8485  2.5229
  572MOL0     H78922   2.874   6.641   4.803  1.6473 -0.1192 -0.6394
  572MOL0     H78923   2.907   6.652   5.044  1.0007  0.8899 -0.6368
  572MOL0     H78924   2.957   6.680   5.248 -2.2990  0.3681 -0.6597
  572MOL0     H78925   2.825   6.569   5.236  0.8143 -0.5441 -2.0890
  572MOL0     H78926   2.851   6.616   5.464 -1.6406 -0.7115 -3.4024
  572MOL0     H78927   3.033   6.599   5.449 -1.2077  1.9802 -0.4985
  572MOL0     H78928   2.982   6.339   5.413  1.2117  1.8758 -0.9452
  572MOL0     H78929   2.940   6.397   5.569 -0.7403 -0.8557 -0.7972
  572MOL0     H78930   2.789   6.242   5.437 -2.8337 -0.2650 -1.8229
  572MOL0     H78931   2.751   6.367   5.341 -0.2725 -8.3048 -1.1123
  572MOL0     H78932   2.474   6.433   5.655 -1.1808 -0.7866 -1.6539
  572MOL0     H78933   3.118   6.301   5.065 -0.5400 -0.8249 -1.5950
  572MOL0     H78934   3.143   6.235   4.706  0.3065  2.9113 -0.3096
  572MOL0     H78935   3.216   6.203   4.866 -1.2927 -2.1788  1.4220
  572MOL0     H78936   3.045   6.154   4.816 -1.9323  1.4069  1.3453
  573MOL0     O78937   0.658   3.153  10.903  0.0831  0.6334  1.0807
  573MOL0     C78938   0.538   3.129  10.911  0.1557  1.0581  0.6255
  573MOL0     O78939   0.445   3.168  10.812  1.4810 -0.7780 -0.2177
  573MOL0     C78940   0.459   3.282  10.732  0.5599  0.7130 -0.2763
  573MOL0     C78941   0.538   3.274  10.619 -0.0584 -0.4719 -0.1451
  573MOL0     C78942   0.538   3.380  10.525  0.3236  0.3471  0.9123
  573MOL0     C78943   0.462   3.497  10.555 -0.6395 -0.4573 -0.7376
  573MOL0     O78944   0.437   3.606  10.480 -0.1830 -0.5532 -0.2524
  573MOL0     C78945   0.540   3.652  10.392  0.0001  0.3340 -0.0949
  573MOL0     C78946   0.507   3.800  10.379  0.3236  0.3008 -0.1578
  573MOL0     C78947   0.544   3.870  10.503 -0.1363  1.0260 -0.5382
  573MOL0     C78948   0.541   4.023  10.491  0.6352  0.2770 -0.1968
  573MOL0     C78949   0.657   4.097  10.555  0.2864 -0.7972 -0.0333
  573MOL0     C78950   0.632   4.119  10.710 -0.8975  0.2683 -0.4769
  573MOL0     C78951   0.760   4.202  10.760  0.4163 -0.5405 -0.8417
  573MOL0     C78952   0.896   4.127  10.759 -0.3177 -0.5856 -0.7155
  573MOL0     N78953   0.873   3.990  10.828  0.5834  0.9137  0.2320
  573MOL0     C78954   0.863   3.875  10.752 -0.3594  0.1782 -0.3413
  573MOL0     C78955   0.823   3.785  10.850 -0.3873 -0.4785 -0.1349
  573MOL0     C78956   0.791   3.640  10.835 -0.2053  0.0911  0.4115
  573MOL0     C78957   0.909   3.569  10.779  0.3751  0.2261  0.0247
  573MOL0     C78958   0.870   3.429  10.746  0.4863 -0.1595  0.0670
  573MOL0     C78959   0.977   3.356  10.663 -0.5830 -0.1796  0.1265
  573MOL0     O78960   0.973   3.404  10.527  0.0432 -0.5333 -0.2268
  573MOL0     C78961   1.073   3.377  10.446  0.0215 -0.1271  0.7670
  573MOL0     C78962   1.205   3.339  10.483  0.1830 -0.4441 -0.4715
  573MOL0     C78963   1.310   3.308  10.388  0.0993  0.1997  0.0657
  573MOL0     C78964   1.429   3.242  10.449 -0.1803 -0.1145 -0.2648
  573MOL0     C78965   1.284   3.331  10.250  0.0786 -0.1589  0.1354
  573MOL0     C78966   1.366   3.303  10.129  0.1431  0.1916  0.0791
  573MOL0     O78967   1.301   3.316  10.015 -0.2815 -0.2076  0.3940
  573MOL0     C78968   1.364   3.297   9.893  0.2328  0.6507  0.8230
  573MOL0     C78969   1.466   3.367   9.838 -0.2236 -0.4022  0.2247
  573MOL0     C78970   1.517   3.338   9.712 -0.3909  0.1721  0.0714
  573MOL0     C78971   1.458   3.237   9.634 -0.1857  0.3431  0.9127
  573MOL0     O78972   1.522   3.218   9.512  0.7862  0.5606  0.3592
  573MOL0     C78973   1.442   3.164   9.401  0.3421  0.0142 -0.4712
  573MOL0     C78974   1.314   3.237   9.355  0.2065  0.4060 -0.0886
  573MOL0     C78975   1.335   3.383   9.307  0.0471 -0.6378 -0.0617
  573MOL0     C78976   1.210   3.460   9.292  0.3429  0.8142  0.0016
  573MOL0     C78977   1.093   3.383   9.209  0.1353  0.0934 -0.4430
  573MOL0     C78978   1.138   3.338   9.068  0.6217  0.6400 -0.3088
  573MOL0     C78979   1.019   3.311   8.973 -1.0152  0.0739  0.1347
  573MOL0     C78980   0.906   3.225   9.037 -0.9451 -0.3735  0.5322
  573MOL0    Cl78981   0.771   3.315   9.108  0.2606  0.1480 -0.4436
  573MOL0     C78982   1.354   3.167   9.683 -0.6121  0.6772 -0.2194
  573MOL0     C78983   1.304   3.192   9.809  0.3705  0.0216 -0.3033
  573MOL0     O78984   1.487   3.287  10.141 -0.2953 -0.0861  0.2592
  573MOL0     C78985   1.146   3.370  10.223 -0.3013  0.0005  1.9622
  573MOL0     C78986   1.043   3.391  10.312 -0.1443 -0.0290 -0.4351
  573MOL0     N78987   0.826   3.854  10.974  0.1540  0.1651  0.7731
  573MOL0     N78988   0.852   3.969  10.961  0.1957 -0.7986  0.3067
  573MOL0     C78989   0.383   3.500  10.676 -0.0767  0.7357  0.4662
  573MOL0     C78990   0.382   3.391  10.760 -0.4723  0.5432  0.1437
  573MOL0     C78991   0.504   3.015  11.003  0.0725 -0.1453 -0.8542
  573MOL0     C78992   0.368   2.980  11.005 -0.9176  0.1722 -0.6070
  573MOL0     C78993   0.317   2.884  11.097 -0.0185 -0.3243  0.2739
  573MOL0     C78994   0.398   2.848  11.201 -0.5449  0.1873  1.2997
  573MOL0     O78995   0.360   2.768  11.307  0.0305  0.1393  0.1380
  573MOL0     C78996   0.228   2.702  11.308  0.7047  0.7204  1.7703
  573MOL0     C78997   0.223   2.579  11.401 -0.7643 -0.3804 -0.0109
  573MOL0     C78998   0.338   2.478  11.377  0.1299  0.3734  0.3661
  573MOL0     C78999   0.352   2.370  11.476 -0.6491  0.3421 -0.8245
  573MOL0     C79000   0.457   2.276  11.449 -0.1715  0.5498 -0.2072
  573MOL0     C79001   0.535   2.187  11.433 -0.2279  0.5354 -1.0157
  573MOL0     C79002   0.533   2.873  11.188  0.6510 -0.0206  0.0540
  573MOL0     C79003   0.590   2.953  11.091 -0.7072  0.5889 -0.9344
  573MOL0     C79004   0.745   2.946  11.096  0.1240  0.0475  0.4004
  573MOL0     H79005   0.590   3.185  10.585 -1.0549 -0.7642 -0.9797
  573MOL0     H79006   0.588   3.378  10.429 -1.5322 -0.5315 -0.0867
  573MOL0     H79007   0.542   3.612  10.291  0.4595  2.5187 -1.0208
  573MOL0     H79008   0.638   3.638  10.440  1.4093 -0.4472 -2.9872
  573MOL0     H79009   0.568   3.833  10.294 -1.6836 -0.4016 -1.9510
  573MOL0     H79010   0.404   3.822  10.350  0.7689  1.3973 -1.0241
  573MOL0     H79011   0.494   3.829  10.592  1.6567 -1.7934 -0.6969
  573MOL0     H79012   0.646   3.833  10.515 -0.2015  0.2619 -2.0924
  573MOL0     H79013   0.537   4.056  10.387  3.4889  2.0403  0.1394
  573MOL0     H79014   0.450   4.065  10.537  1.2882  1.4748  0.0363
  573MOL0     H79015   0.656   4.193  10.503  1.1655 -1.8280 -2.0511
  573MOL0     H79016   0.754   4.048  10.542 -0.5029 -2.3093 -0.3191
  573MOL0     H79017   0.549   4.189  10.725  0.1339  1.0400  2.1460
  573MOL0     H79018   0.627   4.027  10.769 -1.4794  0.6296  0.0452
  573MOL0     H79019   0.727   4.229  10.861 -1.1237 -2.0143 -0.9083
  573MOL0     H79020   0.772   4.296  10.705 -0.6826 -0.7208 -1.4198
  573MOL0     H79021   0.927   4.124  10.654 -0.4209  2.8334 -0.9419
  573MOL0     H79022   0.963   4.178  10.829 -0.0117 -0.5736 -1.0161
  573MOL0     H79023   0.887   3.855  10.648 -2.2815 -2.1331 -0.4343
  573MOL0     H79024   0.698   3.613  10.784  0.9447 -0.1426 -1.6384
  573MOL0     H79025   0.781   3.607  10.939 -0.2238  0.1674  0.4345
  573MOL0     H79026   0.947   3.618  10.689  1.8697 -2.3017 -0.8160
  573MOL0     H79027   0.987   3.559  10.855  2.7593  0.6530 -2.2217
  573MOL0     H79028   0.845   3.376  10.839  1.4209  0.0188  0.4283
  573MOL0     H79029   0.774   3.420  10.694 -1.3429 -1.3402  3.3486
  573MOL0     H79030   1.078   3.361  10.706  1.3400  0.5465 -3.9690
  573MOL0     H79031   0.959   3.249  10.669 -0.0259 -0.2006  2.8077
  573MOL0     H79032   1.224   3.326  10.588 -2.3469  3.6041  0.7132
  573MOL0     H79033   1.391   3.157  10.507 -0.7047 -0.2142 -0.7358
  573MOL0     H79034   1.470   3.311  10.523 -0.0141  0.9042 -1.2751
  573MOL0     H79035   1.504   3.222  10.372 -1.6699 -3.5305 -1.0157
  573MOL0     H79036   1.515   3.446   9.895 -0.2671 -0.9210  0.9927
  573MOL0     H79037   1.592   3.405   9.671 -0.0096 -1.6536 -2.4668
  573MOL0     H79038   1.511   3.170   9.316 -0.0722  1.2142 -0.7545
  573MOL0     H79039   1.410   3.067   9.440 -1.2365  0.3170 -0.9356
  573MOL0     H79040   1.263   3.182   9.275 -3.5840  1.2618  1.5116
  573MOL0     H79041   1.242   3.244   9.437 -0.1124  0.5381 -0.3770
  573MOL0     H79042   1.395   3.388   9.216 -1.3872  0.3289 -1.0003
  573MOL0     H79043   1.402   3.435   9.377 -0.8320  0.2746  0.1329
  573MOL0     H79044   1.235   3.561   9.256 -0.0821  0.8931 -0.0792
  573MOL0     H79045   1.168   3.484   9.390 -3.1148  0.6177 -1.2833
  573MOL0     H79046   1.046   3.310   9.275  3.2804  0.5756  2.5987
  573MOL0     H79047   1.012   3.456   9.202  1.5145  1.7221 -0.1729
  573MOL0     H79048   1.195   3.246   9.079 -1.6237 -0.5737  2.4915
  573MOL0     H79049   1.193   3.420   9.021  2.1454  1.4999  2.7320
  573MOL0     H79050   1.067   3.259   8.889  0.2301 -1.3616  1.6707
  573MOL0     H79051   0.990   3.412   8.942  0.3739  0.4906  0.1006
  573MOL0     H79052   0.949   3.162   9.116 -2.1287 -0.3416  1.2294
  573MOL0     H79053   0.866   3.153   8.965 -0.1988  0.3121 -0.6020
  573MOL0     H79054   1.311   3.087   9.623  1.3573  0.8159 -1.9024
  573MOL0     H79055   1.218   3.137   9.847 -0.4974  2.0299  0.7702
  573MOL0     H79056   1.109   3.382  10.122 -0.1432  1.7521  2.0875
  573MOL0     H79057   0.941   3.407  10.279 -0.2772 -1.6461 -0.8951
  573MOL0     H79058   0.325   3.589  10.697  1.1435  1.1607  2.2513
  573MOL0     H79059   0.325   3.400  10.852  0.9195 -0.9571  1.1946
  573MOL0     H79060   0.309   3.026  10.927 -3.1271 -0.5188  0.5754
  573MOL0     H79061   0.211   2.867  11.109  0.1115 -0.3893  1.4423
  573MOL0     H79062   0.152   2.779  11.324 -0.1386  0.2208  0.4117
  573MOL0     H79063   0.199   2.669  11.207 -1.6036  2.4065  1.8077
  573MOL0     H79064   0.123   2.539  11.380 -1.7315  0.9931  1.6869
  573MOL0     H79065   0.227   2.614  11.505 -2.2734  0.0679 -0.0757
  573MOL0     H79066   0.312   2.429  11.283  1.6492  1.6916 -0.8006
  573MOL0     H79067   0.433   2.528  11.357  0.0162  0.8314  0.9326
  573MOL0     H79068   0.254   2.321  11.474 -0.6333  0.3068 -0.7524
  573MOL0     H79069   0.365   2.420  11.573  0.5070 -1.2423 -0.1192
  573MOL0     H79070   0.616   2.117  11.437 -1.6978 -1.1844  0.5976
  573MOL0     H79071   0.590   2.832  11.271 -1.3773  1.3634  2.2477
  573MOL0     H79072   0.785   3.031  11.153  0.2387 -0.0443  0.4549
  573MOL0     H79073   0.782   2.850  11.131 -0.0423 -0.3370 -0.4643
  573MOL0     H79074   0.787   2.961  10.996 -1.1529  0.6097 -0.0762
  574MOL0     O79075   4.909   7.628  11.191 -0.5315 -0.4403  0.4710
  574MOL0     C79076   4.867   7.516  11.188 -0.0722  0.4899 -1.1972
  574MOL0     O79077   4.849   7.437  11.294 -0.4689 -0.6075 -0.9479
  574MOL0     C79078   4.822   7.502  11.411  0.7210 -0.1344 -0.3916
  574MOL0     C79079   4.882   7.445  11.529 -0.4940  0.0251 -0.1180
  574MOL0     C79080   4.846   7.495  11.651 -0.7113 -0.5140 -0.3636
  574MOL0     C79081   4.755   7.605  11.659  0.3424 -0.2850  0.2236
  574MOL0     O79082   4.698   7.656  11.773  0.3394 -0.0828  0.0619
  574MOL0     C79083   4.781   7.633  11.895 -0.2545  0.7109  0.0410
  574MOL0     C79084   4.703   7.703  12.003  0.2381 -0.3068 -0.6951
  574MOL0     C79085   4.789   7.720  12.127 -0.4437 -0.2439  0.3298
  574MOL0     C79086   4.848   7.870  12.129 -0.0975 -0.1480 -0.7032
  574MOL0     C79087   4.908   7.903  12.266  1.0359 -0.1986 -0.6643
  574MOL0     C79088   5.041   7.831  12.302  0.0187 -0.1188 -0.4364
  574MOL0     C79089   5.158   7.856  12.198 -0.0785  0.9293 -0.4782
  574MOL0     C79090   5.296   7.823  12.249  0.1228 -0.6617 -0.7333
  574MOL0     N79091   5.339   7.896  12.371  0.1178 -0.8952 -0.2578
  574MOL0     C79092   5.338   8.030  12.402  0.6581  0.0671  0.9944
  574MOL0     C79093   5.370   8.043  12.538 -0.1949 -0.0203 -0.2315
  574MOL0     C79094   5.365   8.160  12.628 -0.6773 -0.1602 -0.0905
  574MOL0     C79095   5.284   8.129  12.755  0.9499 -0.3955  0.0318
  574MOL0     C79096   5.128   8.144  12.731  0.0523  1.0533 -1.4843
  574MOL0     C79097   5.063   8.128  12.874  0.6183 -0.0520 -0.3366
  574MOL0     O79098   4.923   8.128  12.850  0.1663 -0.2678  0.3376
  574MOL0     C79099   4.857   8.243  12.808 -0.5374 -0.3514  0.0814
  574MOL0     C79100   4.916   8.368  12.786 -0.7701  0.5862  0.7258
  574MOL0     C79101   4.845   8.480  12.741  0.7948 -0.3397  1.1346
  574MOL0     C79102   4.913   8.609  12.744 -0.2260 -0.1156  1.0047
  574MOL0     C79103   4.703   8.468  12.721  0.1641 -0.0481  0.1117
  574MOL0     C79104   4.627   8.586  12.680  0.0834  0.8723  1.1935
  574MOL0     O79105   4.507   8.615  12.749  0.5649 -0.1403  0.0506
  574MOL0     C79106   4.429   8.725  12.714 -0.3221 -0.0776  0.3076
  574MOL0     C79107   4.369   8.796  12.810 -1.0464  0.3105 -0.2889
  574MOL0     C79108   4.266   8.889  12.790 -0.7040  0.2359  0.0179
  574MOL0     C79109   4.237   8.924  12.663  1.5222  0.3295 -0.0259
  574MOL0     O79110   4.164   9.030  12.619 -0.0620  0.8602  0.5818
  574MOL0     C79111   4.052   9.077  12.707 -0.3130  0.1881 -0.6487
  574MOL0     C79112   3.947   8.966  12.725  0.3402  0.1358  0.2781
  574MOL0     C79113   3.882   8.933  12.596 -0.0497 -0.4534  0.3595
  574MOL0     C79114   3.768   8.835  12.611 -0.8033  0.6558 -0.4482
  574MOL0     C79115   3.726   8.771  12.477  0.2921 -0.0205 -0.0023
  574MOL0     C79116   3.667   8.876  12.382  0.2634  0.5920 -0.3733
  574MOL0     C79117   3.636   8.819  12.243 -0.5121  0.0054 -0.3940
  574MOL0     C79118   3.759   8.797  12.159 -0.1621  0.9160  0.7491
  574MOL0    Cl79119   3.798   8.948  12.060 -0.1540 -0.4308  0.0074
  574MOL0     C79120   4.306   8.862  12.563  0.2154  1.0074  0.5617
  574MOL0     C79121   4.401   8.765  12.582 -0.7781 -0.2935 -0.2143
  574MOL0     O79122   4.672   8.650  12.575  0.4539  0.2483 -0.4018
  574MOL0     C79123   4.642   8.343  12.749 -0.0359  1.3184  0.9474
  574MOL0     C79124   4.720   8.224  12.780 -0.5682 -0.2888 -0.2495
  574MOL0     N79125   5.416   7.912  12.579  0.2242  0.5075  0.1540
  574MOL0     N79126   5.387   7.828  12.479  0.4707 -0.5236  0.4862
  574MOL0     C79127   4.686   7.633  11.540  0.2426 -0.3046  0.3483
  574MOL0     C79128   4.716   7.590  11.413 -0.1918 -0.0927  0.3558
  574MOL0     C79129   4.873   7.457  11.058 -0.3934  0.4752 -0.2135
  574MOL0     C79130   4.857   7.315  11.050 -0.0007  0.3581 -0.8028
  574MOL0     C79131   4.876   7.245  10.934  0.5771  1.1209  0.3280
  574MOL0     C79132   4.912   7.305  10.815 -0.3408  1.1230  0.3515
  574MOL0     O79133   4.933   7.247  10.690 -0.1353 -0.3572  0.1999
  574MOL0     C79134   4.961   7.106  10.679  0.1600  0.4844 -0.3166
  574MOL0     C79135   4.988   7.065  10.542 -0.3629 -0.0876 -0.1057
  574MOL0     C79136   4.882   7.123  10.441 -0.1320  0.3555 -0.1041
  574MOL0     C79137   4.882   7.039  10.308  0.9148 -0.0550 -0.2978
  574MOL0     C79138   4.827   6.904  10.334 -0.3902  0.9071  0.4637
  574MOL0     C79139   4.756   6.808  10.361  0.3458  0.1368 -0.9577
  574MOL0     C79140   4.930   7.446  10.825 -0.4037 -0.2075 -0.0612
  574MOL0     C79141   4.896   7.522  10.936  0.0190 -0.0900 -0.4159
  574MOL0     C79142   4.897   7.677  10.908 -0.3020  0.1186  0.0481
  574MOL0     H79143   4.948   7.360  11.518 -0.3235  0.3014 -1.3818
  574MOL0     H79144   4.908   7.454  11.730  0.5603 -1.2257 -1.7004
  574MOL0     H79145   4.879   7.679  11.878 -0.7928  1.0787 -2.5796
  574MOL0     H79146   4.790   7.525  11.909  2.2294  1.0708  1.8286
  574MOL0     H79147   4.668   7.803  11.977  1.0506 -0.1082 -1.0445
  574MOL0     H79148   4.612   7.649  12.032 -0.6152  1.0850 -0.6657
  574MOL0     H79149   4.721   7.707  12.212 -2.9686  0.0262 -1.5526
  574MOL0     H79150   4.870   7.648  12.137 -0.7938 -1.2727 -3.0982
  574MOL0     H79151   4.924   7.877  12.050  0.6609 -2.9547 -0.3107
  574MOL0     H79152   4.765   7.940  12.120  0.1670  1.1349  4.0056
  574MOL0     H79153   4.830   7.873  12.337  0.6122 -1.4831 -1.6482
  574MOL0     H79154   4.931   8.010  12.276 -2.1410  0.6248 -1.1235
  574MOL0     H79155   5.078   7.865  12.400  1.0157 -3.9370  0.7090
  574MOL0     H79156   5.020   7.724  12.306 -1.4144  0.1650  0.8926
  574MOL0     H79157   5.163   7.964  12.180  1.3214  1.2214  1.3995
  574MOL0     H79158   5.154   7.815  12.097  1.5306  2.6401 -1.2952
  574MOL0     H79159   5.317   7.717  12.269  2.0277 -0.0515  0.8227
  574MOL0     H79160   5.356   7.864  12.167  0.5334  0.1456 -0.0432
  574MOL0     H79161   5.294   8.116  12.352  0.5520  0.6878  2.1227
  574MOL0     H79162   5.330   8.251  12.579 -2.3586  0.6238  2.3632
  574MOL0     H79163   5.465   8.176  12.670 -1.5368 -0.3299  2.1800
  574MOL0     H79164   5.315   8.036  12.802  0.9977  0.0285  0.8515
  574MOL0     H79165   5.299   8.210  12.827 -1.6295 -1.2635  1.6837
  574MOL0     H79166   5.103   8.239  12.683 -1.5311  2.7613  2.2764
  574MOL0     H79167   5.089   8.059  12.674  2.4590 -0.7210 -0.6648
  574MOL0     H79168   5.084   8.039  12.935 -2.1275  1.7042  3.5753
  574MOL0     H79169   5.078   8.218  12.934 -2.6830  0.9485 -0.8153
  574MOL0     H79170   5.014   8.390  12.826 -1.9082  2.9768  2.4891
  574MOL0     H79171   4.848   8.694  12.766  1.1644  2.1286 -2.6197
  574MOL0     H79172   4.952   8.603  12.642 -2.2618 -2.5954  0.2557
  574MOL0     H79173   4.985   8.605  12.826 -2.9811 -2.6101  3.5232
  574MOL0     H79174   4.402   8.769  12.910  2.2876 -2.5028 -1.9421
  574MOL0     H79175   4.217   8.934  12.877  1.1312 -3.3106  3.2018
  574MOL0     H79176   4.096   9.099  12.805  1.9301 -3.4976 -0.6019
  574MOL0     H79177   4.004   9.166  12.667 -1.9840 -0.5756 -0.4396
  574MOL0     H79178   3.981   8.878  12.780  0.1432 -1.6700 -2.3206
  574MOL0     H79179   3.863   9.001  12.786 -0.2736  0.3038 -0.6463
  574MOL0     H79180   3.956   8.882  12.533  0.9370  1.6663 -0.2988
  574MOL0     H79181   3.844   9.022  12.545 -3.2264 -1.1870  1.1942
  574MOL0     H79182   3.683   8.887  12.654 -1.0085  0.3974 -0.5380
  574MOL0     H79183   3.798   8.749  12.673 -2.0716 -0.1529 -0.9136
  574MOL0     H79184   3.815   8.725  12.434  0.6508  1.5524 -1.0509
  574MOL0     H79185   3.650   8.693  12.481 -0.7566  0.8296 -1.7209
  574MOL0     H79186   3.735   8.960  12.366 -3.2285  3.7881  0.2774
  574MOL0     H79187   3.578   8.919  12.427 -2.4641 -1.1067 -3.6930
  574MOL0     H79188   3.570   8.888  12.190  1.5767  1.4616 -1.2122
  574MOL0     H79189   3.591   8.721  12.259  1.9269 -1.0433  0.5259
  574MOL0     H79190   3.731   8.716  12.091 -2.7769  1.3196  1.2625
  574MOL0     H79191   3.839   8.766  12.228 -1.7891 -0.4842  2.1039
  574MOL0     H79192   4.298   8.888  12.458  1.2666  1.2628  0.5343
  574MOL0     H79193   4.462   8.718  12.506  1.1364  0.5753  0.7016
  574MOL0     H79194   4.536   8.334  12.728  0.1506 -1.4877  0.8193
  574MOL0     H79195   4.666   8.130  12.777 -2.2517  0.4975  2.0451
  574MOL0     H79196   4.602   7.699  11.560 -0.7451 -1.1459 -0.8690
  574MOL0     H79197   4.661   7.618  11.325  1.9347  1.3827 -0.5991
  574MOL0     H79198   4.840   7.255  11.139  2.4477 -2.7596 -2.2324
  574MOL0     H79199   4.862   7.137  10.932 -1.4904  1.3224 -2.1232
  574MOL0     H79200   5.042   7.070  10.744 -0.4616  2.5653  1.7216
  574MOL0     H79201   4.877   7.041  10.706  1.5204 -2.1084 -1.8870
  574MOL0     H79202   4.999   6.956  10.540  1.8449  0.1091 -0.4171
  574MOL0     H79203   5.082   7.107  10.505 -0.7106  0.4716 -0.3610
  574MOL0     H79204   4.781   7.128  10.484 -0.0260  0.1081  0.1780
  574MOL0     H79205   4.915   7.224  10.417  1.5667  0.0075  0.6335
  574MOL0     H79206   4.977   7.027  10.256  0.8352  0.4727 -0.5804
  574MOL0     H79207   4.818   7.084  10.232 -0.5243 -3.0272 -0.9532
  574MOL0     H79208   4.691   6.727  10.389  1.4286 -0.4133  0.0876
  574MOL0     H79209   4.959   7.506  10.740  1.3040 -4.5729 -2.8988
  574MOL0     H79210   4.802   7.718  10.942 -0.1013 -0.1808  0.9981
  574MOL0     H79211   4.983   7.721  10.961  0.1526 -1.0933  0.3361
  574MOL0     H79212   4.901   7.702  10.802 -1.2205 -1.7235 -0.4574
  575MOL0     O79213   5.292   3.608   3.588  0.1326 -0.1546 -0.8631
  575MOL0     C79214   5.304   3.513   3.667 -0.8914  0.9540 -0.0651
  575MOL0     O79215   5.240   3.495   3.785  0.3211  0.8773 -1.1887
  575MOL0     C79216   5.144   3.586   3.825  0.9393 -0.1970 -0.5780
  575MOL0     C79217   5.013   3.537   3.810  0.5117  0.0949  0.3678
  575MOL0     C79218   4.898   3.608   3.842  0.1716 -0.6832 -1.2333
  575MOL0     C79219   4.905   3.736   3.907 -0.8340  0.6034 -0.6668
  575MOL0     O79220   4.788   3.796   3.949 -0.1814  0.3603 -0.6123
  575MOL0     C79221   4.796   3.919   4.025 -0.5196  0.1896 -1.2509
  575MOL0     C79222   4.651   3.985   4.021 -0.6714  0.5896  0.1461
  575MOL0     C79223   4.622   4.041   3.882 -0.4762 -0.2982  0.2852
  575MOL0     C79224   4.475   4.081   3.880 -0.5027  0.4875 -0.1925
  575MOL0     C79225   4.429   4.166   3.753  0.0583  0.4986 -0.6085
  575MOL0     C79226   4.276   4.209   3.729 -0.4661 -0.2889 -0.0495
  575MOL0     C79227   4.270   4.303   3.609 -0.2431 -0.1995 -0.7855
  575MOL0     C79228   4.297   4.227   3.486 -0.3352 -0.2966  0.1169
  575MOL0     N79229   4.363   4.313   3.385  0.0769 -0.2209  0.6519
  575MOL0     C79230   4.485   4.289   3.338  0.8236 -0.0952 -0.4534
  575MOL0     C79231   4.510   4.393   3.251 -0.3278 -0.0060 -0.4895
  575MOL0     C79232   4.653   4.422   3.201  0.6281 -1.0751 -0.6372
  575MOL0     C79233   4.690   4.328   3.076 -0.6621 -0.5051 -0.2664
  575MOL0     C79234   4.740   4.191   3.117 -0.3472  0.0270 -0.4700
  575MOL0     C79235   4.798   4.124   2.995  0.1305 -0.7026  0.7754
  575MOL0     O79236   4.866   3.998   3.020  0.1053  0.3863  0.3347
  575MOL0     C79237   4.788   3.893   3.061  0.4223  0.5046 -0.3152
  575MOL0     C79238   4.652   3.881   3.056  0.8082 -0.1435 -0.6737
  575MOL0     C79239   4.583   3.768   3.094  0.7686  0.1090 -0.1033
  575MOL0     C79240   4.433   3.772   3.080  0.2200  0.3348 -0.1359
  575MOL0     C79241   4.658   3.658   3.159  0.4518  0.8749  0.5577
  575MOL0     C79242   4.613   3.518   3.207 -0.6663 -0.6085 -0.3571
  575MOL0     O79243   4.702   3.426   3.256  0.8923 -0.3339  0.4713
  575MOL0     C79244   4.667   3.320   3.332 -1.1243  0.5284  1.1101
  575MOL0     C79245   4.741   3.303   3.454 -0.4474  0.3239 -0.4821
  575MOL0     C79246   4.705   3.198   3.531  0.8021  0.5269 -0.1674
  575MOL0     C79247   4.603   3.103   3.502 -0.2673 -0.7273  0.6416
  575MOL0     O79248   4.585   3.007   3.587  0.0055  0.4693  0.2490
  575MOL0     C79249   4.481   2.910   3.564  0.2613  0.5552  0.3342
  575MOL0     C79250   4.458   2.803   3.674 -0.8373  0.2167 -0.3560
  575MOL0     C79251   4.353   2.685   3.648 -0.3264 -0.5600 -0.4083
  575MOL0     C79252   4.344   2.578   3.757  0.3595  0.5572 -0.3352
  575MOL0     C79253   4.207   2.506   3.740  1.0614  0.0324  0.1912
  575MOL0     C79254   4.184   2.407   3.857  0.3770  0.2615  0.4473
  575MOL0     C79255   4.096   2.459   3.971  0.1151 -0.0910 -0.3215
  575MOL0     C79256   4.095   2.374   4.095  0.1724 -0.4299  0.1682
  575MOL0    Cl79257   4.240   2.381   4.200  0.1083  0.2347  0.3001
  575MOL0     C79258   4.536   3.122   3.381  0.6793 -0.2466 -0.4909
  575MOL0     C79259   4.561   3.231   3.299  0.0599 -0.3166 -1.2518
  575MOL0     O79260   4.496   3.505   3.197  0.3149  0.5763  0.0990
  575MOL0     C79261   4.795   3.675   3.171  0.6833 -0.3958 -0.9621
  575MOL0     C79262   4.858   3.788   3.115  0.0570 -0.0384  0.0561
  575MOL0     N79263   4.400   4.466   3.251 -0.3002 -0.4365 -0.2707
  575MOL0     N79264   4.314   4.429   3.331  0.6064 -0.4393 -0.1128
  575MOL0     C79265   5.039   3.784   3.920  0.3942  0.4803 -0.4881
  575MOL0     C79266   5.159   3.715   3.886  0.4278 -0.5014  0.1179
  575MOL0     C79267   5.416   3.422   3.626  0.3324  0.0142  0.2898
  575MOL0     C79268   5.438   3.378   3.499  0.6004 -0.0018  0.6533
  575MOL0     C79269   5.532   3.284   3.461  0.4384  0.3862  0.5497
  575MOL0     C79270   5.618   3.233   3.560  0.4111 -1.0311  0.1447
  575MOL0     O79271   5.720   3.146   3.535  0.9071  0.0653  0.9526
  575MOL0     C79272   5.759   3.108   3.409 -0.3281 -0.1454  0.2799
  575MOL0     C79273   5.830   3.236   3.345  0.2458  0.4830 -0.0644
  575MOL0     C79274   5.907   3.195   3.219  0.2261  0.2965 -0.8307
  575MOL0     C79275   5.870   3.275   3.097 -0.1298 -0.1430 -0.2235
  575MOL0     C79276   5.733   3.246   3.049 -0.0391  0.1569 -0.3991
  575MOL0     C79277   5.622   3.241   2.998  1.0223 -0.2614 -0.1494
  575MOL0     C79278   5.607   3.286   3.687  0.0810 -0.4204  0.5900
  575MOL0     C79279   5.502   3.377   3.723  0.6879  0.7497 -0.2764
  575MOL0     C79280   5.495   3.424   3.862  0.3299  0.0943 -0.6197
  575MOL0     H79281   5.011   3.438   3.766  0.8216  0.6335 -0.8912
  575MOL0     H79282   4.798   3.568   3.827 -0.3560 -0.5624  1.5478
  575MOL0     H79283   4.867   3.991   3.982 -1.4557  1.7397 -0.2809
  575MOL0     H79284   4.829   3.896   4.127  1.3180 -2.3829 -2.3300
  575MOL0     H79285   4.577   3.907   4.043  0.2292 -0.5385 -0.6930
  575MOL0     H79286   4.652   4.061   4.099 -1.6199  0.0345  0.7209
  575MOL0     H79287   4.675   4.132   3.853  0.3005 -1.4864 -2.2984
  575MOL0     H79288   4.646   3.974   3.799 -2.3773  0.2478 -0.7700
  575MOL0     H79289   4.411   3.993   3.889 -1.3553  1.2364  1.4165
  575MOL0     H79290   4.455   4.136   3.972  1.6357 -0.5962  0.9798
  575MOL0     H79291   4.462   4.106   3.668 -2.0447  2.2024 -2.7624
  575MOL0     H79292   4.491   4.256   3.759 -0.7295  0.9778  0.8667
  575MOL0     H79293   4.196   4.135   3.720 -2.4931  1.8815 -1.1188
  575MOL0     H79294   4.235   4.263   3.815  1.6480  0.5171  0.5098
  575MOL0     H79295   4.341   4.385   3.620 -2.0012  1.3973 -0.8545
  575MOL0     H79296   4.168   4.342   3.618  0.5965  1.6143  4.8738
  575MOL0     H79297   4.355   4.135   3.499  1.7880  0.6074 -2.2332
  575MOL0     H79298   4.206   4.192   3.436 -0.1577  0.2766 -0.6351
  575MOL0     H79299   4.547   4.207   3.374  0.5371 -0.8074 -1.5447
  575MOL0     H79300   4.717   4.393   3.286  0.0672 -1.9918 -0.5081
  575MOL0     H79301   4.673   4.523   3.165  0.4927 -0.6025  0.5565
  575MOL0     H79302   4.610   4.312   3.003  0.4973 -2.6835 -1.1390
  575MOL0     H79303   4.766   4.386   3.022 -0.6366  0.5931  0.9120
  575MOL0     H79304   4.826   4.208   3.183  1.4590 -0.6254 -2.5004
  575MOL0     H79305   4.661   4.140   3.172 -1.1767  1.6484 -0.1049
  575MOL0     H79306   4.713   4.102   2.931  0.9340 -1.9516  0.0966
  575MOL0     H79307   4.859   4.186   2.929 -0.6051 -2.7570 -1.9933
  575MOL0     H79308   4.593   3.966   3.023  1.6073 -0.2056 -2.3561
  575MOL0     H79309   4.390   3.686   3.133  1.9479 -1.3693 -1.3197
  575MOL0     H79310   4.397   3.751   2.979  0.5634  0.4648 -0.2863
  575MOL0     H79311   4.397   3.863   3.128  0.7581 -0.4353  1.8218
  575MOL0     H79312   4.825   3.368   3.477 -1.9607  2.0842  0.3015
  575MOL0     H79313   4.766   3.172   3.616 -0.5341 -2.4679  0.0291
  575MOL0     H79314   4.387   2.965   3.558  0.4873  0.9601  0.4602
  575MOL0     H79315   4.494   2.862   3.466 -0.8577  2.2928 -0.7046
  575MOL0     H79316   4.558   2.766   3.698 -0.3359  2.4220  1.3044
  575MOL0     H79317   4.447   2.853   3.770  4.4126 -0.4941  0.9002
  575MOL0     H79318   4.367   2.643   3.547 -1.2166 -0.7032 -0.4825
  575MOL0     H79319   4.255   2.732   3.639 -0.9840 -2.0839 -1.8668
  575MOL0     H79320   4.330   2.624   3.855 -1.0274 -3.7719  1.7187
  575MOL0     H79321   4.439   2.523   3.752 -0.7840 -1.3871 -3.0132
  575MOL0     H79322   4.125   2.578   3.728 -0.3913 -1.7638 -1.1724
  575MOL0     H79323   4.200   2.435   3.657 -2.0622  0.8001 -0.3545
  575MOL0     H79324   4.286   2.393   3.893 -0.4417 -0.0082  2.8967
  575MOL0     H79325   4.143   2.319   3.808 -0.8105  2.1818 -2.2482
  575MOL0     H79326   3.993   2.453   3.935 -0.0337 -3.5952  0.2950
  575MOL0     H79327   4.116   2.562   4.001 -2.7277  0.1008  1.3562
  575MOL0     H79328   4.078   2.269   4.065 -0.2976 -0.1880 -0.4504
  575MOL0     H79329   4.003   2.407   4.143  0.2796 -0.1454  0.1782
  575MOL0     H79330   4.461   3.055   3.340  0.2424 -0.1419  0.1257
  575MOL0     H79331   4.504   3.238   3.206  1.3142  0.8419 -1.9705
  575MOL0     H79332   4.866   3.609   3.220  0.6498  1.7089  2.1613
  575MOL0     H79333   4.966   3.795   3.127 -0.1441  1.5465  1.2045
  575MOL0     H79334   5.042   3.886   3.957 -1.9400 -0.3635  2.3792
  575MOL0     H79335   5.260   3.747   3.906  0.4712  0.0130 -0.8505
  575MOL0     H79336   5.363   3.406   3.426 -0.7190  0.7920  2.2215
  575MOL0     H79337   5.532   3.259   3.355 -1.2292 -0.2026  0.6531
  575MOL0     H79338   5.837   3.031   3.408  0.0347  0.2153 -0.3598
  575MOL0     H79339   5.677   3.060   3.354 -0.5187 -1.0308  1.3084
  575MOL0     H79340   5.891   3.288   3.419  0.6880 -0.8918  0.5672
  575MOL0     H79341   5.750   3.310   3.334 -0.1212 -0.2002 -2.5609
  575MOL0     H79342   6.013   3.219   3.230  0.2949  0.2968 -1.4444
  575MOL0     H79343   5.907   3.086   3.216  0.5437  0.3167 -2.1477
  575MOL0     H79344   5.950   3.254   3.026 -1.0443  1.6220 -1.8411
  575MOL0     H79345   5.894   3.380   3.114  3.1980 -0.2167 -3.1988
  575MOL0     H79346   5.523   3.239   2.957 -0.4877  2.0200  2.9493
  575MOL0     H79347   5.675   3.245   3.761  0.5833 -0.6132  0.0257
  575MOL0     H79348   5.594   3.412   3.906  0.1084  0.7702  0.0933
  575MOL0     H79349   5.478   3.532   3.865  0.7264  0.1513 -0.2643
  575MOL0     H79350   5.423   3.381   3.933  0.2320  0.6117 -0.3953
  576MOL0     O79351   7.882   1.228   2.887 -0.4276  0.4154  0.2036
  576MOL0     C79352   7.849   1.180   2.996  0.0786  0.1163  0.1802
  576MOL0     O79353   7.742   1.100   3.010  0.1840  0.2063 -0.5906
  576MOL0     C79354   7.667   1.039   2.913 -0.6846 -0.6871  0.6031
  576MOL0     C79355   7.689   1.042   2.776  0.3105 -0.5991  0.0149
  576MOL0     C79356   7.600   0.971   2.689  0.3669  1.0308  0.0177
  576MOL0     C79357   7.501   0.887   2.746  0.0261 -0.4226 -0.1957
  576MOL0     O79358   7.399   0.828   2.671  0.7222 -0.5707  0.5990
  576MOL0     C79359   7.429   0.725   2.586 -0.6341  1.0695  0.5985
  576MOL0     C79360   7.310   0.639   2.558  0.2170  0.6310  0.6559
  576MOL0     C79361   7.224   0.595   2.678 -2.0454 -1.2330 -0.4645
  576MOL0     C79362   7.129   0.480   2.639  0.0416  0.2582 -0.5254
  576MOL0     C79363   7.031   0.460   2.756 -0.1224  0.4869 -0.1138
  576MOL0     C79364   7.087   0.420   2.887 -0.2458 -0.8969  0.1020
  576MOL0     C79365   7.137   0.276   2.897  0.4360  0.8749 -0.2372
  576MOL0     C79366   7.026   0.166   2.899 -0.3036  0.3087 -0.1080
  576MOL0     N79367   7.089   0.048   2.957 -0.4497 -0.5250 -0.4682
  576MOL0     C79368   7.166  -0.030   2.876 -0.4824 -0.7088  0.0306
  576MOL0     C79369   7.258  -0.088   2.962 -0.2084  0.7373 -0.7073
  576MOL0     C79370   7.389  -0.155   2.927  0.3846  0.3434 -0.9258
  576MOL0     C79371   7.485  -0.046   2.917  0.5878 -0.1991  0.5362
  576MOL0     C79372   7.623  -0.102   2.875  0.4209 -0.6601 -0.0539
  576MOL0     C79373   7.715   0.017   2.824 -1.5204 -0.2813 -0.8520
  576MOL0     O79374   7.810   0.041   2.929  0.3550  0.2946 -0.2911
  576MOL0     C79375   7.933   0.047   2.874  0.2957  0.2706  0.1266
  576MOL0     C79376   8.003  -0.071   2.852  0.3797  0.5679 -0.0780
  576MOL0     C79377   8.139  -0.066   2.800  0.4214 -0.0117 -1.6268
  576MOL0     C79378   8.212  -0.197   2.809  0.1355 -0.3523 -0.5337
  576MOL0     C79379   8.184   0.058   2.755 -0.6916  0.0978 -0.5165
  576MOL0     C79380   8.303   0.074   2.673 -0.4986 -0.5658  0.5315
  576MOL0     O79381   8.350   0.204   2.651 -0.5596  0.5684 -0.3543
  576MOL0     C79382   8.447   0.232   2.556 -0.4476  0.1955  0.2135
  576MOL0     C79383   8.556   0.143   2.506  0.1595  0.0433 -0.0129
  576MOL0     C79384   8.659   0.188   2.418  0.3188  0.0148  0.0786
  576MOL0     C79385   8.662   0.321   2.381  0.3963 -0.0824 -0.2238
  576MOL0     O79386   8.760   0.361   2.294  0.8149 -0.8411 -0.6098
  576MOL0     C79387   8.741   0.480   2.205  0.9999 -0.0098  0.0564
  576MOL0     C79388   8.815   0.458   2.076 -0.1893  0.2166  0.2333
  576MOL0     C79389   8.762   0.326   2.007 -0.4000 -0.0809 -0.8301
  576MOL0     C79390   8.842   0.306   1.876 -0.1852 -0.5452  0.1489
  576MOL0     C79391   8.974   0.236   1.895  0.7470 -0.3441 -0.1122
  576MOL0     C79392   9.028   0.158   1.774 -0.0881  0.3877  0.4982
  576MOL0     C79393   9.179   0.132   1.788 -0.2101  0.9663  0.3643
  576MOL0     C79394   9.260   0.124   1.651 -0.7856 -0.3269  0.2032
  576MOL0    Cl79395   9.419   0.037   1.692 -0.1152 -0.4839  0.1180
  576MOL0     C79396   8.553   0.405   2.422  0.2516  0.9380 -0.7127
  576MOL0     C79397   8.456   0.361   2.515  0.1722 -0.4427 -0.3246
  576MOL0     O79398   8.343  -0.021   2.615 -0.2243  0.1157  0.4300
  576MOL0     C79399   8.113   0.170   2.773 -0.2468  1.0469 -0.7733
  576MOL0     C79400   7.994   0.159   2.843 -0.5275 -0.6005 -0.5261
  576MOL0     N79401   7.218  -0.059   3.096  0.3380  0.6247 -0.6494
  576MOL0     N79402   7.113   0.025   3.092 -0.5670  0.6025 -0.1374
  576MOL0     C79403   7.474   0.896   2.887  0.3807  0.4913 -0.1384
  576MOL0     C79404   7.566   0.962   2.966  0.2384  0.0545  0.2992
  576MOL0     C79405   7.909   1.219   3.121 -0.4060 -0.2647 -0.8452
  576MOL0     C79406   7.853   1.197   3.244 -0.5805  0.1733 -0.0151
  576MOL0     C79407   7.918   1.230   3.365  0.2082 -0.1755 -0.5150
  576MOL0     C79408   8.051   1.278   3.373  0.1056  0.0929 -0.5625
  576MOL0     O79409   8.107   1.288   3.499 -0.1131  0.0417  0.1771
  576MOL0     C79410   8.257   1.282   3.501 -0.0259  0.4562 -0.1099
  576MOL0     C79411   8.315   1.425   3.486 -0.0871 -0.1744 -0.7954
  576MOL0     C79412   8.249   1.509   3.587 -0.6225 -1.3821 -0.2231
  576MOL0     C79413   8.298   1.659   3.596  0.8028 -0.2569  1.4464
  576MOL0     C79414   8.278   1.730   3.462  0.2321 -0.3194  0.6042
  576MOL0     C79415   8.233   1.783   3.363  0.5195  0.7429  0.0681
  576MOL0     C79416   8.109   1.295   3.249  0.0983  0.1084  0.8876
  576MOL0     C79417   8.040   1.275   3.122  0.1444 -0.6315  0.2557
  576MOL0     C79418   8.119   1.325   2.996 -0.7401 -0.2273  0.1814
  576MOL0     H79419   7.771   1.100   2.733 -0.3341  2.1830  2.2208
  576MOL0     H79420   7.601   0.980   2.581  0.3567 -0.9000 -0.1685
  576MOL0     H79421   7.505   0.667   2.640 -2.7086 -0.8951  1.5946
  576MOL0     H79422   7.474   0.776   2.501  0.9107  2.7878  2.3526
  576MOL0     H79423   7.257   0.682   2.473  4.1845  0.9057 -1.9177
  576MOL0     H79424   7.355   0.545   2.526 -2.3817 -0.6544  0.4671
  576MOL0     H79425   7.285   0.561   2.763 -0.6284  1.1288 -0.4336
  576MOL0     H79426   7.181   0.691   2.708  0.6242 -0.6539  1.9687
  576MOL0     H79427   7.078   0.490   2.543  1.5884  1.5796 -1.2391
  576MOL0     H79428   7.188   0.389   2.624  2.1595  1.3496  0.7109
  576MOL0     H79429   6.950   0.392   2.728 -0.1383  0.3655  0.2285
  576MOL0     H79430   6.983   0.557   2.773 -0.8408 -0.0519  1.0742
  576MOL0     H79431   7.171   0.487   2.909 -1.3127  0.6640 -0.4494
  576MOL0     H79432   7.011   0.447   2.960 -2.2644  1.6890 -2.6822
  576MOL0     H79433   7.196   0.265   2.988 -0.1959 -0.2144  0.0622
  576MOL0     H79434   7.205   0.261   2.812 -3.8897  0.6633 -4.0843
  576MOL0     H79435   6.947   0.199   2.967  1.6144 -0.2164  2.5422
  576MOL0     H79436   6.991   0.148   2.797 -0.6914 -1.0675  0.2504
  576MOL0     H79437   7.179  -0.028   2.768  4.2685 -0.8603  0.3613
  576MOL0     H79438   7.371  -0.215   2.837  0.8057 -1.7188  0.2904
  576MOL0     H79439   7.419  -0.216   3.012  1.0522  0.6209 -0.9564
  576MOL0     H79440   7.452   0.035   2.852  2.8815  2.7728  2.8013
  576MOL0     H79441   7.506  -0.013   3.019 -0.8735 -0.3061  0.8883
  576MOL0     H79442   7.664  -0.144   2.968  0.1347 -2.4306 -0.7131
  576MOL0     H79443   7.623  -0.184   2.804  0.3635  0.1376 -0.9969
  576MOL0     H79444   7.759  -0.010   2.728 -1.7250  2.2707 -1.7593
  576MOL0     H79445   7.659   0.110   2.814 -2.0093 -0.6642 -1.8593
  576MOL0     H79446   7.960  -0.164   2.888  0.9131  0.8138  1.2338
  576MOL0     H79447   8.217  -0.246   2.711  3.2088  1.5351 -1.4508
  576MOL0     H79448   8.165  -0.263   2.882 -0.0562  0.1006 -0.2459
  576MOL0     H79449   8.309  -0.161   2.844 -0.2704  0.8323 -0.5936
  576MOL0     H79450   8.566   0.041   2.541 -0.1583 -0.3935 -1.1412
  576MOL0     H79451   8.736   0.121   2.382 -1.1673 -1.1687 -1.0520
  576MOL0     H79452   8.635   0.500   2.187  0.7273 -1.9707 -0.7894
  576MOL0     H79453   8.798   0.565   2.244 -0.7409  1.5168 -0.6241
  576MOL0     H79454   8.802   0.532   1.997  2.7121  1.4448  0.7730
  576MOL0     H79455   8.921   0.470   2.103 -0.1365  0.6975 -0.1789
  576MOL0     H79456   8.655   0.343   1.989 -0.6143 -2.6406 -2.4572
  576MOL0     H79457   8.765   0.233   2.066 -1.6244 -0.2311 -0.9810
  576MOL0     H79458   8.864   0.399   1.823 -0.4289 -0.5200  0.0922
  576MOL0     H79459   8.770   0.244   1.821  1.7438 -1.9415 -0.9347
  576MOL0     H79460   9.051   0.309   1.923 -0.0800  0.3812  0.3363
  576MOL0     H79461   8.978   0.179   1.988 -2.7192  1.6544  1.4429
  576MOL0     H79462   9.001   0.226   1.692  0.1961  0.2332  0.2740
  576MOL0     H79463   8.973   0.065   1.760 -1.5676  1.1604  0.9898
  576MOL0     H79464   9.193   0.040   1.846  1.1595  0.5507 -0.5711
  576MOL0     H79465   9.219   0.224   1.831 -2.7540  1.9210  0.8499
  576MOL0     H79466   9.288   0.223   1.616  0.9182 -1.7340 -2.7964
  576MOL0     H79467   9.203   0.070   1.575  1.4518 -1.6497 -0.6341
  576MOL0     H79468   8.552   0.513   2.413 -0.7373  1.0771  0.7446
  576MOL0     H79469   8.379   0.431   2.547  2.2710  1.1255  1.6070
  576MOL0     H79470   8.140   0.267   2.732  0.0166 -0.0174 -3.3009
  576MOL0     H79471   7.945   0.255   2.860  1.1020  0.2811 -0.5849
  576MOL0     H79472   7.387   0.839   2.915 -1.9256  3.7186 -0.2361
  576MOL0     H79473   7.540   0.972   3.071  2.1487 -2.8200  1.1676
  576MOL0     H79474   7.755   1.154   3.264 -1.2529  1.9955  0.7943
  576MOL0     H79475   7.869   1.195   3.456 -1.6257  1.5684 -0.7466
  576MOL0     H79476   8.290   1.238   3.596 -0.2802  2.9165  1.2133
  576MOL0     H79477   8.285   1.199   3.436 -1.6689 -0.4122  0.2410
  576MOL0     H79478   8.291   1.469   3.389  0.6746  3.2144  0.3997
  576MOL0     H79479   8.422   1.435   3.507 -0.5946  0.3377  1.9432
  576MOL0     H79480   8.140   1.510   3.572 -0.5794 -1.0999 -0.5382
  576MOL0     H79481   8.271   1.467   3.686 -0.2129 -0.3721  0.1303
  576MOL0     H79482   8.402   1.666   3.628  1.4003 -0.4476 -0.3507
  576MOL0     H79483   8.234   1.712   3.668 -4.0287 -1.0090 -1.8533
  576MOL0     H79484   8.189   1.826   3.275  1.3765  0.9424 -0.2714
  576MOL0     H79485   8.209   1.334   3.233 -0.0086 -0.0964 -0.3154
  576MOL0     H79486   8.213   1.367   3.033 -0.8826  1.4798 -1.2289
  576MOL0     H79487   8.140   1.241   2.929 -3.6787 -1.0562  0.1910
  576MOL0     H79488   8.072   1.405   2.938  0.6713  0.5186  0.0227
  577MOL0     O79489   8.651   1.790  11.083  0.1124 -0.5051 -0.8868
  577MOL0     C79490   8.538   1.832  11.091  0.9051  0.3725  0.3965
  577MOL0     O79491   8.497   1.936  11.010 -0.2853 -0.8145 -0.1696
  577MOL0     C79492   8.569   1.994  10.911 -0.6624 -0.2105 -0.0223
  577MOL0     C79493   8.691   1.953  10.847  0.0389 -0.0271 -0.8853
  577MOL0     C79494   8.756   2.027  10.743 -0.2688  0.1006 -0.4615
  577MOL0     C79495   8.711   2.154  10.720 -0.4121 -0.4133  1.4482
  577MOL0     O79496   8.788   2.219  10.625  0.0133  0.2724 -0.3522
  577MOL0     C79497   8.760   2.358  10.603 -0.4436 -0.1094 -0.8006
  577MOL0     C79498   8.856   2.404  10.490  0.3418 -0.2324  0.5003
  577MOL0     C79499   8.855   2.557  10.464 -0.7849 -0.6675 -0.2360
  577MOL0     C79500   8.912   2.589  10.331 -0.5210  0.1939 -0.2618
  577MOL0     C79501   8.870   2.732  10.275  1.0415 -0.7836 -0.3447
  577MOL0     C79502   8.742   2.734  10.197 -0.3236 -0.7368  0.2665
  577MOL0     C79503   8.731   2.836  10.085  0.3873  0.0762  0.8009
  577MOL0     C79504   8.803   2.788   9.957  0.1325 -0.7463 -0.3289
  577MOL0     N79505   8.824   2.908   9.874  0.1485 -0.6883 -0.0771
  577MOL0     C79506   8.725   2.953   9.782 -1.2191 -0.4113  0.0153
  577MOL0     C79507   8.791   3.054   9.721 -0.1013 -0.5525 -0.1258
  577MOL0     C79508   8.716   3.159   9.634  0.1480  0.3846 -1.1514
  577MOL0     C79509   8.805   3.237   9.533 -0.5046 -0.7471  0.3061
  577MOL0     C79510   8.718   3.341   9.461 -0.3614  0.4004  0.8530
  577MOL0     C79511   8.662   3.452   9.543 -0.5931  0.0061  0.2479
  577MOL0     O79512   8.756   3.555   9.559  0.4383 -0.2594  0.6582
  577MOL0     C79513   8.747   3.658   9.464  0.2910  0.2252 -0.1757
  577MOL0     C79514   8.704   3.665   9.336  0.4247  1.3457  0.5383
  577MOL0     C79515   8.718   3.775   9.253  0.5856 -0.4661 -0.9541
  577MOL0     C79516   8.645   3.781   9.112 -0.2103  0.0552 -0.5989
  577MOL0     C79517   8.762   3.897   9.314 -1.3999  0.5795  0.3703
  577MOL0     C79518   8.769   4.029   9.241 -0.2258  0.3048 -0.2072
  577MOL0     O79519   8.782   4.034   9.104 -0.3867 -0.2647 -0.2753
  577MOL0     C79520   8.853   4.142   9.049  0.3444  0.2859 -0.2572
  577MOL0     C79521   8.887   4.116   8.914  0.1773 -0.2021  0.0358
  577MOL0     C79522   8.982   4.194   8.848  0.1685 -0.2229 -0.2729
  577MOL0     C79523   9.036   4.304   8.913 -0.5817 -0.8359  0.3375
  577MOL0     O79524   9.148   4.367   8.860  0.5904 -0.9751 -0.3661
  577MOL0     C79525   9.250   4.286   8.794 -0.4638 -0.7295  0.3574
  577MOL0     C79526   9.389   4.352   8.766  0.0902 -0.6064 -0.4044
  577MOL0     C79527   9.378   4.468   8.662 -0.6772 -0.1148 -0.4889
  577MOL0     C79528   9.515   4.523   8.634 -0.4586  0.2411  0.4553
  577MOL0     C79529   9.527   4.626   8.521 -0.5257  0.1055 -0.1429
  577MOL0     C79530   9.480   4.576   8.381  0.0212  0.3087 -0.1411
  577MOL0     C79531   9.542   4.647   8.260 -0.0892 -0.0106 -0.0837
  577MOL0     C79532   9.510   4.797   8.255 -0.0112  0.6044  0.2573
  577MOL0    Cl79533   9.595   4.850   8.109 -0.7413  0.2435 -0.2844
  577MOL0     C79534   8.986   4.343   9.041 -0.4939 -0.8119  0.5302
  577MOL0     C79535   8.896   4.262   9.110 -0.2610  0.8871 -0.0505
  577MOL0     O79536   8.723   4.119   9.321  0.4498  0.6671 -0.6461
  577MOL0     C79537   8.809   3.898   9.453  0.3114 -0.3504  0.3052
  577MOL0     C79538   8.796   3.774   9.523  0.5468 -0.4589 -0.0639
  577MOL0     N79539   8.915   3.075   9.770  0.5870 -0.5429 -0.1029
  577MOL0     N79540   8.934   2.989   9.863  0.8160  0.0787 -0.4558
  577MOL0     C79541   8.598   2.197  10.766  0.6628  0.5439 -0.4987
  577MOL0     C79542   8.526   2.122  10.860 -0.0223 -0.6456  0.0966
  577MOL0     C79543   8.454   1.788  11.200  0.1808  0.5235  1.2382
  577MOL0     C79544   8.515   1.751  11.323  0.1673 -0.0306 -0.4930
  577MOL0     C79545   8.435   1.707  11.433 -0.5465 -0.2363 -0.5038
  577MOL0     C79546   8.295   1.707  11.427  0.0109 -0.4155 -0.4483
  577MOL0     O79547   8.219   1.668  11.529 -0.3834 -0.3522  0.1338
  577MOL0     C79548   8.257   1.570  11.629 -0.0332 -0.2048  0.4709
  577MOL0     C79549   8.290   1.434  11.566  0.4086  0.2476  0.0315
  577MOL0     C79550   8.172   1.384  11.480  0.3688  0.8942 -0.3466
  577MOL0     C79551   8.098   1.270  11.552  0.1107 -0.0448  0.1258
  577MOL0     C79552   8.037   1.308  11.681  0.7509  0.1637  0.3456
  577MOL0     C79553   7.990   1.336  11.786  0.1259  0.7766 -0.8176
  577MOL0     C79554   8.234   1.734  11.304  0.1851  0.3935 -0.6957
  577MOL0     C79555   8.308   1.781  11.194 -0.0125  0.4706 -0.4794
  577MOL0     C79556   8.231   1.809  11.063 -0.2557  1.2119 -0.7847
  577MOL0     H79557   8.744   1.859  10.861 -0.4644 -0.2340 -0.3244
  577MOL0     H79558   8.844   1.987  10.694 -1.2132 -1.7834 -0.7161
  577MOL0     H79559   8.780   2.415  10.695  0.1388 -1.7977  0.1665
  577MOL0     H79560   8.657   2.379  10.573  0.0827  1.4160 -1.6661
  577MOL0     H79561   8.959   2.385  10.522  1.0919  1.9456 -0.3879
  577MOL0     H79562   8.829   2.344  10.402 -0.3625  1.5696 -0.5711
  577MOL0     H79563   8.755   2.603  10.473 -0.4040  0.4407 -1.3340
  577MOL0     H79564   8.918   2.598  10.543 -1.6806 -0.5177  0.4164
  577MOL0     H79565   9.021   2.602  10.330 -0.6330  1.5486 -2.4360
  577MOL0     H79566   8.899   2.505  10.262 -1.1475 -3.1132  3.5148
  577MOL0     H79567   8.951   2.763  10.209 -0.1974  1.0020 -1.0817
  577MOL0     H79568   8.871   2.812  10.350  1.6766 -1.1261  0.0295
  577MOL0     H79569   8.732   2.638  10.144 -2.2161 -0.8619  0.8008
  577MOL0     H79570   8.665   2.752  10.272 -0.8220 -0.0597 -0.3902
  577MOL0     H79571   8.773   2.931  10.119  0.1822  0.4368  0.0699
  577MOL0     H79572   8.626   2.851  10.060 -0.0050 -0.0872  2.2537
  577MOL0     H79573   8.899   2.743   9.984 -0.0112 -1.3508 -0.8199
  577MOL0     H79574   8.745   2.717   9.898  0.5691 -0.3391 -1.2695
  577MOL0     H79575   8.620   2.927   9.774 -2.1982  3.2028 -0.5820
  577MOL0     H79576   8.683   3.227   9.712  1.2534  1.1996 -1.3639
  577MOL0     H79577   8.618   3.126   9.598 -1.7454  0.6853  3.1126
  577MOL0     H79578   8.891   3.286   9.580 -0.7260 -0.8920  0.8667
  577MOL0     H79579   8.849   3.164   9.464  0.9338  1.3051 -1.0663
  577MOL0     H79580   8.780   3.376   9.378 -1.3877 -5.0778 -2.7258
  577MOL0     H79581   8.637   3.282   9.417  0.7982  0.7807 -2.0094
  577MOL0     H79582   8.569   3.493   9.503 -0.3678 -1.1393 -1.5714
  577MOL0     H79583   8.654   3.425   9.649  0.6238 -0.9462  0.1222
  577MOL0     H79584   8.640   3.587   9.296 -1.6254  1.5173  3.2343
  577MOL0     H79585   8.562   3.710   9.123 -0.3359  0.5278  2.4085
  577MOL0     H79586   8.715   3.748   9.035 -1.0620 -0.6352 -1.1077
  577MOL0     H79587   8.605   3.880   9.086 -0.0587  0.9827  2.3477
  577MOL0     H79588   8.858   4.021   8.870 -1.9565  0.6742 -0.5955
  577MOL0     H79589   9.014   4.156   8.751 -0.6662  1.4209 -1.2358
  577MOL0     H79590   9.271   4.204   8.863  1.7504  2.6694  4.1526
  577MOL0     H79591   9.219   4.242   8.698  0.6465 -0.5851 -0.0798
  577MOL0     H79592   9.434   4.390   8.858 -2.6021 -2.1157  1.7030
  577MOL0     H79593   9.456   4.270   8.739  1.0450 -0.2212  0.7622
  577MOL0     H79594   9.313   4.550   8.695 -0.3354  1.3432 -3.2244
  577MOL0     H79595   9.337   4.428   8.569  2.1689  0.5425 -2.1031
  577MOL0     H79596   9.573   4.437   8.598  1.7824  3.1194 -3.6427
  577MOL0     H79597   9.555   4.573   8.723 -1.1333  1.2564  0.2023
  577MOL0     H79598   9.478   4.722   8.539  0.8129  0.8598 -0.3932
  577MOL0     H79599   9.634   4.645   8.509  0.0141 -2.4514  0.1914
  577MOL0     H79600   9.375   4.604   8.370  0.6315  1.6872 -3.5113
  577MOL0     H79601   9.483   4.467   8.371 -1.2831  0.4567 -3.4187
  577MOL0     H79602   9.494   4.598   8.175 -2.4655 -3.3533  2.8989
  577MOL0     H79603   9.651   4.636   8.261  0.0432  1.2237  0.9944
  577MOL0     H79604   9.559   4.845   8.340  2.4921 -0.3742 -0.5527
  577MOL0     H79605   9.402   4.815   8.251 -0.2078 -0.4039  0.5257
  577MOL0     H79606   9.026   4.432   9.089 -0.9467  0.0330 -0.6144
  577MOL0     H79607   8.871   4.285   9.213 -1.5786 -3.9735  0.9892
  577MOL0     H79608   8.845   3.990   9.497 -1.2085  0.5378 -0.2238
  577MOL0     H79609   8.829   3.766   9.626 -1.0407 -0.4573  0.4694
  577MOL0     H79610   8.553   2.296  10.759 -2.4126 -0.5039  2.0623
  577MOL0     H79611   8.434   2.163  10.900  0.1310  1.6159 -1.6374
  577MOL0     H79612   8.619   1.780  11.330  0.6970 -1.6882 -1.1835
  577MOL0     H79613   8.489   1.701  11.527 -0.9077  1.3321 -0.1589
  577MOL0     H79614   8.347   1.605  11.681  1.2304  0.3898 -1.9547
  577MOL0     H79615   8.185   1.563  11.710  1.1693  0.5901  1.6595
  577MOL0     H79616   8.309   1.356  11.641 -0.2796 -0.2631 -0.3165
  577MOL0     H79617   8.381   1.442  11.505  0.5799 -0.1394  0.2298
  577MOL0     H79618   8.108   1.470  11.458  0.3290  1.3269  1.3368
  577MOL0     H79619   8.200   1.356  11.379  0.2918 -0.2191 -0.0701
  577MOL0     H79620   8.164   1.185  11.570 -1.3492 -1.1540  0.4084
  577MOL0     H79621   8.017   1.236  11.487 -2.2430  0.2398  2.7254
  577MOL0     H79622   7.962   1.357  11.887 -1.0652  0.3231 -1.0346
  577MOL0     H79623   8.127   1.717  11.300  0.0251  0.9834  0.5536
  577MOL0     H79624   8.215   1.912  11.030 -2.7865  0.6621 -1.5089
  577MOL0     H79625   8.283   1.761  10.980  2.2590  3.0580 -0.4007
  577MOL0     H79626   8.132   1.763  11.066  0.5719 -0.6698  0.9699
  578MOL0     O79627   0.280   6.463  10.904  0.6450  0.4534  1.2017
  578MOL0     C79628   0.330   6.399  10.997  0.2092 -0.1926  0.0543
  578MOL0     O79629   0.368   6.267  10.990 -0.0798 -0.4244 -0.2207
  578MOL0     C79630   0.370   6.192  10.869 -0.1072  0.1024 -0.3282
  578MOL0     C79631   0.269   6.193  10.771  0.2913 -0.1398  0.8260
  578MOL0     C79632   0.274   6.124  10.652 -0.3859  0.2634 -0.1459
  578MOL0     C79633   0.391   6.054  10.624 -0.5833  0.2347 -0.1296
  578MOL0     O79634   0.414   5.982  10.505  0.0415  0.5331 -0.8889
  578MOL0     C79635   0.311   5.897  10.460  0.3483 -0.2858  0.0266
  578MOL0     C79636   0.348   5.773  10.380 -0.0322 -0.4480 -0.4047
  578MOL0     C79637   0.430   5.803  10.253 -0.1580  0.5173  0.7390
  578MOL0     C79638   0.416   5.697  10.141  0.7004  0.3246  0.2034
  578MOL0     C79639   0.285   5.691  10.058  0.7071  0.2175  0.2952
  578MOL0     C79640   0.303   5.691   9.899  0.4513 -0.5443  0.2664
  578MOL0     C79641   0.286   5.558   9.829 -0.2579 -0.5697 -0.9793
  578MOL0     C79642   0.380   5.449   9.894  0.0111 -0.1109  0.6941
  578MOL0     N79643   0.371   5.324   9.822 -0.0748 -0.4171  0.3049
  578MOL0     C79644   0.384   5.297   9.687  0.3024  0.3647 -0.2214
  578MOL0     C79645   0.356   5.162   9.663  0.1637  0.0037  0.2752
  578MOL0     C79646   0.350   5.080   9.534  0.3028  0.4530 -0.1522
  578MOL0     C79647   0.212   5.021   9.512  0.5011  0.2559  0.5186
  578MOL0     C79648   0.098   5.126   9.491  0.4664  0.0408 -0.2822
  578MOL0     C79649   0.112   5.192   9.358  0.0506 -0.2365 -0.1993
  578MOL0     O79650   0.078   5.100   9.259 -0.4330 -0.3222 -0.7050
  578MOL0     C79651  -0.056   5.091   9.234 -1.0709  0.3261 -0.0994
  578MOL0     C79652  -0.144   5.197   9.213  0.0555  1.7657  0.4063
  578MOL0     C79653  -0.288   5.185   9.192  0.2878  0.5907  0.0862
  578MOL0     C79654  -0.366   5.311   9.205 -0.6298  0.2880  0.2004
  578MOL0     C79655  -0.335   5.058   9.166  0.3121  0.2362 -0.0774
  578MOL0     C79656  -0.473   5.041   9.117 -0.1727 -0.5163  0.8508
  578MOL0     O79657  -0.520   5.144   9.050  0.7220  0.3988  1.3563
  578MOL0     C79658  -0.647   5.142   8.994 -0.8689 -0.1006 -0.7208
  578MOL0     C79659  -0.663   5.154   8.861 -0.6331 -0.1956 -0.2916
  578MOL0     C79660  -0.788   5.149   8.803  0.2411 -0.4470  0.3234
  578MOL0     C79661  -0.903   5.130   8.883 -0.2814  0.2930 -0.9991
  578MOL0     O79662  -1.027   5.140   8.821 -0.3677  0.1928  1.0000
  578MOL0     C79663  -1.144   5.085   8.883 -0.5874  0.6750 -0.0374
  578MOL0     C79664  -1.256   5.104   8.781  0.0063  0.1544 -0.3447
  578MOL0     C79665  -1.390   5.042   8.813 -1.1465  0.3478  0.8485
  578MOL0     C79666  -1.384   4.888   8.785 -0.5877  0.6084 -0.0268
  578MOL0     C79667  -1.507   4.829   8.841 -0.1146 -0.7014 -0.1075
  578MOL0     C79668  -1.498   4.694   8.900  0.7091 -0.6008 -0.3665
  578MOL0     C79669  -1.632   4.659   8.957  0.3725  0.7598 -0.2793
  578MOL0     C79670  -1.638   4.534   9.048  0.4518 -0.7746 -0.4945
  578MOL0    Cl79671  -1.486   4.509   9.142  0.1494  0.1745 -0.4295
  578MOL0     C79672  -0.882   5.112   9.020  0.3852  0.8901 -0.0019
  578MOL0     C79673  -0.752   5.112   9.080 -0.1073 -0.0283  0.5594
  578MOL0     O79674  -0.524   4.929   9.129 -0.0936 -0.0827 -0.4340
  578MOL0     C79675  -0.244   4.948   9.166 -0.6231 -0.1398 -0.1812
  578MOL0     C79676  -0.108   4.967   9.202  0.3061  0.2816 -1.4948
  578MOL0     N79677   0.336   5.114   9.792 -0.5640  0.1222 -0.4596
  578MOL0     N79678   0.351   5.208   9.884  0.9481  0.7041 -0.0882
  578MOL0     C79679   0.490   6.044  10.717 -0.1362 -0.4042 -0.5058
  578MOL0     C79680   0.480   6.105  10.846  0.0107  0.7915 -0.2119
  578MOL0     C79681   0.345   6.457  11.131  0.4860  0.2479 -0.7028
  578MOL0     C79682   0.221   6.507  11.184  0.6298 -0.0636 -0.1619
  578MOL0     C79683   0.215   6.555  11.318 -0.1352  0.1548 -0.2193
  578MOL0     C79684   0.333   6.566  11.394  0.6757 -0.0875 -0.2822
  578MOL0     O79685   0.324   6.619  11.522  0.2198 -0.7002 -0.5239
  578MOL0     C79686   0.424   6.714  11.571 -0.1428  0.1692  0.1119
  578MOL0     C79687   0.444   6.833  11.487 -0.4152  0.0617 -0.1548
  578MOL0     C79688   0.317   6.903  11.444  0.0058 -0.0362  0.5361
  578MOL0     C79689   0.335   7.022  11.335  0.0572  0.2870 -0.1414
  578MOL0     C79690   0.421   7.121  11.404  0.8137  1.0330  0.7160
  578MOL0     C79691   0.500   7.187  11.461  0.1989  0.3522  0.5005
  578MOL0     C79692   0.454   6.532  11.337 -0.6471  0.3156 -0.2709
  578MOL0     C79693   0.460   6.468  11.212  0.0284  0.1440  0.2695
  578MOL0     C79694   0.597   6.408  11.168  1.2689 -0.6748  0.1145
  578MOL0     H79695   0.180   6.248  10.801  0.3480  1.0440 -1.0616
  578MOL0     H79696   0.194   6.131  10.579  0.5944  3.3795 -1.0777
  578MOL0     H79697   0.252   5.965  10.399  0.8973 -1.8890 -2.4329
  578MOL0     H79698   0.248   5.861  10.542 -0.0579 -0.4043 -0.3372
  578MOL0     H79699   0.398   5.703  10.448 -1.0922 -0.3940  0.4595
  578MOL0     H79700   0.259   5.718  10.347  1.1323 -5.2767  3.2761
  578MOL0     H79701   0.399   5.902  10.219  1.1857  0.0244 -2.2015
  578MOL0     H79702   0.536   5.810  10.277 -0.1960  0.2468  0.9872
  578MOL0     H79703   0.502   5.703  10.074 -1.2691  0.0758 -2.4843
  578MOL0     H79704   0.429   5.600  10.189 -1.2886  0.0949  0.3579
  578MOL0     H79705   0.221   5.772  10.092  0.9594  0.0598  1.1707
  578MOL0     H79706   0.220   5.614  10.101  1.0419  0.2925  0.9408
  578MOL0     H79707   0.231   5.761   9.857  2.5563  1.9630  0.5809
  578MOL0     H79708   0.403   5.731   9.877 -0.3108 -0.2710 -3.1921
  578MOL0     H79709   0.311   5.582   9.725 -0.7278 -0.4231 -1.0592
  578MOL0     H79710   0.187   5.512   9.825 -0.4567 -0.1658 -0.7840
  578MOL0     H79711   0.479   5.487   9.921 -0.9845  1.1909  2.8020
  578MOL0     H79712   0.333   5.420   9.989 -2.1272  0.4392 -0.1422
  578MOL0     H79713   0.397   5.376   9.613  0.4752  1.3272  0.8111
  578MOL0     H79714   0.426   5.002   9.547  0.6028  0.6333 -0.7972
  578MOL0     H79715   0.363   5.150   9.452 -1.3010  0.1988 -0.6648
  578MOL0     H79716   0.212   4.958   9.422  3.4793  0.0298  0.5819
  578MOL0     H79717   0.187   4.966   9.603 -1.5837  1.9726  1.0652
  578MOL0     H79718   0.006   5.066   9.484  1.3704 -1.2414 -1.7343
  578MOL0     H79719   0.088   5.195   9.575 -2.6128 -1.1257  0.4608
  578MOL0     H79720   0.054   5.284   9.356 -0.2322 -0.3799  1.0965
  578MOL0     H79721   0.212   5.227   9.329  0.4583 -0.2731  1.1135
  578MOL0     H79722  -0.108   5.298   9.227 -0.2654  1.8383  0.6971
  578MOL0     H79723  -0.353   5.370   9.115  1.5097 -2.0124 -1.1309
  578MOL0     H79724  -0.318   5.378   9.276 -0.4397  1.0009 -0.5970
  578MOL0     H79725  -0.472   5.295   9.230 -0.0519  1.2147  3.8595
  578MOL0     H79726  -0.570   5.167   8.807 -0.1809 -1.0451  0.2623
  578MOL0     H79727  -0.797   5.157   8.695  1.2295  0.1511  0.2675
  578MOL0     H79728  -1.123   4.979   8.897  0.3700  0.6221 -1.5886
  578MOL0     H79729  -1.171   5.124   8.981  0.7869 -2.1228  1.5722
  578MOL0     H79730  -1.266   5.211   8.763  0.8995  0.0338 -1.7350
  578MOL0     H79731  -1.219   5.062   8.687  1.7423 -0.5010  0.5583
  578MOL0     H79732  -1.476   5.084   8.759 -0.0869 -1.3496 -2.4152
  578MOL0     H79733  -1.408   5.052   8.920 -0.4050 -3.3160  1.4247
  578MOL0     H79734  -1.298   4.847   8.838 -0.8841  0.9514  0.7462
  578MOL0     H79735  -1.384   4.873   8.677  0.8552  0.4170 -0.0166
  578MOL0     H79736  -1.542   4.894   8.921  2.0282 -2.4480  2.3926
  578MOL0     H79737  -1.593   4.817   8.774 -2.0863  0.5925  2.0540
  578MOL0     H79738  -1.424   4.706   8.980 -0.2242  2.3848  0.1659
  578MOL0     H79739  -1.486   4.618   8.822 -1.9001 -1.9106  0.4028
  578MOL0     H79740  -1.702   4.656   8.873  1.6774 -1.5899 -1.3863
  578MOL0     H79741  -1.663   4.743   9.020 -1.9572 -0.5794  0.4571
  578MOL0     H79742  -1.635   4.448   8.981 -1.3708 -0.2174 -1.3692
  578MOL0     H79743  -1.733   4.529   9.104  1.3285  1.1710  1.3000
  578MOL0     H79744  -0.973   5.089   9.073 -0.5737  0.5098 -1.7451
  578MOL0     H79745  -0.757   5.101   9.188 -1.8081 -1.1457  0.4139
  578MOL0     H79746  -0.277   4.850   9.133 -1.2121 -0.3763  1.0712
  578MOL0     H79747  -0.045   4.879   9.204 -1.2512 -0.8768 -0.2948
  578MOL0     H79748   0.571   5.974  10.695  0.6717  1.0166 -2.3813
  578MOL0     H79749   0.550   6.088  10.926  0.2358 -1.4370 -0.8270
  578MOL0     H79750   0.123   6.506  11.137 -1.9058 -1.6015  4.4523
  578MOL0     H79751   0.130   6.604  11.362 -0.3801  2.6243 -3.0971
  578MOL0     H79752   0.387   6.750  11.667 -0.0410  2.4368 -0.6436
  578MOL0     H79753   0.519   6.670  11.601 -0.1089  0.0181 -0.2111
  578MOL0     H79754   0.496   6.798  11.397  0.8975  0.1267  0.5506
  578MOL0     H79755   0.521   6.893  11.537 -2.0220  0.3914  2.0423
  578MOL0     H79756   0.256   6.831  11.388 -1.8750  0.5166  1.8075
  578MOL0     H79757   0.260   6.951  11.523  2.3146  2.1988  0.9503
  578MOL0     H79758   0.236   7.063  11.317 -0.7205 -1.2330  0.5157
  578MOL0     H79759   0.383   6.990  11.242 -1.6265  0.0153 -0.9393
  578MOL0     H79760   0.580   7.239  11.510 -1.9347  4.0154  0.4579
  578MOL0     H79761   0.544   6.532  11.398  0.9506 -0.0358 -2.4937
  578MOL0     H79762   0.618   6.439  11.066  4.2526  2.0529  1.4040
  578MOL0     H79763   0.670   6.441  11.243 -0.4218 -0.8590  1.9272
  578MOL0     H79764   0.597   6.298  11.175  1.4747 -0.8738 -2.3126
  579MOL0     O79765   5.172   2.300   6.605  0.5737 -0.1438 -0.3822
  579MOL0     C79766   5.227   2.241   6.707  0.5607  0.2387 -0.0908
  579MOL0     O79767   5.345   2.173   6.699  0.2971  0.2189 -0.0009
  579MOL0     C79768   5.386   2.141   6.568  0.7601 -0.9050  0.0954
  579MOL0     C79769   5.298   2.104   6.467 -0.0469  0.2848  0.7292
  579MOL0     C79770   5.349   2.078   6.341  0.2633 -0.2496 -0.2398
  579MOL0     C79771   5.478   2.113   6.302  0.1409  0.3644  0.4333
  579MOL0     O79772   5.507   2.099   6.167  0.0830  0.3021  0.1794
  579MOL0     C79773   5.603   2.186   6.114  0.3582  0.2981 -0.7331
  579MOL0     C79774   5.578   2.171   5.960  0.3478  0.6032 -0.5170
  579MOL0     C79775   5.676   2.261   5.879 -0.3708 -0.1660  0.2617
  579MOL0     C79776   5.649   2.260   5.727 -0.7009  0.0217  0.3123
  579MOL0     C79777   5.732   2.376   5.656  0.1778 -0.5333  0.2814
  579MOL0     C79778   5.681   2.419   5.511  1.2487 -1.1625 -0.5386
  579MOL0     C79779   5.780   2.508   5.436 -0.4235  0.4107  0.6600
  579MOL0     C79780   5.773   2.661   5.448 -0.0523 -1.0862  0.1434
  579MOL0     N79781   5.691   2.731   5.348 -0.4800  0.0650  1.1539
  579MOL0     C79782   5.731   2.731   5.215 -0.0110 -0.3246  0.3472
  579MOL0     C79783   5.645   2.794   5.141  0.0694 -0.4837 -1.3785
  579MOL0     C79784   5.648   2.820   4.997 -0.6895  0.1121  0.2739
  579MOL0     C79785   5.759   2.913   4.951  0.0736  0.2506 -0.0980
  579MOL0     C79786   5.703   3.057   4.902  0.1935  0.7227 -0.0367
  579MOL0     C79787   5.805   3.144   4.835 -0.3746 -0.9297  1.2128
  579MOL0     O79788   5.760   3.272   4.793  0.2939 -0.3369 -0.6154
  579MOL0     C79789   5.686   3.272   4.681 -0.6838  0.1016 -0.0357
  579MOL0     C79790   5.732   3.229   4.556 -0.6901 -1.0206 -0.7337
  579MOL0     C79791   5.662   3.245   4.444 -1.4113  0.4874  0.0538
  579MOL0     C79792   5.731   3.200   4.316  0.3556 -0.5335  0.4654
  579MOL0     C79793   5.527   3.273   4.450 -0.0892  0.8941  0.0644
  579MOL0     C79794   5.435   3.271   4.336  0.1477  0.3217  0.3642
  579MOL0     O79795   5.313   3.227   4.373  0.1077  0.4795 -0.2204
  579MOL0     C79796   5.198   3.240   4.291 -0.1165 -0.2473 -0.0063
  579MOL0     C79797   5.080   3.202   4.359 -0.3804 -0.1853  0.8763
  579MOL0     C79798   4.958   3.202   4.288  0.6614  0.9009  0.3273
  579MOL0     C79799   4.948   3.241   4.156 -0.8867 -0.3203  0.4161
  579MOL0     O79800   4.836   3.231   4.081 -0.0075 -1.2975  0.1666
  579MOL0     C79801   4.721   3.280   4.149 -0.0576 -1.0120  0.3811
  579MOL0     C79802   4.595   3.286   4.043 -0.2135 -0.1563  0.4120
  579MOL0     C79803   4.479   3.241   4.104  0.7056 -0.6763 -0.3557
  579MOL0     C79804   4.461   3.091   4.077  0.7333  0.0640  0.3077
  579MOL0     C79805   4.324   3.044   4.158 -0.2543  0.5415  0.2534
  579MOL0     C79806   4.293   2.906   4.107 -0.6301  0.1866  0.4284
  579MOL0     C79807   4.240   2.811   4.211 -0.5558  0.4327  0.9868
  579MOL0     C79808   4.339   2.754   4.318  1.2916  0.1247 -0.9259
  579MOL0    Cl79809   4.354   2.862   4.465 -0.2609  0.1855  0.2390
  579MOL0     C79810   5.069   3.282   4.093  0.7889 -0.8884 -0.2332
  579MOL0     C79811   5.196   3.286   4.163 -0.1490 -0.3127  0.2210
  579MOL0     O79812   5.480   3.291   4.219  0.9882  0.1998  0.2271
  579MOL0     C79813   5.477   3.315   4.576 -0.1839  0.7619 -0.9630
  579MOL0     C79814   5.560   3.336   4.691 -0.9394  0.9208 -0.6965
  579MOL0     N79815   5.542   2.843   5.222 -0.6862  0.1099 -0.2937
  579MOL0     N79816   5.577   2.802   5.347  0.0806  0.4342  0.1521
  579MOL0     C79817   5.560   2.171   6.395  0.5411 -0.0693  0.2387
  579MOL0     C79818   5.515   2.187   6.533 -0.5523  0.6984  0.1377
  579MOL0     C79819   5.169   2.234   6.842  0.1826  0.4735 -0.2381
  579MOL0     C79820   5.239   2.181   6.954  0.2028 -0.1361  0.3729
  579MOL0     C79821   5.193   2.181   7.075  0.4097  0.1362 -0.1478
  579MOL0     C79822   5.066   2.235   7.109 -0.6500  1.2944 -0.1931
  579MOL0     O79823   5.039   2.243   7.244  0.3902 -0.1122  0.1476
  579MOL0     C79824   4.955   2.343   7.292  0.6663 -1.0873  0.7960
  579MOL0     C79825   4.824   2.287   7.334 -0.2524 -0.8451  0.3844
  579MOL0     C79826   4.844   2.193   7.447 -0.4121  0.5179 -0.2678
  579MOL0     C79827   4.727   2.091   7.447 -0.2472 -0.2958 -0.3425
  579MOL0     C79828   4.692   2.033   7.317  0.4055  0.3110  0.7191
  579MOL0     C79829   4.649   1.993   7.211 -0.5243  0.6132 -1.0688
  579MOL0     C79830   4.988   2.277   7.003 -0.2802  0.2558 -0.0980
  579MOL0     C79831   5.039   2.285   6.873  0.5394  0.3704  0.1238
  579MOL0     C79832   4.955   2.348   6.769 -0.3229  1.1954 -0.0291
  579MOL0     H79833   5.197   2.086   6.501 -0.0992 -2.2204 -0.4989
  579MOL0     H79834   5.278   2.043   6.266 -1.1118  1.7464  0.0521
  579MOL0     H79835   5.704   2.146   6.131 -0.3243 -1.0324  0.4066
  579MOL0     H79836   5.584   2.289   6.146 -1.9162  0.1277 -1.3620
  579MOL0     H79837   5.604   2.067   5.937 -2.1974 -0.6651  1.7480
  579MOL0     H79838   5.474   2.178   5.925  0.3437 -0.5616 -0.7758
  579MOL0     H79839   5.667   2.363   5.918  1.5649  1.0804 -2.2496
  579MOL0     H79840   5.783   2.235   5.878 -0.7897 -2.1311 -1.2475
  579MOL0     H79841   5.676   2.162   5.686  2.6516  0.4094  1.3247
  579MOL0     H79842   5.542   2.276   5.711 -0.8565  1.7506  2.7422
  579MOL0     H79843   5.840   2.357   5.659  0.6037  0.2835 -3.7307
  579MOL0     H79844   5.724   2.464   5.720 -0.6039  0.1898 -0.7694
  579MOL0     H79845   5.673   2.333   5.444  1.7595 -0.3416 -1.6872
  579MOL0     H79846   5.575   2.449   5.513  0.6160 -3.2138 -0.5363
  579MOL0     H79847   5.774   2.494   5.327 -0.8284  0.0092  0.7296
  579MOL0     H79848   5.881   2.466   5.446 -0.0896  0.8661 -0.5716
  579MOL0     H79849   5.734   2.696   5.544 -0.2726  2.4209 -1.0844
  579MOL0     H79850   5.872   2.701   5.426  0.5205 -2.8582 -0.7165
  579MOL0     H79851   5.822   2.686   5.179 -0.3541 -0.1006 -0.8498
  579MOL0     H79852   5.550   2.854   4.961 -0.8769 -1.6762 -1.0135
  579MOL0     H79853   5.658   2.725   4.944  0.6124  0.8551 -0.8937
  579MOL0     H79854   5.840   2.905   5.024 -1.3487 -3.2054  1.3772
  579MOL0     H79855   5.796   2.859   4.864 -1.7379  0.7468 -1.2311
  579MOL0     H79856   5.621   3.051   4.830 -1.0287  1.6662  1.2133
  579MOL0     H79857   5.651   3.104   4.986 -0.7553  1.3706 -0.9568
  579MOL0     H79858   5.892   3.163   4.899  0.0675 -2.5383  1.1390
  579MOL0     H79859   5.846   3.089   4.750 -0.6638 -0.3404  0.6841
  579MOL0     H79860   5.835   3.196   4.553  0.1958  1.4501  0.3142
  579MOL0     H79861   5.689   3.102   4.295 -0.0313 -0.4025  0.6061
  579MOL0     H79862   5.841   3.193   4.315  0.5829  1.9068 -1.3098
  579MOL0     H79863   5.700   3.262   4.231 -0.9405  0.3132  1.5038
  579MOL0     H79864   5.067   3.188   4.465  2.7097  2.4824  1.7647
  579MOL0     H79865   4.869   3.176   4.343  0.7427  3.1501  1.6445
  579MOL0     H79866   4.701   3.211   4.231 -0.8938 -1.3721 -0.1122
  579MOL0     H79867   4.737   3.379   4.192  0.4762  0.5573 -3.0356
  579MOL0     H79868   4.577   3.387   4.005 -2.5332  0.0580  1.8660
  579MOL0     H79869   4.615   3.220   3.958  1.4333 -1.1562  1.5247
  579MOL0     H79870   4.399   3.308   4.071  1.9563  1.4793  0.7390
  579MOL0     H79871   4.488   3.263   4.211 -2.6968  1.5091 -0.3634
  579MOL0     H79872   4.540   3.023   4.112 -1.3751 -2.0805  1.1912
  579MOL0     H79873   4.440   3.066   3.973 -1.6269  0.4886  0.6312
  579MOL0     H79874   4.348   3.043   4.265  3.6131 -2.3693 -0.4335
  579MOL0     H79875   4.229   3.092   4.130  0.0120 -0.0333 -1.7736
  579MOL0     H79876   4.385   2.861   4.069 -0.1190  1.9525 -0.5159
  579MOL0     H79877   4.221   2.930   4.028  0.8946 -0.3317 -1.1625
  579MOL0     H79878   4.226   2.717   4.157  0.5236  2.0031 -2.2818
  579MOL0     H79879   4.147   2.858   4.243 -1.1288 -0.1640  0.2119
  579MOL0     H79880   4.437   2.741   4.272 -0.1464  0.7822 -4.4781
  579MOL0     H79881   4.312   2.655   4.357  0.3714  0.7267  0.0212
  579MOL0     H79882   5.069   3.319   3.991 -0.1736 -0.8757 -0.2390
  579MOL0     H79883   5.278   3.324   4.102 -1.2329 -0.4660 -1.3841
  579MOL0     H79884   5.374   3.346   4.586 -0.4883  0.8919 -3.7929
  579MOL0     H79885   5.530   3.388   4.782 -0.0857 -0.5573  0.4987
  579MOL0     H79886   5.664   2.200   6.386  0.8207 -1.2766 -0.6087
  579MOL0     H79887   5.589   2.243   6.589  2.7889  0.7023 -3.8121
  579MOL0     H79888   5.340   2.145   6.935  0.4784 -0.0058  1.5158
  579MOL0     H79889   5.250   2.138   7.157  0.9163  0.2611 -0.4310
  579MOL0     H79890   4.991   2.390   7.384  0.0759 -0.5513  0.7568
  579MOL0     H79891   4.940   2.421   7.217 -3.5802 -2.2082  0.2197
  579MOL0     H79892   4.783   2.252   7.239  0.2772  3.2642 -1.5954
  579MOL0     H79893   4.767   2.373   7.370  0.9131  0.1738 -0.1329
  579MOL0     H79894   4.938   2.141   7.426 -1.2454 -0.2496 -2.4283
  579MOL0     H79895   4.853   2.251   7.539  0.3305  1.0246 -0.6417
  579MOL0     H79896   4.634   2.129   7.491 -0.0543 -1.0271  0.7398
  579MOL0     H79897   4.753   2.008   7.514 -0.8311 -1.4402 -1.4964
  579MOL0     H79898   4.597   1.951   7.128  1.1107  3.8181 -3.9609
  579MOL0     H79899   4.888   2.316   7.020 -0.5377 -0.6755  0.6238
  579MOL0     H79900   5.013   2.435   6.737  0.3172  0.8714  0.2495
  579MOL0     H79901   4.930   2.282   6.685 -2.7760  2.4633 -0.3824
  579MOL0     H79902   4.855   2.373   6.806 -0.2856 -1.0967  1.8613
  580MOL0     O79903   1.014   0.139   7.194  0.0734 -0.9538  0.1082
  580MOL0     C79904   0.956   0.217   7.263  0.6556  0.5358 -0.1493
  580MOL0     O79905   0.839   0.185   7.324 -0.4243  0.0421 -0.1694
  580MOL0     C79906   0.790   0.062   7.312  0.4853  0.2223  0.2219
  580MOL0     C79907   0.750   0.013   7.191 -0.4674 -0.2446 -0.2098
  580MOL0     C79908   0.700  -0.119   7.179  0.2684 -0.2506  0.8230
  580MOL0     C79909   0.686  -0.199   7.294 -0.3432 -0.2592 -0.2650
  580MOL0     O79910   0.612  -0.311   7.293 -0.7719 -0.1407 -0.8337
  580MOL0     C79911   0.689  -0.429   7.299 -0.2943 -0.3363 -0.8896
  580MOL0     C79912   0.607  -0.566   7.288 -0.5704  0.3982 -0.5100
  580MOL0     C79913   0.702  -0.683   7.236  0.0650  0.0172  0.6865
  580MOL0     C79914   0.713  -0.673   7.083  0.2987  1.3762  0.1836
  580MOL0     C79915   0.733  -0.819   7.046  0.0431 -0.4297 -0.4412
  580MOL0     C79916   0.596  -0.898   7.035 -0.0011 -0.4568  0.1988
  580MOL0     C79917   0.606  -1.004   6.923 -1.0588  0.5298 -0.2903
  580MOL0     C79918   0.479  -1.083   6.919 -0.4588  0.5433  0.3376
  580MOL0     N79919   0.496  -1.173   6.805 -0.5004 -0.1082  0.5697
  580MOL0     C79920   0.570  -1.279   6.795  0.1878  0.3565  0.8274
  580MOL0     C79921   0.587  -1.314   6.664 -1.4698 -0.2425 -0.0396
  580MOL0     C79922   0.667  -1.439   6.616 -0.6112 -0.3271 -0.6423
  580MOL0     C79923   0.810  -1.412   6.551 -0.6297 -0.5189  0.8729
  580MOL0     C79924   0.926  -1.367   6.657 -0.2349 -0.1055  0.5762
  580MOL0     C79925   1.066  -1.390   6.597 -0.3625 -0.3418  0.6886
  580MOL0     O79926   1.173  -1.323   6.660 -1.0658 -0.6521  0.3249
  580MOL0     C79927   1.300  -1.366   6.630  0.0813  0.1165  0.4506
  580MOL0     C79928   1.337  -1.501   6.671  0.5731 -0.5147 -0.3431
  580MOL0     C79929   1.462  -1.545   6.657 -0.4914  0.6327  1.5130
  580MOL0     C79930   1.489  -1.695   6.669  0.5331  0.1032 -1.3720
  580MOL0     C79931   1.565  -1.460   6.614  0.4457 -0.3042 -0.4033
  580MOL0     C79932   1.712  -1.496   6.603 -0.8508  0.3101 -0.5001
  580MOL0     O79933   1.805  -1.408   6.654 -0.2806 -0.1894  0.3214
  580MOL0     C79934   1.936  -1.448   6.670 -0.0701  0.7652  0.9741
  580MOL0     C79935   2.019  -1.383   6.577 -0.2869 -0.0975 -0.2767
  580MOL0     C79936   2.159  -1.408   6.580  0.1986  0.6515  0.0176
  580MOL0     C79937   2.207  -1.516   6.661 -0.2865  1.0086 -0.2288
  580MOL0     O79938   2.340  -1.555   6.668  0.4858 -0.0090 -0.1120
  580MOL0     C79939   2.425  -1.565   6.548  0.1796 -0.7985  0.2141
  580MOL0     C79940   2.563  -1.586   6.600 -0.4094  0.2085  0.6593
  580MOL0     C79941   2.657  -1.638   6.491 -0.0822 -0.5179 -0.1660
  580MOL0     C79942   2.800  -1.667   6.549  0.1589 -1.3107 -0.5348
  580MOL0     C79943   2.887  -1.711   6.426  0.7573 -0.2109 -0.4065
  580MOL0     C79944   3.029  -1.753   6.479  0.3467 -0.6553 -0.0761
  580MOL0     C79945   3.123  -1.774   6.363  0.7539  0.0730 -0.2165
  580MOL0     C79946   3.103  -1.894   6.261 -0.0634 -0.4917  0.6086
  580MOL0    Cl79947   3.116  -2.044   6.348  0.1288  0.2968 -0.1341
  580MOL0     C79948   2.120  -1.567   6.757 -0.2861  0.5519 -0.4012
  580MOL0     C79949   1.982  -1.540   6.765  0.4170 -0.8919  0.0077
  580MOL0     O79950   1.739  -1.606   6.555  0.0541 -0.3336 -0.0554
  580MOL0     C79951   1.530  -1.327   6.582  0.6115  0.3241  1.4916
  580MOL0     C79952   1.402  -1.283   6.582  0.3501  0.1747 -0.3589
  580MOL0     N79953   0.518  -1.220   6.596  0.2328 -0.4496  0.4298
  580MOL0     N79954   0.470  -1.140   6.676  0.2439 -0.6110 -0.3910
  580MOL0     C79955   0.734  -0.157   7.414 -0.5790 -0.1357 -0.7571
  580MOL0     C79956   0.794  -0.030   7.417  0.1928 -0.3761 -0.2756
  580MOL0     C79957   1.023   0.333   7.310 -0.5483  0.3091  0.1217
  580MOL0     C79958   1.009   0.380   7.432  0.2921  0.6286 -0.3361
  580MOL0     C79959   1.085   0.477   7.490 -0.1968  0.0749  0.5768
  580MOL0     C79960   1.179   0.546   7.419 -0.1492  0.4990  0.4275
  580MOL0     O79961   1.245   0.638   7.490  0.0620  0.2813  0.1034
  580MOL0     C79962   1.375   0.659   7.452 -0.1717 -0.1686 -0.9064
  580MOL0     C79963   1.445   0.743   7.568  0.4756 -0.2416 -0.3634
  580MOL0     C79964   1.600   0.726   7.566  0.5997 -0.4793 -0.7695
  580MOL0     C79965   1.655   0.753   7.705 -0.4017 -0.3406  0.0894
  580MOL0     C79966   1.653   0.887   7.749 -0.5426 -0.3300  0.5566
  580MOL0     C79967   1.653   1.005   7.787  1.2140  0.7214  1.0199
  580MOL0     C79968   1.184   0.501   7.282 -0.0452 -0.9968 -1.1514
  580MOL0     C79969   1.114   0.400   7.227 -0.2216  0.8703  0.9368
  580MOL0     C79970   1.130   0.382   7.081  0.5789 -0.1618 -0.4139
  580MOL0     H79971   0.753   0.076   7.102  0.0345  4.3550  2.7526
  580MOL0     H79972   0.668  -0.151   7.080  3.2489  1.1247 -0.7364
  580MOL0     H79973   0.752  -0.436   7.388 -1.0354 -1.0698 -0.4092
  580MOL0     H79974   0.764  -0.439   7.220 -0.6819 -1.1948 -1.1540
  580MOL0     H79975   0.579  -0.593   7.391  1.6255 -1.0047 -0.2088
  580MOL0     H79976   0.514  -0.552   7.233  0.0391 -0.8592 -1.8971
  580MOL0     H79977   0.798  -0.682   7.287  0.6408  0.4299 -0.3755
  580MOL0     H79978   0.652  -0.778   7.258 -1.3567  0.6572  0.3757
  580MOL0     H79979   0.628  -0.621   7.037 -0.9955  0.6293  1.6381
  580MOL0     H79980   0.809  -0.635   7.046  1.3342 -3.6021 -3.2673
  580MOL0     H79981   0.797  -0.863   7.123  0.8836  0.2879 -0.7274
  580MOL0     H79982   0.768  -0.819   6.943 -0.8425  2.0137 -0.8270
  580MOL0     H79983   0.572  -0.948   7.129 -0.8754 -1.9428 -0.7698
  580MOL0     H79984   0.521  -0.830   6.993  1.4648  0.4515 -1.0909
  580MOL0     H79985   0.689  -1.071   6.946 -0.5108  0.6163 -1.8793
  580MOL0     H79986   0.597  -0.939   6.836 -3.2414  3.5884  1.9662
  580MOL0     H79987   0.468  -1.134   7.015  1.6608 -1.8098 -0.5575
  580MOL0     H79988   0.395  -1.018   6.893 -2.0111 -1.8514 -1.0338
  580MOL0     H79989   0.612  -1.336   6.877 -4.1355 -2.8907  1.1094
  580MOL0     H79990   0.611  -1.496   6.540 -0.4562 -3.1508  1.1998
  580MOL0     H79991   0.680  -1.511   6.698  1.4243 -0.9227 -1.4259
  580MOL0     H79992   0.856  -1.500   6.506  0.0573 -0.0304  0.6019
  580MOL0     H79993   0.803  -1.323   6.487 -1.9211  0.4706  2.3054
  580MOL0     H79994   0.918  -1.264   6.693  0.4582 -0.1531  0.8894
  580MOL0     H79995   0.916  -1.424   6.750  2.4437  1.3391  1.8739
  580MOL0     H79996   1.082  -1.498   6.588  0.7166 -0.1588  0.2518
  580MOL0     H79997   1.057  -1.348   6.496  2.3526 -1.5365 -0.1499
  580MOL0     H79998   1.268  -1.570   6.717 -0.1945 -1.8272 -3.2175
  580MOL0     H79999   1.398  -1.751   6.691  0.9314 -0.9278 -2.2523
  580MOL0     H80000   1.563  -1.715   6.747 -1.5447 -0.5462  0.5312
  580MOL0     H80001   1.520  -1.739   6.574 -0.0247  2.2702 -2.6171
  580MOL0     H80002   1.975  -1.305   6.516 -3.3615  0.7544  2.7182
  580MOL0     H80003   2.227  -1.351   6.518  1.9340 -1.8302 -0.5013
  580MOL0     H80004   2.401  -1.648   6.481  0.5449 -2.6154  2.2527
  580MOL0     H80005   2.405  -1.469   6.499 -1.6129 -0.7667  0.9068
  580MOL0     H80006   2.608  -1.506   6.661  1.4350  1.3650 -2.0067
  580MOL0     H80007   2.557  -1.668   6.672  1.1662  0.4809  1.1518
  580MOL0     H80008   2.659  -1.566   6.409  2.9391  2.7594  2.4658
  580MOL0     H80009   2.619  -1.729   6.445 -1.6346  1.6939 -3.6734
  580MOL0     H80010   2.790  -1.737   6.634 -1.7700  0.6881  0.9967
  580MOL0     H80011   2.822  -1.567   6.588 -4.1280 -1.6003  3.6342
  580MOL0     H80012   2.850  -1.799   6.374  0.4544 -1.7973  2.3085
  580MOL0     H80013   2.903  -1.635   6.349 -0.1868 -1.2943 -1.7336
  580MOL0     H80014   3.015  -1.846   6.533 -1.2336  0.0840  0.8745
  580MOL0     H80015   3.070  -1.680   6.549  1.5862 -0.4434 -0.9876
  580MOL0     H80016   3.225  -1.777   6.401 -0.4536  0.6636  3.4928
  580MOL0     H80017   3.112  -1.691   6.292  1.2034 -1.6811 -2.4449
  580MOL0     H80018   3.185  -1.893   6.188 -0.0674  1.8683  0.5620
  580MOL0     H80019   3.013  -1.882   6.201  1.8622  1.0213 -2.2344
  580MOL0     H80020   2.168  -1.634   6.827 -1.0762  1.2684  0.8644
  580MOL0     H80021   1.916  -1.582   6.840  0.4757 -2.8777 -0.9828
  580MOL0     H80022   1.609  -1.264   6.541 -0.3820  0.2866 -0.6241
  580MOL0     H80023   1.378  -1.190   6.530 -1.4633 -1.4865 -2.6906
  580MOL0     H80024   0.735  -0.228   7.495 -0.2641 -1.0058 -1.5114
  580MOL0     H80025   0.833   0.008   7.511 -0.4429 -1.1150  0.3086
  580MOL0     H80026   0.928   0.344   7.495  0.7210 -3.1528 -1.6642
  580MOL0     H80027   1.062   0.494   7.595  0.2859 -2.6330  1.2043
  580MOL0     H80028   1.431   0.566   7.443  0.7205  0.4060 -1.5283
  580MOL0     H80029   1.383   0.714   7.358  1.4676 -0.9092 -1.2339
  580MOL0     H80030   1.409   0.713   7.667  1.2351  0.7897  0.2416
  580MOL0     H80031   1.424   0.849   7.551 -0.0106 -0.4663 -1.1969
  580MOL0     H80032   1.624   0.632   7.517  2.1716  0.6372 -2.2529
  580MOL0     H80033   1.636   0.796   7.490 -0.3646 -0.5508 -1.3054
  580MOL0     H80034   1.758   0.717   7.718 -0.7012 -1.3858 -0.3186
  580MOL0     H80035   1.590   0.695   7.771 -0.0971 -1.4011 -0.5103
  580MOL0     H80036   1.646   1.108   7.815 -0.0342  0.8399  0.3551
  580MOL0     H80037   1.260   0.554   7.226  0.2293 -2.5537 -2.3103
  580MOL0     H80038   1.192   0.296   7.053 -1.7377 -2.0475 -0.1591
  580MOL0     H80039   1.026   0.366   7.049 -0.0905 -1.1471  1.9999
  580MOL0     H80040   1.156   0.478   7.037  1.3321 -0.3777 -0.4599
  581MOL0     O80041   0.470   3.919   7.061 -0.3784  0.5914  1.2719
  581MOL0     C80042   0.500   4.020   6.991  0.1664  0.4445 -0.1887
  581MOL0     O80043   0.414   4.125   6.955 -0.5407 -0.7095  0.2740
  581MOL0     C80044   0.286   4.121   6.996  0.2259 -0.5460 -0.6723
  581MOL0     C80045   0.252   4.130   7.132  0.3461 -1.3864  0.5062
  581MOL0     C80046   0.121   4.110   7.166 -0.0633 -0.3362 -1.0661
  581MOL0     C80047   0.015   4.089   7.070 -0.2341  1.0904 -0.2567
  581MOL0     O80048  -0.119   4.068   7.104  0.3283  0.0767  0.8783
  581MOL0     C80049  -0.178   4.140   7.217  0.0930 -0.1000 -0.3896
  581MOL0     C80050  -0.224   4.281   7.172  0.6555  0.6957  0.2286
  581MOL0     C80051  -0.327   4.281   7.057  0.3066  0.1782  0.6073
  581MOL0     C80052  -0.363   4.422   7.022 -0.2712 -0.5856 -0.4494
  581MOL0     C80053  -0.254   4.511   6.952  0.1894 -0.6092  0.9096
  581MOL0     C80054  -0.182   4.441   6.830 -0.0696  0.3030 -0.2297
  581MOL0     C80055  -0.050   4.499   6.791  0.4632 -1.2313  0.5838
  581MOL0     C80056   0.014   4.434   6.661 -1.0489  0.5675  0.3144
  581MOL0     N80057   0.128   4.522   6.606 -0.1690  0.3246 -0.2220
  581MOL0     C80058   0.243   4.554   6.677  0.6415 -0.8507 -0.0072
  581MOL0     C80059   0.310   4.627   6.585  0.0028  0.0843 -0.0978
  581MOL0     C80060   0.439   4.691   6.604  0.0704 -0.4186  0.1994
  581MOL0     C80061   0.502   4.756   6.475  0.6110  1.0120 -0.0486
  581MOL0     C80062   0.646   4.808   6.508  0.4205 -0.8483 -0.9494
  581MOL0     C80063   0.709   4.854   6.380 -0.0663 -0.7887 -0.0314
  581MOL0     O80064   0.752   4.749   6.300  0.7106  1.3062  0.7522
  581MOL0     C80065   0.782   4.750   6.167 -0.4238  0.0468 -0.2638
  581MOL0     C80066   0.785   4.853   6.076  0.0381  0.5353 -1.0127
  581MOL0     C80067   0.825   4.844   5.946  0.6888  0.6153  0.3871
  581MOL0     C80068   0.805   4.974   5.879  1.0284 -0.2425 -0.0806
  581MOL0     C80069   0.875   4.722   5.895  0.3633  0.7093 -0.0772
  581MOL0     C80070   0.923   4.704   5.761 -0.1299 -0.5763  0.7678
  581MOL0     O80071   0.942   4.809   5.680  0.4069 -0.6190  0.2526
  581MOL0     C80072   0.926   4.778   5.547  0.4906  0.4400  0.3741
  581MOL0     C80073   1.034   4.750   5.476 -0.1251 -0.0390  0.2731
  581MOL0     C80074   1.019   4.722   5.336  0.6408 -0.2932 -0.7542
  581MOL0     C80075   0.896   4.723   5.267  0.3270  1.2778 -1.2532
  581MOL0     O80076   0.875   4.692   5.137  0.2044  0.6194 -0.1341
  581MOL0     C80077   0.989   4.643   5.066 -0.0764  0.5351  0.5657
  581MOL0     C80078   0.935   4.621   4.934 -0.0614 -0.2073  1.3337
  581MOL0     C80079   1.055   4.609   4.833 -0.0710  0.3143  0.6898
  581MOL0     C80080   1.007   4.582   4.688 -1.7089  1.0964 -1.0461
  581MOL0     C80081   1.131   4.535   4.599  0.0955  0.4340  0.5924
  581MOL0     C80082   1.074   4.511   4.462  0.0420  0.0923  0.2643
  581MOL0     C80083   1.176   4.507   4.352  0.1273  0.5076 -0.0530
  581MOL0     C80084   1.102   4.496   4.213 -0.1882 -0.7433  0.1417
  581MOL0    Cl80085   1.086   4.332   4.154  0.5133  0.2314  0.0138
  581MOL0     C80086   0.788   4.758   5.347 -0.3836  0.3962  0.3265
  581MOL0     C80087   0.805   4.802   5.481  0.4543 -0.4703 -0.6120
  581MOL0     O80088   0.945   4.583   5.734  0.0517  0.1602 -0.1053
  581MOL0     C80089   0.873   4.612   5.989  1.2188 -1.1436 -0.8224
  581MOL0     C80090   0.822   4.627   6.123  0.4171 -0.2135  0.8138
  581MOL0     N80091   0.238   4.648   6.477  0.3555  0.6767  0.4522
  581MOL0     N80092   0.128   4.587   6.489 -0.4223 -0.5338  0.4526
  581MOL0     C80093   0.046   4.097   6.936 -1.0946  0.6159 -0.0170
  581MOL0     C80094   0.184   4.113   6.901  0.2916  0.4509 -0.5116
  581MOL0     C80095   0.650   4.037   6.966  0.5220  0.2842  0.0756
  581MOL0     C80096   0.697   4.163   6.922 -0.1062  0.1907 -0.9964
  581MOL0     C80097   0.836   4.181   6.899  0.4947  0.8127  0.4204
  581MOL0     C80098   0.926   4.076   6.891  0.4992 -0.5205  0.3424
  581MOL0     O80099   1.053   4.088   6.840 -0.5200  0.1101 -0.0155
  581MOL0     C80100   1.083   4.181   6.736  0.1099 -0.1792 -0.4168
  581MOL0     C80101   1.192   4.277   6.775  0.2112  0.5940  0.3082
  581MOL0     C80102   1.316   4.204   6.822 -0.2032  0.4625  0.1529
  581MOL0     C80103   1.420   4.300   6.882 -0.5593  0.2675 -0.0718
  581MOL0     C80104   1.384   4.333   7.019  0.3457 -0.0567 -0.1324
  581MOL0     C80105   1.350   4.354   7.133 -0.3099 -0.2763 -0.4195
  581MOL0     C80106   0.888   3.955   6.941  0.5326  0.3214 -0.4026
  581MOL0     C80107   0.750   3.936   6.973 -0.1872  0.1544 -0.1940
  581MOL0     C80108   0.720   3.789   7.013  0.2214 -0.0498  1.0082
  581MOL0     H80109   0.324   4.158   7.208  1.3155 -1.8863 -0.2152
  581MOL0     H80110   0.101   4.126   7.271  0.4434 -0.4187 -0.9564
  581MOL0     H80111  -0.119   4.135   7.309  1.5873  0.9150 -1.2503
  581MOL0     H80112  -0.264   4.078   7.244 -0.7389  1.1896  0.0369
  581MOL0     H80113  -0.268   4.342   7.252 -1.1148 -1.3324  0.9182
  581MOL0     H80114  -0.135   4.332   7.134  0.7802  1.4013  1.3942
  581MOL0     H80115  -0.287   4.222   6.974 -1.9502  0.4765 -0.7784
  581MOL0     H80116  -0.423   4.234   7.080 -1.4097  1.1573 -3.5801
  581MOL0     H80117  -0.447   4.413   6.952  0.3107  2.1088 -1.6286
  581MOL0     H80118  -0.406   4.469   7.111 -0.8272 -1.1802 -0.3998
  581MOL0     H80119  -0.181   4.562   7.016  0.1617  1.1875 -0.4066
  581MOL0     H80120  -0.314   4.594   6.913 -0.5085 -0.6307  1.9067
  581MOL0     H80121  -0.158   4.341   6.865  0.5183  0.1439 -1.0807
  581MOL0     H80122  -0.257   4.428   6.752  2.2495 -0.2608 -2.4849
  581MOL0     H80123   0.016   4.509   6.878  0.6230 -0.1453  0.3479
  581MOL0     H80124  -0.062   4.603   6.759 -0.3858 -1.7159 -0.7354
  581MOL0     H80125   0.057   4.335   6.679 -1.5717  0.4660  1.0728
  581MOL0     H80126  -0.053   4.430   6.574 -0.2053 -0.4617 -0.3133
  581MOL0     H80127   0.270   4.522   6.777 -2.8736 -2.1482  0.6844
  581MOL0     H80128   0.513   4.620   6.643  1.9181  0.6270 -1.2001
  581MOL0     H80129   0.439   4.764   6.685 -2.7223  0.9310 -0.9121
  581MOL0     H80130   0.513   4.670   6.409 -1.9225  1.1998 -0.8494
  581MOL0     H80131   0.432   4.830   6.434 -1.7887 -0.3905  1.2616
  581MOL0     H80132   0.635   4.901   6.565  0.4744 -1.6263  0.3682
  581MOL0     H80133   0.694   4.721   6.555 -2.6132 -1.7070  0.7942
  581MOL0     H80134   0.642   4.915   6.318  1.9220 -1.1966 -2.8211
  581MOL0     H80135   0.791   4.923   6.406 -0.1160 -0.0307 -1.7021
  581MOL0     H80136   0.734   4.935   6.125 -2.6901 -2.1117  0.9185
  581MOL0     H80137   0.892   5.011   5.824  1.0838 -0.4710 -0.1499
  581MOL0     H80138   0.772   5.058   5.941 -1.0893 -0.0002 -1.4118
  581MOL0     H80139   0.735   4.949   5.799  2.5412  1.5137 -2.0680
  581MOL0     H80140   1.131   4.752   5.526  0.3458  1.2038 -0.6521
  581MOL0     H80141   1.112   4.697   5.286  2.5418  1.9467  1.3923
  581MOL0     H80142   1.065   4.721   5.064 -1.6549  2.1561  1.1171
  581MOL0     H80143   1.030   4.556   5.117  1.4548  1.3556  0.7915
  581MOL0     H80144   0.867   4.535   4.938 -0.5832  0.0486 -0.8973
  581MOL0     H80145   0.873   4.706   4.906  0.9483  0.2071  0.2851
  581MOL0     H80146   1.121   4.532   4.872 -0.7034 -0.7591 -0.2962
  581MOL0     H80147   1.093   4.712   4.834 -1.2103  0.9327 -3.1358
  581MOL0     H80148   0.979   4.677   4.642  0.8605  1.3340 -2.3192
  581MOL0     H80149   0.929   4.508   4.670 -0.2350 -1.0444  0.7492
  581MOL0     H80150   1.218   4.601   4.601  2.3012 -2.2538 -0.5371
  581MOL0     H80151   1.179   4.442   4.631  3.9652  2.6780  1.9591
  581MOL0     H80152   0.990   4.573   4.430 -0.7658 -0.9620  0.2932
  581MOL0     H80153   1.028   4.412   4.468  0.3430 -0.4586 -3.7737
  581MOL0     H80154   1.232   4.413   4.352  1.0603  1.0014 -2.0996
  581MOL0     H80155   1.247   4.591   4.351  0.6367  0.0766 -0.5027
  581MOL0     H80156   1.164   4.539   4.135 -0.0922 -0.4479  0.3783
  581MOL0     H80157   1.012   4.559   4.215  1.3555  1.6021  1.4123
  581MOL0     H80158   0.691   4.762   5.298 -0.1700  1.4349 -0.0389
  581MOL0     H80159   0.724   4.839   5.544  1.5917  0.5063  0.3173
  581MOL0     H80160   0.897   4.508   5.968  1.1839 -1.0584 -1.3166
  581MOL0     H80161   0.823   4.545   6.194  0.5590 -0.9376 -0.0067
  581MOL0     H80162  -0.026   4.093   6.855  0.8619  2.7411 -2.0268
  581MOL0     H80163   0.213   4.109   6.797  0.8963  2.5122 -0.4604
  581MOL0     H80164   0.628   4.247   6.920  0.7838  1.1216  2.0419
  581MOL0     H80165   0.853   4.281   6.860 -1.1802  0.9287 -0.1113
  581MOL0     H80166   1.112   4.129   6.644  0.6527 -0.1563 -0.2580
  581MOL0     H80167   1.002   4.242   6.695 -0.4117  0.2042  1.1414
  581MOL0     H80168   1.156   4.349   6.849  3.8740  1.2311  1.6850
  581MOL0     H80169   1.219   4.329   6.682  0.0550 -0.9954 -0.6674
  581MOL0     H80170   1.295   4.128   6.898  1.8845  0.9958  1.3463
  581MOL0     H80171   1.368   4.159   6.737  2.1105  0.8510  1.2902
  581MOL0     H80172   1.432   4.382   6.811 -1.3385  1.3445  1.0164
  581MOL0     H80173   1.521   4.258   6.876 -0.2395  1.0977 -0.6782
  581MOL0     H80174   1.317   4.369   7.234  0.6626  1.0560 -0.2637
  581MOL0     H80175   0.967   3.881   6.942  1.8254  1.5608 -2.7799
  581MOL0     H80176   0.785   3.719   6.961 -0.0930 -0.5001  1.2124
  581MOL0     H80177   0.722   3.777   7.121  0.7183  0.8722  1.1122
  581MOL0     H80178   0.619   3.759   6.982  0.7116  0.1257 -0.9344
  582MOL0     O80179   2.274   3.385   1.811 -0.1808 -0.3849  1.1226
  582MOL0     C80180   2.220   3.486   1.781  0.0015 -0.3767  0.2090
  582MOL0     O80181   2.281   3.586   1.702  0.7758  0.7111 -0.0587
  582MOL0     C80182   2.415   3.585   1.674  0.6918 -1.1725 -0.5877
  582MOL0     C80183   2.498   3.593   1.782 -0.2763  0.8413 -0.5941
  582MOL0     C80184   2.640   3.601   1.759  0.0416 -0.4101  1.1793
  582MOL0     C80185   2.692   3.619   1.629 -0.1817 -0.1165  0.3056
  582MOL0     O80186   2.829   3.645   1.595  0.1096 -0.2884 -0.6950
  582MOL0     C80187   2.931   3.669   1.700 -0.8783 -0.3874  0.3633
  582MOL0     C80188   3.073   3.691   1.637 -0.0738  0.2659  0.5680
  582MOL0     C80189   3.063   3.797   1.532 -0.6452 -0.3642  0.3899
  582MOL0     C80190   3.198   3.869   1.500  0.3260  0.0886 -0.4331
  582MOL0     C80191   3.189   3.956   1.371  0.2280  0.1241  0.3137
  582MOL0     C80192   3.330   4.005   1.326  0.8485  0.7091  0.2470
  582MOL0     C80193   3.314   4.068   1.190  0.1829 -0.6934 -0.0501
  582MOL0     C80194   3.453   4.078   1.124 -0.0778  0.3949 -0.2999
  582MOL0     N80195   3.449   4.099   0.978  0.1895 -0.5274  0.0117
  582MOL0     C80196   3.393   4.024   0.878 -0.2006  0.5589 -0.0514
  582MOL0     C80197   3.402   4.102   0.770  0.1573  0.1193 -0.0512
  582MOL0     C80198   3.343   4.074   0.637  0.1120  0.0972  0.2832
  582MOL0     C80199   3.230   4.172   0.604 -0.6281 -0.7035  0.3264
  582MOL0     C80200   3.180   4.119   0.463 -0.8849  0.6252  0.2607
  582MOL0     C80201   3.131   4.224   0.371 -0.4099 -1.6307 -0.3510
  582MOL0     O80202   3.238   4.311   0.345 -0.0167 -0.5881  0.0461
  582MOL0     C80203   3.217   4.421   0.265  0.2329  0.1677 -0.5091
  582MOL0     C80204   3.094   4.457   0.215  0.8055 -0.0593  0.2486
  582MOL0     C80205   3.080   4.581   0.149  0.2273  0.1116  0.5657
  582MOL0     C80206   2.940   4.615   0.093 -0.4358  0.1965 -0.4374
  582MOL0     C80207   3.195   4.667   0.133  0.1107 -0.3860  0.1007
  582MOL0     C80208   3.188   4.810   0.081  0.2286 -0.4099 -0.3803
  582MOL0     O80209   3.299   4.890   0.086 -0.1419  0.4213 -0.5911
  582MOL0     C80210   3.282   4.996   0.170 -0.2481  0.0966 -0.8159
  582MOL0     C80211   3.241   5.106   0.095  0.5278  0.7401 -0.5247
  582MOL0     C80212   3.240   5.223   0.154  0.2460 -0.0462 -0.1917
  582MOL0     C80213   3.271   5.236   0.290  0.7168 -0.9796 -0.2835
  582MOL0     O80214   3.255   5.355   0.365 -0.3770 -0.0997 -0.3752
  582MOL0     C80215   3.171   5.457   0.319  0.8480 -0.0734  0.9274
  582MOL0     C80216   3.021   5.414   0.311 -0.1441 -0.0992 -0.5298
  582MOL0     C80217   2.950   5.458   0.439 -0.7314 -0.4817 -0.2328
  582MOL0     C80218   2.859   5.350   0.499 -0.3016 -0.0279  0.7509
  582MOL0     C80219   2.795   5.415   0.621  0.0731  0.3946  0.3804
  582MOL0     C80220   2.689   5.327   0.687  0.3994 -1.0568 -0.7578
  582MOL0     C80221   2.578   5.389   0.782  0.7076  0.4188  1.7205
  582MOL0     C80222   2.643   5.476   0.890 -0.4447 -0.4190  0.4935
  582MOL0    Cl80223   2.526   5.536   1.010 -0.0837  0.9891 -0.0770
  582MOL0     C80224   3.311   5.123   0.363 -0.5727  0.1483  0.3464
  582MOL0     C80225   3.327   5.003   0.298 -0.7052 -0.1345  0.0282
  582MOL0     O80226   3.088   4.843   0.016  0.5057 -0.2521 -0.0545
  582MOL0     C80227   3.316   4.621   0.193  0.3279  0.0878  0.0871
  582MOL0     C80228   3.325   4.494   0.249 -0.1219  0.3707 -1.1114
  582MOL0     N80229   3.485   4.204   0.790 -0.1571  1.2472  0.1228
  582MOL0     N80230   3.502   4.209   0.919 -0.1273 -0.7733  0.4091
  582MOL0     C80231   2.602   3.620   1.523 -0.0899  0.3274 -0.5667
  582MOL0     C80232   2.465   3.599   1.545 -0.7219  1.1038 -0.0615
  582MOL0     C80233   2.101   3.502   1.864  0.9859 -0.1860 -0.0095
  582MOL0     C80234   2.060   3.638   1.887 -0.7015 -1.1173  0.6489
  582MOL0     C80235   1.948   3.663   1.962 -0.2485  0.1388  0.3886
  582MOL0     C80236   1.871   3.559   2.012 -0.0450 -0.6399  1.0782
  582MOL0     O80237   1.757   3.576   2.082  0.2749  0.5648  0.2629
  582MOL0     C80238   1.703   3.708   2.117 -0.0378  0.3337 -0.7250
  582MOL0     C80239   1.611   3.704   2.242  0.5665 -0.1401 -0.4564
  582MOL0     C80240   1.552   3.566   2.270  1.2602 -0.1061 -0.1435
  582MOL0     C80241   1.617   3.510   2.395  0.0621 -0.1055 -0.3344
  582MOL0     C80242   1.566   3.387   2.460  0.0625 -0.6401  1.0389
  582MOL0     C80243   1.526   3.302   2.533  0.5124  0.5478  0.2925
  582MOL0     C80244   1.897   3.428   1.972  0.2626  0.0902 -0.9040
  582MOL0     C80245   2.018   3.395   1.914  0.0145 -0.0607 -0.6267
  582MOL0     C80246   2.028   3.253   1.881  0.2254  0.2718  0.0815
  582MOL0     H80247   2.469   3.582   1.885  2.3785 -0.9783  0.0712
  582MOL0     H80248   2.706   3.587   1.844  0.9567  1.2529  0.7904
  582MOL0     H80249   2.929   3.597   1.782  0.5622 -2.3239 -1.2095
  582MOL0     H80250   2.908   3.764   1.749 -2.1400  0.2341 -1.3086
  582MOL0     H80251   3.131   3.737   1.717  0.4637  0.4111  0.0958
  582MOL0     H80252   3.111   3.598   1.593 -3.5043 -0.0481 -2.1799
  582MOL0     H80253   3.038   3.749   1.437  0.0600  1.2699 -0.6837
  582MOL0     H80254   2.985   3.872   1.550  0.3083  0.9961 -0.9097
  582MOL0     H80255   3.222   3.938   1.581 -0.7319 -0.8779  0.7553
  582MOL0     H80256   3.281   3.797   1.496 -0.2965 -0.6805  0.2033
  582MOL0     H80257   3.119   4.038   1.388  1.1942  0.8761  0.7234
  582MOL0     H80258   3.132   3.904   1.293 -0.0000  0.6198  0.1492
  582MOL0     H80259   3.366   4.068   1.408 -0.7926 -1.1673  2.5759
  582MOL0     H80260   3.397   3.919   1.315 -2.4304 -1.9579 -0.7219
  582MOL0     H80261   3.256   4.161   1.192 -0.0595 -0.8635  0.9296
  582MOL0     H80262   3.250   4.003   1.130 -0.6104 -2.2283  2.3411
  582MOL0     H80263   3.516   4.155   1.170 -0.2549 -0.2809  1.1075
  582MOL0     H80264   3.516   3.991   1.146 -0.7809  0.2060  1.0374
  582MOL0     H80265   3.344   3.927   0.880 -1.4431  1.1626  0.2370
  582MOL0     H80266   3.295   3.976   0.633 -0.2252  0.2201  1.0646
  582MOL0     H80267   3.423   4.063   0.563  0.9646  0.3953  1.1413
  582MOL0     H80268   3.143   4.159   0.671  0.3791  1.1034  2.0919
  582MOL0     H80269   3.257   4.278   0.607 -0.4454 -0.7311 -0.2552
  582MOL0     H80270   3.272   4.074   0.425 -1.0524 -1.0865  1.7208
  582MOL0     H80271   3.109   4.036   0.473 -0.1991 -0.2581 -1.6926
  582MOL0     H80272   3.100   4.181   0.276  0.2435 -1.5892 -0.5876
  582MOL0     H80273   3.051   4.274   0.427 -0.4684 -1.1752 -0.8365
  582MOL0     H80274   2.999   4.407   0.233 -0.7657  1.2942 -3.3727
  582MOL0     H80275   2.943   4.617  -0.016  0.9226 -0.4105 -0.4345
  582MOL0     H80276   2.909   4.715   0.125  2.9500  1.7265 -1.5630
  582MOL0     H80277   2.868   4.542   0.132 -0.0978 -0.8930 -1.7753
  582MOL0     H80278   3.208   5.084  -0.006  2.5989  0.3914 -1.1695
  582MOL0     H80279   3.212   5.306   0.091  2.1059 -2.4083 -4.5618
  582MOL0     H80280   3.187   5.538   0.390  2.5745 -2.1214  3.0390
  582MOL0     H80281   3.194   5.485   0.216 -0.4869 -0.4282  0.5210
  582MOL0     H80282   2.974   5.468   0.229  0.5894 -1.1435 -1.6608
  582MOL0     H80283   3.009   5.307   0.292  2.0202 -0.5496  0.2853
  582MOL0     H80284   2.892   5.549   0.421  0.7856  0.4340 -0.7207
  582MOL0     H80285   3.031   5.473   0.511  0.8007  2.7134 -2.3526
  582MOL0     H80286   2.909   5.254   0.513  1.1423  0.7338  0.9495
  582MOL0     H80287   2.768   5.332   0.441 -0.3283 -0.4983  0.9320
  582MOL0     H80288   2.878   5.429   0.691  0.6728 -0.6069 -0.1129
  582MOL0     H80289   2.759   5.514   0.593 -0.7272 -0.6234 -2.4404
  582MOL0     H80290   2.744   5.259   0.752  2.1919  0.9486 -0.0665
  582MOL0     H80291   2.639   5.266   0.611  0.4543 -2.4770  0.3046
  582MOL0     H80292   2.509   5.314   0.820 -1.1759 -1.4199 -4.2443
  582MOL0     H80293   2.517   5.457   0.721  2.5920  0.3967 -0.3477
  582MOL0     H80294   2.704   5.553   0.843 -0.2794 -1.6042 -1.3279
  582MOL0     H80295   2.698   5.400   0.948 -1.7111 -1.1472  0.7911
  582MOL0     H80296   3.339   5.131   0.468  0.0833 -1.5865  0.3546
  582MOL0     H80297   3.362   4.918   0.354 -0.6159 -0.1581 -0.0640
  582MOL0     H80298   3.403   4.686   0.195  0.6096  0.1552 -4.5929
  582MOL0     H80299   3.416   4.458   0.296 -2.0583 -1.1020  1.7682
  582MOL0     H80300   2.639   3.630   1.421  0.5013 -0.1569 -0.4067
  582MOL0     H80301   2.417   3.587   1.448 -2.3036  2.1624  0.5622
  582MOL0     H80302   2.126   3.721   1.867 -1.0185 -1.2956 -1.2862
  582MOL0     H80303   1.917   3.766   1.980 -2.2922 -0.2451 -0.6578
  582MOL0     H80304   1.780   3.785   2.129 -1.4517  1.4474  1.8890
  582MOL0     H80305   1.630   3.729   2.039 -0.8355  0.2957  0.0023
  582MOL0     H80306   1.525   3.772   2.237  0.1664 -0.5424  0.6533
  582MOL0     H80307   1.667   3.735   2.330  1.0701 -0.6257 -0.6008
  582MOL0     H80308   1.444   3.577   2.280  1.4309  0.2096  1.6210
  582MOL0     H80309   1.551   3.497   2.185 -2.2716  0.7374 -0.9269
  582MOL0     H80310   1.599   3.584   2.473 -2.3463  0.4899 -1.3890
  582MOL0     H80311   1.721   3.490   2.366  0.1452 -2.0232  1.0829
  582MOL0     H80312   1.492   3.220   2.592  0.4376  0.9432  0.7974
  582MOL0     H80313   1.818   3.360   2.002  1.3637 -0.2260  1.4895
  582MOL0     H80314   1.930   3.208   1.900  0.1708 -1.6088 -3.7296
  582MOL0     H80315   2.033   3.242   1.773 -1.0413 -0.3829  0.0662
  582MOL0     H80316   2.121   3.212   1.922 -1.2039 -3.3432  0.0697
  583MOL0     O80317   0.346   1.170   2.479  0.9359  0.5366  0.9539
  583MOL0     C80318   0.328   1.281   2.425 -0.6179  0.5673  0.3795
  583MOL0     O80319   0.359   1.404   2.481  0.2926 -0.1437 -0.1451
  583MOL0     C80320   0.428   1.413   2.606  0.9081 -0.3457  0.1810
  583MOL0     C80321   0.547   1.340   2.629  0.2484  0.6241  0.1083
  583MOL0     C80322   0.606   1.350   2.755 -0.2117  0.7234 -0.8816
  583MOL0     C80323   0.540   1.411   2.866 -0.0562  0.4607  0.6521
  583MOL0     O80324   0.604   1.438   2.987 -0.5527 -0.4969 -0.3601
  583MOL0     C80325   0.639   1.328   3.060 -0.5402  0.3230 -0.9612
  583MOL0     C80326   0.732   1.369   3.181  0.1663  0.4343  0.1681
  583MOL0     C80327   0.792   1.243   3.249  0.5972 -0.7292 -0.1591
  583MOL0     C80328   0.689   1.158   3.330 -0.2705 -0.6010  0.5560
  583MOL0     C80329   0.727   1.122   3.471 -0.4950 -0.2591 -0.5285
  583MOL0     C80330   0.733   1.248   3.565  0.0783 -0.1243 -0.2955
  583MOL0     C80331   0.720   1.211   3.718  0.5972 -0.1568 -0.9410
  583MOL0     C80332   0.846   1.132   3.762 -0.2386 -0.2277 -0.1920
  583MOL0     N80333   0.870   1.127   3.908 -0.2792 -0.1258  0.5332
  583MOL0     C80334   0.788   1.074   3.999  0.0944  1.3018 -0.1640
  583MOL0     C80335   0.825   1.124   4.119 -0.2320 -0.2980 -0.7727
  583MOL0     C80336   0.758   1.098   4.258  0.6653  0.0902  0.0724
  583MOL0     C80337   0.788   0.952   4.305  0.7586 -0.2038  0.3550
  583MOL0     C80338   0.852   0.959   4.451  0.1687  0.4245 -0.3471
  583MOL0     C80339   0.861   0.817   4.505 -0.3995 -0.0711 -0.4625
  583MOL0     O80340   0.934   0.746   4.415 -0.1551  0.3276  0.3431
  583MOL0     C80341   0.959   0.614   4.450  0.4864  0.2449  0.2337
  583MOL0     C80342   0.878   0.530   4.529 -0.5522 -0.4771 -0.1848
  583MOL0     C80343   0.912   0.406   4.568  0.8245  0.5805 -0.2609
  583MOL0     C80344   0.822   0.329   4.656 -0.0066 -0.9819 -0.4870
  583MOL0     C80345   1.033   0.354   4.529 -1.0101  0.7901  0.3275
  583MOL0     C80346   1.089   0.221   4.567  0.6861  0.7032 -0.6965
  583MOL0     O80347   1.009   0.107   4.529  0.2573 -0.5864  0.2889
  583MOL0     C80348   1.038  -0.005   4.585  0.3278  0.8089  0.5827
  583MOL0     C80349   1.004  -0.049   4.709 -0.5306  0.4431  0.2442
  583MOL0     C80350   1.044  -0.170   4.759 -0.3717 -0.0550 -0.6920
  583MOL0     C80351   1.117  -0.262   4.676  0.9247 -0.3260  0.8167
  583MOL0     O80352   1.148  -0.383   4.732 -0.1059  0.1183 -1.0399
  583MOL0     C80353   1.290  -0.385   4.758  0.5013 -1.1465 -0.0249
  583MOL0     C80354   1.351  -0.520   4.725  0.3418  0.1539  0.2775
  583MOL0     C80355   1.496  -0.540   4.792  0.9252 -0.6103 -0.6871
  583MOL0     C80356   1.619  -0.447   4.733  1.2462 -0.1862  0.5262
  583MOL0     C80357   1.749  -0.441   4.803 -0.0877 -0.0083 -0.8006
  583MOL0     C80358   1.853  -0.556   4.786  0.1304  0.1380 -0.1006
  583MOL0     C80359   1.974  -0.552   4.881 -0.1412 -1.0219 -0.4453
  583MOL0     C80360   2.091  -0.643   4.848  0.0980 -0.2621 -0.3869
  583MOL0    Cl80361   2.051  -0.804   4.922 -0.6010 -0.7076  0.0466
  583MOL0     C80362   1.141  -0.226   4.545  0.1232 -0.5424  0.4796
  583MOL0     C80363   1.106  -0.097   4.502  0.0074  0.6199  0.2095
  583MOL0     O80364   1.202   0.215   4.602  0.3536 -0.0305  1.2136
  583MOL0     C80365   1.108   0.426   4.440  0.8010 -0.6486  0.3283
  583MOL0     C80366   1.071   0.550   4.390  0.0579  0.6544  1.0475
  583MOL0     N80367   0.928   1.206   4.100  0.1794 -0.5260 -0.0053
  583MOL0     N80368   0.955   1.213   3.973  0.1887 -0.6980  0.4156
  583MOL0     C80369   0.423   1.478   2.836  0.1934 -0.2364 -0.6348
  583MOL0     C80370   0.364   1.481   2.714  0.5891 -0.6190 -0.4318
  583MOL0     C80371   0.269   1.280   2.284  0.2088 -0.0133  0.0561
  583MOL0     C80372   0.230   1.153   2.230 -0.3954 -0.4851  0.2322
  583MOL0     C80373   0.187   1.142   2.099 -0.1957  0.2454  0.0036
  583MOL0     C80374   0.184   1.252   2.013  0.0208  0.5844  0.0021
  583MOL0     O80375   0.151   1.232   1.883  0.7285 -0.1912 -0.6622
  583MOL0     C80376   0.166   1.319   1.768 -0.4825  0.0701  0.2687
  583MOL0     C80377   0.314   1.313   1.708 -0.3292  0.0873 -0.2478
  583MOL0     C80378   0.342   1.171   1.644 -0.0538  0.2059 -0.2117
  583MOL0     C80379   0.292   1.165   1.492  0.0518  0.5542 -0.6929
  583MOL0     C80380   0.326   1.029   1.439  0.9686  0.4007  0.5446
  583MOL0     C80381   0.349   0.914   1.408 -0.0675 -0.1501 -0.3027
  583MOL0     C80382   0.219   1.368   2.064  0.0961 -0.6487  0.8836
  583MOL0     C80383   0.257   1.394   2.198 -0.0548  0.1099  0.5518
  583MOL0     C80384   0.289   1.541   2.233  0.3905  1.1460  0.3319
  583MOL0     H80385   0.594   1.297   2.542 -2.3354 -4.0433  0.6663
  583MOL0     H80386   0.696   1.291   2.766 -1.0688 -0.3214  1.2969
  583MOL0     H80387   0.700   1.259   3.000  0.7124 -1.1378  1.7843
  583MOL0     H80388   0.548   1.281   3.099  0.6616 -1.7590 -0.5117
  583MOL0     H80389   0.822   1.415   3.139  0.9880 -1.7442 -0.5955
  583MOL0     H80390   0.697   1.445   3.251  1.5392 -1.0345  2.5940
  583MOL0     H80391   0.842   1.182   3.173  1.1223 -1.4697  0.7668
  583MOL0     H80392   0.865   1.295   3.311  2.0185  0.2674 -2.5399
  583MOL0     H80393   0.599   1.219   3.342 -0.2176 -0.5968  0.9533
  583MOL0     H80394   0.669   1.073   3.265  1.1195  1.0051 -2.1680
  583MOL0     H80395   0.824   1.071   3.477  0.9276  2.0496 -1.9416
  583MOL0     H80396   0.647   1.055   3.503 -2.5710  1.6161 -1.5201
  583MOL0     H80397   0.817   1.314   3.544  0.3919 -0.1763  0.7400
  583MOL0     H80398   0.645   1.312   3.548 -0.6825 -0.8694  0.7082
  583MOL0     H80399   0.638   1.143   3.742  2.6013 -1.8552  1.8527
  583MOL0     H80400   0.704   1.295   3.786  1.3806  0.3207 -1.3260
  583MOL0     H80401   0.834   1.030   3.724  1.9011 -2.4829  4.4103
  583MOL0     H80402   0.933   1.174   3.711 -1.2847 -0.0937 -1.9562
  583MOL0     H80403   0.704   1.011   3.970 -0.4988  1.8466  0.3597
  583MOL0     H80404   0.652   1.122   4.255  0.9161  1.3893  0.6710
  583MOL0     H80405   0.794   1.161   4.340  1.5849 -0.1059 -0.1669
  583MOL0     H80406   0.698   0.890   4.296  2.9468 -3.3706 -2.0606
  583MOL0     H80407   0.865   0.913   4.238  1.4016  4.1079 -1.7043
  583MOL0     H80408   0.953   1.002   4.442  0.6017  1.0707  4.6978
  583MOL0     H80409   0.797   1.016   4.526  2.4239 -0.3048  2.0196
  583MOL0     H80410   0.910   0.819   4.603 -0.3464 -1.5706 -0.4254
  583MOL0     H80411   0.763   0.778   4.533  0.2203  0.2951  2.6586
  583MOL0     H80412   0.786   0.580   4.560  1.6814  3.4750  0.7794
  583MOL0     H80413   0.799   0.395   4.740  0.9924  0.3482 -1.2237
  583MOL0     H80414   0.869   0.241   4.702 -2.8558 -1.5893  1.4967
  583MOL0     H80415   0.724   0.301   4.617 -0.3586 -2.9927  1.6054
  583MOL0     H80416   0.956   0.035   4.758  1.3171  1.2826  0.6606
  583MOL0     H80417   1.046  -0.209   4.861 -0.1759  0.8213 -0.3486
  583MOL0     H80418   1.340  -0.314   4.691  1.8123 -0.4403  1.6324
  583MOL0     H80419   1.315  -0.354   4.860  0.1343 -0.0606 -0.2443
  583MOL0     H80420   1.291  -0.607   4.754  1.3222 -0.3413  0.8761
  583MOL0     H80421   1.362  -0.524   4.616 -1.4430 -2.0274  0.1016
  583MOL0     H80422   1.535  -0.642   4.786  4.9584  0.7976 -1.1973
  583MOL0     H80423   1.491  -0.515   4.898 -0.8753 -2.7636 -0.1729
  583MOL0     H80424   1.592  -0.343   4.714 -1.0084 -0.9341 -0.8951
  583MOL0     H80425   1.635  -0.488   4.633 -0.7080  1.4442 -0.5432
  583MOL0     H80426   1.796  -0.344   4.784 -1.1620  0.6530 -0.1818
  583MOL0     H80427   1.725  -0.435   4.910  2.9568  0.0438 -0.0011
  583MOL0     H80428   1.900  -0.530   4.691  2.7771 -0.8779  0.8182
  583MOL0     H80429   1.809  -0.652   4.761  1.9583 -0.6209 -0.5549
  583MOL0     H80430   1.956  -0.566   4.989  0.3781  0.2212 -0.1848
  583MOL0     H80431   2.001  -0.447   4.869 -1.0319 -0.8431 -0.9957
  583MOL0     H80432   2.187  -0.632   4.899  0.8117 -3.1672 -0.9537
  583MOL0     H80433   2.108  -0.672   4.744  1.6944 -3.9905  0.7262
  583MOL0     H80434   1.190  -0.298   4.480  1.0678  0.2713  0.2823
  583MOL0     H80435   1.143  -0.072   4.403  0.4737  2.3835  0.7810
  583MOL0     H80436   1.198   0.386   4.393 -0.1752  1.1103 -3.4788
  583MOL0     H80437   1.133   0.595   4.313  0.0296  1.2881  1.3818
  583MOL0     H80438   0.374   1.539   2.912  2.4436  1.1335 -0.1952
  583MOL0     H80439   0.273   1.539   2.703 -0.2113 -1.6865  0.4119
  583MOL0     H80440   0.228   1.056   2.279  0.4868 -0.9205 -0.5630
  583MOL0     H80441   0.153   1.053   2.047 -2.8927 -0.0809  2.1162
  583MOL0     H80442   0.098   1.284   1.691 -0.4745  3.5464 -1.5023
  583MOL0     H80443   0.131   1.420   1.794  0.9246  0.3083  1.4276
  583MOL0     H80444   0.383   1.331   1.791  0.4166  2.8106 -1.3415
  583MOL0     H80445   0.330   1.393   1.635  1.7838 -0.0718 -0.0350
  583MOL0     H80446   0.447   1.141   1.648 -0.2637 -0.4015  1.0970
  583MOL0     H80447   0.277   1.111   1.708 -0.8196 -0.5168 -1.6161
  583MOL0     H80448   0.350   1.234   1.430  1.3970 -1.4128 -1.7506
  583MOL0     H80449   0.184   1.178   1.484  0.1382  0.2907 -2.5469
  583MOL0     H80450   0.385   0.817   1.381 -0.9975 -0.7404  0.4917
  583MOL0     H80451   0.226   1.451   1.994  0.2733 -0.3671  1.2298
  583MOL0     H80452   0.286   1.598   2.140 -0.8875  1.1087  0.3322
  583MOL0     H80453   0.216   1.583   2.303 -1.8073  1.0835 -1.7919
  583MOL0     H80454   0.388   1.554   2.277  0.0597  1.7724  0.9101
  584MOL0     O80455   5.048   1.957  10.671  0.2819 -0.9042  0.2571
  584MOL0     C80456   5.073   1.893  10.767  0.0113 -0.2187  0.6368
  584MOL0     O80457   5.140   1.776  10.766  0.1817  0.1655  0.1458
  584MOL0     C80458   5.173   1.705  10.658 -0.6966 -0.3274 -0.4655
  584MOL0     C80459   5.174   1.752  10.523  0.1705 -1.0269 -0.4288
  584MOL0     C80460   5.198   1.666  10.416 -0.2399  0.5985  1.2852
  584MOL0     C80461   5.220   1.530  10.432 -0.4352  0.2901  0.1161
  584MOL0     O80462   5.241   1.454  10.321 -0.6441 -0.2511  0.4633
  584MOL0     C80463   5.198   1.315  10.331  0.2715  0.4085  0.2249
  584MOL0     C80464   5.146   1.283  10.193  0.0340 -0.5311 -0.2757
  584MOL0     C80465   5.074   1.144  10.189  0.2312 -0.4506 -0.7451
  584MOL0     C80466   5.131   1.051  10.083  0.2526  0.8974  0.0269
  584MOL0     C80467   5.017   0.949  10.049  0.2868  0.7387  0.2036
  584MOL0     C80468   4.998   0.831  10.135 -0.1641 -0.1298 -0.3785
  584MOL0     C80469   4.907   0.725  10.076 -0.2727 -0.7160 -0.0445
  584MOL0     C80470   4.944   0.678   9.931 -0.9600 -0.1605 -0.5970
  584MOL0     N80471   4.891   0.537   9.911 -0.3040  0.0077 -0.9003
  584MOL0     C80472   4.953   0.436   9.850 -0.9664  0.0375 -0.0144
  584MOL0     C80473   4.853   0.347   9.836  0.8918 -0.9895 -0.5211
  584MOL0     C80474   4.883   0.204   9.804  0.3972 -0.0525  0.5002
  584MOL0     C80475   4.752   0.125   9.761 -0.0122  1.6208 -0.9154
  584MOL0     C80476   4.680   0.052   9.870 -0.7577  0.6480  0.2004
  584MOL0     C80477   4.552   0.131   9.930 -0.7883  0.1003  0.5231
  584MOL0     O80478   4.455   0.039   9.975  1.1930 -0.3260 -0.3732
  584MOL0     C80479   4.374  -0.029   9.884  0.8797  0.0830  0.7060
  584MOL0     C80480   4.371  -0.014   9.746 -0.0333  0.2473  0.6941
  584MOL0     C80481   4.285  -0.100   9.666 -0.6818 -0.2862 -0.2415
  584MOL0     C80482   4.289  -0.076   9.517 -0.5098  0.4538  0.6747
  584MOL0     C80483   4.199  -0.190   9.729  0.0598 -0.2535 -0.2042
  584MOL0     C80484   4.087  -0.263   9.667 -0.2214 -0.0114 -0.0781
  584MOL0     O80485   4.002  -0.316   9.753  0.1577 -0.3819 -0.7434
  584MOL0     C80486   3.891  -0.369   9.692 -0.1446 -0.5942 -0.8034
  584MOL0     C80487   3.779  -0.284   9.676 -0.0143  0.0971 -0.7755
  584MOL0     C80488   3.661  -0.332   9.619 -0.5977 -0.4597 -0.9198
  584MOL0     C80489   3.654  -0.467   9.568  0.0076 -0.5584  0.3258
  584MOL0     O80490   3.540  -0.529   9.514 -0.7868  0.0351  0.1162
  584MOL0     C80491   3.458  -0.443   9.442  0.3602  0.3112 -0.4155
  584MOL0     C80492   3.351  -0.513   9.355 -0.2345 -0.4661 -0.1006
  584MOL0     C80493   3.290  -0.421   9.255  0.5916 -0.3689  0.8007
  584MOL0     C80494   3.194  -0.493   9.156 -0.3118 -0.2252 -0.1503
  584MOL0     C80495   3.120  -0.391   9.065  0.4030 -1.1145 -0.0424
  584MOL0     C80496   3.011  -0.460   8.969 -0.9930 -0.1510  0.2761
  584MOL0     C80497   2.970  -0.384   8.839 -0.7900  0.2131  0.1294
  584MOL0     C80498   2.904  -0.251   8.860 -0.4453  0.6462 -0.6817
  584MOL0    Cl80499   2.826  -0.192   8.705 -0.0115 -0.0130 -0.3034
  584MOL0     C80500   3.770  -0.548   9.591 -0.1519 -0.3942 -0.4018
  584MOL0     C80501   3.885  -0.500   9.643  0.1361 -0.9864  0.0018
  584MOL0     O80502   4.082  -0.291   9.544  0.5795 -0.5476 -0.0301
  584MOL0     C80503   4.199  -0.186   9.877 -0.3803  0.6682 -0.3058
  584MOL0     C80504   4.285  -0.113   9.949 -0.0648  0.0796  0.3488
  584MOL0     N80505   4.736   0.407   9.884 -0.8628  0.1989  0.1758
  584MOL0     N80506   4.758   0.515   9.941  0.1613  0.0627  0.3076
  584MOL0     C80507   5.215   1.487  10.569  0.1898 -0.4406 -0.5726
  584MOL0     C80508   5.187   1.570  10.676 -0.2618 -0.0663  0.4942
  584MOL0     C80509   5.034   1.948  10.906 -0.5251  0.0018  0.9979
  584MOL0     C80510   5.101   1.889  11.010  0.6678  0.9773 -0.2567
  584MOL0     C80511   5.084   1.929  11.138  0.2388  0.4526  0.2031
  584MOL0     C80512   5.000   2.036  11.164  0.4745 -0.1492 -0.5532
  584MOL0     O80513   4.960   2.073  11.288 -0.9062 -1.2188 -0.0457
  584MOL0     C80514   5.010   2.023  11.412 -0.6651  0.1371 -0.1402
  584MOL0     C80515   5.071   2.139  11.483  1.0463 -0.2246 -0.2823
  584MOL0     C80516   5.226   2.142  11.499  0.1601 -0.4782  0.0044
  584MOL0     C80517   5.301   2.144  11.369  0.1338 -0.1875  0.8882
  584MOL0     C80518   5.266   2.256  11.281 -0.6807 -0.9755 -0.4136
  584MOL0     C80519   5.245   2.349  11.207  0.4399  0.1246 -0.1327
  584MOL0     C80520   4.938   2.106  11.058 -0.4291 -0.5140  0.5180
  584MOL0     C80521   4.952   2.064  10.927 -0.5430 -0.2350  0.1764
  584MOL0     C80522   4.878   2.150  10.826 -0.6776 -0.1086 -0.0920
  584MOL0     H80523   5.143   1.854  10.501  1.1031 -1.3304 -3.7529
  584MOL0     H80524   5.205   1.701  10.313  0.2993  1.5061  1.6213
  584MOL0     H80525   5.127   1.297  10.412 -2.7131  0.9537 -2.0912
  584MOL0     H80526   5.282   1.248  10.351 -0.4207 -0.6722 -0.3993
  584MOL0     H80527   5.081   1.363  10.155  1.2657  0.9028  0.5120
  584MOL0     H80528   5.229   1.289  10.123  0.8465 -0.9676  0.6280
  584MOL0     H80529   5.084   1.094  10.286  2.6643  1.6839  0.2251
  584MOL0     H80530   4.967   1.159  10.172  0.4877 -0.3235 -2.3948
  584MOL0     H80531   5.166   1.102   9.993  1.9091 -0.7259 -0.3129
  584MOL0     H80532   5.218   1.003  10.127  0.3567  1.0048 -0.0623
  584MOL0     H80533   5.044   0.919   9.948  3.8503  3.0629  0.2805
  584MOL0     H80534   4.925   1.007  10.049  1.2928  2.4929  2.3170
  584MOL0     H80535   5.099   0.791  10.150  0.3358  1.2401  0.1382
  584MOL0     H80536   4.972   0.857  10.238  0.2671 -0.7862 -0.0929
  584MOL0     H80537   4.802   0.757  10.082 -0.4444 -1.4974  1.3602
  584MOL0     H80538   4.929   0.636  10.135  0.7196 -1.8831 -2.0750
  584MOL0     H80539   4.883   0.741   9.867 -1.4851  0.3249  0.3604
  584MOL0     H80540   5.051   0.674   9.909 -1.2089 -0.3215 -1.8411
  584MOL0     H80541   5.060   0.426   9.835 -0.0588  4.3866  1.9596
  584MOL0     H80542   4.918   0.156   9.896 -0.1210  0.0599  0.7598
  584MOL0     H80543   4.964   0.211   9.730 -0.6245  1.1589 -0.5615
  584MOL0     H80544   4.689   0.170   9.683  1.4265  1.1258 -2.4253
  584MOL0     H80545   4.800   0.042   9.708 -1.6843 -0.8954  1.2150
  584MOL0     H80546   4.641  -0.040   9.825  0.8339 -0.9464  1.8868
  584MOL0     H80547   4.760   0.011   9.933  1.7069  0.3438 -2.8990
  584MOL0     H80548   4.591   0.191  10.012  1.2541 -2.2561  1.4062
  584MOL0     H80549   4.513   0.202   9.856  0.1020  0.6224  0.5381
  584MOL0     H80550   4.427   0.058   9.688 -1.4102  0.9656  0.2046
  584MOL0     H80551   4.360   0.005   9.499 -3.8430  3.1584 -1.5438
  584MOL0     H80552   4.197  -0.036   9.472  0.8488  1.4590 -1.3358
  584MOL0     H80553   4.311  -0.159   9.450 -1.9536  1.9061 -1.7352
  584MOL0     H80554   3.776  -0.188   9.728  1.4962 -0.1383 -0.2151
  584MOL0     H80555   3.582  -0.259   9.607  0.7293  0.9290 -1.6325
  584MOL0     H80556   3.421  -0.364   9.508  2.4978 -0.1873  1.5104
  584MOL0     H80557   3.528  -0.395   9.374 -0.2260 -0.4215 -1.5732
  584MOL0     H80558   3.398  -0.603   9.315  3.1959  0.3089  1.7225
  584MOL0     H80559   3.276  -0.553   9.425  0.6037 -0.7884  0.6376
  584MOL0     H80560   3.375  -0.383   9.197  2.3998 -5.8280 -0.7496
  584MOL0     H80561   3.228  -0.343   9.300 -1.9192 -1.0194 -1.2828
  584MOL0     H80562   3.118  -0.550   9.210 -0.1934 -0.3075 -0.0685
  584MOL0     H80563   3.246  -0.555   9.082 -1.3341 -2.1368  0.6515
  584MOL0     H80564   3.064  -0.321   9.127  1.1686 -2.0100  1.7262
  584MOL0     H80565   3.199  -0.342   9.007 -0.0630  1.1648  1.1317
  584MOL0     H80566   2.930  -0.502   9.030 -1.4028 -1.0915 -0.8580
  584MOL0     H80567   3.046  -0.553   8.922 -2.2270  1.1297 -3.5531
  584MOL0     H80568   2.896  -0.444   8.784 -1.5741  2.1027 -0.9501
  584MOL0     H80569   3.057  -0.379   8.772 -1.3217  0.9081 -0.5260
  584MOL0     H80570   2.975  -0.173   8.889 -2.1563  1.3278  2.1490
  584MOL0     H80571   2.821  -0.261   8.931  1.1048 -0.4887  1.0315
  584MOL0     H80572   3.758  -0.655   9.573 -0.4747 -0.2774 -0.8803
  584MOL0     H80573   3.972  -0.562   9.660  0.8974  0.6094  2.6315
  584MOL0     H80574   4.140  -0.258   9.934  0.3179  0.3400  0.0194
  584MOL0     H80575   4.299  -0.133  10.055  3.4291 -0.0396 -0.0018
  584MOL0     H80576   5.216   1.380  10.590 -2.2722 -0.4686 -0.3850
  584MOL0     H80577   5.174   1.523  10.774 -4.0946  0.7242  0.5269
  584MOL0     H80578   5.160   1.798  11.003 -1.9721 -0.7491 -1.6126
  584MOL0     H80579   5.138   1.866  11.208  3.1407  1.5096 -0.8995
  584MOL0     H80580   4.934   1.985  11.480  0.0451 -0.2479  0.4655
  584MOL0     H80581   5.086   1.944  11.405  0.6103  1.2274  0.8814
  584MOL0     H80582   5.019   2.141  11.580  0.8512 -3.9197 -0.1703
  584MOL0     H80583   5.048   2.238  11.442 -0.8445  0.4501  2.1210
  584MOL0     H80584   5.242   2.239  11.547 -1.3003 -1.3298  2.4201
  584MOL0     H80585   5.260   2.063  11.568 -0.0739  0.4279  1.1974
  584MOL0     H80586   5.292   2.043  11.327  1.9285  0.2054 -0.5712
  584MOL0     H80587   5.407   2.161  11.391  0.9186 -1.4711 -1.5216
  584MOL0     H80588   5.229   2.427  11.136 -1.4259  0.4384  0.5649
  584MOL0     H80589   4.893   2.204  11.072 -0.0807  0.2541 -2.7811
  584MOL0     H80590   4.934   2.243  10.812  1.4061 -1.2518  0.3263
  584MOL0     H80591   4.868   2.097  10.731 -2.7660 -1.8882  1.0192
  584MOL0     H80592   4.782   2.181  10.868 -0.6382  1.9878 -1.4066
  585MOL0     O80593   7.836   0.662   3.332 -0.4006  0.0545  0.1201
  585MOL0     C80594   7.738   0.707   3.390  0.4555 -0.0319 -0.8514
  585MOL0     O80595   7.740   0.785   3.503  0.3518 -0.2926 -0.0579
  585MOL0     C80596   7.851   0.787   3.574 -0.5904 -0.3780  0.3491
  585MOL0     C80597   7.875   0.714   3.693 -0.4498 -0.5769  0.6962
  585MOL0     C80598   7.990   0.735   3.765  0.1825 -0.2388 -0.0297
  585MOL0     C80599   8.085   0.831   3.719  0.6131  0.0295  0.3121
  585MOL0     O80600   8.205   0.860   3.780  0.0316  0.3600  0.6882
  585MOL0     C80601   8.230   1.001   3.784 -0.0856  0.0755 -0.2034
  585MOL0     C80602   8.352   1.014   3.871 -0.0539 -0.6284  0.4629
  585MOL0     C80603   8.389   1.161   3.892 -0.1750 -0.2319 -0.0399
  585MOL0     C80604   8.509   1.179   3.988  0.4266  0.5028 -0.0635
  585MOL0     C80605   8.490   1.309   4.062 -0.8379  0.1589  0.3356
  585MOL0     C80606   8.531   1.428   3.974 -0.0338 -0.4801 -0.2367
  585MOL0     C80607   8.502   1.564   4.043  0.7463  0.1065  0.6076
  585MOL0     C80608   8.503   1.679   3.940  0.4422  0.6638  0.0986
  585MOL0     N80609   8.515   1.814   4.003 -0.1658  0.7203  0.4637
  585MOL0     C80610   8.584   1.921   3.968 -0.3979 -1.2620  0.0480
  585MOL0     C80611   8.573   2.010   4.073  0.0665  0.7438 -0.2380
  585MOL0     C80612   8.640   2.138   4.100  0.1560  0.7422  0.1178
  585MOL0     C80613   8.788   2.139   4.090  0.7223 -0.4702  0.0825
  585MOL0     C80614   8.847   2.190   4.229 -0.6650 -0.1360 -1.0180
  585MOL0     C80615   8.998   2.204   4.234  0.3487 -0.0868  0.5304
  585MOL0     O80616   9.056   2.244   4.110 -0.6413  0.4956 -0.4006
  585MOL0     C80617   9.186   2.288   4.120 -0.7297 -0.7759 -0.1551
  585MOL0     C80618   9.224   2.423   4.135  0.0503 -0.7584 -0.4309
  585MOL0     C80619   9.355   2.466   4.135 -0.3618  0.6124  0.5468
  585MOL0     C80620   9.369   2.614   4.133  0.0229 -0.5515 -0.6043
  585MOL0     C80621   9.461   2.371   4.122  0.0899  0.5650 -0.9012
  585MOL0     C80622   9.602   2.399   4.122 -0.1803 -0.6486 -0.0558
  585MOL0     O80623   9.694   2.309   4.164  0.0424 -0.3223 -0.2456
  585MOL0     C80624   9.825   2.339   4.174  0.5464 -0.0526  1.2854
  585MOL0     C80625   9.897   2.311   4.287 -0.1019 -0.5577  0.3183
  585MOL0     C80626  10.040   2.332   4.284 -0.5237 -0.5525 -0.6699
  585MOL0     C80627  10.108   2.384   4.170  0.6749 -0.3279 -0.4507
  585MOL0     O80628  10.247   2.411   4.168  0.4766  0.0466 -0.3880
  585MOL0     C80629  10.322   2.395   4.287  0.2534  0.0805 -0.4477
  585MOL0     C80630  10.454   2.476   4.278 -0.2089 -0.1713  0.9057
  585MOL0     C80631  10.415   2.629   4.278  0.2324  0.9835 -0.4633
  585MOL0     C80632  10.548   2.708   4.287 -0.5536 -0.9369  0.2539
  585MOL0     C80633  10.534   2.849   4.221  0.2492  0.5159  0.7322
  585MOL0     C80634  10.465   2.942   4.326 -0.0931  0.3832  0.2581
  585MOL0     C80635  10.442   3.086   4.276  0.2459  0.7136 -0.0535
  585MOL0     C80636  10.375   3.173   4.384 -0.7312  0.4134 -0.2974
  585MOL0    Cl80637  10.288   3.314   4.307  0.1734  0.5889  0.1757
  585MOL0     C80638  10.029   2.426   4.061 -0.2926 -0.3058  0.1513
  585MOL0     C80639   9.895   2.389   4.054  0.6399 -0.2686 -0.0417
  585MOL0     O80640   9.628   2.503   4.066 -0.1576  0.4953  0.3886
  585MOL0     C80641   9.429   2.236   4.113  0.4782  0.6850  0.5612
  585MOL0     C80642   9.295   2.193   4.110 -0.7880  0.7050 -1.2848
  585MOL0     N80643   8.475   1.966   4.159 -1.2162 -0.1271 -0.4552
  585MOL0     N80644   8.442   1.846   4.116  0.3709  0.2380 -0.2811
  585MOL0     C80645   8.073   0.880   3.589  0.6526  1.4173  1.2825
  585MOL0     C80646   7.954   0.861   3.519  0.4585 -0.8138  0.8083
  585MOL0     C80647   7.605   0.684   3.323  0.1981 -0.4295  0.4220
  585MOL0     C80648   7.498   0.769   3.358  0.4629  0.3120 -1.4092
  585MOL0     C80649   7.377   0.762   3.306 -0.2752  0.5813  0.0327
  585MOL0     C80650   7.351   0.666   3.205  0.0354  0.6134  0.7430
  585MOL0     O80651   7.233   0.648   3.133 -0.4162  0.2017 -0.5025
  585MOL0     C80652   7.115   0.695   3.202 -0.0821  0.5240 -0.0570
  585MOL0     C80653   7.055   0.594   3.308 -0.2192 -1.1128 -0.6073
  585MOL0     C80654   7.039   0.450   3.261  0.5043  0.6978 -0.3708
  585MOL0     C80655   7.027   0.349   3.373  0.5232 -0.0395 -0.3801
  585MOL0     C80656   6.915   0.387   3.467 -0.1385  1.0275 -0.6375
  585MOL0     C80657   6.829   0.393   3.547  0.0365 -0.7561 -0.2206
  585MOL0     C80658   7.455   0.582   3.158 -0.8599  0.1543 -0.1685
  585MOL0     C80659   7.583   0.588   3.224  0.3177  0.1642  0.8549
  585MOL0     C80660   7.683   0.482   3.195  0.4007 -0.2441 -0.0426
  585MOL0     H80661   7.812   0.636   3.734  1.6388 -3.0852 -0.4829
  585MOL0     H80662   7.998   0.694   3.865  0.8834  0.7041  0.3112
  585MOL0     H80663   8.152   1.054   3.841  2.0457  2.4945  0.6857
  585MOL0     H80664   8.245   1.047   3.686 -2.7111 -1.8310 -1.6208
  585MOL0     H80665   8.340   0.971   3.971  1.4339 -2.8156 -0.2191
  585MOL0     H80666   8.437   0.961   3.826  0.9392 -1.0066  2.6538
  585MOL0     H80667   8.415   1.219   3.803  2.0816 -2.1293 -0.7276
  585MOL0     H80668   8.304   1.207   3.942  0.6104  2.7511 -1.2334
  585MOL0     H80669   8.507   1.090   4.052 -2.1256 -2.7971 -4.2275
  585MOL0     H80670   8.607   1.177   3.940  0.4923 -2.9563 -0.0129
  585MOL0     H80671   8.553   1.298   4.151 -4.9198 -1.8591  3.3243
  585MOL0     H80672   8.389   1.316   4.105 -0.5360 -0.7531  1.2571
  585MOL0     H80673   8.638   1.424   3.949  0.6824 -0.2874  2.4142
  585MOL0     H80674   8.474   1.416   3.882  0.7961  1.6975 -1.1012
  585MOL0     H80675   8.576   1.583   4.121  1.2844  1.0094 -0.1009
  585MOL0     H80676   8.401   1.561   4.086  0.8516  0.0364  0.8551
  585MOL0     H80677   8.590   1.664   3.876 -0.0444  0.4382 -0.5242
  585MOL0     H80678   8.421   1.684   3.868 -2.6729  1.1336  3.3753
  585MOL0     H80679   8.645   1.937   3.880  1.0034  1.5927  1.3968
  585MOL0     H80680   8.618   2.174   4.200  0.5998  2.9136 -0.4965
  585MOL0     H80681   8.593   2.210   4.032  1.2247  1.4784  0.1170
  585MOL0     H80682   8.826   2.037   4.076  4.8882  0.9028 -0.2373
  585MOL0     H80683   8.819   2.199   4.004 -0.1998 -0.9391 -0.5897
  585MOL0     H80684   8.806   2.289   4.253  0.3476 -0.5516  3.2917
  585MOL0     H80685   8.815   2.121   4.307 -2.4021  1.6753 -0.0355
  585MOL0     H80686   9.013   2.274   4.316  1.6485  1.8197 -1.2576
  585MOL0     H80687   9.048   2.112   4.267 -0.0327 -0.5732 -0.2179
  585MOL0     H80688   9.144   2.493   4.157  1.3833  0.2249  1.4839
  585MOL0     H80689   9.425   2.662   4.052  0.4366 -0.6122 -0.3575
  585MOL0     H80690   9.419   2.658   4.220  0.3946  1.0898 -1.6119
  585MOL0     H80691   9.265   2.648   4.144  0.4309 -0.0121  2.9442
  585MOL0     H80692   9.850   2.276   4.379  2.5451  2.4928  3.1236
  585MOL0     H80693  10.099   2.301   4.370  2.1132  0.0497 -2.1299
  585MOL0     H80694  10.269   2.431   4.375  0.2503 -0.2406 -0.3153
  585MOL0     H80695  10.328   2.287   4.306 -2.5351  0.0089  0.3938
  585MOL0     H80696  10.521   2.463   4.363 -0.5847 -0.4698  1.1617
  585MOL0     H80697  10.505   2.445   4.186  0.8209 -1.1140  1.7617
  585MOL0     H80698  10.357   2.635   4.371  3.2125 -0.7702  1.6901
  585MOL0     H80699  10.355   2.661   4.192 -0.9937  2.4065  0.8588
  585MOL0     H80700  10.619   2.658   4.221  0.1807  1.6417 -1.0628
  585MOL0     H80701  10.595   2.718   4.385 -1.3820  2.0478  0.4402
  585MOL0     H80702  10.630   2.889   4.189  1.2867 -1.8222  0.6751
  585MOL0     H80703  10.470   2.835   4.133  3.0064 -0.1194 -1.3308
  585MOL0     H80704  10.524   2.941   4.418 -1.3898 -0.9684  1.1176
  585MOL0     H80705  10.373   2.890   4.354  0.1965 -0.4245 -0.2678
  585MOL0     H80706  10.373   3.077   4.191  1.6751 -0.2590 -1.1625
  585MOL0     H80707  10.539   3.130   4.251  0.4259  0.5044  0.2694
  585MOL0     H80708  10.452   3.209   4.454 -2.0171  0.2626  1.2512
  585MOL0     H80709  10.304   3.110   4.438  0.3555  3.2511  5.0741
  585MOL0     H80710  10.086   2.466   3.979  0.1209 -2.5620 -0.7418
  585MOL0     H80711   9.827   2.414   3.974 -1.8834 -0.7150  1.8394
  585MOL0     H80712   9.513   2.167   4.107  0.4123  0.2698  3.4288
  585MOL0     H80713   9.271   2.087   4.104  1.6496 -0.0047  0.1364
  585MOL0     H80714   8.142   0.950   3.543 -1.9715  3.0299 -0.4285
  585MOL0     H80715   7.955   0.910   3.423  1.4860  0.8363  1.6341
  585MOL0     H80716   7.517   0.835   3.442 -0.1350 -2.5846  1.1549
  585MOL0     H80717   7.303   0.833   3.341  2.0712  3.2492 -0.0058
  585MOL0     H80718   7.118   0.801   3.230 -0.7044  0.3585  0.6626
  585MOL0     H80719   7.051   0.693   3.114  1.0524 -0.8129 -0.9020
  585MOL0     H80720   6.951   0.626   3.317 -0.3120 -0.9006 -2.1289
  585MOL0     H80721   7.108   0.594   3.404 -2.0200 -3.4441  0.4683
  585MOL0     H80722   6.941   0.439   3.214  0.4671 -2.1997  0.1984
  585MOL0     H80723   7.118   0.423   3.189  0.6634 -0.3035  0.1534
  585MOL0     H80724   7.123   0.345   3.427 -0.3732 -4.4163  1.2732
  585MOL0     H80725   7.017   0.251   3.326  0.5910 -0.2586  0.0570
  585MOL0     H80726   6.750   0.411   3.616  0.4800 -4.3547  1.4362
  585MOL0     H80727   7.418   0.511   3.084 -1.4452  0.6288 -0.3391
  585MOL0     H80728   7.635   0.403   3.137 -0.0118  0.7202 -1.0501
  585MOL0     H80729   7.765   0.526   3.137 -0.2109 -2.7793 -3.0713
  585MOL0     H80730   7.721   0.433   3.285  1.7698 -1.5826 -1.3014
  586MOL0     O80731   0.281   4.920   5.879 -0.0210  0.3503 -0.4312
  586MOL0     C80732   0.372   4.877   5.948  0.2889 -0.2878  0.1475
  586MOL0     O80733   0.491   4.942   5.968  0.3150  0.0118 -0.2549
  586MOL0     C80734   0.479   5.081   5.961 -0.2931 -0.8849 -0.0181
  586MOL0     C80735   0.474   5.157   6.077 -0.4366  0.8045 -0.0843
  586MOL0     C80736   0.481   5.300   6.070  0.6389  0.2735 -0.5595
  586MOL0     C80737   0.478   5.370   5.954  0.3612 -0.4789 -0.7445
  586MOL0     O80738   0.501   5.505   5.970 -0.2019  0.2324 -0.2178
  586MOL0     C80739   0.481   5.599   5.862 -0.9584 -0.1836 -0.2535
  586MOL0     C80740   0.432   5.731   5.917 -0.1100 -0.2543 -0.4942
  586MOL0     C80741   0.546   5.813   5.975 -0.3318  0.2839 -0.1601
  586MOL0     C80742   0.488   5.913   6.077  1.1009 -0.1420  0.5401
  586MOL0     C80743   0.340   5.966   6.055  0.2488 -0.7357 -0.5723
  586MOL0     C80744   0.307   6.083   6.155  0.0165  0.0338  0.7919
  586MOL0     C80745   0.278   6.036   6.298  0.2507 -0.1741  0.2092
  586MOL0     C80746   0.259   6.150   6.394  0.3869  0.1069 -0.0864
  586MOL0     N80747   0.387   6.221   6.422  0.2857  0.7228 -0.3269
  586MOL0     C80748   0.503   6.154   6.455 -0.2522 -0.3434 -1.3191
  586MOL0     C80749   0.596   6.254   6.481  0.1506  0.7380 -0.0146
  586MOL0     C80750   0.739   6.255   6.514  0.5787 -0.4417 -0.4532
  586MOL0     C80751   0.827   6.244   6.391 -0.4118  0.4304 -0.5001
  586MOL0     C80752   0.970   6.205   6.417 -0.8561  0.1361 -0.5452
  586MOL0     C80753   1.038   6.297   6.527  0.0384  0.6509 -0.0407
  586MOL0     O80754   0.998   6.254   6.665  0.1490 -0.5159 -0.3058
  586MOL0     C80755   1.044   6.336   6.763 -0.0355 -0.1692  0.9346
  586MOL0     C80756   1.183   6.360   6.784  0.1073 -0.0395  0.1936
  586MOL0     C80757   1.224   6.471   6.859 -0.4018 -0.1337  0.1606
  586MOL0     C80758   1.370   6.508   6.845 -0.7701 -0.0480 -0.4257
  586MOL0     C80759   1.121   6.539   6.940 -0.1062 -1.1428 -0.9547
  586MOL0     C80760   1.156   6.647   7.051  0.1965  0.7821  0.5466
  586MOL0     O80761   1.051   6.726   7.091  0.2819  0.5623  0.4620
  586MOL0     C80762   1.067   6.845   7.158 -0.0062  0.8686  0.2743
  586MOL0     C80763   0.951   6.906   7.211  0.6673  0.4385 -0.9448
  586MOL0     C80764   0.951   7.020   7.288 -0.0146  0.7026  0.9436
  586MOL0     C80765   1.072   7.083   7.315 -0.2795  0.2153  0.0220
  586MOL0     O80766   1.083   7.198   7.388  0.2206 -0.0406  0.1366
  586MOL0     C80767   0.981   7.211   7.487 -0.0586 -0.4841  0.1998
  586MOL0     C80768   1.027   7.279   7.616  0.3008  0.5041  0.5442
  586MOL0     C80769   1.107   7.169   7.707  0.0012  0.5735  0.8929
  586MOL0     C80770   1.255   7.161   7.673  0.3650 -1.0637  0.3815
  586MOL0     C80771   1.325   7.281   7.732  0.1724 -0.4393 -0.3602
  586MOL0     C80772   1.477   7.283   7.718 -0.2882 -1.3043 -0.3500
  586MOL0     C80773   1.539   7.207   7.602 -0.5859 -0.0855  0.4100
  586MOL0     C80774   1.527   7.301   7.472  0.8950  0.0064  0.1730
  586MOL0    Cl80775   1.600   7.207   7.326  0.2083  0.2607 -0.3422
  586MOL0     C80776   1.190   7.034   7.262 -0.6663  0.9813 -0.4473
  586MOL0     C80777   1.186   6.918   7.173  0.0186  0.6823 -0.5728
  586MOL0     O80778   1.267   6.639   7.106  0.6747 -0.5584  0.1117
  586MOL0     C80779   0.989   6.496   6.929 -0.0948 -1.1014  0.2461
  586MOL0     C80780   0.946   6.408   6.831 -0.2073  0.4181 -0.4178
  586MOL0     N80781   0.530   6.370   6.455 -1.6835  0.2826 -0.1074
  586MOL0     N80782   0.404   6.356   6.425 -0.0864  0.2163  0.2382
  586MOL0     C80783   0.487   5.303   5.834 -0.2626  0.2062 -0.1760
  586MOL0     C80784   0.488   5.155   5.839  0.3181 -0.0583 -0.4721
  586MOL0     C80785   0.362   4.734   5.993 -0.4335  0.1882  0.0527
  586MOL0     C80786   0.469   4.655   5.956 -0.8205  0.2814 -1.3393
  586MOL0     C80787   0.485   4.532   6.029 -0.4806 -0.6804  0.1383
  586MOL0     C80788   0.393   4.478   6.119 -0.4323  0.3094 -0.1222
  586MOL0     O80789   0.426   4.355   6.179 -0.0819  0.1050  0.1055
  586MOL0     C80790   0.358   4.310   6.296 -0.4551 -0.5826  0.2670
  586MOL0     C80791   0.236   4.234   6.255 -0.5947  0.2398 -0.5305
  586MOL0     C80792   0.270   4.091   6.217 -0.9783 -0.1546 -0.8618
  586MOL0     C80793   0.265   4.050   6.073  0.1504  0.3990  0.3635
  586MOL0     C80794   0.146   4.089   6.007  0.6234 -0.6625  0.8324
  586MOL0     C80795   0.036   4.104   5.959  0.4808 -0.4115  0.0035
  586MOL0     C80796   0.282   4.560   6.147  0.1255  0.4481 -0.3745
  586MOL0     C80797   0.269   4.684   6.092  0.0267 -0.0813 -0.6107
  586MOL0     C80798   0.171   4.777   6.154  0.6131 -0.0256 -0.1298
  586MOL0     H80799   0.474   5.099   6.168  2.4008 -4.6587 -3.0198
  586MOL0     H80800   0.478   5.349   6.166  1.2813 -0.4680 -0.1438
  586MOL0     H80801   0.407   5.566   5.790  1.0262  0.4055 -2.6874
  586MOL0     H80802   0.573   5.630   5.811 -0.9374  1.6652  0.8111
  586MOL0     H80803   0.381   5.796   5.846 -2.1150  2.9441  3.4248
  586MOL0     H80804   0.354   5.697   5.985 -2.1962 -1.5658 -3.3471
  586MOL0     H80805   0.615   5.741   6.019  0.0649 -1.2110 -3.0217
  586MOL0     H80806   0.601   5.859   5.893  0.9927 -2.0076 -0.6125
  586MOL0     H80807   0.497   5.875   6.180 -1.0885  0.9553  1.1959
  586MOL0     H80808   0.549   5.998   6.046 -2.0464  1.1615 -2.6538
  586MOL0     H80809   0.257   5.895   6.063  1.2361 -2.1179 -1.8104
  586MOL0     H80810   0.344   6.002   5.952  4.7860 -0.6849 -0.6053
  586MOL0     H80811   0.379   6.165   6.167  0.2218 -0.1873  1.0812
  586MOL0     H80812   0.217   6.127   6.110  0.4229  1.0566  0.9341
  586MOL0     H80813   0.352   5.969   6.343  3.4691  2.9260 -0.0243
  586MOL0     H80814   0.178   5.993   6.287  0.6919 -1.0427 -0.5180
  586MOL0     H80815   0.177   6.210   6.355 -0.3851  0.2994  1.7001
  586MOL0     H80816   0.215   6.101   6.482  1.7705 -0.5020  0.3018
  586MOL0     H80817   0.517   6.047   6.464 -0.4228 -0.1829  2.0728
  586MOL0     H80818   0.757   6.165   6.573 -0.0147  0.1008  0.5865
  586MOL0     H80819   0.756   6.345   6.573 -3.0245  0.2343 -0.2148
  586MOL0     H80820   0.780   6.177   6.320 -0.2333 -0.5002  0.2432
  586MOL0     H80821   0.825   6.343   6.344  0.7386  0.9766  0.5430
  586MOL0     H80822   0.980   6.100   6.447  5.3000 -0.1741 -2.1673
  586MOL0     H80823   1.019   6.202   6.319 -0.2914 -2.6283 -0.2654
  586MOL0     H80824   1.147   6.283   6.524 -0.1059 -0.5606 -0.3687
  586MOL0     H80825   1.006   6.399   6.504 -2.2185  0.8263  3.2647
  586MOL0     H80826   1.254   6.306   6.723  0.6060 -1.2119  1.7474
  586MOL0     H80827   1.431   6.421   6.821 -4.8304 -2.4202 -3.5428
  586MOL0     H80828   1.411   6.561   6.932 -0.0890 -0.1352 -0.6886
  586MOL0     H80829   1.396   6.572   6.760 -1.4425  0.8935  0.0563
  586MOL0     H80830   0.854   6.857   7.201  0.9007 -0.3957  0.5283
  586MOL0     H80831   0.850   7.051   7.314 -1.6434 -0.0060 -3.6293
  586MOL0     H80832   0.896   7.273   7.456  1.4806  2.3447  1.2527
  586MOL0     H80833   0.941   7.115   7.520 -0.0261 -0.1311  1.2889
  586MOL0     H80834   1.094   7.363   7.595 -1.8822  2.2735  0.2953
  586MOL0     H80835   0.941   7.311   7.675 -0.2266 -1.4533  0.9206
  586MOL0     H80836   1.084   7.063   7.702  2.2243  0.1080 -0.7200
  586MOL0     H80837   1.102   7.190   7.815 -1.9581  2.2757  0.5388
  586MOL0     H80838   1.254   7.151   7.564  0.7055  1.3449  0.1001
  586MOL0     H80839   1.290   7.073   7.727  1.1239  0.3235  2.2473
  586MOL0     H80840   1.290   7.378   7.696  2.7708  2.7934  4.6823
  586MOL0     H80841   1.306   7.276   7.840  2.7232 -4.0274  0.1186
  586MOL0     H80842   1.531   7.235   7.800 -0.3433 -1.9703 -0.6952
  586MOL0     H80843   1.504   7.388   7.707 -1.2406 -1.2511 -2.9136
  586MOL0     H80844   1.485   7.113   7.584 -2.9938  0.6722  2.9083
  586MOL0     H80845   1.643   7.184   7.626 -0.8919 -3.7284 -1.1799
  586MOL0     H80846   1.580   7.396   7.484  2.1387 -0.4239 -1.5908
  586MOL0     H80847   1.425   7.331   7.450  0.6566 -1.2509 -0.5552
  586MOL0     H80848   1.282   7.085   7.287 -0.7325  0.5029  0.8204
  586MOL0     H80849   1.284   6.883   7.142  0.0567 -1.3875  1.6117
  586MOL0     H80850   0.915   6.551   6.986 -2.2005 -2.7450 -0.7531
  586MOL0     H80851   0.839   6.401   6.817 -0.0094  0.3748 -2.1979
  586MOL0     H80852   0.482   5.356   5.740 -0.1387  2.3329  0.9672
  586MOL0     H80853   0.502   5.094   5.750  3.0004 -0.0141 -0.1380
  586MOL0     H80854   0.542   4.688   5.884 -1.8613  1.6726 -1.7987
  586MOL0     H80855   0.570   4.471   6.000 -0.5340 -0.8138  0.2595
  586MOL0     H80856   0.421   4.240   6.351 -0.6461 -0.9320  0.0480
  586MOL0     H80857   0.334   4.399   6.355  1.5746 -0.6344  1.2505
  586MOL0     H80858   0.169   4.282   6.183 -3.0479  0.8243  2.0053
  586MOL0     H80859   0.168   4.242   6.340  0.3084 -1.2185  0.3688
  586MOL0     H80860   0.368   4.059   6.253 -1.6964 -0.3800  1.0256
  586MOL0     H80861   0.194   4.030   6.267 -1.1738  2.4428  2.3821
  586MOL0     H80862   0.276   3.941   6.066 -0.4893  0.4063 -0.9919
  586MOL0     H80863   0.342   4.090   6.006 -2.1720 -0.0916 -2.8660
  586MOL0     H80864  -0.065   4.102   5.922  1.1942  0.9630 -2.2338
  586MOL0     H80865   0.216   4.515   6.221  0.6560  1.2431  0.6136
  586MOL0     H80866   0.149   4.750   6.258 -3.5731  2.9388  0.0395
  586MOL0     H80867   0.217   4.876   6.157  2.7029 -0.9503 -0.1195
  586MOL0     H80868   0.080   4.786   6.093  0.5574 -1.3258 -0.2650
  587MOL0     O80869   7.794   9.216   3.020 -0.1133 -0.9718  0.4571
  587MOL0     C80870   7.871   9.240   2.925  0.3767 -0.0837 -0.5410
  587MOL0     O80871   7.861   9.341   2.829  0.0954 -0.7414 -0.4960
  587MOL0     C80872   7.735   9.401   2.813 -0.6338 -0.3930 -0.3211
  587MOL0     C80873   7.699   9.438   2.683  0.5210 -0.3956  0.5087
  587MOL0     C80874   7.581   9.512   2.657  0.2869  1.2691 -0.7916
  587MOL0     C80875   7.490   9.545   2.763 -0.8409 -0.6964  0.1832
  587MOL0     O80876   7.368   9.591   2.716 -0.5345 -0.9564  0.8918
  587MOL0     C80877   7.308   9.692   2.793 -0.5817  0.6126  0.0392
  587MOL0     C80878   7.192   9.757   2.709  0.9222 -0.2765  0.3042
  587MOL0     C80879   7.251   9.827   2.575 -0.0270  0.0781  1.2471
  587MOL0     C80880   7.128   9.888   2.497  0.2189 -0.9763  0.0538
  587MOL0     C80881   7.169   9.929   2.350 -0.3530 -0.1342 -0.0372
  587MOL0     C80882   7.062  10.010   2.278 -0.1519 -0.0042  0.6640
  587MOL0     C80883   7.109  10.057   2.135  0.5211  0.5710  0.2766
  587MOL0     C80884   7.008  10.165   2.082  0.2673 -0.1220  0.2607
  587MOL0     N80885   7.053  10.184   1.944  0.4718  0.7073  0.0951
  587MOL0     C80886   7.029  10.100   1.837 -1.1255 -0.1089 -0.6088
  587MOL0     C80887   7.100  10.138   1.730  0.5657  1.0269 -0.3938
  587MOL0     C80888   7.100  10.063   1.601 -0.5552 -0.1352  0.2966
  587MOL0     C80889   6.996  10.138   1.512 -0.0033  0.0095 -0.5090
  587MOL0     C80890   7.004  10.084   1.368  0.1064 -0.3462  0.0221
  587MOL0     C80891   7.136  10.105   1.292 -0.0213  0.2281 -0.0746
  587MOL0     O80892   7.184  10.241   1.326 -0.6452  0.9073  0.2161
  587MOL0     C80893   7.315  10.275   1.293  0.5192 -0.0400 -0.7205
  587MOL0     C80894   7.389  10.197   1.205 -0.1903  0.3934 -0.3733
  587MOL0     C80895   7.519  10.238   1.172  0.5540  0.4987 -0.1290
  587MOL0     C80896   7.580  10.151   1.063 -1.1058  0.4899 -0.5892
  587MOL0     C80897   7.565  10.366   1.224 -0.4892  0.0012  0.4940
  587MOL0     C80898   7.700  10.427   1.186  0.3405 -0.4569  0.2187
  587MOL0     O80899   7.735  10.542   1.256  0.0235  0.2465  0.0951
  587MOL0     C80900   7.861  10.601   1.242 -0.3373  0.3179  0.6747
  587MOL0     C80901   7.935  10.645   1.352 -0.6498  0.7679  0.0958
  587MOL0     C80902   8.062  10.707   1.332  0.1395 -0.4051 -0.4566
  587MOL0     C80903   8.111  10.735   1.210  0.5857 -0.2528  0.1790
  587MOL0     O80904   8.220  10.816   1.190  0.6544  0.7037 -0.3384
  587MOL0     C80905   8.294  10.867   1.297 -0.4480 -0.4544  0.4471
  587MOL0     C80906   8.418  10.929   1.226 -0.1590  0.3182 -0.1989
  587MOL0     C80907   8.398  11.068   1.166  0.3778 -0.4759  0.2088
  587MOL0     C80908   8.516  11.099   1.062 -1.0087 -0.1789  0.4720
  587MOL0     C80909   8.506  11.218   0.971  0.5785  0.3960  0.0598
  587MOL0     C80910   8.513  11.353   1.046 -0.2131  0.4269  0.1891
  587MOL0     C80911   8.656  11.373   1.115  0.2759  0.6295  0.5072
  587MOL0     C80912   8.679  11.517   1.145  0.2008  1.1846  0.2885
  587MOL0    Cl80913   8.688  11.604   0.998  0.5050 -0.2826 -0.0814
  587MOL0     C80914   8.028  10.707   1.099 -0.0451  0.5263  0.7771
  587MOL0     C80915   7.910  10.631   1.113  0.5410 -0.4376 -1.3041
  587MOL0     O80916   7.759  10.384   1.082 -0.2913 -0.0212 -0.2495
  587MOL0     C80917   7.485  10.438   1.312 -0.3625  0.1988 -0.6393
  587MOL0     C80918   7.362  10.386   1.355 -0.1984  0.8596 -0.7682
  587MOL0     N80919   7.157  10.260   1.765  0.2966 -0.3650 -0.5462
  587MOL0     N80920   7.115  10.290   1.886 -0.3110  0.2233 -0.6112
  587MOL0     C80921   7.535   9.522   2.891 -0.3495  0.0825 -0.4854
  587MOL0     C80922   7.659   9.454   2.916  0.7474 -0.4448 -0.5132
  587MOL0     C80923   7.979   9.136   2.902  0.0217 -0.4998 -0.4627
  587MOL0     C80924   7.971   9.014   2.971  0.1482  0.1000 -0.9598
  587MOL0     C80925   8.077   8.923   2.973  0.1788 -0.6085 -0.6385
  587MOL0     C80926   8.191   8.951   2.896  0.3716  0.6611  0.4451
  587MOL0     O80927   8.298   8.871   2.870  0.2555 -0.0678 -0.4111
  587MOL0     C80928   8.288   8.734   2.915  0.2245 -0.6004 -0.2492
  587MOL0     C80929   8.429   8.680   2.918 -1.1001  0.5427 -0.0209
  587MOL0     C80930   8.457   8.630   2.767 -0.2769  0.1074  1.3739
  587MOL0     C80931   8.607   8.620   2.732  0.6081 -0.6840  0.2103
  587MOL0     C80932   8.674   8.514   2.805 -0.0206  1.2882  0.0761
  587MOL0     C80933   8.727   8.431   2.876 -0.8970  0.3660 -0.8793
  587MOL0     C80934   8.199   9.069   2.812  0.2493  0.6253 -0.2512
  587MOL0     C80935   8.096   9.173   2.821  0.0247  0.1607 -0.7744
  587MOL0     C80936   8.131   9.296   2.744  0.4860  0.1718 -0.4364
  587MOL0     H80937   7.766   9.413   2.601  0.7965 -1.0711  0.9323
  587MOL0     H80938   7.561   9.530   2.552  1.9623 -2.3396 -1.8818
  587MOL0     H80939   7.383   9.766   2.821  0.4490 -0.3764 -0.0149
  587MOL0     H80940   7.262   9.649   2.882 -0.9907  1.2201  0.1251
  587MOL0     H80941   7.122   9.677   2.682 -0.0582  0.8679 -0.6994
  587MOL0     H80942   7.128   9.817   2.775 -0.5318 -2.1993  0.7340
  587MOL0     H80943   7.325   9.903   2.602  0.3018 -0.2127  1.1614
  587MOL0     H80944   7.302   9.767   2.500 -0.2467 -2.2675  2.8711
  587MOL0     H80945   7.041   9.821   2.492  0.1424 -0.8660 -0.1052
  587MOL0     H80946   7.102   9.979   2.551  0.0159 -0.6455 -0.5954
  587MOL0     H80947   7.201   9.840   2.294  1.4182  0.8402 -0.6675
  587MOL0     H80948   7.260   9.988   2.363  1.0871 -1.1731 -3.8864
  587MOL0     H80949   6.970   9.953   2.267 -0.6509  1.0377 -1.1069
  587MOL0     H80950   7.045  10.100   2.338  0.5948  3.4293 -3.7241
  587MOL0     H80951   7.099   9.975   2.064  1.2836 -1.2948  2.2056
  587MOL0     H80952   7.209  10.097   2.154  1.4207 -2.6325  3.2348
  587MOL0     H80953   6.906  10.131   2.103  0.5355 -0.6641  0.7158
  587MOL0     H80954   7.034  10.255   2.138  2.8910  1.5084 -3.2211
  587MOL0     H80955   6.972  10.007   1.846 -0.0312 -0.7581 -0.1930
  587MOL0     H80956   7.065   9.959   1.606  3.0115 -1.4308  2.2139
  587MOL0     H80957   7.200  10.064   1.556 -0.5741 -0.9490  0.2173
  587MOL0     H80958   6.895  10.124   1.551 -0.1790  4.4444  1.2664
  587MOL0     H80959   7.010  10.246   1.514  0.5338 -0.0631  0.2171
  587MOL0     H80960   6.983   9.977   1.370  0.9812 -0.5131  0.9842
  587MOL0     H80961   6.924  10.140   1.318 -0.1058 -1.3629 -0.8133
  587MOL0     H80962   7.212  10.040   1.335  2.7291  3.3226  0.1103
  587MOL0     H80963   7.125  10.081   1.185  5.3738  1.2378 -1.1405
  587MOL0     H80964   7.333  10.123   1.148 -1.1540 -1.2401  2.4743
  587MOL0     H80965   7.578  10.047   1.096  5.0680 -0.2418 -1.3890
  587MOL0     H80966   7.688  10.163   1.049 -1.3277  0.4118 -2.5377
  587MOL0     H80967   7.534  10.162   0.965  0.5460  0.5042 -1.3984
  587MOL0     H80968   7.899  10.611   1.448  0.4397  0.0769  0.2778
  587MOL0     H80969   8.114  10.750   1.416  0.9246  4.1651 -2.9753
  587MOL0     H80970   8.244  10.941   1.361  2.6411  2.5375 -0.3200
  587MOL0     H80971   8.344  10.783   1.346  2.6361  0.7279 -0.4388
  587MOL0     H80972   8.493  10.957   1.300  0.2403  4.3799 -1.8678
  587MOL0     H80973   8.470  10.860   1.159  2.6836  0.8385  1.3455
  587MOL0     H80974   8.391  11.146   1.242 -2.5541  1.2966 -1.6366
  587MOL0     H80975   8.305  11.078   1.108  0.0344  0.5493  0.8984
  587MOL0     H80976   8.527  11.023   0.984  1.5788  1.6901 -1.1364
  587MOL0     H80977   8.609  11.116   1.118 -1.8762 -1.0331  2.2633
  587MOL0     H80978   8.587  11.219   0.897 -0.0763  0.6153 -0.6676
  587MOL0     H80979   8.414  11.220   0.912  1.1396 -0.2314 -0.8549
  587MOL0     H80980   8.434  11.362   1.122  2.0730  3.6545  2.4714
  587MOL0     H80981   8.486  11.432   0.975 -0.3728  1.4793  1.3737
  587MOL0     H80982   8.740  11.345   1.050  0.5925  0.4994  0.9694
  587MOL0     H80983   8.655  11.324   1.213  0.6125  2.7741  1.6318
  587MOL0     H80984   8.771  11.514   1.204  0.5360 -2.5577 -0.2172
  587MOL0     H80985   8.594  11.563   1.196 -1.5506 -1.4307 -0.0814
  587MOL0     H80986   8.056  10.733   0.998  2.0427  1.5298  1.5687
  587MOL0     H80987   7.852  10.607   1.024 -2.9395  0.1411  0.6394
  587MOL0     H80988   7.517  10.529   1.362 -2.2104  0.1273  0.7870
  587MOL0     H80989   7.306  10.441   1.430 -1.1151  1.1758 -1.6652
  587MOL0     H80990   7.473   9.547   2.977 -0.4683  0.9016 -0.7996
  587MOL0     H80991   7.688   9.447   3.021 -2.0730 -0.4414  0.3744
  587MOL0     H80992   7.887   8.979   3.029  2.7609  1.1267  4.0690
  587MOL0     H80993   8.066   8.824   3.017  0.7613 -0.9444 -1.2239
  587MOL0     H80994   8.246   8.718   3.014  5.4423 -1.8525  2.0827
  587MOL0     H80995   8.230   8.684   2.837  0.0976 -2.9053  1.2335
  587MOL0     H80996   8.426   8.592   2.982 -0.4477  1.9434  2.0450
  587MOL0     H80997   8.510   8.746   2.953  1.4205 -0.5080 -3.3706
  587MOL0     H80998   8.403   8.536   2.751 -0.9167  0.9604 -2.6935
  587MOL0     H80999   8.411   8.700   2.696 -1.5728 -0.9437  1.1238
  587MOL0     H81000   8.653   8.717   2.752 -2.2036  0.8592 -0.3274
  587MOL0     H81001   8.626   8.605   2.625  1.2164 -0.7174  0.3178
  587MOL0     H81002   8.777   8.362   2.940 -0.1792  0.2021 -1.5930
  587MOL0     H81003   8.288   9.075   2.750  2.4954 -2.4085  2.3498
  587MOL0     H81004   8.219   9.282   2.680  2.2566 -1.7604  2.2258
  587MOL0     H81005   8.056   9.331   2.673  0.2550  2.6357  0.9408
  587MOL0     H81006   8.142   9.376   2.817 -0.3125 -0.1529  0.0463
  588MOL0     O81007   8.083  10.396   9.021  0.1110  0.1515  0.7497
  588MOL0     C81008   8.085  10.270   9.030  0.4230 -0.6984 -0.5020
  588MOL0     O81009   8.099  10.204   9.143 -0.3659 -0.0337 -0.3364
  588MOL0     C81010   8.139  10.254   9.262  1.0490  0.4687  0.4048
  588MOL0     C81011   8.094  10.383   9.306 -0.6314  0.3765 -0.3024
  588MOL0     C81012   8.128  10.428   9.437 -0.0002 -0.3391  0.0431
  588MOL0     C81013   8.211  10.354   9.520 -0.6354  0.3708  0.1514
  588MOL0     O81014   8.254  10.383   9.649  0.2219 -0.3579  0.0708
  588MOL0     C81015   8.178  10.475   9.727  0.0979 -0.2572  0.0022
  588MOL0     C81016   8.245  10.496   9.866  0.5059 -0.4793  0.4411
  588MOL0     C81017   8.152  10.558   9.960 -0.1868  1.1809  0.1391
  588MOL0     C81018   8.228  10.620  10.069 -0.5844  0.6084  0.5525
  588MOL0     C81019   8.133  10.688  10.160  0.1442  0.0569  0.7517
  588MOL0     C81020   8.197  10.741  10.275 -0.0177 -0.0199 -0.8864
  588MOL0     C81021   8.272  10.876  10.246 -0.2670 -0.0597 -0.1870
  588MOL0     C81022   8.316  10.949  10.382  0.2539 -0.6681  0.6283
  588MOL0     N81023   8.413  10.871  10.455 -0.1560  0.5675 -0.7248
  588MOL0     C81024   8.388  10.829  10.590  0.1081 -0.1286  0.1666
  588MOL0     C81025   8.508  10.768  10.623  0.3900 -0.3925 -0.0320
  588MOL0     C81026   8.545  10.719  10.756  0.0949 -0.1026 -0.1843
  588MOL0     C81027   8.583  10.840  10.842 -1.0754 -0.1887 -0.3845
  588MOL0     C81028   8.569  10.802  10.991 -0.1263 -0.4195  0.1953
  588MOL0     C81029   8.684  10.717  11.042  0.1334  0.0125  0.5983
  588MOL0     O81030   8.722  10.768  11.164  0.2214 -0.2932 -1.1204
  588MOL0     C81031   8.770  10.680  11.257  0.7529  0.2184 -0.1172
  588MOL0     C81032   8.871  10.587  11.229  0.2670  0.3328  0.1062
  588MOL0     C81033   8.924  10.504  11.327  0.2086 -0.6126  0.4096
  588MOL0     C81034   9.040  10.410  11.282  0.0234  0.7430  1.1140
  588MOL0     C81035   8.884  10.513  11.457 -1.0716 -1.1642  0.5084
  588MOL0     C81036   8.958  10.441  11.577 -0.6030 -0.0011  0.3946
  588MOL0     O81037   8.891  10.443  11.695 -0.4481 -0.1407 -0.3817
  588MOL0     C81038   8.946  10.386  11.808 -0.5663  0.2217  0.9391
  588MOL0     C81039   8.969  10.459  11.916 -1.0883 -1.0907  0.7321
  588MOL0     C81040   9.024  10.414  12.036  0.0526 -0.9067 -0.5791
  588MOL0     C81041   9.041  10.281  12.060 -0.3336 -0.6209  0.1369
  588MOL0     O81042   9.084  10.228  12.170 -0.0142 -0.7098 -0.3256
  588MOL0     C81043   9.069  10.310  12.293  1.1857 -0.4504 -1.3387
  588MOL0     C81044   9.058  10.247  12.427  0.1609  0.9060 -0.9471
  588MOL0     C81045   9.062  10.336  12.551 -0.1471  0.1453  1.9953
  588MOL0     C81046   9.209  10.342  12.608  0.0078  0.8708  0.0865
  588MOL0     C81047   9.210  10.401  12.743  0.5011  0.2401  0.8138
  588MOL0     C81048   9.337  10.380  12.821  0.2037  0.3026 -0.4773
  588MOL0     C81049   9.316  10.437  12.961 -0.9915 -0.2857 -0.8567
  588MOL0     C81050   9.442  10.423  13.047 -0.3535 -0.5055 -0.3950
  588MOL0    Cl81051   9.444  10.530  13.187  0.0521  0.1895  0.1689
  588MOL0     C81052   9.021  10.193  11.947 -0.0680  1.1020  0.1556
  588MOL0     C81053   8.978  10.249  11.824  0.5692  0.3532 -0.6149
  588MOL0     O81054   9.075  10.400  11.559 -0.2889 -0.6262  0.6975
  588MOL0     C81055   8.775  10.600  11.484 -0.0051  0.9051 -0.2598
  588MOL0     C81056   8.711  10.676  11.385 -0.1477  1.1993 -0.2648
  588MOL0     N81057   8.593  10.788  10.524 -0.4240  1.2130 -0.3591
  588MOL0     N81058   8.544  10.848  10.425 -0.5153 -0.6159 -1.1194
  588MOL0     C81059   8.254  10.228   9.469 -0.3604  0.5079 -0.1091
  588MOL0     C81060   8.211  10.177   9.343 -0.3726  0.4424 -0.1782
  588MOL0     C81061   8.069  10.180   8.905 -0.3757  0.2683 -0.2665
  588MOL0     C81062   8.135  10.061   8.897  0.3437  0.5028  0.4379
  588MOL0     C81063   8.145   9.987   8.785  0.6049 -0.4592 -0.1542
  588MOL0     C81064   8.074  10.026   8.667 -0.1055 -0.1006 -0.2731
  588MOL0     O81065   8.084   9.962   8.545 -0.2837  0.7422  0.4875
  588MOL0     C81066   8.109   9.819   8.554 -0.4489  0.7058 -0.9032
  588MOL0     C81067   8.256   9.768   8.544 -0.2246 -0.4138 -0.4819
  588MOL0     C81068   8.339   9.823   8.416 -0.0552  0.5790 -0.4111
  588MOL0     C81069   8.476   9.778   8.427  0.6950 -0.2613  0.4556
  588MOL0     C81070   8.552   9.878   8.363  0.1424  0.0586 -0.7038
  588MOL0     C81071   8.621   9.957   8.302  0.6525  0.4039  1.0485
  588MOL0     C81072   8.013  10.156   8.672 -0.8686  0.2319 -0.6405
  588MOL0     C81073   8.002  10.231   8.793 -0.1392  0.1665  0.7805
  588MOL0     C81074   7.938  10.364   8.779 -0.2882  0.0164 -0.0722
  588MOL0     H81075   8.025  10.445   9.250 -2.3720 -2.0372 -0.9664
  588MOL0     H81076   8.082  10.523   9.465 -2.2279 -0.6648 -2.1532
  588MOL0     H81077   8.074  10.441   9.734 -0.8232  2.6435  1.7538
  588MOL0     H81078   8.189  10.570   9.674 -0.0203  0.8079  1.8444
  588MOL0     H81079   8.266  10.392   9.893 -1.9556 -1.4328 -1.0266
  588MOL0     H81080   8.340  10.550   9.854  1.4447 -2.4105 -1.5241
  588MOL0     H81081   8.101  10.632   9.897 -3.2163 -2.9861 -2.8791
  588MOL0     H81082   8.070  10.490   9.985  0.1301 -0.0809 -1.9919
  588MOL0     H81083   8.280  10.542  10.126  0.5793  0.9453 -0.0072
  588MOL0     H81084   8.292  10.699  10.028 -1.9347  0.4531 -2.0166
  588MOL0     H81085   8.054  10.613  10.173  2.2289 -2.5706 -0.6819
  588MOL0     H81086   8.085  10.778  10.122  1.7533  0.1660 -1.1259
  588MOL0     H81087   8.116  10.774  10.341 -1.0357 -1.2799 -1.4610
  588MOL0     H81088   8.265  10.670  10.324 -2.0071 -1.1340  0.3590
  588MOL0     H81089   8.212  10.946  10.188  2.6126  2.0174 -0.9184
  588MOL0     H81090   8.358  10.860  10.180  0.4148  0.8155  0.4614
  588MOL0     H81091   8.370  11.043  10.363  0.4535 -0.6658  1.1877
  588MOL0     H81092   8.231  10.975  10.446  0.0914 -1.5084  0.7523
  588MOL0     H81093   8.300  10.841  10.651  0.4241 -2.3925  1.1563
  588MOL0     H81094   8.630  10.651  10.760 -0.6438 -0.9947  1.0587
  588MOL0     H81095   8.456  10.667  10.794 -0.2804  0.7278  0.0945
  588MOL0     H81096   8.684  10.880  10.825 -1.6683  2.3983  1.6142
  588MOL0     H81097   8.511  10.919  10.817 -2.3759 -1.2864 -0.1424
  588MOL0     H81098   8.567  10.896  11.049  2.6022  1.0125 -1.8093
  588MOL0     H81099   8.481  10.739  11.005  0.7456 -1.6080  0.5089
  588MOL0     H81100   8.650  10.615  11.058 -1.1130  0.2800 -0.2018
  588MOL0     H81101   8.771  10.706  10.976  2.7063 -0.7410  3.8506
  588MOL0     H81102   8.895  10.589  11.124  1.4982  2.0627  0.3690
  588MOL0     H81103   9.025  10.309  11.321  1.8219  1.0279  2.6544
  588MOL0     H81104   9.136  10.439  11.323  0.7809 -0.7712  0.4812
  588MOL0     H81105   9.038  10.400  11.173  1.0132 -3.2817  1.3081
  588MOL0     H81106   8.963  10.566  11.902 -2.0940 -1.2698 -0.3212
  588MOL0     H81107   9.043  10.495  12.105  0.8122 -2.2636  0.8844
  588MOL0     H81108   9.151  10.383  12.293 -0.6566  1.7569 -0.8488
  588MOL0     H81109   8.972  10.360  12.281  1.3560  0.1201 -0.4863
  588MOL0     H81110   8.965  10.190  12.431  2.5367 -3.3041  1.3079
  588MOL0     H81111   9.142  10.178  12.435 -1.5747 -1.4602 -1.7975
  588MOL0     H81112   8.997  10.301  12.631 -1.2470 -0.5970  0.8070
  588MOL0     H81113   9.023  10.428  12.506  3.2253 -0.7504 -3.7933
  588MOL0     H81114   9.289  10.385  12.548  3.3768 -3.2776  1.1950
  588MOL0     H81115   9.236  10.237  12.620  0.6696  1.0970  0.6412
  588MOL0     H81116   9.200  10.509  12.726  0.4185 -0.3553 -4.6367
  588MOL0     H81117   9.130  10.354  12.801 -0.5454  1.1793  0.1638
  588MOL0     H81118   9.411  10.442  12.770 -2.6964  2.3813 -2.4695
  588MOL0     H81119   9.369  10.276  12.831  1.6853  0.7903  0.1281
  588MOL0     H81120   9.240  10.374  13.009  0.4858 -1.1541  0.4447
  588MOL0     H81121   9.281  10.540  12.951 -0.2898 -0.0717 -1.2283
  588MOL0     H81122   9.527  10.456  12.986  1.8174 -1.5710  1.8890
  588MOL0     H81123   9.444  10.317  13.073 -3.2557 -0.9024 -1.4057
  588MOL0     H81124   9.036  10.085  11.952 -1.7082  0.8365  0.1441
  588MOL0     H81125   8.962  10.184  11.738 -3.3984  0.1864  0.0310
  588MOL0     H81126   8.743  10.601  11.588  0.5051  2.1178 -0.1036
  588MOL0     H81127   8.623  10.734  11.412 -0.3011  0.5910  0.6051
  588MOL0     H81128   8.312  10.160   9.530  0.5345  1.3969  0.0553
  588MOL0     H81129   8.250  10.079   9.316  1.2347  1.1065 -0.3466
  588MOL0     H81130   8.200  10.025   8.977  0.5058  0.8593  0.4691
  588MOL0     H81131   8.190   9.888   8.786  2.1511  0.1579 -2.0033
  588MOL0     H81132   8.063   9.775   8.643 -0.5710  2.8735  0.1856
  588MOL0     H81133   8.055   9.772   8.471  0.1899 -0.8363 -0.4629
  588MOL0     H81134   8.270   9.660   8.555  1.2549 -0.1880  0.2458
  588MOL0     H81135   8.304   9.818   8.628  0.8149  1.4152 -2.0737
  588MOL0     H81136   8.301   9.782   8.322 -0.2339 -0.3183  0.0350
  588MOL0     H81137   8.328   9.932   8.416 -1.5394  0.4721 -1.7540
  588MOL0     H81138   8.482   9.684   8.371 -0.7365  0.7413 -1.4921
  588MOL0     H81139   8.524   9.764   8.525  2.2392  1.9334  0.0736
  588MOL0     H81140   8.672  10.027   8.238 -2.8118  2.4348  0.2263
  588MOL0     H81141   7.975  10.192   8.577  0.1149 -1.4168 -1.7214
  588MOL0     H81142   7.878  10.372   8.688 -0.0430  0.9856 -0.1511
  588MOL0     H81143   7.882  10.385   8.871  1.7196 -0.7899  1.4134
  588MOL0     H81144   8.015  10.441   8.771 -1.3435  1.0434 -0.7098
  589MOL0     O81145   4.840   4.360   4.502 -0.0805  0.1964  0.4915
  589MOL0     C81146   4.898   4.410   4.595 -0.5978  0.1254  0.7582
  589MOL0     O81147   4.934   4.537   4.604 -0.5120 -0.4771 -0.1878
  589MOL0     C81148   4.888   4.628   4.516 -0.0183 -1.0411  0.2086
  589MOL0     C81149   4.749   4.637   4.489 -0.1238 -0.2809  1.5082
  589MOL0     C81150   4.708   4.733   4.390 -0.3083 -1.1824 -0.0827
  589MOL0     C81151   4.798   4.819   4.321  0.0755  0.2811 -1.0769
  589MOL0     O81152   4.740   4.913   4.233  0.0026  0.1485  0.2630
  589MOL0     C81153   4.837   4.993   4.159  0.8079 -0.0676 -0.7390
  589MOL0     C81154   4.911   4.907   4.054  0.2685  0.6317 -0.5633
  589MOL0     C81155   4.835   4.884   3.916 -0.7202  0.7015 -0.1587
  589MOL0     C81156   4.704   4.813   3.931 -0.0852  1.1834  0.7765
  589MOL0     C81157   4.638   4.792   3.788  0.0803 -0.9946  0.4660
  589MOL0     C81158   4.495   4.759   3.811 -0.4009  1.6486 -0.5271
  589MOL0     C81159   4.436   4.675   3.694  0.3034  0.0811  0.1418
  589MOL0     C81160   4.433   4.758   3.560 -0.3443 -1.0767 -1.1194
  589MOL0     N81161   4.315   4.840   3.540 -1.2207  0.3742 -0.6281
  589MOL0     C81162   4.201   4.782   3.488  0.0316 -0.6282 -0.7465
  589MOL0     C81163   4.094   4.841   3.544 -0.2775 -0.4238  0.2697
  589MOL0     C81164   3.950   4.803   3.532  0.2798  0.1332 -0.6163
  589MOL0     C81165   3.897   4.814   3.382  0.0449 -0.1710 -0.1918
  589MOL0     C81166   3.959   4.722   3.277  1.4650 -0.9961  0.1255
  589MOL0     C81167   3.931   4.570   3.293  0.1037 -0.0541 -0.0764
  589MOL0     O81168   3.797   4.530   3.322 -0.3648  0.1104 -0.4343
  589MOL0     C81169   3.700   4.537   3.228 -1.0952 -0.7611  0.3060
  589MOL0     C81170   3.582   4.481   3.272  0.2026 -1.0481 -0.5669
  589MOL0     C81171   3.478   4.456   3.179  0.2567 -1.0480  0.1895
  589MOL0     C81172   3.358   4.395   3.232 -0.3158  0.6246  0.0475
  589MOL0     C81173   3.491   4.506   3.042 -0.2858 -0.1595  0.8796
  589MOL0     C81174   3.383   4.501   2.940  0.0645 -0.0360  0.0037
  589MOL0     O81175   3.351   4.621   2.882  0.1275  0.8052  0.0965
  589MOL0     C81176   3.224   4.641   2.837 -0.4808 -0.5823  0.1066
  589MOL0     C81177   3.121   4.658   2.927 -0.0627 -0.1547 -0.5023
  589MOL0     C81178   2.991   4.657   2.876 -0.2589  0.0703 -0.3770
  589MOL0     C81179   2.956   4.630   2.746  0.4120  0.5156 -0.7313
  589MOL0     O81180   2.827   4.604   2.724 -0.2459  0.0529 -0.5116
  589MOL0     C81181   2.796   4.533   2.604 -0.7238  0.8145 -0.8790
  589MOL0     C81182   2.679   4.440   2.629  0.4075 -1.2548  0.3772
  589MOL0     C81183   2.632   4.367   2.501 -0.7234 -0.0149 -0.2692
  589MOL0     C81184   2.485   4.333   2.531  0.3211  0.1982 -0.0604
  589MOL0     C81185   2.470   4.215   2.624  0.0916  0.0473  0.0394
  589MOL0     C81186   2.324   4.185   2.653  0.0571 -0.0344  0.0314
  589MOL0     C81187   2.311   4.064   2.742  0.8971 -0.4030  0.8073
  589MOL0     C81188   2.318   4.108   2.890 -0.2375 -0.2665 -0.1212
  589MOL0    Cl81189   2.266   3.977   3.002  0.1355  0.1518  0.1431
  589MOL0     C81190   3.061   4.628   2.653 -0.3733 -1.2945 -0.3204
  589MOL0     C81191   3.194   4.629   2.704  0.1270  0.5912 -0.1550
  589MOL0     O81192   3.325   4.390   2.927 -0.3569 -1.2058  0.8017
  589MOL0     C81193   3.608   4.573   3.010 -0.2420  0.3837  0.2033
  589MOL0     C81194   3.707   4.590   3.100  0.4680  0.2787  1.1924
  589MOL0     N81195   4.146   4.947   3.614 -0.5654 -1.0673 -0.3249
  589MOL0     N81196   4.276   4.943   3.619 -0.6850 -0.6963 -0.2122
  589MOL0     C81197   4.935   4.799   4.350  1.0632 -0.1719  0.0844
  589MOL0     C81198   4.982   4.717   4.456  0.3171 -1.4610  0.5257
  589MOL0     C81199   4.947   4.320   4.701  0.5453 -1.0081  0.5603
  589MOL0     C81200   4.976   4.188   4.668  0.7390  0.2052 -0.2049
  589MOL0     C81201   5.020   4.094   4.767 -0.2470  0.2314  0.1661
  589MOL0     C81202   5.021   4.130   4.903 -0.7292  0.2051 -0.7313
  589MOL0     O81203   5.062   4.030   4.994  0.0818  0.4116  0.5946
  589MOL0     C81204   5.046   4.053   5.135 -0.1414  0.3680 -0.5320
  589MOL0     C81205   4.918   3.977   5.182 -0.0158  0.8384 -0.0380
  589MOL0     C81206   4.892   3.993   5.328 -0.9660 -0.1418 -0.6342
  589MOL0     C81207   4.748   3.956   5.373 -0.5102 -0.0667 -0.3698
  589MOL0     C81208   4.645   4.027   5.297 -0.8869  0.1919 -0.2690
  589MOL0     C81209   4.565   4.058   5.213  0.3527 -0.5231  0.4621
  589MOL0     C81210   4.977   4.257   4.938  0.6138  0.4537 -0.0752
  589MOL0     C81211   4.942   4.354   4.840 -0.1627  0.9483 -0.8805
  589MOL0     C81212   4.906   4.493   4.886 -0.1954  0.3232 -0.0657
  589MOL0     H81213   4.684   4.568   4.542  1.6826 -1.4830  2.2766
  589MOL0     H81214   4.602   4.754   4.375  0.4916  3.6473 -0.6089
  589MOL0     H81215   4.903   5.046   4.229  0.6524 -0.7948 -0.0366
  589MOL0     H81216   4.779   5.076   4.117 -0.5065 -0.8610 -0.5485
  589MOL0     H81217   5.005   4.956   4.029 -1.1241  1.9252 -3.9055
  589MOL0     H81218   4.930   4.804   4.085 -1.0932  0.8399  1.0984
  589MOL0     H81219   4.837   4.979   3.861 -0.4956  1.4055  1.0283
  589MOL0     H81220   4.899   4.817   3.859  1.3005  2.5127 -0.1477
  589MOL0     H81221   4.713   4.716   3.982  2.8416  1.5867  1.1873
  589MOL0     H81222   4.633   4.866   3.995 -1.9492 -0.0323 -0.1925
  589MOL0     H81223   4.694   4.712   3.739  2.0358 -1.4465  3.1873
  589MOL0     H81224   4.629   4.893   3.746  1.2818 -0.5227  1.2622
  589MOL0     H81225   4.482   4.691   3.896 -0.9890 -1.9946 -3.2843
  589MOL0     H81226   4.434   4.847   3.831 -0.9951  1.6441 -2.1488
  589MOL0     H81227   4.338   4.632   3.718  1.1653 -2.2247 -0.2410
  589MOL0     H81228   4.501   4.588   3.681  0.5887  0.1119  1.2835
  589MOL0     H81229   4.525   4.815   3.541 -1.0918  0.0329 -1.4973
  589MOL0     H81230   4.414   4.687   3.479  0.2909  0.2249 -2.4701
  589MOL0     H81231   4.197   4.685   3.439  0.6951  0.4074 -3.0121
  589MOL0     H81232   3.897   4.862   3.608  1.4376  1.4878 -0.8338
  589MOL0     H81233   3.946   4.698   3.561 -1.0133  0.3633  0.1061
  589MOL0     H81234   3.791   4.793   3.399  0.9160 -2.5616  3.6894
  589MOL0     H81235   3.902   4.916   3.343 -2.1095  1.3345  3.0532
  589MOL0     H81236   3.938   4.758   3.176  3.5432 -1.5431 -0.5652
  589MOL0     H81237   4.068   4.732   3.272  1.3304  0.5199 -0.2628
  589MOL0     H81238   3.950   4.520   3.198 -3.0949  0.1871 -0.9732
  589MOL0     H81239   3.999   4.521   3.362 -0.6390 -0.3356  0.4758
  589MOL0     H81240   3.574   4.442   3.373 -2.9551 -0.2966 -0.4219
  589MOL0     H81241   3.339   4.295   3.191  2.9928 -0.2870  0.4333
  589MOL0     H81242   3.270   4.456   3.213 -0.9640 -1.4968 -5.6198
  589MOL0     H81243   3.374   4.379   3.339 -2.1056 -0.5241  0.1787
  589MOL0     H81244   3.151   4.662   3.031 -1.5835 -1.9063  0.0404
  589MOL0     H81245   2.909   4.662   2.948  0.2766  0.4353  0.2194
  589MOL0     H81246   2.778   4.603   2.522  2.3999  0.9869 -1.5318
  589MOL0     H81247   2.874   4.464   2.571 -0.5530  0.6423 -0.1249
  589MOL0     H81248   2.700   4.376   2.715  2.5646 -0.6659  0.3501
  589MOL0     H81249   2.600   4.509   2.660  2.0596  0.8097  0.2761
  589MOL0     H81250   2.694   4.278   2.487  1.2494  1.7301 -4.7949
  589MOL0     H81251   2.653   4.426   2.412  0.0783  1.6441  0.9725
  589MOL0     H81252   2.461   4.300   2.430 -0.2574  1.4023 -0.3437
  589MOL0     H81253   2.430   4.423   2.560  1.6744  1.6678 -1.7865
  589MOL0     H81254   2.536   4.134   2.594 -0.3280  0.4916 -2.3653
  589MOL0     H81255   2.518   4.252   2.715  1.9948 -1.2800 -0.3629
  589MOL0     H81256   2.259   4.174   2.566 -1.9909  0.4850  1.4131
  589MOL0     H81257   2.288   4.275   2.704  1.1166 -0.2514  1.2094
  589MOL0     H81258   2.383   3.986   2.716  0.0289 -1.0611  0.3340
  589MOL0     H81259   2.209   4.028   2.731  0.5506  0.1227  2.1238
  589MOL0     H81260   2.246   4.189   2.904  1.7300  1.2751  1.6850
  589MOL0     H81261   2.418   4.138   2.921 -1.5181  2.7408  1.5402
  589MOL0     H81262   3.054   4.611   2.546  1.7378 -0.3271 -0.6595
  589MOL0     H81263   3.277   4.621   2.634 -1.3207  3.2056 -2.3835
  589MOL0     H81264   3.617   4.621   2.913 -0.8486  1.4335  0.6548
  589MOL0     H81265   3.797   4.636   3.061  0.6051 -0.8326  0.1372
  589MOL0     H81266   5.015   4.851   4.298  3.1626 -1.4262  1.8536
  589MOL0     H81267   5.088   4.718   4.477  1.0517  1.9045 -2.3080
  589MOL0     H81268   4.969   4.154   4.565 -0.5359 -3.8107  0.9927
  589MOL0     H81269   5.058   3.997   4.735  2.5424  1.6790 -1.3210
  589MOL0     H81270   5.132   4.011   5.189 -1.3036  1.9103  2.7958
  589MOL0     H81271   5.044   4.156   5.170 -4.1169 -0.3637  1.9803
  589MOL0     H81272   4.927   3.871   5.156  1.9124  0.8974  0.2697
  589MOL0     H81273   4.840   4.020   5.117  0.9892  1.7603 -0.6608
  589MOL0     H81274   4.969   3.936   5.379 -1.6590 -0.2988  0.2672
  589MOL0     H81275   4.916   4.095   5.360  0.2013 -0.2924 -0.9822
  589MOL0     H81276   4.738   3.984   5.479 -0.9556 -3.1830  0.4969
  589MOL0     H81277   4.729   3.849   5.368 -2.9278  0.1065  2.4784
  589MOL0     H81278   4.489   4.084   5.142  0.6501 -1.7417 -0.3163
  589MOL0     H81279   4.968   4.279   5.044 -0.5984 -0.4629  0.0376
  589MOL0     H81280   4.987   4.563   4.867  0.2477  0.6968  2.7486
  589MOL0     H81281   4.823   4.536   4.830 -2.8474  1.3462  4.2181
  589MOL0     H81282   4.876   4.488   4.991 -0.7092 -1.7952 -0.2711
  590MOL0     O81283  10.807   8.014   0.405 -0.3274 -0.5391  0.3224
  590MOL0     C81284  10.928   7.995   0.390 -0.1472  0.6820 -0.2411
  590MOL0     O81285  10.989   7.901   0.311 -0.5372 -0.2318  0.6294
  590MOL0     C81286  10.906   7.826   0.235 -0.1918  0.4432  0.5678
  590MOL0     C81287  10.857   7.878   0.115 -0.0605 -0.6954 -0.2641
  590MOL0     C81288  10.763   7.813   0.043  0.1390  0.2777 -0.2633
  590MOL0     C81289  10.723   7.682   0.087  0.0067  0.1509 -1.0523
  590MOL0     O81290  10.616   7.626   0.028 -0.1901 -0.4610 -0.2364
  590MOL0     C81291  10.587   7.641  -0.108  0.3145 -0.4714 -0.8507
  590MOL0     C81292  10.466   7.543  -0.121 -0.5174 -0.2482  0.3219
  590MOL0     C81293  10.428   7.543  -0.269 -0.3927  0.3147  0.9725
  590MOL0     C81294  10.341   7.425  -0.303 -0.3695  0.8979 -0.2389
  590MOL0     C81295  10.416   7.295  -0.353 -0.5237 -0.3504  0.6792
  590MOL0     C81296  10.322   7.197  -0.427 -0.9606  0.8257  0.3351
  590MOL0     C81297  10.200   7.150  -0.344  0.9786 -0.2636  0.2041
  590MOL0     C81298  10.221   7.037  -0.242  0.2066  0.2255 -0.3914
  590MOL0     N81299  10.097   6.961  -0.206  0.0362  0.4059 -0.6169
  590MOL0     C81300  10.097   6.822  -0.175  0.0748 -0.7969 -0.3275
  590MOL0     C81301   9.968   6.790  -0.202  0.4208 -0.1588  0.6372
  590MOL0     C81302   9.916   6.648  -0.193 -0.0918  0.8784  0.4479
  590MOL0     C81303   9.865   6.621  -0.061  0.4549  0.6157 -0.5192
  590MOL0     C81304   9.829   6.467  -0.042 -0.4558  1.0795 -0.3840
  590MOL0     C81305   9.896   6.360  -0.124 -1.0317  0.4190 -0.3110
  590MOL0     O81306   9.847   6.352  -0.254  0.3604  0.3403  0.3965
  590MOL0     C81307   9.839   6.230  -0.322  0.3220  0.3703  0.2000
  590MOL0     C81308   9.896   6.117  -0.273 -0.0465 -0.1819 -0.4850
  590MOL0     C81309   9.870   5.995  -0.337 -1.0571  0.3988 -0.3942
  590MOL0     C81310   9.926   5.878  -0.255 -0.0639 -0.5594  0.6716
  590MOL0     C81311   9.804   5.990  -0.464 -0.0819  0.8326  0.2316
  590MOL0     C81312   9.777   5.864  -0.544  0.5343 -0.3159 -0.6797
  590MOL0     O81313   9.690   5.862  -0.650  0.5058 -0.3117  0.6240
  590MOL0     C81314   9.686   5.753  -0.729  0.6492  0.5423  0.9125
  590MOL0     C81315   9.794   5.745  -0.822 -0.5751  1.0076  1.1178
  590MOL0     C81316   9.803   5.628  -0.902 -0.3415 -0.3324  0.5716
  590MOL0     C81317   9.701   5.544  -0.918 -0.0598  0.1289  0.3935
  590MOL0     O81318   9.719   5.450  -1.018 -0.1033  1.1710 -0.9906
  590MOL0     C81319   9.698   5.319  -0.973 -0.0325  0.3844  0.1035
  590MOL0     C81320   9.653   5.218  -1.082  0.0800  0.2144  0.4260
  590MOL0     C81321   9.608   5.077  -1.038 -0.1375 -0.2284 -0.0065
  590MOL0     C81322   9.674   5.016  -0.915 -0.2481 -0.1196  0.4764
  590MOL0     C81323   9.581   4.912  -0.842 -0.5833 -0.6628  0.1219
  590MOL0     C81324   9.660   4.835  -0.741  0.1217 -0.2694  0.3081
  590MOL0     C81325   9.569   4.751  -0.654  0.5592  0.5461  0.0240
  590MOL0     C81326   9.640   4.677  -0.546 -0.4114  0.3642 -0.4144
  590MOL0    Cl81327   9.770   4.569  -0.615  0.1509  0.0415  0.3477
  590MOL0     C81328   9.586   5.559  -0.832 -0.2749 -0.6034  0.1145
  590MOL0     C81329   9.574   5.660  -0.731 -0.2574 -0.8346  0.1325
  590MOL0     O81330   9.849   5.774  -0.517 -0.5696 -0.1994 -0.2479
  590MOL0     C81331   9.756   6.108  -0.518 -0.8694  0.1823  0.4715
  590MOL0     C81332   9.777   6.227  -0.450 -0.4121  0.8518 -0.7750
  590MOL0     N81333   9.889   6.903  -0.233  0.7606 -0.2951  0.1600
  590MOL0     N81334   9.973   7.000  -0.241  0.6084 -0.5363 -0.0747
  590MOL0     C81335  10.766   7.631   0.214 -0.5479  0.9281 -0.1493
  590MOL0     C81336  10.869   7.700   0.276  0.4321 -0.1491  1.6385
  590MOL0     C81337  11.016   8.077   0.485  1.1178  0.5783  1.0173
  590MOL0     C81338  11.151   8.061   0.473  1.1666 -0.3544  0.5192
  590MOL0     C81339  11.236   8.136   0.546 -0.2755 -0.2833 -0.4969
  590MOL0     C81340  11.191   8.221   0.644 -0.4822 -0.7034 -0.0010
  590MOL0     O81341  11.272   8.280   0.734 -0.2200 -0.1496 -0.1036
  590MOL0     C81342  11.268   8.426   0.742  0.5388  0.1981 -0.2002
  590MOL0     C81343  11.413   8.486   0.737 -0.0889 -0.3777 -0.0719
  590MOL0     C81344  11.499   8.442   0.860 -0.1263 -0.8638 -1.1538
  590MOL0     C81345  11.645   8.494   0.887  0.1091 -0.0786  0.3042
  590MOL0     C81346  11.733   8.468   0.773 -0.5408 -0.6549 -0.1690
  590MOL0     C81347  11.824   8.437   0.692 -0.6169 -1.0271  0.4044
  590MOL0     C81348  11.051   8.239   0.650  0.4759  1.1616 -0.1043
  590MOL0     C81349  10.957   8.175   0.568 -0.4173 -0.0616 -0.3598
  590MOL0     C81350  10.813   8.210   0.575  0.7969 -0.4301 -1.4045
  590MOL0     H81351  10.893   7.972   0.075 -2.1550 -1.2187 -3.8169
  590MOL0     H81352  10.727   7.860  -0.048 -1.4425  0.7757  0.5800
  590MOL0     H81353  10.675   7.614  -0.168  0.4160  0.0447 -0.9351
  590MOL0     H81354  10.571   7.743  -0.141  0.1463 -0.5882 -1.1305
  590MOL0     H81355  10.505   7.442  -0.106 -1.4735 -0.9179 -1.4977
  590MOL0     H81356  10.378   7.561  -0.057 -1.4305 -0.7468 -0.7719
  590MOL0     H81357  10.381   7.636  -0.303  0.1793  0.5142  0.7058
  590MOL0     H81358  10.518   7.532  -0.331 -0.2237  1.3791  1.0198
  590MOL0     H81359  10.281   7.395  -0.216  3.5983 -0.4024  2.3012
  590MOL0     H81360  10.285   7.454  -0.392  1.6258  2.3466 -1.0923
  590MOL0     H81361  10.463   7.249  -0.266  0.7813  0.0772  0.2089
  590MOL0     H81362  10.490   7.320  -0.430 -2.2459  1.6907 -0.4268
  590MOL0     H81363  10.279   7.241  -0.517 -2.6615  2.7312  1.9859
  590MOL0     H81364  10.364   7.098  -0.446  0.5996  0.3265  4.9723
  590MOL0     H81365  10.133   7.104  -0.417  2.3685  0.1957 -1.4023
  590MOL0     H81366  10.137   7.234  -0.315  0.6205  0.0023 -1.3010
  590MOL0     H81367  10.290   6.959  -0.276  0.2801 -0.4082  1.1511
  590MOL0     H81368  10.261   7.072  -0.147  0.5925 -3.0517  0.7942
  590MOL0     H81369  10.171   6.750  -0.138  0.5202 -1.3132 -2.1192
  590MOL0     H81370   9.992   6.574  -0.218 -0.3555  0.9969 -0.7448
  590MOL0     H81371   9.827   6.646  -0.256 -0.0018 -1.1163  0.3173
  590MOL0     H81372   9.932   6.658   0.017 -1.0397  1.4735  0.4027
  590MOL0     H81373   9.769   6.675  -0.057  1.9585  3.4759 -0.0897
  590MOL0     H81374   9.839   6.438   0.063 -2.0461 -1.0690 -0.7625
  590MOL0     H81375   9.720   6.454  -0.044 -0.5116  1.4629  0.0459
  590MOL0     H81376  10.003   6.382  -0.124 -0.9067 -0.1522 -0.2849
  590MOL0     H81377   9.891   6.268  -0.064  3.1590  0.4591  0.4308
  590MOL0     H81378   9.957   6.117  -0.184 -1.6760 -0.7643  0.6775
  590MOL0     H81379  10.028   5.867  -0.292 -0.5161 -0.4786 -0.6690
  590MOL0     H81380   9.885   5.779  -0.274  0.3248 -0.6938  0.5465
  590MOL0     H81381   9.925   5.893  -0.146 -1.5876 -1.8115  0.8656
  590MOL0     H81382   9.878   5.814  -0.814  1.0426 -1.0548  3.9094
  590MOL0     H81383   9.881   5.607  -0.974  1.2001 -1.7244  2.5208
  590MOL0     H81384   9.793   5.290  -0.927 -0.6216  0.2027  1.2198
  590MOL0     H81385   9.628   5.320  -0.889  0.0359 -0.0798  0.1670
  590MOL0     H81386   9.563   5.258  -1.129  1.7068  3.8022  0.0280
  590MOL0     H81387   9.732   5.221  -1.158  0.6751  1.9546  1.0639
  590MOL0     H81388   9.611   5.004  -1.120 -0.9528 -1.5444  1.0791
  590MOL0     H81389   9.504   5.086  -1.004 -0.8519  0.4621 -2.1873
  590MOL0     H81390   9.720   5.085  -0.844 -2.1708  0.5937  1.0918
  590MOL0     H81391   9.757   4.960  -0.957 -1.6680 -1.8614 -0.1274
  590MOL0     H81392   9.493   4.960  -0.800  0.9720  1.4882  1.0870
  590MOL0     H81393   9.546   4.837  -0.913  0.9222 -0.0695 -1.3166
  590MOL0     H81394   9.707   4.908  -0.675 -2.9116  0.4844  1.8104
  590MOL0     H81395   9.748   4.779  -0.775  1.5645  0.4216  2.6444
  590MOL0     H81396   9.514   4.680  -0.716  0.5856  0.0769  0.5249
  590MOL0     H81397   9.491   4.813  -0.610 -0.4382 -2.2549  2.5116
  590MOL0     H81398   9.572   4.607  -0.496  0.8540  0.6027  1.7559
  590MOL0     H81399   9.694   4.742  -0.477  1.1312 -2.8918  1.7007
  590MOL0     H81400   9.508   5.486  -0.851 -1.7137  1.2806 -1.5884
  590MOL0     H81401   9.485   5.661  -0.669  1.2307 -0.7588  2.3877
  590MOL0     H81402   9.716   6.112  -0.619 -0.7013 -0.9677  0.3492
  590MOL0     H81403   9.742   6.320  -0.493 -0.1573  1.5132  0.4240
  590MOL0     H81404  10.720   7.540   0.250 -0.0184  0.5998 -0.2880
  590MOL0     H81405  10.902   7.660   0.371 -0.8278  1.3157  2.7262
  590MOL0     H81406  11.194   7.976   0.420  2.5072 -0.3150  1.5009
  590MOL0     H81407  11.342   8.113   0.535 -0.6383 -2.5282  0.3338
  590MOL0     H81408  11.211   8.472   0.661  2.3756  1.4645 -0.8314
  590MOL0     H81409  11.220   8.430   0.840  3.2742 -2.7644  1.4600
  590MOL0     H81410  11.386   8.592   0.734 -1.1927 -0.6605 -0.5019
  590MOL0     H81411  11.477   8.469   0.650  3.1103 -0.6555  2.1615
  590MOL0     H81412  11.447   8.469   0.953  4.7850  1.7998  1.2121
  590MOL0     H81413  11.512   8.334   0.858 -1.7566 -1.1714  1.1258
  590MOL0     H81414  11.698   8.450   0.971  1.0067  0.8570  0.2442
  590MOL0     H81415  11.636   8.602   0.902  0.7097  0.3315 -1.9361
  590MOL0     H81416  11.912   8.419   0.633 -1.1831  1.8841 -1.5438
  590MOL0     H81417  11.013   8.318   0.714 -1.5406 -0.7394  1.1730
  590MOL0     H81418  10.792   8.291   0.645  2.5191 -2.2761  1.4466
  590MOL0     H81419  10.779   8.244   0.477 -1.9032  2.9838  0.4927
  590MOL0     H81420  10.750   8.125   0.603 -1.4648  1.6635  0.2606
  591MOL0     O81421   9.042   7.010   5.358 -0.4109 -1.1458  0.0328
  591MOL0     C81422   9.139   6.951   5.310 -0.3486  0.6155 -1.2999
  591MOL0     O81423   9.229   7.001   5.207  0.3499 -0.3655 -0.1252
  591MOL0     C81424   9.185   7.121   5.157 -0.0035  0.1409 -0.6646
  591MOL0     C81425   9.109   7.128   5.040 -0.7873 -0.4638  0.4997
  591MOL0     C81426   9.083   7.253   4.987  0.9369  0.2570  0.4132
  591MOL0     C81427   9.119   7.373   5.044  0.5675 -0.6395 -0.2274
  591MOL0     O81428   9.081   7.491   4.978 -0.2056 -0.6611  0.0474
  591MOL0     C81429   8.940   7.521   4.979 -0.1085 -0.1405  0.1719
  591MOL0     C81430   8.911   7.632   4.884 -0.2387  0.1145 -0.2313
  591MOL0     C81431   8.757   7.645   4.859 -0.1546 -0.0751  0.6815
  591MOL0     C81432   8.731   7.749   4.750  0.0103  0.5280  0.1499
  591MOL0     C81433   8.592   7.741   4.695  0.0917 -0.1890 -0.0619
  591MOL0     C81434   8.487   7.751   4.813  0.5943 -0.3742 -0.0365
  591MOL0     C81435   8.356   7.814   4.772  0.3171  0.6714  0.0768
  591MOL0     C81436   8.251   7.827   4.885 -0.8947  0.4558  0.7876
  591MOL0     N81437   8.129   7.904   4.838 -0.0653 -0.4175 -0.4767
  591MOL0     C81438   8.013   7.856   4.796 -0.0641 -0.5188 -0.0433
  591MOL0     C81439   7.941   7.954   4.742  0.5683 -0.9965 -0.2696
  591MOL0     C81440   7.811   7.946   4.683  0.0453 -0.3145  1.2162
  591MOL0     C81441   7.700   7.996   4.782  0.4763 -1.1706  0.1547
  591MOL0     C81442   7.565   7.922   4.753 -0.3326  0.3263  0.0031
  591MOL0     C81443   7.464   8.003   4.673  0.5802  0.3113 -0.2770
  591MOL0     O81444   7.531   8.039   4.558 -0.0833 -0.4855  0.0925
  591MOL0     C81445   7.452   8.074   4.453 -0.7671  0.1209  1.1861
  591MOL0     C81446   7.317   8.094   4.451  0.0384 -0.8827  0.0908
  591MOL0     C81447   7.242   8.120   4.333  0.1862  0.5658  0.1889
  591MOL0     C81448   7.095   8.152   4.348  0.1590 -0.5166 -0.1326
  591MOL0     C81449   7.313   8.144   4.216  0.1046  0.5513 -0.2937
  591MOL0     C81450   7.240   8.190   4.097  0.3033 -0.6724 -0.2305
  591MOL0     O81451   7.305   8.160   3.982  0.6314 -1.2285  0.1399
  591MOL0     C81452   7.257   8.238   3.877  0.3012  0.7426 -0.0449
  591MOL0     C81453   7.124   8.238   3.835 -0.6798 -0.3289  0.4766
  591MOL0     C81454   7.074   8.328   3.741 -0.3470  0.0671  0.3688
  591MOL0     C81455   7.161   8.411   3.666  0.5419 -0.1700 -0.3367
  591MOL0     O81456   7.110   8.489   3.568  0.0246  0.1681 -0.1624
  591MOL0     C81457   7.191   8.593   3.508 -0.2983  0.6725 -0.5886
  591MOL0     C81458   7.107   8.661   3.394 -0.1533  0.3314  0.3978
  591MOL0     C81459   7.179   8.666   3.251  0.4582  0.8642  0.3682
  591MOL0     C81460   7.258   8.792   3.251  0.9474 -0.4555  0.1240
  591MOL0     C81461   7.295   8.818   3.104  0.0712 -0.5884 -0.5588
  591MOL0     C81462   7.397   8.929   3.085 -0.7029  0.0270  0.3839
  591MOL0     C81463   7.391   8.983   2.943 -0.1509  1.1460  0.4475
  591MOL0     C81464   7.451   9.122   2.928  0.3158 -1.0910  0.6099
  591MOL0    Cl81465   7.396   9.198   2.790 -0.1645 -0.2367  0.3068
  591MOL0     C81466   7.288   8.410   3.707  0.1922  0.4025  0.6001
  591MOL0     C81467   7.338   8.327   3.812  0.8209 -0.1992  0.6061
  591MOL0     O81468   7.148   8.272   4.110 -0.2432  0.6758  0.4336
  591MOL0     C81469   7.450   8.124   4.209 -0.0615 -0.7159 -0.5837
  591MOL0     C81470   7.518   8.083   4.330 -0.2962 -0.5028  0.5233
  591MOL0     N81471   8.016   8.067   4.747  0.4516  0.7934  0.0557
  591MOL0     N81472   8.130   8.041   4.802 -0.5374 -0.6413 -0.4376
  591MOL0     C81473   9.200   7.367   5.159  0.1790 -0.1586  0.7015
  591MOL0     C81474   9.231   7.245   5.218  0.7981  0.9767  0.0547
  591MOL0     C81475   9.177   6.831   5.384  0.1683  0.5004  0.1522
  591MOL0     C81476   9.082   6.753   5.463 -0.3844 -1.0772  0.0332
  591MOL0     C81477   9.114   6.635   5.526 -0.1600  0.1709 -0.4227
  591MOL0     C81478   9.246   6.590   5.529  0.3413  0.5015 -0.2692
  591MOL0     O81479   9.262   6.463   5.599 -0.2586 -0.7402 -0.3846
  591MOL0     C81480   9.403   6.446   5.629  0.1601  0.0006  0.2291
  591MOL0     C81481   9.412   6.312   5.698 -0.5861 -0.2009  0.6692
  591MOL0     C81482   9.531   6.311   5.791  0.5725 -0.1293 -0.1466
  591MOL0     C81483   9.582   6.169   5.812 -0.2748 -0.0838 -0.5739
  591MOL0     C81484   9.704   6.157   5.886  0.4204 -0.2706 -0.4787
  591MOL0     C81485   9.809   6.162   5.946 -0.7953  0.0061 -0.2003
  591MOL0     C81486   9.346   6.653   5.452 -0.2246 -0.5313  0.0008
  591MOL0     C81487   9.307   6.774   5.383 -0.1208 -0.6095 -0.4613
  591MOL0     C81488   9.431   6.834   5.321  0.5012 -0.4862  0.1440
  591MOL0     H81489   9.073   7.040   4.989 -2.2611  1.5783 -2.2651
  591MOL0     H81490   9.016   7.242   4.902  1.8490  1.0613 -0.4386
  591MOL0     H81491   8.917   7.554   5.081  0.1022  0.1714  0.1189
  591MOL0     H81492   8.875   7.441   4.941 -0.2310  0.8055 -1.7017
  591MOL0     H81493   8.953   7.727   4.918  0.8317 -0.2233 -0.5769
  591MOL0     H81494   8.964   7.608   4.791 -2.1633 -1.0059 -1.1070
  591MOL0     H81495   8.714   7.552   4.822 -2.5625  1.0210  0.5277
  591MOL0     H81496   8.705   7.678   4.949 -2.6048  1.2879 -1.1315
  591MOL0     H81497   8.735   7.849   4.795  0.1629  0.7351 -0.3209
  591MOL0     H81498   8.811   7.744   4.676 -2.1097 -1.8182 -2.1917
  591MOL0     H81499   8.572   7.651   4.637 -1.2982  1.4121 -2.2408
  591MOL0     H81500   8.577   7.817   4.618  2.5879 -2.3117 -2.8799
  591MOL0     H81501   8.461   7.658   4.864 -1.0282  0.6937  1.1782
  591MOL0     H81502   8.522   7.820   4.890 -0.1263 -1.6959  1.5441
  591MOL0     H81503   8.303   7.753   4.699 -2.5749  2.0011  0.8970
  591MOL0     H81504   8.368   7.912   4.725 -0.1587  1.2127  1.0441
  591MOL0     H81505   8.231   7.724   4.914  0.8843 -0.2063 -0.1616
  591MOL0     H81506   8.291   7.877   4.974 -1.0848  1.2909  0.4115
  591MOL0     H81507   7.981   7.753   4.802  2.1160 -1.1532  3.2102
  591MOL0     H81508   7.787   7.844   4.650  1.2599 -1.3778  3.4100
  591MOL0     H81509   7.804   7.999   4.587 -1.5514 -2.8064 -0.1479
  591MOL0     H81510   7.724   7.959   4.882  0.6915  0.3663  0.6888
  591MOL0     H81511   7.691   8.104   4.773  1.2691 -1.0146  1.0376
  591MOL0     H81512   7.586   7.831   4.696  1.0300  1.7451 -1.9382
  591MOL0     H81513   7.518   7.904   4.850  1.3365 -0.5464  0.6893
  591MOL0     H81514   7.373   7.943   4.658 -0.8508  2.4942 -0.7719
  591MOL0     H81515   7.427   8.095   4.720 -2.0344 -0.5959 -0.3856
  591MOL0     H81516   7.261   8.096   4.545  0.1582 -1.9376  0.1980
  591MOL0     H81517   7.096   8.262   4.350  0.5585 -0.5254  0.1425
  591MOL0     H81518   7.033   8.121   4.433 -0.8085  0.8864 -0.2861
  591MOL0     H81519   7.040   8.110   4.263 -0.4291 -2.0587  0.9639
  591MOL0     H81520   7.055   8.169   3.882 -1.1257 -0.0224  0.2745
  591MOL0     H81521   6.967   8.324   3.724 -0.4417 -0.6169  1.0648
  591MOL0     H81522   7.224   8.663   3.585 -1.4179  0.4191  0.1467
  591MOL0     H81523   7.276   8.537   3.466  2.5434  3.4900  1.0180
  591MOL0     H81524   7.022   8.596   3.374  1.4855 -2.3265  1.4403
  591MOL0     H81525   7.075   8.761   3.423  2.7857  0.9459  1.8862
  591MOL0     H81526   7.100   8.680   3.177  1.4794  0.9385 -0.7353
  591MOL0     H81527   7.245   8.582   3.228  2.3026  1.4559  3.0031
  591MOL0     H81528   7.345   8.788   3.318 -0.8681  1.4167  2.8419
  591MOL0     H81529   7.205   8.880   3.290  0.9160 -1.9081  3.7774
  591MOL0     H81530   7.334   8.722   3.067  0.1165 -0.2659 -1.3771
  591MOL0     H81531   7.200   8.842   3.055 -0.2817 -1.1270 -0.1453
  591MOL0     H81532   7.499   8.900   3.110 -1.3502 -1.3382  1.5759
  591MOL0     H81533   7.358   9.006   3.153 -0.0412  0.8307 -0.1269
  591MOL0     H81534   7.292   8.974   2.898  1.4020 -0.1954 -3.0969
  591MOL0     H81535   7.458   8.919   2.884  0.5798  1.0332  1.3708
  591MOL0     H81536   7.559   9.127   2.912  0.3193  1.4736  0.9860
  591MOL0     H81537   7.426   9.188   3.012 -0.1246  0.7691 -0.9016
  591MOL0     H81538   7.362   8.466   3.651 -0.4525 -0.0684 -0.7605
  591MOL0     H81539   7.441   8.327   3.846  2.2638 -3.2941 -3.0630
  591MOL0     H81540   7.506   8.137   4.117 -0.2816 -3.0076 -1.1103
  591MOL0     H81541   7.623   8.055   4.331 -0.5010 -1.5016 -1.2170
  591MOL0     H81542   9.216   7.463   5.208 -1.9669  1.0270 -0.7120
  591MOL0     H81543   9.274   7.236   5.317 -1.8696 -2.8721  1.0925
  591MOL0     H81544   8.980   6.790   5.456  0.1879  1.1603  2.1135
  591MOL0     H81545   9.029   6.581   5.565 -0.4157  0.6280 -0.3362
  591MOL0     H81546   9.466   6.438   5.541  2.3587  1.1147  1.6055
  591MOL0     H81547   9.435   6.523   5.701  0.6778 -1.1189  1.2374
  591MOL0     H81548   9.413   6.229   5.626  0.8610  0.5373 -0.2055
  591MOL0     H81549   9.321   6.297   5.758  0.8558 -1.6848  2.6224
  591MOL0     H81550   9.607   6.377   5.750  1.8244 -1.4253  0.0309
  591MOL0     H81551   9.494   6.345   5.888  0.5477 -3.0143  0.9491
  591MOL0     H81552   9.597   6.134   5.710 -3.5655 -0.3723 -1.0682
  591MOL0     H81553   9.503   6.104   5.850 -0.4272 -1.1429 -2.5652
  591MOL0     H81554   9.898   6.175   6.005 -0.6752 -0.1328 -0.3472
  591MOL0     H81555   9.445   6.611   5.440 -0.2943 -1.0793  1.1903
  591MOL0     H81556   9.415   6.815   5.215 -0.7266 -1.3346  0.4529
  591MOL0     H81557   9.452   6.937   5.351  1.7009 -1.0989  1.5171
  591MOL0     H81558   9.522   6.781   5.352  0.3597 -0.0387  1.3937
  592MOL0     O81559   6.217   4.321   1.707 -0.0922 -0.4658  0.2186
  592MOL0     C81560   6.329   4.376   1.731 -0.3269 -0.2443  1.0935
  592MOL0     O81561   6.342   4.513   1.745 -0.0311 -1.0523  0.6980
  592MOL0     C81562   6.243   4.606   1.705 -0.0166  0.4368  0.7822
  592MOL0     C81563   6.100   4.592   1.699  0.8316  0.0005  0.0946
  592MOL0     C81564   6.026   4.696   1.649  0.6300 -0.6789  0.3434
  592MOL0     C81565   6.087   4.823   1.618 -0.6881  0.8163  0.0786
  592MOL0     O81566   6.008   4.919   1.559  0.8604 -0.5024 -0.3826
  592MOL0     C81567   6.076   5.014   1.475 -0.1896  0.2009  0.2275
  592MOL0     C81568   5.965   5.088   1.401 -0.6564  0.4085 -0.2633
  592MOL0     C81569   6.015   5.234   1.373  1.0534 -0.5947 -0.1325
  592MOL0     C81570   5.983   5.280   1.230  0.0445 -0.1023  0.0210
  592MOL0     C81571   6.097   5.251   1.134 -0.0975 -0.3277 -0.0477
  592MOL0     C81572   6.201   5.362   1.132 -0.0498 -0.0482 -0.2515
  592MOL0     C81573   6.320   5.309   1.051  0.1587 -0.4757 -0.7527
  592MOL0     C81574   6.441   5.405   1.074 -0.5743  0.9835  0.4952
  592MOL0     N81575   6.575   5.354   1.038  0.1747 -0.4887  1.0016
  592MOL0     C81576   6.638   5.372   0.917 -0.3897 -0.1583  0.2703
  592MOL0     C81577   6.747   5.305   0.915  0.1630  1.2679  1.6907
  592MOL0     C81578   6.848   5.293   0.799 -0.2558  0.6385  0.1953
  592MOL0     C81579   6.906   5.151   0.774  0.7605 -0.0970 -0.3516
  592MOL0     C81580   6.804   5.031   0.756  0.8361  0.2252 -0.3045
  592MOL0     C81581   6.680   5.056   0.672  0.0877 -0.5942 -0.3758
  592MOL0     O81582   6.573   5.140   0.729  0.1238 -0.3193  0.3819
  592MOL0     C81583   6.460   5.074   0.772 -1.0583 -0.8318 -0.0421
  592MOL0     C81584   6.342   5.082   0.697 -0.6856  0.2204  0.1572
  592MOL0     C81585   6.225   5.017   0.747  0.0963  0.3442 -0.3957
  592MOL0     C81586   6.093   5.044   0.669  0.7187 -0.2887  1.0651
  592MOL0     C81587   6.226   4.953   0.873 -0.6087  0.6069  0.2509
  592MOL0     C81588   6.105   4.910   0.947 -0.4494  0.2557  0.3936
  592MOL0     O81589   6.087   4.773   0.953  0.5506 -0.4668  0.2603
  592MOL0     C81590   5.965   4.722   0.987  0.4829 -0.8825  0.0592
  592MOL0     C81591   5.919   4.753   1.114 -1.3199  0.3956 -0.0801
  592MOL0     C81592   5.800   4.700   1.162  0.0386 -0.4278 -0.1983
  592MOL0     C81593   5.716   4.631   1.087 -0.5981 -0.4381  0.3958
  592MOL0     O81594   5.601   4.594   1.131 -0.4980 -0.5005 -0.1176
  592MOL0     C81595   5.599   4.505   1.246  0.0366 -0.0881  0.6694
  592MOL0     C81596   5.455   4.485   1.287  0.5928  0.6082 -0.4966
  592MOL0     C81597   5.396   4.600   1.368 -0.5528 -0.7218  0.7051
  592MOL0     C81598   5.264   4.561   1.427  0.0238  0.1627 -0.7136
  592MOL0     C81599   5.214   4.695   1.485 -0.2801  0.1027 -0.6549
  592MOL0     C81600   5.075   4.686   1.554 -0.3843 -0.1650  0.5509
  592MOL0     C81601   4.954   4.762   1.480 -0.6919 -0.4547  0.6080
  592MOL0     C81602   4.852   4.810   1.570  0.3573 -0.0700 -0.4037
  592MOL0    Cl81603   4.774   4.679   1.669 -0.0455  0.4148  0.0833
  592MOL0     C81604   5.750   4.623   0.946  0.2046  0.8648 -0.3650
  592MOL0     C81605   5.870   4.670   0.901  0.6649 -0.4784  0.6020
  592MOL0     O81606   6.028   4.996   0.993 -0.5384  0.7740  0.0140
  592MOL0     C81607   6.353   4.944   0.940  1.0914 -0.2188 -1.1596
  592MOL0     C81608   6.462   5.009   0.890  0.1743  0.1984  0.2414
  592MOL0     N81609   6.764   5.253   1.041  0.8154  0.3635  0.3198
  592MOL0     N81610   6.664   5.284   1.117  1.1905 -0.4223 -0.6076
  592MOL0     C81611   6.220   4.843   1.651 -0.2805  0.5679  0.3666
  592MOL0     C81612   6.296   4.733   1.697 -0.6019 -0.4224 -0.4142
  592MOL0     C81613   6.451   4.297   1.764  0.1481  0.1299  0.0265
  592MOL0     C81614   6.529   4.321   1.882 -0.2007 -0.6106  0.6251
  592MOL0     C81615   6.630   4.237   1.924  0.1170 -0.8036 -0.1963
  592MOL0     C81616   6.662   4.121   1.849  0.2580  0.1731 -0.2188
  592MOL0     O81617   6.754   4.034   1.895  0.3521 -0.2378 -0.0623
  592MOL0     C81618   6.707   3.919   1.956 -0.3103 -0.2183  0.3146
  592MOL0     C81619   6.705   3.942   2.109 -0.0535 -0.9227 -0.2162
  592MOL0     C81620   6.621   3.829   2.174  0.0195 -0.1483 -0.7963
  592MOL0     C81621   6.650   3.828   2.329  0.5434  0.3380  0.1931
  592MOL0     C81622   6.777   3.761   2.359  0.2558  0.4139  0.1529
  592MOL0     C81623   6.890   3.729   2.387  0.4775 -0.0330 -0.2082
  592MOL0     C81624   6.601   4.108   1.722  0.1993  0.0375  0.1811
  592MOL0     C81625   6.493   4.185   1.685 -0.2013 -0.1730  0.1184
  592MOL0     C81626   6.427   4.159   1.549  0.0888  0.3229  0.9424
  592MOL0     H81627   6.047   4.499   1.720  1.6253 -1.2895 -3.0263
  592MOL0     H81628   5.918   4.693   1.636  0.6915  1.4232 -1.1925
  592MOL0     H81629   6.133   4.951   1.406  2.3848  0.6038  1.8532
  592MOL0     H81630   6.141   5.088   1.522  0.7698  0.3380 -1.2552
  592MOL0     H81631   5.927   5.039   1.310  2.1213  0.8685 -1.7977
  592MOL0     H81632   5.878   5.093   1.467  0.3338  2.2586  0.9617
  592MOL0     H81633   5.971   5.295   1.453  1.4249  0.7026 -0.8944
  592MOL0     H81634   6.122   5.254   1.382  0.2442  5.9507  0.2445
  592MOL0     H81635   5.887   5.233   1.207  0.5034 -0.4102 -1.4221
  592MOL0     H81636   5.954   5.385   1.230 -2.2883 -0.6498 -2.1833
  592MOL0     H81637   6.069   5.241   1.029  0.2367 -4.4619  0.0920
  592MOL0     H81638   6.149   5.159   1.163  2.4484  1.2349  0.6545
  592MOL0     H81639   6.175   5.462   1.096 -1.1760  0.1638  1.0694
  592MOL0     H81640   6.221   5.384   1.237 -3.6204  2.0176  0.1457
  592MOL0     H81641   6.296   5.307   0.945  0.1308  2.1725 -0.8515
  592MOL0     H81642   6.341   5.210   1.094  1.7013  1.1478  2.6908
  592MOL0     H81643   6.427   5.505   1.032 -0.1867  1.5309  1.6503
  592MOL0     H81644   6.452   5.422   1.181 -0.3782  0.7659  0.5087
  592MOL0     H81645   6.607   5.431   0.831 -2.1244  2.0322  2.2787
  592MOL0     H81646   6.934   5.360   0.814 -0.7921  2.0800 -2.6313
  592MOL0     H81647   6.804   5.328   0.706  2.8570  2.9024 -0.5945
  592MOL0     H81648   6.955   5.168   0.678 -1.6249  1.8789 -1.3205
  592MOL0     H81649   6.978   5.131   0.854  1.1504 -3.4060 -1.3850
  592MOL0     H81650   6.850   4.938   0.723 -1.5668 -1.5155  0.9669
  592MOL0     H81651   6.762   5.007   0.854  2.3039  1.5040  0.6916
  592MOL0     H81652   6.731   5.084   0.579  2.0222 -1.4569  0.3818
  592MOL0     H81653   6.641   4.956   0.648 -0.2620 -0.4162 -0.5682
  592MOL0     H81654   6.337   5.129   0.600  0.0541 -3.7478 -2.0392
  592MOL0     H81655   6.037   5.117   0.727 -1.4653 -2.7030  2.1909
  592MOL0     H81656   6.045   4.946   0.661 -2.0393  1.0126  0.4802
  592MOL0     H81657   6.116   5.068   0.565 -0.8671 -0.4428  0.6574
  592MOL0     H81658   5.976   4.807   1.188  0.2554 -1.4019  0.1099
  592MOL0     H81659   5.777   4.727   1.264  0.2646 -0.6007 -0.0992
  592MOL0     H81660   5.639   4.408   1.216 -0.2502 -0.8135  2.4833
  592MOL0     H81661   5.653   4.543   1.333 -0.4711 -0.2682  1.0740
  592MOL0     H81662   5.383   4.473   1.205  1.0199  1.8186 -1.0774
  592MOL0     H81663   5.438   4.399   1.352 -3.1548 -3.5021 -5.9343
  592MOL0     H81664   5.380   4.684   1.300  0.9919  2.9430  4.4187
  592MOL0     H81665   5.461   4.640   1.447  0.1213  0.4406 -0.3967
  592MOL0     H81666   5.273   4.487   1.507 -0.4774 -0.0251 -0.8286
  592MOL0     H81667   5.190   4.530   1.353  1.1261  1.1205 -2.2729
  592MOL0     H81668   5.284   4.705   1.568  0.2576 -2.8034 -0.6335
  592MOL0     H81669   5.216   4.773   1.409 -2.1357 -0.4341 -1.3018
  592MOL0     H81670   5.084   4.720   1.658 -3.6730  0.3924  0.7830
  592MOL0     H81671   5.047   4.581   1.559  6.0135 -2.5228 -2.4605
  592MOL0     H81672   4.901   4.701   1.407  0.5083  1.1146 -1.6708
  592MOL0     H81673   4.992   4.851   1.428 -1.4504  0.2462  1.2100
  592MOL0     H81674   4.778   4.869   1.514 -0.4833 -1.2783 -0.5982
  592MOL0     H81675   4.894   4.890   1.631 -1.5252 -0.5620  1.6536
  592MOL0     H81676   5.686   4.578   0.871  1.0522  1.0881 -1.2424
  592MOL0     H81677   5.888   4.680   0.794 -1.7488  2.0098  0.3176
  592MOL0     H81678   6.345   4.903   1.041 -2.2386  0.1548 -1.1409
  592MOL0     H81679   6.559   5.006   0.938  1.9457  0.4707 -3.0201
  592MOL0     H81680   6.265   4.940   1.663 -0.8590  0.5106  4.2127
  592MOL0     H81681   6.398   4.763   1.719 -0.6710  0.0715 -0.7571
  592MOL0     H81682   6.495   4.403   1.943  0.8165  1.1178 -0.9959
  592MOL0     H81683   6.679   4.263   2.017  0.4970 -3.4837  0.4345
  592MOL0     H81684   6.609   3.884   1.923 -0.1275  2.7372 -4.2688
  592MOL0     H81685   6.770   3.836   1.924 -3.5713 -2.8999  0.3320
  592MOL0     H81686   6.685   4.044   2.143  2.6010 -1.3576  3.2968
  592MOL0     H81687   6.808   3.936   2.147 -0.9117  2.3341  3.2247
  592MOL0     H81688   6.515   3.854   2.159  0.2932  0.5990 -1.5496
  592MOL0     H81689   6.639   3.734   2.122 -0.5414 -1.2272  0.9143
  592MOL0     H81690   6.579   3.789   2.403  0.5743  2.2136  1.2580
  592MOL0     H81691   6.653   3.926   2.376 -1.4264 -1.8350  5.6826
  592MOL0     H81692   6.990   3.713   2.422  0.1389  0.8413  1.2769
  592MOL0     H81693   6.632   4.019   1.669 -6.0447 -1.0763 -2.3740
  592MOL0     H81694   6.319   4.139   1.550  0.3829 -3.1536 -3.2818
  592MOL0     H81695   6.451   4.247   1.489  0.6574 -0.9381 -0.7774
  592MOL0     H81696   6.473   4.067   1.509 -0.1824 -0.7805  3.0277
  593MOL0     O81697   0.340   5.739   0.644 -0.2568 -0.2517  0.4051
  593MOL0     C81698   0.381   5.746   0.528  0.3103 -0.0716 -0.1540
  593MOL0     O81699   0.411   5.864   0.468  0.3669  0.0958 -0.2314
  593MOL0     C81700   0.434   5.972   0.554 -0.3320  0.1689  0.8181
  593MOL0     C81701   0.543   5.973   0.639  0.1596 -0.3572 -0.6717
  593MOL0     C81702   0.565   6.090   0.726 -0.2623 -0.6380 -0.1957
  593MOL0     C81703   0.479   6.202   0.730  0.4685 -0.4309  0.3730
  593MOL0     O81704   0.501   6.312   0.801  0.2797  0.0975 -0.3147
  593MOL0     C81705   0.568   6.295   0.924 -0.1392  0.8775  0.4175
  593MOL0     C81706   0.683   6.386   0.942  0.0927 -0.2310 -0.2349
  593MOL0     C81707   0.776   6.355   1.059 -0.0175  0.3635 -0.4241
  593MOL0     C81708   0.706   6.351   1.203 -0.0641  0.0231  0.3415
  593MOL0     C81709   0.779   6.249   1.297  0.3138 -0.2375 -0.0448
  593MOL0     C81710   0.927   6.275   1.298  0.1771  0.3500  0.2538
  593MOL0     C81711   0.997   6.232   1.428  0.2980 -0.4762  0.4273
  593MOL0     C81712   1.144   6.274   1.442 -0.9109 -0.2923  0.7221
  593MOL0     N81713   1.226   6.201   1.351  0.0434  0.2283 -0.3314
  593MOL0     C81714   1.265   6.228   1.224 -0.0511  0.4960  0.7644
  593MOL0     C81715   1.359   6.130   1.180 -0.2156 -0.7582 -0.0813
  593MOL0     C81716   1.426   6.110   1.051 -0.6332  0.1039  0.1791
  593MOL0     C81717   1.572   6.122   1.061 -0.8534 -0.1055  0.5759
  593MOL0     C81718   1.637   6.154   0.927  0.1801 -0.6163  0.0464
  593MOL0     C81719   1.655   6.040   0.842 -0.5297 -0.3383  0.0917
  593MOL0     O81720   1.526   5.978   0.807 -0.2327 -0.3989  0.4182
  593MOL0     C81721   1.528   5.911   0.683  0.7390  0.6673 -0.0345
  593MOL0     C81722   1.430   5.940   0.595 -1.2387 -1.2412 -0.6378
  593MOL0     C81723   1.426   5.887   0.466 -0.3003  0.2438  0.3220
  593MOL0     C81724   1.307   5.926   0.380 -0.7983 -0.6229 -0.6065
  593MOL0     C81725   1.531   5.800   0.419 -0.5601  0.4216  0.2609
  593MOL0     C81726   1.549   5.763   0.276 -0.3489 -0.3890  0.2834
  593MOL0     O81727   1.672   5.699   0.254 -0.8885 -0.3207  0.3461
  593MOL0     C81728   1.690   5.632   0.135 -0.3735 -0.1740 -0.0556
  593MOL0     C81729   1.676   5.692   0.005 -0.6052 -0.2547  0.4493
  593MOL0     C81730   1.716   5.624  -0.118  0.1266  0.0710 -0.8163
  593MOL0     C81731   1.768   5.494  -0.118 -0.0756  0.1142  0.3263
  593MOL0     O81732   1.798   5.424  -0.233 -0.1528 -0.0663 -0.4306
  593MOL0     C81733   1.914   5.343  -0.242  0.9571 -0.1754 -0.1647
  593MOL0     C81734   1.931   5.319  -0.392 -0.4692  0.1538  0.4064
  593MOL0     C81735   2.002   5.443  -0.465  0.5884 -0.2976 -0.1886
  593MOL0     C81736   1.891   5.555  -0.497 -0.1957 -0.2830  0.0686
  593MOL0     C81737   1.970   5.674  -0.556 -0.4237 -0.2795 -0.7387
  593MOL0     C81738   1.982   5.668  -0.704 -0.5443 -0.1232  0.1303
  593MOL0     C81739   2.107   5.744  -0.734  0.2727  0.2499 -0.6425
  593MOL0     C81740   2.118   5.785  -0.891 -0.2765  0.2879 -0.7208
  593MOL0    Cl81741   2.012   5.906  -0.938 -0.2642 -0.1281 -0.2430
  593MOL0     C81742   1.773   5.439   0.011 -0.3036  1.4396 -0.2418
  593MOL0     C81743   1.751   5.501   0.130 -1.0039  0.5656 -1.2903
  593MOL0     O81744   1.455   5.772   0.199  0.2447 -0.1472  1.0631
  593MOL0     C81745   1.630   5.763   0.514 -0.4839 -0.1180 -0.3282
  593MOL0     C81746   1.631   5.825   0.639  0.0322 -0.1725 -0.4225
  593MOL0     N81747   1.376   6.051   1.290  0.1830 -0.1867  0.5086
  593MOL0     N81748   1.299   6.091   1.382 -0.5726 -0.4512 -0.3745
  593MOL0     C81749   0.379   6.197   0.629 -0.6449  0.6167 -0.1275
  593MOL0     C81750   0.362   6.087   0.539  0.6499  0.9930 -0.7759
  593MOL0     C81751   0.382   5.616   0.442 -0.0287 -0.3175 -0.0136
  593MOL0     C81752   0.424   5.637   0.305  0.9181 -0.2002  0.2842
  593MOL0     C81753   0.424   5.523   0.214 -0.0781 -1.0278 -0.6108
  593MOL0     C81754   0.379   5.400   0.253 -0.7070 -0.1636 -0.2752
  593MOL0     O81755   0.368   5.291   0.163 -0.2591 -0.2118  0.1907
  593MOL0     C81756   0.425   5.297   0.035 -0.9101  0.0788  0.9739
  593MOL0     C81757   0.330   5.312  -0.073  0.0005  0.0248  0.7701
  593MOL0     C81758   0.221   5.203  -0.072 -1.1071  0.1530 -0.8700
  593MOL0     C81759   0.144   5.205  -0.204 -0.1331  0.0353 -0.2632
  593MOL0     C81760   0.227   5.140  -0.293 -0.1714  0.6077  0.6027
  593MOL0     C81761   0.310   5.092  -0.366 -0.6821 -0.5636  0.3343
  593MOL0     C81762   0.349   5.379   0.392 -0.3277 -0.0210 -0.1975
  593MOL0     C81763   0.351   5.489   0.485  0.0835  0.5656  0.1964
  593MOL0     C81764   0.268   5.452   0.603 -0.4634  0.0078  0.3831
  593MOL0     H81765   0.597   5.881   0.658 -2.0182 -1.6575 -0.3215
  593MOL0     H81766   0.654   6.091   0.788 -1.1727  1.6107  1.1759
  593MOL0     H81767   0.612   6.196   0.941  0.0935  0.9295  0.1139
  593MOL0     H81768   0.504   6.300   1.012 -1.5889 -1.2546 -0.4133
  593MOL0     H81769   0.743   6.395   0.851  0.4840 -0.6372 -0.0230
  593MOL0     H81770   0.653   6.489   0.965  4.4940  1.2193 -0.1043
  593MOL0     H81771   0.824   6.259   1.037 -1.6651 -0.1925 -1.8232
  593MOL0     H81772   0.857   6.429   1.062 -2.8629  3.7604  2.4366
  593MOL0     H81773   0.710   6.451   1.245 -0.7782 -0.3766  1.4143
  593MOL0     H81774   0.604   6.313   1.191 -0.1588  0.8497 -1.7377
  593MOL0     H81775   0.764   6.144   1.270 -0.3006 -0.3779  0.8060
  593MOL0     H81776   0.733   6.263   1.395 -2.0166 -0.0060 -1.1168
  593MOL0     H81777   0.973   6.225   1.213  0.5313 -0.2799  0.8077
  593MOL0     H81778   0.937   6.383   1.284  1.4099  0.1289 -0.6712
  593MOL0     H81779   0.999   6.123   1.423 -0.8587 -0.4677 -1.3714
  593MOL0     H81780   0.938   6.265   1.514  1.0262 -0.2195  0.8387
  593MOL0     H81781   1.159   6.381   1.424  0.8623 -0.8481 -1.6176
  593MOL0     H81782   1.182   6.255   1.543  3.7464 -0.6156 -0.8587
  593MOL0     H81783   1.214   6.310   1.174  0.8703  0.8948  0.4455
  593MOL0     H81784   1.377   6.169   0.973 -1.0285 -2.1765 -1.4352
  593MOL0     H81785   1.409   6.008   1.014 -1.3120  1.2094 -2.8967
  593MOL0     H81786   1.595   6.211   1.119 -2.3900  1.8405 -1.6200
  593MOL0     H81787   1.620   6.037   1.111 -3.5871 -0.1273  3.4211
  593MOL0     H81788   1.580   6.230   0.872  0.3597 -1.1967 -0.9750
  593MOL0     H81789   1.733   6.203   0.946 -0.4548  1.3667 -1.5046
  593MOL0     H81790   1.710   6.072   0.753  1.1694 -2.9823  0.0750
  593MOL0     H81791   1.708   5.960   0.893 -2.2214 -1.2803  0.4636
  593MOL0     H81792   1.355   6.002   0.643  0.0063 -0.8411  0.8833
  593MOL0     H81793   1.251   6.002   0.436  0.9997  1.3041 -1.3262
  593MOL0     H81794   1.242   5.839   0.372 -0.3020 -0.9357 -1.3369
  593MOL0     H81795   1.339   5.970   0.286  3.3426  0.8153  1.2265
  593MOL0     H81796   1.626   5.788   0.005 -2.3713 -1.1304  0.2774
  593MOL0     H81797   1.696   5.657  -0.219 -1.8105 -0.4080 -0.6422
  593MOL0     H81798   2.000   5.397  -0.201 -1.2636  3.2923  0.3972
  593MOL0     H81799   1.904   5.247  -0.191  0.9631  1.2274  2.6689
  593MOL0     H81800   1.994   5.230  -0.397  0.0353  0.3387  2.7113
  593MOL0     H81801   1.834   5.294  -0.435 -1.0192  2.0500  0.4419
  593MOL0     H81802   2.059   5.407  -0.551  1.7232 -0.0327  0.4217
  593MOL0     H81803   2.083   5.473  -0.398 -0.9253 -1.3933  2.2637
  593MOL0     H81804   1.841   5.589  -0.406  2.4093  1.1824  1.0838
  593MOL0     H81805   1.811   5.528  -0.566 -0.5198  0.5666  0.0942
  593MOL0     H81806   1.910   5.758  -0.521  1.0811  0.0757  1.1737
  593MOL0     H81807   2.070   5.682  -0.513 -1.1618  2.3759  0.6836
  593MOL0     H81808   1.899   5.706  -0.763  0.0415  1.1268  0.0815
  593MOL0     H81809   2.000   5.568  -0.745 -0.4549  0.0192 -0.1829
  593MOL0     H81810   2.190   5.676  -0.712 -1.1109 -0.9556  1.1482
  593MOL0     H81811   2.119   5.837  -0.678  1.6026 -0.3500  0.1123
  593MOL0     H81812   2.114   5.692  -0.948 -0.3298 -0.6838  0.8092
  593MOL0     H81813   2.218   5.827  -0.908  0.2842 -0.4042  0.7106
  593MOL0     H81814   1.806   5.336  -0.002  4.4251  2.5764  1.0625
  593MOL0     H81815   1.756   5.447   0.224 -1.6996  0.0493 -1.5391
  593MOL0     H81816   1.713   5.698   0.487  0.1689  1.2449 -1.7427
  593MOL0     H81817   1.716   5.801   0.702  2.4281 -1.0850 -3.7158
  593MOL0     H81818   0.303   6.274   0.624 -3.2094 -1.5747  1.9456
  593MOL0     H81819   0.280   6.083   0.468  1.0240  0.0690 -1.1729
  593MOL0     H81820   0.460   5.731   0.267 -0.9402  0.4109 -0.0321
  593MOL0     H81821   0.456   5.547   0.113  0.2349  0.5428 -0.1564
  593MOL0     H81822   0.510   5.367   0.035  1.5472 -2.5915  3.7731
  593MOL0     H81823   0.466   5.198   0.015 -2.7000 -0.9628  2.1885
  593MOL0     H81824   0.384   5.315  -0.168 -2.2572 -1.3946 -0.6361
  593MOL0     H81825   0.269   5.403  -0.067  1.3232  0.8448  3.2052
  593MOL0     H81826   0.260   5.103  -0.052 -3.4386 -0.7825 -0.5953
  593MOL0     H81827   0.158   5.226   0.015  0.8184  0.9413  0.3615
  593MOL0     H81828   0.144   5.310  -0.234 -0.9657 -0.1825 -1.0454
  593MOL0     H81829   0.045   5.166  -0.181 -0.8938  3.0229  2.3452
  593MOL0     H81830   0.383   5.040  -0.425  0.8249  1.5239  0.2782
  593MOL0     H81831   0.325   5.275   0.410  2.1013 -0.4441  1.0217
  593MOL0     H81832   0.228   5.351   0.604 -0.3854 -0.0705 -1.4907
  593MOL0     H81833   0.318   5.467   0.699  0.5462 -0.3580 -0.0666
  593MOL0     H81834   0.184   5.522   0.600 -1.8050 -1.5654  0.3358
  594MOL0     O81835   5.115   0.523  10.500  0.5448 -0.0022  0.3479
  594MOL0     C81836   5.151   0.408  10.527  0.2274  0.3905 -0.5910
  594MOL0     O81837   5.209   0.368  10.645 -0.4176 -0.0376  0.1481
  594MOL0     C81838   5.259   0.461  10.727  0.2510 -0.5850 -1.0827
  594MOL0     C81839   5.390   0.496  10.743 -0.1562  0.3156  0.0692
  594MOL0     C81840   5.437   0.587  10.832 -0.6432 -0.1716  0.2274
  594MOL0     C81841   5.347   0.663  10.902 -0.0444  1.0471 -0.3285
  594MOL0     O81842   5.394   0.756  10.992 -0.3583  0.1007 -0.2010
  594MOL0     C81843   5.303   0.829  11.073 -0.3878  0.6113 -1.2332
  594MOL0     C81844   5.236   0.746  11.187  0.5994  0.6134  0.0573
  594MOL0     C81845   5.099   0.803  11.225 -0.2944 -0.5477 -0.2771
  594MOL0     C81846   5.103   0.953  11.254  0.1277  0.3964  0.0733
  594MOL0     C81847   4.952   0.984  11.298 -0.4579 -1.2730 -0.4027
  594MOL0     C81848   4.931   1.133  11.318 -0.5497 -0.4148  0.5183
  594MOL0     C81849   5.040   1.200  11.408  0.3071  1.1436  0.0104
  594MOL0     C81850   5.010   1.331  11.472  1.3306  0.1399 -0.7053
  594MOL0     N81851   4.973   1.445  11.385  0.0466 -0.0295 -0.0120
  594MOL0     C81852   4.862   1.465  11.301 -0.5149  0.2977 -0.3155
  594MOL0     C81853   4.886   1.578  11.237 -0.5000  0.4827  1.0949
  594MOL0     C81854   4.803   1.634  11.124  0.4368  0.1158  0.9152
  594MOL0     C81855   4.655   1.666  11.153  0.4967  0.3947  0.1686
  594MOL0     C81856   4.625   1.734  11.281  0.6972  0.0957  0.6591
  594MOL0     C81857   4.670   1.878  11.276  0.5495 -0.1733 -0.2928
  594MOL0     O81858   4.635   1.929  11.403  0.2655  0.1933 -0.1219
  594MOL0     C81859   4.500   1.969  11.424 -0.0903 -0.0012 -0.2770
  594MOL0     C81860   4.473   2.036  11.543  0.0981  0.4523  0.5205
  594MOL0     C81861   4.342   2.074  11.577  0.4484 -0.1034 -0.3112
  594MOL0     C81862   4.307   2.147  11.711 -0.2855  0.8828  0.2588
  594MOL0     C81863   4.234   2.052  11.477  0.0115  0.0661  0.1324
  594MOL0     C81864   4.085   2.077  11.505  0.0456 -0.6684  0.5594
  594MOL0     O81865   4.046   2.129  11.624 -0.1991  0.4558 -0.7142
  594MOL0     C81866   3.918   2.176  11.626 -0.5351 -0.1475  0.1893
  594MOL0     C81867   3.816   2.081  11.636 -0.3786 -0.0945  0.7346
  594MOL0     C81868   3.682   2.123  11.640  0.2754 -0.2593  0.6938
  594MOL0     C81869   3.650   2.263  11.653  0.0577  0.1098 -0.7018
  594MOL0     O81870   3.523   2.303  11.657  0.5592 -1.1635  0.3311
  594MOL0     C81871   3.484   2.409  11.751  0.2000  0.5821  0.4667
  594MOL0     C81872   3.333   2.426  11.774  0.2512  0.0928  0.7699
  594MOL0     C81873   3.277   2.330  11.882  0.1365  0.5782 -0.1872
  594MOL0     C81874   3.122   2.349  11.900 -0.0623  0.2402 -0.2065
  594MOL0     C81875   3.032   2.230  11.941  0.0426  0.9911  0.5863
  594MOL0     C81876   2.905   2.292  11.993  0.2588  0.1081 -0.7055
  594MOL0     C81877   2.788   2.203  11.991 -0.3753  0.7918 -0.4830
  594MOL0     C81878   2.681   2.252  12.086  0.0927  0.2527  0.1800
  594MOL0    Cl81879   2.724   2.210  12.258  0.3478  0.0614  0.2208
  594MOL0     C81880   3.751   2.360  11.652 -0.7220 -0.0881  0.0278
  594MOL0     C81881   3.891   2.312  11.633  1.0198 -0.5559  0.4056
  594MOL0     O81882   4.012   2.040  11.417  0.4476  1.0074  0.5091
  594MOL0     C81883   4.277   2.003  11.344  0.3376 -0.6526  0.5034
  594MOL0     C81884   4.403   1.958  11.326  0.5645 -0.2521 -0.3076
  594MOL0     N81885   5.006   1.627  11.277 -0.3665 -0.9643 -0.3802
  594MOL0     N81886   5.055   1.549  11.365 -0.3119  0.6957  1.3027
  594MOL0     C81887   5.209   0.630  10.887  0.5787 -0.2249 -0.0058
  594MOL0     C81888   5.162   0.540  10.797  0.4985  0.3846  0.4007
  594MOL0     C81889   5.157   0.310  10.419  1.2197 -0.1061  0.7765
  594MOL0     C81890   5.262   0.215  10.414  0.4087 -0.3457 -0.2752
  594MOL0     C81891   5.276   0.137  10.295  0.1429  0.0718 -0.3093
  594MOL0     C81892   5.190   0.143  10.188 -0.0678  0.1028 -0.1285
  594MOL0     O81893   5.203   0.064  10.085  0.2967 -0.3827  0.7677
  594MOL0     C81894   5.125  -0.054  10.099 -0.3276 -0.4667 -0.1546
  594MOL0     C81895   5.147  -0.134   9.964 -0.1361  0.2413 -0.2857
  594MOL0     C81896   5.056  -0.097   9.841 -0.3973  0.6761  0.3269
  594MOL0     C81897   5.059  -0.211   9.726  1.4298 -0.0322  0.2892
  594MOL0     C81898   4.972  -0.169   9.613 -0.0337  0.2724  0.3945
  594MOL0     C81899   4.888  -0.139   9.533  0.6304  0.1705 -0.0659
  594MOL0     C81900   5.075   0.221  10.204 -0.0720  0.5104 -0.7980
  594MOL0     C81901   5.069   0.308  10.312  0.3280 -0.2032  0.4849
  594MOL0     C81902   4.936   0.394  10.315 -0.4064  0.4989 -0.1516
  594MOL0     H81903   5.454   0.442  10.673 -1.0374 -0.7548  0.0567
  594MOL0     H81904   5.546   0.595  10.828 -0.7680  1.3776 -0.9514
  594MOL0     H81905   5.222   0.864  11.007  1.3601  3.0059 -2.2608
  594MOL0     H81906   5.346   0.915  11.126  0.0981 -0.4858  0.2071
  594MOL0     H81907   5.217   0.640  11.170 -1.2397  0.0689  4.2249
  594MOL0     H81908   5.288   0.749  11.283 -1.9540  0.7713  1.5317
  594MOL0     H81909   5.026   0.790  11.145 -0.7245 -2.5007  0.3807
  594MOL0     H81910   5.047   0.749  11.305 -0.4556 -0.0624 -0.0472
  594MOL0     H81911   5.181   0.969  11.329  1.0994  2.4144 -1.2920
  594MOL0     H81912   5.128   1.011  11.165 -2.4360  0.6190 -0.5722
  594MOL0     H81913   4.912   0.941  11.391 -2.5965 -0.5547 -0.9238
  594MOL0     H81914   4.887   0.972  11.211 -0.8936  2.4743 -0.7568
  594MOL0     H81915   4.918   1.191  11.226 -0.2030 -0.0613  0.6932
  594MOL0     H81916   4.835   1.153  11.366  0.0419 -0.1610  1.6119
  594MOL0     H81917   5.128   1.226  11.349 -1.3746  1.1415 -2.6701
  594MOL0     H81918   5.069   1.124  11.481 -2.4082 -0.9849 -0.9479
  594MOL0     H81919   4.920   1.313  11.531  2.8404 -3.6379  0.8328
  594MOL0     H81920   5.088   1.356  11.545  0.4804  1.4390 -0.2139
  594MOL0     H81921   4.772   1.404  11.290  0.8665 -1.9018 -0.0605
  594MOL0     H81922   4.808   1.578  11.030  2.4877  1.7696 -0.0281
  594MOL0     H81923   4.851   1.728  11.097 -3.6890  2.0446 -0.4795
  594MOL0     H81924   4.610   1.725  11.073  1.4186 -0.3763 -0.9486
  594MOL0     H81925   4.600   1.571  11.152  0.5375  0.3702  0.2178
  594MOL0     H81926   4.517   1.731  11.300  0.6765 -0.4953  0.4924
  594MOL0     H81927   4.678   1.676  11.357  1.1441 -1.3112 -0.6687
  594MOL0     H81928   4.779   1.884  11.265  0.4165  1.8845 -0.8988
  594MOL0     H81929   4.623   1.936  11.196  2.0331  0.5326 -0.7039
  594MOL0     H81930   4.558   2.062  11.605 -1.7300  0.8159  3.0267
  594MOL0     H81931   4.240   2.088  11.773 -0.4464 -1.1693 -1.7012
  594MOL0     H81932   4.264   2.244  11.685  0.8831  0.6284 -3.3098
  594MOL0     H81933   4.396   2.162  11.772  2.2072 -2.6776 -2.0771
  594MOL0     H81934   3.835   1.975  11.622 -2.2705 -0.1786 -1.7133
  594MOL0     H81935   3.610   2.042  11.630  1.6535 -1.6548  1.6080
  594MOL0     H81936   3.522   2.369  11.845 -0.4168 -3.9477 -0.9676
  594MOL0     H81937   3.537   2.502  11.728 -0.7228  0.9996 -0.0380
  594MOL0     H81938   3.312   2.530  11.798  0.4480  0.1225  0.8157
  594MOL0     H81939   3.287   2.400  11.678  2.0898 -1.4084  0.2285
  594MOL0     H81940   3.338   2.333  11.973 -0.0657  1.4054 -0.0693
  594MOL0     H81941   3.292   2.230  11.841  0.3200  0.8150 -0.7126
  594MOL0     H81942   3.079   2.383  11.805  0.9396  2.1474 -0.0408
  594MOL0     H81943   3.104   2.433  11.967 -0.4625 -0.5171  0.6395
  594MOL0     H81944   3.012   2.167  11.854 -4.8078  1.3335  1.1787
  594MOL0     H81945   3.087   2.177  12.020 -0.3866 -0.9885 -0.3806
  594MOL0     H81946   2.877   2.377  11.929  1.1456  0.0310 -1.2070
  594MOL0     H81947   2.918   2.344  12.088 -1.2843  0.6545 -0.7576
  594MOL0     H81948   2.814   2.107  12.036 -1.2787  2.2126  3.4457
  594MOL0     H81949   2.745   2.194  11.891  0.7798 -0.9534 -0.8732
  594MOL0     H81950   2.591   2.196  12.061  0.9364 -0.4066 -1.4856
  594MOL0     H81951   2.656   2.357  12.068  0.0856 -0.0363 -1.6503
  594MOL0     H81952   3.745   2.468  11.647  1.5168  0.1640  1.0784
  594MOL0     H81953   3.976   2.377  11.614  0.5751  0.5301  1.8858
  594MOL0     H81954   4.204   1.990  11.265 -0.9557 -1.7493  1.8165
  594MOL0     H81955   4.418   1.918  11.226  4.7053  1.6062 -0.6272
  594MOL0     H81956   5.138   0.697  10.933  2.3005  0.7605  1.3702
  594MOL0     H81957   5.058   0.517  10.779 -0.0224  1.1399  2.2805
  594MOL0     H81958   5.332   0.208  10.496 -0.0815  1.7680  0.3964
  594MOL0     H81959   5.360   0.069  10.293 -0.9367 -1.3410  0.6029
  594MOL0     H81960   5.181  -0.114  10.171  1.0425 -0.6711 -1.3511
  594MOL0     H81961   5.018  -0.040  10.122  0.0109 -0.8591  1.8269
  594MOL0     H81962   5.115  -0.234   9.995  2.2062 -0.3421  0.4537
  594MOL0     H81963   5.253  -0.135   9.937 -0.4649 -2.1220 -1.7955
  594MOL0     H81964   4.958  -0.074   9.886  0.1910  1.6068  1.1908
  594MOL0     H81965   5.095  -0.005   9.796 -0.8878  0.9188  0.3843
  594MOL0     H81966   5.014  -0.300   9.771  2.0458  0.4103  1.8621
  594MOL0     H81967   5.156  -0.231   9.682 -0.4742 -1.4209 -3.7832
  594MOL0     H81968   4.812  -0.111   9.463  1.2656 -0.0329 -0.8534
  594MOL0     H81969   5.000   0.215  10.126 -1.4414 -1.6035  0.5967
  594MOL0     H81970   4.862   0.345  10.251 -1.9676  1.7538  0.5955
  594MOL0     H81971   4.881   0.395  10.409 -0.8710  1.0198 -0.4217
  594MOL0     H81972   4.951   0.497  10.279  0.1087  1.2202  2.0043
  595MOL0     O81973   7.923   1.642   5.736 -1.0887 -0.4081 -0.0297
  595MOL0     C81974   7.879   1.537   5.767 -0.5655  0.4748  0.1857
  595MOL0     O81975   7.792   1.517   5.874  0.1125  0.2531 -0.1762
  595MOL0     C81976   7.702   1.615   5.893 -0.6549  0.3766 -0.4916
  595MOL0     C81977   7.570   1.592   5.866 -0.0591  0.6400  0.4178
  595MOL0     C81978   7.480   1.687   5.909 -0.1120 -0.6190 -0.0103
  595MOL0     C81979   7.515   1.806   5.978  0.0990 -0.0215 -0.0119
  595MOL0     O81980   7.425   1.903   6.013  0.0438 -0.2826 -0.4308
  595MOL0     C81981   7.390   1.912   6.157 -0.1266 -0.7201 -0.2865
  595MOL0     C81982   7.514   1.948   6.251 -0.2954 -0.2692 -0.8487
  595MOL0     C81983   7.472   2.013   6.382  0.4659  0.5287 -0.7838
  595MOL0     C81984   7.441   2.158   6.356  0.3213  0.1723  0.3265
  595MOL0     C81985   7.398   2.221   6.481 -0.5033  0.2482  0.1050
  595MOL0     C81986   7.377   2.380   6.481  0.2186  0.0359  0.0459
  595MOL0     C81987   7.302   2.421   6.606  0.2510  0.4147  0.3338
  595MOL0     C81988   7.399   2.452   6.723 -1.0457  0.0333 -0.2959
  595MOL0     N81989   7.329   2.513   6.836 -0.1070 -0.3217  0.5340
  595MOL0     C81990   7.306   2.463   6.962 -0.8135 -0.1250  0.7191
  595MOL0     C81991   7.261   2.572   7.032 -0.7632  0.3623  1.2652
  595MOL0     C81992   7.227   2.552   7.176 -0.3439  0.9252  0.4872
  595MOL0     C81993   7.093   2.487   7.195 -0.0323  0.0756  0.8973
  595MOL0     C81994   6.982   2.533   7.102 -0.4398  0.0156 -0.6561
  595MOL0     C81995   6.853   2.474   7.144  0.4701 -0.3628  1.2025
  595MOL0     O81996   6.852   2.329   7.158  0.0239 -0.4849 -0.3837
  595MOL0     C81997   6.789   2.280   7.265  0.5259  0.0779 -0.6966
  595MOL0     C81998   6.677   2.337   7.324  0.5901 -1.0150 -0.2852
  595MOL0     C81999   6.614   2.279   7.436 -0.0884  0.1270  0.0951
  595MOL0     C82000   6.496   2.352   7.491 -0.7487  0.0567  0.9788
  595MOL0     C82001   6.659   2.153   7.483 -0.1278  0.0715 -0.1045
  595MOL0     C82002   6.597   2.082   7.596 -0.6361  0.0556 -0.7528
  595MOL0     O82003   6.682   1.993   7.658 -0.8754  0.4247  0.0960
  595MOL0     C82004   6.661   1.912   7.764 -0.0995 -0.7635 -0.5519
  595MOL0     C82005   6.532   1.883   7.817 -0.4098 -0.0662  0.2193
  595MOL0     C82006   6.518   1.792   7.924  0.1595 -0.5514 -0.0433
  595MOL0     C82007   6.632   1.753   7.995  0.5854  0.9021  0.4576
  595MOL0     O82008   6.637   1.669   8.101  0.2939  0.2735 -1.3767
  595MOL0     C82009   6.518   1.647   8.173  0.1079  0.4735  0.2712
  595MOL0     C82010   6.547   1.580   8.305  0.1622  0.0747 -0.3042
  595MOL0     C82011   6.619   1.448   8.289 -0.6387 -0.0003  0.4364
  595MOL0     C82012   6.674   1.385   8.414  0.5082  0.2411  0.1264
  595MOL0     C82013   6.754   1.255   8.392  0.5645  0.0719 -0.3202
  595MOL0     C82014   6.884   1.269   8.453 -0.5414  0.7386 -0.4414
  595MOL0     C82015   6.974   1.145   8.450  0.1284  0.4332 -0.4804
  595MOL0     C82016   7.082   1.143   8.562 -0.2400  0.5192 -0.0089
  595MOL0    Cl82017   7.182   1.005   8.519 -0.1290  0.4465  0.6708
  595MOL0     C82018   6.764   1.798   7.956  0.3362  0.0401 -0.7157
  595MOL0     C82019   6.772   1.878   7.837 -0.3021  0.4127 -0.9432
  595MOL0     O82020   6.479   2.108   7.634  0.5184  0.7529 -0.0096
  595MOL0     C82021   6.765   2.090   7.413  0.5000 -0.0016 -0.1204
  595MOL0     C82022   6.834   2.154   7.309  0.4562  0.1313 -0.0608
  595MOL0     N82023   7.282   2.683   6.960  0.1701  0.5752 -0.1066
  595MOL0     N82024   7.324   2.649   6.849 -0.4865  0.6928  0.8222
  595MOL0     C82025   7.651   1.827   5.999 -0.1186  0.3695  0.0837
  595MOL0     C82026   7.739   1.732   5.966  0.2115  0.9555 -0.3339
  595MOL0     C82027   7.900   1.413   5.688 -0.6373 -0.5199 -0.1446
  595MOL0     C82028   7.812   1.310   5.708 -1.3244  0.8221 -0.1872
  595MOL0     C82029   7.832   1.201   5.636 -0.2100  0.0176  0.6069
  595MOL0     C82030   7.939   1.177   5.546 -0.2515 -0.1582  0.2401
  595MOL0     O82031   7.944   1.057   5.488  0.6312  1.0426 -0.1420
  595MOL0     C82032   7.836   1.004   5.410  0.0437 -0.9287 -0.5938
  595MOL0     C82033   7.874   1.036   5.262 -0.0263 -0.1735  0.1366
  595MOL0     C82034   7.995   0.960   5.215  0.4725 -0.3214 -0.8289
  595MOL0     C82035   8.052   1.002   5.081  0.0475  0.4675  0.4717
  595MOL0     C82036   8.130   1.125   5.097 -0.5567  0.4092 -0.2306
  595MOL0     C82037   8.191   1.227   5.111 -0.7110 -0.2894 -0.5365
  595MOL0     C82038   8.033   1.285   5.526 -0.3043  0.7856 -0.3993
  595MOL0     C82039   8.020   1.395   5.611 -0.1111  0.2372  0.1347
  595MOL0     C82040   8.126   1.501   5.585  0.3455  0.5519  0.0505
  595MOL0     H82041   7.539   1.499   5.818  1.1098  0.9358 -0.9774
  595MOL0     H82042   7.375   1.660   5.906  0.3493 -2.8777  1.2480
  595MOL0     H82043   7.336   1.823   6.191 -1.7169  0.3555  0.0794
  595MOL0     H82044   7.323   1.997   6.161  0.4656 -0.2396  3.4099
  595MOL0     H82045   7.575   1.862   6.278  2.2392  1.2878 -1.3368
  595MOL0     H82046   7.576   2.023   6.202 -0.9948 -0.2241 -1.6991
  595MOL0     H82047   7.383   1.962   6.420  1.5751  0.3669  1.8260
  595MOL0     H82048   7.552   2.006   6.457 -0.8070  1.1184  0.6755
  595MOL0     H82049   7.533   2.201   6.315  0.1179  0.4273  0.1387
  595MOL0     H82050   7.377   2.171   6.269  1.4071  0.5105 -0.4425
  595MOL0     H82051   7.463   2.193   6.564  0.5725 -0.2357 -0.8618
  595MOL0     H82052   7.299   2.177   6.496  1.0618 -3.0267  1.7385
  595MOL0     H82053   7.477   2.427   6.484 -0.9577  2.8774 -1.4091
  595MOL0     H82054   7.327   2.418   6.392 -1.3267  1.4465  1.4569
  595MOL0     H82055   7.238   2.341   6.644 -1.2943  2.2613  1.8046
  595MOL0     H82056   7.242   2.509   6.580  2.1445  1.4109 -0.9449
  595MOL0     H82057   7.451   2.361   6.754  1.1529  1.6899  1.1877
  595MOL0     H82058   7.479   2.523   6.697 -0.7339 -0.2384 -0.0901
  595MOL0     H82059   7.325   2.362   6.998  0.7388 -0.5254 -1.0724
  595MOL0     H82060   7.227   2.647   7.231 -0.9690  1.0240  0.3245
  595MOL0     H82061   7.306   2.493   7.222  0.0764  0.1279 -1.1937
  595MOL0     H82062   7.116   2.381   7.178  2.2564  0.6799 -0.1034
  595MOL0     H82063   7.073   2.504   7.301 -4.3033 -0.8384  0.4487
  595MOL0     H82064   6.970   2.641   7.106 -1.3080 -0.0877 -0.1752
  595MOL0     H82065   7.001   2.486   7.005  1.8003 -2.2113  0.7363
  595MOL0     H82066   6.830   2.530   7.235 -1.1703  0.1351  0.5288
  595MOL0     H82067   6.772   2.505   7.077 -0.2999 -1.7633  1.4470
  595MOL0     H82068   6.636   2.424   7.274 -2.4699 -2.1629  0.0142
  595MOL0     H82069   6.493   2.442   7.429  1.6162 -0.3042  0.2403
  595MOL0     H82070   6.500   2.374   7.598  0.0951  2.4854  0.5069
  595MOL0     H82071   6.404   2.298   7.465 -1.2184  1.2841 -0.0100
  595MOL0     H82072   6.443   1.919   7.766  0.5289  0.9007 -0.7826
  595MOL0     H82073   6.418   1.766   7.958  1.0061 -3.9856  0.1994
  595MOL0     H82074   6.461   1.736   8.203  2.0464  1.2034  2.0265
  595MOL0     H82075   6.448   1.588   8.113  0.4888 -1.0161  1.2298
  595MOL0     H82076   6.603   1.651   8.366 -0.1861  1.5005 -1.5753
  595MOL0     H82077   6.443   1.571   8.339 -0.6767 -2.5219 -3.1604
  595MOL0     H82078   6.700   1.456   8.216  0.7759 -0.1882  1.9281
  595MOL0     H82079   6.543   1.381   8.247 -0.6002  0.1127  0.1805
  595MOL0     H82080   6.587   1.363   8.477 -2.4886  0.2860 -3.6090
  595MOL0     H82081   6.737   1.457   8.467 -1.2595  2.2222 -0.3001
  595MOL0     H82082   6.704   1.172   8.441  0.3487  0.5182  0.2290
  595MOL0     H82083   6.760   1.237   8.284 -1.2387 -0.2308 -0.4028
  595MOL0     H82084   6.871   1.299   8.557  0.3322 -2.1692  0.6013
  595MOL0     H82085   6.938   1.351   8.403  2.5719 -0.1476  1.1875
  595MOL0     H82086   7.018   1.136   8.351 -1.6861  0.2366 -1.3107
  595MOL0     H82087   6.908   1.062   8.476 -0.2184  0.7064 -0.4757
  595MOL0     H82088   7.040   1.124   8.661 -1.8819  0.2141 -0.7315
  595MOL0     H82089   7.133   1.239   8.559  0.8552 -0.0692 -1.3551
  595MOL0     H82090   6.844   1.773   8.025 -0.7633 -2.5226 -0.2626
  595MOL0     H82091   6.863   1.929   7.805 -0.9648  1.4657 -1.2245
  595MOL0     H82092   6.796   1.992   7.446 -0.0373  0.6636  2.6579
  595MOL0     H82093   6.910   2.101   7.253 -2.5808 -1.4717 -3.0290
  595MOL0     H82094   7.686   1.915   6.052 -0.6566  0.5663  0.1245
  595MOL0     H82095   7.840   1.746   6.001 -0.2899  3.1211  0.4577
  595MOL0     H82096   7.730   1.310   5.778 -3.0327  0.5526 -2.0917
  595MOL0     H82097   7.761   1.120   5.651  0.2761 -0.7380 -0.9338
  595MOL0     H82098   7.824   0.897   5.427 -0.0550 -0.5846  1.9153
  595MOL0     H82099   7.740   1.057   5.415  0.4509 -0.1064 -1.2000
  595MOL0     H82100   7.897   1.141   5.244  0.7942 -0.5221 -0.9649
  595MOL0     H82101   7.780   1.014   5.210  0.6555  3.7460 -3.2962
  595MOL0     H82102   8.070   0.982   5.292 -1.2950  2.4116  0.2820
  595MOL0     H82103   7.977   0.853   5.198  2.8612 -1.2332  1.6066
  595MOL0     H82104   7.975   1.028   5.008  0.1095  2.0423  0.9412
  595MOL0     H82105   8.128   0.928   5.053  0.8610  0.6889  2.0137
  595MOL0     H82106   8.253   1.314   5.109 -3.2758  1.6589 -0.8248
  595MOL0     H82107   8.114   1.267   5.455 -1.0032  3.1793 -1.9180
  595MOL0     H82108   8.090   1.562   5.502 -0.4198 -0.5210 -0.4341
  595MOL0     H82109   8.143   1.570   5.668 -2.4382  1.2116  0.1870
  595MOL0     H82110   8.217   1.456   5.545  0.1398 -0.3284  0.5243
  596MOL0     O82111   3.081   8.640   8.792 -0.4276  0.5374 -0.2831
  596MOL0     C82112   3.074   8.565   8.889  0.9643  0.8985  0.1372
  596MOL0     O82113   3.181   8.522   8.960 -0.1536  0.5399  0.6111
  596MOL0     C82114   3.314   8.537   8.924 -0.6464  0.0323  0.5411
  596MOL0     C82115   3.365   8.517   8.796 -0.1730 -0.2301  0.9969
  596MOL0     C82116   3.493   8.547   8.757  0.3640 -1.0948 -0.6392
  596MOL0     C82117   3.582   8.592   8.858 -0.3027 -0.6552  0.0222
  596MOL0     O82118   3.714   8.632   8.819  1.5294 -0.1610 -1.1180
  596MOL0     C82119   3.805   8.687   8.917 -0.0010 -0.0901 -0.8700
  596MOL0     C82120   3.948   8.719   8.853 -0.0623  0.3748  0.1436
  596MOL0     C82121   3.948   8.840   8.758 -0.1779  1.4739 -0.3566
  596MOL0     C82122   4.076   8.920   8.765  0.5220 -0.7720  0.9319
  596MOL0     C82123   4.084   9.057   8.692  0.0701 -0.1077  0.3954
  596MOL0     C82124   3.963   9.131   8.708  0.0565  0.0304  0.1906
  596MOL0     C82125   3.985   9.276   8.671  0.3351 -0.6155 -0.1714
  596MOL0     C82126   3.863   9.344   8.625  0.0661 -0.7254  0.2028
  596MOL0     N82127   3.773   9.387   8.738  0.1276 -0.6116  0.5226
  596MOL0     C82128   3.761   9.354   8.870  1.2668 -0.1828 -0.2788
  596MOL0     C82129   3.670   9.442   8.927  0.4240 -0.2582 -0.3239
  596MOL0     C82130   3.640   9.467   9.075 -0.5177 -0.5122 -0.5390
  596MOL0     C82131   3.706   9.592   9.122 -0.3291 -0.0689  0.2742
  596MOL0     C82132   3.657   9.648   9.259 -0.2675 -0.2608 -0.1648
  596MOL0     C82133   3.715   9.570   9.375 -0.6385  0.9124 -0.1520
  596MOL0     O82134   3.618   9.589   9.479  0.7277 -0.0382  0.2540
  596MOL0     C82135   3.499   9.515   9.487 -0.4349 -0.1821  0.3503
  596MOL0     C82136   3.416   9.550   9.589  0.9475 -0.4177 -0.7215
  596MOL0     C82137   3.298   9.475   9.622 -0.3677 -1.0090  0.7604
  596MOL0     C82138   3.214   9.523   9.731  0.2388  0.0332 -0.4122
  596MOL0     C82139   3.273   9.361   9.540 -0.3822 -0.0226 -0.0811
  596MOL0     C82140   3.176   9.255   9.581 -0.3531  0.3354 -0.8415
  596MOL0     O82141   3.064   9.296   9.655 -0.2001 -1.9549  0.7209
  596MOL0     C82142   2.983   9.214   9.736 -0.2152  0.4163 -0.3201
  596MOL0     C82143   2.904   9.264   9.834 -0.3081 -0.0687 -0.3364
  596MOL0     C82144   2.812   9.191   9.901  0.5470  0.3891 -0.6052
  596MOL0     C82145   2.805   9.050   9.881  0.5358 -0.3787 -1.0431
  596MOL0     O82146   2.725   8.969   9.949 -0.7276 -0.1319  0.0261
  596MOL0     C82147   2.590   8.958   9.903 -0.4934  0.6026  1.1623
  596MOL0     C82148   2.513   8.842   9.971  0.9857 -0.7296 -0.7097
  596MOL0     C82149   2.606   8.711   9.968 -0.5803  0.7617 -0.3534
  596MOL0     C82150   2.544   8.609  10.056 -0.3391  0.0476  0.0185
  596MOL0     C82151   2.611   8.468  10.066  0.4190 -0.5158  0.0674
  596MOL0     C82152   2.555   8.370  10.167 -0.8085  0.2372  0.2161
  596MOL0     C82153   2.597   8.227  10.138  0.1292  0.0716  0.3054
  596MOL0     C82154   2.505   8.136  10.216  1.0299  0.2237 -0.0494
  596MOL0    Cl82155   2.561   7.970  10.202  0.0043 -0.3974  0.2824
  596MOL0     C82156   2.892   8.996   9.788 -1.0111 -0.2016  0.0195
  596MOL0     C82157   2.974   9.073   9.715 -0.3632 -0.7954  0.1437
  596MOL0     O82158   3.194   9.140   9.532  0.5318  0.2242 -0.3923
  596MOL0     C82159   3.367   9.322   9.440 -0.2582  0.0745  0.4689
  596MOL0     C82160   3.477   9.401   9.416 -0.3735 -0.3394 -0.0779
  596MOL0     N82161   3.626   9.519   8.821 -0.3692 -0.1284  0.3374
  596MOL0     N82162   3.686   9.491   8.718 -0.2879 -0.1386  0.0972
  596MOL0     C82163   3.544   8.606   8.990 -0.4805 -0.0102  0.1447
  596MOL0     C82164   3.403   8.578   9.020 -0.0441 -0.1200 -0.5355
  596MOL0     C82165   2.933   8.550   8.939  0.6221  0.2423 -0.6202
  596MOL0     C82166   2.913   8.472   9.056 -0.6326  0.9245 -0.5249
  596MOL0     C82167   2.789   8.435   9.105  0.2025  0.0204 -0.9401
  596MOL0     C82168   2.669   8.477   9.047  0.0607  0.2108  0.1022
  596MOL0     O82169   2.541   8.445   9.080  0.5373  0.1481  0.3599
  596MOL0     C82170   2.517   8.375   9.205  0.6977  1.0431 -0.2969
  596MOL0     C82171   2.508   8.457   9.324 -0.5867 -0.7424 -0.1313
  596MOL0     C82172   2.625   8.432   9.431 -0.1957  1.2185 -0.5490
  596MOL0     C82173   2.622   8.502   9.569  0.1521 -1.2805 -0.5976
  596MOL0     C82174   2.547   8.629   9.559 -0.0237  0.6630 -0.7673
  596MOL0     C82175   2.472   8.725   9.530 -0.5003  1.0064  0.0254
  596MOL0     C82176   2.680   8.549   8.930  0.0809  0.4137 -0.2519
  596MOL0     C82177   2.808   8.590   8.875  0.2567 -0.2548  0.4100
  596MOL0     C82178   2.791   8.675   8.745  0.1418  0.2493 -0.1870
  596MOL0     H82179   3.307   8.467   8.719  3.3660 -0.2595 -1.9293
  596MOL0     H82180   3.526   8.531   8.655  3.2760  0.0057  0.0106
  596MOL0     H82181   3.812   8.615   8.999  0.6897  0.9670  0.0217
  596MOL0     H82182   3.763   8.775   8.965  1.9719  0.5893 -0.2781
  596MOL0     H82183   4.025   8.728   8.930  2.7059  1.5065 -2.5183
  596MOL0     H82184   3.980   8.630   8.797 -0.0041 -0.8319  2.0168
  596MOL0     H82185   3.916   8.812   8.657  1.6133  0.0299 -0.5725
  596MOL0     H82186   3.877   8.913   8.798 -0.3525  0.7263  0.7743
  596MOL0     H82187   4.100   8.948   8.867  0.7580  1.8385  0.2171
  596MOL0     H82188   4.147   8.844   8.730  1.3348  0.0855  0.6820
  596MOL0     H82189   4.121   9.049   8.590  1.4290 -0.3511  0.8802
  596MOL0     H82190   4.158   9.119   8.743  0.2695 -0.1102  0.1119
  596MOL0     H82191   3.890   9.090   8.637  1.5671  0.2718 -1.5881
  596MOL0     H82192   3.933   9.120   8.812 -0.6667  4.3130  0.6295
  596MOL0     H82193   4.056   9.278   8.587  0.8752 -0.3447  0.2847
  596MOL0     H82194   4.026   9.341   8.749 -0.3015  1.1264 -1.2111
  596MOL0     H82195   3.889   9.436   8.571  0.5570  1.3109  3.5992
  596MOL0     H82196   3.809   9.275   8.559 -1.8471  0.6390  0.2720
  596MOL0     H82197   3.810   9.281   8.934 -4.3058 -2.2527  2.3683
  596MOL0     H82198   3.677   9.386   9.137 -1.8817 -0.4344  0.4229
  596MOL0     H82199   3.532   9.474   9.086 -0.3689  2.0386 -0.1072
  596MOL0     H82200   3.814   9.573   9.120 -0.9989 -5.4958  1.1128
  596MOL0     H82201   3.680   9.673   9.054  0.9467 -0.1441 -0.3436
  596MOL0     H82202   3.689   9.751   9.272  2.2924 -0.2323 -4.5463
  596MOL0     H82203   3.549   9.637   9.246 -0.6553  1.5044  1.1970
  596MOL0     H82204   3.742   9.465   9.361  0.9980  0.6269  3.7847
  596MOL0     H82205   3.812   9.613   9.402  0.3039  1.1352 -3.4755
  596MOL0     H82206   3.447   9.621   9.665  1.5433 -0.5414 -0.8423
  596MOL0     H82207   3.227   9.436   9.795  1.2720  0.4183 -0.0674
  596MOL0     H82208   3.109   9.533   9.703  0.2175  1.7574  0.1770
  596MOL0     H82209   3.247   9.617   9.777 -2.2364  0.6980  0.1473
  596MOL0     H82210   2.890   9.368   9.860 -3.0697  0.2143 -2.4663
  596MOL0     H82211   2.753   9.251   9.970  1.8903  3.2956 -1.7981
  596MOL0     H82212   2.531   9.046   9.930 -3.8678 -0.5521 -1.7401
  596MOL0     H82213   2.577   8.943   9.796 -0.8291  0.4587  1.2218
  596MOL0     H82214   2.482   8.877  10.070  0.3557 -1.4974 -0.6202
  596MOL0     H82215   2.417   8.817   9.924  1.2395 -1.9304 -0.6200
  596MOL0     H82216   2.710   8.726   9.999 -0.4621 -1.1503  0.2976
  596MOL0     H82217   2.619   8.660   9.872 -1.0783 -0.2262  0.0833
  596MOL0     H82218   2.438   8.603  10.031 -0.2871  5.0394 -2.7928
  596MOL0     H82219   2.553   8.654  10.155 -3.0562 -0.0724  0.3785
  596MOL0     H82220   2.615   8.418   9.968  4.0785  1.9347 -1.2808
  596MOL0     H82221   2.716   8.482  10.095  0.0470  0.7086  0.8771
  596MOL0     H82222   2.448   8.391  10.158 -0.9448 -0.3000  0.5982
  596MOL0     H82223   2.599   8.400  10.263  1.3451 -0.0352 -0.6144
  596MOL0     H82224   2.701   8.233  10.170  0.4894  1.5951 -1.0104
  596MOL0     H82225   2.590   8.205  10.032 -4.2760  1.5806  0.0714
  596MOL0     H82226   2.400   8.147  10.186  0.4675  1.0317  2.0614
  596MOL0     H82227   2.502   8.165  10.321  1.3208 -0.6375  0.2064
  596MOL0     H82228   2.895   8.888   9.788  0.0544 -0.1907 -0.3101
  596MOL0     H82229   3.034   9.008   9.652  0.4776 -1.5080  1.6186
  596MOL0     H82230   3.361   9.232   9.380  2.5587 -0.4425  0.8190
  596MOL0     H82231   3.544   9.374   9.334 -0.1800 -0.5295  0.1433
  596MOL0     H82232   3.604   8.639   9.074  0.7460 -0.0189 -0.7098
  596MOL0     H82233   3.372   8.594   9.122 -2.0614  0.5687 -1.2033
  596MOL0     H82234   3.006   8.433   9.096  0.6722 -0.2334 -4.3115
  596MOL0     H82235   2.796   8.366   9.189  4.1524 -0.1288 -1.2169
  596MOL0     H82236   2.424   8.317   9.199  1.3678 -0.5377  2.5806
  596MOL0     H82237   2.583   8.288   9.210 -2.4962 -1.5998  0.0288
  596MOL0     H82238   2.412   8.451   9.376  0.3273 -0.9169  1.6350
  596MOL0     H82239   2.517   8.565   9.307  2.7567 -0.6571  1.3045
  596MOL0     H82240   2.625   8.323   9.442 -1.0182  1.3879  1.5781
  596MOL0     H82241   2.714   8.470   9.380 -0.7944  0.0167 -2.6528
  596MOL0     H82242   2.723   8.523   9.606 -0.5356 -1.6059  1.5824
  596MOL0     H82243   2.575   8.436   9.642 -1.2650  0.7712  0.4620
  596MOL0     H82244   2.408   8.807   9.503 -0.6052  1.0067  0.2632
  596MOL0     H82245   2.590   8.564   8.872 -2.1901 -2.3782  2.2495
  596MOL0     H82246   2.843   8.769   8.768 -0.9136  0.2356  2.7219
  596MOL0     H82247   2.842   8.623   8.665 -1.6608  1.0303 -1.9270
  596MOL0     H82248   2.685   8.696   8.727 -0.0391 -0.2226  0.2752
  597MOL0     O82249   8.295   3.026   2.622  0.6743  0.0882 -0.5815
  597MOL0     C82250   8.213   3.053   2.535 -0.3954 -0.5507 -0.3205
  597MOL0     O82251   8.227   3.013   2.408 -0.1044 -0.6451 -0.5171
  597MOL0     C82252   8.337   2.921   2.375 -0.7005 -0.3342 -0.3386
  597MOL0     C82253   8.307   2.806   2.306  0.5911 -0.1705 -0.7568
  597MOL0     C82254   8.401   2.717   2.248  0.4053  0.5551 -1.0625
  597MOL0     C82255   8.535   2.751   2.250  0.6613 -0.0480 -0.5860
  597MOL0     O82256   8.615   2.670   2.169  0.3026  0.2448 -0.2667
  597MOL0     C82257   8.753   2.682   2.210 -0.3799 -0.2007  0.6277
  597MOL0     C82258   8.842   2.578   2.141 -0.0060 -0.6551 -0.3662
  597MOL0     C82259   8.804   2.433   2.179 -0.8691 -0.3040  0.0061
  597MOL0     C82260   8.859   2.402   2.316 -0.7035 -0.4134  1.1675
  597MOL0     C82261   8.798   2.277   2.375  0.7618  0.8285  0.2522
  597MOL0     C82262   8.805   2.153   2.287 -0.2893 -0.2305  0.2936
  597MOL0     C82263   8.935   2.084   2.282 -0.4301 -0.3437  0.3515
  597MOL0     C82264   8.945   1.978   2.162 -0.3036  0.5066  0.1401
  597MOL0     N82265   9.079   1.916   2.145 -0.5085 -0.5574  0.1341
  597MOL0     C82266   9.108   1.784   2.158 -0.0841  0.2294 -0.6677
  597MOL0     C82267   9.232   1.776   2.108 -0.2945 -0.8231 -0.4494
  597MOL0     C82268   9.313   1.650   2.098  0.7097  0.4131 -0.8643
  597MOL0     C82269   9.250   1.559   1.989  0.1793  0.8972 -0.4398
  597MOL0     C82270   9.313   1.608   1.855 -0.1050 -0.2617  0.2050
  597MOL0     C82271   9.451   1.554   1.830 -0.8031 -0.0706 -0.6269
  597MOL0     O82272   9.495   1.581   1.703  0.3111  0.5207  0.8710
  597MOL0     C82273   9.620   1.526   1.672 -0.6371 -0.0657 -0.5236
  597MOL0     C82274   9.630   1.395   1.625 -0.7779  0.6948  1.2019
  597MOL0     C82275   9.752   1.329   1.594 -0.6603  0.5361 -0.5222
  597MOL0     C82276   9.741   1.188   1.544  0.1634  0.2261 -0.1094
  597MOL0     C82277   9.873   1.409   1.603  0.2472  0.0682 -0.9699
  597MOL0     C82278  10.010   1.370   1.546 -0.7319  0.1769 -0.1707
  597MOL0     O82279  10.120   1.408   1.616 -0.4424 -0.0039 -0.8959
  597MOL0     C82280  10.251   1.390   1.567  0.9848 -0.3615 -0.5428
  597MOL0     C82281  10.340   1.307   1.633  0.4647 -0.6299  0.5266
  597MOL0     C82282  10.468   1.301   1.581  0.3200  0.9155  0.5921
  597MOL0     C82283  10.510   1.363   1.458  0.3745 -0.2491  0.1584
  597MOL0     O82284  10.635   1.343   1.400  0.5777  0.3473 -0.5946
  597MOL0     C82285  10.715   1.237   1.449  0.1541 -0.4688  0.2379
  597MOL0     C82286  10.813   1.203   1.332  0.2629 -0.6336  1.1161
  597MOL0     C82287  10.893   1.078   1.367  0.6764 -0.8073 -0.3257
  597MOL0     C82288  11.011   1.079   1.272 -0.4477  0.3323  0.7727
  597MOL0     C82289  11.106   0.957   1.311 -1.0899 -1.1224 -0.3826
  597MOL0     C82290  11.182   0.977   1.447  0.2005  0.5963 -0.5155
  597MOL0     C82291  11.293   1.071   1.433  0.8387  0.8533  0.0516
  597MOL0     C82292  11.361   1.103   1.567  0.2866 -0.6003  0.5943
  597MOL0    Cl82293  11.476   0.974   1.640 -0.1116 -0.4646  0.5379
  597MOL0     C82294  10.411   1.442   1.392  0.7443 -0.1350  0.3487
  597MOL0     C82295  10.283   1.459   1.444 -0.3718 -0.5779  0.7760
  597MOL0     O82296  10.015   1.312   1.442 -0.0476  0.0806 -0.4761
  597MOL0     C82297   9.864   1.544   1.657 -0.2483 -0.1843  0.5520
  597MOL0     C82298   9.739   1.594   1.693  0.5424  0.6484 -0.0918
  597MOL0     N82299   9.271   1.903   2.064 -0.5600  0.4606  0.6326
  597MOL0     N82300   9.181   1.987   2.083 -0.6445 -0.9212 -0.3160
  597MOL0     C82301   8.574   2.867   2.319  0.3843  0.1983 -0.4647
  597MOL0     C82302   8.472   2.963   2.371  0.0845 -0.6607  0.7416
  597MOL0     C82303   8.109   3.158   2.562 -0.5452 -0.6628  0.4299
  597MOL0     C82304   8.000   3.156   2.475 -0.4131  0.8228  0.5898
  597MOL0     C82305   7.893   3.245   2.481  0.1601 -0.3631  0.6678
  597MOL0     C82306   7.877   3.325   2.593  0.4709 -0.4975  0.0099
  597MOL0     O82307   7.775   3.411   2.603  0.1439 -1.9736 -0.6822
  597MOL0     C82308   7.696   3.396   2.715  0.2044 -0.6124 -0.0922
  597MOL0     C82309   7.575   3.476   2.698  0.1531 -0.2570 -1.0679
  597MOL0     C82310   7.478   3.456   2.579 -0.5503 -0.0911 -0.1842
  597MOL0     C82311   7.521   3.503   2.433  0.4161  0.4140  0.3802
  597MOL0     C82312   7.407   3.584   2.386  0.3777  0.6558  0.6285
  597MOL0     C82313   7.321   3.657   2.344  0.6406 -0.5822 -0.2107
  597MOL0     C82314   7.978   3.310   2.692 -0.5548 -0.2015 -0.9229
  597MOL0     C82315   8.098   3.238   2.676 -0.9771 -0.0787  0.8585
  597MOL0     C82316   8.196   3.255   2.797  0.4071  0.2386 -0.2702
  597MOL0     H82317   8.200   2.788   2.295  0.7912 -0.6022 -2.1301
  597MOL0     H82318   8.365   2.629   2.195 -1.0016  0.5110 -0.0917
  597MOL0     H82319   8.755   2.673   2.319 -1.1761 -1.7255  0.5502
  597MOL0     H82320   8.792   2.780   2.182 -2.7941  1.5938  3.0413
  597MOL0     H82321   8.839   2.595   2.033  0.9533 -1.0827 -0.4712
  597MOL0     H82322   8.948   2.593   2.167 -0.0250 -0.3776 -0.4531
  597MOL0     H82323   8.696   2.420   2.175 -1.0697  0.9894  0.8230
  597MOL0     H82324   8.842   2.381   2.090 -0.3102  2.7000 -1.6713
  597MOL0     H82325   8.967   2.391   2.312 -0.3957  1.1549  3.4486
  597MOL0     H82326   8.836   2.488   2.379 -1.7207  1.4543 -1.5431
  597MOL0     H82327   8.696   2.304   2.401  0.9484  2.0467 -0.2260
  597MOL0     H82328   8.846   2.259   2.472 -0.4621  2.8066  1.2689
  597MOL0     H82329   8.735   2.077   2.322  0.4391 -1.1909 -0.2619
  597MOL0     H82330   8.774   2.181   2.186 -1.3443  1.6317  1.0907
  597MOL0     H82331   8.945   2.038   2.381 -1.0975  0.8268  0.9852
  597MOL0     H82332   9.011   2.162   2.274 -0.8855  0.5354  3.2617
  597MOL0     H82333   8.874   1.899   2.187 -0.0882 -0.2623 -1.5299
  597MOL0     H82334   8.924   2.027   2.066 -0.1025 -0.6182 -0.5021
  597MOL0     H82335   9.050   1.703   2.202  1.5213 -0.9618 -0.6477
  597MOL0     H82336   9.318   1.605   2.197  1.5705  1.6056 -0.3444
  597MOL0     H82337   9.416   1.676   2.072  0.8092 -0.6091 -1.5825
  597MOL0     H82338   9.274   1.453   2.007  0.5245  0.1095 -4.6689
  597MOL0     H82339   9.141   1.571   1.990  0.3101  4.3728  3.9250
  597MOL0     H82340   9.242   1.578   1.777  0.0764  0.2612 -0.1735
  597MOL0     H82341   9.311   1.716   1.839 -2.4241 -0.6663 -3.5069
  597MOL0     H82342   9.520   1.582   1.911 -1.9993  3.4930 -0.6536
  597MOL0     H82343   9.431   1.447   1.831 -0.9058 -0.3521 -5.6580
  597MOL0     H82344   9.536   1.344   1.610  0.5969 -1.3350 -1.2039
  597MOL0     H82345   9.834   1.160   1.493  0.9450 -1.4385  2.0795
  597MOL0     H82346   9.651   1.191   1.483  1.8407  3.6024 -2.8143
  597MOL0     H82347   9.730   1.116   1.625  0.0154  0.1787 -0.1720
  597MOL0     H82348  10.300   1.260   1.722 -1.3002 -0.8742 -0.3343
  597MOL0     H82349  10.531   1.225   1.624 -0.4986  0.5423  1.1485
  597MOL0     H82350  10.766   1.260   1.543  1.0349 -1.5400  0.0458
  597MOL0     H82351  10.661   1.142   1.457  2.8990 -2.0025  4.7795
  597MOL0     H82352  10.756   1.196   1.239  2.7239 -0.3682 -0.5224
  597MOL0     H82353  10.879   1.287   1.305  0.6589 -0.8867  1.2881
  597MOL0     H82354  10.829   0.992   1.345  1.4291 -1.1532 -1.2512
  597MOL0     H82355  10.910   1.094   1.474 -0.7878  3.2630 -0.5075
  597MOL0     H82356  11.072   1.170   1.264 -1.7281  1.5517  3.3586
  597MOL0     H82357  10.968   1.059   1.174  0.9688  2.2458 -0.3075
  597MOL0     H82358  11.055   0.861   1.306  1.3072 -2.4519 -0.8354
  597MOL0     H82359  11.175   0.943   1.227 -1.1652  2.0163 -1.1065
  597MOL0     H82360  11.216   0.878   1.478 -2.2207  0.2854  1.4640
  597MOL0     H82361  11.110   1.009   1.522 -0.6130 -1.4349 -0.3594
  597MOL0     H82362  11.240   1.161   1.398 -1.8921 -0.4596  0.5237
  597MOL0     H82363  11.361   1.043   1.352 -0.3159 -2.9332  0.2211
  597MOL0     H82364  11.283   1.130   1.639  2.8262  1.9980  2.5841
  597MOL0     H82365  11.422   1.192   1.552 -1.9720  1.1581  1.2537
  597MOL0     H82366  10.445   1.477   1.295 -0.7474  0.1217 -0.1102
  597MOL0     H82367  10.220   1.532   1.395  0.8983  2.3128  3.1262
  597MOL0     H82368   9.953   1.605   1.669 -1.8771  2.2542  1.0755
  597MOL0     H82369   9.723   1.687   1.747 -0.9307 -1.0350  2.5758
  597MOL0     H82370   8.677   2.903   2.317  1.2432 -1.8605  1.6164
  597MOL0     H82371   8.501   3.063   2.401 -0.7666  0.3991 -1.6922
  597MOL0     H82372   8.011   3.078   2.400 -2.7645  2.2825 -1.4820
  597MOL0     H82373   7.812   3.243   2.409  0.2808  1.7206  0.4231
  597MOL0     H82374   7.664   3.291   2.721  0.1032 -0.6126 -0.6386
  597MOL0     H82375   7.744   3.422   2.810 -4.3946 -3.8269  3.5753
  597MOL0     H82376   7.600   3.582   2.689 -0.7781  0.0205 -0.5135
  597MOL0     H82377   7.513   3.456   2.786 -1.1893 -0.0084 -1.9273
  597MOL0     H82378   7.456   3.350   2.564  2.4347 -0.8957  0.5031
  597MOL0     H82379   7.403   3.521   2.623  2.4919  1.6014  2.9974
  597MOL0     H82380   7.530   3.416   2.368 -0.9101  0.7403 -0.2848
  597MOL0     H82381   7.612   3.564   2.427  1.2157 -0.8375 -0.9386
  597MOL0     H82382   7.239   3.720   2.316  0.7730 -1.1041 -1.8666
  597MOL0     H82383   7.946   3.372   2.775 -1.4091  0.5459 -1.7807
  597MOL0     H82384   8.216   3.167   2.859  0.9961  0.3969 -0.2367
  597MOL0     H82385   8.289   3.279   2.747 -0.0398 -0.1876 -1.3324
  597MOL0     H82386   8.165   3.343   2.854 -1.9482  0.6401 -1.9994
  598MOL0     O82387   5.133   1.290   0.242  0.8579 -0.0142 -0.3392
  598MOL0     C82388   5.139   1.397   0.314 -0.5123 -0.3714  0.5193
  598MOL0     O82389   5.047   1.442   0.399 -0.0927 -0.1676 -0.8220
  598MOL0     C82390   4.925   1.391   0.424  0.0876  1.0183  0.3729
  598MOL0     C82391   4.815   1.432   0.352  0.1686 -0.8200  0.8838
  598MOL0     C82392   4.689   1.376   0.357 -0.3597  0.4388  0.1270
  598MOL0     C82393   4.663   1.285   0.462 -0.6188 -0.4185  0.0884
  598MOL0     O82394   4.534   1.230   0.488  0.1031  0.6442 -0.0883
  598MOL0     C82395   4.511   1.114   0.567  0.5219 -0.0294  0.6315
  598MOL0     C82396   4.377   1.032   0.542 -1.0364 -0.0865 -0.2584
  598MOL0     C82397   4.256   1.102   0.594 -0.3719  0.0420  0.5479
  598MOL0     C82398   4.163   0.995   0.635 -0.9109 -0.7978  0.0880
  598MOL0     C82399   4.021   1.046   0.624 -0.3593  0.3384 -0.0001
  598MOL0     C82400   3.973   1.164   0.705 -0.1118  0.0457  0.5529
  598MOL0     C82401   3.811   1.160   0.697  0.4115 -0.2461 -0.1363
  598MOL0     C82402   3.766   1.190   0.551  0.0426  0.2151 -0.0869
  598MOL0     N82403   3.621   1.184   0.545 -0.6865 -0.0949 -0.5250
  598MOL0     C82404   3.538   1.073   0.539  0.0500  0.0449 -0.2591
  598MOL0     C82405   3.411   1.134   0.523  0.1203 -0.6918 -0.0107
  598MOL0     C82406   3.288   1.062   0.487 -0.2284 -0.0979 -1.2818
  598MOL0     C82407   3.218   0.991   0.603  0.3306 -0.3468  0.1795
  598MOL0     C82408   3.076   0.953   0.572  1.0442  1.2336  0.1215
  598MOL0     C82409   2.998   0.923   0.695 -0.1059 -0.0688 -0.7587
  598MOL0     O82410   2.858   0.928   0.674  0.0902 -0.3073  0.5216
  598MOL0     C82411   2.766   0.911   0.786 -0.8704  0.1957 -0.3903
  598MOL0     C82412   2.645   0.963   0.768  0.2516 -0.4773 -0.5406
  598MOL0     C82413   2.554   0.964   0.869 -0.2980 -0.0803 -1.1279
  598MOL0     C82414   2.428   1.039   0.832  0.1747 -0.1924  0.4297
  598MOL0     C82415   2.573   0.889   0.995 -0.0822  0.3453 -0.4035
  598MOL0     C82416   2.478   0.883   1.099 -0.4486 -0.2024  0.4475
  598MOL0     O82417   2.351   0.919   1.074 -0.9335 -0.1515  0.2381
  598MOL0     C82418   2.262   0.895   1.177 -0.5595 -0.1005  0.5218
  598MOL0     C82419   2.219   1.003   1.254 -0.3880 -0.1668 -0.1426
  598MOL0     C82420   2.113   0.973   1.334 -0.0625  0.3201  0.6544
  598MOL0     C82421   2.073   0.843   1.357  0.4889  0.1638 -0.2789
  598MOL0     O82422   1.959   0.823   1.430  0.1000 -0.1638 -0.5685
  598MOL0     C82423   1.830   0.814   1.357  0.4540 -0.3819  0.7452
  598MOL0     C82424   1.725   0.731   1.433 -0.6217 -0.2986  0.1782
  598MOL0     C82425   1.607   0.698   1.348 -0.0693  0.0295  0.0691
  598MOL0     C82426   1.511   0.600   1.420  0.5648 -0.3127 -0.1634
  598MOL0     C82427   1.394   0.548   1.326 -0.3420 -0.0013 -0.5942
  598MOL0     C82428   1.272   0.640   1.333 -0.7399  0.3670  0.5954
  598MOL0     C82429   1.170   0.599   1.222 -0.0041 -0.7199 -0.6268
  598MOL0     C82430   1.214   0.646   1.078 -0.0557 -0.0180 -0.6089
  598MOL0    Cl82431   1.108   0.599   0.947 -0.3997 -0.3143  0.6003
  598MOL0     C82432   2.122   0.732   1.290  0.6667  0.1694 -0.6479
  598MOL0     C82433   2.220   0.764   1.198  0.3171 -0.2849 -0.5116
  598MOL0     O82434   2.530   0.864   1.211 -0.5785  0.1387  1.0318
  598MOL0     C82435   2.699   0.835   1.009 -0.1493 -0.3503  0.1509
  598MOL0     C82436   2.795   0.851   0.909 -0.7999  0.0361  0.7918
  598MOL0     N82437   3.422   1.270   0.547 -0.6720 -0.5623  0.5002
  598MOL0     N82438   3.550   1.297   0.560 -0.0949 -0.0546  0.0159
  598MOL0     C82439   4.776   1.254   0.545 -0.2010 -0.2065 -0.6300
  598MOL0     C82440   4.900   1.299   0.527 -0.8817 -0.8387 -0.2492
  598MOL0     C82441   5.250   1.487   0.276 -0.4086  1.0540  0.1516
  598MOL0     C82442   5.222   1.627   0.274 -0.3862 -0.2906 -0.4318
  598MOL0     C82443   5.332   1.712   0.238 -0.1901 -1.0755  0.0203
  598MOL0     C82444   5.466   1.665   0.206  0.1499 -0.5025 -0.6067
  598MOL0     O82445   5.571   1.748   0.174 -0.5230  0.5897 -0.2394
  598MOL0     C82446   5.563   1.891   0.189 -0.3278  0.5345  1.0953
  598MOL0     C82447   5.555   1.925   0.334 -0.2938  0.1162 -0.0358
  598MOL0     C82448   5.559   2.073   0.356 -0.6135 -0.0829 -0.6613
  598MOL0     C82449   5.482   2.167   0.253 -0.6567  0.1222 -0.1361
  598MOL0     C82450   5.512   2.303   0.307  0.4293  0.2163 -0.5750
  598MOL0     C82451   5.537   2.415   0.350  0.2619  0.4712  0.4823
  598MOL0     C82452   5.482   1.532   0.204  0.1851  0.3178 -0.2693
  598MOL0     C82453   5.386   1.440   0.247  0.3519 -0.1824 -0.2851
  598MOL0     C82454   5.415   1.293   0.260  0.6276  0.9355 -0.2598
  598MOL0     H82455   4.821   1.515   0.282 -1.7732  0.0753  1.6776
  598MOL0     H82456   4.623   1.391   0.272 -2.3246  0.4531  1.5876
  598MOL0     H82457   4.512   1.140   0.674  2.1020  0.3817  0.5567
  598MOL0     H82458   4.600   1.052   0.548  0.4580  0.4699 -1.5827
  598MOL0     H82459   4.367   1.028   0.433 -1.7072 -0.8379 -0.1774
  598MOL0     H82460   4.396   0.931   0.578  2.3299 -0.1795 -1.9020
  598MOL0     H82461   4.284   1.165   0.679  0.2897 -0.2580  0.5562
  598MOL0     H82462   4.216   1.178   0.526  1.3316  1.0569  0.6111
  598MOL0     H82463   4.187   0.901   0.585  2.2102 -1.1172  1.8769
  598MOL0     H82464   4.183   0.966   0.739  5.0823 -1.0487 -0.7617
  598MOL0     H82465   3.957   0.960   0.649  0.1158  0.4143  1.6261
  598MOL0     H82466   4.011   1.067   0.518  0.2611  2.4165  0.3160
  598MOL0     H82467   3.990   1.141   0.810 -2.6118 -1.7946  0.6359
  598MOL0     H82468   4.010   1.264   0.677 -0.1375 -0.4045 -1.2159
  598MOL0     H82469   3.770   1.242   0.756 -1.1907  0.0413 -1.5899
  598MOL0     H82470   3.771   1.066   0.736 -2.1401  2.7568  5.6676
  598MOL0     H82471   3.807   1.289   0.530  0.4567  0.3349  1.1712
  598MOL0     H82472   3.799   1.113   0.481 -1.1238 -0.2747 -0.1280
  598MOL0     H82473   3.564   0.969   0.523 -0.7519 -0.1305 -0.4466
  598MOL0     H82474   3.318   1.000   0.401 -1.0000  0.0108 -1.6393
  598MOL0     H82475   3.223   1.138   0.443 -0.0617 -0.3227 -1.9237
  598MOL0     H82476   3.281   0.906   0.634  0.5189 -0.1791  0.2572
  598MOL0     H82477   3.225   1.055   0.691 -0.3205 -1.9632  1.4689
  598MOL0     H82478   3.029   1.042   0.530  0.2525  1.6609  1.8422
  598MOL0     H82479   3.070   0.869   0.502 -0.1448  1.5428 -0.1629
  598MOL0     H82480   3.018   0.819   0.721 -1.2652 -0.4258 -1.2324
  598MOL0     H82481   3.027   0.985   0.780 -0.8149 -0.2156 -0.4086
  598MOL0     H82482   2.624   1.022   0.679  2.8054  2.0663  0.4112
  598MOL0     H82483   2.421   1.052   0.724 -1.5183 -1.7756  0.2991
  598MOL0     H82484   2.423   1.135   0.883  0.0985  0.6462 -1.1113
  598MOL0     H82485   2.332   0.992   0.854 -1.4110  2.2501 -0.8724
  598MOL0     H82486   2.248   1.104   1.229 -1.5727  0.0053 -0.9023
  598MOL0     H82487   2.043   1.037   1.387 -1.4638 -2.3313  2.1566
  598MOL0     H82488   1.782   0.909   1.334 -1.1770 -1.5310 -0.8149
  598MOL0     H82489   1.844   0.756   1.266  2.0753 -0.3204  0.9308
  598MOL0     H82490   1.768   0.635   1.465 -1.1863 -0.1553  1.4215
  598MOL0     H82491   1.691   0.779   1.525 -0.5659 -1.9153  1.0929
  598MOL0     H82492   1.642   0.656   1.253 -2.7202  0.7145 -1.3114
  598MOL0     H82493   1.544   0.783   1.320 -0.8855 -1.2620 -2.3342
  598MOL0     H82494   1.470   0.652   1.507 -2.6353 -1.3231 -0.9262
  598MOL0     H82495   1.575   0.516   1.449  1.6782  0.2777 -0.8521
  598MOL0     H82496   1.423   0.530   1.222 -3.9107 -1.2627 -1.5055
  598MOL0     H82497   1.367   0.449   1.361  1.3803 -0.1029  0.5993
  598MOL0     H82498   1.303   0.744   1.321 -0.5341  0.4203  1.5577
  598MOL0     H82499   1.230   0.641   1.433  0.8630 -0.7574  1.3291
  598MOL0     H82500   1.073   0.647   1.236 -0.3690 -0.9220 -2.3314
  598MOL0     H82501   1.153   0.492   1.235 -1.7993 -0.2458  1.6771
  598MOL0     H82502   1.314   0.611   1.051 -0.6414 -4.0610  1.6983
  598MOL0     H82503   1.233   0.754   1.079  0.2656 -0.0741 -0.3483
  598MOL0     H82504   2.078   0.633   1.304 -0.5855  0.8976  0.8372
  598MOL0     H82505   2.273   0.684   1.147  0.5219  0.6917 -1.8942
  598MOL0     H82506   2.720   0.778   1.099 -2.7610 -1.6458  0.0422
  598MOL0     H82507   2.894   0.816   0.937 -0.2651  0.8981  0.0232
  598MOL0     H82508   4.758   1.184   0.626 -1.5279 -0.4947 -1.1576
  598MOL0     H82509   4.981   1.258   0.586 -0.3952 -2.8147 -2.1437
  598MOL0     H82510   5.130   1.679   0.302  1.2218  2.6842 -0.2993
  598MOL0     H82511   5.320   1.820   0.245 -1.4677 -0.9119 -2.9329
  598MOL0     H82512   5.657   1.921   0.143 -0.1916 -2.1457 -0.5652
  598MOL0     H82513   5.473   1.915   0.132  0.5105 -0.3453 -0.6821
  598MOL0     H82514   5.640   1.882   0.387 -1.2572  2.1909  3.5200
  598MOL0     H82515   5.466   1.879   0.379  1.1239 -0.0546  2.7651
  598MOL0     H82516   5.529   2.090   0.459  1.4096  1.6730 -0.2721
  598MOL0     H82517   5.662   2.109   0.342 -1.0816  1.1951 -0.9553
  598MOL0     H82518   5.373   2.157   0.257 -0.7249  1.1484  1.6411
  598MOL0     H82519   5.519   2.150   0.152 -0.3632  0.1047 -0.0258
  598MOL0     H82520   5.565   2.516   0.375  0.0302  0.6288  0.1108
  598MOL0     H82521   5.581   1.496   0.177  0.3820  2.2888 -2.5327
  598MOL0     H82522   5.520   1.264   0.271 -0.6095 -4.2290  0.2419
  598MOL0     H82523   5.368   1.244   0.345  1.7575 -1.6658 -1.0435
  598MOL0     H82524   5.390   1.247   0.164  0.2066  1.7055 -0.5262
  599MOL0     O82525  10.307   8.103   7.375 -0.0609 -0.2066  0.4441
  599MOL0     C82526  10.350   8.219   7.394 -0.0596  0.9399 -0.0452
  599MOL0     O82527  10.293   8.334   7.344 -0.0379 -0.8376  0.0624
  599MOL0     C82528  10.151   8.347   7.316 -1.0163 -0.2112 -0.3113
  599MOL0     C82529  10.101   8.452   7.241 -0.5044 -0.0039 -0.8940
  599MOL0     C82530   9.966   8.465   7.210 -0.7441 -0.2590  0.2264
  599MOL0     C82531   9.873   8.370   7.248 -0.5632  0.2105 -0.0426
  599MOL0     O82532   9.741   8.377   7.204 -0.0826  0.8565 -0.2882
  599MOL0     C82533   9.701   8.460   7.102 -0.2236  0.4613 -0.3248
  599MOL0     C82534   9.639   8.584   7.163 -0.2329 -0.4181  1.6258
  599MOL0     C82535   9.535   8.545   7.273  0.1264 -0.4439  0.5778
  599MOL0     C82536   9.470   8.667   7.344  0.2145  0.0958  0.1620
  599MOL0     C82537   9.350   8.625   7.432  0.3486  0.2204 -0.8852
  599MOL0     C82538   9.246   8.727   7.477  0.2428 -0.0951 -0.1580
  599MOL0     C82539   9.142   8.666   7.569  1.0547 -0.7836 -0.2792
  599MOL0     C82540   9.195   8.622   7.710 -0.0159  0.1881  0.4372
  599MOL0     N82541   9.075   8.589   7.795  0.1409  1.0143  0.5634
  599MOL0     C82542   9.043   8.462   7.839  0.1508 -0.1879 -0.2450
  599MOL0     C82543   8.922   8.468   7.908  0.8145  0.4405 -0.7804
  599MOL0     C82544   8.858   8.355   7.990 -0.8791 -0.4387  0.9805
  599MOL0     C82545   8.755   8.294   7.890  0.6184  0.9152  0.8686
  599MOL0     C82546   8.686   8.184   7.963  1.3377 -0.4471  0.5350
  599MOL0     C82547   8.556   8.145   7.899  0.6449  0.1059  0.4982
  599MOL0     O82548   8.509   8.041   7.993  0.7110 -0.4901  0.5406
  599MOL0     C82549   8.385   7.977   7.980 -0.4505 -0.8044  0.4328
  599MOL0     C82550   8.340   7.899   8.080 -0.6952 -0.1735  0.1134
  599MOL0     C82551   8.215   7.846   8.084 -0.8563 -0.3657  0.1341
  599MOL0     C82552   8.192   7.759   8.212 -0.1854  0.5290  0.8511
  599MOL0     C82553   8.132   7.850   7.960  0.0999  0.0566 -0.7265
  599MOL0     C82554   7.993   7.788   7.938  0.0119  0.1680 -0.1102
  599MOL0     O82555   7.939   7.791   7.809 -0.2467 -0.3458 -0.3246
  599MOL0     C82556   7.807   7.756   7.790 -0.1927  1.3740  0.3432
  599MOL0     C82557   7.721   7.851   7.771  0.0731  0.5529  0.4195
  599MOL0     C82558   7.586   7.811   7.754  1.2838 -0.3087 -0.0574
  599MOL0     C82559   7.535   7.686   7.759 -0.3926  0.9558 -0.0649
  599MOL0     O82560   7.402   7.664   7.759  0.1547 -0.3145  0.3406
  599MOL0     C82561   7.330   7.740   7.663  0.3127  0.5114 -0.6472
  599MOL0     C82562   7.203   7.674   7.617  0.0814 -0.3362  0.6525
  599MOL0     C82563   7.218   7.591   7.481 -1.3633 -0.4987  0.8177
  599MOL0     C82564   7.300   7.468   7.521 -0.0764  0.5783  0.5409
  599MOL0     C82565   7.313   7.367   7.411  0.8905 -0.0115  0.2551
  599MOL0     C82566   7.384   7.241   7.436 -0.2332  0.2777 -0.1030
  599MOL0     C82567   7.508   7.267   7.527 -0.0003 -0.1062  0.4324
  599MOL0     C82568   7.608   7.153   7.531 -0.2179  0.3872  0.2082
  599MOL0    Cl82569   7.544   7.001   7.588 -0.1147  0.2133 -0.1425
  599MOL0     C82570   7.637   7.591   7.775 -0.8633  0.1927 -1.2091
  599MOL0     C82571   7.768   7.622   7.795  0.2214 -0.2443 -0.0695
  599MOL0     O82572   7.935   7.738   8.031 -0.3475  0.8830 -0.3236
  599MOL0     C82573   8.189   7.910   7.843  1.0484  0.0291 -0.5309
  599MOL0     C82574   8.315   7.968   7.854 -0.0780 -0.5750  0.2713
  599MOL0     N82575   8.874   8.599   7.894 -0.7560 -0.2294  1.0671
  599MOL0     N82576   8.965   8.663   7.822  0.5596 -0.1194  0.7773
  599MOL0     C82577   9.916   8.266   7.321 -0.5881  0.4406  0.3775
  599MOL0     C82578  10.048   8.259   7.361  0.0070 -0.0822  0.0710
  599MOL0     C82579  10.486   8.231   7.459  0.7319 -0.0159 -1.0711
  599MOL0     C82580  10.558   8.350   7.430 -0.0027 -0.5381  0.4147
  599MOL0     C82581  10.682   8.375   7.465  0.4832 -0.1724 -0.1794
  599MOL0     C82582  10.742   8.293   7.552 -0.2073  0.7212  0.9114
  599MOL0     O82583  10.874   8.300   7.592  0.0863 -0.4160  0.2889
  599MOL0     C82584  10.968   8.403   7.537 -0.8521 -0.4218  0.5621
  599MOL0     C82585  11.011   8.374   7.389  0.8516  0.3510 -0.0921
  599MOL0     C82586  11.095   8.486   7.337 -0.9282 -0.6911  0.6175
  599MOL0     C82587  11.114   8.492   7.180  0.1662 -0.2205  0.8624
  599MOL0     C82588  11.198   8.380   7.134  0.3455  0.1625  0.1148
  599MOL0     C82589  11.260   8.286   7.073  0.9255 -0.4222 -0.0882
  599MOL0     C82590  10.682   8.175   7.581  0.3383  0.5163 -0.0300
  599MOL0     C82591  10.554   8.137   7.540  0.1598  0.5595  0.4962
  599MOL0     C82592  10.505   8.003   7.579  0.5178 -0.2594  0.5580
  599MOL0     H82593  10.162   8.534   7.206  0.1402  1.5763  3.2828
  599MOL0     H82594   9.942   8.551   7.149 -0.2855  0.5442  1.1455
  599MOL0     H82595   9.616   8.412   7.051 -0.3772  1.5641 -1.1484
  599MOL0     H82596   9.780   8.475   7.028  0.2914 -1.3664 -0.2062
  599MOL0     H82597   9.712   8.657   7.200 -0.2284 -0.3806  1.5425
  599MOL0     H82598   9.602   8.639   7.076 -1.4440 -1.3911  1.5062
  599MOL0     H82599   9.452   8.488   7.231 -2.3592  3.2736 -0.0285
  599MOL0     H82600   9.588   8.484   7.347 -0.6863 -2.8852 -0.7360
  599MOL0     H82601   9.553   8.703   7.406  1.0541 -4.9048  2.4589
  599MOL0     H82602   9.429   8.733   7.267  0.9059  2.2378  1.5449
  599MOL0     H82603   9.399   8.581   7.520  1.8167 -1.1951 -2.3380
  599MOL0     H82604   9.294   8.544   7.384  0.6335 -1.7139  1.8305
  599MOL0     H82605   9.303   8.806   7.526  0.4931  0.5486 -1.4400
  599MOL0     H82606   9.187   8.761   7.392 -1.5258 -1.9385  0.2456
  599MOL0     H82607   9.090   8.580   7.526  0.5533 -0.8713  0.4823
  599MOL0     H82608   9.059   8.734   7.587  0.4825 -1.1777 -1.3248
  599MOL0     H82609   9.267   8.540   7.716  2.5145  2.3035  0.8295
  599MOL0     H82610   9.261   8.702   7.744  0.7159 -0.4461  0.5390
  599MOL0     H82611   9.109   8.376   7.834  2.7242  1.7186 -0.6681
  599MOL0     H82612   8.814   8.381   8.086 -1.9898  0.7658  0.1751
  599MOL0     H82613   8.936   8.281   8.011 -0.1745  0.1792  0.5791
  599MOL0     H82614   8.679   8.364   7.854  1.9483  0.6898 -2.8588
  599MOL0     H82615   8.804   8.250   7.802 -0.9829 -0.2606  0.5157
  599MOL0     H82616   8.758   8.102   7.966  2.0515  0.0485 -1.3740
  599MOL0     H82617   8.662   8.222   8.063 -4.3008  1.7910 -1.2864
  599MOL0     H82618   8.484   8.228   7.901 -1.9061 -1.9350 -0.3525
  599MOL0     H82619   8.562   8.117   7.794 -2.6709  0.6478  0.0517
  599MOL0     H82620   8.386   7.881   8.177 -1.6752  2.1014  1.0811
  599MOL0     H82621   8.160   7.821   8.295 -2.7315 -0.3250  0.6019
  599MOL0     H82622   8.280   7.700   8.240 -0.9687 -0.4713  1.2646
  599MOL0     H82623   8.115   7.685   8.190  0.1335 -0.0754  1.6947
  599MOL0     H82624   7.758   7.953   7.763  1.1222  0.0274 -3.9335
  599MOL0     H82625   7.513   7.891   7.745  1.6776  0.0812  0.1825
  599MOL0     H82626   7.291   7.837   7.696 -0.3741  1.1350 -3.1088
  599MOL0     H82627   7.396   7.757   7.577  1.7353 -1.0704  0.0553
  599MOL0     H82628   7.157   7.615   7.697  2.9140 -0.9404  1.9510
  599MOL0     H82629   7.128   7.749   7.589 -0.5287 -1.2549 -0.2201
  599MOL0     H82630   7.281   7.648   7.413 -1.3908 -1.9340 -0.4675
  599MOL0     H82631   7.122   7.568   7.435 -1.3352  0.5996  0.1831
  599MOL0     H82632   7.246   7.430   7.609 -0.9680  4.2288  1.7229
  599MOL0     H82633   7.400   7.495   7.555  0.7595  1.0372 -2.0783
  599MOL0     H82634   7.209   7.336   7.397  0.4807  0.8994  1.1651
  599MOL0     H82635   7.339   7.422   7.320 -2.2172 -2.3580 -2.2935
  599MOL0     H82636   7.419   7.192   7.344  0.8882 -2.3269  1.5831
  599MOL0     H82637   7.339   7.154   7.485 -0.6389 -0.5394 -1.8460
  599MOL0     H82638   7.470   7.289   7.627  2.5903 -1.2451  1.7736
  599MOL0     H82639   7.555   7.357   7.487 -0.1769 -0.6791 -1.1789
  599MOL0     H82640   7.682   7.189   7.603  0.3500  1.3029 -0.8044
  599MOL0     H82641   7.657   7.130   7.435  0.6416 -1.6299  1.0626
  599MOL0     H82642   7.603   7.489   7.791  0.0075  0.0757  0.1138
  599MOL0     H82643   7.835   7.540   7.819  0.3362 -0.4785 -1.1271
  599MOL0     H82644   8.143   7.930   7.747  2.7700  3.7674 -0.7625
  599MOL0     H82645   8.350   8.018   7.764 -2.1961 -0.4294 -0.5361
  599MOL0     H82646   9.844   8.187   7.343  1.9293 -1.3771  2.8842
  599MOL0     H82647  10.078   8.181   7.430  0.3654  0.7346  0.8558
  599MOL0     H82648  10.504   8.421   7.368 -2.5670 -5.0566 -3.1783
  599MOL0     H82649  10.739   8.462   7.434 -0.5419 -0.1835 -2.3022
  599MOL0     H82650  10.918   8.497   7.512 -2.1425 -1.2940 -0.3144
  599MOL0     H82651  11.053   8.417   7.603 -1.5415  0.7092  1.2399
  599MOL0     H82652  10.918   8.366   7.333 -0.9773 -0.7023  2.8638
  599MOL0     H82653  11.066   8.279   7.386  0.2738  0.0116 -0.0482
  599MOL0     H82654  11.049   8.581   7.366  1.7433  0.4912  1.2319
  599MOL0     H82655  11.195   8.479   7.379 -0.5730 -0.2511 -0.1355
  599MOL0     H82656  11.148   8.590   7.146  1.6950 -1.3620 -1.0814
  599MOL0     H82657  11.018   8.480   7.129  0.7678  0.8795 -0.5959
  599MOL0     H82658  11.318   8.217   7.017  1.0444  0.8363 -1.5856
  599MOL0     H82659  10.728   8.107   7.651 -0.4987 -0.0643 -0.0298
  599MOL0     H82660  10.425   8.013   7.653  0.8377 -0.7987  0.9859
  599MOL0     H82661  10.461   7.958   7.490  0.0787  3.1476 -1.1234
  599MOL0     H82662  10.590   7.944   7.614  2.3048  1.3936 -0.7496
  600MOL0     O82663  10.921   1.618   7.065  0.0460  0.1990  0.2390
  600MOL0     C82664  11.014   1.565   7.123  0.5539 -0.3873 -0.7080
  600MOL0     O82665  11.001   1.459   7.206 -0.1511 -0.3256  0.3252
  600MOL0     C82666  10.874   1.403   7.230  0.4113 -0.4654  0.8504
  600MOL0     C82667  10.831   1.285   7.171  1.1269 -0.7572  0.2870
  600MOL0     C82668  10.704   1.233   7.206  1.1363  0.9999  0.3003
  600MOL0     C82669  10.634   1.279   7.315 -0.3055 -0.7894 -0.1878
  600MOL0     O82670  10.530   1.210   7.366 -0.0877 -0.2174 -0.6780
  600MOL0     C82671  10.403   1.277   7.356 -0.2838  0.2623 -0.0226
  600MOL0     C82672  10.292   1.189   7.390  0.6406 -0.2483  0.8267
  600MOL0     C82673  10.154   1.245   7.362  0.2873 -0.2492 -0.6403
  600MOL0     C82674  10.043   1.147   7.401  0.1943  0.0396  0.1053
  600MOL0     C82675   9.907   1.211   7.354 -0.0430  0.2134  0.1243
  600MOL0     C82676   9.780   1.146   7.407 -0.1882 -0.3879  0.1266
  600MOL0     C82677   9.759   1.136   7.565  0.4587  0.2226 -0.6036
  600MOL0     C82678   9.630   1.063   7.606  0.1575 -0.0714 -0.9928
  600MOL0     N82679   9.511   1.121   7.539 -0.4149 -0.1345 -0.2248
  600MOL0     C82680   9.469   1.248   7.569 -0.4022 -0.2849 -0.5674
  600MOL0     C82681   9.333   1.248   7.548  0.4024  0.2078 -0.3566
  600MOL0     C82682   9.233   1.366   7.558  0.6186  0.5599  0.5080
  600MOL0     C82683   9.233   1.457   7.434  0.1699  0.2523  0.4325
  600MOL0     C82684   9.124   1.561   7.448  0.3609 -0.6350 -0.3177
  600MOL0     C82685   9.087   1.648   7.327 -0.4015 -0.2194 -0.8215
  600MOL0     O82686   9.058   1.560   7.218 -0.0034  0.4372  0.2763
  600MOL0     C82687   8.982   1.590   7.112  0.1917 -0.3409 -0.1087
  600MOL0     C82688   8.933   1.492   7.030 -0.1166  0.3923 -0.3778
  600MOL0     C82689   8.857   1.524   6.910 -0.7645 -0.6346  0.3478
  600MOL0     C82690   8.835   1.412   6.812 -0.2681  0.6496  0.2170
  600MOL0     C82691   8.829   1.666   6.891 -0.1910 -0.1708  0.2381
  600MOL0     C82692   8.760   1.722   6.775 -0.4493  1.1563 -0.0161
  600MOL0     O82693   8.803   1.841   6.744  0.1023  0.2177  0.1343
  600MOL0     C82694   8.768   1.889   6.620 -0.3795 -0.6482 -0.1622
  600MOL0     C82695   8.786   2.021   6.599 -0.5775  0.1033 -0.2117
  600MOL0     C82696   8.737   2.080   6.491  0.2881  0.5243  0.1347
  600MOL0     C82697   8.687   2.013   6.381  0.1907  0.3992  0.5775
  600MOL0     O82698   8.658   2.067   6.259  0.8820  0.1428 -0.4195
  600MOL0     C82699   8.777   2.108   6.192 -0.1416 -1.4857 -0.4402
  600MOL0     C82700   8.716   2.173   6.067 -0.0190  0.2992 -0.8535
  600MOL0     C82701   8.817   2.258   5.991 -0.1934  0.8329 -0.1134
  600MOL0     C82702   8.919   2.173   5.911  0.9957  0.2316  0.0513
  600MOL0     C82703   8.986   2.270   5.824 -0.7786 -0.3644 -0.6771
  600MOL0     C82704   9.105   2.202   5.757 -0.4596  0.5671 -0.5345
  600MOL0     C82705   9.179   2.293   5.660  0.3120 -0.0359 -0.3304
  600MOL0     C82706   9.229   2.425   5.733 -0.7579  0.7326 -0.4113
  600MOL0    Cl82707   9.304   2.391   5.896 -0.0498 -0.2275 -0.2030
  600MOL0     C82708   8.690   1.874   6.390 -0.4579 -1.0109  0.2927
  600MOL0     C82709   8.733   1.820   6.502  1.1136  0.5841 -0.0187
  600MOL0     O82710   8.665   1.671   6.720  0.5984 -0.1819  0.1857
  600MOL0     C82711   8.864   1.761   6.991  0.7871 -0.3510 -0.2602
  600MOL0     C82712   8.937   1.724   7.098 -0.0645  0.0180 -0.2390
  600MOL0     N82713   9.301   1.120   7.507 -1.2670  0.4431  0.3155
  600MOL0     N82714   9.405   1.048   7.492  0.8478  0.4923  0.8391
  600MOL0     C82715  10.680   1.396   7.379  0.5638  0.2096  1.1033
  600MOL0     C82716  10.790   1.463   7.331  0.6479  0.2655 -0.2925
  600MOL0     C82717  11.130   1.648   7.128 -0.0293  0.9634  0.3400
  600MOL0     C82718  11.234   1.604   7.217 -0.5008 -0.0758 -0.3723
  600MOL0     C82719  11.341   1.691   7.239 -0.3607 -1.5638  0.9779
  600MOL0     C82720  11.353   1.809   7.171  0.1079 -0.1240 -0.2609
  600MOL0     O82721  11.463   1.885   7.202 -0.0075 -0.0131 -0.6076
  600MOL0     C82722  11.509   1.989   7.119 -0.0366  0.4540  0.4031
  600MOL0     C82723  11.596   2.093   7.184  1.5817 -0.0411 -0.0336
  600MOL0     C82724  11.526   2.235   7.179 -0.4559  0.4952  0.3972
  600MOL0     C82725  11.402   2.251   7.268  0.0914 -0.1369  0.6823
  600MOL0     C82726  11.281   2.206   7.204  0.4447  0.1997 -0.1488
  600MOL0     C82727  11.199   2.156   7.130  0.4492 -0.3479 -0.7350
  600MOL0     C82728  11.272   1.826   7.055 -0.6296 -0.0785 -0.2368
  600MOL0     C82729  11.166   1.741   7.032 -0.9137 -0.5777  0.4131
  600MOL0     C82730  11.094   1.775   6.904 -0.1331 -0.0321  0.3897
  600MOL0     H82731  10.884   1.234   7.091  2.1330 -2.9200  2.2306
  600MOL0     H82732  10.658   1.153   7.147  1.5411 -0.6161  2.0796
  600MOL0     H82733  10.406   1.318   7.254 -1.2462  0.4468  0.0145
  600MOL0     H82734  10.408   1.355   7.432 -1.5913 -0.3416  0.7045
  600MOL0     H82735  10.300   1.098   7.329 -0.2941  0.4532 -0.3869
  600MOL0     H82736  10.301   1.141   7.488  0.7749 -0.1790  0.8487
  600MOL0     H82737  10.132   1.336   7.419 -1.0221 -0.5500 -0.6179
  600MOL0     H82738  10.160   1.281   7.259  0.1480  1.9343  0.0531
  600MOL0     H82739  10.062   1.047   7.360 -1.2723  0.3204 -1.4075
  600MOL0     H82740  10.039   1.133   7.509  2.3819 -0.3383  0.1748
  600MOL0     H82741   9.903   1.185   7.248  1.2734  0.6122 -0.0376
  600MOL0     H82742   9.906   1.318   7.375  1.0909  0.0150  1.3244
  600MOL0     H82743   9.700   1.199   7.354  1.7938  0.5211 -2.1548
  600MOL0     H82744   9.782   1.039   7.385 -2.0093 -0.6251  0.9172
  600MOL0     H82745   9.753   1.236   7.609  0.7371 -1.1792  2.9963
  600MOL0     H82746   9.838   1.080   7.616 -0.2419 -1.2001 -1.0319
  600MOL0     H82747   9.656   0.960   7.577  0.6062 -0.0786 -0.5873
  600MOL0     H82748   9.612   1.065   7.714 -0.7866 -1.5328 -1.0887
  600MOL0     H82749   9.525   1.334   7.606 -4.5903  1.1110  3.6265
  600MOL0     H82750   9.244   1.417   7.654 -1.7956  0.3546  0.9430
  600MOL0     H82751   9.131   1.330   7.570  0.5896  0.3484 -0.2738
  600MOL0     H82752   9.329   1.505   7.417  1.0337 -1.8926 -1.2312
  600MOL0     H82753   9.215   1.394   7.347 -0.6958  0.7880  0.2114
  600MOL0     H82754   9.033   1.502   7.464 -0.2779  0.6235  0.9547
  600MOL0     H82755   9.141   1.627   7.534  0.4747 -0.0466 -0.7847
  600MOL0     H82756   8.998   1.706   7.353 -0.3865 -0.4261 -0.2835
  600MOL0     H82757   9.169   1.706   7.283 -0.5307  0.2486 -0.4558
  600MOL0     H82758   8.983   1.396   7.035 -0.1985  0.1082 -3.3754
  600MOL0     H82759   8.923   1.347   6.811 -0.0561  0.9232 -0.5665
  600MOL0     H82760   8.819   1.446   6.709 -0.5347 -0.5937 -0.1701
  600MOL0     H82761   8.739   1.368   6.839  0.0805 -1.4080 -1.6077
  600MOL0     H82762   8.808   2.082   6.686  1.5902  0.6809 -1.1115
  600MOL0     H82763   8.748   2.187   6.476  2.0048  0.5138  1.1023
  600MOL0     H82764   8.840   2.178   6.248 -0.8518 -0.2289 -1.1528
  600MOL0     H82765   8.850   2.031   6.166  4.1045  2.3540 -1.3656
  600MOL0     H82766   8.678   2.085   6.014  0.9228  0.0820 -1.1719
  600MOL0     H82767   8.635   2.243   6.091 -0.4457  0.6871 -3.2074
  600MOL0     H82768   8.875   2.319   6.061  1.5556  2.2760 -2.6192
  600MOL0     H82769   8.773   2.337   5.929  1.8706  1.5368 -0.7766
  600MOL0     H82770   8.874   2.093   5.851 -3.8955  1.4409  1.5963
  600MOL0     H82771   8.990   2.125   5.979 -2.3996 -0.3438  3.5931
  600MOL0     H82772   8.912   2.308   5.753 -0.0778  2.0474 -0.2194
  600MOL0     H82773   9.023   2.357   5.880 -0.7073 -1.2075  0.6156
  600MOL0     H82774   9.081   2.107   5.708  3.8546 -0.3709 -1.2110
  600MOL0     H82775   9.181   2.165   5.827 -0.0657  0.3242 -1.0812
  600MOL0     H82776   9.114   2.314   5.575 -2.9621 -0.0120  1.9911
  600MOL0     H82777   9.264   2.235   5.622  1.6746  1.2859  0.5461
  600MOL0     H82778   9.142   2.491   5.747 -1.8027 -0.9119  1.2289
  600MOL0     H82779   9.296   2.478   5.664  2.4489 -1.9070  0.4372
  600MOL0     H82780   8.669   1.808   6.305  0.1815 -2.2928  1.1001
  600MOL0     H82781   8.729   1.712   6.491 -1.2857  0.6360 -0.1897
  600MOL0     H82782   8.840   1.867   7.000  3.9317  0.4241  0.1467
  600MOL0     H82783   8.979   1.800   7.163  0.3041 -1.6001  1.5014
  600MOL0     H82784  10.628   1.443   7.462  1.2463 -2.1400  2.9945
  600MOL0     H82785  10.820   1.557   7.377 -0.7278  0.1289  0.9469
  600MOL0     H82786  11.218   1.516   7.278 -2.2351  2.1293  2.6448
  600MOL0     H82787  11.417   1.665   7.312  0.5392 -2.1845 -0.1417
  600MOL0     H82788  11.558   1.926   7.045  0.1240  2.0295 -0.8685
  600MOL0     H82789  11.428   2.048   7.077 -0.7226  1.2512  2.6703
  600MOL0     H82790  11.693   2.095   7.133  0.7595  1.2480 -1.6624
  600MOL0     H82791  11.610   2.072   7.290 -0.7927  3.2968  1.1350
  600MOL0     H82792  11.596   2.305   7.225  1.1986 -0.3033 -0.7858
  600MOL0     H82793  11.521   2.270   7.075 -0.5947 -1.9839 -0.5199
  600MOL0     H82794  11.395   2.360   7.276  0.9121  0.1955 -2.1712
  600MOL0     H82795  11.422   2.206   7.366 -0.7347  3.3443  2.6518
  600MOL0     H82796  11.129   2.112   7.061 -0.7183 -2.0224  1.3662
  600MOL0     H82797  11.299   1.907   6.988 -0.5847 -0.9375 -1.2836
  600MOL0     H82798  11.096   1.684   6.844  2.8420 -1.1207  1.9686
  600MOL0     H82799  10.991   1.810   6.919  0.7336  2.6229  0.6484
  600MOL0     H82800  11.148   1.851   6.846 -1.4678  1.5769  1.1501
  601MOL0     O82801  10.284  11.042   5.454 -0.4868 -0.2465  0.9340
  601MOL0     C82802  10.237  10.998   5.559 -0.1268 -0.0811  0.1120
  601MOL0     O82803  10.153  11.066   5.645  0.1564 -0.3534  0.2388
  601MOL0     C82804  10.110  11.194   5.605  0.1753 -0.1255  0.3560
  601MOL0     C82805  10.135  11.301   5.702  0.6813 -0.7710 -0.2108
  601MOL0     C82806  10.078  11.432   5.681 -0.0828  0.0078 -0.4215
  601MOL0     C82807  10.032  11.461   5.555 -0.3638 -0.0792 -0.2660
  601MOL0     O82808   9.991  11.587   5.523 -0.0739  0.1938 -0.4315
  601MOL0     C82809  10.001  11.643   5.395 -0.0771  0.2868 -0.0928
  601MOL0     C82810  10.023  11.792   5.424  0.2893 -0.2224  0.7539
  601MOL0     C82811  10.169  11.807   5.471  0.1172  0.5524  0.9808
  601MOL0     C82812  10.219  11.958   5.453 -1.1550  0.8476  0.2742
  601MOL0     C82813  10.238  11.988   5.305 -0.0163  0.1600 -0.6572
  601MOL0     C82814  10.318  12.119   5.276  0.5387  0.5001 -0.2199
  601MOL0     C82815  10.236  12.244   5.324 -0.8179 -0.1270  0.2203
  601MOL0     C82816  10.285  12.368   5.235 -0.7193  1.4406 -0.1984
  601MOL0     N82817  10.431  12.398   5.254 -0.7966 -0.2160  0.5261
  601MOL0     C82818  10.505  12.413   5.373 -1.4050  0.2623  0.1976
  601MOL0     C82819  10.631  12.440   5.328  0.2874 -0.2260 -0.8247
  601MOL0     C82820  10.754  12.456   5.424  0.2678 -0.6070  0.0907
  601MOL0     C82821  10.862  12.539   5.357  0.0664 -0.1154  0.1004
  601MOL0     C82822  10.971  12.573   5.461  1.2857 -0.1262 -0.3520
  601MOL0     C82823  11.088  12.641   5.402  0.3401 -0.3745 -0.9131
  601MOL0     O82824  11.139  12.562   5.296  0.1191 -0.0130  0.0206
  601MOL0     C82825  11.238  12.617   5.220 -0.5933  0.4001 -0.1220
  601MOL0     C82826  11.280  12.552   5.099 -0.0669 -0.4325 -1.1960
  601MOL0     C82827  11.386  12.594   5.016  0.1346  0.2195 -0.4518
  601MOL0     C82828  11.411  12.498   4.895  0.9664 -0.5892 -0.1028
  601MOL0     C82829  11.462  12.710   5.054 -0.1454  0.7767 -0.4077
  601MOL0     C82830  11.581  12.753   4.974 -0.3005 -0.7294  0.2263
  601MOL0     O82831  11.642  12.681   4.881 -0.6837  0.7384 -0.0743
  601MOL0     C82832  11.730  12.747   4.805 -0.8598  0.6466 -0.3628
  601MOL0     C82833  11.709  12.769   4.668 -0.0805 -0.0009 -0.5561
  601MOL0     C82834  11.806  12.827   4.587 -0.1938 -0.4441  0.8042
  601MOL0     C82835  11.933  12.874   4.639  0.2425  0.9103  0.0091
  601MOL0     O82836  12.043  12.920   4.577  0.3012 -0.2896 -0.1655
  601MOL0     C82837  12.016  12.972   4.450 -0.1864  0.6357  0.0325
  601MOL0     C82838  12.139  13.041   4.402  0.3682 -0.5503 -0.3649
  601MOL0     C82839  12.130  13.191   4.450 -0.1556 -0.2923  0.0195
  601MOL0     C82840  12.260  13.268   4.414 -0.0184  0.5507 -0.4038
  601MOL0     C82841  12.383  13.252   4.511  0.1306 -0.1224 -0.0710
  601MOL0     C82842  12.522  13.307   4.457  0.0608 -0.4702  0.2871
  601MOL0     C82843  12.648  13.232   4.503 -0.1714 -0.1350  0.4014
  601MOL0     C82844  12.685  13.298   4.626  1.0420 -0.5214 -0.3394
  601MOL0    Cl82845  12.796  13.211   4.719 -0.0118  0.0514  0.2250
  601MOL0     C82846  11.950  12.843   4.776 -0.3516 -0.5920 -0.9129
  601MOL0     C82847  11.854  12.777   4.856 -0.5602  0.3089 -0.6696
  601MOL0     O82848  11.609  12.866   4.997 -0.7769 -1.0427 -0.5063
  601MOL0     C82849  11.419  12.779   5.170 -0.1093  0.5292 -0.9390
  601MOL0     C82850  11.308  12.736   5.245  0.2262  0.7506 -0.5517
  601MOL0     N82851  10.618  12.462   5.192 -0.0637  0.6877 -0.2347
  601MOL0     N82852  10.509  12.432   5.151  0.0735 -0.3317  0.7133
  601MOL0     C82853  10.015  11.355   5.463  0.7334  0.0495 -0.2092
  601MOL0     C82854  10.040  11.221   5.488  0.5942 -0.5301 -0.1092
  601MOL0     C82855  10.276  10.870   5.609 -0.5743 -0.3882  0.2534
  601MOL0     C82856  10.289  10.861   5.757  0.4289  0.1452  0.3405
  601MOL0     C82857  10.341  10.738   5.809  0.3475 -0.0444 -0.5200
  601MOL0     C82858  10.380  10.631   5.725 -0.1789 -0.3065  0.7033
  601MOL0     O82859  10.418  10.508   5.779 -0.2120 -0.1730  1.0944
  601MOL0     C82860  10.379  10.475   5.914  0.0177  0.5191  0.4607
  601MOL0     C82861  10.423  10.335   5.918 -0.8386 -0.2651  0.8762
  601MOL0     C82862  10.395  10.275   6.057 -0.1508 -1.1164 -0.4617
  601MOL0     C82863  10.389  10.120   6.068 -0.5231  0.4865  0.3059
  601MOL0     C82864  10.385  10.083   6.203  0.4858 -0.3600  0.1220
  601MOL0     C82865  10.377  10.049   6.315  0.8542  0.2614 -0.1221
  601MOL0     C82866  10.359  10.643   5.585 -0.1267  0.2904 -0.5336
  601MOL0     C82867  10.313  10.761   5.525 -0.1447  0.1049 -1.0981
  601MOL0     C82868  10.298  10.765   5.371 -1.0978  0.1542 -0.9022
  601MOL0     H82869  10.191  11.279   5.792 -3.2425  0.8033  2.9582
  601MOL0     H82870  10.087  11.519   5.745  2.2326 -0.7264  0.3328
  601MOL0     H82871   9.899  11.638   5.353 -0.8315  0.5819  1.6202
  601MOL0     H82872  10.079  11.597   5.334 -0.5529 -0.2492 -0.3011
  601MOL0     H82873  10.009  11.855   5.335  0.5803  1.5055  1.8921
  601MOL0     H82874   9.967  11.840   5.505 -0.4353  3.4968 -1.7264
  601MOL0     H82875  10.182  11.764   5.570 -0.4108 -0.7393  0.5043
  601MOL0     H82876  10.219  11.741   5.399 -0.4674  0.1420  0.9482
  601MOL0     H82877  10.148  12.024   5.503  0.6073  0.9356  2.8722
  601MOL0     H82878  10.315  11.975   5.502 -0.6980 -0.8213  0.0340
  601MOL0     H82879  10.135  12.004   5.272  0.3355  2.1040 -0.9500
  601MOL0     H82880  10.286  11.905   5.252 -0.3908 -0.0795 -0.6186
  601MOL0     H82881  10.411  12.112   5.333 -0.3748 -1.9326  1.1322
  601MOL0     H82882  10.336  12.120   5.169  0.5668  1.5198 -0.2109
  601MOL0     H82883  10.252  12.246   5.432 -1.8865 -0.2637  0.3914
  601MOL0     H82884  10.129  12.236   5.303 -0.2856  0.5127 -3.3552
  601MOL0     H82885  10.261  12.347   5.130 -1.1182  0.0197  0.1505
  601MOL0     H82886  10.219  12.449   5.267 -2.6760  0.0823 -0.5923
  601MOL0     H82887  10.485  12.393   5.478 -3.3563  1.5898  0.1353
  601MOL0     H82888  10.793  12.353   5.426 -0.2280 -0.8950 -2.1340
  601MOL0     H82889  10.741  12.486   5.528  0.1743 -2.3815  0.6243
  601MOL0     H82890  10.901  12.489   5.267  4.4256 -0.2744  1.8573
  601MOL0     H82891  10.807  12.626   5.318 -2.5981 -1.6803  0.1067
  601MOL0     H82892  10.930  12.624   5.548 -0.5846 -0.6146 -0.9029
  601MOL0     H82893  11.023  12.487   5.504  3.4876  1.6038  0.6224
  601MOL0     H82894  11.043  12.735   5.370  1.7344  0.8139  0.4855
  601MOL0     H82895  11.153  12.674   5.484 -1.5233 -0.2056  0.5946
  601MOL0     H82896  11.220  12.465   5.072 -2.1863 -0.0111  1.7042
  601MOL0     H82897  11.362  12.403   4.919  1.4286 -0.7688  0.1316
  601MOL0     H82898  11.515  12.492   4.862  0.1880 -1.0442 -2.6597
  601MOL0     H82899  11.372  12.546   4.805  1.3568 -3.5664 -2.0326
  601MOL0     H82900  11.626  12.715   4.623  3.5039 -3.0674 -4.3063
  601MOL0     H82901  11.787  12.831   4.480  1.5934  5.9009  0.3145
  601MOL0     H82902  11.986  12.887   4.390 -1.9743  1.6488 -0.5796
  601MOL0     H82903  11.922  13.027   4.440 -1.9129 -1.9240  1.1013
  601MOL0     H82904  12.220  12.977   4.439  0.9819  1.4593  2.0765
  601MOL0     H82905  12.140  13.032   4.293 -1.1372 -1.6546 -0.3238
  601MOL0     H82906  12.117  13.205   4.558 -1.9368  0.2898 -0.2384
  601MOL0     H82907  12.044  13.241   4.406 -0.7275 -1.1801  0.0938
  601MOL0     H82908  12.237  13.371   4.385  0.4051  0.1990 -2.1013
  601MOL0     H82909  12.293  13.229   4.317  2.2166  4.3222 -1.3617
  601MOL0     H82910  12.369  13.295   4.611  1.9237  1.7376 -0.5441
  601MOL0     H82911  12.401  13.145   4.521  1.3593 -0.0847 -1.5835
  601MOL0     H82912  12.516  13.412   4.489 -0.1056 -1.1582  2.6486
  601MOL0     H82913  12.502  13.297   4.350 -0.9259  0.5124  0.3575
  601MOL0     H82914  12.727  13.250   4.429  0.3521 -2.8733  0.1937
  601MOL0     H82915  12.624  13.127   4.521  1.5095 -0.6639 -0.1687
  601MOL0     H82916  12.592  13.308   4.683  1.0911 -3.2317  0.3778
  601MOL0     H82917  12.713  13.400   4.600 -1.8963  0.4618 -0.0737
  601MOL0     H82918  12.053  12.860   4.807 -1.2898  0.2913  2.1177
  601MOL0     H82919  11.874  12.747   4.958  2.9242 -0.4103 -1.4049
  601MOL0     H82920  11.467  12.865   5.215 -0.8509 -0.4086  1.8488
  601MOL0     H82921  11.286  12.794   5.334  0.6949 -0.0295  0.0820
  601MOL0     H82922   9.973  11.382   5.367  2.8543  1.5117 -0.7983
  601MOL0     H82923  10.005  11.159   5.406 -0.2299 -0.0857 -0.1070
  601MOL0     H82924  10.251  10.931   5.831 -2.3164 -0.3183 -0.5390
  601MOL0     H82925  10.360  10.726   5.915 -0.5263 -2.6368 -0.5838
  601MOL0     H82926  10.436  10.535   5.986 -0.7582 -0.8453  2.2929
  601MOL0     H82927  10.272  10.488   5.929 -0.1896 -0.4531 -0.1571
  601MOL0     H82928  10.526  10.331   5.881 -1.3206 -0.0875 -0.5676
  601MOL0     H82929  10.361  10.286   5.842  1.8396 -2.1090 -0.3105
  601MOL0     H82930  10.467  10.305   6.134 -0.1366  3.2050 -1.8906
  601MOL0     H82931  10.298  10.312   6.091  2.1344  2.8030  2.9061
  601MOL0     H82932  10.473  10.073   6.015 -1.5355 -0.7316 -0.2417
  601MOL0     H82933  10.294  10.083   6.030  0.0512 -0.9247  0.1619
  601MOL0     H82934  10.374  10.007   6.413 -0.5314 -1.1218 -0.7100
  601MOL0     H82935  10.387  10.556   5.526  3.2151  0.0455  1.1460
  601MOL0     H82936  10.282  10.660   5.344 -1.2718 -0.5935  1.8264
  601MOL0     H82937  10.206  10.820   5.346 -0.0602  3.6364  2.0444
  601MOL0     H82938  10.386  10.809   5.324 -1.7193  2.3258 -0.1649
  602MOL0     O82939   1.606   8.900   1.460 -0.0074 -0.1032  0.0263
  602MOL0     C82940   1.603   8.993   1.544 -0.0832 -0.1585  0.6887
  602MOL0     O82941   1.667   8.989   1.656 -0.5549  0.0572  0.1007
  602MOL0     C82942   1.772   8.900   1.679  1.2605  0.7012  0.3500
  602MOL0     C82943   1.795   8.883   1.811  0.4796  0.9469  0.3043
  602MOL0     C82944   1.879   8.786   1.853  0.8919  0.1539 -0.8306
  602MOL0     C82945   1.963   8.714   1.771  0.3772  0.7004  0.3324
  602MOL0     O82946   2.053   8.622   1.821  0.5079  0.0796  0.0990
  602MOL0     C82947   2.100   8.647   1.956  0.3747  1.0967 -0.0988
  602MOL0     C82948   2.232   8.565   1.986  0.3792  0.1311 -0.0886
  602MOL0     C82949   2.305   8.632   2.101  0.1199 -0.9896 -0.5156
  602MOL0     C82950   2.426   8.546   2.136 -1.0042 -0.8397  0.0732
  602MOL0     C82951   2.497   8.616   2.250  0.1171  0.5204  0.1490
  602MOL0     C82952   2.448   8.568   2.388 -0.0673 -0.9727  0.5350
  602MOL0     C82953   2.510   8.451   2.443 -0.5404  0.5942 -1.1601
  602MOL0     C82954   2.424   8.360   2.540 -0.4305  0.4883 -0.6280
  602MOL0     N82955   2.404   8.416   2.685  0.6728 -1.0658  0.1865
  602MOL0     C82956   2.308   8.511   2.734  0.8191  0.2750 -0.0145
  602MOL0     C82957   2.322   8.504   2.871 -0.6007  0.6053  0.6328
  602MOL0     C82958   2.242   8.585   2.966 -0.2412  0.1651 -0.1186
  602MOL0     C82959   2.095   8.614   2.921 -0.1419  0.1450  1.0684
  602MOL0     C82960   2.040   8.722   3.019  0.3366  0.0119  0.3838
  602MOL0     C82961   1.913   8.784   2.954 -0.0099  0.5592  0.2852
  602MOL0     O82962   1.812   8.670   2.936 -0.4622 -0.0398  0.3977
  602MOL0     C82963   1.702   8.697   2.872 -0.8237 -0.5778 -0.0514
  602MOL0     C82964   1.654   8.823   2.835  0.3832 -0.8135 -0.0824
  602MOL0     C82965   1.524   8.835   2.780 -0.1744  0.2503  0.1248
  602MOL0     C82966   1.472   8.981   2.760  0.3305 -0.5088 -0.9462
  602MOL0     C82967   1.449   8.723   2.742  0.2708  0.0144 -0.2279
  602MOL0     C82968   1.312   8.735   2.675  0.5348 -0.7618 -0.4884
  602MOL0     O82969   1.258   8.613   2.645 -0.0518 -0.5459 -0.2194
  602MOL0     C82970   1.149   8.618   2.559 -0.1016 -0.7899  0.6896
  602MOL0     C82971   1.042   8.534   2.579 -0.1737 -0.2872  0.3206
  602MOL0     C82972   0.934   8.519   2.492  0.1319 -1.0114 -0.2380
  602MOL0     C82973   0.922   8.598   2.376 -0.6507 -0.3360 -0.5560
  602MOL0     O82974   0.809   8.600   2.302 -0.3344 -0.2816 -0.2250
  602MOL0     C82975   0.765   8.476   2.237 -0.6850 -0.0870 -1.2714
  602MOL0     C82976   0.611   8.499   2.209 -0.9405  0.3088 -0.2747
  602MOL0     C82977   0.579   8.602   2.099  0.1966 -0.5150 -0.6657
  602MOL0     C82978   0.448   8.576   2.031  0.1870 -0.8091  1.1497
  602MOL0     C82979   0.435   8.678   1.912  0.1867  0.0088  0.3426
  602MOL0     C82980   0.299   8.670   1.836 -0.4978  0.2126  0.4620
  602MOL0     C82981   0.268   8.785   1.734 -0.3644 -0.7740  0.3964
  602MOL0     C82982   0.136   8.748   1.662  0.0484  0.4116  0.1510
  602MOL0    Cl82983   0.125   8.586   1.586  0.1201  0.0964 -0.0411
  602MOL0     C82984   1.031   8.687   2.353  0.5374 -0.1828 -0.7637
  602MOL0     C82985   1.138   8.699   2.439 -0.6817 -0.1743 -0.0126
  602MOL0     O82986   1.250   8.845   2.665  0.5390  0.0812  0.3763
  602MOL0     C82987   1.500   8.597   2.773  0.3542  0.1904 -0.8632
  602MOL0     C82988   1.622   8.583   2.836  0.1122  0.1794 -0.1939
  602MOL0     N82989   2.408   8.402   2.903  0.1424  0.1705 -0.7177
  602MOL0     N82990   2.445   8.350   2.792 -0.2123  0.2029  0.2410
  602MOL0     C82991   1.949   8.739   1.635  0.2626 -0.3076  1.3929
  602MOL0     C82992   1.852   8.828   1.583 -0.0133  0.0483 -0.9349
  602MOL0     C82993   1.546   9.125   1.495  0.7412 -0.3279  0.6479
  602MOL0     C82994   1.619   9.241   1.496  0.3857 -0.5345 -0.3466
  602MOL0     C82995   1.554   9.362   1.456  0.2997  0.8041 -0.0073
  602MOL0     C82996   1.428   9.363   1.405  0.0462  0.1391  0.3031
  602MOL0     O82997   1.367   9.471   1.348  0.2249 -0.0355  0.9485
  602MOL0     C82998   1.432   9.600   1.333  0.2196 -0.7209 -0.1148
  602MOL0     C82999   1.368   9.702   1.435  0.2649  0.3673  1.1202
  602MOL0     C83000   1.350   9.659   1.583 -0.0107  0.1527  0.0575
  602MOL0     C83001   1.263   9.762   1.662  0.3091  0.4259 -0.4554
  602MOL0     C83002   1.325   9.893   1.663 -0.1498 -0.4216 -0.4657
  602MOL0     C83003   1.377  10.004   1.671  0.1921  0.7570 -0.2054
  602MOL0     C83004   1.360   9.236   1.395 -0.2081 -1.0488  0.2831
  602MOL0     C83005   1.411   9.120   1.451  0.3392 -0.2072  0.2301
  602MOL0     C83006   1.328   8.993   1.445  0.5855 -0.8021 -0.0899
  602MOL0     H83007   1.741   8.948   1.879 -0.9690  2.2434 -1.9812
  602MOL0     H83008   1.889   8.776   1.961  1.5015 -1.2248 -0.9932
  602MOL0     H83009   2.028   8.617   2.033  1.1965  0.0010  0.2769
  602MOL0     H83010   2.124   8.752   1.977  0.7052  0.8848  0.6306
  602MOL0     H83011   2.206   8.461   2.005 -1.1840  0.1266 -1.9754
  602MOL0     H83012   2.293   8.559   1.896  0.7387 -0.0589  0.1639
  602MOL0     H83013   2.323   8.728   2.052 -0.4485 -1.0818 -0.9142
  602MOL0     H83014   2.246   8.653   2.191 -1.3554 -0.7176 -1.5106
  602MOL0     H83015   2.392   8.445   2.158 -1.8182 -0.5398  0.2069
  602MOL0     H83016   2.492   8.540   2.049  1.1034 -3.1060  1.6903
  602MOL0     H83017   2.491   8.725   2.240  0.7351  0.3326 -3.7985
  602MOL0     H83018   2.602   8.585   2.247  0.3506  1.3482 -2.3801
  602MOL0     H83019   2.483   8.652   2.450  2.7225  1.5271 -3.8703
  602MOL0     H83020   2.340   8.558   2.394 -0.0618 -1.1257  0.4049
  602MOL0     H83021   2.596   8.487   2.500 -0.7023  0.8650 -1.0870
  602MOL0     H83022   2.548   8.385   2.364  3.1135  0.3386  0.6063
  602MOL0     H83023   2.325   8.337   2.497 -1.2737 -2.3320  2.3850
  602MOL0     H83024   2.476   8.264   2.545  2.0682  1.8348  1.8753
  602MOL0     H83025   2.232   8.564   2.678 -1.1592 -2.4340 -0.1383
  602MOL0     H83026   2.288   8.684   2.976 -0.1087  0.5121 -3.2851
  602MOL0     H83027   2.233   8.538   3.065  0.1957  2.5142  1.1223
  602MOL0     H83028   2.089   8.640   2.815  1.7513 -0.8753  0.6439
  602MOL0     H83029   2.034   8.526   2.941 -2.2387  1.3510  0.2461
  602MOL0     H83030   2.016   8.668   3.111 -1.7167 -0.4402 -0.3601
  602MOL0     H83031   2.111   8.804   3.029 -2.8405  2.7171  3.7130
  602MOL0     H83032   1.877   8.851   3.033 -1.9317 -0.2812  0.1777
  602MOL0     H83033   1.959   8.833   2.868 -0.4583  0.6365  0.0840
  602MOL0     H83034   1.706   8.915   2.859 -0.1979 -0.6636  0.6712
  602MOL0     H83035   1.382   8.986   2.822  0.8013  2.1774 -0.3364
  602MOL0     H83036   1.441   8.995   2.656 -3.2834 -3.0234 -0.3979
  602MOL0     H83037   1.542   9.060   2.790  0.1370 -0.6121 -0.2043
  602MOL0     H83038   1.043   8.475   2.670  0.4182  0.3251  0.7292
  602MOL0     H83039   0.848   8.464   2.530 -1.0453  0.4437 -0.6985
  602MOL0     H83040   0.821   8.455   2.145  1.2789  2.2036 -0.6932
  602MOL0     H83041   0.779   8.393   2.307 -1.0574  0.2867 -0.7435
  602MOL0     H83042   0.576   8.397   2.192 -0.1984  0.3326 -2.2217
  602MOL0     H83043   0.565   8.536   2.301  0.9156 -0.4660  1.0337
  602MOL0     H83044   0.666   8.620   2.034  0.2522  1.4272 -0.1164
  602MOL0     H83045   0.559   8.697   2.149  0.6569 -0.7946  0.0710
  602MOL0     H83046   0.361   8.584   2.097 -1.5360 -3.8328 -0.5431
  602MOL0     H83047   0.449   8.480   1.980 -1.4221  0.5618 -1.6806
  602MOL0     H83048   0.445   8.777   1.956 -1.0038 -1.3452  3.9991
  602MOL0     H83049   0.518   8.657   1.844 -1.7103 -0.3763 -1.9924
  602MOL0     H83050   0.226   8.676   1.917 -0.8286  1.0747  0.1096
  602MOL0     H83051   0.299   8.574   1.783  3.6197  0.3765 -0.1903
  602MOL0     H83052   0.348   8.780   1.660 -2.0143 -2.7340 -1.3772
  602MOL0     H83053   0.252   8.886   1.774 -2.5531 -0.4497 -1.1385
  602MOL0     H83054   0.125   8.811   1.574 -1.9653  0.0483  0.0994
  602MOL0     H83055   0.059   8.768   1.737  0.6803 -1.4167  1.3548
  602MOL0     H83056   1.026   8.742   2.260  1.2365 -0.6620 -1.0865
  602MOL0     H83057   1.206   8.783   2.428  3.3038 -2.6967  2.6341
  602MOL0     H83058   1.449   8.508   2.736  0.4743 -1.2284  2.1289
  602MOL0     H83059   1.666   8.488   2.864  1.4713  0.2139 -2.0522
  602MOL0     H83060   1.999   8.684   1.556  0.6108  1.4820  0.3155
  602MOL0     H83061   1.841   8.852   1.477  0.5381  0.7113 -0.8494
  602MOL0     H83062   1.718   9.260   1.534 -0.5528  5.0938  0.2107
  602MOL0     H83063   1.614   9.452   1.461 -0.0341  0.9573  1.9182
  602MOL0     H83064   1.540   9.601   1.349  0.0006 -0.9289  1.4888
  602MOL0     H83065   1.422   9.641   1.232  2.3838 -2.8530 -1.2837
  602MOL0     H83066   1.272   9.733   1.392  0.0313 -1.1490  0.4626
  602MOL0     H83067   1.427   9.794   1.432 -1.0693  1.2351 -0.9110
  602MOL0     H83068   1.300   9.562   1.579  0.4974 -0.0939 -0.5941
  602MOL0     H83069   1.443   9.643   1.638 -0.1839  1.5050  0.7770
  602MOL0     H83070   1.235   9.721   1.760  2.2421  0.3939  0.1208
  602MOL0     H83071   1.170   9.776   1.606  0.8819  0.0302 -1.5407
  602MOL0     H83072   1.422  10.101   1.680  0.8593  0.3617  0.9939
  602MOL0     H83073   1.260   9.242   1.352 -0.5562 -0.4431  1.1205
  602MOL0     H83074   1.348   8.954   1.344 -1.3163  0.1731 -0.9029
  602MOL0     H83075   1.343   8.930   1.533 -0.4217  0.1234  0.7626
  602MOL0     H83076   1.223   9.024   1.441  0.5358 -1.0307 -1.0153
  603MOL0     O83077   4.377   9.767   7.675  0.2472 -0.5122 -0.0991
  603MOL0     C83078   4.451   9.666   7.658 -0.0683  0.2628 -1.2258
  603MOL0     O83079   4.415   9.539   7.621  0.2974  0.3144 -0.1472
  603MOL0     C83080   4.295   9.512   7.558  0.6861 -0.0968 -0.0069
  603MOL0     C83081   4.232   9.395   7.598 -0.2317 -0.5901 -0.6273
  603MOL0     C83082   4.123   9.347   7.535  0.2859  1.2625 -0.3913
  603MOL0     C83083   4.062   9.419   7.429 -0.2544  0.6043 -0.3665
  603MOL0     O83084   3.953   9.386   7.354  0.2010  0.2799 -0.5115
  603MOL0     C83085   3.941   9.242   7.331 -0.8212  0.3805 -0.0801
  603MOL0     C83086   3.839   9.224   7.219 -0.2724  0.2466 -0.1900
  603MOL0     C83087   3.752   9.348   7.209 -0.2262  0.5013 -0.3282
  603MOL0     C83088   3.640   9.312   7.109 -0.5217  0.8343 -0.8593
  603MOL0     C83089   3.536   9.420   7.079  0.2098  0.5620  0.5359
  603MOL0     C83090   3.427   9.373   6.983  1.0753 -0.0369  0.0443
  603MOL0     C83091   3.461   9.382   6.834 -0.4529  0.3087 -0.5892
  603MOL0     C83092   3.343   9.440   6.755 -0.0873 -0.1294 -0.2426
  603MOL0     N83093   3.308   9.582   6.774 -0.3269 -0.2627  0.3382
  603MOL0     C83094   3.391   9.683   6.729  0.3859  1.0483 -0.1678
  603MOL0     C83095   3.319   9.795   6.754  0.6274  0.3726  0.2212
  603MOL0     C83096   3.330   9.935   6.710 -0.1711 -0.1770  0.1117
  603MOL0     C83097   3.444  10.014   6.766  0.3793  0.6621  0.5253
  603MOL0     C83098   3.448  10.143   6.688 -0.1271 -0.1465  0.1585
  603MOL0     C83099   3.533  10.257   6.761 -1.1562  0.3458  0.3300
  603MOL0     O83100   3.672  10.223   6.737 -0.1837 -0.6325  0.2660
  603MOL0     C83101   3.749  10.340   6.726  0.4596  0.2311  0.4848
  603MOL0     C83102   3.865  10.325   6.650 -0.6762 -0.0158 -0.4232
  603MOL0     C83103   3.940  10.436   6.610 -0.8607  0.5298 -0.3789
  603MOL0     C83104   4.043  10.411   6.496 -1.4591  0.0941 -0.4797
  603MOL0     C83105   3.905  10.567   6.653  0.8027 -0.0555 -0.4805
  603MOL0     C83106   3.967  10.699   6.614 -1.1398 -0.3166 -0.9733
  603MOL0     O83107   3.897  10.812   6.653  0.4512  0.7533 -0.0010
  603MOL0     C83108   3.966  10.926   6.632  0.6947 -0.7577 -0.5388
  603MOL0     C83109   3.899  11.027   6.566  0.4671  0.1542  0.0685
  603MOL0     C83110   3.955  11.155   6.543 -0.1587  0.9665 -0.1923
  603MOL0     C83111   4.082  11.182   6.595  0.6731  0.0285 -0.1409
  603MOL0     O83112   4.124  11.311   6.590  0.3814  0.3950  0.4495
  603MOL0     C83113   4.266  11.341   6.598  0.6395  0.3637 -0.2756
  603MOL0     C83114   4.281  11.499   6.577 -0.6933 -0.1666 -0.0351
  603MOL0     C83115   4.221  11.560   6.447 -0.2393 -0.7303 -0.3592
  603MOL0     C83116   4.228  11.716   6.451  0.0558  0.1291 -0.0813
  603MOL0     C83117   4.163  11.770   6.316 -0.4662  0.2009  0.9565
  603MOL0     C83118   4.147  11.922   6.331  0.4370 -1.0552  0.1861
  603MOL0     C83119   4.059  11.988   6.219  0.0924  0.2035  0.8774
  603MOL0     C83120   4.058  12.134   6.221 -0.1894  0.0713 -0.0602
  603MOL0    Cl83121   3.943  12.210   6.338  0.3512 -0.2274  0.2969
  603MOL0     C83122   4.154  11.076   6.657 -0.7813 -0.4949 -0.5209
  603MOL0     C83123   4.102  10.947   6.668 -0.1274 -0.2694 -0.1168
  603MOL0     O83124   4.083  10.693   6.561  0.1216 -0.5686  0.0542
  603MOL0     C83125   3.800  10.571   6.752 -0.6441 -0.8484  0.3284
  603MOL0     C83126   3.724  10.467   6.781  0.5663  0.1719  0.6817
  603MOL0     N83127   3.207   9.755   6.832 -0.3172 -0.0069  0.3037
  603MOL0     N83128   3.204   9.630   6.844  0.0610 -0.4910  0.5795
  603MOL0     C83129   4.117   9.547   7.391 -0.0314  0.5130  0.1468
  603MOL0     C83130   4.237   9.583   7.454 -0.3681  0.4876  0.6169
  603MOL0     C83131   4.596   9.672   7.690  0.5231 -0.0251  0.0962
  603MOL0     C83132   4.666   9.561   7.753  0.1027 -0.8187 -0.3044
  603MOL0     C83133   4.804   9.550   7.757  0.4134 -0.6366 -0.6613
  603MOL0     C83134   4.881   9.649   7.706  0.2910  0.3231  0.4112
  603MOL0     O83135   5.019   9.628   7.724 -0.5255  0.0604  0.3751
  603MOL0     C83136   5.086   9.564   7.614 -0.3410  0.2548 -0.0155
  603MOL0     C83137   5.172   9.659   7.540 -0.1784  0.4917  1.0576
  603MOL0     C83138   5.303   9.704   7.609  0.6333  0.0393  0.5379
  603MOL0     C83139   5.385   9.792   7.526  0.2077 -0.1809  0.0913
  603MOL0     C83140   5.518   9.824   7.581 -1.3696  0.4158  1.0283
  603MOL0     C83141   5.629   9.858   7.625  0.0661  0.0714  0.8760
  603MOL0     C83142   4.827   9.757   7.640  1.0296  0.3895  0.2633
  603MOL0     C83143   4.682   9.768   7.629 -1.7467  0.0040 -0.0313
  603MOL0     C83144   4.616   9.893   7.563  0.4567  0.3199 -0.7360
  603MOL0     H83145   4.266   9.331   7.679 -2.1864 -0.5345  0.3083
  603MOL0     H83146   4.078   9.254   7.567 -2.8173  2.6434 -0.3509
  603MOL0     H83147   3.904   9.184   7.416 -0.2498 -2.7051 -1.7563
  603MOL0     H83148   4.036   9.193   7.307 -2.0291 -2.2970  0.2640
  603MOL0     H83149   3.892   9.209   7.125 -0.3897 -2.8649  0.1236
  603MOL0     H83150   3.779   9.133   7.224  2.4522 -1.8778 -2.6584
  603MOL0     H83151   3.707   9.361   7.307  2.0015  1.5441  0.6410
  603MOL0     H83152   3.813   9.432   7.173 -1.2970  0.0639 -3.4626
  603MOL0     H83153   3.679   9.283   7.011  0.5808  2.2131 -0.8654
  603MOL0     H83154   3.580   9.226   7.140 -1.0415  1.5172  0.0852
  603MOL0     H83155   3.581   9.510   7.036  3.9600 -2.7735 -3.5217
  603MOL0     H83156   3.475   9.434   7.168  0.5195 -1.2690  1.0850
  603MOL0     H83157   3.381   9.275   7.000  0.0588 -0.5091 -4.1734
  603MOL0     H83158   3.344   9.440   7.008  0.5744 -1.1237  1.4252
  603MOL0     H83159   3.480   9.280   6.798 -0.1717 -0.4996  1.6612
  603MOL0     H83160   3.547   9.444   6.808 -0.0873  0.8043  1.5896
  603MOL0     H83161   3.363   9.432   6.648  0.0250 -1.4006 -0.1405
  603MOL0     H83162   3.252   9.381   6.771 -0.2104 -0.2010 -1.1735
  603MOL0     H83163   3.482   9.673   6.670 -0.2977  1.6226 -1.3726
  603MOL0     H83164   3.236   9.989   6.718  0.2177  1.0692 -2.6633
  603MOL0     H83165   3.349   9.922   6.603  0.3443 -0.3118  0.2131
  603MOL0     H83166   3.423  10.014   6.873  1.5537 -1.2826  0.8021
  603MOL0     H83167   3.537   9.959   6.753  0.3442  0.8037 -0.4002
  603MOL0     H83168   3.474  10.122   6.584 -1.4530  0.4757 -0.3247
  603MOL0     H83169   3.346  10.181   6.698  0.3944  1.0720  1.1307
  603MOL0     H83170   3.504  10.356   6.723  1.9852  0.4331 -2.3149
  603MOL0     H83171   3.535  10.255   6.871  3.9778  0.0277  0.4669
  603MOL0     H83172   3.888  10.223   6.623 -0.0992  0.7149 -2.9685
  603MOL0     H83173   4.145  10.416   6.535 -1.1670 -1.3091 -1.0291
  603MOL0     H83174   4.040  10.489   6.419 -0.9214 -1.4973 -2.1793
  603MOL0     H83175   4.024  10.319   6.441  1.3458  0.0538 -1.5384
  603MOL0     H83176   3.797  11.022   6.531  0.7245  2.2758 -1.1827
  603MOL0     H83177   3.882  11.223   6.500  0.4978  1.7535 -0.0658
  603MOL0     H83178   4.301  11.309   6.696 -1.7881 -0.0999  0.4913
  603MOL0     H83179   4.321  11.290   6.518  0.0334 -0.9228  0.1139
  603MOL0     H83180   4.228  11.551   6.658 -0.2138 -1.1123  0.8990
  603MOL0     H83181   4.386  11.530   6.568 -1.3459  2.4236  0.4851
  603MOL0     H83182   4.119  11.526   6.429 -0.2519  0.4381 -2.8909
  603MOL0     H83183   4.270  11.531   6.354  2.8098  3.1712 -0.2590
  603MOL0     H83184   4.325  11.761   6.473  0.0583 -0.8160  2.0199
  603MOL0     H83185   4.158  11.752   6.527  1.8150  0.5502  1.3943
  603MOL0     H83186   4.223  11.738   6.230 -4.4139  0.6928 -2.3362
  603MOL0     H83187   4.065  11.722   6.310 -0.7837  0.3255  3.9215
  603MOL0     H83188   4.242  11.975   6.339 -0.2613  0.3075 -0.2355
  603MOL0     H83189   4.102  11.948   6.428 -0.4180 -0.9628 -0.2249
  603MOL0     H83190   3.957  11.949   6.216  1.3364 -3.2955 -0.5726
  603MOL0     H83191   4.097  11.962   6.120 -1.0817 -1.6084  0.8540
  603MOL0     H83192   4.037  12.171   6.121  0.5380  2.1963  0.5195
  603MOL0     H83193   4.159  12.168   6.245 -0.0549  0.0612 -0.5971
  603MOL0     H83194   4.254  11.092   6.695 -0.6917  3.0018 -1.8183
  603MOL0     H83195   4.167  10.876   6.718  1.4814  0.9379 -0.3726
  603MOL0     H83196   3.776  10.669   6.793  1.6468  0.4183 -1.1198
  603MOL0     H83197   3.641  10.473   6.850 -1.0448 -1.3339 -0.9866
  603MOL0     H83198   4.075   9.605   7.311 -0.9604 -1.0030 -0.5126
  603MOL0     H83199   4.300   9.666   7.424  1.1492 -0.5473  0.7941
  603MOL0     H83200   4.599   9.490   7.801 -2.2404  2.1824  1.2052
  603MOL0     H83201   4.841   9.466   7.816 -1.1712  0.7374  2.5596
  603MOL0     H83202   5.150   9.485   7.654 -3.4001 -1.2900  2.2517
  603MOL0     H83203   5.006   9.515   7.557  0.1603  0.7209 -1.1492
  603MOL0     H83204   5.099   9.738   7.524 -1.1133 -0.2145  1.7194
  603MOL0     H83205   5.203   9.612   7.446  2.3125  1.1061  1.5021
  603MOL0     H83206   5.285   9.764   7.699 -1.2461  1.9831 -1.0118
  603MOL0     H83207   5.361   9.616   7.638  1.7118  0.7857  0.7218
  603MOL0     H83208   5.330   9.885   7.513 -1.9586 -1.2823  0.8570
  603MOL0     H83209   5.392   9.748   7.426 -1.4381  0.8382 -0.5005
  603MOL0     H83210   5.724   9.898   7.655 -0.7610  2.7800  0.1459
  603MOL0     H83211   4.887   9.842   7.610  0.3124  1.7583  2.4558
  603MOL0     H83212   4.699   9.959   7.537  0.2034  0.4791 -1.1546
  603MOL0     H83213   4.553   9.872   7.476  2.3333  3.1628 -2.9592
  603MOL0     H83214   4.557   9.946   7.637  1.8933  1.3109 -0.2720
  604MOL0     O83215   5.325  10.212   6.966  0.3861 -0.0506 -0.5323
  604MOL0     C83216   5.337  10.338   6.993 -0.0774 -0.6018  0.0211
  604MOL0     O83217   5.299  10.396   7.114 -0.1765 -0.1591 -0.1498
  604MOL0     C83218   5.260  10.320   7.219  0.9448  0.0957  0.0049
  604MOL0     C83219   5.331  10.299   7.334  0.3996 -1.0742 -1.6887
  604MOL0     C83220   5.275  10.234   7.448 -0.2843 -0.0843  0.4105
  604MOL0     C83221   5.134  10.196   7.455 -0.2569 -0.3656 -0.4356
  604MOL0     O83222   5.065  10.158   7.575  0.8347  0.8015  0.3272
  604MOL0     C83223   5.124  10.181   7.701  0.4478 -0.6703  0.3681
  604MOL0     C83224   5.131  10.056   7.790 -0.4232  0.0081 -0.3127
  604MOL0     C83225   5.202  10.100   7.915 -0.2761 -0.1127  0.3093
  604MOL0     C83226   5.214   9.976   7.994  0.0415  0.1079 -0.0919
  604MOL0     C83227   5.123   9.975   8.114  0.6376  0.0542 -0.5278
  604MOL0     C83228   4.971   9.934   8.104 -0.5944 -0.7276 -0.0889
  604MOL0     C83229   4.956   9.795   8.059 -0.3105  0.4858 -0.1506
  604MOL0     C83230   4.815   9.743   8.043 -0.3562  0.1541 -0.4851
  604MOL0     N83231   4.727   9.748   8.159 -0.0211 -0.8657  0.2096
  604MOL0     C83232   4.768   9.751   8.293 -0.1219  1.0519  0.9058
  604MOL0     C83233   4.648   9.725   8.354 -0.6195 -0.3708 -0.1303
  604MOL0     C83234   4.642   9.726   8.500  0.3889 -0.9433 -0.0601
  604MOL0     C83235   4.635   9.575   8.550  1.4581  0.2398  0.2886
  604MOL0     C83236   4.777   9.513   8.551  0.6130 -0.1256 -0.1101
  604MOL0     C83237   4.775   9.400   8.646 -0.1362 -0.1936 -0.4687
  604MOL0     O83238   4.823   9.430   8.777  0.5809 -0.1958  0.3567
  604MOL0     C83239   4.837   9.334   8.867 -0.1204  0.6950 -0.2277
  604MOL0     C83240   4.814   9.196   8.839  0.1129  0.0142  0.6288
  604MOL0     C83241   4.814   9.096   8.934 -0.2348  0.3422  0.1859
  604MOL0     C83242   4.759   8.961   8.901  0.9560 -0.1645  0.4184
  604MOL0     C83243   4.858   9.136   9.065  0.8120 -0.1024 -0.4335
  604MOL0     C83244   4.854   9.027   9.174  0.3593 -0.0826 -0.1763
  604MOL0     O83245   4.738   8.971   9.204 -0.2877  0.5040  0.2332
  604MOL0     C83246   4.735   8.878   9.316  0.5989  0.0933  0.5102
  604MOL0     C83247   4.786   8.898   9.446  0.3712  0.6507  0.5093
  604MOL0     C83248   4.769   8.810   9.554  0.1248 -0.5958  0.1467
  604MOL0     C83249   4.702   8.688   9.530 -0.2896  0.4992  0.1135
  604MOL0     O83250   4.671   8.589   9.632 -0.5431 -0.4239 -0.1213
  604MOL0     C83251   4.665   8.638   9.769 -0.0062 -0.7814 -0.3976
  604MOL0     C83252   4.577   8.561   9.872 -0.0682  0.0975 -0.3828
  604MOL0     C83253   4.633   8.421   9.916 -0.2100 -0.3356 -0.5759
  604MOL0     C83254   4.640   8.323   9.803 -0.6741 -1.1513  0.9444
  604MOL0     C83255   4.714   8.198   9.854 -0.9881 -1.3379  0.7291
  604MOL0     C83256   4.725   8.100   9.729 -0.2189 -0.1581 -0.5553
  604MOL0     C83257   4.819   7.978   9.755  0.3174 -0.1049 -0.0937
  604MOL0     C83258   4.839   7.906   9.624  0.0104 -0.1133 -0.4494
  604MOL0    Cl83259   4.677   7.862   9.563 -0.1978 -0.0558 -0.1583
  604MOL0     C83260   4.632   8.674   9.411 -0.7537 -0.4327 -0.1033
  604MOL0     C83261   4.655   8.768   9.306 -0.2808 -0.3877  0.1216
  604MOL0     O83262   4.951   9.025   9.251 -0.0661 -0.3348 -0.0605
  604MOL0     C83263   4.895   9.269   9.103  0.5639 -0.2740  0.1784
  604MOL0     C83264   4.884   9.362   8.997  0.0034  0.6644  0.2835
  604MOL0     N83265   4.543   9.727   8.263  0.5264  0.9133 -0.5556
  604MOL0     N83266   4.588   9.735   8.147 -0.3221  1.0374 -0.3365
  604MOL0     C83267   5.062  10.213   7.338  0.3780 -0.3400  0.4098
  604MOL0     C83268   5.117  10.273   7.222 -0.3240 -0.2970 -0.1863
  604MOL0     C83269   5.381  10.439   6.891  1.0323 -0.0565  0.1919
  604MOL0     C83270   5.399  10.382   6.763 -0.4360  0.2687  0.8825
  604MOL0     C83271   5.419  10.460   6.647  0.7486 -0.7379  0.2166
  604MOL0     C83272   5.435  10.590   6.667 -0.3800  0.5978  0.1973
  604MOL0     O83273   5.456  10.661   6.550 -0.1489 -0.1549 -0.0897
  604MOL0     C83274   5.462  10.799   6.554 -0.1565  0.3642  0.3076
  604MOL0     C83275   5.483  10.846   6.407 -1.1464  0.4758  0.1872
  604MOL0     C83276   5.640  10.860   6.390 -0.3715 -0.1378 -0.1353
  604MOL0     C83277   5.698  11.002   6.385 -0.2974  0.3742 -0.2424
  604MOL0     C83278   5.842  10.993   6.342  1.2385  0.1321  0.2743
  604MOL0     C83279   5.962  10.985   6.318  0.4551  0.7024 -0.0666
  604MOL0     C83280   5.430  10.643   6.790 -0.2431 -0.5505 -0.7563
  604MOL0     C83281   5.407  10.575   6.911  0.7398  0.1740  0.5649
  604MOL0     C83282   5.370  10.661   7.035 -0.0633  0.4912  0.7326
  604MOL0     H83283   5.433  10.335   7.322  1.3205 -2.3561  1.2323
  604MOL0     H83284   5.339  10.218   7.535  1.0345 -0.4525 -0.6063
  604MOL0     H83285   5.050  10.249   7.744  2.9446  2.4467  0.0585
  604MOL0     H83286   5.215  10.242   7.697 -0.1194  0.2313  0.8038
  604MOL0     H83287   5.036  10.004   7.805 -1.5157  0.9646 -3.3236
  604MOL0     H83288   5.193   9.988   7.731 -1.3649 -2.4194  1.3159
  604MOL0     H83289   5.298  10.149   7.896  0.3756 -0.0642  3.2615
  604MOL0     H83290   5.138  10.173   7.966 -0.7876  1.3735 -2.2677
  604MOL0     H83291   5.213   9.891   7.926 -0.5044  3.1487 -4.2390
  604MOL0     H83292   5.317   9.984   8.032  1.3943  0.3262 -3.4846
  604MOL0     H83293   5.123  10.078   8.151  0.1572  1.1578 -3.3720
  604MOL0     H83294   5.178   9.913   8.187  1.4603  0.9351 -0.3742
  604MOL0     H83295   4.931   9.940   8.205 -0.8661 -0.5886 -0.2064
  604MOL0     H83296   4.915  10.004   8.041  0.3456 -2.7110 -3.3580
  604MOL0     H83297   4.995   9.725   8.132 -2.3938 -0.3579  0.2290
  604MOL0     H83298   5.009   9.771   7.966 -0.4090 -0.9060  0.1319
  604MOL0     H83299   4.770   9.803   7.964 -1.3337  1.8010  1.2484
  604MOL0     H83300   4.824   9.637   8.017  3.4594  0.5649 -1.4544
  604MOL0     H83301   4.866   9.757   8.339  0.2126 -0.5337  0.4530
  604MOL0     H83302   4.551   9.778   8.529  1.2766 -0.5984  2.3552
  604MOL0     H83303   4.721   9.783   8.550 -1.3812 -0.4172  2.3343
  604MOL0     H83304   4.596   9.586   8.652  0.3081  0.2926 -0.1447
  604MOL0     H83305   4.565   9.518   8.489 -0.8188  4.2255 -1.2024
  604MOL0     H83306   4.791   9.487   8.446 -3.2835  1.5866 -1.2172
  604MOL0     H83307   4.852   9.588   8.579  0.8484 -0.4280  0.0865
  604MOL0     H83308   4.678   9.350   8.644 -0.1559 -0.2767 -3.7558
  604MOL0     H83309   4.845   9.326   8.606 -2.2636 -1.7777 -1.4788
  604MOL0     H83310   4.780   9.165   8.741 -0.3791 -0.3904  0.9289
  604MOL0     H83311   4.756   8.953   8.792 -0.0133  1.1305  0.3130
  604MOL0     H83312   4.657   8.945   8.938 -0.1043 -0.3274 -2.3065
  604MOL0     H83313   4.826   8.888   8.946 -0.2079  0.3950  3.2783
  604MOL0     H83314   4.821   8.998   9.469 -0.2343  1.9685 -3.4993
  604MOL0     H83315   4.807   8.825   9.655 -1.7811  1.2046  0.6612
  604MOL0     H83316   4.762   8.654   9.816 -0.2217  2.6165 -0.8973
  604MOL0     H83317   4.615   8.734   9.779  0.6630 -0.5899  1.5132
  604MOL0     H83318   4.559   8.619   9.964  1.4763  0.6439 -0.3996
  604MOL0     H83319   4.474   8.545   9.839 -0.8917  1.7145  1.2065
  604MOL0     H83320   4.566   8.381   9.992 -1.1703  0.8989 -0.7479
  604MOL0     H83321   4.734   8.422   9.958 -1.5701  1.2084  3.0689
  604MOL0     H83322   4.707   8.350   9.721 -2.5799 -0.0941 -0.3341
  604MOL0     H83323   4.538   8.306   9.767 -0.9133  4.0458 -1.6455
  604MOL0     H83324   4.815   8.233   9.873 -0.7382 -0.9225 -1.1895
  604MOL0     H83325   4.676   8.147   9.943 -3.9031 -2.3165 -0.9297
  604MOL0     H83326   4.754   8.150   9.636 -1.7437 -0.9648 -1.4981
  604MOL0     H83327   4.621   8.073   9.714 -1.7594  1.9259  4.2727
  604MOL0     H83328   4.773   7.912   9.830  0.8171  3.1670  3.4039
  604MOL0     H83329   4.916   8.006   9.798  1.1438 -2.8788  0.0441
  604MOL0     H83330   4.888   7.809   9.625 -2.3194 -1.3665 -0.9393
  604MOL0     H83331   4.880   7.980   9.554  2.5359 -0.7135  0.2865
  604MOL0     H83332   4.565   8.589   9.407  1.0826 -2.0017  1.0292
  604MOL0     H83333   4.616   8.739   9.208 -1.6943  3.2162 -0.5463
  604MOL0     H83334   4.925   9.303   9.201 -0.9636  2.5478 -0.2068
  604MOL0     H83335   4.910   9.466   9.017 -2.2845  1.5839 -1.1230
  604MOL0     H83336   4.956  10.189   7.338  0.2218  0.3476  0.6044
  604MOL0     H83337   5.041  10.280   7.144 -0.7276 -2.2568 -0.0412
  604MOL0     H83338   5.390  10.275   6.750  0.8255 -0.2991  3.8876
  604MOL0     H83339   5.419  10.411   6.550  0.1378  0.0673 -0.1968
  604MOL0     H83340   5.364  10.838   6.583  0.0720  0.6316  0.7209
  604MOL0     H83341   5.539  10.838   6.621 -0.8238  1.7014  0.3279
  604MOL0     H83342   5.427  10.939   6.395 -3.1889 -1.0125 -3.0550
  604MOL0     H83343   5.449  10.784   6.324  1.1064 -0.4362 -0.1173
  604MOL0     H83344   5.690  10.808   6.473 -0.9081 -0.9602 -0.3134
  604MOL0     H83345   5.667  10.800   6.302  0.1347 -0.5468  0.2904
  604MOL0     H83346   5.699  11.050   6.483  0.4678 -3.5547  1.8736
  604MOL0     H83347   5.637  11.053   6.311 -1.3807 -0.9526 -0.3104
  604MOL0     H83348   6.061  10.945   6.327 -0.7208 -1.9323  3.6011
  604MOL0     H83349   5.428  10.752   6.790  2.3911 -0.4289 -1.3434
  604MOL0     H83350   5.385  10.769   7.024 -1.2436  0.6447  0.5030
  604MOL0     H83351   5.266  10.653   7.065  0.0340  3.2981  2.1391
  604MOL0     H83352   5.437  10.622   7.113  0.8388  0.7512  0.1127
  605MOL0     O83353   3.673  10.944  10.950  0.0491  0.0646  0.1720
  605MOL0     C83354   3.642  10.867  10.857  0.7242  1.4661  0.3435
  605MOL0     O83355   3.615  10.899  10.728  0.7926  0.3646  0.5676
  605MOL0     C83356   3.635  11.028  10.693 -0.0277 -0.1497 -0.0197
  605MOL0     C83357   3.751  11.058  10.617 -0.3142  0.1955 -0.1131
  605MOL0     C83358   3.761  11.188  10.560 -0.0871 -0.3902  0.8284
  605MOL0     C83359   3.668  11.286  10.577  0.9868 -0.2527 -0.2322
  605MOL0     O83360   3.694  11.409  10.524  0.0070  0.0730 -0.0232
  605MOL0     C83361   3.618  11.530  10.542  0.0968 -0.3035  0.3629
  605MOL0     C83362   3.509  11.523  10.432  0.0905 -0.8022 -0.4658
  605MOL0     C83363   3.379  11.572  10.481  0.3931  0.0808  0.3159
  605MOL0     C83364   3.377  11.688  10.580 -0.0549  0.8120 -0.2127
  605MOL0     C83365   3.244  11.770  10.576  0.3256 -0.0851 -0.2092
  605MOL0     C83366   3.116  11.685  10.598  0.0651 -0.8225  0.1055
  605MOL0     C83367   3.085  11.636  10.746  0.4616  0.0087  0.9271
  605MOL0     C83368   2.935  11.601  10.773  0.1201  0.2303  0.0151
  605MOL0     N83369   2.913  11.488  10.675  0.1400 -0.4595  0.4670
  605MOL0     C83370   2.838  11.505  10.560 -0.6993  0.5556 -0.0951
  605MOL0     C83371   2.837  11.380  10.508 -0.0931 -0.7966  0.3181
  605MOL0     C83372   2.753  11.348  10.391  0.9339  0.5619  0.7354
  605MOL0     C83373   2.828  11.244  10.296 -0.2748  0.3712  0.3511
  605MOL0     C83374   2.741  11.185  10.187  0.1319 -0.1748  0.1597
  605MOL0     C83375   2.813  11.066  10.131 -0.1077  0.1888 -0.3052
  605MOL0     O83376   2.932  11.112  10.060  0.2725 -0.5300 -0.0638
  605MOL0     C83377   3.012  11.005  10.023 -0.9375  0.3795 -0.1985
  605MOL0     C83378   3.103  11.034   9.926 -0.8224 -0.3572  0.0445
  605MOL0     C83379   3.196  10.946   9.876 -0.7247  0.5266  0.0163
  605MOL0     C83380   3.296  11.000   9.778 -1.3077 -1.4880  0.3169
  605MOL0     C83381   3.195  10.808   9.930  0.5860 -0.3404  0.5529
  605MOL0     C83382   3.290  10.708   9.895 -0.3949  0.4306 -0.2984
  605MOL0     O83383   3.395  10.748   9.827  0.4342 -0.2407 -0.7601
  605MOL0     C83384   3.478  10.663   9.761  0.3863 -0.4337  0.1311
  605MOL0     C83385   3.616  10.667   9.792 -0.1855  0.2204  0.7124
  605MOL0     C83386   3.708  10.574   9.745 -0.2752 -0.2468 -0.3179
  605MOL0     C83387   3.666  10.465   9.664  0.4872  0.0442 -0.2707
  605MOL0     O83388   3.740  10.361   9.614 -0.0428 -0.2334  0.2970
  605MOL0     C83389   3.881  10.394   9.610  0.6669 -0.0384  0.6702
  605MOL0     C83390   3.971  10.290   9.544 -0.5793 -0.0124 -0.4855
  605MOL0     C83391   3.971  10.174   9.645  0.2913 -0.4985  0.6735
  605MOL0     C83392   4.071  10.068   9.603  0.0282 -0.2755 -0.0680
  605MOL0     C83393   4.106   9.956   9.707  0.2793  0.0263 -0.3186
  605MOL0     C83394   3.994   9.903   9.788  0.0302 -0.9045  0.0093
  605MOL0     C83395   3.890   9.832   9.697 -0.6980 -0.5930  0.0761
  605MOL0     C83396   3.779   9.763   9.779 -0.1983  0.2716 -0.5146
  605MOL0    Cl83397   3.666   9.895   9.830  0.1623 -0.5089  0.1437
  605MOL0     C83398   3.529  10.468   9.628  0.2272  0.3878  0.3531
  605MOL0     C83399   3.433  10.558   9.678 -0.7059  0.5246  0.1597
  605MOL0     O83400   3.271  10.592   9.927 -0.1456  0.1352  0.6350
  605MOL0     C83401   3.103  10.778  10.027 -0.1716 -0.1767  0.5151
  605MOL0     C83402   3.013  10.870  10.076 -0.3560 -0.4807  0.2403
  605MOL0     N83403   2.904  11.292  10.587 -0.1589 -0.1614 -0.1472
  605MOL0     N83404   2.942  11.355  10.689  0.4369 -0.1718  0.2004
  605MOL0     C83405   3.556  11.254  10.662  0.0785 -0.8766  0.0873
  605MOL0     C83406   3.542  11.131  10.723 -0.8459  0.2815 -0.1373
  605MOL0     C83407   3.635  10.720  10.899  0.2894 -0.9135 -0.0666
  605MOL0     C83408   3.743  10.667  10.962  1.1439 -0.2371  0.0857
  605MOL0     C83409   3.754  10.529  10.985  0.1947 -0.0553 -0.0242
  605MOL0     C83410   3.658  10.447  10.930 -0.2184 -0.7058  0.5210
  605MOL0     O83411   3.669  10.310  10.938 -0.0698  0.6288  0.6628
  605MOL0     C83412   3.692  10.252  11.068  0.1018 -0.3244  0.2968
  605MOL0     C83413   3.565  10.225  11.141  0.3336  0.6797 -0.2245
  605MOL0     C83414   3.502  10.097  11.070 -0.2852 -0.0720  0.1095
  605MOL0     C83415   3.385  10.057  11.153  0.2775 -0.4755 -0.6802
  605MOL0     C83416   3.319   9.944  11.095 -0.2318 -0.9882 -0.0876
  605MOL0     C83417   3.287   9.842  11.048  1.1511  0.2403 -0.1314
  605MOL0     C83418   3.545  10.500  10.864 -0.4535 -0.2194  0.6361
  605MOL0     C83419   3.533  10.636  10.841 -0.3220  0.9119  0.8672
  605MOL0     C83420   3.413  10.684  10.765  1.0965  0.6193  0.2145
  605MOL0     H83421   3.819  10.975  10.599  0.7448  1.4872 -2.5882
  605MOL0     H83422   3.847  11.221  10.503 -1.8476  1.9027 -0.6659
  605MOL0     H83423   3.670  11.626  10.530  1.1688 -0.7956  0.9354
  605MOL0     H83424   3.558  11.522  10.632 -2.5779 -2.3360 -1.4353
  605MOL0     H83425   3.544  11.586  10.350  0.3189  0.5325  0.6059
  605MOL0     H83426   3.508  11.423  10.387  2.4915  0.1288 -2.8873
  605MOL0     H83427   3.322  11.599  10.392 -0.3387 -0.8202  0.4953
  605MOL0     H83428   3.317  11.495  10.528 -0.1868  0.6304  0.4553
  605MOL0     H83429   3.397  11.658  10.683 -2.6184 -1.0755 -0.1747
  605MOL0     H83430   3.453  11.760  10.548  1.7736 -1.4690 -1.2974
  605MOL0     H83431   3.238  11.814  10.476  1.0089 -1.2867 -0.7994
  605MOL0     H83432   3.249  11.855  10.644  0.9625 -2.6090  3.1133
  605MOL0     H83433   3.027  11.744  10.578 -1.4714 -2.7012  1.0357
  605MOL0     H83434   3.122  11.601  10.528 -0.3180  0.4977 -1.5566
  605MOL0     H83435   3.119  11.708  10.821 -2.1452  1.6940  0.5996
  605MOL0     H83436   3.145  11.545  10.762  1.1132  0.1845 -0.3334
  605MOL0     H83437   2.925  11.555  10.872  1.9254  0.4182  0.3054
  605MOL0     H83438   2.883  11.697  10.769 -0.2033  0.0160 -1.2094
  605MOL0     H83439   2.799  11.597  10.520  2.1551  1.6203 -0.7229
  605MOL0     H83440   2.716  11.435  10.337 -0.4825 -0.2660  0.3043
  605MOL0     H83441   2.660  11.302  10.425  1.5639 -1.7378 -0.4158
  605MOL0     H83442   2.908  11.297  10.245 -1.3967  1.0277 -0.7928
  605MOL0     H83443   2.877  11.167  10.355 -3.7207 -3.5281 -1.3528
  605MOL0     H83444   2.650  11.157  10.242  0.7732 -0.1011  1.3068
  605MOL0     H83445   2.728  11.260  10.109 -1.0845 -0.3448  0.1750
  605MOL0     H83446   2.836  10.989  10.205 -1.6266 -0.0812 -0.0984
  605MOL0     H83447   2.737  11.019  10.068 -0.3953 -0.5974  0.6048
  605MOL0     H83448   3.106  11.140   9.904  0.9283  0.1199  2.1885
  605MOL0     H83449   3.397  11.007   9.818 -0.2370  0.0488 -2.4125
  605MOL0     H83450   3.269  11.101   9.746 -1.1358 -0.9251  1.8688
  605MOL0     H83451   3.297  10.945   9.684  0.9005 -2.8486  1.0527
  605MOL0     H83452   3.640  10.752   9.855  4.4185  1.4485 -2.1882
  605MOL0     H83453   3.809  10.587   9.782 -0.0241 -2.5404 -0.0932
  605MOL0     H83454   3.891  10.482   9.547  0.2269 -1.9214 -2.2061
  605MOL0     H83455   3.915  10.414   9.713 -2.4517  1.0807  1.5812
  605MOL0     H83456   3.943  10.248   9.447 -0.7700 -1.3942  0.1467
  605MOL0     H83457   4.069  10.336   9.527 -0.4387  0.4940  1.4790
  605MOL0     H83458   3.870  10.130   9.645 -1.3818  2.8742 -1.7540
  605MOL0     H83459   3.997  10.218   9.741 -0.5388  1.2488  0.1395
  605MOL0     H83460   4.163  10.116   9.569  1.1215 -2.5694 -0.5341
  605MOL0     H83461   4.045  10.009   9.515  2.6573 -2.1451  0.2863
  605MOL0     H83462   4.151   9.872   9.654  0.9211 -0.6293  1.2259
  605MOL0     H83463   4.180   9.992   9.778 -0.8480  0.1300  0.8300
  605MOL0     H83464   3.946   9.973   9.857  0.8953 -1.1522  0.8880
  605MOL0     H83465   4.045   9.832   9.853 -2.2872 -0.8757  1.9666
  605MOL0     H83466   3.942   9.754   9.640 -2.1657 -0.2095 -1.9223
  605MOL0     H83467   3.850   9.900   9.621  1.8440  0.2639 -0.5893
  605MOL0     H83468   3.815   9.712   9.869 -0.7583  2.2467  0.9096
  605MOL0     H83469   3.726   9.693   9.714 -3.1501  1.6888  0.1735
  605MOL0     H83470   3.498  10.398   9.550  3.1361  3.1245 -3.6860
  605MOL0     H83471   3.330  10.540   9.648 -0.0313 -0.3974 -1.7845
  605MOL0     H83472   3.094  10.674  10.055  1.1518 -0.4437  0.0319
  605MOL0     H83473   2.940  10.838  10.149 -2.0423  0.0643 -1.1259
  605MOL0     H83474   3.487  11.329  10.699 -0.6899 -1.5764  0.0968
  605MOL0     H83475   3.457  11.100  10.784 -1.0766  0.3031 -0.4419
  605MOL0     H83476   3.813  10.743  10.998  0.9391 -0.1957  0.3940
  605MOL0     H83477   3.838  10.484  11.037 -0.8309  0.1776  1.9119
  605MOL0     H83478   3.741  10.155  11.058 -3.2301 -2.2716  1.4032
  605MOL0     H83479   3.750  10.318  11.134 -0.0466 -1.2216  1.3569
  605MOL0     H83480   3.498  10.312  11.138  0.7343  1.0655  1.4238
  605MOL0     H83481   3.574  10.207  11.248 -1.0022  0.8597 -0.0562
  605MOL0     H83482   3.468  10.125  10.969  0.5289  3.7808  0.7430
  605MOL0     H83483   3.561  10.006  11.060 -2.1847 -1.2103 -1.6664
  605MOL0     H83484   3.319  10.144  11.159  0.5586 -0.0180 -3.1676
  605MOL0     H83485   3.412  10.030  11.255 -0.5824 -0.9952 -0.5885
  605MOL0     H83486   3.240   9.752  11.014  0.0139  1.0628 -0.7877
  605MOL0     H83487   3.471  10.432  10.823 -0.6914  0.5560 -0.2363
  605MOL0     H83488   3.318  10.660  10.814  1.3165  0.0994  0.3885
  605MOL0     H83489   3.414  10.792  10.747  1.0406  0.5414 -0.2970
  605MOL0     H83490   3.418  10.647  10.662 -0.9333  3.7592 -1.1779
  606MOL0     O83491   3.433   1.091   6.621 -0.2212 -0.0989  0.0642
  606MOL0     C83492   3.322   1.054   6.662 -0.3668 -1.0508 -0.2251
  606MOL0     O83493   3.282   1.068   6.789 -0.3504 -0.3526  0.7520
  606MOL0     C83494   3.370   1.085   6.888 -0.5389  0.5538  0.8305
  606MOL0     C83495   3.428   1.211   6.918  0.1973 -0.2532 -0.4098
  606MOL0     C83496   3.522   1.225   7.016 -0.0990  0.3781 -0.3424
  606MOL0     C83497   3.565   1.115   7.085  0.0655  0.1212 -0.2816
  606MOL0     O83498   3.661   1.140   7.182  0.3812  0.4528  0.2922
  606MOL0     C83499   3.719   1.029   7.252  0.3166 -0.4898  0.3131
  606MOL0     C83500   3.843   1.082   7.325 -0.1172 -0.6160 -0.5428
  606MOL0     C83501   3.826   1.176   7.449 -0.1453 -0.0818  0.1423
  606MOL0     C83502   3.947   1.158   7.541  0.2076  0.5895  0.8130
  606MOL0     C83503   3.910   1.220   7.683 -0.7226  0.2633  0.9072
  606MOL0     C83504   3.928   1.378   7.684  0.3101  0.4560  0.3690
  606MOL0     C83505   4.076   1.419   7.693 -0.2156 -0.0556  0.4005
  606MOL0     C83506   4.095   1.562   7.647 -0.3409  0.2612  0.6755
  606MOL0     N83507   4.024   1.672   7.726 -0.1463  0.2514 -0.6566
  606MOL0     C83508   3.912   1.745   7.699  0.4666 -0.7222 -0.2808
  606MOL0     C83509   3.889   1.830   7.800 -0.5013  0.8330 -0.9609
  606MOL0     C83510   3.776   1.924   7.815 -0.8124 -0.2879  0.2141
  606MOL0     C83511   3.647   1.848   7.828  0.7987 -0.6621  0.7720
  606MOL0     C83512   3.528   1.942   7.831 -0.5446 -0.6334 -1.0673
  606MOL0     C83513   3.389   1.868   7.839 -0.8651 -0.2642 -0.4776
  606MOL0     O83514   3.377   1.808   7.709 -0.4937 -1.0226 -0.4034
  606MOL0     C83515   3.297   1.877   7.613 -0.2655  0.1964 -0.2893
  606MOL0     C83516   3.256   2.007   7.622  0.3790 -0.0492 -1.2404
  606MOL0     C83517   3.172   2.067   7.521 -0.1932  0.5267 -0.4882
  606MOL0     C83518   3.128   2.210   7.542 -0.3539 -0.3162  0.1867
  606MOL0     C83519   3.133   1.988   7.414 -0.2591  0.5736  0.9347
  606MOL0     C83520   3.062   2.038   7.300 -0.4162 -0.7588  0.0715
  606MOL0     O83521   3.083   1.961   7.189  0.3093 -0.1115  0.0034
  606MOL0     C83522   3.038   2.003   7.064  0.0617 -0.3720 -0.1404
  606MOL0     C83523   3.040   2.126   7.019 -0.0929 -1.0818  0.4816
  606MOL0     C83524   3.006   2.155   6.892  1.0706 -0.1399  0.2623
  606MOL0     C83525   2.998   2.053   6.795 -0.0543  0.6546 -0.8576
  606MOL0     O83526   2.978   2.070   6.656  1.3341  0.5364  0.0833
  606MOL0     C83527   2.954   2.202   6.608 -0.0313  0.7342 -0.2756
  606MOL0     C83528   2.905   2.189   6.459 -0.5035 -0.3395 -0.1176
  606MOL0     C83529   3.014   2.107   6.375 -0.3197 -0.7141 -0.0885
  606MOL0     C83530   2.955   2.095   6.239 -0.5559  0.2764  0.1407
  606MOL0     C83531   3.049   2.015   6.143 -0.5643 -0.4337  0.4358
  606MOL0     C83532   3.141   2.113   6.072 -0.0451  0.0425  0.1011
  606MOL0     C83533   3.202   2.063   5.942 -0.2212  0.1946 -0.4983
  606MOL0     C83534   3.320   1.978   5.976  0.2768 -0.0348  0.1869
  606MOL0    Cl83535   3.341   1.859   5.833 -0.6302 -0.3778  0.0802
  606MOL0     C83536   3.008   1.924   6.839  0.4299 -0.5080 -0.7399
  606MOL0     C83537   3.028   1.893   6.975 -0.6554 -0.2912  0.1588
  606MOL0     O83538   2.993   2.143   7.304  0.2110  0.1276 -0.6079
  606MOL0     C83539   3.187   1.855   7.404  0.7279  0.1790  0.1901
  606MOL0     C83540   3.262   1.798   7.501 -0.5707 -0.3460 -0.7184
  606MOL0     N83541   3.990   1.813   7.893  0.3115 -0.2084  0.1317
  606MOL0     N83542   4.072   1.722   7.850 -0.4238 -0.2519 -0.3200
  606MOL0     C83543   3.528   0.982   7.037  0.4777 -0.7132 -0.2885
  606MOL0     C83544   3.417   0.973   6.951 -0.1011  0.3616 -0.3808
  606MOL0     C83545   3.221   1.004   6.563 -0.2125  0.5782 -1.0162
  606MOL0     C83546   3.086   0.992   6.604 -0.8607  0.5224 -0.3175
  606MOL0     C83547   2.982   0.967   6.513 -0.5307 -0.4702 -0.0864
  606MOL0     C83548   3.015   0.935   6.378 -0.2752  0.6396  0.1139
  606MOL0     O83549   2.924   0.943   6.272  0.7100 -0.4697 -0.4849
  606MOL0     C83550   2.787   0.938   6.301  0.9531  0.6528  0.0139
  606MOL0     C83551   2.727   0.802   6.325 -0.2232  0.6046  0.7310
  606MOL0     C83552   2.579   0.793   6.286  0.3745  0.4101  0.7097
  606MOL0     C83553   2.514   0.650   6.284 -0.3888 -0.2662 -1.0479
  606MOL0     C83554   2.553   0.583   6.407 -0.5251  0.3127 -0.3323
  606MOL0     C83555   2.565   0.518   6.511  0.4897  0.3263 -0.0351
  606MOL0     C83556   3.149   0.912   6.345  0.0074 -0.0757 -0.3266
  606MOL0     C83557   3.254   0.963   6.428 -0.0951 -0.0878  0.4778
  606MOL0     C83558   3.389   0.961   6.355  0.3269 -1.2429  0.1868
  606MOL0     H83559   3.388   1.293   6.859 -1.3274 -0.6044  0.1185
  606MOL0     H83560   3.549   1.328   7.037 -1.3085  1.1630 -2.3345
  606MOL0     H83561   3.771   0.959   7.185  0.2711 -0.9080  0.7088
  606MOL0     H83562   3.648   0.971   7.312 -2.0098 -1.0519 -2.7600
  606MOL0     H83563   3.914   1.002   7.347 -0.5103 -1.5388 -2.4419
  606MOL0     H83564   3.902   1.136   7.250 -0.0110  0.5309  0.3314
  606MOL0     H83565   3.823   1.280   7.414  0.5145  0.5460  1.8817
  606MOL0     H83566   3.729   1.158   7.496  0.0643 -1.0735  0.2183
  606MOL0     H83567   3.954   1.049   7.554 -1.4020  0.1194 -1.5514
  606MOL0     H83568   4.040   1.198   7.501  0.8540 -0.9191  0.7428
  606MOL0     H83569   3.973   1.172   7.759 -2.9741 -1.0745  2.0453
  606MOL0     H83570   3.810   1.191   7.716 -0.3535 -1.6833  0.4328
  606MOL0     H83571   3.891   1.413   7.587 -0.2334 -0.5626  0.1972
  606MOL0     H83572   3.860   1.420   7.759  1.6935  1.8036  0.9146
  606MOL0     H83573   4.141   1.350   7.638 -0.9318 -0.6032  0.2406
  606MOL0     H83574   4.103   1.411   7.799  1.4500  2.5187  0.2785
  606MOL0     H83575   4.199   1.587   7.625 -0.7747 -0.2842 -2.4468
  606MOL0     H83576   4.043   1.577   7.552  0.1536  0.3181  0.4154
  606MOL0     H83577   3.856   1.726   7.608  1.7311  0.0790 -1.2668
  606MOL0     H83578   3.787   1.999   7.737  0.2953  0.2622  0.8683
  606MOL0     H83579   3.803   1.979   7.906  3.6503 -0.3918 -0.7803
  606MOL0     H83580   3.644   1.787   7.737  1.3745 -0.2080  0.4404
  606MOL0     H83581   3.649   1.786   7.918 -0.6417  2.7453  3.3743
  606MOL0     H83582   3.537   1.993   7.927 -3.1112 -2.8970  0.5411
  606MOL0     H83583   3.530   2.010   7.745  3.4182  0.9763  0.0841
  606MOL0     H83584   3.382   1.780   7.903 -0.6757  0.5733  0.7339
  606MOL0     H83585   3.304   1.933   7.861  0.5865  1.6529 -0.2361
  606MOL0     H83586   3.278   2.063   7.712 -1.9743 -3.8260  2.0100
  606MOL0     H83587   3.031   2.218   7.592  0.9518  2.2808  2.6003
  606MOL0     H83588   3.149   2.262   7.448  2.4836  0.4682  1.1588
  606MOL0     H83589   3.193   2.255   7.618 -1.0923 -1.8725  1.8125
  606MOL0     H83590   3.052   2.209   7.088  2.3861 -0.7039 -0.2913
  606MOL0     H83591   2.995   2.257   6.857 -3.7548 -0.4067  0.3530
  606MOL0     H83592   2.869   2.250   6.658 -1.0116  0.2931 -1.4713
  606MOL0     H83593   3.039   2.271   6.618 -0.5966  1.7003 -1.7265
  606MOL0     H83594   2.808   2.138   6.463 -1.2294  1.0519  0.6610
  606MOL0     H83595   2.898   2.291   6.423  2.7247 -0.2449 -0.7695
  606MOL0     H83596   3.021   2.004   6.410 -2.0574 -1.7451 -2.5335
  606MOL0     H83597   3.110   2.160   6.370 -1.0761  0.8416  1.1851
  606MOL0     H83598   2.941   2.192   6.191 -1.5755 -0.3059 -0.8000
  606MOL0     H83599   2.863   2.037   6.244 -0.5129  0.3383  2.5416
  606MOL0     H83600   3.101   1.937   6.199  0.6213  0.6790  0.9390
  606MOL0     H83601   3.001   1.966   6.057  0.9495  2.3530 -2.2102
  606MOL0     H83602   3.218   2.144   6.143  0.7164 -0.3598 -0.5351
  606MOL0     H83603   3.082   2.201   6.046 -0.8903 -0.6473 -0.3699
  606MOL0     H83604   3.225   2.148   5.877 -2.3274  0.7743 -0.5830
  606MOL0     H83605   3.125   2.002   5.893  0.1464 -0.3715 -0.3837
  606MOL0     H83606   3.313   1.934   6.076 -4.1186  0.1931  0.1639
  606MOL0     H83607   3.410   2.041   5.979 -0.8963  1.6620  1.8819
  606MOL0     H83608   2.998   1.853   6.758 -0.9731 -1.4777  0.2438
  606MOL0     H83609   3.041   1.788   6.998  2.9474 -0.4402 -1.8326
  606MOL0     H83610   3.173   1.800   7.311  3.7530 -1.7534  0.7248
  606MOL0     H83611   3.302   1.699   7.488  1.4043  0.5021 -1.4267
  606MOL0     H83612   3.575   0.889   7.067 -0.7545 -0.4631  2.8434
  606MOL0     H83613   3.403   0.872   6.914  0.6202 -0.5279  1.6453
  606MOL0     H83614   3.059   1.017   6.705  1.8974 -3.0228  1.5400
  606MOL0     H83615   2.883   0.954   6.556 -0.2713 -1.1424  0.3094
  606MOL0     H83616   2.761   1.010   6.380  3.1472 -0.1469  1.5677
  606MOL0     H83617   2.734   0.981   6.215 -2.2370 -0.6214  1.1683
  606MOL0     H83618   2.731   0.779   6.432 -0.5637  1.5811  0.9726
  606MOL0     H83619   2.782   0.729   6.266 -1.9181 -0.4084  0.3362
  606MOL0     H83620   2.532   0.864   6.354 -2.0939 -0.0539 -0.3987
  606MOL0     H83621   2.572   0.833   6.185 -1.9772  2.3688  1.5598
  606MOL0     H83622   2.555   0.602   6.195  1.5706  0.2066 -0.4518
  606MOL0     H83623   2.405   0.653   6.271 -0.3917  1.0006 -0.8122
  606MOL0     H83624   2.557   0.459   6.599 -0.2768  0.8220  0.2304
  606MOL0     H83625   3.170   0.879   6.244  1.1520 -2.0874  0.5206
  606MOL0     H83626   3.376   0.974   6.247  1.8369  3.4209  0.3612
  606MOL0     H83627   3.440   1.056   6.371 -0.6766 -0.1137 -2.6751
  606MOL0     H83628   3.437   0.864   6.374 -2.5999 -2.4903  2.0306
  607MOL0     O83629   4.269   2.418  11.241  0.3895 -0.3179  0.3373
  607MOL0     C83630   4.267   2.429  11.359  0.6207 -0.7579  0.6343
  607MOL0     O83631   4.162   2.474  11.438  0.4699 -0.3239 -0.4074
  607MOL0     C83632   4.038   2.492  11.381  0.0019  0.3296  0.0911
  607MOL0     C83633   3.970   2.377  11.327  0.0567 -0.2614  0.2103
  607MOL0     C83634   3.831   2.380  11.294  0.0475 -0.0784 -0.8924
  607MOL0     C83635   3.763   2.504  11.300 -0.1450  0.1034  0.8892
  607MOL0     O83636   3.626   2.518  11.263 -0.0583  0.4133  0.2978
  607MOL0     C83637   3.545   2.398  11.249 -0.0691  0.0802  0.7886
  607MOL0     C83638   3.404   2.431  11.300 -0.5668 -0.0469  0.1515
  607MOL0     C83639   3.299   2.333  11.250 -0.6448 -0.5858 -0.1612
  607MOL0     C83640   3.156   2.389  11.249  0.0628 -0.0721  0.0986
  607MOL0     C83641   3.091   2.392  11.386 -0.0769 -0.1101  0.1775
  607MOL0     C83642   2.936   2.423  11.376  0.1316  0.2692 -0.0476
  607MOL0     C83643   2.875   2.410  11.508 -0.7666  0.2016 -0.7770
  607MOL0     C83644   2.720   2.396  11.490 -0.3231  0.5205  0.3417
  607MOL0     N83645   2.640   2.396  11.619 -0.2306 -0.0495  0.4167
  607MOL0     C83646   2.512   2.443  11.628  0.1594  0.3891  0.6200
  607MOL0     C83647   2.480   2.474  11.759  0.1546  1.0143  0.4417
  607MOL0     C83648   2.347   2.532  11.818  0.3305 -0.5767  0.1235
  607MOL0     C83649   2.347   2.686  11.820 -0.5721  0.8525  0.6134
  607MOL0     C83650   2.252   2.749  11.724 -0.4224 -1.3241  0.2153
  607MOL0     C83651   2.235   2.893  11.741 -0.4411  0.0109  0.9576
  607MOL0     O83652   2.199   2.927  11.871  0.1592 -0.0211  0.3509
  607MOL0     C83653   2.186   3.058  11.902  0.0957  0.1631  0.0073
  607MOL0     C83654   2.163   3.079  12.034  0.3180  0.1888 -1.1614
  607MOL0     C83655   2.152   3.211  12.083 -0.2839  1.1038  0.0874
  607MOL0     C83656   2.119   3.223  12.228  1.0959 -1.1546 -0.7253
  607MOL0     C83657   2.173   3.319  12.000 -0.2793  0.0107  0.8414
  607MOL0     C83658   2.177   3.462  12.050 -1.2969  0.3141  0.2749
  607MOL0     O83659   2.296   3.520  12.024 -0.6647 -0.1352  0.8546
  607MOL0     C83660   2.322   3.632  12.094 -0.1957  0.5656 -1.1485
  607MOL0     C83661   2.374   3.622  12.225 -0.2262  0.2623 -0.7256
  607MOL0     C83662   2.396   3.745  12.292 -0.0262  0.3006 -0.4936
  607MOL0     C83663   2.355   3.873  12.242  0.3332 -0.3183  0.6336
  607MOL0     O83664   2.347   3.987  12.311 -0.1845  0.2164 -0.0002
  607MOL0     C83665   2.281   3.981  12.436  0.4123  0.0162 -0.1540
  607MOL0     C83666   2.348   4.086  12.539 -0.0884 -0.1852  0.9976
  607MOL0     C83667   2.504   4.091  12.522  0.0407 -0.2549 -0.1611
  607MOL0     C83668   2.548   4.165  12.649 -0.6452  0.6967  0.5197
  607MOL0     C83669   2.700   4.156  12.674 -0.4172  0.5185  0.5457
  607MOL0     C83670   2.743   4.222  12.806 -0.0188  0.4211 -0.3025
  607MOL0     C83671   2.887   4.207  12.847 -0.0342  0.0779  0.4973
  607MOL0     C83672   2.974   4.286  12.758  0.8949 -0.3178 -0.3805
  607MOL0    Cl83673   2.927   4.453  12.726  0.4550 -0.5128 -0.1338
  607MOL0     C83674   2.287   3.883  12.119  0.1246 -0.1023  0.2326
  607MOL0     C83675   2.276   3.763  12.045  0.1906  0.7961  0.6187
  607MOL0     O83676   2.096   3.508  12.127  0.7442  0.4544  0.2992
  607MOL0     C83677   2.198   3.295  11.863 -0.0565 -0.0163 -0.2239
  607MOL0     C83678   2.205   3.163  11.814 -0.3076 -0.3588 -0.6071
  607MOL0     N83679   2.594   2.429  11.821  0.6378 -0.5623 -0.7178
  607MOL0     N83680   2.683   2.376  11.746  0.1267  0.2995 -0.3079
  607MOL0     C83681   3.826   2.619  11.354 -0.1087 -0.8492 -0.6598
  607MOL0     C83682   3.963   2.610  11.395  0.1620  0.0340 -0.1769
  607MOL0     C83683   4.396   2.430  11.432 -0.7440 -0.2836 -0.4161
  607MOL0     C83684   4.404   2.491  11.553  0.0341  0.1241  0.4154
  607MOL0     C83685   4.520   2.499  11.628 -0.3800  0.1826  0.3700
  607MOL0     C83686   4.643   2.441  11.585 -0.3120 -0.0052 -0.1980
  607MOL0     O83687   4.766   2.436  11.657  0.8179 -0.4051 -0.3946
  607MOL0     C83688   4.755   2.484  11.791  0.3770 -0.6623 -0.9207
  607MOL0     C83689   4.896   2.468  11.853  0.6135 -0.0017  0.4612
  607MOL0     C83690   5.003   2.559  11.784  0.6156 -0.3947  0.4951
  607MOL0     C83691   5.142   2.494  11.801 -0.4949  0.3336 -0.6721
  607MOL0     C83692   5.238   2.525  11.689 -0.5139  0.0877  0.1491
  607MOL0     C83693   5.318   2.549  11.601  0.8384 -0.0416  0.0324
  607MOL0     C83694   4.636   2.373  11.461  0.4211 -0.7570 -0.3931
  607MOL0     C83695   4.513   2.370  11.382  0.6076  0.3961 -0.8059
  607MOL0     C83696   4.522   2.284  11.254 -0.2225  0.1384  0.1869
  607MOL0     H83697   4.015   2.279  11.323 -0.3640 -0.5120  1.1570
  607MOL0     H83698   3.794   2.284  11.262  0.9906 -0.9666  0.5657
  607MOL0     H83699   3.597   2.314  11.297 -1.1224 -3.4683 -3.6141
  607MOL0     H83700   3.538   2.360  11.147 -0.1017  2.3456 -0.1017
  607MOL0     H83701   3.407   2.437  11.409  0.6386  1.7554  0.0633
  607MOL0     H83702   3.368   2.525  11.257 -0.4047  0.7959  1.7823
  607MOL0     H83703   3.321   2.314  11.144 -0.5165  1.9454 -0.6506
  607MOL0     H83704   3.293   2.234  11.295 -0.9368 -1.0147 -1.1097
  607MOL0     H83705   3.152   2.486  11.197  2.6201  1.1199  1.8973
  607MOL0     H83706   3.105   2.314  11.189  0.2052 -0.0448 -0.0592
  607MOL0     H83707   3.140   2.470  11.445 -2.3233  0.5506  1.2785
  607MOL0     H83708   3.107   2.297  11.438 -2.1187 -0.2542  0.6024
  607MOL0     H83709   2.923   2.526  11.343 -0.1605  0.9735  2.1125
  607MOL0     H83710   2.897   2.344  11.310  3.3713  0.7864 -2.9224
  607MOL0     H83711   2.899   2.503  11.560  1.0584  0.0471 -1.2844
  607MOL0     H83712   2.917   2.327  11.565 -1.9711  0.8900  1.2242
  607MOL0     H83713   2.685   2.484  11.435 -1.9243  0.4557  1.2099
  607MOL0     H83714   2.699   2.302  11.439  0.6123 -0.6935  2.0971
  607MOL0     H83715   2.458   2.475  11.540 -2.3392  2.8626  2.8802
  607MOL0     H83716   2.340   2.497  11.921  0.8492 -0.0292  0.3539
  607MOL0     H83717   2.261   2.495  11.761  1.2055 -0.7624 -1.1250
  607MOL0     H83718   2.331   2.715  11.925 -0.7951  1.8812  0.3124
  607MOL0     H83719   2.446   2.727  11.797 -0.5112 -0.6777 -2.3036
  607MOL0     H83720   2.292   2.744  11.623  0.6160 -1.4898  0.6196
  607MOL0     H83721   2.157   2.695  11.732  0.8412 -3.5958  0.8784
  607MOL0     H83722   2.322   2.955  11.718  0.8938 -1.9389  0.5663
  607MOL0     H83723   2.159   2.925  11.668  2.0964 -0.5456 -2.1267
  607MOL0     H83724   2.155   2.991  12.097 -1.0115  0.4427 -0.9487
  607MOL0     H83725   2.022   3.273  12.240  0.0279 -3.4579  0.8864
  607MOL0     H83726   2.198   3.287  12.268  1.2406 -1.8019  0.0438
  607MOL0     H83727   2.125   3.127  12.280 -1.6119 -1.3045 -0.5796
  607MOL0     H83728   2.408   3.523  12.252 -1.0244 -0.2205 -1.4476
  607MOL0     H83729   2.459   3.746  12.380  3.2070 -1.7249 -2.5675
  607MOL0     H83730   2.181   4.022  12.422  0.1896 -0.2177  0.7076
  607MOL0     H83731   2.267   3.897  12.504  1.7728  1.1447  1.6190
  607MOL0     H83732   2.305   4.185  12.526  0.1745 -0.1018  0.7584
  607MOL0     H83733   2.323   4.042  12.636 -2.0955  0.1511  0.6638
  607MOL0     H83734   2.532   4.138  12.427  0.2208 -0.0763 -0.0216
  607MOL0     H83735   2.548   3.991  12.530 -0.5776 -0.5819 -0.7305
  607MOL0     H83736   2.496   4.125  12.737  0.2016  0.1720  0.7895
  607MOL0     H83737   2.523   4.271  12.647  2.6810  1.6049  1.3694
  607MOL0     H83738   2.738   4.055  12.655 -1.1166  0.2990  0.2960
  607MOL0     H83739   2.743   4.214  12.592 -3.7099  3.7331  0.8137
  607MOL0     H83740   2.673   4.175  12.877 -3.5375 -0.5561 -4.0446
  607MOL0     H83741   2.720   4.328  12.795 -3.2292 -0.3654 -2.4405
  607MOL0     H83742   2.930   4.107  12.836 -0.8284 -0.4683  2.0340
  607MOL0     H83743   2.893   4.243  12.950 -0.2659 -0.3870  0.6752
  607MOL0     H83744   2.992   4.240  12.661 -1.0619 -2.1698  0.0724
  607MOL0     H83745   3.075   4.280  12.800  0.7849 -5.3328 -0.2373
  607MOL0     H83746   2.253   3.978  12.079 -2.3568 -0.7284  0.6951
  607MOL0     H83747   2.239   3.760  11.943  1.6049 -2.3564  0.0647
  607MOL0     H83748   2.209   3.382  11.799  0.1463 -0.0607 -0.2526
  607MOL0     H83749   2.229   3.134  11.713 -0.3467  0.3276 -0.8161
  607MOL0     H83750   3.777   2.715  11.364  2.3494  0.5392 -1.2770
  607MOL0     H83751   4.012   2.685  11.456 -1.8258  0.6557  0.7396
  607MOL0     H83752   4.323   2.549  11.596  1.0169  0.9523  1.2292
  607MOL0     H83753   4.515   2.561  11.718  2.2416  0.7627  0.1847
  607MOL0     H83754   4.724   2.588  11.799 -0.3533 -0.9764  0.6399
  607MOL0     H83755   4.676   2.427  11.841 -0.0178 -1.4148 -2.3270
  607MOL0     H83756   4.924   2.363  11.837 -0.0322  0.1534 -2.3064
  607MOL0     H83757   4.895   2.490  11.960 -2.5360  0.6046  0.3931
  607MOL0     H83758   4.970   2.553  11.680 -0.6757 -3.2516  0.9595
  607MOL0     H83759   4.995   2.661  11.821  4.7516 -0.1684  1.2468
  607MOL0     H83760   5.135   2.386  11.814 -0.2306  0.3360 -0.4911
  607MOL0     H83761   5.181   2.538  11.894 -1.3524 -0.4221  0.0670
  607MOL0     H83762   5.391   2.566  11.525 -1.4562  2.5697 -1.7706
  607MOL0     H83763   4.725   2.329  11.417  1.1286  1.7188 -1.6988
  607MOL0     H83764   4.428   2.242  11.216 -0.3455  0.3717  0.2333
  607MOL0     H83765   4.544   2.359  11.177 -0.1792 -1.7410 -1.7084
  607MOL0     H83766   4.585   2.195  11.260  1.5376  1.2987 -0.2647
  608MOL0     O83767   4.439   1.210   7.620  0.0051  0.5609 -0.2165
  608MOL0     C83768   4.399   1.263   7.514  0.8083 -0.8763 -0.1633
  608MOL0     O83769   4.421   1.398   7.489 -0.2383 -1.0362  0.1150
  608MOL0     C83770   4.488   1.467   7.589  0.0387  0.7688  0.1759
  608MOL0     C83771   4.604   1.537   7.562 -0.3301 -0.2562  0.4780
  608MOL0     C83772   4.654   1.623   7.661 -0.1445  0.6157  1.1414
  608MOL0     C83773   4.594   1.629   7.787 -1.6231 -0.1210 -0.0172
  608MOL0     O83774   4.625   1.719   7.886 -0.0289  0.6494  0.1887
  608MOL0     C83775   4.720   1.820   7.854  0.2823  0.1440  0.0049
  608MOL0     C83776   4.862   1.776   7.867  0.2750  0.9445  0.4902
  608MOL0     C83777   4.951   1.903   7.878  0.1305  0.7416 -0.3976
  608MOL0     C83778   4.993   1.909   8.029 -0.5361 -0.7336  0.6734
  608MOL0     C83779   5.071   2.043   8.052  0.1169  0.4450  0.2644
  608MOL0     C83780   5.109   2.025   8.201 -0.2364 -0.2821  0.3626
  608MOL0     C83781   5.199   2.141   8.256  0.2167 -0.3525  0.3412
  608MOL0     C83782   5.115   2.273   8.288  0.1235 -0.5575 -0.1391
  608MOL0     N83783   5.202   2.373   8.358  1.1115 -0.4638 -0.6464
  608MOL0     C83784   5.221   2.366   8.494 -0.2522 -0.6790  0.2658
  608MOL0     C83785   5.300   2.475   8.524  0.3045 -0.5806  0.6462
  608MOL0     C83786   5.331   2.519   8.662  0.0178 -0.3849 -0.0041
  608MOL0     C83787   5.279   2.654   8.721  0.2713 -0.6022 -0.5324
  608MOL0     C83788   5.143   2.698   8.686 -0.4397  0.1898  0.0133
  608MOL0     C83789   5.037   2.593   8.746 -0.0584 -0.1896  1.1987
  608MOL0     O83790   5.073   2.554   8.876 -0.0631  0.6024  0.0696
  608MOL0     C83791   4.979   2.471   8.942 -0.1038  0.2552  0.5814
  608MOL0     C83792   4.896   2.384   8.866 -0.0699 -1.1231 -0.5281
  608MOL0     C83793   4.820   2.289   8.921  0.3394 -0.0964  0.1824
  608MOL0     C83794   4.739   2.203   8.825  0.0071 -0.6236 -0.1301
  608MOL0     C83795   4.808   2.279   9.060 -1.0802 -0.6825  0.5817
  608MOL0     C83796   4.730   2.191   9.145  0.0335  0.4824 -0.3833
  608MOL0     O83797   4.753   2.204   9.287  0.3094  0.0782 -0.9145
  608MOL0     C83798   4.650   2.184   9.375  0.1813  0.2646  0.2784
  608MOL0     C83799   4.686   2.148   9.504 -0.0146  0.6133 -0.5156
  608MOL0     C83800   4.593   2.126   9.606  0.2305  1.0920  0.5296
  608MOL0     C83801   4.452   2.117   9.574  0.6227  0.0428 -0.3620
  608MOL0     O83802   4.343   2.067   9.644 -1.0478  0.1040  0.1203
  608MOL0     C83803   4.375   1.996   9.754  0.8841  0.4714 -0.6677
  608MOL0     C83804   4.250   1.953   9.813  0.0330 -0.1275 -0.1797
  608MOL0     C83805   4.163   1.863   9.730  0.3947  0.8934 -0.3397
  608MOL0     C83806   4.233   1.766   9.630 -0.1129 -0.0247 -0.7368
  608MOL0     C83807   4.139   1.689   9.533 -0.0789  0.1960  0.8777
  608MOL0     C83808   4.181   1.537   9.527  0.7932 -0.3957 -0.2133
  608MOL0     C83809   4.073   1.448   9.466  0.5000 -0.2229  0.0281
  608MOL0     C83810   4.134   1.311   9.454 -0.3890  0.1418  0.1754
  608MOL0    Cl83811   4.016   1.172   9.424  0.2130  0.0344  0.2759
  608MOL0     C83812   4.410   2.157   9.442 -1.1797 -0.8555 -0.0214
  608MOL0     C83813   4.504   2.174   9.344  0.4697 -0.2376  0.1972
  608MOL0     O83814   4.633   2.132   9.091 -0.8137  0.9241  0.3665
  608MOL0     C83815   4.895   2.366   9.132 -0.7069  0.4703  0.1773
  608MOL0     C83816   4.982   2.447   9.072  0.7990 -1.5194 -0.3006
  608MOL0     N83817   5.324   2.541   8.401 -0.2103  0.0030 -0.5154
  608MOL0     N83818   5.270   2.476   8.305  0.9379  0.4757 -1.2263
  608MOL0     C83819   4.498   1.540   7.815 -0.5434  0.2289  0.4596
  608MOL0     C83820   4.435   1.465   7.720 -0.1772 -0.3414 -0.5179
  608MOL0     C83821   4.338   1.165   7.413 -0.2874  0.6645 -0.1885
  608MOL0     C83822   4.277   1.050   7.455 -0.0979 -0.1254  0.3153
  608MOL0     C83823   4.215   0.960   7.372  0.1100  0.4582  0.1455
  608MOL0     C83824   4.222   0.968   7.237 -0.7203 -0.1403  0.4981
  608MOL0     O83825   4.183   0.870   7.148 -0.2554 -0.1522  0.7243
  608MOL0     C83826   4.076   0.907   7.056  0.0917  0.0930 -0.1886
  608MOL0     C83827   3.987   0.770   7.050  0.1757  0.5167 -0.0778
  608MOL0     C83828   4.054   0.659   6.966 -0.1525  0.1327  0.5938
  608MOL0     C83829   3.970   0.537   6.964  0.3279 -0.4009 -0.8997
  608MOL0     C83830   4.052   0.421   6.921 -0.0856 -0.7148 -0.1647
  608MOL0     C83831   4.131   0.334   6.879  0.3599  0.1152 -1.2045
  608MOL0     C83832   4.281   1.084   7.186  0.1343  0.0453 -0.8090
  608MOL0     C83833   4.341   1.181   7.271 -0.0723  0.2895 -0.0045
  608MOL0     C83834   4.424   1.296   7.216 -0.0871  0.0834  0.2976
  608MOL0     H83835   4.636   1.533   7.459 -1.9797 -0.6517 -0.0488
  608MOL0     H83836   4.736   1.682   7.623  0.7450 -2.2736 -1.8972
  608MOL0     H83837   4.693   1.900   7.923  2.2769  2.3889 -1.6853
  608MOL0     H83838   4.705   1.869   7.758  1.2813 -0.8045 -0.6566
  608MOL0     H83839   4.867   1.689   7.933  2.9079 -1.1710 -2.2291
  608MOL0     H83840   4.891   1.731   7.772  0.7023  0.3156  0.9169
  608MOL0     H83841   5.046   1.880   7.828 -0.9398 -1.3568 -1.5939
  608MOL0     H83842   4.912   1.995   7.834  0.6406  0.8052 -0.7313
  608MOL0     H83843   4.901   1.913   8.088 -1.0248 -0.9977 -0.0573
  608MOL0     H83844   5.050   1.819   8.052 -1.4388 -0.4461  4.7838
  608MOL0     H83845   5.007   2.129   8.031 -0.8904 -0.3963 -0.2048
  608MOL0     H83846   5.146   2.059   7.974 -2.8291  5.0734 -2.0669
  608MOL0     H83847   5.021   2.023   8.266 -0.4968 -0.9609  0.0026
  608MOL0     H83848   5.156   1.926   8.211  0.1310 -0.2369 -0.7423
  608MOL0     H83849   5.282   2.162   8.188 -0.6036  1.6472 -0.1269
  608MOL0     H83850   5.230   2.103   8.353  2.7188 -2.8217 -1.2708
  608MOL0     H83851   5.082   2.312   8.191  2.5007 -0.4228 -0.9592
  608MOL0     H83852   5.022   2.260   8.345 -1.6738  0.4282 -2.6598
  608MOL0     H83853   5.188   2.298   8.572  4.6528 -1.3971  2.0835
  608MOL0     H83854   5.440   2.517   8.653 -0.0321  1.1361 -1.3953
  608MOL0     H83855   5.302   2.442   8.734  1.6782 -3.4289 -2.3782
  608MOL0     H83856   5.295   2.644   8.829  2.3473 -0.7350 -0.8157
  608MOL0     H83857   5.344   2.740   8.702  0.1601 -0.5384 -0.6279
  608MOL0     H83858   5.126   2.796   8.732  1.8523  0.4168  0.4960
  608MOL0     H83859   5.136   2.697   8.577 -3.9326 -2.4994  0.0930
  608MOL0     H83860   4.935   2.632   8.742  0.3108  0.8613  1.5632
  608MOL0     H83861   5.042   2.502   8.685 -3.7077  1.3950 -1.8990
  608MOL0     H83862   4.880   2.402   8.760 -2.4263  2.0981  0.2016
  608MOL0     H83863   4.806   2.146   8.759  1.2835  0.9642 -0.2508
  608MOL0     H83864   4.684   2.275   8.764  2.3684  2.5388  1.2380
  608MOL0     H83865   4.670   2.130   8.869 -1.0876  0.7597  0.5230
  608MOL0     H83866   4.789   2.139   9.537 -1.6456 -3.6810  4.9500
  608MOL0     H83867   4.641   2.115   9.703  1.8782  1.2500 -0.2424
  608MOL0     H83868   4.435   1.909   9.724  0.0472 -0.5479  0.5295
  608MOL0     H83869   4.435   2.049   9.828  1.0774  0.4995 -0.8426
  608MOL0     H83870   4.261   1.906   9.911 -0.6938 -2.0226 -0.9594
  608MOL0     H83871   4.197   2.048   9.829 -3.9364 -1.6136 -2.9094
  608MOL0     H83872   4.106   1.925   9.660  1.0706 -3.3425 -5.2426
  608MOL0     H83873   4.078   1.824   9.787 -1.6026  2.3509 -2.1926
  608MOL0     H83874   4.295   1.688   9.676  1.3364  0.3131 -2.0084
  608MOL0     H83875   4.305   1.822   9.569  0.7488  0.4628  0.6679
  608MOL0     H83876   4.036   1.696   9.568 -0.4865 -0.1354 -0.2022
  608MOL0     H83877   4.150   1.737   9.435 -0.0266  0.7474  1.1548
  608MOL0     H83878   4.211   1.500   9.625  0.0621 -0.9160 -0.1728
  608MOL0     H83879   4.279   1.522   9.481  1.4669  2.2509  0.2182
  608MOL0     H83880   4.044   1.480   9.365 -0.2680 -1.6766 -0.2420
  608MOL0     H83881   3.993   1.461   9.540 -0.0285 -1.3178 -0.3297
  608MOL0     H83882   4.173   1.286   9.554  0.9535  0.8650 -0.1421
  608MOL0     H83883   4.216   1.321   9.382  0.1636  0.6151  0.8537
  608MOL0     H83884   4.307   2.189   9.428 -0.3871  1.6420 -0.7859
  608MOL0     H83885   4.474   2.205   9.244 -0.3991  0.1241  0.5635
  608MOL0     H83886   4.899   2.375   9.240 -1.3930  1.5607  0.1276
  608MOL0     H83887   5.044   2.519   9.126 -1.9634  0.5753  0.3061
  608MOL0     H83888   4.447   1.542   7.911 -2.4212 -3.3678 -0.3048
  608MOL0     H83889   4.348   1.404   7.745  1.1698 -2.1265  0.0548
  608MOL0     H83890   4.275   1.028   7.561  3.3499 -1.8336  0.1632
  608MOL0     H83891   4.168   0.871   7.413  0.5050  0.4631  0.6084
  608MOL0     H83892   4.010   0.987   7.089  0.1615  0.1467 -0.1800
  608MOL0     H83893   4.123   0.937   6.962  2.0786 -0.3822  0.5932
  608MOL0     H83894   3.889   0.792   7.005  0.0108 -0.6975 -0.3418
  608MOL0     H83895   3.960   0.732   7.149  2.1296 -0.2148  0.2052
  608MOL0     H83896   4.076   0.693   6.864 -0.6471  2.8883  1.3077
  608MOL0     H83897   4.153   0.641   7.008  0.4439 -0.3000 -0.9219
  608MOL0     H83898   3.890   0.544   6.890  1.2940  0.0939 -1.9187
  608MOL0     H83899   3.927   0.521   7.064 -0.1587 -0.0964 -1.0523
  608MOL0     H83900   4.196   0.263   6.831 -1.0247 -1.5373 -0.7513
  608MOL0     H83901   4.277   1.097   7.079 -2.4807  0.1109 -0.7703
  608MOL0     H83902   4.414   1.295   7.108  0.6192 -0.4229  0.2280
  608MOL0     H83903   4.389   1.389   7.261  2.1919  0.8397  0.6802
  608MOL0     H83904   4.529   1.278   7.245  1.4122 -0.6309 -4.6668
  609MOL0     O83905  10.117   4.043   0.690 -0.1670  0.1395  0.0175
  609MOL0     C83906  10.112   4.159   0.635 -0.0279  1.4635 -0.7184
  609MOL0     O83907  10.024   4.248   0.672 -0.1066  0.0989  0.2641
  609MOL0     C83908   9.913   4.218   0.746 -0.0091  1.5482  0.6073
  609MOL0     C83909   9.797   4.164   0.684  0.3163  0.2026 -0.4166
  609MOL0     C83910   9.686   4.125   0.757  0.8347  0.7782  0.2715
  609MOL0     C83911   9.686   4.143   0.900 -0.0427 -0.1079  0.0545
  609MOL0     O83912   9.584   4.096   0.980  0.3460 -0.2218 -0.0586
  609MOL0     C83913   9.455   4.060   0.932 -1.0808  0.2520  0.9272
  609MOL0     C83914   9.371   4.076   1.054 -0.3435 -0.3854 -0.7865
  609MOL0     C83915   9.226   4.080   1.017  0.1146 -0.5735  0.0872
  609MOL0     C83916   9.128   4.105   1.133  0.6025 -0.1159  0.1874
  609MOL0     C83917   8.993   4.113   1.077  0.0272 -0.6179 -0.2365
  609MOL0     C83918   8.894   4.135   1.193  0.3449 -0.0319  0.1935
  609MOL0     C83919   8.746   4.118   1.140 -0.4802 -0.0448  0.9027
  609MOL0     C83920   8.656   4.085   1.251 -0.9812 -0.6242 -0.0981
  609MOL0     N83921   8.550   4.188   1.250  0.4994  0.1276  0.2912
  609MOL0     C83922   8.439   4.168   1.175 -0.4942  0.0349 -0.1352
  609MOL0     C83923   8.368   4.286   1.162 -0.2080 -0.7128 -0.2212
  609MOL0     C83924   8.252   4.296   1.059 -0.4632 -0.2817 -0.3203
  609MOL0     C83925   8.155   4.170   1.087 -0.4022 -0.5860  0.2794
  609MOL0     C83926   8.013   4.205   1.047  0.6707 -0.0095  0.0076
  609MOL0     C83927   7.909   4.085   1.053  0.3901 -0.5786  0.2169
  609MOL0     O83928   7.779   4.148   1.050  0.1780  0.2827 -0.3174
  609MOL0     C83929   7.673   4.074   1.087 -0.0987 -0.9798  0.2681
  609MOL0     C83930   7.663   3.934   1.092  0.5943  0.1651 -0.3563
  609MOL0     C83931   7.547   3.870   1.139  0.1564 -0.4605 -0.1321
  609MOL0     C83932   7.528   3.714   1.118  0.6087 -0.2958 -0.6352
  609MOL0     C83933   7.435   3.947   1.193  0.5413 -0.8776 -0.5440
  609MOL0     C83934   7.318   3.892   1.262 -0.2802  0.9055  0.0971
  609MOL0     O83935   7.215   3.980   1.278 -0.5149  0.1060  0.4064
  609MOL0     C83936   7.103   3.935   1.339  0.0769  0.1876  0.7559
  609MOL0     C83937   7.089   3.966   1.473 -0.1360  0.8070  0.2216
  609MOL0     C83938   6.979   3.930   1.541 -0.0176 -0.0113 -0.6459
  609MOL0     C83939   6.876   3.856   1.479  0.5499  0.0154  0.0733
  609MOL0     O83940   6.783   3.809   1.568 -0.3887 -0.4676  0.4164
  609MOL0     C83941   6.655   3.769   1.516 -0.2393  0.1845  1.2075
  609MOL0     C83942   6.556   3.733   1.633 -1.5910  0.1500 -1.0485
  609MOL0     C83943   6.410   3.707   1.580 -0.1366 -0.9995 -0.3480
  609MOL0     C83944   6.300   3.763   1.666 -0.3778 -0.5163  0.5042
  609MOL0     C83945   6.212   3.854   1.586 -0.0111  0.0711  0.1907
  609MOL0     C83946   6.144   3.948   1.689  0.1128  0.0270  0.3576
  609MOL0     C83947   6.048   4.047   1.622 -0.1103 -0.2404 -0.0436
  609MOL0     C83948   5.931   3.977   1.560 -0.2917  0.3552 -0.2228
  609MOL0    Cl83949   5.897   3.819   1.639  0.3948  0.1832 -0.2232
  609MOL0     C83950   6.880   3.835   1.340 -0.1694 -0.2040  0.2508
  609MOL0     C83951   6.986   3.882   1.268 -0.1464  0.3212 -0.2714
  609MOL0     O83952   7.317   3.776   1.295 -0.4502 -0.0226  0.2782
  609MOL0     C83953   7.458   4.091   1.186  0.0251  0.5828  0.3588
  609MOL0     C83954   7.570   4.150   1.128 -0.2896  0.3437  0.0233
  609MOL0     N83955   8.451   4.383   1.217 -0.4598  0.5593  0.1488
  609MOL0     N83956   8.551   4.326   1.274  0.0743  1.1749  0.5915
  609MOL0     C83957   9.799   4.194   0.963 -0.3215  0.6561  0.2405
  609MOL0     C83958   9.913   4.233   0.884  0.0646 -0.8265 -1.0597
  609MOL0     C83959  10.226   4.193   0.545  0.0537  0.5887 -0.2383
  609MOL0     C83960  10.280   4.318   0.572 -0.5558 -0.2064 -0.0301
  609MOL0     C83961  10.389   4.360   0.492 -0.4107 -0.4899  0.8931
  609MOL0     C83962  10.452   4.274   0.393  0.9042  0.5907 -0.0924
  609MOL0     O83963  10.557   4.329   0.324 -0.3647 -0.1888  0.7234
  609MOL0     C83964  10.663   4.243   0.287 -0.1958 -0.2405  0.5374
  609MOL0     C83965  10.657   4.178   0.148  1.0544  0.8278 -0.5266
  609MOL0     C83966  10.790   4.123   0.094 -0.2545  0.5555 -0.4221
  609MOL0     C83967  10.833   4.009   0.188 -0.1958 -0.3476  0.4889
  609MOL0     C83968  10.945   3.935   0.123  0.9207 -0.3639 -0.3203
  609MOL0     C83969  11.040   3.887   0.065 -0.0787 -0.4520 -0.3685
  609MOL0     C83970  10.397   4.146   0.381  0.0850 -0.4551 -1.1997
  609MOL0     C83971  10.286   4.101   0.456  1.0544 -0.7764 -0.9846
  609MOL0     C83972  10.227   3.961   0.416  0.4423 -0.1101 -0.1252
  609MOL0     H83973   9.808   4.148   0.577  0.0804  1.3546 -0.6278
  609MOL0     H83974   9.607   4.076   0.702  0.9941  1.5576 -0.6843
  609MOL0     H83975   9.451   3.960   0.888  2.0065 -0.6695  2.4461
  609MOL0     H83976   9.435   4.122   0.845  1.4603 -1.1345 -0.7634
  609MOL0     H83977   9.383   3.982   1.110 -2.0864  0.8110  1.7772
  609MOL0     H83978   9.382   4.159   1.124  0.9698  0.0494 -1.4732
  609MOL0     H83979   9.205   4.161   0.947  0.1573  0.6556  1.4405
  609MOL0     H83980   9.210   3.983   0.969  0.1833 -0.6264  0.1711
  609MOL0     H83981   9.125   4.022   1.204 -1.2885  0.3819  0.7438
  609MOL0     H83982   9.154   4.198   1.183 -0.1171 -1.2744  2.8892
  609MOL0     H83983   8.966   4.020   1.027 -1.0826 -0.7987  0.6567
  609MOL0     H83984   8.983   4.196   1.007 -1.9828 -1.4171 -0.9876
  609MOL0     H83985   8.921   4.063   1.270  1.9228  1.0973  0.7408
  609MOL0     H83986   8.908   4.232   1.240  0.8692 -1.2387  2.6651
  609MOL0     H83987   8.732   4.031   1.075  0.5662 -1.6546  2.7203
  609MOL0     H83988   8.721   4.208   1.084 -2.8537  0.7992  3.1062
  609MOL0     H83989   8.612   3.986   1.237 -0.1236 -0.8209 -1.5127
  609MOL0     H83990   8.704   4.105   1.348  1.6841 -0.9976 -1.2622
  609MOL0     H83991   8.410   4.073   1.133 -3.0080  0.3006  0.8633
  609MOL0     H83992   8.291   4.293   0.957 -0.7513  1.5837 -0.5211
  609MOL0     H83993   8.201   4.393   1.067  0.7606  0.5811 -2.1268
  609MOL0     H83994   8.185   4.094   1.014  1.7267  0.9709 -0.5993
  609MOL0     H83995   8.166   4.125   1.186 -1.7028  1.1044  1.2376
  609MOL0     H83996   7.969   4.279   1.114 -0.8969  2.5360 -3.5391
  609MOL0     H83997   8.017   4.247   0.946  1.9182 -1.5468 -0.6407
  609MOL0     H83998   7.913   4.013   0.970  0.5991  0.2897 -0.5427
  609MOL0     H83999   7.926   4.028   1.145 -0.1161 -1.1578 -0.0340
  609MOL0     H84000   7.748   3.870   1.070  1.1873  0.3192  1.3098
  609MOL0     H84001   7.613   3.672   1.062  1.3622  1.2502 -0.6989
  609MOL0     H84002   7.439   3.684   1.061  1.3317 -4.2304 -0.0017
  609MOL0     H84003   7.537   3.660   1.212 -0.8588 -0.3299 -0.4911
  609MOL0     H84004   7.171   4.016   1.524 -0.6212  1.1991  0.6280
  609MOL0     H84005   6.975   3.962   1.645  2.7838  2.1219 -1.0702
  609MOL0     H84006   6.616   3.842   1.445 -0.9924 -0.3643  1.0396
  609MOL0     H84007   6.667   3.676   1.461 -1.5172 -0.0142  1.2356
  609MOL0     H84008   6.605   3.647   1.681 -0.6171 -0.1868 -2.5846
  609MOL0     H84009   6.560   3.810   1.711  1.4090 -3.0946  2.4460
  609MOL0     H84010   6.396   3.598   1.575 -1.8086 -0.9454  1.8108
  609MOL0     H84011   6.409   3.758   1.483  4.5316 -1.7587 -1.0273
  609MOL0     H84012   6.354   3.818   1.744  1.7188 -0.5471 -0.8604
  609MOL0     H84013   6.237   3.685   1.710 -2.9369  1.2477  0.1818
  609MOL0     H84014   6.274   3.930   1.537  0.1847  1.1369  1.9889
  609MOL0     H84015   6.150   3.792   1.521 -2.0194  0.0205  2.0234
  609MOL0     H84016   6.219   4.015   1.731  2.0707 -0.1431 -2.6272
  609MOL0     H84017   6.094   3.893   1.770  1.6397 -2.6696 -0.4203
  609MOL0     H84018   6.103   4.103   1.546 -1.2455  1.4000  0.3082
  609MOL0     H84019   6.020   4.126   1.691  1.8967  0.8345 -0.3915
  609MOL0     H84020   5.943   3.956   1.454 -1.7030 -3.4814  0.2031
  609MOL0     H84021   5.842   4.040   1.566  1.4105  2.9058  0.1155
  609MOL0     H84022   6.794   3.779   1.305 -0.9562  0.5563  0.9335
  609MOL0     H84023   7.000   3.872   1.161 -1.1652  1.6717 -0.5593
  609MOL0     H84024   7.391   4.157   1.241 -0.9256  0.7832 -0.9910
  609MOL0     H84025   7.587   4.257   1.129  0.0903  0.2893  1.3639
  609MOL0     H84026   9.796   4.208   1.071  1.2781  1.7490  0.1840
  609MOL0     H84027  10.012   4.257   0.923 -0.6914 -0.8020  0.9244
  609MOL0     H84028  10.235   4.375   0.653 -0.3139 -1.7650  1.2397
  609MOL0     H84029  10.434   4.456   0.515  0.5727 -1.1585  1.9453
  609MOL0     H84030  10.759   4.295   0.280  0.1009 -0.5070  2.1158
  609MOL0     H84031  10.685   4.170   0.366  0.1958 -0.0249  0.6337
  609MOL0     H84032  10.637   4.253   0.071  2.5093  3.5357  1.5674
  609MOL0     H84033  10.577   4.103   0.147  0.7778  1.0676 -2.7028
  609MOL0     H84034  10.769   4.082  -0.005  0.9657 -1.5607  0.1214
  609MOL0     H84035  10.860   4.206   0.081  0.8958 -0.4654 -0.9813
  609MOL0     H84036  10.742   3.949   0.197  0.3620 -1.0305  1.8489
  609MOL0     H84037  10.859   4.042   0.289 -1.0954  0.4360  0.4775
  609MOL0     H84038  11.129   3.846   0.021  0.0440 -0.3019 -0.2654
  609MOL0     H84039  10.424   4.081   0.299 -0.3856  1.5645 -3.0588
  609MOL0     H84040  10.127   3.963   0.372  0.9114  0.4227 -1.1967
  609MOL0     H84041  10.295   3.901   0.355 -0.7241  0.8437 -2.4745
  609MOL0     H84042  10.220   3.901   0.507  0.8403  1.2474  0.8386
  610MOL0     O84043   9.901   9.672   0.813 -0.6511 -0.5038 -0.0145
  610MOL0     C84044   9.892   9.584   0.734  0.1611 -0.4957  0.8208
  610MOL0     O84045  10.003   9.541   0.668  0.8101 -0.3458 -0.5065
  610MOL0     C84046  10.125   9.610   0.662 -0.4695 -0.2742 -0.2341
  610MOL0     C84047  10.186   9.612   0.536 -0.3071  0.0863 -0.0571
  610MOL0     C84048  10.309   9.667   0.513 -0.2992 -0.2788 -0.4259
  610MOL0     C84049  10.381   9.714   0.623 -0.2199  0.0293 -0.5104
  610MOL0     O84050  10.509   9.746   0.620  0.3486 -0.3147  0.9153
  610MOL0     C84051  10.609   9.649   0.579  0.5871 -0.5259  0.4527
  610MOL0     C84052  10.724   9.740   0.523  0.1960 -0.3757 -0.3335
  610MOL0     C84053  10.843   9.658   0.467 -0.2278  1.0639 -0.2939
  610MOL0     C84054  10.806   9.519   0.404 -0.0751 -0.6400 -0.0495
  610MOL0     C84055  10.950   9.460   0.372 -0.1932 -0.0244  0.4179
  610MOL0     C84056  10.982   9.456   0.220  0.0938  0.7070 -0.2153
  610MOL0     C84057  10.971   9.593   0.150 -0.7339  0.3041 -0.1270
  610MOL0     C84058  10.982   9.571  -0.003  0.3857 -0.0643 -0.4725
  610MOL0     N84059  10.931   9.451  -0.053  0.2228 -0.1670  0.1480
  610MOL0     C84060  10.794   9.420  -0.067  0.7190 -0.3478  0.2455
  610MOL0     C84061  10.796   9.296  -0.125  0.3884 -0.3464  0.4116
  610MOL0     C84062  10.662   9.241  -0.170  0.2388 -0.6838  0.4220
  610MOL0     C84063  10.682   9.106  -0.232  1.0309  0.0286  0.4210
  610MOL0     C84064  10.553   9.072  -0.308 -0.4545  0.0171 -0.5041
  610MOL0     C84065  10.552   8.928  -0.356 -0.4170 -0.1519 -1.0535
  610MOL0     O84066  10.662   8.905  -0.442  0.3274 -0.2230  0.3836
  610MOL0     C84067  10.683   8.779  -0.502 -0.1897  0.0465 -0.0610
  610MOL0     C84068  10.593   8.673  -0.485 -0.1112  0.9156 -0.5910
  610MOL0     C84069  10.621   8.542  -0.522 -0.0383 -0.3371  0.6498
  610MOL0     C84070  10.516   8.438  -0.498  0.0813  0.9826 -1.0613
  610MOL0     C84071  10.743   8.523  -0.596 -0.1660  1.1363  0.0385
  610MOL0     C84072  10.776   8.384  -0.651  0.6783 -0.0771  0.2532
  610MOL0     O84073  10.907   8.362  -0.687 -0.0916  0.1350  0.3151
  610MOL0     C84074  10.939   8.236  -0.732  0.0955  0.6212 -0.9243
  610MOL0     C84075  10.943   8.218  -0.870  0.0345  1.3045 -0.5287
  610MOL0     C84076  10.994   8.092  -0.915 -0.7211 -0.2970 -0.1602
  610MOL0     C84077  11.033   7.991  -0.823  0.3802  0.2842  0.1894
  610MOL0     O84078  11.071   7.863  -0.856  0.2541 -0.1018  0.4585
  610MOL0     C84079  11.063   7.821  -0.991  0.4553  0.1344  0.5009
  610MOL0     C84080  11.029   7.666  -0.989 -0.4404 -0.9947  0.1644
  610MOL0     C84081  10.887   7.624  -0.951  0.0223  1.1331  0.9687
  610MOL0     C84082  10.889   7.467  -0.940 -0.5927 -0.0336  0.3718
  610MOL0     C84083  10.746   7.406  -0.940 -0.7789 -0.9117  0.3856
  610MOL0     C84084  10.741   7.255  -0.925  0.0985  0.3163 -0.3522
  610MOL0     C84085  10.615   7.214  -0.861 -0.2040 -0.2403 -0.5526
  610MOL0     C84086  10.609   7.065  -0.839  0.2650  0.1253  0.7200
  610MOL0    Cl84087  10.452   7.036  -0.751  0.0347  0.5317  0.2988
  610MOL0     C84088  11.038   8.027  -0.684 -0.4344  0.7791 -0.6195
  610MOL0     C84089  10.988   8.147  -0.642 -0.7010  0.6283  0.0714
  610MOL0     O84090  10.690   8.292  -0.654 -0.6371 -0.4433 -0.1074
  610MOL0     C84091  10.837   8.628  -0.600  0.4673  0.4325  0.4650
  610MOL0     C84092  10.811   8.752  -0.549 -0.7072 -0.6175 -0.1124
  610MOL0     N84093  10.924   9.242  -0.128  0.2219  0.8191  0.3779
  610MOL0     N84094  10.997   9.332  -0.093 -0.4823 -1.1069 -0.8214
  610MOL0     C84095  10.327   9.723   0.746  0.5094 -0.2972 -0.9002
  610MOL0     C84096  10.197   9.669   0.769 -0.0141  1.0320  0.3966
  610MOL0     C84097   9.753   9.523   0.695  0.1208 -0.6717  0.3970
  610MOL0     C84098   9.634   9.588   0.731  0.1415  0.7196 -0.3076
  610MOL0     C84099   9.509   9.547   0.684 -0.9378 -0.0442 -0.0891
  610MOL0     C84100   9.498   9.448   0.593 -0.1772  0.0997  0.4424
  610MOL0     O84101   9.381   9.420   0.510 -0.1349  0.4532 -0.5330
  610MOL0     C84102   9.274   9.510   0.487 -0.1208  0.4059 -0.1164
  610MOL0     C84103   9.172   9.488   0.593 -0.1783 -0.4544  0.6696
  610MOL0     C84104   9.047   9.569   0.569  0.0555  0.7719 -0.9349
  610MOL0     C84105   8.952   9.533   0.686 -0.3474  0.0615  0.0657
  610MOL0     C84106   8.994   9.608   0.803  0.5326 -0.2439  0.0423
  610MOL0     C84107   9.020   9.677   0.895  0.4978  1.1616  0.1483
  610MOL0     C84108   9.609   9.372   0.559 -1.1856 -0.2219 -0.1695
  610MOL0     C84109   9.740   9.407   0.605 -1.1446 -0.9145 -0.1211
  610MOL0     C84110   9.858   9.322   0.577  0.2592  0.1311  0.0410
  610MOL0     H84111  10.134   9.569   0.451 -0.9947  2.3423 -0.8280
  610MOL0     H84112  10.354   9.665   0.414 -0.7633  5.5642 -1.1116
  610MOL0     H84113  10.575   9.594   0.491  0.9201  3.9066 -2.7951
  610MOL0     H84114  10.646   9.589   0.663  1.3267 -1.6733 -0.6562
  610MOL0     H84115  10.677   9.799   0.445 -0.3609 -1.3935 -0.7823
  610MOL0     H84116  10.759   9.790   0.614 -0.9324 -3.2630  1.8603
  610MOL0     H84117  10.896   9.731   0.406 -0.4240  2.5071  1.1794
  610MOL0     H84118  10.903   9.642   0.557 -2.2860 -1.1842  0.7967
  610MOL0     H84119  10.745   9.454   0.467  0.2836  0.6446  1.6994
  610MOL0     H84120  10.749   9.538   0.312  1.1150  2.2070 -0.3229
  610MOL0     H84121  10.966   9.365   0.425  0.3377  0.9254  2.0588
  610MOL0     H84122  11.027   9.517   0.426  0.4448 -0.4569 -0.0152
  610MOL0     H84123  11.079   9.408   0.209  0.2912 -0.4928  4.6536
  610MOL0     H84124  10.902   9.391   0.183  1.7364 -1.5165 -0.0518
  610MOL0     H84125  11.029   9.679   0.183 -0.6920  0.2852 -0.1503
  610MOL0     H84126  10.866   9.623   0.158 -1.3310 -2.0099  1.7843
  610MOL0     H84127  10.948   9.665  -0.047  2.1555  1.5861  1.4323
  610MOL0     H84128  11.088   9.577  -0.031  0.1097 -1.9334 -2.1757
  610MOL0     H84129  10.703   9.479  -0.061  1.8258  1.8729 -2.5619
  610MOL0     H84130  10.613   9.304  -0.244  2.4099 -1.6207 -1.9413
  610MOL0     H84131  10.601   9.226  -0.080  0.5187 -3.0553  0.2953
  610MOL0     H84132  10.768   9.114  -0.300  1.4872 -2.4625  0.6166
  610MOL0     H84133  10.696   9.040  -0.147 -2.0162  1.0410  1.8464
  610MOL0     H84134  10.474   9.078  -0.232 -0.0809 -3.1899  0.2822
  610MOL0     H84135  10.525   9.138  -0.391  0.2476  1.3204  0.2678
  610MOL0     H84136  10.573   8.860  -0.272  0.4418  0.7709 -0.5064
  610MOL0     H84137  10.460   8.914  -0.412 -1.2987 -0.4320  0.4015
  610MOL0     H84138  10.509   8.679  -0.416 -0.7406 -0.7433 -1.1617
  610MOL0     H84139  10.564   8.353  -0.448 -3.3960 -1.8406 -2.0927
  610MOL0     H84140  10.467   8.397  -0.586  1.5711 -2.9923 -0.2687
  610MOL0     H84141  10.441   8.477  -0.427  3.0887 -0.0033  3.0392
  610MOL0     H84142  10.892   8.280  -0.942 -2.1274 -1.6471 -1.7535
  610MOL0     H84143  10.984   8.089  -1.023  0.9479  1.1002 -0.3801
  610MOL0     H84144  10.995   7.880  -1.053  1.2991  3.1218  2.2327
  610MOL0     H84145  11.164   7.843  -1.028  1.5284 -2.1986  1.8331
  610MOL0     H84146  11.042   7.627  -1.091 -0.8289 -0.8602  0.0619
  610MOL0     H84147  11.088   7.616  -0.913  0.0103  2.2164  2.1130
  610MOL0     H84148  10.829   7.652  -1.039 -0.3622 -0.0990  0.8040
  610MOL0     H84149  10.852   7.667  -0.857 -0.9287 -1.6876  2.0036
  610MOL0     H84150  10.934   7.444  -0.843  0.3876 -1.7445 -0.4455
  610MOL0     H84151  10.941   7.424  -1.026 -2.1877  2.7805 -2.2426
  610MOL0     H84152  10.690   7.455  -0.860  0.4375  2.6919 -0.7716
  610MOL0     H84153  10.688   7.413  -1.033  1.6405 -0.6249 -1.1784
  610MOL0     H84154  10.830   7.226  -0.868  0.0303 -2.9629 -1.6865
  610MOL0     H84155  10.741   7.209  -1.024  1.2551  2.3196 -1.3452
  610MOL0     H84156  10.539   7.230  -0.938  0.6993 -2.8455 -2.1117
  610MOL0     H84157  10.584   7.271  -0.772 -1.2986  1.5014 -1.9819
  610MOL0     H84158  10.694   7.030  -0.780  0.7513 -2.3847 -1.2743
  610MOL0     H84159  10.601   6.997  -0.925 -2.9694 -1.8458  2.3823
  610MOL0     H84160  11.075   7.949  -0.618 -1.1597  0.8823 -0.0847
  610MOL0     H84161  10.992   8.192  -0.544 -1.1219 -0.1463  0.4539
  610MOL0     H84162  10.935   8.606  -0.642 -0.0515  0.8080 -0.9921
  610MOL0     H84163  10.885   8.831  -0.549 -0.6496 -0.6704  0.1940
  610MOL0     H84164  10.381   9.768   0.829  0.3261  1.8647 -1.8939
  610MOL0     H84165  10.142   9.660   0.862 -2.2764 -0.4141 -0.9817
  610MOL0     H84166   9.629   9.679   0.791  2.4569  0.5906  0.1676
  610MOL0     H84167   9.423   9.603   0.718  0.2568  1.7779  0.0703
  610MOL0     H84168   9.298   9.617   0.488 -2.7811  1.0556  0.7985
  610MOL0     H84169   9.221   9.488   0.394 -1.2358 -0.9327  0.8108
  610MOL0     H84170   9.219   9.508   0.689  2.0147 -0.1511 -0.4144
  610MOL0     H84171   9.148   9.381   0.602  0.0867 -0.4602  1.3216
  610MOL0     H84172   9.062   9.678   0.570  1.2640  0.6121 -0.6748
  610MOL0     H84173   9.011   9.534   0.471 -1.2315 -0.4476 -0.0619
  610MOL0     H84174   8.948   9.427   0.710 -1.5326  0.3828  1.4644
  610MOL0     H84175   8.845   9.552   0.675 -0.9478 -1.7356  2.1524
  610MOL0     H84176   9.034   9.731   0.986 -3.8660  0.1341  1.6878
  610MOL0     H84177   9.603   9.284   0.495  2.2585 -0.7988  0.0790
  610MOL0     H84178   9.828   9.247   0.503 -0.4153  1.2777 -0.8801
  610MOL0     H84179   9.934   9.377   0.521 -1.2719  1.9272 -0.3693
  610MOL0     H84180   9.901   9.267   0.661  0.9855  2.2363  1.1216
  611MOL0     O84181   2.337   2.296  10.484  0.5717 -0.2999 -0.7665
  611MOL0     C84182   2.270   2.295  10.387 -0.4017  0.8419  0.4586
  611MOL0     O84183   2.148   2.355  10.373 -0.2772  0.5754  0.3718
  611MOL0     C84184   2.096   2.415  10.483 -0.0783 -0.1161  0.1806
  611MOL0     C84185   2.055   2.339  10.590 -0.5329  0.3214  0.4224
  611MOL0     C84186   2.028   2.399  10.718 -0.4772  0.7293  0.6425
  611MOL0     C84187   2.016   2.542  10.723 -0.9745 -0.9169 -0.1538
  611MOL0     O84188   1.984   2.625  10.828  0.0126 -0.4948 -0.7548
  611MOL0     C84189   1.958   2.562  10.957 -0.0453 -0.5055  0.5581
  611MOL0     C84190   1.902   2.668  11.055 -0.0683 -0.5231 -0.7835
  611MOL0     C84191   1.746   2.693  11.046 -0.1730 -0.1244 -0.5373
  611MOL0     C84192   1.694   2.723  11.184 -0.4484  0.8289 -0.9125
  611MOL0     C84193   1.546   2.756  11.208 -0.2723  0.1208  0.2756
  611MOL0     C84194   1.481   2.876  11.128  0.0917  0.2118 -0.1444
  611MOL0     C84195   1.339   2.915  11.180 -0.9471 -0.3028 -0.1274
  611MOL0     C84196   1.237   2.810  11.125 -0.5024  0.1145  0.1431
  611MOL0     N84197   1.121   2.791  11.211 -0.7477 -0.2660  0.3762
  611MOL0     C84198   1.049   2.893  11.284 -0.1680 -0.4270 -0.5332
  611MOL0     C84199   0.952   2.827  11.351 -0.4453  0.1515  0.1220
  611MOL0     C84200   0.854   2.896  11.435  0.5337 -0.0002 -0.0859
  611MOL0     C84201   0.846   2.835  11.582  0.0183 -1.4102  0.0747
  611MOL0     C84202   0.797   2.939  11.694  0.2935 -0.2450  1.0890
  611MOL0     C84203   0.648   2.935  11.726  0.3565  0.2436  0.2356
  611MOL0     O84204   0.624   2.814  11.789  0.5062 -0.0598 -0.6677
  611MOL0     C84205   0.495   2.783  11.807 -0.6712  0.2245  0.8148
  611MOL0     C84206   0.396   2.882  11.804  0.5268  0.1979  0.1557
  611MOL0     C84207   0.265   2.845  11.846 -0.2116 -0.8220 -0.1963
  611MOL0     C84208   0.156   2.954  11.841 -0.1121 -0.6377  0.4964
  611MOL0     C84209   0.237   2.707  11.879  0.9744 -0.2696 -0.3348
  611MOL0     C84210   0.100   2.662  11.913 -1.3374  0.3779  0.0332
  611MOL0     O84211   0.031   2.742  12.001  0.0081  0.0961  0.0742
  611MOL0     C84212  -0.104   2.721  12.020 -0.1921 -0.4462 -0.4768
  611MOL0     C84213  -0.154   2.600  12.063 -0.9846  0.1146  0.0973
  611MOL0     C84214  -0.294   2.581  12.069 -0.3567  0.0812 -0.3144
  611MOL0     C84215  -0.383   2.684  12.046 -0.2580 -0.0133 -0.2306
  611MOL0     O84216  -0.517   2.661  12.058  0.0879  0.5637 -0.3626
  611MOL0     C84217  -0.602   2.747  11.982  0.6974 -0.2216  0.2008
  611MOL0     C84218  -0.737   2.675  11.958 -0.5815  0.4698  0.4517
  611MOL0     C84219  -0.815   2.661  12.091  0.7408 -0.2415  0.1526
  611MOL0     C84220  -0.961   2.634  12.068  0.2570  0.2341 -1.1892
  611MOL0     C84221  -1.040   2.618  12.198 -0.5384 -0.6530  0.8991
  611MOL0     C84222  -1.190   2.622  12.167 -0.3118 -0.7823  0.4697
  611MOL0     C84223  -1.283   2.632  12.284  2.0897  0.0930  0.2928
  611MOL0     C84224  -1.417   2.678  12.240  0.6070  0.2441  0.0514
  611MOL0    Cl84225  -1.531   2.705  12.369 -0.2920  0.1665  0.3732
  611MOL0     C84226  -0.328   2.810  12.005 -0.0023 -0.9757 -0.5226
  611MOL0     C84227  -0.190   2.827  11.995 -0.3099 -0.2667 -0.4578
  611MOL0     O84228   0.063   2.554  11.874  0.2410  0.3099 -0.5130
  611MOL0     C84229   0.343   2.620  11.883  0.3669 -0.2262 -0.0069
  611MOL0     C84230   0.471   2.655  11.854 -0.3835  1.2121 -0.6559
  611MOL0     N84231   0.963   2.691  11.326 -0.0341  0.1803  0.5254
  611MOL0     N84232   1.058   2.681  11.243  0.5243 -0.1325  0.1358
  611MOL0     C84233   2.046   2.613  10.602  0.2835 -0.9150  0.8235
  611MOL0     C84234   2.091   2.553  10.482  0.1516 -0.5145  0.4598
  611MOL0     C84235   2.312   2.210  10.278 -0.2515  0.1965  0.1260
  611MOL0     C84236   2.204   2.158  10.194  0.0967  0.0170  0.0167
  611MOL0     C84237   2.222   2.090  10.078 -0.3007  1.5043 -0.2348
  611MOL0     C84238   2.347   2.039  10.055 -0.1111  0.0409 -0.0835
  611MOL0     O84239   2.367   1.961   9.945 -0.1687 -0.5862  0.2492
  611MOL0     C84240   2.479   2.005   9.856  0.0417  0.3308  0.1632
  611MOL0     C84241   2.456   1.975   9.715  0.7079 -0.5149 -0.0876
  611MOL0     C84242   2.462   1.826   9.679  0.3840  0.1423 -0.5154
  611MOL0     C84243   2.544   1.790   9.558 -0.0237 -0.5416  1.0753
  611MOL0     C84244   2.695   1.810   9.562  1.2663  0.0630 -0.6649
  611MOL0     C84245   2.813   1.809   9.586  0.2139  0.3107 -0.3268
  611MOL0     C84246   2.449   2.081  10.138 -0.6436 -0.9472  0.0670
  611MOL0     C84247   2.437   2.162  10.254 -0.4326  0.7322 -0.1886
  611MOL0     C84248   2.547   2.191  10.333 -0.5911 -1.1268 -0.0551
  611MOL0     H84249   2.067   2.232  10.581 -0.4053  0.3101  0.6921
  611MOL0     H84250   2.002   2.333  10.800  1.3958  1.7199  2.1081
  611MOL0     H84251   2.058   2.530  10.986 -0.0033 -1.5230 -0.6029
  611MOL0     H84252   1.888   2.479  10.945  1.6567 -1.8455 -0.6515
  611MOL0     H84253   1.931   2.629  11.153  0.0192 -0.7319 -0.8925
  611MOL0     H84254   1.961   2.759  11.038  1.5642 -1.2421  0.6718
  611MOL0     H84255   1.724   2.787  10.994 -2.6757  0.3551  1.2200
  611MOL0     H84256   1.685   2.613  11.002  0.5436  0.3674 -2.5213
  611MOL0     H84257   1.711   2.633  11.244 -0.0601  0.3567 -1.7168
  611MOL0     H84258   1.736   2.815  11.227 -2.0908  1.2575 -0.1317
  611MOL0     H84259   1.529   2.779  11.313 -1.0769 -0.5660  0.3121
  611MOL0     H84260   1.484   2.667  11.191 -2.2579  1.8987 -3.0178
  611MOL0     H84261   1.547   2.963  11.133 -0.6557  0.7446  0.7148
  611MOL0     H84262   1.471   2.841  11.025  1.5649 -0.3527 -0.1141
  611MOL0     H84263   1.322   3.018  11.148  0.4660 -0.3568 -1.1491
  611MOL0     H84264   1.344   2.921  11.290  4.4679  2.2043 -0.1895
  611MOL0     H84265   1.202   2.826  11.022 -0.2618 -2.5190 -0.4475
  611MOL0     H84266   1.290   2.715  11.109  0.1608  0.3402  0.9703
  611MOL0     H84267   1.066   3.000  11.277 -0.4153  0.0735  3.8772
  611MOL0     H84268   0.760   2.882  11.381 -0.1918 -3.4553  1.8090
  611MOL0     H84269   0.872   3.004  11.433 -0.7525  0.2245 -0.8068
  611MOL0     H84270   0.780   2.748  11.585 -2.6289  0.0499 -4.8739
  611MOL0     H84271   0.947   2.810  11.615 -0.2347  0.4281  2.5321
  611MOL0     H84272   0.857   2.929  11.785 -1.4399  0.7069  2.3910
  611MOL0     H84273   0.830   3.035  11.652 -1.2901  0.4936  1.4721
  611MOL0     H84274   0.624   3.029  11.777  2.1222  1.4458 -1.0186
  611MOL0     H84275   0.599   2.947  11.629 -0.6285 -1.3990  0.4907
  611MOL0     H84276   0.416   2.980  11.764  2.5840 -0.1577  0.1705
  611MOL0     H84277   0.156   3.032  11.918  0.2227 -0.3206  0.1739
  611MOL0     H84278   0.053   2.915  11.848 -1.1718  1.8839 -0.1840
  611MOL0     H84279   0.166   3.007  11.747  0.7517 -0.4236  0.7067
  611MOL0     H84280  -0.094   2.511  12.080  0.0179  0.7974  0.1982
  611MOL0     H84281  -0.334   2.484  12.098  2.0318 -0.8006  0.2362
  611MOL0     H84282  -0.621   2.837  12.040 -0.3697 -2.2171  3.1766
  611MOL0     H84283  -0.553   2.774  11.888  1.0042  1.4658  0.8055
  611MOL0     H84284  -0.790   2.726  11.878 -0.3554 -1.6507 -1.1226
  611MOL0     H84285  -0.713   2.576  11.918 -2.9793  0.7113 -1.7968
  611MOL0     H84286  -0.799   2.745  12.159  0.1102 -0.1530  0.2010
  611MOL0     H84287  -0.775   2.580  12.153  0.2958  0.0701  0.8648
  611MOL0     H84288  -0.983   2.547  12.004  0.2711 -0.5800 -0.1099
  611MOL0     H84289  -0.992   2.723  12.013 -0.7821  1.4029  1.1834
  611MOL0     H84290  -1.018   2.527  12.256 -1.4316 -0.8636  0.9299
  611MOL0     H84291  -1.008   2.697  12.266  0.1938  0.3094 -0.5363
  611MOL0     H84292  -1.219   2.529  12.117  0.0642 -1.1345  0.8974
  611MOL0     H84293  -1.208   2.701  12.094  1.7418  0.1936  0.9526
  611MOL0     H84294  -1.251   2.703  12.361 -0.9611  2.9037 -0.8110
  611MOL0     H84295  -1.300   2.535  12.332  1.5354  0.0949  0.1054
  611MOL0     H84296  -1.466   2.604  12.176  0.0522 -0.0690  0.8280
  611MOL0     H84297  -1.400   2.772  12.187  0.2941 -0.1083 -0.7036
  611MOL0     H84298  -0.394   2.895  11.993  0.4257 -0.2037  2.0807
  611MOL0     H84299  -0.154   2.922  11.957  0.3509 -0.8345 -1.2849
  611MOL0     H84300   0.323   2.521  11.924 -2.1235  0.9645  1.9235
  611MOL0     H84301   0.535   2.574  11.886 -1.4820  1.0568  1.3759
  611MOL0     H84302   2.053   2.721  10.597  1.8938 -0.9499  1.7258
  611MOL0     H84303   2.115   2.617  10.398 -2.2896  1.8378  1.4196
  611MOL0     H84304   2.102   2.195  10.206  0.1003  0.1318 -0.2943
  611MOL0     H84305   2.129   2.062  10.031 -0.0216 -1.2366  0.6822
  611MOL0     H84306   2.499   2.111   9.877  0.4522 -0.0191  1.6381
  611MOL0     H84307   2.572   1.965   9.898  0.2447  0.1539 -0.4327
  611MOL0     H84308   2.512   2.032   9.641  1.2712 -1.6831 -0.5846
  611MOL0     H84309   2.354   2.010   9.698  1.1730  2.0088  1.7407
  611MOL0     H84310   2.502   1.764   9.760 -1.1916 -1.2993 -0.7953
  611MOL0     H84311   2.360   1.789   9.679  0.2356  0.4462  1.4284
  611MOL0     H84312   2.504   1.847   9.473  1.2479 -2.0193 -0.5890
  611MOL0     H84313   2.510   1.689   9.532  2.2436 -0.9276 -0.6754
  611MOL0     H84314   2.917   1.808   9.615  0.0084 -1.6605  0.5177
  611MOL0     H84315   2.548   2.051  10.105  0.4671  1.2201  1.2388
  611MOL0     H84316   2.530   2.166  10.438 -0.1678 -4.1396 -0.6021
  611MOL0     H84317   2.630   2.122  10.313  0.4593 -1.0581  3.4611
  611MOL0     H84318   2.577   2.295  10.320  3.7315 -1.8106  2.3192
  612MOL0     O84319   2.081   7.245   5.841 -0.4421 -0.1658  0.8516
  612MOL0     C84320   2.071   7.155   5.920  0.2465 -0.6672 -1.0062
  612MOL0     O84321   1.944   7.102   5.959 -0.0498  0.4237  0.2268
  612MOL0     C84322   1.816   7.129   5.912  0.4861  0.2680  0.9814
  612MOL0     C84323   1.778   7.244   5.848  0.1927 -0.4916  0.1237
  612MOL0     C84324   1.641   7.258   5.812 -0.1122  0.6987  0.5697
  612MOL0     C84325   1.544   7.165   5.838 -0.2143  0.6927  0.0141
  612MOL0     O84326   1.413   7.200   5.796 -0.1506  0.1445 -0.7289
  612MOL0     C84327   1.297   7.133   5.852 -0.0030 -0.3415  0.6856
  612MOL0     C84328   1.169   7.214   5.806  0.2854 -0.6919 -0.6742
  612MOL0     C84329   1.163   7.244   5.657 -0.1239 -0.3807 -0.0326
  612MOL0     C84330   1.156   7.120   5.570 -0.1631 -0.7760  0.6523
  612MOL0     C84331   1.033   7.027   5.594 -0.1264 -0.1547 -0.3051
  612MOL0     C84332   0.996   6.933   5.479  1.1862 -1.0696 -0.0841
  612MOL0     C84333   0.935   7.007   5.355  0.0743  0.1253  0.7907
  612MOL0     C84334   0.818   6.938   5.281 -0.0874  0.5934  0.0870
  612MOL0     N84335   0.710   6.904   5.374 -0.0423 -0.3636  0.6643
  612MOL0     C84336   0.662   6.787   5.409  0.7118 -0.1038  0.1756
  612MOL0     C84337   0.574   6.803   5.507  1.0055  0.1555  1.0053
  612MOL0     C84338   0.493   6.696   5.566  0.8042  0.1738  0.2982
  612MOL0     C84339   0.352   6.744   5.613 -0.2755 -0.3204 -0.3685
  612MOL0     C84340   0.354   6.822   5.740  0.6919  0.3362  0.3387
  612MOL0     C84341   0.350   6.738   5.869 -0.1376  1.1291 -0.9058
  612MOL0     O84342   0.482   6.688   5.914 -0.1712 -1.0566  0.0734
  612MOL0     C84343   0.519   6.735   6.036  0.3121 -0.4902  0.4495
  612MOL0     C84344   0.531   6.874   6.079 -0.0576 -0.2632 -0.0246
  612MOL0     C84345   0.530   6.909   6.217  0.5375  0.6649 -0.2069
  612MOL0     C84346   0.539   7.054   6.251  0.4953  1.1156  0.4793
  612MOL0     C84347   0.505   6.804   6.318 -0.0797 -0.0532  0.7481
  612MOL0     C84348   0.494   6.827   6.461 -0.3928  0.6194 -0.9577
  612MOL0     O84349   0.384   6.768   6.529 -0.4848  0.2750 -0.2468
  612MOL0     C84350   0.415   6.716   6.651  0.1610  0.2402 -0.2800
  612MOL0     C84351   0.514   6.625   6.680 -0.1726  0.1060  0.4720
  612MOL0     C84352   0.536   6.575   6.810 -1.1746 -0.4448  0.5216
  612MOL0     C84353   0.445   6.607   6.910  0.9395  0.9407 -0.7235
  612MOL0     O84354   0.456   6.571   7.046  0.0944  0.7098 -0.4559
  612MOL0     C84355   0.568   6.498   7.089 -0.6252  0.3097 -0.5268
  612MOL0     C84356   0.594   6.524   7.235  0.8403 -0.2514 -1.2728
  612MOL0     C84357   0.734   6.482   7.265 -0.4808  0.5362 -0.3771
  612MOL0     C84358   0.781   6.482   7.412  0.6439 -0.5848 -1.3719
  612MOL0     C84359   0.937   6.463   7.426 -0.5123  0.7863 -0.2786
  612MOL0     C84360   0.977   6.327   7.356  0.2716  0.2173  0.1959
  612MOL0     C84361   1.124   6.290   7.382 -0.2462 -0.3292  0.6645
  612MOL0     C84362   1.227   6.375   7.311 -0.7937  1.0245 -0.0359
  612MOL0    Cl84363   1.249   6.299   7.153 -0.6329  0.1232  0.2724
  612MOL0     C84364   0.330   6.682   6.881 -1.2076  0.0462 -0.9813
  612MOL0     C84365   0.326   6.746   6.756 -0.2844 -0.4760  0.3472
  612MOL0     O84366   0.595   6.883   6.513 -0.2953 -0.4623  0.5891
  612MOL0     C84367   0.495   6.676   6.270 -0.1246  0.8515  0.3017
  612MOL0     C84368   0.509   6.640   6.135  0.8028 -0.1710 -0.0497
  612MOL0     N84369   0.572   6.942   5.536  0.2092  0.0794 -0.1137
  612MOL0     N84370   0.649   7.000   5.452  0.0082 -0.0226  0.4310
  612MOL0     C84371   1.583   7.051   5.907  0.1254  0.1709  0.2517
  612MOL0     C84372   1.715   7.030   5.941 -0.1089  0.7101  0.3846
  612MOL0     C84373   2.180   7.099   6.007 -0.2483 -0.1533 -0.5642
  612MOL0     C84374   2.167   6.969   6.072 -0.3186  0.6070 -0.5675
  612MOL0     C84375   2.271   6.896   6.116 -0.1077  0.0024 -1.1380
  612MOL0     C84376   2.396   6.957   6.128  0.5995 -0.0857  0.3011
  612MOL0     O84377   2.501   6.885   6.181 -0.6344  0.2313  0.1628
  612MOL0     C84378   2.618   6.954   6.217 -0.9226  0.0727 -0.2265
  612MOL0     C84379   2.738   6.941   6.119  0.4559 -0.4699 -0.5620
  612MOL0     C84380   2.760   6.789   6.110 -0.0261  0.5337 -0.4469
  612MOL0     C84381   2.701   6.743   5.980  0.0987  0.0298 -0.4548
  612MOL0     C84382   2.783   6.654   5.909 -0.4576  0.3487 -0.3195
  612MOL0     C84383   2.840   6.577   5.847  0.3544  0.5751  0.8185
  612MOL0     C84384   2.413   7.087   6.080  0.0370  0.1873  0.5734
  612MOL0     C84385   2.311   7.155   6.016 -0.2991 -0.2124 -0.1014
  612MOL0     C84386   2.363   7.277   5.944 -0.7418 -0.3894 -0.5638
  612MOL0     H84387   1.836   7.335   5.844  1.3647 -0.8036  4.5214
  612MOL0     H84388   1.608   7.343   5.754  0.6384 -1.1090 -2.7358
  612MOL0     H84389   1.311   7.133   5.961 -1.3685  2.0372  0.9137
  612MOL0     H84390   1.291   7.031   5.813  0.7033 -0.2854  0.4185
  612MOL0     H84391   1.081   7.159   5.842  1.5095 -2.0284  0.4240
  612MOL0     H84392   1.164   7.306   5.866 -0.1997  0.2034 -2.0373
  612MOL0     H84393   1.069   7.294   5.633 -1.0761 -2.9932 -2.3464
  612MOL0     H84394   1.251   7.297   5.621  0.5339 -2.6810 -2.1343
  612MOL0     H84395   1.157   7.153   5.466  1.9160  2.1705  1.4491
  612MOL0     H84396   1.250   7.067   5.588 -0.0487 -0.2282  1.7781
  612MOL0     H84397   0.944   7.086   5.619 -1.0528 -1.9873  0.9332
  612MOL0     H84398   1.061   6.965   5.680  2.9173 -1.1237 -1.8733
  612MOL0     H84399   1.080   6.871   5.448  0.6532 -0.2071 -3.7463
  612MOL0     H84400   0.917   6.871   5.523  1.1098 -1.8105 -1.2338
  612MOL0     H84401   1.021   7.026   5.291  0.1860 -0.8113  0.6420
  612MOL0     H84402   0.890   7.101   5.387  1.2758  0.2830  2.1645
  612MOL0     H84403   0.783   7.011   5.208 -1.1253  0.4896  0.4556
  612MOL0     H84404   0.857   6.845   5.240 -0.6183  0.4589 -0.1194
  612MOL0     H84405   0.678   6.691   5.362 -1.7385  1.2795 -3.9876
  612MOL0     H84406   0.554   6.654   5.646  3.3643  1.1273 -1.0382
  612MOL0     H84407   0.485   6.613   5.496  0.7631 -0.0500  0.5640
  612MOL0     H84408   0.309   6.794   5.526  2.1481 -0.6210 -1.8363
  612MOL0     H84409   0.297   6.650   5.627  0.9713 -1.0180  0.0531
  612MOL0     H84410   0.433   6.897   5.747 -0.1531  1.2870 -0.0424
  612MOL0     H84411   0.262   6.881   5.736  0.4844  0.0643  0.9437
  612MOL0     H84412   0.302   6.799   5.946  0.7472  0.5914  0.0971
  612MOL0     H84413   0.282   6.656   5.844  0.9164 -0.0885  0.0911
  612MOL0     H84414   0.532   6.961   6.014 -3.4347  0.8779  1.2751
  612MOL0     H84415   0.522   7.119   6.165 -0.1867 -1.5755 -1.5691
  612MOL0     H84416   0.626   7.087   6.309  0.2910 -0.0938  1.5075
  612MOL0     H84417   0.457   7.068   6.322 -1.2182  0.9478 -1.3800
  612MOL0     H84418   0.569   6.603   6.589 -0.5693  3.0516 -0.5756
  612MOL0     H84419   0.618   6.509   6.832 -0.0001  0.2897 -1.4184
  612MOL0     H84420   0.552   6.390   7.077  0.0037  0.3252 -1.6610
  612MOL0     H84421   0.660   6.516   7.033 -0.4025 -1.7357 -0.8997
  612MOL0     H84422   0.572   6.628   7.260  0.6098  0.3586 -3.7152
  612MOL0     H84423   0.521   6.465   7.290 -0.3583  2.0232 -0.2942
  612MOL0     H84424   0.799   6.554   7.215  2.5638 -0.1598  2.2249
  612MOL0     H84425   0.747   6.384   7.218 -0.3951  2.4583 -4.9002
  612MOL0     H84426   0.724   6.418   7.480 -1.0047 -0.6011 -2.7075
  612MOL0     H84427   0.753   6.583   7.445 -1.6804 -1.9624  1.2877
  612MOL0     H84428   0.985   6.545   7.372  2.8026 -1.5033 -1.1100
  612MOL0     H84429   0.975   6.480   7.527 -0.8232  1.7209 -0.3044
  612MOL0     H84430   0.959   6.340   7.249 -1.8295 -0.3953  0.4356
  612MOL0     H84431   0.918   6.244   7.395  3.6322 -1.5583  1.9889
  612MOL0     H84432   1.130   6.188   7.342 -1.9427 -1.0740  2.1677
  612MOL0     H84433   1.148   6.290   7.489 -0.1494  2.7180  0.7269
  612MOL0     H84434   1.320   6.369   7.368 -0.8712  0.8468  0.0752
  612MOL0     H84435   1.195   6.479   7.302  0.1544  1.3914  0.6397
  612MOL0     H84436   0.248   6.691   6.951 -1.0983 -2.1546 -0.5025
  612MOL0     H84437   0.238   6.809   6.749 -0.6812 -0.9043  1.2552
  612MOL0     H84438   0.488   6.587   6.333  0.8688 -1.1504 -2.2382
  612MOL0     H84439   0.497   6.534   6.115  1.1907 -0.7622  2.5428
  612MOL0     H84440   1.514   6.971   5.932  0.6580 -0.5305 -0.4697
  612MOL0     H84441   1.735   6.933   5.986 -2.3075 -1.4467 -2.8455
  612MOL0     H84442   2.069   6.923   6.078 -1.1668  2.0460 -2.5696
  612MOL0     H84443   2.242   6.791   6.128 -2.1190  0.4717 -1.4597
  612MOL0     H84444   2.606   7.058   6.246 -2.6813  0.0637 -0.7981
  612MOL0     H84445   2.650   6.915   6.314 -1.2583  1.1597  0.3334
  612MOL0     H84446   2.823   6.986   6.171 -0.8286 -0.0333  1.2460
  612MOL0     H84447   2.720   6.998   6.027 -1.8766  1.7466  1.1355
  612MOL0     H84448   2.867   6.769   6.103 -0.7299 -4.0852 -1.5065
  612MOL0     H84449   2.709   6.732   6.189 -0.6312 -1.5213 -2.2139
  612MOL0     H84450   2.685   6.833   5.920  1.5007 -0.2081 -1.2111
  612MOL0     H84451   2.605   6.697   6.005  0.8836 -2.2512 -1.3915
  612MOL0     H84452   2.889   6.499   5.793 -0.2593 -0.0431  1.1397
  612MOL0     H84453   2.511   7.133   6.081  1.4288 -2.5887  1.0306
  612MOL0     H84454   2.322   7.369   5.987  2.9301 -0.0887  2.8781
  612MOL0     H84455   2.470   7.276   5.965 -1.1629 -3.2233  2.0724
  612MOL0     H84456   2.334   7.280   5.838  0.0720  4.7225 -0.8880
  613MOL0     O84457   8.384  11.359   1.440  1.0008  0.3298 -0.0922
  613MOL0     C84458   8.433  11.298   1.534  0.4427  0.6831  0.7662
  613MOL0     O84459   8.561  11.294   1.574 -0.4029 -1.2665  0.4862
  613MOL0     C84460   8.653  11.389   1.531  0.7295  0.7313  0.4485
  613MOL0     C84461   8.628  11.527   1.537  0.5434  0.2223  0.0876
  613MOL0     C84462   8.721  11.614   1.494 -0.3401 -0.0624  0.1897
  613MOL0     C84463   8.851  11.571   1.451  0.5861 -0.6503 -0.3624
  613MOL0     O84464   8.949  11.655   1.403  0.5595 -0.4935 -0.2103
  613MOL0     C84465   8.913  11.775   1.326 -0.5584 -0.4693 -0.1517
  613MOL0     C84466   9.051  11.837   1.278 -0.0446 -0.3116  0.5196
  613MOL0     C84467   9.054  11.977   1.206  0.1963  1.5121 -0.6189
  613MOL0     C84468   9.206  12.016   1.186  0.1360  0.3052 -0.6190
  613MOL0     C84469   9.203  12.165   1.135  0.1647 -0.2882 -0.1993
  613MOL0     C84470   9.343  12.213   1.103  0.3473 -0.1126  0.3148
  613MOL0     C84471   9.345  12.361   1.055 -0.2230  0.3173 -0.1646
  613MOL0     C84472   9.487  12.413   1.061  0.9139  0.5175 -0.3641
  613MOL0     N84473   9.522  12.445   1.200 -0.9286  0.6829  0.2607
  613MOL0     C84474   9.630  12.382   1.260  0.7535 -0.4023  0.0499
  613MOL0     C84475   9.619  12.399   1.395  0.2057  0.0278 -0.5062
  613MOL0     C84476   9.709  12.347   1.502  0.8826 -1.1629  0.3572
  613MOL0     C84477   9.632  12.305   1.637  0.4347  0.0799  0.3832
  613MOL0     C84478   9.663  12.381   1.774  0.1257 -0.1704 -0.0243
  613MOL0     C84479   9.796  12.369   1.839 -0.0996  0.5341 -0.4798
  613MOL0     O84480   9.889  12.449   1.757 -0.0744  0.3058  0.2805
  613MOL0     C84481  10.022  12.458   1.780  0.3711  0.1169  1.1287
  613MOL0     C84482  10.073  12.405   1.894  0.0536 -0.5798  0.0762
  613MOL0     C84483  10.211  12.407   1.916  0.8943  0.4385  0.6698
  613MOL0     C84484  10.254  12.339   2.046 -0.2325  0.1304 -0.0125
  613MOL0     C84485  10.294  12.458   1.814  0.5376  0.3277 -0.2232
  613MOL0     C84486  10.439  12.441   1.832  0.5982  0.3277  0.6610
  613MOL0     O84487  10.510  12.450   1.708 -0.0720 -0.2483  0.1165
  613MOL0     C84488  10.633  12.396   1.710 -0.3558  0.7889  0.1141
  613MOL0     C84489  10.645  12.263   1.650  0.9556 -0.4682  0.2478
  613MOL0     C84490  10.776  12.211   1.636  0.5423 -0.0858 -0.2935
  613MOL0     C84491  10.888  12.272   1.693 -0.1444  0.6493  0.3937
  613MOL0     O84492  11.007  12.202   1.694  0.8434 -0.3665 -0.3216
  613MOL0     C84493  11.039  12.138   1.824 -0.1946 -0.2774 -0.0289
  613MOL0     C84494  11.186  12.099   1.822  0.0459 -0.1259  1.0071
  613MOL0     C84495  11.232  12.036   1.686  0.4391  0.2656 -0.2267
  613MOL0     C84496  11.375  11.992   1.708  0.0106  0.0714 -0.7238
  613MOL0     C84497  11.412  11.897   1.599  0.2211 -0.4589  0.4403
  613MOL0     C84498  11.526  11.955   1.512  0.1896 -1.1951 -0.0279
  613MOL0     C84499  11.497  12.079   1.425 -0.0762 -0.9772 -0.3130
  613MOL0     C84500  11.629  12.158   1.410  0.1961 -0.0561 -0.2803
  613MOL0    Cl84501  11.760  12.072   1.334 -0.2389 -0.5607  0.1991
  613MOL0     C84502  10.864  12.390   1.760 -0.2191  0.8848 -0.7271
  613MOL0     C84503  10.743  12.460   1.770  1.4232 -0.0912 -0.5809
  613MOL0     O84504  10.502  12.440   1.940 -0.0162  0.5151 -0.3189
  613MOL0     C84505  10.236  12.510   1.697 -0.3180 -0.1685 -0.2837
  613MOL0     C84506  10.096  12.514   1.679  0.4065  1.1101 -0.5844
  613MOL0     N84507   9.506  12.471   1.411 -0.5968 -0.0204  0.2488
  613MOL0     N84508   9.459  12.514   1.295 -0.6827  0.4607 -0.6779
  613MOL0     C84509   8.885  11.440   1.456  0.1298  0.4429 -0.4809
  613MOL0     C84510   8.783  11.342   1.498  0.4951 -0.1997 -0.4174
  613MOL0     C84511   8.350  11.208   1.614 -0.3122  0.2810 -0.2074
  613MOL0     C84512   8.414  11.134   1.717 -0.0421 -0.5156  0.4978
  613MOL0     C84513   8.348  11.037   1.795  0.7407  0.5708  0.6019
  613MOL0     C84514   8.207  11.014   1.769  0.1929 -1.4222 -0.5964
  613MOL0     O84515   8.136  10.932   1.852 -0.0892  0.5151  0.0610
  613MOL0     C84516   8.040  10.981   1.944 -0.0142 -0.6219  0.3222
  613MOL0     C84517   8.061  10.917   2.079 -0.5770 -0.7305  0.2380
  613MOL0     C84518   8.025  10.767   2.074 -0.2611  0.2329 -1.1729
  613MOL0     C84519   7.871  10.743   2.100  0.8301  0.3319 -0.0668
  613MOL0     C84520   7.819  10.767   2.235 -0.3473 -0.9211  0.1716
  613MOL0     C84521   7.772  10.788   2.347 -0.1654  0.7726 -0.6249
  613MOL0     C84522   8.143  11.086   1.675  0.0894  1.0923  0.1067
  613MOL0     C84523   8.213  11.170   1.586 -0.3493 -0.8492 -0.7812
  613MOL0     C84524   8.135  11.224   1.472  0.2707  0.4080 -0.6209
  613MOL0     H84525   8.533  11.563   1.575  0.5721  0.3574  0.0336
  613MOL0     H84526   8.694  11.719   1.494  1.3960  0.4236  0.1937
  613MOL0     H84527   8.867  11.847   1.394 -1.7093  1.1481 -2.4649
  613MOL0     H84528   8.840  11.752   1.248  0.6139 -1.7831 -0.8976
  613MOL0     H84529   9.093  11.851   1.379 -1.0102 -0.9228  1.0171
  613MOL0     H84530   9.120  11.769   1.229  0.1941 -0.5379  1.1493
  613MOL0     H84531   9.008  11.974   1.107  0.8961  0.0359 -0.9275
  613MOL0     H84532   8.995  12.049   1.264 -1.1030 -0.7093  0.9511
  613MOL0     H84533   9.262  12.017   1.280  0.2547  0.3034 -0.6892
  613MOL0     H84534   9.267  11.957   1.116 -1.6930  1.7546 -3.6693
  613MOL0     H84535   9.141  12.209   1.213 -1.8478 -1.5546 -0.9936
  613MOL0     H84536   9.142  12.170   1.044 -0.0631 -0.1891 -0.0399
  613MOL0     H84537   9.397  12.200   1.197  0.7103 -2.8355 -0.1790
  613MOL0     H84538   9.392  12.141   1.037  1.3102  1.9994 -1.4020
  613MOL0     H84539   9.275  12.425   1.109 -0.4344  3.0896 -3.3596
  613MOL0     H84540   9.317  12.361   0.949 -1.9210 -3.1592  0.1587
  613MOL0     H84541   9.549  12.335   1.015  1.2690  0.5322  0.0912
  613MOL0     H84542   9.499  12.501   0.998  1.6394  3.2221  3.2642
  613MOL0     H84543   9.701  12.325   1.200  0.6651  0.4161 -0.8706
  613MOL0     H84544   9.780  12.422   1.537 -2.1626  0.9281  2.5389
  613MOL0     H84545   9.751  12.255   1.459  3.3641  1.2998 -3.0335
  613MOL0     H84546   9.525  12.302   1.613  0.8114  0.4564 -1.5540
  613MOL0     H84547   9.644  12.201   1.666  1.6164 -0.2445 -1.1152
  613MOL0     H84548   9.647  12.487   1.752 -0.3953  0.1428  1.6864
  613MOL0     H84549   9.579  12.342   1.832 -1.4138  2.8907  0.0301
  613MOL0     H84550   9.781  12.416   1.937  0.2157  0.1751 -0.2581
  613MOL0     H84551   9.837  12.269   1.859  0.0710  0.8512  0.8862
  613MOL0     H84552  10.010  12.376   1.978  2.5890 -1.7878  1.6781
  613MOL0     H84553  10.318  12.255   2.018  1.5952  1.9597 -1.6596
  613MOL0     H84554  10.168  12.312   2.108 -1.3908  2.6613 -0.3545
  613MOL0     H84555  10.317  12.415   2.095  1.4248 -0.8845 -0.4917
  613MOL0     H84556  10.572  12.211   1.588  0.8095  0.8591 -0.7368
  613MOL0     H84557  10.780  12.108   1.602 -2.5777 -0.4814  0.2407
  613MOL0     H84558  10.993  12.199   1.902 -3.9298 -1.1380 -1.3545
  613MOL0     H84559  10.981  12.045   1.824 -3.4817  1.5707  1.3301
  613MOL0     H84560  11.248  12.186   1.844  1.6009  0.1032 -3.2770
  613MOL0     H84561  11.200  12.026   1.903  0.4365 -0.1416  0.9276
  613MOL0     H84562  11.232  12.104   1.601 -0.5616  0.2116 -0.2839
  613MOL0     H84563  11.174  11.945   1.668 -0.7638  1.1841 -1.1502
  613MOL0     H84564  11.378  11.935   1.801  1.6131 -1.4595 -1.6597
  613MOL0     H84565  11.436  12.081   1.727  3.5725 -2.1037 -1.1938
  613MOL0     H84566  11.457  11.809   1.648  1.5761  0.7833  1.5138
  613MOL0     H84567  11.334  11.855   1.535 -0.9492  0.9015  0.9508
  613MOL0     H84568  11.574  11.876   1.454 -2.6538 -1.9566 -1.5740
  613MOL0     H84569  11.611  11.982   1.574  0.1014  1.0800 -0.7924
  613MOL0     H84570  11.423  12.145   1.471 -0.2542  0.0299 -1.9498
  613MOL0     H84571  11.467  12.044   1.325 -0.9005 -0.4338 -0.2609
  613MOL0     H84572  11.642  12.208   1.507 -2.1501 -0.0025  0.0598
  613MOL0     H84573  11.608  12.242   1.344  0.5186  1.5815  1.5742
  613MOL0     H84574  10.946  12.434   1.815  0.2614  2.2308 -2.4375
  613MOL0     H84575  10.736  12.555   1.822 -2.2641 -1.0123  0.9520
  613MOL0     H84576  10.301  12.545   1.618 -2.0255  1.2464 -1.1420
  613MOL0     H84577  10.049  12.551   1.589 -0.9119 -1.1104 -0.8841
  613MOL0     H84578   8.982  11.401   1.426  0.1668  0.0002  0.1799
  613MOL0     H84579   8.815  11.239   1.509  0.1090 -0.1497  1.5793
  613MOL0     H84580   8.521  11.140   1.734  0.0676 -1.6365  0.2860
  613MOL0     H84581   8.385  10.982   1.880 -1.0874  0.1716  1.1752
  613MOL0     H84582   8.060  11.088   1.951 -1.2251 -0.2679 -1.2190
  613MOL0     H84583   7.937  10.970   1.910 -1.4643  2.1526  3.2836
  613MOL0     H84584   8.003  10.971   2.156  0.7009  0.8961  0.1194
  613MOL0     H84585   8.168  10.920   2.101  0.0602 -2.1429 -2.3792
  613MOL0     H84586   8.049  10.722   1.977 -0.6417  0.2668 -1.2829
  613MOL0     H84587   8.079  10.722   2.158 -1.8848 -0.2654 -0.3673
  613MOL0     H84588   7.854  10.637   2.075  0.1241  0.4590 -0.1539
  613MOL0     H84589   7.811  10.803   2.031  0.8051 -0.9415 -1.2015
  613MOL0     H84590   7.738  10.800   2.448 -2.9510 -1.8661 -1.1012
  613MOL0     H84591   8.049  11.045   1.639  1.6901 -2.0159 -0.9198
  613MOL0     H84592   8.122  11.330   1.497 -1.0173  0.4187 -1.2530
  613MOL0     H84593   8.194  11.201   1.384  0.8491 -4.3896  0.7176
  613MOL0     H84594   8.045  11.162   1.463 -0.0688  0.4796  1.6825
  614MOL0     O84595   7.729   4.619   3.845  0.3584 -0.2384 -0.5515
  614MOL0     C84596   7.847   4.620   3.804  0.9684 -0.0573  0.7165
  614MOL0     O84597   7.918   4.736   3.781  0.0436  0.2361  0.3318
  614MOL0     C84598   7.863   4.857   3.796 -0.5953  0.6864 -0.8770
  614MOL0     C84599   7.736   4.901   3.751 -0.3973 -1.0734 -0.1368
  614MOL0     C84600   7.698   5.030   3.780  0.1054 -0.1339  0.0426
  614MOL0     C84601   7.779   5.117   3.865 -0.5747  0.2640  0.8734
  614MOL0     O84602   7.741   5.239   3.910 -0.3944  0.1843  0.3899
  614MOL0     C84603   7.609   5.238   3.966  0.6841 -0.6205 -0.2804
  614MOL0     C84604   7.578   5.358   4.057 -0.2787  1.0057  0.4650
  614MOL0     C84605   7.659   5.366   4.185 -0.1137  1.3330 -0.7869
  614MOL0     C84606   7.640   5.248   4.274  0.7425 -0.0803  0.0557
  614MOL0     C84607   7.671   5.287   4.425  0.6757  0.0155  0.0090
  614MOL0     C84608   7.547   5.309   4.512  0.0954  0.1269 -0.8887
  614MOL0     C84609   7.586   5.351   4.662 -0.3515 -0.7303  0.4942
  614MOL0     C84610   7.610   5.238   4.759  0.0809 -0.0089 -0.1302
  614MOL0     N84611   7.488   5.165   4.799 -0.8363 -0.8553 -0.4765
  614MOL0     C84612   7.446   5.041   4.768 -0.4272  0.4365 -0.8478
  614MOL0     C84613   7.356   5.011   4.865 -0.7752  0.0968  0.4583
  614MOL0     C84614   7.306   4.865   4.886 -1.1183 -0.8469 -0.3855
  614MOL0     C84615   7.174   4.829   4.820  1.4670  0.4277 -0.2327
  614MOL0     C84616   7.065   4.928   4.859  0.0113 -1.2000 -0.3277
  614MOL0     C84617   6.931   4.867   4.865 -0.3349  0.9674 -0.3853
  614MOL0     O84618   6.890   4.816   4.737 -0.3113  0.2622 -0.1320
  614MOL0     C84619   6.864   4.907   4.642  0.6790 -0.2046  0.8490
  614MOL0     C84620   6.791   5.024   4.672  0.4568 -0.1971  0.2228
  614MOL0     C84621   6.748   5.113   4.561 -0.6722 -0.7429  0.1117
  614MOL0     C84622   6.658   5.238   4.597 -0.2812  0.1740  0.3085
  614MOL0     C84623   6.791   5.072   4.430 -1.2074 -0.5452  1.0091
  614MOL0     C84624   6.768   5.141   4.310 -0.1948 -0.1117  0.2056
  614MOL0     O84625   6.865   5.136   4.218  0.2468 -1.4260  0.0921
  614MOL0     C84626   6.866   5.188   4.090 -0.2401  0.1391 -0.7109
  614MOL0     C84627   6.952   5.129   3.997 -0.3378  0.3871 -1.2316
  614MOL0     C84628   6.949   5.179   3.865  0.6872  0.4686 -1.6628
  614MOL0     C84629   6.866   5.290   3.833  0.7281 -0.7075  0.6278
  614MOL0     O84630   6.896   5.342   3.715 -0.4516  0.1415 -0.4751
  614MOL0     C84631   6.839   5.466   3.674 -0.2053  0.6419 -0.6111
  614MOL0     C84632   6.879   5.502   3.529  0.3648  0.4714 -0.5178
  614MOL0     C84633   6.983   5.621   3.546 -0.0267  0.4782 -0.0829
  614MOL0     C84634   7.034   5.663   3.413 -0.5510 -0.3517  0.0332
  614MOL0     C84635   7.145   5.768   3.436  0.2338  0.2950  0.6415
  614MOL0     C84636   7.217   5.808   3.299  1.1882  0.1438 -1.0083
  614MOL0     C84637   7.321   5.913   3.319  1.0384 -0.3154  0.6128
  614MOL0     C84638   7.432   5.896   3.222  0.4228  0.0475  0.0196
  614MOL0    Cl84639   7.511   6.048   3.206 -0.0100  0.0829 -0.0443
  614MOL0     C84640   6.786   5.347   3.930  0.4632  0.3167 -0.4696
  614MOL0     C84641   6.793   5.299   4.057  0.6498 -0.2995 -0.2172
  614MOL0     O84642   6.649   5.182   4.295  0.3626 -0.1541 -0.2326
  614MOL0     C84643   6.861   4.949   4.417  0.8030 -0.0641  0.6762
  614MOL0     C84644   6.893   4.866   4.520  1.2125  1.4141 -0.0177
  614MOL0     N84645   7.348   5.116   4.957  0.4385 -0.6325  0.2890
  614MOL0     N84646   7.421   5.217   4.911 -0.4594 -0.4502  0.1293
  614MOL0     C84647   7.900   5.075   3.903 -0.0879 -0.0590  0.3663
  614MOL0     C84648   7.937   4.943   3.875 -0.4844  0.0447 -0.0480
  614MOL0     C84649   7.910   4.492   3.754  0.2591 -0.1418 -0.4558
  614MOL0     C84650   8.048   4.495   3.723 -0.2300  0.6509 -0.2710
  614MOL0     C84651   8.107   4.379   3.669 -0.0869 -0.4467 -1.4579
  614MOL0     C84652   8.039   4.254   3.661 -0.1602 -0.6685  0.0678
  614MOL0     O84653   8.095   4.139   3.609 -0.8375 -0.6384 -0.4134
  614MOL0     C84654   8.235   4.106   3.636  1.1736 -0.6300  0.5391
  614MOL0     C84655   8.277   4.141   3.778  0.3085 -0.1769  0.8367
  614MOL0     C84656   8.411   4.080   3.814  0.3325 -0.1646  0.5378
  614MOL0     C84657   8.397   3.951   3.901  0.2968 -0.3784  0.7870
  614MOL0     C84658   8.356   3.831   3.826  0.2114  0.1693 -0.1064
  614MOL0     C84659   8.316   3.738   3.756  1.2666  0.2534  0.9789
  614MOL0     C84660   7.907   4.255   3.683 -0.5598  0.1484 -0.3200
  614MOL0     C84661   7.843   4.368   3.731  0.6507  0.0380 -0.4027
  614MOL0     C84662   7.704   4.335   3.767 -0.0003  0.3050  0.6798
  614MOL0     H84663   7.681   4.824   3.697  1.5080 -3.3051  0.8872
  614MOL0     H84664   7.613   5.083   3.738  1.2019  0.3305 -1.6704
  614MOL0     H84665   7.590   5.143   4.017 -2.2406 -0.0553 -0.1065
  614MOL0     H84666   7.536   5.238   3.884  0.7359  1.9937 -0.4036
  614MOL0     H84667   7.600   5.452   4.006  3.5189  0.4547  0.7702
  614MOL0     H84668   7.471   5.356   4.076 -0.1216  2.5537  1.7179
  614MOL0     H84669   7.766   5.380   4.171  0.6678 -2.0207  0.7324
  614MOL0     H84670   7.627   5.456   4.238  1.2013  0.5163  1.5185
  614MOL0     H84671   7.542   5.203   4.257  0.2285  0.5308  1.2523
  614MOL0     H84672   7.709   5.170   4.241 -1.1714 -2.0653  0.5545
  614MOL0     H84673   7.742   5.370   4.425  0.3480  0.3032  0.7335
  614MOL0     H84674   7.723   5.200   4.465  0.9797  1.3957  2.8387
  614MOL0     H84675   7.487   5.385   4.461 -1.9859 -0.0844  1.0837
  614MOL0     H84676   7.478   5.224   4.511 -1.0978  1.0766 -1.6863
  614MOL0     H84677   7.517   5.421   4.709 -0.2146 -0.1782 -0.1192
  614MOL0     H84678   7.681   5.405   4.653 -1.5869  1.1000 -2.7819
  614MOL0     H84679   7.683   5.164   4.725  0.2303 -0.5793  1.3512
  614MOL0     H84680   7.654   5.286   4.846  2.4243  0.3371 -1.4110
  614MOL0     H84681   7.487   4.969   4.698  0.1304  0.6758 -0.7700
  614MOL0     H84682   7.291   4.828   4.988 -1.4173 -2.4733 -0.9775
  614MOL0     H84683   7.393   4.808   4.851 -0.7153 -1.3412  1.3198
  614MOL0     H84684   7.181   4.838   4.711 -1.2880  0.1509 -0.5126
  614MOL0     H84685   7.164   4.722   4.843  0.0748  0.5858 -0.0385
  614MOL0     H84686   7.084   4.954   4.963 -2.1260 -1.3769  0.1444
  614MOL0     H84687   7.051   5.011   4.790 -1.4995 -0.1980  1.1202
  614MOL0     H84688   6.948   4.781   4.930  2.7295  1.4484 -0.3616
  614MOL0     H84689   6.856   4.925   4.918  0.1991  1.8217 -0.5484
  614MOL0     H84690   6.760   5.043   4.774  1.1625 -0.1885  0.4403
  614MOL0     H84691   6.552   5.210   4.605 -0.6953  0.5823 -2.6637
  614MOL0     H84692   6.668   5.318   4.522  0.5194 -0.6046 -0.4319
  614MOL0     H84693   6.684   5.287   4.692 -0.8858  2.0171 -0.4174
  614MOL0     H84694   7.037   5.076   4.038 -0.1851  0.7202 -1.1085
  614MOL0     H84695   7.024   5.145   3.794  0.1191 -2.3063 -1.0646
  614MOL0     H84696   6.730   5.459   3.681 -0.2786  1.6913 -0.5510
  614MOL0     H84697   6.869   5.544   3.745 -2.4506  0.3059  0.8139
  614MOL0     H84698   6.924   5.415   3.482  1.9245 -0.4713  2.4603
  614MOL0     H84699   6.786   5.531   3.478 -1.3857 -0.4416  1.9426
  614MOL0     H84700   7.062   5.590   3.615 -0.4257 -3.1136 -1.0563
  614MOL0     H84701   6.927   5.704   3.591 -0.2623  1.4577 -2.0587
  614MOL0     H84702   6.956   5.702   3.346  0.1962  3.3579  1.0980
  614MOL0     H84703   7.080   5.576   3.365 -0.9791 -1.2690  1.2432
  614MOL0     H84704   7.100   5.858   3.477 -0.5764  1.4558 -2.4980
  614MOL0     H84705   7.212   5.715   3.505 -1.5099 -0.9209  1.4934
  614MOL0     H84706   7.140   5.847   3.232  1.1270  1.9466  0.0567
  614MOL0     H84707   7.251   5.716   3.249 -1.1836  0.4150 -3.3975
  614MOL0     H84708   7.365   5.921   3.419 -0.1003 -0.6698  1.1538
  614MOL0     H84709   7.278   6.009   3.288 -1.4020 -0.9196  1.9097
  614MOL0     H84710   7.399   5.877   3.119  1.5698 -0.1901 -0.3256
  614MOL0     H84711   7.507   5.823   3.252  0.3291 -0.8009 -1.6561
  614MOL0     H84712   6.728   5.436   3.910 -2.8111 -1.8063 -1.1256
  614MOL0     H84713   6.738   5.365   4.124 -0.4653 -0.4173 -0.9879
  614MOL0     H84714   6.872   4.925   4.312 -1.2443  3.3259 -0.4829
  614MOL0     H84715   6.943   4.769   4.521  0.1590  0.8574  1.3955
  614MOL0     H84716   7.959   5.131   3.974 -0.8103 -1.3615  2.0515
  614MOL0     H84717   8.040   4.924   3.902 -0.0091  2.5025  0.1009
  614MOL0     H84718   8.099   4.590   3.734 -0.4368  0.7810 -0.4212
  614MOL0     H84719   8.212   4.391   3.646 -0.6161  3.6832 -2.4556
  614MOL0     H84720   8.248   3.997   3.631  0.6314 -0.7931  1.9132
  614MOL0     H84721   8.299   4.152   3.561 -2.0317 -0.8130 -2.5364
  614MOL0     H84722   8.195   4.115   3.846  0.1988  1.4866  1.3817
  614MOL0     H84723   8.294   4.247   3.793 -1.4803  0.2217  0.3025
  614MOL0     H84724   8.459   4.056   3.719 -0.7873 -1.3398  0.2314
  614MOL0     H84725   8.474   4.154   3.864  1.3655 -2.8534  3.6554
  614MOL0     H84726   8.328   3.967   3.984  1.5895  1.1577  1.6219
  614MOL0     H84727   8.493   3.922   3.944  0.2425 -0.8750  0.5797
  614MOL0     H84728   8.275   3.655   3.702  0.0396  2.3173 -1.4812
  614MOL0     H84729   7.854   4.162   3.665 -1.2553  0.2778  0.9594
  614MOL0     H84730   7.679   4.229   3.771 -0.1623  0.3495  0.8806
  614MOL0     H84731   7.682   4.369   3.868 -1.4570 -1.2967  0.9439
  614MOL0     H84732   7.632   4.389   3.704  0.9226  0.8821  0.0876
  615MOL0     O84733   0.721   7.140   3.838 -0.1363  0.5973 -0.4919
  615MOL0     C84734   0.636   7.226   3.821  0.3693  0.6762 -0.6342
  615MOL0     O84735   0.506   7.221   3.878  0.1032 -0.1019 -0.4801
  615MOL0     C84736   0.473   7.124   3.978 -0.6586 -0.2094 -0.1466
  615MOL0     C84737   0.455   7.163   4.113  0.5879 -0.6252  0.4305
  615MOL0     C84738   0.434   7.071   4.213  0.0533  0.1182 -0.6054
  615MOL0     C84739   0.447   6.936   4.194 -0.2181 -0.3754  0.2497
  615MOL0     O84740   0.416   6.855   4.295  0.5281  0.4537 -0.1728
  615MOL0     C84741   0.504   6.740   4.307  0.3906 -0.5820 -0.4238
  615MOL0     C84742   0.531   6.706   4.449  0.3007 -0.1619 -1.1193
  615MOL0     C84743   0.411   6.737   4.545  0.3180  0.5321 -0.9395
  615MOL0     C84744   0.418   6.667   4.674 -0.2189  0.0170 -0.7368
  615MOL0     C84745   0.288   6.674   4.759 -0.0449 -0.0988 -0.3224
  615MOL0     C84746   0.311   6.634   4.911  0.2299 -0.4648 -0.5751
  615MOL0     C84747   0.419   6.719   4.990 -0.2308 -0.4221 -0.3865
  615MOL0     C84748   0.542   6.646   5.044 -0.2401  0.3792 -0.1916
  615MOL0     N84749   0.668   6.694   4.989 -0.1868 -0.3493  0.2742
  615MOL0     C84750   0.729   6.634   4.883  0.3043 -0.3688 -0.8170
  615MOL0     C84751   0.842   6.700   4.859 -0.2459 -0.3942 -0.2097
  615MOL0     C84752   0.917   6.682   4.727  0.5807  0.2661  0.7427
  615MOL0     C84753   0.911   6.779   4.620 -0.5928 -0.6348  0.3304
  615MOL0     C84754   0.973   6.918   4.654 -0.3645 -0.9999  0.4672
  615MOL0     C84755   1.125   6.937   4.624  0.5566 -0.5550 -0.1936
  615MOL0     O84756   1.151   6.896   4.494  0.3490  0.7095  0.4670
  615MOL0     C84757   1.285   6.864   4.449  0.9905  0.4492 -0.2431
  615MOL0     C84758   1.404   6.865   4.530 -0.5245  0.1497  0.6165
  615MOL0     C84759   1.536   6.833   4.486 -0.1746  0.2537  0.1648
  615MOL0     C84760   1.648   6.837   4.596 -0.4437 -0.8783 -0.2414
  615MOL0     C84761   1.548   6.797   4.348 -0.0926 -0.8717 -0.3606
  615MOL0     C84762   1.682   6.751   4.294 -0.2370  0.1729  0.7777
  615MOL0     O84763   1.678   6.707   4.161  0.3240 -0.3112  0.8388
  615MOL0     C84764   1.764   6.604   4.122  0.1867 -0.0343  0.5501
  615MOL0     C84765   1.784   6.484   4.208 -0.3935 -0.4621 -0.3606
  615MOL0     C84766   1.875   6.391   4.163  0.0515 -0.5502  0.3208
  615MOL0     C84767   1.937   6.403   4.033 -0.2752  0.2663 -0.3795
  615MOL0     O84768   2.047   6.331   3.989 -0.1137 -0.4618 -0.1235
  615MOL0     C84769   2.136   6.295   4.103 -0.1424  0.3313 -0.4214
  615MOL0     C84770   2.270   6.242   4.049  0.0974  0.1198 -0.0738
  615MOL0     C84771   2.387   6.266   4.152 -0.3304 -0.1529 -0.6807
  615MOL0     C84772   2.516   6.183   4.135  0.1555  0.3372 -0.4120
  615MOL0     C84773   2.500   6.053   4.196 -0.1060  0.2931  0.2236
  615MOL0     C84774   2.625   5.973   4.181  0.5171  0.2809 -0.5809
  615MOL0     C84775   2.593   5.819   4.215  0.7742  0.5516 -0.1650
  615MOL0     C84776   2.726   5.743   4.210 -1.0765 -0.3332 -0.1625
  615MOL0    Cl84777   2.816   5.784   4.360 -0.2908 -0.2384 -0.2145
  615MOL0     C84778   1.885   6.497   3.942  0.0709  1.1145  0.0784
  615MOL0     C84779   1.806   6.599   3.989  0.2243 -0.3530  0.7267
  615MOL0     O84780   1.791   6.746   4.359  0.0195 -0.1171  0.1695
  615MOL0     C84781   1.431   6.784   4.271  0.2184 -0.0913  0.4244
  615MOL0     C84782   1.307   6.820   4.317 -0.5103  0.2822 -0.4737
  615MOL0     N84783   0.838   6.816   4.941  0.8137 -0.0394 -0.0845
  615MOL0     N84784   0.737   6.805   5.010 -0.0549 -0.2981 -0.6725
  615MOL0     C84785   0.463   6.894   4.061 -0.4688 -0.1125  0.0934
  615MOL0     C84786   0.481   6.988   3.957 -0.1059 -0.0277  0.3734
  615MOL0     C84787   0.654   7.344   3.727  0.4549 -0.8078 -0.4602
  615MOL0     C84788   0.592   7.463   3.770 -0.2167 -0.8432 -0.0067
  615MOL0     C84789   0.621   7.578   3.698 -0.3247 -0.1724 -0.1168
  615MOL0     C84790   0.697   7.579   3.573 -0.0446 -0.2710  0.0767
  615MOL0     O84791   0.723   7.696   3.509  0.7514 -0.6744 -0.3994
  615MOL0     C84792   0.813   7.702   3.404  0.6424 -0.0916  0.2407
  615MOL0     C84793   0.838   7.837   3.339  0.3703 -0.9741  0.6560
  615MOL0     C84794   0.721   7.872   3.254 -0.8299 -0.1046 -0.8627
  615MOL0     C84795   0.634   7.971   3.327  0.3272 -0.2716 -0.1042
  615MOL0     C84796   0.533   8.037   3.248 -0.7675  0.3569  0.0566
  615MOL0     C84797   0.458   8.078   3.167 -0.0070 -0.4887  0.2299
  615MOL0     C84798   0.755   7.455   3.533  0.4132  0.1311 -0.1051
  615MOL0     C84799   0.737   7.342   3.610  0.4428  0.7462 -0.4409
  615MOL0     C84800   0.794   7.208   3.560 -0.0779 -0.3108  0.6493
  615MOL0     H84801   0.468   7.268   4.140  1.5671 -0.3891 -0.8619
  615MOL0     H84802   0.435   7.108   4.315  3.4503 -2.2121  0.3835
  615MOL0     H84803   0.600   6.762   4.259  1.8589 -3.9760  0.6666
  615MOL0     H84804   0.465   6.647   4.264 -2.8236  0.3252  0.2498
  615MOL0     H84805   0.553   6.599   4.458  0.3587 -0.1022 -0.4639
  615MOL0     H84806   0.618   6.763   4.485  2.3210 -3.5489 -0.1752
  615MOL0     H84807   0.403   6.839   4.584 -1.7156 -0.1059  0.5292
  615MOL0     H84808   0.317   6.707   4.496  0.5910 -1.8659 -0.1512
  615MOL0     H84809   0.457   6.566   4.658  0.0443 -0.4897  2.5240
  615MOL0     H84810   0.492   6.722   4.733 -2.6246  0.9042  1.6621
  615MOL0     H84811   0.212   6.610   4.712  1.6125 -3.0438  0.7067
  615MOL0     H84812   0.257   6.779   4.762  0.4886  0.0455  1.1673
  615MOL0     H84813   0.211   6.656   4.949  0.1915 -1.5714  0.0131
  615MOL0     H84814   0.331   6.527   4.917  0.6626 -0.3178  1.0180
  615MOL0     H84815   0.369   6.770   5.073 -1.2189  0.7391 -1.6499
  615MOL0     H84816   0.443   6.811   4.936 -0.0998  0.0596  0.4792
  615MOL0     H84817   0.537   6.659   5.153  0.3804  2.3471 -0.3529
  615MOL0     H84818   0.522   6.540   5.031  0.7456 -0.1753  2.2120
  615MOL0     H84819   0.687   6.555   4.821 -0.8372  0.3368 -0.9544
  615MOL0     H84820   0.896   6.581   4.690  4.1457 -1.1775  2.1397
  615MOL0     H84821   1.024   6.678   4.752  0.6306  0.1570  0.5163
  615MOL0     H84822   0.957   6.742   4.528 -1.3116  3.2275 -1.7917
  615MOL0     H84823   0.806   6.805   4.605 -0.9387 -1.0420  1.8382
  615MOL0     H84824   0.928   6.984   4.579  0.0523 -0.6474  0.5203
  615MOL0     H84825   0.943   6.969   4.746  2.8846  2.8218 -0.3069
  615MOL0     H84826   1.162   7.039   4.637 -0.4190 -0.4398  2.3079
  615MOL0     H84827   1.174   6.880   4.704  0.5370  1.2671  1.1875
  615MOL0     H84828   1.386   6.894   4.633 -1.2657 -1.2557  0.9084
  615MOL0     H84829   1.694   6.936   4.605 -0.7807 -0.4461 -2.7064
  615MOL0     H84830   1.731   6.770   4.571 -0.3170 -0.3621 -1.2283
  615MOL0     H84831   1.600   6.811   4.691 -2.5707 -0.2504 -1.0936
  615MOL0     H84832   1.743   6.476   4.308 -0.9104 -3.9790 -0.7198
  615MOL0     H84833   1.907   6.306   4.222  0.4762  0.5156  1.6887
  615MOL0     H84834   2.154   6.371   4.179 -0.9217 -0.8361  0.9809
  615MOL0     H84835   2.091   6.227   4.175  0.4987  3.8983  3.7591
  615MOL0     H84836   2.266   6.136   4.024 -2.6817 -0.5118  2.5126
  615MOL0     H84837   2.289   6.297   3.956  1.4883 -0.3818 -0.1036
  615MOL0     H84838   2.350   6.258   4.254 -1.9454  0.4349 -1.1819
  615MOL0     H84839   2.422   6.368   4.132  0.9349 -1.1087 -4.1232
  615MOL0     H84840   2.601   6.227   4.188 -0.7179  1.4853  0.0549
  615MOL0     H84841   2.538   6.160   4.030 -2.3950 -3.9053 -0.2213
  615MOL0     H84842   2.465   6.061   4.299  2.4930  4.7421  1.0203
  615MOL0     H84843   2.423   6.002   4.137  0.9881 -0.2487 -0.7796
  615MOL0     H84844   2.697   6.022   4.246 -0.7264 -0.1351  1.1710
  615MOL0     H84845   2.660   5.982   4.077 -2.5288  1.0206 -1.6585
  615MOL0     H84846   2.523   5.773   4.145  0.8532  0.9690 -0.5175
  615MOL0     H84847   2.541   5.808   4.311 -0.6646 -0.7610 -1.0553
  615MOL0     H84848   2.782   5.769   4.120  1.3435  1.9411  1.8498
  615MOL0     H84849   2.697   5.637   4.213 -2.3159 -0.0057  2.5990
  615MOL0     H84850   1.935   6.495   3.846  1.7566 -0.1285  0.9179
  615MOL0     H84851   1.791   6.684   3.923 -2.1699 -1.3961 -0.1978
  615MOL0     H84852   1.426   6.731   4.176 -1.6612 -1.1805  1.0569
  615MOL0     H84853   1.221   6.807   4.252  0.9840 -4.1125 -1.9374
  615MOL0     H84854   0.467   6.786   4.058 -0.5866 -0.2388  2.5096
  615MOL0     H84855   0.514   6.950   3.861  1.2423 -0.6356  1.0341
  615MOL0     H84856   0.523   7.466   3.855 -0.0077  1.3388  0.1613
  615MOL0     H84857   0.574   7.671   3.730 -0.0871 -0.5321  1.3860
  615MOL0     H84858   0.912   7.684   3.447  1.7825 -1.3952 -2.6735
  615MOL0     H84859   0.773   7.631   3.332 -0.2118  0.9263 -0.3196
  615MOL0     H84860   0.929   7.839   3.278  1.5194  0.4149  2.3031
  615MOL0     H84861   0.856   7.909   3.420 -0.1219 -1.8671  1.5728
  615MOL0     H84862   0.757   7.926   3.166 -1.2704  1.8684  0.0978
  615MOL0     H84863   0.648   7.794   3.231 -2.1963  0.1427  2.1009
  615MOL0     H84864   0.692   8.050   3.374  0.6940  0.5835 -1.9127
  615MOL0     H84865   0.587   7.923   3.414  1.4001 -2.4231 -0.6455
  615MOL0     H84866   0.393   8.113   3.089 -1.6070 -1.7116  0.9535
  615MOL0     H84867   0.790   7.425   3.435 -1.4898 -1.1884 -0.4327
  615MOL0     H84868   0.821   7.206   3.454 -1.1581  0.8496  0.3206
  615MOL0     H84869   0.881   7.181   3.619 -0.9651  0.2397  2.2713
  615MOL0     H84870   0.718   7.133   3.582  0.7189 -0.7445  1.9675
  616MOL0     O84871   9.326   5.975   6.300 -0.8892  0.4025 -0.9300
  616MOL0     C84872   9.310   5.902   6.203 -0.8729 -0.5461  0.1833
  616MOL0     O84873   9.276   5.936   6.081 -0.0681 -0.4636 -0.1025
  616MOL0     C84874   9.255   6.067   6.040 -0.1847  0.6203  0.0572
  616MOL0     C84875   9.131   6.104   5.982 -0.3312 -0.1403 -0.4056
  616MOL0     C84876   9.085   6.240   5.978 -0.0296 -0.4650  0.5635
  616MOL0     C84877   9.169   6.338   6.009 -0.0753 -0.4387  0.4504
  616MOL0     O84878   9.131   6.468   5.981  0.1133 -0.2933 -0.4758
  616MOL0     C84879   9.225   6.545   5.910  0.0640  0.6617 -0.1082
  616MOL0     C84880   9.258   6.664   6.001 -0.3719 -0.9965  0.5866
  616MOL0     C84881   9.324   6.782   5.924  0.1890 -0.2753  0.1718
  616MOL0     C84882   9.474   6.810   5.961 -0.3763  0.5944 -0.5922
  616MOL0     C84883   9.540   6.892   5.858 -0.0354  0.9147  0.3259
  616MOL0     C84884   9.694   6.916   5.895  0.2227  0.1102  0.5700
  616MOL0     C84885   9.767   6.993   5.794 -0.9272  0.9045 -0.3150
  616MOL0     C84886   9.796   6.914   5.662  0.1072  0.4555 -0.4340
  616MOL0     N84887   9.812   6.773   5.688  0.3535  0.0987  0.3170
  616MOL0     C84888   9.916   6.711   5.757 -0.1828 -0.7055  0.3541
  616MOL0     C84889   9.884   6.579   5.756  0.0286  0.3306 -0.2592
  616MOL0     C84890   9.951   6.454   5.808  0.3410  0.3779 -0.3597
  616MOL0     C84891  10.097   6.450   5.749  0.8301 -0.2341 -0.8117
  616MOL0     C84892  10.196   6.351   5.814  0.7213  0.5047 -0.1963
  616MOL0     C84893  10.166   6.213   5.804 -0.4587  0.2365 -0.1485
  616MOL0     O84894  10.189   6.156   5.674  0.4240  0.2396 -0.6107
  616MOL0     C84895  10.301   6.168   5.593 -0.4054 -0.0328  0.0981
  616MOL0     C84896  10.427   6.153   5.648  0.2429  1.4345  0.5109
  616MOL0     C84897  10.548   6.164   5.564  0.3597 -0.9325 -1.0095
  616MOL0     C84898  10.688   6.160   5.638  0.4849  0.5854  0.0567
  616MOL0     C84899  10.525   6.183   5.423  0.0066 -0.4340 -0.4959
  616MOL0     C84900  10.639   6.198   5.332 -0.4812  0.1386 -0.6030
  616MOL0     O84901  10.618   6.195   5.192 -0.2745  0.4910 -0.2757
  616MOL0     C84902  10.725   6.225   5.111  0.5062  0.6512 -0.4139
  616MOL0     C84903  10.763   6.122   5.026  0.1231 -1.3754  1.5360
  616MOL0     C84904  10.851   6.152   4.919  0.4052  0.0489 -0.4521
  616MOL0     C84905  10.921   6.279   4.914  0.3780  0.5349  0.4300
  616MOL0     O84906  11.019   6.307   4.821  0.4741 -0.0791 -0.7510
  616MOL0     C84907  10.958   6.387   4.718 -0.1506 -0.7210  0.2206
  616MOL0     C84908  11.058   6.493   4.685  0.5949 -0.6162  0.5767
  616MOL0     C84909  11.195   6.454   4.620 -0.0523 -0.8086 -0.8687
  616MOL0     C84910  11.280   6.360   4.715  0.4189 -1.2612  0.1309
  616MOL0     C84911  11.424   6.365   4.661  0.2719  0.3155  1.1463
  616MOL0     C84912  11.528   6.323   4.775  0.1094 -1.0753  0.2340
  616MOL0     C84913  11.660   6.262   4.714 -0.3498  0.2958  0.8448
  616MOL0     C84914  11.632   6.109   4.688  0.1746 -0.0038 -0.1855
  616MOL0    Cl84915  11.782   6.022   4.700  0.3605  0.1751 -0.0698
  616MOL0     C84916  10.886   6.377   5.018 -0.6723  1.0003 -0.2481
  616MOL0     C84917  10.781   6.350   5.108  0.0433  0.2056 -0.1957
  616MOL0     O84918  10.754   6.205   5.381 -0.3155  0.0326 -0.2061
  616MOL0     C84919  10.400   6.182   5.370  0.5235  0.3959  0.5933
  616MOL0     C84920  10.287   6.175   5.455  0.2715 -0.2500 -0.0263
  616MOL0     N84921   9.775   6.571   5.674  1.0118  0.1824 -0.1307
  616MOL0     N84922   9.730   6.682   5.637 -0.2395 -0.2863  0.8281
  616MOL0     C84923   9.294   6.305   6.062 -0.1352  0.2848 -0.7488
  616MOL0     C84924   9.334   6.175   6.087  0.3693  0.6532 -0.1995
  616MOL0     C84925   9.347   5.759   6.207 -0.3009  0.1837  0.4764
  616MOL0     C84926   9.364   5.681   6.092  0.5027 -0.5426  0.5299
  616MOL0     C84927   9.392   5.540   6.082 -0.6625 -0.2646 -0.4729
  616MOL0     C84928   9.406   5.472   6.204 -0.8464 -0.6990  0.3972
  616MOL0     O84929   9.454   5.339   6.227  0.1824  0.0394  0.4784
  616MOL0     C84930   9.489   5.270   6.092 -0.3756 -0.5448 -0.6296
  616MOL0     C84931   9.558   5.144   6.120 -0.6829  0.0487 -0.2757
  616MOL0     C84932   9.551   5.051   5.996  0.2910 -0.0659  0.5616
  616MOL0     C84933   9.640   4.940   6.012 -0.0855 -0.9010  0.1930
  616MOL0     C84934   9.621   4.846   5.906 -0.5274  0.3616  0.0833
  616MOL0     C84935   9.628   4.750   5.822 -0.1740  0.1153 -0.4816
  616MOL0     C84936   9.375   5.540   6.316  0.3776 -0.4461 -0.0129
  616MOL0     C84937   9.347   5.681   6.322  0.2411 -0.2063 -0.4614
  616MOL0     C84938   9.328   5.742   6.462 -0.2985 -0.1051  0.0827
  616MOL0     H84939   9.066   6.024   5.948 -0.4363 -0.4096  0.4138
  616MOL0     H84940   8.985   6.258   5.938 -0.2268  2.5995  2.2050
  616MOL0     H84941   9.174   6.590   5.824 -1.5703  1.2933  1.1389
  616MOL0     H84942   9.316   6.491   5.881  0.5170  2.1643 -1.7278
  616MOL0     H84943   9.169   6.709   6.046  0.0014  0.1239  0.2389
  616MOL0     H84944   9.309   6.625   6.089  0.2698  0.1076  0.7310
  616MOL0     H84945   9.326   6.756   5.818  1.7096  2.7856 -0.6473
  616MOL0     H84946   9.280   6.881   5.935 -0.6554 -0.1615 -3.2697
  616MOL0     H84947   9.486   6.861   6.058 -3.8171 -0.6858  0.6519
  616MOL0     H84948   9.519   6.713   5.985 -1.7161  0.4257  1.5095
  616MOL0     H84949   9.509   6.997   5.856 -0.3971  0.8091 -1.9510
  616MOL0     H84950   9.523   6.842   5.762 -3.8741 -0.7005  1.6734
  616MOL0     H84951   9.695   6.971   5.990 -0.9522 -2.6305  2.2829
  616MOL0     H84952   9.731   6.820   5.931  0.3924  0.9388  2.7675
  616MOL0     H84953   9.861   7.014   5.845 -0.0689 -4.0324  0.6239
  616MOL0     H84954   9.715   7.088   5.777  0.4271  1.6062 -0.6776
  616MOL0     H84955   9.708   6.929   5.599 -0.4225  0.9217  0.3892
  616MOL0     H84956   9.886   6.954   5.614  0.6524 -0.2233  0.0041
  616MOL0     H84957  10.000   6.766   5.799  1.0930 -3.5344  1.7682
  616MOL0     H84958   9.896   6.360   5.793 -2.1070  1.5568  0.5468
  616MOL0     H84959   9.945   6.475   5.915  0.9771  0.3812 -0.3224
  616MOL0     H84960  10.094   6.439   5.640  1.8639 -0.3239 -0.8438
  616MOL0     H84961  10.135   6.548   5.779 -2.9600  1.1362  0.0059
  616MOL0     H84962  10.298   6.370   5.779  1.2432 -1.4020  0.2154
  616MOL0     H84963  10.198   6.374   5.921 -0.1459 -2.4993  0.5513
  616MOL0     H84964  10.233   6.169   5.878 -2.5887  3.0101  3.8149
  616MOL0     H84965  10.068   6.180   5.840 -0.1934  0.4433  0.7940
  616MOL0     H84966  10.431   6.145   5.756 -0.7801  0.4874  0.4928
  616MOL0     H84967  10.676   6.156   5.747  2.8388  2.8565  0.4938
  616MOL0     H84968  10.745   6.253   5.623 -0.8933  1.4799  0.1908
  616MOL0     H84969  10.743   6.074   5.598 -1.5821  0.8396 -3.7840
  616MOL0     H84970  10.716   6.024   5.028  0.2806 -1.6799 -2.5600
  616MOL0     H84971  10.875   6.065   4.858  0.4014 -0.4758  0.2815
  616MOL0     H84972  10.941   6.322   4.632  2.0028 -2.0498  0.7249
  616MOL0     H84973  10.862   6.436   4.739 -0.0420 -0.4085  0.0112
  616MOL0     H84974  11.012   6.552   4.605  0.5993 -1.1120  0.2073
  616MOL0     H84975  11.083   6.556   4.771 -0.4908 -0.7899  1.0336
  616MOL0     H84976  11.237   6.552   4.595 -0.0263 -0.5628  0.0952
  616MOL0     H84977  11.166   6.392   4.535 -1.4418 -1.7656  0.2513
  616MOL0     H84978  11.246   6.257   4.730  0.7553 -1.4424 -0.3318
  616MOL0     H84979  11.288   6.412   4.811 -0.3971 -0.2033 -0.3563
  616MOL0     H84980  11.424   6.296   4.577  0.9515  0.0233  1.3835
  616MOL0     H84981  11.462   6.460   4.622  3.0134  1.1148  5.2356
  616MOL0     H84982  11.476   6.252   4.839 -2.5049 -0.1134 -0.6545
  616MOL0     H84983  11.535   6.416   4.833 -1.8511 -0.1018 -0.9277
  616MOL0     H84984  11.735   6.276   4.792 -1.2354  0.1192  1.7434
  616MOL0     H84985  11.702   6.307   4.624  0.7704 -1.9789  0.1607
  616MOL0     H84986  11.574   6.085   4.599 -3.5289  1.8580  1.4781
  616MOL0     H84987  11.567   6.078   4.770 -3.4256  0.5575 -2.6059
  616MOL0     H84988  10.930   6.476   5.020 -1.0229  1.1581 -0.1869
  616MOL0     H84989  10.758   6.438   5.168 -0.8523  0.9603 -1.5896
  616MOL0     H84990  10.380   6.188   5.264  1.3528 -2.0734  0.2357
  616MOL0     H84991  10.189   6.180   5.410  0.7439  3.0020 -0.9426
  616MOL0     H84992   9.346   6.398   6.081 -0.2477  0.4250 -1.1315
  616MOL0     H84993   9.429   6.168   6.139 -0.7789 -1.6009  1.7707
  616MOL0     H84994   9.346   5.725   5.995 -0.6504  0.2058  1.0565
  616MOL0     H84995   9.394   5.478   5.993  2.2203 -0.7426 -0.1544
  616MOL0     H84996   9.400   5.257   6.030  0.4164  0.9034 -2.1516
  616MOL0     H84997   9.552   5.338   6.034 -1.7575 -0.1431 -1.7118
  616MOL0     H84998   9.511   5.091   6.203  3.4318 -1.4470  1.3628
  616MOL0     H84999   9.664   5.156   6.145 -0.2889 -1.2602 -1.1795
  616MOL0     H85000   9.453   5.008   5.973  0.9674  0.1412 -3.6022
  616MOL0     H85001   9.581   5.096   5.900  0.0879 -1.9826 -0.4454
  616MOL0     H85002   9.623   4.882   6.103 -1.7662 -1.2852 -0.3315
  616MOL0     H85003   9.743   4.975   6.003 -0.2281 -0.5350 -0.0125
  616MOL0     H85004   9.655   4.670   5.756 -0.2776  0.7812 -1.3506
  616MOL0     H85005   9.387   5.486   6.410 -3.2800 -3.9912 -1.2325
  616MOL0     H85006   9.415   5.800   6.495 -0.9426  1.3811 -0.7652
  616MOL0     H85007   9.235   5.800   6.457 -1.8909 -2.5707 -0.7381
  616MOL0     H85008   9.317   5.661   6.535 -1.3199 -0.9133 -0.9376
  617MOL0     O85009   2.380   0.259   4.912 -0.2665 -0.4755 -0.5226
  617MOL0     C85010   2.452   0.351   4.949  0.6884  0.2175 -0.7908
  617MOL0     O85011   2.465   0.382   5.077 -0.5049  0.9481 -0.2795
  617MOL0     C85012   2.466   0.273   5.167 -0.0321 -0.2834 -0.9704
  617MOL0     C85013   2.538   0.157   5.148 -0.1306  0.1527  0.0654
  617MOL0     C85014   2.542   0.057   5.239  0.2536 -0.2181 -0.2152
  617MOL0     C85015   2.465   0.064   5.360  0.2665 -0.3304  0.0232
  617MOL0     O85016   2.467  -0.034   5.453 -0.1080  0.4568 -0.5052
  617MOL0     C85017   2.580  -0.112   5.491 -0.7865 -0.1555  0.8804
  617MOL0     C85018   2.624  -0.061   5.628  0.4459  0.5293 -0.0490
  617MOL0     C85019   2.741  -0.122   5.690  0.0367  0.0905 -0.9627
  617MOL0     C85020   2.873  -0.087   5.620 -0.1220  0.3135 -1.1469
  617MOL0     C85021   2.993  -0.166   5.683  0.1518 -0.3162 -0.9023
  617MOL0     C85022   3.012  -0.324   5.645 -0.0979 -0.6689 -0.5156
  617MOL0     C85023   3.135  -0.341   5.552 -0.0111 -0.2585 -0.5975
  617MOL0     C85024   3.113  -0.278   5.417  0.1574  0.3176  0.2775
  617MOL0     N85025   3.170  -0.363   5.308  0.1074 -0.3896 -0.3015
  617MOL0     C85026   3.092  -0.436   5.236  0.0090  0.1621  0.0836
  617MOL0     C85027   3.162  -0.542   5.181  0.1678 -0.5951  0.2922
  617MOL0     C85028   3.114  -0.643   5.079  0.0124  0.5778 -0.4294
  617MOL0     C85029   3.127  -0.598   4.937  0.3271  0.4638  0.5233
  617MOL0     C85030   3.079  -0.694   4.819  0.6706 -0.3131 -0.4358
  617MOL0     C85031   3.139  -0.830   4.823 -0.0767 -0.3561 -0.0238
  617MOL0     O85032   3.092  -0.906   4.937  0.0573  0.2896 -0.7059
  617MOL0     C85033   2.980  -0.987   4.923 -0.1290 -0.2005  0.4949
  617MOL0     C85034   2.929  -1.033   4.794  0.5312 -0.1836 -0.8989
  617MOL0     C85035   2.828  -1.135   4.789  0.6075 -0.6631  0.4053
  617MOL0     C85036   2.787  -1.179   4.652 -0.3417  0.9956 -0.0341
  617MOL0     C85037   2.775  -1.198   4.906 -0.1431 -1.2094  0.7373
  617MOL0     C85038   2.686  -1.311   4.917 -0.0112  0.7134 -0.0702
  617MOL0     O85039   2.660  -1.363   5.048  0.5340 -0.2467  1.3159
  617MOL0     C85040   2.575  -1.473   5.077  0.2689  0.0328 -0.2411
  617MOL0     C85041   2.524  -1.487   5.205 -0.3144 -0.1059  0.7553
  617MOL0     C85042   2.437  -1.587   5.235  0.1604 -0.3815 -0.0799
  617MOL0     C85043   2.415  -1.689   5.149  0.4578  0.2827  0.7147
  617MOL0     O85044   2.344  -1.797   5.200 -0.4852  0.0684 -0.0910
  617MOL0     C85045   2.269  -1.881   5.111 -1.0164  0.4902  1.1326
  617MOL0     C85046   2.157  -1.956   5.181  0.2301  0.1056 -0.9636
  617MOL0     C85047   2.061  -2.015   5.079 -0.3007 -0.4205 -0.0292
  617MOL0     C85048   1.979  -2.124   5.152  0.4245  0.3289 -0.1887
  617MOL0     C85049   1.872  -2.194   5.067  0.8797  0.1956 -0.5271
  617MOL0     C85050   1.748  -2.253   5.149  0.4707  0.2598  0.1504
  617MOL0     C85051   1.647  -2.147   5.199  0.9602  0.0313  0.5410
  617MOL0     C85052   1.547  -2.109   5.090 -0.5287  0.0353 -0.4059
  617MOL0    Cl85053   1.414  -2.217   5.089  0.4038  0.3737  0.3412
  617MOL0     C85054   2.458  -1.668   5.017 -0.2639  0.1978  0.2057
  617MOL0     C85055   2.536  -1.555   4.981  0.6036  0.4922  0.0787
  617MOL0     O85056   2.620  -1.343   4.820  1.0255  0.1345 -0.4295
  617MOL0     C85057   2.823  -1.146   5.027  1.5004 -0.3281  0.5509
  617MOL0     C85058   2.921  -1.050   5.031  0.4318 -0.4122  0.1123
  617MOL0     N85059   3.293  -0.522   5.226 -0.2740  0.1215 -0.0616
  617MOL0     N85060   3.302  -0.415   5.296  0.0443  0.4690  0.0119
  617MOL0     C85061   2.399   0.184   5.383 -0.7495  0.4262 -1.0150
  617MOL0     C85062   2.399   0.292   5.291 -0.4029 -0.7871  0.4431
  617MOL0     C85063   2.524   0.425   4.847 -0.0630 -0.3315 -0.6524
  617MOL0     C85064   2.546   0.368   4.723 -0.4848  0.0907 -0.5127
  617MOL0     C85065   2.639   0.422   4.636 -0.0901  0.2828 -0.1429
  617MOL0     C85066   2.701   0.540   4.663 -1.0791 -0.3123 -0.3598
  617MOL0     O85067   2.798   0.599   4.573  0.1192  0.1596  0.4841
  617MOL0     C85068   2.833   0.512   4.462 -0.4764  0.3465  0.2574
  617MOL0     C85069   2.972   0.560   4.402 -0.2188 -0.4328 -1.1098
  617MOL0     C85070   3.056   0.443   4.344  0.5125  0.3933  0.6585
  617MOL0     C85071   3.171   0.485   4.247  0.0145  0.4172 -0.6579
  617MOL0     C85072   3.292   0.537   4.322 -0.2670 -0.1012  0.9244
  617MOL0     C85073   3.391   0.581   4.372 -0.5239  0.5888  0.4595
  617MOL0     C85074   2.662   0.615   4.777 -0.1564  0.4608  0.2857
  617MOL0     C85075   2.571   0.562   4.868 -0.6568  0.5850 -0.3444
  617MOL0     C85076   2.538   0.648   4.991  0.4741 -0.5859  0.0850
  617MOL0     H85077   2.597   0.138   5.059 -0.6099  1.1235 -0.4762
  617MOL0     H85078   2.588  -0.035   5.206  3.2833  1.6245 -1.6537
  617MOL0     H85079   2.657  -0.102   5.414 -0.9910 -1.3377  0.5038
  617MOL0     H85080   2.552  -0.217   5.494  0.4873 -0.6572 -1.6328
  617MOL0     H85081   2.634   0.047   5.622  2.3385  0.3393 -0.8999
  617MOL0     H85082   2.538  -0.073   5.695  1.4613 -0.9445  1.0507
  617MOL0     H85083   2.736  -0.086   5.793  0.9573  0.7875 -1.1427
  617MOL0     H85084   2.719  -0.229   5.690 -1.4883  0.2609  3.0875
  617MOL0     H85085   2.866  -0.119   5.516  0.6953  0.0678 -1.1344
  617MOL0     H85086   2.892   0.020   5.625  0.8226  0.2483 -2.7707
  617MOL0     H85087   2.991  -0.175   5.792 -0.5151 -2.6909 -1.0605
  617MOL0     H85088   3.078  -0.106   5.651 -1.4426  2.7732  0.1578
  617MOL0     H85089   3.040  -0.384   5.732  1.7783  0.4365 -0.3085
  617MOL0     H85090   2.918  -0.362   5.605  0.2035 -1.2936 -0.6507
  617MOL0     H85091   3.167  -0.444   5.534 -1.1244 -0.3106 -2.5649
  617MOL0     H85092   3.220  -0.293   5.603 -0.1521 -0.6752  0.0310
  617MOL0     H85093   3.005  -0.265   5.408  0.2212  3.0283  2.3800
  617MOL0     H85094   3.172  -0.187   5.405  1.5851 -0.5205  0.6591
  617MOL0     H85095   2.985  -0.429   5.219 -0.0061 -2.5884 -1.5722
  617MOL0     H85096   3.006  -0.656   5.095  0.2907  0.3954  1.3976
  617MOL0     H85097   3.169  -0.734   5.101 -0.5637  0.5945  1.2086
  617MOL0     H85098   3.078  -0.501   4.924 -0.8818 -0.2217 -0.2870
  617MOL0     H85099   3.233  -0.573   4.929  0.3171  0.6208  0.8587
  617MOL0     H85100   2.970  -0.697   4.822  0.6626  0.5013  0.8773
  617MOL0     H85101   3.100  -0.656   4.719  1.7923 -2.3023 -1.0156
  617MOL0     H85102   3.132  -0.879   4.725  1.6833  2.8631 -1.9245
  617MOL0     H85103   3.247  -0.830   4.842 -0.4046 -0.6125  2.0583
  617MOL0     H85104   2.957  -0.988   4.699 -0.2661 -0.7070 -1.3901
  617MOL0     H85105   2.789  -1.282   4.616 -4.6763  0.6540  0.2338
  617MOL0     H85106   2.855  -1.132   4.581 -2.0080  0.4385 -2.0668
  617MOL0     H85107   2.682  -1.162   4.625 -0.5952 -0.6272 -0.1430
  617MOL0     H85108   2.539  -1.405   5.275  0.2424 -1.1194  1.8405
  617MOL0     H85109   2.373  -1.586   5.323 -1.6517  2.3477 -1.2986
  617MOL0     H85110   2.239  -1.821   5.025  1.5040 -0.5090 -0.5717
  617MOL0     H85111   2.338  -1.957   5.073 -0.5798  2.4490 -2.4222
  617MOL0     H85112   2.185  -2.031   5.255 -0.9133 -1.9431 -2.5074
  617MOL0     H85113   2.106  -1.878   5.237  1.5327  2.4348 -2.8089
  617MOL0     H85114   2.116  -2.056   4.994 -0.8902  0.3420 -0.7895
  617MOL0     H85115   1.998  -1.934   5.041 -1.2974  0.8869  3.9613
  617MOL0     H85116   1.930  -2.092   5.244 -2.2121 -0.8858 -1.0603
  617MOL0     H85117   2.042  -2.206   5.188 -1.2995 -0.4087  1.3770
  617MOL0     H85118   1.826  -2.125   4.996  1.8494  1.6946  0.2655
  617MOL0     H85119   1.921  -2.270   5.005 -1.5243 -1.5262 -0.4669
  617MOL0     H85120   1.778  -2.306   5.240 -1.6033 -2.6549 -0.7244
  617MOL0     H85121   1.698  -2.332   5.094  1.8584  0.5234 -1.6031
  617MOL0     H85122   1.691  -2.050   5.223  2.4694 -0.9281  1.8769
  617MOL0     H85123   1.596  -2.181   5.290  0.1744  0.3128  0.2070
  617MOL0     H85124   1.601  -2.108   4.995 -1.4074  2.1616 -0.9437
  617MOL0     H85125   1.513  -2.006   5.107 -0.4194  0.0578 -0.3240
  617MOL0     H85126   2.434  -1.746   4.946  0.1062 -2.2801  2.6520
  617MOL0     H85127   2.556  -1.548   4.874 -0.4007 -0.4412 -0.1880
  617MOL0     H85128   2.794  -1.195   5.119  0.8470 -1.1454 -0.0801
  617MOL0     H85129   2.953  -1.016   5.129 -1.3173  4.1876 -0.6600
  617MOL0     H85130   2.344   0.190   5.477 -0.5031 -2.8224 -0.5563
  617MOL0     H85131   2.338   0.380   5.312  0.7935  0.6934 -1.8718
  617MOL0     H85132   2.496   0.276   4.695 -1.3754  0.3536  0.1862
  617MOL0     H85133   2.637   0.380   4.536  1.4443  1.3787 -0.6752
  617MOL0     H85134   2.854   0.412   4.500 -1.3594  0.4884  1.1795
  617MOL0     H85135   2.754   0.507   4.386 -0.1887  2.0943 -0.1944
  617MOL0     H85136   3.035   0.596   4.485  3.6391 -2.9493 -2.6685
  617MOL0     H85137   2.960   0.642   4.330 -3.4231 -0.2274 -0.4864
  617MOL0     H85138   3.102   0.377   4.418  1.4136  1.7382  1.3352
  617MOL0     H85139   2.986   0.382   4.286  0.2654 -1.7924  3.0584
  617MOL0     H85140   3.128   0.555   4.175  0.7737 -0.7168 -2.2534
  617MOL0     H85141   3.207   0.395   4.197 -1.2856 -0.8975  0.6608
  617MOL0     H85142   3.487   0.590   4.419 -1.6362  2.9868  2.5040
  617MOL0     H85143   2.710   0.713   4.783  0.7201  0.1825 -1.4337
  617MOL0     H85144   2.549   0.755   4.972  1.7045 -0.8133 -0.5818
  617MOL0     H85145   2.437   0.643   5.035  0.3900  0.5808  0.0484
  617MOL0     H85146   2.621   0.634   5.060  2.6393 -0.6256 -2.3905
  618MOL0     O85147  10.495   6.077   6.077 -0.5126 -0.1360 -0.1175
  618MOL0     C85148  10.524   6.047   6.194 -0.3691  0.6326  0.0860
  618MOL0     O85149  10.442   6.058   6.306  0.2896 -0.1452 -0.1174
  618MOL0     C85150  10.319   6.106   6.286  0.2593 -1.0484  0.4473
  618MOL0     C85151  10.210   6.027   6.262 -0.4296  0.2528 -0.3305
  618MOL0     C85152  10.086   6.086   6.242 -0.2648 -0.0745 -0.3111
  618MOL0     C85153  10.072   6.226   6.257 -0.1699 -0.2046  0.4906
  618MOL0     O85154   9.946   6.281   6.244  0.1219  0.4408  0.2280
  618MOL0     C85155   9.937   6.426   6.247 -0.0612 -0.2903  0.2534
  618MOL0     C85156   9.794   6.480   6.228  0.1524  0.3014 -0.3299
  618MOL0     C85157   9.684   6.404   6.307 -0.3959 -1.2143 -0.6140
  618MOL0     C85158   9.571   6.504   6.354  1.0777 -0.0501 -1.2898
  618MOL0     C85159   9.457   6.396   6.395 -0.0589 -1.1004  0.2070
  618MOL0     C85160   9.331   6.476   6.442 -0.3492 -0.9966 -0.0080
  618MOL0     C85161   9.235   6.402   6.528  0.1197  0.4712  0.1453
  618MOL0     C85162   9.132   6.350   6.424  0.4744  0.2500  0.0011
  618MOL0     N85163   9.032   6.286   6.515  0.4304 -0.1983  0.4499
  618MOL0     C85164   9.029   6.166   6.574  0.1563  0.3627  0.0839
  618MOL0     C85165   8.905   6.140   6.609  0.3204 -0.4876 -0.9509
  618MOL0     C85166   8.841   6.012   6.671  0.7581 -1.3654  0.9582
  618MOL0     C85167   8.801   5.915   6.560 -0.0833  0.1346 -0.2284
  618MOL0     C85168   8.718   5.797   6.621  0.1841 -0.1105  0.2864
  618MOL0     C85169   8.574   5.832   6.667  0.1979  0.3738 -0.4411
  618MOL0     O85170   8.538   5.714   6.739 -0.2475 -0.1196 -0.0252
  618MOL0     C85171   8.415   5.654   6.725 -0.6308 -0.9083 -1.1766
  618MOL0     C85172   8.423   5.524   6.680  0.2576  0.4352  0.1322
  618MOL0     C85173   8.307   5.447   6.663  1.7167 -0.4130 -0.6204
  618MOL0     C85174   8.334   5.304   6.640  1.0388 -0.8986  0.1522
  618MOL0     C85175   8.183   5.514   6.676  0.8193  0.4256 -0.3337
  618MOL0     C85176   8.053   5.445   6.661 -0.9822 -0.0376 -0.3991
  618MOL0     O85177   7.957   5.494   6.746 -0.3103  0.0157 -0.9299
  618MOL0     C85178   7.869   5.396   6.784 -0.4731 -0.2937 -0.1505
  618MOL0     C85179   7.907   5.272   6.851  0.1634  0.1987  0.6382
  618MOL0     C85180   7.823   5.182   6.918  0.5471 -0.4651  0.7516
  618MOL0     C85181   7.685   5.217   6.919  0.4557  0.3935 -0.1935
  618MOL0     O85182   7.597   5.128   6.985 -0.6947 -0.1061  0.9794
  618MOL0     C85183   7.455   5.110   6.958  0.2085 -0.0299 -0.4608
  618MOL0     C85184   7.419   5.078   6.818  0.7175 -0.7776  0.5431
  618MOL0     C85185   7.458   4.929   6.765  0.0490 -0.4573 -0.2730
  618MOL0     C85186   7.362   4.896   6.649 -0.6732 -0.4743 -0.0149
  618MOL0     C85187   7.362   4.743   6.617  0.5201  0.3295  0.1495
  618MOL0     C85188   7.270   4.714   6.492  0.0109  0.1440  0.0994
  618MOL0     C85189   7.274   4.561   6.458  0.0014 -0.0343  0.7007
  618MOL0     C85190   7.162   4.480   6.529 -0.1090 -0.0420 -0.2389
  618MOL0    Cl85191   7.187   4.457   6.713  0.2636  0.7679 -0.1857
  618MOL0     C85192   7.640   5.330   6.848 -0.2247 -0.2468  0.0729
  618MOL0     C85193   7.736   5.421   6.785 -0.1595  0.1362  0.5615
  618MOL0     O85194   8.043   5.347   6.589 -0.3111  0.4381  0.5030
  618MOL0     C85195   8.180   5.645   6.717  0.3907 -0.4179  0.5377
  618MOL0     C85196   8.291   5.715   6.751  0.9499 -0.1204 -0.2835
  618MOL0     N85197   8.835   6.263   6.600  0.3405  0.1557  0.6155
  618MOL0     N85198   8.907   6.342   6.538 -0.4988  0.1021  0.3576
  618MOL0     C85199  10.186   6.302   6.283  0.0703  0.3453  0.0943
  618MOL0     C85200  10.311   6.250   6.292 -0.6461  0.1757 -0.6562
  618MOL0     C85201  10.655   6.006   6.234 -0.1164  0.0099 -0.5528
  618MOL0     C85202  10.690   6.025   6.371  0.5111 -0.1405  0.2022
  618MOL0     C85203  10.816   6.011   6.414 -0.7378  0.0174 -0.2030
  618MOL0     C85204  10.915   5.964   6.341 -0.3545  0.1540  0.1907
  618MOL0     O85205  11.043   5.960   6.386 -0.7430 -0.1551  0.6295
  618MOL0     C85206  11.077   5.839   6.448 -0.7977  0.2424 -0.2789
  618MOL0     C85207  11.059   5.862   6.601 -0.1743 -0.1863  0.4759
  618MOL0     C85208  11.156   5.976   6.659 -0.2566  0.3119  1.5714
  618MOL0     C85209  11.124   6.013   6.802 -0.2128  1.5023  0.5428
  618MOL0     C85210  10.990   6.074   6.800  0.0867 -0.3518 -0.4866
  618MOL0     C85211  10.893   6.147   6.783  0.5607  0.7811  0.4081
  618MOL0     C85212  10.886   5.926   6.207  0.8021  0.4149 -0.4801
  618MOL0     C85213  10.758   5.942   6.152 -0.1307 -0.7485 -0.8422
  618MOL0     C85214  10.743   5.906   6.014  0.3926 -0.8448 -0.2996
  618MOL0     H85215  10.217   5.918   6.259 -1.8475  0.0910  0.9868
  618MOL0     H85216  10.004   6.021   6.215 -1.6407  1.9890 -1.3361
  618MOL0     H85217   9.992   6.463   6.160 -1.7776  0.8780 -0.3917
  618MOL0     H85218   9.993   6.463   6.334  1.8395  0.0008 -1.0364
  618MOL0     H85219   9.795   6.586   6.256 -0.1877  0.1468  0.2706
  618MOL0     H85220   9.775   6.481   6.120  1.4850  0.0671 -0.5920
  618MOL0     H85221   9.649   6.332   6.233  3.7200 -0.2063 -3.8988
  618MOL0     H85222   9.732   6.362   6.396  2.0817  0.9799 -0.8035
  618MOL0     H85223   9.599   6.565   6.440 -0.2267 -2.6084  1.1286
  618MOL0     H85224   9.528   6.563   6.272 -0.8348 -1.0948 -1.1232
  618MOL0     H85225   9.495   6.324   6.468  1.0062 -0.3294  0.4283
  618MOL0     H85226   9.421   6.336   6.311 -4.8075  0.6555  0.6915
  618MOL0     H85227   9.365   6.556   6.508 -0.0434 -1.4427  0.3833
  618MOL0     H85228   9.289   6.530   6.357  1.3247 -0.4041 -0.5165
  618MOL0     H85229   9.183   6.464   6.601  0.7164 -0.5126  1.4403
  618MOL0     H85230   9.280   6.314   6.576  0.1000  0.5399  0.2875
  618MOL0     H85231   9.079   6.434   6.378  0.6258 -0.5036 -1.6245
  618MOL0     H85232   9.174   6.280   6.351 -1.7810 -1.6751  0.4338
  618MOL0     H85233   9.092   6.078   6.570 -0.3117 -0.0935  1.8343
  618MOL0     H85234   8.750   6.047   6.720 -0.8713 -2.5958 -1.0864
  618MOL0     H85235   8.910   5.959   6.738  2.5197 -1.9295 -1.1627
  618MOL0     H85236   8.748   5.963   6.477 -2.4703  0.2233  1.2720
  618MOL0     H85237   8.896   5.880   6.518  0.9364  1.1576  1.1310
  618MOL0     H85238   8.705   5.719   6.545 -1.0222  0.8909 -0.5668
  618MOL0     H85239   8.767   5.762   6.713  0.0684 -0.4647  0.2145
  618MOL0     H85240   8.561   5.924   6.724  1.6373  1.6866 -2.1089
  618MOL0     H85241   8.513   5.841   6.576  1.5135 -0.3336 -1.4330
  618MOL0     H85242   8.523   5.483   6.677  0.7435  1.6420 -0.4034
  618MOL0     H85243   8.296   5.243   6.723 -2.2724  0.4868 -0.1805
  618MOL0     H85244   8.439   5.273   6.636  0.9706 -1.2521  0.9012
  618MOL0     H85245   8.284   5.266   6.551  2.4113 -0.9412 -0.6315
  618MOL0     H85246   8.010   5.240   6.844  0.2474  0.2472  1.5629
  618MOL0     H85247   7.863   5.084   6.942  2.0285 -1.1896 -3.6077
  618MOL0     H85248   7.419   5.026   7.018  0.1906  0.9939  1.0134
  618MOL0     H85249   7.403   5.197   6.997 -1.1304  0.5359 -3.2497
  618MOL0     H85250   7.310   5.088   6.817  0.6328 -1.6510  0.4795
  618MOL0     H85251   7.453   5.154   6.747 -2.2003 -0.2499 -0.4137
  618MOL0     H85252   7.440   4.865   6.852 -2.3644 -0.5352 -0.7730
  618MOL0     H85253   7.561   4.914   6.731 -0.5952  0.6404 -2.9600
  618MOL0     H85254   7.389   4.963   6.568  0.1900 -2.5494 -1.5225
  618MOL0     H85255   7.260   4.924   6.678  0.3008  1.7399  1.5203
  618MOL0     H85256   7.460   4.700   6.597  0.6647  0.1988  1.0839
  618MOL0     H85257   7.324   4.691   6.706 -1.2521 -0.6118 -1.1029
  618MOL0     H85258   7.307   4.762   6.401 -0.6405 -1.7979 -1.2680
  618MOL0     H85259   7.168   4.748   6.512  0.3951  1.5722 -0.2786
  618MOL0     H85260   7.370   4.514   6.481  1.4494  2.2814 -0.2316
  618MOL0     H85261   7.268   4.558   6.348  5.3964 -1.0000  0.1282
  618MOL0     H85262   7.162   4.380   6.483  2.6931  1.0323 -2.9532
  618MOL0     H85263   7.064   4.524   6.509  0.3003  0.3051 -1.5546
  618MOL0     H85264   7.537   5.365   6.845  0.2714  1.2330 -1.2941
  618MOL0     H85265   7.699   5.517   6.753 -2.0039 -0.3296  1.1591
  618MOL0     H85266   8.087   5.702   6.714  1.2351  0.9996  0.2059
  618MOL0     H85267   8.265   5.814   6.787 -1.5364 -0.8978  0.2348
  618MOL0     H85268  10.188   6.409   6.267 -1.3821  0.0222 -2.8872
  618MOL0     H85269  10.400   6.311   6.302  1.3364 -2.5906 -0.2678
  618MOL0     H85270  10.627   6.068   6.448  1.4760 -0.1294  1.0079
  618MOL0     H85271  10.842   6.040   6.515  2.2364  0.7237 -1.0861
  618MOL0     H85272  11.016   5.756   6.410 -0.3005 -0.3390  0.1816
  618MOL0     H85273  11.183   5.818   6.436 -0.5767  0.8159  0.5717
  618MOL0     H85274  11.073   5.768   6.655 -2.0832 -0.5129  0.4901
  618MOL0     H85275  10.955   5.888   6.625  0.4528 -0.4728  4.1590
  618MOL0     H85276  11.257   5.937   6.643 -0.5045  0.5026 -0.8157
  618MOL0     H85277  11.145   6.064   6.595  0.5169 -1.1060 -0.6188
  618MOL0     H85278  11.198   6.086   6.836  0.8822  0.5440  0.2890
  618MOL0     H85279  11.123   5.923   6.864  1.8668 -0.6131 -2.2630
  618MOL0     H85280  10.814   6.220   6.790  0.6980  1.1527 -1.3808
  618MOL0     H85281  10.955   5.862   6.153 -0.0654  0.1304 -1.2899
  618MOL0     H85282  10.776   5.987   5.948  0.5540 -1.3878 -0.8857
  618MOL0     H85283  10.777   5.806   5.987 -0.2511 -1.1281 -0.0730
  618MOL0     H85284  10.641   5.897   5.976  0.2214 -2.5480  0.4739
  619MOL0     O85285  10.674   8.420  11.436 -0.1264 -0.1113  0.2031
  619MOL0     C85286  10.731   8.361  11.522 -1.1951 -0.0816 -0.1945
  619MOL0     O85287  10.719   8.226  11.541 -0.1465  0.5386 -0.6152
  619MOL0     C85288  10.612   8.162  11.484  0.5745  0.0056  0.3894
  619MOL0     C85289  10.528   8.096  11.574  0.1366 -0.1473  0.4593
  619MOL0     C85290  10.425   8.021  11.519  0.0642 -0.1252  0.4735
  619MOL0     C85291  10.392   8.023  11.384  0.0925 -0.1495 -0.4488
  619MOL0     O85292  10.286   7.953  11.326 -0.2565 -0.9935  0.0657
  619MOL0     C85293  10.186   7.886  11.406 -0.7676 -1.0726  0.7552
  619MOL0     C85294  10.074   7.831  11.319 -0.6546 -0.5260 -0.1679
  619MOL0     C85295  10.132   7.733  11.214  1.1185 -0.4230  0.4638
  619MOL0     C85296  10.008   7.683  11.132  0.2315  0.4086  0.8316
  619MOL0     C85297   9.963   7.550  11.187  0.4778  0.8902  0.7594
  619MOL0     C85298   9.867   7.475  11.105  0.2324  0.3248  0.1749
  619MOL0     C85299   9.834   7.335  11.184 -0.5024 -0.3836 -0.8701
  619MOL0     C85300   9.719   7.247  11.121 -0.6186 -0.3723  0.3891
  619MOL0     N85301   9.760   7.209  10.982  0.8174  0.6370 -0.0195
  619MOL0     C85302   9.853   7.113  10.953  0.2283 -0.7789  0.3355
  619MOL0     C85303   9.860   7.116  10.820 -0.4143  0.8854  1.0023
  619MOL0     C85304   9.938   7.023  10.734 -0.5870 -0.2007 -0.0868
  619MOL0     C85305  10.091   7.064  10.727 -0.3802  0.9083 -0.6698
  619MOL0     C85306  10.119   7.133  10.598 -0.1473  0.6791  0.5289
  619MOL0     C85307  10.083   7.282  10.586 -0.5551 -0.8526 -0.2679
  619MOL0     O85308  10.179   7.359  10.665 -0.1419  0.3232 -0.5748
  619MOL0     C85309  10.170   7.490  10.678  0.4921  0.6605  0.1583
  619MOL0     C85310  10.266   7.564  10.744  0.3296 -0.6316 -0.6115
  619MOL0     C85311  10.243   7.708  10.773  0.3349  0.0346 -0.5217
  619MOL0     C85312  10.353   7.760  10.859  0.0847 -0.6389  0.4770
  619MOL0     C85313  10.127   7.768  10.734  0.2295  0.5063 -0.1229
  619MOL0     C85314  10.098   7.902  10.782  0.1537 -0.0159  0.4332
  619MOL0     O85315  10.197   7.981  10.824  0.2242  0.1639 -0.1230
  619MOL0     C85316  10.165   8.108  10.848 -0.2685  0.2114  0.1931
  619MOL0     C85317  10.085   8.153  10.948  0.9950 -0.1064 -0.3574
  619MOL0     C85318  10.047   8.281  10.962  0.7924  0.3355 -0.1690
  619MOL0     C85319  10.098   8.380  10.868 -0.3684  0.4182  0.1015
  619MOL0     O85320  10.076   8.513  10.881 -0.0551 -0.1136  0.7205
  619MOL0     C85321  10.023   8.578  10.999  0.4838  0.4892  0.4668
  619MOL0     C85322   9.877   8.554  11.028 -0.0219 -0.1639 -0.5386
  619MOL0     C85323   9.786   8.656  10.950 -0.7541  0.2536  0.6890
  619MOL0     C85324   9.635   8.636  10.978 -0.1769 -0.2237  0.6283
  619MOL0     C85325   9.562   8.725  10.879  0.4983  1.0756 -0.5663
  619MOL0     C85326   9.558   8.879  10.919  0.2407  0.0463 -0.0019
  619MOL0     C85327   9.466   8.965  10.837  0.3819  0.2192  0.2983
  619MOL0     C85328   9.318   8.922  10.843 -0.1062 -0.3527  0.5101
  619MOL0    Cl85329   9.217   9.066  10.831  0.3265  0.0433 -0.5592
  619MOL0     C85330  10.180   8.341  10.772  0.3734 -0.3769  0.0180
  619MOL0     C85331  10.217   8.206  10.764 -0.2416  0.1409 -1.1049
  619MOL0     O85332   9.980   7.943  10.748 -0.9954  0.4986  0.1377
  619MOL0     C85333  10.030   7.688  10.662  0.7966  0.1129  0.5306
  619MOL0     C85334  10.052   7.557  10.631 -0.4111  0.0192 -0.1993
  619MOL0     N85335   9.781   7.215  10.764 -0.0979  0.3252  0.1746
  619MOL0     N85336   9.712   7.260  10.861 -0.9587  0.6545  0.6840
  619MOL0     C85337  10.480   8.084  11.291  0.0666  0.1070 -0.6917
  619MOL0     C85338  10.591   8.150  11.338 -0.4588  0.5966 -0.8493
  619MOL0     C85339  10.819   8.438  11.619 -0.3417 -0.3734  0.3024
  619MOL0     C85340  10.882   8.364  11.721 -0.0305  0.2016  0.4612
  619MOL0     C85341  10.964   8.418  11.813 -0.1345 -0.3438 -0.7068
  619MOL0     C85342  10.992   8.551  11.805  0.7556 -0.5768 -1.0225
  619MOL0     O85343  11.075   8.603  11.899 -0.1308 -0.1897 -0.2116
  619MOL0     C85344  11.067   8.745  11.919 -0.3300 -0.7773 -1.2231
  619MOL0     C85345  11.133   8.792  12.047 -0.6389 -0.0205 -0.7337
  619MOL0     C85346  11.037   8.775  12.171 -0.6302 -0.3889  0.5604
  619MOL0     C85347  11.118   8.801  12.295  0.1591  0.1424 -0.4835
  619MOL0     C85348  11.127   8.946  12.331 -0.3296  0.7261  0.1010
  619MOL0     C85349  11.130   9.064  12.344 -0.1987  0.1267  0.5537
  619MOL0     C85350  10.940   8.631  11.703  0.2678 -0.4583 -0.3877
  619MOL0     C85351  10.856   8.577  11.611  0.1515  0.1282 -0.5058
  619MOL0     C85352  10.808   8.669  11.497  0.7222  0.1378 -0.0372
  619MOL0     H85353  10.548   8.095  11.680  0.2999 -2.2964  0.4380
  619MOL0     H85354  10.357   7.974  11.590  0.4898 -2.0768 -0.3226
  619MOL0     H85355  10.144   7.955  11.479  0.5177 -1.0475  1.5052
  619MOL0     H85356  10.236   7.806  11.462  0.5783 -1.4748 -0.9401
  619MOL0     H85357  10.003   7.772  11.378 -2.2740  1.5446  0.1142
  619MOL0     H85358  10.015   7.906  11.265  1.8385 -0.0784 -2.4655
  619MOL0     H85359  10.207   7.778  11.148  0.6733 -1.7496 -1.0331
  619MOL0     H85360  10.177   7.644  11.259 -0.3508 -3.7359 -3.8505
  619MOL0     H85361   9.926   7.755  11.123 -0.7170 -0.8676 -1.6236
  619MOL0     H85362  10.035   7.679  11.026 -1.4273 -0.5606  0.4097
  619MOL0     H85363   9.911   7.576  11.280 -4.0510  0.7156 -1.4711
  619MOL0     H85364  10.054   7.492  11.204  1.1026  1.7656  0.4909
  619MOL0     H85365   9.778   7.532  11.077  0.0879  0.8812  1.6547
  619MOL0     H85366   9.922   7.442  11.017  0.5509 -0.2964  0.5962
  619MOL0     H85367   9.823   7.353  11.292  1.6885  0.9346 -0.8153
  619MOL0     H85368   9.924   7.274  11.192 -0.7982 -0.6524  1.2141
  619MOL0     H85369   9.706   7.159  11.183  0.1449 -4.3614 -4.4430
  619MOL0     H85370   9.628   7.307  11.122 -0.5071 -0.2102  1.0786
  619MOL0     H85371   9.904   7.038  11.012 -0.3135 -0.7971  0.7808
  619MOL0     H85372   9.894   7.020  10.634 -0.5191  1.8876 -0.2373
  619MOL0     H85373   9.928   6.920  10.767 -3.0229 -0.4450 -1.4135
  619MOL0     H85374  10.120   7.126  10.812 -1.3418  0.3447  0.0851
  619MOL0     H85375  10.147   6.970  10.729 -2.7979 -0.6195  1.1480
  619MOL0     H85376  10.228   7.129  10.590 -0.1256  0.5071  0.8934
  619MOL0     H85377  10.070   7.073  10.521 -3.1412 -0.7465  3.3191
  619MOL0     H85378  10.089   7.299  10.478 -3.3290 -2.0347 -0.6784
  619MOL0     H85379   9.979   7.299  10.615 -0.3226 -2.8247  2.1150
  619MOL0     H85380  10.348   7.505  10.784  0.6380  0.1547 -0.0622
  619MOL0     H85381  10.318   7.815  10.947 -2.4190 -0.1265 -0.7640
  619MOL0     H85382  10.437   7.812  10.811 -0.1314  0.5164  1.3110
  619MOL0     H85383  10.402   7.682  10.917 -0.6467  0.3827  2.5831
  619MOL0     H85384  10.041   8.090  11.025  3.1225 -0.1380  0.8989
  619MOL0     H85385   9.983   8.299  11.047 -1.8981 -2.9538 -1.2759
  619MOL0     H85386  10.075   8.528  11.081  0.2231 -2.5053 -1.0444
  619MOL0     H85387  10.051   8.684  11.003  0.8143  0.4127  0.2458
  619MOL0     H85388   9.833   8.456  11.003 -2.4182  0.7886 -0.3121
  619MOL0     H85389   9.862   8.569  11.135 -1.7045  5.3346 -1.2260
  619MOL0     H85390   9.794   8.634  10.843  0.8018 -0.3653  0.9100
  619MOL0     H85391   9.824   8.758  10.963 -0.6486  0.2305  0.5685
  619MOL0     H85392   9.598   8.672  11.075 -2.6232 -0.9931  0.0418
  619MOL0     H85393   9.607   8.531  10.973  1.0039 -0.5439  0.4643
  619MOL0     H85394   9.594   8.694  10.779  2.1750 -1.1381  0.5668
  619MOL0     H85395   9.455   8.702  10.885  1.1459 -2.1220  0.8829
  619MOL0     H85396   9.656   8.924  10.905  0.3196 -0.3540 -0.7720
  619MOL0     H85397   9.536   8.895  11.025 -1.1706  1.5226 -0.4722
  619MOL0     H85398   9.507   8.973  10.736  1.5192 -1.6009  0.5822
  619MOL0     H85399   9.463   9.067  10.877 -0.6713  1.4951 -2.6973
  619MOL0     H85400   9.301   8.864  10.935  3.1155 -3.0418 -0.3693
  619MOL0     H85401   9.303   8.845  10.767 -2.3991 -1.3496  1.8461
  619MOL0     H85402  10.237   8.406  10.706  2.0388 -1.7415  0.0480
  619MOL0     H85403  10.263   8.162  10.676 -0.3723 -0.8945 -0.6771
  619MOL0     H85404   9.930   7.727  10.645 -0.1546 -1.7032  1.6353
  619MOL0     H85405   9.974   7.517  10.567 -0.6843  0.2521 -0.0128
  619MOL0     H85406  10.460   8.077  11.184 -1.2915 -3.2364 -0.3294
  619MOL0     H85407  10.666   8.180  11.265  1.7468 -2.3762  0.0049
  619MOL0     H85408  10.864   8.258  11.735  1.1391  0.0356  0.8124
  619MOL0     H85409  11.028   8.371  11.887  0.4172  2.6029  0.8399
  619MOL0     H85410  11.116   8.795  11.835  1.6429 -0.8334 -0.1710
  619MOL0     H85411  10.962   8.774  11.916 -0.6996 -1.4305  1.7635
  619MOL0     H85412  11.145   8.900  12.035 -2.2961  0.3819  0.8294
  619MOL0     H85413  11.236   8.756  12.051 -0.5457 -0.0536 -2.4490
  619MOL0     H85414  10.957   8.851  12.172  0.4543  0.8384  3.0952
  619MOL0     H85415  11.003   8.672  12.161  3.1284 -1.8826  1.7772
  619MOL0     H85416  11.219   8.761  12.286  0.2154  0.3817 -0.9560
  619MOL0     H85417  11.072   8.764  12.387  0.4851  1.9374  0.4394
  619MOL0     H85418  11.159   9.167  12.350  1.4928 -0.0884 -1.9541
  619MOL0     H85419  10.984   8.727  11.676  0.0169 -0.2685 -0.1343
  619MOL0     H85420  10.841   8.771  11.514  1.9949 -0.1283 -0.7439
  619MOL0     H85421  10.843   8.636  11.398 -0.4970 -0.6766 -0.2232
  619MOL0     H85422  10.700   8.683  11.502  0.8522  0.6984  4.0528
  620MOL0     O85423  11.437   9.476  10.376 -0.1214  0.3050 -0.5042
  620MOL0     C85424  11.312   9.477  10.385 -0.5755  0.6534 -0.3695
  620MOL0     O85425  11.235   9.568  10.322 -0.2976 -0.3164  0.8087
  620MOL0     C85426  11.293   9.649  10.223  0.4466  0.2329 -0.1487
  620MOL0     C85427  11.374   9.594  10.123  0.1089 -0.1172  0.2397
  620MOL0     C85428  11.441   9.676  10.036  0.1908 -1.0425 -0.4512
  620MOL0     C85429  11.437   9.819  10.041  0.2629 -0.7886 -0.4243
  620MOL0     O85430  11.507   9.883   9.942 -0.5111 -0.6769  0.9168
  620MOL0     C85431  11.577  10.004   9.964  0.6762  0.2240 -0.0547
  620MOL0     C85432  11.672  10.043   9.850  0.1264 -0.3693  0.4871
  620MOL0     C85433  11.770   9.925   9.808  0.1046 -0.0518  0.5150
  620MOL0     C85434  11.887   9.987   9.729  0.5230 -0.1726  0.1683
  620MOL0     C85435  11.969   9.880   9.650 -0.7998  0.4467 -0.7327
  620MOL0     C85436  12.091   9.926   9.577 -0.0641 -0.2362  0.3763
  620MOL0     C85437  12.139   9.822   9.481  0.2012  0.3191  0.6137
  620MOL0     C85438  12.276   9.866   9.421 -0.1836  0.0248  0.6502
  620MOL0     N85439  12.390   9.825   9.503 -0.3919  0.0767  0.1213
  620MOL0     C85440  12.466   9.921   9.568  0.4177 -0.7052  0.7742
  620MOL0     C85441  12.574   9.854   9.609 -0.6791 -1.1099 -0.0311
  620MOL0     C85442  12.685   9.920   9.681 -0.2462  0.1214 -0.2671
  620MOL0     C85443  12.789   9.810   9.698 -0.5650 -0.2478 -0.0214
  620MOL0     C85444  12.900   9.882   9.780  0.5704  1.2207 -0.2310
  620MOL0     C85445  13.014   9.784   9.823 -0.5424  0.5559 -0.3896
  620MOL0     O85446  13.050   9.822   9.955 -0.2576 -0.2800  0.9222
  620MOL0     C85447  13.181   9.812   9.998 -0.1382 -0.3581 -0.0222
  620MOL0     C85448  13.273   9.728   9.947 -0.2272  0.3984  0.0636
  620MOL0     C85449  13.400   9.704  10.004  0.3436 -0.3755  0.3419
  620MOL0     C85450  13.491   9.606   9.932  0.0034 -0.1159 -0.7465
  620MOL0     C85451  13.433   9.784  10.124 -0.2596  0.4483  0.1616
  620MOL0     C85452  13.573   9.775  10.195  0.3929  0.3085 -0.5873
  620MOL0     O85453  13.685   9.755  10.123 -0.5260 -0.1655 -0.0606
  620MOL0     C85454  13.787   9.681  10.179  0.0631 -0.6965  0.7117
  620MOL0     C85455  13.889   9.739  10.263 -0.2380  0.1567  1.1056
  620MOL0     C85456  13.993   9.659  10.313 -0.3082 -0.2845  0.7240
  620MOL0     C85457  14.012   9.526  10.276  0.6068 -0.3117  0.3560
  620MOL0     O85458  14.136   9.472  10.308  0.1034 -0.0250  0.6531
  620MOL0     C85459  14.132   9.339  10.350  0.7811  0.1307 -0.0868
  620MOL0     C85460  14.163   9.239  10.235 -0.0214 -0.3922 -0.0988
  620MOL0     C85461  14.129   9.095  10.281 -0.8316 -0.2493 -0.4730
  620MOL0     C85462  14.241   9.048  10.381 -0.2947  0.5672  0.5832
  620MOL0     C85463  14.211   8.902  10.438  0.5315  0.0174  0.8479
  620MOL0     C85464  14.324   8.855  10.522 -1.1186  0.0397 -0.3039
  620MOL0     C85465  14.282   8.742  10.621 -0.1546 -0.4331  0.1370
  620MOL0     C85466  14.387   8.714  10.739  0.0195  0.1023 -0.1902
  620MOL0    Cl85467  14.399   8.846  10.840  0.0720 -0.0479 -0.3321
  620MOL0     C85468  13.915   9.474  10.185 -0.4254  0.5532 -1.8277
  620MOL0     C85469  13.808   9.551  10.144  0.0734 -0.7766 -0.1573
  620MOL0     O85470  13.571   9.798  10.313 -0.5423 -0.2386 -0.6320
  620MOL0     C85471  13.343   9.880  10.171  0.3995  0.5329  0.4637
  620MOL0     C85472  13.214   9.893  10.112  1.0181  0.0236  0.0718
  620MOL0     N85473  12.567   9.723   9.569 -0.3103  1.0976  0.0547
  620MOL0     N85474  12.460   9.710   9.506  0.2532  0.3599  0.5459
  620MOL0     C85475  11.351   9.873  10.142 -0.4551  0.5618  0.3339
  620MOL0     C85476  11.280   9.795  10.235 -0.6891  0.3553  0.5223
  620MOL0     C85477  11.256   9.392  10.486  1.2298 -0.3752 -0.0853
  620MOL0     C85478  11.143   9.313  10.459 -0.9031  0.0251 -0.0499
  620MOL0     C85479  11.086   9.221  10.556  0.6129 -0.6221 -0.1038
  620MOL0     C85480  11.144   9.211  10.684  0.2810  0.2434 -0.0035
  620MOL0     O85481  11.100   9.116  10.776 -0.4081 -0.0870 -0.0237
  620MOL0     C85482  10.956   9.080  10.790  0.3100  0.0714  0.4992
  620MOL0     C85483  10.879   9.195  10.853 -0.4826 -0.5702  0.2418
  620MOL0     C85484  10.953   9.293  10.950 -0.1038 -0.2912 -0.1030
  620MOL0     C85485  10.892   9.403  11.024  0.7746 -0.5696 -0.2503
  620MOL0     C85486  10.830   9.501  10.934 -0.5961  0.1193 -0.4077
  620MOL0     C85487  10.781   9.581  10.857  1.9105 -0.1033  1.0788
  620MOL0     C85488  11.257   9.290  10.710 -0.7055  0.0250 -0.4378
  620MOL0     C85489  11.306   9.385  10.618  0.4974 -0.3876  1.0196
  620MOL0     C85490  11.409   9.483  10.670  0.0512  0.5319  0.0372
  620MOL0     H85491  11.375   9.486  10.112 -2.2080 -0.2753  1.1238
  620MOL0     H85492  11.481   9.621   9.951  2.4954 -2.5947  1.4914
  620MOL0     H85493  11.643   9.982  10.048 -0.9884  4.6165  2.7299
  620MOL0     H85494  11.502  10.078   9.994 -1.9519 -1.8859 -1.0106
  620MOL0     H85495  11.623  10.076   9.759  1.1292  1.0619  0.4452
  620MOL0     H85496  11.736  10.125   9.884  1.8481 -1.2588 -0.5162
  620MOL0     H85497  11.799   9.873   9.899  0.9201 -1.4806 -0.5134
  620MOL0     H85498  11.714   9.858   9.741  0.9928 -2.9354  2.4979
  620MOL0     H85499  11.841  10.054   9.656 -1.2116 -0.0176  1.3371
  620MOL0     H85500  11.961  10.045   9.786 -0.1539  1.7060 -0.7551
  620MOL0     H85501  11.903   9.834   9.575 -0.5315 -2.5887  0.7157
  620MOL0     H85502  12.006   9.799   9.714 -0.3040  0.1538 -1.3820
  620MOL0     H85503  12.077  10.020   9.523  2.1062  1.2852  2.2826
  620MOL0     H85504  12.158   9.947   9.661 -1.8489  0.7274  1.6066
  620MOL0     H85505  12.069   9.805   9.399  2.0471 -0.8719 -0.7761
  620MOL0     H85506  12.143   9.725   9.532 -1.4422 -0.0319  0.1490
  620MOL0     H85507  12.278   9.806   9.329 -2.5414  0.1424  0.4433
  620MOL0     H85508  12.272   9.971   9.394 -1.3262 -0.0496  0.4765
  620MOL0     H85509  12.437  10.024   9.585  1.9539 -0.0703 -0.2864
  620MOL0     H85510  12.642   9.962   9.772 -2.5965 -0.8461 -0.8593
  620MOL0     H85511  12.715  10.004   9.618 -0.5460 -0.3494 -1.0473
  620MOL0     H85512  12.748   9.730   9.760  0.6048 -0.4081  0.5839
  620MOL0     H85513  12.827   9.778   9.600  0.0977  0.4594 -0.0041
  620MOL0     H85514  12.931   9.964   9.715  1.2422  0.8467 -0.3841
  620MOL0     H85515  12.851   9.928   9.867  1.7621  1.1283  0.4996
  620MOL0     H85516  12.980   9.680   9.823  0.6950  0.1061  1.5922
  620MOL0     H85517  13.098   9.799   9.755  0.3136  1.3704  0.8191
  620MOL0     H85518  13.252   9.666   9.860  2.7964  0.3257 -0.7350
  620MOL0     H85519  13.574   9.670   9.902 -0.7083  1.8285  1.1118
  620MOL0     H85520  13.433   9.563   9.850  0.0790  1.4206 -1.6477
  620MOL0     H85521  13.539   9.528   9.992  1.3345  1.1527 -0.0886
  620MOL0     H85522  13.875   9.842  10.293 -0.7473  0.3977  0.0724
  620MOL0     H85523  14.080   9.700  10.363  1.1713 -1.7759 -0.4903
  620MOL0     H85524  14.214   9.321  10.421  0.8168  0.3507 -0.0722
  620MOL0     H85525  14.038   9.325  10.402 -0.0278  1.3595 -1.1677
  620MOL0     H85526  14.104   9.267  10.147 -0.7630  1.9017  1.0317
  620MOL0     H85527  14.267   9.239  10.203 -0.1460 -1.3284 -0.5248
  620MOL0     H85528  14.131   9.026  10.196 -1.7268 -2.5531  1.2715
  620MOL0     H85529  14.027   9.094  10.319  0.5117 -1.5157  3.6798
  620MOL0     H85530  14.236   9.117  10.466 -0.7596  0.1935  0.8652
  620MOL0     H85531  14.342   9.058  10.342 -0.3078 -0.4046  0.2769
  620MOL0     H85532  14.133   8.909  10.514  0.8067  1.7440  1.0010
  620MOL0     H85533  14.177   8.836  10.357 -0.2349  0.8288  0.4901
  620MOL0     H85534  14.367   8.936  10.581 -2.0729  1.9748 -2.1322
  620MOL0     H85535  14.414   8.825  10.468  0.8116 -1.0807  3.2288
  620MOL0     H85536  14.259   8.651  10.564 -1.7791  0.9411 -1.5120
  620MOL0     H85537  14.194   8.766  10.681 -0.2541 -1.2710  0.3444
  620MOL0     H85538  14.484   8.701  10.690  0.5740  2.1929  0.2359
  620MOL0     H85539  14.350   8.630  10.798 -2.3973  1.2748  0.0949
  620MOL0     H85540  13.927   9.374  10.142  2.0783  0.3023 -0.6715
  620MOL0     H85541  13.734   9.512  10.075 -1.2051  0.2464  0.5862
  620MOL0     H85542  13.366   9.942  10.257 -0.6974 -0.4874  1.5368
  620MOL0     H85543  13.150   9.953  10.176 -0.0706 -1.1614  0.1281
  620MOL0     H85544  11.337   9.981  10.144 -1.0762  0.4665  1.8366
  620MOL0     H85545  11.224   9.826  10.323  2.7566  1.5778  2.5095
  620MOL0     H85546  11.097   9.310  10.361 -2.2194 -0.5039  0.5488
  620MOL0     H85547  11.002   9.156  10.535 -3.6112  4.1317  0.0352
  620MOL0     H85548  10.913   9.056  10.693  0.3575 -0.3587  0.5824
  620MOL0     H85549  10.962   8.979  10.833 -1.3428 -0.8635 -1.3390
  620MOL0     H85550  10.790   9.153  10.901 -2.9787  1.9460 -1.8232
  620MOL0     H85551  10.841   9.245  10.763  0.3000 -0.1118  0.1537
  620MOL0     H85552  11.006   9.225  11.017  1.1057 -2.1797 -2.7992
  620MOL0     H85553  11.025   9.345  10.886 -0.6448  2.2595  1.2405
  620MOL0     H85554  10.965   9.453  11.089 -0.0175  0.7515 -0.3418
  620MOL0     H85555  10.827   9.369  11.104  2.3935 -0.6232  1.1021
  620MOL0     H85556  10.737   9.654  10.791 -3.2684 -1.2188  2.8168
  620MOL0     H85557  11.310   9.282  10.804  0.3343  0.3158 -0.9782
  620MOL0     H85558  11.397   9.503  10.777  2.9498  0.7734  0.3896
  620MOL0     H85559  11.506   9.433  10.664  0.3063  1.1462 -1.4142
  620MOL0     H85560  11.413   9.580  10.620  2.9343  1.0932  1.1558
  621MOL0     O85561   8.156   5.079   7.732 -0.2525  0.2957  0.2695
  621MOL0     C85562   8.186   5.196   7.775  0.6583  1.1030  0.5807
  621MOL0     O85563   8.314   5.243   7.781  0.3841 -0.5517 -0.6830
  621MOL0     C85564   8.417   5.166   7.737  0.2727 -0.4066  0.2892
  621MOL0     C85565   8.415   5.119   7.608 -0.5701 -0.2927 -0.0279
  621MOL0     C85566   8.524   5.046   7.559  0.2701 -0.3416  0.5236
  621MOL0     C85567   8.630   5.015   7.639 -0.5972  0.0496  0.1578
  621MOL0     O85568   8.728   4.948   7.572 -0.2347  0.6647  0.3578
  621MOL0     C85569   8.839   4.895   7.653 -0.6719  0.4512 -0.3306
  621MOL0     C85570   8.934   4.812   7.562 -0.1386 -0.4353 -1.0755
  621MOL0     C85571   9.003   4.895   7.457 -0.9203 -0.3109 -0.1863
  621MOL0     C85572   9.071   5.020   7.518  0.8981 -0.6285  0.7665
  621MOL0     C85573   9.196   5.049   7.428  0.0381 -0.2626 -0.9888
  621MOL0     C85574   9.281   5.172   7.461 -0.0139 -0.8097 -0.0477
  621MOL0     C85575   9.364   5.227   7.345  0.0031  0.3012 -0.1543
  621MOL0     C85576   9.436   5.366   7.370  0.3800  0.6092  0.2422
  621MOL0     N85577   9.542   5.359   7.462  0.4773 -0.7976 -0.8708
  621MOL0     C85578   9.670   5.320   7.434 -0.5507 -0.9020  0.5772
  621MOL0     C85579   9.746   5.343   7.541 -0.2865 -0.1233 -0.8116
  621MOL0     C85580   9.899   5.346   7.527 -0.3811 -0.0312  0.7900
  621MOL0     C85581   9.954   5.477   7.470 -0.9273 -0.3184  0.2075
  621MOL0     C85582   9.901   5.604   7.534  0.0393 -0.3724 -0.3154
  621MOL0     C85583   9.912   5.612   7.689  0.7767 -0.0824  1.5402
  621MOL0     O85584  10.048   5.615   7.732  0.0741 -0.6326  0.6120
  621MOL0     C85585  10.135   5.716   7.684 -0.8371  0.9677 -0.8386
  621MOL0     C85586  10.267   5.692   7.713 -0.3926  0.1578 -0.3623
  621MOL0     C85587  10.363   5.788   7.698 -0.1010  0.2480 -0.0351
  621MOL0     C85588  10.505   5.733   7.715 -0.6538  0.0100 -0.1049
  621MOL0     C85589  10.332   5.915   7.638  0.0469 -0.3483  0.6518
  621MOL0     C85590  10.435   6.025   7.615  0.6891 -0.8252  0.0620
  621MOL0     O85591  10.550   6.013   7.678 -0.9815 -0.2098 -0.3374
  621MOL0     C85592  10.663   6.089   7.654 -0.3214 -0.1590 -0.3045
  621MOL0     C85593  10.769   6.029   7.582  0.9768 -0.2364 -0.1299
  621MOL0     C85594  10.885   6.099   7.560 -0.4354 -0.5107  0.8216
  621MOL0     C85595  10.913   6.229   7.620  0.9191  0.2128  0.2915
  621MOL0     O85596  11.027   6.305   7.608  0.2584 -0.1068  0.0244
  621MOL0     C85597  11.084   6.306   7.474  0.2905  0.6860  0.4317
  621MOL0     C85598  11.179   6.429   7.442  1.0498  0.7321 -0.4443
  621MOL0     C85599  11.088   6.554   7.448  0.5186 -0.0648 -0.7416
  621MOL0     C85600  11.175   6.672   7.458 -1.1163  0.1621  0.2984
  621MOL0     C85601  11.098   6.800   7.473  0.1883 -0.2278  0.7706
  621MOL0     C85602  11.188   6.925   7.444 -0.7841 -0.6425  0.3089
  621MOL0     C85603  11.309   6.962   7.533 -0.0163 -0.5035  0.1402
  621MOL0     C85604  11.269   7.005   7.673  0.1010 -0.0041  0.5872
  621MOL0    Cl85605  11.215   7.176   7.676 -0.3241 -0.0464  0.0443
  621MOL0     C85606  10.796   6.288   7.673 -0.0692 -0.5494 -0.0958
  621MOL0     C85607  10.683   6.220   7.694 -0.0208  1.1082 -0.1871
  621MOL0     O85608  10.393   6.118   7.551  0.1690 -0.3869  0.1676
  621MOL0     C85609  10.195   5.930   7.610  0.6649  0.1141  0.4097
  621MOL0     C85610  10.098   5.843   7.645  0.3222  0.5516 -0.1548
  621MOL0     N85611   9.659   5.393   7.645 -0.0559 -0.2205 -0.5915
  621MOL0     N85612   9.540   5.404   7.592 -0.1651  0.3269 -0.3519
  621MOL0     C85613   8.619   5.041   7.773  0.3636 -1.0252  0.6519
  621MOL0     C85614   8.507   5.107   7.827  0.4683 -0.6340 -1.0043
  621MOL0     C85615   8.076   5.295   7.812  0.4926  0.3661 -0.8024
  621MOL0     C85616   8.102   5.432   7.798 -0.0687  0.0117 -0.9938
  621MOL0     C85617   8.003   5.527   7.819 -0.7079  0.3713  1.4012
  621MOL0     C85618   7.882   5.494   7.872 -0.3663  0.0065  0.0564
  621MOL0     O85619   7.767   5.564   7.882  0.7937 -0.9905  0.3121
  621MOL0     C85620   7.773   5.703   7.877  0.3118 -1.0013 -0.2621
  621MOL0     C85621   7.775   5.765   8.016 -0.7413  0.5512  0.1331
  621MOL0     C85622   7.790   5.914   8.007  0.5036 -0.0927 -0.0977
  621MOL0     C85623   7.828   5.953   8.151 -0.5417 -0.7320  0.1535
  621MOL0     C85624   7.838   6.094   8.151 -0.3603  0.1874  0.0924
  621MOL0     C85625   7.824   6.214   8.134 -0.7691  0.4371  0.3414
  621MOL0     C85626   7.864   5.358   7.899 -0.6074  1.1923 -1.0670
  621MOL0     C85627   7.956   5.254   7.874 -0.0004  0.2674 -0.4405
  621MOL0     C85628   7.933   5.113   7.905  0.1657 -0.2268  0.1112
  621MOL0     H85629   8.332   5.152   7.546 -0.4356  3.0946  1.3482
  621MOL0     H85630   8.514   5.006   7.459  0.1653 -0.2382  0.4932
  621MOL0     H85631   8.809   4.829   7.735  0.0788 -2.6824 -2.3677
  621MOL0     H85632   8.903   4.973   7.694  1.1995 -0.6259 -1.0518
  621MOL0     H85633   9.017   4.766   7.617  0.2798  0.7691 -0.6586
  621MOL0     H85634   8.871   4.735   7.517 -0.3720  1.1762 -3.7054
  621MOL0     H85635   9.085   4.839   7.411 -1.3834 -1.1944  0.0553
  621MOL0     H85636   8.932   4.928   7.381 -1.1415  0.3168  0.2788
  621MOL0     H85637   9.014   5.113   7.513  2.7916  0.5270 -1.3497
  621MOL0     H85638   9.096   4.995   7.622  3.8026 -2.2213 -0.2002
  621MOL0     H85639   9.159   5.059   7.326 -0.5584  1.8690 -0.6032
  621MOL0     H85640   9.274   4.972   7.431  0.6908  0.4073  0.1971
  621MOL0     H85641   9.210   5.251   7.487  0.8541 -0.3383  0.9875
  621MOL0     H85642   9.345   5.153   7.548  0.8343  2.0599  0.0613
  621MOL0     H85643   9.296   5.247   7.261  1.7666  1.0317 -1.4650
  621MOL0     H85644   9.435   5.153   7.306  0.8917  0.5207  1.0200
  621MOL0     H85645   9.463   5.399   7.270 -2.2239 -0.7435 -1.0192
  621MOL0     H85646   9.354   5.431   7.403 -3.5833 -2.3220 -2.8315
  621MOL0     H85647   9.717   5.295   7.339  1.3792  2.3418  0.5059
  621MOL0     H85648   9.918   5.261   7.461 -3.4308  0.4794 -0.9063
  621MOL0     H85649   9.952   5.328   7.621 -0.4263 -2.9308  0.3376
  621MOL0     H85650  10.063   5.472   7.477 -0.5384 -0.7726 -3.9582
  621MOL0     H85651   9.931   5.483   7.363  1.3625 -0.6049 -0.3513
  621MOL0     H85652   9.952   5.687   7.484 -2.3349  1.0177 -0.6028
  621MOL0     H85653   9.798   5.616   7.496  0.3225  0.8256 -0.7603
  621MOL0     H85654   9.850   5.693   7.729 -0.5249 -0.4594  0.3921
  621MOL0     H85655   9.868   5.518   7.723 -1.3686 -0.4627 -1.8237
  621MOL0     H85656  10.295   5.591   7.743  0.1492  0.2792 -0.4532
  621MOL0     H85657  10.559   5.795   7.788 -1.2376 -3.3611  3.5477
  621MOL0     H85658  10.558   5.735   7.620 -0.3948  1.9604  0.0329
  621MOL0     H85659  10.499   5.631   7.753  1.8717 -0.4764 -0.8538
  621MOL0     H85660  10.751   5.928   7.546 -4.1516 -0.7606  2.8993
  621MOL0     H85661  10.972   6.057   7.511 -1.3379 -1.7801  0.2358
  621MOL0     H85662  11.154   6.222   7.468 -1.6878 -0.9565 -1.0468
  621MOL0     H85663  11.007   6.291   7.398  0.3123  0.7296  0.4011
  621MOL0     H85664  11.259   6.433   7.515 -1.7549  2.2780  2.8276
  621MOL0     H85665  11.216   6.412   7.340 -0.2347  0.4645 -0.8865
  621MOL0     H85666  11.020   6.529   7.531 -0.5160 -0.2561 -1.6255
  621MOL0     H85667  11.027   6.554   7.357 -0.0068  1.5072 -0.4337
  621MOL0     H85668  11.222   6.681   7.360  0.1637 -0.9053  0.7757
  621MOL0     H85669  11.256   6.665   7.532  1.8362 -0.8842 -2.7444
  621MOL0     H85670  11.015   6.793   7.401  0.7030 -1.8898  0.2944
  621MOL0     H85671  11.062   6.800   7.576  1.1494  2.8332  1.1813
  621MOL0     H85672  11.119   7.009   7.444  0.2607  0.3124 -2.3000
  621MOL0     H85673  11.232   6.911   7.345 -2.4939 -2.5904 -0.2657
  621MOL0     H85674  11.360   7.042   7.480 -1.5052 -0.2125 -0.9248
  621MOL0     H85675  11.379   6.880   7.547  1.6228  1.0781  1.8117
  621MOL0     H85676  11.354   6.995   7.741 -0.0224 -3.3468  0.4004
  621MOL0     H85677  11.188   6.944   7.714 -1.3353  3.2016  2.9562
  621MOL0     H85678  10.798   6.392   7.704 -3.9237  0.3784 -2.3308
  621MOL0     H85679  10.609   6.275   7.752  1.6098  3.2490 -0.0181
  621MOL0     H85680  10.155   6.022   7.569  0.9019 -1.5494 -4.0621
  621MOL0     H85681   9.991   5.858   7.641  0.1299 -0.7808 -2.0475
  621MOL0     H85682   8.686   4.996   7.845 -0.1903 -0.3578  1.6126
  621MOL0     H85683   8.488   5.114   7.933  0.9434 -0.2409 -0.9407
  621MOL0     H85684   8.193   5.473   7.754 -0.5425  2.3870  0.1285
  621MOL0     H85685   8.029   5.631   7.799  0.5908  0.0320  1.2110
  621MOL0     H85686   7.857   5.739   7.817 -0.0750 -0.1470 -0.3052
  621MOL0     H85687   7.684   5.740   7.824  0.4811 -0.1037  0.0645
  621MOL0     H85688   7.863   5.724   8.066 -1.2215 -3.1068 -1.6785
  621MOL0     H85689   7.692   5.720   8.072  0.4328 -0.3635  1.1890
  621MOL0     H85690   7.869   5.946   7.937 -0.6681 -1.3273 -2.0880
  621MOL0     H85691   7.694   5.962   7.984  0.5798  0.1660  0.1197
  621MOL0     H85692   7.926   5.916   8.180  0.8052  2.4136  0.1082
  621MOL0     H85693   7.750   5.919   8.219 -2.1291  1.1861 -0.5905
  621MOL0     H85694   7.795   6.315   8.113 -3.9393 -0.3272  0.5336
  621MOL0     H85695   7.765   5.346   7.941 -1.2288  1.1376 -2.4718
  621MOL0     H85696   7.893   5.066   7.815  4.1508 -0.9858 -1.4597
  621MOL0     H85697   8.026   5.065   7.937  0.6846  1.9028  2.0706
  621MOL0     H85698   7.868   5.100   7.993 -0.2823 -1.7110 -0.4086
  622MOL0     O85699   4.103  10.027   6.341 -0.5371 -0.7549 -0.5839
  622MOL0     C85700   4.114   9.932   6.270 -0.0618  0.8863 -0.2252
  622MOL0     O85701   4.101   9.934   6.133  0.0569  0.1497  0.4685
  622MOL0     C85702   4.042  10.040   6.075  0.4173  0.7150  1.1314
  622MOL0     C85703   4.103  10.091   5.962 -0.7889  0.2085  0.1972
  622MOL0     C85704   4.062  10.214   5.908 -0.3085 -0.2634  0.0537
  622MOL0     C85705   3.945  10.285   5.946  0.2317  0.1888 -0.0361
  622MOL0     O85706   3.894  10.395   5.875 -0.7880  0.1742 -0.1728
  622MOL0     C85707   3.990  10.493   5.841 -0.4993 -0.1046  0.0113
  622MOL0     C85708   4.017  10.574   5.974 -0.7509 -0.3972 -0.2353
  622MOL0     C85709   4.121  10.693   5.951 -0.5929 -0.2529 -0.3701
  622MOL0     C85710   4.058  10.795   5.853 -0.1726  0.2420 -0.0222
  622MOL0     C85711   4.133  10.927   5.856  0.0941 -0.4261  0.0100
  622MOL0     C85712   4.087  11.023   5.738 -0.5465  0.2009 -0.6720
  622MOL0     C85713   4.141  11.165   5.769 -0.1433  0.1191 -0.4751
  622MOL0     C85714   4.124  11.273   5.659 -0.2892  0.3734 -0.1157
  622MOL0     N85715   4.007  11.249   5.573 -0.2107  0.0737  0.1892
  622MOL0     C85716   3.869  11.285   5.597 -0.9868 -0.1773 -0.8299
  622MOL0     C85717   3.820  11.247   5.485  0.8227  0.1707 -0.0631
  622MOL0     C85718   3.672  11.266   5.454 -0.5593 -0.1382  0.7964
  622MOL0     C85719   3.592  11.141   5.472  0.8723  1.6437  0.2162
  622MOL0     C85720   3.633  11.049   5.591 -0.4378  1.0415 -0.1065
  622MOL0     C85721   3.526  10.957   5.633 -1.1280 -0.2510  0.0521
  622MOL0     O85722   3.575  10.873   5.742  0.1119  0.2762  0.0920
  622MOL0     C85723   3.492  10.775   5.790 -0.7360  0.0309 -0.5976
  622MOL0     C85724   3.359  10.808   5.824  0.0667 -0.2687  0.1024
  622MOL0     C85725   3.271  10.715   5.874  0.4404  0.8207  0.5859
  622MOL0     C85726   3.126  10.762   5.894  1.2906  0.1711 -0.3362
  622MOL0     C85727   3.313  10.579   5.904 -0.0498 -0.4506 -0.7795
  622MOL0     C85728   3.227  10.480   5.974  0.2575 -0.4127 -1.4171
  622MOL0     O85729   3.212  10.362   5.902 -0.9733  0.1638  0.0847
  622MOL0     C85730   3.121  10.272   5.947  1.5473  0.8200  0.0783
  622MOL0     C85731   3.169  10.141   5.979 -0.3025 -0.2490  0.8361
  622MOL0     C85732   3.072  10.053   6.026 -0.1568  1.1705  1.1052
  622MOL0     C85733   2.929  10.084   6.026 -1.1130  0.8916  0.6836
  622MOL0     O85734   2.849   9.974   6.074  0.1626 -0.2584 -0.5845
  622MOL0     C85735   2.710   9.969   6.029 -0.0684  1.0451  0.4643
  622MOL0     C85736   2.676   9.820   6.069  0.5556  0.0354  0.1153
  622MOL0     C85737   2.531   9.812   6.116  0.0674 -0.3928 -0.7659
  622MOL0     C85738   2.440   9.797   6.006  0.1240 -0.6529  0.2208
  622MOL0     C85739   2.293   9.774   6.044 -0.9982 -0.1402 -0.5804
  622MOL0     C85740   2.203   9.757   5.922  0.0326 -1.0125  0.6864
  622MOL0     C85741   2.060   9.725   5.967 -0.5614  0.3819 -1.0633
  622MOL0     C85742   1.969   9.702   5.848  0.6877 -0.3571 -0.4696
  622MOL0    Cl85743   1.973   9.814   5.713  0.3309  0.2974  0.2356
  622MOL0     C85744   2.884  10.214   5.985 -0.0276 -0.3499 -0.8038
  622MOL0     C85745   2.979  10.309   5.948  0.1619 -0.3439 -0.3460
  622MOL0     O85746   3.166  10.505   6.081  0.6237  0.4159  1.3935
  622MOL0     C85747   3.449  10.541   5.868  0.0466 -0.8015 -0.1763
  622MOL0     C85748   3.533  10.642   5.814  0.9815  0.2002 -0.2876
  622MOL0     N85749   3.909  11.211   5.392 -0.2549  0.2698  0.1016
  622MOL0     N85750   4.027  11.221   5.446  1.3603 -0.0664  0.0818
  622MOL0     C85751   3.876  10.223   6.049  0.0459  0.0696 -0.1646
  622MOL0     C85752   3.918  10.108   6.109  0.1694 -0.7009  0.5398
  622MOL0     C85753   4.189   9.814   6.325  0.5915 -0.2259  0.7549
  622MOL0     C85754   4.252   9.719   6.228  0.5818 -0.4949 -0.9649
  622MOL0     C85755   4.324   9.607   6.265  0.0070  0.0831  0.3325
  622MOL0     C85756   4.334   9.560   6.404 -0.0146 -0.3630  0.3263
  622MOL0     O85757   4.392   9.438   6.439 -0.8117 -0.6962 -0.2389
  622MOL0     C85758   4.349   9.364   6.560 -0.5099 -0.0374  1.6849
  622MOL0     C85759   4.436   9.412   6.673 -0.0694 -0.5162  0.2310
  622MOL0     C85760   4.572   9.352   6.662 -0.4862 -0.5568 -0.4915
  622MOL0     C85761   4.664   9.426   6.759 -0.7134 -0.7409 -0.3153
  622MOL0     C85762   4.706   9.570   6.734 -0.6793  0.5325  0.1909
  622MOL0     C85763   4.730   9.687   6.709  1.3825 -0.7452  0.0543
  622MOL0     C85764   4.268   9.652   6.492 -0.1647  0.3289 -0.1064
  622MOL0     C85765   4.206   9.777   6.459  0.1394 -0.1126 -0.2057
  622MOL0     C85766   4.156   9.855   6.581 -0.2819  0.5008 -0.0238
  622MOL0     H85767   4.180  10.025   5.923 -2.1632 -1.4334  0.1388
  622MOL0     H85768   4.112  10.256   5.821  1.1221  3.6682  2.4694
  622MOL0     H85769   3.951  10.564   5.768  1.9751 -0.9667 -2.3332
  622MOL0     H85770   4.082  10.451   5.798 -0.0544  1.2677 -0.4249
  622MOL0     H85771   3.926  10.613   6.021 -1.2513 -2.2419  0.4138
  622MOL0     H85772   4.060  10.505   6.047  0.1365 -0.9406 -1.2413
  622MOL0     H85773   4.139  10.743   6.047  1.2763 -4.2419  1.6258
  622MOL0     H85774   4.217  10.649   5.921 -0.2342 -1.2965  2.0321
  622MOL0     H85775   4.070  10.755   5.752  2.0308  0.1962  0.2093
  622MOL0     H85776   3.951  10.810   5.872 -0.7173 -1.5610 -1.4596
  622MOL0     H85777   4.241  10.915   5.852  0.4196  1.7860  0.5588
  622MOL0     H85778   4.121  10.984   5.949  0.9489  0.4106 -0.3817
  622MOL0     H85779   4.131  10.991   5.644 -0.6033 -4.2627  0.6273
  622MOL0     H85780   3.977  11.021   5.735 -0.6346 -2.0451  1.4593
  622MOL0     H85781   4.247  11.150   5.792  0.2510 -1.3732 -2.9179
  622MOL0     H85782   4.084  11.203   5.854  1.4958  0.3279  0.5710
  622MOL0     H85783   4.118  11.373   5.703 -0.1267  0.5241 -0.4339
  622MOL0     H85784   4.215  11.260   5.599 -0.7183  1.1299 -0.9399
  622MOL0     H85785   3.835  11.321   5.694 -1.8472 -3.0203  0.0027
  622MOL0     H85786   3.650  11.309   5.356 -0.5964 -0.6493  0.5827
  622MOL0     H85787   3.633  11.339   5.526 -2.6483  0.6970 -1.0874
  622MOL0     H85788   3.487  11.167   5.483  0.9823  1.9348  0.6102
  622MOL0     H85789   3.604  11.092   5.375  3.3014  0.0722  1.1953
  622MOL0     H85790   3.713  10.978   5.568 -0.0733 -0.0408  3.8179
  622MOL0     H85791   3.657  11.110   5.679 -0.1566  0.9121 -0.0947
  622MOL0     H85792   3.435  11.008   5.666 -1.6124 -1.1510  0.1198
  622MOL0     H85793   3.503  10.902   5.542  0.1156 -0.6191 -0.0604
  622MOL0     H85794   3.319  10.904   5.795 -1.9894 -0.8246  0.9283
  622MOL0     H85795   3.054  10.679   5.895 -2.8404  3.4139  0.8018
  622MOL0     H85796   3.104  10.833   5.814 -3.4230 -0.1191  0.4098
  622MOL0     H85797   3.109  10.809   5.991 -1.2443 -2.1689  0.4877
  622MOL0     H85798   3.274  10.114   5.976 -0.2654 -0.3945  2.5389
  622MOL0     H85799   3.103   9.955   6.062 -0.2350  0.7934  0.1782
  622MOL0     H85800   2.647  10.034   6.091 -1.8509  0.2405 -0.4333
  622MOL0     H85801   2.715   9.989   5.922  2.3981 -0.9347  0.0979
  622MOL0     H85802   2.696   9.745   5.991 -1.0962 -0.3655  0.0359
  622MOL0     H85803   2.744   9.800   6.152 -1.0604 -0.5785  1.3570
  622MOL0     H85804   2.500   9.894   6.182 -2.7182 -1.0298 -1.1717
  622MOL0     H85805   2.512   9.722   6.175 -2.4582  0.2866 -0.3948
  622MOL0     H85806   2.472   9.714   5.942  2.4599 -0.8590  1.5748
  622MOL0     H85807   2.454   9.887   5.946  0.1936  0.9378  2.4786
  622MOL0     H85808   2.297   9.691   6.114 -1.2054  0.0087 -0.3872
  622MOL0     H85809   2.256   9.849   6.115 -0.2160 -1.2912  1.1236
  622MOL0     H85810   2.239   9.672   5.862 -0.3519 -2.4799  2.4426
  622MOL0     H85811   2.196   9.840   5.851 -1.6200 -0.6535  1.2254
  622MOL0     H85812   2.039   9.813   6.029  0.3492 -0.7558  0.9673
  622MOL0     H85813   2.066   9.641   6.036 -0.2672  0.9612 -0.3680
  622MOL0     H85814   1.865   9.702   5.883  0.3613 -0.1092 -1.3873
  622MOL0     H85815   1.985   9.604   5.802  0.4153  0.2261 -1.8830
  622MOL0     H85816   2.777  10.236   5.984 -0.2256 -1.2587 -1.1445
  622MOL0     H85817   2.952  10.410   5.920 -1.8481 -0.3842  1.1815
  622MOL0     H85818   3.495  10.444   5.886 -2.8189 -1.8434  2.2409
  622MOL0     H85819   3.630  10.622   5.769  0.2254 -1.6394 -1.2404
  622MOL0     H85820   3.779  10.265   6.074 -0.7850  0.4511 -3.5516
  622MOL0     H85821   3.868  10.080   6.202 -0.4912  0.2220  0.4763
  622MOL0     H85822   4.243   9.749   6.124 -0.6309 -0.0136 -0.7401
  622MOL0     H85823   4.375   9.552   6.186 -1.5881 -0.6453 -0.2176
  622MOL0     H85824   4.245   9.384   6.588  0.2774  0.9228  4.1223
  622MOL0     H85825   4.356   9.259   6.529  1.7235 -0.1719  2.5151
  622MOL0     H85826   4.398   9.384   6.772 -0.7581  1.4824  0.5745
  622MOL0     H85827   4.437   9.521   6.688 -3.4352 -0.5350  1.2478
  622MOL0     H85828   4.575   9.250   6.701  3.4179 -0.1502  0.6910
  622MOL0     H85829   4.629   9.345   6.569  0.0570  0.1472 -0.2160
  622MOL0     H85830   4.759   9.373   6.763 -0.5416 -0.3627  1.1565
  622MOL0     H85831   4.616   9.416   6.857  0.5960  1.1825  0.6112
  622MOL0     H85832   4.741   9.793   6.721  0.9540 -0.8044  1.0436
  622MOL0     H85833   4.263   9.629   6.598  0.5343  0.9689  0.0757
  622MOL0     H85834   4.166   9.804   6.677 -0.4692  0.4668 -0.0235
  622MOL0     H85835   4.225   9.940   6.586  0.5227 -0.1632  0.4423
  622MOL0     H85836   4.056   9.890   6.556  0.0893 -0.6949 -3.9328
  623MOL0     O85837   0.687   7.665  10.397 -0.5803 -0.2426 -0.9489
  623MOL0     C85838   0.606   7.577  10.361  0.5248 -0.4910 -0.8768
  623MOL0     O85839   0.641   7.456  10.304  0.1720 -1.0339 -1.4052
  623MOL0     C85840   0.765   7.434  10.245 -0.8452 -0.9102  0.4416
  623MOL0     C85841   0.793   7.506  10.123  0.1128  0.7396  0.7262
  623MOL0     C85842   0.911   7.482  10.052 -0.6924 -0.1422  0.4745
  623MOL0     C85843   1.006   7.386  10.100  0.2308  0.9998  0.6555
  623MOL0     O85844   1.115   7.355  10.030  0.3011  1.1194  0.0869
  623MOL0     C85845   1.147   7.212  10.018  0.3068 -0.7081  0.2604
  623MOL0     C85846   1.206   7.156   9.877 -0.1270  0.1904  0.1613
  623MOL0     C85847   1.347   7.215   9.861  0.4571 -0.8674 -0.1114
  623MOL0     C85848   1.408   7.196   9.721 -0.7011  0.2121  0.3991
  623MOL0     C85849   1.545   7.264   9.720  0.2980  0.1499  0.3480
  623MOL0     C85850   1.628   7.231   9.597  0.2316 -0.0745 -1.3697
  623MOL0     C85851   1.590   7.298   9.475  0.0605 -0.9238  0.4928
  623MOL0     C85852   1.557   7.450   9.491  0.1984 -0.7237  0.6624
  623MOL0     N85853   1.615   7.517   9.377 -1.3188 -0.0151  0.5280
  623MOL0     C85854   1.739   7.540   9.370 -0.8651 -0.1256  0.4515
  623MOL0     C85855   1.756   7.628   9.270  1.1824  0.0922 -0.2666
  623MOL0     C85856   1.872   7.694   9.220 -1.3727 -0.1399 -0.0424
  623MOL0     C85857   2.006   7.699   9.298  0.4409 -0.4337 -0.0679
  623MOL0     C85858   1.988   7.787   9.432 -0.8301  0.7183  1.0005
  623MOL0     C85859   2.117   7.815   9.520  0.1489 -0.8393 -0.1256
  623MOL0     O85860   2.196   7.705   9.570  0.0435 -0.1854  0.1127
  623MOL0     C85861   2.156   7.635   9.682 -0.0214 -0.2522  0.2942
  623MOL0     C85862   2.035   7.650   9.741  0.3625 -0.1630  0.4310
  623MOL0     C85863   1.989   7.563   9.840  0.0473  1.5636  0.0461
  623MOL0     C85864   1.866   7.595   9.915  0.9684  0.0905  0.0924
  623MOL0     C85865   2.069   7.458   9.869 -0.9421  0.7119  0.7978
  623MOL0     C85866   2.026   7.364   9.969 -0.4146  0.4204  0.0423
  623MOL0     O85867   2.119   7.326  10.056 -0.1666 -0.3418 -0.3100
  623MOL0     C85868   2.090   7.227  10.151 -0.6929  0.9481  1.2258
  623MOL0     C85869   2.190   7.127  10.174 -0.1643  0.1156  0.4778
  623MOL0     C85870   2.166   7.020  10.256 -0.2268 -0.4684  0.5398
  623MOL0     C85871   2.045   7.004  10.316  0.6002  0.5929 -0.1231
  623MOL0     O85872   2.017   6.889  10.386  0.0845  0.2794 -0.2166
  623MOL0     C85873   1.878   6.841  10.397  0.8348 -0.2550  0.5671
  623MOL0     C85874   1.889   6.700  10.336 -0.7284  0.0019 -0.7515
  623MOL0     C85875   1.766   6.611  10.355  0.5529  0.1045  0.5131
  623MOL0     C85876   1.707   6.584  10.215  0.8999  0.6120 -0.4542
  623MOL0     C85877   1.563   6.525  10.207 -0.6575  0.0367  0.0638
  623MOL0     C85878   1.533   6.474  10.062  0.2823 -0.0173  0.0122
  623MOL0     C85879   1.390   6.459  10.028 -0.6397  0.1121  0.0320
  623MOL0     C85880   1.378   6.407   9.881  0.6742 -0.7234  0.4087
  623MOL0    Cl85881   1.247   6.477   9.779  0.3399  0.1927  0.6110
  623MOL0     C85882   1.951   7.105  10.306 -0.1121 -0.0393  0.1617
  623MOL0     C85883   1.972   7.219  10.226  0.4844 -0.2509 -0.5440
  623MOL0     O85884   1.917   7.304   9.951 -0.7567 -0.5838  0.2258
  623MOL0     C85885   2.190   7.439   9.805  0.8298  0.8987  0.3883
  623MOL0     C85886   2.236   7.531   9.710 -0.8114  0.3097 -0.1947
  623MOL0     N85887   1.632   7.658   9.220  0.4862  0.0015 -0.2704
  623MOL0     N85888   1.547   7.610   9.299  0.0221 -0.2414  0.8162
  623MOL0     C85889   0.982   7.320  10.223  0.6016  0.5485 -0.8202
  623MOL0     C85890   0.864   7.346  10.296 -0.0490 -0.2740  0.5126
  623MOL0     C85891   0.461   7.619  10.368 -0.0706 -1.1838  0.1061
  623MOL0     C85892   0.431   7.755  10.397 -0.6965  0.4793 -0.6178
  623MOL0     C85893   0.301   7.815  10.393 -0.0234 -0.3836 -0.1258
  623MOL0     C85894   0.200   7.726  10.346  0.6841  0.2676  0.2958
  623MOL0     O85895   0.072   7.772  10.323  0.1497  0.3263 -0.6487
  623MOL0     C85896   0.031   7.898  10.256  0.5497  0.4080 -0.2728
  623MOL0     C85897  -0.081   7.877  10.149  0.3581  0.0462  0.0149
  623MOL0     C85898  -0.225   7.848  10.196 -0.3666 -0.0264 -0.7352
  623MOL0     C85899  -0.304   7.751  10.095  0.5584 -0.8301 -0.5721
  623MOL0     C85900  -0.362   7.816   9.981 -0.9535 -0.1850  0.6988
  623MOL0     C85901  -0.399   7.870   9.880  0.2804 -0.0455 -0.0417
  623MOL0     C85902   0.222   7.596  10.310 -1.3261  0.9409 -0.5209
  623MOL0     C85903   0.353   7.539  10.319  0.5053  0.1764 -0.1974
  623MOL0     C85904   0.362   7.392  10.271  0.2358  0.0640 -0.3299
  623MOL0     H85905   0.716   7.571  10.082  0.1971  0.3863 -0.0185
  623MOL0     H85906   0.922   7.531   9.956  0.3955 -0.1729  0.5708
  623MOL0     H85907   1.058   7.149  10.025  0.5194 -1.1459 -0.7324
  623MOL0     H85908   1.216   7.187  10.099  0.3736  1.4776  0.9419
  623MOL0     H85909   1.222   7.048   9.882 -1.1388 -0.0281 -0.7819
  623MOL0     H85910   1.145   7.194   9.794 -0.3157 -2.6523 -1.1246
  623MOL0     H85911   1.340   7.324   9.872  2.5364 -0.4227 -2.3329
  623MOL0     H85912   1.422   7.184   9.934  5.0580  1.1900 -3.4739
  623MOL0     H85913   1.434   7.090   9.713 -0.3292  0.2737  0.7620
  623MOL0     H85914   1.347   7.239   9.641 -0.5756 -1.9358 -0.9155
  623MOL0     H85915   1.605   7.245   9.810  1.2706 -2.3041 -0.7303
  623MOL0     H85916   1.520   7.370   9.712  0.7501  0.1107 -2.9873
  623MOL0     H85917   1.720   7.275   9.634 -2.0782  2.0327  2.5727
  623MOL0     H85918   1.645   7.126   9.571  2.8264  0.5883 -2.6190
  623MOL0     H85919   1.501   7.256   9.427 -0.7812  0.6600  0.6036
  623MOL0     H85920   1.673   7.298   9.403 -0.5884  0.0352 -0.2927
  623MOL0     H85921   1.448   7.458   9.485  0.3774  1.3010 -2.1252
  623MOL0     H85922   1.596   7.484   9.587 -2.2993  0.7222  1.2598
  623MOL0     H85923   1.820   7.501   9.431 -0.8419 -1.1592 -0.2159
  623MOL0     H85924   1.846   7.797   9.195 -2.2069 -0.5270 -0.8050
  623MOL0     H85925   1.903   7.639   9.131  2.1471  2.6609 -0.7977
  623MOL0     H85926   2.042   7.601   9.332 -1.8481 -0.3297  3.1330
  623MOL0     H85927   2.074   7.749   9.229 -2.8604  2.4633 -1.5295
  623MOL0     H85928   1.952   7.887   9.406 -0.2453  0.6880  0.0123
  623MOL0     H85929   1.919   7.728   9.493 -0.5560 -0.4709  0.2027
  623MOL0     H85930   2.182   7.885   9.467 -1.6429  3.1732  2.4628
  623MOL0     H85931   2.088   7.882   9.602  1.8820  0.3969 -0.4627
  623MOL0     H85932   1.965   7.731   9.724  0.6287 -0.4241 -2.5279
  623MOL0     H85933   1.798   7.510   9.899  3.2158 -2.0050  0.9469
  623MOL0     H85934   1.804   7.675   9.876  1.4069 -1.0656 -3.3377
  623MOL0     H85935   1.887   7.605  10.021 -0.0662  0.5750  0.2652
  623MOL0     H85936   2.282   7.131  10.117  0.9263  2.7474  2.2619
  623MOL0     H85937   2.240   6.946  10.288  0.2319  0.2428  1.1429
  623MOL0     H85938   1.855   6.839  10.504  3.0710  1.7085  1.1865
  623MOL0     H85939   1.805   6.898  10.339  2.9781  0.5606 -1.4858
  623MOL0     H85940   1.901   6.702  10.227 -4.0612 -0.5369 -1.2297
  623MOL0     H85941   1.972   6.654  10.389 -0.5770  1.0097 -0.0928
  623MOL0     H85942   1.696   6.673  10.411 -2.2028 -3.0074  0.8027
  623MOL0     H85943   1.788   6.524  10.418 -1.5277  0.0613  1.2390
  623MOL0     H85944   1.783   6.525  10.162  0.7552  0.0971 -0.1030
  623MOL0     H85945   1.704   6.681  10.164  1.8751  1.7612  1.5577
  623MOL0     H85946   1.568   6.434  10.268 -0.2103 -0.4082 -0.6076
  623MOL0     H85947   1.471   6.571  10.241 -3.2922 -2.3674 -3.1012
  623MOL0     H85948   1.591   6.384  10.041  1.3478  1.2022 -2.8311
  623MOL0     H85949   1.571   6.541   9.984 -0.3925  0.8989  0.4470
  623MOL0     H85950   1.318   6.539  10.043  0.8731  1.3932  0.7335
  623MOL0     H85951   1.346   6.381  10.091  1.0852  0.3352  1.5846
  623MOL0     H85952   1.354   6.301   9.891 -1.7895 -0.4204 -1.3827
  623MOL0     H85953   1.469   6.427   9.824 -0.9456  1.0567 -1.7302
  623MOL0     H85954   1.865   7.097  10.371  2.1959  0.2451  3.5200
  623MOL0     H85955   1.897   7.297  10.215  0.3897  0.2176  2.5354
  623MOL0     H85956   2.246   7.347   9.816  0.3529  0.7146  1.3925
  623MOL0     H85957   2.319   7.520   9.642 -1.7030  3.0066 -1.8676
  623MOL0     H85958   1.061   7.252  10.253 -0.0835 -0.5090 -1.3686
  623MOL0     H85959   0.834   7.299  10.389 -3.5256  0.7531  0.0583
  623MOL0     H85960   0.501   7.834  10.422  0.9252 -1.0494 -0.1170
  623MOL0     H85961   0.296   7.920  10.420 -1.1783 -0.3852 -0.2531
  623MOL0     H85962   0.006   7.979  10.325 -2.3945  0.6781 -1.5178
  623MOL0     H85963   0.122   7.934  10.205  1.1854 -0.0763  0.4936
  623MOL0     H85964  -0.045   7.797  10.085  2.5920  1.3154 -0.4161
  623MOL0     H85965  -0.087   7.971  10.092 -3.4561  0.0933  0.2268
  623MOL0     H85966  -0.221   7.804  10.296  4.1492  0.7988 -0.3687
  623MOL0     H85967  -0.275   7.940  10.226  0.4248  0.1971 -0.0690
  623MOL0     H85968  -0.390   7.719  10.155  0.4595 -0.1669 -0.3441
  623MOL0     H85969  -0.239   7.669  10.063  1.7324  0.5560 -1.8687
  623MOL0     H85970  -0.432   7.909   9.785 -0.6670 -0.0526  0.2727
  623MOL0     H85971   0.142   7.530  10.278 -0.1296  1.0297 -4.2600
  623MOL0     H85972   0.270   7.337  10.290 -0.7612  1.6674 -0.3793
  623MOL0     H85973   0.400   7.377  10.169  3.5673 -0.4188  0.8513
  623MOL0     H85974   0.442   7.343  10.328  0.6050  1.6695  0.5764
  624MOL0     O85975   3.872   4.747   9.641 -0.3273 -0.1233 -0.3970
  624MOL0     C85976   3.746   4.752   9.660 -0.8778  0.5660 -0.5181
  624MOL0     O85977   3.658   4.687   9.585 -0.1765  0.7685 -0.3181
  624MOL0     C85978   3.699   4.613   9.474  0.3360  0.0377  0.7122
  624MOL0     C85979   3.800   4.514   9.471 -0.5321  0.6424 -0.2575
  624MOL0     C85980   3.839   4.439   9.350  0.1432 -0.2246 -0.5395
  624MOL0     C85981   3.755   4.459   9.234  0.4458  0.1526  0.0614
  624MOL0     O85982   3.763   4.385   9.116 -0.6373  0.5574  0.1923
  624MOL0     C85983   3.878   4.302   9.102 -0.7108  0.5037 -0.2288
  624MOL0     C85984   3.885   4.273   8.945  0.4416 -0.0716 -0.0604
  624MOL0     C85985   3.912   4.400   8.863 -0.2651  1.4679  0.0517
  624MOL0     C85986   4.063   4.431   8.874 -0.1726 -0.0299 -1.1703
  624MOL0     C85987   4.083   4.582   8.876 -0.9752 -0.5563 -0.2149
  624MOL0     C85988   4.060   4.653   9.012  0.1414  0.6514  0.1172
  624MOL0     C85989   4.129   4.786   9.014  0.1859 -1.2358  0.0021
  624MOL0     C85990   4.101   4.883   8.902 -1.3979 -0.4869  0.0582
  624MOL0     N85991   4.174   5.000   8.921 -1.6249 -0.7171 -0.1408
  624MOL0     C85992   4.313   5.013   8.891  0.9431  0.0828 -0.6198
  624MOL0     C85993   4.352   5.140   8.915  1.0601  0.6641 -0.8320
  624MOL0     C85994   4.482   5.200   8.870 -0.3480 -0.2096 -0.4577
  624MOL0     C85995   4.595   5.150   8.967 -0.9700 -0.1003  0.1390
  624MOL0     C85996   4.661   5.024   8.908  0.3729 -0.4046 -0.1033
  624MOL0     C85997   4.791   4.980   8.961 -0.7352 -1.4310  0.6773
  624MOL0     O85998   4.772   4.951   9.104  1.0121  1.2271 -1.0856
  624MOL0     C85999   4.863   4.876   9.173 -0.4809  0.4542  0.7297
  624MOL0     C86000   4.828   4.831   9.297  0.6097 -0.3032 -0.1443
  624MOL0     C86001   4.906   4.738   9.367  0.5333 -0.3720  1.2625
  624MOL0     C86002   4.838   4.689   9.499 -0.3644 -0.5206 -0.2899
  624MOL0     C86003   5.025   4.695   9.303 -0.3583 -0.6709  0.9806
  624MOL0     C86004   5.132   4.606   9.373 -0.5640  0.1057  0.5464
  624MOL0     O86005   5.239   4.561   9.289  0.7108  0.5984  0.0106
  624MOL0     C86006   5.353   4.530   9.362 -0.4348 -0.1509  0.4207
  624MOL0     C86007   5.460   4.613   9.332  0.3386  0.1843 -0.0720
  624MOL0     C86008   5.586   4.586   9.388  0.3471 -0.0849 -0.6473
  624MOL0     C86009   5.608   4.474   9.476 -0.1257  0.3483 -0.2839
  624MOL0     O86010   5.740   4.457   9.507  0.3289 -0.7310 -0.0150
  624MOL0     C86011   5.761   4.505   9.644 -0.2679  0.2506 -0.2366
  624MOL0     C86012   5.908   4.509   9.664  0.9917 -0.2981  0.3844
  624MOL0     C86013   5.984   4.390   9.630 -0.0906  0.3056  0.3513
  624MOL0     C86014   6.133   4.399   9.631  0.5178  0.8062 -0.1848
  624MOL0     C86015   6.197   4.426   9.772  0.4309  0.0806  0.7590
  624MOL0     C86016   6.349   4.402   9.777  0.0467 -0.7298 -0.3942
  624MOL0     C86017   6.432   4.511   9.718  0.2018  0.0551  0.3578
  624MOL0     C86018   6.575   4.455   9.724  0.5522  0.0123  1.0204
  624MOL0    Cl86019   6.697   4.583   9.724 -0.1633 -0.0308  0.3327
  624MOL0     C86020   5.495   4.392   9.506 -0.0144  0.1085  0.5948
  624MOL0     C86021   5.370   4.426   9.458 -0.0728 -0.0298  0.3953
  624MOL0     O86022   5.135   4.591   9.493 -0.1731  0.1699 -0.4862
  624MOL0     C86023   5.066   4.755   9.185  0.4759  0.0239  0.2447
  624MOL0     C86024   4.992   4.846   9.121  0.4113 -0.1425  0.1473
  624MOL0     N86025   4.238   5.204   8.971 -0.5388 -0.0529  0.4609
  624MOL0     N86026   4.138   5.124   8.973  0.3552 -0.2909 -0.0291
  624MOL0     C86027   3.657   4.559   9.235 -0.7559  0.5991 -0.6589
  624MOL0     C86028   3.619   4.626   9.352 -0.5820 -1.0430  0.5008
  624MOL0     C86029   3.675   4.837   9.773  0.1793 -0.1312  0.8719
  624MOL0     C86030   3.689   4.974   9.752  0.4562 -0.4549  0.1281
  624MOL0     C86031   3.649   5.061   9.849  0.0469 -0.8087  0.2706
  624MOL0     C86032   3.570   5.018   9.958 -0.0108 -0.1249  0.0827
  624MOL0     O86033   3.521   5.097  10.056  0.1958  0.0476 -0.3918
  624MOL0     C86034   3.456   5.216  10.029  0.2874  0.3719 -0.8359
  624MOL0     C86035   3.314   5.227  10.079  0.2774 -0.3797 -0.2272
  624MOL0     C86036   3.204   5.176   9.985 -0.1851  0.0306 -0.1620
  624MOL0     C86037   3.139   5.276   9.894  0.9865 -0.5808  0.1329
  624MOL0     C86038   3.011   5.228   9.823  0.3420 -1.0732 -0.3617
  624MOL0     C86039   2.913   5.174   9.788  0.3169  0.0590 -0.1042
  624MOL0     C86040   3.545   4.881   9.972 -0.1007 -0.0101 -0.5318
  624MOL0     C86041   3.592   4.791   9.872  0.2407 -0.1955  0.4876
  624MOL0     C86042   3.571   4.642   9.876 -0.0178 -0.2418  0.1839
  624MOL0     H86043   3.857   4.501   9.563 -1.8712  0.9552  0.6391
  624MOL0     H86044   3.920   4.369   9.364  0.6785  0.5238  0.2045
  624MOL0     H86045   3.874   4.204   9.148  2.6856  0.7758  0.9075
  624MOL0     H86046   3.966   4.349   9.147 -0.4374 -0.3900  0.1971
  624MOL0     H86047   3.951   4.191   8.915  1.2367  0.4854  0.1113
  624MOL0     H86048   3.789   4.233   8.911  0.8549  0.1379 -1.5927
  624MOL0     H86049   3.879   4.395   8.760 -1.7916  1.6559  0.5145
  624MOL0     H86050   3.850   4.478   8.908 -3.0441 -1.8115  2.4703
  624MOL0     H86051   4.107   4.386   8.963 -1.1723 -1.3765 -1.3317
  624MOL0     H86052   4.110   4.383   8.787 -0.1380 -3.5733  0.6164
  624MOL0     H86053   4.024   4.633   8.799  3.2438  1.6115 -2.4177
  624MOL0     H86054   4.186   4.597   8.842 -0.5977  3.9096  2.1424
  624MOL0     H86055   3.952   4.661   9.022 -0.0418 -1.8627  0.7540
  624MOL0     H86056   4.097   4.589   9.093 -1.7597  0.4406  0.8502
  624MOL0     H86057   4.235   4.761   9.024  0.0346 -1.9247 -0.0143
  624MOL0     H86058   4.102   4.843   9.103  1.8924 -1.0349  0.4315
  624MOL0     H86059   4.123   4.846   8.801  0.1412  0.3653  0.0441
  624MOL0     H86060   3.996   4.907   8.886 -0.8135  2.1448 -0.4115
  624MOL0     H86061   4.376   4.933   8.854  1.9327 -0.0777  1.2988
  624MOL0     H86062   4.457   5.305   8.888 -1.1677 -0.6278  1.0155
  624MOL0     H86063   4.494   5.176   8.764 -1.2516  2.5621 -1.2749
  624MOL0     H86064   4.671   5.229   8.962 -1.1317 -0.0214 -1.6437
  624MOL0     H86065   4.572   5.134   9.073 -0.3416  1.6687  0.5782
  624MOL0     H86066   4.588   4.945   8.927 -1.6898  1.5057  0.3483
  624MOL0     H86067   4.679   5.037   8.801  1.4948 -2.1252 -0.1614
  624MOL0     H86068   4.831   4.895   8.906  1.6902  0.2101 -0.2407
  624MOL0     H86069   4.863   5.060   8.943 -1.1825 -1.4035 -1.2233
  624MOL0     H86070   4.733   4.862   9.340  1.3421  0.4712  0.9594
  624MOL0     H86071   4.895   4.620   9.563  1.3165  0.4296 -0.6958
  624MOL0     H86072   4.741   4.645   9.474 -1.2329  1.6704 -1.0203
  624MOL0     H86073   4.818   4.777   9.561  3.7944 -1.0428  2.2038
  624MOL0     H86074   5.450   4.700   9.268  3.7766  1.5321  0.9678
  624MOL0     H86075   5.664   4.653   9.353  0.3426 -0.2517 -0.9725
  624MOL0     H86076   5.723   4.606   9.658  0.1250  0.4998 -0.9117
  624MOL0     H86077   5.716   4.443   9.722 -0.8855  2.4151  1.2052
  624MOL0     H86078   5.956   4.583   9.599  3.5083  0.8110  3.2404
  624MOL0     H86079   5.930   4.552   9.762  4.0869 -0.2223 -0.2233
  624MOL0     H86080   5.966   4.361   9.526  2.1806  0.6989 -0.2168
  624MOL0     H86081   5.949   4.311   9.697  1.4836 -0.4951  0.2927
  624MOL0     H86082   6.170   4.468   9.554 -0.8608  1.2831 -0.4373
  624MOL0     H86083   6.165   4.299   9.600 -0.9017  0.0938  0.6033
  624MOL0     H86084   6.175   4.529   9.801 -0.2551 -0.5855  2.7841
  624MOL0     H86085   6.163   4.354   9.847  1.2130 -0.5044  0.5683
  624MOL0     H86086   6.355   4.306   9.724  0.4784  0.4991 -2.6704
  624MOL0     H86087   6.379   4.393   9.882  2.7066 -2.8199 -1.1921
  624MOL0     H86088   6.424   4.608   9.769  0.5504  2.0137 -2.9908
  624MOL0     H86089   6.400   4.530   9.615 -0.9541 -2.4085  0.1951
  624MOL0     H86090   6.597   4.408   9.628  0.2928  3.0707 -0.6410
  624MOL0     H86091   6.607   4.383   9.800  0.8681 -0.0198  0.8586
  624MOL0     H86092   5.509   4.306   9.571 -2.1110 -0.8215 -0.0825
  624MOL0     H86093   5.279   4.375   9.487 -0.3656  0.2294 -0.0666
  624MOL0     H86094   5.157   4.730   9.132  0.9598 -0.1182  1.1146
  624MOL0     H86095   5.031   4.890   9.031  2.7944  2.8176  2.4298
  624MOL0     H86096   3.585   4.570   9.155 -2.2432 -0.3189  0.4818
  624MOL0     H86097   3.545   4.704   9.339 -2.1083 -2.6332 -0.7850
  624MOL0     H86098   3.749   5.010   9.669  1.2853  1.4410  1.4844
  624MOL0     H86099   3.686   5.162   9.837  1.1900 -1.4017 -1.7093
  624MOL0     H86100   3.514   5.293  10.080 -1.9095  1.1579  0.6164
  624MOL0     H86101   3.456   5.234   9.922 -2.1607  1.0356 -0.7955
  624MOL0     H86102   3.286   5.327  10.113 -0.1915 -1.3627  2.5939
  624MOL0     H86103   3.310   5.168  10.171  4.2276  2.5434  2.1572
  624MOL0     H86104   3.234   5.084   9.935  0.5331 -0.7939  1.6649
  624MOL0     H86105   3.130   5.132  10.053  1.8099 -1.0162  1.4634
  624MOL0     H86106   3.213   5.306   9.819  1.7800 -1.9798  0.3154
  624MOL0     H86107   3.112   5.365   9.951  1.4302  0.2257 -0.8789
  624MOL0     H86108   2.827   5.114   9.762  0.1600  0.0698  0.3765
  624MOL0     H86109   3.502   4.838  10.061 -1.6271 -0.0661 -1.2713
  624MOL0     H86110   3.664   4.588   9.852 -2.0866 -4.5401  0.8743
  624MOL0     H86111   3.533   4.617   9.975  1.2805 -0.8497  0.5619
  624MOL0     H86112   3.496   4.604   9.806  1.4993  0.5334 -1.9883
  625MOL0     O86113   1.478   8.052  10.154  0.2432  0.4831 -0.0716
  625MOL0     C86114   1.430   8.040  10.265  0.2504 -0.0335 -1.4631
  625MOL0     O86115   1.312   8.103  10.304  0.6536 -0.1332  0.6632
  625MOL0     C86116   1.279   8.213  10.238 -0.1287 -0.5960 -0.6836
  625MOL0     C86117   1.148   8.232  10.202  0.0913 -0.2292  0.1396
  625MOL0     C86118   1.107   8.358  10.146 -0.8471 -0.1015 -0.3136
  625MOL0     C86119   1.199   8.455  10.115  0.8376 -0.8378  0.3568
  625MOL0     O86120   1.159   8.571  10.047 -0.4845  0.2542  0.3203
  625MOL0     C86121   1.256   8.681  10.018  0.3563 -0.6309 -1.0454
  625MOL0     C86122   1.196   8.800   9.945  0.8286 -0.1274  0.1462
  625MOL0     C86123   1.084   8.754   9.854  0.2075 -0.7851 -0.1062
  625MOL0     C86124   1.040   8.879   9.776  0.3944  1.4526 -0.1649
  625MOL0     C86125   0.997   8.831   9.636 -0.3577  0.4171 -0.3453
  625MOL0     C86126   0.926   8.943   9.553 -0.3654  0.2308 -0.6040
  625MOL0     C86127   1.003   9.068   9.506  0.2739 -0.4119  0.0392
  625MOL0     C86128   0.913   9.169   9.433 -0.4152 -0.1197 -0.6537
  625MOL0     N86129   0.864   9.114   9.308 -0.0671 -0.3464 -0.5242
  625MOL0     C86130   0.738   9.139   9.258 -0.6285  0.3842 -0.0241
  625MOL0     C86131   0.747   9.080   9.138  0.8120 -0.7229 -0.1527
  625MOL0     C86132   0.623   9.069   9.058 -0.6472 -0.3316 -0.1772
  625MOL0     C86133   0.552   8.930   9.102 -0.4639  0.0979  0.0664
  625MOL0     C86134   0.421   8.886   9.028 -0.0958  0.3379 -0.7389
  625MOL0     C86135   0.308   8.984   9.046  0.9711  0.4638  0.5943
  625MOL0     O86136   0.239   8.949   9.164  0.7060 -0.4047 -0.1358
  625MOL0     C86137   0.118   9.020   9.182  0.1344  0.3117 -0.4540
  625MOL0     C86138   0.035   8.962   9.286 -0.6776  0.4426 -0.0339
  625MOL0     C86139  -0.084   9.020   9.328 -0.3659 -1.1520 -0.1502
  625MOL0     C86140  -0.150   8.951   9.446 -0.7156 -1.3298 -0.0644
  625MOL0     C86141  -0.109   9.152   9.287  0.6634  0.2958  1.0239
  625MOL0     C86142  -0.224   9.226   9.339  0.6844 -0.2196  0.7478
  625MOL0     O86143  -0.346   9.162   9.330 -0.1080 -0.5744  0.4997
  625MOL0     C86144  -0.459   9.200   9.394  0.8583  0.2736  0.2795
  625MOL0     C86145  -0.589   9.160   9.342 -0.7570  0.3944  0.3842
  625MOL0     C86146  -0.714   9.195   9.398 -0.2003  0.7214  0.1311
  625MOL0     C86147  -0.708   9.286   9.510 -0.1324 -0.2198 -0.1943
  625MOL0     O86148  -0.825   9.343   9.564 -0.3733 -1.0158  0.4564
  625MOL0     C86149  -0.838   9.485   9.565  0.1929  0.2940 -0.0400
  625MOL0     C86150  -0.969   9.531   9.640  0.2170 -0.0846 -1.0960
  625MOL0     C86151  -1.011   9.674   9.585 -0.2196 -0.2850 -0.6270
  625MOL0     C86152  -1.143   9.718   9.639 -0.0696  0.2836  0.4355
  625MOL0     C86153  -1.164   9.709   9.790  0.7031  0.2288 -0.0993
  625MOL0     C86154  -1.072   9.798   9.869  0.5622  0.0815 -0.6272
  625MOL0     C86155  -1.077   9.764  10.019  0.9163  0.8010  0.3336
  625MOL0     C86156  -1.004   9.877  10.086 -0.6990 -0.7837 -0.0650
  625MOL0    Cl86157  -1.103  10.031  10.103 -0.2719  0.0153  0.5379
  625MOL0     C86158  -0.582   9.327   9.552  0.0944  0.0319 -0.1383
  625MOL0     C86159  -0.465   9.289   9.502 -0.1354 -0.7750  0.0106
  625MOL0     O86160  -0.202   9.335   9.379  0.2242 -0.2321  0.6962
  625MOL0     C86161  -0.040   9.202   9.171 -0.3981 -0.4958  0.6520
  625MOL0     C86162   0.073   9.133   9.118  0.1877 -0.2186  0.0887
  625MOL0     N86163   0.878   9.033   9.116  0.4844  0.4860  0.6949
  625MOL0     N86164   0.943   9.055   9.220 -0.1565  0.2021 -0.7714
  625MOL0     C86165   1.329   8.434  10.153  0.0011 -0.7850  0.9718
  625MOL0     C86166   1.373   8.319  10.218 -0.1740 -0.5340  0.1018
  625MOL0     C86167   1.476   7.935  10.358  0.6519  1.0484 -0.3482
  625MOL0     C86168   1.377   7.857  10.430  0.1622 -0.0857 -0.0947
  625MOL0     C86169   1.409   7.759  10.527 -0.4216  0.0373  0.2804
  625MOL0     C86170   1.546   7.730  10.545 -0.4427  0.3678 -0.1516
  625MOL0     O86171   1.604   7.646  10.639 -0.6774 -0.3042 -0.3167
  625MOL0     C86172   1.513   7.572  10.727  0.2859  0.1553  0.6253
  625MOL0     C86173   1.584   7.448  10.788 -0.0390 -0.4773  0.6764
  625MOL0     C86174   1.568   7.328  10.686  0.0388  0.0129 -0.0610
  625MOL0     C86175   1.619   7.203  10.754 -0.6598 -0.2007  1.0283
  625MOL0     C86176   1.609   7.080  10.668  0.2833 -0.0877 -0.8906
  625MOL0     C86177   1.612   6.985  10.596  0.3882  0.1956 -0.1595
  625MOL0     C86178   1.645   7.799  10.474  0.1333  0.3674 -1.3229
  625MOL0     C86179   1.615   7.902  10.382 -0.9491 -0.0425  0.3290
  625MOL0     C86180   1.734   7.970  10.327  0.1816  0.0241  0.3364
  625MOL0     H86181   1.081   8.148  10.218  1.6159 -1.6568 -0.6809
  625MOL0     H86182   1.003   8.375  10.117 -1.0515  1.2672  1.1108
  625MOL0     H86183   1.349   8.649   9.970  1.2463 -2.7481  1.7991
  625MOL0     H86184   1.290   8.714  10.117 -0.6767 -0.4276 -0.7475
  625MOL0     H86185   1.169   8.868  10.026 -1.4471 -2.4471  1.4967
  625MOL0     H86186   1.274   8.852   9.888  0.5334  1.4040  1.0915
  625MOL0     H86187   1.125   8.685   9.780 -2.9834 -1.8739 -1.0182
  625MOL0     H86188   1.007   8.692   9.902  1.3193 -1.5998  0.6734
  625MOL0     H86189   0.966   8.937   9.832 -1.6848 -2.5686  1.5883
  625MOL0     H86190   1.122   8.950   9.759 -0.4286  2.9038  1.5870
  625MOL0     H86191   0.924   8.752   9.657 -1.0537  1.4956  1.5457
  625MOL0     H86192   1.082   8.782   9.588  0.5153 -0.2201  1.7794
  625MOL0     H86193   0.881   8.901   9.463  0.5948  0.4343 -1.2016
  625MOL0     H86194   0.842   8.978   9.614  0.5656  0.1344  0.7822
  625MOL0     H86195   1.093   9.042   9.448  2.8536  1.6231  2.8129
  625MOL0     H86196   1.049   9.123   9.589  1.1472 -0.9740 -0.0555
  625MOL0     H86197   0.828   9.191   9.499  0.0056  1.0839 -0.4846
  625MOL0     H86198   0.952   9.268   9.409  0.6996 -1.0189 -2.7822
  625MOL0     H86199   0.648   9.174   9.309 -0.6441  1.5832 -0.8309
  625MOL0     H86200   0.639   9.059   8.950 -2.1740 -0.3723 -0.4127
  625MOL0     H86201   0.555   9.151   9.082 -1.0549 -0.3470 -1.2083
  625MOL0     H86202   0.633   8.858   9.089  0.7294  1.5337 -0.8439
  625MOL0     H86203   0.544   8.930   9.211  0.5110 -0.0605  0.1456
  625MOL0     H86204   0.444   8.894   8.922 -1.1247  1.1081 -0.9141
  625MOL0     H86205   0.395   8.781   9.045 -0.7300  0.9225  2.5204
  625MOL0     H86206   0.341   9.088   9.043 -0.8720  1.1216  1.5239
  625MOL0     H86207   0.240   8.969   8.962  0.1663  1.2950  1.0788
  625MOL0     H86208   0.075   8.871   9.330  0.1935  1.3473  1.1115
  625MOL0     H86209  -0.182   8.848   9.430 -3.1487 -1.1089  2.6076
  625MOL0     H86210  -0.237   9.002   9.488 -0.6239 -0.9971 -0.2739
  625MOL0     H86211  -0.073   8.945   9.523  0.4720 -1.6454 -1.2328
  625MOL0     H86212  -0.581   9.093   9.257  1.3373 -1.2049  1.7097
  625MOL0     H86213  -0.809   9.154   9.366 -0.0278 -1.4651  2.1013
  625MOL0     H86214  -0.750   9.529   9.612  1.1420 -0.5760 -0.9193
  625MOL0     H86215  -0.841   9.515   9.459 -1.0816 -1.5594 -0.5796
  625MOL0     H86216  -1.052   9.463   9.621  0.0948 -0.9877  2.1754
  625MOL0     H86217  -0.958   9.528   9.749  0.0934 -1.5639 -1.0961
  625MOL0     H86218  -1.023   9.671   9.476  2.2884  0.9310 -1.0080
  625MOL0     H86219  -0.933   9.745   9.610 -1.4108  0.6831  0.4877
  625MOL0     H86220  -1.224   9.655   9.602 -1.5255  2.1951  0.2297
  625MOL0     H86221  -1.160   9.822   9.612 -0.9120 -0.0582 -0.4076
  625MOL0     H86222  -1.270   9.729   9.804 -0.4130 -2.5163 -3.1434
  625MOL0     H86223  -1.151   9.605   9.819 -1.5133  0.8206  3.5397
  625MOL0     H86224  -1.086   9.905   9.847  0.7531  0.7754  2.1522
  625MOL0     H86225  -0.970   9.770   9.843  0.0309 -1.7642 -0.8470
  625MOL0     H86226  -1.026   9.667  10.028  3.7163  2.0791 -0.5911
  625MOL0     H86227  -1.177   9.752  10.061  0.7389 -4.3702 -0.8190
  625MOL0     H86228  -0.908   9.899  10.038  1.0065 -1.7031  2.6442
  625MOL0     H86229  -0.972   9.845  10.186 -4.4155 -1.0519  1.1754
  625MOL0     H86230  -0.570   9.382   9.645 -0.4202 -0.9103  0.5086
  625MOL0     H86231  -0.375   9.327   9.550 -2.0418  1.4936  2.0691
  625MOL0     H86232  -0.063   9.301   9.133  1.5282 -0.4783 -0.6025
  625MOL0     H86233   0.134   9.173   9.037  0.3846 -0.8558 -0.0789
  625MOL0     H86234   1.415   8.495  10.127  0.5575 -1.5453  0.9963
  625MOL0     H86235   1.480   8.309  10.235  0.1276 -3.0835 -2.4577
  625MOL0     H86236   1.272   7.876  10.412 -0.0045 -1.6317 -0.9277
  625MOL0     H86237   1.324   7.720  10.583 -2.6964  0.5357 -2.5878
  625MOL0     H86238   1.455   7.632  10.798  1.7370  2.6115 -0.1461
  625MOL0     H86239   1.431   7.530  10.667  0.4385  0.1760  0.3992
  625MOL0     H86240   1.528   7.425  10.879 -3.7706  1.0798 -1.0029
  625MOL0     H86241   1.688   7.478  10.800  0.2226  0.0741 -2.3145
  625MOL0     H86242   1.465   7.312  10.653  0.1599  0.8216 -0.8921
  625MOL0     H86243   1.624   7.345  10.593 -0.7464  2.4023 -0.1641
  625MOL0     H86244   1.572   7.208  10.853 -2.2318 -0.6725  0.3415
  625MOL0     H86245   1.726   7.208  10.774 -0.6403 -1.8136  1.4820
  625MOL0     H86246   1.619   6.906  10.523  1.0541  0.1664 -0.0664
  625MOL0     H86247   1.745   7.760  10.489  0.0188 -0.4139 -2.4819
  625MOL0     H86248   1.809   8.005  10.398 -1.6789  0.2294  2.2832
  625MOL0     H86249   1.782   7.889  10.271 -4.0147 -3.2192  0.9720
  625MOL0     H86250   1.712   8.050  10.255  0.5260 -0.0348  0.1641
  626MOL0     O86251   4.349   7.550   1.681  0.2301  0.6476  0.3600
  626MOL0     C86252   4.266   7.597   1.767 -0.4387 -0.4575  0.4668
  626MOL0     O86253   4.207   7.538   1.869  0.6536  0.4222 -0.3901
  626MOL0     C86254   4.180   7.401   1.871  0.0337 -0.3048  0.0297
  626MOL0     C86255   4.207   7.316   1.765 -0.4193 -0.4915  0.1531
  626MOL0     C86256   4.163   7.182   1.774  0.0432  0.2343  0.0432
  626MOL0     C86257   4.097   7.137   1.888  0.8946 -0.5607  0.1860
  626MOL0     O86258   4.087   7.005   1.894  0.6685  0.6711 -0.0926
  626MOL0     C86259   3.991   6.940   1.985  0.0118 -0.3512  0.3707
  626MOL0     C86260   3.961   6.800   1.918 -0.0033 -1.3703 -0.3363
  626MOL0     C86261   4.065   6.706   1.970 -0.2194 -0.2084 -0.1192
  626MOL0     C86262   4.011   6.561   1.945  0.0470 -0.4053  0.2847
  626MOL0     C86263   4.112   6.449   1.960 -0.2713  0.0716 -0.3798
  626MOL0     C86264   4.227   6.446   1.853  0.0146 -0.1926  0.3650
  626MOL0     C86265   4.317   6.325   1.884  0.0073  0.1947  0.5260
  626MOL0     C86266   4.421   6.374   1.993 -0.0283  0.2671 -0.4503
  626MOL0     N86267   4.499   6.255   2.018 -0.0569 -0.1289  0.3387
  626MOL0     C86268   4.478   6.166   2.121 -0.5445  0.2684  0.4684
  626MOL0     C86269   4.567   6.067   2.097 -0.1493  0.3257  0.2585
  626MOL0     C86270   4.575   5.943   2.179  0.8591  0.0337 -0.6162
  626MOL0     C86271   4.649   5.827   2.106 -0.0847 -0.2919 -0.6072
  626MOL0     C86272   4.575   5.770   1.992  0.7874 -0.3595  0.1155
  626MOL0     C86273   4.660   5.673   1.909 -0.4802  0.0144 -0.2904
  626MOL0     O86274   4.571   5.608   1.812 -0.6906 -0.7936  0.3067
  626MOL0     C86275   4.584   5.478   1.774 -0.2618 -0.0463 -0.2217
  626MOL0     C86276   4.703   5.407   1.750  0.5284  0.4541 -0.0368
  626MOL0     C86277   4.696   5.276   1.693  0.0679  0.4629  0.2725
  626MOL0     C86278   4.827   5.202   1.684 -0.0415 -0.1225  0.6907
  626MOL0     C86279   4.572   5.215   1.660  0.6401  0.5366  0.0831
  626MOL0     C86280   4.540   5.082   1.592 -1.1421  0.3533  0.4015
  626MOL0     O86281   4.423   5.020   1.625 -0.5562 -0.0480  0.3820
  626MOL0     C86282   4.417   4.888   1.588  0.2001  0.4943 -0.2119
  626MOL0     C86283   4.492   4.793   1.651 -0.4607  0.7629 -1.1651
  626MOL0     C86284   4.470   4.656   1.641 -0.3943 -0.3714  0.1208
  626MOL0     C86285   4.380   4.605   1.550  0.7253 -0.0076  0.2597
  626MOL0     O86286   4.352   4.471   1.533  0.0448  0.3205 -0.3831
  626MOL0     C86287   4.406   4.377   1.628 -0.1759  0.3670  0.7735
  626MOL0     C86288   4.365   4.232   1.575  0.5783 -1.4869 -0.0123
  626MOL0     C86289   4.403   4.117   1.665  0.1330  1.1054 -0.2475
  626MOL0     C86290   4.554   4.085   1.636 -0.5289  0.4905 -0.6960
  626MOL0     C86291   4.586   3.949   1.715 -0.3200  0.1424  0.5125
  626MOL0     C86292   4.707   3.865   1.655  0.0638  0.4404 -0.2584
  626MOL0     C86293   4.842   3.942   1.684 -0.1080  0.0202 -0.2401
  626MOL0     C86294   4.901   3.910   1.814 -0.0346 -0.5287 -0.1564
  626MOL0    Cl86295   4.806   3.950   1.956  0.5337  0.0711 -0.3451
  626MOL0     C86296   4.305   4.705   1.471  0.0735 -0.7653 -0.5110
  626MOL0     C86297   4.328   4.842   1.484 -0.2011  0.5727 -0.7911
  626MOL0     O86298   4.616   5.047   1.500  0.5401  0.0817  0.4882
  626MOL0     C86299   4.454   5.273   1.702  0.5711 -0.6588  0.1783
  626MOL0     C86300   4.468   5.407   1.751  0.5182 -1.2646 -0.6741
  626MOL0     N86301   4.652   6.109   1.997  0.7885  0.1270  0.6158
  626MOL0     N86302   4.617   6.220   1.954  0.3712  0.5516 -0.0129
  626MOL0     C86303   4.056   7.230   1.984  0.0876  0.3040 -1.0794
  626MOL0     C86304   4.108   7.358   1.981 -0.3578 -0.2268 -0.6749
  626MOL0     C86305   4.231   7.741   1.757 -0.0679 -0.5515  0.7309
  626MOL0     C86306   4.177   7.806   1.874  0.0942 -0.0400 -0.3407
  626MOL0     C86307   4.148   7.939   1.874  0.4012  0.7686 -0.0669
  626MOL0     C86308   4.167   8.023   1.766  0.1945  0.1500 -0.8136
  626MOL0     O86309   4.129   8.155   1.779 -0.3753  0.7341  0.4912
  626MOL0     C86310   4.203   8.245   1.697  0.6843  0.1566 -0.6251
  626MOL0     C86311   4.103   8.339   1.615  0.4237  1.2705 -0.5859
  626MOL0     C86312   4.186   8.439   1.532 -0.0117  0.2119  0.1184
  626MOL0     C86313   4.094   8.557   1.488  0.1467 -0.5856 -0.4624
  626MOL0     C86314   4.023   8.533   1.359 -0.7776 -0.4714  0.0808
  626MOL0     C86315   3.956   8.501   1.262 -0.2641  0.9079  0.2524
  626MOL0     C86316   4.205   7.956   1.641  0.4362 -0.5709 -0.1622
  626MOL0     C86317   4.234   7.821   1.636 -0.2828  0.4607  0.0361
  626MOL0     C86318   4.282   7.773   1.505  0.0654  0.7154 -0.0626
  626MOL0     H86319   4.263   7.341   1.675  0.8811 -0.1249  1.0281
  626MOL0     H86320   4.196   7.119   1.691  1.5077  0.4357  0.4492
  626MOL0     H86321   3.897   6.995   1.979  1.0164  1.3546 -0.3521
  626MOL0     H86322   4.034   6.935   2.086  4.1244 -1.8784 -1.2446
  626MOL0     H86323   3.858   6.776   1.944 -0.8055  0.1116 -1.8830
  626MOL0     H86324   3.958   6.809   1.809  1.8718  0.7459 -0.2956
  626MOL0     H86325   4.166   6.731   1.935 -0.7252  0.5217 -1.0861
  626MOL0     H86326   4.063   6.714   2.079  2.2580  3.0856 -0.1473
  626MOL0     H86327   3.926   6.526   2.005  0.8507 -1.8690  0.6121
  626MOL0     H86328   3.980   6.561   1.840  1.2531  3.2544 -0.2300
  626MOL0     H86329   4.060   6.352   1.964 -0.5911  0.2637  3.7240
  626MOL0     H86330   4.155   6.457   2.060 -1.9205 -2.0973  0.5952
  626MOL0     H86331   4.193   6.429   1.751 -2.0055 -0.0357  0.9655
  626MOL0     H86332   4.290   6.535   1.862 -0.8955  0.6459 -1.0703
  626MOL0     H86333   4.380   6.291   1.801  1.3935 -2.6506  2.5978
  626MOL0     H86334   4.247   6.244   1.905 -0.8505  0.5193 -0.8907
  626MOL0     H86335   4.489   6.450   1.953  0.3805  0.6598  0.9297
  626MOL0     H86336   4.361   6.405   2.079 -3.6092 -1.1654 -2.2170
  626MOL0     H86337   4.410   6.173   2.205 -1.2980 -0.6763 -0.0379
  626MOL0     H86338   4.472   5.914   2.205  0.5907 -0.9671 -2.6091
  626MOL0     H86339   4.631   5.975   2.267  2.1197  0.6307 -1.6054
  626MOL0     H86340   4.751   5.854   2.076  2.0681 -3.4500  2.9280
  626MOL0     H86341   4.667   5.741   2.172 -2.1721 -1.3674 -1.3438
  626MOL0     H86342   4.489   5.710   2.022 -0.6751  0.0856 -2.7626
  626MOL0     H86343   4.538   5.847   1.924  1.7532 -1.3072 -1.5505
  626MOL0     H86344   4.738   5.724   1.851  0.4240 -1.3292 -0.2877
  626MOL0     H86345   4.711   5.604   1.976  0.3528  0.6065 -0.3060
  626MOL0     H86346   4.794   5.450   1.790  0.5958 -1.4535  2.1073
  626MOL0     H86347   4.814   5.107   1.632  1.6173 -2.0564  3.5188
  626MOL0     H86348   4.862   5.184   1.786  2.8259 -0.6272 -0.2707
  626MOL0     H86349   4.905   5.266   1.641 -1.5095  0.1758 -1.7246
  626MOL0     H86350   4.567   4.821   1.725  0.7159 -1.4586 -1.4395
  626MOL0     H86351   4.531   4.593   1.705  0.3693  0.0121 -0.2298
  626MOL0     H86352   4.514   4.369   1.645  0.0838 -3.2523 -1.3781
  626MOL0     H86353   4.347   4.390   1.719  0.6374  1.3742  1.1654
  626MOL0     H86354   4.256   4.236   1.565  0.7224 -2.6627 -3.7183
  626MOL0     H86355   4.401   4.217   1.473  0.6695 -0.0038 -0.2241
  626MOL0     H86356   4.335   4.036   1.638 -0.8455  1.6201  0.5960
  626MOL0     H86357   4.382   4.139   1.770 -0.5829  0.6896 -0.2981
  626MOL0     H86358   4.613   4.165   1.683 -1.3049 -0.1137  1.3979
  626MOL0     H86359   4.571   4.072   1.528  0.0971  1.7896 -0.7769
  626MOL0     H86360   4.608   3.968   1.821  2.8424  1.3844 -0.2699
  626MOL0     H86361   4.495   3.887   1.713 -1.0254  1.1702 -1.7056
  626MOL0     H86362   4.705   3.862   1.546  0.9981 -1.3168 -0.2792
  626MOL0     H86363   4.685   3.765   1.693 -4.8752  0.6292 -2.0064
  626MOL0     H86364   4.816   4.049   1.689  0.5232  0.3821 -3.1866
  626MOL0     H86365   4.911   3.937   1.600 -1.9553  1.3508 -1.9640
  626MOL0     H86366   4.999   3.957   1.829 -1.2319  1.1863  3.2972
  626MOL0     H86367   4.920   3.802   1.818 -0.5800 -0.6049  0.6517
  626MOL0     H86368   4.235   4.659   1.403  0.2148 -3.3798  0.9850
  626MOL0     H86369   4.273   4.922   1.435  0.7182  0.9387 -1.2487
  626MOL0     H86370   4.355   5.229   1.699  0.6773 -0.8449 -0.8400
  626MOL0     H86371   4.377   5.466   1.756  2.0620  1.1572  1.1086
  626MOL0     H86372   4.003   7.194   2.072  1.9537  0.4446  0.1602
  626MOL0     H86373   4.086   7.424   2.065 -2.7646 -3.4894  1.4854
  626MOL0     H86374   4.163   7.764   1.974  0.0446  4.0498  1.5790
  626MOL0     H86375   4.106   7.981   1.965 -0.2284  2.1155 -0.9376
  626MOL0     H86376   4.277   8.293   1.763  1.4873  1.0265 -2.1175
  626MOL0     H86377   4.254   8.194   1.615 -0.2905  0.2847 -1.3257
  626MOL0     H86378   4.031   8.385   1.683  0.2648 -0.0164  0.1417
  626MOL0     H86379   4.051   8.282   1.537  0.5769 -1.7179  1.3513
  626MOL0     H86380   4.269   8.488   1.584 -0.4501  1.4390 -0.3158
  626MOL0     H86381   4.233   8.386   1.449 -0.4971 -1.6143  0.9363
  626MOL0     H86382   4.160   8.644   1.482 -1.8412  0.8977 -2.2041
  626MOL0     H86383   4.019   8.583   1.562  2.4893  2.1622  1.1387
  626MOL0     H86384   3.889   8.483   1.181 -2.0661 -1.3226  2.0847
  626MOL0     H86385   4.223   8.004   1.546  0.5225  1.3151  0.7715
  626MOL0     H86386   4.387   7.744   1.511 -0.1290  0.2852  3.4136
  626MOL0     H86387   4.228   7.686   1.468 -0.4016  1.3352 -0.8574
  626MOL0     H86388   4.277   7.852   1.430  1.9864  0.5188 -0.4479
  627MOL0     O86389   3.987   0.961   1.510  0.2529 -0.3552 -0.4312
  627MOL0     C86390   4.057   0.859   1.520  0.3409 -0.5762  0.8505
  627MOL0     O86391   4.094   0.804   1.639 -0.5352 -0.3831  0.0818
  627MOL0     C86392   4.051   0.875   1.753 -0.1302 -1.4460  1.0452
  627MOL0     C86393   4.104   1.000   1.781  0.0113 -0.2022  0.1678
  627MOL0     C86394   4.089   1.057   1.903  0.5965  0.5401 -0.2294
  627MOL0     C86395   4.002   1.000   1.993 -0.2475  0.1149 -0.3493
  627MOL0     O86396   3.989   1.057   2.116 -0.5110  0.0678 -0.2090
  627MOL0     C86397   3.919   1.183   2.122 -0.4391  0.3222  0.5460
  627MOL0     C86398   3.911   1.241   2.261 -0.1675 -0.4543  0.0898
  627MOL0     C86399   3.811   1.353   2.267 -0.6303 -0.4308  0.5678
  627MOL0     C86400   3.842   1.464   2.177 -0.3227 -0.0776  0.6115
  627MOL0     C86401   3.757   1.592   2.179 -0.5126 -0.2034  1.1181
  627MOL0     C86402   3.803   1.705   2.090 -0.1154 -0.1159 -0.6280
  627MOL0     C86403   3.695   1.813   2.058  0.4103  0.2148  0.1672
  627MOL0     C86404   3.731   1.959   2.017  0.5499  0.3090 -0.7908
  627MOL0     N86405   3.788   1.974   1.880  0.0852 -0.2217 -0.6219
  627MOL0     C86406   3.752   1.905   1.763 -0.5100  0.0021 -0.2205
  627MOL0     C86407   3.836   1.954   1.671  0.5117  0.9531  1.4123
  627MOL0     C86408   3.836   1.893   1.539  0.5939 -0.0961  0.4525
  627MOL0     C86409   3.800   2.008   1.444  0.3306 -0.2250 -0.9266
  627MOL0     C86410   3.799   1.977   1.300 -0.0832 -0.1388  0.3930
  627MOL0     C86411   3.667   1.918   1.266  1.3591 -0.5865  0.6240
  627MOL0     O86412   3.641   1.773   1.292  0.4487 -0.9175 -0.1704
  627MOL0     C86413   3.725   1.689   1.222  0.2387 -0.0597  0.7954
  627MOL0     C86414   3.738   1.697   1.083  0.1616 -0.5879  0.3872
  627MOL0     C86415   3.817   1.600   1.014 -0.7919 -1.1211  0.7956
  627MOL0     C86416   3.806   1.601   0.865  0.0123 -1.0580 -0.1332
  627MOL0     C86417   3.902   1.519   1.092  0.0134  0.3556 -0.0151
  627MOL0     C86418   4.005   1.427   1.033  0.3714 -0.1057 -0.1328
  627MOL0     O86419   4.050   1.327   1.106 -0.1558 -0.2967  0.3549
  627MOL0     C86420   4.171   1.276   1.065 -1.5336 -0.7734  1.5864
  627MOL0     C86421   4.184   1.137   1.022 -0.8552 -0.4080 -1.3748
  627MOL0     C86422   4.310   1.083   0.995 -0.4448 -0.2843  0.3979
  627MOL0     C86423   4.422   1.165   0.980  0.1450 -0.2089 -0.3448
  627MOL0     O86424   4.550   1.106   0.939 -0.1111  0.5852  0.3651
  627MOL0     C86425   4.665   1.180   0.947 -0.4783  0.9427  0.9588
  627MOL0     C86426   4.776   1.088   0.904 -1.1436 -0.8323  0.3061
  627MOL0     C86427   4.913   1.162   0.870  0.1736  0.2804 -0.1443
  627MOL0     C86428   4.946   1.248   1.000  0.1353 -0.4411  0.5087
  627MOL0     C86429   5.089   1.296   1.004  0.5245  0.0670  0.2567
  627MOL0     C86430   5.111   1.396   1.113 -0.0668 -0.2931 -0.0956
  627MOL0     C86431   5.247   1.460   1.084  0.0941 -0.3457  0.2057
  627MOL0     C86432   5.273   1.577   1.173 -0.0657  0.1853 -0.4492
  627MOL0    Cl86433   5.304   1.528   1.339 -0.0631  0.1532  0.1254
  627MOL0     C86434   4.411   1.298   1.029  0.0320  0.6326 -0.1197
  627MOL0     C86435   4.284   1.351   1.064  0.1269 -0.1870  0.5937
  627MOL0     O86436   4.040   1.443   0.921 -0.2204  0.0750  0.6964
  627MOL0     C86437   3.885   1.520   1.228  1.2546  0.0208 -0.7688
  627MOL0     C86438   3.794   1.598   1.294 -0.6098  0.3479 -0.5551
  627MOL0     N86439   3.912   2.046   1.735  0.3455 -0.7402  0.2580
  627MOL0     N86440   3.883   2.067   1.864 -0.4969  0.4551 -0.1190
  627MOL0     C86441   3.947   0.874   1.970 -0.4051 -0.8428 -0.0890
  627MOL0     C86442   3.977   0.804   1.853 -0.4242 -0.1155 -0.0724
  627MOL0     C86443   4.131   0.809   1.397  0.4020  0.6269  0.4131
  627MOL0     C86444   4.238   0.723   1.416 -1.0860  0.2200  0.0423
  627MOL0     C86445   4.327   0.684   1.311 -0.4754  0.0854  0.8741
  627MOL0     C86446   4.311   0.735   1.183  0.5763  0.3375  0.4913
  627MOL0     O86447   4.396   0.749   1.073 -0.5040 -0.6123  0.8567
  627MOL0     C86448   4.533   0.709   1.085  0.4302  0.0711  0.9393
  627MOL0     C86449   4.568   0.615   0.964  0.2431 -0.0291 -0.2315
  627MOL0     C86450   4.588   0.683   0.822 -1.2858 -0.6782  0.1064
  627MOL0     C86451   4.466   0.651   0.735 -0.8666 -0.1523 -0.0559
  627MOL0     C86452   4.474   0.512   0.692 -0.8846 -0.0211  0.3371
  627MOL0     C86453   4.479   0.402   0.642 -0.0918 -0.0481 -0.1404
  627MOL0     C86454   4.190   0.809   1.158 -0.2263  0.2967 -0.3339
  627MOL0     C86455   4.105   0.845   1.261  0.8653 -0.2580  0.5500
  627MOL0     C86456   3.974   0.922   1.230 -0.1216  0.9249 -0.7081
  627MOL0     H86457   4.157   1.054   1.703 -2.1284 -0.7353 -1.7338
  627MOL0     H86458   4.131   1.155   1.924  0.5781  1.0608 -2.3682
  627MOL0     H86459   3.816   1.165   2.090 -0.7461  0.4850  1.4230
  627MOL0     H86460   3.949   1.257   2.047 -0.4608  0.4280  0.6423
  627MOL0     H86461   3.881   1.159   2.328  1.8050 -0.6539  0.7923
  627MOL0     H86462   4.008   1.273   2.301  0.2075 -1.5758  0.1118
  627MOL0     H86463   3.713   1.308   2.250 -1.5952  0.3212  3.4446
  627MOL0     H86464   3.812   1.394   2.369 -0.6405  0.4463  0.2190
  627MOL0     H86465   3.940   1.497   2.213  0.9992 -0.8458 -2.0044
  627MOL0     H86466   3.845   1.436   2.071  3.5603  2.9724 -0.3291
  627MOL0     H86467   3.748   1.629   2.281  0.7923  0.3559  1.0649
  627MOL0     H86468   3.654   1.565   2.157 -1.1357  1.7296  1.4700
  627MOL0     H86469   3.884   1.754   2.145  0.0014 -0.6280 -0.3378
  627MOL0     H86470   3.840   1.667   1.994 -2.2858  2.3910 -2.5910
  627MOL0     H86471   3.636   1.823   2.149 -0.0101 -0.0693 -0.0677
  627MOL0     H86472   3.628   1.769   1.983 -1.3724  1.4106  1.0064
  627MOL0     H86473   3.644   2.025   2.020  0.6059  0.3386  0.4905
  627MOL0     H86474   3.800   1.985   2.098  0.8551 -2.1359 -0.1833
  627MOL0     H86475   3.683   1.821   1.750  2.5208 -2.8703  0.9130
  627MOL0     H86476   3.764   1.811   1.531 -1.5735  1.7104  0.6305
  627MOL0     H86477   3.935   1.852   1.517  0.4281 -0.9407  1.2264
  627MOL0     H86478   3.714   2.062   1.484  2.0861  1.6570  0.5721
  627MOL0     H86479   3.874   2.087   1.463  0.0888 -0.1796 -0.1288
  627MOL0     H86480   3.811   2.076   1.256 -1.3066 -0.4563 -0.7134
  627MOL0     H86481   3.883   1.913   1.271 -1.7323 -3.8797  2.9840
  627MOL0     H86482   3.585   1.973   1.311 -1.3311 -2.5446 -1.5370
  627MOL0     H86483   3.647   1.936   1.160 -0.0006  0.3227  1.0159
  627MOL0     H86484   3.667   1.760   1.030  1.3847  0.1000 -0.4682
  627MOL0     H86485   3.893   1.655   0.826 -1.7023  0.4715 -2.0901
  627MOL0     H86486   3.712   1.655   0.848  1.6310  2.8115  1.9317
  627MOL0     H86487   3.793   1.498   0.830 -0.1747 -2.0580  2.6654
  627MOL0     H86488   4.091   1.082   1.017 -2.1787  1.7247 -1.4453
  627MOL0     H86489   4.335   0.979   0.972 -0.2359 -0.6308  2.0374
  627MOL0     H86490   4.661   1.267   0.881 -2.7000 -0.2683 -0.6535
  627MOL0     H86491   4.693   1.220   1.045  0.3188  0.7600  0.8078
  627MOL0     H86492   4.791   1.017   0.985  1.3486  1.2591  1.8461
  627MOL0     H86493   4.748   1.032   0.814  1.3862  1.1104 -1.8480
  627MOL0     H86494   4.895   1.228   0.784  2.3318  1.5997  0.3572
  627MOL0     H86495   5.000   1.101   0.845  1.4212  1.9389 -0.0378
  627MOL0     H86496   4.922   1.187   1.087  2.1445 -1.6296  0.2979
  627MOL0     H86497   4.883   1.337   1.000  1.2690  0.3868  0.0816
  627MOL0     H86498   5.158   1.213   0.992  1.5370  0.9403 -0.0868
  627MOL0     H86499   5.092   1.348   0.908 -0.2698 -2.3830 -1.1826
  627MOL0     H86500   5.110   1.339   1.207 -0.0579 -2.4175 -1.3150
  627MOL0     H86501   5.032   1.472   1.117 -1.2199 -1.4192 -0.6982
  627MOL0     H86502   5.257   1.478   0.977  4.1888 -2.5106  0.0350
  627MOL0     H86503   5.330   1.391   1.102  1.0779  0.1065 -2.2323
  627MOL0     H86504   5.190   1.648   1.170  0.7447  1.1861 -0.0157
  627MOL0     H86505   5.361   1.630   1.134 -1.1548  1.0300 -1.8304
  627MOL0     H86506   4.498   1.362   1.034  1.0368 -0.5616 -1.4142
  627MOL0     H86507   4.281   1.446   1.116 -0.6264 -0.4476  1.0561
  627MOL0     H86508   3.957   1.479   1.297  0.5831 -0.1943 -0.1886
  627MOL0     H86509   3.794   1.592   1.403  2.8545 -2.6337 -0.5143
  627MOL0     H86510   3.867   0.840   2.035 -0.7285  0.1080  0.0180
  627MOL0     H86511   3.935   0.705   1.841 -1.8019  0.4734 -0.2879
  627MOL0     H86512   4.255   0.674   1.511 -2.2272  0.6071  0.4628
  627MOL0     H86513   4.413   0.621   1.332  0.6611  1.6833  1.2734
  627MOL0     H86514   4.591   0.802   1.078 -0.3809  0.6086  1.2165
  627MOL0     H86515   4.566   0.656   1.174  1.1891 -2.1763 -0.5934
  627MOL0     H86516   4.487   0.543   0.952  2.1345 -2.1947 -0.8393
  627MOL0     H86517   4.660   0.566   0.996  0.0458 -0.4164 -0.2597
  627MOL0     H86518   4.600   0.791   0.830  0.3854 -0.2632 -4.7076
  627MOL0     H86519   4.680   0.649   0.773 -1.8650  2.0453 -3.1330
  627MOL0     H86520   4.448   0.719   0.652 -0.9634  0.6553  0.6196
  627MOL0     H86521   4.378   0.657   0.799  0.4357  1.0668  1.7284
  627MOL0     H86522   4.474   0.302   0.604  1.8214 -0.9465  1.7527
  627MOL0     H86523   4.172   0.828   1.052 -1.2506  0.0610 -0.2208
  627MOL0     H86524   3.955   0.934   1.123  1.0501 -3.5104 -1.6204
  627MOL0     H86525   3.901   0.869   1.291 -1.0073  1.1587 -1.5469
  627MOL0     H86526   3.973   1.025   1.269 -3.3459  0.3062  1.1705
  628MOL0     O86527  11.266   3.967   3.645 -0.2061 -0.3887 -0.3146
  628MOL0     C86528  11.185   3.871   3.661 -0.1735 -0.1403 -0.3092
  628MOL0     O86529  11.133   3.791   3.559 -0.6788 -0.2517 -0.2204
  628MOL0     C86530  11.172   3.832   3.435 -0.0395 -0.0415 -0.6460
  628MOL0     C86531  11.129   3.954   3.379 -0.7149 -0.2544  0.5370
  628MOL0     C86532  11.164   3.983   3.251 -0.1419  0.6762 -0.1395
  628MOL0     C86533  11.248   3.898   3.176 -1.1632 -0.0613 -0.3568
  628MOL0     O86534  11.282   3.944   3.057 -0.0071 -0.2337 -0.5370
  628MOL0     C86535  11.275   3.856   2.943  0.4779 -0.3821  0.5302
  628MOL0     C86536  11.210   3.933   2.823  0.2403  0.4913  0.0511
  628MOL0     C86537  11.264   4.075   2.808  0.3031 -0.2076  0.1650
  628MOL0     C86538  11.410   4.087   2.797  0.9199 -0.2556  0.2104
  628MOL0     C86539  11.452   4.234   2.780 -0.5997 -0.5734 -0.6468
  628MOL0     C86540  11.405   4.292   2.640  0.0395  0.6475 -0.8854
  628MOL0     C86541  11.433   4.444   2.629 -0.0019  0.3014  0.0447
  628MOL0     C86542  11.388   4.498   2.486  0.0769  0.1260 -0.5378
  628MOL0     N86543  11.252   4.555   2.504 -0.1874  0.9666  0.4880
  628MOL0     C86544  11.135   4.485   2.515  1.5098 -0.9744 -0.2709
  628MOL0     C86545  11.040   4.570   2.494 -0.2827  0.1363  0.5311
  628MOL0     C86546  10.889   4.547   2.487  0.7084 -0.4283  0.0881
  628MOL0     C86547  10.814   4.615   2.378 -0.6431  0.0910  0.9476
  628MOL0     C86548  10.667   4.573   2.389 -1.0471 -0.3490  0.4326
  628MOL0     C86549  10.599   4.628   2.260  0.4331  0.3431 -0.6653
  628MOL0     O86550  10.475   4.562   2.245 -0.0131 -0.3527  0.2364
  628MOL0     C86551  10.480   4.469   2.139 -0.6650 -0.0015 -0.4020
  628MOL0     C86552  10.484   4.334   2.182 -0.0571  0.7893  0.5690
  628MOL0     C86553  10.513   4.230   2.084  0.6231  0.3110  0.5225
  628MOL0     C86554  10.502   4.082   2.129  0.3481  0.1907  0.5907
  628MOL0     C86555  10.557   4.273   1.954 -0.6063  0.6033  0.9839
  628MOL0     C86556  10.621   4.178   1.850  0.5880 -0.9081 -0.1924
  628MOL0     O86557  10.656   4.237   1.721 -0.7486 -0.0274 -0.4083
  628MOL0     C86558  10.731   4.159   1.635 -0.1672  0.2811 -1.6277
  628MOL0     C86559  10.811   4.053   1.674  0.3824 -0.5474  0.6737
  628MOL0     C86560  10.886   3.985   1.577  0.3948  0.1463  1.0614
  628MOL0     C86561  10.877   4.018   1.438  0.4248  0.6782  0.4134
  628MOL0     O86562  10.945   3.952   1.337 -0.1157  0.2081  0.0456
  628MOL0     C86563  11.082   3.913   1.367  0.2325  0.5061 -0.2423
  628MOL0     C86564  11.148   3.879   1.236  0.8499  0.2200 -0.1313
  628MOL0     C86565  11.283   3.818   1.250  0.6643 -0.2252  0.9230
  628MOL0     C86566  11.347   3.842   1.113 -0.1030  0.6679 -0.5640
  628MOL0     C86567  11.493   3.810   1.106  0.6939 -0.0230 -0.4157
  628MOL0     C86568  11.549   3.800   0.962 -0.1947  0.0946 -1.3840
  628MOL0     C86569  11.529   3.931   0.885 -0.3155 -0.3179 -0.1622
  628MOL0     C86570  11.585   3.920   0.738 -0.5588  0.4260 -0.2120
  628MOL0    Cl86571  11.559   4.084   0.661  0.1330 -0.3730  0.4001
  628MOL0     C86572  10.786   4.117   1.402 -0.0737  1.1231 -0.3904
  628MOL0     C86573  10.710   4.185   1.498 -1.0507  0.8385 -0.1433
  628MOL0     O86574  10.612   4.062   1.873 -0.1514 -0.3483 -0.5417
  628MOL0     C86575  10.542   4.410   1.914  0.7234  0.6126  0.8902
  628MOL0     C86576  10.500   4.506   2.007 -0.2325 -0.1351  0.1980
  628MOL0     N86577  11.099   4.698   2.487  0.0559  0.4104  0.5606
  628MOL0     N86578  11.225   4.682   2.478 -0.3677  0.1911  0.1231
  628MOL0     C86579  11.298   3.784   3.229 -0.3057  0.3441 -0.4298
  628MOL0     C86580  11.253   3.748   3.361  0.1371 -0.3486  0.4966
  628MOL0     C86581  11.155   3.827   3.799  0.3127 -0.5327 -0.7568
  628MOL0     C86582  11.168   3.929   3.898 -0.1331 -1.2342 -0.1936
  628MOL0     C86583  11.135   3.902   4.026  0.1663 -0.4266 -0.9333
  628MOL0     C86584  11.095   3.773   4.072  0.4775  0.0431  0.4802
  628MOL0     O86585  11.063   3.738   4.197 -0.5433 -0.2345  0.1215
  628MOL0     C86586  11.048   3.839   4.298 -0.1696  0.1667  0.5432
  628MOL0     C86587  11.014   3.771   4.428  0.5125  0.1258 -0.4170
  628MOL0     C86588  11.124   3.692   4.491 -0.0737 -0.1029  0.8767
  628MOL0     C86589  11.140   3.555   4.433  0.0805 -0.4483 -0.2559
  628MOL0     C86590  11.262   3.499   4.501  0.3707  0.9014  0.5108
  628MOL0     C86591  11.370   3.469   4.549  0.0382  0.5775 -0.9495
  628MOL0     C86592  11.075   3.679   3.977 -0.0002  0.5506 -0.7175
  628MOL0     C86593  11.105   3.703   3.838 -0.3515  0.1617  0.1574
  628MOL0     C86594  11.059   3.589   3.749  0.1192  0.9015  0.0446
  628MOL0     H86595  11.073   4.027   3.437 -2.2183 -1.5454  0.8014
  628MOL0     H86596  11.127   4.079   3.214  0.2121  1.2263  0.8916
  628MOL0     H86597  11.221   3.763   2.962 -0.2895  0.2727  1.6720
  628MOL0     H86598  11.377   3.836   2.911  1.6069  1.5023  2.6406
  628MOL0     H86599  11.228   3.882   2.728 -0.7280  0.1503  0.0451
  628MOL0     H86600  11.102   3.940   2.835  0.2560  0.8830 -0.0129
  628MOL0     H86601  11.211   4.110   2.719 -0.2835 -0.6077  0.3515
  628MOL0     H86602  11.226   4.140   2.887 -0.1678  1.1797 -1.1557
  628MOL0     H86603  11.455   4.045   2.887  0.8447  1.2495  0.9669
  628MOL0     H86604  11.444   4.022   2.716 -0.2428 -1.0848  0.3692
  628MOL0     H86605  11.561   4.242   2.786 -0.6752 -0.3718  1.2061
  628MOL0     H86606  11.413   4.295   2.862  1.8809  1.4939 -0.8537
  628MOL0     H86607  11.454   4.231   2.562  1.1183 -0.3394  0.5136
  628MOL0     H86608  11.299   4.276   2.618  0.5587 -2.4281 -1.6095
  628MOL0     H86609  11.536   4.478   2.641 -0.2297  1.2248 -0.5085
  628MOL0     H86610  11.378   4.485   2.714  0.7360 -0.0351  0.7052
  628MOL0     H86611  11.456   4.580   2.462  0.7702  0.2093  1.4770
  628MOL0     H86612  11.403   4.416   2.415  0.0539  0.5124 -0.9925
  628MOL0     H86613  11.124   4.378   2.532  0.8052 -0.7604  0.7538
  628MOL0     H86614  10.839   4.556   2.584 -2.6182 -2.2458 -1.2619
  628MOL0     H86615  10.877   4.439   2.469 -2.6516 -0.5510  2.1539
  628MOL0     H86616  10.829   4.723   2.377  1.2113 -0.0853 -2.5318
  628MOL0     H86617  10.859   4.567   2.291 -0.5196 -5.0537  3.4327
  628MOL0     H86618  10.661   4.464   2.395 -0.4923 -0.5273 -1.4801
  628MOL0     H86619  10.631   4.621   2.481  2.1624  2.7908  0.2764
  628MOL0     H86620  10.587   4.737   2.269  4.3498  0.9286 -0.6495
  628MOL0     H86621  10.666   4.610   2.176  0.0827 -1.2948 -0.6135
  628MOL0     H86622  10.455   4.303   2.282  1.9745 -0.5054  0.8073
  628MOL0     H86623  10.422   4.066   2.202  0.1132 -3.1849 -0.2412
  628MOL0     H86624  10.597   4.056   2.177  0.3961 -0.6805  0.0545
  628MOL0     H86625  10.480   4.020   2.042 -4.3349  2.2805 -0.0085
  628MOL0     H86626  10.817   4.020   1.777  2.3039  2.8080  1.7972
  628MOL0     H86627  10.961   3.913   1.608  1.7429  1.5154  1.1410
  628MOL0     H86628  11.146   3.985   1.418  0.3552  0.2106  0.0256
  628MOL0     H86629  11.084   3.819   1.423 -1.4512  0.0661 -0.8651
  628MOL0     H86630  11.069   3.821   1.187  0.4879 -1.8706  2.6607
  628MOL0     H86631  11.154   3.970   1.176 -0.7683 -0.5136 -1.4848
  628MOL0     H86632  11.263   3.714   1.279 -4.3415 -0.3831 -1.8996
  628MOL0     H86633  11.344   3.879   1.317 -0.5162  0.4554  1.4085
  628MOL0     H86634  11.338   3.948   1.085 -2.1370 -0.5395 -5.7573
  628MOL0     H86635  11.288   3.795   1.034 -0.4713  0.5885 -0.2472
  628MOL0     H86636  11.543   3.893   1.157 -1.4180 -0.9477  3.5006
  628MOL0     H86637  11.518   3.719   1.160  2.2343  0.9093  0.5145
  628MOL0     H86638  11.518   3.710   0.908 -1.5838  0.8063 -1.8139
  628MOL0     H86639  11.656   3.777   0.969 -0.5855 -1.5503 -0.1745
  628MOL0     H86640  11.583   4.011   0.937 -0.6932 -0.8669  1.1087
  628MOL0     H86641  11.423   3.959   0.880 -0.1720  0.5883  1.2931
  628MOL0     H86642  11.536   3.835   0.689  0.1770  1.3271 -2.6344
  628MOL0     H86643  11.689   3.887   0.746 -0.4583  0.9079  0.4999
  628MOL0     H86644  10.771   4.155   1.301 -0.0655  0.4986 -0.6294
  628MOL0     H86645  10.643   4.256   1.451 -1.4977  0.5167 -0.0032
  628MOL0     H86646  10.582   4.433   1.816  0.9448 -1.2834  0.4799
  628MOL0     H86647  10.511   4.612   1.984  2.5046 -0.2528  0.7029
  628MOL0     H86648  11.367   3.721   3.174 -0.3571  0.4377 -0.6001
  628MOL0     H86649  11.290   3.662   3.415  0.7870  0.1115  0.7973
  628MOL0     H86650  11.199   4.030   3.875 -1.8587 -1.0911 -2.1146
  628MOL0     H86651  11.140   3.989   4.090 -0.0916 -0.2628 -1.1355
  628MOL0     H86652  11.142   3.892   4.318 -0.3888  1.3820 -1.3476
  628MOL0     H86653  10.963   3.902   4.268  1.4319  1.4797 -1.6004
  628MOL0     H86654  10.932   3.702   4.407  2.7502 -2.8370 -0.0065
  628MOL0     H86655  10.982   3.847   4.501  2.8388  0.0891  0.7428
  628MOL0     H86656  11.221   3.739   4.472  0.9908 -1.4670  2.5664
  628MOL0     H86657  11.118   3.697   4.600  0.9821  0.5071  0.9266
  628MOL0     H86658  11.146   3.568   4.325  1.3585  2.2252  0.0330
  628MOL0     H86659  11.043   3.508   4.452 -0.6840  0.7977 -0.9113
  628MOL0     H86660  11.471   3.447   4.577 -0.1503 -1.4757 -1.7614
  628MOL0     H86661  11.043   3.581   4.011  3.8163  0.4618  3.5475
  628MOL0     H86662  11.146   3.559   3.689 -1.6521  0.0750 -2.2747
  628MOL0     H86663  11.025   3.501   3.804  1.9246 -0.2367 -0.5874
  628MOL0     H86664  10.975   3.617   3.684  0.2440  3.0114  0.6899
  629MOL0     O86665   5.079   6.431   3.260 -0.0369  0.0766 -0.4972
  629MOL0     C86666   5.137   6.366   3.170  1.1292  0.2974 -0.4157
  629MOL0     O86667   5.253   6.297   3.184 -0.2712  0.0047  0.3979
  629MOL0     C86668   5.303   6.302   3.308  0.3607  1.2678  0.3698
  629MOL0     C86669   5.295   6.184   3.386  0.0469  0.7063  0.4160
  629MOL0     C86670   5.362   6.173   3.511 -0.4506  0.4537  0.2300
  629MOL0     C86671   5.429   6.285   3.559 -0.3636 -0.2862  0.9509
  629MOL0     O86672   5.501   6.293   3.678  0.3586 -0.0161 -0.6055
  629MOL0     C86673   5.554   6.174   3.733  0.8703  0.4845 -0.6368
  629MOL0     C86674   5.639   6.192   3.851  0.5607 -0.9893  0.0267
  629MOL0     C86675   5.564   6.243   3.980  0.4428  0.5963  0.3110
  629MOL0     C86676   5.459   6.141   4.038 -0.2956 -0.2749  0.0576
  629MOL0     C86677   5.380   6.218   4.142  0.7120  0.1710  0.3508
  629MOL0     C86678   5.302   6.119   4.227  0.2396  0.4261 -0.2033
  629MOL0     C86679   5.257   6.187   4.356  0.3525  0.6360  1.0316
  629MOL0     C86680   5.359   6.207   4.461  0.2024 -0.5582 -0.2824
  629MOL0     N86681   5.416   6.083   4.526  1.0513  0.6225 -0.2416
  629MOL0     C86682   5.344   5.966   4.538 -0.1357 -0.4919  0.4690
  629MOL0     C86683   5.441   5.876   4.575 -0.2942 -0.2222 -0.2609
  629MOL0     C86684   5.426   5.734   4.612  0.1116 -0.3241 -0.4940
  629MOL0     C86685   5.423   5.692   4.770 -0.4715 -0.5667  1.0859
  629MOL0     C86686   5.448   5.811   4.859 -0.5884  0.3830  0.4558
  629MOL0     C86687   5.446   5.778   5.009  0.7898 -0.4128  0.9114
  629MOL0     O86688   5.556   5.696   5.039 -0.2024 -0.0888  0.5131
  629MOL0     C86689   5.555   5.625   5.152  1.0833 -0.3312 -0.9930
  629MOL0     C86690   5.538   5.689   5.279 -0.0887  0.6368 -0.2214
  629MOL0     C86691   5.542   5.625   5.396  0.4309  0.2516 -1.0947
  629MOL0     C86692   5.508   5.701   5.516  0.1534 -0.3053 -0.0854
  629MOL0     C86693   5.569   5.487   5.399  0.9102  0.4811 -1.3768
  629MOL0     C86694   5.594   5.407   5.528  0.8091 -0.3449  0.5800
  629MOL0     O86695   5.618   5.276   5.511  0.5140 -0.4414 -0.6598
  629MOL0     C86696   5.677   5.190   5.602 -0.1859  0.4743 -0.3499
  629MOL0     C86697   5.648   5.188   5.743  1.2807 -0.0861 -1.0738
  629MOL0     C86698   5.699   5.091   5.828  0.3037 -0.4886 -0.7344
  629MOL0     C86699   5.781   4.989   5.780 -0.3731 -0.6519 -0.1284
  629MOL0     O86700   5.826   4.885   5.866  0.5970  0.5563  0.2889
  629MOL0     C86701   5.888   4.771   5.803  0.3253  0.1360  0.1609
  629MOL0     C86702   5.942   4.684   5.914  0.5692 -0.9104  0.3997
  629MOL0     C86703   6.039   4.576   5.871 -0.6813  0.0172  0.2379
  629MOL0     C86704   6.109   4.512   5.988  0.3066 -0.5440 -0.4394
  629MOL0     C86705   6.023   4.413   6.070 -0.3849 -0.6890 -0.8890
  629MOL0     C86706   6.095   4.353   6.188  0.0047  0.2195 -0.1514
  629MOL0     C86707   6.152   4.459   6.288  0.2249 -0.0072  0.4358
  629MOL0     C86708   6.178   4.402   6.423 -0.0486 -0.4140 -0.3975
  629MOL0    Cl86709   6.315   4.480   6.515 -0.6427  0.7733  0.2015
  629MOL0     C86710   5.825   4.997   5.648 -0.5878  0.0625  0.3282
  629MOL0     C86711   5.769   5.097   5.564  1.2730  0.3590 -0.1393
  629MOL0     O86712   5.596   5.460   5.630 -0.4431 -0.4301 -0.5533
  629MOL0     C86713   5.583   5.421   5.272 -0.8231  0.2900 -0.0032
  629MOL0     C86714   5.579   5.489   5.155  0.0586  0.0567  0.4602
  629MOL0     N86715   5.561   5.942   4.569 -0.4883  0.0477 -0.7550
  629MOL0     N86716   5.543   6.063   4.539 -0.4635 -0.3858  0.4235
  629MOL0     C86717   5.432   6.400   3.484  0.5074  0.0150 -0.4219
  629MOL0     C86718   5.369   6.413   3.363  0.6765  0.2724  0.4008
  629MOL0     C86719   5.059   6.337   3.050  1.3150 -0.1322 -0.0321
  629MOL0     C86720   4.925   6.305   3.061  0.5240 -0.7136  0.2228
  629MOL0     C86721   4.844   6.256   2.949 -0.1812 -0.5164 -0.1445
  629MOL0     C86722   4.900   6.253   2.823  0.4004 -0.3195 -0.4637
  629MOL0     O86723   4.816   6.214   2.723 -0.2656 -0.5440 -0.1128
  629MOL0     C86724   4.857   6.217   2.588  0.0609  0.2586 -0.1470
  629MOL0     C86725   4.863   6.358   2.524  0.7968  0.5697  0.2893
  629MOL0     C86726   4.853   6.340   2.372 -0.3924 -1.1722 -0.4898
  629MOL0     C86727   4.717   6.389   2.312 -0.7903  0.1357 -0.1276
  629MOL0     C86728   4.678   6.521   2.362 -0.3429  0.2091  0.1376
  629MOL0     C86729   4.631   6.613   2.416  0.0374 -0.4204  0.5177
  629MOL0     C86730   5.029   6.300   2.808 -0.3636  0.2469 -0.2231
  629MOL0     C86731   5.108   6.335   2.917  0.6215  0.0182 -0.0693
  629MOL0     C86732   5.252   6.380   2.899 -0.7149  0.0185  0.1985
  629MOL0     H86733   5.237   6.097   3.357  0.8789  0.8684 -1.9497
  629MOL0     H86734   5.350   6.079   3.563  0.4822 -0.1287 -0.5875
  629MOL0     H86735   5.613   6.130   3.652 -0.6025 -0.5305 -1.2063
  629MOL0     H86736   5.475   6.102   3.758  1.6426  0.4199  1.8064
  629MOL0     H86737   5.679   6.094   3.877  0.3856 -0.9558  0.4283
  629MOL0     H86738   5.721   6.259   3.825  0.7874  0.7625  4.4597
  629MOL0     H86739   5.620   6.273   4.069  2.3400  0.6746 -0.8548
  629MOL0     H86740   5.505   6.326   3.942  0.7153  0.9594  0.6712
  629MOL0     H86741   5.396   6.104   3.958  1.0938  3.2236 -2.9249
  629MOL0     H86742   5.512   6.057   4.085 -1.2100 -1.9701 -1.8477
  629MOL0     H86743   5.315   6.285   4.086  0.3297 -2.2246 -2.3224
  629MOL0     H86744   5.435   6.287   4.207 -0.1868 -0.8595  2.2687
  629MOL0     H86745   5.223   6.067   4.174  0.9911  2.0623 -3.1217
  629MOL0     H86746   5.382   6.048   4.252 -1.5924 -0.3795  4.4690
  629MOL0     H86747   5.163   6.140   4.386  0.1925  0.3660  0.1535
  629MOL0     H86748   5.235   6.291   4.329 -1.7161 -0.6570 -3.0264
  629MOL0     H86749   5.436   6.274   4.422  3.8254 -3.5514  1.1269
  629MOL0     H86750   5.314   6.262   4.544  0.3812  1.9373 -1.7442
  629MOL0     H86751   5.237   5.953   4.528 -0.0774 -0.8634  0.2953
  629MOL0     H86752   5.513   5.678   4.575 -1.0139 -1.0683 -2.1349
  629MOL0     H86753   5.344   5.683   4.561 -1.2365  1.4429 -0.1830
  629MOL0     H86754   5.323   5.652   4.790 -1.3600  1.6293  1.3034
  629MOL0     H86755   5.502   5.616   4.780 -0.5370 -0.7141  0.4774
  629MOL0     H86756   5.546   5.856   4.840 -0.2103  0.0060  1.4957
  629MOL0     H86757   5.364   5.880   4.844 -1.3099 -1.0360 -3.1347
  629MOL0     H86758   5.453   5.871   5.068 -2.5048  0.7965 -0.3631
  629MOL0     H86759   5.354   5.725   5.033  1.2970 -3.0496 -2.3492
  629MOL0     H86760   5.537   5.797   5.279 -1.4629  0.6745 -1.8342
  629MOL0     H86761   5.423   5.646   5.556 -0.1955  0.1029 -0.2516
  629MOL0     H86762   5.465   5.794   5.477  2.2378  1.1999  0.9898
  629MOL0     H86763   5.585   5.725   5.590  1.7991 -0.3663 -1.7171
  629MOL0     H86764   5.582   5.267   5.778  2.6036  1.1015 -1.1859
  629MOL0     H86765   5.654   5.088   5.927 -2.4769  1.8011 -1.8089
  629MOL0     H86766   5.818   4.709   5.746 -0.3582  1.6849 -0.7301
  629MOL0     H86767   5.961   4.802   5.728 -0.9968 -0.0764 -1.2601
  629MOL0     H86768   5.996   4.750   5.983 -0.8246  0.3000  0.3831
  629MOL0     H86769   5.870   4.622   5.968  0.9995 -1.6459  0.1536
  629MOL0     H86770   6.112   4.634   5.815  0.5798  0.8533  2.5992
  629MOL0     H86771   5.991   4.505   5.803  2.8758 -1.6225 -0.8415
  629MOL0     H86772   6.168   4.584   6.046  0.8272 -1.7241  0.5512
  629MOL0     H86773   6.189   4.447   5.951  1.9366  1.0672  0.1143
  629MOL0     H86774   5.936   4.465   6.110 -0.1717 -1.1720  0.2392
  629MOL0     H86775   5.988   4.336   6.000 -1.0839 -1.4042  0.2301
  629MOL0     H86776   6.172   4.283   6.154 -0.8464 -0.5555 -0.5291
  629MOL0     H86777   6.022   4.301   6.250 -0.9299  1.8747  0.2021
  629MOL0     H86778   6.084   4.544   6.294  0.6282  0.3006  0.6474
  629MOL0     H86779   6.247   4.499   6.251 -0.3245  4.1056  2.9152
  629MOL0     H86780   6.200   4.296   6.410  4.5663  0.4932 -1.9704
  629MOL0     H86781   6.089   4.418   6.484  0.0303  1.6248 -0.7578
  629MOL0     H86782   5.887   4.921   5.603  0.6443  0.7491  0.8308
  629MOL0     H86783   5.787   5.090   5.457  4.4870 -2.9615  0.3823
  629MOL0     H86784   5.613   5.317   5.278  0.2059  0.6564  2.2422
  629MOL0     H86785   5.593   5.439   5.059 -0.9624  0.9649 -0.1917
  629MOL0     H86786   5.487   6.478   3.534 -1.1675 -0.6147  2.6549
  629MOL0     H86787   5.374   6.503   3.302  2.4005 -0.1104 -0.0785
  629MOL0     H86788   4.890   6.308   3.163  2.4885  0.1460  0.9276
  629MOL0     H86789   4.739   6.233   2.958  0.1586 -2.4197 -0.6764
  629MOL0     H86790   4.954   6.172   2.564 -0.1904  0.7138 -2.2728
  629MOL0     H86791   4.793   6.157   2.522  0.9173  1.5281 -2.2473
  629MOL0     H86792   4.952   6.416   2.550 -1.0879  3.7643  0.1982
  629MOL0     H86793   4.778   6.414   2.565 -0.8276  0.7502 -3.0360
  629MOL0     H86794   4.937   6.392   2.324  1.0070 -3.6285 -0.8413
  629MOL0     H86795   4.867   6.234   2.352  0.3976 -1.4503  1.3719
  629MOL0     H86796   4.646   6.309   2.336 -0.0195 -0.5047  0.0744
  629MOL0     H86797   4.733   6.393   2.204 -2.4206  2.4565 -0.3371
  629MOL0     H86798   4.586   6.697   2.466 -0.3178  1.6859 -2.9790
  629MOL0     H86799   5.068   6.296   2.707  0.2581 -2.5263  0.0225
  629MOL0     H86800   5.267   6.399   2.793 -0.3884 -5.1757 -0.9640
  629MOL0     H86801   5.271   6.472   2.955  0.7106  1.4329 -2.4116
  629MOL0     H86802   5.315   6.301   2.941 -0.6792 -1.5467 -2.5902
  630MOL0     O86803   9.293   4.365   6.596  0.6948  0.2038 -0.2448
  630MOL0     C86804   9.182   4.410   6.563  0.2703 -0.0781 -0.3820
  630MOL0     O86805   9.153   4.545   6.569  0.3414  0.3184  0.2671
  630MOL0     C86806   9.254   4.637   6.578 -0.5337  0.6469  0.2369
  630MOL0     C86807   9.254   4.737   6.679 -0.0027  0.5527 -0.7397
  630MOL0     C86808   9.361   4.831   6.686 -0.5130 -0.5073  0.1410
  630MOL0     C86809   9.452   4.844   6.582  0.1823  0.7264 -0.7366
  630MOL0     O86810   9.542   4.943   6.577  0.4446 -0.7016  0.4241
  630MOL0     C86811   9.477   5.073   6.546  0.0682 -0.1805  0.1964
  630MOL0     C86812   9.540   5.165   6.653 -0.5320  0.5252 -0.2034
  630MOL0     C86813   9.479   5.304   6.657 -0.2795 -0.1821 -0.8973
  630MOL0     C86814   9.570   5.404   6.731 -0.5573 -0.4410 -0.4376
  630MOL0     C86815   9.503   5.539   6.754 -0.4550  0.4962 -0.0678
  630MOL0     C86816   9.580   5.616   6.860 -0.8997 -0.0436  0.1221
  630MOL0     C86817   9.550   5.546   7.000 -0.0583 -0.0091  0.2027
  630MOL0     C86818   9.611   5.630   7.114  0.6820  0.2546 -0.2773
  630MOL0     N86819   9.754   5.627   7.110  0.0104 -0.5821  0.2392
  630MOL0     C86820   9.843   5.734   7.140 -0.6184 -0.7413 -0.1492
  630MOL0     C86821   9.969   5.681   7.138 -0.2658  0.1489  0.4983
  630MOL0     C86822  10.101   5.756   7.147  0.5994 -0.7393  0.0388
  630MOL0     C86823  10.078   5.912   7.182 -0.5443  0.2624 -0.9300
  630MOL0     C86824  10.204   5.995   7.219 -0.0863  0.1092 -0.0027
  630MOL0     C86825  10.170   6.144   7.235 -0.0578 -0.5027  0.4185
  630MOL0     O86826  10.178   6.205   7.110 -0.0663  0.2276 -0.1711
  630MOL0     C86827  10.135   6.334   7.102  0.4102 -1.0575 -0.0142
  630MOL0     C86828  10.217   6.430   7.162 -0.3269  0.5843  0.1066
  630MOL0     C86829  10.183   6.567   7.157 -0.4919 -0.1520 -1.6306
  630MOL0     C86830  10.280   6.671   7.221 -0.7075 -0.1892  0.4173
  630MOL0     C86831  10.058   6.610   7.105 -0.4223 -0.6429  0.6546
  630MOL0     C86832   9.986   6.738   7.121  0.1888  0.0714  0.5816
  630MOL0     O86833   9.856   6.735   7.122 -0.3939 -0.6845  0.4034
  630MOL0     C86834   9.768   6.842   7.146 -0.4577 -0.7980  0.4119
  630MOL0     C86835   9.799   6.969   7.198  0.3633 -0.3241  0.0256
  630MOL0     C86836   9.688   7.054   7.233  0.9989 -0.1197  0.3100
  630MOL0     C86837   9.552   7.014   7.203 -0.4930 -0.2182 -0.3095
  630MOL0     O86838   9.452   7.100   7.234 -0.1618  0.1938 -0.3106
  630MOL0     C86839   9.322   7.088   7.178 -0.4514 -0.2505  0.0155
  630MOL0     C86840   9.235   7.186   7.253  0.9150 -0.5140 -0.0741
  630MOL0     C86841   9.109   7.209   7.170 -0.2690 -0.1245  0.2779
  630MOL0     C86842   9.018   7.326   7.224 -0.2446  0.5762 -0.1924
  630MOL0     C86843   8.881   7.326   7.154  0.0156 -0.4104  0.4020
  630MOL0     C86844   8.771   7.257   7.232 -0.0045 -0.5269 -0.3965
  630MOL0     C86845   8.643   7.234   7.148 -0.7661 -0.3720  0.2133
  630MOL0     C86846   8.644   7.121   7.048 -0.3786  0.1177 -0.3392
  630MOL0    Cl86847   8.542   6.986   7.132  0.9723  0.0652 -0.4688
  630MOL0     C86848   9.531   6.888   7.141  0.2756 -0.2702  0.2053
  630MOL0     C86849   9.638   6.807   7.115  0.1847 -0.3206  0.2558
  630MOL0     O86850  10.053   6.833   7.144  0.8415  0.7027 -0.1974
  630MOL0     C86851   9.987   6.509   7.032  0.3769 -0.1581 -0.6366
  630MOL0     C86852  10.022   6.371   7.028  0.0572 -0.4541  0.4251
  630MOL0     N86853   9.951   5.543   7.119  0.1766 -0.7620 -0.4589
  630MOL0     N86854   9.829   5.515   7.098  0.8870 -0.1873 -0.4754
  630MOL0     C86855   9.437   4.755   6.478  0.1740 -1.1583 -0.6050
  630MOL0     C86856   9.347   4.647   6.473 -1.1902 -0.6637 -0.1053
  630MOL0     C86857   9.080   4.311   6.516 -0.6749  0.1002  0.8442
  630MOL0     C86858   8.964   4.361   6.459  0.0526 -0.4524  0.2974
  630MOL0     C86859   8.870   4.279   6.397 -0.4380  0.4260  0.7061
  630MOL0     C86860   8.889   4.140   6.392 -0.0706  0.0394 -0.8918
  630MOL0     O86861   8.813   4.053   6.317 -1.2071 -0.3789  0.3982
  630MOL0     C86862   8.673   4.036   6.349 -0.2784 -0.0190  0.0396
  630MOL0     C86863   8.622   3.908   6.270 -0.0016  0.8946 -0.7566
  630MOL0     C86864   8.714   3.784   6.271  0.0774  0.9452  0.6251
  630MOL0     C86865   8.668   3.674   6.171  0.3925  0.4311 -0.8631
  630MOL0     C86866   8.549   3.599   6.227 -0.4193  0.6157  1.2640
  630MOL0     C86867   8.460   3.537   6.281  0.2306  0.3624 -0.7075
  630MOL0     C86868   8.991   4.085   6.469  0.9056  0.2703  0.0394
  630MOL0     C86869   9.092   4.166   6.528  0.5022  0.5631 -0.5560
  630MOL0     C86870   9.214   4.094   6.600  1.4308  0.5172  0.4497
  630MOL0     H86871   9.174   4.735   6.753  0.7371  0.3661  0.0651
  630MOL0     H86872   9.356   4.905   6.765 -4.0339 -0.3897 -0.0183
  630MOL0     H86873   9.367   5.073   6.553  0.1210  0.4266  1.2175
  630MOL0     H86874   9.507   5.113   6.448 -1.7988  2.5759  0.6180
  630MOL0     H86875   9.540   5.107   6.745 -1.7003 -2.0439 -1.7190
  630MOL0     H86876   9.645   5.181   6.629 -0.0052 -1.1036  0.8534
  630MOL0     H86877   9.459   5.335   6.555 -2.2705  0.6816 -0.2912
  630MOL0     H86878   9.385   5.284   6.710 -0.1114 -0.1100 -0.5688
  630MOL0     H86879   9.599   5.352   6.823 -1.1790 -1.2175 -0.6784
  630MOL0     H86880   9.661   5.420   6.672 -2.4092  2.0295 -2.8952
  630MOL0     H86881   9.407   5.503   6.792  0.5902 -2.2561  0.1514
  630MOL0     H86882   9.487   5.597   6.662 -1.8682  0.9445  0.4194
  630MOL0     H86883   9.687   5.618   6.837 -0.0144 -0.4392  3.6250
  630MOL0     H86884   9.545   5.719   6.859  2.3619  1.1802 -1.1953
  630MOL0     H86885   9.601   5.450   7.003  2.3939  1.2057 -0.3209
  630MOL0     H86886   9.441   5.537   7.005 -0.1099 -1.6346 -2.2518
  630MOL0     H86887   9.593   5.737   7.098 -0.3165 -0.1362 -2.0986
  630MOL0     H86888   9.561   5.598   7.205 -3.0508  1.4409 -1.7004
  630MOL0     H86889   9.819   5.838   7.162  1.7646  0.1540 -1.3715
  630MOL0     H86890  10.162   5.747   7.056  1.9128  1.3342  0.6559
  630MOL0     H86891  10.160   5.715   7.229 -0.6058 -0.2144  1.2036
  630MOL0     H86892  10.021   5.960   7.102 -1.4789  1.5848  0.4724
  630MOL0     H86893  10.005   5.915   7.263 -2.2943 -2.4907 -2.2355
  630MOL0     H86894  10.239   5.959   7.317  0.9725 -2.5941 -1.2944
  630MOL0     H86895  10.291   5.983   7.154  0.7485 -0.2275  1.1363
  630MOL0     H86896  10.074   6.152   7.287 -0.8087 -2.0277 -0.6764
  630MOL0     H86897  10.242   6.193   7.301 -1.4653  2.4436 -0.0439
  630MOL0     H86898  10.313   6.399   7.202 -0.1441  1.5061  0.4091
  630MOL0     H86899  10.291   6.770   7.177 -0.2284 -1.2060 -1.8808
  630MOL0     H86900  10.377   6.621   7.224 -1.1327 -1.0496  2.8970
  630MOL0     H86901  10.253   6.685   7.326  2.2679 -0.8557  1.3740
  630MOL0     H86902   9.897   6.991   7.239  2.2902  2.5809 -5.1972
  630MOL0     H86903   9.695   7.141   7.297 -3.3701  0.6144  0.0499
  630MOL0     H86904   9.343   7.138   7.083  0.7690  1.5055  1.1470
  630MOL0     H86905   9.287   6.986   7.164  0.6703 -0.5974 -0.3204
  630MOL0     H86906   9.219   7.149   7.354 -2.2473  1.0076  0.0819
  630MOL0     H86907   9.287   7.280   7.276 -1.6143 -0.1347  5.7201
  630MOL0     H86908   9.055   7.114   7.178 -0.3466  0.0127  1.4724
  630MOL0     H86909   9.124   7.221   7.062  0.6421  0.6100  0.4715
  630MOL0     H86910   9.070   7.420   7.208 -1.9197  1.3850 -1.0705
  630MOL0     H86911   9.002   7.310   7.331  1.5577  0.6388  0.1298
  630MOL0     H86912   8.838   7.426   7.144 -1.0261 -0.4706  3.4565
  630MOL0     H86913   8.882   7.272   7.058  0.2615 -1.0017  0.7333
  630MOL0     H86914   8.741   7.315   7.319 -1.7391 -1.5883 -0.2408
  630MOL0     H86915   8.810   7.161   7.267  1.7422 -0.6080 -2.3362
  630MOL0     H86916   8.637   7.327   7.091  0.7172 -1.5047 -1.9447
  630MOL0     H86917   8.555   7.227   7.212 -1.2567 -2.1716 -0.5789
  630MOL0     H86918   8.740   7.082   7.015  0.3065 -2.3832  3.8683
  630MOL0     H86919   8.587   7.147   6.958  0.5025  0.6110 -0.7611
  630MOL0     H86920   9.436   6.850   7.105  1.0647 -0.7468 -1.5038
  630MOL0     H86921   9.619   6.706   7.081 -4.7486 -0.4352  2.4967
  630MOL0     H86922   9.893   6.534   6.984  1.5673  2.9061 -1.6213
  630MOL0     H86923   9.963   6.296   6.977  0.4252  0.2118 -1.0361
  630MOL0     H86924   9.507   4.776   6.397  2.3437  1.8553  1.8425
  630MOL0     H86925   9.334   4.568   6.400 -1.4515 -1.5231  0.8433
  630MOL0     H86926   8.957   4.464   6.425  2.1696 -1.2046 -2.9626
  630MOL0     H86927   8.800   4.329   6.331  0.6575  1.1472  0.0601
  630MOL0     H86928   8.643   4.024   6.453 -3.8308 -1.2236 -0.9747
  630MOL0     H86929   8.614   4.123   6.323 -1.6662 -0.6669  0.9174
  630MOL0     H86930   8.615   3.942   6.167 -1.5503 -0.4310 -1.1201
  630MOL0     H86931   8.526   3.876   6.310  0.0921 -0.8507 -1.8616
  630MOL0     H86932   8.816   3.815   6.246  0.1813  0.5037  0.4968
  630MOL0     H86933   8.717   3.745   6.373 -0.7907  0.0104  0.3092
  630MOL0     H86934   8.753   3.606   6.168  0.2380  0.1053  0.8767
  630MOL0     H86935   8.639   3.717   6.075 -0.7945  0.2759 -0.5873
  630MOL0     H86936   8.380   3.495   6.339  0.8829 -0.4417 -0.3681
  630MOL0     H86937   8.993   3.978   6.482 -0.0692  0.4220  1.7648
  630MOL0     H86938   9.225   4.129   6.704  0.2889 -1.7033  1.3783
  630MOL0     H86939   9.191   3.988   6.614  0.4509  0.3725 -1.8937
  630MOL0     H86940   9.304   4.113   6.540  1.3447 -1.1393 -0.2317
  631MOL0     O86941   7.133   1.855   9.551 -0.0598 -0.2675 -0.5307
  631MOL0     C86942   7.148   1.844   9.673 -0.4366 -0.6465 -0.2432
  631MOL0     O86943   7.256   1.882   9.750  0.0442 -0.2433 -0.6931
  631MOL0     C86944   7.369   1.928   9.688 -0.3492  0.0938 -0.5309
  631MOL0     C86945   7.465   1.847   9.625  0.2991  1.5060 -0.3303
  631MOL0     C86946   7.597   1.898   9.607 -0.5044  0.3397  0.1030
  631MOL0     C86947   7.620   2.032   9.627 -0.1774  0.6178 -0.5355
  631MOL0     O86948   7.740   2.069   9.589  0.4218  0.3891  0.2061
  631MOL0     C86949   7.755   2.206   9.555 -0.1852 -0.3216  0.3732
  631MOL0     C86950   7.865   2.215   9.443  1.0801 -1.2030 -0.2630
  631MOL0     C86951   8.005   2.176   9.489  0.1108  0.4489  0.0906
  631MOL0     C86952   8.097   2.200   9.370  0.2029  0.8799  0.0594
  631MOL0     C86953   8.238   2.193   9.423 -0.2784 -0.0029  0.2431
  631MOL0     C86954   8.346   2.207   9.310  0.8945  0.2105 -0.2387
  631MOL0     C86955   8.491   2.201   9.361  0.0234 -0.4519  0.1150
  631MOL0     C86956   8.595   2.199   9.254  0.4517  0.4916 -0.5307
  631MOL0     N86957   8.570   2.071   9.174 -0.4771  0.6231 -0.7603
  631MOL0     C86958   8.594   2.047   9.036  0.5618 -0.0726  0.5940
  631MOL0     C86959   8.568   1.913   9.019  0.7130  0.4033  0.0063
  631MOL0     C86960   8.568   1.821   8.901 -0.4992  1.3225  1.0244
  631MOL0     C86961   8.618   1.680   8.910 -0.3549  0.7501  0.4845
  631MOL0     C86962   8.612   1.611   8.770  0.4591 -0.5293  0.5872
  631MOL0     C86963   8.732   1.633   8.685 -0.1673  0.0704  0.0586
  631MOL0     O86964   8.846   1.573   8.738 -0.3798 -0.7482  0.6814
  631MOL0     C86965   8.972   1.608   8.685  0.1062 -0.9954  0.2316
  631MOL0     C86966   9.000   1.673   8.566  0.7810 -0.3124 -0.5904
  631MOL0     C86967   9.138   1.696   8.530  0.3255  0.1478  0.3106
  631MOL0     C86968   9.165   1.767   8.396  0.3716 -0.3355  0.8627
  631MOL0     C86969   9.242   1.647   8.620  0.5203  0.0811 -0.0439
  631MOL0     C86970   9.377   1.678   8.597 -1.1604  0.4795  0.6265
  631MOL0     O86971   9.463   1.584   8.654  0.0100 -0.1706  0.0644
  631MOL0     C86972   9.597   1.617   8.649  1.1111 -0.3374  0.4023
  631MOL0     C86973   9.654   1.712   8.735  0.3679  0.7958  0.0699
  631MOL0     C86974   9.788   1.746   8.717  0.5932  0.0988 -0.0811
  631MOL0     C86975   9.864   1.686   8.615 -0.1434 -0.8099  0.1278
  631MOL0     O86976  10.004   1.715   8.609  0.2793 -0.5300  0.0774
  631MOL0     C86977  10.089   1.616   8.667 -0.0560 -0.1254  0.4624
  631MOL0     C86978  10.226   1.674   8.700  0.0167  0.0313 -0.5929
  631MOL0     C86979  10.285   1.598   8.827  0.8772 -0.3541 -0.1893
  631MOL0     C86980  10.406   1.678   8.896 -0.2528  0.1179 -0.3371
  631MOL0     C86981  10.448   1.604   9.017 -0.6999 -0.5503 -0.0621
  631MOL0     C86982  10.494   1.452   9.007  0.2341 -0.1840 -0.1140
  631MOL0     C86983  10.576   1.415   9.126  0.6543  0.2741 -0.2934
  631MOL0     C86984  10.641   1.280   9.108 -0.7792 -0.6695  0.6194
  631MOL0    Cl86985  10.796   1.299   9.024 -0.2142  0.3649 -0.1523
  631MOL0     C86986   9.810   1.580   8.541  0.8628 -0.0528 -0.0100
  631MOL0     C86987   9.675   1.548   8.563  0.3347 -0.0439 -0.5646
  631MOL0     O86988   9.416   1.775   8.532 -0.2207 -0.4635  0.7064
  631MOL0     C86989   9.212   1.579   8.744  0.2861 -0.9094  0.5490
  631MOL0     C86990   9.073   1.570   8.774  0.1898  0.4992 -0.0723
  631MOL0     N86991   8.532   1.860   9.144 -0.5583  0.5292 -0.1689
  631MOL0     N86992   8.538   1.956   9.234 -0.5435 -0.6535 -0.1989
  631MOL0     C86993   7.522   2.117   9.685 -0.7224 -0.3749 -0.2413
  631MOL0     C86994   7.400   2.065   9.716 -0.0985 -0.5056  0.0405
  631MOL0     C86995   7.037   1.774   9.756  0.1752  0.0893 -0.2500
  631MOL0     C86996   6.905   1.798   9.727 -0.6669  0.3813  0.8284
  631MOL0     C86997   6.805   1.751   9.812  0.1097 -0.3867  0.0720
  631MOL0     C86998   6.825   1.666   9.923  0.6078 -0.0426 -0.2327
  631MOL0     O86999   6.726   1.602   9.993 -0.1313  0.5205  0.1744
  631MOL0     C87000   6.594   1.650   9.989  0.6467 -0.6970 -0.6196
  631MOL0     C87001   6.522   1.555  10.087 -0.6556 -0.0193  1.2024
  631MOL0     C87002   6.371   1.544  10.068  0.0122  0.4544  0.2376
  631MOL0     C87003   6.308   1.480  10.190  0.1593 -0.3833  0.4199
  631MOL0     C87004   6.172   1.450  10.170  0.2664  0.3418  0.0134
  631MOL0     C87005   6.057   1.429  10.139 -0.2775  0.5663 -0.0015
  631MOL0     C87006   6.960   1.634   9.949 -0.6105 -0.5711  0.1794
  631MOL0     C87007   7.069   1.678   9.863  1.2073 -0.5783  0.8832
  631MOL0     C87008   7.211   1.628   9.889  1.3499 -0.0412  0.5618
  631MOL0     H87009   7.462   1.742   9.601  4.4696  1.2833 -0.6092
  631MOL0     H87010   7.672   1.825   9.579  0.7150  0.2851  3.1599
  631MOL0     H87011   7.777   2.273   9.639  1.4400 -0.0400 -0.2249
  631MOL0     H87012   7.665   2.247   9.509  0.8374  1.0435 -0.5005
  631MOL0     H87013   7.841   2.147   9.361 -3.0661  0.1041 -0.3481
  631MOL0     H87014   7.870   2.316   9.403 -1.3493 -1.7583 -2.2266
  631MOL0     H87015   8.033   2.240   9.573  1.3781  1.0566 -0.7764
  631MOL0     H87016   8.009   2.071   9.520  2.8131  0.9850  1.8732
  631MOL0     H87017   8.077   2.125   9.293  2.1848  0.0789  0.2550
  631MOL0     H87018   8.079   2.296   9.322 -3.9219 -0.9846 -2.7288
  631MOL0     H87019   8.247   2.092   9.465  4.8997 -0.6184 -1.6467
  631MOL0     H87020   8.268   2.255   9.507 -1.6752 -1.9099  2.2540
  631MOL0     H87021   8.332   2.131   9.232 -3.4977  0.9345 -0.4221
  631MOL0     H87022   8.331   2.306   9.266 -0.8218 -0.3041 -0.9152
  631MOL0     H87023   8.502   2.110   9.420 -2.2893  1.2531  3.5075
  631MOL0     H87024   8.517   2.285   9.426 -2.2044  0.2789  0.1575
  631MOL0     H87025   8.589   2.286   9.189 -4.3252  2.0056  1.5197
  631MOL0     H87026   8.697   2.210   9.292 -0.6121  1.8609  2.1901
  631MOL0     H87027   8.632   2.116   8.962  2.2896 -0.8164  0.7322
  631MOL0     H87028   8.633   1.878   8.834  0.3890 -0.2366  0.5170
  631MOL0     H87029   8.470   1.802   8.857  0.6926 -0.7526 -0.9336
  631MOL0     H87030   8.720   1.668   8.949 -0.6842 -0.5466  0.9732
  631MOL0     H87031   8.547   1.628   8.975 -0.9241  0.0421 -0.6848
  631MOL0     H87032   8.605   1.503   8.784  0.6856 -0.4618  1.2869
  631MOL0     H87033   8.523   1.643   8.715  0.4280  0.4969  1.1979
  631MOL0     H87034   8.702   1.588   8.590 -2.2615  1.3263  0.0578
  631MOL0     H87035   8.737   1.742   8.673  0.5235 -0.0322 -0.6568
  631MOL0     H87036   8.925   1.681   8.488 -0.0439 -2.3193 -0.0456
  631MOL0     H87037   9.257   1.730   8.349  0.5995  0.9755  0.2307
  631MOL0     H87038   9.178   1.874   8.413  0.5020  0.5367 -3.6121
  631MOL0     H87039   9.095   1.753   8.314 -0.1316  0.6911  1.1073
  631MOL0     H87040   9.591   1.761   8.809  0.4015  1.5760 -0.4069
  631MOL0     H87041   9.833   1.822   8.779  0.4915  1.9688 -2.1772
  631MOL0     H87042  10.039   1.587   8.760 -2.4064 -1.3971 -1.0993
  631MOL0     H87043  10.107   1.527   8.605  1.8761  0.2354  0.4359
  631MOL0     H87044  10.304   1.661   8.625  0.2392 -1.8914 -0.0667
  631MOL0     H87045  10.217   1.780   8.727 -1.0942  0.0475 -0.9770
  631MOL0     H87046  10.309   1.494   8.803 -2.4823 -1.5700  1.1079
  631MOL0     H87047  10.211   1.571   8.903  0.7030 -1.7390 -0.8147
  631MOL0     H87048  10.364   1.775   8.921  0.3540  0.3137 -0.0580
  631MOL0     H87049  10.492   1.700   8.831  1.2253 -3.4839  0.1278
  631MOL0     H87050  10.525   1.665   9.065 -2.0355  0.4868  0.8357
  631MOL0     H87051  10.369   1.604   9.092  1.4777  1.4608  2.3772
  631MOL0     H87052  10.554   1.441   8.916 -0.5076 -0.9184 -0.5265
  631MOL0     H87053  10.409   1.384   8.999 -0.5345  0.5965  1.1055
  631MOL0     H87054  10.514   1.421   9.215  2.2186 -1.1427  0.9576
  631MOL0     H87055  10.649   1.494   9.147 -1.5793  2.1067  1.0600
  631MOL0     H87056  10.577   1.199   9.074 -1.3671  0.7554 -1.9458
  631MOL0     H87057  10.675   1.247   9.206 -0.6852  0.4394  0.9762
  631MOL0     H87058   9.879   1.533   8.472  2.0795  2.4650 -0.6464
  631MOL0     H87059   9.625   1.460   8.525 -1.9889  2.5002 -3.9258
  631MOL0     H87060   9.291   1.557   8.815 -0.0281 -0.6256  0.9981
  631MOL0     H87061   9.050   1.540   8.876  0.7524 -0.7187 -0.2881
  631MOL0     H87062   7.544   2.220   9.711 -0.6151 -0.1376 -1.2435
  631MOL0     H87063   7.324   2.120   9.770  1.8519  2.2367  0.2032
  631MOL0     H87064   6.885   1.848   9.632 -2.3024  0.9086  1.4220
  631MOL0     H87065   6.709   1.771   9.764  0.6333 -1.6553 -1.6165
  631MOL0     H87066   6.579   1.751  10.028 -1.1002 -1.3668  0.5628
  631MOL0     H87067   6.565   1.646   9.883  0.4375 -1.3674 -0.5450
  631MOL0     H87068   6.541   1.590  10.188 -0.2272 -5.0732  3.1780
  631MOL0     H87069   6.557   1.451  10.087 -0.4094  0.0567  2.2512
  631MOL0     H87070   6.337   1.647  10.056  2.1537  1.2432  0.4515
  631MOL0     H87071   6.348   1.487   9.978  0.6466  1.0786 -0.3282
  631MOL0     H87072   6.315   1.560  10.265  1.1625 -1.2637  1.3129
  631MOL0     H87073   6.358   1.387  10.220  0.7408  0.1461  1.1280
  631MOL0     H87074   5.960   1.416  10.097 -0.8381  1.6187  0.9277
  631MOL0     H87075   6.971   1.572  10.038 -0.6180 -2.4659 -1.0920
  631MOL0     H87076   7.278   1.699   9.939 -1.3433  3.0527  0.1224
  631MOL0     H87077   7.203   1.549   9.964  0.4576 -0.8633 -0.3795
  631MOL0     H87078   7.259   1.600   9.795 -2.1705  0.4542 -1.5663
  632MOL0     O87079  10.273   7.123   8.653  0.8532  0.2367 -0.3155
  632MOL0     C87080  10.303   7.185   8.552 -0.0721 -0.8545  0.6477
  632MOL0     O87081  10.350   7.313   8.549  0.0004  0.4116  0.1748
  632MOL0     C87082  10.417   7.363   8.662  1.1391  1.6984  0.0497
  632MOL0     C87083  10.503   7.289   8.744  0.4708 -0.3625 -0.1343
  632MOL0     C87084  10.562   7.352   8.856  0.3187  0.0453 -0.5228
  632MOL0     C87085  10.537   7.492   8.888 -0.2266  1.0335  0.6448
  632MOL0     O87086  10.601   7.560   8.978 -0.6711 -0.4065 -0.0825
  632MOL0     C87087  10.588   7.702   9.008  0.1453 -0.7501 -0.6831
  632MOL0     C87088  10.683   7.721   9.120 -0.6011 -0.1848  0.5755
  632MOL0     C87089  10.830   7.694   9.084 -0.3788 -0.5210  0.0863
  632MOL0     C87090  10.911   7.661   9.205 -0.9034  0.3174 -0.7143
  632MOL0     C87091  11.064   7.664   9.182  0.7300  0.1327  0.4007
  632MOL0     C87092  11.106   7.572   9.065 -0.3965 -0.1192 -0.0371
  632MOL0     C87093  11.258   7.578   9.043 -1.1056 -0.1870  0.3651
  632MOL0     C87094  11.298   7.521   8.912 -0.8507  0.3337  0.2184
  632MOL0     N87095  11.446   7.519   8.897 -0.0208 -0.0363  0.3351
  632MOL0     C87096  11.503   7.546   8.777  0.0760 -0.2322 -0.9648
  632MOL0     C87097  11.637   7.546   8.801 -0.6270 -0.5951 -0.5499
  632MOL0     C87098  11.747   7.569   8.698 -0.2014  0.6265  0.3448
  632MOL0     C87099  11.824   7.443   8.668  0.4004  0.8774 -0.2655
  632MOL0     C87100  11.915   7.386   8.783 -0.4419 -0.2651  0.1238
  632MOL0     C87101  11.965   7.254   8.732  0.0442  0.6234  0.2976
  632MOL0     O87102  12.046   7.185   8.831 -1.0367 -0.1111 -0.3180
  632MOL0     C87103  12.128   7.096   8.782  0.0629 -0.3074  0.2398
  632MOL0     C87104  12.256   7.102   8.831 -0.4167  0.2383  1.2543
  632MOL0     C87105  12.356   7.018   8.780  0.2776  0.6820  0.0577
  632MOL0     C87106  12.491   7.030   8.841  0.2509 -0.7232  0.0357
  632MOL0     C87107  12.327   6.926   8.672  0.1197 -0.2362  0.7705
  632MOL0     C87108  12.428   6.830   8.605 -0.2902 -1.4771  0.1805
  632MOL0     O87109  12.376   6.724   8.544 -1.0922  0.6870  0.9868
  632MOL0     C87110  12.454   6.635   8.478 -0.1268 -0.0646  1.0367
  632MOL0     C87111  12.405   6.605   8.348  0.7744  0.9815  0.3332
  632MOL0     C87112  12.488   6.524   8.269  0.1298  0.0494  0.3606
  632MOL0     C87113  12.610   6.473   8.309 -0.2272  0.0822 -0.2900
  632MOL0     O87114  12.692   6.409   8.222 -0.2974 -0.3336 -0.0282
  632MOL0     C87115  12.802   6.326   8.259 -0.5806  0.4979  0.0130
  632MOL0     C87116  12.938   6.403   8.244 -0.6365  0.3760  0.0927
  632MOL0     C87117  13.060   6.308   8.287  0.1263 -0.3613  0.7077
  632MOL0     C87118  13.093   6.210   8.172 -0.0011 -0.6730 -0.3466
  632MOL0     C87119  13.168   6.086   8.221 -0.7404  0.4651  0.7370
  632MOL0     C87120  13.321   6.097   8.195  0.2394  0.2111 -0.4017
  632MOL0     C87121  13.380   6.235   8.215  0.0420 -0.2986 -0.1667
  632MOL0     C87122  13.525   6.248   8.186  0.0150  0.4957 -0.1472
  632MOL0    Cl87123  13.637   6.176   8.316  0.3288  0.3789 -0.2203
  632MOL0     C87124  12.655   6.498   8.441 -0.3090 -0.9067  0.5169
  632MOL0     C87125  12.575   6.582   8.524 -0.3248  0.4570 -0.7939
  632MOL0     O87126  12.543   6.867   8.602  0.3842  0.8955 -0.0576
  632MOL0     C87127  12.195   6.924   8.626 -0.6235  0.8755 -0.5277
  632MOL0     C87128  12.096   6.995   8.691 -0.0827  0.3033  0.0245
  632MOL0     N87129  11.653   7.497   8.929  0.3624  0.2700  0.0156
  632MOL0     N87130  11.539   7.495   8.992  0.6904  0.0253 -0.1759
  632MOL0     C87131  10.451   7.560   8.798 -0.0942 -0.2260  0.3665
  632MOL0     C87132  10.393   7.492   8.690 -0.0032 -0.0210  0.6031
  632MOL0     C87133  10.260   7.123   8.421 -1.1418 -0.3397 -0.6218
  632MOL0     C87134  10.237   7.205   8.310 -0.7719 -0.1435  0.5843
  632MOL0     C87135  10.175   7.156   8.198 -0.7188 -0.4063  0.3249
  632MOL0     C87136  10.145   7.029   8.187  1.3305  0.1848  0.2627
  632MOL0     O87137  10.085   7.000   8.068 -0.0015  0.3333 -0.5141
  632MOL0     C87138  10.040   6.868   8.033  0.0590  0.2140  0.4605
  632MOL0     C87139  10.002   6.855   7.889  0.1932 -0.3457  0.7915
  632MOL0     C87140  10.120   6.914   7.790 -0.7976 -0.1245 -0.2285
  632MOL0     C87141  10.104   7.063   7.750 -0.1872  0.2700 -0.3718
  632MOL0     C87142  10.189   7.107   7.639 -0.1483  0.8059  0.0799
  632MOL0     C87143  10.273   7.136   7.553 -0.2399  0.7265 -0.3653
  632MOL0     C87144  10.162   6.938   8.293 -0.5606  0.8671 -0.1375
  632MOL0     C87145  10.221   6.986   8.410 -0.1789  0.7125  0.1204
  632MOL0     C87146  10.249   6.884   8.517 -0.6664  0.6516 -0.0213
  632MOL0     H87147  10.519   7.188   8.708  1.1942 -0.0809 -0.6177
  632MOL0     H87148  10.625   7.297   8.926  2.9072 -0.3304 -2.9688
  632MOL0     H87149  10.489   7.734   9.039  0.1513 -1.7050  0.4004
  632MOL0     H87150  10.619   7.772   8.930  1.0270  1.0379  1.1589
  632MOL0     H87151  10.666   7.822   9.159  2.4123  1.3032 -1.5417
  632MOL0     H87152  10.654   7.657   9.204  1.7578 -1.4652  0.5084
  632MOL0     H87153  10.844   7.612   9.013 -1.4176  0.0821 -0.8589
  632MOL0     H87154  10.862   7.789   9.039  0.3696 -1.6130 -1.7900
  632MOL0     H87155  10.888   7.738   9.279 -0.1256  1.1001 -1.2708
  632MOL0     H87156  10.878   7.564   9.244  0.7213 -0.5958 -1.4871
  632MOL0     H87157  11.113   7.618   9.270 -2.0202 -0.7813  1.5674
  632MOL0     H87158  11.104   7.764   9.166 -1.1893  1.1191  1.5025
  632MOL0     H87159  11.091   7.467   9.092 -0.2926  0.2041  1.3672
  632MOL0     H87160  11.057   7.591   8.969 -1.8911 -1.0260  0.5024
  632MOL0     H87161  11.307   7.525   9.125  0.2819  3.0778  1.8396
  632MOL0     H87162  11.289   7.683   9.047 -1.3901 -0.0703 -0.3354
  632MOL0     H87163  11.254   7.421   8.905  1.4689 -0.7698  0.3747
  632MOL0     H87164  11.258   7.576   8.827 -3.2367 -1.3066  0.1914
  632MOL0     H87165  11.457   7.581   8.685  1.1052  2.6559 -0.4819
  632MOL0     H87166  11.813   7.642   8.747 -0.4858  0.8004  0.4679
  632MOL0     H87167  11.714   7.608   8.601  2.9505  0.6058 -0.8614
  632MOL0     H87168  11.748   7.365   8.653  0.5869  0.4092  1.1221
  632MOL0     H87169  11.884   7.457   8.577 -0.0761 -1.4654 -1.0225
  632MOL0     H87170  11.997   7.458   8.795  1.5499 -2.5943  1.4224
  632MOL0     H87171  11.869   7.372   8.881 -1.0149  1.3817  0.1201
  632MOL0     H87172  11.885   7.188   8.699  0.3855  0.4638 -0.2242
  632MOL0     H87173  12.034   7.275   8.650  1.8022 -0.2721  1.4597
  632MOL0     H87174  12.291   7.167   8.911  1.4667  1.9198 -0.8092
  632MOL0     H87175  12.560   7.086   8.777  0.7725 -1.2032  0.1758
  632MOL0     H87176  12.521   6.926   8.854 -0.4378 -1.3049 -2.4378
  632MOL0     H87177  12.487   7.084   8.936  1.3541  1.9423 -1.3337
  632MOL0     H87178  12.312   6.653   8.320  0.7946 -0.2491 -2.0868
  632MOL0     H87179  12.459   6.500   8.167  3.3444 -1.3254 -0.3413
  632MOL0     H87180  12.782   6.284   8.358  0.6488 -2.4111 -0.8578
  632MOL0     H87181  12.808   6.241   8.191  2.1174  0.9634 -0.4309
  632MOL0     H87182  12.942   6.442   8.141  4.0673  1.8547  0.5905
  632MOL0     H87183  12.945   6.487   8.313  1.8505  2.7064 -2.6688
  632MOL0     H87184  13.030   6.243   8.369  0.1356  0.4151  1.3408
  632MOL0     H87185  13.151   6.367   8.303 -0.0900  1.0604 -2.3942
  632MOL0     H87186  13.140   6.264   8.089 -0.1756 -0.4635 -0.3112
  632MOL0     H87187  12.992   6.180   8.141 -1.6320 -1.0222  4.4255
  632MOL0     H87188  13.155   6.076   8.329 -0.2120  3.9611  1.2190
  632MOL0     H87189  13.133   5.992   8.176  0.5755  1.5208 -2.8343
  632MOL0     H87190  13.341   6.074   8.090 -1.0953 -2.1768 -0.1953
  632MOL0     H87191  13.371   6.026   8.262  1.4161  3.9874  3.1382
  632MOL0     H87192  13.361   6.272   8.317  0.9658  0.6026 -0.2969
  632MOL0     H87193  13.323   6.306   8.154  1.3496  0.7370 -0.2151
  632MOL0     H87194  13.538   6.356   8.177  1.0980  0.3748 -0.1519
  632MOL0     H87195  13.548   6.200   8.090 -1.3025 -2.5006  0.9102
  632MOL0     H87196  12.757   6.469   8.463 -0.6773 -3.4742 -0.7240
  632MOL0     H87197  12.622   6.617   8.616  2.7534 -3.5244 -0.5616
  632MOL0     H87198  12.177   6.852   8.547  0.8365 -0.4257  0.2646
  632MOL0     H87199  11.993   6.987   8.659 -0.1222  2.4741 -0.5595
  632MOL0     H87200  10.444   7.668   8.789 -0.3730 -0.1122  1.7313
  632MOL0     H87201  10.333   7.533   8.610  0.8514 -4.3392 -2.6082
  632MOL0     H87202  10.253   7.312   8.316  3.1421 -0.6291  1.9280
  632MOL0     H87203  10.147   7.219   8.114  0.2725 -1.7232 -1.0432
  632MOL0     H87204  10.111   6.787   8.053  1.6754 -0.2550 -5.4187
  632MOL0     H87205   9.953   6.844   8.095  2.0722 -1.0272  2.9959
  632MOL0     H87206   9.905   6.904   7.879 -0.0998 -1.3106 -1.6854
  632MOL0     H87207   9.982   6.751   7.861 -2.2109 -0.1540  1.6042
  632MOL0     H87208  10.223   6.894   7.820  0.0506  0.9677 -2.2115
  632MOL0     H87209  10.125   6.851   7.701  0.3720 -0.6604  0.1952
  632MOL0     H87210  10.120   7.118   7.842  4.2656 -0.4657 -0.4754
  632MOL0     H87211   9.999   7.078   7.723 -0.6785  0.1684  1.4125
  632MOL0     H87212  10.336   7.177   7.477  4.6141 -3.4073  0.9431
  632MOL0     H87213  10.128   6.836   8.288 -3.3307  1.6454  1.0097
  632MOL0     H87214  10.349   6.914   8.549 -0.1639  0.7613 -1.6039
  632MOL0     H87215  10.176   6.884   8.599 -0.6393 -3.6179  0.2273
  632MOL0     H87216  10.252   6.781   8.478  1.8003  2.0336 -4.0812
  633MOL0     O87217   9.936  10.745   2.362  0.6836  0.1334 -0.3068
  633MOL0     C87218  10.006  10.660   2.310  1.0616  1.0320  0.0078
  633MOL0     O87219  10.057  10.546   2.376 -0.3357 -0.1946  0.4351
  633MOL0     C87220  10.032  10.546   2.513  1.2093  0.2410 -0.9788
  633MOL0     C87221   9.907  10.550   2.579  0.8331 -0.2505  0.0938
  633MOL0     C87222   9.890  10.528   2.715 -0.7005  0.5205 -0.0657
  633MOL0     C87223  10.005  10.492   2.796 -0.7385  0.2069 -0.4543
  633MOL0     O87224   9.983  10.465   2.928  0.2074 -0.8342 -0.0616
  633MOL0     C87225  10.073  10.384   2.996  1.1198 -0.1266 -0.0044
  633MOL0     C87226   9.985  10.325   3.117 -0.9068  0.8889  1.0689
  633MOL0     C87227   9.925  10.430   3.203 -0.3662 -0.4012 -0.1554
  633MOL0     C87228   9.836  10.367   3.315  0.0262  0.1775 -1.0431
  633MOL0     C87229   9.796  10.476   3.415 -0.7112 -0.1636  0.1633
  633MOL0     C87230   9.699  10.422   3.525  0.6346  0.1607  0.2380
  633MOL0     C87231   9.684  10.532   3.626 -0.7405 -0.5314 -0.3816
  633MOL0     C87232   9.580  10.507   3.730  0.1865  0.4197  0.1393
  633MOL0     N87233   9.586  10.624   3.810  0.5371 -0.0220  0.6221
  633MOL0     C87234   9.533  10.747   3.794  0.0668  0.8096  0.4621
  633MOL0     C87235   9.582  10.826   3.897  0.1707 -0.4608 -0.0321
  633MOL0     C87236   9.562  10.971   3.904  0.6735  0.6231  0.4358
  633MOL0     C87237   9.680  11.054   3.844  0.2301 -0.1106  0.0527
  633MOL0     C87238   9.657  11.093   3.699 -0.3353 -0.6616 -0.1686
  633MOL0     C87239   9.557  11.210   3.690 -0.6204 -0.1703 -0.2312
  633MOL0     O87240   9.593  11.327   3.770  0.6487 -0.2493  0.0425
  633MOL0     C87241   9.702  11.411   3.733 -0.1057  0.3830 -0.2791
  633MOL0     C87242   9.724  11.445   3.604  0.1162 -0.7493 -0.6677
  633MOL0     C87243   9.826  11.526   3.564 -0.2309  0.4417  0.2829
  633MOL0     C87244   9.822  11.569   3.418  0.0980 -0.0236  0.0102
  633MOL0     C87245   9.909  11.584   3.663  0.1326  0.7398 -0.2447
  633MOL0     C87246  10.025  11.681   3.639  0.4830 -0.0724  0.3160
  633MOL0     O87247  10.109  11.700   3.738  0.1376  0.3745 -0.3604
  633MOL0     C87248  10.187  11.814   3.722  0.7706 -0.6697 -0.1162
  633MOL0     C87249  10.133  11.943   3.725 -0.4486 -0.0951 -0.2526
  633MOL0     C87250  10.215  12.057   3.728  0.1727  0.2967 -0.4584
  633MOL0     C87251  10.357  12.049   3.725 -0.0682 -0.5960 -1.2713
  633MOL0     O87252  10.442  12.154   3.727  0.2439  0.1015  0.6641
  633MOL0     C87253  10.389  12.282   3.732  0.2108 -1.1551 -0.4396
  633MOL0     C87254  10.513  12.383   3.755  0.9823 -0.2834 -0.6574
  633MOL0     C87255  10.570  12.423   3.619 -0.1537 -0.1245  0.0139
  633MOL0     C87256  10.701  12.517   3.631  0.1812  0.3452  0.2738
  633MOL0     C87257  10.762  12.536   3.489 -0.1333 -0.3541  0.0351
  633MOL0     C87258  10.841  12.422   3.427 -0.2508 -0.0168 -0.3713
  633MOL0     C87259  10.780  12.286   3.409 -0.7770  0.5831 -0.2212
  633MOL0     C87260  10.868  12.195   3.330  0.4888  0.3674  0.2495
  633MOL0    Cl87261  11.007  12.153   3.438 -0.0089  0.0830  0.0535
  633MOL0     C87262  10.401  11.926   3.724  0.6946 -0.1329  0.4193
  633MOL0     C87263  10.325  11.808   3.712 -1.0688 -0.3848 -0.1624
  633MOL0     O87264  10.030  11.743   3.530  0.2234 -0.3185 -0.7015
  633MOL0     C87265   9.895  11.557   3.800 -0.0115  0.6339 -0.3971
  633MOL0     C87266   9.797  11.463   3.829 -0.0051 -0.6569 -0.4179
  633MOL0     N87267   9.665  10.748   3.975 -0.8959 -0.2912 -0.1088
  633MOL0     N87268   9.666  10.630   3.921 -0.1945 -1.2472  0.3479
  633MOL0     C87269  10.130  10.505   2.736  0.9660 -0.8084  0.2588
  633MOL0     C87270  10.145  10.526   2.599  0.4030  0.0645  0.0601
  633MOL0     C87271  10.074  10.686   2.176 -0.5972  0.8273 -0.0943
  633MOL0     C87272  10.158  10.588   2.124  0.1041  0.4336 -0.0829
  633MOL0     C87273  10.218  10.600   2.000  0.6575  0.2169  0.4320
  633MOL0     C87274  10.196  10.710   1.925  0.5352 -0.1588  0.0982
  633MOL0     O87275  10.254  10.707   1.801  0.9209 -0.2315  0.1387
  633MOL0     C87276  10.366  10.791   1.791  0.2473 -0.3931 -0.1660
  633MOL0     C87277  10.464  10.708   1.708  0.2825  0.0256 -0.1742
  633MOL0     C87278  10.501  10.574   1.778  0.0332 -0.2598  0.1787
  633MOL0     C87279  10.590  10.483   1.695  0.3367  0.2746  0.1881
  633MOL0     C87280  10.701  10.548   1.628  0.8335  1.8026  0.5772
  633MOL0     C87281  10.793  10.605   1.576  1.1475 -0.6066 -0.1214
  633MOL0     C87282  10.123  10.817   1.977 -0.3399  0.5087  1.1541
  633MOL0     C87283  10.049  10.808   2.099  0.1642 -0.8715  0.4664
  633MOL0     C87284   9.980  10.926   2.137 -0.2319 -0.1637 -0.2612
  633MOL0     H87285   9.823  10.554   2.510  2.5423  1.7921 -2.0416
  633MOL0     H87286   9.792  10.515   2.760 -1.0744 -0.4421 -1.1391
  633MOL0     H87287  10.165  10.431   3.031 -0.1551  2.1049  0.5694
  633MOL0     H87288  10.094  10.296   2.935 -3.4956 -0.1225 -2.0325
  633MOL0     H87289   9.902  10.263   3.082 -1.0797  0.8475  1.5455
  633MOL0     H87290  10.051  10.251   3.163  1.8292  1.3819 -1.7219
  633MOL0     H87291  10.003  10.490   3.250 -1.8462  1.4943  0.0308
  633MOL0     H87292   9.869  10.500   3.141  3.7924  3.5060 -0.0056
  633MOL0     H87293   9.739  10.341   3.272 -1.7956  2.3456  1.4418
  633MOL0     H87294   9.884  10.281   3.362  0.7454 -0.2728 -2.5291
  633MOL0     H87295   9.757  10.565   3.366 -4.6940 -2.5061 -1.3411
  633MOL0     H87296   9.880  10.518   3.471 -1.7357  1.8888  0.2428
  633MOL0     H87297   9.601  10.412   3.478  1.6805  0.5991 -2.1922
  633MOL0     H87298   9.733  10.327   3.567 -0.7684 -1.2486 -1.6166
  633MOL0     H87299   9.655  10.622   3.571  1.1066 -1.1825 -2.6252
  633MOL0     H87300   9.778  10.544   3.680 -2.1327 -1.8006  2.5060
  633MOL0     H87301   9.485  10.500   3.676 -0.4867  0.3539  1.2906
  633MOL0     H87302   9.597  10.420   3.794  2.9023 -0.4360 -1.5546
  633MOL0     H87303   9.469  10.775   3.711  0.2447 -2.8514 -1.0947
  633MOL0     H87304   9.535  11.000   4.005 -1.0804  3.2713 -0.6836
  633MOL0     H87305   9.475  10.989   3.841  0.6235  0.9556  0.5995
  633MOL0     H87306   9.707  11.142   3.903  0.3831  1.0225 -1.6261
  633MOL0     H87307   9.769  10.990   3.844 -0.4111 -1.0317  1.1943
  633MOL0     H87308   9.749  11.123   3.648  0.3429 -1.1532  0.7427
  633MOL0     H87309   9.618  11.011   3.637  0.4495 -1.3694  0.2593
  633MOL0     H87310   9.543  11.239   3.586 -1.4346 -0.5329 -0.2280
  633MOL0     H87311   9.458  11.192   3.733 -0.9928  0.0544 -0.9911
  633MOL0     H87312   9.656  11.403   3.531  1.5892 -2.2374 -1.2353
  633MOL0     H87313   9.922  11.571   3.372  0.5436  1.6483  0.9705
  633MOL0     H87314   9.775  11.667   3.409 -3.4200 -1.5925 -0.5507
  633MOL0     H87315   9.750  11.512   3.358 -1.2902 -0.2169  1.7860
  633MOL0     H87316  10.026  11.960   3.728 -0.5706 -0.8578 -0.2269
  633MOL0     H87317  10.165  12.153   3.736 -6.4303 -2.7725  1.7611
  633MOL0     H87318  10.343  12.309   3.637 -0.8524 -0.9069  0.1263
  633MOL0     H87319  10.315  12.285   3.813  0.4118  1.1110 -0.2911
  633MOL0     H87320  10.491  12.479   3.802  0.1221 -1.4675  1.4697
  633MOL0     H87321  10.585  12.320   3.809 -2.7189 -1.7625  3.0962
  633MOL0     H87322  10.496  12.465   3.551  0.4343 -1.4245 -1.4931
  633MOL0     H87323  10.604  12.327   3.578 -1.3511 -0.5791  0.0502
  633MOL0     H87324  10.767  12.471   3.705 -1.0424 -0.9621  0.6058
  633MOL0     H87325  10.671  12.610   3.681  0.1016 -0.1113  1.1061
  633MOL0     H87326  10.685  12.565   3.416  1.4324  3.2449 -0.4346
  633MOL0     H87327  10.821  12.629   3.489 -2.9325  1.6062 -1.9255
  633MOL0     H87328  10.938  12.414   3.478 -1.0541 -0.5759  1.1212
  633MOL0     H87329  10.854  12.458   3.324 -0.6521 -0.9712 -0.7708
  633MOL0     H87330  10.688  12.294   3.351 -0.7291  0.3551 -0.3268
  633MOL0     H87331  10.756  12.237   3.504 -0.2889 -0.8390 -0.8117
  633MOL0     H87332  10.906  12.241   3.238 -1.4039 -1.9737 -1.8572
  633MOL0     H87333  10.806  12.109   3.302 -0.4224  1.6055 -1.7152
  633MOL0     H87334  10.507  11.903   3.728  0.2830 -2.4467 -0.2890
  633MOL0     H87335  10.361  11.706   3.700 -0.4530 -0.0254 -1.4882
  633MOL0     H87336   9.961  11.593   3.879  2.4915 -1.6412 -1.2885
  633MOL0     H87337   9.795  11.432   3.933  2.0842 -0.8312 -0.3877
  633MOL0     H87338  10.213  10.506   2.807 -0.3799  3.5800  2.0702
  633MOL0     H87339  10.238  10.520   2.543 -2.1800 -0.0316 -4.6234
  633MOL0     H87340  10.193  10.515   2.196 -3.0741 -1.2641 -0.0473
  633MOL0     H87341  10.283  10.517   1.974 -1.6977 -1.7249  0.4018
  633MOL0     H87342  10.343  10.891   1.754  0.2411 -1.0062 -1.9069
  633MOL0     H87343  10.419  10.816   1.884  4.5972 -1.9918 -1.9377
  633MOL0     H87344  10.551  10.774   1.700  1.6976 -0.7534  5.0892
  633MOL0     H87345  10.426  10.685   1.609 -1.6620  2.3648 -0.0412
  633MOL0     H87346  10.554  10.595   1.871  2.7641  1.7131 -1.6496
  633MOL0     H87347  10.416  10.509   1.799  0.9391 -0.5909  3.2141
  633MOL0     H87348  10.530  10.444   1.612  0.0358 -2.1063  1.4255
  633MOL0     H87349  10.612  10.388   1.744 -3.9305 -2.2335 -2.1510
  633MOL0     H87350  10.870  10.654   1.520  1.9960 -1.3136  0.4079
  633MOL0     H87351  10.124  10.899   1.906  0.0214 -0.3943  0.0830
  633MOL0     H87352  10.015  10.960   2.234 -4.0366 -1.3772  1.7688
  633MOL0     H87353   9.981  11.010   2.067 -2.2785  2.0663  2.1713
  633MOL0     H87354   9.873  10.906   2.153  0.0011 -0.2700  1.2609
  634MOL0     O87355   7.453   7.029  10.810  0.2653 -1.2343  0.6727
  634MOL0     C87356   7.345   6.982  10.774  0.1746  0.2879  0.3066
  634MOL0     O87357   7.275   6.887  10.841  0.5029  0.1527  0.7959
  634MOL0     C87358   7.291   6.845  10.971 -0.4519  0.6700  0.6837
  634MOL0     C87359   7.207   6.739  11.009 -0.2150 -0.4149  0.5356
  634MOL0     C87360   7.183   6.706  11.147 -0.4427  0.3163  0.5254
  634MOL0     C87361   7.265   6.779  11.241  0.1668  0.9032  0.6010
  634MOL0     O87362   7.246   6.750  11.377  0.4394 -0.6122  0.2088
  634MOL0     C87363   7.369   6.721  11.442 -0.3829  0.6733 -1.5499
  634MOL0     C87364   7.379   6.605  11.542  0.4564  0.1729 -1.2915
  634MOL0     C87365   7.307   6.633  11.681  0.4041 -0.0026  0.7269
  634MOL0     C87366   7.318   6.518  11.776 -0.6259  0.1219 -0.6433
  634MOL0     C87367   7.221   6.526  11.888 -0.4712 -0.4882 -0.8024
  634MOL0     C87368   7.070   6.490  11.864 -0.4933 -0.0676  0.0250
  634MOL0     C87369   7.006   6.474  11.997  0.3514  0.3106 -0.0538
  634MOL0     C87370   6.870   6.404  11.968  0.7464 -0.0296  0.0938
  634MOL0     N87371   6.782   6.389  12.080  0.4974 -0.4953 -0.4050
  634MOL0     C87372   6.792   6.459  12.197  1.0893  0.4353  0.1534
  634MOL0     C87373   6.677   6.435  12.267 -1.1845 -0.7261 -0.2511
  634MOL0     C87374   6.627   6.494  12.400  0.4467  1.0212  0.3303
  634MOL0     C87375   6.486   6.561  12.388 -0.2312 -0.3753 -0.7076
  634MOL0     C87376   6.469   6.701  12.474 -0.9223 -0.1960  0.1918
  634MOL0     C87377   6.497   6.679  12.618 -0.3193 -0.5713 -0.0769
  634MOL0     O87378   6.633   6.651  12.637  0.8021 -0.8807  0.2313
  634MOL0     C87379   6.735   6.754  12.648  0.1398 -0.0423  0.0419
  634MOL0     C87380   6.714   6.892  12.669  0.4936  0.0150  0.0794
  634MOL0     C87381   6.819   6.975  12.700  0.2363 -0.6108  0.1354
  634MOL0     C87382   6.789   7.119  12.712  0.0682 -0.1141 -0.9836
  634MOL0     C87383   6.947   6.931  12.713  1.1880  1.1833  0.0996
  634MOL0     C87384   7.073   7.009  12.752 -0.4770 -0.0316 -0.0035
  634MOL0     O87385   7.194   6.943  12.750 -0.4788  0.3831 -0.6163
  634MOL0     C87386   7.295   6.987  12.833  0.6849  0.6536 -0.1808
  634MOL0     C87387   7.291   6.981  12.970  0.1851  0.3462  0.2037
  634MOL0     C87388   7.392   7.041  13.049 -0.2008  0.9170 -0.2202
  634MOL0     C87389   7.492   7.114  12.993  0.2726 -0.0701 -0.4787
  634MOL0     O87390   7.571   7.186  13.083  0.3242 -0.9634 -0.1273
  634MOL0     C87391   7.673   7.286  13.034 -0.1707 -0.5315 -0.0702
  634MOL0     C87392   7.757   7.358  13.136 -0.6462  0.4361  0.1645
  634MOL0     C87393   7.850   7.259  13.218  1.2863  0.5792  0.3339
  634MOL0     C87394   7.962   7.197  13.132  0.0445  0.1183 -0.3453
  634MOL0     C87395   7.999   7.056  13.180 -0.5874 -0.4007  0.1994
  634MOL0     C87396   8.052   7.032  13.316 -0.4457 -0.4080 -0.2890
  634MOL0     C87397   8.165   7.120  13.374  0.3279  0.0419  0.6988
  634MOL0     C87398   8.195   7.090  13.522 -0.7729 -0.3182 -0.1187
  634MOL0    Cl87399   8.243   6.917  13.545  0.3157 -0.5195  0.2843
  634MOL0     C87400   7.499   7.129  12.852 -0.2134 -0.0603 -0.3715
  634MOL0     C87401   7.404   7.066  12.773  0.6500 -0.3875  0.4357
  634MOL0     O87402   7.059   7.123  12.793  0.2114 -0.7287  0.2930
  634MOL0     C87403   6.962   6.786  12.698 -0.6892 -0.7403  0.6302
  634MOL0     C87404   6.860   6.703  12.654 -0.0471 -0.4222  0.2279
  634MOL0     N87405   6.610   6.334  12.198 -0.4328 -0.3037 -0.7628
  634MOL0     N87406   6.671   6.315  12.090 -0.7241 -0.4751 -1.0090
  634MOL0     C87407   7.342   6.884  11.211  0.0423 -0.1584 -0.1423
  634MOL0     C87408   7.365   6.905  11.074  0.4158 -0.2520  0.1302
  634MOL0     C87409   7.288   7.038  10.647  0.6698  0.4023  1.0253
  634MOL0     C87410   7.160   6.994  10.603  1.1737 -0.7314  0.3638
  634MOL0     C87411   7.102   7.049  10.491  0.5050 -1.1568 -0.1502
  634MOL0     C87412   7.157   7.143  10.417 -0.0981 -0.7885  0.8089
  634MOL0     O87413   7.096   7.191  10.300 -0.3203 -0.1576  0.2013
  634MOL0     C87414   7.176   7.172  10.183 -0.6202  0.5547  0.6760
  634MOL0     C87415   7.082   7.097  10.082 -0.7687 -0.3015  0.8154
  634MOL0     C87416   6.980   7.193  10.024  0.0923 -0.3910  1.0624
  634MOL0     C87417   7.037   7.316   9.938  0.0707  0.5222 -0.3480
  634MOL0     C87418   7.047   7.434  10.017 -0.0044 -1.0486  1.4308
  634MOL0     C87419   7.075   7.529  10.094  0.4314 -0.2694  0.2413
  634MOL0     C87420   7.278   7.189  10.450 -0.3259 -0.0745  0.1466
  634MOL0     C87421   7.351   7.134  10.557 -0.1921 -0.5990 -0.0698
  634MOL0     C87422   7.483   7.213  10.587 -0.2636  0.5447  0.3611
  634MOL0     H87423   7.161   6.676  10.933  0.7562  0.5181 -0.8744
  634MOL0     H87424   7.122   6.620  11.175 -1.4824  0.4186 -1.2560
  634MOL0     H87425   7.400   6.811  11.496  0.4091  0.4328 -1.5851
  634MOL0     H87426   7.447   6.686  11.374  1.5210 -3.5260  2.2392
  634MOL0     H87427   7.328   6.518  11.500 -2.5758  1.1362  0.1155
  634MOL0     H87428   7.487   6.588  11.548  0.4143  0.1871 -0.3662
  634MOL0     H87429   7.359   6.723  11.714 -1.4381  1.3935  0.0394
  634MOL0     H87430   7.201   6.662  11.670  0.3748 -0.2260  0.4140
  634MOL0     H87431   7.308   6.423  11.724 -0.8616 -0.6663  0.7895
  634MOL0     H87432   7.417   6.519  11.822 -1.6047  0.0854  1.5699
  634MOL0     H87433   7.204   6.630  11.917 -1.8656 -0.7414 -0.6313
  634MOL0     H87434   7.260   6.463  11.969  1.0922  1.0473 -0.2872
  634MOL0     H87435   7.032   6.574  11.805  1.0510  1.2385  0.8420
  634MOL0     H87436   7.072   6.395  11.809  4.2711 -0.2963  0.1829
  634MOL0     H87437   6.988   6.565  12.055 -0.0925  0.6625 -0.7304
  634MOL0     H87438   7.066   6.413  12.065 -0.0522  2.2645  2.2201
  634MOL0     H87439   6.812   6.463  11.896 -0.7922 -1.8525 -0.2173
  634MOL0     H87440   6.887   6.307  11.920  2.2959 -0.0869  0.7046
  634MOL0     H87441   6.878   6.518  12.229  2.7786 -2.8383  2.2256
  634MOL0     H87442   6.710   6.561  12.425  3.1576 -1.5375 -1.1288
  634MOL0     H87443   6.612   6.411  12.470 -0.5151 -1.1163 -2.2650
  634MOL0     H87444   6.474   6.586  12.282 -5.3898  1.1916  0.0010
  634MOL0     H87445   6.404   6.495  12.417 -1.1150  1.1931  0.5082
  634MOL0     H87446   6.534   6.782  12.438 -0.0174 -0.0488  2.0613
  634MOL0     H87447   6.366   6.735  12.458 -0.1952  1.0292 -2.6448
  634MOL0     H87448   6.463   6.764  12.678  0.4074  0.3950 -1.0052
  634MOL0     H87449   6.438   6.595  12.656  1.7211 -1.2053  1.9564
  634MOL0     H87450   6.615   6.936  12.675 -1.1850 -3.5925  3.0551
  634MOL0     H87451   6.806   7.159  12.812  1.8050  4.6146 -2.8835
  634MOL0     H87452   6.686   7.132  12.679  0.2902 -2.8736 -3.0928
  634MOL0     H87453   6.854   7.172  12.641  0.3949 -2.0643 -2.2205
  634MOL0     H87454   7.208   6.920  13.003 -1.6912  2.0087 -1.2277
  634MOL0     H87455   7.374   7.043  13.156  1.5881 -0.6769  0.1578
  634MOL0     H87456   7.738   7.227  12.970 -1.2918 -3.7809  1.5201
  634MOL0     H87457   7.632   7.363  12.969  2.7019  0.2584 -1.0411
  634MOL0     H87458   7.823   7.432  13.090  3.2084 -1.6688  1.7483
  634MOL0     H87459   7.691   7.417  13.200  0.1033  2.8322 -1.1368
  634MOL0     H87460   7.784   7.181  13.257 -1.8234  3.0253  0.3655
  634MOL0     H87461   7.900   7.316  13.297  0.3882  0.4491  1.0170
  634MOL0     H87462   8.043   7.269  13.118 -0.6479  0.6451 -1.8231
  634MOL0     H87463   7.933   7.186  13.027 -0.7965 -1.0194 -0.0179
  634MOL0     H87464   7.912   6.991  13.170  1.4275 -3.2242 -0.0806
  634MOL0     H87465   8.077   7.029  13.109 -1.8337  0.7940 -1.6966
  634MOL0     H87466   8.080   6.927  13.324  0.1039 -0.3119 -0.8595
  634MOL0     H87467   7.972   7.047  13.390  0.3905 -0.7284  0.7015
  634MOL0     H87468   8.142   7.227  13.378  1.0521  0.3013 -1.2421
  634MOL0     H87469   8.256   7.100  13.317 -0.1347 -3.0616  0.8674
  634MOL0     H87470   8.112   7.114  13.588 -1.0546  0.4602 -0.7449
  634MOL0     H87471   8.271   7.156  13.563 -2.5620  1.7598  0.0021
  634MOL0     H87472   7.562   7.203  12.803  0.3231  1.8319  2.9296
  634MOL0     H87473   7.389   7.090  12.669  1.3536  0.7986  0.6007
  634MOL0     H87474   7.054   6.734  12.725  0.9232 -0.5823 -3.7514
  634MOL0     H87475   6.882   6.596  12.653  0.7889 -0.2780  1.2146
  634MOL0     H87476   7.392   6.938  11.290 -1.8007  0.0644  0.9338
  634MOL0     H87477   7.430   6.987  11.044 -1.7512  1.8037  0.8144
  634MOL0     H87478   7.115   6.921  10.671 -5.7896  2.1615 -0.2916
  634MOL0     H87479   7.004   7.018  10.456 -1.2174  3.2970  0.1271
  634MOL0     H87480   7.231   7.258  10.147 -1.6820  1.3203  0.8346
  634MOL0     H87481   7.248   7.090  10.191 -0.3727  0.1512 -3.5863
  634MOL0     H87482   7.027   7.016  10.130 -2.1682 -1.8333 -3.0335
  634MOL0     H87483   7.142   7.055  10.001  2.0029 -0.5033  2.8212
  634MOL0     H87484   6.933   7.140   9.940  0.0064 -0.5408  1.2056
  634MOL0     H87485   6.889   7.217  10.080 -1.1259  0.1617 -1.0449
  634MOL0     H87486   6.976   7.329   9.848  0.3667 -0.3342 -0.6875
  634MOL0     H87487   7.134   7.274   9.908 -1.1426 -2.7814 -0.1585
  634MOL0     H87488   7.087   7.619  10.151 -1.2070  0.7076 -0.8678
  634MOL0     H87489   7.317   7.270  10.390 -3.9861  3.5210  2.1442
  634MOL0     H87490   7.572   7.152  10.570 -0.2500  1.7006 -6.0232
  634MOL0     H87491   7.487   7.306  10.530 -3.1273  1.5444  1.6402
  634MOL0     H87492   7.481   7.251  10.690 -0.3013 -0.0437  0.5821
  635MOL0     O87493   0.374   7.239   6.003 -0.0284 -0.7583  0.7770
  635MOL0     C87494   0.383   7.234   5.877 -0.6102 -0.7764 -0.7089
  635MOL0     O87495   0.496   7.206   5.809 -0.2863  0.0803  0.1808
  635MOL0     C87496   0.620   7.187   5.877  0.8008  0.5563 -0.3642
  635MOL0     C87497   0.704   7.087   5.835 -0.2986 -0.5343 -0.2020
  635MOL0     C87498   0.826   7.070   5.906 -0.7869  0.0883  0.2797
  635MOL0     C87499   0.856   7.134   6.018 -0.2244 -0.2950  0.7197
  635MOL0     O87500   0.961   7.092   6.088 -0.4119 -0.2395  0.0388
  635MOL0     C87501   0.925   7.033   6.211 -0.3342  0.5038 -0.7535
  635MOL0     C87502   1.044   6.981   6.294 -0.3859  0.5096  0.1081
  635MOL0     C87503   1.127   7.093   6.346  0.7096 -0.1636 -0.8644
  635MOL0     C87504   1.048   7.178   6.444  0.0273  0.0552 -0.2486
  635MOL0     C87505   1.117   7.294   6.506  0.2333 -0.1017 -0.2422
  635MOL0     C87506   1.142   7.412   6.418  0.5974 -0.0071  0.5646
  635MOL0     C87507   1.179   7.537   6.501 -0.0207  0.1167 -0.4093
  635MOL0     C87508   1.300   7.522   6.594 -0.2796 -0.1980  0.1303
  635MOL0     N87509   1.307   7.657   6.674 -0.4742 -0.7380  0.5075
  635MOL0     C87510   1.275   7.678   6.805  0.3973 -1.3088 -0.7964
  635MOL0     C87511   1.292   7.805   6.826  0.4615 -0.8816 -0.8564
  635MOL0     C87512   1.276   7.874   6.958  0.1516 -0.9798 -0.2324
  635MOL0     C87513   1.159   7.982   6.951 -0.0666  0.0199  0.4680
  635MOL0     C87514   1.139   8.064   7.081  0.5490  0.0678 -0.0942
  635MOL0     C87515   1.245   8.177   7.093  0.2378  0.4984  0.2740
  635MOL0     O87516   1.280   8.193   7.224 -0.1201  0.0174 -0.4162
  635MOL0     C87517   1.373   8.291   7.267  0.9484  0.7970 -0.0500
  635MOL0     C87518   1.460   8.357   7.179  0.9272  0.8307  0.6026
  635MOL0     C87519   1.566   8.435   7.222  0.4855 -0.1553  0.4803
  635MOL0     C87520   1.662   8.490   7.113  0.0057  0.2694 -0.2007
  635MOL0     C87521   1.586   8.438   7.362 -0.0161  0.0664 -0.0986
  635MOL0     C87522   1.707   8.480   7.423  0.1195 -0.3253  0.0647
  635MOL0     O87523   1.685   8.569   7.530 -0.5008 -0.0078  0.4584
  635MOL0     C87524   1.784   8.599   7.632  0.3084 -0.5863 -0.3429
  635MOL0     C87525   1.912   8.542   7.644 -0.2707  0.5103  0.1860
  635MOL0     C87526   1.993   8.580   7.749 -0.7998 -0.3120 -0.4248
  635MOL0     C87527   1.959   8.678   7.843  0.4818  0.0293 -0.0986
  635MOL0     O87528   2.042   8.710   7.946  0.1970 -0.0393 -0.2948
  635MOL0     C87529   2.067   8.850   7.969  0.0548 -0.2890  0.0592
  635MOL0     C87530   2.142   8.910   7.851  0.2641  1.1940 -0.5256
  635MOL0     C87531   2.291   8.891   7.860 -0.3114 -0.1391  0.7904
  635MOL0     C87532   2.375   8.957   7.748  0.1797  0.5081 -0.3486
  635MOL0     C87533   2.525   8.924   7.766  0.3300  0.2089 -0.0811
  635MOL0     C87534   2.608   9.021   7.676  0.3759  0.0306 -0.9631
  635MOL0     C87535   2.757   8.999   7.699  0.0763  0.4281  0.6049
  635MOL0     C87536   2.817   8.870   7.662  0.1546 -0.2063  0.5609
  635MOL0    Cl87537   2.780   8.841   7.481 -0.0261  0.5210 -0.0320
  635MOL0     C87538   1.832   8.736   7.826 -0.0975  0.5436  0.1009
  635MOL0     C87539   1.753   8.700   7.721  0.3827  0.2481  0.2033
  635MOL0     O87540   1.819   8.450   7.376 -0.3549 -0.3376  0.0661
  635MOL0     C87541   1.498   8.380   7.461  0.7910  0.9302  0.0488
  635MOL0     C87542   1.397   8.298   7.407  0.1609 -0.8537  0.3371
  635MOL0     N87543   1.320   7.866   6.703 -0.2988  0.2030 -1.7961
  635MOL0     N87544   1.332   7.776   6.615 -0.2933 -0.0449  0.1865
  635MOL0     C87545   0.767   7.234   6.066  0.1120 -0.6442 -0.2613
  635MOL0     C87546   0.663   7.272   5.983  0.7528  0.4229 -0.1358
  635MOL0     C87547   0.271   7.255   5.792 -0.2614 -0.8170  0.1049
  635MOL0     C87548   0.255   7.156   5.693 -0.8617  0.3697  1.4137
  635MOL0     C87549   0.167   7.174   5.598  0.5038 -0.5183  0.5208
  635MOL0     C87550   0.071   7.280   5.604  0.1725  0.0399 -0.6205
  635MOL0     O87551  -0.023   7.278   5.512 -0.6895 -0.0160  0.4961
  635MOL0     C87552  -0.160   7.296   5.548 -0.3549  0.4656 -0.6048
  635MOL0     C87553  -0.208   7.193   5.645  1.5338 -0.0444 -0.9353
  635MOL0     C87554  -0.366   7.209   5.669  0.0741 -1.2104  0.1885
  635MOL0     C87555  -0.424   7.110   5.772 -0.0598 -0.1323  0.5667
  635MOL0     C87556  -0.421   6.974   5.728  0.3193 -0.3108 -0.1887
  635MOL0     C87557  -0.426   6.852   5.711 -0.2796  0.0661  0.6674
  635MOL0     C87558   0.088   7.375   5.705 -0.0909 -0.5849  0.0989
  635MOL0     C87559   0.181   7.369   5.806 -0.3337  0.1278 -0.2698
  635MOL0     C87560   0.199   7.481   5.901 -0.1902  0.1852  0.2881
  635MOL0     H87561   0.672   7.029   5.749  1.5056 -3.6962  1.1055
  635MOL0     H87562   0.893   6.989   5.880  1.2385  0.9468  2.4391
  635MOL0     H87563   0.858   6.950   6.187 -1.4630  1.3725 -0.6840
  635MOL0     H87564   0.851   7.091   6.268 -3.3685 -1.1373 -2.7268
  635MOL0     H87565   1.011   6.905   6.366  2.2423 -2.0673 -1.2101
  635MOL0     H87566   1.109   6.921   6.230 -4.7977 -4.1819 -0.6045
  635MOL0     H87567   1.217   7.056   6.396 -0.8454 -2.4832  0.3755
  635MOL0     H87568   1.162   7.153   6.262 -0.6453  0.7771 -0.8022
  635MOL0     H87569   0.960   7.216   6.391  0.1671  3.2918  1.5913
  635MOL0     H87570   1.011   7.111   6.522 -3.1610 -0.9187 -2.3816
  635MOL0     H87571   1.206   7.267   6.564 -0.8719 -1.8868  0.7315
  635MOL0     H87572   1.050   7.323   6.587  0.3711  4.0662 -1.4051
  635MOL0     H87573   1.223   7.389   6.348 -1.1485 -0.1025 -1.5318
  635MOL0     H87574   1.053   7.428   6.356 -0.5565 -4.4050  0.7645
  635MOL0     H87575   1.092   7.582   6.549 -0.7719 -0.2709 -1.3793
  635MOL0     H87576   1.203   7.605   6.419  0.1721  0.6149  0.0535
  635MOL0     H87577   1.285   7.438   6.661  0.4424 -0.3580  0.1045
  635MOL0     H87578   1.391   7.507   6.535  0.2541  1.0104  0.6057
  635MOL0     H87579   1.249   7.599   6.875  3.3374 -2.2441 -0.6397
  635MOL0     H87580   1.370   7.923   6.984  0.0697 -1.7605  1.6932
  635MOL0     H87581   1.244   7.803   7.035 -1.6226  1.2355  1.1998
  635MOL0     H87582   1.164   8.041   6.859 -1.4896  3.6162  2.5005
  635MOL0     H87583   1.065   7.928   6.943 -0.7754  1.0033  1.7777
  635MOL0     H87584   1.044   8.119   7.082  0.8169  0.6773 -2.6619
  635MOL0     H87585   1.149   7.994   7.165  0.8602  0.3967  0.1409
  635MOL0     H87586   1.335   8.137   7.046 -0.2507 -2.4544  1.5838
  635MOL0     H87587   1.209   8.267   7.043  1.7496 -1.3001 -4.6385
  635MOL0     H87588   1.443   8.336   7.074 -0.1041  1.6141  0.5948
  635MOL0     H87589   1.604   8.479   7.021  0.0291 -0.7542 -0.1023
  635MOL0     H87590   1.750   8.425   7.118 -1.1775 -1.6493 -2.2716
  635MOL0     H87591   1.687   8.595   7.128 -1.2140  0.9803 -2.5885
  635MOL0     H87592   1.948   8.473   7.569  0.3325 -1.7735  2.4356
  635MOL0     H87593   2.097   8.550   7.746 -1.3888 -3.1969  2.3668
  635MOL0     H87594   1.971   8.902   7.982  1.2174  1.9159  0.3504
  635MOL0     H87595   2.132   8.874   8.054 -0.9545  0.6287  0.6093
  635MOL0     H87596   2.101   8.878   7.755  1.1023  2.8372 -1.4800
  635MOL0     H87597   2.119   9.018   7.849 -0.0345  1.1359 -0.3455
  635MOL0     H87598   2.321   8.786   7.852  1.4130  0.2833  1.2801
  635MOL0     H87599   2.330   8.925   7.957  0.9714 -0.5033  0.4328
  635MOL0     H87600   2.370   9.066   7.746 -0.3238  0.5573  1.6713
  635MOL0     H87601   2.345   8.912   7.653  2.6899 -0.3638 -0.8134
  635MOL0     H87602   2.544   8.935   7.873  2.0192  1.8698 -0.4970
  635MOL0     H87603   2.552   8.820   7.747  1.7519  0.5938 -0.2836
  635MOL0     H87604   2.573   9.119   7.709 -0.2353  0.0885 -1.7599
  635MOL0     H87605   2.579   9.011   7.571 -4.0512  1.1084 -0.0472
  635MOL0     H87606   2.793   9.029   7.798 -0.3607 -0.6443  1.0973
  635MOL0     H87607   2.809   9.065   7.629  0.3032  0.7725  1.0935
  635MOL0     H87608   2.768   8.798   7.729  0.4503 -0.6567  0.2955
  635MOL0     H87609   2.924   8.874   7.682 -0.3615 -1.3450  4.4155
  635MOL0     H87610   1.797   8.812   7.896  0.0318  1.6919 -1.0543
  635MOL0     H87611   1.659   8.751   7.701 -1.4295 -2.5343  1.0678
  635MOL0     H87612   1.524   8.375   7.566 -2.1055  0.2079  0.8175
  635MOL0     H87613   1.335   8.245   7.479 -1.9363 -0.9601 -1.4300
  635MOL0     H87614   0.791   7.293   6.154 -2.9987  0.1125  0.1968
  635MOL0     H87615   0.594   7.352   6.009  0.0688 -0.8487  2.1907
  635MOL0     H87616   0.334   7.082   5.687 -0.1204  1.2412 -1.2793
  635MOL0     H87617   0.187   7.119   5.506 -0.9678  0.2321 -0.2763
  635MOL0     H87618  -0.176   7.394   5.594  1.3901  0.5534 -0.1429
  635MOL0     H87619  -0.214   7.294   5.452 -1.2132 -2.2785 -0.1578
  635MOL0     H87620  -0.161   7.216   5.741 -2.4826  3.2111  0.5849
  635MOL0     H87621  -0.181   7.096   5.603  0.8517 -1.4297  1.6642
  635MOL0     H87622  -0.372   7.309   5.711  0.2843  0.3954 -3.2693
  635MOL0     H87623  -0.429   7.202   5.580  1.2174  1.6724 -0.9601
  635MOL0     H87624  -0.528   7.138   5.793  0.0175  1.1957 -0.6961
  635MOL0     H87625  -0.375   7.116   5.870  0.1237  1.1972  0.4070
  635MOL0     H87626  -0.414   6.746   5.701  1.5399  0.4358 -2.2612
  635MOL0     H87627   0.019   7.459   5.699 -2.0586 -2.1873 -1.5033
  635MOL0     H87628   0.126   7.472   5.982 -2.2246  1.0821 -1.3506
  635MOL0     H87629   0.301   7.475   5.940 -0.6891 -2.1151  1.3739
  635MOL0     H87630   0.181   7.575   5.848  0.2027 -0.1067 -0.3683
  636MOL0     O87631   1.911   9.704   6.225  0.0442  0.7146  0.0706
  636MOL0     C87632   1.827   9.653   6.303 -0.3965 -0.7104 -0.2649
  636MOL0     O87633   1.699   9.633   6.273  0.0726 -0.2473  0.3376
  636MOL0     C87634   1.639   9.667   6.154  0.1140  0.6030 -0.2254
  636MOL0     C87635   1.670   9.780   6.078 -0.0653 -0.2822  0.2590
  636MOL0     C87636   1.596   9.807   5.958 -0.6173 -0.3344  0.5021
  636MOL0     C87637   1.492   9.732   5.918  0.0165 -0.3112 -0.0598
  636MOL0     O87638   1.436   9.769   5.799 -0.0972  0.6318  0.6164
  636MOL0     C87639   1.299   9.739   5.786  0.1131  0.4931  0.1794
  636MOL0     C87640   1.208   9.811   5.678  0.6385 -0.2716  0.3428
  636MOL0     C87641   1.247   9.969   5.687 -0.4650 -0.1979 -0.0174
  636MOL0     C87642   1.165  10.056   5.600 -0.5209 -0.0457 -0.4214
  636MOL0     C87643   1.023  10.096   5.650  0.4125 -0.5401  0.2945
  636MOL0     C87644   0.951  10.189   5.554 -0.0467  0.5161  0.4001
  636MOL0     C87645   0.812  10.254   5.601  0.1564 -0.3109 -1.2645
  636MOL0     C87646   0.772  10.360   5.500  0.1978  0.1420  0.1773
  636MOL0     N87647   0.762  10.310   5.367  1.0171 -0.7812  0.0852
  636MOL0     C87648   0.657  10.225   5.330  0.2855  0.1161 -0.5042
  636MOL0     C87649   0.679  10.200   5.199  0.6750  0.3627 -0.6800
  636MOL0     C87650   0.586  10.105   5.122 -0.8395 -0.6458  0.4378
  636MOL0     C87651   0.650  10.068   4.982 -0.0056 -0.4282  0.1380
  636MOL0     C87652   0.581   9.951   4.921 -0.5183  0.6952 -0.2001
  636MOL0     C87653   0.649   9.880   4.809  1.2407  0.4139 -0.0378
  636MOL0     O87654   0.772   9.815   4.851 -0.6253 -0.2055  0.0279
  636MOL0     C87655   0.887   9.878   4.806 -0.1438 -0.5201  0.2680
  636MOL0     C87656   0.905  10.016   4.780  0.8567 -0.2770 -0.0897
  636MOL0     C87657   1.022  10.063   4.727 -1.1427  0.3996 -0.3952
  636MOL0     C87658   1.036  10.214   4.711 -0.0720  0.5989 -0.0610
  636MOL0     C87659   1.137   9.980   4.712 -0.3077 -0.2953 -0.4736
  636MOL0     C87660   1.269  10.021   4.656  0.5347 -0.4593 -0.2829
  636MOL0     O87661   1.275  10.140   4.600  0.3162  1.0203  0.3701
  636MOL0     C87662   1.397  10.196   4.576 -1.0202  0.7429 -0.1823
  636MOL0     C87663   1.511  10.186   4.663 -0.2489 -0.3891 -0.3985
  636MOL0     C87664   1.636  10.235   4.619  0.2566  0.1140 -0.3478
  636MOL0     C87665   1.665  10.292   4.500  0.2366 -0.5907  0.9864
  636MOL0     O87666   1.781  10.349   4.461 -0.3965  0.5182 -0.7164
  636MOL0     C87667   1.857  10.420   4.553 -1.3078 -0.2787  0.0637
  636MOL0     C87668   1.945  10.518   4.476 -0.4850 -0.1523  0.4253
  636MOL0     C87669   2.031  10.592   4.576 -0.2831  0.4589  0.1385
  636MOL0     C87670   2.164  10.639   4.516  0.8353 -0.2536  0.5467
  636MOL0     C87671   2.155  10.772   4.435 -0.2239  0.1954 -0.7404
  636MOL0     C87672   2.301  10.812   4.404 -0.5511  0.4265 -1.2140
  636MOL0     C87673   2.315  10.959   4.370 -0.1043 -0.3340 -0.8527
  636MOL0     C87674   2.467  10.982   4.358  0.4118  0.2769 -1.2651
  636MOL0    Cl87675   2.541  10.989   4.516  0.1630 -0.1390  0.3258
  636MOL0     C87676   1.556  10.294   4.405  0.7291  0.7192 -1.0783
  636MOL0     C87677   1.420  10.251   4.449 -0.0777 -0.1932  0.4027
  636MOL0     O87678   1.363   9.943   4.654  0.3320  0.5176  0.6080
  636MOL0     C87679   1.120   9.844   4.750 -0.2453 -0.6057  0.5225
  636MOL0     C87680   0.998   9.800   4.799  1.2018 -0.2996 -0.5693
  636MOL0     N87681   0.798  10.260   5.161  0.6366 -0.9512  0.0283
  636MOL0     N87682   0.847  10.317   5.264  1.1710 -0.2133  0.5217
  636MOL0     C87683   1.455   9.619   5.996 -0.8821  0.1324  0.4178
  636MOL0     C87684   1.531   9.587   6.108 -0.5166 -0.0365 -0.0101
  636MOL0     C87685   1.875   9.619   6.446 -0.6017  0.6818  0.6289
  636MOL0     C87686   1.805   9.541   6.527 -0.0595  0.1028  1.0205
  636MOL0     C87687   1.841   9.504   6.663 -0.6123 -0.5326  0.1500
  636MOL0     C87688   1.950   9.560   6.716  0.3806  0.0685 -0.6281
  636MOL0     O87689   1.980   9.528   6.850  0.4737 -0.9590  0.1617
  636MOL0     C87690   2.123   9.527   6.887 -0.8510  1.3546 -0.8832
  636MOL0     C87691   2.135   9.442   7.024  0.0003  0.8151 -0.2052
  636MOL0     C87692   2.104   9.289   7.004 -0.5600 -0.2302  0.5552
  636MOL0     C87693   1.958   9.249   7.045  0.0058 -0.4050 -0.1169
  636MOL0     C87694   1.921   9.114   7.002  0.2315 -0.0282 -0.1391
  636MOL0     C87695   1.907   8.993   6.978  0.6230 -0.4657 -0.1812
  636MOL0     C87696   2.029   9.645   6.640 -0.2537  0.6131 -0.0691
  636MOL0     C87697   1.998   9.664   6.503 -0.3162 -0.4083  1.0800
  636MOL0     C87698   2.092   9.751   6.423 -0.1700 -0.7465  0.2691
  636MOL0     H87699   1.749   9.850   6.102 -1.6564  1.5298  0.4686
  636MOL0     H87700   1.615   9.887   5.887 -1.2306 -0.6519 -0.0233
  636MOL0     H87701   1.253   9.767   5.881 -0.3519 -3.3805  1.2954
  636MOL0     H87702   1.286   9.631   5.771 -3.1613  0.8122  0.0695
  636MOL0     H87703   1.243   9.764   5.585  1.0784  0.9287 -0.1137
  636MOL0     H87704   1.104   9.787   5.702  1.0349 -1.4633  0.9558
  636MOL0     H87705   1.233  10.014   5.786 -1.2001  0.9769 -0.6346
  636MOL0     H87706   1.350   9.988   5.655 -0.5016 -1.7389 -1.1871
  636MOL0     H87707   1.213  10.152   5.579 -0.5819  0.7987  2.8067
  636MOL0     H87708   1.153  10.010   5.502  0.0481 -0.0263 -0.5007
  636MOL0     H87709   1.029  10.122   5.756 -0.3102 -2.3411  0.8267
  636MOL0     H87710   0.949  10.015   5.652 -2.4756  1.8306 -1.3481
  636MOL0     H87711   1.024  10.256   5.507  0.5800  0.6190  1.4790
  636MOL0     H87712   0.926  10.128   5.467  2.3686 -1.6366  1.0916
  636MOL0     H87713   0.815  10.299   5.701  1.8037  1.2426 -1.9603
  636MOL0     H87714   0.731  10.180   5.602  0.4103 -0.9362  4.0233
  636MOL0     H87715   0.670  10.394   5.523 -0.7117 -2.2644 -0.0815
  636MOL0     H87716   0.845  10.441   5.490  2.9881 -2.5256 -2.7315
  636MOL0     H87717   0.580  10.186   5.395  1.4149 -0.6431  0.4185
  636MOL0     H87718   0.489  10.151   5.103 -1.4141 -2.5095 -1.5209
  636MOL0     H87719   0.567  10.022   5.191 -1.1413  0.5974  1.9114
  636MOL0     H87720   0.640  10.147   4.907 -0.9850 -2.1997 -1.6725
  636MOL0     H87721   0.755  10.042   4.997  0.6779  0.7828 -2.0687
  636MOL0     H87722   0.574   9.876   5.001  1.3415 -0.1874 -0.8124
  636MOL0     H87723   0.481   9.984   4.891  0.3249  3.0373 -0.6295
  636MOL0     H87724   0.578   9.803   4.782 -0.0865  1.5272  0.1759
  636MOL0     H87725   0.653   9.952   4.727 -1.2841 -0.4675 -1.0180
  636MOL0     H87726   0.819  10.081   4.793 -0.1083 -0.7978 -3.0127
  636MOL0     H87727   1.126  10.242   4.767 -0.7796 -0.2018  1.5382
  636MOL0     H87728   0.953  10.265   4.760 -0.9521 -1.6423  0.8683
  636MOL0     H87729   1.028  10.246   4.606 -2.3157  1.7608  0.4073
  636MOL0     H87730   1.504  10.146   4.764  0.5199 -3.7422 -1.5477
  636MOL0     H87731   1.725  10.219   4.679  3.0072 -0.3835 -4.1738
  636MOL0     H87732   1.795  10.485   4.615  1.0403  2.4645 -0.2510
  636MOL0     H87733   1.918  10.362   4.623 -0.1839 -1.0244 -1.4574
  636MOL0     H87734   2.000  10.458   4.402  2.0561 -0.4176  2.3964
  636MOL0     H87735   1.885  10.588   4.418  0.4980  0.0250 -0.4091
  636MOL0     H87736   2.062  10.536   4.665  1.5945  1.0827 -0.0721
  636MOL0     H87737   1.979  10.682   4.612  0.4857  0.1398  2.1949
  636MOL0     H87738   2.198  10.552   4.459 -0.9500 -0.2050 -0.6736
  636MOL0     H87739   2.232  10.656   4.600  1.4323  3.2379 -0.5087
  636MOL0     H87740   2.108  10.748   4.340  0.4973 -0.8920 -0.8324
  636MOL0     H87741   2.103  10.859   4.477 -0.9337 -0.8846  0.7015
  636MOL0     H87742   2.344  10.753   4.323  1.0052  1.3283 -1.0637
  636MOL0     H87743   2.359  10.794   4.495  1.1475  0.7808 -2.1947
  636MOL0     H87744   2.274  11.026   4.447  0.7776 -0.3653 -0.3489
  636MOL0     H87745   2.269  10.980   4.273  0.3364  3.1238 -0.4264
  636MOL0     H87746   2.469  11.074   4.299 -2.0704  0.0022 -1.9062
  636MOL0     H87747   2.522  10.901   4.309 -0.2878 -1.4725  0.7117
  636MOL0     H87748   1.556  10.345   4.310 -0.0523  0.4290 -1.2495
  636MOL0     H87749   1.335  10.264   4.384  0.2107  2.8322  0.4780
  636MOL0     H87750   1.198   9.773   4.727  1.5701  0.6993  2.3178
  636MOL0     H87751   0.985   9.697   4.831  0.9307  0.1354  0.7619
  636MOL0     H87752   1.372   9.554   5.970 -1.3112 -0.9247  3.9571
  636MOL0     H87753   1.511   9.493   6.159 -0.4386 -0.7987 -1.3438
  636MOL0     H87754   1.707   9.510   6.493  1.1888  1.4129 -4.9059
  636MOL0     H87755   1.782   9.442   6.729 -0.3625 -0.2041  0.6881
  636MOL0     H87756   2.178   9.490   6.800  0.6018 -0.4628  0.7083
  636MOL0     H87757   2.156   9.627   6.916  1.4512  0.2140  0.7738
  636MOL0     H87758   2.062   9.473   7.100  3.3100  0.3075  3.4736
  636MOL0     H87759   2.235   9.452   7.066 -0.2597  0.8569  0.4169
  636MOL0     H87760   2.142   9.262   6.905 -0.7572  1.1128  0.0940
  636MOL0     H87761   2.174   9.233   7.068  1.1568  1.8190  0.5682
  636MOL0     H87762   1.884   9.316   7.001 -0.7298  0.0644  1.7401
  636MOL0     H87763   1.945   9.259   7.153  1.2766 -1.1447  0.1204
  636MOL0     H87764   1.890   8.888   6.966 -1.4644 -0.3601  1.3588
  636MOL0     H87765   2.114   9.702   6.677 -1.0908  0.2354  2.6906
  636MOL0     H87766   2.046   9.842   6.384  0.6143 -0.8845 -1.0288
  636MOL0     H87767   2.173   9.780   6.491 -1.5665  0.7279  1.3777
  636MOL0     H87768   2.138   9.689   6.345  1.1327 -0.9178  1.1268
  637MOL0     O87769   5.342   7.741   5.303 -0.9207 -0.4367  0.7535
  637MOL0     C87770   5.459   7.708   5.289 -0.2624 -0.7469  0.4073
  637MOL0     O87771   5.497   7.576   5.258 -0.5059 -0.1027 -0.4228
  637MOL0     C87772   5.400   7.481   5.230 -0.0220  0.5066 -0.4028
  637MOL0     C87773   5.300   7.439   5.321  0.1069  0.3944 -0.0121
  637MOL0     C87774   5.230   7.314   5.298  0.6574  0.3288 -0.8117
  637MOL0     C87775   5.248   7.253   5.176 -0.2268 -1.1462 -0.8706
  637MOL0     O87776   5.176   7.140   5.142 -0.7082  0.6058  0.8048
  637MOL0     C87777   5.208   7.035   5.232  0.1354  0.6062 -0.0386
  637MOL0     C87778   5.111   6.915   5.211  0.1641 -0.0402  0.4450
  637MOL0     C87779   5.097   6.871   5.071 -0.5868 -0.1699  0.2652
  637MOL0     C87780   5.235   6.801   5.035 -0.2489 -0.4054  0.7242
  637MOL0     C87781   5.214   6.745   4.892  0.3464 -0.3787  0.3108
  637MOL0     C87782   5.345   6.723   4.815 -0.0856  0.6451 -0.7401
  637MOL0     C87783   5.405   6.852   4.750 -0.2350  0.4416 -0.4364
  637MOL0     C87784   5.532   6.806   4.686  0.0481  1.2960 -0.1401
  637MOL0     N87785   5.510   6.729   4.559 -0.9633  0.0398  0.2236
  637MOL0     C87786   5.414   6.758   4.470  0.8436  0.1812  0.5179
  637MOL0     C87787   5.401   6.651   4.386 -0.1046 -0.1091 -0.4950
  637MOL0     C87788   5.300   6.636   4.276  0.6461 -0.4681 -0.0028
  637MOL0     C87789   5.154   6.591   4.301  0.1313 -0.3323  1.0220
  637MOL0     C87790   5.080   6.698   4.392 -0.6011 -0.2469  0.6830
  637MOL0     C87791   4.932   6.686   4.393 -0.0762 -0.2898 -0.4529
  637MOL0     O87792   4.866   6.650   4.276  0.7971 -0.3866  0.1333
  637MOL0     C87793   4.752   6.562   4.283 -0.2731 -0.1700  0.3570
  637MOL0     C87794   4.672   6.542   4.397  0.5811  0.1563 -0.4928
  637MOL0     C87795   4.553   6.470   4.392  0.3546 -0.6210 -0.0402
  637MOL0     C87796   4.475   6.466   4.526 -0.2175 -0.0626  0.6041
  637MOL0     C87797   4.518   6.405   4.273 -0.2455 -0.0320 -0.1220
  637MOL0     C87798   4.396   6.320   4.257  0.5639  0.4246 -0.8480
  637MOL0     O87799   4.350   6.296   4.135 -0.1589 -0.3153  1.2064
  637MOL0     C87800   4.300   6.173   4.099  0.4277 -0.2005 -0.6674
  637MOL0     C87801   4.308   6.060   4.184  0.3736 -1.6060 -0.6423
  637MOL0     C87802   4.252   5.937   4.145 -0.2279 -0.3198 -0.0107
  637MOL0     C87803   4.214   5.919   4.010 -0.0732 -0.5239 -0.3250
  637MOL0     O87804   4.172   5.788   3.983 -0.6883  0.0442 -0.0652
  637MOL0     C87805   4.191   5.728   3.861 -0.3387  0.4474  0.4403
  637MOL0     C87806   4.162   5.580   3.880  0.1468 -0.1085 -0.4431
  637MOL0     C87807   4.252   5.490   3.786  0.4331 -0.1311 -0.1827
  637MOL0     C87808   4.187   5.454   3.656 -0.1434 -1.0656  0.0746
  637MOL0     C87809   4.056   5.382   3.675  0.6808 -0.3080  0.0673
  637MOL0     C87810   3.985   5.354   3.535 -0.3894 -0.9188  0.8692
  637MOL0     C87811   3.840   5.311   3.553 -0.8371  0.3913 -0.2630
  637MOL0     C87812   3.820   5.160   3.570 -1.0286 -0.5609  0.8332
  637MOL0    Cl87813   3.676   5.111   3.653  0.4742 -0.0557  0.1159
  637MOL0     C87814   4.218   6.033   3.923 -0.7528  0.0786 -0.2629
  637MOL0     C87815   4.250   6.160   3.972 -0.1807 -0.4884 -0.1621
  637MOL0     O87816   4.342   6.279   4.364 -0.3327  0.4341  0.5207
  637MOL0     C87817   4.592   6.428   4.157  0.4599 -0.3316  0.3190
  637MOL0     C87818   4.709   6.500   4.166  0.0752 -0.5035  0.5921
  637MOL0     N87819   5.478   6.554   4.442 -0.7187 -0.4583 -0.5386
  637MOL0     N87820   5.559   6.604   4.529 -0.6621 -0.8366 -1.2719
  637MOL0     C87821   5.344   7.296   5.078  0.3292 -0.2517 -0.7632
  637MOL0     C87822   5.418   7.410   5.106  0.0797 -1.0331  0.3514
  637MOL0     C87823   5.565   7.807   5.305 -0.8453  0.5294  0.0212
  637MOL0     C87824   5.567   7.901   5.409 -0.1484 -0.7676  1.3323
  637MOL0     C87825   5.673   8.005   5.417  0.9419  0.5487 -0.6663
  637MOL0     C87826   5.772   8.009   5.324 -0.5015 -0.0833  0.8506
  637MOL0     O87827   5.863   8.108   5.335 -0.0516 -0.2620 -1.0404
  637MOL0     C87828   5.982   8.109   5.258  0.3378  0.1233 -0.7861
  637MOL0     C87829   6.069   8.220   5.321 -0.7112  0.6421  0.3297
  637MOL0     C87830   6.134   8.184   5.453 -0.2907  0.5942 -0.5160
  637MOL0     C87831   6.226   8.057   5.448  0.5611 -0.1872 -0.2941
  637MOL0     C87832   6.296   8.064   5.574 -0.6433  1.1060  0.4546
  637MOL0     C87833   6.376   8.066   5.664 -0.2371  0.3339 -0.8971
  637MOL0     C87834   5.767   7.919   5.220 -0.7115  0.2525  0.6872
  637MOL0     C87835   5.670   7.820   5.207  0.1390  0.7121 -0.2319
  637MOL0     C87836   5.684   7.727   5.099  0.6533  0.7458  0.4452
  637MOL0     H87837   5.287   7.497   5.412  1.1878 -2.7353  2.2958
  637MOL0     H87838   5.160   7.270   5.368  0.5665  2.3742  0.4757
  637MOL0     H87839   5.185   7.062   5.336 -3.3750  0.3803 -0.6675
  637MOL0     H87840   5.311   7.011   5.205 -0.1437  1.9480 -2.6372
  637MOL0     H87841   5.151   6.833   5.273  0.8568  0.3665  0.5454
  637MOL0     H87842   5.012   6.953   5.237  1.3148  3.0450  0.7372
  637MOL0     H87843   5.009   6.808   5.054 -0.9363  1.1003 -3.7245
  637MOL0     H87844   5.088   6.960   5.008 -2.8243 -1.8639 -2.0454
  637MOL0     H87845   5.324   6.865   5.038 -2.1542  2.4565 -0.1395
  637MOL0     H87846   5.247   6.719   5.106  1.9305 -1.6317 -0.9031
  637MOL0     H87847   5.155   6.814   4.831  1.5429  2.1244  1.8206
  637MOL0     H87848   5.155   6.654   4.897 -0.7532  0.2843 -0.1743
  637MOL0     H87849   5.414   6.695   4.895 -3.7073  0.7789  2.7265
  637MOL0     H87850   5.346   6.639   4.744  1.8431  2.1215 -2.6352
  637MOL0     H87851   5.427   6.929   4.825  0.6071  0.2986 -0.5198
  637MOL0     H87852   5.339   6.911   4.685  1.8620  2.3246 -0.9945
  637MOL0     H87853   5.588   6.897   4.662  2.5398  0.2221  1.2460
  637MOL0     H87854   5.594   6.749   4.756 -0.5659 -1.1800 -1.4809
  637MOL0     H87855   5.355   6.848   4.455  0.1429 -0.3758 -0.1364
  637MOL0     H87856   5.332   6.565   4.199 -1.3370 -0.7946 -0.5977
  637MOL0     H87857   5.291   6.733   4.225 -2.9005 -1.0378 -0.7017
  637MOL0     H87858   5.102   6.595   4.205  1.8849  1.7813  0.0614
  637MOL0     H87859   5.148   6.496   4.355 -2.2381  0.2817  1.9823
  637MOL0     H87860   5.115   6.694   4.496  4.1550 -1.5777 -0.7158
  637MOL0     H87861   5.106   6.796   4.351 -1.0387 -0.0563  0.8489
  637MOL0     H87862   4.909   6.619   4.476  0.3547  0.8388  0.6107
  637MOL0     H87863   4.887   6.783   4.414  0.5375 -0.4753  1.9984
  637MOL0     H87864   4.691   6.597   4.489  1.0900  1.3119 -1.2665
  637MOL0     H87865   4.526   6.518   4.607  0.8359 -0.1299  0.0004
  637MOL0     H87866   4.454   6.366   4.566 -1.1923  0.2484  0.9002
  637MOL0     H87867   4.372   6.503   4.520 -0.2236 -0.1890 -0.1948
  637MOL0     H87868   4.361   6.057   4.279  0.1908 -1.1652 -0.5218
  637MOL0     H87869   4.249   5.846   4.203 -0.0536 -1.3350 -1.5318
  637MOL0     H87870   4.127   5.763   3.780 -2.3755 -1.4907  1.1326
  637MOL0     H87871   4.295   5.747   3.831 -0.1145 -1.6814 -0.2736
  637MOL0     H87872   4.203   5.566   3.980 -1.9487  3.0458  1.0404
  637MOL0     H87873   4.055   5.558   3.886  0.9103 -4.0870  2.0463
  637MOL0     H87874   4.264   5.399   3.846  0.2644  0.3116  0.5327
  637MOL0     H87875   4.352   5.533   3.775  1.5043 -1.7463  2.3213
  637MOL0     H87876   4.250   5.385   3.600 -0.9856 -0.7990 -1.2460
  637MOL0     H87877   4.181   5.545   3.595 -1.2409 -1.7022 -0.8064
  637MOL0     H87878   4.069   5.284   3.721 -1.7541 -0.0906  1.4053
  637MOL0     H87879   3.982   5.435   3.737 -0.7934 -1.3869 -0.7248
  637MOL0     H87880   4.043   5.278   3.481  1.5984 -0.0788  1.7300
  637MOL0     H87881   3.999   5.444   3.475 -0.5886  0.9022  3.3977
  637MOL0     H87882   3.784   5.341   3.464  0.2170  1.0512 -0.7261
  637MOL0     H87883   3.786   5.356   3.636 -2.9705  0.0220 -1.3638
  637MOL0     H87884   3.907   5.122   3.625 -0.7278  0.7502  1.2856
  637MOL0     H87885   3.812   5.121   3.468 -1.7060  0.4202  0.4996
  637MOL0     H87886   4.186   6.010   3.822 -0.1018  1.2580 -0.7618
  637MOL0     H87887   4.245   6.249   3.909 -0.4689 -1.9259 -2.2712
  637MOL0     H87888   4.559   6.385   4.063  1.8258 -1.4468  0.3130
  637MOL0     H87889   4.770   6.514   4.078  0.4077  0.2306  0.9335
  637MOL0     H87890   5.359   7.236   4.989 -0.4763 -0.0289 -1.0558
  637MOL0     H87891   5.498   7.450   5.045 -0.1602  2.3866  2.0738
  637MOL0     H87892   5.476   7.896   5.468 -2.0606 -4.4293 -1.4912
  637MOL0     H87893   5.659   8.089   5.484 -0.8237 -0.7073  0.6418
  637MOL0     H87894   6.028   8.012   5.276 -1.1302 -0.2987  0.9700
  637MOL0     H87895   5.960   8.124   5.152  2.4261 -2.0653 -1.6169
  637MOL0     H87896   6.021   8.317   5.337 -1.1602  0.2122  1.7974
  637MOL0     H87897   6.158   8.219   5.258 -0.4462  1.5013  0.6756
  637MOL0     H87898   6.195   8.267   5.490 -0.7889  1.3778 -1.4084
  637MOL0     H87899   6.056   8.167   5.527 -1.1875 -0.6952 -1.6876
  637MOL0     H87900   6.298   8.071   5.367 -0.6751  4.2755 -0.8990
  637MOL0     H87901   6.171   7.964   5.429  1.9612 -0.8899 -1.1085
  637MOL0     H87902   6.452   8.037   5.734 -0.0458 -1.4649 -1.7897
  637MOL0     H87903   5.832   7.919   5.133 -2.7078 -4.8467 -1.1218
  637MOL0     H87904   5.708   7.629   5.141 -0.8661  0.3526  0.4716
  637MOL0     H87905   5.586   7.722   5.049  0.6841  0.1482  0.4354
  637MOL0     H87906   5.766   7.747   5.030  1.6721 -4.9361 -0.4519
  638MOL0     O87907  10.554   0.756  10.105  0.4779  0.2092 -0.3847
  638MOL0     C87908  10.530   0.643  10.057 -0.3933 -0.2113 -0.9422
  638MOL0     O87909  10.623   0.539  10.042  0.3347  1.0396  0.3843
  638MOL0     C87910  10.742   0.522  10.111  0.6721 -0.3351 -0.2764
  638MOL0     C87911  10.866   0.539  10.045  0.4150 -0.2244  0.8794
  638MOL0     C87912  10.986   0.500  10.113  0.5036  0.5828  0.1665
  638MOL0     C87913  10.984   0.454  10.241 -0.5131 -0.2454 -0.3723
  638MOL0     O87914  11.101   0.411  10.297 -0.3058  0.0059 -0.5821
  638MOL0     C87915  11.095   0.380  10.442 -0.4598  0.4684 -0.4428
  638MOL0     C87916  11.241   0.357  10.491  0.0902  0.2939 -0.7476
  638MOL0     C87917  11.241   0.379  10.646 -0.2100 -0.0606  0.5401
  638MOL0     C87918  11.384   0.343  10.696  0.0412 -0.4176 -0.4521
  638MOL0     C87919  11.416   0.391  10.837 -0.5035  0.2305 -0.7278
  638MOL0     C87920  11.350   0.311  10.954  0.2086  0.4954  0.9649
  638MOL0     C87921  11.371   0.387  11.081  0.1718  0.2185 -0.1069
  638MOL0     C87922  11.338   0.317  11.221 -0.5880 -0.4917 -0.7201
  638MOL0     N87923  11.192   0.304  11.233 -0.5889  0.5171  0.3338
  638MOL0     C87924  11.103   0.397  11.286  0.6313  0.4026 -0.5745
  638MOL0     C87925  10.985   0.339  11.292  0.4134 -0.1174  0.7098
  638MOL0     C87926  10.859   0.407  11.344 -0.2392 -0.1790  0.1859
  638MOL0     C87927  10.839   0.382  11.494 -0.2390 -1.1020 -0.2831
  638MOL0     C87928  10.839   0.239  11.546  0.3735  0.8730  0.2356
  638MOL0     C87929  10.750   0.139  11.468 -0.1954 -0.4784  0.2427
  638MOL0     O87930  10.823   0.015  11.486  0.9273  0.2023  0.3563
  638MOL0     C87931  10.796  -0.063  11.597 -0.8489  0.4737 -0.3283
  638MOL0     C87932  10.713  -0.034  11.698  0.1519  0.1731 -0.4335
  638MOL0     C87933  10.706  -0.121  11.815  0.1733  0.2370  1.4564
  638MOL0     C87934  10.624  -0.069  11.925 -0.6738 -0.2412 -0.1339
  638MOL0     C87935  10.762  -0.254  11.808  0.0053  1.4183 -0.1243
  638MOL0     C87936  10.773  -0.340  11.936 -0.1239 -0.2997 -0.0197
  638MOL0     O87937  10.758  -0.269  12.051  0.4536  0.1249  0.5420
  638MOL0     C87938  10.732  -0.316  12.179 -0.3113  0.6213  0.6202
  638MOL0     C87939  10.726  -0.214  12.276 -0.1331  0.5578  0.1169
  638MOL0     C87940  10.695  -0.255  12.407 -0.2957 -0.2120 -0.0290
  638MOL0     C87941  10.662  -0.383  12.445  0.6243 -0.0245  0.5101
  638MOL0     O87942  10.632  -0.424  12.576  0.3311 -0.5169 -0.2800
  638MOL0     C87943  10.489  -0.402  12.605  0.1909  0.2197  0.0901
  638MOL0     C87944  10.423  -0.537  12.574  0.5712  0.5399  1.0011
  638MOL0     C87945  10.277  -0.525  12.615  0.2320  1.1023 -1.1068
  638MOL0     C87946  10.239  -0.581  12.755  0.1704  1.4302  1.0637
  638MOL0     C87947  10.108  -0.519  12.813 -0.5645  0.1511  0.3806
  638MOL0     C87948  10.044  -0.596  12.923 -0.3881  0.0333 -0.8148
  638MOL0     C87949  10.122  -0.601  13.057  0.4535 -0.8448  1.2594
  638MOL0     C87950  10.084  -0.499  13.153  0.7874  0.2943 -0.4959
  638MOL0    Cl87951   9.931  -0.562  13.244 -0.1017 -0.1891  0.0850
  638MOL0     C87952  10.689  -0.482  12.348  0.3375  0.2813 -0.6828
  638MOL0     C87953  10.712  -0.454  12.211 -0.0745 -0.9731 -0.4445
  638MOL0     O87954  10.806  -0.461  11.933  0.5521  0.7955  0.5501
  638MOL0     C87955  10.820  -0.292  11.684  0.0244  0.8329 -0.3162
  638MOL0     C87956  10.838  -0.198  11.580  0.1246  0.3160 -0.9484
  638MOL0     N87957  10.989   0.227  11.210 -0.3511 -0.9518  0.1358
  638MOL0     N87958  11.118   0.204  11.179  0.3800 -0.2118  0.3138
  638MOL0     C87959  10.861   0.457  10.303  0.1867 -0.3059  0.0841
  638MOL0     C87960  10.741   0.484  10.247  0.5188 -0.0130 -0.1374
  638MOL0     C87961  10.395   0.620  10.024 -0.2727 -0.1639  0.2376
  638MOL0     C87962  10.365   0.672   9.898  0.9903  0.8609 -0.4173
  638MOL0     C87963  10.234   0.645   9.857 -0.4157  0.4132  0.3348
  638MOL0     C87964  10.134   0.571   9.932 -0.0241 -0.9593  0.3058
  638MOL0     O87965  10.002   0.549   9.890 -0.4960 -0.0897 -0.3214
  638MOL0     C87966   9.955   0.632   9.780  0.3778  0.0957  0.3288
  638MOL0     C87967   9.968   0.563   9.649  0.0781 -0.5848 -0.7705
  638MOL0     C87968   9.910   0.643   9.523  0.1375  0.0136 -0.3245
  638MOL0     C87969   9.968   0.786   9.509 -0.8311  0.7209 -0.1731
  638MOL0     C87970  10.115   0.778   9.480  0.2829 -1.1355  0.0093
  638MOL0     C87971  10.237   0.765   9.463  0.3694 -0.6045 -0.0327
  638MOL0     C87972  10.172   0.529  10.061 -1.0162 -0.3615  0.2957
  638MOL0     C87973  10.303   0.551  10.104 -0.0765  0.3085  0.1268
  638MOL0     C87974  10.343   0.506  10.249 -0.4707  0.1831  0.2718
  638MOL0     H87975  10.863   0.564   9.940  1.9465  3.2994  1.5341
  638MOL0     H87976  11.087   0.512  10.077  1.8229 -1.5740  2.8195
  638MOL0     H87977  11.040   0.287  10.461 -0.4973  0.6938  0.6058
  638MOL0     H87978  11.048   0.458  10.503  0.4696 -1.6269  3.2963
  638MOL0     H87979  11.254   0.252  10.460 -0.4389  0.5522 -1.9004
  638MOL0     H87980  11.308   0.425  10.437 -1.2075  1.3172 -1.0889
  638MOL0     H87981  11.222   0.484  10.671  2.6379  0.8586 -0.7556
  638MOL0     H87982  11.168   0.312  10.692 -0.5699 -0.7362 -0.9595
  638MOL0     H87983  11.424   0.241  10.692 -0.1430 -0.5585  0.7814
  638MOL0     H87984  11.452   0.402  10.635  2.1169 -2.7843 -0.5862
  638MOL0     H87985  11.389   0.497  10.843  0.2369  0.5253 -2.0915
  638MOL0     H87986  11.524   0.402  10.852 -0.5637  0.7266 -0.6343
  638MOL0     H87987  11.243   0.291  10.942  0.5752 -1.1855  0.2448
  638MOL0     H87988  11.395   0.211  10.956 -2.3247 -0.7843 -0.4893
  638MOL0     H87989  11.328   0.488  11.084  3.6984  1.8294  1.8002
  638MOL0     H87990  11.478   0.409  11.073 -0.2808  3.0258  0.2667
  638MOL0     H87991  11.390   0.220  11.214 -2.0728 -1.2320 -2.2484
  638MOL0     H87992  11.379   0.380  11.300 -0.4277  0.7133 -1.7398
  638MOL0     H87993  11.129   0.495  11.324 -0.1896  0.9210 -1.2898
  638MOL0     H87994  10.779   0.376  11.277  2.1631 -1.4870 -2.3078
  638MOL0     H87995  10.868   0.513  11.318 -1.2348 -0.7756 -2.9986
  638MOL0     H87996  10.921   0.440  11.537 -2.4204  2.8423 -0.8836
  638MOL0     H87997  10.748   0.432  11.529  0.6158 -0.0273  0.4826
  638MOL0     H87998  10.941   0.200  11.554  0.5921  1.3291 -0.2036
  638MOL0     H87999  10.811   0.241  11.652 -0.7161  1.8134 -0.0503
  638MOL0     H88000  10.643   0.139  11.488 -0.3789 -4.3946  0.0990
  638MOL0     H88001  10.752   0.159  11.361 -1.5414 -1.7919 -0.0618
  638MOL0     H88002  10.651   0.056  11.694 -0.4769 -0.2470 -0.3279
  638MOL0     H88003  10.553  -0.145  11.959 -0.5961  0.0039  0.5920
  638MOL0     H88004  10.551   0.007  11.894 -1.6768 -1.3064 -0.4646
  638MOL0     H88005  10.683  -0.039  12.012  1.3874 -1.3951 -1.0599
  638MOL0     H88006  10.761  -0.113  12.257  1.7105 -0.2171 -0.8993
  638MOL0     H88007  10.700  -0.177  12.482  0.7994 -1.4030  1.1943
  638MOL0     H88008  10.483  -0.394  12.714 -1.7225 -1.6956  0.2026
  638MOL0     H88009  10.439  -0.314  12.564  0.0905  0.4554  0.7016
  638MOL0     H88010  10.416  -0.558  12.467 -5.4136  3.7133  0.3212
  638MOL0     H88011  10.466  -0.621  12.629  1.9762  1.4221  1.2895
  638MOL0     H88012  10.209  -0.587  12.556  0.3445  3.6557 -4.2374
  638MOL0     H88013  10.244  -0.421  12.606 -0.3175  0.9488 -0.9333
  638MOL0     H88014  10.319  -0.560  12.826  0.3709 -0.5837  1.4976
  638MOL0     H88015  10.224  -0.688  12.735  0.0826  1.8015 -1.0461
  638MOL0     H88016  10.128  -0.417  12.846 -1.6003  0.4265  0.1934
  638MOL0     H88017  10.027  -0.509  12.741  2.0964 -4.0850 -3.8024
  638MOL0     H88018  10.015  -0.693  12.881  1.9833 -0.0332 -2.5207
  638MOL0     H88019   9.947  -0.547  12.940  0.7410  2.6307 -1.3645
  638MOL0     H88020  10.229  -0.584  13.038  0.2937 -0.9565  0.1510
  638MOL0     H88021  10.117  -0.699  13.106 -2.7799 -0.1720  2.4548
  638MOL0     H88022  10.062  -0.410  13.093  0.3053  0.6471  0.1943
  638MOL0     H88023  10.167  -0.482  13.222 -0.5248 -0.8115  1.4577
  638MOL0     H88024  10.686  -0.586  12.380  1.4003 -0.3174 -2.3916
  638MOL0     H88025  10.727  -0.528  12.133 -2.8395  0.9977 -3.0762
  638MOL0     H88026  10.873  -0.387  11.685 -1.4570 -0.0200 -1.1593
  638MOL0     H88027  10.880  -0.237  11.489 -0.2474 -2.0708 -0.1725
  638MOL0     H88028  10.854   0.433  10.409  2.6589 -4.4590 -0.4530
  638MOL0     H88029  10.649   0.484  10.306  1.4930  2.0040  1.5025
  638MOL0     H88030  10.444   0.702   9.830  0.9290  1.7254 -0.1170
  638MOL0     H88031  10.207   0.700   9.767 -1.1180  2.6523  1.8499
  638MOL0     H88032   9.851   0.662   9.798  1.6651  3.0761  4.3766
  638MOL0     H88033  10.012   0.724   9.768 -1.1144  1.2593  1.6472
  638MOL0     H88034   9.911   0.470   9.645 -2.6687  1.0016 -1.5656
  638MOL0     H88035  10.071   0.530   9.632  1.0774  0.4873  2.5224
  638MOL0     H88036   9.941   0.587   9.434  1.4586 -0.1877  0.2305
  638MOL0     H88037   9.802   0.653   9.530 -0.0204 -1.3676 -0.4919
  638MOL0     H88038   9.951   0.853   9.594 -0.6009  0.0383  0.4231
  638MOL0     H88039   9.916   0.826   9.422 -0.2953 -0.9840 -1.3188
  638MOL0     H88040  10.338   0.764   9.428 -0.3188  0.2837 -2.2446
  638MOL0     H88041  10.094   0.479  10.118 -3.9015  2.0166 -1.3199
  638MOL0     H88042  10.349   0.592  10.316  1.1656  0.4721 -0.2071
  638MOL0     H88043  10.269   0.438  10.292  1.0086 -2.2185 -0.8089
  638MOL0     H88044  10.442   0.460  10.252  0.4222  2.0541  1.3604
  639MOL0     O88045   2.115   4.994   1.211  0.6705 -0.5539  0.4758
  639MOL0     C88046   2.056   5.012   1.319 -0.3621  0.8145 -0.1562
  639MOL0     O88047   2.033   5.131   1.386 -0.0860 -0.5518  0.0163
  639MOL0     C88048   2.062   5.263   1.338  0.3067  0.1612 -0.9740
  639MOL0     C88049   2.004   5.314   1.220  0.9265 -0.0279 -0.5870
  639MOL0     C88050   2.038   5.444   1.180  0.6278  0.6096  0.0312
  639MOL0     C88051   2.115   5.533   1.255 -0.3399  0.2126  0.8589
  639MOL0     O88052   2.118   5.663   1.225 -0.2937 -0.6392  0.0203
  639MOL0     C88053   1.993   5.726   1.188 -1.3861  0.7868 -0.2705
  639MOL0     C88054   1.992   5.877   1.213  0.5390  0.8027 -0.1747
  639MOL0     C88055   2.076   5.948   1.106 -0.1685  0.1734 -0.4780
  639MOL0     C88056   2.091   6.103   1.129  0.1639 -0.4254  0.2416
  639MOL0     C88057   2.159   6.181   1.006 -0.2309  0.7181 -0.5695
  639MOL0     C88058   2.247   6.301   1.059 -0.3254 -0.8894  0.0650
  639MOL0     C88059   2.379   6.247   1.117  0.2459  0.4870 -0.0921
  639MOL0     C88060   2.481   6.362   1.139 -0.6579  0.0643  0.6979
  639MOL0     N88061   2.524   6.431   1.004 -0.0464  0.5847 -0.5641
  639MOL0     C88062   2.590   6.361   0.907 -0.4392  0.1529  0.7276
  639MOL0     C88063   2.607   6.449   0.802  1.0875 -0.1108  0.3416
  639MOL0     C88064   2.648   6.429   0.655 -0.5467  0.6229 -0.2618
  639MOL0     C88065   2.670   6.285   0.629  0.0036  0.9765  0.1925
  639MOL0     C88066   2.695   6.255   0.479 -0.5512 -0.7002  0.6318
  639MOL0     C88067   2.827   6.321   0.424 -0.3513 -0.1764 -0.1273
  639MOL0     O88068   2.823   6.291   0.287 -0.1764  0.1497 -0.0816
  639MOL0     C88069   2.933   6.316   0.210  0.1857 -0.3662  0.2085
  639MOL0     C88070   3.053   6.385   0.256 -0.9889  0.4669 -0.0084
  639MOL0     C88071   3.161   6.414   0.166 -0.0300  0.2127  0.4846
  639MOL0     C88072   3.283   6.498   0.221  0.4398  0.0960  0.3634
  639MOL0     C88073   3.142   6.381   0.025  0.0406  0.2305  0.4976
  639MOL0     C88074   3.237   6.415  -0.092  0.6300  0.0741  0.0422
  639MOL0     O88075   3.189   6.417  -0.226 -0.8126 -0.2899 -0.4526
  639MOL0     C88076   3.286   6.461  -0.315  0.1296  0.1292  0.8538
  639MOL0     C88077   3.307   6.595  -0.335  0.5695 -0.3497 -0.5308
  639MOL0     C88078   3.393   6.633  -0.436 -0.7434  0.5142 -0.8384
  639MOL0     C88079   3.463   6.529  -0.513 -0.9319 -0.6558 -0.4502
  639MOL0     O88080   3.549   6.544  -0.623  0.2181  0.5768  0.7586
  639MOL0     C88081   3.571   6.674  -0.666 -0.0593 -0.0619 -0.2841
  639MOL0     C88082   3.652   6.667  -0.800 -0.4196 -0.2855  0.2406
  639MOL0     C88083   3.701   6.801  -0.845  0.1268 -0.1880 -0.4768
  639MOL0     C88084   3.791   6.793  -0.971 -0.1504  0.7310 -0.2740
  639MOL0     C88085   3.932   6.855  -0.954  0.3685 -0.2695 -0.1299
  639MOL0     C88086   3.938   7.006  -0.963 -0.9605  0.0391 -0.1930
  639MOL0     C88087   3.908   7.056  -1.104 -0.0454  0.1051  0.3325
  639MOL0     C88088   3.870   7.202  -1.115  0.2028 -0.5122  0.0813
  639MOL0    Cl88089   4.014   7.312  -1.097 -0.1935  0.3155  0.0763
  639MOL0     C88090   3.445   6.398  -0.483  0.0786 -0.8837  0.5252
  639MOL0     C88091   3.355   6.361  -0.386  0.1656 -0.1215 -0.1802
  639MOL0     O88092   3.349   6.440  -0.058  0.4722 -0.0693 -0.2091
  639MOL0     C88093   3.020   6.336  -0.018  0.0699  0.8598 -0.3389
  639MOL0     C88094   2.923   6.291   0.071  0.6370  0.2267 -0.2999
  639MOL0     N88095   2.529   6.567   0.831 -0.4928 -0.2009  0.6959
  639MOL0     N88096   2.484   6.555   0.951 -0.5236 -0.4046  0.4312
  639MOL0     C88097   2.161   5.491   1.382 -0.3529  0.0295  0.2338
  639MOL0     C88098   2.134   5.350   1.417  0.5368 -0.2925 -0.4602
  639MOL0     C88099   1.994   4.892   1.381 -0.3508  0.0285 -0.4261
  639MOL0     C88100   2.068   4.776   1.395 -0.6382  0.3135 -0.1892
  639MOL0     C88101   2.017   4.668   1.468  0.4109 -0.5932 -0.0959
  639MOL0     C88102   1.887   4.662   1.520 -1.1459 -0.4309 -0.1065
  639MOL0     O88103   1.844   4.555   1.582  0.9868 -0.5391 -0.4365
  639MOL0     C88104   1.744   4.582   1.687 -0.3751 -1.1373 -0.6787
  639MOL0     C88105   1.673   4.462   1.721 -0.2300  0.4127 -0.4079
  639MOL0     C88106   1.580   4.489   1.842 -0.6977 -0.2785 -0.1552
  639MOL0     C88107   1.517   4.357   1.883 -0.3535 -0.5356  0.3315
  639MOL0     C88108   1.442   4.371   2.010  0.8297 -1.1880 -0.7430
  639MOL0     C88109   1.373   4.403   2.108  0.2487 -0.4230  0.0140
  639MOL0     C88110   1.811   4.782   1.502  0.6841 -0.9143  0.4074
  639MOL0     C88111   1.861   4.894   1.442 -1.0294  0.7584  0.5833
  639MOL0     C88112   1.773   5.015   1.441  0.8416 -1.3307 -0.2310
  639MOL0     H88113   1.937   5.247   1.169 -0.9185 -0.6059  2.3330
  639MOL0     H88114   1.993   5.477   1.087 -0.7656 -1.2181  0.0002
  639MOL0     H88115   1.900   5.690   1.233 -1.5489  1.0780 -0.3699
  639MOL0     H88116   1.981   5.714   1.080 -1.2176  1.0402 -0.3166
  639MOL0     H88117   1.894   5.924   1.221 -0.4557 -1.1054 -0.5603
  639MOL0     H88118   2.039   5.897   1.309  2.6964  1.2828 -1.2718
  639MOL0     H88119   2.178   5.907   1.114 -0.3658 -0.2936 -0.3164
  639MOL0     H88120   2.035   5.931   1.006 -0.7235 -2.5224  0.1330
  639MOL0     H88121   1.993   6.143   1.158 -0.0241  0.0623 -1.0047
  639MOL0     H88122   2.150   6.118   1.220  0.3262  3.2581 -0.2869
  639MOL0     H88123   2.087   6.230   0.940 -1.9683  0.5339  1.0849
  639MOL0     H88124   2.216   6.114   0.942  0.4284  1.1528 -0.4533
  639MOL0     H88125   2.265   6.373   0.978 -1.3196  1.0797  1.5068
  639MOL0     H88126   2.199   6.367   1.132 -0.0040  0.6586 -1.0603
  639MOL0     H88127   2.413   6.167   1.051  2.7992  1.8444 -0.5450
  639MOL0     H88128   2.369   6.213   1.220 -1.3289  2.5651  0.5059
  639MOL0     H88129   2.448   6.448   1.198 -0.1921  0.3286  0.5780
  639MOL0     H88130   2.573   6.320   1.181  2.2349  2.5024 -2.5932
  639MOL0     H88131   2.614   6.256   0.899 -2.4961 -0.4149  1.3588
  639MOL0     H88132   2.742   6.482   0.636  0.0951  0.5351  2.3536
  639MOL0     H88133   2.573   6.461   0.582  1.3254  1.0270 -2.1126
  639MOL0     H88134   2.759   6.241   0.673  0.2680 -0.8019 -1.9567
  639MOL0     H88135   2.582   6.231   0.666  0.0128  0.7541 -0.1012
  639MOL0     H88136   2.713   6.148   0.466  0.3713 -0.4149 -0.6419
  639MOL0     H88137   2.613   6.284   0.413 -2.3155  1.9461  3.6950
  639MOL0     H88138   2.844   6.428   0.439  3.4062 -0.2922 -2.2413
  639MOL0     H88139   2.916   6.273   0.464  0.0299 -0.5843 -1.3988
  639MOL0     H88140   3.050   6.419   0.359 -1.4234  2.1754 -0.5468
  639MOL0     H88141   3.271   6.523   0.326  1.4084 -0.5960  0.6568
  639MOL0     H88142   3.284   6.597   0.175 -1.0467  0.4217  1.0102
  639MOL0     H88143   3.381   6.450   0.208  0.5383  0.0577  1.1945
  639MOL0     H88144   3.274   6.666  -0.259  0.9826 -1.2001  0.4649
  639MOL0     H88145   3.409   6.740  -0.443  0.0609  0.9512  4.0700
  639MOL0     H88146   3.481   6.736  -0.667 -0.0032  0.2046  2.5187
  639MOL0     H88147   3.625   6.729  -0.588  1.4760 -4.8638  2.4681
  639MOL0     H88148   3.739   6.603  -0.783  0.2237  0.9462  1.8658
  639MOL0     H88149   3.584   6.639  -0.881 -0.5972  1.0944 -0.1159
  639MOL0     H88150   3.754   6.832  -0.754  0.3260 -0.5575 -0.4627
  639MOL0     H88151   3.619   6.863  -0.881  0.5181 -0.9465 -2.8570
  639MOL0     H88152   3.743   6.856  -1.048  3.6921  2.5842 -1.4109
  639MOL0     H88153   3.795   6.688  -1.000  0.0081  0.6198  0.1550
  639MOL0     H88154   3.978   6.809  -0.866  2.2008  0.5973 -0.5800
  639MOL0     H88155   3.984   6.816  -1.042  0.5257 -1.2685  0.3941
  639MOL0     H88156   4.041   7.032  -0.937 -1.8373  2.2745  1.2839
  639MOL0     H88157   3.874   7.049  -0.885 -2.9120 -0.6226 -1.3629
  639MOL0     H88158   3.835   6.989  -1.150  0.9653 -1.2792  0.6999
  639MOL0     H88159   3.997   7.039  -1.165 -2.3644 -0.6117 -3.1430
  639MOL0     H88160   3.793   7.217  -1.038 -0.5148  0.3599 -0.7986
  639MOL0     H88161   3.830   7.231  -1.212  1.1627  0.2459 -0.1040
  639MOL0     H88162   3.511   6.324  -0.527  1.6757  0.0486  1.2675
  639MOL0     H88163   3.346   6.257  -0.356  1.2354  0.6555  3.2863
  639MOL0     H88164   2.996   6.313  -0.121 -2.4017  2.4335 -0.1928
  639MOL0     H88165   2.836   6.236   0.036  0.2347  0.0338  0.9383
  639MOL0     H88166   2.226   5.546   1.449 -0.0628 -1.8735  1.6072
  639MOL0     H88167   2.191   5.320   1.504 -0.0086 -0.1577 -0.0520
  639MOL0     H88168   2.163   4.763   1.343 -0.5442  2.2670 -0.6100
  639MOL0     H88169   2.084   4.589   1.500  0.2700 -0.3943  0.7150
  639MOL0     H88170   1.799   4.607   1.779 -2.7288  3.1821 -0.1586
  639MOL0     H88171   1.676   4.663   1.658  2.0426  0.4630 -2.2642
  639MOL0     H88172   1.734   4.375   1.745 -2.4163 -1.3622 -0.9238
  639MOL0     H88173   1.609   4.441   1.634 -0.1617  0.2588 -0.4203
  639MOL0     H88174   1.632   4.538   1.925 -2.5468  0.5783  0.5384
  639MOL0     H88175   1.508   4.565   1.814  1.2594  2.0119  0.6359
  639MOL0     H88176   1.590   4.278   1.899  1.0139  0.4370 -0.8262
  639MOL0     H88177   1.445   4.325   1.807 -0.8089  1.8076 -0.3367
  639MOL0     H88178   1.328   4.411   2.205  2.7802 -1.4496  1.3645
  639MOL0     H88179   1.703   4.779   1.514  0.5883  1.3065  0.4569
  639MOL0     H88180   1.665   4.999   1.440  0.8751 -1.5514 -1.4298
  639MOL0     H88181   1.800   5.070   1.532  1.9342 -0.4360 -1.0602
  639MOL0     H88182   1.789   5.091   1.364 -3.7045  1.0723  0.8823
  640MOL0     O88183   6.844   3.873   9.931  0.2855  0.4439  0.1186
  640MOL0     C88184   6.863   3.827   9.816 -0.4453  0.1294 -0.7526
  640MOL0     O88185   6.977   3.852   9.748  0.1583 -0.3845  0.6787
  640MOL0     C88186   7.090   3.884   9.807 -0.1894 -0.1536  0.3380
  640MOL0     C88187   7.151   4.008   9.765 -0.0039 -0.7785  0.4316
  640MOL0     C88188   7.275   4.040   9.817  0.2653 -0.5737  0.2796
  640MOL0     C88189   7.331   3.967   9.911 -0.1139 -0.0639 -0.5080
  640MOL0     O88190   7.451   3.984   9.966 -0.0657 -0.1717 -0.5219
  640MOL0     C88191   7.567   4.024   9.892 -0.3569 -0.5847 -0.5553
  640MOL0     C88192   7.643   3.902   9.885 -0.4944 -0.2150  0.6743
  640MOL0     C88193   7.779   3.919   9.817  0.4221 -1.2251 -0.4863
  640MOL0     C88194   7.843   3.795   9.770  0.3702 -0.3949 -0.0326
  640MOL0     C88195   7.982   3.829   9.712  0.3217 -0.5741 -0.4834
  640MOL0     C88196   8.103   3.770   9.776  0.1358 -0.0071 -0.7096
  640MOL0     C88197   8.104   3.618   9.758  0.5253 -0.2408 -0.1508
  640MOL0     C88198   8.249   3.564   9.737  0.7083 -0.6963 -0.2849
  640MOL0     N88199   8.239   3.430   9.694 -0.7982 -0.5340 -0.5500
  640MOL0     C88200   8.178   3.321   9.750  0.4155 -0.2544 -0.3780
  640MOL0     C88201   8.208   3.213   9.680 -0.3238 -0.1592 -0.0515
  640MOL0     C88202   8.196   3.063   9.706  0.3388  0.7791 -0.0562
  640MOL0     C88203   8.190   3.010   9.849 -0.4916  0.1828  0.6953
  640MOL0     C88204   8.323   3.010   9.912 -0.2322 -0.7057  0.5676
  640MOL0     C88205   8.330   2.940  10.049  0.5151 -0.6630 -0.1548
  640MOL0     O88206   8.454   2.986  10.127 -0.5144 -0.3594  0.0970
  640MOL0     C88207   8.451   2.986  10.265 -0.3468  0.3733  0.4106
  640MOL0     C88208   8.347   2.959  10.349 -0.0006 -0.4402  0.2914
  640MOL0     C88209   8.358   2.975  10.493  0.3990  0.4197  0.9035
  640MOL0     C88210   8.238   2.956  10.587  0.2088  0.7344 -0.0707
  640MOL0     C88211   8.477   3.020  10.552  0.4807 -0.9145 -0.1459
  640MOL0     C88212   8.487   3.042  10.695 -0.5824  0.3679 -0.0595
  640MOL0     O88213   8.463   2.933  10.785 -0.0300  0.0246 -0.2121
  640MOL0     C88214   8.465   2.940  10.922  0.2712 -0.3089 -1.2550
  640MOL0     C88215   8.396   2.841  10.994  0.5937  0.4039 -0.3126
  640MOL0     C88216   8.406   2.831  11.134  0.6930  0.3416 -0.1240
  640MOL0     C88217   8.490   2.918  11.202 -0.5200 -0.4141  0.5642
  640MOL0     O88218   8.516   2.909  11.334  0.5343  0.5302 -0.1000
  640MOL0     C88219   8.513   2.778  11.393 -0.2207  0.4723 -0.2292
  640MOL0     C88220   8.505   2.793  11.543 -0.2329  0.4886  0.7953
  640MOL0     C88221   8.374   2.842  11.581  0.2506  0.4381 -0.1008
  640MOL0     C88222   8.360   2.842  11.732  0.1006  0.0958  0.8361
  640MOL0     C88223   8.449   2.944  11.802  1.0667  0.5836  0.8407
  640MOL0     C88224   8.431   2.943  11.955  0.0020 -0.1164 -0.0773
  640MOL0     C88225   8.306   3.016  11.990 -0.6545  0.7858  0.3772
  640MOL0     C88226   8.247   2.946  12.113 -0.1639  0.0494  0.3213
  640MOL0    Cl88227   8.197   2.791  12.044  0.0365  0.3734 -0.6711
  640MOL0     C88228   8.559   3.021  11.133  0.4907 -0.3013 -0.5521
  640MOL0     C88229   8.544   3.024  10.990  0.4627 -0.2829 -0.6702
  640MOL0     O88230   8.534   3.151  10.722  0.3475  0.2439  0.0774
  640MOL0     C88231   8.576   3.062  10.460  0.0395 -0.6207  0.5307
  640MOL0     C88232   8.566   3.045  10.319 -0.1255 -0.7295 -0.5305
  640MOL0     N88233   8.267   3.254   9.565  0.4752  0.5048 -0.1492
  640MOL0     N88234   8.292   3.376   9.585 -0.3161  0.1462 -0.1620
  640MOL0     C88235   7.270   3.849   9.960  0.0928 -0.1220 -0.3841
  640MOL0     C88236   7.148   3.806   9.909  0.6190  0.4771  0.0046
  640MOL0     C88237   6.752   3.739   9.762 -0.7810  0.3675  0.2287
  640MOL0     C88238   6.627   3.745   9.828 -0.3338 -0.8022  0.1358
  640MOL0     C88239   6.513   3.671   9.781 -0.3790  0.0590  0.3826
  640MOL0     C88240   6.527   3.592   9.662  0.2321 -0.2272  1.0783
  640MOL0     O88241   6.425   3.523   9.597 -0.8160 -0.3376 -0.0571
  640MOL0     C88242   6.287   3.548   9.628 -0.2057 -0.2070  0.4072
  640MOL0     C88243   6.213   3.463   9.523 -0.0135  0.1707 -0.2814
  640MOL0     C88244   6.075   3.420   9.566 -0.4020 -0.2454 -0.4991
  640MOL0     C88245   6.002   3.342   9.461  0.4594  0.2782 -0.4360
  640MOL0     C88246   5.874   3.294   9.507 -0.2118  0.1179  0.3405
  640MOL0     C88247   5.761   3.263   9.536 -0.1208 -0.1133  0.5120
  640MOL0     C88248   6.663   3.577   9.613 -0.3061  0.2631  0.3413
  640MOL0     C88249   6.772   3.645   9.661 -0.1669 -0.2434  0.0978
  640MOL0     C88250   6.899   3.620   9.593 -0.3820 -0.6402  0.0755
  640MOL0     H88251   7.105   4.064   9.684 -2.9399 -1.2369  1.6169
  640MOL0     H88252   7.330   4.128   9.786  0.6103 -0.7836  0.2846
  640MOL0     H88253   7.620   4.094   9.958 -1.0764 -0.2452 -0.3308
  640MOL0     H88254   7.543   4.071   9.796 -0.3898 -0.5617 -0.5358
  640MOL0     H88255   7.655   3.862   9.986 -1.4244  0.6873  1.1670
  640MOL0     H88256   7.601   3.829   9.816  1.0094 -0.1186 -0.3660
  640MOL0     H88257   7.782   4.001   9.745 -0.2654  0.8270  1.7146
  640MOL0     H88258   7.853   3.952   9.890  2.2751  0.0696 -2.7713
  640MOL0     H88259   7.861   3.732   9.858 -1.4036 -0.5463  0.2608
  640MOL0     H88260   7.788   3.739   9.694  0.5550 -0.1251 -0.3719
  640MOL0     H88261   7.989   3.938   9.705  0.9458 -0.6857 -1.8364
  640MOL0     H88262   7.968   3.786   9.613 -1.3040 -2.2325  0.3983
  640MOL0     H88263   8.186   3.818   9.723 -1.7121  2.7453 -1.3177
  640MOL0     H88264   8.116   3.793   9.882  5.8561  0.3678 -1.1452
  640MOL0     H88265   8.049   3.591   9.668  1.1992  1.8786 -1.2501
  640MOL0     H88266   8.058   3.579   9.850  0.9986  1.3801  0.8076
  640MOL0     H88267   8.296   3.620   9.655 -0.7209 -2.0959 -2.1348
  640MOL0     H88268   8.314   3.577   9.824 -0.3995  0.0337  0.4645
  640MOL0     H88269   8.121   3.330   9.842 -3.1298 -1.2365 -2.2738
  640MOL0     H88270   8.278   3.011   9.655 -0.4104 -3.1686  2.3686
  640MOL0     H88271   8.103   3.017   9.670 -0.2753 -1.4201  3.8968
  640MOL0     H88272   8.130   3.073   9.915 -0.7633 -0.0059  0.6273
  640MOL0     H88273   8.153   2.907   9.842  0.2298  0.0119 -1.3287
  640MOL0     H88274   8.396   2.966   9.844 -0.4103  0.7577 -0.6210
  640MOL0     H88275   8.350   3.116   9.915  0.5255 -0.7577 -2.1016
  640MOL0     H88276   8.241   2.961  10.110  0.3138 -1.0778 -0.3041
  640MOL0     H88277   8.333   2.833  10.028  1.4266 -0.9123  1.1020
  640MOL0     H88278   8.250   2.921  10.320 -0.2169  0.2381  0.1128
  640MOL0     H88279   8.243   3.028  10.670 -0.2461  1.7406 -0.8925
  640MOL0     H88280   8.245   2.859  10.637  0.8629  0.8693  0.1032
  640MOL0     H88281   8.146   2.958  10.527 -0.3275  3.3734  0.7098
  640MOL0     H88282   8.327   2.775  10.942  1.5571 -0.2002 -0.8568
  640MOL0     H88283   8.366   2.740  11.178 -1.5999  2.3844  2.3554
  640MOL0     H88284   8.437   2.706  11.363  0.0679  0.4801 -1.0082
  640MOL0     H88285   8.608   2.727  11.373 -0.8767 -0.8887 -0.0402
  640MOL0     H88286   8.533   2.696  11.584 -0.3486  0.4410  0.7606
  640MOL0     H88287   8.584   2.862  11.575  0.9962  0.1477 -1.3107
  640MOL0     H88288   8.296   2.772  11.552 -0.2186  0.5421  0.8563
  640MOL0     H88289   8.360   2.944  11.543  3.0239  0.6946 -0.6520
  640MOL0     H88290   8.374   2.740  11.770  0.9072 -0.2671 -0.3816
  640MOL0     H88291   8.259   2.875  11.759 -0.0513  0.6178 -0.3283
  640MOL0     H88292   8.557   2.929  11.786  1.0077 -0.4373  1.3101
  640MOL0     H88293   8.424   3.044  11.768 -0.2473 -0.3812 -1.1904
  640MOL0     H88294   8.513   2.994  12.007 -1.4315 -0.7500  2.9942
  640MOL0     H88295   8.427   2.839  11.988 -1.8007  0.0398  0.2634
  640MOL0     H88296   8.229   3.015  11.913 -1.6589  1.1936  1.3526
  640MOL0     H88297   8.326   3.119  12.020  3.9994 -0.2960  1.7777
  640MOL0     H88298   8.158   3.003  12.140  0.1673  0.8342 -0.1814
  640MOL0     H88299   8.312   2.944  12.201 -1.2019  1.6160  1.1771
  640MOL0     H88300   8.617   3.092  11.190 -2.8884  2.4870 -0.2227
  640MOL0     H88301   8.596   3.103  10.937  0.5456  0.8610  1.0382
  640MOL0     H88302   8.669   3.108  10.490  0.0310  1.3694 -2.1186
  640MOL0     H88303   8.619   3.089  10.235 -0.5529  0.1386 -0.3622
  640MOL0     H88304   7.317   3.777  10.025  1.8066  1.6119  0.4239
  640MOL0     H88305   7.105   3.710   9.936  0.1130  0.6322 -0.2323
  640MOL0     H88306   6.612   3.803   9.919  2.6664  1.3186 -0.5646
  640MOL0     H88307   6.420   3.685   9.834  0.5967 -0.6956  2.4087
  640MOL0     H88308   6.267   3.518   9.731 -1.6497  1.7329  0.7573
  640MOL0     H88309   6.260   3.654   9.621 -1.8370 -0.6951 -2.3290
  640MOL0     H88310   6.277   3.381   9.489  1.8566  1.4489  0.0374
  640MOL0     H88311   6.207   3.522   9.431  2.9929  2.2532  0.6929
  640MOL0     H88312   6.083   3.372   9.664 -1.6369 -1.0634 -0.7674
  640MOL0     H88313   6.011   3.506   9.588  1.8821  1.2515  0.6701
  640MOL0     H88314   6.065   3.263   9.419  2.4591  3.0340 -3.0781
  640MOL0     H88315   5.983   3.402   9.372 -2.2344 -3.2880 -2.5651
  640MOL0     H88316   5.659   3.249   9.565 -0.5364 -1.1043 -1.2256
  640MOL0     H88317   6.685   3.517   9.526  1.3078  0.3407  0.6608
  640MOL0     H88318   6.932   3.703   9.530  3.4522 -1.6434  0.4947
  640MOL0     H88319   6.973   3.590   9.668  0.0970 -2.1879 -0.9555
  640MOL0     H88320   6.907   3.536   9.523 -2.5414  1.1912 -2.5698
  641MOL0     O88321   1.475  11.451   5.464  0.3351  0.0699  0.1768
  641MOL0     C88322   1.550  11.471   5.370  0.1206  0.8098  0.6032
  641MOL0     O88323   1.573  11.596   5.313  0.0672  0.2863 -0.5068
  641MOL0     C88324   1.506  11.705   5.366 -0.0362 -0.1123  0.0674
  641MOL0     C88325   1.569  11.812   5.435  0.0056 -0.2955  0.9153
  641MOL0     C88326   1.491  11.911   5.477  0.2296 -0.4951 -0.7783
  641MOL0     C88327   1.350  11.918   5.467  0.3945  0.3835 -0.5137
  641MOL0     O88328   1.279  12.025   5.525  0.2434 -0.2702 -0.0163
  641MOL0     C88329   1.327  12.159   5.504 -0.3151 -0.0916  0.9797
  641MOL0     C88330   1.337  12.247   5.629  0.2412 -0.0074 -0.4447
  641MOL0     C88331   1.448  12.203   5.729  0.3358  0.2477  2.1063
  641MOL0     C88332   1.464  12.288   5.852 -0.0943  0.5594  0.2184
  641MOL0     C88333   1.567  12.221   5.938  0.1311  0.2892 -0.7696
  641MOL0     C88334   1.565  12.293   6.065  0.6430 -0.0587  0.3231
  641MOL0     C88335   1.651  12.230   6.169  0.0066  0.4513 -0.5039
  641MOL0     C88336   1.631  12.081   6.200 -0.5823 -0.5840  0.5726
  641MOL0     N88337   1.704  12.043   6.321  0.6602  0.5097 -0.3376
  641MOL0     C88338   1.833  11.994   6.313  0.1488  0.1106 -0.3189
  641MOL0     C88339   1.875  11.992   6.444  0.1489  0.1352  0.1093
  641MOL0     C88340   2.028  11.977   6.488 -0.4024 -0.6675  1.0933
  641MOL0     C88341   2.122  12.069   6.414  0.0037  0.6879  0.2489
  641MOL0     C88342   2.099  12.218   6.455 -0.2019  0.1304  0.3169
  641MOL0     C88343   2.187  12.321   6.392 -0.4140 -0.0508  0.0319
  641MOL0     O88344   2.199  12.308   6.248  0.1192  0.0576 -0.6735
  641MOL0     C88345   2.095  12.317   6.167 -0.9546 -0.7773 -1.1497
  641MOL0     C88346   2.111  12.272   6.038 -0.2233  1.4569 -0.2499
  641MOL0     C88347   2.027  12.296   5.932  1.2148  0.5598 -0.7591
  641MOL0     C88348   2.046  12.205   5.806 -0.1170 -0.3775 -0.3084
  641MOL0     C88349   1.922  12.388   5.958 -0.2121  0.0026 -0.2583
  641MOL0     C88350   1.833  12.442   5.850 -0.5801 -0.3674  0.3524
  641MOL0     O88351   1.760  12.545   5.887 -0.0167  0.2917  0.3554
  641MOL0     C88352   1.725  12.642   5.790 -0.1776 -1.1840  0.0953
  641MOL0     C88353   1.658  12.613   5.675 -0.3174  0.0240 -0.2410
  641MOL0     C88354   1.615  12.709   5.582 -0.2602 -1.3859  1.2433
  641MOL0     C88355   1.652  12.840   5.600 -1.4513 -0.4368  1.4802
  641MOL0     O88356   1.642  12.949   5.518 -0.4749 -0.1862  0.2198
  641MOL0     C88357   1.552  12.945   5.405 -0.0166 -0.0760  0.0218
  641MOL0     C88358   1.527  13.087   5.360  0.2387 -0.2640 -0.0505
  641MOL0     C88359   1.384  13.125   5.389  0.0670  0.2780 -0.1659
  641MOL0     C88360   1.361  13.144   5.542  0.1043  0.1277 -0.2136
  641MOL0     C88361   1.220  13.184   5.584 -0.2917  0.8340  0.2831
  641MOL0     C88362   1.173  13.327   5.529 -0.1927  0.2006  0.5796
  641MOL0     C88363   1.032  13.365   5.579 -0.1022 -0.9397 -0.3084
  641MOL0     C88364   0.983  13.505   5.535  0.3177 -0.1901 -0.1947
  641MOL0    Cl88365   0.833  13.546   5.641 -0.5095  0.1289  0.3664
  641MOL0     C88366   1.725  12.873   5.720  0.4926  1.0925  0.3437
  641MOL0     C88367   1.759  12.775   5.813  0.1491 -0.2550 -0.4967
  641MOL0     O88368   1.840  12.396   5.739 -0.6984  0.0229 -0.2672
  641MOL0     C88369   1.900  12.428   6.099 -0.4072 -0.2699  0.0516
  641MOL0     C88370   1.992  12.397   6.196  0.2286 -0.6747  0.0469
  641MOL0     N88371   1.768  12.017   6.525  0.9339 -0.7813  1.1242
  641MOL0     N88372   1.667  12.053   6.451 -0.7756  0.8295 -0.2030
  641MOL0     C88373   1.293  11.802   5.398  0.0426 -1.4654  0.0889
  641MOL0     C88374   1.365  11.699   5.335 -0.3445  0.3805  0.2837
  641MOL0     C88375   1.625  11.350   5.323  0.1830 -0.7542  0.9367
  641MOL0     C88376   1.665  11.254   5.411  0.6249 -0.7038  0.9465
  641MOL0     C88377   1.741  11.139   5.368 -0.0063 -1.2349  0.0378
  641MOL0     C88378   1.806  11.148   5.241 -0.2659 -0.0796 -0.7004
  641MOL0     O88379   1.891  11.052   5.192 -0.3148  0.1285  0.2342
  641MOL0     C88380   1.938  10.937   5.274  0.7141  0.1984 -0.3516
  641MOL0     C88381   2.036  10.989   5.376  0.1516 -0.2255  0.1496
  641MOL0     C88382   2.112  10.879   5.454 -0.1457  0.7788 -0.4091
  641MOL0     C88383   2.206  10.789   5.361  0.1700  0.1926  0.3989
  641MOL0     C88384   2.240  10.670   5.445  0.4723 -0.4462  0.3048
  641MOL0     C88385   2.243  10.580   5.524  0.1005  0.7337  0.4379
  641MOL0     C88386   1.766  11.251   5.156 -0.0391 -0.7390  0.6101
  641MOL0     C88387   1.673  11.346   5.191 -0.5028 -1.0348 -0.3328
  641MOL0     C88388   1.639  11.432   5.068  0.0993 -1.0430  0.4988
  641MOL0     H88389   1.677  11.814   5.439  0.0661 -0.8462 -0.0549
  641MOL0     H88390   1.536  11.997   5.526  1.0058 -1.7934  0.9008
  641MOL0     H88391   1.255  12.213   5.442 -1.0365 -0.4445  1.4994
  641MOL0     H88392   1.418  12.154   5.444 -0.8921 -0.3652  0.1014
  641MOL0     H88393   1.351  12.353   5.604 -0.4593  0.4455  0.9847
  641MOL0     H88394   1.242  12.240   5.682  0.0219 -0.7187 -0.9202
  641MOL0     H88395   1.439  12.099   5.760  1.7454 -1.0906 -1.4826
  641MOL0     H88396   1.542  12.210   5.673 -0.8200  1.9695  0.2179
  641MOL0     H88397   1.487  12.391   5.825  0.8205 -0.4859 -3.5981
  641MOL0     H88398   1.371  12.300   5.908 -0.2608 -0.3636  0.1647
  641MOL0     H88399   1.666  12.228   5.892  0.5512 -2.4285 -0.4652
  641MOL0     H88400   1.538  12.117   5.958  1.2357  0.1063 -0.0547
  641MOL0     H88401   1.605  12.395   6.057 -0.2598  0.2811  0.0110
  641MOL0     H88402   1.463  12.301   6.103  1.6711  1.7092  2.9596
  641MOL0     H88403   1.638  12.281   6.265  1.5757  1.2052 -0.6536
  641MOL0     H88404   1.757  12.245   6.147  0.0449  1.9537  0.5531
  641MOL0     H88405   1.522  12.073   6.214 -0.9421  1.6353 -0.4616
  641MOL0     H88406   1.653  12.009   6.120  2.2882  1.1726 -0.3558
  641MOL0     H88407   1.899  12.000   6.227 -1.6710  1.7093 -1.7055
  641MOL0     H88408   2.052  11.872   6.468 -1.1375 -0.6990  0.2943
  641MOL0     H88409   2.023  11.990   6.597 -1.7686 -1.3004  1.1318
  641MOL0     H88410   2.224  12.034   6.429  0.0156  1.3016  1.7638
  641MOL0     H88411   2.090  12.064   6.309 -0.7878 -1.7470  0.5517
  641MOL0     H88412   1.994  12.239   6.432 -0.2957 -0.9802 -0.3248
  641MOL0     H88413   2.108  12.224   6.564 -1.0735  1.5603  0.3354
  641MOL0     H88414   2.156  12.416   6.437 -0.9973 -0.6676  0.9917
  641MOL0     H88415   2.285  12.295   6.434 -1.6049 -1.5606  2.0737
  641MOL0     H88416   2.203  12.217   6.021  0.0622  1.8503 -0.0115
  641MOL0     H88417   2.112  12.121   5.831 -0.5311 -0.7523 -0.4449
  641MOL0     H88418   2.089  12.264   5.725 -0.6985 -0.6668 -0.8400
  641MOL0     H88419   1.951  12.163   5.770 -0.4273  0.3457 -0.3492
  641MOL0     H88420   1.637  12.510   5.648  1.5014 -0.1667 -1.1441
  641MOL0     H88421   1.568  12.665   5.495  1.0293  0.0558 -0.2550
  641MOL0     H88422   1.600  12.900   5.317  1.0316  2.2519 -0.6780
  641MOL0     H88423   1.457  12.897   5.427  0.7387 -2.4325 -1.4721
  641MOL0     H88424   1.603  13.153   5.403  0.4930  0.9744 -2.2289
  641MOL0     H88425   1.541  13.087   5.251  1.2433  1.7714  0.0268
  641MOL0     H88426   1.315  13.057   5.341 -3.2194  2.9414  0.4151
  641MOL0     H88427   1.382  13.225   5.345  0.2279 -0.4190 -1.8025
  641MOL0     H88428   1.421  13.228   5.578 -0.8689  0.1387  1.4668
  641MOL0     H88429   1.405  13.053   5.583 -0.4873  0.2820  0.7905
  641MOL0     H88430   1.150  13.108   5.547  0.4237 -0.7081  1.9335
  641MOL0     H88431   1.203  13.176   5.692 -2.4515 -1.0110 -0.1038
  641MOL0     H88432   1.169  13.314   5.421 -1.1407 -1.5771  0.8041
  641MOL0     H88433   1.242  13.402   5.567 -2.1722  1.6605  1.4861
  641MOL0     H88434   1.034  13.365   5.688  0.3257 -1.3171 -0.3146
  641MOL0     H88435   0.962  13.287   5.547 -2.1819  1.9347 -3.5619
  641MOL0     H88436   0.948  13.518   5.432 -2.8446  2.0112  0.9986
  641MOL0     H88437   1.065  13.576   5.552 -0.8683  0.8208  1.6961
  641MOL0     H88438   1.759  12.976   5.714  2.4528  0.4142 -0.8418
  641MOL0     H88439   1.825  12.795   5.896  1.2852  1.3209 -1.7184
  641MOL0     H88440   1.815  12.491   6.120 -0.4339  0.3280 -1.6750
  641MOL0     H88441   1.974  12.445   6.292  1.0199 -2.1357  0.9811
  641MOL0     H88442   1.185  11.816   5.393  0.2938  0.3098 -0.9704
  641MOL0     H88443   1.336  11.609   5.282  1.8587 -0.7449  0.8690
  641MOL0     H88444   1.632  11.266   5.513  0.0484 -0.6718  0.7600
  641MOL0     H88445   1.745  11.061   5.444 -3.7796 -0.2435  1.5148
  641MOL0     H88446   1.850  10.887   5.315  1.8351 -1.1991  0.4704
  641MOL0     H88447   1.983  10.874   5.198 -0.4823  2.0675 -2.7545
  641MOL0     H88448   1.991  11.054   5.451 -0.2917 -0.4779  0.1059
  641MOL0     H88449   2.116  11.046   5.328  0.0084  0.2205  0.4321
  641MOL0     H88450   2.170  10.923   5.536 -3.4438 -0.1347  2.6972
  641MOL0     H88451   2.034  10.816   5.498 -1.2964  0.0736 -3.2860
  641MOL0     H88452   2.297  10.841   5.332  1.0548  1.0723  4.2268
  641MOL0     H88453   2.146  10.758   5.275  1.1807  0.0359 -0.2683
  641MOL0     H88454   2.246  10.502   5.597  1.4987 -1.1054 -1.4990
  641MOL0     H88455   1.810  11.245   5.057  2.0658 -4.2005  1.5979
  641MOL0     H88456   1.624  11.376   4.975  0.1966 -1.1252  0.5321
  641MOL0     H88457   1.545  11.485   5.084 -0.5199 -2.8286  3.4316
  641MOL0     H88458   1.721  11.503   5.048 -0.7245 -0.0234  0.6441
  642MOL0     O88459  10.214   8.222   6.353  0.7691 -0.5836 -0.4612
  642MOL0     C88460  10.168   8.300   6.440 -0.0088 -0.4547 -0.4584
  642MOL0     O88461  10.232   8.368   6.534 -0.5669  0.6251 -0.7572
  642MOL0     C88462  10.365   8.347   6.541 -0.3775  0.8906 -0.1423
  642MOL0     C88463  10.419   8.236   6.617 -0.2815  0.1829  0.8354
  642MOL0     C88464  10.555   8.203   6.618 -0.2262 -0.0639 -0.2635
  642MOL0     C88465  10.649   8.286   6.552  0.1779  0.4471 -0.7765
  642MOL0     O88466  10.782   8.270   6.553  0.7482 -0.3628  0.9923
  642MOL0     C88467  10.841   8.275   6.682 -0.4531 -0.2076  0.1579
  642MOL0     C88468  10.936   8.392   6.669 -0.4650  0.0420 -0.1272
  642MOL0     C88469  11.055   8.361   6.585  0.2567 -0.0989  0.4357
  642MOL0     C88470  11.139   8.485   6.559  0.3573  0.1593 -0.2388
  642MOL0     C88471  11.227   8.462   6.433  0.2984  0.0556  0.6147
  642MOL0     C88472  11.364   8.539   6.431  0.1685  0.8468 -0.1766
  642MOL0     C88473  11.442   8.508   6.306 -0.7106 -0.1545  0.6644
  642MOL0     C88474  11.549   8.408   6.348 -0.6682 -0.1194  1.1464
  642MOL0     N88475  11.645   8.378   6.243 -0.8162 -0.5505  0.2335
  642MOL0     C88476  11.758   8.456   6.207  0.1236  0.1704 -0.2555
  642MOL0     C88477  11.809   8.408   6.089 -0.4335 -0.0102 -0.1431
  642MOL0     C88478  11.931   8.454   6.013  0.4189  0.6357 -0.4212
  642MOL0     C88479  12.055   8.453   6.094  0.0816  0.4171 -0.0527
  642MOL0     C88480  12.179   8.503   6.025  0.6665 -1.0237  1.0157
  642MOL0     C88481  12.293   8.476   6.118  0.0819 -0.2723  0.4720
  642MOL0     O88482  12.405   8.534   6.045  0.1515  0.1387  0.3297
  642MOL0     C88483  12.497   8.596   6.121 -0.1555 -0.9329 -0.1627
  642MOL0     C88484  12.555   8.530   6.228  0.4253 -1.1206  0.0037
  642MOL0     C88485  12.647   8.581   6.317  0.3690  0.5001  1.1435
  642MOL0     C88486  12.709   8.488   6.428 -0.7967 -0.1762 -0.4737
  642MOL0     C88487  12.707   8.709   6.286  0.1632 -0.1430  0.6388
  642MOL0     C88488  12.807   8.776   6.367 -0.4511 -0.5836  0.3371
  642MOL0     O88489  12.844   8.903   6.319 -0.3561  0.2037 -0.1363
  642MOL0     C88490  12.936   8.970   6.391 -1.3133 -0.6249 -0.0979
  642MOL0     C88491  12.949   8.976   6.528 -0.0785  0.2164 -0.2014
  642MOL0     C88492  13.046   9.050   6.598 -0.5567 -0.0193 -0.0588
  642MOL0     C88493  13.137   9.126   6.521  0.2209 -0.5599 -0.7291
  642MOL0     O88494  13.231   9.214   6.574  0.1023 -0.4810  0.2288
  642MOL0     C88495  13.322   9.144   6.662 -0.3228 -1.2419 -0.0979
  642MOL0     C88496  13.473   9.158   6.606 -0.1714 -0.5939  0.3454
  642MOL0     C88497  13.475   9.069   6.483 -0.3489 -0.2094 -0.0823
  642MOL0     C88498  13.617   9.012   6.465  0.6304 -0.2109  0.5900
  642MOL0     C88499  13.645   8.947   6.333 -0.1958  1.3287 -0.7002
  642MOL0     C88500  13.559   8.819   6.322 -0.6862  0.1171  0.6245
  642MOL0     C88501  13.555   8.764   6.176 -0.0759 -0.3514 -0.5014
  642MOL0     C88502  13.475   8.814   6.062  0.4075 -0.4209  0.1253
  642MOL0    Cl88503  13.493   8.699   5.919  0.2989  0.2409  0.3706
  642MOL0     C88504  13.134   9.117   6.381  0.5968 -0.7758  0.2293
  642MOL0     C88505  13.039   9.038   6.320 -0.3187  0.3202 -0.2173
  642MOL0     O88506  12.865   8.715   6.456  0.4678 -0.2516 -1.1880
  642MOL0     C88507  12.655   8.780   6.181  0.0320  0.1590  0.4356
  642MOL0     C88508  12.553   8.725   6.098  0.5044 -0.0750 -0.5505
  642MOL0     N88509  11.747   8.290   6.063 -0.1522  0.1847 -0.5150
  642MOL0     N88510  11.639   8.279   6.141  0.1920 -0.4288 -0.1449
  642MOL0     C88511  10.594   8.376   6.460  0.8933  0.5133  0.3591
  642MOL0     C88512  10.458   8.420   6.465  0.4101  0.1737  0.1410
  642MOL0     C88513  10.020   8.320   6.447  0.4717 -0.0496 -0.1719
  642MOL0     C88514   9.936   8.222   6.391  0.1814  0.7631 -0.1996
  642MOL0     C88515   9.804   8.217   6.408  0.4855 -0.3000  0.9966
  642MOL0     C88516   9.733   8.324   6.466  0.5666  0.4080 -0.1445
  642MOL0     O88517   9.589   8.316   6.478 -0.5294  0.0498  0.2904
  642MOL0     C88518   9.530   8.448   6.501 -0.1312  0.4341  0.2544
  642MOL0     C88519   9.372   8.445   6.476 -0.7086 -0.1033 -0.1313
  642MOL0     C88520   9.345   8.375   6.343 -0.0577  0.3119 -1.1073
  642MOL0     C88521   9.200   8.418   6.300  0.5128  0.1013  1.0340
  642MOL0     C88522   9.170   8.562   6.309 -0.0702  0.8871  0.0323
  642MOL0     C88523   9.139   8.680   6.277 -0.6448  1.1175 -0.0505
  642MOL0     C88524   9.809   8.431   6.524 -0.0440  0.8847  0.0759
  642MOL0     C88525   9.949   8.423   6.512 -0.4628 -0.4241  1.2637
  642MOL0     C88526  10.024   8.542   6.574  0.3368  0.2913  0.2347
  642MOL0     H88527  10.357   8.178   6.684 -2.7020  1.2481 -0.3736
  642MOL0     H88528  10.586   8.116   6.675  0.0398 -1.3527 -2.2984
  642MOL0     H88529  10.903   8.187   6.701  2.8956  2.1464  1.0577
  642MOL0     H88530  10.771   8.297   6.763  0.8837 -2.2818  2.0066
  642MOL0     H88531  10.880   8.479   6.633 -3.0266 -1.4921 -0.0438
  642MOL0     H88532  10.971   8.414   6.770  0.4136  0.0965 -0.4289
  642MOL0     H88533  11.123   8.286   6.627  0.1240 -0.1012  0.6440
  642MOL0     H88534  11.031   8.325   6.485  0.1487  0.1134  0.3853
  642MOL0     H88535  11.075   8.573   6.555  1.3036  0.8726 -0.2451
  642MOL0     H88536  11.205   8.497   6.646 -0.1824 -1.7754  0.4778
  642MOL0     H88537  11.171   8.493   6.345 -1.4321 -1.8655  0.9864
  642MOL0     H88538  11.242   8.355   6.419  4.0224  0.4843  0.1983
  642MOL0     H88539  11.346   8.646   6.448  0.4706  0.4806  2.9077
  642MOL0     H88540  11.420   8.506   6.518  1.0482  1.7991 -0.3540
  642MOL0     H88541  11.487   8.598   6.263 -2.7231  1.0876  1.0265
  642MOL0     H88542  11.384   8.469   6.222 -0.2347  0.5686 -0.0053
  642MOL0     H88543  11.606   8.451   6.432  3.8329 -0.2563 -1.5025
  642MOL0     H88544  11.503   8.314   6.381  2.0981 -2.8049 -1.9129
  642MOL0     H88545  11.781   8.549   6.259 -0.3409  2.7868 -4.2915
  642MOL0     H88546  11.913   8.553   5.971  0.5301  0.7806 -0.1266
  642MOL0     H88547  11.949   8.381   5.934 -2.2069  0.4848 -0.9539
  642MOL0     H88548  12.034   8.518   6.179  0.7560  0.2698  0.2361
  642MOL0     H88549  12.075   8.349   6.123  2.5782  0.9443  0.3532
  642MOL0     H88550  12.199   8.449   5.932 -2.0687 -1.5586  0.6558
  642MOL0     H88551  12.172   8.609   5.997 -0.5015 -1.6610 -1.3754
  642MOL0     H88552  12.283   8.529   6.213 -1.0990  0.3119  0.0485
  642MOL0     H88553  12.306   8.369   6.132 -0.0221 -0.7726 -2.6392
  642MOL0     H88554  12.512   8.433   6.253  0.0021 -1.4867 -1.9215
  642MOL0     H88555  12.657   8.392   6.416  1.9939 -1.6793 -1.6574
  642MOL0     H88556  12.689   8.531   6.527 -0.1600  3.1353 -1.6575
  642MOL0     H88557  12.817   8.471   6.418 -0.2803 -0.0620  3.2468
  642MOL0     H88558  12.885   8.933   6.604  0.1124 -0.4915 -0.4289
  642MOL0     H88559  13.047   9.061   6.706  0.0657  0.8410 -0.1429
  642MOL0     H88560  13.310   9.200   6.756 -4.1893  0.4250 -1.3809
  642MOL0     H88561  13.306   9.042   6.698 -0.3931  0.3115  5.0971
  642MOL0     H88562  13.507   9.262   6.597  0.7281 -0.2472  5.0824
  642MOL0     H88563  13.532   9.112   6.685 -1.5784 -2.5182  0.3336
  642MOL0     H88564  13.438   9.118   6.392 -2.4917  0.3423  1.0233
  642MOL0     H88565  13.410   8.982   6.498  0.4999 -0.5959  1.5809
  642MOL0     H88566  13.630   8.947   6.552  2.2427  0.2606  0.7334
  642MOL0     H88567  13.691   9.091   6.475 -0.9205  1.2617  0.9728
  642MOL0     H88568  13.640   9.014   6.247  3.1731  1.0807 -1.2173
  642MOL0     H88569  13.748   8.911   6.335  0.3922  2.8451 -1.7861
  642MOL0     H88570  13.456   8.851   6.344 -2.3084 -0.9894 -4.1972
  642MOL0     H88571  13.594   8.746   6.395 -1.6032  0.3436  1.3207
  642MOL0     H88572  13.522   8.661   6.194  0.1253 -0.2235  0.7165
  642MOL0     H88573  13.659   8.761   6.142 -0.6435 -1.9569 -2.2579
  642MOL0     H88574  13.510   8.911   6.026  0.2847 -1.8573 -4.6183
  642MOL0     H88575  13.373   8.825   6.102  1.4964  0.3251  2.8693
  642MOL0     H88576  13.197   9.176   6.316  2.1234  0.0902  2.3550
  642MOL0     H88577  13.043   9.029   6.211 -0.3756 -0.7766 -0.1439
  642MOL0     H88578  12.690   8.879   6.154  3.0248 -1.5080 -2.5836
  642MOL0     H88579  12.517   8.787   6.017 -0.2826  1.8183  1.1633
  642MOL0     H88580  10.654   8.438   6.395 -0.5422  3.3182  1.5064
  642MOL0     H88581  10.421   8.506   6.409  1.3697  1.2705  1.1232
  642MOL0     H88582   9.982   8.138   6.339 -1.5101 -1.0940  1.1533
  642MOL0     H88583   9.738   8.136   6.379 -1.5003 -0.2153  4.7044
  642MOL0     H88584   9.545   8.491   6.601 -0.8495  0.4553  0.3580
  642MOL0     H88585   9.581   8.512   6.429  2.7791 -1.1470  0.7231
  642MOL0     H88586   9.338   8.548   6.488  0.0963 -0.1391  3.4256
  642MOL0     H88587   9.332   8.390   6.561  2.8157 -1.1242  1.0330
  642MOL0     H88588   9.425   8.398   6.272  0.7530 -0.1770 -0.3664
  642MOL0     H88589   9.343   8.266   6.353 -2.0523  0.4406  0.7019
  642MOL0     H88590   9.128   8.356   6.354 -0.4035  0.4609  0.2427
  642MOL0     H88591   9.195   8.391   6.195  1.5985 -1.5603  1.3814
  642MOL0     H88592   9.130   8.780   6.239 -1.1820  1.2179  0.3408
  642MOL0     H88593   9.770   8.515   6.581 -0.6757  2.2349 -2.2170
  642MOL0     H88594   9.963   8.632   6.589  2.2302  1.7584 -0.3300
  642MOL0     H88595  10.048   8.533   6.680 -0.8087  2.7641  0.7764
  642MOL0     H88596  10.101   8.582   6.507  0.8326  1.5297  1.4844
  643MOL0     O88597   6.099   1.415  11.195  0.6392 -0.1657 -0.1199
  643MOL0     C88598   6.141   1.298  11.202  0.0684  0.2427  0.8859
  643MOL0     O88599   6.128   1.214  11.309  0.1537 -1.0138  0.1918
  643MOL0     C88600   6.086   1.271  11.428 -0.2805 -0.4274  0.7481
  643MOL0     C88601   5.958   1.274  11.471  1.4472  0.0414 -1.5503
  643MOL0     C88602   5.916   1.315  11.603  0.5286 -0.1897  0.0611
  643MOL0     C88603   6.014   1.350  11.693 -0.7408 -0.6031  0.1858
  643MOL0     O88604   5.971   1.365  11.826  0.2585  0.4359  0.1089
  643MOL0     C88605   6.057   1.381  11.939  0.1460  0.0409 -0.5767
  643MOL0     C88606   5.961   1.405  12.065 -0.1172 -0.2933 -0.2452
  643MOL0     C88607   6.045   1.391  12.196 -0.3532 -0.2502  0.2274
  643MOL0     C88608   6.037   1.513  12.282  0.7331  0.2503  1.0544
  643MOL0     C88609   6.085   1.491  12.420  0.4294 -0.1782  0.2023
  643MOL0     C88610   6.102   1.621  12.496 -0.4271 -0.1113 -0.2819
  643MOL0     C88611   6.088   1.593  12.643 -0.8201  0.7770 -0.0947
  643MOL0     C88612   6.199   1.499  12.694  0.4619  0.3934 -0.0611
  643MOL0     N88613   6.244   1.537  12.824 -0.2512  0.2515  0.7241
  643MOL0     C88614   6.209   1.472  12.936 -0.3128 -0.3344 -0.2025
  643MOL0     C88615   6.261   1.546  13.043 -0.2980  0.2885  0.5216
  643MOL0     C88616   6.250   1.508  13.188 -0.0710 -0.1661 -0.1058
  643MOL0     C88617   6.374   1.546  13.271  0.2647 -0.6419 -0.5299
  643MOL0     C88618   6.350   1.511  13.423  0.0245  0.2248  0.5910
  643MOL0     C88619   6.226   1.579  13.491 -0.3424 -0.5234 -0.5668
  643MOL0     O88620   6.112   1.494  13.467 -0.1119  0.2378  0.3895
  643MOL0     C88621   6.083   1.392  13.551  0.0787  1.4204  0.3497
  643MOL0     C88622   5.999   1.286  13.510 -0.6372 -0.9389  0.7394
  643MOL0     C88623   5.963   1.179  13.588 -0.3567 -0.4662  0.7438
  643MOL0     C88624   5.908   1.062  13.507  0.1936  0.0229  0.6674
  643MOL0     C88625   6.003   1.176  13.730  0.6170  0.6189  0.5050
  643MOL0     C88626   5.948   1.082  13.828 -0.0506  1.1681  0.5674
  643MOL0     O88627   5.995   1.090  13.954 -0.7711  0.5966  0.1083
  643MOL0     C88628   5.975   0.995  14.054  0.6997  0.0023  0.1178
  643MOL0     C88629   5.949   0.857  14.039 -0.2287 -0.2779  0.1159
  643MOL0     C88630   5.932   0.772  14.148  1.0969 -0.3282 -0.5927
  643MOL0     C88631   5.936   0.823  14.281 -0.4800 -0.2710 -0.3260
  643MOL0     O88632   5.902   0.733  14.378  0.2058  0.1236  0.1275
  643MOL0     C88633   5.989   0.738  14.496 -0.6194  0.1251 -0.1817
  643MOL0     C88634   5.922   0.687  14.633  0.6223 -0.5464  0.1793
  643MOL0     C88635   5.807   0.779  14.669 -0.9003 -0.0495  0.1635
  643MOL0     C88636   5.733   0.743  14.799  0.0673  0.3817 -0.3157
  643MOL0     C88637   5.629   0.844  14.842 -0.3582  0.2997 -0.6489
  643MOL0     C88638   5.665   0.979  14.906 -0.2550 -0.3545  0.0254
  643MOL0     C88639   5.772   0.953  15.013 -0.3791 -0.1747 -0.0108
  643MOL0     C88640   5.816   1.074  15.102 -0.7158  0.4168  0.5483
  643MOL0    Cl88641   5.678   1.124  15.197 -0.4466  0.3284 -0.5784
  643MOL0     C88642   5.941   0.962  14.296  0.0823 -0.8559 -0.2205
  643MOL0     C88643   5.971   1.047  14.186  0.3588 -0.1567 -0.1626
  643MOL0     O88644   5.862   1.003  13.789  0.5519  0.5849 -0.6494
  643MOL0     C88645   6.093   1.281  13.772 -0.6374  0.5105  0.1382
  643MOL0     C88646   6.118   1.392  13.686  1.2532  0.3631 -0.0485
  643MOL0     N88647   6.310   1.664  12.987 -0.2277 -0.0849  1.1717
  643MOL0     N88648   6.310   1.648  12.857  0.0248  0.5889  0.4351
  643MOL0     C88649   6.146   1.363  11.651  0.0918  0.8861  0.2630
  643MOL0     C88650   6.185   1.329  11.516  0.0786  0.4765  0.3839
  643MOL0     C88651   6.198   1.237  11.074 -0.3640  0.2354 -0.9334
  643MOL0     C88652   6.169   1.098  11.050  0.0057 -0.0856 -0.5490
  643MOL0     C88653   6.202   1.044  10.920 -0.4558 -0.0861 -0.1777
  643MOL0     C88654   6.266   1.117  10.824  0.5868 -0.1674 -0.3111
  643MOL0     O88655   6.309   1.066  10.709 -0.1437 -0.0983 -0.3128
  643MOL0     C88656   6.240   0.955  10.652  0.2857 -0.1105  0.2968
  643MOL0     C88657   6.298   0.941  10.516  0.5737  0.9081  0.5332
  643MOL0     C88658   6.221   0.836  10.437 -0.0910  0.2662  0.3906
  643MOL0     C88659   6.281   0.817  10.304  0.7124  0.7350  0.9961
  643MOL0     C88660   6.405   0.731  10.290  0.3466  0.8362  0.1771
  643MOL0     C88661   6.488   0.648  10.261  0.3232  0.4084 -0.4831
  643MOL0     C88662   6.297   1.248  10.851 -0.3871  0.5987  0.2406
  643MOL0     C88663   6.262   1.311  10.970 -0.8056 -0.3972 -0.8275
  643MOL0     C88664   6.302   1.460  10.989 -1.2545  0.4064 -0.4169
  643MOL0     H88665   5.879   1.229  11.411  2.8028 -3.1200 -1.1433
  643MOL0     H88666   5.809   1.307  11.624  0.1541  4.1940  0.6570
  643MOL0     H88667   6.138   1.451  11.915  0.0267  0.3854 -0.0041
  643MOL0     H88668   6.103   1.285  11.963  0.9600  0.0020 -2.1549
  643MOL0     H88669   5.891   1.489  12.074  1.8486  1.4778 -0.6544
  643MOL0     H88670   5.892   1.321  12.070 -1.5727  0.8104 -0.9653
  643MOL0     H88671   6.010   1.307  12.257 -1.0512 -0.8950 -1.0165
  643MOL0     H88672   6.150   1.371  12.171 -0.4518 -0.1851 -0.2540
  643MOL0     H88673   6.088   1.596  12.232 -0.5650  0.7457  0.5026
  643MOL0     H88674   5.940   1.564  12.291  1.8745  2.5083  1.4798
  643MOL0     H88675   6.183   1.441  12.411  0.7462  0.6641 -1.4065
  643MOL0     H88676   6.022   1.411  12.459  1.1750 -1.1070 -0.4352
  643MOL0     H88677   6.198   1.658  12.457  0.9388 -1.0693  1.9568
  643MOL0     H88678   6.026   1.692  12.465  1.6702  1.3332 -2.5460
  643MOL0     H88679   5.996   1.535  12.655 -1.7860  1.8510 -1.8008
  643MOL0     H88680   6.085   1.680  12.710 -2.3274  0.3471  0.4352
  643MOL0     H88681   6.168   1.394  12.681 -0.1228  0.3320  1.5897
  643MOL0     H88682   6.287   1.494  12.630  2.2435  0.6539  2.2622
  643MOL0     H88683   6.145   1.385  12.946  1.0695 -1.3511  0.0139
  643MOL0     H88684   6.216   1.404  13.202  1.8089 -0.9539 -1.1546
  643MOL0     H88685   6.171   1.570  13.232  0.7697 -0.2310  1.5861
  643MOL0     H88686   6.452   1.487  13.223  1.0381 -0.5127  0.5235
  643MOL0     H88687   6.407   1.650  13.262  3.1150 -1.4013  0.0141
  643MOL0     H88688   6.329   1.404  13.431  1.6565 -0.1278  0.6336
  643MOL0     H88689   6.446   1.528  13.472  1.1917 -0.7455 -1.2333
  643MOL0     H88690   6.243   1.605  13.597 -0.0809 -1.6735 -0.3118
  643MOL0     H88691   6.214   1.673  13.436 -0.4336 -0.8516 -1.1110
  643MOL0     H88692   5.973   1.297  13.405 -2.2763  1.7501  1.3246
  643MOL0     H88693   5.817   1.023  13.555  0.2749 -2.2091 -0.8657
  643MOL0     H88694   5.993   0.994  13.506  1.2365  1.2879 -0.6672
  643MOL0     H88695   5.876   1.086  13.405 -1.0237 -2.6161  0.3512
  643MOL0     H88696   5.962   0.813  13.940  1.4564  1.7417 -0.6247
  643MOL0     H88697   5.903   0.671  14.120 -1.7267  0.4151 -0.7264
  643MOL0     H88698   6.080   0.678  14.483  0.9423  1.6460  2.6479
  643MOL0     H88699   6.026   0.839  14.516  2.3568 -0.6700 -1.1712
  643MOL0     H88700   5.882   0.587  14.616 -0.0741 -0.5685  1.8308
  643MOL0     H88701   5.995   0.694  14.714 -1.9747 -2.2573  2.8527
  643MOL0     H88702   5.746   0.790  14.580 -0.9069  0.1597  0.1941
  643MOL0     H88703   5.844   0.881  14.682 -0.3388 -0.1620 -0.4567
  643MOL0     H88704   5.809   0.718  14.873 -0.1879 -2.9888 -1.0302
  643MOL0     H88705   5.667   0.656  14.787 -0.6099  0.3129  3.0499
  643MOL0     H88706   5.554   0.858  14.763 -1.9615 -0.3813  0.6800
  643MOL0     H88707   5.572   0.797  14.922 -0.2080  1.4492  0.1563
  643MOL0     H88708   5.575   1.019  14.952  0.1016 -1.3041  1.6277
  643MOL0     H88709   5.700   1.055  14.835  1.7365  0.8423  2.1398
  643MOL0     H88710   5.857   0.919  14.953 -1.7037 -1.1622 -1.4059
  643MOL0     H88711   5.737   0.869  15.073 -0.5339 -1.0669 -1.3056
  643MOL0     H88712   5.857   1.155  15.041 -1.0176  0.4271  0.3583
  643MOL0     H88713   5.892   1.039  15.173 -1.0234  1.9607  1.6839
  643MOL0     H88714   5.932   1.011  14.392 -3.8234  0.8521 -1.2290
  643MOL0     H88715   5.977   1.154  14.201  0.7480 -0.1541 -0.3472
  643MOL0     H88716   6.136   1.274  13.871  1.8428  0.6846 -0.8366
  643MOL0     H88717   6.187   1.463  13.730  0.8971  1.5849 -1.4000
  643MOL0     H88718   6.231   1.385  11.715  0.4945  1.6903 -0.5261
  643MOL0     H88719   6.284   1.352  11.480 -0.3852  0.8957 -0.6699
  643MOL0     H88720   6.125   1.036  11.128 -1.1465  0.5568 -0.6694
  643MOL0     H88721   6.174   0.943  10.893  1.3279 -0.7706  0.3273
  643MOL0     H88722   6.243   0.857  10.701 -2.1009 -0.2731  0.2549
  643MOL0     H88723   6.133   0.978  10.648 -0.0096 -1.6184 -3.0032
  643MOL0     H88724   6.401   0.906  10.526 -0.0056 -1.0184  0.3014
  643MOL0     H88725   6.284   1.037  10.467  3.3614  0.6686 -0.9166
  643MOL0     H88726   6.229   0.740  10.487 -1.9049 -0.4495 -0.6120
  643MOL0     H88727   6.116   0.864  10.424 -0.4804 -1.9022 -1.9303
  643MOL0     H88728   6.288   0.915  10.254  1.0082  0.5410  0.6493
  643MOL0     H88729   6.204   0.759  10.251  3.3668 -1.0110 -1.2584
  643MOL0     H88730   6.569   0.581  10.238  0.0230  0.2941 -1.2682
  643MOL0     H88731   6.345   1.310  10.776  0.1176 -2.5024 -2.1741
  643MOL0     H88732   6.336   1.492  11.088 -1.3238 -1.1225  0.1290
  643MOL0     H88733   6.382   1.495  10.923 -1.2907  0.3279 -0.5029
  643MOL0     H88734   6.214   1.522  10.969 -1.3695  1.1045  1.9035
  644MOL0     O88735   0.456   2.407  10.689 -0.1767  0.3261  0.3965
  644MOL0     C88736   0.448   2.442  10.806 -0.3776 -0.5771 -0.4766
  644MOL0     O88737   0.371   2.542  10.854  0.2293 -0.7846 -0.2165
  644MOL0     C88738   0.292   2.613  10.765 -0.4604 -0.3527  0.1135
  644MOL0     C88739   0.165   2.572  10.701 -0.4679 -0.4655  0.1085
  644MOL0     C88740   0.092   2.662  10.623  0.7795 -0.2446  0.7998
  644MOL0     C88741   0.145   2.788  10.606 -0.6427 -0.8937  0.3898
  644MOL0     O88742   0.073   2.876  10.546 -0.0777  0.2128 -0.6086
  644MOL0     C88743   0.114   2.902  10.413 -0.4266 -0.1655  0.8377
  644MOL0     C88744   0.077   3.043  10.365 -0.7112  0.1579 -0.0418
  644MOL0     C88745   0.176   3.144  10.425 -0.2163 -0.3665  0.0568
  644MOL0     C88746   0.138   3.294  10.411 -0.4509 -0.1306  0.3328
  644MOL0     C88747   0.074   3.348  10.535  0.2351  0.5634 -0.4361
  644MOL0     C88748   0.048   3.494  10.529  0.6910  0.2792  0.9021
  644MOL0     C88749  -0.004   3.547  10.663  0.2559 -0.0389 -1.0470
  644MOL0     C88750  -0.035   3.697  10.653  0.1362  0.1403 -0.4162
  644MOL0     N88751  -0.168   3.722  10.590  0.1792 -0.1934  0.4717
  644MOL0     C88752  -0.276   3.756  10.663 -0.3122 -0.1608 -1.0931
  644MOL0     C88753  -0.358   3.816  10.576  0.2719 -0.0717 -0.1744
  644MOL0     C88754  -0.504   3.866  10.592 -0.5083  0.2616  0.2750
  644MOL0     C88755  -0.572   3.805  10.714 -0.1558  0.4132 -0.2502
  644MOL0     C88756  -0.721   3.819  10.683  0.4245 -0.3869 -0.0003
  644MOL0     C88757  -0.803   3.762  10.801  0.2717  0.0438  0.6810
  644MOL0     O88758  -0.770   3.837  10.917 -0.5113 -0.0922 -0.0683
  644MOL0     C88759  -0.864   3.928  10.953 -0.5563 -0.0319 -0.1600
  644MOL0     C88760  -0.953   3.995  10.872 -0.0017 -0.9563 -0.1384
  644MOL0     C88761  -1.041   4.090  10.924  0.1754  0.0156  0.0667
  644MOL0     C88762  -1.139   4.149  10.825  0.1608  0.2178 -0.3462
  644MOL0     C88763  -1.043   4.105  11.072 -0.5954  0.2704 -0.0641
  644MOL0     C88764  -1.143   4.194  11.143  0.0995 -0.2926 -0.9920
  644MOL0     O88765  -1.128   4.199  11.270 -0.2452 -0.4799  0.1362
  644MOL0     C88766  -1.229   4.240  11.351 -0.7074 -0.1821  0.1953
  644MOL0     C88767  -1.366   4.260  11.325  0.3622 -1.0995 -0.1991
  644MOL0     C88768  -1.453   4.300  11.423  0.9341  0.4756  0.0627
  644MOL0     C88769  -1.401   4.353  11.543 -0.7096  0.4291 -1.0426
  644MOL0     O88770  -1.486   4.402  11.650 -0.2504 -0.3057 -0.4769
  644MOL0     C88771  -1.623   4.420  11.615 -0.2507  0.6308 -0.3361
  644MOL0     C88772  -1.685   4.530  11.712  0.0446  0.6897 -0.2592
  644MOL0     C88773  -1.715   4.464  11.851  0.0181  0.1040  0.1930
  644MOL0     C88774  -1.748   4.576  11.944  0.1778 -0.1590 -0.6092
  644MOL0     C88775  -1.810   4.523  12.075  0.5631 -0.2382  0.8286
  644MOL0     C88776  -1.937   4.448  12.050  0.0937  0.9425  0.2258
  644MOL0     C88777  -2.004   4.420  12.191 -0.2083 -0.9742  0.4651
  644MOL0     C88778  -2.147   4.379  12.187 -0.9254 -0.0479  0.2037
  644MOL0    Cl88779  -2.150   4.215  12.102  0.2979  0.1188  0.4846
  644MOL0     C88780  -1.265   4.334  11.575 -1.0339  0.1169 -0.1472
  644MOL0     C88781  -1.186   4.265  11.480  0.8544 -0.6366 -1.2117
  644MOL0     O88782  -1.236   4.243  11.079 -0.5419 -0.2093 -0.7157
  644MOL0     C88783  -0.949   4.040  11.151  0.1504  0.0502 -0.3062
  644MOL0     C88784  -0.854   3.956  11.085  0.1828  0.1937 -1.0903
  644MOL0     N88785  -0.297   3.835  10.456  0.0853  0.1010  0.4466
  644MOL0     N88786  -0.184   3.777  10.464 -0.0761  0.3589  0.4636
  644MOL0     C88787   0.258   2.833  10.668  0.0707 -0.5291  0.3427
  644MOL0     C88788   0.332   2.747  10.751 -0.3606 -0.4242  0.7223
  644MOL0     C88789   0.538   2.373  10.904  0.0483  0.1539  0.2916
  644MOL0     C88790   0.586   2.242  10.874 -0.3322  0.6962  0.2054
  644MOL0     C88791   0.670   2.172  10.961  0.3055  0.9754 -0.5260
  644MOL0     C88792   0.709   2.227  11.080  0.3309 -0.4365 -0.3111
  644MOL0     O88793   0.782   2.164  11.180  0.5098 -0.2913  0.0469
  644MOL0     C88794   0.850   2.043  11.149 -0.5325  0.7211  0.4189
  644MOL0     C88795   0.991   2.088  11.096 -0.4610  1.5918 -0.5845
  644MOL0     C88796   1.073   1.964  11.051  0.6316 -0.5250  0.0760
  644MOL0     C88797   1.223   2.008  11.006  0.2133 -0.4400  0.4512
  644MOL0     C88798   1.315   1.902  11.054 -0.2557  0.5681 -0.0415
  644MOL0     C88799   1.373   1.807  11.104 -0.6086  0.0073  0.5888
  644MOL0     C88800   0.658   2.350  11.122 -0.1123  0.7297 -0.5766
  644MOL0     C88801   0.576   2.424  11.036 -0.3705  0.2405  0.5102
  644MOL0     C88802   0.551   2.563  11.093  1.4685 -0.0167  0.0736
  644MOL0     H88803   0.120   2.474  10.716 -1.9983  0.0508 -0.8525
  644MOL0     H88804   0.001   2.634  10.571  1.1124  0.8026 -0.3960
  644MOL0     H88805   0.074   2.826  10.345  4.1432 -1.5962 -0.6409
  644MOL0     H88806   0.222   2.901  10.393 -0.8824  1.3475 -2.3753
  644MOL0     H88807   0.087   3.044  10.256  1.7623 -1.4550  0.0803
  644MOL0     H88808  -0.024   3.077  10.388 -0.1142  0.4552  2.4373
  644MOL0     H88809   0.181   3.114  10.531 -1.8763 -0.7361  0.0494
  644MOL0     H88810   0.274   3.134  10.377  0.4316 -2.1334  1.5928
  644MOL0     H88811   0.231   3.348  10.391 -0.4216 -0.5751 -0.7601
  644MOL0     H88812   0.083   3.303  10.317  0.3358  0.2324 -0.1036
  644MOL0     H88813   0.140   3.320  10.617  0.3727 -0.4973 -0.8890
  644MOL0     H88814  -0.023   3.302  10.558  0.3791 -0.5081 -1.8142
  644MOL0     H88815   0.136   3.543  10.488  1.4247 -0.2603  1.8096
  644MOL0     H88816  -0.030   3.508  10.453  0.4317 -1.1351  0.8675
  644MOL0     H88817   0.081   3.536  10.731  0.6503  0.0836 -1.5160
  644MOL0     H88818  -0.087   3.487  10.700 -2.0209  0.8677 -4.2832
  644MOL0     H88819  -0.061   3.738  10.751 -1.6317 -0.8179 -0.4482
  644MOL0     H88820   0.042   3.757  10.602 -0.8943 -0.0496 -2.2724
  644MOL0     H88821  -0.291   3.742  10.770  0.2807  0.9637 -0.8476
  644MOL0     H88822  -0.546   3.844  10.494  0.5957 -0.4781 -0.0601
  644MOL0     H88823  -0.510   3.974  10.605  2.3302  0.6951 -1.1809
  644MOL0     H88824  -0.549   3.701  10.737 -2.9619  0.1868  1.9931
  644MOL0     H88825  -0.548   3.868  10.800 -0.3849  0.8717 -0.5166
  644MOL0     H88826  -0.740   3.925  10.665  0.2208 -0.5234 -0.5910
  644MOL0     H88827  -0.750   3.765  10.593 -0.3546  0.9463 -0.5620
  644MOL0     H88828  -0.910   3.764  10.778  0.6103  1.0058 -0.9418
  644MOL0     H88829  -0.775   3.657  10.800 -2.2947 -0.7094 -0.1870
  644MOL0     H88830  -0.947   3.968  10.767  4.2883  0.0847 -0.3532
  644MOL0     H88831  -1.239   4.143  10.869  1.8248 -0.5690  3.7239
  644MOL0     H88832  -1.141   4.095  10.730 -1.7578 -2.7771  1.2160
  644MOL0     H88833  -1.110   4.253  10.808  0.1711  0.4921  1.1980
  644MOL0     H88834  -1.408   4.246  11.226  1.4751 -0.4725 -0.7886
  644MOL0     H88835  -1.557   4.285  11.398  1.1331 -1.8800  0.3679
  644MOL0     H88836  -1.647   4.458  11.515  0.3446  1.8335 -0.0507
  644MOL0     H88837  -1.678   4.326  11.620  1.6050 -0.5779 -1.3421
  644MOL0     H88838  -1.613   4.613  11.717  0.4314  0.3316  3.7840
  644MOL0     H88839  -1.778   4.577  11.681  0.3417  1.9855  0.7284
  644MOL0     H88840  -1.631   4.402  11.885  1.3788  0.7428 -1.8003
  644MOL0     H88841  -1.798   4.397  11.829  0.8856 -1.8355  2.4339
  644MOL0     H88842  -1.817   4.646  11.896  2.4753  2.0924 -0.8571
  644MOL0     H88843  -1.667   4.647  11.964  0.4549 -0.6998  0.2202
  644MOL0     H88844  -1.737   4.454  12.119  0.0865  0.6114  3.0513
  644MOL0     H88845  -1.814   4.615  12.134 -2.7435 -0.0157  0.4106
  644MOL0     H88846  -1.913   4.352  12.003 -0.3307  0.5860  0.7318
  644MOL0     H88847  -2.003   4.494  11.975 -0.3109 -1.5904 -1.1150
  644MOL0     H88848  -2.000   4.515  12.244  0.0021 -0.3866 -0.5746
  644MOL0     H88849  -1.949   4.339  12.241 -0.9084 -1.9382 -0.2735
  644MOL0     H88850  -2.209   4.445  12.126  0.3344  0.0512 -1.0135
  644MOL0     H88851  -2.183   4.361  12.289  2.0943  0.6237  1.5053
  644MOL0     H88852  -1.221   4.370  11.668 -1.4795 -1.2553  0.6205
  644MOL0     H88853  -1.081   4.258  11.507  1.1832  0.9051 -1.9548
  644MOL0     H88854  -0.941   4.056  11.258  1.7506  2.6544 -0.7143
  644MOL0     H88855  -0.781   3.912  11.152 -0.5209  1.2234  0.4040
  644MOL0     H88856   0.273   2.941  10.668  0.8481 -0.5284 -3.0216
  644MOL0     H88857   0.429   2.779  10.789  1.2613 -1.1543 -2.3948
  644MOL0     H88858   0.560   2.197  10.779  2.1797 -1.7886  0.5811
  644MOL0     H88859   0.711   2.080  10.921  0.9894  2.1961 -2.8479
  644MOL0     H88860   0.878   1.983  11.235  1.0939 -0.8344 -1.1007
  644MOL0     H88861   0.791   1.982  11.079 -0.0092  2.1189 -1.3116
  644MOL0     H88862   1.037   2.135  11.184 -0.9190  2.8295 -0.9818
  644MOL0     H88863   0.972   2.157  11.013 -1.6139  0.6233 -1.1728
  644MOL0     H88864   1.096   1.895  11.134  3.3001 -0.2750 -0.3557
  644MOL0     H88865   1.026   1.907  10.971 -0.4472  0.0854  0.2539
  644MOL0     H88866   1.263   2.098  11.054  1.9185  0.1645 -1.9463
  644MOL0     H88867   1.220   2.024  10.898 -3.8513  1.5150  0.6403
  644MOL0     H88868   1.421   1.722  11.148 -2.2044 -2.0426 -1.3962
  644MOL0     H88869   0.692   2.384  11.219 -1.9308 -2.9774  1.5924
  644MOL0     H88870   0.443   2.578  11.100  1.3082  4.7378 -5.1096
  644MOL0     H88871   0.610   2.583  11.184  1.5671  1.0108 -0.1996
  644MOL0     H88872   0.589   2.639  11.024  0.6753 -0.7633 -1.2064
  645MOL0     O88873   5.859   7.676   2.086  0.1815  1.0610 -0.7886
  645MOL0     C88874   5.948   7.613   2.040 -0.1815  0.1439 -0.0087
  645MOL0     O88875   5.952   7.560   1.921  0.1571  1.0215  0.1269
  645MOL0     C88876   5.840   7.534   1.848 -0.7771 -0.0765 -0.2535
  645MOL0     C88877   5.782   7.632   1.777 -1.2080 -0.0220  0.1770
  645MOL0     C88878   5.653   7.613   1.728  0.4170 -0.8746  0.1990
  645MOL0     C88879   5.580   7.492   1.745 -0.1050 -0.0768  0.8580
  645MOL0     O88880   5.459   7.481   1.676 -0.2709  0.0689 -0.1587
  645MOL0     C88881   5.350   7.414   1.738  0.7951  0.9608  0.5591
  645MOL0     C88882   5.269   7.356   1.618 -0.0612  0.3772 -0.3475
  645MOL0     C88883   5.347   7.247   1.544 -0.2668  0.6528 -0.0837
  645MOL0     C88884   5.258   7.194   1.434 -0.6096  0.4883  0.1238
  645MOL0     C88885   5.312   7.075   1.365 -1.3964 -0.7337 -0.4951
  645MOL0     C88886   5.217   7.022   1.260  0.1817  0.1070 -0.3763
  645MOL0     C88887   5.285   6.936   1.154  0.6023 -0.1233  0.6991
  645MOL0     C88888   5.352   6.808   1.205  0.2135  0.0289  0.7840
  645MOL0     N88889   5.408   6.732   1.086  0.7529  0.3860  0.2376
  645MOL0     C88890   5.525   6.766   1.021 -0.0221  0.5427  0.0665
  645MOL0     C88891   5.525   6.681   0.914  0.3200 -0.2259  0.3871
  645MOL0     C88892   5.643   6.668   0.819  0.1325  0.0683 -0.1008
  645MOL0     C88893   5.587   6.639   0.683 -0.0162  0.8127  0.1232
  645MOL0     C88894   5.686   6.671   0.565  0.8695  0.4963  0.9221
  645MOL0     C88895   5.620   6.670   0.429 -0.0255  0.4089  0.2540
  645MOL0     O88896   5.713   6.670   0.321 -0.3115  0.2680  0.0142
  645MOL0     C88897   5.775   6.789   0.284  0.3862 -0.4245 -0.6572
  645MOL0     C88898   5.697   6.904   0.274 -0.7476 -1.0984  0.2435
  645MOL0     C88899   5.771   7.027   0.267 -0.1577 -0.3254  0.0353
  645MOL0     C88900   5.684   7.151   0.232 -1.0344 -0.1683  0.6222
  645MOL0     C88901   5.908   7.040   0.268 -1.0949  0.1679  0.1766
  645MOL0     C88902   5.976   7.170   0.242  0.2984 -0.5470 -0.1407
  645MOL0     O88903   5.936   7.280   0.316  0.9441 -0.0126 -0.1141
  645MOL0     C88904   5.954   7.395   0.249  0.4546 -0.1722 -0.6411
  645MOL0     C88905   5.939   7.417   0.114  0.5340  0.0950  0.7555
  645MOL0     C88906   5.965   7.535   0.063 -0.4413 -0.4362  0.5074
  645MOL0     C88907   6.009   7.649   0.137  0.3420 -0.1050  0.4630
  645MOL0     O88908   6.018   7.764   0.069 -0.3419 -0.1597  0.0222
  645MOL0     C88909   6.004   7.890   0.138 -0.4210  0.2529  0.6259
  645MOL0     C88910   6.133   7.968   0.165 -0.6402 -0.6389 -0.2769
  645MOL0     C88911   6.126   8.053   0.298  0.0441  0.5248  0.0739
  645MOL0     C88912   6.264   8.097   0.346  0.4838  0.5346  0.4757
  645MOL0     C88913   6.258   8.225   0.438  0.0611 -0.9525  0.4059
  645MOL0     C88914   6.402   8.289   0.461  0.0551  1.0747 -0.3963
  645MOL0     C88915   6.410   8.410   0.554  0.2900 -0.5130  0.0396
  645MOL0     C88916   6.328   8.403   0.686  0.7876 -0.7948 -0.6228
  645MOL0    Cl88917   6.380   8.552   0.774 -0.1827 -0.2865 -0.2915
  645MOL0     C88918   6.032   7.624   0.276  0.1104 -0.0800  0.6227
  645MOL0     C88919   6.005   7.493   0.332  0.5227  0.1059  0.1197
  645MOL0     O88920   6.066   7.168   0.158  0.3931 -0.7523  0.5103
  645MOL0     C88921   5.983   6.928   0.265  0.4649  0.5734  0.2061
  645MOL0     C88922   5.916   6.805   0.281  0.5482  1.0894  0.6054
  645MOL0     N88923   5.403   6.610   0.908 -0.1460 -0.3910  0.3085
  645MOL0     N88924   5.339   6.639   1.015  0.4287  0.5435  0.4049
  645MOL0     C88925   5.641   7.388   1.819 -0.1833  0.8976  1.5233
  645MOL0     C88926   5.769   7.418   1.870 -0.2648 -0.1924  0.3716
  645MOL0     C88927   6.078   7.601   2.113  0.7576 -0.1203 -0.5267
  645MOL0     C88928   6.195   7.623   2.033  0.4355 -0.3216 -0.0040
  645MOL0     C88929   6.317   7.583   2.099 -0.6442  0.4795 -0.2370
  645MOL0     C88930   6.320   7.510   2.222 -0.2143  0.3324 -0.2570
  645MOL0     O88931   6.439   7.463   2.280  0.5980 -0.0618  0.0722
  645MOL0     C88932   6.566   7.529   2.262  0.2004 -0.8535  0.5778
  645MOL0     C88933   6.657   7.425   2.182 -0.7637 -0.9967 -0.0392
  645MOL0     C88934   6.781   7.494   2.112 -0.9339  0.3622  0.0815
  645MOL0     C88935   6.873   7.387   2.060 -0.6236  0.3027  0.4182
  645MOL0     C88936   6.919   7.301   2.165 -0.1783 -0.3283 -0.0191
  645MOL0     C88937   6.931   7.240   2.268  0.0902 -0.4854 -1.1730
  645MOL0     C88938   6.203   7.495   2.295 -0.0104 -0.4299 -0.1397
  645MOL0     C88939   6.086   7.543   2.242 -0.5045 -0.9970 -0.0632
  645MOL0     C88940   5.959   7.525   2.327 -0.3547  0.1790  0.3798
  645MOL0     H88941   5.839   7.721   1.751 -1.7293  0.1982 -0.2291
  645MOL0     H88942   5.607   7.697   1.677 -2.9041 -0.4250  3.4968
  645MOL0     H88943   5.295   7.472   1.812 -2.0421 -0.1654 -0.5589
  645MOL0     H88944   5.370   7.323   1.796 -1.6241  0.7493  1.1624
  645MOL0     H88945   5.176   7.311   1.656  1.7870 -1.5847  2.1640
  645MOL0     H88946   5.228   7.421   1.540 -1.3884 -1.0275 -0.8911
  645MOL0     H88947   5.435   7.296   1.501  0.8354 -0.9270  0.2905
  645MOL0     H88948   5.373   7.165   1.612  1.3399  2.7370  2.0165
  645MOL0     H88949   5.155   7.173   1.464 -0.5759  2.2052  1.6279
  645MOL0     H88950   5.243   7.279   1.366  0.5780  1.3226  0.8704
  645MOL0     H88951   5.342   6.989   1.426  0.4240 -0.5587 -1.0889
  645MOL0     H88952   5.407   7.110   1.323 -0.4855 -0.8548  1.3311
  645MOL0     H88953   5.146   6.973   1.327  0.6736  0.0609  0.1193
  645MOL0     H88954   5.158   7.101   1.212 -1.8889  0.4005  2.4283
  645MOL0     H88955   5.348   6.993   1.085 -1.4181 -1.9605 -2.9688
  645MOL0     H88956   5.204   6.897   1.091  1.0414 -1.7325  1.0951
  645MOL0     H88957   5.429   6.839   1.276 -0.0972  1.9708  0.3201
  645MOL0     H88958   5.281   6.741   1.255  1.2556 -0.4849  1.6298
  645MOL0     H88959   5.592   6.847   1.048 -0.4165  0.6749  0.6633
  645MOL0     H88960   5.711   6.586   0.844  0.9983  0.0806 -2.2036
  645MOL0     H88961   5.695   6.763   0.805 -1.4697  1.1082  0.6226
  645MOL0     H88962   5.559   6.533   0.680  0.6839  0.5795  1.3323
  645MOL0     H88963   5.490   6.689   0.678 -1.6423 -1.2661  5.0649
  645MOL0     H88964   5.720   6.774   0.579 -0.5231  1.5862 -2.5667
  645MOL0     H88965   5.775   6.608   0.556 -1.8658 -3.5638 -1.0703
  645MOL0     H88966   5.567   6.575   0.428 -2.5879  1.7294  0.6961
  645MOL0     H88967   5.546   6.751   0.422  1.3992  1.7187 -0.3043
  645MOL0     H88968   5.590   6.905   0.261 -0.4860  0.5039 -2.9866
  645MOL0     H88969   5.597   7.117   0.175  0.1396 -1.6626 -0.3350
  645MOL0     H88970   5.741   7.216   0.165  0.5964 -2.5548 -0.4228
  645MOL0     H88971   5.644   7.197   0.323 -0.6852 -0.3532  0.8688
  645MOL0     H88972   5.899   7.346   0.042  0.6239 -0.1006  0.8979
  645MOL0     H88973   5.956   7.532  -0.045 -0.8104  0.5799  0.5037
  645MOL0     H88974   5.927   7.949   0.087 -0.6966  1.1697  2.0430
  645MOL0     H88975   5.950   7.874   0.232 -0.9467 -2.4593 -0.0665
  645MOL0     H88976   6.219   7.901   0.174  0.2774  0.7100  1.8515
  645MOL0     H88977   6.144   8.035   0.080 -1.5357 -2.0324 -1.5401
  645MOL0     H88978   6.092   7.993   0.384  2.1959 -1.1090 -0.1510
  645MOL0     H88979   6.070   8.147   0.298  0.3908  0.9231 -4.2128
  645MOL0     H88980   6.324   8.112   0.256  0.5771  1.5033  0.6950
  645MOL0     H88981   6.311   8.017   0.403  1.6542  0.0281 -1.1295
  645MOL0     H88982   6.197   8.305   0.396 -0.9079 -1.3633  1.0056
  645MOL0     H88983   6.211   8.203   0.533 -2.1057 -2.8085 -1.0037
  645MOL0     H88984   6.454   8.302   0.366  3.3685 -0.2412  1.1167
  645MOL0     H88985   6.463   8.214   0.512 -0.8253  1.8174  1.9093
  645MOL0     H88986   6.378   8.497   0.496 -0.2129  1.3535  2.9178
  645MOL0     H88987   6.514   8.432   0.580 -0.2337  0.1415  1.7547
  645MOL0     H88988   6.353   8.307   0.733  2.2579 -0.2667 -0.2625
  645MOL0     H88989   6.222   8.390   0.662  0.1724 -2.5682  2.4598
  645MOL0     H88990   6.068   7.700   0.345 -0.6627  0.4298  0.4760
  645MOL0     H88991   6.017   7.487   0.440  0.9656 -0.5267  0.0407
  645MOL0     H88992   6.091   6.936   0.261  0.3643  4.7274  0.9027
  645MOL0     H88993   5.970   6.711   0.285 -1.2951  0.0267  1.9483
  645MOL0     H88994   5.598   7.294   1.852 -0.7495  0.8813  0.7494
  645MOL0     H88995   5.814   7.340   1.931 -0.8848 -2.0212 -1.4226
  645MOL0     H88996   6.199   7.655   1.930  0.2366 -2.9126 -0.8862
  645MOL0     H88997   6.413   7.600   2.051 -1.0370  1.3975 -0.7228
  645MOL0     H88998   6.559   7.622   2.205 -5.2684  1.7008  4.4833
  645MOL0     H88999   6.612   7.551   2.359  2.8508 -0.0546 -0.7721
  645MOL0     H89000   6.594   7.379   2.105 -1.9995  1.1732 -0.4366
  645MOL0     H89001   6.676   7.350   2.259 -1.5608  1.5790  2.9168
  645MOL0     H89002   6.737   7.560   2.036  2.3348  2.0565 -0.5017
  645MOL0     H89003   6.845   7.552   2.179  0.3852 -0.9458 -0.0000
  645MOL0     H89004   6.961   7.435   2.016 -0.2805  0.9931  1.8021
  645MOL0     H89005   6.817   7.337   1.980 -1.2535  0.9869  0.4219
  645MOL0     H89006   6.957   7.193   2.361 -1.1246  2.4146  0.7699
  645MOL0     H89007   6.216   7.448   2.392  1.9457  0.4727  0.0785
  645MOL0     H89008   5.900   7.617   2.334  2.8863  2.4465  0.1300
  645MOL0     H89009   5.904   7.442   2.280  0.6463 -0.3501  0.1176
  645MOL0     H89010   5.976   7.494   2.430  1.7790  1.9889  0.6307
  646MOL0     O89011   4.484   2.525   0.695  0.2413  0.2455  0.0220
  646MOL0     C89012   4.452   2.441   0.607  0.7313 -0.1771 -0.0506
  646MOL0     O89013   4.473   2.313   0.605 -0.1067  0.4589  0.2433
  646MOL0     C89014   4.570   2.247   0.678 -0.8774 -0.5594  0.5777
  646MOL0     C89015   4.542   2.112   0.703  0.6026 -0.4542  0.1675
  646MOL0     C89016   4.636   2.036   0.784 -0.3174  0.1053  0.3700
  646MOL0     C89017   4.753   2.087   0.845  0.2069  0.6631  0.6617
  646MOL0     O89018   4.840   2.012   0.922  0.1823 -0.1286 -0.6179
  646MOL0     C89019   4.908   2.076   1.034 -0.0603  0.4399 -0.4063
  646MOL0     C89020   4.918   1.976   1.151 -0.3068 -0.2057 -1.0857
  646MOL0     C89021   4.943   2.059   1.280 -0.2013  0.5323  0.1590
  646MOL0     C89022   4.951   1.972   1.403 -0.5184  1.0693  0.2869
  646MOL0     C89023   4.915   2.042   1.525 -0.7095 -0.0909 -0.5017
  646MOL0     C89024   4.765   2.069   1.528  0.6082 -0.7287 -0.2496
  646MOL0     C89025   4.720   2.091   1.675 -0.6049 -0.5782 -1.4477
  646MOL0     C89026   4.751   2.239   1.718  0.1127 -0.1397 -0.6690
  646MOL0     N89027   4.645   2.339   1.682 -0.5536 -0.2753  1.0646
  646MOL0     C89028   4.544   2.371   1.755 -0.0563 -0.3065 -0.3312
  646MOL0     C89029   4.473   2.471   1.698 -0.3992  0.3417  0.3331
  646MOL0     C89030   4.358   2.548   1.761 -0.2456 -0.1041 -0.1997
  646MOL0     C89031   4.408   2.685   1.820 -0.1563 -0.0235 -0.6132
  646MOL0     C89032   4.419   2.783   1.714 -0.0172  0.0760  0.5895
  646MOL0     C89033   4.282   2.850   1.670 -1.0080  0.4848  0.1473
  646MOL0     O89034   4.260   2.940   1.782  0.7999  0.1484  0.0086
  646MOL0     C89035   4.127   2.975   1.800 -0.4773 -0.1838 -1.0723
  646MOL0     C89036   4.104   3.114   1.843  0.4566  0.1784  0.1641
  646MOL0     C89037   3.978   3.155   1.887 -0.0035  0.5839  1.0851
  646MOL0     C89038   3.954   3.300   1.925  0.9774  0.1672 -0.4102
  646MOL0     C89039   3.869   3.065   1.882 -0.6770  0.4823 -1.1879
  646MOL0     C89040   3.736   3.106   1.914 -0.5708  0.0864  0.7228
  646MOL0     O89041   3.637   3.049   1.843 -0.4293  0.2122  0.5486
  646MOL0     C89042   3.512   3.104   1.849 -0.9571 -1.0418  0.6493
  646MOL0     C89043   3.413   3.016   1.814  0.0922  0.2455  0.3638
  646MOL0     C89044   3.284   3.067   1.778 -0.4429 -0.0672 -0.1121
  646MOL0     C89045   3.261   3.210   1.767 -0.2459  1.1900 -0.2496
  646MOL0     O89046   3.144   3.255   1.716  0.2324  0.1529 -0.0115
  646MOL0     C89047   3.037   3.306   1.808  0.3560  0.2421  0.4503
  646MOL0     C89048   2.895   3.325   1.757  0.7083 -0.6173 -0.5562
  646MOL0     C89049   2.825   3.193   1.721 -0.3203 -0.3378 -0.2934
  646MOL0     C89050   2.677   3.201   1.698  0.6588 -0.8484 -0.9729
  646MOL0     C89051   2.619   3.070   1.653 -0.4261  1.2104  0.5852
  646MOL0     C89052   2.464   3.098   1.653 -1.2723  0.8250 -0.6537
  646MOL0     C89053   2.420   3.210   1.556  0.2751  0.4022  0.8253
  646MOL0     C89054   2.455   3.171   1.401  0.1240 -0.2199  0.2796
  646MOL0    Cl89055   2.387   3.307   1.315  0.2785  0.0408  0.2690
  646MOL0     C89056   3.360   3.294   1.802  0.3985  0.6264 -0.7072
  646MOL0     C89057   3.488   3.242   1.834 -0.5055  0.5988  0.1340
  646MOL0     O89058   3.720   3.171   2.019  0.5189  0.4435 -0.1459
  646MOL0     C89059   3.892   2.935   1.836 -0.5712 -1.5653 -0.1782
  646MOL0     C89060   4.015   2.891   1.808  0.5462 -1.2443  0.9926
  646MOL0     N89061   4.549   2.491   1.582 -0.0953 -0.4123  1.4685
  646MOL0     N89062   4.652   2.419   1.571 -0.2604 -0.1467 -0.0347
  646MOL0     C89063   4.784   2.213   0.809  0.8505 -0.5625 -0.3036
  646MOL0     C89064   4.704   2.290   0.713  0.6398  0.6524  0.1865
  646MOL0     C89065   4.336   2.495   0.519 -0.1752 -0.1471  0.2803
  646MOL0     C89066   4.244   2.396   0.478  0.0832 -0.3810  0.9083
  646MOL0     C89067   4.127   2.427   0.403 -0.2429  0.9488  0.5213
  646MOL0     C89068   4.101   2.561   0.369 -0.3939  0.2348 -0.2749
  646MOL0     O89069   3.987   2.574   0.279  0.4425  0.3180 -0.1361
  646MOL0     C89070   3.967   2.709   0.238 -0.0627  0.5585  0.4808
  646MOL0     C89071   3.871   2.786   0.332 -0.0337 -0.2788  0.3030
  646MOL0     C89072   3.731   2.824   0.274  0.1306 -0.5868  0.4295
  646MOL0     C89073   3.694   2.960   0.331  0.6321 -0.6162 -0.1120
  646MOL0     C89074   3.757   3.079   0.263 -0.1445 -0.8186  0.4117
  646MOL0     C89075   3.819   3.172   0.210  0.0620  0.5470  0.0598
  646MOL0     C89076   4.179   2.662   0.428 -0.5669  0.7850 -0.1817
  646MOL0     C89077   4.300   2.631   0.496 -0.3481 -0.1749 -0.1367
  646MOL0     C89078   4.399   2.743   0.524  0.0768  0.1282  0.4399
  646MOL0     H89079   4.445   2.070   0.678 -1.5901  3.7851  0.6043
  646MOL0     H89080   4.619   1.929   0.796  4.8620 -1.2140 -1.2780
  646MOL0     H89081   4.844   2.162   1.057 -1.3619 -0.0934 -1.8504
  646MOL0     H89082   5.007   2.112   1.006  0.8474 -1.7347 -0.1288
  646MOL0     H89083   4.832   1.909   1.159 -0.6334  0.1142 -1.7971
  646MOL0     H89084   5.009   1.919   1.130 -0.3218 -0.8905  0.6195
  646MOL0     H89085   5.037   2.114   1.271 -0.3952  0.6413 -1.2891
  646MOL0     H89086   4.861   2.131   1.290 -1.0702 -0.4465  0.2309
  646MOL0     H89087   4.904   1.876   1.382  2.9088 -0.3777 -1.4663
  646MOL0     H89088   5.055   1.947   1.422 -1.6404 -3.6486  1.5092
  646MOL0     H89089   4.974   2.133   1.539  0.4955 -0.9782  0.4246
  646MOL0     H89090   4.935   1.973   1.607 -2.3985 -0.9286 -0.7329
  646MOL0     H89091   4.728   2.152   1.467  3.7354  1.3605  0.4456
  646MOL0     H89092   4.705   1.981   1.503 -1.9148 -0.2636  3.2833
  646MOL0     H89093   4.765   2.021   1.746 -0.7356 -0.5043 -1.2910
  646MOL0     H89094   4.611   2.078   1.671 -1.2596  3.5543 -2.4589
  646MOL0     H89095   4.762   2.239   1.827  0.8466  0.0047 -0.7373
  646MOL0     H89096   4.846   2.272   1.675  0.3717  2.5812  1.6884
  646MOL0     H89097   4.512   2.338   1.854 -3.2372  1.9684 -0.4374
  646MOL0     H89098   4.318   2.482   1.839 -0.0224 -0.3410 -0.2831
  646MOL0     H89099   4.284   2.555   1.680  1.7253 -2.2343 -2.3408
  646MOL0     H89100   4.340   2.723   1.896  0.4684  0.5952 -0.3574
  646MOL0     H89101   4.505   2.673   1.870 -0.3883 -1.0661 -0.3906
  646MOL0     H89102   4.488   2.864   1.739  1.2913 -1.1055  1.0001
  646MOL0     H89103   4.460   2.729   1.628  2.3657  1.1729  0.9530
  646MOL0     H89104   4.293   2.892   1.570 -1.2858 -1.6973 -0.8707
  646MOL0     H89105   4.207   2.770   1.665 -0.8344  0.1163  2.3882
  646MOL0     H89106   4.190   3.180   1.847 -0.4909  1.5163 -0.8760
  646MOL0     H89107   4.044   3.358   1.908  0.9918  0.1801 -0.2920
  646MOL0     H89108   3.927   3.302   2.031  2.1902 -1.3054 -0.0359
  646MOL0     H89109   3.880   3.349   1.862 -1.2744 -0.1346  1.8171
  646MOL0     H89110   3.430   2.909   1.802 -2.7296 -0.3831  1.2379
  646MOL0     H89111   3.205   2.999   1.748 -2.2193  0.7413  2.4471
  646MOL0     H89112   3.027   3.240   1.895 -2.5449 -0.5837 -0.3916
  646MOL0     H89113   3.066   3.404   1.847  0.8943 -0.3023  1.4405
  646MOL0     H89114   2.832   3.375   1.831  0.7537 -1.7525  0.2868
  646MOL0     H89115   2.893   3.388   1.668  2.0074  0.5489  0.2006
  646MOL0     H89116   2.834   3.119   1.802 -2.7736  0.8765  1.1934
  646MOL0     H89117   2.877   3.134   1.645 -0.3966 -0.9748  0.1404
  646MOL0     H89118   2.669   3.279   1.621  1.3692  0.9110  0.6466
  646MOL0     H89119   2.626   3.230   1.790 -1.4693  1.1474 -2.6661
  646MOL0     H89120   2.655   3.025   1.560  1.9991 -0.5732  2.2569
  646MOL0     H89121   2.652   2.990   1.719 -1.4710 -2.8042 -3.2960
  646MOL0     H89122   2.431   3.130   1.752  0.7260  1.7158 -0.2269
  646MOL0     H89123   2.413   3.004   1.628 -0.0275 -0.4951  1.4838
  646MOL0     H89124   2.458   3.307   1.590  2.8740 -0.0932 -0.3543
  646MOL0     H89125   2.312   3.223   1.567  0.5970  2.1447  2.5254
  646MOL0     H89126   2.405   3.080   1.368 -0.6086  0.1555  0.3289
  646MOL0     H89127   2.564   3.162   1.398  0.5181  3.0608  0.6573
  646MOL0     H89128   3.341   3.401   1.811  0.1950  0.5084  0.4570
  646MOL0     H89129   3.563   3.314   1.865 -1.3008  0.2954  3.1284
  646MOL0     H89130   3.806   2.870   1.824 -0.5458 -1.6687  0.1767
  646MOL0     H89131   4.032   2.786   1.791  1.3653 -0.8340 -1.0435
  646MOL0     H89132   4.872   2.257   0.854 -0.0808 -0.1320  1.1524
  646MOL0     H89133   4.737   2.391   0.689 -0.7224  1.1749  0.4187
  646MOL0     H89134   4.271   2.295   0.505  3.1261  1.1026  4.1341
  646MOL0     H89135   4.059   2.349   0.371  0.5750 -0.6229  2.3667
  646MOL0     H89136   4.059   2.766   0.220 -0.4599  1.9366  2.4462
  646MOL0     H89137   3.932   2.703   0.134  6.0851 -0.5883 -1.9599
  646MOL0     H89138   3.927   2.877   0.356 -0.6989  0.1507  0.2405
  646MOL0     H89139   3.855   2.722   0.419  2.5134 -0.7811  0.4839
  646MOL0     H89140   3.732   2.830   0.165  1.8275 -0.0774  0.4439
  646MOL0     H89141   3.652   2.753   0.300 -0.8259  1.0005  2.0454
  646MOL0     H89142   3.712   2.942   0.437  0.3236  1.8277  0.4229
  646MOL0     H89143   3.587   2.981   0.330  0.5836  0.8720  5.2048
  646MOL0     H89144   3.858   3.257   0.159  0.5413  0.6617  0.6019
  646MOL0     H89145   4.157   2.768   0.417  0.6971  1.0558 -0.2814
  646MOL0     H89146   4.495   2.712   0.481  0.6257 -0.0279  1.7434
  646MOL0     H89147   4.373   2.836   0.473  2.5889  0.5851 -0.1688
  646MOL0     H89148   4.422   2.759   0.629  0.9361 -0.8316  0.4126
  647MOL0     O89149   4.584   8.546   8.970 -0.6895  0.2320  0.3173
  647MOL0     C89150   4.674   8.575   8.887  0.4743 -0.0091 -0.6274
  647MOL0     O89151   4.801   8.561   8.908  0.0963  0.0504  1.1078
  647MOL0     C89152   4.850   8.528   9.033  0.3577 -0.2269  0.0084
  647MOL0     C89153   4.892   8.623   9.120  0.0136 -1.2112 -1.0330
  647MOL0     C89154   4.957   8.593   9.240 -0.5739  0.9642 -0.9038
  647MOL0     C89155   4.986   8.457   9.274  0.6859 -0.2158 -0.0645
  647MOL0     O89156   5.044   8.425   9.393  0.4561 -0.2971 -0.1171
  647MOL0     C89157   4.982   8.481   9.512 -0.8481 -0.1105  0.6615
  647MOL0     C89158   4.996   8.403   9.638 -0.0172  0.2548 -0.3847
  647MOL0     C89159   5.136   8.361   9.689  0.3869 -0.3022 -0.5170
  647MOL0     C89160   5.248   8.469   9.691 -0.0669  0.1621  0.2081
  647MOL0     C89161   5.393   8.401   9.717  0.2140 -0.6386 -0.7358
  647MOL0     C89162   5.488   8.514   9.740 -0.3307  0.1090  0.5177
  647MOL0     C89163   5.452   8.617   9.849 -0.2992  0.2014 -1.2546
  647MOL0     C89164   5.586   8.667   9.907 -0.3739  0.7870  0.6899
  647MOL0     N89165   5.654   8.730   9.792  1.1173  0.6296  0.0525
  647MOL0     C89166   5.612   8.841   9.738 -0.2765 -1.3362 -0.4394
  647MOL0     C89167   5.691   8.862   9.633 -0.5850  0.4414  0.1248
  647MOL0     C89168   5.668   8.986   9.541 -0.5126 -0.4089  0.3517
  647MOL0     C89169   5.776   9.101   9.561  0.3168 -0.1185 -0.5134
  647MOL0     C89170   5.763   9.173   9.698  0.2277 -0.6382 -1.4550
  647MOL0     C89171   5.894   9.261   9.727  0.2439 -0.4540 -0.0261
  647MOL0     O89172   5.922   9.348   9.618  0.3127 -0.0487  0.5623
  647MOL0     C89173   5.866   9.467   9.604  1.2557  0.4123  0.3500
  647MOL0     C89174   5.798   9.534   9.709 -0.7723 -0.5485 -0.2186
  647MOL0     C89175   5.741   9.662   9.688 -0.0117  0.0591  0.8639
  647MOL0     C89176   5.671   9.723   9.807  0.1509 -0.4611  0.3637
  647MOL0     C89177   5.752   9.711   9.555  0.2196 -0.8188  0.5643
  647MOL0     C89178   5.687   9.839   9.520 -0.0206  0.2009 -0.4160
  647MOL0     O89179   5.660   9.926   9.617 -0.0320 -0.1293  0.6829
  647MOL0     C89180   5.575  10.025   9.573  0.2654  0.2380 -0.0750
  647MOL0     C89181   5.438  10.021   9.594  1.1074  0.0573 -0.6203
  647MOL0     C89182   5.358  10.133   9.562  0.3822 -0.1520  0.2234
  647MOL0     C89183   5.415  10.248   9.503  0.4430  0.1482 -0.3878
  647MOL0     O89184   5.339  10.366   9.487  0.5639  0.7773  0.0406
  647MOL0     C89185   5.352  10.422   9.354  0.3630 -0.3726 -0.6235
  647MOL0     C89186   5.239  10.511   9.304 -0.3375  0.4857 -0.0075
  647MOL0     C89187   5.180  10.600   9.412  1.0670 -1.2796 -0.0530
  647MOL0     C89188   5.283  10.690   9.474 -0.3540  0.1386 -0.6975
  647MOL0     C89189   5.225  10.755   9.601  0.2201  0.1800  0.0517
  647MOL0     C89190   5.331  10.826   9.686 -0.6587 -0.6425  1.0229
  647MOL0     C89191   5.268  10.913   9.791  0.8196  0.4819 -0.2835
  647MOL0     C89192   5.368  10.990   9.877 -0.1061  0.4744 -0.0670
  647MOL0    Cl89193   5.426  11.137   9.774 -0.1520 -0.3234 -0.4537
  647MOL0     C89194   5.551  10.241   9.475 -0.4636  0.9451 -0.3389
  647MOL0     C89195   5.636  10.135   9.518  0.2517 -0.3770  1.1384
  647MOL0     O89196   5.663   9.859   9.404 -1.1825 -0.1207  0.1967
  647MOL0     C89197   5.815   9.642   9.450 -0.6781  1.4020 -0.6955
  647MOL0     C89198   5.872   9.517   9.474  1.1451 -0.2862 -0.1831
  647MOL0     N89199   5.789   8.759   9.617 -0.2933  0.1431 -0.2004
  647MOL0     N89200   5.757   8.675   9.713  0.4063 -0.1395  0.0095
  647MOL0     C89201   4.939   8.360   9.183 -0.0384  0.2620 -0.1925
  647MOL0     C89202   4.877   8.390   9.058 -1.0158 -0.0358  0.3082
  647MOL0     C89203   4.625   8.633   8.763  0.7444  0.3915  0.3357
  647MOL0     C89204   4.484   8.626   8.735  0.0929  0.1329 -0.5426
  647MOL0     C89205   4.422   8.663   8.613  0.2830 -0.6425 -0.3511
  647MOL0     C89206   4.503   8.705   8.507  0.1095 -0.1745  0.1022
  647MOL0     O89207   4.443   8.731   8.388  0.4879  0.8862 -0.2028
  647MOL0     C89208   4.518   8.787   8.283 -1.3700 -0.0837 -0.4331
  647MOL0     C89209   4.617   8.695   8.205 -0.0299 -0.1574 -0.9490
  647MOL0     C89210   4.584   8.692   8.052  0.4742 -1.1560  0.1800
  647MOL0     C89211   4.671   8.575   8.004 -0.1577  0.2862  1.0730
  647MOL0     C89212   4.661   8.567   7.861 -0.0204 -0.9103  0.3255
  647MOL0     C89213   4.633   8.583   7.741  0.5271 -0.3598 -0.4513
  647MOL0     C89214   4.647   8.718   8.538  0.5999  0.5886 -0.1647
  647MOL0     C89215   4.706   8.681   8.657  0.0425 -0.7343 -0.4964
  647MOL0     C89216   4.858   8.687   8.661  0.0027 -0.1260 -0.0669
  647MOL0     H89217   4.891   8.730   9.102  1.8351 -0.5267  2.1511
  647MOL0     H89218   4.978   8.676   9.308  0.5883 -0.8192  1.0182
  647MOL0     H89219   4.876   8.491   9.491 -0.9140  0.5731  1.2738
  647MOL0     H89220   5.024   8.579   9.539 -0.5957 -1.2649  5.4193
  647MOL0     H89221   4.943   8.457   9.717  0.2094 -0.2423  0.1182
  647MOL0     H89222   4.932   8.316   9.624 -2.3582  1.4563  1.9568
  647MOL0     H89223   5.125   8.324   9.791  2.5787  0.5011  0.0735
  647MOL0     H89224   5.175   8.273   9.636 -0.1452 -0.5535 -0.4919
  647MOL0     H89225   5.263   8.531   9.602  3.8045 -1.5328 -0.5450
  647MOL0     H89226   5.217   8.531   9.776 -0.1427 -0.0693  0.3522
  647MOL0     H89227   5.417   8.340   9.629  1.1374  2.6800 -2.9782
  647MOL0     H89228   5.395   8.350   9.814 -0.6496 -1.5619 -1.1825
  647MOL0     H89229   5.585   8.470   9.764 -0.8388 -1.2115  0.2019
  647MOL0     H89230   5.506   8.568   9.646 -0.4898 -2.5632 -1.1649
  647MOL0     H89231   5.400   8.558   9.925 -0.3582  1.9853  0.1561
  647MOL0     H89232   5.393   8.704   9.820  2.3147  1.3798 -3.5032
  647MOL0     H89233   5.564   8.747   9.979 -1.5767  1.2499 -0.1652
  647MOL0     H89234   5.637   8.575   9.935 -1.2865 -0.6509 -1.9812
  647MOL0     H89235   5.546   8.910   9.791  5.0743  0.7187  4.6336
  647MOL0     H89236   5.571   9.032   9.565 -0.7237 -0.0828 -1.0345
  647MOL0     H89237   5.662   8.959   9.436 -2.4784  0.9819  0.0392
  647MOL0     H89238   5.877   9.057   9.562  0.7666  0.7140  3.0085
  647MOL0     H89239   5.762   9.171   9.478  1.5137  1.5890  0.6611
  647MOL0     H89240   5.683   9.245   9.716  1.5734  0.8877 -1.3109
  647MOL0     H89241   5.759   9.094   9.774  2.0111  0.4546 -0.1257
  647MOL0     H89242   5.885   9.305   9.827  0.3321 -0.6294  0.0593
  647MOL0     H89243   5.981   9.196   9.741  0.8511  0.8407  3.2510
  647MOL0     H89244   5.782   9.483   9.803  0.0788  0.4422  0.4833
  647MOL0     H89245   5.668   9.654   9.892  0.1387  1.3533  1.9069
  647MOL0     H89246   5.572   9.764   9.786  1.1009  0.8779 -1.8109
  647MOL0     H89247   5.728   9.806   9.850 -0.6388 -1.6673  4.1194
  647MOL0     H89248   5.410   9.938   9.658  1.7805 -0.2518 -0.7213
  647MOL0     H89249   5.250  10.123   9.564  0.2012  1.4824  0.0622
  647MOL0     H89250   5.444  10.481   9.344  1.1181 -1.8599 -4.2480
  647MOL0     H89251   5.351  10.343   9.279  0.0093 -0.3122 -0.6837
  647MOL0     H89252   5.264  10.569   9.215  1.0384 -2.1117 -1.4263
  647MOL0     H89253   5.158  10.446   9.270 -1.1574  3.4427 -4.5623
  647MOL0     H89254   5.123  10.535   9.479 -0.9324 -1.4379 -1.8122
  647MOL0     H89255   5.100  10.664   9.373  1.7794 -1.7642 -2.4615
  647MOL0     H89256   5.319  10.766   9.405 -2.7028  2.4424  0.4587
  647MOL0     H89257   5.374  10.638   9.507 -0.6479 -0.2613 -0.5068
  647MOL0     H89258   5.142  10.823   9.584 -1.7971 -1.7030  1.6639
  647MOL0     H89259   5.176  10.679   9.664 -1.0894  0.5300 -0.5143
  647MOL0     H89260   5.400  10.889   9.629 -0.7140 -0.2874  1.3446
  647MOL0     H89261   5.383  10.747   9.742 -2.1155 -3.4735 -1.3253
  647MOL0     H89262   5.219  10.848   9.864 -0.2908  2.4310  0.7921
  647MOL0     H89263   5.211  10.993   9.743  0.4466 -0.1968 -1.0009
  647MOL0     H89264   5.451  10.925   9.905 -1.8516 -0.9651  2.1093
  647MOL0     H89265   5.314  11.039   9.959  4.2302  0.5041  3.0726
  647MOL0     H89266   5.602  10.323   9.425 -1.1400  2.5746  1.5004
  647MOL0     H89267   5.740  10.134   9.484  0.4153 -0.4639  1.6442
  647MOL0     H89268   5.837   9.686   9.353  0.4628  1.0293 -0.6137
  647MOL0     H89269   5.921   9.457   9.398  0.4810  0.3200 -1.1110
  647MOL0     H89270   4.947   8.254   9.205 -0.9000  0.0305 -0.9481
  647MOL0     H89271   4.852   8.318   8.980 -3.8637  1.3502 -0.1874
  647MOL0     H89272   4.420   8.587   8.813 -1.3583 -0.6448 -2.0356
  647MOL0     H89273   4.316   8.651   8.592  0.2887 -0.7790 -0.3004
  647MOL0     H89274   4.447   8.830   8.211  1.2539 -0.3601 -3.4432
  647MOL0     H89275   4.575   8.877   8.306 -2.7637  2.0018 -4.1105
  647MOL0     H89276   4.603   8.590   8.233  1.7797 -0.3166 -0.4862
  647MOL0     H89277   4.721   8.726   8.216  0.7114 -1.6705 -3.0370
  647MOL0     H89278   4.475   8.682   8.049  0.2996  0.5667 -0.2592
  647MOL0     H89279   4.605   8.786   8.001 -0.6466 -1.0921 -0.2090
  647MOL0     H89280   4.634   8.481   8.047  3.3299 -1.8424 -0.1148
  647MOL0     H89281   4.770   8.599   8.043 -1.2146  1.5965  3.1353
  647MOL0     H89282   4.619   8.606   7.637 -0.7062  1.8528  0.1230
  647MOL0     H89283   4.723   8.744   8.466 -0.5977 -0.6830 -1.9772
  647MOL0     H89284   4.905   8.588   8.673  2.2550  0.8709 -0.1006
  647MOL0     H89285   4.898   8.736   8.572  2.4366  0.3260  1.1833
  647MOL0     H89286   4.878   8.752   8.747 -1.0537  2.3124 -1.5642
  648MOL0     O89287   7.405   9.558   9.454 -0.1470  0.0414 -0.2228
  648MOL0     C89288   7.435   9.603   9.343 -0.9555 -0.6916  1.1155
  648MOL0     O89289   7.503   9.540   9.241  0.4020 -0.7551 -0.0181
  648MOL0     C89290   7.518   9.404   9.265 -0.5043 -0.2144  0.6229
  648MOL0     C89291   7.619   9.368   9.358 -0.0430 -0.2212  0.0961
  648MOL0     C89292   7.645   9.227   9.381  0.1272 -0.6146 -0.0667
  648MOL0     C89293   7.561   9.134   9.318 -0.0400  0.3048 -1.0137
  648MOL0     O89294   7.571   9.002   9.361  0.3480 -0.4569 -0.2737
  648MOL0     C89295   7.526   8.992   9.495 -0.5637  0.0351  0.0836
  648MOL0     C89296   7.468   8.852   9.532 -0.5643 -0.5371  0.0652
  648MOL0     C89297   7.584   8.784   9.605 -0.6352 -0.0305  0.3807
  648MOL0     C89298   7.564   8.628   9.617  0.2931 -0.1075  0.8288
  648MOL0     C89299   7.673   8.563   9.704 -0.0037  0.1352  0.2180
  648MOL0     C89300   7.657   8.420   9.742 -0.9596  0.2861 -0.1484
  648MOL0     C89301   7.761   8.369   9.841  0.1248 -0.0546 -1.3675
  648MOL0     C89302   7.708   8.251   9.925 -1.1735  0.1207 -0.4593
  648MOL0     N89303   7.821   8.178   9.971  0.3758  1.1270 -0.5528
  648MOL0     C89304   7.938   8.140   9.902  0.1205 -0.6845 -0.4103
  648MOL0     C89305   8.009   8.064   9.995  0.3946 -0.6087  0.3239
  648MOL0     C89306   8.143   7.994   9.990 -0.5811  0.6623  0.0747
  648MOL0     C89307   8.256   8.082  10.043  0.5466  0.3729  0.7037
  648MOL0     C89308   8.396   8.053   9.974  1.0930  0.5095  0.6301
  648MOL0     C89309   8.521   8.123  10.017 -0.0723  0.8569 -0.1426
  648MOL0     O89310   8.535   8.126  10.161 -0.3659 -0.5291  0.1597
  648MOL0     C89311   8.548   8.005  10.228  0.7854 -0.1961 -0.6504
  648MOL0     C89312   8.587   7.892  10.161 -0.3065  0.1126  0.5162
  648MOL0     C89313   8.602   7.770  10.225 -1.1602  0.3657 -0.4045
  648MOL0     C89314   8.652   7.662  10.135  0.2492  0.1668  0.6044
  648MOL0     C89315   8.598   7.755  10.364  0.5976 -0.1703 -0.4351
  648MOL0     C89316   8.622   7.620  10.440 -0.6452 -0.4309 -0.5121
  648MOL0     O89317   8.608   7.626  10.581  0.4454 -0.5219 -0.0311
  648MOL0     C89318   8.580   7.522  10.660  0.4625  0.5013  0.2389
  648MOL0     C89319   8.556   7.384  10.624 -0.1856  0.4709  0.5242
  648MOL0     C89320   8.548   7.287  10.727  0.8972 -0.4295 -1.3074
  648MOL0     C89321   8.534   7.331  10.856  0.2056 -1.3241 -0.3729
  648MOL0     O89322   8.526   7.241  10.957 -0.0572  0.0063 -0.0432
  648MOL0     C89323   8.466   7.115  10.931 -0.0283  0.0676 -0.4837
  648MOL0     C89324   8.394   7.079  11.063 -1.1096 -0.0149 -0.3499
  648MOL0     C89325   8.491   7.058  11.190  0.4634 -0.6852  0.1203
  648MOL0     C89326   8.414   7.013  11.316  0.1606  0.2389  0.0243
  648MOL0     C89327   8.507   6.971  11.429  0.2411 -0.2907 -0.7702
  648MOL0     C89328   8.424   6.929  11.557 -0.0287 -0.0863  0.9069
  648MOL0     C89329   8.511   6.902  11.677 -0.1914 -0.0820  0.3568
  648MOL0     C89330   8.437   6.895  11.816  0.0925  0.2480  0.4557
  648MOL0    Cl89331   8.543   6.831  11.947 -0.1002 -0.0181  0.0485
  648MOL0     C89332   8.523   7.467  10.895  0.4020  0.1117  0.1512
  648MOL0     C89333   8.545   7.558  10.792 -0.8003 -0.9415  0.5113
  648MOL0     O89334   8.645   7.516  10.374 -0.4400  0.3128  0.2934
  648MOL0     C89335   8.573   7.870  10.439  0.2930  0.2599  0.5546
  648MOL0     C89336   8.545   7.990  10.368 -0.0233 -0.0387  0.4363
  648MOL0     N89337   7.936   8.070  10.114 -0.9731  0.0935  0.4208
  648MOL0     N89338   7.830   8.137  10.096  0.0966 -0.0692 -0.4847
  648MOL0     C89339   7.454   9.176   9.236  1.0413 -0.4449  0.2624
  648MOL0     C89340   7.435   9.311   9.207  0.6740  0.3935  0.9345
  648MOL0     C89341   7.397   9.745   9.305 -0.4231  0.5831  0.2801
  648MOL0     C89342   7.494   9.820   9.229  0.0711 -0.5875  0.5954
  648MOL0     C89343   7.442   9.938   9.168 -0.2362  0.0955 -0.0716
  648MOL0     C89344   7.323  10.006   9.198 -1.0664 -0.2357 -0.3753
  648MOL0     O89345   7.276  10.118   9.131  0.0298  0.2933  0.0801
  648MOL0     C89346   7.360  10.184   9.033 -1.0418  0.0490 -0.1660
  648MOL0     C89347   7.287  10.303   8.964  0.1342 -0.3198  0.3895
  648MOL0     C89348   7.378  10.376   8.867  0.4731 -0.5708  0.6343
  648MOL0     C89349   7.317  10.510   8.824 -0.0855 -0.8853  0.1494
  648MOL0     C89350   7.193  10.509   8.748 -0.3749 -0.8206 -0.1750
  648MOL0     C89351   7.085  10.515   8.698 -0.1197 -0.9230 -0.1400
  648MOL0     C89352   7.237   9.931   9.279 -1.0305 -0.1875  0.1553
  648MOL0     C89353   7.271   9.803   9.326  0.8314  0.7800 -0.0032
  648MOL0     C89354   7.151   9.716   9.379  0.4603 -0.3982  0.3545
  648MOL0     H89355   7.666   9.445   9.418 -0.8762 -1.3796  2.3621
  648MOL0     H89356   7.721   9.185   9.446 -0.4088 -0.9036  0.3815
  648MOL0     H89357   7.451   9.069   9.515 -0.4505 -0.1614  1.2894
  648MOL0     H89358   7.604   9.019   9.567 -1.5849  2.9946  0.2051
  648MOL0     H89359   7.370   8.848   9.580 -0.2373  0.1809  0.8268
  648MOL0     H89360   7.451   8.799   9.438 -0.6823  0.7563 -0.6784
  648MOL0     H89361   7.677   8.810   9.554 -0.5194  1.8725  1.4749
  648MOL0     H89362   7.588   8.820   9.708 -3.7660 -1.6912  1.2407
  648MOL0     H89363   7.467   8.598   9.658  0.6411 -2.1830  0.2746
  648MOL0     H89364   7.574   8.587   9.516  1.8910 -0.0869  0.9537
  648MOL0     H89365   7.669   8.622   9.796  2.2832 -0.1270  0.5229
  648MOL0     H89366   7.768   8.584   9.656 -1.3429  0.6686 -2.3496
  648MOL0     H89367   7.559   8.410   9.789 -1.3456 -0.1741 -1.0302
  648MOL0     H89368   7.664   8.348   9.661 -1.4593 -0.9514  0.8723
  648MOL0     H89369   7.771   8.445   9.919  1.6698 -1.1059 -0.4915
  648MOL0     H89370   7.853   8.347   9.785 -0.1669 -0.0460 -1.8518
  648MOL0     H89371   7.650   8.289  10.010 -1.1033  0.8916 -0.7527
  648MOL0     H89372   7.645   8.192   9.858 -1.2287 -1.8930  1.2649
  648MOL0     H89373   7.960   8.167   9.799  1.8387 -0.1670  0.0526
  648MOL0     H89374   8.165   7.958   9.889  0.8568  0.0994  0.5614
  648MOL0     H89375   8.122   7.900  10.043 -3.8534 -0.5338 -2.9592
  648MOL0     H89376   8.228   8.185  10.022  0.6126  0.2786  0.1547
  648MOL0     H89377   8.257   8.071  10.152 -1.4830  0.6563  0.7936
  648MOL0     H89378   8.408   7.947   9.998  0.0440  0.1760 -0.2203
  648MOL0     H89379   8.393   8.058   9.865  2.1035 -0.0246  0.5662
  648MOL0     H89380   8.612   8.075   9.979 -0.3510 -0.3805  0.6708
  648MOL0     H89381   8.512   8.224   9.977  2.1482  0.9733 -0.4757
  648MOL0     H89382   8.608   7.896  10.055 -0.4135  3.2823  0.5048
  648MOL0     H89383   8.604   7.565  10.153 -0.1637  0.2411 -0.0638
  648MOL0     H89384   8.761   7.660  10.129  0.2451  2.3523 -2.9431
  648MOL0     H89385   8.609   7.684  10.037 -0.0172 -0.6555  0.5264
  648MOL0     H89386   8.571   7.342  10.525 -1.2154 -4.3097  2.0808
  648MOL0     H89387   8.534   7.182  10.705 -3.8507  0.0037 -1.4914
  648MOL0     H89388   8.386   7.119  10.856 -0.7228 -0.6089  0.1908
  648MOL0     H89389   8.541   7.040  10.904  0.6434  0.3035  0.6596
  648MOL0     H89390   8.335   7.167  11.089 -1.4706 -0.0011 -1.2155
  648MOL0     H89391   8.330   6.993  11.039  1.5604 -2.6944  1.3572
  648MOL0     H89392   8.534   7.154  11.221  1.2362 -1.2846  0.9411
  648MOL0     H89393   8.570   6.987  11.165  2.3687  2.3585 -3.4305
  648MOL0     H89394   8.348   6.928  11.296 -2.1201  1.8844  0.0968
  648MOL0     H89395   8.347   7.097  11.336  0.1553  1.4946 -4.3749
  648MOL0     H89396   8.570   6.888  11.396  1.4748  0.0174  0.6831
  648MOL0     H89397   8.573   7.054  11.457  0.8238 -0.4526 -1.6032
  648MOL0     H89398   8.364   6.841  11.531 -2.5551  1.1707  2.1489
  648MOL0     H89399   8.362   7.016  11.577  1.3318  0.9073  0.9521
  648MOL0     H89400   8.600   6.966  11.679  0.0285 -0.3865  2.1723
  648MOL0     H89401   8.570   6.811  11.660  1.3937  0.8220  0.8295
  648MOL0     H89402   8.356   6.822  11.811 -0.2846  0.5296  1.9465
  648MOL0     H89403   8.406   6.997  11.841  1.9613  0.8861  0.3213
  648MOL0     H89404   8.498   7.495  10.997  1.2171  0.7748  0.1784
  648MOL0     H89405   8.550   7.665  10.810  0.3702  0.0378 -4.1922
  648MOL0     H89406   8.576   7.870  10.547 -3.9551 -1.8805  0.8434
  648MOL0     H89407   8.530   8.079  10.429  0.1423 -0.2534  0.7890
  648MOL0     H89408   7.396   9.091   9.203  2.7567 -1.8000  0.6100
  648MOL0     H89409   7.347   9.347   9.155 -0.0649 -1.7873  0.6090
  648MOL0     H89410   7.595   9.791   9.202  1.2377  2.2847  1.4205
  648MOL0     H89411   7.519   9.985   9.107 -0.2144  0.9763  0.6078
  648MOL0     H89412   7.444  10.238   9.077  0.0097  0.8061 -2.9086
  648MOL0     H89413   7.394  10.113   8.957 -0.3827  0.9718 -0.7449
  648MOL0     H89414   7.246  10.368   9.041 -0.6995 -0.8207  0.3830
  648MOL0     H89415   7.198  10.263   8.914 -0.2612  1.2307 -0.2083
  648MOL0     H89416   7.477  10.399   8.908  1.3436  1.3239 -2.2597
  648MOL0     H89417   7.388  10.314   8.778 -1.2209 -0.9239  0.6473
  648MOL0     H89418   7.383  10.561   8.752 -1.5991 -0.0086 -0.6619
  648MOL0     H89419   7.308  10.579   8.909  1.8657 -0.2565 -0.0884
  648MOL0     H89420   6.998  10.522   8.636 -0.1824 -0.0290  0.0399
  648MOL0     H89421   7.134   9.965   9.277 -2.2937 -3.5637 -2.4861
  648MOL0     H89422   7.068   9.775   9.420 -0.3688 -2.6042  2.0150
  648MOL0     H89423   7.115   9.653   9.296 -0.2825  1.1272 -0.5424
  648MOL0     H89424   7.172   9.638   9.453  0.2363 -0.2784  0.5451
  649MOL0     O89425   8.968   8.559   8.932 -0.3184  0.3215  0.2697
  649MOL0     C89426   8.950   8.655   8.860  0.6046  0.4888 -0.2636
  649MOL0     O89427   8.837   8.719   8.847  0.0230 -0.4282 -0.0252
  649MOL0     C89428   8.729   8.662   8.911  0.6300 -0.2117  0.8171
  649MOL0     C89429   8.702   8.701   9.046  0.2082  0.4985  0.4623
  649MOL0     C89430   8.603   8.633   9.115  0.2299  0.2021  0.6342
  649MOL0     C89431   8.510   8.545   9.049 -0.6483  0.0950  1.6020
  649MOL0     O89432   8.418   8.481   9.116 -0.0653 -0.1760 -0.8319
  649MOL0     C89433   8.438   8.339   9.135  0.3067 -0.7469 -0.1699
  649MOL0     C89434   8.356   8.265   9.032 -0.8395  0.3911 -0.9736
  649MOL0     C89435   8.200   8.301   9.034  0.1079  0.0090 -0.3307
  649MOL0     C89436   8.148   8.215   8.921  0.3300 -0.0406 -0.1419
  649MOL0     C89437   7.997   8.199   8.945 -0.1682 -0.1842 -0.0237
  649MOL0     C89438   7.925   8.342   8.962 -0.1259  0.6812  0.0672
  649MOL0     C89439   7.774   8.321   8.973  0.0854 -0.3502  0.8253
  649MOL0     C89440   7.705   8.466   8.983  0.1499  0.7854 -0.7784
  649MOL0     N89441   7.580   8.461   8.920  0.0270 -0.1712  0.6209
  649MOL0     C89442   7.490   8.356   8.909  0.3333  0.5039  0.3395
  649MOL0     C89443   7.388   8.397   8.834 -0.3264  0.0368 -0.7114
  649MOL0     C89444   7.267   8.331   8.794 -0.1789  0.1226  0.0588
  649MOL0     C89445   7.137   8.385   8.845  0.2586 -1.4403 -0.0864
  649MOL0     C89446   7.023   8.310   8.787  1.1967 -0.6159  0.6230
  649MOL0     C89447   6.895   8.353   8.878 -0.1289 -0.0267  0.4066
  649MOL0     O89448   6.767   8.313   8.821  0.4270 -0.9531 -0.4110
  649MOL0     C89449   6.735   8.343   8.688  0.7754 -0.6395  0.2856
  649MOL0     C89450   6.746   8.464   8.619 -0.3725  0.5589 -0.6149
  649MOL0     C89451   6.727   8.477   8.486 -0.2298 -0.2127  0.6801
  649MOL0     C89452   6.773   8.610   8.433  0.5529  1.0438  0.7816
  649MOL0     C89453   6.695   8.367   8.401  0.2213  0.2028 -0.8176
  649MOL0     C89454   6.666   8.364   8.257  0.2723  0.1841 -0.0348
  649MOL0     O89455   6.632   8.237   8.204  0.2982 -0.1345 -0.1629
  649MOL0     C89456   6.662   8.211   8.073  0.0141 -0.5498 -0.1244
  649MOL0     C89457   6.572   8.265   7.979 -0.7443 -0.7122 -0.6071
  649MOL0     C89458   6.617   8.281   7.852  0.3997  0.6657  0.6158
  649MOL0     C89459   6.741   8.219   7.812  1.4834 -0.4437 -0.0613
  649MOL0     O89460   6.764   8.224   7.675  0.4041  0.8691 -0.1610
  649MOL0     C89461   6.823   8.109   7.620 -0.4469  0.7135  0.4123
  649MOL0     C89462   6.982   8.133   7.616 -0.4526  0.6016  0.4688
  649MOL0     C89463   7.010   8.172   7.469 -0.1708 -0.4146  0.3041
  649MOL0     C89464   7.163   8.165   7.445  0.5134 -0.1756  0.1168
  649MOL0     C89465   7.206   8.188   7.300  0.3176  0.2672 -0.3618
  649MOL0     C89466   7.358   8.176   7.281 -0.1213 -0.7152  0.2226
  649MOL0     C89467   7.430   8.283   7.366 -0.4361  0.5924  0.2736
  649MOL0     C89468   7.556   8.239   7.453  0.6643  0.1246 -0.2570
  649MOL0    Cl89469   7.510   8.096   7.552  0.1250 -0.6150 -0.2587
  649MOL0     C89470   6.814   8.148   7.912  0.4299 -0.6718  0.5966
  649MOL0     C89471   6.788   8.152   8.043  0.9667 -0.1020 -0.1621
  649MOL0     O89472   6.694   8.465   8.183 -0.1074 -0.3845 -0.2259
  649MOL0     C89473   6.672   8.252   8.478 -0.3799 -0.1767 -0.3213
  649MOL0     C89474   6.686   8.240   8.614 -1.0990  0.4613  0.9430
  649MOL0     N89475   7.414   8.525   8.807  0.5342  0.2849  1.4882
  649MOL0     N89476   7.533   8.560   8.841  1.0767 -1.6824 -0.4660
  649MOL0     C89477   8.532   8.511   8.917 -0.2179  0.2436  0.3941
  649MOL0     C89478   8.643   8.572   8.850  0.5689  0.3750  0.3327
  649MOL0     C89479   9.063   8.703   8.789  0.2583 -0.0724 -1.0776
  649MOL0     C89480   9.181   8.705   8.858 -0.4512  0.1771  0.1193
  649MOL0     C89481   9.301   8.734   8.795  0.2517  0.3288  1.2363
  649MOL0     C89482   9.312   8.745   8.652 -0.0333 -0.2066 -0.1470
  649MOL0     O89483   9.438   8.749   8.605  0.2687 -0.5589 -0.6299
  649MOL0     C89484   9.460   8.762   8.463 -0.9322  0.3070  0.4158
  649MOL0     C89485   9.609   8.781   8.436  0.9392  0.0383 -0.2018
  649MOL0     C89486   9.665   8.901   8.505  1.9558  0.0730  0.4328
  649MOL0     C89487   9.817   8.919   8.486  0.5992  0.4478  0.0753
  649MOL0     C89488   9.857   8.981   8.361  0.6035 -0.4120  0.0213
  649MOL0     C89489   9.864   9.054   8.256 -0.0984 -0.1640 -0.3688
  649MOL0     C89490   9.188   8.748   8.585  0.6887  0.0622 -1.0348
  649MOL0     C89491   9.059   8.734   8.652 -0.1678 -0.0689  0.2541
  649MOL0     C89492   8.933   8.755   8.574 -0.2815  0.1676 -0.8006
  649MOL0     H89493   8.763   8.775   9.096  2.3832  0.2917 -1.6831
  649MOL0     H89494   8.583   8.672   9.214  0.2474  1.0898  0.2955
  649MOL0     H89495   8.392   8.319   9.232  1.4208  0.3107  0.5951
  649MOL0     H89496   8.540   8.299   9.142  0.0426 -1.4373 -0.1346
  649MOL0     H89497   8.388   8.272   8.927  0.7323 -1.1977 -0.6524
  649MOL0     H89498   8.377   8.159   9.049 -0.8857  0.5809  0.3281
  649MOL0     H89499   8.160   8.264   9.129 -0.5342 -0.5998 -0.8248
  649MOL0     H89500   8.178   8.407   9.022  3.5458  0.8407 -0.2295
  649MOL0     H89501   8.159   8.257   8.821  0.4176 -1.4005 -0.7354
  649MOL0     H89502   8.186   8.112   8.923  1.0074  0.1618 -1.7645
  649MOL0     H89503   7.981   8.138   9.034 -0.4780  1.4397  1.0838
  649MOL0     H89504   7.954   8.141   8.863  1.9206 -3.9414  1.2885
  649MOL0     H89505   7.953   8.381   9.060 -1.4951  1.3682  0.2201
  649MOL0     H89506   7.946   8.409   8.878  0.7272  1.1496  0.6346
  649MOL0     H89507   7.753   8.258   9.060  2.9371 -3.4716 -0.5467
  649MOL0     H89508   7.740   8.277   8.879 -1.1373  2.0137  0.0681
  649MOL0     H89509   7.683   8.502   9.084 -4.4293  1.2133 -1.6855
  649MOL0     H89510   7.774   8.538   8.938  0.9105  1.6436  1.5978
  649MOL0     H89511   7.511   8.257   8.949  1.4190 -1.6157 -4.7425
  649MOL0     H89512   7.275   8.226   8.823 -0.3620 -0.4251 -1.7525
  649MOL0     H89513   7.283   8.331   8.686  1.7672  0.1265  0.3054
  649MOL0     H89514   7.142   8.365   8.952 -3.0884  0.6995  0.6227
  649MOL0     H89515   7.125   8.491   8.823 -0.7637 -1.8780 -1.9044
  649MOL0     H89516   7.007   8.342   8.684 -0.1818  2.1314  1.6035
  649MOL0     H89517   7.027   8.201   8.796  0.8027 -0.6792  0.0864
  649MOL0     H89518   6.898   8.305   8.976 -6.4275  1.0000  1.5116
  649MOL0     H89519   6.895   8.460   8.899 -4.3336  0.4352 -1.0388
  649MOL0     H89520   6.782   8.546   8.680  2.3767 -1.2851  0.4177
  649MOL0     H89521   6.691   8.675   8.399  0.0315 -0.6002 -1.2507
  649MOL0     H89522   6.835   8.587   8.347 -0.9994 -2.5232  0.4634
  649MOL0     H89523   6.831   8.658   8.512 -0.2113  0.3344  1.8079
  649MOL0     H89524   6.485   8.328   7.993  0.0367  0.4332 -0.8507
  649MOL0     H89525   6.574   8.341   7.773  2.6132  1.0371 -0.4076
  649MOL0     H89526   6.803   8.028   7.692 -0.3080  1.4817  1.3423
  649MOL0     H89527   6.790   8.081   7.520  0.8061  2.1850 -0.4504
  649MOL0     H89528   7.018   8.217   7.676  1.6920 -0.1689  0.3611
  649MOL0     H89529   7.033   8.042   7.647 -0.7818 -0.9975 -3.1308
  649MOL0     H89530   6.980   8.277   7.456 -0.8934 -0.6837 -0.3648
  649MOL0     H89531   6.951   8.113   7.398 -1.0628 -1.5201  1.9133
  649MOL0     H89532   7.206   8.072   7.483  1.5108 -0.0992 -0.7993
  649MOL0     H89533   7.204   8.243   7.511  3.2967 -1.4027 -0.0735
  649MOL0     H89534   7.143   8.122   7.240  0.1818 -1.9074  1.9851
  649MOL0     H89535   7.182   8.289   7.265 -4.6457  0.4752  2.6068
  649MOL0     H89536   7.389   8.180   7.176  0.4329 -1.0568  0.3659
  649MOL0     H89537   7.393   8.077   7.310  0.4878  0.0809  2.3980
  649MOL0     H89538   7.360   8.338   7.429 -3.5518  1.5188 -3.6220
  649MOL0     H89539   7.458   8.367   7.301 -0.9325  2.0147  1.8310
  649MOL0     H89540   7.585   8.310   7.531 -0.6202 -0.3188  0.6580
  649MOL0     H89541   7.633   8.202   7.386  0.0263  0.9077 -1.4653
  649MOL0     H89542   6.899   8.090   7.877  0.4786  0.1436 -0.7240
  649MOL0     H89543   6.841   8.098   8.122 -0.6795 -1.7734 -0.1339
  649MOL0     H89544   6.641   8.164   8.423 -2.6376  0.5975 -0.3704
  649MOL0     H89545   6.680   8.140   8.656  0.9565  0.6858  1.8610
  649MOL0     H89546   8.458   8.451   8.865 -0.9361  1.1890  0.3010
  649MOL0     H89547   8.662   8.545   8.746 -1.8385  1.6901 -0.5106
  649MOL0     H89548   9.192   8.685   8.964  1.3439 -1.3732 -0.2972
  649MOL0     H89549   9.391   8.738   8.855  0.4532  3.3249  0.8645
  649MOL0     H89550   9.437   8.667   8.413  0.9659  0.6206 -1.1828
  649MOL0     H89551   9.405   8.845   8.417  1.8969  0.9771 -2.0764
  649MOL0     H89552   9.623   8.793   8.328  1.2764  2.8830  0.0790
  649MOL0     H89553   9.658   8.691   8.473 -0.1864 -0.8576 -0.8223
  649MOL0     H89554   9.605   8.990   8.484  1.2387  0.3555  3.2650
  649MOL0     H89555   9.659   8.875   8.612 -0.3567 -1.3195  0.0395
  649MOL0     H89556   9.863   8.820   8.490  1.1049  0.7081  1.1143
  649MOL0     H89557   9.864   8.977   8.566  0.1821 -0.0107  0.6618
  649MOL0     H89558   9.857   9.099   8.159  0.6016 -2.7978 -1.7159
  649MOL0     H89559   9.186   8.777   8.481 -1.8592  2.2170 -0.4865
  649MOL0     H89560   8.964   8.751   8.469 -1.3192 -2.6963 -1.0751
  649MOL0     H89561   8.860   8.679   8.602 -2.7838  2.5283 -0.5155
  649MOL0     H89562   8.892   8.856   8.584 -0.1752  0.4799 -3.0534
  650MOL0     O89563   7.471   1.470   4.744 -0.0254  0.1033 -0.0942
  650MOL0     C89564   7.366   1.529   4.722  0.4118  0.0049  0.0989
  650MOL0     O89565   7.278   1.495   4.631 -0.1349 -0.3568  0.3740
  650MOL0     C89566   7.261   1.363   4.603 -0.7373  1.0479 -0.0623
  650MOL0     C89567   7.179   1.337   4.494  0.4376 -0.0993  0.5683
  650MOL0     C89568   7.156   1.204   4.453 -0.1343  1.0910 -0.1152
  650MOL0     C89569   7.212   1.099   4.530  1.2369  0.4515 -1.4269
  650MOL0     O89570   7.187   0.973   4.490  0.1603  0.0745  0.7397
  650MOL0     C89571   7.125   0.890   4.597  0.0697  0.1099 -0.7414
  650MOL0     C89572   6.981   0.934   4.620  0.5264  0.5906 -0.7667
  650MOL0     C89573   6.897   0.932   4.497  0.2107 -0.3520 -1.2276
  650MOL0     C89574   6.880   0.796   4.433  0.9769 -0.2913 -0.1633
  650MOL0     C89575   6.779   0.803   4.321 -0.3722 -0.0863  0.0098
  650MOL0     C89576   6.769   0.674   4.245 -0.4506  0.8962  1.1678
  650MOL0     C89577   6.694   0.693   4.109  0.0399  0.0400 -0.3554
  650MOL0     C89578   6.668   0.557   4.037 -0.6774 -0.1675  0.9318
  650MOL0     N89579   6.772   0.526   3.938 -0.5506 -0.8515 -0.5892
  650MOL0     C89580   6.807   0.612   3.838  1.0066  0.4660  0.1640
  650MOL0     C89581   6.940   0.596   3.811 -0.0530  0.7074 -0.1393
  650MOL0     C89582   7.010   0.669   3.704  0.2073 -0.0598 -0.0718
  650MOL0     C89583   7.100   0.778   3.744  0.6347 -0.7400 -0.3255
  650MOL0     C89584   7.168   0.852   3.627 -0.6312  0.2462 -0.5021
  650MOL0     C89585   7.262   0.959   3.691 -0.3218  0.0671 -0.0675
  650MOL0     O89586   7.332   1.044   3.600 -0.3248 -0.2561 -0.7799
  650MOL0     C89587   7.342   1.170   3.637  0.1806 -0.0651  0.1558
  650MOL0     C89588   7.347   1.262   3.540  0.3311 -0.9625  0.4458
  650MOL0     C89589   7.358   1.403   3.568 -0.0666 -1.1117  0.2933
  650MOL0     C89590   7.366   1.491   3.451  0.3361 -0.2263  0.3666
  650MOL0     C89591   7.380   1.446   3.701 -0.3894  0.8681 -0.0907
  650MOL0     C89592   7.428   1.578   3.741  0.8508 -0.3568  0.1279
  650MOL0     O89593   7.391   1.692   3.666  0.3516  0.4031  0.1893
  650MOL0     C89594   7.448   1.812   3.712  0.0146 -0.0297 -0.1132
  650MOL0     C89595   7.550   1.871   3.631  0.3590 -0.5197 -0.0623
  650MOL0     C89596   7.592   1.992   3.680 -0.4196  0.7125  0.8085
  650MOL0     C89597   7.546   2.053   3.798 -0.3692  0.4549 -0.4204
  650MOL0     O89598   7.618   2.159   3.858 -0.3129 -0.6205 -0.0817
  650MOL0     C89599   7.546   2.267   3.921 -0.8120 -0.0757  0.0458
  650MOL0     C89600   7.433   2.314   3.823 -0.0667  0.7339 -0.5981
  650MOL0     C89601   7.467   2.370   3.688  0.2820  0.7920 -0.4736
  650MOL0     C89602   7.499   2.520   3.671  0.2161  0.8318  0.0563
  650MOL0     C89603   7.531   2.576   3.531 -0.7672  0.0777  0.2207
  650MOL0     C89604   7.537   2.734   3.529  0.8538  0.0660 -0.1516
  650MOL0     C89605   7.403   2.794   3.551 -0.2916 -0.4660 -0.8284
  650MOL0     C89606   7.410   2.938   3.506  0.2693 -0.1586  0.4387
  650MOL0    Cl89607   7.240   2.986   3.453 -0.0626 -0.1229  0.0179
  650MOL0     C89608   7.452   1.984   3.879  0.6118  0.2397  0.0821
  650MOL0     C89609   7.396   1.872   3.827 -0.5473  0.2895 -0.2237
  650MOL0     O89610   7.498   1.582   3.843 -0.9115 -0.7297  0.0587
  650MOL0     C89611   7.376   1.346   3.804 -0.1000  0.2964 -0.6970
  650MOL0     C89612   7.350   1.213   3.771 -0.0582  0.1461  0.8861
  650MOL0     N89613   6.978   0.493   3.891 -0.4101 -0.1860  0.3956
  650MOL0     N89614   6.884   0.455   3.971  0.2796  0.2284  0.8023
  650MOL0     C89615   7.293   1.121   4.642  0.2440 -0.8877 -0.6704
  650MOL0     C89616   7.311   1.250   4.682  0.4149  0.5948 -0.1941
  650MOL0     C89617   7.360   1.664   4.787  0.2338  0.0024  0.1099
  650MOL0     C89618   7.252   1.746   4.736  0.1910  0.4290 -0.4055
  650MOL0     C89619   7.215   1.858   4.807 -0.5520  1.1689  0.7645
  650MOL0     C89620   7.287   1.906   4.916 -0.8453  0.4370 -0.4988
  650MOL0     O89621   7.244   2.016   4.987  0.3828 -0.0089 -0.2565
  650MOL0     C89622   7.102   2.023   5.019 -0.1235 -0.9478 -0.2016
  650MOL0     C89623   7.041   1.906   5.097  0.6969  0.1427 -0.8193
  650MOL0     C89624   6.894   1.932   5.150  0.0309  1.0197 -0.7608
  650MOL0     C89625   6.868   1.883   5.288 -0.2837 -0.2977 -0.5422
  650MOL0     C89626   6.889   1.739   5.300 -0.4226  0.1214  0.1870
  650MOL0     C89627   6.891   1.615   5.303  0.0175  0.1522 -0.9124
  650MOL0     C89628   7.406   1.842   4.952 -0.1967  0.4273  0.4872
  650MOL0     C89629   7.439   1.714   4.897  0.0590 -0.3303  0.0949
  650MOL0     C89630   7.561   1.649   4.949 -0.7774  0.0476  0.8955
  650MOL0     H89631   7.140   1.420   4.436  1.6547  0.2552  0.2363
  650MOL0     H89632   7.091   1.167   4.374 -2.6745  0.4237  2.1316
  650MOL0     H89633   7.187   0.881   4.687 -0.5028  0.8731 -0.2673
  650MOL0     H89634   7.119   0.790   4.551 -0.5709 -0.8767  1.3654
  650MOL0     H89635   6.938   0.857   4.685  0.3973  0.4833 -0.9780
  650MOL0     H89636   6.971   1.035   4.659  0.3949  0.6786 -1.0238
  650MOL0     H89637   6.797   0.967   4.520 -0.0812 -1.4265 -0.7586
  650MOL0     H89638   6.957   1.001   4.437  1.8594  4.1877  4.7052
  650MOL0     H89639   6.972   0.758   4.388  0.7417  0.1540 -1.0435
  650MOL0     H89640   6.844   0.720   4.502 -5.1874  2.4306  0.2967
  650MOL0     H89641   6.808   0.880   4.250 -0.6476 -2.2857 -2.6565
  650MOL0     H89642   6.682   0.839   4.355 -0.7748 -0.9517 -0.1795
  650MOL0     H89643   6.866   0.624   4.235 -1.1935 -1.3278  3.9066
  650MOL0     H89644   6.707   0.618   4.316 -2.4770  4.3783  2.4030
  650MOL0     H89645   6.749   0.745   4.029  1.3258 -3.1499 -1.7293
  650MOL0     H89646   6.596   0.735   4.130 -0.2184 -1.5949  2.0838
  650MOL0     H89647   6.657   0.477   4.110 -4.1050  0.2767  1.0456
  650MOL0     H89648   6.571   0.555   3.987  0.1874 -1.7453 -0.7641
  650MOL0     H89649   6.736   0.686   3.803  0.9270  1.0997  1.6019
  650MOL0     H89650   6.936   0.711   3.634  0.9937 -1.6861 -1.9694
  650MOL0     H89651   7.072   0.597   3.650  2.4442  1.5952  0.1303
  650MOL0     H89652   7.043   0.852   3.800  1.6736  0.0129 -0.2257
  650MOL0     H89653   7.178   0.733   3.806  0.4393 -1.6932 -0.7594
  650MOL0     H89654   7.230   0.794   3.558  1.3308 -0.9869  2.1353
  650MOL0     H89655   7.090   0.890   3.561 -1.1752  1.2734  0.6879
  650MOL0     H89656   7.193   1.011   3.758 -1.7661  0.0422 -1.4743
  650MOL0     H89657   7.321   0.906   3.766 -0.9817  1.2904  1.3791
  650MOL0     H89658   7.351   1.223   3.439 -1.1163 -0.0144 -0.0157
  650MOL0     H89659   7.461   1.545   3.450  0.4366 -0.2172 -3.4901
  650MOL0     H89660   7.292   1.572   3.442  0.4716 -0.3204 -2.8711
  650MOL0     H89661   7.357   1.437   3.357  1.6641  0.2779 -0.0677
  650MOL0     H89662   7.579   1.821   3.540  1.6680 -1.1564  0.6729
  650MOL0     H89663   7.662   2.039   3.612 -0.3557 -0.3908  0.0836
  650MOL0     H89664   7.505   2.233   4.017  1.0043  0.8628  1.1977
  650MOL0     H89665   7.618   2.346   3.944 -0.7228  0.3153 -1.5037
  650MOL0     H89666   7.357   2.236   3.808 -0.7049  1.1319  0.4316
  650MOL0     H89667   7.372   2.385   3.881 -3.0979 -1.0246 -1.3871
  650MOL0     H89668   7.378   2.353   3.626  0.5411  1.2460 -0.9786
  650MOL0     H89669   7.545   2.306   3.645 -0.6749 -0.0176 -1.0676
  650MOL0     H89670   7.593   2.539   3.722  1.4376 -0.6638 -1.5367
  650MOL0     H89671   7.427   2.584   3.723 -0.5612 -1.6264  2.1853
  650MOL0     H89672   7.626   2.534   3.497 -1.8097 -1.2497 -1.2229
  650MOL0     H89673   7.456   2.545   3.458  2.1061 -0.8547 -2.5830
  650MOL0     H89674   7.586   2.760   3.435  2.1930 -2.1791 -0.1431
  650MOL0     H89675   7.610   2.778   3.598  0.8207 -2.2724  1.5032
  650MOL0     H89676   7.397   2.797   3.660  0.5465 -0.6171 -0.7743
  650MOL0     H89677   7.321   2.730   3.516  0.7092 -2.0669 -0.3651
  650MOL0     H89678   7.482   2.953   3.425 -0.3827 -1.3301 -0.3988
  650MOL0     H89679   7.448   2.999   3.588  2.9679 -3.2554  1.7309
  650MOL0     H89680   7.411   2.041   3.962 -1.1781 -1.0547  0.1595
  650MOL0     H89681   7.312   1.820   3.871 -2.2255  3.0536  0.1208
  650MOL0     H89682   7.402   1.381   3.903 -1.4889 -0.1299 -0.1573
  650MOL0     H89683   7.354   1.140   3.852 -2.5134  0.4080  1.3358
  650MOL0     H89684   7.337   1.042   4.702 -1.5579 -0.3123  1.5440
  650MOL0     H89685   7.367   1.263   4.774 -1.6043  3.7714  0.7857
  650MOL0     H89686   7.192   1.717   4.650 -0.0441 -0.5193  0.0615
  650MOL0     H89687   7.131   1.910   4.762 -1.4182 -2.2380 -1.9814
  650MOL0     H89688   7.080   2.113   5.077 -1.6117  0.9933 -3.5327
  650MOL0     H89689   7.052   2.030   4.922 -0.3303  0.8126 -0.0029
  650MOL0     H89690   7.105   1.880   5.182 -1.3487 -1.8267  0.2282
  650MOL0     H89691   7.033   1.818   5.033 -1.8953 -1.1023  1.0597
  650MOL0     H89692   6.868   2.037   5.134  3.6206  2.4670  1.6845
  650MOL0     H89693   6.830   1.862   5.095 -0.0081 -1.3948  2.0902
  650MOL0     H89694   6.764   1.908   5.311 -1.1285 -1.0096 -3.2138
  650MOL0     H89695   6.933   1.930   5.362  2.2284 -4.1447 -0.0292
  650MOL0     H89696   6.876   1.510   5.292  1.8792 -0.2202 -0.2499
  650MOL0     H89697   7.461   1.885   5.034  1.7566  0.0946 -0.5888
  650MOL0     H89698   7.626   1.731   4.979 -1.5193  0.9936 -0.0091
  650MOL0     H89699   7.545   1.583   5.035 -1.1262 -1.1934 -0.1084
  650MOL0     H89700   7.617   1.599   4.870 -0.6494  0.8893  0.4366
  651MOL0     O89701  11.395   2.248   4.851 -0.0512 -0.4313  0.4043
  651MOL0     C89702  11.472   2.163   4.800  0.4478  0.0302  0.1186
  651MOL0     O89703  11.582   2.187   4.727 -1.0813  0.2692  0.8261
  651MOL0     C89704  11.660   2.292   4.746 -0.2466  0.1881  0.1080
  651MOL0     C89705  11.676   2.362   4.872  1.2115 -0.4558 -0.0253
  651MOL0     C89706  11.762   2.477   4.877  0.4715  0.3333  0.4990
  651MOL0     C89707  11.810   2.534   4.758 -0.6888  0.2270 -0.1831
  651MOL0     O89708  11.874   2.650   4.772 -0.2462 -0.0137 -0.3561
  651MOL0     C89709  11.863   2.762   4.677  0.6688  0.2570 -0.0408
  651MOL0     C89710  11.981   2.873   4.693  0.8591 -0.6257 -0.2201
  651MOL0     C89711  12.001   2.894   4.849 -0.3319  0.4035 -0.5657
  651MOL0     C89712  12.039   3.030   4.903  0.4593  0.8411 -0.1539
  651MOL0     C89713  12.075   3.012   5.049  0.5206  0.6701 -0.3325
  651MOL0     C89714  12.133   3.143   5.105  0.8438 -0.0424  0.4737
  651MOL0     C89715  12.146   3.136   5.264 -0.4060  0.7962  0.1818
  651MOL0     C89716  12.278   3.064   5.304 -0.4184  0.3548 -0.5889
  651MOL0     N89717  12.320   3.082   5.439  0.9826 -0.1304 -0.6225
  651MOL0     C89718  12.351   3.199   5.496  0.0222  0.1092  0.6819
  651MOL0     C89719  12.386   3.168   5.622  0.6980  0.2289 -0.1585
  651MOL0     C89720  12.429   3.275   5.722 -0.0290  0.1821 -0.0045
  651MOL0     C89721  12.324   3.297   5.817  0.7664  0.6691 -0.5647
  651MOL0     C89722  12.223   3.393   5.748  0.5402  0.4497  0.4936
  651MOL0     C89723  12.093   3.392   5.828 -0.1844  0.2405  1.5351
  651MOL0     O89724  11.996   3.461   5.740  0.5088 -0.3689 -0.2882
  651MOL0     C89725  11.938   3.376   5.642  0.3278 -0.9412 -0.2312
  651MOL0     C89726  11.959   3.246   5.615  0.4882  0.7332  0.6814
  651MOL0     C89727  11.873   3.168   5.533 -0.0802  0.2718  0.3627
  651MOL0     C89728  11.895   3.019   5.542  0.2032  0.5455 -1.5426
  651MOL0     C89729  11.774   3.234   5.457  0.3874  0.0604  0.2379
  651MOL0     C89730  11.677   3.167   5.372 -0.9589  0.2127  0.5778
  651MOL0     O89731  11.544   3.201   5.385  0.7598  1.0296 -0.0116
  651MOL0     C89732  11.440   3.127   5.328 -0.1099 -0.0360  0.2248
  651MOL0     C89733  11.324   3.116   5.405  0.0115 -0.4475 -1.2652
  651MOL0     C89734  11.214   3.049   5.353  0.1588 -0.0561 -0.6638
  651MOL0     C89735  11.226   2.980   5.230  0.0253 -0.3216 -0.4331
  651MOL0     O89736  11.134   2.913   5.153 -0.8576  0.3881  0.8473
  651MOL0     C89737  11.006   2.883   5.211 -0.1397 -0.4941  0.1799
  651MOL0     C89738  10.941   2.828   5.078  0.1435  0.0131  0.1186
  651MOL0     C89739  10.960   2.920   4.950  0.9616 -0.5171  0.5522
  651MOL0     C89740  10.909   2.858   4.820 -0.3931  0.1622  0.4695
  651MOL0     C89741  10.895   2.951   4.696  0.2877 -0.0593  0.1367
  651MOL0     C89742  10.814   2.871   4.586 -0.7196  0.2223  0.0726
  651MOL0     C89743  10.832   2.944   4.451  0.2745  0.6015 -0.3730
  651MOL0     C89744  10.779   3.095   4.444  0.3104  0.3291  0.2386
  651MOL0    Cl89745  10.908   3.207   4.505  0.5215  0.5504  0.1536
  651MOL0     C89746  11.349   2.987   5.155 -0.5708 -0.3355 -0.0004
  651MOL0     C89747  11.449   3.071   5.203 -0.7688 -0.3711 -0.2332
  651MOL0     O89748  11.724   3.083   5.289 -0.3814  0.3789 -0.5611
  651MOL0     C89749  11.760   3.371   5.471 -0.0267  0.3967  0.7380
  651MOL0     C89750  11.838   3.437   5.568 -0.4830  0.0367  0.7212
  651MOL0     N89751  12.361   3.031   5.644 -0.7978 -0.5183 -0.6802
  651MOL0     N89752  12.323   2.982   5.526 -0.6844 -0.8989  0.3376
  651MOL0     C89753  11.798   2.466   4.645  0.5310 -0.1827  1.4075
  651MOL0     C89754  11.725   2.345   4.634  0.2470  0.6840  0.2252
  651MOL0     C89755  11.426   2.025   4.806  0.3173 -0.3361 -1.3184
  651MOL0     C89756  11.292   1.995   4.765 -0.6386 -0.2318  0.1728
  651MOL0     C89757  11.243   1.866   4.788 -0.0333 -0.0292  1.1693
  651MOL0     C89758  11.330   1.757   4.805  0.2495  0.0260 -1.4127
  651MOL0     O89759  11.279   1.633   4.811  0.2583  0.2242 -0.0736
  651MOL0     C89760  11.350   1.505   4.834 -0.3058 -1.3833 -0.3004
  651MOL0     C89761  11.261   1.387   4.806  0.0999  0.3318 -0.5962
  651MOL0     C89762  11.149   1.367   4.910  1.0108 -0.5758 -0.1957
  651MOL0     C89763  11.048   1.250   4.889  0.3100 -0.0486 -0.0510
  651MOL0     C89764  10.983   1.261   4.753  0.4557  0.1062 -0.3671
  651MOL0     C89765  10.937   1.265   4.643 -0.2489 -0.3813  0.5427
  651MOL0     C89766  11.467   1.787   4.838  1.4048  0.0058 -0.8348
  651MOL0     C89767  11.511   1.921   4.842 -0.5596  0.1081  0.2471
  651MOL0     C89768  11.647   1.938   4.881  0.0879  0.4560 -0.1900
  651MOL0     H89769  11.646   2.322   4.968 -0.0427 -2.9159 -1.3617
  651MOL0     H89770  11.780   2.505   4.980 -2.5721  0.5637  1.0692
  651MOL0     H89771  11.766   2.812   4.693 -0.1430 -0.4705 -2.3142
  651MOL0     H89772  11.859   2.717   4.577 -2.6672 -1.9821  0.9244
  651MOL0     H89773  12.075   2.831   4.654  0.7804 -2.0991  1.1157
  651MOL0     H89774  11.958   2.969   4.645 -1.8045 -1.1095 -0.0773
  651MOL0     H89775  11.920   2.847   4.906 -1.3313  0.9726 -1.4745
  651MOL0     H89776  12.086   2.829   4.873 -1.1133 -0.9824 -1.4024
  651MOL0     H89777  12.134   3.068   4.864  1.5705 -1.1593  0.4897
  651MOL0     H89778  11.965   3.111   4.899 -1.0441 -0.5031 -0.3459
  651MOL0     H89779  12.158   2.941   5.058  1.9618  2.4595  1.2215
  651MOL0     H89780  11.990   2.979   5.109  2.5027 -0.2968  2.1297
  651MOL0     H89781  12.234   3.161   5.066  0.8419 -2.8542 -1.1136
  651MOL0     H89782  12.056   3.217   5.083  1.3614 -0.2768 -2.5070
  651MOL0     H89783  12.058   3.085   5.304  1.2212 -2.3903  0.0179
  651MOL0     H89784  12.140   3.239   5.300  0.4368  0.7959  0.3497
  651MOL0     H89785  12.252   2.960   5.279 -0.1185  0.5359 -1.7477
  651MOL0     H89786  12.349   3.104   5.231 -0.7379  2.6313  0.2730
  651MOL0     H89787  12.360   3.296   5.447 -3.7351  0.7402  0.9886
  651MOL0     H89788  12.457   3.370   5.678  0.3326  1.5799  2.9802
  651MOL0     H89789  12.517   3.236   5.775  0.3112 -0.3213 -0.9246
  651MOL0     H89790  12.272   3.209   5.856 -0.5559  2.9745  3.3561
  651MOL0     H89791  12.359   3.347   5.908 -1.6565 -2.2857  2.2414
  651MOL0     H89792  12.264   3.494   5.756  0.2481  0.7493 -1.3955
  651MOL0     H89793  12.209   3.361   5.645  6.9812 -2.9634  0.1626
  651MOL0     H89794  12.064   3.294   5.866  0.9007 -0.7441 -0.0657
  651MOL0     H89795  12.110   3.458   5.914 -0.7878  2.3022  0.1691
  651MOL0     H89796  12.039   3.189   5.661  1.1584  1.5494  0.5408
  651MOL0     H89797  11.841   2.978   5.628  0.7803 -0.3765 -1.6044
  651MOL0     H89798  12.002   2.994   5.553 -0.2044 -0.7920 -0.1046
  651MOL0     H89799  11.866   2.948   5.465  2.8193 -1.3789 -0.9015
  651MOL0     H89800  11.314   3.171   5.498  0.2121  0.9091 -2.0336
  651MOL0     H89801  11.117   3.052   5.402 -0.1710  1.2366 -1.3752
  651MOL0     H89802  11.008   2.815   5.296  2.4252 -0.0026  0.6080
  651MOL0     H89803  10.951   2.970   5.249 -0.2056 -0.2315 -0.5050
  651MOL0     H89804  10.990   2.735   5.047  1.6929  0.7362  0.3018
  651MOL0     H89805  10.835   2.809   5.097  0.1100  0.9437  0.9335
  651MOL0     H89806  11.066   2.939   4.931  0.3792 -0.4969 -3.4427
  651MOL0     H89807  10.917   3.019   4.967 -0.9227 -1.3156  0.7165
  651MOL0     H89808  10.807   2.822   4.842  0.3240 -2.7073 -0.4280
  651MOL0     H89809  10.977   2.777   4.791 -0.0309  1.4460 -2.6459
  651MOL0     H89810  10.849   3.041   4.738 -2.2892 -1.4169  0.4612
  651MOL0     H89811  10.995   2.980   4.662  0.9748  0.0431  2.1703
  651MOL0     H89812  10.707   2.863   4.604 -1.2769  2.4892 -1.8217
  651MOL0     H89813  10.849   2.769   4.567 -1.5900 -0.2026  0.6830
  651MOL0     H89814  10.770   2.880   4.387 -0.5981 -0.3296  1.3452
  651MOL0     H89815  10.935   2.943   4.413 -0.4717  2.2647 -2.6852
  651MOL0     H89816  10.682   3.098   4.493  0.3081 -0.4721  0.2960
  651MOL0     H89817  10.758   3.118   4.339  0.1968  2.1979  0.6225
  651MOL0     H89818  11.356   2.948   5.054 -1.9566  0.0394 -0.2628
  651MOL0     H89819  11.536   3.086   5.140  1.3440 -3.0980  1.7875
  651MOL0     H89820  11.676   3.432   5.439 -0.7167 -0.4776  0.8500
  651MOL0     H89821  11.828   3.543   5.592  1.4014  1.0903 -2.4604
  651MOL0     H89822  11.829   2.528   4.561 -0.8581  2.5597  2.7937
  651MOL0     H89823  11.717   2.300   4.535 -0.5723  1.9916 -0.3218
  651MOL0     H89824  11.229   2.071   4.719  2.1304  0.5119 -2.7246
  651MOL0     H89825  11.135   1.864   4.779 -0.2587 -1.5396  3.3565
  651MOL0     H89826  11.435   1.504   4.765 -0.0084 -2.5067  0.0596
  651MOL0     H89827  11.382   1.509   4.938  2.1815  0.4835 -1.0556
  651MOL0     H89828  11.326   1.300   4.802 -0.1723 -0.1233  2.4240
  651MOL0     H89829  11.216   1.407   4.708  0.1731  2.4574 -0.2401
  651MOL0     H89830  11.204   1.345   5.001  0.7823  1.9434  0.6364
  651MOL0     H89831  11.091   1.460   4.913  0.0227 -1.1543 -0.7748
  651MOL0     H89832  10.962   1.256   4.956  1.2027  0.8420  1.0624
  651MOL0     H89833  11.098   1.154   4.900 -0.7450 -0.3763  2.6697
  651MOL0     H89834  10.890   1.259   4.546  0.6851  1.1987 -0.0422
  651MOL0     H89835  11.538   1.717   4.880 -0.2107 -0.1086  1.9876
  651MOL0     H89836  11.702   1.943   4.787 -0.0498 -2.6797 -0.5543
  651MOL0     H89837  11.654   2.030   4.939  0.4019  0.0339  0.4599
  651MOL0     H89838  11.685   1.853   4.939 -0.0141  0.2840 -0.3730
  652MOL0     O89839   5.375   3.372   9.621  0.1766 -0.1761  0.7658
  652MOL0     C89840   5.412   3.488   9.632 -0.8047 -0.3615  0.0374
  652MOL0     O89841   5.330   3.603   9.630  0.0499  0.1203 -0.9364
  652MOL0     C89842   5.195   3.575   9.612 -0.0973 -0.4198  0.3606
  652MOL0     C89843   5.140   3.579   9.482 -0.3421 -0.0346 -0.0342
  652MOL0     C89844   4.996   3.575   9.467  0.6028  0.3789  0.7039
  652MOL0     C89845   4.916   3.569   9.583  1.0484  0.2749  1.4646
  652MOL0     O89846   4.779   3.574   9.562  0.2568 -0.3514 -0.4854
  652MOL0     C89847   4.725   3.449   9.504 -0.2379 -0.0133 -0.6561
  652MOL0     C89848   4.699   3.345   9.615 -0.8070 -0.8927  0.0825
  652MOL0     C89849   4.576   3.271   9.586  0.0372 -0.0871  0.2996
  652MOL0     C89850   4.601   3.169   9.475 -1.1159 -0.5326  0.0086
  652MOL0     C89851   4.466   3.098   9.441  0.8124 -0.3338 -0.3566
  652MOL0     C89852   4.363   3.177   9.366  1.0753  0.4240  0.6184
  652MOL0     C89853   4.234   3.097   9.342  0.3320  0.6379  0.2242
  652MOL0     C89854   4.135   3.156   9.239  0.4420  0.9926 -0.1807
  652MOL0     N89855   4.066   3.284   9.278 -0.4517 -0.9670 -0.2864
  652MOL0     C89856   3.954   3.300   9.363 -0.9948  0.0697  0.1376
  652MOL0     C89857   3.925   3.431   9.346  0.3039  0.7022 -0.4400
  652MOL0     C89858   3.822   3.497   9.433  0.5104 -0.5377  0.1870
  652MOL0     C89859   3.854   3.536   9.575 -0.2425 -0.2508 -0.1127
  652MOL0     C89860   3.865   3.420   9.672  0.3991 -0.2698 -0.0878
  652MOL0     C89861   3.911   3.473   9.809  0.0990 -0.1271 -1.0184
  652MOL0     O89862   3.813   3.566   9.854  0.0239  0.4641  0.2376
  652MOL0     C89863   3.850   3.689   9.910  1.1700 -0.7241  0.0325
  652MOL0     C89864   3.965   3.768   9.882 -0.1818  0.7293  0.6234
  652MOL0     C89865   3.984   3.884   9.951 -1.1679  0.8636  0.6754
  652MOL0     C89866   4.114   3.955   9.914  0.0180 -0.4645  0.1246
  652MOL0     C89867   3.906   3.921  10.057  0.4343 -0.2611  0.6960
  652MOL0     C89868   3.920   4.046  10.133 -0.1518  0.0958  0.4758
  652MOL0     O89869   3.888   4.044  10.263  0.5150  0.7284 -0.1468
  652MOL0     C89870   3.872   4.162  10.325  1.1576  0.2886  0.3915
  652MOL0     C89871   3.960   4.273  10.306  0.7381  0.9108  0.0694
  652MOL0     C89872   3.942   4.390  10.371  0.0334  0.5038 -0.0902
  652MOL0     C89873   3.825   4.402  10.448  0.3707 -0.3906 -1.2570
  652MOL0     O89874   3.771   4.511  10.510 -0.2418 -0.3226  0.1126
  652MOL0     C89875   3.806   4.650  10.472 -0.5669  0.0884 -0.8282
  652MOL0     C89876   3.894   4.714  10.583 -0.8449 -0.0073 -0.2279
  652MOL0     C89877   4.031   4.653  10.613  0.6189  0.8783  0.3636
  652MOL0     C89878   4.096   4.727  10.727 -0.1627 -0.1915 -0.4892
  652MOL0     C89879   4.239   4.674  10.753 -0.2512 -0.2995 -0.1987
  652MOL0     C89880   4.339   4.772  10.818 -0.1638 -0.2515 -1.4091
  652MOL0     C89881   4.437   4.715  10.922  0.9494  0.4847  0.9478
  652MOL0     C89882   4.513   4.570  10.894  0.4788 -0.6665 -0.1426
  652MOL0    Cl89883   4.605   4.559  10.744 -0.0136 -0.0963 -0.2760
  652MOL0     C89884   3.738   4.291  10.475  0.2742 -0.3127 -0.4299
  652MOL0     C89885   3.756   4.172  10.406 -0.8791 -0.8625 -0.4092
  652MOL0     O89886   3.940   4.145  10.066  0.4902  0.4601 -0.6490
  652MOL0     C89887   3.798   3.841  10.089  0.3640 -0.3125 -0.1609
  652MOL0     C89888   3.769   3.727  10.019 -0.1499  0.0601 -0.1120
  652MOL0     N89889   4.010   3.491   9.269  0.0152  0.4399 -0.0804
  652MOL0     N89890   4.089   3.404   9.219 -0.1887 -0.0564 -0.4049
  652MOL0     C89891   4.973   3.574   9.711  0.4141  0.1138 -0.9340
  652MOL0     C89892   5.109   3.574   9.718 -0.8238  0.5617  0.7821
  652MOL0     C89893   5.539   3.513   9.699 -0.1274 -0.8482 -0.1870
  652MOL0     C89894   5.578   3.431   9.804  0.6236  0.0917 -0.2215
  652MOL0     C89895   5.711   3.435   9.859  1.1203  0.7008  0.2470
  652MOL0     C89896   5.794   3.526   9.804 -0.5258 -0.5108  0.9644
  652MOL0     O89897   5.926   3.549   9.840 -0.3529  0.1070 -0.7322
  652MOL0     C89898   5.981   3.507   9.963  0.3089 -0.2777 -0.2683
  652MOL0     C89899   5.976   3.601  10.081 -0.4057 -0.1719 -0.0504
  652MOL0     C89900   6.060   3.731  10.069  0.3256  0.5160  0.9918
  652MOL0     C89901   6.206   3.691  10.050 -0.7133 -0.5572 -0.3632
  652MOL0     C89902   6.272   3.614  10.152  0.4850  0.2590  0.4938
  652MOL0     C89903   6.308   3.548  10.247  0.1859 -0.9046 -0.0230
  652MOL0     C89904   5.762   3.611   9.701  0.4782 -0.0417  0.0677
  652MOL0     C89905   5.634   3.601   9.642  0.2991  0.0754  0.3079
  652MOL0     C89906   5.613   3.664   9.503 -0.4994  0.3813  0.8283
  652MOL0     H89907   5.199   3.600   9.393 -0.9464 -0.0319 -0.4335
  652MOL0     H89908   4.952   3.575   9.367 -1.9953  1.9810  1.7456
  652MOL0     H89909   4.789   3.406   9.426  1.3971  0.2481  0.4959
  652MOL0     H89910   4.627   3.477   9.466 -0.7957 -1.5008 -0.3710
  652MOL0     H89911   4.774   3.267   9.628 -0.4171 -0.6213 -0.4933
  652MOL0     H89912   4.691   3.398   9.710 -2.3489  0.9957 -1.0158
  652MOL0     H89913   4.550   3.228   9.684 -1.5774  0.7768  0.2891
  652MOL0     H89914   4.493   3.340   9.568  0.7750  0.4211 -1.2885
  652MOL0     H89915   4.645   3.220   9.390 -0.5507 -0.2795  0.4479
  652MOL0     H89916   4.677   3.103   9.519 -0.4514  0.0233 -0.2933
  652MOL0     H89917   4.421   3.057   9.532  1.5616 -0.9525 -0.2537
  652MOL0     H89918   4.483   3.014   9.373 -2.0085 -1.2755 -0.0201
  652MOL0     H89919   4.325   3.262   9.424 -3.4773 -0.8676 -0.0693
  652MOL0     H89920   4.394   3.221   9.270 -0.7389 -1.6380 -1.0161
  652MOL0     H89921   4.182   3.088   9.438  1.5972  1.8307  1.0587
  652MOL0     H89922   4.259   3.000   9.298 -0.1137 -0.5080  2.3623
  652MOL0     H89923   4.184   3.169   9.142  2.3895 -2.0042  0.2857
  652MOL0     H89924   4.058   3.080   9.224 -0.0692  1.1887  1.2698
  652MOL0     H89925   3.915   3.228   9.434 -1.4060 -0.6216 -0.7688
  652MOL0     H89926   3.740   3.424   9.438  0.6640 -0.6764  0.7949
  652MOL0     H89927   3.771   3.580   9.384 -1.9647 -2.8613 -1.4584
  652MOL0     H89928   3.951   3.587   9.575 -0.2190 -0.2637  1.4400
  652MOL0     H89929   3.783   3.612   9.608 -2.0234 -1.8440 -0.0911
  652MOL0     H89930   3.768   3.372   9.686 -0.3232  1.3351  0.6528
  652MOL0     H89931   3.938   3.347   9.634  2.7500  2.0225 -0.2686
  652MOL0     H89932   3.911   3.388   9.878 -0.9211  0.6610 -0.0220
  652MOL0     H89933   4.014   3.509   9.800  0.3802 -0.4589  0.4797
  652MOL0     H89934   4.044   3.727   9.819 -0.1308 -1.6794  2.1137
  652MOL0     H89935   4.202   3.890   9.913  0.7732  0.5118  0.7114
  652MOL0     H89936   4.153   4.033   9.980 -1.2404  1.0666 -0.8523
  652MOL0     H89937   4.098   4.007   9.819  0.1819 -0.8963 -0.1436
  652MOL0     H89938   4.038   4.253  10.234  0.4892 -0.1184  0.0608
  652MOL0     H89939   3.998   4.481  10.353 -1.5607  1.5395  0.0194
  652MOL0     H89940   3.854   4.652  10.374  2.9317 -2.4749  0.6281
  652MOL0     H89941   3.714   4.711  10.470  0.8455  2.9282  3.8974
  652MOL0     H89942   3.912   4.820  10.560  0.2549  0.3017  1.8045
  652MOL0     H89943   3.845   4.707  10.680  0.9133 -0.7483  0.6675
  652MOL0     H89944   4.100   4.653  10.528 -2.2013  1.1102 -2.0818
  652MOL0     H89945   4.016   4.548  10.641 -1.7892  1.3130  0.9674
  652MOL0     H89946   4.035   4.711  10.817 -0.1941  1.2937 -0.2210
  652MOL0     H89947   4.104   4.833  10.700  2.8432  0.5245  2.4347
  652MOL0     H89948   4.223   4.599  10.832  0.1396 -0.7295 -0.5228
  652MOL0     H89949   4.282   4.624  10.666  0.5088  2.6148 -1.6087
  652MOL0     H89950   4.283   4.853  10.867 -3.3061 -2.2294 -1.4252
  652MOL0     H89951   4.391   4.821  10.735 -0.4102  3.1657  0.2713
  652MOL0     H89952   4.386   4.708  11.018 -2.6180  2.4172 -0.5961
  652MOL0     H89953   4.515   4.791  10.932 -0.4858  1.8791  1.9711
  652MOL0     H89954   4.427   4.503  10.887 -0.4189  0.6097 -2.7895
  652MOL0     H89955   4.580   4.553  10.979  0.6276 -2.2778 -0.5528
  652MOL0     H89956   3.653   4.306  10.541  0.8212  0.1676  0.1675
  652MOL0     H89957   3.699   4.081  10.420 -1.6717 -0.0484  2.2019
  652MOL0     H89958   3.737   3.880  10.170  1.4061  0.0069  0.5077
  652MOL0     H89959   3.695   3.656  10.055  0.0767  0.9688  2.3222
  652MOL0     H89960   4.908   3.560   9.797  0.4133 -3.6394 -1.3892
  652MOL0     H89961   5.163   3.572   9.813  0.9969 -1.3032 -0.1976
  652MOL0     H89962   5.502   3.368   9.850  0.9352  0.7004  1.1851
  652MOL0     H89963   5.736   3.371   9.942  1.3053 -0.9931 -1.0673
  652MOL0     H89964   5.938   3.413   9.999  1.0862 -0.6126 -0.1806
  652MOL0     H89965   6.079   3.483   9.921 -0.9810 -2.2825 -2.3668
  652MOL0     H89966   6.018   3.550  10.168 -1.4389 -0.3652  0.3534
  652MOL0     H89967   5.872   3.624  10.106 -1.1838 -2.7322 -0.6672
  652MOL0     H89968   6.032   3.788   9.980  2.6763  1.2907  0.6780
  652MOL0     H89969   6.046   3.785  10.164 -0.3314 -1.8804  2.3311
  652MOL0     H89970   6.262   3.785  10.049  0.9131 -1.4695 -2.4756
  652MOL0     H89971   6.222   3.646   9.951  3.2089 -1.4717  0.5525
  652MOL0     H89972   6.332   3.501  10.340 -3.2676 -5.6101 -1.1792
  652MOL0     H89973   5.840   3.662   9.646  1.4095 -0.8626  0.5945
  652MOL0     H89974   5.692   3.730   9.467 -0.2397  0.6833  1.9099
  652MOL0     H89975   5.587   3.583   9.434 -0.8867  1.0674  0.1458
  652MOL0     H89976   5.526   3.730   9.511 -0.1507  0.7722  1.4872
  653MOL0     O89977   0.526   9.893   4.275  0.1109 -0.3158 -0.5179
  653MOL0     C89978   0.436   9.828   4.320  1.1384  0.4275  0.3949
  653MOL0     O89979   0.302   9.851   4.285  0.4424  0.8273  0.2646
  653MOL0     C89980   0.254   9.930   4.185 -0.6641  0.0633  0.6208
  653MOL0     C89981   0.126   9.988   4.197  2.1462 -1.1258  0.0704
  653MOL0     C89982   0.092  10.097   4.118  0.8260  0.2443  0.3335
  653MOL0     C89983   0.170  10.141   4.013  0.0841  0.5042  0.1057
  653MOL0     O89984   0.132  10.232   3.918  0.3569 -0.3177 -0.0646
  653MOL0     C89985  -0.002  10.219   3.870 -0.1625 -0.0537 -0.1473
  653MOL0     C89986  -0.023  10.328   3.756  0.2905  0.9562  0.0124
  653MOL0     C89987   0.062  10.322   3.632 -0.4980 -0.3912 -1.0110
  653MOL0     C89988  -0.012  10.370   3.509 -1.3262 -0.4626  0.7891
  653MOL0     C89989   0.082  10.358   3.389  0.6962 -0.0681  0.7508
  653MOL0     C89990   0.014  10.416   3.258  0.0214 -0.1791  0.1788
  653MOL0     C89991   0.101  10.380   3.143 -0.9251 -0.4330  0.5807
  653MOL0     C89992   0.018  10.394   3.007 -0.1529  0.3899  0.4372
  653MOL0     N89993   0.066  10.316   2.889 -0.3876  1.1602  0.4026
  653MOL0     C89994   0.010  10.193   2.861  0.5048 -0.0793 -0.3819
  653MOL0     C89995   0.090  10.139   2.768  0.1319  0.1885 -0.4010
  653MOL0     C89996   0.050  10.013   2.691  0.6727  0.0229  0.5507
  653MOL0     C89997   0.017  10.062   2.552  0.8183  0.9221 -0.2685
  653MOL0     C89998  -0.073   9.951   2.485  0.3688  0.3301 -0.2152
  653MOL0     C89999  -0.090   9.971   2.331  0.1151  0.5418 -0.7506
  653MOL0     O90000   0.034   9.968   2.264 -1.1305  0.2164  0.2868
  653MOL0     C90001   0.043  10.030   2.142 -0.2560  0.0368  0.0124
  653MOL0     C90002  -0.045  10.119   2.076  0.2335  0.3428  0.6230
  653MOL0     C90003  -0.012  10.175   1.946 -0.4321  0.1384  0.5433
  653MOL0     C90004  -0.110  10.267   1.876  0.0602 -0.8447 -0.1393
  653MOL0     C90005   0.109  10.136   1.879 -0.1550 -0.1887 -0.0337
  653MOL0     C90006   0.163  10.185   1.754 -0.4599 -1.0254 -0.1307
  653MOL0     O90007   0.164  10.101   1.647 -0.3585  0.3051  0.2701
  653MOL0     C90008   0.257  10.145   1.551  0.1456  0.1353  0.8996
  653MOL0     C90009   0.205  10.186   1.426  0.6730 -0.7765  0.2600
  653MOL0     C90010   0.295  10.228   1.332  0.3575  0.4475 -0.0695
  653MOL0     C90011   0.431  10.236   1.352  0.5139 -0.5245 -0.5211
  653MOL0     O90012   0.516  10.278   1.249  0.6833  0.1280 -0.7427
  653MOL0     C90013   0.650  10.231   1.236 -0.7387  0.7690 -0.4134
  653MOL0     C90014   0.667  10.195   1.096 -0.0815 -0.1317 -0.2499
  653MOL0     C90015   0.818  10.178   1.069  0.2881 -0.2202 -0.6756
  653MOL0     C90016   0.831  10.137   0.931 -0.9144  0.3606  1.2781
  653MOL0     C90017   0.978  10.151   0.881  0.5025  1.2018 -0.0975
  653MOL0     C90018   0.981  10.108   0.734  0.3055  0.5497  0.4296
  653MOL0     C90019   1.127  10.081   0.693  0.0540  0.3594 -0.4011
  653MOL0     C90020   1.235  10.198   0.685 -0.1924  0.5903  0.2382
  653MOL0    Cl90021   1.277  10.268   0.837  0.1201 -0.7212 -0.1637
  653MOL0     C90022   0.484  10.198   1.476 -0.7241  1.0215 -0.6920
  653MOL0     C90023   0.396  10.152   1.572  0.9188 -0.3127 -0.5417
  653MOL0     O90024   0.231  10.283   1.770 -0.3898 -0.0275  0.5245
  653MOL0     C90025   0.189  10.046   1.950 -0.1182 -0.0128 -1.0000
  653MOL0     C90026   0.166  10.003   2.077  0.3533  0.9937  0.5915
  653MOL0     N90027   0.202  10.217   2.762  0.5501  0.9436  0.0689
  653MOL0     N90028   0.180  10.326   2.821 -0.4815 -0.2930 -0.4096
  653MOL0     C90029   0.292  10.077   4.001 -1.0957 -0.2036  0.0784
  653MOL0     C90030   0.331   9.964   4.074  0.3567 -0.0672 -0.2932
  653MOL0     C90031   0.457   9.702   4.400 -0.9505 -0.2659  0.3363
  653MOL0     C90032   0.348   9.623   4.431  0.1116 -0.0472 -0.6676
  653MOL0     C90033   0.364   9.501   4.500  0.2823 -0.4688 -0.4023
  653MOL0     C90034   0.486   9.448   4.542 -0.0002  0.4132  0.0217
  653MOL0     O90035   0.518   9.338   4.626 -0.4088 -1.2107  0.6900
  653MOL0     C90036   0.418   9.235   4.613 -0.4468 -0.1968 -0.1430
  653MOL0     C90037   0.354   9.203   4.743 -0.4104  0.0876  0.6737
  653MOL0     C90038   0.265   9.311   4.791  0.4044  0.5878  0.1551
  653MOL0     C90039   0.237   9.296   4.935 -0.1907  0.8439 -0.9071
  653MOL0     C90040   0.181   9.162   4.982 -1.0318 -0.0836  0.2017
  653MOL0     C90041   0.142   9.055   5.022 -0.1267  0.0393 -0.2995
  653MOL0     C90042   0.595   9.530   4.519  0.6886 -0.6201  0.0080
  653MOL0     C90043   0.584   9.652   4.446  0.5590 -0.3699 -0.5971
  653MOL0     C90044   0.712   9.726   4.423 -0.3431  0.5145  0.0396
  653MOL0     H90045   0.054   9.962   4.273  2.2603  1.3207  1.1306
  653MOL0     H90046   0.001  10.154   4.136  1.9040  1.7098  1.3777
  653MOL0     H90047  -0.074  10.238   3.950 -1.8224 -0.4580 -1.5016
  653MOL0     H90048  -0.008  10.115   3.838  0.5411 -0.6480  1.5320
  653MOL0     H90049  -0.125  10.311   3.721 -0.0100  0.8576  0.8970
  653MOL0     H90050  -0.021  10.436   3.777 -1.3776  0.8010  1.1865
  653MOL0     H90051   0.150  10.385   3.647 -1.5069  0.5422  1.6249
  653MOL0     H90052   0.094  10.220   3.610  0.5265  0.0680 -1.7036
  653MOL0     H90053  -0.099  10.312   3.480 -1.8417 -0.3543  2.0732
  653MOL0     H90054  -0.043  10.475   3.520 -0.4744  0.2602 -2.5216
  653MOL0     H90055   0.097  10.251   3.372 -1.9299 -0.5563  1.0195
  653MOL0     H90056   0.181  10.405   3.389  0.0926  1.3782 -1.6065
  653MOL0     H90057  -0.084  10.366   3.256 -0.3272  0.5203 -0.9851
  653MOL0     H90058   0.004  10.524   3.266  1.6585 -0.0178  0.2419
  653MOL0     H90059   0.118  10.271   3.144 -3.2164 -0.8662 -0.8558
  653MOL0     H90060   0.191  10.442   3.138 -2.6290  2.0996 -0.5522
  653MOL0     H90061  -0.088  10.367   3.014 -0.7101  2.2114 -0.4896
  653MOL0     H90062   0.008  10.501   2.986  0.7264 -0.0563 -2.8943
  653MOL0     H90063  -0.080  10.142   2.894 -0.9108  1.1162 -2.2660
  653MOL0     H90064  -0.036   9.960   2.735 -1.0587  3.2201  1.3390
  653MOL0     H90065   0.126   9.937   2.672 -0.0093 -0.4681 -0.2952
  653MOL0     H90066  -0.047  10.151   2.552 -1.6063 -0.7327  0.5037
  653MOL0     H90067   0.106  10.073   2.490  1.6951 -2.8668  0.0853
  653MOL0     H90068  -0.032   9.852   2.506 -2.9618 -1.3920 -1.0471
  653MOL0     H90069  -0.176   9.947   2.522  0.0001  1.5746 -1.0082
  653MOL0     H90070  -0.156   9.888   2.306 -1.6824  2.1625 -1.5949
  653MOL0     H90071  -0.153  10.060   2.325 -1.4803 -0.5558 -0.8598
  653MOL0     H90072  -0.140  10.148   2.120  0.8211  2.2521  0.7272
  653MOL0     H90073  -0.211  10.248   1.913  0.3443  0.3159  1.2981
  653MOL0     H90074  -0.112  10.243   1.769 -1.3678 -0.8384 -0.1300
  653MOL0     H90075  -0.096  10.374   1.889  0.6721 -0.3466 -3.7849
  653MOL0     H90076   0.099  10.189   1.403  0.5502  0.3311  0.8622
  653MOL0     H90077   0.260  10.267   1.237  1.2630  1.5277  0.0261
  653MOL0     H90078   0.714  10.317   1.258 -0.7178  0.4892  0.6443
  653MOL0     H90079   0.671  10.139   1.291 -1.4693  1.8441  1.7581
  653MOL0     H90080   0.611  10.102   1.092 -2.1443  1.0567 -0.4407
  653MOL0     H90081   0.611  10.271   1.040 -2.4724 -3.7413 -3.2007
  653MOL0     H90082   0.862  10.106   1.139  1.8994  1.1738 -0.1679
  653MOL0     H90083   0.863  10.277   1.080 -0.3803 -0.0128  0.2721
  653MOL0     H90084   0.778  10.208   0.867 -1.2919  1.2019  2.4817
  653MOL0     H90085   0.798  10.033   0.927  2.2439 -0.7260  0.3347
  653MOL0     H90086   1.022  10.250   0.898  1.8997  1.0217 -2.2499
  653MOL0     H90087   1.030  10.082   0.948 -0.2341  0.2625 -0.4709
  653MOL0     H90088   0.939  10.183   0.667  0.2603  0.0661 -0.0892
  653MOL0     H90089   0.935  10.009   0.735 -1.4880  1.2827  3.5725
  653MOL0     H90090   1.119  10.018   0.604 -2.2798 -0.2608  0.1712
  653MOL0     H90091   1.169  10.018   0.772 -2.6421  0.1984  1.0103
  653MOL0     H90092   1.200  10.276   0.617 -1.9595  1.0015  1.5253
  653MOL0     H90093   1.324  10.161   0.634 -0.9251  1.3654 -1.7034
  653MOL0     H90094   0.586  10.225   1.502 -0.6558  4.2363 -3.5926
  653MOL0     H90095   0.437  10.116   1.666 -2.2976  0.3765  1.2702
  653MOL0     H90096   0.289  10.032   1.909  0.7141  0.0973  0.9186
  653MOL0     H90097   0.242   9.945   2.128  1.4680  1.7405 -0.1961
  653MOL0     H90098   0.362  10.116   3.927  1.6416  0.0019  2.6003
  653MOL0     H90099   0.424   9.912   4.053 -0.2128 -0.9405 -0.7308
  653MOL0     H90100   0.249   9.667   4.419 -0.3957 -0.7255  0.8200
  653MOL0     H90101   0.271   9.461   4.539  0.1884 -1.3587 -1.4957
  653MOL0     H90102   0.344   9.252   4.534 -1.1119 -0.2565  0.4553
  653MOL0     H90103   0.474   9.143   4.590  1.1444  0.1628  1.9680
  653MOL0     H90104   0.433   9.186   4.816  0.7124  2.2848  0.0552
  653MOL0     H90105   0.296   9.111   4.731 -0.2755  0.0385  0.3935
  653MOL0     H90106   0.300   9.412   4.769 -0.0955  0.5523 -0.8355
  653MOL0     H90107   0.166   9.311   4.745  0.8302  1.5722 -0.7777
  653MOL0     H90108   0.172   9.377   4.967  1.5426  0.2573  5.4723
  653MOL0     H90109   0.332   9.294   4.989  0.1925 -1.7555 -1.5096
  653MOL0     H90110   0.105   8.961   5.058  3.0167 -0.3355  2.4235
  653MOL0     H90111   0.696   9.503   4.548  0.0540 -1.3433  1.7120
  653MOL0     H90112   0.709   9.831   4.452 -0.6905  1.1963 -2.2730
  653MOL0     H90113   0.806   9.689   4.465  0.4833  2.0757 -0.3678
  653MOL0     H90114   0.727   9.725   4.314  0.2773 -0.8255  0.1203
  654MOL0     O90115   2.550  10.616   0.176 -0.6447 -0.2665 -0.2552
  654MOL0     C90116   2.439  10.574   0.160  0.1907  0.3760  0.0853
  654MOL0     O90117   2.406  10.506   0.047  0.6668  0.2059  0.3820
  654MOL0     C90118   2.498  10.459  -0.048  0.3388  1.5329  0.0515
  654MOL0     C90119   2.443  10.466  -0.179  0.3686  0.4902 -0.1525
  654MOL0     C90120   2.520  10.428  -0.289  0.0090  0.1349  0.2105
  654MOL0     C90121   2.644  10.371  -0.267  0.1463 -0.1792  0.4488
  654MOL0     O90122   2.721  10.346  -0.382  0.7791  0.3128  0.1247
  654MOL0     C90123   2.790  10.223  -0.389 -0.5076 -0.1555  0.3507
  654MOL0     C90124   2.848  10.221  -0.529  0.0348  0.4818 -0.5290
  654MOL0     C90125   2.942  10.096  -0.543  0.4886 -0.3516  0.2292
  654MOL0     C90126   3.001  10.108  -0.683  0.3492 -1.0024 -0.1804
  654MOL0     C90127   3.116  10.208  -0.699 -0.7080  0.9244 -0.4959
  654MOL0     C90128   3.157  10.200  -0.848  0.0967  0.2003  0.0132
  654MOL0     C90129   3.281  10.297  -0.863 -0.4486  0.1533 -0.3367
  654MOL0     C90130   3.346  10.279  -1.001 -0.0221  0.4826 -0.2224
  654MOL0     N90131   3.439  10.174  -0.999 -0.5897  0.0636 -0.5088
  654MOL0     C90132   3.560  10.198  -0.931  0.0049  0.5190  0.1347
  654MOL0     C90133   3.603  10.072  -0.900  0.3037 -0.3015 -0.5749
  654MOL0     C90134   3.732  10.049  -0.823 -0.2553  0.6203  0.6683
  654MOL0     C90135   3.827   9.938  -0.881  0.5670  0.5583  0.1057
  654MOL0     C90136   3.895   9.865  -0.764 -0.8677 -1.7458 -0.3091
  654MOL0     C90137   3.997   9.957  -0.683  0.2912 -0.4676 -0.3789
  654MOL0     O90138   4.090  10.017  -0.785  0.4879 -0.0110  0.0055
  654MOL0     C90139   4.195  10.093  -0.738  0.4842  0.2038 -0.5982
  654MOL0     C90140   4.270  10.167  -0.820 -1.0213  0.2629 -0.1388
  654MOL0     C90141   4.383  10.243  -0.783 -0.3916 -0.5302 -0.1748
  654MOL0     C90142   4.440  10.341  -0.876 -0.4698  0.3529  0.1889
  654MOL0     C90143   4.421  10.245  -0.644 -0.5625 -0.9135 -0.4399
  654MOL0     C90144   4.529  10.336  -0.582 -1.1285 -0.0601  0.9474
  654MOL0     O90145   4.522  10.348  -0.448  0.2957  1.1174 -0.9067
  654MOL0     C90146   4.621  10.410  -0.367 -0.0677  0.5803  0.3855
  654MOL0     C90147   4.760  10.431  -0.401 -0.9485  0.8433 -0.3082
  654MOL0     C90148   4.863  10.461  -0.303  0.8645 -0.0644 -0.9499
  654MOL0     C90149   4.815  10.485  -0.174 -0.3694  0.2853 -0.8899
  654MOL0     O90150   4.897  10.525  -0.063 -0.2938  0.5339  1.8836
  654MOL0     C90151   5.031  10.563  -0.086  0.5671  0.7086 -0.2841
  654MOL0     C90152   5.123  10.437  -0.077  0.2331  0.0302 -1.1206
  654MOL0     C90153   5.263  10.484  -0.032  0.1964  0.8339 -0.0079
  654MOL0     C90154   5.344  10.359   0.004  0.5424 -0.5625 -0.0415
  654MOL0     C90155   5.495  10.390   0.011  1.2540 -0.4311  0.3956
  654MOL0     C90156   5.583  10.268   0.056 -0.1682 -0.0449  0.3418
  654MOL0     C90157   5.732  10.307   0.056  0.1577 -0.1476  0.6282
  654MOL0     C90158   5.801  10.277  -0.082  0.1354 -0.2029  0.0560
  654MOL0    Cl90159   5.948  10.354  -0.065  0.0689  0.1474 -0.1525
  654MOL0     C90160   4.676  10.476  -0.145 -0.2575 -0.9891  0.1524
  654MOL0     C90161   4.585  10.435  -0.237 -0.0722 -0.2644 -0.3516
  654MOL0     O90162   4.618  10.388  -0.660 -0.7553  0.3765  0.1266
  654MOL0     C90163   4.341  10.167  -0.557  0.6880  0.6491  0.8796
  654MOL0     C90164   4.243  10.079  -0.603  0.2026 -0.1215  0.1559
  654MOL0     N90165   3.515   9.979  -0.942  0.1070  0.1718 -0.1168
  654MOL0     N90166   3.420  10.047  -1.004  0.3536  0.2908  0.0311
  654MOL0     C90167   2.703  10.353  -0.143 -0.9724 -0.0739  0.4686
  654MOL0     C90168   2.620  10.407  -0.041  0.7685  0.1273  0.1187
  654MOL0     C90169   2.322  10.601   0.251  0.2636 -0.4476 -0.4546
  654MOL0     C90170   2.198  10.618   0.186  0.2318  0.1932 -0.0868
  654MOL0     C90171   2.083  10.653   0.276 -0.4441  0.0507  0.5877
  654MOL0     C90172   2.092  10.650   0.417  0.7719  0.2013  0.0381
  654MOL0     O90173   1.988  10.665   0.506 -0.2753 -0.1158  0.0165
  654MOL0     C90174   1.853  10.677   0.455  0.4000  0.5642 -0.1286
  654MOL0     C90175   1.809  10.824   0.454 -1.1271  1.0904  0.0419
  654MOL0     C90176   1.661  10.867   0.398 -1.2338  0.8228 -0.3727
  654MOL0     C90177   1.662  10.860   0.244 -0.0156  0.3395  0.5079
  654MOL0     C90178   1.622  10.736   0.187  0.2739 -0.2203 -0.4910
  654MOL0     C90179   1.580  10.637   0.133  0.1389  0.0878 -0.2482
  654MOL0     C90180   2.215  10.624   0.470 -1.0248 -0.7640  0.2571
  654MOL0     C90181   2.329  10.602   0.391 -0.7083 -0.5582 -0.2873
  654MOL0     C90182   2.453  10.570   0.460 -0.6750 -0.2523  1.0292
  654MOL0     H90183   2.340  10.501  -0.181  0.0534 -0.4217 -0.4513
  654MOL0     H90184   2.488  10.448  -0.390  1.1696  2.1291  0.1871
  654MOL0     H90185   2.720  10.138  -0.390 -0.4490 -0.2613 -2.2907
  654MOL0     H90186   2.856  10.215  -0.302  0.0351  0.8527  0.0442
  654MOL0     H90187   2.769  10.217  -0.604 -2.5833  1.1178  2.0163
  654MOL0     H90188   2.904  10.314  -0.541  1.2462  0.1376  1.8785
  654MOL0     H90189   3.020  10.096  -0.467  0.6966 -1.3033  0.0345
  654MOL0     H90190   2.892   9.999  -0.532 -3.1905  1.4549  1.0254
  654MOL0     H90191   3.027  10.010  -0.723 -0.5897 -0.4175 -2.3683
  654MOL0     H90192   2.927  10.151  -0.752 -0.4362 -0.3700  1.0234
  654MOL0     H90193   3.200  10.177  -0.636 -0.5355 -1.2040 -1.6829
  654MOL0     H90194   3.092  10.313  -0.678 -0.5142  1.0198 -0.7431
  654MOL0     H90195   3.182  10.096  -0.869 -0.9758 -0.3299  1.2536
  654MOL0     H90196   3.073  10.226  -0.912 -0.9183 -0.8656  0.8733
  654MOL0     H90197   3.355  10.278  -0.786 -1.3915  0.4071  0.6608
  654MOL0     H90198   3.247  10.400  -0.849 -1.7840 -0.4575  1.2170
  654MOL0     H90199   3.264  10.253  -1.068 -0.4174 -0.2582  0.5268
  654MOL0     H90200   3.402  10.365  -1.039  0.9502 -1.2219 -2.9223
  654MOL0     H90201   3.608  10.286  -0.888 -0.2046  0.8212 -0.2527
  654MOL0     H90202   3.695  10.026  -0.723  2.1024  0.0085  1.4677
  654MOL0     H90203   3.784  10.145  -0.814  0.0226  0.8317 -2.1732
  654MOL0     H90204   3.756   9.874  -0.934  0.7069  1.1566 -0.8395
  654MOL0     H90205   3.900   9.978  -0.953  0.3376 -1.2212 -1.1891
  654MOL0     H90206   3.822   9.830  -0.690 -0.4721 -2.6734 -0.3549
  654MOL0     H90207   3.958   9.781  -0.794  2.7156 -1.4665  5.1913
  654MOL0     H90208   3.930  10.025  -0.629  1.3045 -0.7857  1.3455
  654MOL0     H90209   4.043   9.893  -0.608 -0.6642  0.6810  1.2374
  654MOL0     H90210   4.249  10.164  -0.927 -2.3612  1.8617  0.0432
  654MOL0     H90211   4.381  10.345  -0.968 -2.3132 -2.9699  1.0529
  654MOL0     H90212   4.545  10.314  -0.894 -1.1402 -0.5851 -3.0845
  654MOL0     H90213   4.442  10.442  -0.835  0.8247 -0.8782  3.4421
  654MOL0     H90214   4.788  10.403  -0.502  1.5278  1.9969 -0.0128
  654MOL0     H90215   4.967  10.469  -0.333  1.1378  0.6327  0.1110
  654MOL0     H90216   5.037  10.607  -0.186  0.2787 -0.3076 -0.7595
  654MOL0     H90217   5.048  10.647  -0.018  1.2257 -0.0265  0.4871
  654MOL0     H90218   5.075  10.377   0.000 -1.8007 -0.9236 -3.0134
  654MOL0     H90219   5.121  10.375  -0.167 -1.6310  0.6537 -1.5554
  654MOL0     H90220   5.251  10.546   0.057 -2.1698  1.1450 -0.4763
  654MOL0     H90221   5.303  10.541  -0.116 -0.8989 -1.3155 -2.0945
  654MOL0     H90222   5.327  10.274  -0.063 -1.5614 -0.1451 -0.1027
  654MOL0     H90223   5.305  10.325   0.101 -0.7937 -1.1627 -0.7492
  654MOL0     H90224   5.516  10.431  -0.088 -2.6021  1.2489  0.0914
  654MOL0     H90225   5.501  10.473   0.081 -0.1164  2.1213 -2.3005
  654MOL0     H90226   5.563  10.170   0.011 -0.0280 -0.2703  0.7661
  654MOL0     H90227   5.559  10.251   0.162 -0.6012 -1.1917  0.0733
  654MOL0     H90228   5.795  10.257   0.130  0.0850 -1.8631 -0.4155
  654MOL0     H90229   5.743  10.413   0.079 -2.9420  0.2984  0.5223
  654MOL0     H90230   5.739  10.324  -0.160  1.6674  0.0772 -1.0439
  654MOL0     H90231   5.804  10.168  -0.096  0.4443 -0.2958  0.8168
  654MOL0     H90232   4.633  10.506  -0.050 -0.2637  0.2850 -0.2281
  654MOL0     H90233   4.478  10.433  -0.219 -0.2953  0.6469 -1.4604
  654MOL0     H90234   4.360  10.170  -0.450  0.1111  0.6137  0.9872
  654MOL0     H90235   4.221  10.001  -0.531 -0.3317  0.4999  0.6782
  654MOL0     H90236   2.798  10.307  -0.118 -0.9305 -0.0845  0.2924
  654MOL0     H90237   2.661  10.392   0.059  1.3526 -0.6166 -0.2233
  654MOL0     H90238   2.198  10.619   0.077  1.2194  0.6309 -0.0883
  654MOL0     H90239   1.997  10.654   0.211  1.8768 -2.5811 -2.9459
  654MOL0     H90240   1.836  10.623   0.361 -0.0499  1.0880 -0.3541
  654MOL0     H90241   1.787  10.620   0.520  1.3546 -3.7412 -2.5486
  654MOL0     H90242   1.878  10.891   0.401 -1.6991  0.6446 -1.3242
  654MOL0     H90243   1.808  10.851   0.560 -2.0675 -1.7893  0.8620
  654MOL0     H90244   1.585  10.807   0.449 -0.5873 -0.6328 -1.0563
  654MOL0     H90245   1.639  10.971   0.423 -0.9855  1.1208 -1.3469
  654MOL0     H90246   1.756  10.896   0.200 -0.3544  0.5249 -0.0697
  654MOL0     H90247   1.593  10.938   0.210  1.6573  0.7787 -2.2129
  654MOL0     H90248   1.551  10.537   0.106 -2.6478  0.7401 -0.0258
  654MOL0     H90249   2.228  10.622   0.577  6.8126 -1.9812 -0.1046
  654MOL0     H90250   2.528  10.523   0.395 -0.0460  1.6858  0.2864
  654MOL0     H90251   2.487  10.663   0.506  0.0758 -1.1759  2.4043
  654MOL0     H90252   2.437  10.498   0.541  0.2614 -0.0823  1.3834
  655MOL0     O90253   3.179   3.853   2.890  0.4366 -0.3554 -0.3557
  655MOL0     C90254   3.241   3.819   3.003  0.3424 -0.2987  0.4556
  655MOL0     O90255   3.231   3.690   3.064  0.7073 -0.2502 -0.1811
  655MOL0     C90256   3.180   3.599   2.977  0.3971 -0.9544  0.0426
  655MOL0     C90257   3.069   3.526   3.019 -0.2059 -0.1110 -0.2606
  655MOL0     C90258   3.009   3.430   2.945 -0.4132  0.2198 -0.8113
  655MOL0     C90259   3.065   3.387   2.825 -0.1112  0.1687  0.5140
  655MOL0     O90260   3.002   3.279   2.757  0.1789 -0.1103  0.3180
  655MOL0     C90261   3.070   3.235   2.637 -0.0780 -0.5178 -0.0263
  655MOL0     C90262   2.985   3.119   2.571  0.0773  1.2054 -0.4968
  655MOL0     C90263   2.987   2.993   2.660 -0.3817  0.2177 -0.7476
  655MOL0     C90264   2.932   2.860   2.596 -0.9961 -0.3079 -0.2392
  655MOL0     C90265   2.779   2.852   2.624 -0.2267  0.2549 -0.7624
  655MOL0     C90266   2.716   2.712   2.595 -0.7549 -1.1833 -0.4280
  655MOL0     C90267   2.572   2.715   2.608  1.1113  0.6788  0.0019
  655MOL0     C90268   2.512   2.779   2.740  0.0819  0.3546 -1.3877
  655MOL0     N90269   2.367   2.805   2.726 -0.1505  1.7016  0.6434
  655MOL0     C90270   2.303   2.921   2.760 -0.0049 -0.2605 -0.1676
  655MOL0     C90271   2.174   2.895   2.730  0.1147  0.5427 -0.4208
  655MOL0     C90272   2.067   3.003   2.737 -0.0728 -0.0087  0.0993
  655MOL0     C90273   1.971   2.979   2.856  0.4284  0.0284 -0.2170
  655MOL0     C90274   1.835   3.028   2.831 -0.6030  0.5350  0.0229
  655MOL0     C90275   1.827   3.162   2.783 -0.1510 -0.1698  0.4960
  655MOL0     O90276   1.905   3.254   2.873 -0.0604  0.2126 -1.1229
  655MOL0     C90277   1.944   3.371   2.806  0.9765  0.4748  0.4425
  655MOL0     C90278   2.066   3.430   2.830 -0.0665 -0.3847 -0.4964
  655MOL0     C90279   2.112   3.542   2.761 -0.4077 -0.5057  1.0039
  655MOL0     C90280   2.248   3.602   2.802 -0.5056  1.7907  0.4016
  655MOL0     C90281   2.036   3.588   2.651  0.5311  0.4949  0.4322
  655MOL0     C90282   2.068   3.703   2.564 -0.2008 -0.1489  0.0684
  655MOL0     O90283   1.965   3.780   2.527  0.2939 -0.4581  0.7043
  655MOL0     C90284   1.954   3.869   2.423 -1.3838  0.1568  0.0629
  655MOL0     C90285   1.831   3.929   2.416 -0.8688  0.6868 -0.0903
  655MOL0     C90286   1.802   4.027   2.315  0.9390  0.0605 -0.5594
  655MOL0     C90287   1.904   4.081   2.241  0.3410  0.6562 -0.6259
  655MOL0     O90288   1.876   4.174   2.153 -0.4525 -0.4153  0.4792
  655MOL0     C90289   1.859   4.122   2.024  0.4072  0.4901 -1.3362
  655MOL0     C90290   1.974   4.152   1.929  0.4251  0.2198 -0.7602
  655MOL0     C90291   2.001   4.031   1.837 -0.6642 -0.1038 -0.7129
  655MOL0     C90292   2.128   4.072   1.769  0.2855  0.6252  0.4939
  655MOL0     C90293   2.181   3.955   1.681  0.0563 -0.9249 -0.9671
  655MOL0     C90294   2.316   3.964   1.610 -0.3464 -0.2358 -0.5062
  655MOL0     C90295   2.438   4.003   1.702  0.0581 -0.5913 -0.2915
  655MOL0     C90296   2.564   4.029   1.612  0.0238 -0.2411 -0.6306
  655MOL0    Cl90297   2.699   3.999   1.731  0.4693 -0.3244  0.0665
  655MOL0     C90298   2.037   4.031   2.256  0.2510  0.7384  0.9115
  655MOL0     C90299   2.063   3.921   2.345 -0.7492 -0.7062 -0.0484
  655MOL0     O90300   2.185   3.725   2.540 -0.6714  0.2124  0.0499
  655MOL0     C90301   1.910   3.525   2.630 -0.5697  0.6079 -0.8492
  655MOL0     C90302   1.866   3.417   2.706 -0.0310  0.1140  0.9306
  655MOL0     N90303   2.160   2.762   2.706  0.4488  0.4134 -0.7303
  655MOL0     N90304   2.273   2.710   2.708 -0.6491  0.7000 -0.4539
  655MOL0     C90305   3.189   3.452   2.779  0.9560 -0.1592 -0.0289
  655MOL0     C90306   3.240   3.565   2.858  0.1686  0.3793  0.3515
  655MOL0     C90307   3.330   3.917   3.073  0.2618 -0.3821  0.4700
  655MOL0     C90308   3.353   3.898   3.205  0.3530 -0.1446 -0.3115
  655MOL0     C90309   3.421   3.990   3.284  0.5084  1.0277 -0.6217
  655MOL0     C90310   3.493   4.095   3.221 -0.2166  1.2032  0.6059
  655MOL0     O90311   3.566   4.175   3.300  0.0914 -0.7553 -1.3876
  655MOL0     C90312   3.704   4.134   3.304  0.6175  0.2880  0.3020
  655MOL0     C90313   3.775   4.196   3.420  0.8622  0.3618 -0.3784
  655MOL0     C90314   3.691   4.201   3.540  0.3612 -0.0300  0.2838
  655MOL0     C90315   3.774   4.251   3.661 -0.6597 -0.0414 -0.1078
  655MOL0     C90316   3.703   4.265   3.790  0.1557  0.1147 -0.2277
  655MOL0     C90317   3.653   4.278   3.902 -0.0571  0.6899 -0.6444
  655MOL0     C90318   3.467   4.111   3.087  0.8233 -0.6528  0.3547
  655MOL0     C90319   3.384   4.033   3.008 -0.0649  0.7111 -0.6169
  655MOL0     C90320   3.372   4.051   2.859 -0.3710 -0.6460 -0.4175
  655MOL0     H90321   3.024   3.549   3.115  2.0307  2.3792  0.3281
  655MOL0     H90322   2.921   3.378   2.982  1.1386 -1.4700  0.7087
  655MOL0     H90323   3.168   3.195   2.664 -1.5165 -2.6019  2.6186
  655MOL0     H90324   3.076   3.316   2.563 -0.6822  0.3336  0.8154
  655MOL0     H90325   2.881   3.151   2.562 -0.4669  0.6294  2.6224
  655MOL0     H90326   3.022   3.101   2.469 -2.3627  2.0777 -1.6389
  655MOL0     H90327   3.087   2.961   2.691 -0.4545  0.6526 -0.0434
  655MOL0     H90328   2.933   3.025   2.750  1.6447  0.7392  0.3493
  655MOL0     H90329   2.944   2.869   2.488 -4.2634  3.9252 -0.5119
  655MOL0     H90330   2.997   2.782   2.637  0.5782  1.2632  0.3823
  655MOL0     H90331   2.734   2.936   2.570 -2.9912 -0.1454  0.7401
  655MOL0     H90332   2.759   2.887   2.725 -0.6060  0.0643 -0.7709
  655MOL0     H90333   2.749   2.690   2.493  0.8813 -1.5055  0.1404
  655MOL0     H90334   2.762   2.647   2.670  0.1885  1.1277  1.0958
  655MOL0     H90335   2.556   2.607   2.609  1.2362  0.5572 -3.1532
  655MOL0     H90336   2.513   2.751   2.523 -2.8859  0.1687  2.2929
  655MOL0     H90337   2.532   2.721   2.831  1.4546  2.6290 -0.1571
  655MOL0     H90338   2.559   2.872   2.770  3.7529 -1.9884  0.8751
  655MOL0     H90339   2.347   3.017   2.785  3.5750 -2.4289  2.9419
  655MOL0     H90340   2.011   2.999   2.643 -0.9130 -2.8350  0.6141
  655MOL0     H90341   2.122   3.095   2.758 -0.3667 -0.2033  1.8671
  655MOL0     H90342   1.974   2.874   2.889 -1.8729 -0.2201 -0.6375
  655MOL0     H90343   2.012   3.039   2.937 -0.6361  1.0447 -0.4166
  655MOL0     H90344   1.781   2.968   2.758 -1.3287  0.1033  0.8947
  655MOL0     H90345   1.775   3.019   2.922  0.8511 -2.8256  0.7909
  655MOL0     H90346   1.868   3.159   2.682 -0.7737  2.2070  0.0926
  655MOL0     H90347   1.721   3.191   2.779 -0.1424 -0.1539 -3.1700
  655MOL0     H90348   2.136   3.391   2.903  2.4087  1.3181 -1.8172
  655MOL0     H90349   2.278   3.687   2.741 -2.3591  1.3453 -1.2331
  655MOL0     H90350   2.331   3.532   2.815  0.6421  2.7712 -1.2679
  655MOL0     H90351   2.230   3.631   2.906 -1.7642 -1.9822  1.4210
  655MOL0     H90352   1.755   3.901   2.488 -0.6416  0.3977  0.0419
  655MOL0     H90353   1.704   4.072   2.301  0.0570 -1.6384 -0.0013
  655MOL0     H90354   1.835   4.015   2.025 -0.8043  0.7190  1.5460
  655MOL0     H90355   1.768   4.163   1.980 -0.3073  0.0360 -0.3119
  655MOL0     H90356   1.958   4.244   1.873  0.2269  0.1802 -0.7711
  655MOL0     H90357   2.066   4.169   1.985  0.6057  0.2890 -1.0736
  655MOL0     H90358   1.921   4.006   1.767 -0.4150 -1.7367 -0.4388
  655MOL0     H90359   2.032   3.948   1.901 -0.6182 -1.5725 -2.5735
  655MOL0     H90360   2.205   4.106   1.840  0.4756  0.1822  0.4990
  655MOL0     H90361   2.100   4.157   1.706 -1.6571  1.2367  2.0460
  655MOL0     H90362   2.191   3.868   1.746  0.0491 -0.4716 -0.3493
  655MOL0     H90363   2.108   3.931   1.603 -2.8830  1.0341  0.9473
  655MOL0     H90364   2.305   4.035   1.529 -0.1494 -1.5363 -1.7132
  655MOL0     H90365   2.331   3.866   1.564 -0.5898 -0.0825 -0.9113
  655MOL0     H90366   2.449   3.922   1.774  1.7774 -0.4414 -0.3487
  655MOL0     H90367   2.417   4.084   1.772 -0.7190  0.6640 -1.8925
  655MOL0     H90368   2.567   4.130   1.570 -0.3506 -0.1184 -0.3718
  655MOL0     H90369   2.577   3.956   1.531 -1.1350 -0.6156 -0.5112
  655MOL0     H90370   2.106   4.071   2.182 -1.5968 -1.7045 -2.3950
  655MOL0     H90371   2.170   3.906   2.343 -0.4299  1.3180 -1.9403
  655MOL0     H90372   1.849   3.557   2.547  1.1602  0.4107 -2.2535
  655MOL0     H90373   1.771   3.377   2.673  1.5239 -1.8796 -1.4637
  655MOL0     H90374   3.253   3.424   2.696  2.3491  2.7334 -0.0660
  655MOL0     H90375   3.335   3.610   2.833  0.8258  0.2528  2.4637
  655MOL0     H90376   3.318   3.806   3.248  0.4441 -0.4344 -0.8483
  655MOL0     H90377   3.440   3.968   3.388  4.6235 -0.0058 -1.4189
  655MOL0     H90378   3.711   4.026   3.317 -4.8131 -0.2418  1.1033
  655MOL0     H90379   3.741   4.157   3.204  0.2076 -0.1964  0.0297
  655MOL0     H90380   3.806   4.297   3.391  0.4151  0.2996 -1.1016
  655MOL0     H90381   3.861   4.132   3.440 -0.6998 -0.8862  3.1301
  655MOL0     H90382   3.613   4.278   3.528 -1.1027 -1.2505  1.5482
  655MOL0     H90383   3.648   4.102   3.558  1.5367 -0.6982 -0.5089
  655MOL0     H90384   3.814   4.352   3.650 -0.7661  0.5715  3.6951
  655MOL0     H90385   3.860   4.185   3.677 -1.8689 -2.1622 -1.7356
  655MOL0     H90386   3.626   4.291   4.005  0.7087 -1.2820 -0.1512
  655MOL0     H90387   3.508   4.182   3.016 -1.5006 -2.2480 -2.8449
  655MOL0     H90388   3.438   4.132   2.826 -3.5739  2.1079 -0.6603
  655MOL0     H90389   3.402   3.962   2.805 -1.1592  0.4013 -2.7123
  655MOL0     H90390   3.268   4.073   2.832  0.3583  1.2803 -1.8708
  656MOL0     O90391   0.330   0.609   1.980 -0.1296 -0.2159  0.5852
  656MOL0     C90392   0.270   0.503   1.994  0.3521 -0.2821 -0.4041
  656MOL0     O90393   0.146   0.481   2.048  0.1287 -0.5058 -0.0738
  656MOL0     C90394   0.062   0.586   2.056 -0.1767 -0.0985 -0.9632
  656MOL0     C90395   0.052   0.694   1.971 -0.2667  0.0074  0.2860
  656MOL0     C90396  -0.054   0.782   1.982  0.4493  0.1381 -0.6594
  656MOL0     C90397  -0.158   0.767   2.069  0.3242  0.0523  0.6375
  656MOL0     O90398  -0.272   0.829   2.052  0.5892  0.2979  0.0470
  656MOL0     C90399  -0.259   0.974   2.065  0.0612 -0.5858  0.2274
  656MOL0     C90400  -0.362   1.034   2.161  0.1084 -0.4753 -0.0576
  656MOL0     C90401  -0.508   0.997   2.123  0.7135 -0.5866 -0.7342
  656MOL0     C90402  -0.555   0.857   2.177  0.5822 -0.1388 -1.3249
  656MOL0     C90403  -0.684   0.816   2.114 -0.6725 -0.5729 -0.5812
  656MOL0     C90404  -0.731   0.690   2.188  0.6909  0.1126  0.2447
  656MOL0     C90405  -0.787   0.577   2.091  0.5635  0.4352 -0.4790
  656MOL0     C90406  -0.811   0.437   2.153 -0.6184 -0.2253 -0.5664
  656MOL0     N90407  -0.934   0.446   2.239  0.7698 -0.4330 -0.0521
  656MOL0     C90408  -0.935   0.447   2.379 -0.3520 -0.1745 -0.1982
  656MOL0     C90409  -1.054   0.489   2.411  0.0567 -0.4192 -2.0386
  656MOL0     C90410  -1.088   0.503   2.558  0.0945 -0.2912 -0.4018
  656MOL0     C90411  -1.177   0.393   2.613  0.4337 -0.5856 -1.3057
  656MOL0     C90412  -1.321   0.420   2.573  0.9606  0.1477 -0.2019
  656MOL0     C90413  -1.423   0.315   2.627 -0.6385  1.0762 -0.0867
  656MOL0     O90414  -1.438   0.308   2.764  0.3578  0.1964 -0.5056
  656MOL0     C90415  -1.466   0.187   2.820 -0.0487 -0.6921  0.4201
  656MOL0     C90416  -1.414   0.065   2.778  0.3452  1.1211  0.5617
  656MOL0     C90417  -1.452  -0.055   2.855  0.5694 -0.5984 -0.1851
  656MOL0     C90418  -1.378  -0.188   2.823 -0.4078  0.2238  0.0213
  656MOL0     C90419  -1.540  -0.045   2.965 -0.9608  0.3877 -0.4366
  656MOL0     C90420  -1.587  -0.160   3.050 -0.2039  0.0627 -0.3316
  656MOL0     O90421  -1.676  -0.114   3.147  0.5039  0.3490  0.4595
  656MOL0     C90422  -1.749  -0.205   3.215 -0.2603 -0.4604 -0.2999
  656MOL0     C90423  -1.888  -0.194   3.195  0.2607  0.7740  0.3276
  656MOL0     C90424  -1.978  -0.290   3.255 -0.3148 -1.1842  0.7122
  656MOL0     C90425  -1.924  -0.402   3.323  0.3923 -1.3386  0.8702
  656MOL0     O90426  -1.999  -0.501   3.374  0.1549  0.0205 -0.3723
  656MOL0     C90427  -2.136  -0.468   3.399 -0.2774 -0.4469  1.0882
  656MOL0     C90428  -2.221  -0.577   3.478  0.8139  0.1970 -1.2332
  656MOL0     C90429  -2.209  -0.710   3.410  0.2418 -0.5097  0.4466
  656MOL0     C90430  -2.282  -0.813   3.491  0.7040  0.6159 -0.1039
  656MOL0     C90431  -2.274  -0.958   3.417  0.0066 -0.9288 -0.7391
  656MOL0     C90432  -2.313  -1.075   3.512 -1.4247 -0.0454 -1.1968
  656MOL0     C90433  -2.272  -1.207   3.448  0.2294  1.1143 -0.6791
  656MOL0     C90434  -2.300  -1.327   3.539  0.4826 -0.1630  0.3041
  656MOL0    Cl90435  -2.171  -1.341   3.646 -0.2565 -0.6840  0.1883
  656MOL0     C90436  -1.780  -0.415   3.339 -0.2800  1.1774  0.4527
  656MOL0     C90437  -1.698  -0.308   3.292  0.3959 -0.6140 -0.1588
  656MOL0     O90438  -1.548  -0.278   3.034  0.1114  0.0482  0.4329
  656MOL0     C90439  -1.582   0.089   2.996 -0.2312  0.9749 -0.2329
  656MOL0     C90440  -1.539   0.200   2.936 -1.0376  1.2807  1.0184
  656MOL0     N90441  -1.127   0.505   2.294  0.6506 -0.2299 -0.5335
  656MOL0     N90442  -1.060   0.474   2.190  0.2664  0.3000 -0.3890
  656MOL0     C90443  -0.154   0.650   2.149  0.1820 -0.5059  0.6832
  656MOL0     C90444  -0.051   0.564   2.145  0.0751  0.1469  0.3351
  656MOL0     C90445   0.343   0.381   1.979  0.6137  0.1018  1.3011
  656MOL0     C90446   0.479   0.381   2.006  0.7052  0.4843 -0.4618
  656MOL0     C90447   0.556   0.265   1.997  0.2190  0.6779  0.4453
  656MOL0     C90448   0.501   0.149   1.950  0.0475  0.0807  0.1974
  656MOL0     O90449   0.562   0.020   1.949  0.2309 -1.0016 -0.2404
  656MOL0     C90450   0.686   0.012   2.030  0.6267  0.6516  0.3484
  656MOL0     C90451   0.743  -0.125   2.004 -0.9477  0.0394  0.2468
  656MOL0     C90452   0.828  -0.129   1.873  0.9818  0.4586  0.4434
  656MOL0     C90453   0.961  -0.064   1.905  0.4241 -0.5042 -0.0283
  656MOL0     C90454   1.062  -0.067   1.794 -0.5746 -0.3845  0.6591
  656MOL0     C90455   1.147  -0.054   1.705 -0.1569 -0.5706 -0.4495
  656MOL0     C90456   0.367   0.145   1.910  0.0848 -0.1315 -0.0999
  656MOL0     C90457   0.284   0.260   1.926 -1.9693 -0.6275  1.2076
  656MOL0     C90458   0.156   0.262   1.846  0.2528 -0.2339 -0.3111
  656MOL0     H90459   0.132   0.716   1.902  1.6913  2.2186  3.0535
  656MOL0     H90460  -0.072   0.860   1.908 -0.9464  1.3672  0.9035
  656MOL0     H90461  -0.280   1.015   1.966  0.9923  2.1131  1.0820
  656MOL0     H90462  -0.160   1.009   2.095 -0.8124  0.6417  1.8484
  656MOL0     H90463  -0.342   1.013   2.266 -1.5270  0.4651  0.4724
  656MOL0     H90464  -0.357   1.143   2.154  2.1445 -0.6140 -1.7945
  656MOL0     H90465  -0.568   1.082   2.159  4.0167  1.6272  0.0224
  656MOL0     H90466  -0.524   1.003   2.015 -1.1812 -1.7654 -0.5585
  656MOL0     H90467  -0.487   0.773   2.161 -1.3895 -2.5982  1.9820
  656MOL0     H90468  -0.575   0.851   2.284  1.6526 -2.6715 -1.2012
  656MOL0     H90469  -0.661   0.788   2.011  2.1597 -0.7025 -0.0056
  656MOL0     H90470  -0.758   0.893   2.136  0.3983 -0.0010  1.2412
  656MOL0     H90471  -0.650   0.640   2.243  1.3075 -3.2273 -3.2885
  656MOL0     H90472  -0.818   0.703   2.252  0.9108 -0.6863  0.7233
  656MOL0     H90473  -0.707   0.553   2.019  1.8111 -1.2800  1.3626
  656MOL0     H90474  -0.870   0.607   2.026 -2.3881 -3.1848  1.2587
  656MOL0     H90475  -0.830   0.365   2.073 -1.1657  0.7497 -1.3491
  656MOL0     H90476  -0.727   0.403   2.214 -1.6415  1.0330  1.6961
  656MOL0     H90477  -0.850   0.419   2.440 -0.8712 -2.6417 -0.5294
  656MOL0     H90478  -1.139   0.598   2.575  0.1538 -0.1450 -1.0123
  656MOL0     H90479  -0.993   0.499   2.612  1.9898 -0.8616 -3.4791
  656MOL0     H90480  -1.143   0.297   2.573 -2.4871 -1.6217 -1.5540
  656MOL0     H90481  -1.170   0.397   2.722 -1.7477  0.9915 -1.1573
  656MOL0     H90482  -1.356   0.518   2.605  1.8122 -0.7924  4.4675
  656MOL0     H90483  -1.318   0.415   2.464 -0.2838  0.1379 -0.2489
  656MOL0     H90484  -1.518   0.327   2.575 -0.5141  0.6557 -0.4170
  656MOL0     H90485  -1.391   0.218   2.587  0.9491  1.0921  1.0399
  656MOL0     H90486  -1.337   0.048   2.703  4.1828  2.1892  3.9282
  656MOL0     H90487  -1.316  -0.212   2.911 -0.6379 -0.3998  0.0124
  656MOL0     H90488  -1.315  -0.192   2.734 -2.4736 -1.1212 -1.4604
  656MOL0     H90489  -1.457  -0.261   2.805  0.4507  0.1781 -5.0129
  656MOL0     H90490  -1.934  -0.109   3.146 -1.8395 -0.4059  0.1674
  656MOL0     H90491  -2.082  -0.271   3.228  0.2823  1.7871  0.1693
  656MOL0     H90492  -2.144  -0.370   3.446  0.5420  0.3955 -0.4577
  656MOL0     H90493  -2.172  -0.459   3.296  0.3075 -0.6060  0.8675
  656MOL0     H90494  -2.159  -0.602   3.565 -1.7271 -2.1760  0.0336
  656MOL0     H90495  -2.327  -0.556   3.489  1.0329  1.0643 -0.7083
  656MOL0     H90496  -2.105  -0.738   3.392  0.5238  0.8837 -0.2018
  656MOL0     H90497  -2.263  -0.707   3.315 -0.6617 -0.6539  0.9364
  656MOL0     H90498  -2.387  -0.786   3.501  0.2019 -1.1512 -0.2896
  656MOL0     H90499  -2.234  -0.823   3.589  3.3200 -0.8826 -1.4298
  656MOL0     H90500  -2.350  -0.958   3.338 -1.5974 -0.9474  0.7504
  656MOL0     H90501  -2.174  -0.973   3.376  0.6795 -1.1533  0.9214
  656MOL0     H90502  -2.420  -1.056   3.525 -0.9978  0.3677  2.8194
  656MOL0     H90503  -2.270  -1.063   3.612  0.7230  0.6284 -2.1456
  656MOL0     H90504  -2.164  -1.214   3.428  0.4745  1.1652  0.5678
  656MOL0     H90505  -2.327  -1.216   3.354  3.3595 -1.5024 -2.4826
  656MOL0     H90506  -2.307  -1.424   3.488  0.4280 -0.5844  1.1111
  656MOL0     H90507  -2.388  -1.305   3.601  0.4394 -0.9647  0.5445
  656MOL0     H90508  -1.743  -0.503   3.390 -1.0780 -0.3277 -1.4085
  656MOL0     H90509  -1.590  -0.306   3.303  0.3617  0.7113  0.1100
  656MOL0     H90510  -1.653   0.107   3.076  0.6667 -0.3594  0.9231
  656MOL0     H90511  -1.576   0.298   2.963  0.3129  2.4641 -1.1643
  656MOL0     H90512  -0.235   0.628   2.218  0.4847 -3.0315  0.3284
  656MOL0     H90513  -0.054   0.472   2.203 -1.9023 -1.2529 -1.7971
  656MOL0     H90514   0.525   0.472   2.043  0.6419 -0.7871  3.2444
  656MOL0     H90515   0.664   0.267   2.010  0.5269  2.2004 -1.8239
  656MOL0     H90516   0.761   0.089   2.011 -1.1988  1.9424 -2.1629
  656MOL0     H90517   0.652   0.017   2.134 -0.6492  3.1286 -0.1164
  656MOL0     H90518   0.662  -0.197   1.995 -1.1750  0.2410  0.6730
  656MOL0     H90519   0.809  -0.145   2.089  2.0519  0.4007 -1.8091
  656MOL0     H90520   0.830  -0.238   1.865 -1.2285 -0.0376  4.2459
  656MOL0     H90521   0.778  -0.082   1.788 -0.0121  1.2276  1.4263
  656MOL0     H90522   1.005  -0.112   1.993 -0.3605  0.1823  0.7592
  656MOL0     H90523   0.945   0.041   1.933  1.7335 -0.6856  1.4895
  656MOL0     H90524   1.210  -0.038   1.620  0.1147  0.0718 -0.1351
  656MOL0     H90525   0.339   0.052   1.861 -1.1427  0.9330 -1.5325
  656MOL0     H90526   0.149   0.364   1.807  1.7549  0.2246  0.5426
  656MOL0     H90527   0.163   0.196   1.759 -0.3321  1.7369 -1.9509
  656MOL0     H90528   0.060   0.239   1.895  0.4630 -0.4063  0.0227
  657MOL0     O90529   3.035  10.431   8.232 -0.2278 -0.0550  0.3931
  657MOL0     C90530   2.962  10.525   8.191  0.7706  0.3956 -0.0063
  657MOL0     O90531   2.828  10.534   8.212 -0.8398 -0.6286 -0.1488
  657MOL0     C90532   2.776  10.413   8.239 -0.5387  1.1591  0.6454
  657MOL0     C90533   2.797  10.309   8.147  0.2448 -0.0561 -0.1369
  657MOL0     C90534   2.746  10.182   8.182  0.4307 -1.0597  0.3398
  657MOL0     C90535   2.679  10.149   8.302 -0.3955  0.1014 -0.0409
  657MOL0     O90536   2.650  10.018   8.314 -0.1385 -0.4922 -0.1620
  657MOL0     C90537   2.548   9.973   8.412 -0.6837  0.1066 -0.2179
  657MOL0     C90538   2.615   9.919   8.540  1.6771  0.2544 -0.9204
  657MOL0     C90539   2.525   9.937   8.672 -0.6565 -0.0347  0.1708
  657MOL0     C90540   2.519   9.794   8.747  0.6449 -1.1530  0.5553
  657MOL0     C90541   2.446   9.790   8.879  0.6141  0.2526 -0.1792
  657MOL0     C90542   2.495   9.888   8.987 -0.0552  1.4743  0.1463
  657MOL0     C90543   2.408   9.890   9.123  0.3241  0.2616 -0.0093
  657MOL0     C90544   2.494   9.889   9.250 -0.6399 -0.4682  0.1860
  657MOL0     N90545   2.564  10.015   9.266 -0.6825 -0.2066 -0.9335
  657MOL0     C90546   2.509  10.132   9.284  0.1337 -0.8698 -0.3686
  657MOL0     C90547   2.607  10.224   9.293 -0.4085 -0.1941  0.5427
  657MOL0     C90548   2.592  10.370   9.292 -0.0742  0.2160  0.3857
  657MOL0     C90549   2.715  10.447   9.221  0.3497 -0.1083 -0.6670
  657MOL0     C90550   2.709  10.434   9.065 -0.6500  0.0855  0.1316
  657MOL0     C90551   2.842  10.481   9.008  0.4374 -0.5856  0.7448
  657MOL0     O90552   2.864  10.628   9.038  0.0143  0.7009 -0.3332
  657MOL0     C90553   3.000  10.637   9.072  0.5596 -0.2694 -0.1001
  657MOL0     C90554   3.045  10.582   9.193  0.3730 -0.3329  0.0471
  657MOL0     C90555   3.181  10.579   9.227 -0.4017  0.2952 -0.1753
  657MOL0     C90556   3.223  10.510   9.352  0.0252 -0.4392  0.6388
  657MOL0     C90557   3.269  10.641   9.131 -0.1917 -0.0626  0.1141
  657MOL0     C90558   3.412  10.650   9.155  0.7775 -0.5395 -0.3334
  657MOL0     O90559   3.478  10.594   9.261 -0.1732 -0.4055 -1.0141
  657MOL0     C90560   3.614  10.609   9.268 -0.5398  1.1060  1.0236
  657MOL0     C90561   3.697  10.497   9.258 -0.0818  0.1388 -0.4057
  657MOL0     C90562   3.843  10.514   9.260  0.1732  0.9452  0.3659
  657MOL0     C90563   3.897  10.635   9.291 -0.1002  0.8008  0.6457
  657MOL0     O90564   4.034  10.632   9.292 -0.0178 -0.7492  0.5761
  657MOL0     C90565   4.104  10.727   9.360  0.4010  0.0647 -0.1309
  657MOL0     C90566   4.085  10.708   9.513 -0.5243 -0.0858  0.3850
  657MOL0     C90567   4.177  10.790   9.606 -0.2933 -0.3408 -1.1836
  657MOL0     C90568   4.334  10.796   9.578 -0.6513 -0.2375  0.0696
  657MOL0     C90569   4.422  10.864   9.675 -0.1891  0.0798 -0.9866
  657MOL0     C90570   4.414  11.019   9.667  0.2039 -0.5594  0.9514
  657MOL0     C90571   4.520  11.083   9.760  0.1709 -0.9566 -0.5497
  657MOL0     C90572   4.634  11.166   9.678  0.6489  0.5943 -0.7158
  657MOL0    Cl90573   4.571  11.285   9.556 -0.2318  0.3275 -0.1533
  657MOL0     C90574   3.809  10.747   9.314 -0.6541  0.3450  0.1897
  657MOL0     C90575   3.671  10.729   9.308  0.7583  0.7753 -0.3836
  657MOL0     O90576   3.462  10.734   9.077 -0.2043  0.3230 -0.2149
  657MOL0     C90577   3.213  10.691   9.009 -0.2410 -0.3553  0.5802
  657MOL0     C90578   3.084  10.694   8.984 -0.3336 -0.4134 -0.4183
  657MOL0     N90579   2.728  10.157   9.299 -0.2711  0.0708 -0.6976
  657MOL0     N90580   2.698  10.030   9.281 -0.0643  0.0205  1.0310
  657MOL0     C90581   2.658  10.258   8.392  1.0833 -0.8831  0.0116
  657MOL0     C90582   2.701  10.389   8.362  0.6692  0.5263  1.4918
  657MOL0     C90583   3.032  10.646   8.119 -0.0263  0.8465  1.1158
  657MOL0     C90584   2.947  10.728   8.047  0.4122  0.5060 -0.6601
  657MOL0     C90585   2.997  10.841   7.976  0.9384 -0.4090 -0.7663
  657MOL0     C90586   3.132  10.854   7.958  0.6284 -0.3517 -1.2175
  657MOL0     O90587   3.167  10.958   7.869 -0.7153  0.2385 -0.0596
  657MOL0     C90588   3.288  11.029   7.911  0.0244 -0.4719 -0.0576
  657MOL0     C90589   3.293  11.148   7.808 -0.3992  0.1751  0.2795
  657MOL0     C90590   3.412  11.243   7.805 -0.5184 -0.0006 -0.4081
  657MOL0     C90591   3.543  11.180   7.767 -0.3254 -0.2059 -0.2317
  657MOL0     C90592   3.540  11.151   7.621  0.3775  0.0043 -0.4073
  657MOL0     C90593   3.560  11.119   7.502  0.1713  0.7824  0.3091
  657MOL0     C90594   3.222  10.772   8.030  0.2182 -0.0471  0.0921
  657MOL0     C90595   3.173  10.669   8.111 -0.7868  0.4013  0.2144
  657MOL0     C90596   3.288  10.587   8.174  1.1185 -0.2556  1.0525
  657MOL0     H90597   2.844  10.330   8.051  0.4025  3.3342  0.5343
  657MOL0     H90598   2.756  10.108   8.103 -1.9983  0.1663 -1.2573
  657MOL0     H90599   2.488   9.886   8.382  0.4533 -0.0005 -2.3610
  657MOL0     H90600   2.469  10.048   8.424 -2.8166 -2.0822  0.1555
  657MOL0     H90601   2.636   9.814   8.516 -3.1406 -1.5944  1.6053
  657MOL0     H90602   2.699   9.986   8.563  0.2114  2.3400 -1.3304
  657MOL0     H90603   2.573  10.012   8.735  0.9109 -1.2368  0.4506
  657MOL0     H90604   2.425   9.974   8.646 -1.5157 -0.4082  2.7137
  657MOL0     H90605   2.467   9.721   8.685 -2.4754 -0.0080  1.6229
  657MOL0     H90606   2.621   9.758   8.761  1.8073  1.6287 -0.2693
  657MOL0     H90607   2.469   9.694   8.926  0.1697 -0.8097 -2.0731
  657MOL0     H90608   2.338   9.799   8.864  0.3970  2.0496  1.8937
  657MOL0     H90609   2.590   9.847   9.023 -1.0404 -0.8654  0.2968
  657MOL0     H90610   2.500   9.991   8.951  0.8437  0.3354 -3.2549
  657MOL0     H90611   2.341   9.804   9.135  2.4879 -1.2262  2.8517
  657MOL0     H90612   2.340   9.976   9.125 -1.1316 -0.8407 -0.3140
  657MOL0     H90613   2.429   9.861   9.333  0.9381 -1.9015  0.9921
  657MOL0     H90614   2.565   9.806   9.240 -1.4837 -1.2380  0.3646
  657MOL0     H90615   2.401  10.146   9.284 -0.3217 -3.1611 -3.6420
  657MOL0     H90616   2.554  10.391   9.393  0.2074  2.3007  0.0955
  657MOL0     H90617   2.505  10.396   9.231 -1.4649 -1.1419  1.6853
  657MOL0     H90618   2.713  10.549   9.262  2.4853 -0.5726  0.7575
  657MOL0     H90619   2.810  10.404   9.256  0.2522 -0.9460 -1.3997
  657MOL0     H90620   2.685  10.333   9.031  1.3924  0.0333 -1.3865
  657MOL0     H90621   2.628  10.487   9.015 -1.7984 -0.1575  1.6413
  657MOL0     H90622   2.924  10.411   9.023 -0.4806 -1.9340 -0.3314
  657MOL0     H90623   2.830  10.461   8.901  1.7711  0.9394  0.2691
  657MOL0     H90624   2.974  10.534   9.260 -0.5611  0.1780 -0.5577
  657MOL0     H90625   3.135  10.460   9.392  1.6897 -2.7525  1.6621
  657MOL0     H90626   3.267  10.586   9.418  0.2646  2.6157 -2.7188
  657MOL0     H90627   3.291  10.426   9.333  0.3826  0.1642 -0.9054
  657MOL0     H90628   3.652  10.400   9.242 -0.3658  0.0837  0.6609
  657MOL0     H90629   3.908  10.434   9.226  1.0697  1.2156  1.3555
  657MOL0     H90630   4.207  10.721   9.324  0.4923  2.5949 -0.4703
  657MOL0     H90631   4.081  10.830   9.330  0.0741 -0.0249 -0.1894
  657MOL0     H90632   3.982  10.742   9.524 -0.7659 -0.7870  0.3486
  657MOL0     H90633   4.102  10.603   9.540 -0.5130 -0.3290 -0.5233
  657MOL0     H90634   4.153  10.758   9.708  0.1573  1.5224 -0.4607
  657MOL0     H90635   4.151  10.896   9.601 -1.3592 -0.4706  0.6046
  657MOL0     H90636   4.362  10.834   9.480  1.2839 -4.1174 -1.0810
  657MOL0     H90637   4.362  10.690   9.577 -0.0219 -0.1873  3.0892
  657MOL0     H90638   4.398  10.844   9.780 -3.4345  1.3163 -1.3739
  657MOL0     H90639   4.525  10.833   9.657 -0.0465 -0.3887  0.4910
  657MOL0     H90640   4.311  11.045   9.696 -0.1172  0.2012 -0.7860
  657MOL0     H90641   4.434  11.044   9.563  2.9502 -0.7274  1.3617
  657MOL0     H90642   4.576  11.010   9.819  1.1063  0.5110  0.4326
  657MOL0     H90643   4.470  11.144   9.836  1.8085 -1.0132  0.6122
  657MOL0     H90644   4.687  11.080   9.637  1.1071  0.6595 -0.2667
  657MOL0     H90645   4.700  11.210   9.753 -0.1181  1.0807 -0.3131
  657MOL0     H90646   3.849  10.845   9.337 -0.4857  0.8521 -2.0054
  657MOL0     H90647   3.604  10.808   9.340 -0.5788 -0.8102  0.8452
  657MOL0     H90648   3.278  10.730   8.931 -0.0033 -0.0618  0.9219
  657MOL0     H90649   3.033  10.733   8.895 -0.6543  0.0059 -0.0559
  657MOL0     H90650   2.650  10.241   8.499  0.6227 -1.4296 -0.1054
  657MOL0     H90651   2.681  10.469   8.432  1.5915  0.1443  2.2089
  657MOL0     H90652   2.839  10.712   8.050  0.3794  0.8453  0.7461
  657MOL0     H90653   2.926  10.900   7.921 -1.1572 -4.4995 -2.9488
  657MOL0     H90654   3.297  11.071   8.012  2.9031  1.3817 -0.9605
  657MOL0     H90655   3.381  10.973   7.898  0.9641  1.3881 -1.8843
  657MOL0     H90656   3.202  11.207   7.826 -0.9408 -0.4664 -0.2772
  657MOL0     H90657   3.279  11.112   7.706  1.0232  0.7167 -0.1190
  657MOL0     H90658   3.393  11.331   7.742 -3.9830  0.6288  1.3022
  657MOL0     H90659   3.420  11.279   7.907 -1.6700 -3.6001  1.1238
  657MOL0     H90660   3.562  11.102   7.842 -1.3155  0.0344  0.2754
  657MOL0     H90661   3.605  11.266   7.795 -1.7695  0.7545  0.0996
  657MOL0     H90662   3.576  11.101   7.398  1.0964 -3.9707  1.0555
  657MOL0     H90663   3.329  10.788   8.023  0.1184  1.0971  0.9870
  657MOL0     H90664   3.297  10.498   8.110 -1.5898  1.1335 -1.4946
  657MOL0     H90665   3.379  10.647   8.169  0.1014  1.3244  1.0605
  657MOL0     H90666   3.264  10.557   8.276  2.4397 -3.0233  0.6507
  658MOL0     O90667   4.994   8.121   1.707 -1.0367 -1.0987 -0.4108
  658MOL0     C90668   5.104   8.170   1.689 -0.7332  0.1512 -0.0355
  658MOL0     O90669   5.130   8.303   1.686  0.8880 -0.5258  0.0129
  658MOL0     C90670   5.032   8.408   1.687 -0.6104  1.1606 -0.0727
  658MOL0     C90671   4.911   8.389   1.615 -0.3501 -0.3420  0.2603
  658MOL0     C90672   4.826   8.499   1.602 -0.0947  0.0555 -0.1702
  658MOL0     C90673   4.856   8.622   1.665 -0.8546 -0.0944  0.2740
  658MOL0     O90674   4.793   8.737   1.660  0.1906  0.0860  0.0544
  658MOL0     C90675   4.659   8.741   1.615  0.3313  0.4223 -0.0219
  658MOL0     C90676   4.628   8.882   1.563  0.1709  0.0362  0.2961
  658MOL0     C90677   4.637   8.990   1.663  0.2792 -0.2701 -0.4767
  658MOL0     C90678   4.784   9.041   1.694 -0.8765 -0.0216  0.5085
  658MOL0     C90679   4.797   9.158   1.788  0.2700  0.0834 -0.0931
  658MOL0     C90680   4.714   9.275   1.766 -0.1126  1.0337 -0.3563
  658MOL0     C90681   4.720   9.394   1.857 -0.1992 -0.0658 -0.4041
  658MOL0     C90682   4.801   9.376   1.987 -0.1762 -0.0230  0.6075
  658MOL0     N90683   4.728   9.305   2.095 -0.0314  1.1919 -0.7110
  658MOL0     C90684   4.606   9.242   2.099  1.0002 -0.0893  0.3776
  658MOL0     C90685   4.584   9.209   2.226 -0.0802 -0.0831 -0.0485
  658MOL0     C90686   4.470   9.151   2.310 -0.3915 -0.7046 -0.4101
  658MOL0     C90687   4.412   9.247   2.421  0.2164  0.4251  0.3821
  658MOL0     C90688   4.356   9.383   2.372  0.0052 -0.7137 -0.0347
  658MOL0     C90689   4.239   9.366   2.273 -0.2921  0.6866  0.4595
  658MOL0     O90690   4.295   9.351   2.134  0.1570  0.5767 -0.0564
  658MOL0     C90691   4.207   9.302   2.033 -0.6665 -0.0196  0.3450
  658MOL0     C90692   4.269   9.298   1.904 -0.2937 -0.3783  0.2159
  658MOL0     C90693   4.199   9.246   1.797 -0.2366  0.0065  0.0788
  658MOL0     C90694   4.280   9.247   1.670 -0.0468  0.1299 -0.0432
  658MOL0     C90695   4.053   9.207   1.807  0.2845 -0.2090 -0.0316
  658MOL0     C90696   3.970   9.141   1.702  1.2798 -0.8960  0.9319
  658MOL0     O90697   3.855   9.084   1.750 -0.6236  0.1187  0.0464
  658MOL0     C90698   3.792   8.984   1.672  0.6246 -0.3310 -0.6629
  658MOL0     C90699   3.842   8.853   1.655 -0.6065  0.1813 -0.3307
  658MOL0     C90700   3.772   8.765   1.564 -0.1215 -0.5955  0.1330
  658MOL0     C90701   3.644   8.797   1.514 -1.1610 -0.0906 -0.2471
  658MOL0     O90702   3.594   8.691   1.457  0.4556  0.8308 -0.0186
  658MOL0     C90703   3.488   8.717   1.365 -0.3805 -0.3079  0.8384
  658MOL0     C90704   3.496   8.589   1.275 -0.5547  0.0636 -0.0471
  658MOL0     C90705   3.381   8.590   1.175 -0.2888 -1.0923 -0.0164
  658MOL0     C90706   3.369   8.722   1.100  1.0724 -0.1200  0.3765
  658MOL0     C90707   3.264   8.691   0.977 -0.2517 -0.2446  0.1175
  658MOL0     C90708   3.273   8.790   0.865 -1.0134 -0.4031 -0.3232
  658MOL0     C90709   3.178   8.755   0.744  0.1067  0.3444 -0.9299
  658MOL0     C90710   3.146   8.875   0.651 -0.2457 -0.0557 -0.5839
  658MOL0    Cl90711   3.283   8.942   0.567 -0.2534 -0.3027 -0.0970
  658MOL0     C90712   3.592   8.924   1.537  0.1713  0.0005  0.3097
  658MOL0     C90713   3.666   9.013   1.620 -0.0055 -0.2954  0.4394
  658MOL0     O90714   3.995   9.157   1.583  0.4007 -0.2707  0.2172
  658MOL0     C90715   4.008   9.209   1.946 -0.2632 -0.0367  0.0582
  658MOL0     C90716   4.084   9.249   2.056 -0.0871 -0.4045  0.0137
  658MOL0     N90717   4.695   9.240   2.305  0.5207  0.0191 -0.6241
  658MOL0     N90718   4.774   9.305   2.226 -0.7184 -0.5516 -0.3914
  658MOL0     C90719   4.981   8.634   1.739  0.1353 -0.9913 -0.6084
  658MOL0     C90720   5.067   8.525   1.741 -0.9551  0.0012 -0.1925
  658MOL0     C90721   5.212   8.064   1.651  0.4923 -0.6284  0.3625
  658MOL0     C90722   5.331   8.109   1.597 -1.0977  0.8774  0.4491
  658MOL0     C90723   5.440   8.032   1.544 -0.0820 -0.4912 -1.1994
  658MOL0     C90724   5.409   7.896   1.535 -0.4107  0.2352 -0.5520
  658MOL0     O90725   5.516   7.826   1.482 -0.4244  0.2524 -0.3101
  658MOL0     C90726   5.489   7.708   1.401  0.0985 -0.4678 -1.1640
  658MOL0     C90727   5.609   7.684   1.306  0.3080 -0.0484  0.4155
  658MOL0     C90728   5.716   7.600   1.383 -0.0573 -0.5787  0.3963
  658MOL0     C90729   5.676   7.454   1.412 -0.5911  0.0097 -0.6261
  658MOL0     C90730   5.648   7.374   1.293 -0.1588  0.1870  0.2198
  658MOL0     C90731   5.637   7.299   1.192 -0.2258  0.2084 -0.2289
  658MOL0     C90732   5.301   7.839   1.608  0.0457  1.1826 -0.2999
  658MOL0     C90733   5.201   7.922   1.663  0.3497 -0.4337 -0.8405
  658MOL0     C90734   5.085   7.861   1.735  0.4356 -0.3590 -0.1194
  658MOL0     H90735   4.873   8.298   1.568  1.1729 -0.8109 -0.1186
  658MOL0     H90736   4.742   8.478   1.536 -0.4616 -0.2318  0.3765
  658MOL0     H90737   4.593   8.706   1.694 -1.3118  1.8330 -0.6867
  658MOL0     H90738   4.649   8.680   1.525 -0.8626 -1.4918  1.3359
  658MOL0     H90739   4.678   8.897   1.467  0.6060  0.5472  0.5980
  658MOL0     H90740   4.525   8.857   1.537 -1.0375  0.7599  3.8924
  658MOL0     H90741   4.569   9.068   1.627  1.5807  0.5660 -1.2036
  658MOL0     H90742   4.601   8.942   1.754  2.4351 -3.0724 -0.9437
  658MOL0     H90743   4.843   8.954   1.724 -3.0487 -1.5263  0.6598
  658MOL0     H90744   4.819   9.074   1.596  0.8516 -0.4379  0.9593
  658MOL0     H90745   4.897   9.200   1.774  0.4842 -0.9849 -2.1643
  658MOL0     H90746   4.781   9.128   1.892 -0.0362 -0.2142 -0.2246
  658MOL0     H90747   4.736   9.323   1.670 -2.6328  4.6915  0.6801
  658MOL0     H90748   4.610   9.240   1.769  0.3620 -0.8500 -2.9677
  658MOL0     H90749   4.613   9.407   1.876  0.2351 -0.6392  3.1207
  658MOL0     H90750   4.753   9.483   1.804  1.6232 -1.8003 -2.3807
  658MOL0     H90751   4.899   9.332   1.971 -0.1413  0.2532  0.0166
  658MOL0     H90752   4.812   9.479   2.021  0.8208  0.3539 -0.7685
  658MOL0     H90753   4.528   9.226   2.025  0.8111 -0.8020  0.7304
  658MOL0     H90754   4.495   9.056   2.360 -2.6410 -1.1527 -0.0283
  658MOL0     H90755   4.387   9.126   2.244  1.7154 -1.6156 -2.8769
  658MOL0     H90756   4.331   9.188   2.465 -0.5115 -1.3512 -2.9662
  658MOL0     H90757   4.491   9.266   2.493  1.7209  0.0916 -1.1074
  658MOL0     H90758   4.313   9.433   2.459  0.1514 -1.1866  0.3177
  658MOL0     H90759   4.434   9.452   2.340  0.1988 -0.4313  1.0323
  658MOL0     H90760   4.182   9.279   2.308 -0.2742 -1.1548 -3.5823
  658MOL0     H90761   4.171   9.451   2.268 -0.0899  0.8025 -0.5350
  658MOL0     H90762   4.367   9.343   1.894  0.3472 -0.7324  3.6988
  658MOL0     H90763   4.386   9.262   1.692  0.2543 -0.0169 -1.3108
  658MOL0     H90764   4.259   9.335   1.609  2.0917  0.5490 -0.2439
  658MOL0     H90765   4.261   9.157   1.610 -4.2942  1.3916 -0.9603
  658MOL0     H90766   3.936   8.834   1.706 -0.7962  1.6358  0.6235
  658MOL0     H90767   3.809   8.666   1.540  3.7354  0.5901  0.5647
  658MOL0     H90768   3.391   8.739   1.410 -1.8768 -1.6291 -1.5209
  658MOL0     H90769   3.512   8.806   1.306 -1.5928 -0.6273 -0.1773
  658MOL0     H90770   3.597   8.584   1.234  0.0437 -0.8539  1.4711
  658MOL0     H90771   3.492   8.509   1.349  0.8778  0.9571  1.0302
  658MOL0     H90772   3.287   8.574   1.229 -0.2052  0.6377  0.7137
  658MOL0     H90773   3.401   8.514   1.098 -1.2172  0.7419 -2.1989
  658MOL0     H90774   3.469   8.750   1.064  1.2527  1.0034  1.6647
  658MOL0     H90775   3.334   8.806   1.161 -3.8979 -2.1042  0.7245
  658MOL0     H90776   3.284   8.588   0.947 -0.2758 -0.8886  2.1409
  658MOL0     H90777   3.159   8.681   1.007  0.2714 -1.7706  1.6052
  658MOL0     H90778   3.380   8.794   0.844 -0.2492 -3.3040  2.2369
  658MOL0     H90779   3.241   8.887   0.902 -1.0175 -1.0536  1.4504
  658MOL0     H90780   3.084   8.704   0.768 -0.2551  1.1214 -0.6474
  658MOL0     H90781   3.236   8.683   0.687  2.5769  0.5835  1.1023
  658MOL0     H90782   3.106   8.951   0.718 -0.7767  0.5597 -1.5814
  658MOL0     H90783   3.065   8.860   0.579 -0.7516  2.9444 -0.7624
  658MOL0     H90784   3.497   8.952   1.494  0.2761 -2.0862 -1.4445
  658MOL0     H90785   3.633   9.116   1.631  1.4345  0.1618  0.7287
  658MOL0     H90786   3.906   9.174   1.961 -0.0945 -0.8672 -0.6750
  658MOL0     H90787   4.044   9.236   2.156 -0.3262 -3.3457 -0.3718
  658MOL0     H90788   5.017   8.725   1.786  0.9690  1.5442 -5.4972
  658MOL0     H90789   5.160   8.524   1.797 -1.2205 -1.2075  0.2477
  658MOL0     H90790   5.353   8.214   1.582 -0.9873  0.6858 -0.9621
  658MOL0     H90791   5.527   8.068   1.491  1.0788 -2.6737 -0.9129
  658MOL0     H90792   5.462   7.621   1.460  0.3838 -0.3410 -0.8424
  658MOL0     H90793   5.403   7.737   1.339  0.5260  3.1098 -0.3168
  658MOL0     H90794   5.645   7.783   1.274  0.5635 -0.6152 -1.1275
  658MOL0     H90795   5.590   7.629   1.214 -2.0384  1.2635  0.0408
  658MOL0     H90796   5.796   7.595   1.309 -1.7043 -1.4379 -1.4355
  658MOL0     H90797   5.756   7.649   1.472  1.4342 -1.9942  0.5455
  658MOL0     H90798   5.601   7.445   1.491  1.5579  1.3847  1.7240
  658MOL0     H90799   5.772   7.419   1.452 -0.0426  0.2515 -1.6973
  658MOL0     H90800   5.630   7.255   1.095 -2.8187  2.4278 -1.1715
  658MOL0     H90801   5.311   7.733   1.629  1.3244  1.2352 -0.5182
  658MOL0     H90802   5.100   7.754   1.751  1.7534 -0.2404 -0.4545
  658MOL0     H90803   5.068   7.891   1.839 -0.7229  1.6483 -0.8365
  658MOL0     H90804   4.995   7.862   1.672  2.0657 -3.0486 -2.7581
  659MOL0     O90805   1.190  11.513  10.108 -0.8354 -0.2456  0.3724
  659MOL0     C90806   1.105  11.572  10.178 -0.3463  0.4663 -0.7688
  659MOL0     O90807   1.040  11.518  10.289 -0.5153 -0.1900  0.1206
  659MOL0     C90808   1.075  11.388  10.329 -0.3549 -0.3575 -0.3596
  659MOL0     C90809   1.185  11.375  10.403  0.4385  0.4154  0.0108
  659MOL0     C90810   1.224  11.254  10.453 -0.4818 -0.3184 -0.1294
  659MOL0     C90811   1.156  11.129  10.433  0.4426 -0.6353  0.4337
  659MOL0     O90812   1.210  11.011  10.482  0.0772  0.7063 -0.6108
  659MOL0     C90813   1.274  11.018  10.615  0.8295 -0.2389 -0.0786
  659MOL0     C90814   1.291  10.881  10.686 -0.6084 -0.0956 -0.3854
  659MOL0     C90815   1.367  10.782  10.604 -0.3491  0.1787  0.2906
  659MOL0     C90816   1.429  10.680  10.701  0.6021  0.0927  0.6387
  659MOL0     C90817   1.400  10.542  10.663  0.1274  0.2814  0.6028
  659MOL0     C90818   1.449  10.514  10.514  1.2771 -0.1578  0.6837
  659MOL0     C90819   1.589  10.557  10.469 -0.4739 -0.7217 -0.0072
  659MOL0     C90820   1.641  10.482  10.348  0.8820  0.3388  0.4245
  659MOL0     N90821   1.698  10.346  10.377  0.1499  0.1989  0.5891
  659MOL0     C90822   1.826  10.324  10.424 -0.1257 -0.2983  0.1439
  659MOL0     C90823   1.835  10.183  10.432  0.0801 -0.2518  0.5995
  659MOL0     C90824   1.964  10.107  10.445 -0.4865 -0.5546  0.0746
  659MOL0     C90825   1.998  10.098  10.595 -0.3704  0.2214 -1.0990
  659MOL0     C90826   2.063  10.232  10.637 -0.3109  0.3412  0.5681
  659MOL0     C90827   2.203  10.225  10.700 -0.4702  0.4067  0.1849
  659MOL0     O90828   2.205  10.127  10.810  0.8515  0.4348  0.1352
  659MOL0     C90829   2.318  10.052  10.824 -0.6881 -0.4786 -0.6764
  659MOL0     C90830   2.347   9.956  10.732  1.0253  0.1917 -0.2321
  659MOL0     C90831   2.461   9.874  10.749 -0.0685 -0.0552  0.6172
  659MOL0     C90832   2.486   9.765  10.648  0.7404 -0.4757 -0.1881
  659MOL0     C90833   2.533   9.882  10.872  0.1562  0.2424 -0.6870
  659MOL0     C90834   2.646   9.779  10.904  1.0886 -0.7015  0.5146
  659MOL0     O90835   2.728   9.739  10.797 -0.2252 -0.1076 -0.2965
  659MOL0     C90836   2.790   9.613  10.803 -0.3606  0.4338  0.8776
  659MOL0     C90837   2.891   9.596  10.900 -1.3918 -0.2247 -0.4275
  659MOL0     C90838   2.955   9.476  10.927  0.7220 -0.4042 -0.6191
  659MOL0     C90839   2.938   9.371  10.838 -0.1629  1.3732  0.4358
  659MOL0     O90840   2.999   9.256  10.862 -0.1567 -0.6928 -0.2956
  659MOL0     C90841   3.065   9.191  10.740  0.0979 -0.1424 -0.6755
  659MOL0     C90842   3.188   9.112  10.787 -0.3630  0.3632  0.2581
  659MOL0     C90843   3.266   9.073  10.663  0.4042 -0.1824 -0.5753
  659MOL0     C90844   3.181   8.982  10.581  0.3942  0.1454 -0.8290
  659MOL0     C90845   3.261   8.912  10.472 -0.7406 -0.6237  0.4334
  659MOL0     C90846   3.179   8.827  10.376  0.4521 -0.0855  0.2675
  659MOL0     C90847   3.113   8.917  10.273 -0.4836  0.2626  0.9194
  659MOL0     C90848   3.023   8.848  10.169 -0.1748  0.1262  0.1356
  659MOL0    Cl90849   2.932   8.713  10.236  0.0076  0.0792  0.4361
  659MOL0     C90850   2.828   9.375  10.746 -0.5151  0.3080  0.2377
  659MOL0     C90851   2.751   9.495  10.729 -0.4938 -0.2141  0.2052
  659MOL0     O90852   2.657   9.740  11.013  0.2916  0.3518 -0.2390
  659MOL0     C90853   2.493   9.984  10.962  0.3143  0.1021  0.3156
  659MOL0     C90854   2.385  10.058  10.944 -0.6012  0.0556 -0.7242
  659MOL0     N90855   1.712  10.124  10.406 -0.2299  0.1485 -0.0532
  659MOL0     N90856   1.632  10.224  10.374  0.4828  0.3126  0.6328
  659MOL0     C90857   1.034  11.143  10.360 -0.0825  0.1268  0.6642
  659MOL0     C90858   1.000  11.273  10.309 -0.3373  0.0697  0.1860
  659MOL0     C90859   1.041  11.702  10.130 -0.1683  0.1296 -0.2363
  659MOL0     C90860   1.017  11.797  10.237 -0.4633 -1.2558  0.1189
  659MOL0     C90861   0.965  11.927  10.210 -0.9813  0.9180  0.3595
  659MOL0     C90862   0.948  11.960  10.084  0.1531 -0.5534  0.7034
  659MOL0     O90863   0.916  12.092  10.050 -0.0724  0.3771  0.0120
  659MOL0     C90864   0.798  12.094   9.962  0.3256 -0.3766  0.5386
  659MOL0     C90865   0.806  12.224   9.881  0.4678  0.7061  0.7895
  659MOL0     C90866   0.942  12.266   9.816  0.3157 -0.4327  0.0950
  659MOL0     C90867   0.920  12.402   9.743  0.7835  0.3730 -1.1674
  659MOL0     C90868   1.027  12.411   9.641 -1.0521 -0.4270  1.0938
  659MOL0     C90869   1.103  12.437   9.552 -0.3291 -0.5505  0.0778
  659MOL0     C90870   0.985  11.884   9.971 -0.5141 -0.0616 -0.4447
  659MOL0     C90871   1.027  11.749   9.998  0.0342  0.1992  0.0334
  659MOL0     C90872   1.069  11.661   9.866  0.0111  0.3226 -0.6847
  659MOL0     H90873   1.245  11.458  10.440 -1.3552  0.4947  3.0415
  659MOL0     H90874   1.320  11.248  10.502 -0.4732  0.6504 -0.0100
  659MOL0     H90875   1.212  11.079  10.682  2.1601  2.6747 -1.3446
  659MOL0     H90876   1.372  11.066  10.618  1.3086 -1.1526 -0.5922
  659MOL0     H90877   1.339  10.902  10.782  1.8693 -0.5459 -1.4503
  659MOL0     H90878   1.189  10.848  10.706 -1.3401  1.3839 -1.4736
  659MOL0     H90879   1.300  10.735  10.532  2.4766 -1.8160 -1.2300
  659MOL0     H90880   1.452  10.826  10.552 -0.5297 -1.5229 -1.5799
  659MOL0     H90881   1.536  10.689  10.720  0.9348  0.7520 -1.3849
  659MOL0     H90882   1.369  10.695  10.792  1.9976 -0.9375  1.7917
  659MOL0     H90883   1.291  10.528  10.663  0.0961  0.5229  0.3849
  659MOL0     H90884   1.445  10.468  10.730 -1.9593 -0.7404  0.9565
  659MOL0     H90885   1.443  10.405  10.507  1.3571 -0.0962 -0.4407
  659MOL0     H90886   1.375  10.550  10.443  1.5118  0.6715  0.8556
  659MOL0     H90887   1.657  10.542  10.554 -0.9707 -1.1062  0.3268
  659MOL0     H90888   1.590  10.660  10.433  3.0411 -1.1959 -1.6761
  659MOL0     H90889   1.563  10.479  10.272  1.7255  0.7055 -0.4834
  659MOL0     H90890   1.724  10.540  10.306 -0.6134  0.4498 -2.5962
  659MOL0     H90891   1.909  10.393  10.437 -2.1686  3.4437 -4.0085
  659MOL0     H90892   2.033  10.151  10.372 -1.2870  2.6072  1.0654
  659MOL0     H90893   1.954  10.003  10.415  1.8789 -0.7897 -0.0622
  659MOL0     H90894   1.910  10.091  10.659  0.0550 -1.8709 -0.6496
  659MOL0     H90895   2.067  10.016  10.619 -0.1777  0.7489  0.2151
  659MOL0     H90896   2.069  10.297  10.550  0.0531 -1.1466 -0.5675
  659MOL0     H90897   2.004  10.273  10.720  1.1676  2.5590  0.6134
  659MOL0     H90898   2.271  10.187  10.623 -1.3251 -1.6836  0.3788
  659MOL0     H90899   2.237  10.323  10.735 -0.9727 -0.5014  3.6051
  659MOL0     H90900   2.286   9.939  10.644 -0.3300 -0.0096  0.7100
  659MOL0     H90901   2.424   9.773  10.559  3.0359 -0.3342 -1.8654
  659MOL0     H90902   2.478   9.663  10.687 -0.8832  0.8989  3.5286
  659MOL0     H90903   2.583   9.792  10.606  1.9867 -0.8669  2.2420
  659MOL0     H90904   2.922   9.678  10.964 -3.2709 -0.6804  1.1814
  659MOL0     H90905   3.030   9.474  11.006  0.4860 -1.3974 -0.4025
  659MOL0     H90906   2.992   9.124  10.694  0.5695 -0.6151 -0.7460
  659MOL0     H90907   3.103   9.259  10.663  1.2077  0.3921  0.3210
  659MOL0     H90908   3.249   9.169  10.857  0.7328  2.2051 -2.0451
  659MOL0     H90909   3.143   9.024  10.833 -4.4948  1.3552 -1.4833
  659MOL0     H90910   3.356   9.018  10.690 -1.1991 -3.7670 -1.9331
  659MOL0     H90911   3.296   9.160  10.604 -1.5096 -0.9472 -2.8352
  659MOL0     H90912   3.097   9.030  10.530 -1.0905 -1.5551 -0.0928
  659MOL0     H90913   3.131   8.910  10.646  1.5554  1.0126  1.1052
  659MOL0     H90914   3.316   8.981  10.408  0.6988 -2.8200 -0.8255
  659MOL0     H90915   3.327   8.841  10.521 -0.2604  1.6456  3.3638
  659MOL0     H90916   3.108   8.759  10.424 -1.6859 -0.0846 -2.6495
  659MOL0     H90917   3.255   8.767  10.323  0.7291  1.1144 -0.7408
  659MOL0     H90918   3.195   8.979  10.235 -0.6569  1.3244  2.2036
  659MOL0     H90919   3.050   8.987  10.328  0.6909  0.5377  1.9597
  659MOL0     H90920   3.067   8.802  10.080 -1.0996 -0.3728 -0.0806
  659MOL0     H90921   2.955   8.921  10.125 -0.7888  0.4620  1.5766
  659MOL0     H90922   2.809   9.290  10.681 -0.4743 -0.2001  0.8874
  659MOL0     H90923   2.672   9.504  10.656  1.6473 -2.0165 -2.5673
  659MOL0     H90924   2.539   9.981  11.061 -1.0104 -1.3378  0.9391
  659MOL0     H90925   2.350  10.126  11.021 -0.4479 -1.1782  0.4698
  659MOL0     H90926   0.985  11.055  10.318  1.0986  0.1663 -0.8977
  659MOL0     H90927   0.915  11.282  10.243  2.0258  0.1156 -3.0909
  659MOL0     H90928   1.035  11.767  10.339  0.3893 -0.1853  0.3030
  659MOL0     H90929   0.946  12.002  10.286 -2.4650  1.4252 -0.4653
  659MOL0     H90930   0.790  12.014   9.888  1.1630 -1.2835  1.4001
  659MOL0     H90931   0.707  12.091  10.023  2.0893 -1.6403  3.2768
  659MOL0     H90932   0.801  12.309   9.950 -1.6607  0.0581  1.5019
  659MOL0     H90933   0.724  12.238   9.811 -0.2237  2.6011  1.8888
  659MOL0     H90934   1.005  12.268   9.906  0.2460  0.0775  0.1370
  659MOL0     H90935   0.981  12.197   9.740  5.7011  0.7862  1.3592
  659MOL0     H90936   0.906  12.495   9.799 -1.1983 -0.2063 -0.6147
  659MOL0     H90937   0.825  12.391   9.690  0.6206 -1.9113 -0.5432
  659MOL0     H90938   1.180  12.458   9.481  1.8130 -0.1670  2.3756
  659MOL0     H90939   0.967  11.913   9.868 -0.3024 -0.9609 -0.7502
  659MOL0     H90940   1.004  11.697   9.786  1.4898  1.1618 -1.5546
  659MOL0     H90941   1.172  11.673   9.831  0.2056  0.5638 -0.0498
  659MOL0     H90942   1.034  11.560   9.887 -1.0616  1.0446  1.2621
  660MOL0     O90943   4.270  10.238  10.348 -0.1743 -0.1266  0.3383
  660MOL0     C90944   4.252  10.149  10.269 -0.4886 -0.3279  0.9685
  660MOL0     O90945   4.350  10.114  10.175 -0.9888 -0.7841 -0.4699
  660MOL0     C90946   4.484  10.126  10.198 -0.8472  0.2546 -0.2888
  660MOL0     C90947   4.549  10.114  10.320 -0.3930  0.1430 -0.0736
  660MOL0     C90948   4.685  10.094  10.342 -1.3096 -0.1762 -0.1663
  660MOL0     C90949   4.770  10.092  10.229 -0.0241 -0.4339 -0.8337
  660MOL0     O90950   4.903  10.075  10.256 -0.2164  0.4256  0.6517
  660MOL0     C90951   4.976  10.199  10.240  0.0617  0.2301  1.1440
  660MOL0     C90952   5.078  10.198  10.339 -0.8226 -0.5199  0.6101
  660MOL0     C90953   5.162  10.323  10.327  0.4113  0.1637 -0.3388
  660MOL0     C90954   5.234  10.347  10.457 -0.1223  0.0636 -0.3748
  660MOL0     C90955   5.347  10.455  10.450  0.2158 -0.7550 -0.4791
  660MOL0     C90956   5.429  10.442  10.580  0.1966  0.5144 -0.3310
  660MOL0     C90957   5.536  10.545  10.600  0.1728  0.5290 -0.2123
  660MOL0     C90958   5.649  10.502  10.696 -0.2151 -0.1421 -0.0329
  660MOL0     N90959   5.760  10.597  10.681  0.2220 -0.2585  0.5853
  660MOL0     C90960   5.750  10.741  10.688 -0.4453  0.4951  0.2498
  660MOL0     C90961   5.872  10.778  10.647 -0.5143 -0.1938  0.5118
  660MOL0     C90962   5.926  10.918  10.654 -0.2887 -0.5392  0.0203
  660MOL0     C90963   5.921  10.999  10.527 -0.0363  0.2657 -0.0347
  660MOL0     C90964   5.951  10.916  10.401  0.4715  0.7079  0.0733
  660MOL0     C90965   5.995  11.003  10.282 -0.0977  0.5711 -0.7970
  660MOL0     O90966   6.001  10.934  10.159 -1.0807  0.0782  0.2209
  660MOL0     C90967   6.110  10.847  10.136  0.6983  0.1861  0.0216
  660MOL0     C90968   6.088  10.765  10.023 -0.3910  0.4622 -0.0348
  660MOL0     C90969   6.188  10.681   9.969 -0.0259  0.5033 -0.2069
  660MOL0     C90970   6.179  10.625   9.826 -0.4863 -0.3211  1.1655
  660MOL0     C90971   6.298  10.650  10.055 -0.0396  0.2559 -0.1746
  660MOL0     C90972   6.416  10.554  10.025  0.1328 -0.7443 -0.4035
  660MOL0     O90973   6.526  10.553  10.098 -0.3144 -0.6381  0.3470
  660MOL0     C90974   6.650  10.509  10.053  0.1638 -0.1744 -0.6098
  660MOL0     C90975   6.676  10.421   9.951 -0.5753  0.1534  0.1994
  660MOL0     C90976   6.805  10.392   9.921  0.0098 -0.6790 -0.2711
  660MOL0     C90977   6.912  10.452   9.987 -0.3998  0.6533  0.5485
  660MOL0     O90978   7.039  10.422   9.932  0.4216  0.1888 -0.6630
  660MOL0     C90979   7.129  10.523   9.917  0.1606 -0.3806 -0.4970
  660MOL0     C90980   7.075  10.615   9.809 -0.0370  0.0434  0.2221
  660MOL0     C90981   7.177  10.716   9.757 -1.0057 -0.2485  0.2303
  660MOL0     C90982   7.143  10.759   9.611 -0.6248 -0.2257 -0.3902
  660MOL0     C90983   7.217  10.883   9.566 -0.6869  0.4651  0.7040
  660MOL0     C90984   7.215  10.909   9.414 -0.8956 -0.5023 -0.0000
  660MOL0     C90985   7.075  10.952   9.358  1.1170 -0.2605  0.5015
  660MOL0     C90986   7.074  10.998   9.215  0.2286  0.9744  1.3674
  660MOL0    Cl90987   6.929  11.086   9.176  0.3801  0.2234  0.4195
  660MOL0     C90988   6.884  10.539  10.095 -0.1484 -0.4454  0.2815
  660MOL0     C90989   6.749  10.565  10.134  0.5130 -0.3079 -0.7496
  660MOL0     O90990   6.389  10.479   9.928 -0.6139 -0.1391 -0.7543
  660MOL0     C90991   6.312  10.722  10.178  0.8599  0.1064 -0.0482
  660MOL0     C90992   6.216  10.813  10.217  0.1432 -0.1220  0.4451
  660MOL0     N90993   5.943  10.668  10.623 -0.1684 -0.1389 -0.0982
  660MOL0     N90994   5.879  10.557  10.634 -0.0206 -0.2446  0.0053
  660MOL0     C90995   4.715  10.128  10.105  1.2689 -0.0836  0.3015
  660MOL0     C90996   4.573  10.133  10.091 -0.1463 -0.4236 -0.0272
  660MOL0     C90997   4.128  10.076  10.259  0.3554  0.7312  0.8839
  660MOL0     C90998   4.127   9.958  10.176 -0.3325  0.4530 -1.2365
  660MOL0     C90999   4.005   9.888  10.157  0.1867 -0.1746  0.3990
  660MOL0     C91000   3.884   9.932  10.212 -0.1062 -0.6620  0.4802
  660MOL0     O91001   3.777   9.841  10.201  0.0986  0.1022  0.1725
  660MOL0     C91002   3.664   9.857  10.285 -0.1824  0.2633  0.2086
  660MOL0     C91003   3.536   9.785  10.230 -0.5351 -0.9258 -0.1247
  660MOL0     C91004   3.431   9.875  10.167  0.4641 -0.5377  0.3063
  660MOL0     C91005   3.317   9.778  10.107 -0.3544 -0.2407  0.0383
  660MOL0     C91006   3.230   9.839  10.014 -0.5520  0.2709  0.1624
  660MOL0     C91007   3.170   9.897   9.929 -1.6097  0.1617  0.6159
  660MOL0     C91008   3.894  10.043  10.288 -0.0509  0.4862  1.4389
  660MOL0     C91009   4.010  10.116  10.307  0.1376  0.3000 -0.2978
  660MOL0     C91010   3.993  10.247  10.379  0.1725 -0.0776  0.6690
  660MOL0     H91011   4.490  10.105  10.411  1.0347  1.6698  1.0816
  660MOL0     H91012   4.723  10.077  10.442  1.7459 -1.3983 -1.4181
  660MOL0     H91013   4.911  10.284  10.263 -0.8621  0.9539 -3.2856
  660MOL0     H91014   5.008  10.212  10.137 -1.0594 -0.6936  0.6635
  660MOL0     H91015   5.040  10.199  10.441  2.9278 -0.2592  2.1512
  660MOL0     H91016   5.140  10.109  10.328 -0.7123 -0.2876 -0.8223
  660MOL0     H91017   5.232  10.295  10.248  5.1228  0.4006  3.2936
  660MOL0     H91018   5.101  10.411  10.304  1.9473  1.1724 -0.7109
  660MOL0     H91019   5.162  10.380  10.533 -1.3075 -2.0949 -0.5002
  660MOL0     H91020   5.279  10.253  10.489  0.4366  0.7467  0.9300
  660MOL0     H91021   5.301  10.554  10.440 -0.7379 -1.0880  0.3937
  660MOL0     H91022   5.417  10.425  10.371  0.7229  0.5208 -0.5341
  660MOL0     H91023   5.360  10.436  10.664  0.2333 -0.6448 -0.3677
  660MOL0     H91024   5.481  10.346  10.579  0.1630  0.2880  3.6726
  660MOL0     H91025   5.482  10.633  10.637 -1.7232  0.3620 -2.3691
  660MOL0     H91026   5.569  10.564  10.498 -1.8418  1.6608 -0.7118
  660MOL0     H91027   5.602  10.488  10.794 -1.4799 -4.1063 -1.0068
  660MOL0     H91028   5.686  10.404  10.664  0.4699  0.5455 -1.4222
  660MOL0     H91029   5.667  10.807  10.713 -1.9969 -1.4979  0.5864
  660MOL0     H91030   6.033  10.918  10.675 -0.6536  2.3895  2.4850
  660MOL0     H91031   5.881  10.962  10.743  0.1327 -3.4317  1.7804
  660MOL0     H91032   5.818  11.035  10.518 -0.4914 -0.9839 -0.0082
  660MOL0     H91033   5.984  11.085  10.550  0.8783 -0.5158  0.4143
  660MOL0     H91034   6.025  10.839  10.421  2.1732  2.7279  2.0515
  660MOL0     H91035   5.858  10.864  10.374  1.7519 -0.4789 -2.3615
  660MOL0     H91036   5.921  11.084  10.280  2.3270  2.8890 -2.4546
  660MOL0     H91037   6.097  11.038  10.301  0.4020 -1.4244  0.5671
  660MOL0     H91038   5.993  10.777   9.972 -1.5716 -0.8276  1.7405
  660MOL0     H91039   6.270  10.628   9.765 -2.1451 -0.4571 -1.4320
  660MOL0     H91040   6.118  10.688   9.762 -0.3070 -2.3077 -1.1188
  660MOL0     H91041   6.142  10.522   9.827  0.2659 -0.6081  0.6252
  660MOL0     H91042   6.596  10.363   9.907 -0.3782 -0.3795  0.5279
  660MOL0     H91043   6.823  10.330   9.834 -0.0439 -0.1543 -0.6665
  660MOL0     H91044   7.147  10.567  10.016 -1.4699 -0.0544 -0.3124
  660MOL0     H91045   7.223  10.486   9.876 -0.2154 -1.1972 -0.6265
  660MOL0     H91046   7.030  10.557   9.728 -0.6418  0.8720 -0.0510
  660MOL0     H91047   6.999  10.677   9.857 -0.9006  1.1567 -2.3814
  660MOL0     H91048   7.280  10.677   9.761 -0.4476  1.1230 -0.1203
  660MOL0     H91049   7.179  10.798   9.829 -0.7580  0.1431 -0.2147
  660MOL0     H91050   7.036  10.780   9.610 -0.8890 -1.4113 -2.0883
  660MOL0     H91051   7.169  10.673   9.548  2.7661  1.2438 -1.2300
  660MOL0     H91052   7.187  10.981   9.602 -1.7004  0.4817 -0.1634
  660MOL0     H91053   7.321  10.854   9.588  0.1942 -0.4009 -3.5301
  660MOL0     H91054   7.238  10.826   9.347  3.3322 -1.5525  2.3627
  660MOL0     H91055   7.285  10.990   9.391 -1.0838 -0.7985 -1.7492
  660MOL0     H91056   7.028  11.028   9.421  0.4423  1.5474 -2.0305
  660MOL0     H91057   7.009  10.865   9.368  2.2203 -1.3112 -0.9423
  660MOL0     H91058   7.091  10.915   9.146  1.2781  2.6187 -0.4658
  660MOL0     H91059   7.154  11.073   9.207  2.5799 -1.4598  0.5753
  660MOL0     H91060   6.968  10.586  10.146 -0.5171  0.0976  0.3972
  660MOL0     H91061   6.717  10.631  10.214  2.6806 -1.1140  0.8746
  660MOL0     H91062   6.398  10.715  10.244 -0.4252  1.0144  1.8507
  660MOL0     H91063   6.233  10.862  10.313 -0.6105 -0.1740  0.6097
  660MOL0     H91064   4.772  10.143  10.014  0.2189  2.0898 -0.0874
  660MOL0     H91065   4.525  10.150   9.995 -5.3764  0.9686  2.4554
  660MOL0     H91066   4.215   9.922  10.125  1.0492  0.9805  0.6407
  660MOL0     H91067   4.000   9.801  10.093  1.1586  0.2770 -0.3179
  660MOL0     H91068   3.689   9.803  10.376  2.2041 -0.7666 -0.9854
  660MOL0     H91069   3.653   9.966  10.289  1.2065  0.4331 -0.2230
  660MOL0     H91070   3.492   9.730  10.313  2.2762 -0.1739  2.0196
  660MOL0     H91071   3.567   9.717  10.150  0.0206 -2.4664  1.3476
  660MOL0     H91072   3.387   9.951  10.233  0.6837 -1.1384  1.1579
  660MOL0     H91073   3.471   9.932  10.083 -1.9593 -1.6975 -1.7828
  660MOL0     H91074   3.257   9.727  10.183 -0.5472 -0.6776 -0.4042
  660MOL0     H91075   3.373   9.706  10.047 -0.8962 -1.2073  0.6591
  660MOL0     H91076   3.127   9.946   9.844  3.4207  2.1494 -1.2093
  660MOL0     H91077   3.805  10.093  10.326 -1.5595  2.0254 -3.3714
  660MOL0     H91078   3.888  10.264  10.405  0.1673 -1.9547  2.0496
  660MOL0     H91079   4.055  10.234  10.467  1.6467 -2.4203 -0.6175
  660MOL0     H91080   4.026  10.339  10.328 -2.2936  1.8522  2.3311
  661MOL0     O91081  10.390   1.748   2.762  1.2051  0.3094 -0.1850
  661MOL0     C91082  10.279   1.749   2.704  0.5032  0.1886  0.1194
  661MOL0     O91083  10.230   1.652   2.622 -0.0072  0.4398  0.2838
  661MOL0     C91084  10.295   1.535   2.585  0.2806 -0.1292  0.4395
  661MOL0     C91085  10.395   1.476   2.663 -0.1088  0.1155  0.2772
  661MOL0     C91086  10.447   1.355   2.633  0.1033 -0.1186  0.7031
  661MOL0     C91087  10.391   1.275   2.530 -0.0589 -0.5664  0.7348
  661MOL0     O91088  10.457   1.155   2.504  0.4500 -0.0914  0.2093
  661MOL0     C91089  10.421   1.080   2.382 -0.0644  0.2917  0.1300
  661MOL0     C91090  10.512   0.960   2.368 -0.0448 -0.6937  0.0370
  661MOL0     C91091  10.654   0.987   2.430  0.3488  0.5858  0.1402
  661MOL0     C91092  10.721   1.097   2.354 -0.0826  0.7278  0.4646
  661MOL0     C91093  10.849   1.145   2.424 -0.5628 -0.9386 -0.4707
  661MOL0     C91094  10.838   1.234   2.557  1.0228  0.1636 -0.0721
  661MOL0     C91095  10.979   1.267   2.606  0.7354 -0.8359 -0.4075
  661MOL0     C91096  11.027   1.174   2.716  0.8531  0.0032 -0.2463
  661MOL0     N91097  10.969   1.204   2.852 -0.4571 -0.2990 -0.0607
  661MOL0     C91098  10.939   1.335   2.900 -0.6504  1.1280 -0.5367
  661MOL0     C91099  10.889   1.315   3.023 -0.4737 -0.2596  0.3059
  661MOL0     C91100  10.848   1.418   3.128  0.0909  0.5526  0.4559
  661MOL0     C91101  10.922   1.378   3.252  0.3724 -0.5826 -0.5621
  661MOL0     C91102  10.886   1.459   3.382 -0.2007  0.7349  0.5336
  661MOL0     C91103  10.746   1.411   3.437  0.6198  0.6661 -0.1164
  661MOL0     O91104  10.704   1.463   3.564  0.1396 -0.1034 -0.1346
  661MOL0     C91105  10.612   1.396   3.648  0.2687  0.3716  0.3274
  661MOL0     C91106  10.606   1.434   3.777 -0.5076  0.9080 -0.8486
  661MOL0     C91107  10.519   1.378   3.864  0.1687 -0.2648 -0.1574
  661MOL0     C91108  10.514   1.449   4.000  0.4056 -0.5087 -0.8568
  661MOL0     C91109  10.431   1.281   3.818 -0.9489  0.6818 -0.7191
  661MOL0     C91110  10.322   1.221   3.906 -0.2765 -1.5020 -1.1184
  661MOL0     O91111  10.251   1.113   3.860 -0.4550  0.3523 -0.4319
  661MOL0     C91112  10.144   1.080   3.935  0.6329  0.8566  0.7909
  661MOL0     C91113  10.018   1.068   3.881 -0.9488  0.2303  0.2891
  661MOL0     C91114   9.908   1.010   3.947 -0.4462 -0.4525  0.4371
  661MOL0     C91115   9.922   0.964   4.080 -0.2401  0.8029  0.4027
  661MOL0     O91116   9.817   0.928   4.154  0.6102 -0.6652  0.7203
  661MOL0     C91117   9.754   0.803   4.110 -0.8472  0.3224 -0.3134
  661MOL0     C91118   9.702   0.739   4.234 -0.7734 -0.4247 -0.7106
  661MOL0     C91119   9.827   0.716   4.330 -0.3706  0.0154 -0.0660
  661MOL0     C91120   9.793   0.621   4.448  0.6590 -0.6568 -0.8212
  661MOL0     C91121   9.918   0.557   4.502  0.1973 -0.5019 -0.2858
  661MOL0     C91122   9.915   0.411   4.451 -0.3455 -0.5776 -0.8956
  661MOL0     C91123  10.014   0.317   4.522  0.6756 -0.0891  0.7856
  661MOL0     C91124  10.158   0.348   4.500 -0.3544  0.6160 -0.9849
  661MOL0    Cl91125  10.258   0.192   4.520 -0.3230  0.1854 -0.5695
  661MOL0     C91126  10.050   0.966   4.133 -0.4741  0.0924 -0.2933
  661MOL0     C91127  10.158   1.020   4.060  0.3508  0.3927  0.6201
  661MOL0     O91128  10.285   1.285   4.006 -0.5011 -0.2995 -0.3794
  661MOL0     C91129  10.437   1.241   3.686 -0.5898  0.7386  1.6936
  661MOL0     C91130  10.524   1.304   3.598  0.4746  0.5907  0.1790
  661MOL0     N91131  10.882   1.177   3.045  0.4213 -0.2326 -0.0455
  661MOL0     N91132  10.931   1.111   2.945 -1.4096 -0.2997 -0.1568
  661MOL0     C91133  10.278   1.329   2.449  0.7314  0.5332 -0.0004
  661MOL0     C91134  10.237   1.461   2.485  1.0424 -0.2399 -0.4719
  661MOL0     C91135  10.194   1.862   2.747  0.4819  0.8598  0.6213
  661MOL0     C91136  10.188   1.915   2.870 -0.7128 -0.0745  0.7568
  661MOL0     C91137  10.123   2.029   2.906 -0.0154  0.3361  0.1065
  661MOL0     C91138  10.058   2.108   2.812  0.4691  0.3555 -0.9186
  661MOL0     O91139   9.978   2.218   2.832  0.7356 -0.2707 -0.0059
  661MOL0     C91140   9.894   2.221   2.953  0.7848 -0.2626 -0.0900
  661MOL0     C91141   9.832   2.085   3.008  0.1658 -0.2559  0.3517
  661MOL0     C91142   9.740   2.029   2.892  1.3189 -0.1623 -0.3151
  661MOL0     C91143   9.649   1.907   2.941  0.0982 -0.1023  0.0579
  661MOL0     C91144   9.732   1.785   2.963 -0.3953 -0.9471 -0.2837
  661MOL0     C91145   9.782   1.680   2.997 -0.8036  0.1099  0.7155
  661MOL0     C91146  10.060   2.055   2.682  0.4719 -0.1935 -0.1236
  661MOL0     C91147  10.123   1.930   2.649 -0.2337 -0.2021  0.2562
  661MOL0     C91148  10.106   1.883   2.497 -0.0321 -0.0206 -0.9893
  661MOL0     H91149  10.418   1.520   2.759  0.9481  1.0034 -0.3611
  661MOL0     H91150  10.529   1.306   2.685  0.1529 -0.3481  0.4153
  661MOL0     H91151  10.440   1.141   2.293 -0.0391 -0.4286 -0.3701
  661MOL0     H91152  10.316   1.049   2.380 -0.2293  0.7424  1.4215
  661MOL0     H91153  10.466   0.876   2.421  0.2900  1.4673  4.1063
  661MOL0     H91154  10.527   0.931   2.263 -0.3702 -0.6136 -0.0330
  661MOL0     H91155  10.637   1.012   2.535  0.9932 -2.3799  1.0289
  661MOL0     H91156  10.720   0.902   2.412  0.3574  0.6048  0.0851
  661MOL0     H91157  10.741   1.056   2.255 -1.4154  1.4359 -0.1127
  661MOL0     H91158  10.659   1.183   2.328  0.8424  1.4074  0.4328
  661MOL0     H91159  10.900   1.217   2.359  0.6565 -2.6335 -1.4665
  661MOL0     H91160  10.921   1.067   2.453  0.4965 -0.3680 -1.5037
  661MOL0     H91161  10.791   1.330   2.534  0.5083 -0.7600 -3.3686
  661MOL0     H91162  10.774   1.182   2.630  0.2292 -1.7500 -2.0192
  661MOL0     H91163  10.985   1.369   2.643  0.4183 -1.4553  1.4250
  661MOL0     H91164  11.057   1.267   2.529 -1.7452  1.4079 -3.1600
  661MOL0     H91165  11.020   1.068   2.688 -2.5232  0.0838 -0.2057
  661MOL0     H91166  11.135   1.188   2.725  0.8536 -0.7394  1.1187
  661MOL0     H91167  10.962   1.426   2.846 -4.0327  2.1670 -0.4651
  661MOL0     H91168  10.739   1.420   3.136  0.0016  4.0179 -0.2154
  661MOL0     H91169  10.891   1.516   3.105  2.2742  0.0429  2.0110
  661MOL0     H91170  10.900   1.272   3.271 -1.2972  0.1021  1.7949
  661MOL0     H91171  11.027   1.395   3.229  0.3408 -1.7555 -1.7034
  661MOL0     H91172  10.957   1.441   3.463  0.2390  1.1269  0.2465
  661MOL0     H91173  10.874   1.567   3.367 -0.9544  1.0521  3.0619
  661MOL0     H91174  10.671   1.431   3.360  1.2256  1.2287 -0.5741
  661MOL0     H91175  10.755   1.304   3.455  0.0396  0.9181  1.8880
  661MOL0     H91176  10.681   1.504   3.814  1.0591 -0.4400 -1.3326
  661MOL0     H91177  10.607   1.503   4.018 -0.0760 -0.4319  1.8048
  661MOL0     H91178  10.506   1.376   4.081  0.2399  1.3585  0.8951
  661MOL0     H91179  10.429   1.517   4.011  2.7397  2.2560  1.7630
  661MOL0     H91180  10.008   1.097   3.776  1.0053  0.3907  0.1171
  661MOL0     H91181   9.808   1.006   3.905 -0.5580 -0.7294  0.7313
  661MOL0     H91182   9.664   0.825   4.053 -1.6026  0.6364  0.9484
  661MOL0     H91183   9.821   0.733   4.058 -2.0298  0.7436 -2.5003
  661MOL0     H91184   9.637   0.817   4.274 -0.7750 -1.6677  1.9337
  661MOL0     H91185   9.641   0.649   4.221 -1.6492 -0.0468  0.6457
  661MOL0     H91186   9.879   0.809   4.357 -0.1093 -0.0466 -0.3508
  661MOL0     H91187   9.893   0.657   4.266 -0.1541  1.6782 -1.4527
  661MOL0     H91188   9.707   0.556   4.427 -2.7422  2.4233  2.2076
  661MOL0     H91189   9.760   0.684   4.532 -0.7188 -0.6905 -1.3053
  661MOL0     H91190  10.004   0.616   4.470  2.4907 -2.6447  1.4239
  661MOL0     H91191   9.912   0.554   4.611  0.8772  2.0177 -0.1188
  661MOL0     H91192   9.935   0.409   4.343 -0.2412 -0.7128 -0.8741
  661MOL0     H91193   9.816   0.371   4.474 -0.4221 -0.2281 -0.6039
  661MOL0     H91194   9.997   0.218   4.478 -0.0236  0.3246  0.0810
  661MOL0     H91195  10.001   0.301   4.629  1.6011 -2.1966  0.6316
  661MOL0     H91196  10.196   0.426   4.566 -1.3862 -0.3873  0.8804
  661MOL0     H91197  10.169   0.376   4.395 -0.0713 -0.4509 -1.2576
  661MOL0     H91198  10.062   0.929   4.235  3.3762  0.5694 -0.4083
  661MOL0     H91199  10.251   1.004   4.114  0.2688  2.1696  1.3505
  661MOL0     H91200  10.375   1.159   3.651 -2.7466  3.5402 -1.7378
  661MOL0     H91201  10.517   1.257   3.500 -3.2243 -1.6108  1.2815
  661MOL0     H91202  10.223   1.278   2.371 -1.0025  2.1121  0.1163
  661MOL0     H91203  10.157   1.515   2.433 -0.1471  1.6079  2.9711
  661MOL0     H91204  10.253   1.873   2.946 -0.1963  0.2986  0.5198
  661MOL0     H91205  10.125   2.057   3.011  1.2988  0.7937 -0.0139
  661MOL0     H91206   9.954   2.278   3.024  2.6033 -1.5427 -0.5391
  661MOL0     H91207   9.811   2.289   2.932 -0.2937 -2.0795 -2.0614
  661MOL0     H91208   9.770   2.095   3.098  0.6549  1.0901  0.5746
  661MOL0     H91209   9.904   2.004   3.023  0.9862 -0.2554 -2.8770
  661MOL0     H91210   9.671   2.106   2.857  0.6933 -0.3712  0.4328
  661MOL0     H91211   9.812   2.001   2.814  3.7294  0.9848  1.3451
  661MOL0     H91212   9.570   1.890   2.867 -1.7672  1.9249  1.4533
  661MOL0     H91213   9.606   1.931   3.038  0.9443  4.0110 -0.4290
  661MOL0     H91214   9.836   1.591   3.021 -0.4033  0.0202 -0.4653
  661MOL0     H91215  10.013   2.117   2.606 -2.3405 -0.6990  1.0823
  661MOL0     H91216  10.040   1.953   2.446 -2.1484 -0.6095  0.7775
  661MOL0     H91217  10.206   1.886   2.453  1.4542 -0.9763  2.0468
  661MOL0     H91218  10.067   1.781   2.490  0.3282 -0.2301 -0.1054
  662MOL0     O91219  10.846   1.289   0.155  0.8091  0.5228  0.8425
  662MOL0     C91220  10.920   1.368   0.088 -0.0748  0.7332  0.3144
  662MOL0     O91221  10.916   1.371  -0.052  0.4994  0.2895  0.2468
  662MOL0     C91222  10.839   1.286  -0.136 -0.5425 -0.3535 -0.3332
  662MOL0     C91223  10.877   1.264  -0.270 -0.8115 -0.8748  0.6600
  662MOL0     C91224  10.802   1.184  -0.353  0.6121 -0.1843 -0.5764
  662MOL0     C91225  10.683   1.130  -0.316 -0.0248  0.3152 -0.6720
  662MOL0     O91226  10.596   1.073  -0.412 -1.0267 -0.6226 -0.3744
  662MOL0     C91227  10.623   1.055  -0.550 -1.1233  0.4939  0.3489
  662MOL0     C91228  10.601   1.184  -0.625 -0.2178 -0.5491 -0.6655
  662MOL0     C91229  10.453   1.233  -0.630  0.4679  0.3742 -0.8894
  662MOL0     C91230  10.426   1.307  -0.502 -0.0439 -0.0276  0.7589
  662MOL0     C91231  10.279   1.344  -0.492  0.7147 -0.2994  0.0853
  662MOL0     C91232  10.253   1.413  -0.352  0.2838 -0.2102 -0.7552
  662MOL0     C91233  10.319   1.551  -0.326  0.6762 -0.0994 -0.2876
  662MOL0     C91234  10.284   1.614  -0.191  0.2097  0.6921  0.1284
  662MOL0     N91235  10.317   1.762  -0.195  0.8777 -0.0721  0.1283
  662MOL0     C91236  10.244   1.867  -0.133  0.1627  0.7598  0.5145
  662MOL0     C91237  10.312   1.974  -0.176 -0.3770  0.1846 -0.7358
  662MOL0     C91238  10.253   2.113  -0.162  0.3858 -0.4510 -0.6129
  662MOL0     C91239  10.276   2.163  -0.021 -0.2814  0.2102  0.8175
  662MOL0     C91240  10.201   2.297  -0.003  0.1277  1.1946  0.0556
  662MOL0     C91241  10.193   2.337   0.153  0.3140 -0.3485 -0.1660
  662MOL0     O91242  10.321   2.338   0.220 -0.0011 -0.0741  0.4306
  662MOL0     C91243  10.391   2.451   0.205 -0.2124 -0.2705 -0.4809
  662MOL0     C91244  10.501   2.457   0.132 -1.0365 -0.6045 -0.2341
  662MOL0     C91245  10.578   2.577   0.098  0.0646  0.2709  0.1711
  662MOL0     C91246  10.710   2.547   0.030  0.5898  0.1999 -0.1316
  662MOL0     C91247  10.526   2.698   0.137  0.4558  0.6677  0.8420
  662MOL0     C91248  10.607   2.824   0.117 -0.4876 -0.1987 -0.0585
  662MOL0     O91249  10.686   2.834   0.013 -0.0941  0.7671  0.3074
  662MOL0     C91250  10.784   2.929  -0.005  0.7758 -0.3540  0.6317
  662MOL0     C91251  10.857   2.987   0.094  0.7250  0.2193 -0.2256
  662MOL0     C91252  10.960   3.074   0.063  0.5196  0.6374  0.3942
  662MOL0     C91253  10.977   3.115  -0.069  0.7424 -0.3077 -0.0919
  662MOL0     O91254  11.053   3.227  -0.099  0.4120 -0.3011 -0.2669
  662MOL0     C91255  10.989   3.348  -0.078 -0.2747 -0.5874 -0.4206
  662MOL0     C91256  11.084   3.467  -0.122 -0.1272 -0.8070 -0.1741
  662MOL0     C91257  11.220   3.448  -0.060 -0.6887  0.3325 -0.3723
  662MOL0     C91258  11.312   3.570  -0.080 -0.9194 -0.6083  0.1173
  662MOL0     C91259  11.431   3.562   0.020  0.6081  0.0612 -0.0508
  662MOL0     C91260  11.523   3.455  -0.014 -0.3199 -0.6332 -0.1845
  662MOL0     C91261  11.615   3.409   0.099  0.1190  0.0170  0.6540
  662MOL0     C91262  11.536   3.338   0.223 -0.3284  0.8355  0.0856
  662MOL0    Cl91263  11.452   3.190   0.174 -0.5014  0.1338  0.0573
  662MOL0     C91264  10.903   3.055  -0.173  1.1151  0.3722 -0.2136
  662MOL0     C91265  10.809   2.960  -0.143  0.7993 -0.4713 -0.2776
  662MOL0     O91266  10.592   2.909   0.204 -0.3206 -0.1991 -0.8904
  662MOL0     C91267  10.416   2.699   0.216  0.9326  0.1202  0.1074
  662MOL0     C91268  10.351   2.569   0.244  0.3301 -0.7135 -0.1512
  662MOL0     N91269  10.427   1.936  -0.254  0.8927 -0.6627  0.6843
  662MOL0     N91270  10.425   1.818  -0.245 -0.9284  0.0588  0.6477
  662MOL0     C91271  10.646   1.143  -0.186 -0.2868 -0.3186  0.2349
  662MOL0     C91272  10.723   1.218  -0.095 -0.0810 -0.1182  0.0123
  662MOL0     C91273  11.004   1.466   0.160 -0.3561 -0.3314 -0.4293
  662MOL0     C91274  11.079   1.550   0.071  0.2287  0.7189  0.2507
  662MOL0     C91275  11.150   1.653   0.118 -0.0321  0.3524 -0.0180
  662MOL0     C91276  11.153   1.681   0.250 -0.5669  0.9768  0.1964
  662MOL0     O91277  11.240   1.778   0.304 -0.3892 -1.2299 -0.3533
  662MOL0     C91278  11.247   1.911   0.238  0.2948  0.9422 -0.2196
  662MOL0     C91279  11.354   1.930   0.128 -0.3779  1.8056 -0.3760
  662MOL0     C91280  11.354   2.070   0.086 -0.0096  0.0330  0.0325
  662MOL0     C91281  11.437   2.092  -0.039  0.5170 -0.6792 -0.1993
  662MOL0     C91282  11.578   2.092  -0.003 -0.5762 -0.3730  0.3036
  662MOL0     C91283  11.699   2.093   0.022  0.9615 -0.6679 -0.3759
  662MOL0     C91284  11.082   1.598   0.342  0.0367 -0.0269  0.9134
  662MOL0     C91285  11.008   1.493   0.298  0.2337 -0.6347 -0.2827
  662MOL0     C91286  10.949   1.407   0.396  0.5398  0.1165  0.8356
  662MOL0     H91287  10.971   1.306  -0.305 -0.7225 -1.7258 -0.1571
  662MOL0     H91288  10.840   1.188  -0.455  0.3635  3.7246 -0.6716
  662MOL0     H91289  10.562   0.979  -0.599 -2.9260  2.0685  0.0742
  662MOL0     H91290  10.729   1.027  -0.554 -1.1046  0.6811 -0.4797
  662MOL0     H91291  10.665   1.259  -0.578  0.6183 -0.9510 -1.1351
  662MOL0     H91292  10.630   1.165  -0.729  1.3004 -1.3239 -0.1296
  662MOL0     H91293  10.437   1.303  -0.712 -0.6556  0.6477 -0.4587
  662MOL0     H91294  10.387   1.151  -0.661  2.0602 -0.9484 -0.9407
  662MOL0     H91295  10.437   1.239  -0.417 -0.0990 -1.0928 -0.0689
  662MOL0     H91296  10.490   1.396  -0.502 -1.3401  0.9553 -0.9188
  662MOL0     H91297  10.216   1.255  -0.493 -0.4253  0.3357  3.2802
  662MOL0     H91298  10.241   1.417  -0.564 -0.3701  1.3813  2.2252
  662MOL0     H91299  10.145   1.428  -0.360  0.7649  3.4850 -1.8700
  662MOL0     H91300  10.278   1.348  -0.267  0.9585  2.9073  1.6324
  662MOL0     H91301  10.289   1.612  -0.412  4.2283  0.6605 -1.1266
  662MOL0     H91302  10.427   1.545  -0.339  0.7189  2.3778 -1.6069
  662MOL0     H91303  10.176   1.603  -0.182 -0.0567  0.6490 -2.3228
  662MOL0     H91304  10.329   1.572  -0.101  1.0137 -0.1616 -0.6485
  662MOL0     H91305  10.146   1.871  -0.087 -0.0285 -0.9793  0.3212
  662MOL0     H91306  10.148   2.096  -0.188  0.2697 -1.8548  0.6335
  662MOL0     H91307  10.300   2.182  -0.232 -0.1704 -2.8323 -3.5660
  662MOL0     H91308  10.237   2.098   0.058 -2.1946  1.3026  0.8371
  662MOL0     H91309  10.381   2.190  -0.025 -0.5215  1.0080 -1.4832
  662MOL0     H91310  10.233   2.380  -0.066  1.6800 -0.2844 -1.1973
  662MOL0     H91311  10.099   2.269  -0.031  0.8258 -1.7215  0.1480
  662MOL0     H91312  10.137   2.430   0.160  1.0444  0.0015  1.3851
  662MOL0     H91313  10.126   2.263   0.198 -1.9544 -0.1415 -2.8944
  662MOL0     H91314  10.542   2.360   0.106 -1.9865 -1.3167  0.8004
  662MOL0     H91315  10.721   2.439   0.014 -2.7055  0.0008 -1.9128
  662MOL0     H91316  10.798   2.567   0.092  1.7067 -2.6461 -0.6452
  662MOL0     H91317  10.724   2.610  -0.059  1.3169 -0.0901 -0.2373
  662MOL0     H91318  10.837   2.959   0.197 -1.9136 -1.7769 -1.1752
  662MOL0     H91319  11.026   3.115   0.139  1.0961  3.3209 -1.3986
  662MOL0     H91320  10.889   3.362  -0.120 -0.7136 -0.7086  0.5467
  662MOL0     H91321  10.968   3.367   0.028 -1.1873  1.0077 -0.8552
  662MOL0     H91322  11.104   3.460  -0.230  2.3585  0.6226  0.1143
  662MOL0     H91323  11.038   3.563  -0.096  0.9888 -0.3634  0.2025
  662MOL0     H91324  11.261   3.357  -0.105  0.0905  0.4543  0.0686
  662MOL0     H91325  11.206   3.450   0.048  2.7048  2.2039  0.1721
  662MOL0     H91326  11.257   3.663  -0.063  1.2131  0.1620  3.9453
  662MOL0     H91327  11.350   3.576  -0.182 -2.0873  1.1634 -0.2590
  662MOL0     H91328  11.484   3.658   0.021 -1.6075  1.3561  0.3309
  662MOL0     H91329  11.392   3.553   0.122  1.9714 -0.5137  0.4474
  662MOL0     H91330  11.585   3.467  -0.104 -0.9028 -2.0261 -0.8148
  662MOL0     H91331  11.462   3.364  -0.019 -1.6037  0.1120  1.4291
  662MOL0     H91332  11.682   3.487   0.136  0.3337  0.4704 -0.6368
  662MOL0     H91333  11.679   3.333   0.054 -2.1500 -0.8450 -1.3852
  662MOL0     H91334  11.469   3.407   0.274 -2.3007 -0.0381 -1.2205
  662MOL0     H91335  11.610   3.327   0.303 -0.0979  5.5891  0.7636
  662MOL0     H91336  10.915   3.099  -0.272  0.7868  0.2869 -0.2893
  662MOL0     H91337  10.736   2.914  -0.209  2.1386 -3.2011 -0.0095
  662MOL0     H91338  10.367   2.789   0.251  0.1029  0.7257 -2.3443
  662MOL0     H91339  10.255   2.578   0.294 -0.1372 -0.1810 -1.1029
  662MOL0     H91340  10.548   1.106  -0.157 -0.8182  0.1243 -0.9562
  662MOL0     H91341  10.679   1.251  -0.001  1.3270 -0.8669  0.9667
  662MOL0     H91342  11.077   1.538  -0.037 -1.7058  1.8287  0.1187
  662MOL0     H91343  11.190   1.705   0.032 -0.9740  0.4924 -0.3815
  662MOL0     H91344  11.150   1.925   0.189 -1.1222  1.9635  2.5839
  662MOL0     H91345  11.255   1.994   0.309  1.3191  1.6062 -1.0980
  662MOL0     H91346  11.329   1.860   0.048 -3.0908 -0.2395  2.0468
  662MOL0     H91347  11.444   1.889   0.176 -2.1712 -1.6930  0.3421
  662MOL0     H91348  11.255   2.106   0.058  0.0607 -0.4106 -0.8325
  662MOL0     H91349  11.382   2.142   0.162  0.2177  0.6982 -0.6668
  662MOL0     H91350  11.418   2.188  -0.088 -1.3176 -0.3827  0.9778
  662MOL0     H91351  11.403   2.017  -0.110 -1.1008  2.3754 -2.9526
  662MOL0     H91352  11.804   2.078   0.039  0.5230 -3.0571  0.6383
  662MOL0     H91353  11.097   1.615   0.449 -0.9912 -0.4402  1.1383
  662MOL0     H91354  10.973   1.444   0.496  1.5807  0.7561  0.3713
  662MOL0     H91355  10.840   1.411   0.389  0.5710  1.1751  0.7936
  662MOL0     H91356  10.981   1.303   0.389  1.5110  0.4601 -0.1881
  663MOL0     O91357   5.291   6.554   0.501  0.6016  0.7945  0.4184
  663MOL0     C91358   5.218   6.526   0.596 -0.4173  0.0915  0.1876
  663MOL0     O91359   5.118   6.603   0.647  0.4656  0.0334 -0.2952
  663MOL0     C91360   5.132   6.738   0.685  0.1315 -0.2323  0.3424
  663MOL0     C91361   5.246   6.811   0.678 -1.4454 -0.2300 -0.5735
  663MOL0     C91362   5.252   6.938   0.730  0.8152  0.0206 -0.2098
  663MOL0     C91363   5.144   6.989   0.796  0.3321  0.3798 -0.0645
  663MOL0     O91364   5.135   7.124   0.846 -0.1126  0.3786 -0.2479
  663MOL0     C91365   5.253   7.205   0.833 -0.5271  1.1068 -0.1424
  663MOL0     C91366   5.230   7.350   0.865 -0.1411 -0.2038  0.5239
  663MOL0     C91367   5.196   7.364   1.013  0.5600  0.1552  0.2868
  663MOL0     C91368   5.158   7.509   1.045 -0.4381  0.5189 -0.1154
  663MOL0     C91369   5.158   7.534   1.194  0.1432  0.1337 -0.7124
  663MOL0     C91370   5.118   7.671   1.247 -0.2138 -0.7001 -0.4162
  663MOL0     C91371   4.970   7.714   1.220  0.3251 -1.2927  0.6547
  663MOL0     C91372   4.855   7.631   1.285  0.0368  0.7806  0.0732
  663MOL0     N91373   4.866   7.578   1.419 -0.1544 -0.0371 -0.0723
  663MOL0     C91374   4.822   7.641   1.535  0.4056 -0.2607 -0.3767
  663MOL0     C91375   4.886   7.572   1.631  0.1622 -0.4282 -0.6164
  663MOL0     C91376   4.859   7.603   1.771 -0.4299 -0.2430 -0.0547
  663MOL0     C91377   4.942   7.522   1.870  0.5993  0.4508 -0.9153
  663MOL0     C91378   4.877   7.529   2.015 -0.3362  0.1313  0.1759
  663MOL0     C91379   4.921   7.646   2.095  0.2564  0.0784 -0.2486
  663MOL0     O91380   4.893   7.766   2.026 -0.2024 -0.4989 -0.4904
  663MOL0     C91381   4.932   7.887   2.085 -0.6637 -0.4953 -0.0224
  663MOL0     C91382   4.906   8.013   2.018 -0.1536  0.7144  0.2061
  663MOL0     C91383   4.943   8.138   2.079 -0.2587  0.4545  0.4029
  663MOL0     C91384   4.911   8.260   2.002  0.2368 -1.1125 -0.1680
  663MOL0     C91385   5.011   8.140   2.207 -1.0261 -0.7530  1.2646
  663MOL0     C91386   5.036   8.271   2.277  0.0305  0.6165 -1.0870
  663MOL0     O91387   5.045   8.386   2.204 -0.0828 -0.4872  0.2903
  663MOL0     C91388   5.050   8.515   2.257  0.0050  0.2892 -0.2032
  663MOL0     C91389   4.951   8.568   2.331 -0.0312  0.0801  0.0146
  663MOL0     C91390   4.968   8.693   2.400  1.5189  0.7053 -0.3160
  663MOL0     C91391   5.083   8.771   2.377  0.5049  0.4149  0.2096
  663MOL0     O91392   5.106   8.896   2.435  0.0022  1.1155  0.0228
  663MOL0     C91393   5.040   8.930   2.555  0.1950 -0.4705 -0.4845
  663MOL0     C91394   5.077   9.062   2.603 -0.5772  0.2403 -0.0273
  663MOL0     C91395   5.082   9.081   2.757  0.4138  1.0274  0.5934
  663MOL0     C91396   4.954   9.064   2.831  0.1753 -0.3914 -0.0771
  663MOL0     C91397   4.972   9.098   2.986  0.5500 -0.5223  0.1423
  663MOL0     C91398   4.932   8.971   3.061 -0.2978  1.0427 -0.0359
  663MOL0     C91399   4.963   8.969   3.213  0.5357  0.4709  0.5638
  663MOL0     C91400   4.914   8.832   3.289 -0.6697  0.2018 -0.0747
  663MOL0    Cl91401   4.996   8.678   3.266 -0.3905  0.3490 -0.5790
  663MOL0     C91402   5.177   8.718   2.292 -1.2465 -0.5787  0.7390
  663MOL0     C91403   5.167   8.594   2.235  0.3529  0.5827 -0.5694
  663MOL0     O91404   5.047   8.258   2.399  0.1042 -0.2879 -0.0457
  663MOL0     C91405   5.028   8.018   2.270  0.6864 -0.4336  0.8162
  663MOL0     C91406   4.988   7.901   2.209  1.1646 -0.2403 -0.5080
  663MOL0     N91407   4.968   7.475   1.578  0.3927  0.3347 -0.2247
  663MOL0     N91408   4.954   7.481   1.448 -0.2702  0.3419 -1.1879
  663MOL0     C91409   5.028   6.918   0.809 -0.9438  0.6239 -0.1240
  663MOL0     C91410   5.023   6.788   0.758 -0.4102 -0.6498  0.5219
  663MOL0     C91411   5.231   6.389   0.650 -0.4852 -0.0411  0.6643
  663MOL0     C91412   5.215   6.368   0.786  0.9216 -0.1366 -0.9983
  663MOL0     C91413   5.218   6.238   0.837  0.6837  1.0375 -0.3719
  663MOL0     C91414   5.265   6.131   0.760 -0.7109 -0.1263 -0.0553
  663MOL0     O91415   5.303   6.011   0.812  0.0368  0.4786 -0.3509
  663MOL0     C91416   5.265   5.964   0.950  0.0490 -0.0563 -0.2803
  663MOL0     C91417   5.225   5.816   0.928  0.4145  0.4770  0.3213
  663MOL0     C91418   5.322   5.713   0.880  0.7214 -0.0490  0.0640
  663MOL0     C91419   5.337   5.597   0.978 -0.1177 -0.9499  0.0715
  663MOL0     C91420   5.248   5.481   0.950  0.1392 -0.1231  0.1762
  663MOL0     C91421   5.184   5.377   0.933  0.2702 -0.0779  0.1165
  663MOL0     C91422   5.283   6.151   0.629 -0.7684 -0.2581  0.8359
  663MOL0     C91423   5.266   6.278   0.572 -0.8712 -0.3814 -1.0143
  663MOL0     C91424   5.315   6.288   0.429 -1.2454  0.1812 -0.4677
  663MOL0     H91425   5.323   6.783   0.608  0.8201 -0.1120  1.7379
  663MOL0     H91426   5.345   6.993   0.740 -1.8505  4.6140  3.3858
  663MOL0     H91427   5.288   7.204   0.730 -1.1071 -1.5678 -0.3923
  663MOL0     H91428   5.321   7.159   0.905 -0.8767  0.5523 -0.1583
  663MOL0     H91429   5.322   7.404   0.844  0.8182 -1.5390  1.1528
  663MOL0     H91430   5.162   7.409   0.803  4.7271  5.9294  0.0883
  663MOL0     H91431   5.103   7.312   1.039  0.8465 -0.5820 -0.1421
  663MOL0     H91432   5.277   7.329   1.077 -0.4147 -1.4473  0.7090
  663MOL0     H91433   5.229   7.577   0.996 -2.7295  2.2422 -1.2592
  663MOL0     H91434   5.059   7.530   1.005 -0.6153 -1.3103 -0.7009
  663MOL0     H91435   5.263   7.518   1.218  0.0267  2.1253  1.4521
  663MOL0     H91436   5.107   7.450   1.244  0.9114 -1.8425 -3.0672
  663MOL0     H91437   5.137   7.667   1.355 -3.6792  1.9527  0.4773
  663MOL0     H91438   5.184   7.747   1.203 -1.0684  1.2737  1.5259
  663MOL0     H91439   4.944   7.720   1.114 -4.0861  0.6467  1.6065
  663MOL0     H91440   4.954   7.813   1.262 -0.7638 -0.5522 -1.3590
  663MOL0     H91441   4.768   7.696   1.286  0.9891  2.1067 -0.3364
  663MOL0     H91442   4.836   7.539   1.229 -1.1350  1.3802 -0.5470
  663MOL0     H91443   4.737   7.708   1.535 -0.3470 -1.1692 -1.7066
  663MOL0     H91444   4.753   7.609   1.797  0.2577  1.4914  2.7410
  663MOL0     H91445   4.892   7.705   1.789  2.0279 -0.9173 -0.4529
  663MOL0     H91446   4.948   7.423   1.824  3.2181  0.7093 -1.2492
  663MOL0     H91447   5.049   7.544   1.868  0.4718  1.4299  0.7839
  663MOL0     H91448   4.768   7.523   2.013 -0.2837 -1.3666  0.3519
  663MOL0     H91449   4.899   7.440   2.075 -1.4453  1.7868  3.2668
  663MOL0     H91450   4.875   7.654   2.195  0.2071  0.4170 -0.2955
  663MOL0     H91451   5.027   7.636   2.119  0.1754 -2.7879 -0.7249
  663MOL0     H91452   4.856   8.014   1.921  0.9857 -1.6081 -0.4935
  663MOL0     H91453   4.994   8.325   1.972 -2.0526  1.0131 -2.3979
  663MOL0     H91454   4.842   8.325   2.056  0.2073 -0.5052 -0.9114
  663MOL0     H91455   4.868   8.238   1.903 -0.7814  0.2772 -0.0602
  663MOL0     H91456   4.857   8.514   2.338 -1.6013  2.6286 -0.1609
  663MOL0     H91457   4.881   8.712   2.461  2.8066  0.2582  1.7551
  663MOL0     H91458   4.931   8.933   2.543 -0.0882 -1.4843  1.4451
  663MOL0     H91459   5.068   8.857   2.630  2.4773 -0.3003 -1.1062
  663MOL0     H91460   5.180   9.083   2.575  0.1347  1.2131  2.9106
  663MOL0     H91461   5.023   9.142   2.552 -0.7180  0.5027  0.5265
  663MOL0     H91462   5.124   9.182   2.765 -0.2905  2.1488 -5.3549
  663MOL0     H91463   5.155   9.012   2.800 -3.8732 -1.7749  4.2469
  663MOL0     H91464   4.916   8.965   2.803 -1.2843  0.7534 -2.4521
  663MOL0     H91465   4.878   9.135   2.797 -1.9927 -2.5276  0.0135
  663MOL0     H91466   5.079   9.115   3.003  1.1256 -1.9808 -1.6696
  663MOL0     H91467   4.906   9.180   3.017  2.3513  1.7190 -1.5118
  663MOL0     H91468   4.991   8.890   3.016 -0.6606  0.8757 -0.2230
  663MOL0     H91469   4.828   8.941   3.047  0.1706 -0.3349 -0.7517
  663MOL0     H91470   4.898   9.051   3.242  1.2166  0.9290  0.8236
  663MOL0     H91471   5.071   8.988   3.220  0.5922  0.6057 -0.4751
  663MOL0     H91472   4.810   8.825   3.254 -0.5212  0.0631 -0.5019
  663MOL0     H91473   4.913   8.849   3.397 -0.4212 -0.4594  0.0330
  663MOL0     H91474   5.269   8.773   2.276 -0.6440 -1.5732  0.7471
  663MOL0     H91475   5.253   8.565   2.175  1.6598  0.7265  1.1793
  663MOL0     H91476   5.080   8.011   2.365 -0.5572 -3.5117  1.3866
  663MOL0     H91477   4.992   7.814   2.275 -1.1327 -0.1737 -0.2158
  663MOL0     H91478   4.946   6.971   0.858  0.5679  0.9675  2.1768
  663MOL0     H91479   4.936   6.724   0.760 -0.0943 -1.1612 -0.8408
  663MOL0     H91480   5.183   6.451   0.849 -1.1851  2.0842 -4.6156
  663MOL0     H91481   5.206   6.219   0.944 -0.6064 -0.2623 -0.7123
  663MOL0     H91482   5.355   5.974   1.012  0.7615 -0.8647 -1.1434
  663MOL0     H91483   5.176   6.010   0.994 -1.0342  0.4933 -2.8573
  663MOL0     H91484   5.143   5.813   0.856  0.5821  0.5729  0.1261
  663MOL0     H91485   5.167   5.785   1.017 -2.0744  0.0847 -1.3259
  663MOL0     H91486   5.295   5.675   0.781  1.5087  3.5331 -1.6873
  663MOL0     H91487   5.418   5.763   0.866 -0.4203  1.7076 -2.1398
  663MOL0     H91488   5.333   5.634   1.081 -0.9056 -1.1415  0.1149
  663MOL0     H91489   5.442   5.565   0.971 -0.3968 -1.8359 -0.2230
  663MOL0     H91490   5.138   5.282   0.914  0.3599 -0.4029  1.3795
  663MOL0     H91491   5.339   6.076   0.573 -2.8088 -0.5202 -1.0012
  663MOL0     H91492   5.403   6.352   0.439 -0.6661 -0.8959  2.0560
  663MOL0     H91493   5.344   6.193   0.382 -2.0013 -1.0209  1.3939
  663MOL0     H91494   5.247   6.330   0.354 -0.9821 -0.3224 -0.9955
  664MOL0     O91495   9.195   6.761   7.550 -0.4326 -0.0867  0.1448
  664MOL0     C91496   9.097   6.692   7.542  0.7289  0.1731 -0.5424
  664MOL0     O91497   8.983   6.705   7.622  0.0590  0.3242  0.9618
  664MOL0     C91498   8.962   6.802   7.711  0.0550  0.5642 -0.3910
  664MOL0     C91499   9.063   6.840   7.794 -0.0923  0.0093 -0.9494
  664MOL0     C91500   9.037   6.918   7.911  0.2866  0.6860 -0.3854
  664MOL0     C91501   8.905   6.971   7.935 -1.1894  0.1585  0.4373
  664MOL0     O91502   8.896   7.029   8.055 -0.1033  0.2785  0.4112
  664MOL0     C91503   8.800   7.129   8.072  0.0139 -0.2564  1.0619
  664MOL0     C91504   8.673   7.077   8.135 -0.7488 -0.4920  0.6585
  664MOL0     C91505   8.695   7.025   8.274 -0.6794 -0.5262  0.4494
  664MOL0     C91506   8.591   7.069   8.375 -1.0948 -1.5182 -0.0738
  664MOL0     C91507   8.628   7.026   8.516  0.3851  0.3336  0.4719
  664MOL0     C91508   8.571   6.882   8.534  0.1701  0.1749 -0.2709
  664MOL0     C91509   8.546   6.849   8.675  0.4843 -0.8153 -0.5289
  664MOL0     C91510   8.420   6.916   8.728  0.0717  0.4244 -0.0921
  664MOL0     N91511   8.440   6.950   8.868  1.5224 -0.3423  0.0797
  664MOL0     C91512   8.417   6.866   8.979  0.3222  0.0497 -0.4771
  664MOL0     C91513   8.473   6.938   9.089  0.1349 -0.7130  0.5553
  664MOL0     C91514   8.466   6.886   9.229 -0.3694 -0.4704  0.6152
  664MOL0     C91515   8.368   6.962   9.314 -1.0811  1.0202  0.0468
  664MOL0     C91516   8.346   6.895   9.448 -0.4019  0.3890 -0.7372
  664MOL0     C91517   8.448   6.954   9.557 -0.6265  0.3683  0.4179
  664MOL0     O91518   8.397   6.928   9.686 -0.9358 -0.6203 -0.8623
  664MOL0     C91519   8.480   6.878   9.782  0.2804  0.7240  0.0399
  664MOL0     C91520   8.467   6.906   9.912  0.2718 -1.3187 -0.1430
  664MOL0     C91521   8.558   6.853  10.014 -0.3322 -0.3687  0.8674
  664MOL0     C91522   8.521   6.877  10.153  0.3237 -0.8521  0.2001
  664MOL0     C91523   8.673   6.776   9.973 -0.2968 -0.0204  0.3629
  664MOL0     C91524   8.778   6.733  10.068  0.4451 -0.2043  1.3639
  664MOL0     O91525   8.794   6.801  10.174  0.9459 -0.5463 -0.6636
  664MOL0     C91526   8.890   6.751  10.265 -0.4875 -1.1606  0.1549
  664MOL0     C91527   9.019   6.791  10.249  0.4480  0.4784  0.5462
  664MOL0     C91528   9.110   6.746  10.343 -1.0712 -0.2608  0.3165
  664MOL0     C91529   9.080   6.661  10.454  0.7921 -0.4231  0.0426
  664MOL0     O91530   9.165   6.618  10.557 -0.0016  0.0630  0.3440
  664MOL0     C91531   9.296   6.669  10.561  0.3602 -0.1628 -0.6370
  664MOL0     C91532   9.350   6.637  10.697  0.4129  0.5266 -0.7331
  664MOL0     C91533   9.378   6.488  10.705  0.1955 -0.1775  0.8108
  664MOL0     C91534   9.431   6.454  10.845 -0.1127 -0.0337 -0.2271
  664MOL0     C91535   9.507   6.328  10.851  0.9744  0.4838 -0.4985
  664MOL0     C91536   9.440   6.199  10.784  0.7293  0.0553  1.2636
  664MOL0     C91537   9.331   6.135  10.875 -0.0763 -0.0077 -0.2115
  664MOL0     C91538   9.250   6.029  10.796  0.3485 -0.0641  1.2613
  664MOL0    Cl91539   9.149   5.943  10.911 -0.0490  0.1663 -0.4099
  664MOL0     C91540   8.938   6.642  10.475 -0.8618  0.6525  0.9414
  664MOL0     C91541   8.847   6.685  10.379  0.2136 -0.1147  0.8887
  664MOL0     O91542   8.843   6.642  10.029 -0.3977  0.7636  0.0769
  664MOL0     C91543   8.681   6.737   9.835  0.4626 -0.1665 -0.4478
  664MOL0     C91544   8.582   6.781   9.749 -0.1156 -0.2466 -0.4158
  664MOL0     N91545   8.523   7.057   9.040  1.1115  0.1028 -0.5701
  664MOL0     N91546   8.505   7.058   8.916 -0.6967 -0.4664  0.9838
  664MOL0     C91547   8.804   6.940   7.844  0.7982 -1.1261  0.3221
  664MOL0     C91548   8.833   6.856   7.738 -0.1806  1.2327  0.1520
  664MOL0     C91549   9.109   6.565   7.463  0.2663 -1.0851  0.1876
  664MOL0     C91550   9.020   6.460   7.491 -0.0789 -0.4390  0.8377
  664MOL0     C91551   9.029   6.337   7.423  0.9842  0.2020 -0.2556
  664MOL0     C91552   9.127   6.318   7.322  0.9949  0.6204  0.1778
  664MOL0     O91553   9.145   6.192   7.273 -0.0112 -0.1254 -0.3665
  664MOL0     C91554   9.082   6.139   7.159  0.0949  0.3938  0.2429
  664MOL0     C91555   9.177   6.047   7.085  0.7155  0.0958 -0.2515
  664MOL0     C91556   9.117   5.953   6.983  0.4629 -0.1717  0.4152
  664MOL0     C91557   9.243   5.862   6.948  0.2148 -1.3527 -0.6599
  664MOL0     C91558   9.304   5.923   6.826  0.0522  0.5421 -0.9791
  664MOL0     C91559   9.349   5.960   6.720 -0.4437  0.5091  0.8387
  664MOL0     C91560   9.205   6.423   7.285 -0.6627 -0.2416 -0.3333
  664MOL0     C91561   9.199   6.545   7.356  0.2156  0.3005  1.0329
  664MOL0     C91562   9.306   6.653   7.319  0.2953 -0.2663  1.2337
  664MOL0     H91563   9.160   6.791   7.787 -1.7954 -3.5585 -1.5324
  664MOL0     H91564   9.108   6.920   7.993 -0.0898  0.6731 -0.0535
  664MOL0     H91565   8.767   7.171   7.976  2.4488 -0.5548  0.0211
  664MOL0     H91566   8.852   7.208   8.127  0.6229  1.3854 -1.6700
  664MOL0     H91567   8.606   7.163   8.131 -0.1228 -0.0370 -0.3200
  664MOL0     H91568   8.629   6.998   8.073 -1.6986  1.2597 -1.0196
  664MOL0     H91569   8.689   6.916   8.266 -0.4694 -0.4349 -1.7258
  664MOL0     H91570   8.792   7.049   8.316 -0.1969 -1.5178 -0.0398
  664MOL0     H91571   8.586   7.178   8.377 -2.1028 -1.5332 -0.7055
  664MOL0     H91572   8.497   7.025   8.338 -1.6538 -0.9140  0.6072
  664MOL0     H91573   8.588   7.103   8.583 -1.5368 -0.1547 -0.0499
  664MOL0     H91574   8.736   7.033   8.534  0.5276  2.6391 -0.9328
  664MOL0     H91575   8.480   6.879   8.475 -0.1196  0.6111  0.1505
  664MOL0     H91576   8.638   6.809   8.487 -2.6477 -4.2585  1.8835
  664MOL0     H91577   8.627   6.864   8.747 -0.7333  0.1051  0.6940
  664MOL0     H91578   8.522   6.742   8.683 -2.3946 -0.3202 -1.3632
  664MOL0     H91579   8.408   7.003   8.663 -0.1719 -0.6060 -1.4644
  664MOL0     H91580   8.332   6.851   8.729 -1.7986  2.7290 -2.3101
  664MOL0     H91581   8.362   6.773   8.991 -0.1915  0.5492  1.4135
  664MOL0     H91582   8.566   6.898   9.273  1.4420  2.3182 -3.6635
  664MOL0     H91583   8.430   6.783   9.220 -1.5637  0.0373 -0.5994
  664MOL0     H91584   8.419   7.057   9.332  0.5649  0.3479 -0.8966
  664MOL0     H91585   8.275   6.979   9.259 -0.3593  0.2978 -1.4524
  664MOL0     H91586   8.242   6.918   9.474 -1.2722 -1.9076 -1.8879
  664MOL0     H91587   8.354   6.786   9.441 -0.6278  0.4420 -1.9011
  664MOL0     H91588   8.551   6.925   9.536  0.7307  3.9261  1.4850
  664MOL0     H91589   8.463   7.062   9.549  2.7924  0.4450  4.5539
  664MOL0     H91590   8.391   6.975   9.948  3.1096  1.0861  1.7563
  664MOL0     H91591   8.552   6.795  10.218  0.6521  1.7111  3.5363
  664MOL0     H91592   8.414   6.897  10.163 -0.1519 -1.4870 -2.6401
  664MOL0     H91593   8.592   6.951  10.191  1.6982 -2.0602  0.0636
  664MOL0     H91594   9.060   6.829  10.156  0.3865  1.9601  1.0955
  664MOL0     H91595   9.215   6.769  10.329 -1.1065 -0.5595 -0.5102
  664MOL0     H91596   9.346   6.619  10.478  2.5209 -0.6972  0.8994
  664MOL0     H91597   9.299   6.776  10.537  1.8421 -0.2443 -0.9224
  664MOL0     H91598   9.449   6.677  10.723  0.9259 -1.6929  1.0499
  664MOL0     H91599   9.275   6.659  10.773  1.7559  0.8833  0.5323
  664MOL0     H91600   9.458   6.460  10.635 -0.6992 -2.1961  0.5048
  664MOL0     H91601   9.288   6.428  10.686 -1.0499  1.6653  0.6721
  664MOL0     H91602   9.343   6.444  10.910  0.3105  1.1542  0.5607
  664MOL0     H91603   9.491   6.541  10.872  1.2477 -0.8588 -0.4802
  664MOL0     H91604   9.599   6.361  10.802  2.1449  1.5231  2.1632
  664MOL0     H91605   9.539   6.309  10.954  0.8178  0.4469 -0.4554
  664MOL0     H91606   9.513   6.121  10.759  0.2980  0.1476 -0.4222
  664MOL0     H91607   9.400   6.230  10.687  2.9634  0.5092  0.4322
  664MOL0     H91608   9.268   6.207  10.928  1.4769 -0.3836  2.2690
  664MOL0     H91609   9.392   6.088  10.952  1.5584  0.2604 -1.2830
  664MOL0     H91610   9.327   5.964  10.754  2.7696  3.2963  0.0595
  664MOL0     H91611   9.188   6.080  10.721  2.4023  0.6889 -0.0035
  664MOL0     H91612   8.902   6.583  10.559 -0.2890  1.1321  1.5455
  664MOL0     H91613   8.743   6.657  10.396  0.5226 -1.6447  0.4393
  664MOL0     H91614   8.750   6.658   9.807  1.1131 -0.0401  0.7429
  664MOL0     H91615   8.574   6.753   9.644 -1.3592  0.6781 -0.5863
  664MOL0     H91616   8.699   6.966   7.846  0.7162 -1.3622 -0.6788
  664MOL0     H91617   8.747   6.820   7.682  0.9265 -2.9179  0.8232
  664MOL0     H91618   8.948   6.476   7.571 -1.9881  2.2782 -1.2207
  664MOL0     H91619   8.963   6.260   7.462 -1.6431  3.5578  2.6332
  664MOL0     H91620   8.997   6.078   7.191  2.6324 -1.8716  3.2676
  664MOL0     H91621   9.056   6.221   7.091  2.6989  0.0787 -1.2987
  664MOL0     H91622   9.225   5.987   7.163  3.8020  1.2677 -1.0894
  664MOL0     H91623   9.253   6.109   7.036 -1.0842  1.6692 -1.1629
  664MOL0     H91624   9.042   5.893   7.035  1.7908 -2.3804 -0.0800
  664MOL0     H91625   9.072   6.008   6.899 -0.0597 -1.0180  0.1290
  664MOL0     H91626   9.210   5.759   6.930 -2.4182 -1.1709  2.2265
  664MOL0     H91627   9.324   5.858   7.022 -0.8634  4.2428  1.3039
  664MOL0     H91628   9.378   6.012   6.631  0.0989  0.0004  0.7164
  664MOL0     H91629   9.290   6.406   7.220  0.8444 -0.1964  1.5132
  664MOL0     H91630   9.372   6.599   7.251 -2.1148 -3.6042  1.2521
  664MOL0     H91631   9.253   6.741   7.282 -0.9720 -1.2410  0.6368
  664MOL0     H91632   9.374   6.687   7.397  0.3081 -0.7357  1.4342
  665MOL0     O91633  11.497  10.554   6.435 -0.0731  0.0226 -0.3945
  665MOL0     C91634  11.483  10.549   6.312 -0.7375 -0.5442  0.0921
  665MOL0     O91635  11.590  10.567   6.221 -0.1283 -0.4813 -0.0405
  665MOL0     C91636  11.722  10.542   6.255  0.7744  1.2494  0.0187
  665MOL0     C91637  11.776  10.581   6.378 -0.8495 -0.6265 -0.2488
  665MOL0     C91638  11.912  10.572   6.412 -0.5019 -0.1151  0.3585
  665MOL0     C91639  11.996  10.503   6.325  0.4969  0.0384  0.7388
  665MOL0     O91640  12.132  10.491   6.340 -0.6321  0.5281 -0.1337
  665MOL0     C91641  12.200  10.557   6.450  0.4441 -1.2777 -0.7104
  665MOL0     C91642  12.350  10.521   6.426 -1.1188  0.2481 -0.6682
  665MOL0     C91643  12.439  10.637   6.480  0.2788 -0.7455 -0.4879
  665MOL0     C91644  12.536  10.599   6.592  0.2710  0.3212  0.1071
  665MOL0     C91645  12.478  10.534   6.715  0.0215 -1.0741  0.1079
  665MOL0     C91646  12.588  10.526   6.832 -0.7753  0.2049  0.6467
  665MOL0     C91647  12.524  10.498   6.962  0.2072 -0.2217 -0.4885
  665MOL0     C91648  12.483  10.349   6.963  0.3448 -0.2424 -0.0935
  665MOL0     N91649  12.420  10.297   7.089  0.0581  0.3255 -0.2527
  665MOL0     C91650  12.476  10.309   7.218 -0.7970  0.8176 -0.3704
  665MOL0     C91651  12.404  10.225   7.295  0.8276  0.7230  0.6312
  665MOL0     C91652  12.437  10.184   7.430 -0.2788 -0.2020  0.2216
  665MOL0     C91653  12.495  10.042   7.412  0.1571  0.7084  0.1981
  665MOL0     C91654  12.530   9.970   7.545 -0.5030  0.3763  0.3171
  665MOL0     C91655  12.412   9.922   7.628  0.1155 -0.0194 -0.1923
  665MOL0     O91656  12.357   9.803   7.562 -0.4662  0.8946 -0.5742
  665MOL0     C91657  12.219   9.801   7.539  0.6162  0.8983 -0.8717
  665MOL0     C91658  12.166   9.673   7.553  0.9832  0.1970  0.3404
  665MOL0     C91659  12.029   9.645   7.530 -0.8983  0.9480 -0.7420
  665MOL0     C91660  11.996   9.496   7.534 -0.6983 -1.2629  0.2884
  665MOL0     C91661  11.947   9.753   7.487  0.4378  1.2211 -0.3319
  665MOL0     C91662  11.805   9.738   7.466  0.1199 -0.3478 -0.5463
  665MOL0     O91663  11.734   9.638   7.521 -0.2839  0.1788  0.5961
  665MOL0     C91664  11.609   9.623   7.476 -0.0419 -0.6791 -1.2843
  665MOL0     C91665  11.493   9.679   7.529 -0.0222  0.4145 -0.1631
  665MOL0     C91666  11.364   9.659   7.461  0.2849  0.0051  0.0162
  665MOL0     C91667  11.352   9.566   7.360  0.6352 -0.0467  0.5769
  665MOL0     O91668  11.228   9.541   7.316 -0.3186  0.3138  0.1350
  665MOL0     C91669  11.199   9.419   7.256  0.1887 -0.0728  0.4093
  665MOL0     C91670  11.039   9.395   7.253  1.0894  0.1059 -0.2962
  665MOL0     C91671  11.020   9.243   7.239  0.4319  0.2435 -0.6136
  665MOL0     C91672  10.870   9.205   7.199 -0.3011  0.1037  0.0001
  665MOL0     C91673  10.777   9.239   7.323  0.2757 -0.4909  0.1713
  665MOL0     C91674  10.627   9.216   7.303 -0.1684 -0.0019  0.2091
  665MOL0     C91675  10.560   9.299   7.184 -0.9439  0.2667 -0.3063
  665MOL0     C91676  10.475   9.229   7.085  0.0611  0.4040  0.3263
  665MOL0    Cl91677  10.552   9.077   7.003  0.1919 -0.3494 -0.3301
  665MOL0     C91678  11.468   9.507   7.307 -0.0339  0.5718  0.2416
  665MOL0     C91679  11.599   9.538   7.363  1.0451 -1.0760 -0.5869
  665MOL0     O91680  11.748   9.818   7.389 -0.0506 -0.1771  1.0330
  665MOL0     C91681  12.006   9.877   7.471  0.7789  0.1042 -0.0189
  665MOL0     C91682  12.139   9.901   7.496  0.1137  0.0609 -0.0742
  665MOL0     N91683  12.314  10.158   7.208  0.4836  0.6638 -0.4445
  665MOL0     N91684  12.327  10.198   7.091 -1.0677 -0.3601 -0.0431
  665MOL0     C91685  11.942  10.460   6.199  0.5107  0.2272  0.4931
  665MOL0     C91686  11.805  10.474   6.164  0.1481 -0.1416 -0.1727
  665MOL0     C91687  11.342  10.523   6.264 -0.7622 -0.7953 -0.7887
  665MOL0     C91688  11.235  10.527   6.351  0.2942  0.2520  0.5913
  665MOL0     C91689  11.100  10.528   6.303  0.2382 -0.3772  0.5511
  665MOL0     C91690  11.074  10.516   6.169 -0.3145  1.2095 -0.3202
  665MOL0     O91691  10.950  10.519   6.112 -0.0706 -0.6243  0.5662
  665MOL0     C91692  10.841  10.576   6.194  0.6407  0.0946  0.5057
  665MOL0     C91693  10.722  10.600   6.097  0.1918  0.1536  0.4507
  665MOL0     C91694  10.738  10.720   5.997  0.4206  0.4035 -0.4270
  665MOL0     C91695  10.716  10.862   6.049 -0.5245  0.5054 -0.4635
  665MOL0     C91696  10.619  10.864   6.148  0.6714 -0.6065  0.0261
  665MOL0     C91697  10.530  10.870   6.227  1.2007  0.3366  0.1438
  665MOL0     C91698  11.180  10.496   6.086 -0.3545 -0.7606 -0.6878
  665MOL0     C91699  11.309  10.505   6.128 -0.3503  0.3962  0.7637
  665MOL0     C91700  11.416  10.484   6.027  0.4340  0.6967 -0.2166
  665MOL0     H91701  11.723  10.630   6.459  2.4255  0.1367  1.6195
  665MOL0     H91702  11.957  10.611   6.502  2.0368 -4.3052  1.1820
  665MOL0     H91703  12.159  10.525   6.546  0.5950  2.6729  0.8470
  665MOL0     H91704  12.177  10.664   6.446  2.8366 -0.5292  2.1777
  665MOL0     H91705  12.362  10.427   6.481 -1.7584  0.6340  0.1520
  665MOL0     H91706  12.379  10.500   6.322  1.3825 -3.3442  0.5592
  665MOL0     H91707  12.492  10.672   6.391 -1.2384  0.1108 -1.0948
  665MOL0     H91708  12.395  10.729   6.520  1.3022 -0.6446  0.4289
  665MOL0     H91709  12.609  10.532   6.546  1.8465  2.2280 -0.2802
  665MOL0     H91710  12.586  10.689   6.627  2.2371  0.5521 -2.9556
  665MOL0     H91711  12.428  10.440   6.691 -0.3984 -1.1174  1.1098
  665MOL0     H91712  12.393  10.592   6.754  0.0827  0.5934 -2.0654
  665MOL0     H91713  12.670  10.458   6.807  0.2506  1.0698  1.5461
  665MOL0     H91714  12.625  10.629   6.827 -0.5548  0.0802 -1.0611
  665MOL0     H91715  12.432  10.556   6.971 -0.3572 -0.6574 -2.8115
  665MOL0     H91716  12.583  10.517   7.052 -3.0009  1.5678  1.4047
  665MOL0     H91717  12.408  10.322   6.888  1.0666 -1.4216 -0.4152
  665MOL0     H91718  12.574  10.289   6.957 -0.4822 -1.7847  1.6102
  665MOL0     H91719  12.562  10.375   7.234 -1.9056  2.4622 -0.8932
  665MOL0     H91720  12.347  10.203   7.490 -0.6396  1.0836 -0.6854
  665MOL0     H91721  12.520  10.237   7.477  1.9436 -2.9329 -0.3688
  665MOL0     H91722  12.426   9.982   7.352  0.6739  0.8236 -0.5208
  665MOL0     H91723  12.590  10.039   7.357  1.2144  1.8073  1.8539
  665MOL0     H91724  12.593   9.882   7.527  0.5497  0.6459  2.4109
  665MOL0     H91725  12.589  10.024   7.619  0.7719 -4.5161  3.3630
  665MOL0     H91726  12.446   9.903   7.730 -0.5209 -0.3405 -0.0298
  665MOL0     H91727  12.332   9.997   7.635  0.3859  0.3318 -0.7773
  665MOL0     H91728  12.236   9.593   7.574 -0.1229 -0.4010  1.9939
  665MOL0     H91729  11.908   9.487   7.597 -1.2475  2.0299  0.1478
  665MOL0     H91730  12.079   9.430   7.562 -0.2882 -1.7339 -1.8369
  665MOL0     H91731  11.964   9.469   7.433  1.9568  1.3394 -1.3988
  665MOL0     H91732  11.493   9.750   7.610  3.5452  0.5633 -0.1455
  665MOL0     H91733  11.281   9.702   7.517  2.6707  0.2370  3.7234
  665MOL0     H91734  11.243   9.412   7.157  0.5349  1.0593  0.4750
  665MOL0     H91735  11.241   9.336   7.314 -2.8127 -1.1105  1.2862
  665MOL0     H91736  10.999   9.423   7.350  1.7959  0.1158  0.0022
  665MOL0     H91737  11.002   9.459   7.172 -0.1672  1.4921  1.3059
  665MOL0     H91738  11.042   9.200   7.337 -0.8909  1.5888  0.3312
  665MOL0     H91739  11.093   9.198   7.172  0.3162  0.3306 -0.8002
  665MOL0     H91740  10.864   9.097   7.182 -1.3306  0.4271 -2.0004
  665MOL0     H91741  10.837   9.269   7.116 -1.7593  1.0248  1.2451
  665MOL0     H91742  10.814   9.172   7.401 -0.8841 -0.5786  0.6729
  665MOL0     H91743  10.794   9.345   7.344 -1.9314 -0.2276  0.8843
  665MOL0     H91744  10.572   9.232   7.396  1.5122 -1.0680  1.4483
  665MOL0     H91745  10.626   9.110   7.275  2.7833  0.6899 -3.1438
  665MOL0     H91746  10.627   9.366   7.128 -2.1124  1.5331 -0.2345
  665MOL0     H91747  10.499   9.377   7.229 -1.1091 -0.6624  1.1387
  665MOL0     H91748  10.448   9.298   7.004 -1.0393  1.3939  1.4904
  665MOL0     H91749  10.380   9.207   7.136  1.0002  0.4614  2.1757
  665MOL0     H91750  11.466   9.429   7.231 -0.0519  0.7268  0.0834
  665MOL0     H91751  11.683   9.494   7.310  2.3988 -0.9720  1.3539
  665MOL0     H91752  11.947   9.963   7.439  0.9742  0.3749  0.3380
  665MOL0     H91753  12.179   9.994   7.459  3.2225 -1.9954 -2.4375
  665MOL0     H91754  11.998  10.401   6.127  0.8104  2.8106 -1.5178
  665MOL0     H91755  11.756  10.440   6.074 -0.7634 -0.2245  0.3375
  665MOL0     H91756  11.264  10.544   6.454  1.2598  0.0909  0.3549
  665MOL0     H91757  11.022  10.540   6.378 -1.6341 -1.2456 -1.1480
  665MOL0     H91758  10.801  10.522   6.280  0.1602  1.6419  1.2951
  665MOL0     H91759  10.878  10.673   6.230 -2.4292  3.1534 -3.5660
  665MOL0     H91760  10.626  10.611   6.149  0.2407 -0.5156  0.6921
  665MOL0     H91761  10.711  10.513   6.033  1.3629 -0.3278  0.8614
  665MOL0     H91762  10.836  10.720   5.950  1.2563  1.1251  1.2468
  665MOL0     H91763  10.665  10.711   5.916  2.5182 -0.2426 -2.3286
  665MOL0     H91764  10.696  10.941   5.975 -1.9281 -0.3081 -0.9811
  665MOL0     H91765  10.813  10.887   6.093 -0.6866 -1.6536  1.2658
  665MOL0     H91766  10.444  10.883   6.289  1.1651  0.5624  0.0489
  665MOL0     H91767  11.163  10.477   5.980 -0.8502 -1.4032 -0.4980
  665MOL0     H91768  11.490  10.413   6.063 -0.2551  0.2420  0.3375
  665MOL0     H91769  11.378  10.451   5.930  1.0067 -0.7534  0.0291
  665MOL0     H91770  11.474  10.575   6.012  1.8503 -0.2356 -0.5642
  666MOL0     O91771   4.441   8.474   6.727 -0.6506 -0.4603  1.2022
  666MOL0     C91772   4.484   8.428   6.831  0.1025  0.9205 -0.1092
  666MOL0     O91773   4.525   8.297   6.833  0.0459  0.2229  0.3177
  666MOL0     C91774   4.471   8.207   6.743 -0.5359  0.0297  0.3493
  666MOL0     C91775   4.550   8.107   6.692  0.5933 -0.1545 -0.2846
  666MOL0     C91776   4.494   8.008   6.616  0.5728  0.1646 -1.3654
  666MOL0     C91777   4.359   7.997   6.574 -0.1302 -1.0603  0.8488
  666MOL0     O91778   4.317   7.889   6.501 -0.0991  0.3613 -0.2844
  666MOL0     C91779   4.228   7.911   6.389  0.4804  0.5954 -0.9937
  666MOL0     C91780   4.319   7.961   6.274 -0.3316 -0.4159 -0.4736
  666MOL0     C91781   4.381   8.106   6.293  0.4801 -0.9987 -0.6059
  666MOL0     C91782   4.382   8.213   6.186 -0.7787 -0.7260  0.2289
  666MOL0     C91783   4.441   8.347   6.248 -0.1630  0.1091  0.1100
  666MOL0     C91784   4.452   8.452   6.135  0.2242 -0.3688  1.4688
  666MOL0     C91785   4.492   8.591   6.179  0.5426 -0.5655 -0.8754
  666MOL0     C91786   4.615   8.602   6.264  0.1691 -0.9077 -0.8347
  666MOL0     N91787   4.638   8.741   6.297 -0.2517 -0.8814  0.1561
  666MOL0     C91788   4.591   8.817   6.404 -0.2551  1.0558  0.2942
  666MOL0     C91789   4.663   8.932   6.398  0.4575  1.0296 -0.2042
  666MOL0     C91790   4.650   9.024   6.514 -0.0893  0.4758  0.6670
  666MOL0     C91791   4.775   9.018   6.617  0.2492 -0.2976 -0.2093
  666MOL0     C91792   4.778   8.891   6.693 -0.6723  0.2631  0.2782
  666MOL0     C91793   4.879   8.908   6.809 -0.4336 -0.5923 -0.5489
  666MOL0     O91794   4.825   8.991   6.914  1.0069 -1.0849 -0.2145
  666MOL0     C91795   4.914   9.082   6.963 -0.4481  0.2825 -0.1085
  666MOL0     C91796   4.938   9.079   7.099  0.2899  0.3314  0.2733
  666MOL0     C91797   5.023   9.173   7.165 -0.9423 -0.2434 -0.6383
  666MOL0     C91798   5.046   9.163   7.316 -0.3584 -0.2790 -0.3000
  666MOL0     C91799   5.090   9.276   7.084  0.1614 -0.0101 -0.5978
  666MOL0     C91800   5.182   9.378   7.135  1.0155  0.1673  0.1439
  666MOL0     O91801   5.202   9.482   7.041 -0.0158 -0.4154  0.3469
  666MOL0     C91802   5.291   9.579   7.088  0.2502  0.4941 -0.2879
  666MOL0     C91803   5.257   9.708   7.060 -0.3992  1.1299  0.4423
  666MOL0     C91804   5.346   9.810   7.096  0.1104  0.3019  0.0314
  666MOL0     C91805   5.470   9.788   7.172 -0.1004  0.8437 -0.1348
  666MOL0     O91806   5.564   9.879   7.216  0.2511 -0.2437 -0.4670
  666MOL0     C91807   5.546  10.015   7.183  0.7731  0.2767  0.3748
  666MOL0     C91808   5.683  10.087   7.191 -0.4483 -0.0182 -0.5816
  666MOL0     C91809   5.780  10.058   7.074 -1.3264  0.0421 -0.0461
  666MOL0     C91810   5.925  10.120   7.094  0.1404  0.2405 -0.7435
  666MOL0     C91811   6.022  10.125   6.980 -0.3427 -0.5155 -0.1525
  666MOL0     C91812   5.962  10.171   6.848  0.8409  0.5646  0.2402
  666MOL0     C91813   5.915  10.050   6.761 -0.9486 -0.2570 -1.5441
  666MOL0     C91814   5.869  10.087   6.626  0.5427 -0.1855  0.5727
  666MOL0    Cl91815   5.832   9.935   6.526 -0.1127 -0.3360  0.3370
  666MOL0     C91816   5.502   9.649   7.202 -0.4622  0.4471  0.3467
  666MOL0     C91817   5.416   9.551   7.146 -0.7515 -0.3631 -0.5663
  666MOL0     O91818   5.225   9.371   7.253 -0.1641 -0.3269 -0.1858
  666MOL0     C91819   5.056   9.276   6.946  0.6302 -0.5592 -0.8935
  666MOL0     C91820   4.972   9.190   6.893  0.1837  0.1195  0.5523
  666MOL0     N91821   4.729   8.939   6.271 -0.2080  0.6196  0.3876
  666MOL0     N91822   4.716   8.822   6.218  0.1048  0.0353 -0.4267
  666MOL0     C91823   4.276   8.099   6.622  1.1199 -0.9934  0.5121
  666MOL0     C91824   4.341   8.201   6.703  0.7232 -0.1373 -1.1260
  666MOL0     C91825   4.532   8.517   6.942  0.4892  0.5968  0.0209
  666MOL0     C91826   4.593   8.644   6.910  0.1809  1.3414  0.0074
  666MOL0     C91827   4.612   8.738   7.004 -0.6223  0.2161 -0.8846
  666MOL0     C91828   4.610   8.708   7.137 -0.3764 -0.5100 -0.7579
  666MOL0     O91829   4.653   8.805   7.217  0.0510  0.0464 -0.6042
  666MOL0     C91830   4.709   8.782   7.350  0.2062 -0.0733 -1.0197
  666MOL0     C91831   4.801   8.655   7.368  0.0706 -0.7783  0.0551
  666MOL0     C91832   4.914   8.677   7.477  0.6090  0.4317  0.1210
  666MOL0     C91833   5.014   8.789   7.452 -0.3253  0.6784 -0.0644
  666MOL0     C91834   5.069   8.783   7.315  0.3789  0.5459 -0.5897
  666MOL0     C91835   5.121   8.788   7.206  0.1895 -0.0143 -0.2330
  666MOL0     C91836   4.566   8.575   7.174  1.1581 -1.0918  0.1054
  666MOL0     C91837   4.514   8.489   7.077 -0.5671 -0.1485 -0.5639
  666MOL0     C91838   4.457   8.358   7.125 -0.5558  0.0795 -0.4442
  666MOL0     H91839   4.655   8.104   6.718  0.3359 -2.0202  0.7409
  666MOL0     H91840   4.568   7.936   6.582  1.3398  0.9653 -1.4061
  666MOL0     H91841   4.153   7.981   6.426 -0.3642 -0.9865  0.4257
  666MOL0     H91842   4.183   7.816   6.357 -0.2320 -0.0403  1.6225
  666MOL0     H91843   4.394   7.885   6.249  1.1334  0.6402  0.5718
  666MOL0     H91844   4.253   7.979   6.189 -0.5504  1.0877 -0.0042
  666MOL0     H91845   4.326   8.155   6.374 -0.5000 -1.0574 -1.2196
  666MOL0     H91846   4.480   8.098   6.338  0.1072  0.2130  0.4973
  666MOL0     H91847   4.443   8.174   6.105  0.7426 -1.6448  1.7681
  666MOL0     H91848   4.281   8.220   6.145 -1.4207 -1.8298  1.5386
  666MOL0     H91849   4.539   8.331   6.294 -1.1405  0.2309  2.3759
  666MOL0     H91850   4.369   8.392   6.317  0.2366  1.9034 -0.5767
  666MOL0     H91851   4.513   8.415   6.051  0.3824  3.2254 -0.2035
  666MOL0     H91852   4.355   8.456   6.084 -1.7315 -1.3336  4.7813
  666MOL0     H91853   4.408   8.641   6.229  1.4410 -0.1976  0.3221
  666MOL0     H91854   4.510   8.651   6.089  0.2509  2.2199  0.8081
  666MOL0     H91855   4.597   8.552   6.359 -0.0840 -0.6483 -0.7426
  666MOL0     H91856   4.693   8.552   6.206 -0.1914 -1.9840 -0.4124
  666MOL0     H91857   4.529   8.778   6.484  1.7474 -1.6785  0.6469
  666MOL0     H91858   4.558   9.004   6.568 -0.5430  1.6465  0.3564
  666MOL0     H91859   4.640   9.124   6.470 -0.8212  1.1818  2.3871
  666MOL0     H91860   4.870   9.031   6.565  1.2987 -0.8942  1.4722
  666MOL0     H91861   4.757   9.103   6.684  1.0202  0.1856 -0.6040
  666MOL0     H91862   4.676   8.871   6.729  0.4907 -0.4087  3.5613
  666MOL0     H91863   4.802   8.800   6.637  0.2308  0.5217  0.2314
  666MOL0     H91864   4.882   8.805   6.846  1.1111 -0.3254  0.1192
  666MOL0     H91865   4.975   8.946   6.773 -0.9541 -0.3006 -1.6721
  666MOL0     H91866   4.907   8.987   7.147 -1.1987  0.7301  0.1006
  666MOL0     H91867   4.973   9.091   7.354 -2.1285  0.6141 -1.8293
  666MOL0     H91868   5.015   9.244   7.383  0.1100 -3.5325  4.2945
  666MOL0     H91869   5.152   9.147   7.335  0.1088  1.4281 -1.2015
  666MOL0     H91870   5.164   9.738   7.014 -0.4296 -1.1418 -1.1416
  666MOL0     H91871   5.315   9.913   7.080  1.0278  0.5830 -0.0349
  666MOL0     H91872   5.498  10.040   7.088 -1.3474  0.9523  1.5541
  666MOL0     H91873   5.477  10.058   7.256 -3.6755  2.1908 -4.3331
  666MOL0     H91874   5.673  10.196   7.187 -0.2896 -0.0075 -0.7751
  666MOL0     H91875   5.728  10.051   7.284 -0.7796 -0.3072 -0.5346
  666MOL0     H91876   5.737  10.099   6.983  4.4635  1.5747 -2.5934
  666MOL0     H91877   5.804   9.951   7.067  0.6938  0.4645 -0.3145
  666MOL0     H91878   5.965  10.054   7.172  0.1850  0.3251 -0.6953
  666MOL0     H91879   5.914  10.219   7.140 -1.9471  0.1880 -1.0481
  666MOL0     H91880   6.104  10.194   7.003 -0.6488 -0.2301  0.0813
  666MOL0     H91881   6.076  10.030   6.972 -4.4427 -3.4082  2.2494
  666MOL0     H91882   6.028  10.236   6.790 -0.3097 -0.8637 -2.9602
  666MOL0     H91883   5.873  10.228   6.875  0.6803  0.7758 -0.6899
  666MOL0     H91884   5.835   9.991   6.806  0.0374  0.3936  1.2574
  666MOL0     H91885   6.007   9.991   6.756 -0.2784  0.4225  1.0842
  666MOL0     H91886   5.946  10.148   6.577  1.6823 -2.6935 -0.9789
  666MOL0     H91887   5.770  10.132   6.632  0.3870 -0.7369  2.8152
  666MOL0     H91888   5.603   9.631   7.237 -1.5064 -2.9778  2.1282
  666MOL0     H91889   5.454   9.451   7.158 -2.7829 -0.8809  3.0135
  666MOL0     H91890   5.070   9.362   6.881 -1.2055  1.6166  1.4024
  666MOL0     H91891   4.938   9.205   6.791  3.1015 -0.5722 -0.6059
  666MOL0     H91892   4.170   8.103   6.599  0.6756 -1.7313  2.2744
  666MOL0     H91893   4.272   8.279   6.736 -0.1006 -1.2905 -0.0473
  666MOL0     H91894   4.619   8.656   6.805 -0.3332 -0.6228 -0.3902
  666MOL0     H91895   4.668   8.827   6.980  2.1853 -0.8983  0.9494
  666MOL0     H91896   4.762   8.876   7.369 -2.3582  0.9468  1.8935
  666MOL0     H91897   4.625   8.779   7.421  1.1694  0.4824  0.1752
  666MOL0     H91898   4.858   8.644   7.275 -2.6241  1.0642 -1.9955
  666MOL0     H91899   4.737   8.571   7.397 -0.6977 -1.2248 -2.6248
  666MOL0     H91900   4.863   8.682   7.573  1.2278 -0.5198  0.5159
  666MOL0     H91901   4.963   8.579   7.477 -1.2289 -0.5296  0.7968
  666MOL0     H91902   5.089   8.780   7.532  0.4350 -0.6896 -0.8928
  666MOL0     H91903   4.982   8.893   7.467  0.8053  0.7861  1.9877
  666MOL0     H91904   5.159   8.780   7.106 -0.5790  2.6094 -0.7926
  666MOL0     H91905   4.552   8.540   7.276 -1.9133 -2.2882 -0.6174
  666MOL0     H91906   4.518   8.275   7.091 -3.5306 -1.6285 -2.0510
  666MOL0     H91907   4.463   8.344   7.234  1.9420 -2.2866 -0.8123
  666MOL0     H91908   4.353   8.350   7.092 -1.6335 -1.4880  2.8376
  667MOL0     O91909   6.687   6.678   9.201  1.2772 -0.2089 -0.4928
  667MOL0     C91910   6.794   6.652   9.150  0.0910 -1.0757  1.0616
  667MOL0     O91911   6.869   6.555   9.173  0.1547  0.3903  0.4448
  667MOL0     C91912   6.840   6.480   9.285  0.5998  1.1435 -0.0822
  667MOL0     C91913   6.802   6.343   9.266 -0.8845 -0.2106  0.1739
  667MOL0     C91914   6.775   6.266   9.375  0.6797  0.0155  0.0875
  667MOL0     C91915   6.780   6.308   9.503 -0.8074  0.0106 -0.3695
  667MOL0     O91916   6.760   6.223   9.611 -0.0147 -0.7074 -0.5590
  667MOL0     C91917   6.803   6.085   9.605  0.0437 -0.8894  1.0127
  667MOL0     C91918   6.791   6.027   9.745 -0.5612  0.2810  0.2698
  667MOL0     C91919   6.845   5.891   9.758  0.3114  0.1506 -0.0262
  667MOL0     C91920   6.773   5.787   9.673  0.8625  0.6389  0.1984
  667MOL0     C91921   6.852   5.652   9.670  0.4806  0.2103 -0.3676
  667MOL0     C91922   6.834   5.567   9.799 -0.6388  0.1933 -0.0644
  667MOL0     C91923   6.715   5.476   9.793  0.2524 -0.1418 -0.8967
  667MOL0     C91924   6.683   5.426   9.931  0.0378  0.5605 -0.3446
  667MOL0     N91925   6.772   5.312   9.960 -0.3789 -0.2734 -0.1594
  667MOL0     C91926   6.740   5.181   9.911 -0.2630 -0.5601 -0.2258
  667MOL0     C91927   6.854   5.116   9.946  0.5612 -0.5512  0.0836
  667MOL0     C91928   6.874   4.970   9.924 -0.1867 -0.0558 -0.2500
  667MOL0     C91929   7.000   4.954   9.832 -0.0368 -0.4138  1.0086
  667MOL0     C91930   6.969   5.025   9.694 -0.0311  0.4732  1.5180
  667MOL0     C91931   7.011   4.937   9.576  0.6602  0.4464  0.1704
  667MOL0     O91932   7.148   4.891   9.578  0.4070 -0.1736 -0.8861
  667MOL0     C91933   7.240   4.998   9.579  0.3163 -0.0954 -0.7825
  667MOL0     C91934   7.335   4.998   9.680  0.1972 -0.2135  0.6611
  667MOL0     C91935   7.439   5.087   9.677  0.2337 -0.3865  0.4125
  667MOL0     C91936   7.535   5.098   9.787 -0.6951 -1.1206 -0.2194
  667MOL0     C91937   7.454   5.184   9.561  1.4843  0.5073  0.6001
  667MOL0     C91938   7.556   5.297   9.544  0.3263  0.8306  0.2984
  667MOL0     O91939   7.564   5.346   9.417  0.5355  1.0916 -0.5207
  667MOL0     C91940   7.652   5.446   9.389  0.0261 -0.9274  0.0176
  667MOL0     C91941   7.722   5.432   9.268  0.0561  0.5078  0.2975
  667MOL0     C91942   7.798   5.543   9.219  0.3675 -0.1327  1.1620
  667MOL0     C91943   7.819   5.657   9.295 -0.7390  0.1313 -0.9422
  667MOL0     O91944   7.906   5.751   9.246 -0.4693  0.6089 -0.0603
  667MOL0     C91945   7.931   5.876   9.309  0.4121  0.7741 -0.0772
  667MOL0     C91946   8.048   5.952   9.237 -0.6058 -0.9327 -0.7391
  667MOL0     C91947   8.061   6.098   9.293  1.1071  0.1075  0.7767
  667MOL0     C91948   8.200   6.139   9.323  0.0942  0.1734  0.4909
  667MOL0     C91949   8.220   6.276   9.382  0.7677  0.2067  0.1359
  667MOL0     C91950   8.189   6.394   9.283 -1.3518  0.7762  1.0887
  667MOL0     C91951   8.217   6.536   9.326 -0.4485  0.5117 -0.9435
  667MOL0     C91952   8.094   6.613   9.387  0.3503  0.3992  0.0823
  667MOL0    Cl91953   7.974   6.676   9.278  0.1116 -0.2529  0.1393
  667MOL0     C91954   7.755   5.660   9.419  0.3738 -0.3536  0.0302
  667MOL0     C91955   7.663   5.563   9.464 -1.3324  0.4638 -0.4462
  667MOL0     O91956   7.626   5.336   9.634 -0.1054 -0.1955  0.3366
  667MOL0     C91957   7.348   5.174   9.465 -0.2278 -0.6351 -1.1632
  667MOL0     C91958   7.248   5.082   9.467  0.3369  0.5725  0.5866
  667MOL0     N91959   6.946   5.200  10.009  0.2672 -0.4021  0.8219
  667MOL0     N91960   6.890   5.321  10.029  0.5569 -0.3061 -0.3208
  667MOL0     C91961   6.826   6.440   9.522 -0.7024  0.6138 -0.1988
  667MOL0     C91962   6.857   6.521   9.412 -0.2807 -0.3384 -0.2676
  667MOL0     C91963   6.855   6.761   9.064  0.5656 -0.5166  0.4750
  667MOL0     C91964   6.996   6.786   9.076 -0.2980  0.3392  0.8415
  667MOL0     C91965   7.054   6.894   9.022 -0.6785  0.8911  0.4042
  667MOL0     C91966   6.987   6.986   8.949  0.1935 -0.6393  0.5594
  667MOL0     O91967   7.034   7.097   8.890  0.2916 -0.4034  0.5614
  667MOL0     C91968   6.996   7.219   8.949 -0.2496  0.4195  0.2146
  667MOL0     C91969   7.106   7.286   9.035 -1.3658  0.0612  0.4765
  667MOL0     C91970   7.029   7.381   9.143 -0.4917  0.2687 -0.1165
  667MOL0     C91971   7.020   7.298   9.272  0.0479 -0.6364  0.5264
  667MOL0     C91972   6.941   7.172   9.269 -0.3915 -0.1684 -0.1248
  667MOL0     C91973   6.870   7.076   9.256  0.3345 -1.2019  0.6702
  667MOL0     C91974   6.856   6.953   8.922  0.1265 -0.0979  0.1022
  667MOL0     C91975   6.780   6.845   8.978 -0.4873 -0.6325  0.2963
  667MOL0     C91976   6.631   6.831   8.939 -0.2740 -0.3759  0.7554
  667MOL0     H91977   6.792   6.314   9.162  0.4250  4.3878 -1.4819
  667MOL0     H91978   6.746   6.165   9.347  0.2578  0.1278  0.1264
  667MOL0     H91979   6.904   6.071   9.566 -0.2435  0.4150 -0.2729
  667MOL0     H91980   6.732   6.043   9.533 -1.1548  2.1442  0.2807
  667MOL0     H91981   6.847   6.085   9.819 -1.3557  0.5830  0.6463
  667MOL0     H91982   6.687   6.037   9.780 -1.6672 -1.9216 -2.0583
  667MOL0     H91983   6.953   5.894   9.741  0.1631 -0.2621 -1.1428
  667MOL0     H91984   6.833   5.866   9.864  1.6257 -0.4678  0.0019
  667MOL0     H91985   6.668   5.783   9.703  0.6309  5.1873  0.7009
  667MOL0     H91986   6.773   5.832   9.573 -2.7592  4.0637  1.4878
  667MOL0     H91987   6.961   5.656   9.664  0.6336 -0.6192  1.2860
  667MOL0     H91988   6.816   5.592   9.585 -2.2152  0.8778  0.1933
  667MOL0     H91989   6.923   5.502   9.805 -0.8302  0.0055  0.8903
  667MOL0     H91990   6.840   5.633   9.886  0.6290  0.6229 -0.4580
  667MOL0     H91991   6.719   5.391   9.725  3.0295  0.6003 -1.8275
  667MOL0     H91992   6.631   5.542   9.769  0.3067  1.6023  2.9510
  667MOL0     H91993   6.685   5.503  10.008 -0.7257  1.5217 -1.2678
  667MOL0     H91994   6.580   5.391   9.929 -0.5702  2.3340 -1.7905
  667MOL0     H91995   6.652   5.140   9.863 -2.3249  1.6953  1.3831
  667MOL0     H91996   6.784   4.929   9.879 -0.9635  1.4230 -0.1070
  667MOL0     H91997   6.889   4.929  10.025 -2.3041 -0.4947 -0.0737
  667MOL0     H91998   7.083   5.008   9.878 -1.9010  2.6894  1.0213
  667MOL0     H91999   7.029   4.848   9.836  1.5476 -0.0105  0.6922
  667MOL0     H92000   6.864   5.054   9.683 -0.0187  0.1151  0.3628
  667MOL0     H92001   7.026   5.118   9.684 -0.5831  0.9681  2.7173
  667MOL0     H92002   6.937   4.856   9.565 -1.4917  2.1932  0.8985
  667MOL0     H92003   6.999   4.994   9.484 -0.1582  1.0734  0.6447
  667MOL0     H92004   7.314   4.929   9.761  0.4789 -1.0207  0.0564
  667MOL0     H92005   7.636   5.100   9.745 -0.3621 -3.2591  0.3920
  667MOL0     H92006   7.526   5.008   9.848  0.4979 -0.3163  1.2002
  667MOL0     H92007   7.522   5.195   9.838  1.9668 -1.0136  0.4123
  667MOL0     H92008   7.700   5.345   9.207  0.3322  0.8613 -0.3188
  667MOL0     H92009   7.847   5.531   9.123 -3.5815 -0.3464 -1.0214
  667MOL0     H92010   7.840   5.935   9.300  0.8257  1.4544  0.1310
  667MOL0     H92011   7.944   5.863   9.417 -2.9074 -0.1084  0.3021
  667MOL0     H92012   8.143   5.900   9.247 -0.3136 -0.9691 -3.0727
  667MOL0     H92013   8.019   5.963   9.132 -1.5560 -1.3422 -0.5323
  667MOL0     H92014   8.019   6.103   9.394 -0.1248  0.1384  0.2794
  667MOL0     H92015   7.995   6.164   9.237 -2.9049 -0.9796  3.7639
  667MOL0     H92016   8.259   6.127   9.232 -0.7686 -0.8088  0.0454
  667MOL0     H92017   8.237   6.069   9.398  1.8305 -1.6780 -1.9501
  667MOL0     H92018   8.153   6.294   9.467  1.1005  2.3334 -0.0026
  667MOL0     H92019   8.323   6.275   9.418  0.9025  1.7957 -0.1416
  667MOL0     H92020   8.086   6.379   9.249 -0.4983 -0.6429 -1.0884
  667MOL0     H92021   8.250   6.371   9.195 -2.7325 -1.2686  0.5960
  667MOL0     H92022   8.255   6.597   9.243 -1.3810  0.6214 -1.2999
  667MOL0     H92023   8.290   6.527   9.407 -1.4062  0.3458 -0.0776
  667MOL0     H92024   8.136   6.692   9.450  1.5866  0.4165 -0.7105
  667MOL0     H92025   8.041   6.538   9.446 -0.1631 -0.3246 -1.2429
  667MOL0     H92026   7.780   5.748   9.478  4.7133 -1.2187 -0.2157
  667MOL0     H92027   7.610   5.575   9.558  1.5652 -2.2222  1.7478
  667MOL0     H92028   7.345   5.253   9.390 -0.2621  0.1794 -0.3190
  667MOL0     H92029   7.185   5.060   9.381 -0.5681 -2.3926  1.9053
  667MOL0     H92030   6.839   6.476   9.623 -1.5352  1.4831 -0.3827
  667MOL0     H92031   6.880   6.625   9.434  1.3988 -0.9006  0.8693
  667MOL0     H92032   7.057   6.731   9.147  0.6055  1.2116  0.7423
  667MOL0     H92033   7.156   6.919   9.050 -0.0141  0.0741 -1.1389
  667MOL0     H92034   6.977   7.279   8.860 -2.0197 -0.4495 -0.0442
  667MOL0     H92035   6.908   7.201   9.013 -0.4424 -2.7846 -0.7726
  667MOL0     H92036   7.185   7.341   8.982  0.9472 -1.7431  1.8097
  667MOL0     H92037   7.171   7.206   9.073  0.3789  0.5204 -1.3755
  667MOL0     H92038   7.086   7.471   9.166 -1.9026  1.0775  0.3422
  667MOL0     H92039   6.935   7.418   9.100  0.6579  1.6170 -1.5673
  667MOL0     H92040   6.981   7.357   9.356  0.3615  1.3418 -0.6594
  667MOL0     H92041   7.123   7.273   9.300 -0.2093 -1.1975  1.0002
  667MOL0     H92042   6.810   6.987   9.246 -2.9354  0.9949 -1.2404
  667MOL0     H92043   6.794   7.018   8.861  0.1717 -1.3326 -1.3214
  667MOL0     H92044   6.568   6.882   9.014 -0.0729 -0.4263  0.9605
  667MOL0     H92045   6.610   6.879   8.843  2.8718 -1.3223 -0.5093
  667MOL0     H92046   6.610   6.724   8.943  0.6767 -0.5380  2.5615
  668MOL0     O92047   4.318   5.555   5.076 -0.1425  0.0018 -0.6905
  668MOL0     C92048   4.355   5.441   5.090 -0.6688  0.2842 -0.5058
  668MOL0     O92049   4.289   5.326   5.049 -0.3419 -0.9038 -0.0456
  668MOL0     C92050   4.157   5.334   5.031 -0.2415  0.0221 -1.7714
  668MOL0     C92051   4.103   5.278   4.925  0.0149  1.1626  0.3602
  668MOL0     C92052   3.962   5.284   4.892 -0.8145 -0.4691  0.0112
  668MOL0     C92053   3.875   5.346   4.978 -0.3779 -0.6940  0.2671
  668MOL0     O92054   3.742   5.334   4.948  0.1584  0.1748  0.3386
  668MOL0     C92055   3.704   5.319   4.809 -0.3583 -0.2917 -0.0084
  668MOL0     C92056   3.559   5.346   4.795 -0.8941 -0.0281 -0.6748
  668MOL0     C92057   3.525   5.314   4.646 -0.1036  0.0444 -0.6332
  668MOL0     C92058   3.372   5.327   4.622 -0.4396  0.4674  0.5413
  668MOL0     C92059   3.338   5.282   4.477  0.1679  0.3374 -0.5397
  668MOL0     C92060   3.188   5.288   4.446  0.2241  0.0319 -0.8956
  668MOL0     C92061   3.154   5.219   4.318  0.9906  0.4337  1.3568
  668MOL0     C92062   3.010   5.242   4.262 -0.3628  0.7492 -0.1923
  668MOL0     N92063   2.932   5.116   4.296  0.3752  0.1749 -0.4068
  668MOL0     C92064   2.864   5.097   4.418 -0.7348  0.2622  0.0280
  668MOL0     C92065   2.802   4.979   4.406  0.2468 -0.3969 -0.3669
  668MOL0     C92066   2.707   4.919   4.507  0.5010 -0.1999 -0.3612
  668MOL0     C92067   2.583   4.992   4.505 -0.2329 -0.0906 -0.2629
  668MOL0     C92068   2.467   4.914   4.560 -0.1758 -0.0867 -0.4583
  668MOL0     C92069   2.472   4.914   4.713  1.0396  0.0212 -1.4749
  668MOL0     O92070   2.367   4.832   4.770  0.1724  0.0875 -0.1036
  668MOL0     C92071   2.240   4.872   4.781  0.0582 -0.3854 -1.0849
  668MOL0     C92072   2.183   4.980   4.739  0.3331  0.6145  0.7259
  668MOL0     C92073   2.053   5.019   4.763 -0.1186 -0.1267 -0.4571
  668MOL0     C92074   2.005   5.154   4.720  0.5144 -0.3043  0.1486
  668MOL0     C92075   1.975   4.933   4.840 -0.5992  0.5131  0.9461
  668MOL0     C92076   1.832   4.945   4.865 -0.3487  0.5788 -0.2135
  668MOL0     O92077   1.764   5.019   4.772  0.0960 -0.4361  0.1252
  668MOL0     C92078   1.635   5.054   4.797 -0.8925 -0.8593  0.2648
  668MOL0     C92079   1.584   5.117   4.911  0.2656 -0.8075  0.2182
  668MOL0     C92080   1.455   5.167   4.914  0.0825 -0.7089 -0.2258
  668MOL0     C92081   1.368   5.156   4.800  0.1635 -0.3672 -0.2169
  668MOL0     O92082   1.232   5.205   4.805 -0.7899  0.5368  0.1439
  668MOL0     C92083   1.134   5.112   4.763 -0.2812  0.0192  0.8183
  668MOL0     C92084   1.064   5.052   4.881  0.2133 -0.0909 -0.0703
  668MOL0     C92085   0.988   5.165   4.967  0.6496 -0.1972  0.4913
  668MOL0     C92086   0.900   5.104   5.084  0.6297  0.0302 -0.8450
  668MOL0     C92087   0.822   5.204   5.167 -0.1732 -0.2052 -0.2773
  668MOL0     C92088   0.801   5.145   5.306  1.2671  0.1754 -0.5204
  668MOL0     C92089   0.720   5.234   5.397 -0.4270 -1.6031  0.5059
  668MOL0     C92090   0.795   5.347   5.458 -0.5940 -0.2324 -0.4406
  668MOL0    Cl92091   0.688   5.438   5.577 -0.0420  0.2446  0.2593
  668MOL0     C92092   1.420   5.094   4.682 -0.4723  0.3359 -1.1931
  668MOL0     C92093   1.551   5.042   4.686 -0.5749  0.1276 -0.0867
  668MOL0     O92094   1.781   4.902   4.971 -0.2545 -0.2561 -0.3045
  668MOL0     C92095   2.034   4.806   4.877  0.8349 -0.3926 -0.2461
  668MOL0     C92096   2.162   4.775   4.843  0.5584 -0.4721 -0.0173
  668MOL0     N92097   2.828   4.925   4.282 -0.5653  0.4522  0.6566
  668MOL0     N92098   2.906   5.011   4.215 -0.0188  0.9380 -0.5268
  668MOL0     C92099   3.930   5.408   5.089  0.3414  0.1344  1.8321
  668MOL0     C92100   4.068   5.406   5.114  0.2890 -0.6527 -0.6559
  668MOL0     C92101   4.490   5.420   5.147 -0.1926  0.2972 -0.1417
  668MOL0     C92102   4.544   5.293   5.150  0.6634 -0.5445  0.0402
  668MOL0     C92103   4.669   5.272   5.204  0.2723  0.3176 -0.0318
  668MOL0     C92104   4.746   5.367   5.269  0.8290  0.4513 -0.1884
  668MOL0     O92105   4.859   5.334   5.332  0.1349  0.0283 -0.0133
  668MOL0     C92106   4.973   5.296   5.248  0.7240 -0.1683 -0.2557
  668MOL0     C92107   5.029   5.403   5.155  0.2251  0.7390 -0.9587
  668MOL0     C92108   5.068   5.544   5.208 -0.0205 -1.4066  0.3976
  668MOL0     C92109   5.196   5.545   5.294  0.2192  0.7245  0.2541
  668MOL0     C92110   5.178   5.659   5.378 -0.5973 -0.4840 -0.6103
  668MOL0     C92111   5.175   5.761   5.442  0.4204  0.5662  0.1843
  668MOL0     C92112   4.686   5.492   5.278  0.2263  0.9572  1.3773
  668MOL0     C92113   4.562   5.521   5.219 -0.1626 -0.3710  0.5057
  668MOL0     C92114   4.518   5.663   5.235 -0.4559 -0.1134  0.2259
  668MOL0     H92115   4.175   5.223   4.865  1.1476  2.4567  0.4880
  668MOL0     H92116   3.927   5.219   4.813  2.1267 -1.3604 -0.6818
  668MOL0     H92117   3.732   5.217   4.782 -1.9194 -1.1033  1.3038
  668MOL0     H92118   3.757   5.388   4.742  0.6814  0.9156  1.9327
  668MOL0     H92119   3.495   5.280   4.854 -3.8579  0.1619 -3.3785
  668MOL0     H92120   3.539   5.451   4.819  1.5852  0.6718 -1.2602
  668MOL0     H92121   3.577   5.395   4.595  0.2079  2.3516  2.9472
  668MOL0     H92122   3.552   5.214   4.613 -0.3372 -0.5875  1.0007
  668MOL0     H92123   3.330   5.255   4.693 -0.2535 -1.1050 -0.9056
  668MOL0     H92124   3.335   5.428   4.644 -1.4299  0.4068 -0.7625
  668MOL0     H92125   3.367   5.177   4.466  1.8702  0.6812  0.3231
  668MOL0     H92126   3.396   5.355   4.419 -0.4293 -0.0720 -1.6808
  668MOL0     H92127   3.134   5.234   4.524  2.7860 -1.8940 -0.2962
  668MOL0     H92128   3.158   5.393   4.444  2.4229  0.8311  1.4640
  668MOL0     H92129   3.176   5.112   4.320 -0.9875 -0.1512 -1.3199
  668MOL0     H92130   3.217   5.259   4.238 -1.8244 -0.5806 -1.6044
  668MOL0     H92131   2.957   5.331   4.298 -0.0153  2.0535 -2.7256
  668MOL0     H92132   3.011   5.265   4.155 -0.2683 -0.4237 -0.4622
  668MOL0     H92133   2.841   5.177   4.489 -3.8564  0.1909 -0.7814
  668MOL0     H92134   2.738   4.924   4.611  1.9222  1.4801 -0.8294
  668MOL0     H92135   2.689   4.813   4.483 -0.5710 -0.4011  1.1981
  668MOL0     H92136   2.590   5.091   4.552 -1.5979 -0.6647  1.2429
  668MOL0     H92137   2.548   5.005   4.402 -0.8256  0.0966 -0.0457
  668MOL0     H92138   2.388   4.981   4.527 -0.9072  0.4258  2.1158
  668MOL0     H92139   2.465   4.814   4.515  1.9089 -1.0739  1.4331
  668MOL0     H92140   2.570   4.891   4.756 -0.2667 -1.0430  1.1732
  668MOL0     H92141   2.458   5.015   4.754  1.0994 -0.8777  0.9190
  668MOL0     H92142   2.240   5.068   4.711 -2.5884  2.9477  1.6197
  668MOL0     H92143   1.955   5.137   4.624  1.1362 -0.7283 -0.1049
  668MOL0     H92144   2.093   5.220   4.714  2.3854 -2.7617 -4.3867
  668MOL0     H92145   1.946   5.197   4.801  1.2048 -2.0837  1.6572
  668MOL0     H92146   1.639   5.134   5.003 -1.5572 -2.7623  1.7802
  668MOL0     H92147   1.416   5.232   4.992  0.7599 -0.0093 -0.4524
  668MOL0     H92148   1.069   5.168   4.696  0.4391 -0.9555 -0.7569
  668MOL0     H92149   1.163   5.026   4.701  1.8921  1.7353 -0.7224
  668MOL0     H92150   0.987   4.981   4.852 -1.0986  1.0623  0.4970
  668MOL0     H92151   1.141   5.009   4.947 -0.1944 -0.2947  0.2777
  668MOL0     H92152   0.926   5.221   4.896  1.5559 -0.4793 -0.5464
  668MOL0     H92153   1.061   5.236   5.007  1.2248 -0.0565 -0.7630
  668MOL0     H92154   0.981   5.062   5.144  2.0647  0.7446 -2.2314
  668MOL0     H92155   0.838   5.022   5.046 -0.2940  0.2185  0.2061
  668MOL0     H92156   0.873   5.301   5.166 -2.5571  1.1387  0.1483
  668MOL0     H92157   0.730   5.225   5.111 -1.6548  1.0733  2.4015
  668MOL0     H92158   0.893   5.116   5.357  0.8613  2.9549  2.0735
  668MOL0     H92159   0.732   5.061   5.301  2.2166 -0.6345 -0.3336
  668MOL0     H92160   0.693   5.175   5.484  0.1845  0.1187  1.9251
  668MOL0     H92161   0.626   5.266   5.351  0.5016 -1.1921 -1.2221
  668MOL0     H92162   0.814   5.421   5.379  2.1297  1.5554  1.6786
  668MOL0     H92163   0.891   5.317   5.502 -0.5480 -2.3397 -1.8843
  668MOL0     H92164   1.360   5.069   4.595  0.3756 -0.8798 -1.4631
  668MOL0     H92165   1.590   4.998   4.595 -1.7712 -2.1445  0.4064
  668MOL0     H92166   1.965   4.731   4.915  1.0123 -0.1157  0.6485
  668MOL0     H92167   2.185   4.671   4.862  1.2186 -0.3483 -0.0983
  668MOL0     H92168   3.855   5.449   5.155 -0.8264  1.1866 -0.0434
  668MOL0     H92169   4.104   5.441   5.210 -0.7836 -2.5030  0.4632
  668MOL0     H92170   4.490   5.213   5.100 -1.8859 -0.3934  2.3000
  668MOL0     H92171   4.702   5.170   5.191 -1.6853 -0.2278 -1.0563
  668MOL0     H92172   5.059   5.265   5.308  1.7857 -0.3645 -1.8041
  668MOL0     H92173   4.939   5.211   5.187 -2.6241  1.9654 -1.6079
  668MOL0     H92174   4.944   5.421   5.087 -3.8375 -1.3036  3.0447
  668MOL0     H92175   5.106   5.357   5.093  0.4161 -1.0711  0.5369
  668MOL0     H92176   5.072   5.620   5.130 -1.9828 -0.8864  0.7517
  668MOL0     H92177   4.981   5.583   5.262  0.0545 -0.6920  0.0157
  668MOL0     H92178   5.284   5.566   5.233 -1.3211  0.3938 -2.1790
  668MOL0     H92179   5.218   5.455   5.352 -0.8277  1.4703  1.8817
  668MOL0     H92180   5.176   5.847   5.507  3.4601  0.8706 -0.1477
  668MOL0     H92181   4.748   5.570   5.321  2.2132  0.9024 -1.1116
  668MOL0     H92182   4.539   5.706   5.137 -0.3726 -1.6056 -0.4396
  668MOL0     H92183   4.412   5.683   5.254 -0.0934 -0.3894  2.9558
  668MOL0     H92184   4.580   5.709   5.312  1.1009 -1.2409 -0.3176
  669MOL0     O92185   2.215   6.224   5.923 -0.0873 -0.1163  0.8235
  669MOL0     C92186   2.319   6.165   5.947 -0.3974  0.1340 -0.0875
  669MOL0     O92187   2.375   6.058   5.877 -1.1028 -0.9210  0.1784
  669MOL0     C92188   2.292   5.986   5.795 -1.1103 -0.9319 -0.1008
  669MOL0     C92189   2.326   5.856   5.782 -0.1273  0.5530 -0.0713
  669MOL0     C92190   2.252   5.779   5.685  0.0475 -0.4526  0.7307
  669MOL0     C92191   2.155   5.827   5.599 -1.0035  0.4393  0.3341
  669MOL0     O92192   2.100   5.736   5.513  0.2791 -0.2364  0.4732
  669MOL0     C92193   1.986   5.784   5.438  0.3647 -0.1150 -0.0073
  669MOL0     C92194   1.941   5.666   5.346 -0.2555 -0.4636  0.1608
  669MOL0     C92195   2.049   5.606   5.251 -0.3870 -0.2574  0.3036
  669MOL0     C92196   2.104   5.715   5.146  0.0407  0.0628 -0.3445
  669MOL0     C92197   2.208   5.662   5.050  0.0302 -0.1779  0.0455
  669MOL0     C92198   2.343   5.662   5.122 -0.2771 -0.5522 -0.1162
  669MOL0     C92199   2.469   5.614   5.063  0.5377  0.5472 -0.2418
  669MOL0     C92200   2.472   5.463   5.079  0.3098 -0.8435  0.5814
  669MOL0     N92201   2.574   5.410   4.994  0.0181  0.0816  0.3296
  669MOL0     C92202   2.681   5.469   4.933 -0.8598 -1.1019 -0.4711
  669MOL0     C92203   2.737   5.385   4.851  0.9625  0.2172  0.9494
  669MOL0     C92204   2.836   5.404   4.750  0.1888 -0.4463  0.4281
  669MOL0     C92205   2.972   5.331   4.765 -0.1846 -1.1678  0.4194
  669MOL0     C92206   2.956   5.179   4.797  0.2552  0.1755  0.4863
  669MOL0     C92207   3.096   5.129   4.832  0.3348 -0.0857 -0.1843
  669MOL0     O92208   3.099   4.989   4.860  1.0709 -0.1320  0.4087
  669MOL0     C92209   3.219   4.929   4.849  0.1766  0.0280 -0.1582
  669MOL0     C92210   3.219   4.796   4.792  0.1169 -0.7659  0.2848
  669MOL0     C92211   3.339   4.729   4.778 -0.0352 -0.2280  0.7722
  669MOL0     C92212   3.334   4.593   4.700  0.6308  0.1699  0.1055
  669MOL0     C92213   3.460   4.783   4.825 -0.2927 -0.2776  0.3387
  669MOL0     C92214   3.591   4.713   4.833  0.1856  0.9406 -0.4561
  669MOL0     O92215   3.710   4.779   4.854 -0.0921  1.1698  0.5263
  669MOL0     C92216   3.826   4.706   4.849  0.4191  0.2325 -0.8320
  669MOL0     C92217   3.892   4.682   4.731  2.0346 -0.9609  0.2348
  669MOL0     C92218   4.014   4.620   4.737 -0.1470 -0.3618  0.2086
  669MOL0     C92219   4.077   4.586   4.854  0.9624  0.3024 -0.3445
  669MOL0     O92220   4.201   4.533   4.857 -0.0064 -0.1558 -0.0720
  669MOL0     C92221   4.304   4.591   4.774  0.3833  0.4250 -0.6539
  669MOL0     C92222   4.435   4.521   4.801  0.6708 -1.5654 -0.5617
  669MOL0     C92223   4.425   4.380   4.759  0.5337  0.2108 -0.8719
  669MOL0     C92224   4.553   4.309   4.793 -0.0321  0.3772 -0.1066
  669MOL0     C92225   4.567   4.153   4.772  0.0451  0.3011  0.1642
  669MOL0     C92226   4.539   4.121   4.625 -0.0993  0.1873  0.8864
  669MOL0     C92227   4.560   3.966   4.585  1.2389 -0.6451 -0.2546
  669MOL0     C92228   4.715   3.940   4.549  0.2015  0.6831 -0.7687
  669MOL0    Cl92229   4.774   3.971   4.384  0.1929  0.2161  0.2392
  669MOL0     C92230   4.013   4.622   4.974 -0.3665  0.3289 -0.2115
  669MOL0     C92231   3.883   4.666   4.968 -0.2414 -0.4608 -0.5150
  669MOL0     O92232   3.582   4.589   4.832 -0.0437 -0.0749 -0.9145
  669MOL0     C92233   3.454   4.915   4.870 -0.3700 -0.2240  0.4636
  669MOL0     C92234   3.340   4.985   4.888  0.7367 -0.6784  1.4271
  669MOL0     N92235   2.655   5.277   4.841  0.3141 -0.3650  0.5776
  669MOL0     N92236   2.564   5.286   4.939 -0.2878  0.6096 -0.2657
  669MOL0     C92237   2.132   5.964   5.598 -0.7368 -0.4094 -0.1260
  669MOL0     C92238   2.199   6.041   5.703  0.9859  0.2402  0.4778
  669MOL0     C92239   2.425   6.237   6.048  0.8245  0.2002  0.4898
  669MOL0     C92240   2.528   6.152   6.084 -0.0117 -0.7050 -0.2866
  669MOL0     C92241   2.608   6.202   6.179 -0.7232  0.2919  0.6666
  669MOL0     C92242   2.620   6.327   6.221  0.1619  0.1914 -0.5228
  669MOL0     O92243   2.715   6.352   6.320  0.8574  0.1044 -0.0141
  669MOL0     C92244   2.789   6.464   6.301 -0.6113 -0.1567  0.1316
  669MOL0     C92245   2.867   6.466   6.163  0.1912 -0.3573 -0.5187
  669MOL0     C92246   2.971   6.348   6.137 -0.1687  0.2072 -0.1356
  669MOL0     C92247   3.086   6.379   6.237  0.2381  0.2920  0.0223
  669MOL0     C92248   3.211   6.344   6.167  0.1404  0.2172  0.9250
  669MOL0     C92249   3.307   6.296   6.107  0.4468 -0.4730 -0.5432
  669MOL0     C92250   2.521   6.414   6.192  0.5363 -0.2811  0.3116
  669MOL0     C92251   2.420   6.374   6.091 -0.7701 -0.9598 -0.0346
  669MOL0     C92252   2.318   6.479   6.065 -0.1388 -0.3842  0.4573
  669MOL0     H92253   2.398   5.811   5.849  0.4165  1.3945 -0.0684
  669MOL0     H92254   2.250   5.671   5.696 -1.2707 -0.6788 -1.2007
  669MOL0     H92255   2.037   5.855   5.372 -1.7157  2.8351  1.3678
  669MOL0     H92256   1.905   5.817   5.502 -1.4394 -1.8304 -1.2867
  669MOL0     H92257   1.900   5.591   5.414  0.2399  0.9512  2.1124
  669MOL0     H92258   1.854   5.709   5.296 -1.4209 -0.9440  1.6863
  669MOL0     H92259   2.128   5.558   5.309 -0.6949 -0.8252  0.2725
  669MOL0     H92260   1.995   5.521   5.207  0.8461 -2.1116  2.1569
  669MOL0     H92261   2.013   5.751   5.096 -0.2509  1.4437  1.0837
  669MOL0     H92262   2.136   5.813   5.183  0.7822  0.1307 -1.1413
  669MOL0     H92263   2.215   5.730   4.965 -2.5400  2.6023  1.8524
  669MOL0     H92264   2.178   5.561   5.021 -1.8149 -0.3279  2.2044
  669MOL0     H92265   2.349   5.763   5.164 -1.1716 -1.1411  1.5341
  669MOL0     H92266   2.334   5.609   5.218  3.1267  1.9681  1.8194
  669MOL0     H92267   2.546   5.658   5.127 -1.4453  1.8712  1.3456
  669MOL0     H92268   2.475   5.649   4.959  1.9636 -0.9912 -0.7190
  669MOL0     H92269   2.490   5.430   5.182 -0.3725 -2.3950  0.2228
  669MOL0     H92270   2.381   5.416   5.040 -0.1618 -1.5048  2.3745
  669MOL0     H92271   2.736   5.559   4.956  0.9244 -2.0432 -0.8358
  669MOL0     H92272   2.853   5.511   4.739 -0.2060 -0.2821  1.2721
  669MOL0     H92273   2.785   5.375   4.658  0.2721 -1.1702  0.6012
  669MOL0     H92274   3.024   5.332   4.669 -2.2639  0.9118 -0.8074
  669MOL0     H92275   3.034   5.389   4.834  0.3885  2.3787 -2.7262
  669MOL0     H92276   2.891   5.164   4.883  0.2789 -1.0802  0.3030
  669MOL0     H92277   2.919   5.114   4.717  2.3145 -0.5626  0.0692
  669MOL0     H92278   3.162   5.151   4.748 -0.3057  0.8328 -0.4597
  669MOL0     H92279   3.133   5.185   4.918  1.1791  0.3955 -0.8417
  669MOL0     H92280   3.126   4.759   4.750  0.1017 -1.4759  0.8964
  669MOL0     H92281   3.418   4.595   4.629 -1.4915 -1.0525 -2.6575
  669MOL0     H92282   3.247   4.577   4.635  0.7227  3.4674 -1.0084
  669MOL0     H92283   3.355   4.502   4.757  4.1039 -0.0507 -1.2635
  669MOL0     H92284   3.835   4.724   4.649 -0.6162  1.2813  2.9911
  669MOL0     H92285   4.067   4.595   4.646  0.8640  1.2640  0.3066
  669MOL0     H92286   4.287   4.570   4.668  1.8468  0.1954 -0.8736
  669MOL0     H92287   4.316   4.698   4.790  2.3196  0.2234 -0.4642
  669MOL0     H92288   4.514   4.583   4.758  0.7207 -1.4955 -0.3688
  669MOL0     H92289   4.457   4.513   4.907 -2.1291  1.9750  0.4829
  669MOL0     H92290   4.410   4.377   4.651 -2.3126  3.2351 -0.6908
  669MOL0     H92291   4.342   4.330   4.810  1.4150 -1.4444 -0.9628
  669MOL0     H92292   4.580   4.320   4.899 -0.9000 -0.5670  0.2328
  669MOL0     H92293   4.638   4.357   4.743  0.1909  1.1320  0.9709
  669MOL0     H92294   4.665   4.116   4.805 -1.3896 -3.1626  1.0418
  669MOL0     H92295   4.488   4.104   4.830  1.3015 -1.2365  0.6600
  669MOL0     H92296   4.604   4.181   4.560 -0.6719 -0.9893 -0.8515
  669MOL0     H92297   4.435   4.137   4.598 -0.8490 -5.0255 -0.5513
  669MOL0     H92298   4.507   3.952   4.490  0.2683  0.8922  0.0265
  669MOL0     H92299   4.521   3.901   4.664  0.3874  1.1960  0.8947
  669MOL0     H92300   4.737   3.840   4.585 -2.0814 -0.0510 -1.2919
  669MOL0     H92301   4.772   4.006   4.616 -0.1993 -1.3726  1.7463
  669MOL0     H92302   4.064   4.587   5.063  0.8563  1.3173 -0.4867
  669MOL0     H92303   3.823   4.685   5.057 -0.4042  2.7866 -1.1990
  669MOL0     H92304   3.542   4.953   4.921 -0.6562 -1.0038  1.5792
  669MOL0     H92305   3.343   5.088   4.923 -1.3578 -0.6654  1.7128
  669MOL0     H92306   2.073   6.020   5.525 -2.7611  1.5306  2.7805
  669MOL0     H92307   2.175   6.146   5.714  1.3551  0.2049  1.7949
  669MOL0     H92308   2.532   6.047   6.057  0.1113 -1.0087  0.8827
  669MOL0     H92309   2.685   6.131   6.208  0.8889  1.7868  0.1885
  669MOL0     H92310   2.738   6.561   6.313 -1.0126 -0.2939 -0.4262
  669MOL0     H92311   2.851   6.462   6.391 -0.9991  3.7551  0.6763
  669MOL0     H92312   2.921   6.561   6.157  2.7862 -1.5829  1.3279
  669MOL0     H92313   2.784   6.463   6.091  0.3463  0.5596 -0.7487
  669MOL0     H92314   2.935   6.247   6.159  2.2334 -1.1486 -2.0030
  669MOL0     H92315   2.997   6.357   6.031  0.7098  2.6828  0.2305
  669MOL0     H92316   3.070   6.315   6.323  1.0665 -0.1268 -0.1208
  669MOL0     H92317   3.092   6.486   6.261 -3.1023  1.0311 -1.8304
  669MOL0     H92318   3.391   6.254   6.056 -1.3265 -2.0480 -2.3391
  669MOL0     H92319   2.519   6.511   6.239 -0.8523 -0.1329  0.0144
  669MOL0     H92320   2.362   6.545   5.991  0.3944  1.9824  2.7309
  669MOL0     H92321   2.217   6.448   6.037 -0.9315  0.3119  2.3396
  669MOL0     H92322   2.310   6.534   6.160  0.8022  1.2678 -0.3766
  670MOL0     O92323   2.981   3.287   5.310  0.5250  0.0759  0.5163
  670MOL0     C92324   2.915   3.185   5.284 -0.4865  0.2315  0.4069
  670MOL0     O92325   2.959   3.082   5.214  0.3413  0.5254  0.2344
  670MOL0     C92326   3.086   3.049   5.178 -1.4339  0.3818 -0.1681
  670MOL0     C92327   3.171   2.994   5.277 -0.3747 -0.7988  0.0949
  670MOL0     C92328   3.301   2.955   5.246  0.1110 -0.2849 -0.6880
  670MOL0     C92329   3.339   2.949   5.115 -1.4489 -0.9037  0.5828
  670MOL0     O92330   3.465   2.905   5.090 -1.0903  0.5748 -0.5447
  670MOL0     C92331   3.518   2.921   4.951  0.7922 -0.2842  0.6046
  670MOL0     C92332   3.653   2.840   4.926 -0.2914  0.0732  0.3982
  670MOL0     C92333   3.773   2.864   5.024 -0.7446 -0.0413 -0.9944
  670MOL0     C92334   3.876   2.746   5.014  0.8014  0.3502 -0.1615
  670MOL0     C92335   4.001   2.787   5.097 -0.4053  0.6702 -0.2833
  670MOL0     C92336   4.097   2.669   5.104 -0.4253 -0.4850  0.5544
  670MOL0     C92337   4.223   2.716   5.181 -0.1840  0.5020  0.0991
  670MOL0     C92338   4.329   2.610   5.174  0.7957  0.3104  0.0297
  670MOL0     N92339   4.461   2.651   5.220  0.1225 -0.1520 -0.3877
  670MOL0     C92340   4.532   2.767   5.229  0.1108  0.3724  0.1536
  670MOL0     C92341   4.651   2.743   5.283  0.1011  0.0027  0.5204
  670MOL0     C92342   4.762   2.850   5.309  0.3144  0.8368  0.7877
  670MOL0     C92343   4.789   2.955   5.206  0.1733  0.1722  0.6273
  670MOL0     C92344   4.873   2.897   5.083  0.0771  0.7199 -0.3904
  670MOL0     C92345   4.802   2.784   4.993 -0.4799 -1.1342  0.7467
  670MOL0     O92346   4.683   2.845   4.941  0.7904 -0.2413 -0.1161
  670MOL0     C92347   4.595   2.769   4.874  1.2035  0.2021  0.6062
  670MOL0     C92348   4.472   2.833   4.847 -0.8344 -0.1316  0.0432
  670MOL0     C92349   4.357   2.764   4.797 -0.2009 -1.5647 -0.6514
  670MOL0     C92350   4.232   2.843   4.798  0.3738  0.0100 -0.1125
  670MOL0     C92351   4.372   2.631   4.754  0.6588 -0.2435 -0.4583
  670MOL0     C92352   4.266   2.553   4.679 -0.0888 -1.1054  0.2618
  670MOL0     O92353   4.132   2.599   4.682  0.0191  0.3712  0.1573
  670MOL0     C92354   4.035   2.523   4.617 -0.1606  0.5279 -0.2896
  670MOL0     C92355   3.966   2.579   4.510 -0.5074  0.4746 -0.4658
  670MOL0     C92356   3.887   2.504   4.426  0.0687 -0.3429  0.6651
  670MOL0     C92357   3.863   2.365   4.445 -0.5545  0.8387 -0.3262
  670MOL0     O92358   3.765   2.306   4.366 -0.1339  0.2669  0.9551
  670MOL0     C92359   3.655   2.255   4.447  0.0792  0.2066  0.1480
  670MOL0     C92360   3.525   2.304   4.373 -0.0427  0.9221 -0.8019
  670MOL0     C92361   3.507   2.232   4.233  0.1021  0.2983  0.8246
  670MOL0     C92362   3.352   2.237   4.200  1.5406  0.0652 -0.0221
  670MOL0     C92363   3.316   2.201   4.054 -0.5482  0.6759 -0.0045
  670MOL0     C92364   3.386   2.279   3.943 -0.2561 -0.8729 -0.2350
  670MOL0     C92365   3.337   2.240   3.803  0.1600  0.0335 -0.3124
  670MOL0     C92366   3.373   2.359   3.722  0.2554  0.3526  0.7458
  670MOL0    Cl92367   3.269   2.347   3.570  0.2938 -0.0233 -0.0588
  670MOL0     C92368   3.940   2.306   4.550  0.2802  0.7698  0.4901
  670MOL0     C92369   4.016   2.386   4.639 -0.4680 -0.6307 -1.2122
  670MOL0     O92370   4.311   2.465   4.608  0.7328  0.2247  0.6050
  670MOL0     C92371   4.497   2.570   4.784 -0.2205 -0.1954 -0.7069
  670MOL0     C92372   4.602   2.631   4.846  0.5330 -0.0541 -1.2357
  670MOL0     N92373   4.649   2.610   5.310 -0.4155 -0.4678  0.5644
  670MOL0     N92374   4.539   2.555   5.280 -0.2403  0.0884  0.2507
  670MOL0     C92375   3.260   3.009   5.013 -0.0181  0.0767  0.2529
  670MOL0     C92376   3.136   3.060   5.047  0.1274 -0.1706 -0.7635
  670MOL0     C92377   2.776   3.181   5.343  0.1925  0.4760 -0.5691
  670MOL0     C92378   2.748   3.262   5.454 -0.2281  1.4233  0.2863
  670MOL0     C92379   2.622   3.281   5.507 -0.0034  0.2153 -0.2886
  670MOL0     C92380   2.515   3.209   5.455  0.5303  0.1591 -0.2520
  670MOL0     O92381   2.396   3.226   5.519 -0.0378 -0.7494 -0.0452
  670MOL0     C92382   2.275   3.188   5.464 -0.1643 -0.1940  1.0656
  670MOL0     C92383   2.159   3.218   5.557  1.0655 -1.0152  0.8891
  670MOL0     C92384   2.161   3.146   5.687 -0.4811  0.4874 -0.2244
  670MOL0     C92385   2.065   3.203   5.789 -0.9327  0.3115 -0.4617
  670MOL0     C92386   1.926   3.179   5.765  0.2695  0.5326 -0.5348
  670MOL0     C92387   1.804   3.152   5.740  0.0820  1.2996  0.6162
  670MOL0     C92388   2.544   3.135   5.337 -0.0226  0.0943 -1.0120
  670MOL0     C92389   2.668   3.110   5.283 -0.1976 -0.7189  0.3974
  670MOL0     C92390   2.675   3.017   5.160 -0.3078  0.2144  0.4627
  670MOL0     H92391   3.131   2.995   5.378 -2.3250 -1.8418 -0.5999
  670MOL0     H92392   3.365   2.912   5.322 -1.0347  1.2282  1.2341
  670MOL0     H92393   3.529   3.029   4.932  0.2664 -0.5951 -1.8807
  670MOL0     H92394   3.453   2.884   4.871  2.1242 -3.9262  1.0549
  670MOL0     H92395   3.626   2.734   4.934  1.2467 -0.5515 -1.6853
  670MOL0     H92396   3.689   2.852   4.823 -1.3700  2.4219  0.2403
  670MOL0     H92397   3.825   2.959   5.007 -1.5728  0.6041  0.0176
  670MOL0     H92398   3.736   2.869   5.126 -1.6424 -1.0246 -1.2459
  670MOL0     H92399   3.845   2.648   5.051  2.6292 -0.0535  0.3710
  670MOL0     H92400   3.919   2.738   4.914  1.8398  1.0442  0.2146
  670MOL0     H92401   3.976   2.822   5.198 -0.2247 -1.3232  0.4992
  670MOL0     H92402   4.048   2.874   5.049  0.0391  1.4883  1.5351
  670MOL0     H92403   4.046   2.584   5.150 -1.8229  0.2689  0.4412
  670MOL0     H92404   4.122   2.630   5.005  1.9772  0.7793  0.5868
  670MOL0     H92405   4.195   2.729   5.286 -0.9377  3.0953 -0.3482
  670MOL0     H92406   4.257   2.813   5.142  0.9846 -0.4879 -1.4435
  670MOL0     H92407   4.291   2.530   5.238  0.0151  0.6751  0.0346
  670MOL0     H92408   4.344   2.579   5.070 -1.7214  2.7638 -1.2318
  670MOL0     H92409   4.503   2.861   5.182  1.1283 -1.3324 -4.4449
  670MOL0     H92410   4.850   2.798   5.349 -1.3850 -1.4655  1.8024
  670MOL0     H92411   4.726   2.884   5.407  3.2386 -2.5243  3.3136
  670MOL0     H92412   4.699   2.998   5.161 -0.4520 -1.2641  0.4553
  670MOL0     H92413   4.856   3.030   5.249 -1.4050  1.9041  0.2045
  670MOL0     H92414   4.908   2.977   5.016 -0.2351 -0.0278 -1.4797
  670MOL0     H92415   4.953   2.838   5.127 -1.3272 -0.7361  0.3179
  670MOL0     H92416   4.863   2.742   4.914  0.6220 -0.9814  1.4862
  670MOL0     H92417   4.792   2.694   5.055  2.9592  0.4659  4.0776
  670MOL0     H92418   4.477   2.938   4.874 -1.0935 -0.2960  0.7269
  670MOL0     H92419   4.217   2.874   4.694 -2.6064 -1.5491 -0.2270
  670MOL0     H92420   4.226   2.936   4.856 -2.9057  0.2292 -0.6173
  670MOL0     H92421   4.139   2.796   4.830 -0.5595  1.7439 -0.1732
  670MOL0     H92422   3.976   2.684   4.483 -1.0534  1.0744  1.5482
  670MOL0     H92423   3.840   2.563   4.347  2.9917  3.4725  1.4520
  670MOL0     H92424   3.657   2.145   4.449 -0.2978  0.2025  0.3763
  670MOL0     H92425   3.657   2.298   4.547  0.6813  3.8093 -1.2538
  670MOL0     H92426   3.443   2.294   4.444 -1.0666  0.5647 -2.0065
  670MOL0     H92427   3.536   2.413   4.363 -1.7947  1.2632  0.5279
  670MOL0     H92428   3.538   2.128   4.243 -2.9598 -0.6822  0.9384
  670MOL0     H92429   3.563   2.289   4.158  0.0141 -0.5139  0.1201
  670MOL0     H92430   3.318   2.337   4.229 -0.3015 -1.2873  2.9584
  670MOL0     H92431   3.292   2.174   4.266  0.2886  0.7639 -0.4707
  670MOL0     H92432   3.333   2.093   4.043 -0.5645  0.8198 -1.8679
  670MOL0     H92433   3.208   2.205   4.038 -1.0640 -1.3012  2.3821
  670MOL0     H92434   3.494   2.263   3.942  0.0319  0.5878 -2.9435
  670MOL0     H92435   3.372   2.384   3.969 -1.2697 -1.0828  0.1006
  670MOL0     H92436   3.228   2.227   3.802  0.1328 -0.9411  3.0519
  670MOL0     H92437   3.386   2.146   3.779  2.4235  1.2662 -0.8426
  670MOL0     H92438   3.478   2.370   3.695 -0.0947  0.7765 -0.5397
  670MOL0     H92439   3.347   2.456   3.764  1.3615  0.9415  0.1176
  670MOL0     H92440   3.921   2.202   4.573 -0.3957  0.6013 -0.7332
  670MOL0     H92441   4.066   2.339   4.723 -0.0371 -0.0128 -1.1200
  670MOL0     H92442   4.499   2.465   4.757 -2.1581  0.0484 -2.0799
  670MOL0     H92443   4.696   2.580   4.862  2.3896  2.7365 -2.4611
  670MOL0     H92444   3.303   3.026   4.915  4.6165 -1.6753  1.6859
  670MOL0     H92445   3.083   3.118   4.973 -0.0119 -0.1375 -0.6398
  670MOL0     H92446   2.825   3.325   5.498  0.8153  0.5631 -0.2371
  670MOL0     H92447   2.609   3.345   5.593 -0.5219 -1.6644  1.0927
  670MOL0     H92448   2.259   3.246   5.372 -1.7415 -1.6230  0.3869
  670MOL0     H92449   2.289   3.082   5.443  0.7266  0.1883 -0.5161
  670MOL0     H92450   2.068   3.194   5.501  0.0035  4.5582 -0.4062
  670MOL0     H92451   2.149   3.321   5.594  0.0081 -0.6263 -0.4003
  670MOL0     H92452   2.138   3.040   5.676 -0.9841  0.5372  0.2670
  670MOL0     H92453   2.264   3.163   5.719 -0.8941 -0.0744  1.4910
  670MOL0     H92454   2.078   3.310   5.801  0.1594  0.3793 -2.0177
  670MOL0     H92455   2.097   3.162   5.885 -0.2059  0.7028 -0.5327
  670MOL0     H92456   1.699   3.132   5.729  0.2120 -0.5635  2.2074
  670MOL0     H92457   2.476   3.072   5.280  2.1623 -0.4033 -3.2262
  670MOL0     H92458   2.732   2.925   5.174  0.9607  1.1883  2.0320
  670MOL0     H92459   2.583   2.983   5.113  0.3502 -0.0484 -0.6881
  670MOL0     H92460   2.732   3.071   5.083 -1.8600  1.1078 -0.1098
  671MOL0     O92461  11.447   4.306   4.291 -0.7292 -0.0615 -0.0324
  671MOL0     C92462  11.508   4.380   4.221  0.0552 -1.0214 -0.1740
  671MOL0     O92463  11.578   4.491   4.265  0.3887  0.0145 -0.5273
  671MOL0     C92464  11.589   4.507   4.400 -0.2779  0.6244 -0.2244
  671MOL0     C92465  11.463   4.534   4.466 -0.0230 -1.2193 -0.5015
  671MOL0     C92466  11.457   4.566   4.601 -0.5120  0.2246  0.0732
  671MOL0     C92467  11.573   4.563   4.679  0.1675 -1.4264 -0.9358
  671MOL0     O92468  11.555   4.582   4.814  0.1096 -0.6373 -0.1119
  671MOL0     C92469  11.659   4.515   4.891  0.2075  0.3339  0.7738
  671MOL0     C92470  11.613   4.523   5.043 -1.1654 -0.6634 -0.5785
  671MOL0     C92471  11.604   4.654   5.119  0.2402 -0.0813  0.0218
  671MOL0     C92472  11.570   4.640   5.266  0.6002  0.3515  0.1826
  671MOL0     C92473  11.496   4.767   5.314 -0.3468 -0.2953 -1.0653
  671MOL0     C92474  11.473   4.755   5.469 -0.5872 -0.6089 -0.5358
  671MOL0     C92475  11.366   4.855   5.536 -0.1398 -0.2997 -0.1474
  671MOL0     C92476  11.336   4.826   5.680 -0.5803 -0.6203 -0.1113
  671MOL0     N92477  11.230   4.923   5.721 -0.3953  0.2995 -0.4919
  671MOL0     C92478  11.100   4.926   5.686 -0.3266  0.3880 -0.3844
  671MOL0     C92479  11.057   5.051   5.724 -0.9314 -0.5756  0.3993
  671MOL0     C92480  10.924   5.129   5.700  0.7403  0.5393 -0.2467
  671MOL0     C92481  10.822   5.077   5.799 -0.7283 -0.2012 -0.3035
  671MOL0     C92482  10.694   5.154   5.797 -0.3026 -0.2547 -0.1134
  671MOL0     C92483  10.616   5.133   5.924  0.3670 -0.0573 -0.1647
  671MOL0     O92484  10.499   5.052   5.913  0.1899  0.4515 -0.1104
  671MOL0     C92485  10.376   5.109   5.911  0.3968  0.5140  0.0439
  671MOL0     C92486  10.280   5.052   5.987  0.7365 -0.7890 -0.5164
  671MOL0     C92487  10.144   5.098   5.980  0.0837 -0.5459 -0.0265
  671MOL0     C92488  10.057   5.018   6.066  0.4526 -0.0941  0.0340
  671MOL0     C92489  10.112   5.206   5.897  0.3019 -0.0650  0.1415
  671MOL0     C92490   9.980   5.268   5.890 -0.7676  0.2523 -0.0039
  671MOL0     O92491   9.968   5.384   5.815  0.2948 -0.3353 -0.1591
  671MOL0     C92492   9.840   5.432   5.798  0.4463 -0.5076 -0.3033
  671MOL0     C92493   9.795   5.538   5.884 -0.3326 -0.4866  0.5396
  671MOL0     C92494   9.665   5.588   5.885  0.5816 -0.0749 -0.2364
  671MOL0     C92495   9.589   5.563   5.770  0.3915  0.3851  0.0355
  671MOL0     O92496   9.460   5.611   5.758 -0.0759 -0.4255  0.8177
  671MOL0     C92497   9.470   5.736   5.694 -0.2930 -0.1758  0.1685
  671MOL0     C92498   9.335   5.790   5.649  0.0861 -0.4330 -0.0020
  671MOL0     C92499   9.353   5.915   5.556 -0.8749  1.3886  0.0781
  671MOL0     C92500   9.210   5.981   5.546  0.2671 -0.7099 -0.0146
  671MOL0     C92501   9.217   6.092   5.436  1.1021 -0.1205 -0.3320
  671MOL0     C92502   9.084   6.139   5.380  0.8253 -0.2034 -0.4030
  671MOL0     C92503   9.006   6.248   5.455  0.8024 -1.0180 -0.0527
  671MOL0     C92504   8.961   6.215   5.597  0.0356 -0.1448  0.0904
  671MOL0    Cl92505   8.884   6.060   5.621  0.2974 -0.0753 -0.1842
  671MOL0     C92506   9.626   5.461   5.680 -0.1887  0.8192  0.7251
  671MOL0     C92507   9.756   5.400   5.691 -1.0464 -0.8238  0.2887
  671MOL0     O92508   9.885   5.215   5.948  0.1000 -0.3133  0.1784
  671MOL0     C92509  10.216   5.253   5.806  0.7275  0.5667 -0.0635
  671MOL0     C92510  10.346   5.202   5.816  0.2120  0.1817  0.3142
  671MOL0     N92511  11.159   5.116   5.789  0.3149 -0.1920  0.1113
  671MOL0     N92512  11.258   5.042   5.783  0.0611  0.3792  0.2600
  671MOL0     C92513  11.694   4.540   4.613  1.0068 -0.6429 -0.6421
  671MOL0     C92514  11.705   4.509   4.478  0.3307 -0.0297  0.5068
  671MOL0     C92515  11.499   4.362   4.071  0.4203  0.2777 -1.1700
  671MOL0     C92516  11.536   4.465   3.997 -0.3118 -0.7063 -0.3582
  671MOL0     C92517  11.537   4.467   3.859 -0.2462 -0.1276  0.5054
  671MOL0     C92518  11.478   4.357   3.791  0.1240  1.1741 -0.2850
  671MOL0     O92519  11.443   4.361   3.660 -0.1725  0.4254  0.3010
  671MOL0     C92520  11.447   4.240   3.579 -0.5204  0.2135 -1.0120
  671MOL0     C92521  11.498   4.275   3.442  0.1088 -0.5284 -0.0281
  671MOL0     C92522  11.483   4.155   3.347 -0.1023  0.2560 -0.1238
  671MOL0     C92523  11.445   4.207   3.207 -0.6614  0.2194 -0.5939
  671MOL0     C92524  11.572   4.260   3.143  0.5460  0.0269  0.1069
  671MOL0     C92525  11.650   4.315   3.075 -0.0524  0.7260 -1.1296
  671MOL0     C92526  11.444   4.235   3.862  0.6087  0.4711  0.0318
  671MOL0     C92527  11.471   4.237   4.003  0.4095 -0.2920  0.0439
  671MOL0     C92528  11.448   4.110   4.077  0.2777 -0.0909 -1.3464
  671MOL0     H92529  11.369   4.529   4.412  1.2135 -0.9879 -2.8064
  671MOL0     H92530  11.369   4.581   4.662  0.3507 -1.5463  1.8697
  671MOL0     H92531  11.748   4.576   4.873 -0.7344  0.7705 -3.1149
  671MOL0     H92532  11.676   4.410   4.866  1.6684 -0.2617  3.7353
  671MOL0     H92533  11.514   4.478   5.057 -1.7517  1.1113  1.5304
  671MOL0     H92534  11.684   4.460   5.097  0.5092  2.4217  1.0573
  671MOL0     H92535  11.705   4.698   5.118  0.1864  0.1400  1.7545
  671MOL0     H92536  11.542   4.720   5.057  0.6052  0.3587  0.1164
  671MOL0     H92537  11.489   4.568   5.279 -3.4519  4.5824  0.7300
  671MOL0     H92538  11.656   4.605   5.324  0.6605 -1.1575 -0.7657
  671MOL0     H92539  11.400   4.786   5.266 -1.0312 -0.4368  0.2268
  671MOL0     H92540  11.548   4.860   5.289 -2.2461  1.3976  0.9131
  671MOL0     H92541  11.435   4.654   5.488 -0.1154 -0.4595  1.3928
  671MOL0     H92542  11.566   4.758   5.527 -1.4100 -2.7707  1.0385
  671MOL0     H92543  11.278   4.846   5.472  0.2508  0.8067 -0.8671
  671MOL0     H92544  11.409   4.954   5.519  0.3971 -0.2830  1.1265
  671MOL0     H92545  11.305   4.721   5.683  1.4055 -1.2304  0.4033
  671MOL0     H92546  11.417   4.843   5.751 -1.5778  4.3201  0.1984
  671MOL0     H92547  11.058   4.847   5.625  3.8524 -2.2524 -0.1751
  671MOL0     H92548  10.877   5.109   5.603  1.7531  0.8900 -0.8223
  671MOL0     H92549  10.931   5.238   5.704 -0.1426  0.6397 -0.9372
  671MOL0     H92550  10.803   4.969   5.792  0.8574 -0.6855  1.8311
  671MOL0     H92551  10.860   5.080   5.901 -3.3368 -0.2496  0.7455
  671MOL0     H92552  10.705   5.262   5.779  2.7379 -0.4579  0.1348
  671MOL0     H92553  10.635   5.114   5.713 -2.3634  0.1524  1.0619
  671MOL0     H92554  10.683   5.075   5.987  2.9884  3.1434  0.2723
  671MOL0     H92555  10.596   5.228   5.974 -2.2113 -1.4042  1.5670
  671MOL0     H92556  10.309   4.984   6.067 -0.4468  1.3517  1.8495
  671MOL0     H92557   9.996   4.952   6.003 -1.6777  1.5752  0.2109
  671MOL0     H92558   9.990   5.079   6.128  2.6167  0.8080  1.6156
  671MOL0     H92559  10.122   4.962   6.133 -1.1360 -1.5689  0.4102
  671MOL0     H92560   9.870   5.562   5.959 -0.1780 -0.4819  0.3841
  671MOL0     H92561   9.621   5.649   5.963 -1.1153  0.6624 -1.6972
  671MOL0     H92562   9.505   5.815   5.762 -2.0749  1.9674 -1.2487
  671MOL0     H92563   9.532   5.734   5.604  1.3793  2.0840  1.1577
  671MOL0     H92564   9.267   5.719   5.601  0.8767 -1.7786  0.7687
  671MOL0     H92565   9.282   5.834   5.734  0.8042  0.9117 -0.2379
  671MOL0     H92566   9.396   5.878   5.463  0.7270  1.2192  0.8531
  671MOL0     H92567   9.425   5.984   5.600 -3.8738  2.0256  4.6418
  671MOL0     H92568   9.178   6.029   5.638  1.8477  3.2809 -1.3521
  671MOL0     H92569   9.137   5.902   5.522 -0.2095  0.2981 -2.1149
  671MOL0     H92570   9.277   6.177   5.470  0.0875  0.4337  0.1363
  671MOL0     H92571   9.269   6.046   5.352 -0.6968 -1.9503 -0.5329
  671MOL0     H92572   9.020   6.051   5.374  1.3798 -0.5626 -1.0790
  671MOL0     H92573   9.098   6.169   5.276  1.4222 -1.2579 -0.6457
  671MOL0     H92574   8.915   6.275   5.401  0.3242  1.0362  1.6619
  671MOL0     H92575   9.073   6.334   5.453  0.5913 -0.8291  0.8148
  671MOL0     H92576   8.907   6.297   5.645 -0.2581 -0.4373  0.2760
  671MOL0     H92577   9.058   6.208   5.647 -0.9100  1.0245  2.2118
  671MOL0     H92578   9.558   5.448   5.596  2.7008  2.9041 -2.1488
  671MOL0     H92579   9.794   5.327   5.620 -1.2460  1.0231 -1.8187
  671MOL0     H92580  10.191   5.326   5.730 -4.5404 -2.7001 -2.0134
  671MOL0     H92581  10.422   5.224   5.742 -0.0843  0.3102  0.0462
  671MOL0     H92582  11.784   4.531   4.672  1.1577 -0.4816 -0.8450
  671MOL0     H92583  11.797   4.482   4.426 -0.8278 -2.4854 -0.3895
  671MOL0     H92584  11.574   4.559   4.034 -3.9683  1.9527 -2.7102
  671MOL0     H92585  11.572   4.545   3.792  1.2665 -1.6206 -0.5196
  671MOL0     H92586  11.518   4.165   3.616 -0.7285  1.4499  2.2533
  671MOL0     H92587  11.347   4.199   3.593 -2.2547  4.4746  0.9110
  671MOL0     H92588  11.601   4.299   3.470  0.0390  1.8396 -1.4843
  671MOL0     H92589  11.450   4.368   3.409 -5.2142 -3.1225 -0.5963
  671MOL0     H92590  11.578   4.101   3.341 -0.5507 -0.5464 -0.1053
  671MOL0     H92591  11.407   4.084   3.381  2.4505 -2.7193 -0.2101
  671MOL0     H92592  11.377   4.292   3.219  0.4766  0.9504  1.0184
  671MOL0     H92593  11.397   4.131   3.145 -1.1761  1.5772 -1.9221
  671MOL0     H92594  11.718   4.370   3.013 -0.3103  2.2120 -0.1357
  671MOL0     H92595  11.391   4.151   3.818  0.9032 -0.3024  1.1281
  671MOL0     H92596  11.348   4.117   4.122 -1.5066 -1.1782 -4.7566
  671MOL0     H92597  11.447   4.027   4.006  2.4853 -2.3020  1.0515
  671MOL0     H92598  11.528   4.083   4.146  0.6844 -2.9655 -2.8027
  672MOL0     O92599   0.663   8.358   3.161  0.7474  0.2825  0.9523
  672MOL0     C92600   0.724   8.467   3.168  0.4597  0.6981  0.5406
  672MOL0     O92601   0.831   8.513   3.084 -0.1188 -0.5252  0.3361
  672MOL0     C92602   0.882   8.420   3.000 -0.3617 -0.0175  0.0899
  672MOL0     C92603   0.974   8.327   3.047 -0.6947  0.5532 -0.4606
  672MOL0     C92604   1.008   8.213   2.969 -0.4908 -0.1537  0.4782
  672MOL0     C92605   0.968   8.200   2.837  0.0836 -0.7341  0.2902
  672MOL0     O92606   0.997   8.099   2.748 -0.2441 -0.0241  0.0512
  672MOL0     C92607   1.039   7.979   2.806 -1.3131  1.3030 -0.4705
  672MOL0     C92608   1.074   7.879   2.692  0.1106 -0.1989  0.2638
  672MOL0     C92609   0.960   7.867   2.596  0.4477 -0.4155 -0.5818
  672MOL0     C92610   0.957   7.733   2.526  0.2760 -0.0924 -0.5733
  672MOL0     C92611   0.859   7.735   2.400  0.2716  0.4733 -0.0222
  672MOL0     C92612   0.873   7.606   2.315  0.4292  0.5018  0.1185
  672MOL0     C92613   0.763   7.577   2.218  1.1503 -0.4441 -0.0379
  672MOL0     C92614   0.757   7.434   2.174 -0.3478 -0.6769 -0.6101
  672MOL0     N92615   0.651   7.420   2.072 -0.5091 -0.2631  0.0442
  672MOL0     C92616   0.522   7.391   2.100 -0.5702 -0.3821  0.0206
  672MOL0     C92617   0.462   7.378   1.982  0.4912 -0.1495  0.1560
  672MOL0     C92618   0.315   7.354   1.952 -0.7285  0.1905  0.3771
  672MOL0     C92619   0.239   7.476   1.994  0.8255 -1.2745 -0.7766
  672MOL0     C92620   0.083   7.448   1.979 -0.2748 -0.7466  0.2634
  672MOL0     C92621   0.043   7.356   2.095 -0.2505  0.0762 -0.2790
  672MOL0     O92622   0.080   7.412   2.220  0.4942 -1.0572 -0.3272
  672MOL0     C92623   0.108   7.335   2.325 -0.6604  1.6707  0.5391
  672MOL0     C92624   0.025   7.346   2.439 -0.1099  0.7659 -0.4040
  672MOL0     C92625   0.046   7.273   2.552  0.6193  0.1221  0.0380
  672MOL0     C92626  -0.050   7.290   2.666 -0.5497 -0.0779  0.1638
  672MOL0     C92627   0.151   7.175   2.561 -0.0872  0.1779 -0.3230
  672MOL0     C92628   0.186   7.079   2.669  0.0791  0.1577 -0.5450
  672MOL0     O92629   0.311   7.013   2.665  0.3741 -0.3352 -0.4654
  672MOL0     C92630   0.361   6.955   2.781 -0.7750 -0.6079  1.1208
  672MOL0     C92631   0.433   6.839   2.758 -0.2516  0.2326 -0.1207
  672MOL0     C92632   0.503   6.782   2.866 -0.3946 -0.1668 -0.3622
  672MOL0     C92633   0.477   6.823   2.994  0.4201 -0.1311 -0.4236
  672MOL0     O92634   0.528   6.776   3.110 -0.5281 -0.7941 -0.0608
  672MOL0     C92635   0.634   6.680   3.105  0.6351  0.0201  0.8286
  672MOL0     C92636   0.758   6.752   3.177 -0.2699  0.7881  0.1142
  672MOL0     C92637   0.851   6.839   3.079 -1.1079 -0.3761 -0.6554
  672MOL0     C92638   0.973   6.757   3.030 -0.7907  0.5017  0.3747
  672MOL0     C92639   1.068   6.846   2.943  0.0819 -0.9508 -0.0188
  672MOL0     C92640   1.153   6.759   2.850 -0.6208 -0.2352 -0.2425
  672MOL0     C92641   1.260   6.691   2.931 -0.0321  0.2627 -0.0561
  672MOL0     C92642   1.322   6.577   2.855 -0.0183  0.4738  0.4194
  672MOL0    Cl92643   1.208   6.451   2.803  0.2846  0.2597 -0.0462
  672MOL0     C92644   0.391   6.926   3.005  0.3171 -0.3257 -0.5108
  672MOL0     C92645   0.348   7.012   2.912  0.2427  0.1106  0.5039
  672MOL0     O92646   0.107   7.068   2.767 -0.5979 -0.1025  0.7856
  672MOL0     C92647   0.231   7.167   2.445 -0.4608  0.3768  0.0106
  672MOL0     C92648   0.216   7.242   2.327  1.4371  0.0483  0.8643
  672MOL0     N92649   0.559   7.396   1.884 -0.0224  0.3108  0.0574
  672MOL0     N92650   0.675   7.428   1.934 -0.3926 -0.0391  0.6576
  672MOL0     C92651   0.881   8.299   2.792 -1.3688  1.5361 -0.0547
  672MOL0     C92652   0.828   8.402   2.872 -0.0215  0.7916 -0.3735
  672MOL0     C92653   0.683   8.561   3.274 -0.1259 -0.0031  1.1257
  672MOL0     C92654   0.791   8.622   3.345 -0.2682 -0.4896  0.5346
  672MOL0     C92655   0.764   8.683   3.468  0.2528 -0.7467  0.3002
  672MOL0     C92656   0.640   8.692   3.513  0.4156  1.1679 -0.0729
  672MOL0     O92657   0.619   8.767   3.625  0.3479  0.7581  0.4285
  672MOL0     C92658   0.498   8.848   3.621 -0.4774  0.8750 -0.0937
  672MOL0     C92659   0.520   8.974   3.699 -0.1051 -0.3088 -0.0387
  672MOL0     C92660   0.620   9.070   3.636  0.0501 -0.8621  0.2863
  672MOL0     C92661   0.618   9.211   3.699 -0.0225  0.3311 -0.4899
  672MOL0     C92662   0.712   9.211   3.812  0.3650 -0.6241  0.0521
  672MOL0     C92663   0.799   9.192   3.890  0.5608 -0.0690  0.2724
  672MOL0     C92664   0.535   8.641   3.439 -0.6927 -0.3900  0.0780
  672MOL0     C92665   0.554   8.578   3.318  0.2269 -0.8745 -0.9011
  672MOL0     C92666   0.431   8.524   3.250  0.4466 -0.3486  0.0429
  672MOL0     H92667   1.018   8.336   3.146 -1.0940 -0.5143 -0.1705
  672MOL0     H92668   1.076   8.139   3.010 -0.1644  0.1279  0.4460
  672MOL0     H92669   0.980   7.922   2.878  1.7199 -1.7301 -0.1185
  672MOL0     H92670   1.136   7.987   2.855 -0.2348  2.5457 -2.6755
  672MOL0     H92671   1.164   7.906   2.635  0.4190 -1.5618  0.0652
  672MOL0     H92672   1.091   7.791   2.754 -1.4477  0.6337  1.9550
  672MOL0     H92673   0.863   7.895   2.638  0.8127  0.4947 -0.3136
  672MOL0     H92674   0.981   7.940   2.517  1.1230  0.5177  0.4257
  672MOL0     H92675   1.055   7.698   2.494  1.3983  1.0752  1.3881
  672MOL0     H92676   0.909   7.658   2.590 -1.9106  0.8942 -0.9509
  672MOL0     H92677   0.883   7.826   2.343 -2.1231  2.5167  1.9670
  672MOL0     H92678   0.755   7.752   2.431 -0.5643  2.8441 -3.4637
  672MOL0     H92679   0.965   7.617   2.258 -0.5695 -0.2984 -1.7372
  672MOL0     H92680   0.874   7.522   2.385 -0.5939  0.2290 -0.1744
  672MOL0     H92681   0.779   7.636   2.127 -0.0222 -0.7636 -0.4742
  672MOL0     H92682   0.665   7.611   2.251  0.0444  0.0222 -3.3834
  672MOL0     H92683   0.851   7.400   2.130 -0.5643 -2.8236  0.4857
  672MOL0     H92684   0.744   7.381   2.269  1.9176  3.8330  2.5961
  672MOL0     H92685   0.481   7.394   2.201  1.0717  1.4243  0.6984
  672MOL0     H92686   0.280   7.265   2.005 -0.3697  0.3510  0.8832
  672MOL0     H92687   0.306   7.327   1.846 -0.7225  0.5343  0.2903
  672MOL0     H92688   0.268   7.504   2.096  0.2606  0.8258 -1.1593
  672MOL0     H92689   0.274   7.552   1.924 -2.5421  1.3244  0.0979
  672MOL0     H92690   0.035   7.545   1.990 -0.0129 -0.6875  0.8990
  672MOL0     H92691   0.047   7.397   1.889 -1.4866 -1.9984  1.4047
  672MOL0     H92692  -0.064   7.331   2.093 -0.0786 -0.7032 -3.2336
  672MOL0     H92693   0.090   7.258   2.084  1.2883  0.7793 -0.2366
  672MOL0     H92694  -0.048   7.426   2.448  1.1216  1.9860 -0.8557
  672MOL0     H92695  -0.098   7.192   2.670  0.0657 -0.3471  1.1167
  672MOL0     H92696  -0.131   7.363   2.654 -3.4850 -3.0199  0.7143
  672MOL0     H92697   0.006   7.306   2.759  4.1016  0.7256 -2.4838
  672MOL0     H92698   0.446   6.797   2.659  1.0011  1.3161 -0.4426
  672MOL0     H92699   0.571   6.703   2.836  0.6067 -0.7795  3.0430
  672MOL0     H92700   0.592   6.596   3.161  0.1714 -0.7206 -0.5755
  672MOL0     H92701   0.659   6.650   3.003 -3.1713  2.0276 -0.9204
  672MOL0     H92702   0.711   6.804   3.261  2.5035  2.7120  0.5768
  672MOL0     H92703   0.831   6.685   3.224  2.1140  4.2396  1.6908
  672MOL0     H92704   0.882   6.929   3.134 -1.3948 -1.4265  1.3191
  672MOL0     H92705   0.804   6.864   2.984 -1.2085  1.2646 -0.2040
  672MOL0     H92706   0.937   6.668   2.978  0.1370  1.0812 -1.3114
  672MOL0     H92707   1.028   6.697   3.103  0.0030 -0.0335 -0.6429
  672MOL0     H92708   1.011   6.902   2.869  1.0841 -0.1958 -0.2404
  672MOL0     H92709   1.129   6.905   3.012 -1.0026 -1.3155  1.3039
  672MOL0     H92710   1.196   6.804   2.760 -2.4998  0.3379 -0.8860
  672MOL0     H92711   1.088   6.686   2.802 -1.4844  1.1423 -1.2533
  672MOL0     H92712   1.218   6.650   3.023  0.3047 -1.6740 -0.7154
  672MOL0     H92713   1.339   6.764   2.952  0.7352  0.2917 -2.6162
  672MOL0     H92714   1.392   6.528   2.923  2.9195 -0.6345 -3.0711
  672MOL0     H92715   1.381   6.606   2.768  1.0433  0.4048  1.0980
  672MOL0     H92716   0.367   6.944   3.109  1.1781  0.9042 -0.4965
  672MOL0     H92717   0.293   7.102   2.938  0.7380  0.8419 -0.8193
  672MOL0     H92718   0.313   7.095   2.439 -1.1850 -0.3814 -1.1721
  672MOL0     H92719   0.295   7.238   2.253 -1.3922 -1.6158 -2.3310
  672MOL0     H92720   0.847   8.279   2.691 -3.4475  1.7448  0.5714
  672MOL0     H92721   0.747   8.456   2.825  0.6813  0.4316 -2.0837
  672MOL0     H92722   0.890   8.609   3.303 -1.7470 -1.6774 -3.0280
  672MOL0     H92723   0.842   8.727   3.529 -1.4357  1.8270  0.7387
  672MOL0     H92724   0.459   8.872   3.522 -0.8332 -1.8486 -0.6922
  672MOL0     H92725   0.420   8.793   3.673 -0.4448  2.8288  2.1818
  672MOL0     H92726   0.560   8.945   3.796  1.6411  1.2168 -0.2508
  672MOL0     H92727   0.422   9.022   3.705 -0.8761 -1.3536 -2.5656
  672MOL0     H92728   0.716   9.022   3.654  1.7157  1.3620 -1.9671
  672MOL0     H92729   0.611   9.080   3.527  2.1719 -0.2366  0.1320
  672MOL0     H92730   0.523   9.254   3.732  1.9921  3.7582  1.3544
  672MOL0     H92731   0.647   9.287   3.626 -2.8352  1.5942 -0.4370
  672MOL0     H92732   0.883   9.192   3.956  0.6619 -3.8055  0.3500
  672MOL0     H92733   0.436   8.644   3.483  0.1909  1.9960  2.1732
  672MOL0     H92734   0.370   8.490   3.334 -1.4972 -1.3655 -1.6708
  672MOL0     H92735   0.365   8.596   3.201 -1.5624 -0.4220  2.4540
  672MOL0     H92736   0.440   8.440   3.180 -2.2394 -2.2676  1.7761
  673MOL0     O92737  10.980   0.299   5.549 -0.0325 -0.0287  1.4461
  673MOL0     C92738  11.044   0.404   5.552  0.4482 -1.3921 -0.7898
  673MOL0     O92739  11.074   0.466   5.672  0.3673 -0.3526 -0.7885
  673MOL0     C92740  11.049   0.396   5.789  0.3512 -0.4042 -0.3529
  673MOL0     C92741  11.104   0.276   5.826  0.3196  0.6364 -0.0727
  673MOL0     C92742  11.070   0.213   5.945  0.3809 -0.3142  0.1266
  673MOL0     C92743  10.976   0.267   6.026 -0.9850 -0.4171  0.3666
  673MOL0     O92744  10.932   0.208   6.138 -0.2829 -0.0495 -0.5722
  673MOL0     C92745  10.970   0.285   6.250 -0.0032  0.7427 -0.0745
  673MOL0     C92746  10.897   0.231   6.376  0.7479  0.2710 -0.0278
  673MOL0     C92747  10.749   0.256   6.366 -0.9769  0.1119  0.2925
  673MOL0     C92748  10.680   0.207   6.498  0.3738  0.3571  0.0612
  673MOL0     C92749  10.561   0.296   6.533 -0.1250  0.3413  0.2441
  673MOL0     C92750  10.448   0.264   6.444 -0.6543  0.0436 -0.2585
  673MOL0     C92751  10.325   0.335   6.486  0.9488  0.0683 -0.0731
  673MOL0     C92752  10.207   0.296   6.395  0.3673 -0.3727 -0.3165
  673MOL0     N92753  10.084   0.342   6.460 -0.0256  0.0655 -0.3614
  673MOL0     C92754  10.020   0.463   6.447  0.1907 -0.3198 -0.2729
  673MOL0     C92755   9.908   0.447   6.521 -0.5537  0.2275 -0.6954
  673MOL0     C92756   9.818   0.564   6.544 -0.1878  1.3807 -0.1856
  673MOL0     C92757   9.881   0.698   6.567 -0.6663 -0.0486  0.3365
  673MOL0     C92758   9.887   0.803   6.444  0.2543 -0.6338 -0.6867
  673MOL0     C92759  10.018   0.882   6.430 -0.2360  0.4148 -0.0290
  673MOL0     O92760  10.138   0.805   6.435 -0.0187 -0.2316  0.2053
  673MOL0     C92761  10.191   0.753   6.318 -0.0706 -0.8132 -0.1142
  673MOL0     C92762  10.314   0.706   6.331 -0.0885 -0.4307  0.3909
  673MOL0     C92763  10.390   0.663   6.217  0.2857 -0.7629 -0.6438
  673MOL0     C92764  10.533   0.621   6.254 -0.5859 -0.1415 -0.4998
  673MOL0     C92765  10.334   0.668   6.087  0.1075  0.0939  0.4187
  673MOL0     C92766  10.409   0.640   5.959  0.0963  0.1128 -0.7501
  673MOL0     O92767  10.526   0.577   5.971  0.5815  0.0721 -0.1821
  673MOL0     C92768  10.606   0.576   5.860 -0.7856 -0.6350  0.1558
  673MOL0     C92769  10.621   0.454   5.784  0.0154 -0.3516 -0.4706
  673MOL0     C92770  10.685   0.457   5.661 -1.0886  0.4017 -0.2662
  673MOL0     C92771  10.717   0.577   5.608 -1.2819 -0.1298  0.4834
  673MOL0     O92772  10.768   0.584   5.477 -0.5068  0.0094  0.0509
  673MOL0     C92773  10.707   0.493   5.384  1.3616 -0.4605 -1.0077
  673MOL0     C92774  10.721   0.534   5.240  0.1560 -0.5106 -0.1065
  673MOL0     C92775  10.639   0.441   5.142  0.4171 -0.1816  0.4381
  673MOL0     C92776  10.659   0.504   5.000 -0.7377  0.0993 -0.3847
  673MOL0     C92777  10.596   0.404   4.904  0.4159 -0.0580 -0.1916
  673MOL0     C92778  10.604   0.455   4.765  0.1646  0.9664 -0.1246
  673MOL0     C92779  10.566   0.345   4.669  0.0516  0.2006  0.2155
  673MOL0     C92780  10.536   0.400   4.523 -0.2556 -0.8190 -0.1492
  673MOL0    Cl92781  10.683   0.466   4.451  0.7661  0.0864  0.0033
  673MOL0     C92782  10.722   0.693   5.686 -0.5009 -0.1365  0.7314
  673MOL0     C92783  10.663   0.696   5.811  0.3266 -0.1295 -0.2241
  673MOL0     O92784  10.354   0.682   5.857  0.2042  0.7419  0.2031
  673MOL0     C92785  10.197   0.702   6.084  0.1052  0.4324  0.4432
  673MOL0     C92786  10.124   0.746   6.189 -0.1275  0.5696 -0.6433
  673MOL0     N92787   9.905   0.324   6.577 -0.2091  0.6714  0.5077
  673MOL0     N92788  10.004   0.264   6.525 -0.0886  1.3227 -0.6529
  673MOL0     C92789  10.919   0.391   5.990  0.4266 -1.0096 -0.0707
  673MOL0     C92790  10.963   0.461   5.879  0.1528 -0.9600 -0.7548
  673MOL0     C92791  11.079   0.477   5.427  0.4666  0.0477 -0.4555
  673MOL0     C92792  11.100   0.616   5.441 -0.5918  0.3547 -0.5767
  673MOL0     C92793  11.119   0.698   5.325 -0.6327  0.9649  0.1722
  673MOL0     C92794  11.110   0.643   5.201  0.1695 -0.0899 -0.7987
  673MOL0     O92795  11.129   0.722   5.091 -0.4548 -0.1632 -0.0324
  673MOL0     C92796  11.072   0.670   4.967 -0.6237 -0.0876  0.1897
  673MOL0     C92797  11.058   0.771   4.858 -0.2799 -0.1079  0.8499
  673MOL0     C92798  10.979   0.890   4.902 -0.7079  0.9259 -0.2901
  673MOL0     C92799  10.830   0.864   4.940 -0.5276  0.8598  0.0444
  673MOL0     C92800  10.766   0.842   4.811 -0.2103 -0.7463 -0.5442
  673MOL0     C92801  10.698   0.828   4.713 -0.0507 -0.2094  0.8415
  673MOL0     C92802  11.086   0.501   5.189 -0.1127 -0.5565 -0.2118
  673MOL0     C92803  11.085   0.418   5.303  0.3785 -0.6974  0.4688
  673MOL0     C92804  11.083   0.272   5.267  0.3737 -0.8195  0.7201
  673MOL0     H92805  11.157   0.222   5.748  1.1044  2.0624 -0.5575
  673MOL0     H92806  11.103   0.113   5.972  1.5595 -0.8814 -2.9920
  673MOL0     H92807  10.943   0.390   6.238 -4.0727  0.4702  3.8466
  673MOL0     H92808  11.079   0.285   6.259 -0.0171 -0.4243  0.3185
  673MOL0     H92809  10.917   0.127   6.403 -1.6963  0.1300  1.5667
  673MOL0     H92810  10.936   0.292   6.459 -0.1437 -0.0650  0.6524
  673MOL0     H92811  10.734   0.363   6.353  2.8992  1.0310  1.9522
  673MOL0     H92812  10.709   0.204   6.279 -1.0176  1.8811 -0.7884
  673MOL0     H92813  10.651   0.103   6.481  0.2524  0.8490 -3.4944
  673MOL0     H92814  10.751   0.207   6.581 -0.0045 -2.7236  0.5277
  673MOL0     H92815  10.591   0.401   6.527 -2.0641  0.8477 -2.8818
  673MOL0     H92816  10.533   0.269   6.635  0.4003  3.2624  1.2310
  673MOL0     H92817  10.471   0.279   6.338  0.3970 -0.3441 -0.1029
  673MOL0     H92818  10.447   0.155   6.448  5.2069 -0.3582 -0.3154
  673MOL0     H92819  10.342   0.442   6.499 -1.4867  0.3411  1.2988
  673MOL0     H92820  10.297   0.292   6.583  0.3591 -1.4143 -0.8738
  673MOL0     H92821  10.218   0.356   6.304  0.1051 -2.4285 -1.7639
  673MOL0     H92822  10.213   0.188   6.378 -1.6258 -0.3435 -1.5520
  673MOL0     H92823  10.063   0.550   6.399  2.9452 -1.6196 -0.3600
  673MOL0     H92824   9.753   0.541   6.628  2.4825 -1.1574  1.3869
  673MOL0     H92825   9.764   0.571   6.449  1.9552  0.9236 -1.5006
  673MOL0     H92826   9.822   0.748   6.645 -0.8463 -0.7605  0.6649
  673MOL0     H92827   9.976   0.687   6.620 -0.6472  0.1456  0.3440
  673MOL0     H92828   9.861   0.752   6.351  1.0483  0.4475 -1.5300
  673MOL0     H92829   9.802   0.869   6.465 -0.3354 -1.8405  0.8920
  673MOL0     H92830  10.006   0.945   6.341  2.7799 -0.0466 -0.8590
  673MOL0     H92831  10.035   0.956   6.508  2.2152  0.5672 -0.6131
  673MOL0     H92832  10.363   0.740   6.421  0.2678  1.6467 -0.5173
  673MOL0     H92833  10.601   0.702   6.225  0.1014 -0.4992  0.0839
  673MOL0     H92834  10.570   0.532   6.202  2.4250  2.4995 -3.2968
  673MOL0     H92835  10.547   0.609   6.362  0.8021  1.1809 -0.4934
  673MOL0     H92836  10.604   0.354   5.824  0.1211 -0.6720 -1.1963
  673MOL0     H92837  10.710   0.365   5.610  1.0008  1.4354 -1.2289
  673MOL0     H92838  10.729   0.389   5.412 -0.8620 -0.9459 -0.8986
  673MOL0     H92839  10.600   0.491   5.405  1.4485 -3.5734 -0.3638
  673MOL0     H92840  10.702   0.642   5.244  2.1927 -0.1295  1.0125
  673MOL0     H92841  10.826   0.513   5.216  0.5791 -1.1468  2.0174
  673MOL0     H92842  10.535   0.450   5.175  1.3399 -1.7925  4.3091
  673MOL0     H92843  10.660   0.333   5.143 -2.0379 -0.8936 -3.5956
  673MOL0     H92844  10.765   0.508   4.976 -0.8864  1.2285 -0.9198
  673MOL0     H92845  10.619   0.605   4.996 -2.8152 -0.5255  1.7925
  673MOL0     H92846  10.643   0.305   4.900  0.1405 -0.1495 -2.6734
  673MOL0     H92847  10.490   0.395   4.929 -0.2214 -0.8000 -2.8106
  673MOL0     H92848  10.712   0.468   4.754  0.9270 -0.9585  3.6642
  673MOL0     H92849  10.549   0.550   4.756 -1.5283 -0.1325 -2.3941
  673MOL0     H92850  10.478   0.288   4.698 -0.4304 -0.1306 -1.7208
  673MOL0     H92851  10.651   0.278   4.655 -0.0593  0.3816 -1.6377
  673MOL0     H92852  10.460   0.479   4.524 -0.4337 -0.8609 -2.7509
  673MOL0     H92853  10.499   0.328   4.450 -1.6943 -0.6102  0.3338
  673MOL0     H92854  10.762   0.782   5.639  0.0936 -0.4529  0.6339
  673MOL0     H92855  10.645   0.795   5.851 -2.1422 -1.4951  2.4444
  673MOL0     H92856  10.150   0.712   5.986 -0.1101 -1.5440  0.3172
  673MOL0     H92857  10.022   0.783   6.177 -0.4495 -0.4227 -1.1268
  673MOL0     H92858  10.844   0.445   6.048 -1.4706 -1.3067 -2.1197
  673MOL0     H92859  10.932   0.560   5.846 -0.0316 -0.6471  0.2918
  673MOL0     H92860  11.111   0.661   5.540 -1.0928 -0.5691 -0.0805
  673MOL0     H92861  11.141   0.801   5.350  0.2784  0.6677  0.6431
  673MOL0     H92862  11.142   0.591   4.938 -0.0447  0.5346 -0.1429
  673MOL0     H92863  10.976   0.620   4.982 -0.6500 -0.3029 -0.6782
  673MOL0     H92864  11.015   0.735   4.764 -0.1280 -0.2682  0.8406
  673MOL0     H92865  11.157   0.808   4.830 -1.3968  2.4411 -0.0059
  673MOL0     H92866  11.012   0.921   5.002 -0.2901 -3.8337  1.3374
  673MOL0     H92867  10.987   0.973   4.832  1.6543  0.2909 -0.8361
  673MOL0     H92868  10.786   0.956   4.978  0.7861  3.0884 -3.4043
  673MOL0     H92869  10.804   0.780   5.006 -2.3286  0.0785 -1.5519
  673MOL0     H92870  10.630   0.814   4.631  0.5291  0.0170  0.3228
  673MOL0     H92871  11.083   0.450   5.094  4.7583 -0.4421 -0.7104
  673MOL0     H92872  11.137   0.246   5.175  0.5990  0.9819  0.2938
  673MOL0     H92873  11.114   0.226   5.361  1.9417  2.2166  1.8381
  673MOL0     H92874  10.981   0.263   5.228  0.3300  2.3167 -0.2119
  674MOL0     O92875   7.620   2.555   0.508  0.0601  0.0795 -0.5912
  674MOL0     C92876   7.549   2.641   0.452  0.3495  0.7619 -0.8389
  674MOL0     O92877   7.586   2.718   0.349  0.2293 -0.6666 -0.0097
  674MOL0     C92878   7.701   2.677   0.285  0.0533 -0.4153  0.3676
  674MOL0     C92879   7.701   2.568   0.197  0.4594  0.2270  0.7121
  674MOL0     C92880   7.809   2.531   0.125  0.6310  0.8589 -0.1610
  674MOL0     C92881   7.929   2.603   0.147  0.1750 -0.3513  0.3984
  674MOL0     O92882   8.044   2.547   0.096 -0.7132 -0.1509  0.0933
  674MOL0     C92883   8.152   2.535   0.198 -0.1617  0.0960  0.3856
  674MOL0     C92884   8.262   2.449   0.132  0.3831 -0.7728  0.4815
  674MOL0     C92885   8.363   2.421   0.233  0.5390  0.2147 -0.7333
  674MOL0     C92886   8.489   2.335   0.193  0.4490 -0.8850 -0.6728
  674MOL0     C92887   8.539   2.270   0.325  0.0684  0.6577  0.4858
  674MOL0     C92888   8.666   2.184   0.302 -0.2953  0.1954  0.0979
  674MOL0     C92889   8.706   2.104   0.430  0.6911 -0.3241  0.3151
  674MOL0     C92890   8.732   2.184   0.564  0.5158  0.0498 -0.3322
  674MOL0     N92891   8.875   2.224   0.574  0.4591 -0.3517  0.3838
  674MOL0     C92892   8.921   2.347   0.542 -0.3296  0.1662  0.4484
  674MOL0     C92893   9.059   2.333   0.551  0.9112  0.8542 -0.1014
  674MOL0     C92894   9.146   2.433   0.492 -0.7058 -0.1352  0.7140
  674MOL0     C92895   9.235   2.387   0.378 -0.0702  0.8902  0.6856
  674MOL0     C92896   9.327   2.497   0.335  0.1327  0.7111 -0.2935
  674MOL0     C92897   9.394   2.471   0.204  0.0981  0.0121  0.1010
  674MOL0     O92898   9.509   2.402   0.239 -0.8039 -0.0633  0.8968
  674MOL0     C92899   9.577   2.319   0.150  0.0044  0.6980  0.1003
  674MOL0     C92900   9.534   2.269   0.028  0.2659  0.5081 -0.3253
  674MOL0     C92901   9.591   2.168  -0.045  0.0011  0.5059 -0.1656
  674MOL0     C92902   9.509   2.116  -0.160  0.6317 -0.1563  0.2802
  674MOL0     C92903   9.724   2.121  -0.004 -0.3784 -0.6822 -0.1332
  674MOL0     C92904   9.793   1.995  -0.063  0.5586 -0.1130 -0.6427
  674MOL0     O92905   9.715   1.899  -0.133 -1.1713  0.2595 -0.3026
  674MOL0     C92906   9.758   1.771  -0.142  0.3023  0.3631  0.2662
  674MOL0     C92907   9.871   1.741  -0.221  0.0825  0.4503 -0.2323
  674MOL0     C92908   9.912   1.604  -0.246 -0.6125 -0.9503  0.4070
  674MOL0     C92909   9.822   1.505  -0.200  0.7899 -0.6437 -0.4187
  674MOL0     O92910   9.866   1.372  -0.225  0.5039  1.0272  0.5456
  674MOL0     C92911   9.856   1.277  -0.126  0.8242  0.6267  0.3463
  674MOL0     C92912   9.936   1.139  -0.142 -0.9290  0.5414 -0.0396
  674MOL0     C92913   9.930   1.072  -0.284 -0.1080 -0.0465 -0.7911
  674MOL0     C92914   9.991   0.928  -0.282 -0.2402  0.4820  0.4362
  674MOL0     C92915  10.147   0.938  -0.298 -0.8492  0.7555 -0.0388
  674MOL0     C92916  10.199   0.795  -0.286  0.3438  0.6286 -0.5381
  674MOL0     C92917  10.350   0.795  -0.326  0.8720 -0.0861 -0.6535
  674MOL0     C92918  10.460   0.802  -0.220  0.7168 -0.0526 -0.1413
  674MOL0    Cl92919  10.609   0.786  -0.301 -0.0206 -0.2545  0.2173
  674MOL0     C92920   9.704   1.540  -0.136  0.0212 -0.0829 -0.8664
  674MOL0     C92921   9.678   1.666  -0.099  0.3104 -0.2904 -0.3289
  674MOL0     O92922   9.914   1.992  -0.058 -0.4093 -0.0125  0.0036
  674MOL0     C92923   9.789   2.188   0.102  0.0009 -0.9524 -0.0017
  674MOL0     C92924   9.716   2.295   0.171  0.2526  1.1704 -1.5330
  674MOL0     N92925   9.081   2.209   0.601  0.0468 -0.0275  0.0446
  674MOL0     N92926   8.978   2.143   0.620 -0.2101  0.5907  0.0831
  674MOL0     C92927   7.931   2.713   0.229 -1.4883  0.3392 -0.1550
  674MOL0     C92928   7.825   2.750   0.302  0.3306  0.1285 -0.8266
  674MOL0     C92929   7.412   2.669   0.508 -0.7576 -1.0202 -0.2671
  674MOL0     C92930   7.355   2.785   0.453 -0.4579 -0.3621  0.6997
  674MOL0     C92931   7.225   2.819   0.494  0.4728 -0.7324  0.0931
  674MOL0     C92932   7.156   2.756   0.595 -0.6478  1.4087 -0.1085
  674MOL0     O92933   7.038   2.808   0.639 -0.2300 -0.0971 -0.2442
  674MOL0     C92934   6.946   2.720   0.696  0.3924 -0.3410 -0.4377
  674MOL0     C92935   6.810   2.788   0.693 -0.0146  0.6804  0.1846
  674MOL0     C92936   6.746   2.828   0.553 -0.1835  0.2935  0.1969
  674MOL0     C92937   6.597   2.861   0.589  0.1572  0.8765  0.0757
  674MOL0     C92938   6.522   2.868   0.458  0.0881  0.3610  0.1618
  674MOL0     C92939   6.452   2.883   0.356  0.2406  1.1596 -0.5445
  674MOL0     C92940   7.221   2.644   0.655  0.0038  0.3772 -0.4436
  674MOL0     C92941   7.346   2.599   0.612  0.3584  0.2989 -0.0970
  674MOL0     C92942   7.395   2.467   0.665  0.1120  0.1531 -0.2573
  674MOL0     H92943   7.609   2.511   0.192  1.5026 -1.5490  1.0854
  674MOL0     H92944   7.816   2.444   0.062 -0.1834  1.2588 -0.8181
  674MOL0     H92945   8.119   2.483   0.289  3.8836  1.7460  3.0703
  674MOL0     H92946   8.191   2.629   0.238 -0.7731 -0.2919  1.9755
  674MOL0     H92947   8.227   2.350   0.101 -2.8055 -0.3682  2.3070
  674MOL0     H92948   8.313   2.504   0.053 -1.9826 -1.3451 -1.5879
  674MOL0     H92949   8.406   2.508   0.284  2.3772 -1.0887  0.0797
  674MOL0     H92950   8.310   2.382   0.320 -1.3232  3.2979 -0.3547
  674MOL0     H92951   8.467   2.261   0.116 -1.6021  2.8749 -4.1292
  674MOL0     H92952   8.562   2.409   0.159  1.2304 -0.2764  2.0441
  674MOL0     H92953   8.466   2.189   0.334  1.6806 -1.2497 -1.9702
  674MOL0     H92954   8.549   2.341   0.407  1.8296 -0.0504  0.9215
  674MOL0     H92955   8.662   2.114   0.219  3.6231  1.2836 -1.2574
  674MOL0     H92956   8.749   2.252   0.278  0.9775  0.3016  3.9926
  674MOL0     H92957   8.799   2.047   0.422  1.4201  1.0357 -1.6044
  674MOL0     H92958   8.630   2.030   0.454  0.2965  0.5297  1.8472
  674MOL0     H92959   8.673   2.276   0.564  0.1034 -0.2105 -0.5882
  674MOL0     H92960   8.697   2.127   0.650  0.2686  2.5505  1.2906
  674MOL0     H92961   8.865   2.429   0.499  0.4987  0.4180 -0.1989
  674MOL0     H92962   9.208   2.477   0.571 -3.9212  4.1742  1.2451
  674MOL0     H92963   9.083   2.516   0.457 -1.8968  0.3465  3.6724
  674MOL0     H92964   9.286   2.291   0.386 -0.2014  0.2585 -3.6584
  674MOL0     H92965   9.174   2.374   0.288  3.1136  2.8830 -1.9891
  674MOL0     H92966   9.277   2.593   0.322  0.3862  0.7901 -0.7038
  674MOL0     H92967   9.401   2.512   0.414 -1.5820 -0.5087  1.6548
  674MOL0     H92968   9.344   2.397   0.140  1.9523 -0.3777 -0.9549
  674MOL0     H92969   9.425   2.554   0.140  3.6953 -2.5648 -1.8594
  674MOL0     H92970   9.451   2.313  -0.027  2.0474  0.1950 -3.5533
  674MOL0     H92971   9.510   2.010  -0.186 -0.3115 -0.3593  0.9922
  674MOL0     H92972   9.533   2.176  -0.248 -0.7317  1.0356  0.6641
  674MOL0     H92973   9.401   2.128  -0.146  0.3761 -0.3622 -1.3700
  674MOL0     H92974   9.922   1.829  -0.258  0.6641 -0.4378 -1.5923
  674MOL0     H92975   9.988   1.578  -0.319 -0.1784  2.0762 -0.3593
  674MOL0     H92976   9.878   1.323  -0.029 -1.6903 -1.6512  2.1646
  674MOL0     H92977   9.752   1.244  -0.124  0.5779  1.3263  2.9704
  674MOL0     H92978  10.039   1.172  -0.135 -0.2589 -1.4824  0.2447
  674MOL0     H92979   9.928   1.060  -0.067  4.3405 -1.7122 -1.4416
  674MOL0     H92980   9.987   1.133  -0.355 -0.1918  2.3610  1.0598
  674MOL0     H92981   9.830   1.064  -0.328  1.0687 -2.0432 -3.3584
  674MOL0     H92982   9.956   0.872  -0.369  1.6215  2.1928 -1.5523
  674MOL0     H92983   9.954   0.885  -0.189 -2.2369 -0.8249 -0.8781
  674MOL0     H92984  10.166   0.976  -0.398 -1.2994 -0.7333 -0.7210
  674MOL0     H92985  10.204   0.993  -0.222  0.6626 -1.2950  0.4052
  674MOL0     H92986  10.142   0.732  -0.355  1.4343 -0.8173 -0.1817
  674MOL0     H92987  10.188   0.754  -0.185  3.6405 -0.4825 -0.5158
  674MOL0     H92988  10.364   0.888  -0.381  4.0645 -0.2778 -0.3072
  674MOL0     H92989  10.361   0.714  -0.399 -1.3194 -0.5516 -0.5337
  674MOL0     H92990  10.453   0.723  -0.145 -6.1349 -2.0303 -2.1081
  674MOL0     H92991  10.449   0.897  -0.165 -1.5078  0.8017 -1.8787
  674MOL0     H92992   9.634   1.460  -0.115  3.7612 -2.7368  3.4154
  674MOL0     H92993   9.587   1.689  -0.043  0.0995 -1.9572  0.0763
  674MOL0     H92994   9.888   2.154   0.133 -0.1084 -1.4973 -0.2475
  674MOL0     H92995   9.755   2.343   0.260 -0.8754  1.1577 -1.0095
  674MOL0     H92996   8.022   2.771   0.247  0.8723 -2.8648 -0.8177
  674MOL0     H92997   7.828   2.831   0.374  2.6497  1.1441 -1.9610
  674MOL0     H92998   7.400   2.869   0.400 -2.8845  2.3728  2.6089
  674MOL0     H92999   7.170   2.903   0.452  2.2578 -1.7951 -5.0480
  674MOL0     H93000   6.950   2.628   0.637 -1.2774 -0.8368  0.1677
  674MOL0     H93001   6.984   2.701   0.797 -0.7291  1.6169  0.4132
  674MOL0     H93002   6.805   2.873   0.763 -2.1308 -0.1872  1.1741
  674MOL0     H93003   6.748   2.725   0.757  0.8242  1.9284  2.3443
  674MOL0     H93004   6.794   2.916   0.508 -1.4326  2.0413  2.0662
  674MOL0     H93005   6.738   2.739   0.491 -0.1827 -0.0618  0.7044
  674MOL0     H93006   6.603   2.961   0.633  0.3819  0.8397  0.1334
  674MOL0     H93007   6.553   2.784   0.653 -0.0335  1.3529  0.5195
  674MOL0     H93008   6.390   2.888   0.270 -0.3624  1.9382 -0.0861
  674MOL0     H93009   7.180   2.599   0.745 -2.2100 -0.5092 -1.8084
  674MOL0     H93010   7.502   2.459   0.682  0.0677  2.8229  1.9712
  674MOL0     H93011   7.355   2.445   0.765  1.5416  1.4466  0.6431
  674MOL0     H93012   7.370   2.391   0.591  1.7137  0.7870 -1.5007
  675MOL0     O93013   6.465   6.380   7.675 -0.0799 -0.2896 -0.4322
  675MOL0     C93014   6.394   6.348   7.762  0.2235  0.5406 -0.7302
  675MOL0     O93015   6.430   6.254   7.867 -0.2589 -0.2833 -0.0098
  675MOL0     C93016   6.554   6.191   7.875 -0.6033 -0.8118 -0.2174
  675MOL0     C93017   6.554   6.058   7.855  0.0754 -0.7326 -0.1448
  675MOL0     C93018   6.675   5.988   7.857 -0.0440  0.5496 -0.0434
  675MOL0     C93019   6.792   6.053   7.895 -0.5460 -0.1973 -0.2077
  675MOL0     O93020   6.903   5.991   7.922 -0.2655  1.0276  0.5423
  675MOL0     C93021   7.013   6.015   7.834  1.3786 -0.1798  0.1473
  675MOL0     C93022   7.096   5.897   7.783  0.0234  0.1570  0.2180
  675MOL0     C93023   7.021   5.816   7.675 -0.1447  0.4660 -0.3959
  675MOL0     C93024   7.076   5.674   7.673  0.3777  1.0423 -0.4420
  675MOL0     C93025   7.063   5.604   7.540 -0.0849  0.0745 -0.8349
  675MOL0     C93026   6.914   5.572   7.510 -0.2093 -0.0666 -0.0058
  675MOL0     C93027   6.899   5.514   7.370  0.0652  0.2453 -0.0988
  675MOL0     C93028   6.752   5.513   7.319  0.3354  0.2092 -0.0680
  675MOL0     N93029   6.685   5.394   7.381 -0.3179 -0.0211 -0.4545
  675MOL0     C93030   6.591   5.406   7.482 -0.1242  1.1402 -0.3645
  675MOL0     C93031   6.534   5.282   7.499 -0.9173 -0.2584  0.1863
  675MOL0     C93032   6.426   5.262   7.607  0.2181  0.0890  0.0393
  675MOL0     C93033   6.465   5.155   7.698  1.3146 -0.2367  0.2856
  675MOL0     C93034   6.528   5.020   7.642  0.6199 -0.6592 -0.1962
  675MOL0     C93035   6.437   4.947   7.537  0.0274 -0.4817  0.0372
  675MOL0     O93036   6.483   4.805   7.524 -0.1830 -0.3233  0.7507
  675MOL0     C93037   6.395   4.697   7.535 -0.5384 -0.7156  0.2706
  675MOL0     C93038   6.439   4.564   7.548 -0.4572  0.6671  0.5313
  675MOL0     C93039   6.354   4.449   7.567  0.0656  0.0712 -0.0817
  675MOL0     C93040   6.412   4.313   7.604  0.3064 -0.4684 -0.2293
  675MOL0     C93041   6.212   4.470   7.565 -0.0780 -0.2863 -0.5727
  675MOL0     C93042   6.114   4.376   7.626 -0.2924 -1.2025  0.4033
  675MOL0     O93043   5.989   4.380   7.569  0.6258  0.7736 -0.8053
  675MOL0     C93044   5.913   4.270   7.601 -0.5195 -0.1466 -0.0144
  675MOL0     C93045   5.872   4.198   7.495 -0.1286 -0.2554 -0.6379
  675MOL0     C93046   5.790   4.088   7.512  0.1841  0.2335 -0.0230
  675MOL0     C93047   5.733   4.055   7.638 -0.5008 -0.3386 -0.1779
  675MOL0     O93048   5.643   3.948   7.651 -0.8800  0.1513  0.2681
  675MOL0     C93049   5.653   3.836   7.554 -0.0990  0.5256 -0.1030
  675MOL0     C93050   5.559   3.723   7.598  0.4718  0.7277 -0.5296
  675MOL0     C93051   5.600   3.574   7.539  0.0995 -0.0734  0.5224
  675MOL0     C93052   5.746   3.534   7.574  0.0823 -0.1880  0.8658
  675MOL0     C93053   5.791   3.529   7.721 -0.1210 -0.3095  0.6171
  675MOL0     C93054   5.901   3.430   7.753  0.2701 -0.1486 -0.9459
  675MOL0     C93055   6.033   3.503   7.718 -0.9503  0.4742  0.1597
  675MOL0     C93056   6.156   3.426   7.756  1.2412  0.6979  0.1509
  675MOL0    Cl93057   6.237   3.514   7.890 -0.0091 -0.2005  0.3414
  675MOL0     C93058   5.777   4.139   7.747 -0.5015  0.6203 -0.5009
  675MOL0     C93059   5.873   4.235   7.731 -0.4497 -0.1654 -0.3582
  675MOL0     O93060   6.146   4.319   7.729 -0.1471  0.6431 -0.0037
  675MOL0     C93061   6.165   4.595   7.524 -0.6426  0.2961  0.6977
  675MOL0     C93062   6.252   4.709   7.508  0.2317  0.7795  0.0601
  675MOL0     N93063   6.588   5.210   7.401 -1.0019 -0.8438  0.0478
  675MOL0     N93064   6.673   5.270   7.329  0.0648  0.2164 -0.2785
  675MOL0     C93065   6.793   6.195   7.910 -0.0652  0.3221  0.2325
  675MOL0     C93066   6.667   6.267   7.893 -0.7094 -0.0950 -0.8888
  675MOL0     C93067   6.253   6.385   7.757  0.1236  0.3384  0.5539
  675MOL0     C93068   6.152   6.288   7.781 -0.0498  0.1275 -0.7734
  675MOL0     C93069   6.014   6.317   7.770  0.4126  0.1995 -0.5707
  675MOL0     C93070   5.971   6.434   7.718  0.0054  0.3528  0.5540
  675MOL0     O93071   5.836   6.448   7.692 -0.1630 -0.7480 -0.4876
  675MOL0     C93072   5.813   6.445   7.551  0.2159 -0.9072  0.0640
  675MOL0     C93073   5.669   6.501   7.543 -0.2733  0.0030 -1.0314
  675MOL0     C93074   5.622   6.504   7.403  0.3039  1.2639  0.6243
  675MOL0     C93075   5.492   6.577   7.391  0.2248  0.3851 -0.2132
  675MOL0     C93076   5.442   6.572   7.249  1.0147 -0.0576  0.0149
  675MOL0     C93077   5.406   6.575   7.132 -0.1339 -0.9019 -0.4453
  675MOL0     C93078   6.068   6.521   7.674 -0.1440 -0.0896 -0.1205
  675MOL0     C93079   6.207   6.508   7.693  0.0486  0.5092  0.5292
  675MOL0     C93080   6.291   6.623   7.642  0.2794  0.2796 -0.1241
  675MOL0     H93081   6.460   6.004   7.850 -0.4597 -0.2972  3.2416
  675MOL0     H93082   6.665   5.881   7.842  1.1517  0.1223  1.8384
  675MOL0     H93083   7.079   6.086   7.885 -0.6731  0.6173  1.8139
  675MOL0     H93084   6.972   6.065   7.746  0.0104  0.5608  1.1659
  675MOL0     H93085   7.192   5.933   7.744 -1.0597  3.5517  0.3752
  675MOL0     H93086   7.132   5.832   7.864  3.9973  0.3444 -1.2109
  675MOL0     H93087   6.912   5.820   7.685 -0.0545 -0.0141  1.0143
  675MOL0     H93088   7.034   5.872   7.582  0.2059  0.8149 -0.1431
  675MOL0     H93089   7.178   5.689   7.709  0.1845  3.3277 -0.6673
  675MOL0     H93090   7.017   5.620   7.747 -0.7281 -0.3301 -2.2462
  675MOL0     H93091   7.115   5.509   7.556 -2.9152 -1.3237  0.8696
  675MOL0     H93092   7.106   5.662   7.458  1.3161 -0.8126 -0.7770
  675MOL0     H93093   6.857   5.515   7.585 -2.0349  3.2678  1.4113
  675MOL0     H93094   6.851   5.661   7.517 -1.0173 -0.6766  0.8015
  675MOL0     H93095   6.938   5.413   7.383 -0.5705  0.2256  1.9961
  675MOL0     H93096   6.955   5.569   7.294 -1.1990 -0.2018 -1.4103
  675MOL0     H93097   6.697   5.605   7.339 -1.8338 -1.1819  0.8426
  675MOL0     H93098   6.737   5.511   7.211 -2.7497  1.5770  0.2393
  675MOL0     H93099   6.559   5.484   7.550  1.7451  1.8371 -0.2305
  675MOL0     H93100   6.327   5.232   7.571  0.6181 -1.9187  0.4600
  675MOL0     H93101   6.401   5.349   7.668 -2.4185 -0.5967  0.0506
  675MOL0     H93102   6.544   5.202   7.757  2.4464 -0.0243 -1.3148
  675MOL0     H93103   6.378   5.136   7.761  0.6014  1.1530 -0.2198
  675MOL0     H93104   6.627   5.050   7.606  0.7431 -1.2974 -0.3921
  675MOL0     H93105   6.554   4.952   7.724 -1.2453  1.9611  2.8400
  675MOL0     H93106   6.335   4.965   7.574 -0.8442  3.6334 -3.5277
  675MOL0     H93107   6.430   5.001   7.442 -0.8375 -2.3775 -1.0360
  675MOL0     H93108   6.543   4.544   7.572 -0.9291 -0.5293  1.7154
  675MOL0     H93109   6.405   4.293   7.711  4.8228  2.1155  0.8123
  675MOL0     H93110   6.519   4.313   7.581  1.5166  2.0825  4.2590
  675MOL0     H93111   6.367   4.238   7.538 -0.8631 -0.1418  0.1694
  675MOL0     H93112   5.911   4.223   7.397 -0.6681 -1.7461 -1.2691
  675MOL0     H93113   5.778   4.020   7.428 -2.9520 -0.4801  0.8759
  675MOL0     H93114   5.629   3.861   7.450 -0.0770 -1.1002 -0.5271
  675MOL0     H93115   5.760   3.813   7.559  0.2021  1.0755 -2.4867
  675MOL0     H93116   5.555   3.712   7.707 -1.4696  1.1931 -0.5164
  675MOL0     H93117   5.465   3.756   7.552 -0.4156 -2.4611 -1.2009
  675MOL0     H93118   5.582   3.571   7.431  0.6467 -0.2576  0.4367
  675MOL0     H93119   5.529   3.504   7.585  1.5192 -1.7828  0.1899
  675MOL0     H93120   5.810   3.600   7.515  0.4407  0.0537  1.5113
  675MOL0     H93121   5.765   3.432   7.539  0.3639  0.3137 -0.4955
  675MOL0     H93122   5.818   3.633   7.745  1.8265 -0.3895 -0.9586
  675MOL0     H93123   5.697   3.497   7.767 -1.2044  0.4579 -0.9685
  675MOL0     H93124   5.893   3.339   7.693  2.0677 -2.6250  2.2455
  675MOL0     H93125   5.895   3.396   7.856  1.4730 -0.2571 -0.8990
  675MOL0     H93126   6.047   3.607   7.749 -0.3574  0.7381 -0.9505
  675MOL0     H93127   6.037   3.514   7.609  1.5493  0.4188  0.1788
  675MOL0     H93128   6.226   3.418   7.673  1.8947  0.9580  0.6762
  675MOL0     H93129   6.126   3.327   7.792  0.1233  1.0069  0.1107
  675MOL0     H93130   5.735   4.112   7.844 -0.8411 -0.9473 -1.0652
  675MOL0     H93131   5.893   4.307   7.809  0.9448  0.3080 -1.1234
  675MOL0     H93132   6.061   4.613   7.497 -1.1284 -1.3516  1.3783
  675MOL0     H93133   6.210   4.801   7.470 -1.3428 -0.8056 -2.3945
  675MOL0     H93134   6.882   6.254   7.926 -0.9349  1.7890 -0.1058
  675MOL0     H93135   6.669   6.375   7.899 -2.4647 -0.0517 -0.3712
  675MOL0     H93136   6.187   6.190   7.811 -1.6846 -0.7852 -1.7066
  675MOL0     H93137   5.944   6.234   7.780  2.2554 -1.1338  3.2708
  675MOL0     H93138   5.880   6.510   7.493 -1.2744  0.1249 -0.5552
  675MOL0     H93139   5.814   6.345   7.506 -3.8641  0.4392 -3.8129
  675MOL0     H93140   5.665   6.595   7.599  1.8682 -0.2141 -0.4048
  675MOL0     H93141   5.606   6.427   7.592 -1.4576  2.1697  0.9437
  675MOL0     H93142   5.696   6.557   7.342  0.5123  0.9616  0.6097
  675MOL0     H93143   5.608   6.401   7.368 -2.8192  1.3805  1.2770
  675MOL0     H93144   5.505   6.679   7.428  1.3786  0.7169 -1.4367
  675MOL0     H93145   5.416   6.523   7.448  0.2256 -0.2885 -0.8236
  675MOL0     H93146   5.357   6.553   7.039  0.1807 -0.2119 -0.7740
  675MOL0     H93147   6.041   6.612   7.620  2.1684 -0.8709 -2.8694
  675MOL0     H93148   6.395   6.622   7.675  0.4772  1.1030 -0.7132
  675MOL0     H93149   6.298   6.620   7.533  2.7735 -2.0087 -0.0213
  675MOL0     H93150   6.242   6.713   7.678  1.1569 -0.3535  2.9925
  676MOL0     O93151   0.694   9.640   0.648 -0.3933  0.5954 -0.0723
  676MOL0     C93152   0.658   9.752   0.674  0.4349 -0.4762  0.2846
  676MOL0     O93153   0.680   9.863   0.596 -0.1893 -0.0298 -0.1606
  676MOL0     C93154   0.733   9.853   0.469  0.0100  0.5785  0.0925
  676MOL0     C93155   0.720   9.746   0.374  0.0931 -0.0017  0.3002
  676MOL0     C93156   0.763   9.747   0.242  0.3349  1.1954 -0.0610
  676MOL0     C93157   0.817   9.868   0.192  1.2829  0.3498 -0.2444
  676MOL0     O93158   0.872   9.874   0.071  0.1988 -0.0776 -0.2337
  676MOL0     C93159   1.012   9.887   0.066 -0.3188 -0.1315 -0.0974
  676MOL0     C93160   1.053   9.918  -0.081  0.1301  0.4363  0.0210
  676MOL0     C93161   1.205   9.906  -0.105 -0.1246 -0.1346 -0.0752
  676MOL0     C93162   1.245   9.933  -0.251  0.0885  0.0103 -0.8753
  676MOL0     C93163   1.399   9.936  -0.254  0.5141 -0.0215 -0.4888
  676MOL0     C93164   1.483   9.818  -0.202  0.5466  0.4639 -0.8197
  676MOL0     C93165   1.629   9.828  -0.246  0.4748 -0.3733  0.5111
  676MOL0     C93166   1.721   9.709  -0.216 -0.2581 -0.0089  0.3362
  676MOL0     N93167   1.662   9.583  -0.272  0.7120 -0.1121 -0.5662
  676MOL0     C93168   1.559   9.498  -0.218 -0.8180 -0.1930  0.1129
  676MOL0     C93169   1.534   9.417  -0.318 -0.3986  0.0827  0.5936
  676MOL0     C93170   1.425   9.315  -0.318 -0.7882  0.7738 -0.2412
  676MOL0     C93171   1.463   9.180  -0.243  0.1543 -0.0633  0.8781
  676MOL0     C93172   1.610   9.136  -0.279  0.0251 -0.1757 -1.3477
  676MOL0     C93173   1.615   8.986  -0.248  0.7639  0.1320 -0.4078
  676MOL0     O93174   1.619   8.958  -0.105  0.2446 -0.3721  0.5154
  676MOL0     C93175   1.594   8.830  -0.066  0.0049 -0.1693  0.6494
  676MOL0     C93176   1.581   8.813   0.067 -0.6827  0.0372  0.0594
  676MOL0     C93177   1.574   8.682   0.121  0.5674 -0.6029 -0.5029
  676MOL0     C93178   1.573   8.673   0.279  0.5087 -0.7526  1.0466
  676MOL0     C93179   1.584   8.566   0.043  0.0157  0.5351 -0.9010
  676MOL0     C93180   1.603   8.430   0.107 -0.5291 -0.2088 -0.0363
  676MOL0     O93181   1.489   8.360   0.111  1.1935  1.0521 -0.7940
  676MOL0     C93182   1.505   8.230   0.144 -0.5803 -0.5807  0.1837
  676MOL0     C93183   1.495   8.139   0.039 -0.4598 -1.0216  0.1483
  676MOL0     C93184   1.496   8.000   0.066  0.1723 -0.7423  0.5302
  676MOL0     C93185   1.514   7.951   0.199 -0.4436  0.4872  0.5140
  676MOL0     O93186   1.528   7.817   0.227 -0.2893 -0.2228 -0.5267
  676MOL0     C93187   1.602   7.729   0.147  0.2710 -0.5998  0.6025
  676MOL0     C93188   1.649   7.609   0.231 -0.3789 -0.6323  1.1008
  676MOL0     C93189   1.713   7.506   0.134  0.0178  0.0344 -0.2323
  676MOL0     C93190   1.755   7.384   0.225  0.1689 -0.3444 -0.3163
  676MOL0     C93191   1.806   7.259   0.145 -0.9516  0.0423  0.1212
  676MOL0     C93192   1.932   7.281   0.063 -0.5407  0.9313  0.1440
  676MOL0     C93193   1.978   7.147   0.004 -0.5985 -0.5240 -0.1228
  676MOL0     C93194   2.076   7.173  -0.110  0.2557  0.0398  0.7062
  676MOL0    Cl93195   2.220   7.275  -0.071 -0.1124  0.2843  0.0962
  676MOL0     C93196   1.529   8.050   0.304 -0.7607  0.8496  0.4857
  676MOL0     C93197   1.520   8.181   0.270 -0.4994 -0.0021 -0.1627
  676MOL0     O93198   1.716   8.389   0.142  0.0310 -0.0493 -0.0174
  676MOL0     C93199   1.606   8.581  -0.099 -0.6900  0.3162  0.1414
  676MOL0     C93200   1.610   8.711  -0.142  0.4712  0.8556 -0.3734
  676MOL0     N93201   1.617   9.440  -0.424  0.2520  0.0863  0.6880
  676MOL0     N93202   1.698   9.536  -0.394 -0.5777 -0.4001 -0.0078
  676MOL0     C93203   0.834   9.973   0.280 -0.0522 -0.8863 -0.6405
  676MOL0     C93204   0.792   9.967   0.416  0.7275  0.0733 -0.1759
  676MOL0     C93205   0.585   9.782   0.808  0.3224 -0.0865  0.2323
  676MOL0     C93206   0.511   9.908   0.814 -0.3927  0.1665  0.0619
  676MOL0     C93207   0.462   9.947   0.941  0.8647  1.1495 -0.2852
  676MOL0     C93208   0.468   9.865   1.061  0.2780 -0.0720  0.3231
  676MOL0     O93209   0.403   9.919   1.171  0.2176 -0.5383  0.3648
  676MOL0     C93210   0.402   9.843   1.297  0.8839 -0.0851 -0.9129
  676MOL0     C93211   0.302   9.727   1.307  1.2632 -0.4356  0.3553
  676MOL0     C93212   0.159   9.774   1.308  0.7694 -0.1630  0.6618
  676MOL0     C93213   0.067   9.645   1.311 -0.9486 -0.3431  0.0584
  676MOL0     C93214   0.057   9.576   1.442  0.7933 -0.4108 -0.0651
  676MOL0     C93215   0.039   9.523   1.544 -0.8524 -0.2315  0.4464
  676MOL0     C93216   0.515   9.728   1.036  0.1504  0.1036  0.6639
  676MOL0     C93217   0.578   9.686   0.916 -0.0969 -0.7014 -0.6432
  676MOL0     C93218   0.642   9.548   0.899  0.0392 -0.1928 -0.8654
  676MOL0     H93219   0.669   9.655   0.403 -0.3728 -0.3759 -1.6146
  676MOL0     H93220   0.743   9.657   0.186 -2.5982  0.1455  2.4121
  676MOL0     H93221   1.048   9.787   0.090 -0.3422  0.4442  2.6905
  676MOL0     H93222   1.048   9.953   0.146  1.0395 -1.5404  0.5055
  676MOL0     H93223   1.010   9.840  -0.146 -4.1976  4.0289 -2.0079
  676MOL0     H93224   1.024  10.007  -0.138  2.9351  0.1750 -2.0126
  676MOL0     H93225   1.247   9.987  -0.045  0.0237  0.5440 -1.0600
  676MOL0     H93226   1.244   9.807  -0.077 -0.2522 -0.3926 -0.7788
  676MOL0     H93227   1.202   9.854  -0.313 -0.5438 -2.5761  2.5392
  676MOL0     H93228   1.199  10.030  -0.271  0.5721  0.5099  0.3395
  676MOL0     H93229   1.433  10.031  -0.211 -0.6973  1.8618 -3.3663
  676MOL0     H93230   1.425   9.943  -0.360 -0.9297  1.0058 -0.8049
  676MOL0     H93231   1.490   9.813  -0.093  0.2261  1.1908 -0.7539
  676MOL0     H93232   1.439   9.728  -0.246  0.1389  1.8292 -3.4367
  676MOL0     H93233   1.656   9.930  -0.217 -0.8654  0.4415 -0.9468
  676MOL0     H93234   1.633   9.843  -0.354 -0.6888  1.1510  0.6494
  676MOL0     H93235   1.820   9.721  -0.263 -1.3493  0.2799 -2.0572
  676MOL0     H93236   1.731   9.694  -0.108 -1.3188  1.0533  0.5959
  676MOL0     H93237   1.509   9.507  -0.122 -2.3259  2.8074 -0.8484
  676MOL0     H93238   1.417   9.291  -0.425  3.6911 -1.1416 -0.3538
  676MOL0     H93239   1.330   9.357  -0.284 -1.5087 -0.5623 -0.5079
  676MOL0     H93240   1.441   9.191  -0.137 -2.1765 -0.2749  0.4616
  676MOL0     H93241   1.399   9.101  -0.284  0.3225  0.5426 -0.6380
  676MOL0     H93242   1.635   9.164  -0.382  2.9121  3.9911  0.1905
  676MOL0     H93243   1.673   9.193  -0.210  0.6192  1.5975 -3.2442
  676MOL0     H93244   1.526   8.941  -0.294 -1.7513  4.8384 -0.8711
  676MOL0     H93245   1.705   8.944  -0.294  1.0299 -0.6302  0.7755
  676MOL0     H93246   1.575   8.899   0.134  2.1326 -0.3307  0.8924
  676MOL0     H93247   1.533   8.767   0.317 -0.5715 -0.9668  0.4667
  676MOL0     H93248   1.674   8.655   0.317  0.7904  0.7094  1.0434
  676MOL0     H93249   1.510   8.591   0.311 -0.7786  0.5024  1.8338
  676MOL0     H93250   1.483   8.180  -0.061  1.1484  1.1171  0.7604
  676MOL0     H93251   1.495   7.925  -0.012 -0.5346 -0.2449  0.0532
  676MOL0     H93252   1.561   7.700   0.050  0.8674 -3.5585  1.1623
  676MOL0     H93253   1.687   7.792   0.119 -2.2626  3.8691  1.8678
  676MOL0     H93254   1.721   7.629   0.310  0.0732  0.7909  0.3623
  676MOL0     H93255   1.557   7.561   0.266 -2.2014  0.9933 -1.1353
  676MOL0     H93256   1.814   7.539   0.109  2.7157 -3.1105  4.7132
  676MOL0     H93257   1.644   7.483   0.053  1.6784  1.0875 -2.0409
  676MOL0     H93258   1.669   7.348   0.282  2.0501 -1.8645  1.7594
  676MOL0     H93259   1.832   7.413   0.296 -1.5108 -1.0669  1.9130
  676MOL0     H93260   1.823   7.172   0.209 -0.5466 -1.1503 -1.5352
  676MOL0     H93261   1.722   7.233   0.080 -0.8889  2.0186 -0.8326
  676MOL0     H93262   2.013   7.325   0.121 -0.3358 -1.1703  1.5667
  676MOL0     H93263   1.915   7.352  -0.019 -2.5953 -0.4564 -0.7335
  676MOL0     H93264   1.905   7.084  -0.046  1.6617  0.9302 -6.0278
  676MOL0     H93265   2.034   7.106   0.089 -0.3065  1.7725  0.8728
  676MOL0     H93266   2.024   7.221  -0.193 -1.0918  0.5689  1.8020
  676MOL0     H93267   2.103   7.073  -0.146 -0.3452 -0.2708  1.0853
  676MOL0     H93268   1.538   8.018   0.407 -0.4138 -2.8448 -0.5449
  676MOL0     H93269   1.514   8.262   0.342 -2.9258  0.4913 -0.8209
  676MOL0     H93270   1.608   8.493  -0.161 -3.4491 -2.4588  3.5103
  676MOL0     H93271   1.632   8.712  -0.249  0.1175  0.8214 -0.4480
  676MOL0     H93272   0.859  10.071   0.241 -3.5443 -0.1546 -1.3949
  676MOL0     H93273   0.786  10.044   0.493  1.6388 -0.7590  0.7635
  676MOL0     H93274   0.514   9.984   0.737  1.4003  0.6789  0.5793
  676MOL0     H93275   0.418  10.046   0.945 -1.1165  0.4119 -2.1101
  676MOL0     H93276   0.500   9.811   1.331 -0.5261 -1.7232  1.9905
  676MOL0     H93277   0.366   9.908   1.377  0.8344 -2.8079  1.4428
  676MOL0     H93278   0.310   9.688   1.409  0.5338 -2.7848 -0.4239
  676MOL0     H93279   0.316   9.648   1.234 -0.5372  0.1605 -0.6985
  676MOL0     H93280   0.142   9.835   1.397  1.8002  0.5691  0.3794
  676MOL0     H93281   0.139   9.831   1.217  0.8329 -2.0746 -0.6022
  676MOL0     H93282   0.110   9.569   1.245 -2.3315 -1.2263  0.1230
  676MOL0     H93283  -0.037   9.673   1.292 -1.2882  0.1820  2.4014
  676MOL0     H93284   0.025   9.482   1.642  0.1183 -0.6222  0.4311
  676MOL0     H93285   0.530   9.649   1.109  4.9348  0.3165  0.2206
  676MOL0     H93286   0.751   9.560   0.898 -0.0202  0.7204  0.4994
  676MOL0     H93287   0.612   9.487   0.985 -3.0904  2.7487  0.3749
  676MOL0     H93288   0.601   9.500   0.810  0.8605 -1.6002 -0.5196
  677MOL0     O93289  11.241   3.750   0.327 -0.0213 -0.2786  0.6021
  677MOL0     C93290  11.326   3.727   0.405 -0.2433 -0.1945 -0.3963
  677MOL0     O93291  11.305   3.685   0.530 -0.2589  0.3977 -0.0787
  677MOL0     C93292  11.177   3.678   0.581 -0.9756 -0.5848  0.0067
  677MOL0     C93293  11.081   3.603   0.531 -0.2117  0.9223  0.3360
  677MOL0     C93294  10.965   3.592   0.601  0.0589 -0.9840 -0.0796
  677MOL0     C93295  10.940   3.664   0.721 -0.0184 -0.3004  0.4317
  677MOL0     O93296  10.816   3.641   0.769  0.6184 -0.3424  0.4946
  677MOL0     C93297  10.769   3.734   0.857 -0.0819  0.2524  0.7195
  677MOL0     C93298  10.622   3.716   0.896 -0.1312  0.7992 -0.7253
  677MOL0     C93299  10.532   3.839   0.878  0.2946  0.7040 -0.1815
  677MOL0     C93300  10.570   3.944   0.988  0.2170 -0.4887  0.5442
  677MOL0     C93301  10.454   4.044   0.976  1.0046 -0.5472  0.3757
  677MOL0     C93302  10.462   4.153   1.084 -0.0514  0.1057  0.1371
  677MOL0     C93303  10.437   4.102   1.228  0.0503 -0.7766  0.2696
  677MOL0     C93304  10.287   4.114   1.270 -0.9855  0.2359 -0.5068
  677MOL0     N93305  10.249   4.039   1.392 -0.4377  0.2966  0.3634
  677MOL0     C93306  10.303   4.049   1.513  0.4593 -0.7834 -0.6027
  677MOL0     C93307  10.256   3.940   1.579  0.7309 -0.6952 -0.1954
  677MOL0     C93308  10.299   3.909   1.720  0.6897  0.7567 -0.4351
  677MOL0     C93309  10.194   3.837   1.805 -1.0465 -0.0279 -0.5227
  677MOL0     C93310  10.076   3.922   1.842  0.1971 -0.4709 -0.7749
  677MOL0     C93311  10.107   4.001   1.961 -0.0583 -0.8547  0.2249
  677MOL0     O93312  10.196   4.105   1.928  0.0783  0.6962 -0.3140
  677MOL0     C93313  10.139   4.231   1.931 -0.2444  0.6118  0.2382
  677MOL0     C93314  10.056   4.282   2.036 -0.3068  0.1831  0.0578
  677MOL0     C93315  10.010   4.412   2.043 -0.4771 -0.3771 -0.1998
  677MOL0     C93316   9.946   4.475   2.174 -0.5212  0.3819  0.3974
  677MOL0     C93317  10.041   4.498   1.920 -0.6871 -0.0456 -0.4764
  677MOL0     C93318   9.998   4.636   1.893  0.1619 -0.7529  1.0561
  677MOL0     O93319  10.088   4.713   1.815 -1.3875 -0.1266 -0.1726
  677MOL0     C93320  10.059   4.836   1.774  0.3509  1.1926  0.2563
  677MOL0     C93321  10.137   4.941   1.823  0.1021 -0.8532  0.6646
  677MOL0     C93322  10.112   5.070   1.787 -0.5897  0.5571  0.0267
  677MOL0     C93323  10.003   5.095   1.695  0.5496  0.0987  0.2527
  677MOL0     O93324   9.959   5.218   1.655  0.0452 -0.1292  0.5575
  677MOL0     C93325   9.997   5.332   1.730  0.4457  0.4370 -1.8417
  677MOL0     C93326   9.917   5.440   1.660 -0.7793 -0.5114 -0.2975
  677MOL0     C93327   9.766   5.424   1.677  0.0640 -0.3212 -0.5584
  677MOL0     C93328   9.701   5.557   1.716 -0.8304  0.1693  0.6145
  677MOL0     C93329   9.562   5.569   1.645  1.5075 -0.6233  0.5474
  677MOL0     C93330   9.476   5.450   1.664 -1.4819 -1.0965 -0.4068
  677MOL0     C93331   9.322   5.481   1.665  0.2375  0.1256  0.5899
  677MOL0     C93332   9.243   5.383   1.750  0.4055 -0.0618  0.1865
  677MOL0    Cl93333   9.277   5.202   1.731 -0.0828  0.6506  0.3021
  677MOL0     C93334   9.925   4.992   1.644 -0.4730 -0.7225 -0.6628
  677MOL0     C93335   9.956   4.863   1.686 -0.5115  0.8877 -0.4844
  677MOL0     O93336   9.897   4.683   1.942 -0.0888 -0.1574 -0.3577
  677MOL0     C93337  10.123   4.441   1.820 -0.1495 -0.1817 -0.5776
  677MOL0     C93338  10.183   4.319   1.832  0.3027  1.2110  0.1527
  677MOL0     N93339  10.187   3.864   1.490  0.3838  0.2715 -0.4167
  677MOL0     N93340  10.174   3.923   1.378  0.0612  0.2260  0.2817
  677MOL0     C93341  11.038   3.756   0.767  0.0798 -0.6960 -0.0394
  677MOL0     C93342  11.169   3.750   0.707 -0.2346  0.9823  0.1042
  677MOL0     C93343  11.464   3.737   0.363  0.1012  0.5926  0.0997
  677MOL0     C93344  11.495   3.822   0.247  0.4338 -0.0076 -0.3541
  677MOL0     C93345  11.631   3.855   0.233  0.0815  0.0077 -0.2574
  677MOL0     C93346  11.726   3.789   0.294 -0.0946  0.8280  0.5735
  677MOL0     O93347  11.856   3.820   0.250  0.7514  0.2051  0.1455
  677MOL0     C93348  11.942   3.878   0.350 -0.4509  0.1323  0.2423
  677MOL0     C93349  12.035   3.749   0.391  0.6766 -0.1531 -0.3630
  677MOL0     C93350  12.180   3.792   0.415 -0.3223 -0.8711 -0.4580
  677MOL0     C93351  12.192   3.839   0.570 -0.9409  1.3482  0.1888
  677MOL0     C93352  12.143   3.746   0.674 -0.0820  0.6650 -0.4034
  677MOL0     C93353  12.097   3.656   0.739  0.2107  0.5926  0.3992
  677MOL0     C93354  11.699   3.692   0.388  0.2225 -0.5828 -0.7033
  677MOL0     C93355  11.570   3.667   0.430  0.0034 -0.1181  0.1642
  677MOL0     C93356  11.565   3.567   0.544  0.2589  0.1621 -0.3253
  677MOL0     H93357  11.082   3.545   0.439  2.0233 -0.2061  1.0025
  677MOL0     H93358  10.890   3.516   0.583 -1.2868  1.0717 -4.3056
  677MOL0     H93359  10.778   3.829   0.805 -0.4054 -0.9148 -1.6070
  677MOL0     H93360  10.832   3.721   0.946 -1.7185 -2.1307  1.6390
  677MOL0     H93361  10.584   3.630   0.840  1.7539 -1.3131  1.0826
  677MOL0     H93362  10.623   3.679   0.999  1.2204  1.7984 -0.3581
  677MOL0     H93363  10.539   3.876   0.776  0.4261  0.0658 -0.4133
  677MOL0     H93364  10.426   3.818   0.893  0.5746  0.5199  1.7802
  677MOL0     H93365  10.569   3.895   1.086 -3.4454 -1.6170  0.1109
  677MOL0     H93366  10.670   3.981   0.966  0.3056  1.0647  3.1198
  677MOL0     H93367  10.359   3.990   0.982 -0.0314  1.3262  1.8117
  677MOL0     H93368  10.468   4.092   0.878  0.7194 -1.5808 -0.1913
  677MOL0     H93369  10.559   4.203   1.075 -0.5833  0.9396 -1.3581
  677MOL0     H93370  10.385   4.230   1.071 -2.0572 -1.3229  2.5807
  677MOL0     H93371  10.492   4.168   1.296  0.6947  0.8392 -1.7315
  677MOL0     H93372  10.464   3.999   1.250 -0.9990 -1.2175 -0.4402
  677MOL0     H93373  10.278   4.218   1.300 -0.8772 -0.5972  2.7281
  677MOL0     H93374  10.221   4.101   1.183 -1.0011  0.5090 -0.5360
  677MOL0     H93375  10.370   4.130   1.536 -1.0667  0.5983 -0.8220
  677MOL0     H93376  10.324   4.004   1.768 -0.0844  1.4412 -1.3474
  677MOL0     H93377  10.386   3.842   1.722 -0.3160 -0.6962  3.4888
  677MOL0     H93378  10.154   3.764   1.733  0.5925  0.8890 -2.4404
  677MOL0     H93379  10.255   3.784   1.879  1.1028  1.9825 -0.7525
  677MOL0     H93380  10.048   3.991   1.762  1.1115  0.2529 -0.5002
  677MOL0     H93381   9.983   3.875   1.874 -0.6516  1.7940  0.3305
  677MOL0     H93382  10.008   4.033   1.994 -0.5272  0.0494 -1.8466
  677MOL0     H93383  10.155   3.938   2.036  0.7608 -2.6325 -1.6729
  677MOL0     H93384  10.030   4.219   2.121 -0.1085  3.4200  2.7150
  677MOL0     H93385   9.955   4.415   2.265  1.4665  0.7905  0.5150
  677MOL0     H93386   9.844   4.510   2.155 -0.7373 -1.2164 -1.6574
  677MOL0     H93387  10.011   4.561   2.194  0.7261 -0.9216  2.4083
  677MOL0     H93388  10.211   4.928   1.901 -0.2628 -2.0189  0.8421
  677MOL0     H93389  10.156   5.160   1.829 -4.6672  2.4066  0.8433
  677MOL0     H93390   9.978   5.319   1.837  0.2711  3.5304 -1.4153
  677MOL0     H93391  10.105   5.350   1.724  0.4049  2.4207  1.2962
  677MOL0     H93392   9.953   5.532   1.707  0.7267 -2.0000  1.6345
  677MOL0     H93393   9.950   5.440   1.555 -0.9979 -1.8531 -0.3926
  677MOL0     H93394   9.740   5.352   1.755 -1.5658  0.6109 -0.1968
  677MOL0     H93395   9.730   5.387   1.581  2.8475 -1.6525 -1.2098
  677MOL0     H93396   9.757   5.648   1.694 -4.2929  2.6279  1.2855
  677MOL0     H93397   9.686   5.557   1.824  0.3003  2.2263  0.8132
  677MOL0     H93398   9.516   5.653   1.698 -0.5133 -1.1452 -0.2850
  677MOL0     H93399   9.577   5.597   1.541  2.1397  0.3982  0.8981
  677MOL0     H93400   9.495   5.412   1.765  0.5437  0.5329 -0.1044
  677MOL0     H93401   9.505   5.368   1.599  0.7605  1.7926 -3.4076
  677MOL0     H93402   9.278   5.475   1.565 -0.7830 -0.1173  1.0431
  677MOL0     H93403   9.306   5.585   1.693 -0.6323  0.1696 -0.0127
  677MOL0     H93404   9.139   5.416   1.744  1.1284  2.2609 -0.6215
  677MOL0     H93405   9.266   5.409   1.854  3.1842 -1.1296 -0.0790
  677MOL0     H93406   9.842   5.015   1.579 -0.7727  0.2412  0.0367
  677MOL0     H93407   9.893   4.781   1.652  1.6619 -0.9751 -0.2850
  677MOL0     H93408  10.146   4.483   1.723  0.1732 -1.5344 -1.0945
  677MOL0     H93409  10.249   4.269   1.762  0.4552 -2.7128  2.7970
  677MOL0     H93410  11.016   3.814   0.856 -4.8123 -0.0537 -1.3511
  677MOL0     H93411  11.253   3.812   0.737 -0.3219  1.6624 -1.0121
  677MOL0     H93412  11.421   3.875   0.188  0.8444  0.9961  0.0152
  677MOL0     H93413  11.656   3.944   0.177 -1.8251  1.5921  1.2441
  677MOL0     H93414  12.004   3.960   0.312 -1.6634  0.6573 -0.6899
  677MOL0     H93415  11.901   3.916   0.443  1.3642  2.9295  0.0237
  677MOL0     H93416  12.036   3.679   0.307 -0.1744  0.7395 -1.1343
  677MOL0     H93417  11.993   3.690   0.473 -2.9669  1.4798 -0.8638
  677MOL0     H93418  12.258   3.724   0.380  2.6197  0.8490  2.2751
  677MOL0     H93419  12.200   3.880   0.353 -1.7196 -1.1733 -1.3693
  677MOL0     H93420  12.121   3.921   0.584 -3.0073 -0.6131  2.1288
  677MOL0     H93421  12.299   3.856   0.584 -0.2343 -0.8301 -1.7858
  677MOL0     H93422  12.055   3.568   0.784  0.9966 -1.0737 -1.9499
  677MOL0     H93423  11.784   3.642   0.432  0.2792  1.6450  1.9918
  677MOL0     H93424  11.533   3.621   0.634  0.9078  1.5016 -0.8652
  677MOL0     H93425  11.487   3.498   0.513  0.4204  0.5722 -1.6864
  677MOL0     H93426  11.654   3.507   0.569  0.5594  0.9121  0.4668
  678MOL0     O93427  10.946  10.958   8.144 -0.1483 -0.6110 -0.0957
  678MOL0     C93428  11.037  10.944   8.060  0.4998 -0.1554 -0.8701
  678MOL0     O93429  11.031  10.997   7.937 -0.5235 -1.1221  0.1501
  678MOL0     C93430  10.957  11.110   7.910  0.4232  0.1895 -0.5389
  678MOL0     C93431  10.896  11.119   7.790  0.0098  0.6490  0.0880
  678MOL0     C93432  10.818  11.228   7.759  0.1866 -0.3006  0.7738
  678MOL0     C93433  10.799  11.339   7.844  0.0564  0.2681  0.0000
  678MOL0     O93434  10.731  11.448   7.790  0.3915 -1.0111  0.3258
  678MOL0     C93435  10.653  11.530   7.883 -0.8682  0.7239 -0.5670
  678MOL0     C93436  10.550  11.621   7.815  0.3931 -0.3862 -0.4860
  678MOL0     C93437  10.492  11.717   7.925  0.1981 -0.7733 -0.5194
  678MOL0     C93438  10.378  11.813   7.879 -0.0621 -0.6536 -0.1030
  678MOL0     C93439  10.314  11.876   8.001  0.6271 -0.4355 -0.4415
  678MOL0     C93440  10.236  12.004   7.965  0.8492 -0.2205  0.0848
  678MOL0     C93441  10.305  12.129   8.002 -0.8618 -0.4899  0.1040
  678MOL0     C93442  10.319  12.151   8.153 -0.1361 -1.1803  1.3629
  678MOL0     N93443  10.337  12.291   8.179  0.1522  0.0740 -0.0222
  678MOL0     C93444  10.452  12.357   8.181 -0.2069 -0.1283  0.1910
  678MOL0     C93445  10.416  12.489   8.187  0.3565  0.1713 -0.1232
  678MOL0     C93446  10.511  12.597   8.164 -0.9448 -0.0763  0.8818
  678MOL0     C93447  10.636  12.600   8.267  0.2956  0.6679 -1.0717
  678MOL0     C93448  10.717  12.726   8.243 -0.0650  0.9636  0.1216
  678MOL0     C93449  10.837  12.721   8.329 -0.1246  0.1608  0.1799
  678MOL0     O93450  10.909  12.840   8.355  0.8326  0.3344  1.1650
  678MOL0     C93451  11.017  12.883   8.289 -0.0005 -0.3922  0.3025
  678MOL0     C93452  11.138  12.814   8.269  0.7906 -0.2606  0.3678
  678MOL0     C93453  11.250  12.875   8.218 -0.4551 -0.2434  0.2070
  678MOL0     C93454  11.370  12.784   8.179  0.3254 -0.3273 -0.0101
  678MOL0     C93455  11.238  13.008   8.169  0.2807 -0.1392  0.2855
  678MOL0     C93456  11.349  13.089   8.097  0.4808  0.4329  0.5520
  678MOL0     O93457  11.477  13.069   8.140 -0.8549 -0.2253  0.5369
  678MOL0     C93458  11.575  13.154   8.078  0.0705  0.0771  0.0501
  678MOL0     C93459  11.693  13.107   8.031  0.1537  0.2995  0.2916
  678MOL0     C93460  11.781  13.199   7.977  0.5157  0.2197 -0.1268
  678MOL0     C93461  11.761  13.334   7.975 -0.1499 -0.0296  1.3483
  678MOL0     O93462  11.870  13.414   7.931  0.3830  0.3372  0.4284
  678MOL0     C93463  11.854  13.555   7.919  0.4165 -0.4403  0.3757
  678MOL0     C93464  11.962  13.626   7.837 -0.6671 -0.2886 -0.8055
  678MOL0     C93465  12.101  13.619   7.907 -0.6982  0.8495  0.2027
  678MOL0     C93466  12.219  13.693   7.846  0.6721 -0.5682  0.3110
  678MOL0     C93467  12.362  13.650   7.897 -0.0208  0.2556  0.5102
  678MOL0     C93468  12.483  13.711   7.802  0.3391  0.1614 -0.4771
  678MOL0     C93469  12.625  13.691   7.837 -0.2471  0.4625 -0.6064
  678MOL0     C93470  12.646  13.728   7.989  0.1338  1.7201  0.2269
  678MOL0    Cl93471  12.823  13.744   8.025  0.0802  0.0447 -0.5497
  678MOL0     C93472  11.640  13.381   8.025 -0.2614  0.1625 -0.5209
  678MOL0     C93473  11.554  13.293   8.079  0.1576 -0.1073 -0.2384
  678MOL0     O93474  11.307  13.152   8.003 -0.0272 -0.0074 -0.7059
  678MOL0     C93475  11.114  13.075   8.189  0.3919 -0.2391 -0.6498
  678MOL0     C93476  10.998  13.014   8.238  0.0865  0.1305  0.3211
  678MOL0     N93477  10.282  12.503   8.212 -0.2509 -0.3391 -0.0657
  678MOL0     N93478  10.236  12.379   8.207 -0.1626 -0.9177  0.0212
  678MOL0     C93479  10.845  11.323   7.972 -0.2595  1.2060  0.1518
  678MOL0     C93480  10.934  11.218   8.002 -0.1568  0.1718 -0.6217
  678MOL0     C93481  11.168  10.881   8.089  0.4895 -0.1055  0.1256
  678MOL0     C93482  11.263  10.877   7.990  0.7825  0.7522  0.3515
  678MOL0     C93483  11.383  10.819   8.015 -0.0075 -0.1250 -0.0883
  678MOL0     C93484  11.421  10.758   8.138  0.5726  0.2041  0.6725
  678MOL0     O93485  11.529  10.677   8.138 -1.1741 -0.2924  0.1045
  678MOL0     C93486  11.597  10.640   8.266 -0.3142 -0.1726  0.6181
  678MOL0     C93487  11.650  10.763   8.345  0.6280  0.4410  0.2635
  678MOL0     C93488  11.726  10.698   8.467  0.4895  0.2477  0.3773
  678MOL0     C93489  11.838  10.783   8.519  0.3675 -1.0999  0.6174
  678MOL0     C93490  11.953  10.792   8.436  0.3482 -0.1891  0.3607
  678MOL0     C93491  12.059  10.814   8.377 -0.3740  0.3214 -0.2196
  678MOL0     C93492  11.320  10.749   8.235 -0.0129  0.1563  0.0961
  678MOL0     C93493  11.197  10.826   8.215  0.1020  0.8402  0.3674
  678MOL0     C93494  11.101  10.828   8.336  0.3563  0.7989  0.0295
  678MOL0     H93495  10.886  11.040   7.717 -0.9390  1.5582 -0.8047
  678MOL0     H93496  10.767  11.231   7.663  0.2554 -0.9031  0.7186
  678MOL0     H93497  10.721  11.582   7.951 -1.0464 -1.3754  1.3528
  678MOL0     H93498  10.587  11.472   7.950  0.2011  0.1005 -0.0136
  678MOL0     H93499  10.601  11.683   7.740  0.6677  2.6944  2.0279
  678MOL0     H93500  10.467  11.564   7.773 -0.7256  1.6629 -1.1730
  678MOL0     H93501  10.468  11.654   8.011  0.7147 -3.5810 -2.2815
  678MOL0     H93502  10.572  11.784   7.957  1.1971 -2.0875 -0.1825
  678MOL0     H93503  10.420  11.878   7.801 -2.2720 -1.6482 -2.2515
  678MOL0     H93504  10.297  11.762   7.827 -2.8226  0.2936  2.9623
  678MOL0     H93505  10.386  11.884   8.083  0.0456 -0.9927  0.1355
  678MOL0     H93506  10.239  11.805   8.037  0.4272  0.1117  0.2424
  678MOL0     H93507  10.222  12.006   7.857 -3.9372  0.2575  0.4833
  678MOL0     H93508  10.139  11.994   8.015 -0.0035  0.6384 -1.3307
  678MOL0     H93509  10.243  12.208   7.958 -2.5434 -2.3275 -0.9472
  678MOL0     H93510  10.402  12.121   7.951 -0.5219  0.7537  0.5173
  678MOL0     H93511  10.222  12.123   8.194 -0.7032  0.1341  0.9764
  678MOL0     H93512  10.403  12.092   8.189  0.3006 -1.3829  0.0524
  678MOL0     H93513  10.552  12.325   8.154 -0.1118  0.9907 -0.8419
  678MOL0     H93514  10.452  12.690   8.166 -0.5060  0.2094  2.8432
  678MOL0     H93515  10.552  12.593   8.063 -1.3536  1.3052  0.6429
  678MOL0     H93516  10.606  12.592   8.372 -0.2260  0.6836 -1.2138
  678MOL0     H93517  10.700  12.512   8.256 -2.0661 -1.0386 -1.9354
  678MOL0     H93518  10.745  12.730   8.137 -0.0055  1.0553  0.1411
  678MOL0     H93519  10.662  12.817   8.269  0.3555  1.5505 -0.9911
  678MOL0     H93520  10.815  12.695   8.433  1.8137  0.4407  0.6887
  678MOL0     H93521  10.917  12.661   8.284  1.7116  0.7988  2.4158
  678MOL0     H93522  11.132  12.712   8.307 -2.1740  0.7387  3.1055
  678MOL0     H93523  11.379  12.785   8.070 -3.3829  1.1275 -0.4441
  678MOL0     H93524  11.348  12.682   8.212 -2.6720  1.2974  3.8159
  678MOL0     H93525  11.467  12.805   8.224  2.0489  2.1365 -4.2124
  678MOL0     H93526  11.713  13.001   8.033 -1.3016 -0.2693 -4.3730
  678MOL0     H93527  11.876  13.165   7.935  0.8040  1.6246 -0.6624
  678MOL0     H93528  11.758  13.568   7.870 -0.2853 -1.3554  1.4645
  678MOL0     H93529  11.855  13.605   8.016 -1.4226  0.7053 -0.1544
  678MOL0     H93530  11.981  13.581   7.739 -2.3137 -4.2624  0.4608
  678MOL0     H93531  11.927  13.728   7.823  0.5765  0.0169 -1.8324
  678MOL0     H93532  12.137  13.516   7.905  2.6699  1.9089 -0.0156
  678MOL0     H93533  12.086  13.642   8.013  0.0307 -1.5357  0.8963
  678MOL0     H93534  12.234  13.802   7.847  2.6544 -0.7713 -0.8446
  678MOL0     H93535  12.223  13.662   7.741  4.1454  0.3873  0.0319
  678MOL0     H93536  12.379  13.667   8.003  2.2702  1.7347 -0.0077
  678MOL0     H93537  12.359  13.542   7.885  3.6562  0.3016 -5.2185
  678MOL0     H93538  12.464  13.818   7.792 -4.7507 -0.1627  2.3952
  678MOL0     H93539  12.467  13.653   7.710 -3.4972  0.5345 -0.2130
  678MOL0     H93540  12.686  13.752   7.770  2.2972 -1.5330 -0.2506
  678MOL0     H93541  12.659  13.587   7.831 -2.8410 -0.4487 -0.7171
  678MOL0     H93542  12.607  13.639   8.039 -1.3697  1.0427 -2.0182
  678MOL0     H93543  12.588  13.821   7.996 -2.7926 -0.0884  2.0681
  678MOL0     H93544  11.594  13.479   8.020 -0.4903  0.2213  1.7183
  678MOL0     H93545  11.470  13.329   8.137  1.8867  1.2282  1.5636
  678MOL0     H93546  11.110  13.177   8.154 -1.7650  0.2171  0.7058
  678MOL0     H93547  10.907  13.073   8.238 -0.1915 -0.2883  0.1109
  678MOL0     H93548  10.824  11.400   8.045  2.5502  1.3018  0.9793
  678MOL0     H93549  10.985  11.210   8.098  0.1713 -0.6833 -0.8605
  678MOL0     H93550  11.248  10.912   7.888 -3.1152 -2.0566 -0.2910
  678MOL0     H93551  11.450  10.817   7.930  2.3392  1.5796  1.5534
  678MOL0     H93552  11.516  10.594   8.323 -0.0320  1.4231  2.4002
  678MOL0     H93553  11.675  10.565   8.249  0.4639  0.9073 -0.8243
  678MOL0     H93554  11.567  10.818   8.390 -1.4774 -1.7554 -0.6959
  678MOL0     H93555  11.716  10.825   8.283  1.3967  1.1153  1.7197
  678MOL0     H93556  11.650  10.670   8.540  0.9956  0.8466  1.1425
  678MOL0     H93557  11.778  10.604   8.444 -2.3324 -1.0392 -1.3518
  678MOL0     H93558  11.869  10.745   8.617  0.4493 -2.9220 -0.0817
  678MOL0     H93559  11.793  10.882   8.530 -0.7141 -1.2582 -1.6985
  678MOL0     H93560  12.154  10.821   8.326  0.7521  0.2603  1.7875
  678MOL0     H93561  11.324  10.703   8.333 -4.5893  1.0777  0.9253
  678MOL0     H93562  11.084  10.924   8.386 -3.8587 -0.0635  0.5958
  678MOL0     H93563  11.006  10.787   8.301  0.0044  0.8085  0.9639
  678MOL0     H93564  11.142  10.761   8.412  1.4652  1.3421 -0.0539
  679MOL0     O93565   7.037   9.318  10.582  0.3472  0.0617 -0.4232
  679MOL0     C93566   6.961   9.308  10.488  0.1258  0.0368 -0.8335
  679MOL0     O93567   6.824   9.306  10.492 -0.9250 -0.2845  0.5606
  679MOL0     C93568   6.745   9.352  10.594 -0.6819  0.1449  0.1730
  679MOL0     C93569   6.797   9.441  10.700 -0.2452  0.2581 -0.6204
  679MOL0     C93570   6.695   9.502  10.781  1.0901  0.3348  0.9823
  679MOL0     C93571   6.561   9.456  10.785  0.0412  0.4600 -0.0470
  679MOL0     O93572   6.472   9.513  10.873  0.1340 -0.1634  0.7570
  679MOL0     C93573   6.356   9.432  10.917 -0.2344 -1.3930  0.1701
  679MOL0     C93574   6.297   9.498  11.041  0.0034 -0.9981 -0.0222
  679MOL0     C93575   6.154   9.466  11.068 -0.2418 -0.0682 -0.3140
  679MOL0     C93576   6.086   9.528  11.189  0.0583  0.6100 -0.2789
  679MOL0     C93577   5.957   9.442  11.220 -0.4227 -0.6872  0.4448
  679MOL0     C93578   5.885   9.495  11.342  0.3042 -0.1985 -0.2059
  679MOL0     C93579   5.816   9.626  11.331 -0.5204 -1.1250 -0.4104
  679MOL0     C93580   5.788   9.690  11.470 -0.8780 -0.1087  0.5527
  679MOL0     N93581   5.909   9.760  11.520  0.8929  0.9286  0.7005
  679MOL0     C93582   5.978   9.853  11.448 -0.1031  0.1693  0.3171
  679MOL0     C93583   6.095   9.858  11.502 -0.4933 -0.1378  0.2493
  679MOL0     C93584   6.212   9.936  11.462  0.8035  0.0251  0.1940
  679MOL0     C93585   6.187  10.081  11.446  0.3099 -0.1449  0.3950
  679MOL0     C93586   6.246  10.177  11.561  0.5811  0.3697  0.0156
  679MOL0     C93587   6.155  10.182  11.685  0.2474  0.2545 -0.6073
  679MOL0     O93588   6.181  10.278  11.787  0.2343 -0.3648  0.5577
  679MOL0     C93589   6.107  10.256  11.902 -0.2805  0.2832  0.2168
  679MOL0     C93590   6.179  10.276  12.017 -1.0326  0.1803 -0.6313
  679MOL0     C93591   6.117  10.279  12.140  0.1030  0.7355  0.5586
  679MOL0     C93592   6.202  10.300  12.264 -0.2807  0.1124  0.1572
  679MOL0     C93593   5.971  10.262  12.144 -0.2923  0.1856 -0.1079
  679MOL0     C93594   5.890  10.270  12.263 -0.4456  0.8302  0.4936
  679MOL0     O93595   5.906  10.176  12.364  0.3742 -0.0472  0.2960
  679MOL0     C93596   5.803  10.165  12.445  0.0000  1.0113 -0.2804
  679MOL0     C93597   5.779  10.262  12.545  0.4690 -0.6544 -0.8953
  679MOL0     C93598   5.657  10.250  12.612 -0.0451 -0.6120 -0.3160
  679MOL0     C93599   5.575  10.143  12.601  0.4431  1.0550  0.2363
  679MOL0     O93600   5.460  10.130  12.678  0.1717 -0.0836  0.3475
  679MOL0     C93601   5.342  10.086  12.612 -0.4684  0.0286  0.3429
  679MOL0     C93602   5.223  10.139  12.695  0.7446  0.5845 -1.0252
  679MOL0     C93603   5.085  10.137  12.625 -0.6655  0.0657  0.9855
  679MOL0     C93604   5.054  10.004  12.553 -0.1928 -0.1567 -0.1172
  679MOL0     C93605   5.120   9.977  12.412 -0.1323 -0.7090 -0.0746
  679MOL0     C93606   5.068   9.848  12.349 -0.2649  1.0201  0.1178
  679MOL0     C93607   5.086   9.826  12.204  0.4260 -0.1820  0.3729
  679MOL0     C93608   5.232   9.813  12.167  0.0681  0.6457  0.3827
  679MOL0    Cl93609   5.311   9.663  12.235  0.1981 -0.0833 -0.5634
  679MOL0     C93610   5.605  10.043  12.503 -0.2685  0.5103 -1.0485
  679MOL0     C93611   5.717  10.053  12.428  0.6162  0.2603 -0.8167
  679MOL0     O93612   5.810  10.358  12.260  1.2321  0.1827  0.2997
  679MOL0     C93613   5.905  10.227  12.026  0.5760 -0.6271  0.2681
  679MOL0     C93614   5.969  10.232  11.904  0.9187 -0.9775  0.0832
  679MOL0     N93615   6.096   9.772  11.605 -0.1578  0.0522 -0.1222
  679MOL0     N93616   5.983   9.706  11.616 -0.0013 -0.3480 -0.7073
  679MOL0     C93617   6.523   9.358  10.690 -0.1635 -0.5464 -0.2128
  679MOL0     C93618   6.612   9.309  10.593  0.4675 -0.3212  0.2289
  679MOL0     C93619   7.019   9.279  10.362 -0.3419 -0.7150  0.1726
  679MOL0     C93620   6.986   9.360  10.252  0.9514  0.2707  0.4669
  679MOL0     C93621   7.022   9.322  10.121 -0.2920  0.2873  0.6494
  679MOL0     C93622   7.100   9.206  10.102 -0.6806  0.2649  0.0548
  679MOL0     O93623   7.123   9.154   9.987 -0.4080  0.8202  0.7742
  679MOL0     C93624   7.029   9.196   9.885  1.0490  0.2370  1.1023
  679MOL0     C93625   7.033   9.087   9.780  0.3265  0.4433  0.5150
  679MOL0     C93626   6.979   9.145   9.646 -0.6255  0.5094  0.4710
  679MOL0     C93627   6.903   9.036   9.566  0.1840 -0.1303  0.0488
  679MOL0     C93628   7.008   8.967   9.491 -0.4104 -0.0564 -0.7569
  679MOL0     C93629   7.091   8.914   9.437  0.2507  0.3290  0.7818
  679MOL0     C93630   7.146   9.137  10.218  0.6345  0.3508  0.5457
  679MOL0     C93631   7.116   9.178  10.349  0.8879 -0.2534  0.1510
  679MOL0     C93632   7.173   9.098  10.469 -0.1939 -0.3624  1.4006
  679MOL0     H93633   6.898   9.480  10.708 -0.6880  1.2088  0.6879
  679MOL0     H93634   6.726   9.580  10.850  2.4777  1.9900 -1.3456
  679MOL0     H93635   6.385   9.329  10.936  3.2413 -0.7393 -0.7898
  679MOL0     H93636   6.287   9.444  10.833 -0.9322 -0.3007  0.8629
  679MOL0     H93637   6.350   9.484  11.136 -1.4270 -0.8236  0.8270
  679MOL0     H93638   6.293   9.606  11.022  1.5432 -0.6574  1.3559
  679MOL0     H93639   6.097   9.481  10.976 -0.2395  0.2833 -0.2620
  679MOL0     H93640   6.145   9.358  11.082 -1.9352  0.0890  0.0482
  679MOL0     H93641   6.158   9.529  11.272 -3.4248  1.8964  3.0462
  679MOL0     H93642   6.054   9.631  11.175 -0.3830  0.3408 -1.3465
  679MOL0     H93643   5.983   9.339  11.247  2.0708 -0.0182  0.8529
  679MOL0     H93644   5.903   9.446  11.124  2.7025 -2.0775 -1.5320
  679MOL0     H93645   5.821   9.413  11.375 -1.8813  1.4709 -0.0657
  679MOL0     H93646   5.960   9.495  11.421  0.9585 -1.0739 -0.8029
  679MOL0     H93647   5.723   9.601  11.281  0.1018  2.3056 -3.7234
  679MOL0     H93648   5.881   9.696  11.277  2.6303 -1.2728  2.7568
  679MOL0     H93649   5.706   9.761  11.456  0.6785  1.4160 -1.3318
  679MOL0     H93650   5.759   9.612  11.541 -1.6322  1.2128  1.7708
  679MOL0     H93651   5.938   9.909  11.364 -0.2632 -2.1277 -1.2393
  679MOL0     H93652   6.229   9.911  11.357 -0.1730  3.7675 -1.0076
  679MOL0     H93653   6.297   9.915  11.528  2.6963  0.7737 -1.8919
  679MOL0     H93654   6.225  10.110  11.348 -2.3385 -0.1446 -0.7307
  679MOL0     H93655   6.080  10.103  11.431  0.0805 -2.3302 -2.0099
  679MOL0     H93656   6.352  10.155  11.577  1.3304  2.6100 -1.4509
  679MOL0     H93657   6.240  10.280  11.525  1.7873 -0.2156 -2.0572
  679MOL0     H93658   6.054  10.197  11.649 -0.4955  1.7779  1.8698
  679MOL0     H93659   6.167  10.086  11.737 -1.2433  1.2732  1.7792
  679MOL0     H93660   6.286  10.280  12.001 -0.9263  0.9058  0.2345
  679MOL0     H93661   6.240  10.203  12.298 -1.2567  0.0404  1.1138
  679MOL0     H93662   6.135  10.345  12.339 -0.6411  0.4488 -0.3644
  679MOL0     H93663   6.286  10.363  12.236  0.1290  0.7087  2.4887
  679MOL0     H93664   5.833  10.355  12.563  1.0467 -1.1882  0.2528
  679MOL0     H93665   5.627  10.318  12.690  2.2529 -0.3691  0.4209
  679MOL0     H93666   5.319  10.124  12.513 -3.3695 -0.3467  0.7694
  679MOL0     H93667   5.339   9.977  12.615 -0.3200 -0.0226 -0.8644
  679MOL0     H93668   5.224  10.073  12.783  0.0861  0.2528 -1.2599
  679MOL0     H93669   5.242  10.241  12.729 -0.1993  0.3553  0.2761
  679MOL0     H93670   5.090  10.212  12.545  0.9689 -1.4448 -0.4239
  679MOL0     H93671   5.010  10.152  12.704  0.9916  3.1152  2.1737
  679MOL0     H93672   4.946   9.999  12.532  0.0803 -0.7802 -1.5160
  679MOL0     H93673   5.074   9.926  12.626 -1.8252  1.0717  1.7539
  679MOL0     H93674   5.108  10.067  12.351 -0.4251  1.4982  2.9972
  679MOL0     H93675   5.229   9.970  12.417 -0.1315 -1.0582 -0.5304
  679MOL0     H93676   4.959   9.843  12.363 -0.3346  0.0439 -0.6256
  679MOL0     H93677   5.095   9.767  12.418 -2.7730 -0.2203 -0.2107
  679MOL0     H93678   5.037   9.911  12.157  0.6495 -1.0415 -1.5077
  679MOL0     H93679   5.034   9.731  12.187  0.3109 -0.5951  2.6740
  679MOL0     H93680   5.287   9.899  12.206 -1.9817  2.5490 -0.7568
  679MOL0     H93681   5.242   9.808  12.058 -2.1408 -2.7166  0.1693
  679MOL0     H93682   5.536   9.960  12.493 -0.3814  0.3296  0.8516
  679MOL0     H93683   5.738   9.969  12.363 -0.5660 -0.9377  0.2908
  679MOL0     H93684   5.800  10.201  12.036  0.0922  1.8376  2.8619
  679MOL0     H93685   5.921  10.206  11.810  0.9112 -2.6413  0.5288
  679MOL0     H93686   6.421   9.320  10.685  0.2456 -1.7466  0.2372
  679MOL0     H93687   6.574   9.245  10.514 -1.8586  0.5292  0.5781
  679MOL0     H93688   6.932   9.454  10.252  0.0898 -0.1895  2.1943
  679MOL0     H93689   6.993   9.388  10.041  0.1018 -1.0264 -0.6150
  679MOL0     H93690   6.930   9.205   9.931  1.6265  4.1290  1.9123
  679MOL0     H93691   7.051   9.295   9.843  0.9451  1.2256  3.2724
  679MOL0     H93692   6.982   8.994   9.807  0.3487  0.4573  0.6080
  679MOL0     H93693   7.136   9.054   9.764  0.5123  1.7949 -1.3331
  679MOL0     H93694   6.904   9.223   9.661 -0.0032  1.2665 -0.2296
  679MOL0     H93695   7.067   9.189   9.599 -2.0035 -0.5817 -3.4958
  679MOL0     H93696   6.838   9.077   9.489  1.2590 -2.2850 -2.1323
  679MOL0     H93697   6.838   8.965   9.619 -2.4271  0.3735 -2.2493
  679MOL0     H93698   7.159   8.855   9.379 -1.3977  0.2835 -1.2406
  679MOL0     H93699   7.213   9.056  10.191  0.3594  0.3005  0.0035
  679MOL0     H93700   7.241   9.163  10.525 -2.0677  2.0995  1.0057
  679MOL0     H93701   7.095   9.069  10.540  0.1378 -3.2100  0.7276
  679MOL0     H93702   7.227   9.006  10.445 -1.4240 -1.4556  2.6909
  680MOL0     O93703   0.377   2.357   7.560  0.4828  0.2793 -0.4188
  680MOL0     C93704   0.274   2.423   7.576 -0.0312 -0.4580  0.5881
  680MOL0     O93705   0.157   2.378   7.628 -0.7212 -0.0076  0.2250
  680MOL0     C93706   0.129   2.246   7.650  0.0746 -0.9958  0.1167
  680MOL0     C93707   0.010   2.233   7.734  0.2063  0.9824  0.1139
  680MOL0     C93708  -0.039   2.105   7.761  0.8029 -0.6460 -0.6656
  680MOL0     C93709   0.014   1.986   7.708  0.1807 -0.3128  0.0821
  680MOL0     O93710  -0.049   1.868   7.745 -0.4761 -0.6709  0.0151
  680MOL0     C93711  -0.009   1.737   7.698  0.9449  0.6327  0.4081
  680MOL0     C93712  -0.079   1.723   7.558  0.2007 -1.0297 -0.2753
  680MOL0     C93713  -0.232   1.736   7.565 -0.2688  0.5804  0.0859
  680MOL0     C93714  -0.300   1.856   7.500 -0.1498  0.0375  0.4608
  680MOL0     C93715  -0.449   1.851   7.536 -0.5148 -1.3827 -0.3809
  680MOL0     C93716  -0.513   1.971   7.461 -0.4197  0.0174  0.1649
  680MOL0     C93717  -0.441   2.104   7.503 -0.1819 -0.7028  0.3459
  680MOL0     C93718  -0.538   2.218   7.476 -0.0514 -0.5296 -0.5348
  680MOL0     N93719  -0.480   2.348   7.500  1.1339 -1.1273 -0.4958
  680MOL0     C93720  -0.405   2.372   7.620  0.0310 -0.0030 -0.3781
  680MOL0     C93721  -0.409   2.507   7.639 -0.0483  0.7438  0.1609
  680MOL0     C93722  -0.367   2.590   7.759 -0.0834  0.6348 -0.0810
  680MOL0     C93723  -0.215   2.596   7.758 -0.9486  0.5915  0.7037
  680MOL0     C93724  -0.185   2.683   7.881  0.4048  0.5641  0.7694
  680MOL0     C93725  -0.031   2.717   7.888  0.3821 -0.7932  1.0705
  680MOL0     O93726   0.046   2.606   7.913  0.6060  0.5752 -0.5856
  680MOL0     C93727   0.186   2.630   7.935  0.3315  0.2285 -0.4177
  680MOL0     C93728   0.247   2.755   7.922 -0.0434 -0.2979  0.0110
  680MOL0     C93729   0.386   2.776   7.922  0.7580 -0.5298 -0.9032
  680MOL0     C93730   0.427   2.923   7.920 -1.1458  1.1953  0.3962
  680MOL0     C93731   0.468   2.665   7.942  0.0831 -0.1973  0.5163
  680MOL0     C93732   0.613   2.682   7.952  0.7533 -0.3221 -0.2823
  680MOL0     O93733   0.678   2.573   7.916 -0.7484  0.0640  0.5317
  680MOL0     C93734   0.805   2.574   7.933  0.1210  0.8288 -0.5604
  680MOL0     C93735   0.883   2.572   7.821  0.1205  0.7945 -0.1484
  680MOL0     C93736   1.028   2.583   7.833  0.1260  1.0904 -0.1414
  680MOL0     C93737   1.087   2.592   7.955 -0.3662  0.1099 -0.2531
  680MOL0     O93738   1.220   2.623   7.960  0.0006  0.2721 -0.0164
  680MOL0     C93739   1.275   2.677   8.080 -0.6039 -0.7377 -0.5691
  680MOL0     C93740   1.314   2.564   8.177  0.3560  0.1011 -0.4909
  680MOL0     C93741   1.339   2.624   8.319  0.8309  0.3151  0.5525
  680MOL0     C93742   1.486   2.651   8.349  0.5624  0.8476  0.1545
  680MOL0     C93743   1.513   2.715   8.479 -0.1186  0.1185  0.5683
  680MOL0     C93744   1.663   2.703   8.514  0.2422 -0.2442  0.7667
  680MOL0     C93745   1.681   2.763   8.649  0.1220 -0.2366 -0.1843
  680MOL0     C93746   1.831   2.761   8.683 -0.0170 -0.6189 -0.1174
  680MOL0    Cl93747   1.891   2.597   8.693 -0.7183 -0.1450 -0.0398
  680MOL0     C93748   1.006   2.585   8.068  0.1611  0.0553  0.3314
  680MOL0     C93749   0.866   2.579   8.062  0.3078  0.2270  0.1232
  680MOL0     O93750   0.656   2.796   7.979  0.1169 -0.6370 -0.0822
  680MOL0     C93751   0.413   2.540   7.956 -0.3776 -0.8016 -0.0681
  680MOL0     C93752   0.275   2.521   7.955 -0.0165  0.0459 -0.3474
  680MOL0     N93753  -0.473   2.553   7.520 -0.4001  0.7549  0.4304
  680MOL0     N93754  -0.517   2.464   7.439  0.2561 -0.0652 -0.2318
  680MOL0     C93755   0.124   2.001   7.626  0.3898 -0.1019  0.7518
  680MOL0     C93756   0.185   2.126   7.596  0.6048 -0.3625 -0.4672
  680MOL0     C93757   0.264   2.570   7.527 -0.4332  0.5143 -0.1917
  680MOL0     C93758   0.141   2.620   7.506  0.0087  0.1570  0.0216
  680MOL0     C93759   0.128   2.749   7.457  0.4659 -0.8039 -0.2208
  680MOL0     C93760   0.234   2.831   7.444 -0.8462 -0.1517 -1.5758
  680MOL0     O93761   0.230   2.966   7.413  0.1802 -0.3307 -0.2198
  680MOL0     C93762   0.104   3.024   7.378 -0.0254 -0.7337  0.3261
  680MOL0     C93763   0.120   3.179   7.377 -0.7085  0.3334 -0.6996
  680MOL0     C93764   0.205   3.240   7.496 -0.0528  0.1232 -0.5405
  680MOL0     C93765   0.184   3.157   7.629 -0.1726 -0.3317  0.3207
  680MOL0     C93766   0.262   3.211   7.739 -0.0552 -0.6137  0.4658
  680MOL0     C93767   0.326   3.262   7.823 -0.8773  0.1378 -0.7504
  680MOL0     C93768   0.362   2.787   7.475 -0.3131  0.3320  0.2262
  680MOL0     C93769   0.375   2.653   7.524  0.1745  0.0530  0.1802
  680MOL0     C93770   0.508   2.611   7.572 -0.8527 -0.9975  0.2694
  680MOL0     H93771  -0.035   2.315   7.788  1.1048  1.4606  0.1559
  680MOL0     H93772  -0.131   2.100   7.818  1.8653 -1.9748  1.0176
  680MOL0     H93773  -0.055   1.659   7.759  0.0179  0.9764  0.1726
  680MOL0     H93774   0.097   1.711   7.690  1.0003  0.1174  2.3672
  680MOL0     H93775  -0.041   1.798   7.488 -1.1386 -0.1505 -0.1076
  680MOL0     H93776  -0.055   1.630   7.505 -2.8875 -0.8920 -2.2008
  680MOL0     H93777  -0.274   1.643   7.528 -1.3336  2.0995 -2.8179
  680MOL0     H93778  -0.268   1.751   7.668  1.5342  2.5245  0.5191
  680MOL0     H93779  -0.245   1.946   7.530 -2.6883  3.2973 -3.5453
  680MOL0     H93780  -0.290   1.866   7.391  0.4773 -1.0737  0.4037
  680MOL0     H93781  -0.459   1.868   7.643 -1.6774  0.1690 -0.6909
  680MOL0     H93782  -0.494   1.757   7.502  1.8171 -3.8972  2.8539
  680MOL0     H93783  -0.502   1.955   7.353  0.0921  2.4973 -0.1994
  680MOL0     H93784  -0.622   1.974   7.472 -0.5344 -1.1048 -0.5302
  680MOL0     H93785  -0.344   2.120   7.455  0.0363 -0.6158  0.8104
  680MOL0     H93786  -0.431   2.112   7.611 -2.7957 -2.2706  0.7887
  680MOL0     H93787  -0.587   2.203   7.380 -0.6029 -0.5729 -0.2472
  680MOL0     H93788  -0.617   2.210   7.551 -0.4444  0.7173 -0.7871
  680MOL0     H93789  -0.348   2.300   7.679  2.2305  3.0331  1.5467
  680MOL0     H93790  -0.407   2.546   7.850  1.5326  2.2424  1.4844
  680MOL0     H93791  -0.416   2.687   7.754 -1.1552  0.1285  0.4570
  680MOL0     H93792  -0.171   2.497   7.745  0.0039  1.2394 -1.5053
  680MOL0     H93793  -0.191   2.656   7.669  1.0914  1.2671  1.6721
  680MOL0     H93794  -0.247   2.774   7.882  1.0505  1.1523 -2.4033
  680MOL0     H93795  -0.210   2.625   7.970 -0.0817 -3.5783 -1.8001
  680MOL0     H93796  -0.004   2.767   7.794  1.5858 -1.5049  1.0153
  680MOL0     H93797  -0.022   2.791   7.967 -2.2746  1.7891 -0.8265
  680MOL0     H93798   0.181   2.840   7.907 -0.5437 -0.5772  0.5721
  680MOL0     H93799   0.436   2.955   8.024 -0.2776  1.4083  0.2623
  680MOL0     H93800   0.351   2.993   7.884 -2.2699 -0.4174 -0.5032
  680MOL0     H93801   0.518   2.941   7.862 -0.3978 -0.5202  0.9603
  680MOL0     H93802   0.841   2.566   7.721 -1.4235  0.5164  0.4839
  680MOL0     H93803   1.092   2.600   7.747  0.8207  4.0472  0.8617
  680MOL0     H93804   1.359   2.746   8.071  0.2797 -1.3100  2.3245
  680MOL0     H93805   1.203   2.748   8.123  0.9642  0.7007 -0.2023
  680MOL0     H93806   1.228   2.497   8.191 -0.6454  1.8723  3.3642
  680MOL0     H93807   1.401   2.503   8.152 -1.2493 -3.4160  1.5521
  680MOL0     H93808   1.301   2.560   8.398  2.6566 -0.5600  0.7807
  680MOL0     H93809   1.286   2.718   8.337  0.3932  0.2621 -0.4276
  680MOL0     H93810   1.533   2.710   8.270  1.1331  0.5582  0.2739
  680MOL0     H93811   1.546   2.559   8.351 -1.5889 -0.7693 -2.3480
  680MOL0     H93812   1.489   2.820   8.461 -0.2866 -0.1306 -0.7881
  680MOL0     H93813   1.471   2.659   8.563  2.8183 -2.3874  0.5069
  680MOL0     H93814   1.716   2.758   8.435  2.5728 -3.9095 -0.5111
  680MOL0     H93815   1.701   2.600   8.506  3.9142  1.0504 -0.4255
  680MOL0     H93816   1.615   2.710   8.718 -3.1908  4.6400  0.9637
  680MOL0     H93817   1.646   2.865   8.670  1.7305 -0.1228  2.3631
  680MOL0     H93818   1.854   2.816   8.774  1.5182  1.4822 -1.6724
  680MOL0     H93819   1.884   2.830   8.617 -1.5180 -0.6155 -1.3958
  680MOL0     H93820   1.044   2.596   8.169  0.8119  1.4711 -0.0482
  680MOL0     H93821   0.807   2.585   8.153  0.9563 -3.4955  0.9563
  680MOL0     H93822   0.469   2.450   7.982  1.2022  0.3275  0.5465
  680MOL0     H93823   0.234   2.420   7.958 -0.6683  0.2161 -2.1349
  680MOL0     H93824   0.157   1.907   7.582 -2.1211 -0.9425  0.5110
  680MOL0     H93825   0.269   2.124   7.528  1.1104  1.1491  0.0712
  680MOL0     H93826   0.061   2.547   7.494  1.6625 -1.4558 -2.3041
  680MOL0     H93827   0.022   2.760   7.436  0.1221  0.2591  1.7747
  680MOL0     H93828   0.064   2.996   7.280 -0.7228  1.6747 -0.1498
  680MOL0     H93829   0.032   3.004   7.457  0.9072  1.4356  1.8229
  680MOL0     H93830   0.024   3.233   7.372  1.0623  3.6364 -3.0357
  680MOL0     H93831   0.169   3.211   7.285  1.2447 -1.8659 -0.5066
  680MOL0     H93832   0.312   3.237   7.476  0.4426 -0.8131  1.9713
  680MOL0     H93833   0.165   3.339   7.521 -0.2382 -0.7071  2.8373
  680MOL0     H93834   0.225   3.056   7.622  0.7818  0.1512 -2.3701
  680MOL0     H93835   0.077   3.154   7.649 -0.3620 -2.5098 -0.6902
  680MOL0     H93836   0.396   3.309   7.890  0.3382 -3.1194  0.4589
  680MOL0     H93837   0.440   2.855   7.442 -1.3165  0.4399 -2.1789
  680MOL0     H93838   0.565   2.573   7.487  0.4289 -3.1169  1.9777
  680MOL0     H93839   0.555   2.702   7.609  0.8837 -1.5038 -0.5852
  680MOL0     H93840   0.496   2.536   7.650 -2.5434  0.8180  1.8773
  681MOL0     O93841   8.964  10.267   4.985 -0.1359  0.4325  0.5668
  681MOL0     C93842   9.078  10.253   5.024  0.4480  0.6121  0.0492
  681MOL0     O93843   9.169  10.179   4.951 -0.0464 -0.1456 -0.2284
  681MOL0     C93844   9.136  10.092   4.849 -0.5240  0.4640 -0.0968
  681MOL0     C93845   9.096  10.146   4.724 -0.0497 -0.4833 -0.1091
  681MOL0     C93846   9.062  10.071   4.608 -0.0918 -0.4453  0.6313
  681MOL0     C93847   9.052   9.928   4.622  0.0957  0.1152  0.3137
  681MOL0     O93848   9.021   9.848   4.514  0.3918  0.4843 -0.0888
  681MOL0     C93849   9.022   9.907   4.385  0.3741 -0.0865  0.3936
  681MOL0     C93850   9.013   9.795   4.280  0.8497  0.7179 -1.3941
  681MOL0     C93851   9.049   9.832   4.131 -0.0038  0.6704 -1.0950
  681MOL0     C93852   9.210   9.815   4.117 -0.1667  0.8297 -0.0806
  681MOL0     C93853   9.261   9.837   3.971 -0.9666 -0.3444 -0.2194
  681MOL0     C93854   9.413   9.838   3.950  0.3819  0.7342  0.5413
  681MOL0     C93855   9.454   9.858   3.802 -0.2947  0.1819 -0.2419
  681MOL0     C93856   9.556   9.971   3.796 -0.0366 -0.3806 -0.5513
  681MOL0     N93857   9.626   9.971   3.666  1.0218  0.0890  0.9326
  681MOL0     C93858   9.566   9.950   3.539 -0.0118  0.3716 -0.2274
  681MOL0     C93859   9.661   9.989   3.442  0.2181 -0.2336 -0.1206
  681MOL0     C93860   9.652   9.984   3.286 -0.1338  0.0923  0.8264
  681MOL0     C93861   9.562  10.105   3.248 -0.1770 -0.1974 -0.0309
  681MOL0     C93862   9.515  10.086   3.102 -0.1013  0.0021 -0.7067
  681MOL0     C93863   9.403  10.193   3.065  1.0257  0.4379  0.6415
  681MOL0     O93864   9.458  10.319   3.085  0.8075  0.1171  0.1033
  681MOL0     C93865   9.406  10.440   3.044 -0.1713 -0.6458  0.2776
  681MOL0     C93866   9.479  10.552   3.079  0.3597  0.7674  0.1970
  681MOL0     C93867   9.441  10.678   3.044  0.0324 -0.3446  0.0973
  681MOL0     C93868   9.536  10.796   3.078  0.0786  0.3928 -0.6347
  681MOL0     C93869   9.315  10.696   2.985 -0.0120 -0.4538  0.2200
  681MOL0     C93870   9.255  10.826   2.949 -0.4845 -0.3046  0.2498
  681MOL0     O93871   9.268  10.931   3.034  0.2621 -0.0612  0.7064
  681MOL0     C93872   9.206  11.050   3.003  0.7307 -0.0972 -0.2553
  681MOL0     C93873   9.065  11.062   2.970  0.2074 -0.0633  0.2244
  681MOL0     C93874   9.010  11.177   2.921  0.9435  0.0398 -0.1410
  681MOL0     C93875   9.084  11.293   2.914 -0.4113  0.0851  0.8877
  681MOL0     O93876   9.030  11.417   2.893 -0.6206 -0.4291 -0.2658
  681MOL0     C93877   8.932  11.436   2.789 -0.1187 -0.0775 -1.1464
  681MOL0     C93878   8.881  11.579   2.779 -0.8828  0.1680 -1.1364
  681MOL0     C93879   8.822  11.630   2.916 -0.4265  1.1083  0.2248
  681MOL0     C93880   8.794  11.778   2.908 -0.5991 -0.2192 -0.1918
  681MOL0     C93881   8.700  11.820   3.016  0.4131  0.2904 -0.2197
  681MOL0     C93882   8.556  11.791   2.973  0.8937 -0.1893  0.1667
  681MOL0     C93883   8.458  11.827   3.091  0.6280  0.8254  0.2212
  681MOL0     C93884   8.317  11.780   3.066  0.1552 -0.0164  0.5410
  681MOL0    Cl93885   8.207  11.847   3.192  0.3713  0.3027  0.4503
  681MOL0     C93886   9.214  11.281   2.955 -0.6792  0.7591  0.6388
  681MOL0     C93887   9.278  11.159   2.998 -0.1927 -0.9217  0.6069
  681MOL0     O93888   9.189  10.823   2.841 -0.7581 -0.8450  0.2079
  681MOL0     C93889   9.239  10.579   2.949 -0.3000 -0.0757  0.6252
  681MOL0     C93890   9.284  10.455   2.980 -0.9128  1.1968  0.4138
  681MOL0     N93891   9.773  10.037   3.510 -0.2707  0.6113 -0.2293
  681MOL0     N93892   9.752  10.020   3.634 -0.7170  1.1501 -0.4490
  681MOL0     C93893   9.082   9.871   4.744 -0.0830  0.6974 -0.4553
  681MOL0     C93894   9.125   9.952   4.856 -0.0214  0.0511 -0.0919
  681MOL0     C93895   9.112  10.311   5.161  0.4010  0.1530  1.1808
  681MOL0     C93896   9.008  10.386   5.226  0.1422 -0.2798  0.4658
  681MOL0     C93897   9.035  10.460   5.340 -0.6499  0.6279 -0.7182
  681MOL0     C93898   9.166  10.454   5.401 -0.6236  0.3603 -0.3394
  681MOL0     O93899   9.211  10.517   5.522 -0.8263 -0.0663  0.4238
  681MOL0     C93900   9.126  10.566   5.622 -0.7729  0.6056 -0.1855
  681MOL0     C93901   9.192  10.533   5.758  0.5112  0.7118 -0.1485
  681MOL0     C93902   9.099  10.567   5.879  0.4656 -0.1614 -0.1846
  681MOL0     C93903   8.950  10.515   5.890 -0.1729 -0.1055  0.7996
  681MOL0     C93904   8.942  10.366   5.920  0.1064  0.9594  0.9990
  681MOL0     C93905   8.942  10.244   5.939  0.0090 -0.2449 -0.6978
  681MOL0     C93906   9.254  10.363   5.345 -0.5700  0.4409 -0.1506
  681MOL0     C93907   9.236  10.300   5.219  0.3752 -0.1538  0.9676
  681MOL0     C93908   9.350  10.237   5.156  0.0597 -0.0768 -0.9670
  681MOL0     H93909   9.091  10.255   4.729  2.4545 -0.3104 -0.5927
  681MOL0     H93910   9.041  10.123   4.516 -0.2281 -2.3536 -0.4745
  681MOL0     H93911   9.108   9.971   4.364 -0.4039  1.0526  0.5903
  681MOL0     H93912   8.928   9.964   4.386 -0.6767 -1.7001 -1.0284
  681MOL0     H93913   9.058   9.705   4.324 -0.1136  0.1849 -1.4582
  681MOL0     H93914   8.907   9.766   4.277  0.8132  0.8597 -1.4581
  681MOL0     H93915   9.002   9.760   4.062 -0.1634 -1.5195  1.1524
  681MOL0     H93916   9.018   9.932   4.099  0.8417  0.9572 -1.0241
  681MOL0     H93917   9.257   9.889   4.184 -1.0407 -0.8990  2.6289
  681MOL0     H93918   9.257   9.720   4.143  0.6032  0.4799 -2.5148
  681MOL0     H93919   9.217   9.926   3.927 -0.4737 -1.0020 -2.1828
  681MOL0     H93920   9.216   9.755   3.915 -1.6527 -0.5857  0.6679
  681MOL0     H93921   9.459   9.914   4.014  0.5599  0.2044  1.0526
  681MOL0     H93922   9.452   9.744   3.990 -0.3466 -0.0722 -0.6126
  681MOL0     H93923   9.365   9.870   3.739  0.2891 -3.4154 -2.0294
  681MOL0     H93924   9.500   9.766   3.765  2.0976  1.1081  0.2690
  681MOL0     H93925   9.503  10.066   3.803 -0.5593 -0.6530 -0.7451
  681MOL0     H93926   9.622   9.964   3.883 -1.5436 -3.4448  0.4824
  681MOL0     H93927   9.468   9.907   3.519 -0.0858  0.3794  0.1110
  681MOL0     H93928   9.625   9.886   3.247  1.9249  0.2921 -1.3133
  681MOL0     H93929   9.745  10.010   3.236 -0.3067 -1.1154 -0.1630
  681MOL0     H93930   9.479  10.123   3.318 -0.0241  1.8044 -0.3244
  681MOL0     H93931   9.617  10.199   3.256  0.9642 -0.7658 -0.9481
  681MOL0     H93932   9.599  10.100   3.034 -0.4711 -0.6341 -1.3056
  681MOL0     H93933   9.467   9.987   3.098 -2.3321  0.8183  2.3638
  681MOL0     H93934   9.379  10.185   2.959  3.3868  0.0917  0.0711
  681MOL0     H93935   9.317  10.185   3.132  1.7555  1.0253  1.6822
  681MOL0     H93936   9.579  10.539   3.119 -0.6633 -4.3128  1.7463
  681MOL0     H93937   9.539  10.816   3.186  1.8640 -0.8059 -0.4191
  681MOL0     H93938   9.510  10.891   3.030  2.6223  1.5890  0.1681
  681MOL0     H93939   9.641  10.796   3.046  1.2116  2.9847  2.5303
  681MOL0     H93940   8.996  10.980   2.980 -1.8570  1.6307  0.5857
  681MOL0     H93941   8.902  11.174   2.908  1.1670 -1.1408 -2.2751
  681MOL0     H93942   8.977  11.399   2.696  2.0031 -3.6253  1.0445
  681MOL0     H93943   8.846  11.376   2.821  0.4940 -0.7460 -0.7287
  681MOL0     H93944   8.973  11.628   2.744  0.1249 -1.9821 -1.6995
  681MOL0     H93945   8.804  11.589   2.703 -0.7609  0.0783 -1.2737
  681MOL0     H93946   8.890  11.609   2.999  0.6383 -0.8045 -1.0494
  681MOL0     H93947   8.735  11.565   2.934 -0.1943  0.4556 -0.9260
  681MOL0     H93948   8.752  11.811   2.813  0.3276  0.0995 -0.5067
  681MOL0     H93949   8.893  11.822   2.924 -0.6813  0.0329 -0.3653
  681MOL0     H93950   8.728  11.770   3.108 -0.0515 -1.0440 -0.7755
  681MOL0     H93951   8.689  11.927   3.037 -2.0543 -0.5341  3.8473
  681MOL0     H93952   8.538  11.688   2.942  0.0361 -0.7742  2.4412
  681MOL0     H93953   8.522  11.861   2.896  1.4314  0.9908  0.9669
  681MOL0     H93954   8.468  11.935   3.107 -0.3319  1.1652 -1.3083
  681MOL0     H93955   8.489  11.780   3.185 -1.7551  0.8551  1.0920
  681MOL0     H93956   8.329  11.672   3.077  0.1706 -0.1780 -0.8572
  681MOL0     H93957   8.294  11.803   2.962 -0.6865 -1.5470  0.3499
  681MOL0     H93958   9.270  11.374   2.959 -0.9845  0.9186  1.5669
  681MOL0     H93959   9.383  11.152   3.026  1.1217  2.7579 -2.5341
  681MOL0     H93960   9.146  10.599   2.896 -0.9316  0.1201  1.7767
  681MOL0     H93961   9.226  10.367   2.954  0.2444  0.6183 -0.2931
  681MOL0     H93962   9.055   9.766   4.745 -2.9415  1.2591 -2.8572
  681MOL0     H93963   9.153   9.914   4.954  0.5778  0.6054 -0.0414
  681MOL0     H93964   8.910  10.388   5.179  0.5127 -0.0970 -0.3318
  681MOL0     H93965   8.964  10.538   5.367 -0.0288  0.6652  0.9455
  681MOL0     H93966   9.118  10.674   5.608 -1.3306  0.5937  0.0182
  681MOL0     H93967   9.026  10.524   5.609 -0.8866  0.8127  0.0078
  681MOL0     H93968   9.282  10.595   5.768  1.6799 -1.2104  2.5692
  681MOL0     H93969   9.228  10.430   5.748 -2.6052 -0.2593 -2.7021
  681MOL0     H93970   9.149  10.532   5.970  3.6979  3.6567 -0.2230
  681MOL0     H93971   9.099  10.674   5.901  1.5759 -0.2649  0.3578
  681MOL0     H93972   8.895  10.523   5.795  1.8142 -2.6312 -0.6805
  681MOL0     H93973   8.897  10.583   5.958  0.3931  1.6572 -0.4397
  681MOL0     H93974   8.941  10.140   5.961 -0.3563  0.1855  1.5459
  681MOL0     H93975   9.351  10.355   5.392 -0.9694 -0.8388  0.4976
  681MOL0     H93976   9.340  10.129   5.141 -0.7457  0.1296 -1.9993
  681MOL0     H93977   9.364  10.272   5.054 -0.8133  2.0323 -0.4080
  681MOL0     H93978   9.445  10.271   5.199 -1.6110  5.2622 -0.8293
  682MOL0     O93979   6.913   0.343   4.706 -0.0593  0.6349 -0.1935
  682MOL0     C93980   6.831   0.427   4.710  0.4155 -0.4540  1.0862
  682MOL0     O93981   6.702   0.419   4.654 -0.6922 -0.1695 -0.0549
  682MOL0     C93982   6.687   0.341   4.538 -0.5328  0.4270  0.5026
  682MOL0     C93983   6.758   0.361   4.415 -0.1077 -0.2899 -1.0142
  682MOL0     C93984   6.737   0.280   4.310 -0.1969 -0.4505  0.3168
  682MOL0     C93985   6.658   0.165   4.310 -0.0945 -0.2213  0.0181
  682MOL0     O93986   6.634   0.078   4.216 -0.9472  0.1210  0.2791
  682MOL0     C93987   6.677   0.109   4.078  0.3597 -0.6435 -0.1955
  682MOL0     C93988   6.618   0.016   3.979  0.7747 -0.3349  0.3595
  682MOL0     C93989   6.619  -0.134   4.013  0.8107 -0.7402 -0.3156
  682MOL0     C93990   6.510  -0.221   3.942  0.0462 -0.6033  0.6132
  682MOL0     C93991   6.542  -0.227   3.800  0.0966  0.2949 -0.1549
  682MOL0     C93992   6.629  -0.343   3.772 -0.0087 -0.6163  0.9593
  682MOL0     C93993   6.673  -0.332   3.629  0.8328 -1.1098  0.0610
  682MOL0     C93994   6.811  -0.401   3.609  0.7450 -0.0766 -0.4229
  682MOL0     N93995   6.802  -0.548   3.650 -0.6444 -1.0681  0.2864
  682MOL0     C93996   6.720  -0.630   3.581 -0.2722  0.4257  0.4470
  682MOL0     C93997   6.703  -0.738   3.651  0.3091 -0.0701  0.1822
  682MOL0     C93998   6.586  -0.816   3.619 -1.1547 -1.0274 -1.3251
  682MOL0     C93999   6.631  -0.935   3.543 -0.9892  0.3539 -0.1179
  682MOL0     C94000   6.517  -1.025   3.507 -1.3085  0.5322  0.4426
  682MOL0     C94001   6.553  -1.126   3.388 -0.4230  0.0188 -0.6408
  682MOL0     O94002   6.643  -1.227   3.441 -0.3439 -0.0284  0.0949
  682MOL0     C94003   6.705  -1.297   3.343 -0.0995  0.0511 -0.1581
  682MOL0     C94004   6.676  -1.306   3.207  1.3432 -0.1983  0.2960
  682MOL0     C94005   6.735  -1.386   3.112 -0.0499 -0.1018  0.2990
  682MOL0     C94006   6.701  -1.388   2.965  0.0499 -0.5617  0.0726
  682MOL0     C94007   6.822  -1.495   3.158 -0.1727  0.1950  0.5621
  682MOL0     C94008   6.873  -1.609   3.079  0.3321  1.0274  0.8790
  682MOL0     O94009   6.886  -1.727   3.151  0.0783 -0.2606 -0.7067
  682MOL0     C94010   6.925  -1.837   3.070 -0.3312 -1.2808 -0.2139
  682MOL0     C94011   7.047  -1.886   3.100 -0.4658  0.7678 -0.3686
  682MOL0     C94012   7.080  -2.019   3.061 -0.3166 -0.2154 -0.0658
  682MOL0     C94013   6.992  -2.099   2.988  0.2647  0.3644  0.0282
  682MOL0     O94014   7.012  -2.219   2.928  0.3252  0.0127 -0.5047
  682MOL0     C94015   7.093  -2.314   3.000  0.0469  0.2693  0.2327
  682MOL0     C94016   7.033  -2.353   3.135  0.0317 -0.2487  0.0507
  682MOL0     C94017   6.883  -2.411   3.139 -0.5004 -0.4104 -0.1404
  682MOL0     C94018   6.889  -2.561   3.124 -0.2089 -0.7748 -0.3034
  682MOL0     C94019   6.752  -2.614   3.153  0.7986 -0.0929  0.2078
  682MOL0     C94020   6.762  -2.770   3.177  0.0538  0.3232  0.2482
  682MOL0     C94021   6.815  -2.856   3.060 -0.5237 -0.4989  0.2954
  682MOL0     C94022   6.763  -3.002   3.072  0.1397 -0.4043 -0.3121
  682MOL0    Cl94023   6.866  -3.103   2.965 -0.3554 -0.1200 -0.0290
  682MOL0     C94024   6.861  -2.045   2.967 -0.4188 -0.5493 -0.0387
  682MOL0     C94025   6.830  -1.912   3.002  0.4648 -0.5690  0.4305
  682MOL0     O94026   6.908  -1.592   2.962  0.1323  0.4266 -0.3874
  682MOL0     C94027   6.849  -1.494   3.300  0.0163 -0.1117 -0.2876
  682MOL0     C94028   6.804  -1.391   3.384  0.3428 -0.1699 -0.2896
  682MOL0     N94029   6.774  -0.726   3.767  0.9704 -0.5686  0.0153
  682MOL0     N94030   6.824  -0.609   3.774 -0.3921  0.1266 -0.0115
  682MOL0     C94031   6.585   0.143   4.426  0.5426 -0.5956 -0.4457
  682MOL0     C94032   6.595   0.234   4.537  0.2525 -0.1814  0.4081
  682MOL0     C94033   6.859   0.543   4.798 -0.7730 -0.2769 -0.4816
  682MOL0     C94034   6.750   0.625   4.835 -0.0940 -0.3807  0.0191
  682MOL0     C94035   6.773   0.738   4.918  0.1415 -0.3090 -0.1357
  682MOL0     C94036   6.901   0.775   4.969 -0.7065  1.0321  0.0867
  682MOL0     O94037   6.910   0.869   5.068  0.6920  0.2116 -0.8819
  682MOL0     C94038   7.018   0.963   5.081  0.1751  0.9096 -0.1791
  682MOL0     C94039   7.013   1.077   4.975 -0.1528  0.2614 -0.3645
  682MOL0     C94040   7.134   1.178   4.986 -0.2367 -0.0397 -0.7004
  682MOL0     C94041   7.110   1.279   5.109 -0.1944 -0.3377 -0.0955
  682MOL0     C94042   7.178   1.409   5.102  0.1801 -0.4041  0.6521
  682MOL0     C94043   7.208   1.524   5.088 -1.0687  0.7453 -0.3115
  682MOL0     C94044   7.006   0.705   4.912  0.2805 -0.7328  0.2419
  682MOL0     C94045   6.986   0.591   4.832 -0.9610  0.0012  0.2748
  682MOL0     C94046   7.114   0.527   4.770 -0.8487  0.0055 -0.0425
  682MOL0     H94047   6.833   0.440   4.410  1.8160 -2.0601 -2.1009
  682MOL0     H94048   6.804   0.302   4.227  2.3027 -0.9316  2.0868
  682MOL0     H94049   6.786   0.109   4.066  0.1403 -1.4779 -2.9689
  682MOL0     H94050   6.640   0.207   4.045  0.9876 -1.2175 -2.8933
  682MOL0     H94051   6.517   0.056   3.968  0.7219 -0.8640 -1.4710
  682MOL0     H94052   6.674   0.022   3.885 -0.4027  0.5292 -0.3206
  682MOL0     H94053   6.722  -0.167   3.997  2.3878  2.6696  1.5542
  682MOL0     H94054   6.608  -0.152   4.120  3.7292 -0.8754  0.0426
  682MOL0     H94055   6.505  -0.323   3.982 -1.0101 -0.3073  1.2638
  682MOL0     H94056   6.412  -0.173   3.948 -0.4427 -0.9424 -2.8308
  682MOL0     H94057   6.590  -0.136   3.763  1.8587 -0.0900  1.0254
  682MOL0     H94058   6.447  -0.230   3.746  0.0587  1.4945 -0.1858
  682MOL0     H94059   6.717  -0.325   3.834  1.9854  1.2661 -2.1182
  682MOL0     H94060   6.574  -0.437   3.784  2.2859 -2.3627 -1.1733
  682MOL0     H94061   6.666  -0.226   3.600  1.6609  0.3331  4.3103
  682MOL0     H94062   6.611  -0.387   3.558  1.4298 -1.6772 -0.0207
  682MOL0     H94063   6.848  -0.395   3.506  0.2546 -0.3782 -0.6215
  682MOL0     H94064   6.888  -0.356   3.672  1.4549 -2.0278  0.1882
  682MOL0     H94065   6.677  -0.602   3.485  3.3873  1.0002 -1.1863
  682MOL0     H94066   6.512  -0.769   3.554 -3.0298  2.2274  2.6938
  682MOL0     H94067   6.534  -0.849   3.709  1.1656  0.5195  0.7184
  682MOL0     H94068   6.688  -0.914   3.452  1.8840  1.5320  1.8185
  682MOL0     H94069   6.690  -0.998   3.611 -3.2192 -0.4720  1.1583
  682MOL0     H94070   6.482  -1.067   3.601 -0.4912  0.1260  0.5807
  682MOL0     H94071   6.430  -0.972   3.468 -2.4694 -1.6734 -0.1403
  682MOL0     H94072   6.458  -1.165   3.350 -2.4037  3.6783  0.0803
  682MOL0     H94073   6.597  -1.053   3.319  1.2640  1.7058  1.9850
  682MOL0     H94074   6.596  -1.243   3.168  0.1021 -1.2695  1.0428
  682MOL0     H94075   6.673  -1.490   2.937  1.8051 -1.7234  2.2128
  682MOL0     H94076   6.785  -1.358   2.901  0.5613  1.2740  1.5053
  682MOL0     H94077   6.621  -1.320   2.936 -0.7134 -1.6164 -0.3114
  682MOL0     H94078   7.123  -1.817   3.135 -0.9304  0.6537  0.9233
  682MOL0     H94079   7.184  -2.032   3.088 -0.2855  2.0017  1.2067
  682MOL0     H94080   7.094  -2.400   2.932  0.3352  2.2625 -2.4486
  682MOL0     H94081   7.197  -2.280   3.009 -0.1397  1.0940 -0.5175
  682MOL0     H94082   7.103  -2.429   3.172  2.5662  1.8911 -0.0716
  682MOL0     H94083   7.038  -2.263   3.196 -2.3278  1.6445 -2.3205
  682MOL0     H94084   6.829  -2.363   3.058 -3.6551 -0.5681  1.6920
  682MOL0     H94085   6.846  -2.391   3.241  2.5998 -2.1711  1.4895
  682MOL0     H94086   6.965  -2.598   3.194  0.8054  0.8137 -0.5079
  682MOL0     H94087   6.919  -2.589   3.023 -2.9857 -0.0913 -1.3973
  682MOL0     H94088   6.709  -2.575   3.246  2.3788  2.7260 -0.1160
  682MOL0     H94089   6.703  -2.598   3.057  2.9349 -1.0844 -1.1233
  682MOL0     H94090   6.668  -2.812   3.214 -0.2321 -0.1434 -0.9681
  682MOL0     H94091   6.825  -2.779   3.266  2.9739 -0.6442 -1.7598
  682MOL0     H94092   6.925  -2.858   3.060 -0.5287 -1.5135  0.9140
  682MOL0     H94093   6.783  -2.813   2.965 -1.7758 -1.6029  0.2069
  682MOL0     H94094   6.658  -3.001   3.041 -0.2220 -2.5136  0.6588
  682MOL0     H94095   6.764  -3.044   3.174 -1.2465  0.0041 -0.1022
  682MOL0     H94096   6.783  -2.104   2.920 -0.1858 -0.9049  0.0107
  682MOL0     H94097   6.728  -1.883   2.980 -0.2288 -3.4899 -0.7503
  682MOL0     H94098   6.903  -1.581   3.335 -1.4303 -2.8876 -4.2208
  682MOL0     H94099   6.840  -1.400   3.485 -0.0959 -2.5776 -0.2941
  682MOL0     H94100   6.509   0.067   4.422  1.8599 -1.8998 -1.6689
  682MOL0     H94101   6.528   0.220   4.621 -0.4136 -0.6484 -0.1809
  682MOL0     H94102   6.648   0.594   4.815 -1.0753  1.7679  1.3824
  682MOL0     H94103   6.692   0.794   4.964 -0.2632  0.4537 -1.7186
  682MOL0     H94104   7.025   1.010   5.180  1.8916 -0.8633  0.6146
  682MOL0     H94105   7.106   0.900   5.068 -0.0087  0.7737 -0.7747
  682MOL0     H94106   6.923   1.138   4.988  0.4137  1.2541 -1.0066
  682MOL0     H94107   7.000   1.044   4.872 -6.4286  0.7924 -0.1736
  682MOL0     H94108   7.228   1.123   5.000  0.3635  0.6408 -1.8422
  682MOL0     H94109   7.146   1.238   4.895  1.9633  0.3804 -0.1895
  682MOL0     H94110   7.146   1.228   5.199  1.1124  1.1794  0.2870
  682MOL0     H94111   7.004   1.299   5.129  0.4937  0.7274  2.9969
  682MOL0     H94112   7.234   1.623   5.058  2.8368 -0.1084 -0.2487
  682MOL0     H94113   7.109   0.713   4.945  0.3864 -1.3981  0.0796
  682MOL0     H94114   7.122   0.539   4.661 -0.4084  1.0820  0.0992
  682MOL0     H94115   7.197   0.587   4.808  0.2452  0.8573 -3.3775
  682MOL0     H94116   7.118   0.422   4.800  0.3106 -0.4587 -1.6900
  683MOL0     O94117   7.197  11.222   6.210 -0.2954 -0.0213 -0.7062
  683MOL0     C94118   7.127  11.316   6.229 -0.2967 -1.4145  0.2729
  683MOL0     O94119   7.168  11.422   6.310 -0.2706 -0.5618 -0.5662
  683MOL0     C94120   7.274  11.418   6.398  0.6633 -0.2368 -0.3151
  683MOL0     C94121   7.286  11.525   6.492 -0.9260 -0.1500 -0.1451
  683MOL0     C94122   7.382  11.530   6.586  0.0274 -0.2925 -0.6965
  683MOL0     C94123   7.478  11.427   6.594 -0.3583  0.5417 -0.1204
  683MOL0     O94124   7.583  11.445   6.685 -0.2944 -0.7703  0.0349
  683MOL0     C94125   7.622  11.343   6.780 -0.6789  0.0945  0.4410
  683MOL0     C94126   7.662  11.425   6.900  0.4212  0.3043  0.4571
  683MOL0     C94127   7.732  11.358   7.012 -0.6483  0.6658 -0.0937
  683MOL0     C94128   7.873  11.310   7.002  0.9218  0.1061  0.4856
  683MOL0     C94129   7.935  11.269   7.138 -0.2125 -0.4271  0.3941
  683MOL0     C94130   7.861  11.147   7.204  0.3136 -0.3590  0.4552
  683MOL0     C94131   7.932  11.100   7.335 -1.2670 -0.0532 -0.0925
  683MOL0     C94132   7.889  11.198   7.455 -0.1452  0.7986  0.4312
  683MOL0     N94133   7.951  11.158   7.583  0.2268 -0.4745  0.5117
  683MOL0     C94134   8.083  11.145   7.613 -0.7275 -0.9460  1.0075
  683MOL0     C94135   8.086  11.102   7.740 -0.4932 -0.4633 -0.0342
  683MOL0     C94136   8.211  11.071   7.815 -0.1346 -0.1584 -0.2784
  683MOL0     C94137   8.230  10.920   7.816  0.3300 -0.1954  0.5528
  683MOL0     C94138   8.244  10.857   7.684 -0.1226  0.3058  1.0375
  683MOL0     C94139   8.215  10.704   7.692  0.9322 -0.2641 -0.1427
  683MOL0     O94140   8.076  10.670   7.731 -0.2175 -0.7586  0.2018
  683MOL0     C94141   7.971  10.696   7.642  0.2767 -0.8302 -0.5234
  683MOL0     C94142   7.955  10.635   7.515  0.2719  0.5302 -0.5062
  683MOL0     C94143   7.839  10.647   7.439  0.7411 -0.0552  0.7087
  683MOL0     C94144   7.833  10.576   7.308 -0.2786  0.0471 -0.0124
  683MOL0     C94145   7.741  10.744   7.479 -0.7828  0.2261 -1.0925
  683MOL0     C94146   7.630  10.775   7.389  0.3022 -0.2991  0.2494
  683MOL0     O94147   7.588  10.905   7.380  0.7406 -0.0964  0.6432
  683MOL0     C94148   7.478  10.934   7.302 -0.5474  0.4384  1.1322
  683MOL0     C94149   7.361  10.972   7.366  0.8436 -0.5814 -0.9960
  683MOL0     C94150   7.229  10.975   7.302  0.4335  0.3233 -0.3965
  683MOL0     C94151   7.235  10.950   7.155  0.7157  0.2638 -0.1107
  683MOL0     O94152   7.122  10.933   7.070 -0.8762  0.2032 -0.8264
  683MOL0     C94153   7.004  10.981   7.133 -0.8133 -0.0300 -0.2387
  683MOL0     C94154   6.886  10.964   7.048 -0.4389  0.5413 -0.9715
  683MOL0     C94155   6.765  11.015   7.118  0.4282  0.0879  0.7197
  683MOL0     C94156   6.625  10.950   7.080 -0.4960  0.0549  0.0575
  683MOL0     C94157   6.597  10.975   6.940 -0.5760 -0.3960  0.2129
  683MOL0     C94158   6.547  11.115   6.922 -0.6719  0.4941 -0.6835
  683MOL0     C94159   6.543  11.128   6.775 -0.4526  0.4713  0.4279
  683MOL0     C94160   6.453  11.248   6.737  0.1798 -0.0784  0.3194
  683MOL0    Cl94161   6.404  11.235   6.567 -0.1748 -0.2477  0.6479
  683MOL0     C94162   7.355  10.938   7.090 -0.2038  0.0946  1.4988
  683MOL0     C94163   7.473  10.926   7.160 -0.7085 -0.1409 -0.5101
  683MOL0     O94164   7.574  10.684   7.331 -0.2005  0.0938  0.4397
  683MOL0     C94165   7.772  10.832   7.587  0.0467  0.7146  0.0644
  683MOL0     C94166   7.883  10.800   7.671 -0.7961 -0.2208  0.2211
  683MOL0     N94167   7.957  11.110   7.791  0.9596  0.7597  0.0958
  683MOL0     N94168   7.873  11.136   7.696  0.0515 -0.3286  0.0929
  683MOL0     C94169   7.469  11.315   6.513 -0.7971  0.1619 -0.0752
  683MOL0     C94170   7.366  11.310   6.416 -0.2307 -0.0918 -0.7985
  683MOL0     C94171   7.002  11.344   6.159 -0.9376  0.0449  1.1311
  683MOL0     C94172   6.950  11.475   6.150 -0.6080  0.2717 -1.2300
  683MOL0     C94173   6.827  11.504   6.095 -0.6087  0.5363  0.1971
  683MOL0     C94174   6.753  11.403   6.045  0.3375 -0.2924  0.5394
  683MOL0     O94175   6.629  11.445   6.004 -0.0938 -0.0001 -0.3878
  683MOL0     C94176   6.523  11.356   6.047 -0.7432 -0.6800  0.0480
  683MOL0     C94177   6.387  11.400   6.000 -1.1281  0.4408  1.5389
  683MOL0     C94178   6.291  11.282   6.013  0.1706  1.1456  0.8177
  683MOL0     C94179   6.276  11.222   6.151  0.1165  0.9302  1.2701
  683MOL0     C94180   6.222  11.320   6.234  0.4127  0.0075 -0.3317
  683MOL0     C94181   6.162  11.387   6.312 -0.0357  0.4296 -0.2108
  683MOL0     C94182   6.807  11.272   6.041  1.3326  0.5279  0.1785
  683MOL0     C94183   6.932  11.243   6.096 -0.4539  0.1522 -0.4562
  683MOL0     C94184   6.992  11.105   6.073  1.1413 -0.1634  0.2435
  683MOL0     H94185   7.219  11.609   6.474 -2.9649 -1.9733 -1.7711
  683MOL0     H94186   7.395  11.623   6.642  0.6214 -1.0901  0.5396
  683MOL0     H94187   7.710  11.294   6.737  0.8315  1.5171  1.7950
  683MOL0     H94188   7.546  11.267   6.803 -2.1518  1.2633 -0.3968
  683MOL0     H94189   7.717  11.515   6.869  0.8802 -0.3175 -0.5652
  683MOL0     H94190   7.563  11.457   6.934 -0.7496 -0.9116 -1.6368
  683MOL0     H94191   7.711  11.423   7.098 -0.5909 -0.6073  0.9014
  683MOL0     H94192   7.679  11.263   7.018  2.1420 -1.1539 -1.9394
  683MOL0     H94193   7.864  11.215   6.950 -2.3756  0.9905 -0.8089
  683MOL0     H94194   7.938  11.381   6.949 -1.5688  0.0946 -2.8681
  683MOL0     H94195   7.942  11.362   7.195  0.7447  0.1824 -0.6864
  683MOL0     H94196   8.038  11.234   7.125 -0.8755 -2.5309  0.4378
  683MOL0     H94197   7.757  11.178   7.220  0.5547  0.3959  0.5919
  683MOL0     H94198   7.865  11.056   7.143  2.8752  0.9429 -1.4773
  683MOL0     H94199   8.041  11.093   7.334 -1.2383  0.2877  0.5139
  683MOL0     H94200   7.894  11.002   7.367 -0.1697 -1.4707 -2.7650
  683MOL0     H94201   7.929  11.293   7.420  1.1710 -0.0067 -0.3346
  683MOL0     H94202   7.781  11.208   7.472 -0.5605 -1.7971 -0.1896
  683MOL0     H94203   8.170  11.149   7.548 -1.1678 -1.3523  0.3819
  683MOL0     H94204   8.203  11.112   7.916 -0.5061  3.3701 -1.6159
  683MOL0     H94205   8.301  11.119   7.777 -0.1465  0.0640 -0.0262
  683MOL0     H94206   8.311  10.898   7.886  0.2520  0.7562  0.9552
  683MOL0     H94207   8.145  10.880   7.871  0.9858  0.6331  2.2568
  683MOL0     H94208   8.176  10.903   7.611 -0.3000  0.3197  1.2106
  683MOL0     H94209   8.346  10.869   7.647  1.1682  0.5951  4.3993
  683MOL0     H94210   8.225  10.667   7.589  1.0215  0.7255 -0.5044
  683MOL0     H94211   8.282  10.652   7.761 -1.2994 -1.1476  1.4708
  683MOL0     H94212   8.025  10.557   7.486 -1.1215 -1.6438  1.6108
  683MOL0     H94213   7.776  10.487   7.336 -0.3621  0.2990  0.6544
  683MOL0     H94214   7.925  10.548   7.256 -0.4208  0.8548 -0.7310
  683MOL0     H94215   7.797  10.640   7.227  1.8291 -0.7883 -1.7071
  683MOL0     H94216   7.368  10.986   7.474  2.0154  0.0566 -1.1387
  683MOL0     H94217   7.146  10.983   7.371  0.7612  2.2824 -0.1652
  683MOL0     H94218   6.982  10.923   7.223 -0.0681  0.8519  0.5203
  683MOL0     H94219   7.019  11.081   7.173 -0.6603 -0.3060  0.3984
  683MOL0     H94220   6.894  11.015   6.951  1.2123  1.3790 -0.4256
  683MOL0     H94221   6.900  10.857   7.034  1.1220  0.6004  0.0219
  683MOL0     H94222   6.765  11.123   7.101  1.9787 -0.0552 -0.3805
  683MOL0     H94223   6.771  11.000   7.226  1.2428  0.5181  0.7422
  683MOL0     H94224   6.544  10.984   7.145 -1.7714 -1.8313 -0.4541
  683MOL0     H94225   6.624  10.841   7.092 -0.8474  0.2487  2.0987
  683MOL0     H94226   6.676  10.954   6.868 -1.0405 -0.6637 -0.2329
  683MOL0     H94227   6.521  10.901   6.910 -1.7327  1.6755 -2.4473
  683MOL0     H94228   6.618  11.191   6.955  1.7393 -1.3531 -1.3048
  683MOL0     H94229   6.448  11.123   6.969 -0.4948 -1.4703  0.1325
  683MOL0     H94230   6.489  11.040   6.739 -1.1146  0.5138  1.2942
  683MOL0     H94231   6.640  11.138   6.724 -0.7957  3.7545  0.2003
  683MOL0     H94232   6.507  11.343   6.746  3.1165 -1.7141  1.4503
  683MOL0     H94233   6.371  11.247   6.809  0.7308 -1.1509  0.9551
  683MOL0     H94234   7.350  10.920   6.983  2.4828  1.5888  1.0523
  683MOL0     H94235   7.560  10.903   7.099 -2.1289 -0.7407 -2.3904
  683MOL0     H94236   7.720  10.919   7.626  1.7337  1.8786 -0.1358
  683MOL0     H94237   7.893  10.865   7.757 -1.1560  0.5625 -0.3129
  683MOL0     H94238   7.539  11.232   6.520 -1.1091  0.0279  1.9453
  683MOL0     H94239   7.370  11.215   6.364  2.1012 -1.1606  1.1545
  683MOL0     H94240   7.005  11.562   6.184 -0.1762  0.1863 -1.6967
  683MOL0     H94241   6.794  11.605   6.076 -0.3089  0.7094  0.5853
  683MOL0     H94242   6.545  11.253   6.015 -0.8009 -0.9260  0.7882
  683MOL0     H94243   6.520  11.357   6.156  3.8747  0.7080  0.3731
  683MOL0     H94244   6.405  11.421   5.894 -0.7464  0.1360  1.5375
  683MOL0     H94245   6.346  11.486   6.053  0.0112  0.9961  1.5608
  683MOL0     H94246   6.193  11.307   5.973 -0.2679 -0.8792  0.5219
  683MOL0     H94247   6.329  11.203   5.948  0.8980  0.9764  1.4348
  683MOL0     H94248   6.371  11.190   6.195 -0.1454 -0.7182  0.7124
  683MOL0     H94249   6.218  11.130   6.155  2.7356 -1.2077 -2.7650
  683MOL0     H94250   6.095  11.451   6.364 -1.6379  0.3226 -2.0293
  683MOL0     H94251   6.753  11.189   5.999 -0.5467 -0.0699  3.4318
  683MOL0     H94252   7.013  11.056   6.168 -0.9065 -2.5829 -0.4099
  683MOL0     H94253   6.914  11.044   6.025 -0.0698  0.6305  1.1683
  683MOL0     H94254   7.078  11.123   6.008  0.3926 -1.8202 -1.3095
  684MOL0     O94255   3.857   0.697  10.780  0.4390 -0.6647  0.7128
  684MOL0     C94256   3.946   0.747  10.849 -0.0250 -0.2563 -0.6206
  684MOL0     O94257   4.074   0.707  10.846  0.6162  0.4201 -0.6719
  684MOL0     C94258   4.104   0.596  10.773  0.0612  0.3409  0.1713
  684MOL0     C94259   4.153   0.620  10.646  0.6511  0.2143 -1.0515
  684MOL0     C94260   4.188   0.516  10.563 -0.6246 -0.1175  0.1249
  684MOL0     C94261   4.175   0.383  10.592  0.1977  1.1815  0.2340
  684MOL0     O94262   4.219   0.284  10.512 -0.1786  0.0603  0.3648
  684MOL0     C94263   4.254   0.313  10.370  0.0057 -0.2653 -0.6653
  684MOL0     C94264   4.274   0.177  10.300  0.1625  0.3251  1.2289
  684MOL0     C94265   4.421   0.137  10.342 -0.9639 -0.0825  0.2591
  684MOL0     C94266   4.454  -0.018  10.322  0.1142 -0.2917  0.3872
  684MOL0     C94267   4.601  -0.054  10.342 -0.3159  0.3499 -1.1719
  684MOL0     C94268   4.670   0.018  10.463 -0.2817 -0.0518  0.1507
  684MOL0     C94269   4.826  -0.015  10.467  1.2567 -0.2720 -0.1241
  684MOL0     C94270   4.844  -0.166  10.479  0.1411  0.2499  0.2022
  684MOL0     N94271   4.769  -0.243  10.584  0.6280  0.4357  0.4029
  684MOL0     C94272   4.759  -0.219  10.725  0.5640 -0.4624  0.2650
  684MOL0     C94273   4.673  -0.312  10.769  1.1772 -0.1085 -0.3604
  684MOL0     C94274   4.639  -0.329  10.910 -0.4120 -0.4183  0.5238
  684MOL0     C94275   4.525  -0.240  10.975  0.0145  0.1408 -0.4302
  684MOL0     C94276   4.404  -0.192  10.888  0.1817 -0.1737  0.0086
  684MOL0     C94277   4.303  -0.103  10.967 -0.3275 -0.6878 -0.4380
  684MOL0     O94278   4.371   0.021  11.006  0.2767 -0.2872 -0.1670
  684MOL0     C94279   4.299   0.111  11.075  0.2364 -0.2413  0.2924
  684MOL0     C94280   4.367   0.215  11.140  0.1445 -0.4303  0.5330
  684MOL0     C94281   4.295   0.329  11.182  0.3521  0.3333 -0.3632
  684MOL0     C94282   4.389   0.434  11.233  0.7162 -1.2505 -1.2208
  684MOL0     C94283   4.156   0.333  11.189  0.6028  0.1789  0.1688
  684MOL0     C94284   4.068   0.438  11.241 -0.4980 -1.2150 -0.1816
  684MOL0     O94285   3.935   0.415  11.241 -0.1868 -0.2733  0.2136
  684MOL0     C94286   3.841   0.502  11.259  0.6920  0.1664 -1.3479
  684MOL0     C94287   3.861   0.618  11.340  0.6437  0.3878 -0.3764
  684MOL0     C94288   3.739   0.678  11.384 -0.0704  0.2877  0.1179
  684MOL0     C94289   3.612   0.646  11.338 -0.6941  0.4847  0.2546
  684MOL0     O94290   3.506   0.725  11.359  0.6498 -0.3105  0.0942
  684MOL0     C94291   3.439   0.715  11.481  0.5441 -0.7303 -0.0675
  684MOL0     C94292   3.341   0.593  11.482  0.0550  0.1009  0.5470
  684MOL0     C94293   3.266   0.581  11.613  0.3592  0.2079  0.2069
  684MOL0     C94294   3.342   0.555  11.740 -0.2025  0.1436 -0.5175
  684MOL0     C94295   3.269   0.472  11.844  0.6839  0.2760  0.5686
  684MOL0     C94296   3.276   0.315  11.833 -0.1515  0.0031 -0.2044
  684MOL0     C94297   3.171   0.276  11.934 -1.0964  0.2001 -0.0443
  684MOL0     C94298   3.143   0.120  11.921  0.5443 -0.1457  0.1384
  684MOL0    Cl94299   3.077   0.074  11.759  0.4456 -0.0544 -0.0474
  684MOL0     C94300   3.599   0.550  11.242  0.2367 -0.5853  0.4475
  684MOL0     C94301   3.709   0.467  11.219 -0.6756  0.8758 -0.0675
  684MOL0     O94302   4.133   0.538  11.291  0.5928 -0.0155  0.6977
  684MOL0     C94303   4.089   0.216  11.143 -0.1346  0.4269  0.2806
  684MOL0     C94304   4.157   0.107  11.099  0.7716  0.3243 -0.3735
  684MOL0     N94305   4.621  -0.387  10.666  0.3262  0.2297  0.3558
  684MOL0     N94306   4.681  -0.351  10.564 -0.2525  0.2565 -0.3576
  684MOL0     C94307   4.141   0.352  10.725 -0.4375  0.0429 -0.3599
  684MOL0     C94308   4.099   0.456  10.811  0.0269  0.9540  0.2138
  684MOL0     C94309   3.907   0.832  10.960  0.5466 -0.0562 -0.4847
  684MOL0     C94310   3.771   0.829  11.005  0.4706 -0.0883 -0.7879
  684MOL0     C94311   3.721   0.906  11.107  0.5222 -0.2308  0.4058
  684MOL0     C94312   3.800   1.009  11.165  0.8659  1.1309  0.3909
  684MOL0     O94313   3.757   1.098  11.256  0.9496  0.5384 -0.3653
  684MOL0     C94314   3.615   1.149  11.255  0.3256  0.1238  0.1801
  684MOL0     C94315   3.583   1.259  11.360 -0.5925  0.5683 -0.4125
  684MOL0     C94316   3.430   1.289  11.359  0.5618 -0.0106  0.0877
  684MOL0     C94317   3.395   1.427  11.416 -0.2525  0.9710 -0.4456
  684MOL0     C94318   3.390   1.429  11.559  0.0895 -0.1103 -0.0280
  684MOL0     C94319   3.377   1.428  11.676 -0.4834  0.5182  0.0326
  684MOL0     C94320   3.933   1.014  11.125  0.7820 -0.2558 -0.1129
  684MOL0     C94321   3.990   0.926  11.023  0.7041 -0.3433 -1.0577
  684MOL0     C94322   4.132   0.968  10.975  0.3922 -0.0289  0.0387
  684MOL0     H94323   4.156   0.720  10.604 -0.6871  0.5395 -0.3894
  684MOL0     H94324   4.203   0.532  10.457 -0.9938 -1.4764 -0.1432
  684MOL0     H94325   4.341   0.378  10.360 -0.3559  0.2429 -0.5222
  684MOL0     H94326   4.175   0.365  10.316 -0.0672  0.3277 -0.0004
  684MOL0     H94327   4.196   0.110  10.337 -0.0134 -0.6822 -0.8245
  684MOL0     H94328   4.273   0.196  10.193  0.7533  0.5870  1.2638
  684MOL0     H94329   4.497   0.200  10.295 -0.8892 -1.0584 -0.9820
  684MOL0     H94330   4.434   0.161  10.448 -0.6422  0.0886  0.1812
  684MOL0     H94331   4.390  -0.087  10.377 -3.6273  1.8479 -0.9077
  684MOL0     H94332   4.440  -0.053  10.219 -2.5202 -0.8362  0.8428
  684MOL0     H94333   4.656  -0.018  10.255 -1.2208  1.1997 -1.4156
  684MOL0     H94334   4.616  -0.162  10.349 -2.1996  0.1543  0.6913
  684MOL0     H94335   4.653   0.126  10.464 -0.5278 -0.0931  1.1120
  684MOL0     H94336   4.631  -0.020  10.558  3.6725 -1.4843  1.3916
  684MOL0     H94337   4.874   0.047  10.543  0.7288  2.3765 -1.8247
  684MOL0     H94338   4.861   0.011  10.367 -1.6432 -5.2859 -2.8447
  684MOL0     H94339   4.812  -0.209  10.383 -1.3137  1.1918  0.2393
  684MOL0     H94340   4.950  -0.190  10.495  0.6882  1.4243 -1.4576
  684MOL0     H94341   4.808  -0.150  10.791  0.4759 -1.7748  1.7606
  684MOL0     H94342   4.726  -0.303  10.972  2.3201  0.0877 -3.1858
  684MOL0     H94343   4.618  -0.435  10.921 -4.1465  0.0399 -0.8766
  684MOL0     H94344   4.481  -0.294  11.059 -1.7473 -1.9322 -2.5354
  684MOL0     H94345   4.574  -0.150  11.014  1.0022  0.3270 -2.0224
  684MOL0     H94346   4.441  -0.141  10.799 -2.7083  1.1917 -0.5232
  684MOL0     H94347   4.346  -0.281  10.861  1.1674 -0.4924 -1.1305
  684MOL0     H94348   4.218  -0.071  10.905 -0.6044  2.2267  1.2631
  684MOL0     H94349   4.267  -0.143  11.062  1.2596 -1.1916 -0.0210
  684MOL0     H94350   4.475   0.215  11.135  0.1445  0.2869  0.4591
  684MOL0     H94351   4.496   0.412  11.226  1.1890 -1.0058  2.7782
  684MOL0     H94352   4.375   0.462  11.338  2.5675 -3.8851 -0.1752
  684MOL0     H94353   4.374   0.519  11.165  1.6162 -1.2690 -1.4529
  684MOL0     H94354   3.946   0.647  11.401 -0.7708  2.7179  0.6358
  684MOL0     H94355   3.739   0.769  11.443  0.9265 -0.8050  1.8854
  684MOL0     H94356   3.503   0.715  11.570 -3.3661 -1.3331  3.0042
  684MOL0     H94357   3.382   0.808  11.486  2.9767  0.9778 -1.8076
  684MOL0     H94358   3.275   0.604  11.396  0.3701  1.5051  0.4671
  684MOL0     H94359   3.397   0.501  11.462 -2.6558 -1.6260  0.4237
  684MOL0     H94360   3.179   0.516  11.598  1.8521 -1.6377 -1.0613
  684MOL0     H94361   3.216   0.677  11.627 -0.0497  0.0319 -0.0051
  684MOL0     H94362   3.388   0.643  11.786 -2.3260 -0.1736  2.5266
  684MOL0     H94363   3.419   0.483  11.713  1.4346  3.0389 -4.5726
  684MOL0     H94364   3.297   0.504  11.944  0.6106  1.4108  0.2453
  684MOL0     H94365   3.163   0.500  11.844  0.3031 -1.0954  0.5322
  684MOL0     H94366   3.375   0.278  11.861 -0.4994  0.8848  2.5944
  684MOL0     H94367   3.242   0.286  11.734  2.2322 -1.1715 -0.7401
  684MOL0     H94368   3.078   0.328  11.909 -1.3785 -1.2413 -2.3602
  684MOL0     H94369   3.207   0.294  12.035 -0.6907  0.3985 -0.2217
  684MOL0     H94370   3.079   0.090  12.005  0.5577 -0.0246  0.1913
  684MOL0     H94371   3.239   0.066  11.922  1.0636  0.5384  3.8361
  684MOL0     H94372   3.513   0.523  11.182  2.1692  0.1179 -2.9115
  684MOL0     H94373   3.708   0.390  11.144  0.5092  2.0151 -1.3100
  684MOL0     H94374   3.981   0.214  11.137 -0.1654  1.2198  0.3544
  684MOL0     H94375   4.112   0.013  11.070  0.3699 -0.1381  1.5729
  684MOL0     H94376   4.144   0.247  10.752 -2.1491 -1.2649 -4.4944
  684MOL0     H94377   4.064   0.426  10.909 -0.3501  0.6122 -0.0243
  684MOL0     H94378   3.698   0.755  10.974 -1.3879 -0.2241  3.2464
  684MOL0     H94379   3.619   0.892  11.141  0.6650  0.5701  1.1759
  684MOL0     H94380   3.585   1.184  11.156 -1.0628 -1.2525  0.0822
  684MOL0     H94381   3.556   1.062  11.284 -0.4865  0.5155 -0.2481
  684MOL0     H94382   3.624   1.358  11.338 -4.0914  2.7110  1.6758
  684MOL0     H94383   3.613   1.224  11.459 -1.6416 -0.7861 -0.5451
  684MOL0     H94384   3.404   1.282  11.253 -1.5063 -1.1739  0.6275
  684MOL0     H94385   3.373   1.212  11.411 -0.8343  1.1708  0.3858
  684MOL0     H94386   3.294   1.444  11.377 -1.3369 -1.3850  1.0828
  684MOL0     H94387   3.465   1.507  11.389 -0.1237  0.8953 -0.3387
  684MOL0     H94388   3.362   1.413  11.781 -0.5987  2.5237  0.3289
  684MOL0     H94389   3.993   1.088  11.177  0.3510  1.3000 -1.7451
  684MOL0     H94390   4.117   1.020  10.880  2.4406  0.6972  0.0589
  684MOL0     H94391   4.182   1.026  11.054 -2.0269  1.7579  0.3700
  684MOL0     H94392   4.199   0.882  10.971  1.2757  0.5949  0.9291
  685MOL0     O94393   2.659   5.864   6.175 -0.5603  0.7705  0.0764
  685MOL0     C94394   2.614   5.788   6.261  0.0805  0.0353  0.1247
  685MOL0     O94395   2.659   5.793   6.391  0.0098  1.2881 -0.3492
  685MOL0     C94396   2.763   5.874   6.424  0.0618 -0.0492  0.2713
  685MOL0     C94397   2.741   6.005   6.474 -0.5473  0.2223  0.6954
  685MOL0     C94398   2.850   6.087   6.511 -0.6323  0.5850  0.0734
  685MOL0     C94399   2.978   6.034   6.504 -0.0119 -0.3237  0.5319
  685MOL0     O94400   3.086   6.126   6.536 -0.0641 -0.9254  0.3124
  685MOL0     C94401   3.214   6.067   6.569 -0.5509 -1.1838 -0.1737
  685MOL0     C94402   3.311   6.182   6.558  0.0133  0.1721  0.1320
  685MOL0     C94403   3.448   6.141   6.599 -0.9793  0.1630 -0.5595
  685MOL0     C94404   3.562   6.238   6.569  0.6594 -0.1784 -0.1629
  685MOL0     C94405   3.696   6.161   6.564  0.0848 -0.4408  0.6982
  685MOL0     C94406   3.772   6.126   6.694  0.2609  0.8265 -0.1349
  685MOL0     C94407   3.852   6.250   6.748  0.0763  0.3650  0.4526
  685MOL0     C94408   3.982   6.271   6.657 -0.1448  0.5735  0.9500
  685MOL0     N94409   4.071   6.150   6.675 -0.8549  0.1575 -0.2881
  685MOL0     C94410   4.134   6.106   6.786  0.1364 -0.0723 -0.4820
  685MOL0     C94411   4.222   6.007   6.738  0.0304 -0.0255 -0.6403
  685MOL0     C94412   4.321   5.923   6.817 -0.1921  0.2354  1.1241
  685MOL0     C94413   4.457   5.995   6.838  0.0187  0.7889 -0.0022
  685MOL0     C94414   4.543   6.017   6.708  0.0813 -1.0456 -0.0095
  685MOL0     C94415   4.694   6.041   6.737 -0.2494  0.0380 -0.2718
  685MOL0     O94416   4.709   6.148   6.830  0.5449 -0.4168  0.3254
  685MOL0     C94417   4.827   6.215   6.811 -0.7907  0.0460 -0.0400
  685MOL0     C94418   4.944   6.187   6.877  0.2402  0.1925  0.8054
  685MOL0     C94419   5.071   6.252   6.853  0.8386 -0.3194 -0.3265
  685MOL0     C94420   5.195   6.206   6.926  0.5755 -0.5030  0.0002
  685MOL0     C94421   5.066   6.361   6.763 -0.6824  0.3910 -0.2607
  685MOL0     C94422   5.194   6.435   6.735  0.9287  0.7514 -0.1432
  685MOL0     O94423   5.178   6.525   6.637 -0.4182 -0.2512  0.8259
  685MOL0     C94424   5.287   6.605   6.606  0.6278 -0.1943  0.6314
  685MOL0     C94425   5.300   6.730   6.659 -0.4185  0.0281 -0.3685
  685MOL0     C94426   5.391   6.825   6.620  0.2932 -0.1757  0.4588
  685MOL0     C94427   5.478   6.788   6.514 -0.0275  0.2155 -0.2024
  685MOL0     O94428   5.566   6.886   6.483  1.1469  0.4949  0.9344
  685MOL0     C94429   5.503   6.987   6.400  0.3011 -0.5724 -0.8616
  685MOL0     C94430   5.562   6.967   6.260 -0.3770 -0.3051  0.3288
  685MOL0     C94431   5.563   7.098   6.179 -0.5624  0.4137  0.4742
  685MOL0     C94432   5.646   7.096   6.057 -0.7708  0.0454  0.0048
  685MOL0     C94433   5.656   7.238   5.988  0.5416 -0.7680 -1.0737
  685MOL0     C94434   5.523   7.269   5.928 -0.9615 -0.2260 -0.7186
  685MOL0     C94435   5.517   7.405   5.863  0.5380  0.2441 -0.4865
  685MOL0     C94436   5.374   7.447   5.831 -0.0138 -0.2854 -0.2578
  685MOL0    Cl94437   5.306   7.342   5.710 -0.4828 -0.3147 -0.1998
  685MOL0     C94438   5.457   6.663   6.449 -0.5372  0.2179  0.0304
  685MOL0     C94439   5.364   6.571   6.499 -1.1369 -0.2277  0.0913
  685MOL0     O94440   5.291   6.426   6.811 -0.4743  0.1055  0.3092
  685MOL0     C94441   4.945   6.400   6.696 -0.3489  0.3631  0.0393
  685MOL0     C94442   4.830   6.321   6.722  0.2429 -0.7995  0.4103
  685MOL0     N94443   4.193   5.997   6.603  0.1359 -0.8274 -0.5863
  685MOL0     N94444   4.096   6.072   6.569  0.4672  0.3168 -0.3553
  685MOL0     C94445   2.996   5.895   6.473 -0.3106 -0.1024  0.0605
  685MOL0     C94446   2.891   5.816   6.430  0.7805 -0.4794  0.8199
  685MOL0     C94447   2.504   5.700   6.214 -0.5010 -0.0169  0.8937
  685MOL0     C94448   2.488   5.668   6.081  0.2483 -0.5300 -0.7056
  685MOL0     C94449   2.390   5.587   6.028 -0.5240 -0.2885 -0.1758
  685MOL0     C94450   2.292   5.539   6.120  0.0486 -0.3826  0.6914
  685MOL0     O94451   2.192   5.461   6.081  0.1961 -0.6774  0.0247
  685MOL0     C94452   2.093   5.548   6.010 -0.0406 -0.4966 -0.3278
  685MOL0     C94453   1.970   5.476   5.963  0.1473  1.2898  0.3866
  685MOL0     C94454   2.003   5.359   5.869 -0.6176 -0.2759 -0.1707
  685MOL0     C94455   1.903   5.350   5.760  0.2885 -0.4354  0.7052
  685MOL0     C94456   1.922   5.233   5.674  0.7932  0.8037 -0.3139
  685MOL0     C94457   1.939   5.122   5.613  0.1467  0.3049  0.0761
  685MOL0     C94458   2.297   5.568   6.254 -0.9955 -0.4231 -0.6250
  685MOL0     C94459   2.407   5.635   6.303 -0.0632 -1.2947  0.8308
  685MOL0     C94460   2.405   5.660   6.450 -0.0698 -0.2058 -0.4633
  685MOL0     H94461   2.645   6.055   6.471  0.2128  1.7194 -0.6932
  685MOL0     H94462   2.837   6.193   6.528  3.3081  1.4145 -1.0564
  685MOL0     H94463   3.245   5.987   6.501 -1.5264 -0.2965 -1.7484
  685MOL0     H94464   3.222   6.035   6.673  2.4053  2.4210  0.9118
  685MOL0     H94465   3.311   6.225   6.457  1.8764 -1.1547 -0.5007
  685MOL0     H94466   3.283   6.263   6.625 -1.1370  0.7340 -0.9921
  685MOL0     H94467   3.452   6.107   6.703  1.2453 -1.4557 -1.0876
  685MOL0     H94468   3.460   6.049   6.542 -1.6900 -0.1770 -0.1686
  685MOL0     H94469   3.542   6.283   6.471  0.9984  1.2226  0.3764
  685MOL0     H94470   3.565   6.322   6.640  0.1948 -0.3454  0.0565
  685MOL0     H94471   3.753   6.196   6.478 -0.1564 -0.6430  0.4517
  685MOL0     H94472   3.668   6.066   6.518  1.3984  0.9882 -3.4093
  685MOL0     H94473   3.703   6.080   6.765  3.5746 -0.2201  2.6939
  685MOL0     H94474   3.844   6.044   6.681  2.1206  2.7288 -3.1244
  685MOL0     H94475   3.877   6.236   6.854  1.7144 -0.5664 -0.0181
  685MOL0     H94476   3.784   6.336   6.745 -3.6186 -2.3228 -0.4163
  685MOL0     H94477   3.951   6.287   6.554 -0.7233  2.8809  1.4239
  685MOL0     H94478   4.019   6.370   6.684 -0.6008  0.5883  1.5536
  685MOL0     H94479   4.139   6.142   6.888  0.8746  1.3947 -0.9954
  685MOL0     H94480   4.333   5.827   6.767 -1.6145 -0.5358  2.1961
  685MOL0     H94481   4.270   5.913   6.913 -1.4294  0.5114  0.5201
  685MOL0     H94482   4.449   6.081   6.905  0.9557 -1.1703  2.7877
  685MOL0     H94483   4.527   5.926   6.886 -0.9534 -2.2093 -2.5468
  685MOL0     H94484   4.520   5.925   6.652  0.6873 -1.6287  0.6705
  685MOL0     H94485   4.504   6.107   6.661  1.0906  0.9935  2.7924
  685MOL0     H94486   4.732   5.952   6.788 -0.5722 -0.8587 -1.5344
  685MOL0     H94487   4.739   6.067   6.641 -0.2372 -1.7621 -0.7981
  685MOL0     H94488   4.944   6.106   6.950 -1.4134 -1.8547 -1.3206
  685MOL0     H94489   5.277   6.176   6.860 -1.3901 -1.3032 -2.2350
  685MOL0     H94490   5.168   6.118   6.986 -0.4489 -1.2505 -1.5025
  685MOL0     H94491   5.229   6.289   6.988  0.5445  1.7413 -2.8012
  685MOL0     H94492   5.238   6.768   6.739 -0.3847 -0.8639  0.0912
  685MOL0     H94493   5.380   6.921   6.670 -0.9225 -0.4670  0.7919
  685MOL0     H94494   5.395   6.979   6.391 -0.3297  0.4076  3.3308
  685MOL0     H94495   5.524   7.081   6.453 -1.3644 -0.9253  0.5132
  685MOL0     H94496   5.666   6.935   6.271 -0.6090 -1.4336 -0.5517
  685MOL0     H94497   5.518   6.888   6.199  0.9958  1.0071 -2.5853
  685MOL0     H94498   5.598   7.184   6.236  1.8859 -0.4381  0.3789
  685MOL0     H94499   5.460   7.107   6.142 -0.0148  0.4450 -1.1221
  685MOL0     H94500   5.611   7.017   5.991 -2.6487 -0.6191  1.6910
  685MOL0     H94501   5.738   7.058   6.102 -3.0002 -2.6206  2.6778
  685MOL0     H94502   5.684   7.316   6.059 -1.8374  1.1237 -2.0795
  685MOL0     H94503   5.732   7.237   5.910  2.1456  0.9951  0.3591
  685MOL0     H94504   5.448   7.272   6.007 -3.5234 -0.3639 -2.9860
  685MOL0     H94505   5.497   7.195   5.852  2.3145  0.7858 -3.0263
  685MOL0     H94506   5.576   7.411   5.771  0.7567  1.2373 -0.2958
  685MOL0     H94507   5.555   7.466   5.946 -0.7160 -0.5754  0.7474
  685MOL0     H94508   5.365   7.553   5.809  1.0345 -0.0394  0.4601
  685MOL0     H94509   5.318   7.424   5.923 -0.0240 -1.0238 -0.4436
  685MOL0     H94510   5.518   6.649   6.361 -0.2029  1.4766  0.0428
  685MOL0     H94511   5.353   6.479   6.444 -0.0030  0.6909 -1.7523
  685MOL0     H94512   4.947   6.476   6.619 -1.0860  0.0646 -0.2800
  685MOL0     H94513   4.743   6.337   6.660 -0.3408 -1.5062  1.0312
  685MOL0     H94514   3.091   5.843   6.477  0.4719  1.2725 -0.3414
  685MOL0     H94515   2.907   5.713   6.403  2.3586 -0.3068  0.9978
  685MOL0     H94516   2.568   5.694   6.012 -0.2672 -4.7587 -3.2507
  685MOL0     H94517   2.377   5.553   5.925 -2.4777 -1.5530  0.4180
  685MOL0     H94518   2.056   5.628   6.074 -1.8710 -0.5486 -1.2697
  685MOL0     H94519   2.139   5.595   5.923 -2.5414  3.1664  0.1154
  685MOL0     H94520   1.910   5.552   5.913  1.0704  1.9916  0.3295
  685MOL0     H94521   1.910   5.433   6.043  1.2829 -1.6487 -0.2079
  685MOL0     H94522   2.103   5.376   5.828  0.3458 -0.4271  1.9335
  685MOL0     H94523   2.023   5.268   5.928  2.7349  0.0151 -0.6589
  685MOL0     H94524   1.919   5.437   5.697  2.2075 -0.9757  0.4039
  685MOL0     H94525   1.807   5.351   5.812  0.8657  3.4030  1.9807
  685MOL0     H94526   1.945   5.025   5.569 -2.5238 -0.7901  1.8654
  685MOL0     H94527   2.224   5.536   6.328 -2.7851  1.2561 -1.5843
  685MOL0     H94528   2.408   5.768   6.470 -0.1622 -0.5909  1.9739
  685MOL0     H94529   2.317   5.623   6.503  0.9491 -1.5686  0.3285
  685MOL0     H94530   2.484   5.596   6.489 -0.2966 -0.3904 -0.3012
  686MOL0     O94531   9.706   9.180   4.004 -0.5733 -0.0092  0.0375
  686MOL0     C94532   9.783   9.242   3.932  0.3125 -0.6896  0.4024
  686MOL0     O94533   9.879   9.323   3.989  0.5101  1.0183 -0.6085
  686MOL0     C94534   9.875   9.342   4.125  0.1965 -0.5335 -0.0460
  686MOL0     C94535   9.996   9.296   4.184  0.1389 -0.7835  0.4561
  686MOL0     C94536  10.022   9.327   4.317  0.4881  0.3243 -0.6042
  686MOL0     C94537   9.930   9.392   4.396  0.0401 -0.3795 -0.6396
  686MOL0     O94538   9.950   9.424   4.528 -0.1958  0.0860 -0.0743
  686MOL0     C94539  10.009   9.325   4.615  0.3409  0.4025 -0.4158
  686MOL0     C94540  10.164   9.341   4.650 -0.4111  0.4870  0.0530
  686MOL0     C94541  10.204   9.474   4.696 -0.6256 -0.2498  0.2060
  686MOL0     C94542  10.358   9.458   4.721  0.2055  0.3441  0.9890
  686MOL0     C94543  10.425   9.577   4.798 -0.0461  0.0843  0.4041
  686MOL0     C94544  10.377   9.727   4.772  0.1291  0.2775 -0.4851
  686MOL0     C94545  10.397   9.773   4.627  0.0674 -0.3261 -0.0084
  686MOL0     C94546  10.397   9.929   4.623 -0.3202  0.4903 -0.1097
  686MOL0     N94547  10.462   9.955   4.498  0.1412 -0.0665 -0.9788
  686MOL0     C94548  10.542  10.060   4.482 -0.1204 -0.3510  0.4242
  686MOL0     C94549  10.581  10.064   4.356 -0.0870 -0.5858  0.4829
  686MOL0     C94550  10.673  10.174   4.303  0.3650  0.8129  0.6319
  686MOL0     C94551  10.818  10.131   4.273  0.2421  0.1988  0.1646
  686MOL0     C94552  10.899  10.251   4.230 -0.0118 -0.1426  0.4086
  686MOL0     C94553  11.058  10.204   4.217 -0.0440 -0.3564 -0.8251
  686MOL0     O94554  11.082  10.080   4.144  0.0743 -0.3562  0.2209
  686MOL0     C94555  11.117  10.082   4.012  0.1369 -0.6953 -0.3150
  686MOL0     C94556  11.185   9.978   3.959 -0.0391  0.0784 -0.8366
  686MOL0     C94557  11.229   9.974   3.825 -0.1607  0.0621  0.1735
  686MOL0     C94558  11.304   9.849   3.790  0.5461 -0.9766  0.1393
  686MOL0     C94559  11.190  10.070   3.738 -0.0786 -0.5786 -0.2037
  686MOL0     C94560  11.231  10.074   3.591  0.3842  0.0514 -0.4144
  686MOL0     O94561  11.156  10.154   3.508 -0.0233  0.2165  0.4398
  686MOL0     C94562  11.159  10.140   3.371  0.1834  0.3199 -1.2576
  686MOL0     C94563  11.196  10.019   3.294  0.1185 -0.3559 -0.5070
  686MOL0     C94564  11.210  10.025   3.156  0.1788  0.0360  0.6420
  686MOL0     C94565  11.177  10.142   3.079  0.7164 -0.3363 -0.2757
  686MOL0     O94566  11.180  10.145   2.937  0.4952  0.4623 -0.4862
  686MOL0     C94567  11.141  10.033   2.849 -0.5086  0.2371 -0.4067
  686MOL0     C94568  11.025  10.077   2.755  0.1680 -0.6837 -0.1972
  686MOL0     C94569  10.898  10.101   2.840  0.4069 -0.1013 -0.9878
  686MOL0     C94570  10.771  10.103   2.742 -0.1361  0.1624 -0.0846
  686MOL0     C94571  10.644  10.130   2.818  0.7910  0.0208  0.0504
  686MOL0     C94572  10.536  10.150   2.715  0.2940  0.4496 -0.2268
  686MOL0     C94573  10.401  10.110   2.784  0.4186 -0.6250  0.7222
  686MOL0     C94574  10.288  10.072   2.685  1.2101  0.0287 -0.0363
  686MOL0    Cl94575  10.264  10.215   2.597 -0.2127  0.5581 -0.0279
  686MOL0     C94576  11.129  10.255   3.148 -0.9456  0.2723 -0.6292
  686MOL0     C94577  11.121  10.250   3.292  0.0646  0.4954 -0.0952
  686MOL0     O94578  11.337  10.012   3.567 -0.0072 -0.3138  0.7192
  686MOL0     C94579  11.098  10.168   3.779  0.9529  0.1917  0.0398
  686MOL0     C94580  11.071  10.173   3.920  1.2714 -0.6758  0.3906
  686MOL0     N94581  10.502   9.974   4.286 -0.2434  1.0133  0.3756
  686MOL0     N94582  10.430   9.903   4.376 -0.0533 -0.3572 -0.0962
  686MOL0     C94583   9.809   9.438   4.343 -1.1746 -0.0861  0.0746
  686MOL0     C94584   9.789   9.409   4.204  0.4648 -0.3926  0.6966
  686MOL0     C94585   9.789   9.231   3.784 -0.0062 -0.9918  0.1199
  686MOL0     C94586   9.894   9.306   3.720  0.8650  0.1693  0.2887
  686MOL0     C94587   9.919   9.301   3.584 -0.0057  0.3446  0.0336
  686MOL0     C94588   9.842   9.214   3.504  0.8167  0.0749 -0.6377
  686MOL0     O94589   9.845   9.214   3.375 -0.6822  0.1258 -0.3893
  686MOL0     C94590   9.973   9.175   3.319  0.2450 -1.2766 -0.0304
  686MOL0     C94591   9.946   9.108   3.184 -0.5833 -0.3060 -0.0322
  686MOL0     C94592   9.877   9.193   3.073  0.2591  0.2892 -0.2328
  686MOL0     C94593   9.865   9.106   2.949 -0.6810 -0.0891 -0.0267
  686MOL0     C94594   9.754   9.150   2.868 -0.4563 -0.2312  0.4032
  686MOL0     C94595   9.653   9.194   2.817 -0.4868  0.5900 -0.4251
  686MOL0     C94596   9.735   9.143   3.564 -1.4990  0.1191 -0.3956
  686MOL0     C94597   9.714   9.153   3.702  0.2930  0.8436 -0.0993
  686MOL0     C94598   9.596   9.075   3.765  0.4666  0.5301 -0.1904
  686MOL0     H94599  10.080   9.257   4.128  0.1885 -3.9215  2.4941
  686MOL0     H94600  10.104   9.297   4.381  0.2942  1.3569  0.1510
  686MOL0     H94601   9.987   9.220   4.592  0.0162  0.8044 -2.0746
  686MOL0     H94602   9.951   9.351   4.703  2.5212  0.0952  1.1984
  686MOL0     H94603  10.192   9.264   4.724 -0.5680  0.0283 -0.3591
  686MOL0     H94604  10.224   9.324   4.560 -0.4926  2.2950 -0.3784
  686MOL0     H94605  10.190   9.548   4.617  0.9613 -1.2485 -1.0768
  686MOL0     H94606  10.155   9.514   4.785  0.8919 -0.3560  1.1369
  686MOL0     H94607  10.394   9.369   4.773  0.7879 -0.5294 -0.8257
  686MOL0     H94608  10.414   9.449   4.628  1.2926  0.1466  1.6426
  686MOL0     H94609  10.534   9.584   4.787 -0.3476  0.7276 -5.8776
  686MOL0     H94610  10.403   9.562   4.904 -2.8989  4.0254  0.6074
  686MOL0     H94611  10.272   9.744   4.794 -0.2292 -2.4971  0.3489
  686MOL0     H94612  10.426   9.792   4.845  1.2280 -3.9276  2.9456
  686MOL0     H94613  10.319   9.733   4.561 -0.8938  0.0793  0.8508
  686MOL0     H94614  10.494   9.747   4.585  1.3572  1.7469  1.4968
  686MOL0     H94615  10.296   9.972   4.628 -0.0060  1.1765  0.6802
  686MOL0     H94616  10.450   9.968   4.711  2.7337  0.8157 -1.9747
  686MOL0     H94617  10.558  10.136   4.558 -1.8461  0.3270  0.1469
  686MOL0     H94618  10.674  10.257   4.375 -2.2564  0.6501  0.9626
  686MOL0     H94619  10.636  10.214   4.209 -0.3619  0.7363  0.8786
  686MOL0     H94620  10.865  10.090   4.363  4.4146  1.3580 -1.2542
  686MOL0     H94621  10.825  10.057   4.193 -1.3106 -0.8649  0.9809
  686MOL0     H94622  10.859  10.280   4.133 -0.0943  1.2017  0.8232
  686MOL0     H94623  10.899  10.333   4.302  0.8548 -1.0919  1.5377
  686MOL0     H94624  11.116  10.291   4.185 -1.1134 -0.1004 -2.1272
  686MOL0     H94625  11.089  10.187   4.321 -3.7510  0.8192  0.6256
  686MOL0     H94626  11.214   9.895   4.023  3.4483  1.4740 -0.4007
  686MOL0     H94627  11.291   9.771   3.865  1.0909 -0.7629  0.4614
  686MOL0     H94628  11.410   9.878   3.783 -0.3580  2.5633 -1.2069
  686MOL0     H94629  11.282   9.823   3.686 -0.7097  4.2553 -1.1881
  686MOL0     H94630  11.217   9.917   3.326  1.4510 -1.0457 -3.2912
  686MOL0     H94631  11.233   9.932   3.104  0.6786 -0.2915  1.4284
  686MOL0     H94632  11.226  10.022   2.780  0.6781 -2.8175  1.3487
  686MOL0     H94633  11.126   9.935   2.895  0.4694  1.1574  2.0610
  686MOL0     H94634  11.050  10.175   2.713 -0.2321  0.1080  1.3605
  686MOL0     H94635  11.001  10.008   2.674 -1.0536  0.8726 -1.2310
  686MOL0     H94636  10.902  10.193   2.900 -1.5686 -0.3500 -0.4349
  686MOL0     H94637  10.879  10.013   2.902  0.1344  0.8616  0.3362
  686MOL0     H94638  10.765  10.013   2.680 -0.0819  1.5434 -2.1943
  686MOL0     H94639  10.790  10.195   2.685  0.1682  0.1904  0.0549
  686MOL0     H94640  10.620  10.044   2.881 -0.6312 -0.2136 -0.7616
  686MOL0     H94641  10.655  10.222   2.877 -0.9694 -0.7479  1.6954
  686MOL0     H94642  10.550  10.090   2.625 -2.7026 -1.0101  0.1258
  686MOL0     H94643  10.536  10.251   2.673 -1.8360  0.0876 -1.2465
  686MOL0     H94644  10.368  10.195   2.845 -0.3803 -0.1385 -0.3375
  686MOL0     H94645  10.413  10.024   2.850 -1.7534 -1.9442 -0.4668
  686MOL0     H94646  10.198  10.043   2.740  1.3021  0.4317  0.3391
  686MOL0     H94647  10.321   9.991   2.619  1.2328 -0.4965  0.6069
  686MOL0     H94648  11.102  10.343   3.091 -2.8751 -0.0753 -0.3203
  686MOL0     H94649  11.086  10.333   3.352  0.3957 -0.6453  1.7517
  686MOL0     H94650  11.047  10.233   3.708 -0.2279  0.4940  1.1304
  686MOL0     H94651  11.010  10.258   3.948  0.5379 -0.5887 -1.3440
  686MOL0     H94652   9.728   9.483   4.399  1.9091  1.5930  3.6296
  686MOL0     H94653   9.701   9.451   4.155  2.2271  1.8529 -0.7703
  686MOL0     H94654   9.958   9.364   3.785  2.6509  0.3388 -1.5316
  686MOL0     H94655  10.004   9.353   3.540 -0.4360 -1.7647 -3.7083
  686MOL0     H94656  10.044   9.258   3.312  0.0580 -1.0528  0.5812
  686MOL0     H94657  10.019   9.100   3.384 -0.8220  0.6516  3.2000
  686MOL0     H94658   9.888   9.019   3.210 -0.2188 -0.3476  0.6670
  686MOL0     H94659  10.045   9.081   3.149 -0.8420  0.5386 -1.4833
  686MOL0     H94660   9.782   9.222   3.118  1.6945  0.6275  2.8963
  686MOL0     H94661   9.931   9.284   3.043 -0.5548  1.7174  2.3269
  686MOL0     H94662   9.864   9.001   2.981  0.5573 -0.4502 -1.0860
  686MOL0     H94663   9.949   9.124   2.882 -1.5550 -1.5074 -1.5788
  686MOL0     H94664   9.562   9.242   2.787 -0.2263  2.9526  2.1262
  686MOL0     H94665   9.667   9.081   3.508 -1.3104 -1.1887  0.7551
  686MOL0     H94666   9.621   8.975   3.803  0.3922  1.7694  3.4889
  686MOL0     H94667   9.542   9.124   3.847  0.7991  0.0013  0.3511
  686MOL0     H94668   9.521   9.067   3.687 -0.0395 -2.7419  0.4686
  687MOL0     O94669   6.542  10.843  10.464  0.3741 -0.1598 -0.1239
  687MOL0     C94670   6.501  10.800  10.575  0.0812 -0.4122  0.0466
  687MOL0     O94671   6.519  10.855  10.702 -0.4087  1.1054 -0.0768
  687MOL0     C94672   6.599  10.959  10.735  0.4025 -1.1700 -0.3811
  687MOL0     C94673   6.694  11.026  10.650 -0.9233 -0.5133  0.2760
  687MOL0     C94674   6.756  11.143  10.694  0.3009 -0.5780  0.3135
  687MOL0     C94675   6.748  11.177  10.833 -0.1215  0.3586 -0.1054
  687MOL0     O94676   6.809  11.290  10.877 -0.3826  0.3545 -0.1574
  687MOL0     C94677   6.890  11.384  10.800 -0.7037 -0.2707  0.3469
  687MOL0     C94678   6.877  11.517  10.855  0.4101 -0.5039  0.7280
  687MOL0     C94679   6.726  11.558  10.868  0.3780 -0.0412  0.2591
  687MOL0     C94680   6.715  11.704  10.902  0.1439 -0.4456 -0.3546
  687MOL0     C94681   6.674  11.738  11.045  0.3051 -0.6816  0.5598
  687MOL0     C94682   6.538  11.689  11.098 -0.4455 -0.5377  0.6069
  687MOL0     C94683   6.421  11.700  10.990  0.4716  0.1348  0.0531
  687MOL0     C94684   6.304  11.608  11.022 -0.2086 -0.5380  0.6449
  687MOL0     N94685   6.259  11.606  11.158  0.3703  0.4195 -0.2910
  687MOL0     C94686   6.215  11.705  11.249 -0.3168 -0.0458 -0.0262
  687MOL0     C94687   6.171  11.647  11.361 -0.1732  1.4404  0.4796
  687MOL0     C94688   6.104  11.715  11.480  0.4556 -0.0175  0.9400
  687MOL0     C94689   5.958  11.677  11.498 -0.6154  0.8431 -0.0168
  687MOL0     C94690   5.874  11.747  11.399  0.0574 -0.4205  0.3701
  687MOL0     C94691   5.729  11.719  11.442 -0.1392 -0.2355  0.3578
  687MOL0     O94692   5.698  11.578  11.420 -0.1398 -0.1105 -0.3982
  687MOL0     C94693   5.563  11.547  11.431  0.5073 -0.6268 -0.0131
  687MOL0     C94694   5.493  11.504  11.316  0.4872 -0.4510 -0.6753
  687MOL0     C94695   5.357  11.474  11.328 -0.3158  0.4371 -0.4463
  687MOL0     C94696   5.291  11.422  11.195 -0.1100  0.9182 -0.4441
  687MOL0     C94697   5.285  11.490  11.446 -0.1768 -0.0336  0.5213
  687MOL0     C94698   5.143  11.453  11.462  0.5235 -0.6407  0.8751
  687MOL0     O94699   5.082  11.369  11.385  0.1620 -0.5924  0.5102
  687MOL0     C94700   4.941  11.357  11.388  0.3891 -0.1833 -0.2756
  687MOL0     C94701   4.908  11.249  11.318  0.1351  1.0578 -0.2148
  687MOL0     C94702   4.772  11.207  11.304 -0.5600  0.2570 -0.1886
  687MOL0     C94703   4.671  11.277  11.360 -0.1282 -0.7464  0.0850
  687MOL0     O94704   4.545  11.232  11.334  0.1683  0.1637 -0.1674
  687MOL0     C94705   4.458  11.237  11.446  0.2308  0.2085 -0.4162
  687MOL0     C94706   4.335  11.156  11.426  1.0150  0.3230  0.0152
  687MOL0     C94707   4.308  11.107  11.285  0.4763  0.7855 -0.6410
  687MOL0     C94708   4.189  11.011  11.281  0.7937  0.2418 -0.2717
  687MOL0     C94709   4.152  10.977  11.134 -0.1079 -0.0584 -0.3869
  687MOL0     C94710   4.027  10.890  11.121  0.2064  0.0546  0.4278
  687MOL0     C94711   4.034  10.765  11.223  0.1047  0.2724 -0.4266
  687MOL0     C94712   3.961  10.786  11.353 -0.2553  0.6949 -0.0453
  687MOL0    Cl94713   3.788  10.816  11.319 -0.2267 -0.0128  0.2975
  687MOL0     C94714   4.700  11.397  11.430 -0.5575 -0.3584  0.2201
  687MOL0     C94715   4.840  11.440  11.434  0.3280  0.1546 -0.6328
  687MOL0     O94716   5.093  11.520  11.548  0.2226  0.7804 -0.3754
  687MOL0     C94717   5.360  11.533  11.558  0.9072  0.4447 -0.2912
  687MOL0     C94718   5.493  11.550  11.556  0.6565  0.2534 -0.3922
  687MOL0     N94719   6.176  11.512  11.342 -0.2536  1.3191 -0.5715
  687MOL0     N94720   6.233  11.490  11.225  0.1047 -0.1294 -0.6516
  687MOL0     C94721   6.663  11.103  10.923  0.3061 -1.4608  0.2738
  687MOL0     C94722   6.580  11.011  10.865  0.0149  1.1612  0.6773
  687MOL0     C94723   6.435  10.672  10.570 -0.2180  0.2797 -0.5959
  687MOL0     C94724   6.475  10.571  10.481 -1.2957 -0.3163  0.2971
  687MOL0     C94725   6.415  10.449  10.472 -0.2894  0.7492  0.1067
  687MOL0     C94726   6.317  10.410  10.564  0.1449 -0.5552  0.0305
  687MOL0     O94727   6.258  10.283  10.558  0.2052  0.4849  0.1876
  687MOL0     C94728   6.237  10.211  10.679 -0.4464 -1.0246 -1.0235
  687MOL0     C94729   6.087  10.199  10.715 -0.5918 -0.2027 -0.0743
  687MOL0     C94730   6.005  10.116  10.613 -0.3601 -0.0524 -0.2572
  687MOL0     C94731   5.864  10.096  10.672  0.6393 -0.2379  0.8189
  687MOL0     C94732   5.761  10.063  10.569  1.4460  0.1956 -0.0057
  687MOL0     C94733   5.667  10.022  10.501  0.2030 -0.3124  0.3275
  687MOL0     C94734   6.265  10.509  10.652 -0.3108 -0.8986 -0.5675
  687MOL0     C94735   6.329  10.637  10.659 -1.3513 -0.0107  0.5026
  687MOL0     C94736   6.278  10.732  10.764  0.1177 -0.6734 -0.1793
  687MOL0     H94737   6.714  10.988  10.550  1.1371  1.9757 -0.3699
  687MOL0     H94738   6.822  11.194  10.625  0.6603 -0.9386  0.3796
  687MOL0     H94739   6.854  11.376  10.696  1.4642 -1.0386 -0.4064
  687MOL0     H94740   6.993  11.352  10.816 -1.4169 -3.0111 -0.0477
  687MOL0     H94741   6.921  11.513  10.955 -0.5980 -1.4484  1.1540
  687MOL0     H94742   6.926  11.581  10.781  1.0173 -3.3091 -1.4553
  687MOL0     H94743   6.678  11.531  10.773 -0.3433  0.9715  0.3195
  687MOL0     H94744   6.679  11.493  10.943 -0.8666  0.5055 -0.0148
  687MOL0     H94745   6.809  11.758  10.884  1.7709 -1.2629  4.2759
  687MOL0     H94746   6.641  11.744  10.832  1.6289  0.3700 -1.5484
  687MOL0     H94747   6.669  11.847  11.056 -1.1614 -0.8838  2.3570
  687MOL0     H94748   6.761  11.707  11.104  1.7018 -0.7911 -1.4757
  687MOL0     H94749   6.550  11.581  11.110 -0.1237 -0.7522 -1.3197
  687MOL0     H94750   6.520  11.738  11.194 -0.5857  0.0501  0.2840
  687MOL0     H94751   6.456  11.659  10.895 -0.6949  0.2423 -0.4309
  687MOL0     H94752   6.383  11.802  10.983 -2.0808 -0.6851  0.9763
  687MOL0     H94753   6.217  11.623  10.957 -0.1280  0.7461  0.8007
  687MOL0     H94754   6.334  11.507  10.996  0.1665 -0.6194  1.3603
  687MOL0     H94755   6.205  11.813  11.238 -1.6569 -0.2589 -1.2316
  687MOL0     H94756   6.126  11.819  11.457  1.4762 -0.4739 -0.2936
  687MOL0     H94757   6.155  11.679  11.570 -0.0964 -2.1685  0.4594
  687MOL0     H94758   5.959  11.569  11.481  0.9331  0.9138 -0.5029
  687MOL0     H94759   5.930  11.704  11.600  0.7235 -0.5339  0.7589
  687MOL0     H94760   5.883  11.856  11.395 -1.7077 -0.2955 -1.1373
  687MOL0     H94761   5.894  11.714  11.297  1.8249  0.5656  0.3449
  687MOL0     H94762   5.713  11.744  11.547  0.1410 -0.9487  0.5768
  687MOL0     H94763   5.653  11.772  11.384  0.6622 -1.6564 -2.1520
  687MOL0     H94764   5.536  11.482  11.219  0.3538 -1.4383 -0.5256
  687MOL0     H94765   5.279  11.314  11.205  0.9390  0.9753  1.9555
  687MOL0     H94766   5.353  11.451  11.109  0.2893  0.9452 -0.1502
  687MOL0     H94767   5.193  11.465  11.173 -1.9708 -2.0585  1.3840
  687MOL0     H94768   4.983  11.189  11.267  0.1889  2.3231 -1.7026
  687MOL0     H94769   4.747  11.118  11.248  1.5337 -0.5465  0.0585
  687MOL0     H94770   4.504  11.199  11.538 -4.4498  0.5068  2.3436
  687MOL0     H94771   4.416  11.333  11.477 -1.5748 -0.7203  0.1454
  687MOL0     H94772   4.342  11.065  11.485 -1.4023 -0.8378 -1.3211
  687MOL0     H94773   4.248  11.215  11.458 -0.2209 -0.3654 -1.8870
  687MOL0     H94774   4.399  11.052  11.259 -0.8104 -3.0150  2.1257
  687MOL0     H94775   4.292  11.190  11.215  1.7815 -0.0572 -1.9779
  687MOL0     H94776   4.106  11.068  11.324  0.8426  0.1137 -0.0077
  687MOL0     H94777   4.216  10.918  11.332  3.2326  1.0593  0.0735
  687MOL0     H94778   4.130  11.060  11.066 -2.6094 -0.6123 -0.3519
  687MOL0     H94779   4.242  10.933  11.090  0.8523  0.7841  0.6675
  687MOL0     H94780   4.030  10.860  11.015 -0.8001  1.1644  0.0592
  687MOL0     H94781   3.940  10.953  11.143  0.3349  0.5603 -0.4557
  687MOL0     H94782   4.139  10.746  11.248 -0.1590  1.9756  2.5056
  687MOL0     H94783   3.993  10.679  11.170 -0.7346  0.6218 -0.3694
  687MOL0     H94784   4.010  10.873  11.397 -1.4873  0.5694  1.6458
  687MOL0     H94785   3.976  10.696  11.414 -2.4295  0.5255  0.2952
  687MOL0     H94786   4.618  11.453  11.472 -1.7266  0.8129 -3.3028
  687MOL0     H94787   4.867  11.535  11.478 -0.7345 -0.5817  1.7827
  687MOL0     H94788   5.312  11.529  11.655 -1.5533 -3.1497 -1.4554
  687MOL0     H94789   5.551  11.567  11.646  2.7205  0.6696 -1.7427
  687MOL0     H94790   6.663  11.125  11.030  0.6725  0.4188 -0.0945
  687MOL0     H94791   6.506  10.957  10.924 -0.7793  0.4383 -0.9236
  687MOL0     H94792   6.548  10.595  10.404 -2.0704 -0.4233 -0.4906
  687MOL0     H94793   6.439  10.371  10.400 -2.4964  1.0421 -1.0152
  687MOL0     H94794   6.294  10.118  10.684  0.3088 -0.7229 -3.1138
  687MOL0     H94795   6.281  10.267  10.762 -2.0951 -0.7777 -0.2826
  687MOL0     H94796   6.052  10.302  10.720 -2.3438 -0.8029  3.5746
  687MOL0     H94797   6.064  10.161  10.815 -2.8426 -1.0752 -0.8675
  687MOL0     H94798   5.984  10.175  10.523 -0.0864  1.6370  0.7608
  687MOL0     H94799   6.047  10.020  10.583  2.6668  1.0712  0.1041
  687MOL0     H94800   5.836  10.198  10.700 -0.8993  0.6454 -3.2871
  687MOL0     H94801   5.853  10.026  10.756 -2.2546  1.0486  1.6555
  687MOL0     H94802   5.579   9.981  10.455  0.1639  0.7625 -0.6121
  687MOL0     H94803   6.181  10.470  10.708 -1.8199  1.5000 -1.0042
  687MOL0     H94804   6.173  10.706  10.780  0.2951 -1.0552  0.3705
  687MOL0     H94805   6.334  10.709  10.855 -1.1963 -1.5078  0.4401
  687MOL0     H94806   6.291  10.836  10.730  3.3978 -0.6058  0.9117
  688MOL0     O94807   0.358   9.549   8.536 -0.7952  0.5014  0.0219
  688MOL0     C94808   0.245   9.588   8.539  0.3692 -0.1810 -0.4219
  688MOL0     O94809   0.179   9.651   8.442  0.1103 -0.1472  0.2095
  688MOL0     C94810   0.237   9.713   8.327 -0.5935 -0.0220  0.1479
  688MOL0     C94811   0.358   9.784   8.325  0.7881  0.1535 -0.8463
  688MOL0     C94812   0.401   9.840   8.209 -0.4649 -0.5141  0.1510
  688MOL0     C94813   0.335   9.825   8.088 -0.6906  0.1457 -0.5724
  688MOL0     O94814   0.406   9.877   7.981  0.2598 -0.3147  0.5833
  688MOL0     C94815   0.361   9.891   7.847  0.9220 -0.1871  0.4684
  688MOL0     C94816   0.445   9.992   7.775  0.0432  0.4026 -1.2608
  688MOL0     C94817   0.476  10.120   7.862  0.8533  0.2526  0.4494
  688MOL0     C94818   0.352  10.202   7.898 -0.1311 -0.0299  0.5723
  688MOL0     C94819   0.386  10.330   7.966  0.5047  0.2425 -0.5854
  688MOL0     C94820   0.340  10.326   8.112  0.3634 -0.2566  1.1243
  688MOL0     C94821   0.402  10.206   8.194 -0.9889 -0.3302  0.5637
  688MOL0     C94822   0.360  10.210   8.341  0.4194  0.3197  0.3446
  688MOL0     N94823   0.211  10.180   8.348 -0.2553 -0.6347  0.4878
  688MOL0     C94824   0.141  10.065   8.299  0.3321  0.3434 -0.0637
  688MOL0     C94825   0.008  10.081   8.340 -1.7224 -0.2142  0.3658
  688MOL0     C94826  -0.110   9.989   8.302 -0.2689 -0.1960  0.8606
  688MOL0     C94827  -0.140   9.897   8.419 -0.9665  0.6680 -0.6037
  688MOL0     C94828  -0.265   9.813   8.419 -0.7184  0.2971 -0.5208
  688MOL0     C94829  -0.397   9.885   8.417 -0.0284 -0.3914 -1.1419
  688MOL0     O94830  -0.505   9.795   8.393 -0.5609  0.1201  0.3871
  688MOL0     C94831  -0.553   9.713   8.495  0.1395  0.0989  0.2549
  688MOL0     C94832  -0.522   9.721   8.636  1.1500 -0.0560  0.2643
  688MOL0     C94833  -0.578   9.621   8.723  0.9344 -0.7436  0.6387
  688MOL0     C94834  -0.532   9.644   8.866  0.0911 -0.1591 -0.5278
  688MOL0     C94835  -0.671   9.525   8.679 -0.2230  0.4947  0.3895
  688MOL0     C94836  -0.717   9.409   8.759  0.5214  0.7628  0.1582
  688MOL0     O94837  -0.809   9.320   8.704 -0.4956  0.0513 -0.1199
  688MOL0     C94838  -0.875   9.226   8.777 -0.2887  0.0896 -0.0535
  688MOL0     C94839  -1.006   9.188   8.734 -0.1074 -1.3078  0.2780
  688MOL0     C94840  -1.079   9.090   8.791 -0.4193  0.5176  0.0419
  688MOL0     C94841  -1.039   9.019   8.902 -0.4285 -0.7504 -0.0860
  688MOL0     O94842  -1.120   8.927   8.971 -0.2479 -0.8301 -0.1783
  688MOL0     C94843  -1.231   9.003   9.021  0.3815 -0.0440 -1.0071
  688MOL0     C94844  -1.327   8.912   9.102  0.0495 -1.1270  0.8560
  688MOL0     C94845  -1.417   8.985   9.202 -1.0689 -0.2316  0.8188
  688MOL0     C94846  -1.459   8.867   9.285  0.1109  0.4268 -0.2459
  688MOL0     C94847  -1.565   8.908   9.399 -0.5811 -0.1424  0.5950
  688MOL0     C94848  -1.703   8.912   9.347 -0.1694 -0.1848 -0.8219
  688MOL0     C94849  -1.800   8.959   9.463 -0.3075 -0.1116  0.3370
  688MOL0     C94850  -1.799   9.112   9.475  0.3528  0.0277  0.0181
  688MOL0    Cl94851  -1.859   9.160   9.636 -0.6833 -0.1934 -0.1574
  688MOL0     C94852  -0.903   9.043   8.940 -0.2271  0.2121  0.0310
  688MOL0     C94853  -0.823   9.149   8.886  0.2269  0.4380  0.7628
  688MOL0     O94854  -0.679   9.409   8.874  0.5984 -0.1387  0.5839
  688MOL0     C94855  -0.705   9.522   8.540  0.3575 -0.5648 -1.2434
  688MOL0     C94856  -0.643   9.615   8.456 -0.6559 -0.5277  0.4357
  688MOL0     N94857  -0.001  10.198   8.411 -0.2009 -0.8915 -0.0619
  688MOL0     N94858   0.114  10.254   8.407  0.7323 -0.8362 -0.6301
  688MOL0     C94859   0.204   9.778   8.090 -0.4251 -0.1501 -0.3674
  688MOL0     C94860   0.160   9.717   8.206  0.8736 -0.2448  0.1167
  688MOL0     C94861   0.165   9.573   8.665  0.1074 -0.1900 -0.8133
  688MOL0     C94862   0.052   9.653   8.685  0.0763  0.5024 -0.8179
  688MOL0     C94863  -0.038   9.635   8.793 -0.0498  0.8418  0.3404
  688MOL0     C94864  -0.014   9.540   8.891  0.0062  0.3961  0.6702
  688MOL0     O94865  -0.085   9.521   9.005 -0.0156 -0.4889  0.1260
  688MOL0     C94866  -0.176   9.626   9.055  0.6317  0.5888 -0.4875
  688MOL0     C94867  -0.243   9.588   9.183  0.5651  0.6243  0.5221
  688MOL0     C94868  -0.356   9.688   9.217 -0.0406  0.8399 -0.8865
  688MOL0     C94869  -0.477   9.613   9.276 -0.1223  0.8888 -0.2969
  688MOL0     C94870  -0.581   9.700   9.308  0.9859 -1.0224 -0.8780
  688MOL0     C94871  -0.681   9.776   9.313 -0.3599  0.4259 -0.9178
  688MOL0     C94872   0.108   9.471   8.878 -0.0608 -0.2213 -0.1662
  688MOL0     C94873   0.204   9.481   8.771  0.5247 -0.4801 -0.6562
  688MOL0     C94874   0.325   9.386   8.785  0.2798  1.0242 -0.5087
  688MOL0     H94875   0.410   9.806   8.418 -1.1409 -3.7473  1.4263
  688MOL0     H94876   0.485   9.909   8.215 -1.6409  1.2221 -1.8236
  688MOL0     H94877   0.256   9.923   7.852  0.2078 -2.0269 -1.4709
  688MOL0     H94878   0.355   9.799   7.789 -2.1676  0.7407 -0.9260
  688MOL0     H94879   0.542   9.942   7.764 -1.2703 -2.3639 -1.2259
  688MOL0     H94880   0.402  10.032   7.683 -1.3021  2.2405  0.1041
  688MOL0     H94881   0.533  10.086   7.948  2.8569 -1.9136 -1.5804
  688MOL0     H94882   0.544  10.175   7.797  0.1879  0.0250 -0.4638
  688MOL0     H94883   0.286  10.222   7.812 -2.8887  0.7846  2.7439
  688MOL0     H94884   0.284  10.149   7.964  2.9093 -3.3517  1.3194
  688MOL0     H94885   0.312  10.391   7.915 -1.2551 -1.5260 -0.2733
  688MOL0     H94886   0.485  10.374   7.950  0.2974  1.4158  1.0450
  688MOL0     H94887   0.365  10.420   8.162 -1.5021 -0.6784  2.9815
  688MOL0     H94888   0.232  10.314   8.117  0.0107  0.3719 -2.3856
  688MOL0     H94889   0.511  10.203   8.185 -1.1305 -0.3883 -1.5916
  688MOL0     H94890   0.370  10.109   8.156 -0.8197 -0.1672 -0.0034
  688MOL0     H94891   0.407  10.122   8.388 -1.3899  1.0343  3.8266
  688MOL0     H94892   0.388  10.302   8.393 -0.8965  1.3581 -0.7154
  688MOL0     H94893   0.178   9.991   8.229 -0.8752 -0.4966  0.1632
  688MOL0     H94894  -0.076   9.941   8.210 -1.4004  1.9565 -0.7678
  688MOL0     H94895  -0.199  10.050   8.283  0.3299 -0.1615 -2.2354
  688MOL0     H94896  -0.057   9.826   8.429 -1.2336  0.1728 -1.7367
  688MOL0     H94897  -0.148   9.957   8.510 -2.3397 -2.4392  1.4750
  688MOL0     H94898  -0.256   9.747   8.333  2.3779  1.3362 -1.1247
  688MOL0     H94899  -0.262   9.750   8.509 -0.2483  0.7843 -0.1799
  688MOL0     H94900  -0.417   9.939   8.510 -0.6275 -2.6545  0.1078
  688MOL0     H94901  -0.397   9.967   8.344  0.3479  1.6535  1.0184
  688MOL0     H94902  -0.452   9.796   8.672 -1.2045  3.1337 -1.3324
  688MOL0     H94903  -0.449   9.580   8.895  1.0276  0.8728 -0.8803
  688MOL0     H94904  -0.625   9.627   8.921 -1.2316 -1.7430 -3.0430
  688MOL0     H94905  -0.506   9.747   8.892  1.7225 -0.9217  1.0369
  688MOL0     H94906  -1.047   9.233   8.645  1.1444 -1.0581 -0.2003
  688MOL0     H94907  -1.174   9.065   8.745  1.7531 -1.1690 -3.9893
  688MOL0     H94908  -1.206   9.086   9.088 -0.9399 -1.0233  0.7973
  688MOL0     H94909  -1.298   9.041   8.944 -1.8458  0.1053  0.8751
  688MOL0     H94910  -1.397   8.861   9.036 -1.3063 -1.2721  2.3550
  688MOL0     H94911  -1.256   8.838   9.139 -0.2388 -1.7690  0.1549
  688MOL0     H94912  -1.501   9.035   9.155  2.1321  1.2870 -4.0813
  688MOL0     H94913  -1.357   9.054   9.262  0.4522 -0.0288 -0.8421
  688MOL0     H94914  -1.374   8.818   9.334  1.4015 -0.0532 -2.8011
  688MOL0     H94915  -1.500   8.785   9.225  0.6049  0.7857 -1.0945
  688MOL0     H94916  -1.554   8.837   9.481 -0.3081  1.3130  1.8591
  688MOL0     H94917  -1.531   9.008   9.427 -0.2556 -0.0496 -0.1153
  688MOL0     H94918  -1.733   8.819   9.299  0.2209  0.4694 -2.4113
  688MOL0     H94919  -1.722   8.978   9.262 -4.3831 -2.0769 -1.6210
  688MOL0     H94920  -1.777   8.919   9.562 -2.3881  0.5223  1.1366
  688MOL0     H94921  -1.898   8.921   9.431  0.4324 -0.9123 -1.0810
  688MOL0     H94922  -1.854   9.155   9.390 -0.9607  0.1884  0.9063
  688MOL0     H94923  -1.695   9.145   9.469  0.9919 -2.1026 -2.0471
  688MOL0     H94924  -0.873   8.990   9.030 -4.5821 -0.2319  1.4277
  688MOL0     H94925  -0.719   9.153   8.916 -0.1338 -1.8427  2.5466
  688MOL0     H94926  -0.772   9.446   8.501 -1.8801  0.7701 -0.2162
  688MOL0     H94927  -0.668   9.591   8.353 -1.4341  0.2653  0.4290
  688MOL0     H94928   0.150   9.793   7.997  1.0899  1.0286 -1.0895
  688MOL0     H94929   0.059   9.677   8.214  1.8924 -2.5663  3.4519
  688MOL0     H94930   0.028   9.735   8.617  0.9190  0.7801 -0.7941
  688MOL0     H94931  -0.122   9.703   8.797 -0.5617  0.2085  0.6285
  688MOL0     H94932  -0.125   9.722   9.068  0.2410  0.4919  2.2513
  688MOL0     H94933  -0.249   9.634   8.974  0.3021 -1.5372 -0.4590
  688MOL0     H94934  -0.166   9.596   9.260  2.5335  3.4312 -1.5331
  688MOL0     H94935  -0.277   9.484   9.180  1.7860  0.2293 -0.3279
  688MOL0     H94936  -0.315   9.750   9.299  0.7593  0.6175 -1.1054
  688MOL0     H94937  -0.387   9.759   9.140 -1.3212  1.1167 -0.1497
  688MOL0     H94938  -0.443   9.554   9.362 -2.7779  0.6703  0.6900
  688MOL0     H94939  -0.525   9.542   9.209 -0.0731  1.4931 -0.9822
  688MOL0     H94940  -0.769   9.836   9.324  1.0540  2.1688  2.8512
  688MOL0     H94941   0.126   9.393   8.952 -1.4219 -0.6046 -0.2069
  688MOL0     H94942   0.330   9.346   8.887  2.1625 -1.1318 -1.3520
  688MOL0     H94943   0.303   9.298   8.724 -4.5846  0.4663  1.5679
  688MOL0     H94944   0.425   9.420   8.756  0.6307  0.3901 -0.0843
  689MOL0     O94945   4.525   7.201   9.122  0.5342 -0.4253  0.5120
  689MOL0     C94946   4.445   7.231   9.210 -0.5373 -0.2466  1.0229
  689MOL0     O94947   4.365   7.137   9.279 -0.4219  0.5414  0.1775
  689MOL0     C94948   4.398   7.006   9.260  0.9850 -0.0740  0.0720
  689MOL0     C94949   4.528   6.954   9.258 -0.2144 -0.1158  0.0561
  689MOL0     C94950   4.553   6.820   9.238  0.0054 -0.3204  0.2179
  689MOL0     C94951   4.451   6.731   9.226  0.1466  0.0824  0.3199
  689MOL0     O94952   4.497   6.602   9.205 -0.3477 -0.1337 -0.0631
  689MOL0     C94953   4.420   6.482   9.196  0.2936  0.4103  0.2008
  689MOL0     C94954   4.386   6.416   9.339 -0.1626 -0.1964  0.7731
  689MOL0     C94955   4.311   6.285   9.315 -0.5812  0.5636  0.3240
  689MOL0     C94956   4.175   6.294   9.227  0.0344  1.0853 -0.3568
  689MOL0     C94957   4.080   6.170   9.239  0.3190 -1.3084  0.6510
  689MOL0     C94958   4.141   6.051   9.178 -0.2065 -0.3681  0.1358
  689MOL0     C94959   4.038   5.940   9.190 -0.5975 -0.1735 -0.4026
  689MOL0     C94960   4.084   5.803   9.141 -0.7446 -0.4663 -0.0996
  689MOL0     N94961   4.205   5.746   9.204  0.8073 -0.5268  1.0542
  689MOL0     C94962   4.199   5.610   9.224 -0.8178 -0.1458 -0.1230
  689MOL0     C94963   4.327   5.577   9.229  0.2272 -0.2324  0.1766
  689MOL0     C94964   4.363   5.440   9.262  0.7468  0.3023 -0.0048
  689MOL0     C94965   4.407   5.426   9.404  0.5471 -0.3591 -0.7505
  689MOL0     C94966   4.446   5.290   9.454  0.7793  0.4151  0.4773
  689MOL0     C94967   4.596   5.269   9.434 -0.7276 -0.0595 -0.1678
  689MOL0     O94968   4.640   5.301   9.306  0.0440 -0.5781 -0.2005
  689MOL0     C94969   4.777   5.303   9.282  0.5440 -0.3042  0.1416
  689MOL0     C94970   4.819   5.373   9.175 -0.3129  0.3316 -0.5430
  689MOL0     C94971   4.948   5.349   9.122  0.0849 -0.0612  0.1757
  689MOL0     C94972   4.988   5.413   8.992  0.3197  0.3010 -1.0640
  689MOL0     C94973   5.043   5.270   9.197 -0.3852  1.0753  0.1660
  689MOL0     C94974   5.191   5.253   9.156 -0.4732 -0.4974 -0.0074
  689MOL0     O94975   5.227   5.142   9.085 -0.2226 -0.6568 -0.2825
  689MOL0     C94976   5.352   5.094   9.099  0.0203  0.7452 -0.3876
  689MOL0     C94977   5.391   5.004   9.204 -0.6952 -0.1786  0.1029
  689MOL0     C94978   5.527   4.960   9.215  0.4171 -0.5109  0.2031
  689MOL0     C94979   5.624   4.996   9.117  0.0419 -0.1169  0.6669
  689MOL0     O94980   5.750   4.959   9.141  0.2584  0.1938  0.0919
  689MOL0     C94981   5.850   4.946   9.039  0.7055 -0.1531  0.0098
  689MOL0     C94982   5.890   4.803   9.016  0.1407  0.1772 -0.0291
  689MOL0     C94983   5.795   4.718   8.928 -0.7296 -0.6694 -0.4250
  689MOL0     C94984   5.668   4.672   8.996  0.5060  0.6267 -0.8441
  689MOL0     C94985   5.617   4.541   8.948 -0.3698  0.0669  0.6969
  689MOL0     C94986   5.478   4.486   9.001  0.0106  0.0893  0.8133
  689MOL0     C94987   5.415   4.392   8.895 -0.4915  0.1896  0.0705
  689MOL0     C94988   5.266   4.394   8.907  0.2682 -0.1289  0.4856
  689MOL0    Cl94989   5.212   4.349   9.070  0.4936 -0.0519  0.2808
  689MOL0     C94990   5.577   5.073   9.004 -0.7364  0.1216  0.3245
  689MOL0     C94991   5.449   5.122   9.003 -0.1933  0.1328  1.0096
  689MOL0     O94992   5.269   5.347   9.179  0.5732 -0.2895  0.2188
  689MOL0     C94993   4.993   5.210   9.317  0.3462 -1.0045  0.3673
  689MOL0     C94994   4.865   5.223   9.355  0.7343 -1.7594  0.2026
  689MOL0     N94995   4.410   5.693   9.206 -0.2943  1.1752  1.1185
  689MOL0     N94996   4.326   5.789   9.192 -0.8522 -0.4630 -0.5241
  689MOL0     C94997   4.318   6.770   9.238 -0.2903 -1.0451 -0.1089
  689MOL0     C94998   4.295   6.906   9.266 -0.2951 -0.0658 -0.1148
  689MOL0     C94999   4.420   7.382   9.239  0.0577  0.5390  0.9294
  689MOL0     C95000   4.304   7.412   9.305  0.2123  0.5464  0.6973
  689MOL0     C95001   4.278   7.547   9.337  1.1511  0.3253  0.1359
  689MOL0     C95002   4.358   7.654   9.297 -0.3592  0.5141 -1.1005
  689MOL0     O95003   4.320   7.782   9.321  0.6606 -0.4623  0.2071
  689MOL0     C95004   4.354   7.869   9.212  0.9995 -0.2534 -0.4275
  689MOL0     C95005   4.282   8.004   9.218  0.4505  0.2132  0.2314
  689MOL0     C95006   4.294   8.076   9.349 -0.6409  0.5407  0.2771
  689MOL0     C95007   4.437   8.125   9.390  0.7885  0.2025 -0.3936
  689MOL0     C95008   4.481   8.230   9.301 -0.5958  0.4358 -0.3831
  689MOL0     C95009   4.532   8.316   9.232  0.6977 -0.4904  0.3581
  689MOL0     C95010   4.472   7.611   9.233 -0.7090  0.5638  0.1289
  689MOL0     C95011   4.505   7.483   9.198 -1.3236  1.0193 -1.1083
  689MOL0     C95012   4.628   7.458   9.122 -1.0013  0.0468 -0.3921
  689MOL0     H95013   4.618   7.015   9.258 -0.6869  0.5967 -0.1082
  689MOL0     H95014   4.659   6.800   9.233  0.2822  1.2572 -1.4792
  689MOL0     H95015   4.477   6.405   9.142 -1.9897 -0.9207 -0.4372
  689MOL0     H95016   4.331   6.510   9.140  1.2379  2.6090 -0.3038
  689MOL0     H95017   4.480   6.396   9.390  0.6083  0.1261 -0.4660
  689MOL0     H95018   4.340   6.494   9.401 -1.9709 -0.6422  0.0660
  689MOL0     H95019   4.381   6.214   9.270 -0.8126  0.9260 -0.6302
  689MOL0     H95020   4.284   6.261   9.418  3.0055  1.3362  1.5823
  689MOL0     H95021   4.118   6.378   9.266 -3.3573 -0.6662 -1.1803
  689MOL0     H95022   4.196   6.310   9.121 -0.2949 -2.4585 -1.0714
  689MOL0     H95023   3.991   6.198   9.181  0.4512 -1.1455  0.5255
  689MOL0     H95024   4.050   6.151   9.342  1.9987  1.6897  1.8091
  689MOL0     H95025   4.148   6.069   9.070  0.9113 -1.0043  0.0945
  689MOL0     H95026   4.238   6.036   9.225 -0.7775  0.8442  1.7747
  689MOL0     H95027   3.949   5.965   9.132  0.3326  0.6267 -1.5271
  689MOL0     H95028   4.010   5.931   9.296  1.9757 -1.0128  0.2946
  689MOL0     H95029   3.998   5.742   9.169 -1.0986  0.2883  0.5288
  689MOL0     H95030   4.110   5.809   9.035  2.1933  2.0465  0.6266
  689MOL0     H95031   4.115   5.544   9.247  0.8458 -1.6081  2.1540
  689MOL0     H95032   4.440   5.418   9.187 -2.3060  0.6328 -3.5868
  689MOL0     H95033   4.279   5.373   9.242  0.3165  0.1837  2.0382
  689MOL0     H95034   4.496   5.491   9.409  0.9219 -0.7569 -1.8447
  689MOL0     H95035   4.335   5.463   9.477 -0.6030 -2.2526 -0.8674
  689MOL0     H95036   4.414   5.283   9.559 -2.2114 -3.5474 -0.4398
  689MOL0     H95037   4.389   5.215   9.398 -0.6178  1.0531  1.0068
  689MOL0     H95038   4.659   5.326   9.503  1.7633 -0.8012 -1.6592
  689MOL0     H95039   4.618   5.164   9.457 -1.1618 -0.9158 -3.2575
  689MOL0     H95040   4.743   5.438   9.132  0.0389  1.7280  0.8745
  689MOL0     H95041   5.076   5.474   9.013  1.9413 -2.1522 -0.2543
  689MOL0     H95042   4.909   5.482   8.961 -2.1962 -2.4133 -1.1965
  689MOL0     H95043   5.003   5.333   8.919 -0.1597 -1.1741  0.4005
  689MOL0     H95044   5.315   4.969   9.273 -1.6182  0.0779 -0.7606
  689MOL0     H95045   5.573   4.910   9.300  2.2863 -2.4128 -1.7902
  689MOL0     H95046   5.816   4.982   8.941  0.5534  1.8814  0.7549
  689MOL0     H95047   5.940   5.003   9.068  2.1641 -2.9537  1.3336
  689MOL0     H95048   5.988   4.813   8.968  1.2893 -0.4861  2.0424
  689MOL0     H95049   5.907   4.756   9.114  0.3821  1.9376  0.8084
  689MOL0     H95050   5.843   4.625   8.896 -0.6935 -1.1172  0.8696
  689MOL0     H95051   5.771   4.780   8.842 -0.0895  0.4400  0.1815
  689MOL0     H95052   5.583   4.740   8.983 -1.8108 -2.1969 -1.3643
  689MOL0     H95053   5.674   4.656   9.104  2.1360  0.3639 -0.9543
  689MOL0     H95054   5.621   4.543   8.838 -0.1306 -3.6490  0.5146
  689MOL0     H95055   5.691   4.466   8.979 -1.4862 -1.1185  0.5924
  689MOL0     H95056   5.412   4.572   9.013  1.1952  0.8271  2.4462
  689MOL0     H95057   5.478   4.442   9.101 -0.2684  1.4061  1.4171
  689MOL0     H95058   5.452   4.290   8.888 -3.1174 -0.8708  0.4417
  689MOL0     H95059   5.427   4.428   8.793 -1.9120  3.4759  0.9301
  689MOL0     H95060   5.229   4.323   8.832  0.7304 -0.6358  0.7373
  689MOL0     H95061   5.227   4.494   8.887  0.6357 -0.2348 -0.9384
  689MOL0     H95062   5.633   5.116   8.921 -2.2187  2.5699  0.4899
  689MOL0     H95063   5.413   5.193   8.930 -2.0726 -0.2320  1.5261
  689MOL0     H95064   5.073   5.156   9.367  0.9470  0.3082  0.8445
  689MOL0     H95065   4.829   5.167   9.441  2.4262 -1.8891  0.8602
  689MOL0     H95066   4.245   6.691   9.228  0.7163 -2.1740  1.1271
  689MOL0     H95067   4.195   6.938   9.293  0.2361 -0.2922  2.4322
  689MOL0     H95068   4.237   7.335   9.341 -1.8763  1.2084 -1.5349
  689MOL0     H95069   4.195   7.564   9.405  2.0909 -0.2235  1.4860
  689MOL0     H95070   4.461   7.887   9.227  0.5568  1.4522  0.9947
  689MOL0     H95071   4.328   7.820   9.118 -0.5829 -1.7442  0.7171
  689MOL0     H95072   4.179   7.985   9.188  1.3175 -2.3991 -1.4569
  689MOL0     H95073   4.333   8.071   9.148  0.6379  0.3096  0.4599
  689MOL0     H95074   4.222   8.158   9.356  1.2289  2.1258  3.0099
  689MOL0     H95075   4.273   8.006   9.430 -0.0813  1.9931  1.7437
  689MOL0     H95076   4.512   8.048   9.372 -0.6767 -1.1141 -1.1767
  689MOL0     H95077   4.422   8.175   9.486 -0.4753 -3.1956  1.3513
  689MOL0     H95078   4.580   8.390   9.171 -0.5954  1.4929  1.6437
  689MOL0     H95079   4.552   7.675   9.198  0.3409 -1.1462 -0.7170
  689MOL0     H95080   4.687   7.396   9.190 -2.9272 -2.2189 -0.6604
  689MOL0     H95081   4.615   7.416   9.022 -0.6323  2.8741 -1.7425
  689MOL0     H95082   4.683   7.550   9.099  0.7716 -0.6965  0.6864
  690MOL0     O95083   9.981   0.102  10.848 -0.0912  0.2209  0.3117
  690MOL0     C95084   9.859   0.099  10.823 -0.3316 -0.4841 -0.6886
  690MOL0     O95085   9.785  -0.006  10.771  0.0096  0.3953  0.1290
  690MOL0     C95086   9.865  -0.094  10.696 -0.0442  0.6078  0.3943
  690MOL0     C95087   9.887  -0.097  10.553  0.5704 -0.1571  0.3052
  690MOL0     C95088   9.970  -0.190  10.494 -0.2974  0.0812  0.5762
  690MOL0     C95089  10.018  -0.301  10.574  0.3237 -1.1247 -0.5172
  690MOL0     O95090  10.089  -0.405  10.529 -0.0205  0.1686 -0.1917
  690MOL0     C95091  10.162  -0.360  10.413  0.0543 -0.5027 -0.1275
  690MOL0     C95092  10.259  -0.475  10.385 -0.2974  0.2035  0.0675
  690MOL0     C95093  10.352  -0.442  10.261  0.9709 -0.3002 -0.2118
  690MOL0     C95094  10.441  -0.564  10.231 -0.2800  0.0551 -0.3715
  690MOL0     C95095  10.582  -0.532  10.165 -0.5164 -0.6231  0.6464
  690MOL0     C95096  10.676  -0.460  10.262 -0.5467 -0.1087  0.2189
  690MOL0     C95097  10.822  -0.430  10.212  0.0812  0.3189  0.1435
  690MOL0     C95098  10.813  -0.339  10.092 -0.2600 -0.6817 -0.2005
  690MOL0     N95099  10.944  -0.307  10.042 -0.0766  0.0962  0.5190
  690MOL0     C95100  11.053  -0.261  10.119  0.7968  0.0870 -0.2981
  690MOL0     C95101  11.160  -0.294  10.049 -0.2580  0.0890  1.3159
  690MOL0     C95102  11.289  -0.233  10.097 -0.9767 -0.3199  0.5577
  690MOL0     C95103  11.355  -0.315  10.203 -1.2214  0.4076 -0.5076
  690MOL0     C95104  11.502  -0.292  10.231 -0.0184  0.4349  0.7004
  690MOL0     C95105  11.597  -0.374  10.134 -0.2310 -0.4548 -0.2839
  690MOL0     O95106  11.611  -0.514  10.177  0.4434  0.0328  0.4259
  690MOL0     C95107  11.672  -0.540  10.298 -0.1657 -0.6540  0.2591
  690MOL0     C95108  11.760  -0.455  10.359  0.6237 -0.2447 -1.0761
  690MOL0     C95109  11.806  -0.481  10.497  0.0485 -0.1228 -1.2733
  690MOL0     C95110  11.903  -0.383  10.549  0.3474 -0.4076 -0.2291
  690MOL0     C95111  11.747  -0.594  10.567 -0.0180 -0.1896 -0.6634
  690MOL0     C95112  11.773  -0.628  10.709 -0.9873  0.1555 -0.0675
  690MOL0     O95113  11.742  -0.755  10.752 -0.3053 -0.0591 -0.7087
  690MOL0     C95114  11.754  -0.790  10.886 -0.6764  0.5523 -0.0699
  690MOL0     C95115  11.850  -0.758  10.978 -1.1556 -1.2976  0.3841
  690MOL0     C95116  11.850  -0.824  11.102  0.5881 -0.3317  0.4656
  690MOL0     C95117  11.743  -0.911  11.141 -0.1813 -0.3221  0.1821
  690MOL0     O95118  11.740  -0.955  11.273 -0.3372 -0.3497  0.4968
  690MOL0     C95119  11.708  -1.087  11.293  0.6785  0.8881  0.8113
  690MOL0     C95120  11.750  -1.111  11.435  0.2563 -0.2106 -0.4546
  690MOL0     C95121  11.659  -1.063  11.553 -0.3046 -0.0704  0.2889
  690MOL0     C95122  11.529  -1.138  11.585 -0.2717 -0.3936  0.1185
  690MOL0     C95123  11.415  -1.044  11.628 -0.2655 -0.1596  0.1079
  690MOL0     C95124  11.321  -1.135  11.721 -0.0803  0.1893  0.9135
  690MOL0     C95125  11.372  -1.169  11.863 -0.4332 -0.9310 -0.3752
  690MOL0     C95126  11.306  -1.287  11.929 -0.0643  0.4047 -0.9604
  690MOL0    Cl95127  11.303  -1.275  12.103 -0.1553  0.0981 -0.1211
  690MOL0     C95128  11.645  -0.939  11.049 -0.0533 -0.9951 -0.3431
  690MOL0     C95129  11.655  -0.881  10.925  0.1999  0.6924  0.8195
  690MOL0     O95130  11.809  -0.536  10.779 -0.4712  0.2360  1.0699
  690MOL0     C95131  11.648  -0.668  10.499  0.3917  0.0993  0.2059
  690MOL0     C95132  11.617  -0.646  10.368 -0.7323  0.1873  0.1832
  690MOL0     N95133  11.129  -0.345   9.924 -0.4950 -0.2563  0.2299
  690MOL0     N95134  11.000  -0.355   9.927 -0.2567 -0.0122  0.6800
  690MOL0     C95135   9.997  -0.298  10.713 -0.7753  0.5168 -0.7818
  690MOL0     C95136   9.927  -0.194  10.769  0.6192  0.0517  0.0983
  690MOL0     C95137   9.775   0.223  10.859  0.7759  0.2140  0.4684
  690MOL0     C95138   9.850   0.338  10.891  1.2268 -0.3983  0.3289
  690MOL0     C95139   9.782   0.451  10.930  0.3397 -0.7077 -1.1205
  690MOL0     C95140   9.649   0.459  10.933  1.1063  0.4609 -1.2950
  690MOL0     O95141   9.578   0.567  10.999  0.3873  0.5393  0.1814
  690MOL0     C95142   9.592   0.702  10.937  0.2407 -0.4665  0.2739
  690MOL0     C95143   9.464   0.728  10.854 -0.0893 -0.6059 -0.0112
  690MOL0     C95144   9.462   0.856  10.758  0.2295  0.1150 -0.3421
  690MOL0     C95145   9.513   0.987  10.817 -0.4728 -0.1251 -0.1984
  690MOL0     C95146   9.408   1.039  10.918 -0.2191  1.2270  0.0241
  690MOL0     C95147   9.309   1.080  10.975 -2.2918 -0.2362  0.3937
  690MOL0     C95148   9.570   0.347  10.896 -0.5468 -0.6522 -0.0082
  690MOL0     C95149   9.631   0.228  10.861  0.0318 -0.4978 -0.1944
  690MOL0     C95150   9.545   0.115  10.821 -0.4331  0.5939  0.4323
  690MOL0     H95151   9.853  -0.013  10.492  0.8846  1.7227  2.5691
  690MOL0     H95152   9.988  -0.173  10.388  2.0310 -2.2178  0.5086
  690MOL0     H95153  10.219  -0.266  10.415 -0.3017 -0.2104 -1.9909
  690MOL0     H95154  10.096  -0.356  10.326 -1.3547  3.3542  0.8939
  690MOL0     H95155  10.335  -0.483  10.464 -0.4297  1.3336  0.3261
  690MOL0     H95156  10.218  -0.573  10.363 -0.9106  0.8599 -1.8492
  690MOL0     H95157  10.305  -0.416  10.166 -1.3260 -1.1247  0.6396
  690MOL0     H95158  10.413  -0.356  10.293 -1.0545  1.4573 -0.7827
  690MOL0     H95159  10.460  -0.618  10.325  1.6015  1.2775 -0.0088
  690MOL0     H95160  10.379  -0.628  10.168 -2.7044  2.3414 -0.4959
  690MOL0     H95161  10.578  -0.473  10.073 -3.8999 -0.5337  0.6922
  690MOL0     H95162  10.625  -0.624  10.125 -0.3555 -0.0459 -0.5805
  690MOL0     H95163  10.629  -0.368  10.298  0.9740  0.8083 -0.0681
  690MOL0     H95164  10.684  -0.527  10.348 -0.6878  0.9831  1.1123
  690MOL0     H95165  10.869  -0.528  10.198 -0.8060  0.0821 -1.4518
  690MOL0     H95166  10.887  -0.387  10.288 -0.0798 -0.9857  1.0500
  690MOL0     H95167  10.760  -0.379  10.005 -0.0986 -1.9724  0.2681
  690MOL0     H95168  10.761  -0.247  10.118  2.0111  1.4165 -2.5350
  690MOL0     H95169  11.054  -0.222  10.220 -0.0819  0.8674 -0.5723
  690MOL0     H95170  11.279  -0.133  10.139 -3.0124 -0.9494  1.7256
  690MOL0     H95171  11.357  -0.238  10.012 -0.3052  1.0948  0.9950
  690MOL0     H95172  11.293  -0.305  10.292  1.8252 -1.7033  2.0571
  690MOL0     H95173  11.348  -0.422  10.181 -2.2087  0.4825 -0.5911
  690MOL0     H95174  11.529  -0.188  10.215 -2.1140  0.9031 -0.0692
  690MOL0     H95175  11.541  -0.295  10.333  0.2557 -0.9629  0.5821
  690MOL0     H95176  11.558  -0.369  10.032 -0.6944  0.5801 -0.0717
  690MOL0     H95177  11.695  -0.326  10.126  0.0706 -1.3320 -2.9989
  690MOL0     H95178  11.807  -0.364  10.325  1.6643 -0.0055  0.8727
  690MOL0     H95179  11.930  -0.317  10.465 -2.0738 -0.6640 -1.2771
  690MOL0     H95180  11.985  -0.443  10.590  0.0148 -1.5466 -1.1634
  690MOL0     H95181  11.867  -0.317  10.628  1.8798 -1.3779  1.3562
  690MOL0     H95182  11.927  -0.684  10.956 -1.1926 -0.4296  2.7831
  690MOL0     H95183  11.919  -0.795  11.181  0.0792 -2.0408  1.6159
  690MOL0     H95184  11.604  -1.114  11.275  0.1808  2.3422  1.3355
  690MOL0     H95185  11.776  -1.147  11.232 -0.2295 -0.2809  0.9200
  690MOL0     H95186  11.764  -1.219  11.448  1.2990  0.2227  3.5132
  690MOL0     H95187  11.844  -1.056  11.448  1.0144 -1.8663  1.8490
  690MOL0     H95188  11.639  -0.958  11.531  1.4100  0.2782  0.2075
  690MOL0     H95189  11.732  -1.059  11.635 -0.0430  2.3039 -0.0027
  690MOL0     H95190  11.544  -1.195  11.678 -0.8957 -1.5379 -0.4542
  690MOL0     H95191  11.502  -1.208  11.505 -0.5659  0.2772 -0.3757
  690MOL0     H95192  11.444  -0.956  11.687 -0.4858  0.4168 -0.6267
  690MOL0     H95193  11.345  -1.009  11.551 -0.1303 -1.6029 -0.6930
  690MOL0     H95194  11.308  -1.232  11.673 -0.8898  0.4632  0.5487
  690MOL0     H95195  11.218  -1.097  11.723 -0.0076  0.7446 -1.9538
  690MOL0     H95196  11.349  -1.075  11.912 -1.0713 -1.6218  0.6898
  690MOL0     H95197  11.481  -1.180  11.865  0.6863  5.8447 -0.8473
  690MOL0     H95198  11.343  -1.385  11.896 -0.5150  0.1231 -0.6276
  690MOL0     H95199  11.201  -1.287  11.898 -0.9124 -0.7006  1.6196
  690MOL0     H95200  11.555  -0.998  11.062 -1.5240  1.1156 -0.4952
  690MOL0     H95201  11.577  -0.914  10.858  0.2212  1.5185  0.3811
  690MOL0     H95202  11.592  -0.739  10.559 -1.7963  1.5558  0.0122
  690MOL0     H95203  11.546  -0.706  10.313 -0.6071  0.2171 -0.0107
  690MOL0     H95204  10.029  -0.385  10.771 -2.1607 -1.4919 -2.8539
  690MOL0     H95205   9.915  -0.190  10.877 -1.6181 -1.4252 -0.0292
  690MOL0     H95206   9.958   0.344  10.881  1.1165 -0.4296 -1.0924
  690MOL0     H95207   9.831   0.536  10.977  0.9811 -1.0187 -1.2211
  690MOL0     H95208   9.610   0.773  11.018 -0.4333 -3.1125  2.9217
  690MOL0     H95209   9.683   0.700  10.876  1.3757  0.6183  1.8344
  690MOL0     H95210   9.378   0.728  10.922 -0.9591 -0.9891 -1.0801
  690MOL0     H95211   9.451   0.651  10.777  1.1841  0.3782 -1.2608
  690MOL0     H95212   9.524   0.829  10.672  2.2330  1.6146  0.5467
  690MOL0     H95213   9.361   0.873  10.720  0.3482  0.8053 -0.3659
  690MOL0     H95214   9.510   1.057  10.734 -3.3635 -0.0326 -0.1418
  690MOL0     H95215   9.616   0.982  10.853 -1.0545  2.0543  2.1470
  690MOL0     H95216   9.220   1.101  11.031 -1.6563 -0.0326  1.3699
  690MOL0     H95217   9.463   0.351  10.912 -0.4144  0.1303  0.7575
  690MOL0     H95218   9.445   0.135  10.860  0.0087  3.2490  0.3885
  690MOL0     H95219   9.547   0.098  10.712  0.0437 -0.9321  0.6450
  690MOL0     H95220   9.568   0.020  10.871 -2.0892  0.1773  0.4492
  691MOL0     O95221  11.069   3.161   6.271  0.7099 -0.0734 -0.0450
  691MOL0     C95222  11.089   3.240   6.180 -0.2049  1.0394 -0.2228
  691MOL0     O95223  11.210   3.295   6.148 -1.1294  0.1451 -0.7067
  691MOL0     C95224  11.312   3.283   6.247 -0.5137  0.3038 -0.0429
  691MOL0     C95225  11.343   3.176   6.341 -0.2631 -0.4835  0.4663
  691MOL0     C95226  11.448   3.192   6.436 -0.8393  0.1616 -0.2065
  691MOL0     C95227  11.527   3.303   6.436  0.7609 -0.1859  0.6836
  691MOL0     O95228  11.624   3.314   6.535 -0.1939  0.6000  0.4295
  691MOL0     C95229  11.678   3.443   6.564  0.1574  0.7700  0.2453
  691MOL0     C95230  11.775   3.440   6.685  0.6884 -0.9043  0.3596
  691MOL0     C95231  11.790   3.586   6.752 -0.2996  0.3502  1.1379
  691MOL0     C95232  11.737   3.596   6.888 -0.1046  0.0041  0.1540
  691MOL0     C95233  11.583   3.626   6.886 -0.0806  0.0340 -0.2333
  691MOL0     C95234  11.540   3.649   7.033 -0.3310  0.0588  0.1638
  691MOL0     C95235  11.390   3.681   7.032 -0.3722  1.1096 -0.0390
  691MOL0     C95236  11.335   3.728   7.164 -0.3195  0.0822 -0.1985
  691MOL0     N95237  11.196   3.757   7.145 -0.4392  0.0892  0.4478
  691MOL0     C95238  11.103   3.657   7.151 -0.0852 -0.2904  0.4682
  691MOL0     C95239  10.987   3.723   7.122 -0.0663 -0.1723  1.3380
  691MOL0     C95240  10.852   3.669   7.108  0.6629  0.1448 -0.4365
  691MOL0     C95241  10.831   3.646   6.953  0.2866  0.2665  0.1527
  691MOL0     C95242  10.686   3.677   6.913 -0.5074 -0.5340 -1.2406
  691MOL0     C95243  10.680   3.659   6.763 -0.1481  0.4582 -0.2954
  691MOL0     O95244  10.769   3.769   6.716 -0.6379 -0.1763 -0.4899
  691MOL0     C95245  10.759   3.833   6.596 -0.3214 -0.7538  1.1490
  691MOL0     C95246  10.691   3.785   6.486 -0.2166  0.0430  0.8119
  691MOL0     C95247  10.671   3.853   6.365 -0.5671 -0.9880 -0.5122
  691MOL0     C95248  10.588   3.780   6.259 -0.4602  0.2683 -0.0091
  691MOL0     C95249  10.734   3.986   6.355  0.7206  0.4864 -1.3243
  691MOL0     C95250  10.722   4.081   6.240  0.5120  0.2794  0.0351
  691MOL0     O95251  10.619   4.062   6.154 -0.2504  0.0720 -0.0273
  691MOL0     C95252  10.615   4.116   6.032 -0.2981 -0.0712  0.9662
  691MOL0     C95253  10.730   4.144   5.958 -0.1515 -0.1656 -0.1862
  691MOL0     C95254  10.729   4.201   5.828  0.7007  0.2254 -0.5956
  691MOL0     C95255  10.602   4.220   5.771 -0.5369 -0.6371  0.4369
  691MOL0     O95256  10.573   4.263   5.649  0.0316 -1.2886  0.6797
  691MOL0     C95257  10.678   4.285   5.561 -0.3169  0.3397  0.6809
  691MOL0     C95258  10.633   4.349   5.427 -0.8950 -0.4632  1.3773
  691MOL0     C95259  10.749   4.419   5.349  0.1387 -0.2921 -0.2793
  691MOL0     C95260  10.809   4.541   5.424  0.2611 -0.6267 -1.0147
  691MOL0     C95261  10.876   4.644   5.333  0.7527 -1.5661 -0.0787
  691MOL0     C95262  10.781   4.736   5.251  0.1712 -0.1505 -0.4315
  691MOL0     C95263  10.871   4.814   5.161  0.9128  0.1588 -0.4574
  691MOL0     C95264  10.784   4.909   5.071 -0.1584  0.3568 -0.6090
  691MOL0    Cl95265  10.893   5.000   4.964  0.1808 -0.0971 -0.1638
  691MOL0     C95266  10.484   4.191   5.849  0.6405  0.1797  0.8996
  691MOL0     C95267  10.497   4.132   5.971  0.8162  0.3802  0.3567
  691MOL0     O95268  10.798   4.176   6.243 -0.3524 -0.2224  0.3594
  691MOL0     C95269  10.816   4.024   6.459  0.5930  0.0320  0.1867
  691MOL0     C95270  10.829   3.953   6.576  0.7310 -0.0767  0.3145
  691MOL0     N95271  11.021   3.857   7.093  0.7876  0.5945  0.2042
  691MOL0     N95272  11.143   3.872   7.119  1.2305 -1.1618 -0.4082
  691MOL0     C95273  11.496   3.407   6.343  0.1517  0.0568 -0.3989
  691MOL0     C95274  11.392   3.397   6.248  0.3132 -1.0284  0.9164
  691MOL0     C95275  10.987   3.264   6.076 -0.1916  0.2199  2.2416
  691MOL0     C95276  11.029   3.320   5.953  0.4502 -0.1064  0.1919
  691MOL0     C95277  10.936   3.331   5.846 -0.0304 -1.0035  0.6292
  691MOL0     C95278  10.799   3.305   5.860 -0.6078  1.0135  0.3485
  691MOL0     O95279  10.693   3.320   5.775  0.7782  0.0977 -0.7871
  691MOL0     C95280  10.717   3.388   5.648 -0.0344 -0.4035  0.7716
  691MOL0     C95281  10.704   3.537   5.661 -0.7084  0.6038  0.0628
  691MOL0     C95282  10.570   3.592   5.700  0.9316  0.8938  0.0611
  691MOL0     C95283  10.459   3.534   5.611 -0.2135  0.1497 -0.0065
  691MOL0     C95284  10.466   3.579   5.475  0.1188  0.0861  0.5535
  691MOL0     C95285  10.461   3.618   5.353 -0.1035  0.6573 -0.6445
  691MOL0     C95286  10.758   3.250   5.986 -0.0298 -0.7538 -0.8510
  691MOL0     C95287  10.852   3.237   6.096  0.4462 -0.2453  0.5344
  691MOL0     C95288  10.792   3.221   6.239  1.2034  0.8273  0.3839
  691MOL0     H95289  11.288   3.083   6.349  0.1724 -1.1277 -2.7369
  691MOL0     H95290  11.487   3.131   6.517 -1.3893  1.1767  0.8703
  691MOL0     H95291  11.592   3.508   6.580 -0.5623  0.4978 -2.1113
  691MOL0     H95292  11.731   3.479   6.474  1.0246  1.9573  1.1851
  691MOL0     H95293  11.726   3.376   6.759 -1.5438  1.7257  1.3538
  691MOL0     H95294  11.869   3.390   6.664  2.2225  0.9572  2.3551
  691MOL0     H95295  11.898   3.601   6.747  0.0465 -2.1414 -1.8857
  691MOL0     H95296  11.751   3.658   6.681  0.8499 -0.3041 -0.2227
  691MOL0     H95297  11.760   3.513   6.955  1.7592 -0.9689 -1.5703
  691MOL0     H95298  11.796   3.682   6.921  1.4438  1.0891 -4.5845
  691MOL0     H95299  11.524   3.546   6.840  2.1650 -0.3754 -2.5972
  691MOL0     H95300  11.560   3.716   6.829 -0.8718 -0.4186 -0.6476
  691MOL0     H95301  11.577   3.573   7.102  0.9024 -0.2816 -0.8417
  691MOL0     H95302  11.595   3.736   7.070 -1.3858  1.5262 -1.5214
  691MOL0     H95303  11.338   3.594   6.990 -2.4421  2.3166 -0.1299
  691MOL0     H95304  11.358   3.759   6.963 -2.4000  2.2491  2.0425
  691MOL0     H95305  11.364   3.657   7.241 -0.8223  2.0820  1.9634
  691MOL0     H95306  11.371   3.829   7.188 -0.6546  0.0601  0.4151
  691MOL0     H95307  11.126   3.551   7.164  0.7300 -0.8606 -3.9947
  691MOL0     H95308  10.779   3.733   7.158 -1.1666 -1.7165 -0.5788
  691MOL0     H95309  10.831   3.573   7.156 -0.6819  0.1969 -0.8693
  691MOL0     H95310  10.911   3.695   6.896  0.1150  0.3677 -0.0018
  691MOL0     H95311  10.844   3.539   6.935 -4.3828 -0.3455 -0.7033
  691MOL0     H95312  10.628   3.600   6.963  2.3257 -2.1707 -0.2580
  691MOL0     H95313  10.662   3.781   6.938 -0.0798 -0.2370 -2.0332
  691MOL0     H95314  10.720   3.561   6.737  0.5774  0.3494  1.1811
  691MOL0     H95315  10.581   3.667   6.717  1.5138  2.5216 -4.0327
  691MOL0     H95316  10.656   3.683   6.501 -0.7491  0.1474  0.2834
  691MOL0     H95317  10.638   3.803   6.165  0.6910 -1.5905  0.0875
  691MOL0     H95318  10.481   3.803   6.257 -1.4542 -3.6795 -1.4279
  691MOL0     H95319  10.591   3.671   6.274 -1.5519  0.0300 -1.3323
  691MOL0     H95320  10.823   4.132   6.013 -0.9935 -2.0765  0.9022
  691MOL0     H95321  10.817   4.209   5.764 -0.9874 -2.2582 -3.5025
  691MOL0     H95322  10.748   4.358   5.605 -1.8151  1.3722  1.4222
  691MOL0     H95323  10.725   4.189   5.538 -1.2878 -0.7184  2.8119
  691MOL0     H95324  10.589   4.275   5.359  1.1229  0.3755 -1.0139
  691MOL0     H95325  10.558   4.427   5.444 -0.3068  1.0147 -1.9821
  691MOL0     H95326  10.711   4.450   5.251 -2.5631 -1.6836  0.2386
  691MOL0     H95327  10.828   4.345   5.334 -1.3782 -2.9619  3.2446
  691MOL0     H95328  10.882   4.493   5.490  0.9461  1.0543 -0.4805
  691MOL0     H95329  10.729   4.584   5.484  1.1083  1.5751 -1.3600
  691MOL0     H95330  10.946   4.704   5.392  1.2110 -0.9268 -1.2398
  691MOL0     H95331  10.938   4.589   5.262  0.9632 -2.3284  0.6839
  691MOL0     H95332  10.725   4.796   5.323  0.8857  2.1155 -1.6628
  691MOL0     H95333  10.701   4.681   5.202 -2.3210  1.4776  1.5483
  691MOL0     H95334  10.933   4.746   5.102  2.0858 -1.0307  1.9975
  691MOL0     H95335  10.951   4.861   5.219  1.7664 -0.4667 -1.0931
  691MOL0     H95336  10.725   4.975   5.136  1.1822  1.3778 -0.3639
  691MOL0     H95337  10.723   4.843   5.010  2.7179 -4.3166  1.0436
  691MOL0     H95338  10.381   4.204   5.816  0.6286  1.5481  1.4421
  691MOL0     H95339  10.405   4.099   6.017  0.8051  1.7688  1.3831
  691MOL0     H95340  10.864   4.122   6.454 -0.1531  0.3624 -3.3472
  691MOL0     H95341  10.892   3.992   6.656 -0.9093 -0.3220  1.8004
  691MOL0     H95342  11.553   3.499   6.329 -2.2335  1.4149 -1.9911
  691MOL0     H95343  11.378   3.482   6.182  2.5347  1.2869  3.2000
  691MOL0     H95344  11.136   3.337   5.944  0.7066 -2.1675 -1.5908
  691MOL0     H95345  10.969   3.371   5.751  0.4693 -0.7697  0.9011
  691MOL0     H95346  10.816   3.376   5.603 -0.8158 -1.2961 -0.7855
  691MOL0     H95347  10.649   3.345   5.573 -1.3145  1.6950  0.6565
  691MOL0     H95348  10.739   3.574   5.564 -1.6816  1.1750 -0.0813
  691MOL0     H95349  10.776   3.565   5.739 -1.3427  2.9324 -0.0962
  691MOL0     H95350  10.539   3.568   5.802 -1.8328  2.8164 -0.2253
  691MOL0     H95351  10.562   3.700   5.688  2.3944  1.0960  0.6277
  691MOL0     H95352  10.367   3.581   5.648 -0.5521 -0.9093  0.5097
  691MOL0     H95353  10.445   3.426   5.623 -1.5313  0.1629 -1.0986
  691MOL0     H95354  10.452   3.651   5.251  4.5697 -1.2278 -1.9098
  691MOL0     H95355  10.660   3.204   5.989 -0.6072  0.4468 -0.6480
  691MOL0     H95356  10.693   3.267   6.237  1.1111  0.5965 -1.2394
  691MOL0     H95357  10.770   3.119   6.273 -1.1675  2.2308  3.6693
  691MOL0     H95358  10.853   3.283   6.305 -0.3913  3.3891 -0.4252
  692MOL0     O95359   8.717   1.846   5.674 -0.1484 -0.4273  0.1085
  692MOL0     C95360   8.670   1.960   5.683 -0.8730 -0.1770 -0.0370
  692MOL0     O95361   8.581   1.995   5.772 -0.5833 -0.1180  0.3866
  692MOL0     C95362   8.532   1.911   5.871 -0.4588 -0.4205 -0.5423
  692MOL0     C95363   8.396   1.919   5.887 -0.2703 -0.0349 -0.0354
  692MOL0     C95364   8.332   1.842   5.989  0.1039  0.4747  0.9464
  692MOL0     C95365   8.408   1.749   6.065  0.5231  0.5070  0.2237
  692MOL0     O95366   8.350   1.663   6.151 -1.1839 -0.0054  0.9235
  692MOL0     C95367   8.417   1.626   6.265 -0.7995  0.9495 -0.5258
  692MOL0     C95368   8.312   1.563   6.357  0.7917  0.0455  0.1463
  692MOL0     C95369   8.208   1.667   6.389  0.4991  0.6886 -0.6325
  692MOL0     C95370   8.119   1.625   6.498  0.3108  0.5441  0.7691
  692MOL0     C95371   8.048   1.740   6.568 -0.9371  0.0577 -0.1990
  692MOL0     C95372   7.987   1.847   6.479  0.7953 -0.2355  0.2864
  692MOL0     C95373   7.920   1.953   6.572 -0.6696  0.0890  0.7522
  692MOL0     C95374   7.918   2.092   6.494 -1.4340  0.0558 -0.5655
  692MOL0     N95375   7.869   2.210   6.571 -1.3481 -0.3596  0.0305
  692MOL0     C95376   7.947   2.298   6.641  0.2090  0.0067 -0.7939
  692MOL0     C95377   7.861   2.399   6.675  0.5484  0.5126  0.0063
  692MOL0     C95378   7.890   2.528   6.752  0.7232 -1.1433 -0.3367
  692MOL0     C95379   7.759   2.593   6.805 -0.6188 -0.0743  0.4770
  692MOL0     C95380   7.783   2.728   6.872 -0.1247 -0.5131  0.3071
  692MOL0     C95381   7.649   2.822   6.879 -0.2565  0.0058  0.6792
  692MOL0     O95382   7.692   2.954   6.919  0.2112 -0.3579  0.3543
  692MOL0     C95383   7.603   3.047   6.957  0.0706 -0.1000 -1.1568
  692MOL0     C95384   7.659   3.170   6.976  0.4145 -0.3355  0.6343
  692MOL0     C95385   7.582   3.281   7.019  0.0659 -0.4883  0.6300
  692MOL0     C95386   7.660   3.407   7.044 -0.3843 -0.8785  0.0725
  692MOL0     C95387   7.444   3.267   7.035  0.0493 -0.2502 -0.2492
  692MOL0     C95388   7.370   3.386   7.082  0.6818  0.5939 -0.5202
  692MOL0     O95389   7.410   3.456   7.193 -0.0281  1.0408 -0.0348
  692MOL0     C95390   7.340   3.574   7.215  0.7470  1.1684  1.1886
  692MOL0     C95391   7.390   3.699   7.203 -0.1613 -0.3738  0.4430
  692MOL0     C95392   7.327   3.815   7.257  1.3689 -0.6311  0.0384
  692MOL0     C95393   7.197   3.804   7.308 -0.9585 -0.3988  0.4943
  692MOL0     O95394   7.126   3.903   7.360 -0.4415 -0.6150  0.6045
  692MOL0     C95395   7.198   4.015   7.418  0.3462  0.4702 -0.7895
  692MOL0     C95396   7.267   3.965   7.553  0.0044 -0.0339  0.3946
  692MOL0     C95397   7.173   3.891   7.656 -1.3658 -0.2253 -0.1605
  692MOL0     C95398   7.277   3.819   7.747  0.1777 -1.2868 -0.4224
  692MOL0     C95399   7.273   3.663   7.752  0.2889  0.7747 -0.0341
  692MOL0     C95400   7.350   3.597   7.636 -0.7529 -0.7455  0.1415
  692MOL0     C95401   7.340   3.444   7.647 -0.9184 -0.0237  0.8420
  692MOL0     C95402   7.425   3.384   7.533  0.6366 -0.9157  0.5259
  692MOL0    Cl95403   7.371   3.215   7.498  0.1691  0.0713  0.3909
  692MOL0     C95404   7.133   3.679   7.299  0.9098  0.0899  0.2058
  692MOL0     C95405   7.208   3.571   7.253  1.0018 -0.2456 -0.2936
  692MOL0     O95406   7.276   3.418   7.012  0.7196  1.0003  1.3426
  692MOL0     C95407   7.387   3.142   7.021 -0.0491 -0.3549 -0.2594
  692MOL0     C95408   7.467   3.033   6.986  0.7674  0.6426  0.7187
  692MOL0     N95409   7.734   2.359   6.644 -0.2448 -0.2205  0.0379
  692MOL0     N95410   7.744   2.248   6.575  0.2877  0.2081  0.5191
  692MOL0     C95411   8.545   1.742   6.041  0.3987  0.3201  0.1483
  692MOL0     C95412   8.609   1.830   5.948 -0.7268 -0.2440  0.1840
  692MOL0     C95413   8.705   2.067   5.581 -0.4411 -0.5050 -1.0183
  692MOL0     C95414   8.648   2.194   5.597 -0.3989 -0.4197 -0.1547
  692MOL0     C95415   8.680   2.308   5.518 -0.9161  0.3496  0.3694
  692MOL0     C95416   8.773   2.292   5.416 -0.7931  0.4458  0.3198
  692MOL0     O95417   8.787   2.403   5.335  0.2249  0.3295  0.8429
  692MOL0     C95418   8.848   2.395   5.202  0.5706  0.6393 -0.3426
  692MOL0     C95419   8.993   2.421   5.213 -0.3160 -0.2528 -0.9508
  692MOL0     C95420   9.061   2.494   5.093  0.5026 -0.2523 -0.6156
  692MOL0     C95421   9.217   2.472   5.106 -0.0286 -0.1064  0.5229
  692MOL0     C95422   9.283   2.481   4.972 -0.3895  0.0150 -0.1031
  692MOL0     C95423   9.333   2.517   4.867  0.1805 -0.2748  0.8123
  692MOL0     C95424   8.826   2.165   5.391  0.5315 -0.6756 -0.2017
  692MOL0     C95425   8.799   2.054   5.475  0.3449  0.0741 -0.9872
  692MOL0     C95426   8.865   1.926   5.435  0.2144  1.2582 -0.0213
  692MOL0     H95427   8.341   1.981   5.817 -1.9173 -0.5123  0.7672
  692MOL0     H95428   8.226   1.834   6.009 -0.1289 -1.4373 -0.7395
  692MOL0     H95429   8.461   1.715   6.310  1.3939 -0.6061  0.6179
  692MOL0     H95430   8.491   1.551   6.236  0.2270  1.4791  0.6387
  692MOL0     H95431   8.272   1.475   6.304 -1.8057  2.4720 -2.2975
  692MOL0     H95432   8.364   1.538   6.449  3.9359 -1.2211 -1.8166
  692MOL0     H95433   8.263   1.753   6.427  2.1498 -1.0860  1.1588
  692MOL0     H95434   8.152   1.695   6.299  1.3784 -2.4970 -2.3270
  692MOL0     H95435   8.038   1.564   6.456  0.5195 -0.3033  1.5687
  692MOL0     H95436   8.173   1.564   6.571  0.4642 -1.2415 -0.7432
  692MOL0     H95437   8.132   1.788   6.619 -1.4187  0.5996  0.0845
  692MOL0     H95438   7.974   1.715   6.644 -0.8781  2.3775  0.7121
  692MOL0     H95439   8.063   1.881   6.409  1.2997 -1.6155  0.1327
  692MOL0     H95440   7.908   1.803   6.418  0.9178 -0.1948  0.0998
  692MOL0     H95441   7.981   1.957   6.662  2.1352  1.3967 -1.0720
  692MOL0     H95442   7.818   1.928   6.602 -0.7973 -2.5236 -1.4824
  692MOL0     H95443   8.011   2.114   6.441 -0.3842 -1.0328  0.7240
  692MOL0     H95444   7.840   2.075   6.419 -3.6945 -2.2521  2.1013
  692MOL0     H95445   8.055   2.288   6.638  0.4477  2.0738 -1.0513
  692MOL0     H95446   7.952   2.596   6.693  0.6259 -0.0710  0.7730
  692MOL0     H95447   7.958   2.493   6.830 -0.5322 -2.3172  0.2788
  692MOL0     H95448   7.706   2.610   6.711  1.7085  2.5620 -0.5005
  692MOL0     H95449   7.703   2.525   6.870  1.2039 -0.7117  1.4354
  692MOL0     H95450   7.826   2.714   6.972 -1.3484  0.5996  1.0149
  692MOL0     H95451   7.865   2.780   6.822 -3.4668 -0.5172 -6.2819
  692MOL0     H95452   7.596   2.834   6.784 -1.6322 -0.2306  1.3922
  692MOL0     H95453   7.576   2.772   6.944 -1.2077 -0.0855 -0.4272
  692MOL0     H95454   7.768   3.175   6.970  0.3591 -0.6551 -0.8486
  692MOL0     H95455   7.738   3.423   6.969 -1.2459 -3.0601 -1.3972
  692MOL0     H95456   7.696   3.402   7.147 -1.8021  1.0573  0.7212
  692MOL0     H95457   7.609   3.504   7.040  1.5007  0.3220  2.5780
  692MOL0     H95458   7.492   3.704   7.167  1.0902 -1.7975  3.4701
  692MOL0     H95459   7.394   3.898   7.275  0.3488 -0.4684  4.0451
  692MOL0     H95460   7.268   4.058   7.345  2.9479 -1.5175  0.3866
  692MOL0     H95461   7.121   4.087   7.448 -2.4676 -2.7782  0.4860
  692MOL0     H95462   7.352   3.899   7.532  0.5002  0.6357  0.2635
  692MOL0     H95463   7.296   4.055   7.608 -1.8544  0.9322 -0.1398
  692MOL0     H95464   7.111   3.814   7.608 -1.2478  0.1740 -0.9619
  692MOL0     H95465   7.111   3.957   7.718 -0.7072  1.3542 -1.1282
  692MOL0     H95466   7.242   3.855   7.845 -1.1713  1.8478 -1.9103
  692MOL0     H95467   7.381   3.848   7.727  0.3225 -1.0560  0.5803
  692MOL0     H95468   7.324   3.624   7.841 -3.2639 -4.2062  0.2846
  692MOL0     H95469   7.174   3.622   7.771  1.5898 -2.5630  0.3117
  692MOL0     H95470   7.455   3.625   7.650 -1.5463  2.0929  1.0779
  692MOL0     H95471   7.308   3.631   7.541  0.1548 -1.4022 -0.5136
  692MOL0     H95472   7.238   3.407   7.643 -0.9347 -0.2206  2.5163
  692MOL0     H95473   7.385   3.399   7.736  0.7064 -1.1744 -0.4990
  692MOL0     H95474   7.530   3.382   7.564  0.6164  1.4573  0.8771
  692MOL0     H95475   7.421   3.438   7.438  0.1209  0.2244  1.1703
  692MOL0     H95476   7.030   3.687   7.332  0.2709  1.7422 -1.9110
  692MOL0     H95477   7.163   3.474   7.271 -2.2160  0.6725 -2.3922
  692MOL0     H95478   7.284   3.124   7.048 -0.0120  3.8994  4.1141
  692MOL0     H95479   7.411   2.942   6.969 -2.5842  2.6170  0.2861
  692MOL0     H95480   8.608   1.675   6.098  1.1135  0.3529 -0.5824
  692MOL0     H95481   8.716   1.846   5.942 -0.8437  0.8655  0.8902
  692MOL0     H95482   8.584   2.225   5.680  1.3072 -2.4041  2.0563
  692MOL0     H95483   8.643   2.407   5.541  0.0393  0.0734  3.4524
  692MOL0     H95484   8.822   2.306   5.143  0.2040 -0.1150  0.9137
  692MOL0     H95485   8.809   2.477   5.141  0.8226  0.9331 -0.1109
  692MOL0     H95486   9.028   2.317   5.210 -1.6579 -0.7376 -4.7022
  692MOL0     H95487   9.015   2.474   5.306 -0.1067  1.1550 -1.7744
  692MOL0     H95488   9.016   2.450   5.003 -1.3261  0.6621 -0.2022
  692MOL0     H95489   9.031   2.599   5.098 -1.9964 -0.8541 -1.1959
  692MOL0     H95490   9.243   2.375   5.150 -2.2842 -1.1470 -0.2801
  692MOL0     H95491   9.268   2.545   5.169  0.5334  0.6597 -0.7790
  692MOL0     H95492   9.355   2.537   4.764 -1.3959 -0.8354  0.3442
  692MOL0     H95493   8.889   2.147   5.304  0.2802  0.5148 -0.6517
  692MOL0     H95494   8.919   1.931   5.340 -4.4124  3.7111 -2.9080
  692MOL0     H95495   8.921   1.879   5.516  1.0361 -1.8602 -2.1941
  692MOL0     H95496   8.786   1.854   5.410  0.2095  1.3028 -0.1345
  693MOL0     O95497   3.987   5.644   5.445 -0.1269  0.1778  0.5142
  693MOL0     C95498   4.026   5.733   5.374 -0.4476 -0.5551 -1.0461
  693MOL0     O95499   3.967   5.785   5.258  0.0660 -0.5207 -0.0366
  693MOL0     C95500   3.852   5.732   5.206  0.1717 -0.0206 -0.3125
  693MOL0     C95501   3.827   5.748   5.066  0.2513 -0.3296  0.3946
  693MOL0     C95502   3.708   5.698   5.015  0.4438 -0.7545  0.1031
  693MOL0     C95503   3.610   5.641   5.097 -0.6976 -0.3123  0.0637
  693MOL0     O95504   3.492   5.619   5.024 -0.7602 -0.6648 -0.4026
  693MOL0     C95505   3.389   5.541   5.087 -0.4140  0.6940 -0.1197
  693MOL0     C95506   3.263   5.558   4.996 -0.4453 -0.3051 -0.7539
  693MOL0     C95507   3.227   5.704   4.954 -0.8146  0.1332 -0.5409
  693MOL0     C95508   3.272   5.738   4.818 -0.4723  0.0169  0.0275
  693MOL0     C95509   3.185   5.673   4.702 -0.2398 -0.4650  1.1194
  693MOL0     C95510   3.043   5.729   4.698 -0.3256  0.9260 -0.4723
  693MOL0     C95511   3.033   5.884   4.703  0.4376  0.7677  1.1648
  693MOL0     C95512   2.893   5.942   4.683 -0.3329 -0.7264  0.4556
  693MOL0     N95513   2.817   5.929   4.814  0.1260  0.3066 -0.4342
  693MOL0     C95514   2.779   6.040   4.882 -0.1908 -0.4170 -0.4221
  693MOL0     C95515   2.715   5.996   4.991 -0.2879  0.1600  0.2118
  693MOL0     C95516   2.653   6.078   5.102 -0.2905 -0.2066  0.2602
  693MOL0     C95517   2.554   5.990   5.188  0.0675 -0.5981 -0.8765
  693MOL0     C95518   2.504   6.078   5.313 -0.7356  0.6684  1.0952
  693MOL0     C95519   2.411   6.006   5.408  0.5575  0.1213 -0.5019
  693MOL0     O95520   2.467   5.875   5.449 -0.0707  0.1658 -0.3876
  693MOL0     C95521   2.565   5.868   5.551  0.0671  0.0012  0.1440
  693MOL0     C95522   2.627   5.977   5.613  1.0732  0.3560  0.2306
  693MOL0     C95523   2.726   5.968   5.708 -0.2981  0.7288 -0.6631
  693MOL0     C95524   2.778   6.097   5.757  0.0920 -0.2324  0.5167
  693MOL0     C95525   2.782   5.844   5.730 -0.0362 -0.2062  0.2952
  693MOL0     C95526   2.884   5.810   5.841 -0.1662  0.1726 -0.1425
  693MOL0     O95527   2.951   5.921   5.890 -0.3420  0.0352  0.2815
  693MOL0     C95528   3.060   5.902   5.967  0.5447 -0.0535  0.1732
  693MOL0     C95529   3.189   5.861   5.917  0.7387  0.3700  0.3837
  693MOL0     C95530   3.299   5.866   6.002  0.2582  0.2108 -0.6635
  693MOL0     C95531   3.297   5.918   6.133  0.2425  0.2503  0.1568
  693MOL0     O95532   3.407   5.936   6.212  0.6698  0.4286  0.6706
  693MOL0     C95533   3.526   5.969   6.143 -0.1614  0.0821  0.1229
  693MOL0     C95534   3.619   6.020   6.243  0.1713 -0.1120  0.1409
  693MOL0     C95535   3.720   6.115   6.182  0.4675  0.6154  0.5648
  693MOL0     C95536   3.686   6.247   6.137 -0.3099 -0.7858 -0.3153
  693MOL0     C95537   3.803   6.340   6.119 -0.6767 -0.5797 -0.0423
  693MOL0     C95538   3.776   6.493   6.103  0.1007  0.6399 -0.3844
  693MOL0     C95539   3.668   6.539   6.008 -0.1288  0.1493 -0.1583
  693MOL0     C95540   3.679   6.687   5.969  0.4116 -0.5952  0.6374
  693MOL0    Cl95541   3.829   6.709   5.888 -0.2342 -0.4870 -0.2057
  693MOL0     C95542   3.173   5.958   6.182 -0.3764 -0.0612 -0.0600
  693MOL0     C95543   3.055   5.948   6.099 -0.7477 -0.5654  0.0046
  693MOL0     O95544   2.914   5.692   5.872 -0.0033 -0.2323  0.4052
  693MOL0     C95545   2.728   5.725   5.665 -0.7216 -0.4123 -0.7971
  693MOL0     C95546   2.630   5.741   5.570 -0.0001  0.0821  0.1267
  693MOL0     N95547   2.722   5.858   4.995  0.0002  0.4579  0.4403
  693MOL0     N95548   2.788   5.820   4.890  0.0374  1.9130 -0.0497
  693MOL0     C95549   3.634   5.641   5.237  1.0969 -0.6084 -0.4472
  693MOL0     C95550   3.749   5.679   5.292 -0.8988 -0.8852 -0.2769
  693MOL0     C95551   4.150   5.815   5.412 -0.5472  0.2593  0.2477
  693MOL0     C95552   4.137   5.950   5.402 -0.7080 -0.2616  0.2725
  693MOL0     C95553   4.243   6.031   5.436 -0.1278 -0.6849 -0.3753
  693MOL0     C95554   4.348   5.969   5.510  1.1361  0.3670 -0.1366
  693MOL0     O95555   4.440   6.042   5.584  0.5167  0.2335  0.3085
  693MOL0     C95556   4.417   6.051   5.727  0.3400  0.3172 -0.0976
  693MOL0     C95557   4.547   6.001   5.793 -0.3300 -0.9299 -0.1821
  693MOL0     C95558   4.564   6.047   5.937 -0.5468 -0.7246  0.1393
  693MOL0     C95559   4.496   5.963   6.042 -0.0664  0.5772  0.2503
  693MOL0     C95560   4.570   5.841   6.072 -1.4087  1.0699  1.1372
  693MOL0     C95561   4.620   5.736   6.097 -0.3044 -0.5981  0.3338
  693MOL0     C95562   4.357   5.829   5.510 -0.0008  0.1048  0.2339
  693MOL0     C95563   4.262   5.749   5.460  0.4111  0.0312  0.1388
  693MOL0     C95564   4.266   5.597   5.439 -0.1810 -0.7201  0.6233
  693MOL0     H95565   3.903   5.789   5.000  1.2665  0.4091  1.9785
  693MOL0     H95566   3.684   5.712   4.910 -2.4558  0.7845  0.8682
  693MOL0     H95567   3.363   5.573   5.189 -1.3545 -1.8184  0.5083
  693MOL0     H95568   3.426   5.438   5.090  0.7480  1.1248  1.3976
  693MOL0     H95569   3.283   5.493   4.910 -2.3831 -3.6866  1.1099
  693MOL0     H95570   3.181   5.520   5.058  1.9550 -2.4419  1.3323
  693MOL0     H95571   3.118   5.709   4.970 -0.7257 -0.6765  0.4107
  693MOL0     H95572   3.276   5.772   5.024 -1.6254 -1.0547  1.2682
  693MOL0     H95573   3.265   5.847   4.809  1.1505  0.4553  2.8575
  693MOL0     H95574   3.375   5.709   4.796  0.5610  2.9707  0.6144
  693MOL0     H95575   3.185   5.564   4.711 -1.8853 -0.3691  2.6462
  693MOL0     H95576   3.240   5.697   4.610  4.0926  0.0863  3.6249
  693MOL0     H95577   2.996   5.696   4.605 -0.1368  0.0565 -0.2613
  693MOL0     H95578   2.987   5.691   4.784  0.8511  0.3011  0.0277
  693MOL0     H95579   3.097   5.916   4.621  1.3845 -0.3883  1.4177
  693MOL0     H95580   3.082   5.923   4.792 -1.4768  2.5388  1.5078
  693MOL0     H95581   2.896   6.048   4.656 -1.6881 -0.3249  1.7346
  693MOL0     H95582   2.833   5.896   4.604 -0.2405  1.1214 -0.7796
  693MOL0     H95583   2.796   6.141   4.845 -0.4954 -1.4758 -3.8393
  693MOL0     H95584   2.584   6.151   5.058 -0.6026  0.5581  1.9393
  693MOL0     H95585   2.726   6.129   5.165  1.6416  1.3388 -2.9633
  693MOL0     H95586   2.469   5.972   5.122 -0.6972  2.6011 -0.9569
  693MOL0     H95587   2.611   5.903   5.221  2.3962  1.2285  0.2349
  693MOL0     H95588   2.595   6.097   5.372  0.0157  1.5710 -0.2906
  693MOL0     H95589   2.470   6.179   5.287 -1.3576 -0.0900 -1.2296
  693MOL0     H95590   2.385   6.071   5.492 -0.2156 -0.7048 -0.0861
  693MOL0     H95591   2.320   5.987   5.350 -1.2152 -0.9021  2.4342
  693MOL0     H95592   2.600   6.078   5.588  0.6896  0.0058 -0.7991
  693MOL0     H95593   2.885   6.103   5.734  0.0325  0.9270  0.4955
  693MOL0     H95594   2.771   6.099   5.866 -0.4193  1.4106  0.4680
  693MOL0     H95595   2.729   6.180   5.706  3.4068  1.1716 -0.6695
  693MOL0     H95596   3.205   5.835   5.813 -2.5290  0.9245 -0.3404
  693MOL0     H95597   3.391   5.823   5.965  0.5126  0.1855 -0.0182
  693MOL0     H95598   3.558   5.874   6.099  2.9763  0.8544  0.5410
  693MOL0     H95599   3.501   6.044   6.067 -2.0901  0.0964  0.7102
  693MOL0     H95600   3.563   6.072   6.322  0.7923 -1.5786  1.6084
  693MOL0     H95601   3.663   5.935   6.296  1.6840 -0.7279 -1.9822
  693MOL0     H95602   3.773   6.059   6.104 -2.7168 -0.4234 -1.0380
  693MOL0     H95603   3.796   6.119   6.260  1.2081  1.5662 -0.1881
  693MOL0     H95604   3.632   6.293   6.220 -0.2849 -0.6889 -0.3521
  693MOL0     H95605   3.627   6.241   6.045  0.8941  3.9132 -1.6906
  693MOL0     H95606   3.864   6.339   6.210  0.9143 -0.6911 -1.0710
  693MOL0     H95607   3.865   6.309   6.034  2.6132 -1.3350  2.4278
  693MOL0     H95608   3.871   6.545   6.090 -1.3017  3.1597 -1.2509
  693MOL0     H95609   3.727   6.509   6.199  0.3964 -0.6779 -0.0006
  693MOL0     H95610   3.570   6.522   6.055 -1.3355  3.0090 -1.4244
  693MOL0     H95611   3.666   6.471   5.923  0.2795  1.9358 -1.6651
  693MOL0     H95612   3.668   6.752   6.057 -0.5625  1.1392 -0.7168
  693MOL0     H95613   3.599   6.708   5.897 -2.2987 -1.3951  3.1891
  693MOL0     H95614   3.167   6.007   6.278  2.3251  0.5863 -0.1498
  693MOL0     H95615   2.959   5.985   6.134 -0.7462  0.4488 -0.9965
  693MOL0     H95616   2.778   5.630   5.661 -0.4739 -0.3049 -0.2839
  693MOL0     H95617   2.584   5.655   5.522 -1.3060  0.6974  0.2248
  693MOL0     H95618   3.557   5.595   5.299  0.1518  3.2233  1.5586
  693MOL0     H95619   3.756   5.684   5.400 -3.0928 -0.4009 -0.1236
  693MOL0     H95620   4.047   5.988   5.353 -1.6081 -0.2737  1.8608
  693MOL0     H95621   4.237   6.140   5.442 -3.4777 -0.8452  1.7862
  693MOL0     H95622   4.415   6.158   5.751  1.3284  0.9146 -2.3696
  693MOL0     H95623   4.322   6.007   5.758 -0.7731  3.0136  0.5594
  693MOL0     H95624   4.637   6.030   5.738 -2.0914 -1.0982 -3.4220
  693MOL0     H95625   4.552   5.893   5.776 -1.2201 -1.5340  2.8010
  693MOL0     H95626   4.672   6.059   5.947 -0.7677  1.7493  0.2667
  693MOL0     H95627   4.510   6.141   5.954  1.6808  0.4365  1.2417
  693MOL0     H95628   4.393   5.938   6.015  0.1475  1.5625 -1.6665
  693MOL0     H95629   4.480   6.019   6.134 -0.7138  0.3069  0.3057
  693MOL0     H95630   4.667   5.643   6.123  0.9159 -0.2307 -0.4947
  693MOL0     H95631   4.444   5.787   5.559  1.0731 -2.1599 -3.2241
  693MOL0     H95632   4.236   5.573   5.337 -1.7871  0.4714  0.7830
  693MOL0     H95633   4.372   5.569   5.446 -0.1522 -0.4671  1.2738
  693MOL0     H95634   4.206   5.536   5.507  0.2111  1.9102  3.5397
  694MOL0     O95635   8.182   8.087   1.691  0.3936  0.2244  0.4124
  694MOL0     C95636   8.084   8.121   1.757 -0.0750  0.5411  0.2810
  694MOL0     O95637   7.975   8.175   1.700  0.6836  0.6330  0.6215
  694MOL0     C95638   7.920   8.138   1.582 -0.2932 -0.0033  0.0218
  694MOL0     C95639   7.794   8.080   1.585  0.7819  0.1188  0.0019
  694MOL0     C95640   7.720   8.047   1.472 -0.3700 -0.2482 -0.1960
  694MOL0     C95641   7.766   8.078   1.341 -1.2966 -0.3986 -0.9299
  694MOL0     O95642   7.693   8.047   1.229  0.2832  0.0782  0.1264
  694MOL0     C95643   7.692   8.157   1.136  0.3976 -0.3734 -0.6009
  694MOL0     C95644   7.643   8.093   1.003  0.5172  0.4351  0.3392
  694MOL0     C95645   7.753   8.044   0.914 -0.0315 -0.6721 -0.1607
  694MOL0     C95646   7.697   7.962   0.793  0.4644 -0.6965 -0.7250
  694MOL0     C95647   7.812   7.880   0.718  0.7101 -0.9148  0.0073
  694MOL0     C95648   7.815   7.731   0.766  0.1948  0.2682  0.2202
  694MOL0     C95649   7.843   7.709   0.916 -0.3626  0.2515 -1.3606
  694MOL0     C95650   7.841   7.556   0.942 -0.7751 -0.0955 -0.0126
  694MOL0     N95651   7.927   7.472   0.861 -0.4999  0.5659  0.2375
  694MOL0     C95652   8.066   7.471   0.860  0.1452  0.4867 -0.6585
  694MOL0     C95653   8.104   7.419   0.744 -0.6490  1.3115  0.4426
  694MOL0     C95654   8.245   7.401   0.678 -0.0724  0.5617 -0.7238
  694MOL0     C95655   8.232   7.309   0.547  0.2481 -0.5972 -0.4594
  694MOL0     C95656   8.214   7.398   0.427 -0.5114  0.4544 -0.2115
  694MOL0     C95657   8.218   7.326   0.295  1.1327  0.6264  1.0766
  694MOL0     O95658   8.354   7.290   0.269 -0.7655 -0.5754 -0.0545
  694MOL0     C95659   8.407   7.328   0.151  0.0288 -0.4520  0.3761
  694MOL0     C95660   8.550   7.347   0.152  0.0458 -0.0635 -0.6719
  694MOL0     C95661   8.629   7.369   0.044 -0.4314 -0.0057  0.3875
  694MOL0     C95662   8.777   7.368   0.065  0.1112  0.0513 -0.2908
  694MOL0     C95663   8.569   7.375  -0.083  0.3948 -0.5918  0.3357
  694MOL0     C95664   8.637   7.389  -0.209 -0.0338  0.3977 -1.0260
  694MOL0     O95665   8.749   7.327  -0.237 -0.4457  0.2120 -0.3810
  694MOL0     C95666   8.824   7.371  -0.346  0.8504 -0.0342  0.7466
  694MOL0     C95667   8.846   7.279  -0.449 -0.6940  0.2480 -0.1135
  694MOL0     C95668   8.913   7.319  -0.565 -0.8217  0.3028  0.2164
  694MOL0     C95669   8.947   7.449  -0.590 -0.7009 -0.1289 -0.0861
  694MOL0     O95670   9.002   7.499  -0.702 -0.5139 -0.1841  0.0768
  694MOL0     C95671   8.973   7.436  -0.831  0.4227  0.0849 -0.0156
  694MOL0     C95672   9.003   7.535  -0.951 -0.3581  1.2187 -0.3369
  694MOL0     C95673   8.965   7.685  -0.920 -0.3171 -0.3047  0.6099
  694MOL0     C95674   9.010   7.782  -1.038  0.7257 -0.4251 -0.2617
  694MOL0     C95675   9.015   7.927  -0.996 -0.6317 -0.9607 -0.8560
  694MOL0     C95676   8.888   7.985  -0.936  0.1684  0.2496 -0.8945
  694MOL0     C95677   8.926   8.136  -0.889 -0.0788 -0.0202  0.0586
  694MOL0     C95678   8.976   8.140  -0.748  0.2128  0.0641 -0.8789
  694MOL0    Cl95679   9.135   8.077  -0.716 -0.0803  0.3646  0.1655
  694MOL0     C95680   8.926   7.541  -0.487 -0.5893  0.0856 -0.1389
  694MOL0     C95681   8.864   7.504  -0.367  1.0684  0.0900  0.6059
  694MOL0     O95682   8.578   7.472  -0.280  0.4324  0.0483  0.4507
  694MOL0     C95683   8.425   7.373  -0.082 -0.4428 -0.2518 -0.2427
  694MOL0     C95684   8.346   7.355   0.033 -0.0017  0.7889 -0.3770
  694MOL0     N95685   7.992   7.381   0.674 -0.2031  0.3932  0.9908
  694MOL0     N95686   7.891   7.419   0.745  0.2675  0.5074  0.5698
  694MOL0     C95687   7.908   8.122   1.334  0.3722  0.1871  0.2680
  694MOL0     C95688   7.978   8.150   1.452 -0.2408  1.0475 -0.3670
  694MOL0     C95689   8.078   8.094   1.899 -0.2916  0.0462  0.2872
  694MOL0     C95690   7.951   8.065   1.961 -0.2173 -0.7263  0.2358
  694MOL0     C95691   7.936   8.042   2.099 -1.4026  0.3751 -0.2676
  694MOL0     C95692   8.047   8.059   2.181 -0.0858 -0.3033 -0.8116
  694MOL0     O95693   8.053   8.062   2.316  0.4017  0.2649 -0.1567
  694MOL0     C95694   7.930   8.056   2.391 -0.2408  0.3433  0.6284
  694MOL0     C95695   7.944   8.164   2.501  1.1310  0.1401  1.1314
  694MOL0     C95696   8.074   8.157   2.592  1.1144 -0.0336 -0.4615
  694MOL0     C95697   8.062   8.245   2.718  0.1832 -0.5409 -0.2588
  694MOL0     C95698   8.195   8.273   2.764  0.4745 -0.9192  0.3352
  694MOL0     C95699   8.312   8.291   2.792 -0.8632 -1.1668  0.4460
  694MOL0     C95700   8.172   8.068   2.122  0.6280  0.1873  0.2740
  694MOL0     C95701   8.197   8.086   1.982  0.0090 -0.7338  0.6762
  694MOL0     C95702   8.338   8.103   1.931 -0.8210 -0.5126  0.1349
  694MOL0     H95703   7.753   8.047   1.680 -0.8868 -1.6956 -1.2684
  694MOL0     H95704   7.623   8.003   1.491 -1.2614  2.0961  1.0597
  694MOL0     H95705   7.786   8.212   1.127  0.2053  0.0216 -0.2225
  694MOL0     H95706   7.623   8.230   1.179  2.4582  1.7821 -0.6979
  694MOL0     H95707   7.572   8.010   1.018  1.7266 -0.8040 -0.5572
  694MOL0     H95708   7.584   8.167   0.948  1.1921 -0.8452 -2.2886
  694MOL0     H95709   7.808   8.119   0.858 -1.3111 -0.2718 -0.9112
  694MOL0     H95710   7.809   7.977   0.981 -1.7843 -0.3122  1.7703
  694MOL0     H95711   7.625   7.893   0.837 -2.5396  3.5042  1.7159
  694MOL0     H95712   7.649   8.029   0.721  1.3894 -1.0928 -1.7310
  694MOL0     H95713   7.900   7.935   0.752  0.5364 -1.5774  1.6518
  694MOL0     H95714   7.791   7.886   0.611  2.1720  1.0516 -0.2071
  694MOL0     H95715   7.716   7.688   0.750 -0.3721  0.6966  2.2295
  694MOL0     H95716   7.888   7.676   0.706  0.1771 -3.3738  3.1784
  694MOL0     H95717   7.767   7.767   0.970 -1.1435 -2.7720  1.0802
  694MOL0     H95718   7.939   7.757   0.938  1.2557 -3.2590 -0.0651
  694MOL0     H95719   7.872   7.539   1.045 -0.6423 -0.8368 -0.1643
  694MOL0     H95720   7.741   7.510   0.943 -0.5530 -0.5964  1.1536
  694MOL0     H95721   8.134   7.507   0.936  0.1545  1.6624 -1.1986
  694MOL0     H95722   8.325   7.361   0.740  0.8406 -0.7470 -2.6233
  694MOL0     H95723   8.291   7.497   0.654 -0.4934  0.7700 -0.7175
  694MOL0     H95724   8.325   7.253   0.537 -1.2671 -3.4340  0.1549
  694MOL0     H95725   8.157   7.231   0.564  1.3831 -1.4116  1.1030
  694MOL0     H95726   8.118   7.448   0.445 -2.4053 -3.2468  1.1710
  694MOL0     H95727   8.297   7.469   0.420 -0.8961  0.7835 -1.6557
  694MOL0     H95728   8.152   7.239   0.284  2.4803 -0.2068 -1.0989
  694MOL0     H95729   8.169   7.393   0.225 -0.2210 -2.4112 -1.1160
  694MOL0     H95730   8.603   7.337   0.246 -1.2147  0.4781  0.1216
  694MOL0     H95731   8.813   7.271   0.028  1.6860  0.6959 -0.5239
  694MOL0     H95732   8.813   7.382   0.167  2.3503  2.4672 -1.3036
  694MOL0     H95733   8.827   7.449   0.011  3.3303 -1.8356 -0.3964
  694MOL0     H95734   8.814   7.176  -0.442  0.1529  0.0142  0.4842
  694MOL0     H95735   8.920   7.234  -0.632 -0.6990 -0.3328  1.0237
  694MOL0     H95736   9.034   7.346  -0.844  3.2194  2.1676 -3.2331
  694MOL0     H95737   8.868   7.404  -0.831  1.2717 -3.0503 -0.0154
  694MOL0     H95738   9.111   7.530  -0.970  0.2497 -0.1860  2.7667
  694MOL0     H95739   8.940   7.506  -1.036  1.0116  3.4112 -2.2312
  694MOL0     H95740   9.016   7.707  -0.826  1.1093  0.3566 -0.2830
  694MOL0     H95741   8.860   7.713  -0.917 -0.5860 -0.5610 -2.6745
  694MOL0     H95742   8.942   7.769  -1.122 -1.1516 -2.9317  1.4961
  694MOL0     H95743   9.113   7.768  -1.073  1.3600  2.0235  0.3883
  694MOL0     H95744   9.099   7.939  -0.927 -1.9274  0.3571  0.5649
  694MOL0     H95745   9.050   7.990  -1.079  3.3394 -1.7636  0.0057
  694MOL0     H95746   8.856   7.930  -0.847 -1.0437  1.1687 -0.7418
  694MOL0     H95747   8.806   7.980  -1.008  0.6864  3.2419 -1.8303
  694MOL0     H95748   8.824   8.176  -0.897  0.6552  2.2501  1.2598
  694MOL0     H95749   8.988   8.198  -0.954  2.1074 -0.2950  1.7786
  694MOL0     H95750   8.903   8.090  -0.684  0.2616 -0.9548 -1.5815
  694MOL0     H95751   8.976   8.243  -0.713  2.0751 -0.2228  0.1066
  694MOL0     H95752   8.950   7.646  -0.498 -1.7853  0.4653  0.6995
  694MOL0     H95753   8.843   7.574  -0.288 -3.2928 -1.1035  0.7632
  694MOL0     H95754   8.378   7.375  -0.180  0.6230 -2.8066 -0.9052
  694MOL0     H95755   8.238   7.367   0.037  0.2564  3.2373  1.6156
  694MOL0     H95756   7.960   8.143   1.241 -0.7456 -0.6083 -0.5689
  694MOL0     H95757   8.073   8.200   1.436  1.3556 -1.2448  1.3646
  694MOL0     H95758   7.860   8.044   1.906  0.1395  1.5151 -1.3461
  694MOL0     H95759   7.847   8.005   2.150 -0.7857  0.4915  0.9457
  694MOL0     H95760   7.834   8.087   2.348  0.4310  0.6945 -0.6691
  694MOL0     H95761   7.919   7.953   2.427  0.8150 -0.5845 -1.5197
  694MOL0     H95762   7.862   8.159   2.573 -1.8411  0.7174 -1.9472
  694MOL0     H95763   7.934   8.263   2.455 -1.8770 -0.1045  1.0603
  694MOL0     H95764   8.092   8.053   2.620  1.1826  0.1131  0.0522
  694MOL0     H95765   8.162   8.174   2.530 -1.4411 -0.9178 -4.7480
  694MOL0     H95766   8.000   8.202   2.797 -1.0139  2.6907  0.6886
  694MOL0     H95767   8.016   8.340   2.692 -0.2563 -0.2650  1.4128
  694MOL0     H95768   8.410   8.328   2.812 -2.0675  3.5020 -0.8838
  694MOL0     H95769   8.260   8.069   2.184  2.4954  0.4701 -2.2306
  694MOL0     H95770   8.354   8.040   1.842 -3.1227 -2.2339  0.8149
  694MOL0     H95771   8.360   8.207   1.909 -1.5787 -0.5240 -0.7544
  694MOL0     H95772   8.412   8.069   2.004 -1.6078 -0.9286  0.7648
  695MOL0     O95773   1.819   8.025   1.399 -0.3548 -1.0030 -0.1244
  695MOL0     C95774   1.925   8.022   1.466  0.8090 -0.6641 -0.2563
  695MOL0     O95775   2.019   8.115   1.476  0.0906 -0.2524 -0.1326
  695MOL0     C95776   2.015   8.236   1.410  0.1690  0.0096  0.2902
  695MOL0     C95777   1.909   8.299   1.346  0.2590 -0.2201  0.3442
  695MOL0     C95778   1.923   8.432   1.291 -0.0817  0.0292 -0.5389
  695MOL0     C95779   2.031   8.506   1.318 -1.0060  1.0041 -0.7224
  695MOL0     O95780   2.053   8.630   1.278  0.6019  0.3698 -0.3604
  695MOL0     C95781   1.936   8.712   1.243  0.1030  0.2836 -1.2277
  695MOL0     C95782   2.002   8.852   1.229  1.4283  0.3420 -0.0828
  695MOL0     C95783   1.914   8.931   1.122 -0.2365 -0.3418  0.7072
  695MOL0     C95784   1.775   8.961   1.167 -0.7855  0.1274  0.2879
  695MOL0     C95785   1.695   9.027   1.056  0.6985 -1.0244 -0.0250
  695MOL0     C95786   1.593   9.137   1.116  0.2461 -0.3779  0.1845
  695MOL0     C95787   1.546   9.236   1.006  0.1081  0.3243  0.6201
  695MOL0     C95788   1.451   9.345   1.063  0.0704 -0.6306 -0.3999
  695MOL0     N95789   1.392   9.435   0.965 -0.0942 -0.9906 -0.0356
  695MOL0     C95790   1.332   9.392   0.845  0.6718  0.1686 -0.3768
  695MOL0     C95791   1.284   9.506   0.792 -0.5351 -0.5830  0.3157
  695MOL0     C95792   1.213   9.516   0.664  0.0376 -0.0265  0.1622
  695MOL0     C95793   1.067   9.485   0.671  0.1602 -0.8544 -0.2256
  695MOL0     C95794   1.005   9.449   0.542  0.0127  0.0383 -0.5396
  695MOL0     C95795   1.002   9.556   0.428 -0.4782 -0.3559  0.6159
  695MOL0     O95796   1.136   9.570   0.377  1.1960  0.1404  0.0616
  695MOL0     C95797   1.194   9.694   0.374 -0.6608 -0.1959  0.2520
  695MOL0     C95798   1.331   9.678   0.354 -0.0457 -0.2157 -0.2123
  695MOL0     C95799   1.414   9.789   0.328 -0.4721  0.4545  0.3604
  695MOL0     C95800   1.557   9.769   0.305 -0.2785 -0.9008  0.3956
  695MOL0     C95801   1.363   9.919   0.326 -0.0507 -0.0794 -0.5233
  695MOL0     C95802   1.448  10.046   0.312  0.9562 -0.6598  0.9505
  695MOL0     O95803   1.565  10.032   0.253 -0.2630  0.0412 -0.2051
  695MOL0     C95804   1.653  10.127   0.214 -0.6140  0.3729  0.5779
  695MOL0     C95805   1.721  10.095   0.094  0.1723 -0.2002 -0.2216
  695MOL0     C95806   1.828  10.156   0.044 -0.5163 -1.0436  0.5419
  695MOL0     C95807   1.867  10.284   0.110  0.6147 -0.2439  0.3107
  695MOL0     O95808   1.973  10.360   0.073  0.4596 -0.0130  0.0248
  695MOL0     C95809   2.049  10.314  -0.036 -0.4039 -0.0430 -0.2350
  695MOL0     C95810   1.985  10.355  -0.172 -0.0583  0.5007  0.8883
  695MOL0     C95811   2.081  10.343  -0.297  0.3917 -0.2912 -0.7471
  695MOL0     C95812   2.048  10.440  -0.408  0.8340 -0.6031 -0.0627
  695MOL0     C95813   2.150  10.443  -0.517  0.4837  0.5361 -0.7047
  695MOL0     C95814   2.119  10.557  -0.617  0.7656 -0.8508 -0.0501
  695MOL0     C95815   1.972  10.569  -0.665  0.0739 -0.2263 -0.5590
  695MOL0     C95816   1.959  10.672  -0.771  0.1751  0.8105  0.0504
  695MOL0    Cl95817   2.047  10.592  -0.910  0.0102 -0.0047  0.6070
  695MOL0     C95818   1.784  10.336   0.215 -0.5049 -0.2598 -0.1098
  695MOL0     C95819   1.683  10.253   0.270  0.2620  1.4138 -0.4342
  695MOL0     O95820   1.397  10.155   0.347  0.5472 -0.5837 -0.7815
  695MOL0     C95821   1.222   9.930   0.359  0.1534 -0.2421  0.2558
  695MOL0     C95822   1.141   9.820   0.380 -0.0073 -0.0801 -0.4740
  695MOL0     N95823   1.314   9.614   0.878  0.0434 -0.9625 -0.2025
  695MOL0     N95824   1.374   9.568   0.982 -0.0700 -0.3840  0.3105
  695MOL0     C95825   2.133   8.440   1.381 -0.7266 -0.2890  0.0313
  695MOL0     C95826   2.122   8.315   1.427 -0.6838  0.9813  0.6995
  695MOL0     C95827   1.925   7.911   1.565  0.7660  0.6547 -0.4298
  695MOL0     C95828   1.877   7.781   1.530 -0.2214 -0.1359  0.1176
  695MOL0     C95829   1.859   7.679   1.626 -0.9297 -0.3571 -0.3537
  695MOL0     C95830   1.899   7.701   1.754  0.8692  1.3914  0.3632
  695MOL0     O95831   1.883   7.607   1.854  0.5692  0.0446  0.0975
  695MOL0     C95832   1.898   7.465   1.838  0.3070 -0.9938  0.1093
  695MOL0     C95833   1.825   7.388   1.946 -0.0684 -0.4809 -1.3069
  695MOL0     C95834   1.837   7.232   1.937  0.7820  0.1367  0.4311
  695MOL0     C95835   1.752   7.167   2.052  0.1551  0.7900 -0.0041
  695MOL0     C95836   1.773   7.021   2.060  0.7753 -0.1372 -1.0945
  695MOL0     C95837   1.782   6.904   2.070  0.0582 -0.6070 -0.0961
  695MOL0     C95838   1.958   7.822   1.790 -0.2655  0.4011  0.5923
  695MOL0     C95839   1.978   7.926   1.698  0.0200  0.1565 -0.2560
  695MOL0     C95840   2.022   8.062   1.749  0.0388  0.2070 -0.0263
  695MOL0     H95841   1.812   8.251   1.350 -0.0723  0.0850 -2.4444
  695MOL0     H95842   1.843   8.470   1.228  0.8471  1.7981 -0.7116
  695MOL0     H95843   1.863   8.717   1.324  1.2767 -0.1779 -0.1092
  695MOL0     H95844   1.894   8.664   1.154 -1.6650 -0.4201 -0.0735
  695MOL0     H95845   2.020   8.903   1.325  1.3318 -0.6898  0.4978
  695MOL0     H95846   2.105   8.852   1.191  1.3929  3.4147 -0.4284
  695MOL0     H95847   1.968   9.022   1.096 -1.9617  1.5807  3.2237
  695MOL0     H95848   1.908   8.874   1.029  0.6470  0.7759 -0.0570
  695MOL0     H95849   1.724   8.867   1.188  1.6964 -1.3769  0.0628
  695MOL0     H95850   1.787   9.028   1.253  2.1167  0.6888 -0.4413
  695MOL0     H95851   1.638   8.947   1.010 -0.8806 -0.2217  0.4655
  695MOL0     H95852   1.758   9.076   0.981  0.4014  0.9582  0.9467
  695MOL0     H95853   1.514   9.073   1.157 -0.2038 -0.8005 -1.2754
  695MOL0     H95854   1.652   9.197   1.185  0.8764 -0.6631 -0.0998
  695MOL0     H95855   1.509   9.172   0.926  1.3921  2.3403 -1.7677
  695MOL0     H95856   1.636   9.283   0.963  0.2652 -0.5096  0.0249
  695MOL0     H95857   1.383   9.284   1.124  1.1118 -0.6631  0.7900
  695MOL0     H95858   1.511   9.401   1.136 -2.0085  1.8059 -0.4292
  695MOL0     H95859   1.304   9.292   0.813 -6.2603  1.8749 -1.2025
  695MOL0     H95860   1.262   9.465   0.580 -0.8808  0.8554 -0.9467
  695MOL0     H95861   1.225   9.624   0.650 -0.4556  0.1984  1.3807
  695MOL0     H95862   1.055   9.397   0.735  0.8019 -0.3835  0.5677
  695MOL0     H95863   1.013   9.565   0.721 -0.8687 -0.7418 -1.4631
  695MOL0     H95864   1.060   9.364   0.501  0.0399  0.2815 -1.0239
  695MOL0     H95865   0.903   9.419   0.567 -0.1208  1.0447  0.2102
  695MOL0     H95866   0.931   9.518   0.355 -1.1260  0.3986  0.8486
  695MOL0     H95867   0.966   9.652   0.465  2.5137  1.6029 -1.0851
  695MOL0     H95868   1.369   9.576   0.355  0.2521 -0.1141  0.8635
  695MOL0     H95869   1.582   9.663   0.293  1.6738 -0.2468 -2.6048
  695MOL0     H95870   1.619   9.816   0.382  0.3726 -2.1032  0.6253
  695MOL0     H95871   1.588   9.797   0.204  1.0218 -2.0216  0.4617
  695MOL0     H95872   1.701  10.004   0.039 -0.2670  1.1751 -2.4757
  695MOL0     H95873   1.876  10.121  -0.046 -1.1874  1.8469 -1.0467
  695MOL0     H95874   2.142  10.369  -0.026 -1.3358  1.5657 -0.1735
  695MOL0     H95875   2.085  10.210  -0.034  3.5829  1.1671 -1.1495
  695MOL0     H95876   1.895  10.296  -0.189  0.5372  0.1157 -1.1892
  695MOL0     H95877   1.968  10.463  -0.164  1.5544  0.7735  0.9677
  695MOL0     H95878   2.080  10.243  -0.341  1.4896  0.0122 -1.4977
  695MOL0     H95879   2.182  10.364  -0.260 -1.4604  1.2145  4.1291
  695MOL0     H95880   2.037  10.542  -0.370 -1.4624 -0.8346  0.0244
  695MOL0     H95881   1.951  10.419  -0.453  0.3931  1.3271 -0.1052
  695MOL0     H95882   2.247  10.458  -0.470 -0.2029 -1.5047  1.5710
  695MOL0     H95883   2.154  10.350  -0.574  0.3424  0.5554 -0.7473
  695MOL0     H95884   2.182  10.558  -0.706 -2.5539 -2.8684 -2.6645
  695MOL0     H95885   2.125  10.652  -0.563  0.3926 -0.6981 -0.2718
  695MOL0     H95886   1.911  10.612  -0.585 -2.8986 -1.6630 -1.8652
  695MOL0     H95887   1.921  10.474  -0.683 -0.0137 -1.0252  3.1282
  695MOL0     H95888   2.006  10.767  -0.745  2.5020  0.5825 -2.8777
  695MOL0     H95889   1.851  10.679  -0.784 -0.0694 -0.3000  1.2137
  695MOL0     H95890   1.796  10.421   0.282 -3.3304 -0.5828  0.9470
  695MOL0     H95891   1.629  10.288   0.358 -1.0517 -0.6581 -0.3299
  695MOL0     H95892   1.183  10.028   0.386  1.4064  0.0688  1.0450
  695MOL0     H95893   1.041   9.849   0.408  0.7767  2.0727  0.3249
  695MOL0     H95894   2.227   8.495   1.386  0.7877 -2.8345  1.9409
  695MOL0     H95895   2.207   8.264   1.471  0.0543 -0.4904 -2.1702
  695MOL0     H95896   1.852   7.748   1.430 -0.1854 -0.9609  0.3747
  695MOL0     H95897   1.816   7.589   1.583 -0.6436 -1.3352  1.3370
  695MOL0     H95898   1.867   7.433   1.738  0.6002  2.6516 -1.2897
  695MOL0     H95899   2.003   7.435   1.850  1.0121 -0.5042 -3.6288
  695MOL0     H95900   1.723   7.425   1.958 -0.0135  0.1408 -2.5599
  695MOL0     H95901   1.866   7.396   2.047 -0.5274  1.6486 -1.2372
  695MOL0     H95902   1.802   7.191   1.842 -3.7512  0.0008  1.9154
  695MOL0     H95903   1.941   7.199   1.941  1.1978  1.0324 -1.6211
  695MOL0     H95904   1.647   7.200   2.051  0.1368  0.7353 -0.5285
  695MOL0     H95905   1.798   7.207   2.142 -0.2466  1.5432 -0.1203
  695MOL0     H95906   1.772   6.798   2.079  2.2584 -0.8473 -0.0445
  695MOL0     H95907   1.985   7.828   1.895  1.5359  3.8017  0.0594
  695MOL0     H95908   1.962   8.146   1.714 -0.9195  0.3004  1.7366
  695MOL0     H95909   2.027   8.058   1.858  1.5067  1.1408 -0.0345
  695MOL0     H95910   2.127   8.075   1.720 -0.6544 -0.5414 -3.3851
  696MOL0     O95911   7.643   3.583  10.736  0.2378 -0.2510 -0.2259
  696MOL0     C95912   7.572   3.663  10.789  0.2969  0.3180  0.7177
  696MOL0     O95913   7.593   3.795  10.788 -0.0208  0.0354 -0.7940
  696MOL0     C95914   7.723   3.845  10.791 -1.3164  0.0885 -0.6134
  696MOL0     C95915   7.808   3.815  10.898  1.0373  0.8144  0.4445
  696MOL0     C95916   7.941   3.853  10.900 -0.4423 -0.2707  0.3209
  696MOL0     C95917   7.988   3.928  10.796 -0.7091 -1.2770 -0.2834
  696MOL0     O95918   8.122   3.963  10.779  0.3833  0.2341  0.4447
  696MOL0     C95919   8.221   3.909  10.864  0.5962 -0.4964 -1.1571
  696MOL0     C95920   8.355   3.941  10.812 -0.3346 -0.5696 -0.1003
  696MOL0     C95921   8.417   3.841  10.712 -0.0206 -0.8334 -0.4590
  696MOL0     C95922   8.544   3.889  10.648 -0.0326  0.1775  0.5415
  696MOL0     C95923   8.613   3.769  10.572 -0.7485  0.7693 -0.1347
  696MOL0     C95924   8.685   3.806  10.441 -0.4226  0.3088  0.8911
  696MOL0     C95925   8.777   3.690  10.395 -0.0626 -0.5826 -0.4409
  696MOL0     C95926   8.850   3.720  10.264 -0.4834 -0.3486 -0.9177
  696MOL0     N95927   8.946   3.618  10.230  0.2404  0.3218 -0.1988
  696MOL0     C95928   8.920   3.481  10.225 -0.3129 -0.5035  1.0035
  696MOL0     C95929   9.034   3.436  10.167 -0.8031 -0.2260  0.0315
  696MOL0     C95930   9.048   3.293  10.120 -0.5190  0.2520 -0.4534
  696MOL0     C95931   9.147   3.195  10.201  0.4996  0.1575  0.8032
  696MOL0     C95932   9.119   3.053  10.178  0.2407  0.6179 -0.3023
  696MOL0     C95933   9.239   2.969  10.154  0.0070  0.3010 -0.2544
  696MOL0     O95934   9.220   2.847  10.080  0.0352  0.3420  0.0915
  696MOL0     C95935   9.320   2.752  10.068  0.7305 -0.6139  0.5124
  696MOL0     C95936   9.289   2.629  10.020  0.2135  0.1251  0.1408
  696MOL0     C95937   9.384   2.527  10.007 -0.2373 -0.1745  0.3268
  696MOL0     C95938   9.338   2.392   9.978  0.9300 -0.2808 -0.2907
  696MOL0     C95939   9.519   2.554  10.035 -0.2938  0.1291 -0.1558
  696MOL0     C95940   9.632   2.463  10.041 -0.8796 -0.0909 -0.0632
  696MOL0     O95941   9.729   2.478  10.130 -0.4828 -0.0703 -0.5917
  696MOL0     C95942   9.816   2.377  10.152  0.3279  0.9062 -0.4598
  696MOL0     C95943   9.862   2.276  10.058 -0.0472  0.0479 -0.1668
  696MOL0     C95944   9.953   2.171  10.092 -1.6763  0.4353 -0.1847
  696MOL0     C95945  10.016   2.178  10.217  0.4686  1.3183 -0.0491
  696MOL0     O95946  10.116   2.092  10.260  0.3291  0.5490  0.2668
  696MOL0     C95947  10.126   1.963  10.194 -0.1706 -0.2345  0.0649
  696MOL0     C95948  10.238   1.873  10.255  0.1775  0.1246  0.3234
  696MOL0     C95949  10.377   1.926  10.228  0.1634  0.2972 -0.6011
  696MOL0     C95950  10.473   1.813  10.263 -0.1511 -0.3020 -0.1275
  696MOL0     C95951  10.472   1.769  10.410 -0.2179 -0.1082 -0.3987
  696MOL0     C95952  10.594   1.676  10.441  0.6155  0.7163 -0.9898
  696MOL0     C95953  10.607   1.630  10.596 -0.3000  0.5675  0.7037
  696MOL0     C95954  10.693   1.504  10.599 -0.0543 -0.5761 -0.3445
  696MOL0    Cl95955  10.574   1.378  10.590 -0.2928  0.1742 -0.0921
  696MOL0     C95956   9.989   2.293  10.301  0.1011  0.1219  0.7675
  696MOL0     C95957   9.880   2.367  10.278  0.3240  0.0851  0.4253
  696MOL0     O95958   9.618   2.381   9.957 -0.0103 -0.1202  0.3846
  696MOL0     C95959   9.548   2.693  10.080 -0.2052 -0.2084 -0.3912
  696MOL0     C95960   9.450   2.781  10.105 -0.2140  0.6474 -0.2792
  696MOL0     N95961   9.130   3.545  10.154  0.6508 -0.1504  0.2423
  696MOL0     N95962   9.066   3.652  10.194 -1.1126 -0.2073  0.5246
  696MOL0     C95963   7.900   3.965  10.690 -0.1144 -1.1062 -0.6786
  696MOL0     C95964   7.771   3.921  10.691  0.5254 -0.9645 -0.7049
  696MOL0     C95965   7.440   3.616  10.836 -0.7633 -1.1369  0.2436
  696MOL0     C95966   7.338   3.707  10.859  0.0862  0.6708 -0.3198
  696MOL0     C95967   7.216   3.677  10.908  0.3575  0.0848  0.0563
  696MOL0     C95968   7.187   3.543  10.936 -0.6130 -0.0495 -0.1667
  696MOL0     O95969   7.071   3.496  10.985  0.5993  1.2529  0.1750
  696MOL0     C95970   6.961   3.575  11.019  0.6956  0.2919 -0.0432
  696MOL0     C95971   6.856   3.484  11.087  0.2313  0.5382 -1.1293
  696MOL0     C95972   6.721   3.545  11.108  0.3615  0.0243  0.0416
  696MOL0     C95973   6.605   3.442  11.146 -0.4048 -0.5810  0.2056
  696MOL0     C95974   6.572   3.348  11.031 -0.2147 -0.5448  0.3552
  696MOL0     C95975   6.537   3.300  10.929  0.0085 -0.4678  1.1321
  696MOL0     C95976   7.290   3.452  10.925  0.2268  0.1857 -0.0878
  696MOL0     C95977   7.423   3.485  10.893  0.1303 -0.1803 -0.7493
  696MOL0     C95978   7.527   3.380  10.890  0.4472  0.5764  0.1465
  696MOL0     H95979   7.768   3.759  10.982 -2.0286 -2.8071 -3.0475
  696MOL0     H95980   8.003   3.828  10.985  3.5144  1.2235 -1.8811
  696MOL0     H95981   8.213   3.799  10.861  3.4763 -0.7673 -1.0875
  696MOL0     H95982   8.196   3.939  10.966 -3.1628  0.0949 -2.0985
  696MOL0     H95983   8.347   4.039  10.765 -2.9575 -0.8233 -0.3270
  696MOL0     H95984   8.424   3.953  10.896  0.0384 -0.5506 -0.4059
  696MOL0     H95985   8.442   3.757  10.778  0.0141 -0.5452 -0.1004
  696MOL0     H95986   8.337   3.807  10.646 -0.5635 -2.6099  1.0083
  696MOL0     H95987   8.510   3.965  10.578 -2.3818 -0.0510  1.3428
  696MOL0     H95988   8.613   3.938  10.717  2.1228 -1.9051  0.0324
  696MOL0     H95989   8.534   3.699  10.542 -2.2525  1.0257  2.8768
  696MOL0     H95990   8.684   3.729  10.645  1.4882  2.5031 -1.2242
  696MOL0     H95991   8.608   3.833  10.368  1.5213 -3.0314 -2.8098
  696MOL0     H95992   8.752   3.892  10.449  1.9705 -1.1543 -1.5839
  696MOL0     H95993   8.719   3.598  10.386  0.4604 -0.9356 -0.2803
  696MOL0     H95994   8.848   3.677  10.477  0.7062  1.1244 -0.7902
  696MOL0     H95995   8.779   3.735  10.182  0.4294 -1.2859 -1.9146
  696MOL0     H95996   8.909   3.811  10.280 -0.0333 -0.7707 -0.1567
  696MOL0     H95997   8.829   3.423  10.243 -1.9446  0.7590 -2.2708
  696MOL0     H95998   9.069   3.287  10.013 -1.0293  0.5405 -0.5759
  696MOL0     H95999   8.950   3.246  10.136  1.2875 -3.6685  0.2919
  696MOL0     H96000   9.251   3.230  10.204  0.0364  1.6286  2.9866
  696MOL0     H96001   9.117   3.227  10.302 -2.8666  1.4635 -0.4942
  696MOL0     H96002   9.067   3.001  10.259  2.0475 -0.8430 -0.0175
  696MOL0     H96003   9.052   3.047  10.092 -0.1171  3.3354 -0.3152
  696MOL0     H96004   9.315   3.030  10.103 -0.3903  0.0572 -1.1634
  696MOL0     H96005   9.289   2.945  10.249  1.5723  1.8535 -0.6276
  696MOL0     H96006   9.185   2.606   9.997  0.9953 -2.3813 -1.2860
  696MOL0     H96007   9.229   2.399   9.969  1.0410  0.9211 -0.8517
  696MOL0     H96008   9.359   2.330  10.066  2.0882  2.1438  1.2328
  696MOL0     H96009   9.379   2.351   9.885 -1.4177  1.5327 -2.2527
  696MOL0     H96010   9.823   2.281   9.957  3.1958 -1.6404 -1.6723
  696MOL0     H96011   9.982   2.094  10.021 -0.0113 -0.9133  1.8394
  696MOL0     H96012  10.031   1.911  10.211 -0.4735 -0.9075 -3.0628
  696MOL0     H96013  10.131   1.962  10.085  0.9190 -2.6677  0.0747
  696MOL0     H96014  10.229   1.853  10.362 -1.6296 -0.1764  0.1449
  696MOL0     H96015  10.209   1.787  10.194 -1.8687  1.4362 -0.6779
  696MOL0     H96016  10.394   2.022  10.277 -2.8431  1.2610 -1.2300
  696MOL0     H96017  10.386   1.964  10.126  1.4700  1.9133  0.0870
  696MOL0     H96018  10.572   1.855  10.241 -0.1982  0.2201  0.6056
  696MOL0     H96019  10.456   1.725  10.201  0.3942 -1.1855  0.9528
  696MOL0     H96020  10.475   1.853  10.480  1.6456 -0.4659  0.0140
  696MOL0     H96021  10.386   1.712  10.447 -0.3974  1.3129  1.5358
  696MOL0     H96022  10.684   1.731  10.412  0.8230  1.6324  1.2281
  696MOL0     H96023  10.599   1.588  10.376  1.1293 -1.2121  1.5031
  696MOL0     H96024  10.507   1.607  10.634  0.5745 -0.9328  2.2289
  696MOL0     H96025  10.648   1.714  10.653 -2.0241  1.5805  0.5310
  696MOL0     H96026  10.755   1.497  10.689  0.4891  0.3076 -0.6349
  696MOL0     H96027  10.756   1.498  10.510 -1.4813  1.2848 -1.5472
  696MOL0     H96028  10.040   2.303  10.395 -0.9794 -1.5932  1.5905
  696MOL0     H96029   9.847   2.432  10.358  1.9351 -1.1673  2.1914
  696MOL0     H96030   9.653   2.713  10.098 -0.3807 -0.3025  0.7943
  696MOL0     H96031   9.484   2.877  10.141 -1.7132  1.4880 -0.9873
  696MOL0     H96032   7.953   4.008  10.606 -0.6652  0.5214 -0.2251
  696MOL0     H96033   7.702   3.936  10.609  0.2050  0.8849 -0.1298
  696MOL0     H96034   7.346   3.805  10.813  0.3259  1.8225  2.0074
  696MOL0     H96035   7.153   3.765  10.918  0.1572  0.1761 -1.7331
  696MOL0     H96036   6.986   3.662  11.081  3.1552  0.3700 -1.0381
  696MOL0     H96037   6.924   3.613  10.923  4.4101 -0.7171 -2.0612
  696MOL0     H96038   6.894   3.447  11.182  1.8457 -0.7381 -2.2200
  696MOL0     H96039   6.845   3.385  11.041 -2.0639 -0.4351  1.2419
  696MOL0     H96040   6.732   3.626  11.181  2.0871 -0.1241 -0.0172
  696MOL0     H96041   6.697   3.577  11.007  1.7846 -3.3542 -1.5254
  696MOL0     H96042   6.517   3.500  11.175 -0.0451 -0.2708  0.6826
  696MOL0     H96043   6.643   3.382  11.228  2.3919  2.5869  1.4471
  696MOL0     H96044   6.516   3.245  10.839 -0.9395 -0.1568  1.1470
  696MOL0     H96045   7.270   3.353  10.964  0.4463 -0.7377 -2.1692
  696MOL0     H96046   7.534   3.320  10.799 -1.1911 -1.2796  1.1838
  696MOL0     H96047   7.626   3.412  10.925  0.4550  0.5313  0.1652
  696MOL0     H96048   7.498   3.303  10.961 -0.2284 -0.0093 -0.7448
  697MOL0     O96049   3.503   3.846   8.299  0.2158 -0.2359 -0.1528
  697MOL0     C96050   3.564   3.747   8.344 -0.4347 -0.0024 -0.3381
  697MOL0     O96051   3.654   3.674   8.271 -0.2470  0.2233  0.1400
  697MOL0     C96052   3.648   3.682   8.136 -0.1586 -0.7290  0.6536
  697MOL0     C96053   3.608   3.575   8.064  0.4239  0.1117 -0.5770
  697MOL0     C96054   3.610   3.572   7.931  0.5419  0.0745  0.5917
  697MOL0     C96055   3.651   3.691   7.854 -0.4974 -0.2429  0.2859
  697MOL0     O96056   3.644   3.675   7.719 -0.0083  0.2100  0.3891
  697MOL0     C96057   3.684   3.788   7.640 -0.5207 -0.4709 -0.4142
  697MOL0     C96058   3.680   3.756   7.492  0.5700 -0.3178 -0.0302
  697MOL0     C96059   3.537   3.778   7.454  0.4835 -0.0265 -0.5699
  697MOL0     C96060   3.543   3.773   7.308  0.2919 -0.7740  0.1775
  697MOL0     C96061   3.409   3.799   7.239  0.4618  0.1595 -0.5398
  697MOL0     C96062   3.372   3.950   7.233  0.2004  0.3043  0.2937
  697MOL0     C96063   3.218   3.975   7.245 -0.1324 -0.1275 -0.1101
  697MOL0     C96064   3.150   3.945   7.112  0.4551 -0.0081  0.2171
  697MOL0     N96065   3.007   3.979   7.119 -0.3050  0.5869  0.7067
  697MOL0     C96066   2.898   3.891   7.136 -0.5596 -0.5773  0.0392
  697MOL0     C96067   2.788   3.972   7.130 -0.4326 -0.8991 -0.7317
  697MOL0     C96068   2.651   3.921   7.154 -0.1549 -0.5324 -0.6086
  697MOL0     C96069   2.543   4.020   7.089 -0.0376  0.3337 -0.8120
  697MOL0     C96070   2.414   3.938   7.100 -0.7112 -0.2047  0.1430
  697MOL0     C96071   2.307   4.032   7.048  0.7626  0.6454 -0.3550
  697MOL0     O96072   2.174   3.982   7.072 -0.5084  0.3459 -0.0693
  697MOL0     C96073   2.131   4.006   7.203 -0.3768 -0.5203  1.0704
  697MOL0     C96074   2.172   4.108   7.298  0.2219  0.0016 -0.3430
  697MOL0     C96075   2.106   4.103   7.427  0.1258  0.2402 -0.4069
  697MOL0     C96076   2.145   4.208   7.529  0.3021 -0.4743 -0.0973
  697MOL0     C96077   2.006   4.012   7.454 -0.3872  0.4451 -0.6262
  697MOL0     C96078   1.938   3.998   7.589  0.9257  1.0728  0.7570
  697MOL0     O96079   1.815   3.924   7.596  0.0866 -0.4237  0.1590
  697MOL0     C96080   1.720   3.930   7.697 -0.3741  0.2174 -0.2792
  697MOL0     C96081   1.608   3.837   7.688  0.9081  0.8622  0.1098
  697MOL0     C96082   1.503   3.840   7.779 -0.2244 -0.4538  0.9933
  697MOL0     C96083   1.495   3.939   7.881 -0.5339  0.8849 -0.3304
  697MOL0     O96084   1.387   3.944   7.964  0.1102  0.2622  0.3024
  697MOL0     C96085   1.416   4.006   8.092 -0.1796  1.0374  0.2034
  697MOL0     C96086   1.297   3.981   8.188 -0.3461 -0.0013 -0.1781
  697MOL0     C96087   1.313   4.062   8.317  0.0698  0.1012 -0.8355
  697MOL0     C96088   1.181   4.070   8.402  0.3868 -0.0650 -0.4528
  697MOL0     C96089   1.212   4.147   8.526 -0.0307 -0.4188 -0.2083
  697MOL0     C96090   1.078   4.203   8.582  0.7534 -0.4156 -0.1745
  697MOL0     C96091   1.085   4.247   8.723  0.8093 -0.7096 -0.3737
  697MOL0     C96092   0.958   4.312   8.786 -0.0429 -0.0683 -1.1173
  697MOL0    Cl96093   0.824   4.192   8.796 -0.2346  0.1593  0.1929
  697MOL0     C96094   1.609   4.029   7.893 -0.6172  0.4421  0.9301
  697MOL0     C96095   1.711   4.031   7.794 -1.4950  0.1664  0.3195
  697MOL0     O96096   1.992   4.044   7.686  0.2171 -0.1326  0.2310
  697MOL0     C96097   1.969   3.923   7.361 -0.3302  0.6532  0.3700
  697MOL0     C96098   2.023   3.922   7.232 -0.6144 -0.2895 -1.0512
  697MOL0     N96099   2.822   4.106   7.110 -0.7886 -0.7980 -0.0223
  697MOL0     N96100   2.952   4.103   7.111  0.4851  0.0181  0.8804
  697MOL0     C96101   3.695   3.802   7.920 -0.5533  1.1207  0.7857
  697MOL0     C96102   3.692   3.802   8.064  0.2397  0.7261  0.0189
  697MOL0     C96103   3.549   3.717   8.489  0.4106 -0.1186  0.7420
  697MOL0     C96104   3.618   3.597   8.530  0.3807  0.3744 -0.4975
  697MOL0     C96105   3.596   3.545   8.658  0.3458  0.5680  0.6265
  697MOL0     C96106   3.506   3.607   8.744  0.0077  0.5990  0.4600
  697MOL0     O96107   3.474   3.546   8.869  0.5078  0.4989  0.0346
  697MOL0     C96108   3.372   3.594   8.955  0.3261 -0.1095  0.0932
  697MOL0     C96109   3.354   3.499   9.076 -0.4325  0.6745  0.1819
  697MOL0     C96110   3.224   3.516   9.155 -0.2033  0.6967 -1.1834
  697MOL0     C96111   3.251   3.462   9.294  0.8341  0.8501 -0.5017
  697MOL0     C96112   3.309   3.557   9.385  0.2127 -0.5528  0.6436
  697MOL0     C96113   3.353   3.629   9.470 -0.1507  0.0632 -0.6124
  697MOL0     C96114   3.442   3.719   8.708 -0.2382  0.0519  0.6009
  697MOL0     C96115   3.469   3.783   8.585  0.0334  0.6768  0.7397
  697MOL0     C96116   3.409   3.918   8.557 -1.0211 -0.4492  0.8953
  697MOL0     H96117   3.568   3.485   8.109 -4.0620  1.9386 -0.3688
  697MOL0     H96118   3.550   3.490   7.893 -1.6299  1.4376  0.8812
  697MOL0     H96119   3.786   3.815   7.669 -0.5924 -2.5813  2.2140
  697MOL0     H96120   3.620   3.873   7.664 -3.2073 -2.0429 -1.5381
  697MOL0     H96121   3.751   3.826   7.446  0.3436  0.6082  0.9700
  697MOL0     H96122   3.709   3.653   7.472 -0.0332 -0.5195  0.1144
  697MOL0     H96123   3.475   3.694   7.486  1.2391  0.3091  2.0694
  697MOL0     H96124   3.494   3.877   7.476  0.0013 -0.7382  2.1590
  697MOL0     H96125   3.636   3.810   7.263  0.4679 -1.4556 -0.0329
  697MOL0     H96126   3.559   3.667   7.290  0.6662 -0.6854 -0.0116
  697MOL0     H96127   3.337   3.747   7.303  0.4533  1.7149  0.7698
  697MOL0     H96128   3.398   3.758   7.138  0.4106  0.2863 -0.5868
  697MOL0     H96129   3.428   3.998   7.314  0.2637  1.4764 -0.4181
  697MOL0     H96130   3.404   3.991   7.136  1.6074  1.4886  1.2253
  697MOL0     H96131   3.194   4.078   7.271 -2.9942 -0.7051 -0.1610
  697MOL0     H96132   3.190   3.903   7.323  0.3079 -0.8988 -0.6462
  697MOL0     H96133   3.198   4.010   7.038  1.2470  1.2500  1.7709
  697MOL0     H96134   3.174   3.842   7.083 -0.2042 -0.3070  0.7072
  697MOL0     H96135   2.904   3.785   7.158  0.2169 -0.3050  1.2189
  697MOL0     H96136   2.628   3.925   7.261 -4.5595 -1.2214 -1.3380
  697MOL0     H96137   2.632   3.821   7.113 -0.4911 -1.5356  1.7689
  697MOL0     H96138   2.537   4.107   7.155 -1.6186 -0.4486  0.1426
  697MOL0     H96139   2.545   4.048   6.983 -1.2917 -0.1189 -0.9721
  697MOL0     H96140   2.424   3.840   7.054  2.0231 -0.5677  1.3128
  697MOL0     H96141   2.386   3.931   7.206 -0.3407 -1.6966  0.1599
  697MOL0     H96142   2.321   4.130   7.095  0.7167 -0.0404  1.1510
  697MOL0     H96143   2.314   4.044   6.939  1.4418 -0.9843 -0.5164
  697MOL0     H96144   2.248   4.182   7.276  1.3201 -0.7900  0.6814
  697MOL0     H96145   2.063   4.251   7.587  1.1813  0.8916  0.1733
  697MOL0     H96146   2.162   4.298   7.469  1.3844  0.8032  2.0190
  697MOL0     H96147   2.237   4.184   7.583  1.4583  1.2466 -1.2033
  697MOL0     H96148   1.607   3.769   7.604  1.9157  1.0231 -0.0520
  697MOL0     H96149   1.421   3.770   7.773  0.6055 -1.7141  3.2454
  697MOL0     H96150   1.504   3.970   8.147 -0.8371 -1.1331 -0.0562
  697MOL0     H96151   1.434   4.112   8.074 -0.9411  1.1973  0.3304
  697MOL0     H96152   1.203   4.013   8.141 -0.0165  1.0299 -0.1540
  697MOL0     H96153   1.289   3.878   8.224  1.1719 -0.8954 -2.2470
  697MOL0     H96154   1.342   4.163   8.286 -1.3395  0.3529 -1.4337
  697MOL0     H96155   1.394   4.024   8.379  1.8065  1.9453 -1.8348
  697MOL0     H96156   1.152   3.965   8.411 -2.0169  0.2055 -3.3217
  697MOL0     H96157   1.104   4.116   8.339 -0.2438  1.2746  1.2472
  697MOL0     H96158   1.261   4.072   8.589 -0.8049 -2.1484 -1.6001
  697MOL0     H96159   1.300   4.211   8.511  1.6551 -2.7160 -0.8090
  697MOL0     H96160   1.002   4.123   8.577  3.0405 -2.6810 -0.9814
  697MOL0     H96161   1.058   4.291   8.520  1.4860  0.0606  0.2646
  697MOL0     H96162   1.171   4.311   8.746  0.8367 -1.9310  3.7946
  697MOL0     H96163   1.089   4.151   8.776 -0.3431 -0.9169 -0.6380
  697MOL0     H96164   0.935   4.401   8.726  0.7875  0.4007 -0.7556
  697MOL0     H96165   0.989   4.344   8.886  0.1394  1.6649 -1.6916
  697MOL0     H96166   1.608   4.109   7.967 -0.2994  2.5012 -1.1856
  697MOL0     H96167   1.788   4.107   7.801  0.6038 -2.0070  3.1077
  697MOL0     H96168   1.887   3.853   7.372 -0.8122  1.2257  0.4436
  697MOL0     H96169   1.986   3.857   7.154 -2.8679 -2.2699  1.4588
  697MOL0     H96170   3.744   3.887   7.875  1.3834 -1.3033 -2.0815
  697MOL0     H96171   3.727   3.890   8.118 -2.5744  2.9053 -1.4090
  697MOL0     H96172   3.691   3.535   8.479 -0.6073 -3.5313  2.4383
  697MOL0     H96173   3.645   3.451   8.680  0.3215 -0.0093 -1.5183
  697MOL0     H96174   3.393   3.697   8.986 -2.1532 -0.0959  2.0527
  697MOL0     H96175   3.283   3.602   8.892  1.2391 -1.1043 -1.3686
  697MOL0     H96176   3.438   3.521   9.142  1.4506 -1.8672 -1.1567
  697MOL0     H96177   3.369   3.395   9.043 -1.3802  0.9385 -1.2157
  697MOL0     H96178   3.194   3.621   9.164  0.9714  1.3175 -3.6406
  697MOL0     H96179   3.140   3.466   9.107  0.9772 -2.6694 -0.0426
  697MOL0     H96180   3.306   3.367   9.296  0.8042  0.8336 -0.4345
  697MOL0     H96181   3.147   3.446   9.324  0.7027 -0.0030 -1.3446
  697MOL0     H96182   3.395   3.699   9.540 -3.8421  1.4148  0.4763
  697MOL0     H96183   3.385   3.771   8.784  2.8313 -0.2025  3.2979
  697MOL0     H96184   3.361   3.932   8.459 -0.3871  1.1072  0.7892
  697MOL0     H96185   3.333   3.938   8.633  1.0736 -0.8706  3.2097
  697MOL0     H96186   3.486   3.995   8.563  1.0837 -2.4626  1.0972
  698MOL0     O96187   5.938   5.533   4.915 -0.2107  0.8968 -1.2340
  698MOL0     C96188   5.980   5.649   4.912 -0.0450 -0.0268 -0.3214
  698MOL0     O96189   6.020   5.716   5.020  0.0686  0.1809  0.4812
  698MOL0     C96190   6.013   5.646   5.137 -0.0733  0.7399 -1.1434
  698MOL0     C96191   5.902   5.586   5.191  1.6141  0.8739 -0.7851
  698MOL0     C96192   5.904   5.519   5.320  0.3631  0.4220 -0.5150
  698MOL0     C96193   6.016   5.523   5.396 -0.1442  0.4585  0.7519
  698MOL0     O96194   6.036   5.462   5.511 -0.1058  0.3581 -0.1168
  698MOL0     C96195   5.948   5.513   5.618 -0.1450  0.2754  0.9474
  698MOL0     C96196   6.000   5.655   5.659 -0.2087  0.8143  0.2743
  698MOL0     C96197   5.884   5.717   5.742 -0.4414 -0.4407  0.6614
  698MOL0     C96198   5.884   5.873   5.720  0.4225  0.4781 -0.0946
  698MOL0     C96199   5.752   5.943   5.779 -0.1884  0.3064  0.4494
  698MOL0     C96200   5.737   5.945   5.922 -0.1849  0.4833  0.9488
  698MOL0     C96201   5.841   6.033   5.992  0.1846 -0.3504 -0.4787
  698MOL0     C96202   5.828   6.022   6.144  0.1303 -0.4366 -0.5019
  698MOL0     N96203   5.878   5.893   6.186 -0.5588 -0.0831  0.9107
  698MOL0     C96204   6.009   5.852   6.184  0.7434 -0.8893  0.1785
  698MOL0     C96205   6.008   5.717   6.196  0.2971  0.6871  0.2389
  698MOL0     C96206   6.118   5.627   6.212  0.1966 -0.1236  0.2248
  698MOL0     C96207   6.201   5.603   6.094  0.7885 -0.4118 -0.1174
  698MOL0     C96208   6.338   5.558   6.150 -0.3027  1.4374  1.5133
  698MOL0     C96209   6.443   5.523   6.043  0.4978  0.2675 -0.0771
  698MOL0     O96210   6.396   5.413   5.971 -0.1200  0.1725  0.8010
  698MOL0     C96211   6.434   5.409   5.841 -0.2514  0.6212  0.1669
  698MOL0     C96212   6.564   5.386   5.806 -1.1090  0.4152  0.1620
  698MOL0     C96213   6.597   5.397   5.674 -0.9665 -0.2383  0.4196
  698MOL0     C96214   6.737   5.353   5.644 -0.2576  0.3457  0.3994
  698MOL0     C96215   6.500   5.436   5.579  0.1332 -0.1139 -0.2206
  698MOL0     C96216   6.536   5.451   5.434  0.0847  0.3850  0.5441
  698MOL0     O96217   6.437   5.444   5.346  0.1366  0.2269 -0.7994
  698MOL0     C96218   6.455   5.499   5.221  0.3554  0.4651  1.0043
  698MOL0     C96219   6.526   5.611   5.190  0.1550  0.0371  0.7646
  698MOL0     C96220   6.548   5.653   5.059 -0.3834  0.1606  0.1394
  698MOL0     C96221   6.477   5.587   4.951  0.1011  0.3021 -0.1884
  698MOL0     O96222   6.489   5.641   4.826  0.2744 -0.3039 -0.7212
  698MOL0     C96223   6.419   5.583   4.722  0.2421  0.5299  0.3245
  698MOL0     C96224   6.474   5.624   4.583 -0.6399 -0.4159 -0.9176
  698MOL0     C96225   6.626   5.611   4.591 -0.4452  0.6365  0.6373
  698MOL0     C96226   6.680   5.641   4.451 -0.4767  0.5601 -0.3586
  698MOL0     C96227   6.831   5.644   4.438  0.7824  0.6245 -0.6000
  698MOL0     C96228   6.902   5.742   4.539  0.5374 -0.4083  0.7349
  698MOL0     C96229   7.052   5.754   4.515 -0.4310 -0.1892 -0.3508
  698MOL0     C96230   7.079   5.810   4.382  0.6808 -0.3603  0.3044
  698MOL0    Cl96231   6.954   5.946   4.342  0.0205  0.0588  0.8187
  698MOL0     C96232   6.383   5.488   4.988  0.0088 -0.1950 -0.1376
  698MOL0     C96233   6.387   5.439   5.112 -0.4373  0.7128  0.0955
  698MOL0     O96234   6.647   5.469   5.398  0.0597 -0.0685 -0.5992
  698MOL0     C96235   6.367   5.454   5.619  0.2034 -0.8609 -0.2401
  698MOL0     C96236   6.339   5.445   5.750 -0.4641  0.2885 -0.1219
  698MOL0     N96237   5.882   5.690   6.237  0.5693 -0.8256 -0.4301
  698MOL0     N96238   5.806   5.790   6.227 -0.4799 -0.4549  0.2920
  698MOL0     C96239   6.123   5.578   5.338  0.7512  0.1642  0.4612
  698MOL0     C96240   6.123   5.637   5.210  0.0414 -0.8075  0.4633
  698MOL0     C96241   5.996   5.712   4.776  0.2672 -0.1273  0.0392
  698MOL0     C96242   6.091   5.816   4.765 -0.5897 -0.5232 -0.1451
  698MOL0     C96243   6.114   5.871   4.642 -0.3862  0.0626  1.2470
  698MOL0     C96244   6.047   5.825   4.522 -0.7181 -0.7055 -0.4614
  698MOL0     O96245   6.101   5.878   4.406  0.1936 -0.2355  0.1053
  698MOL0     C96246   6.069   5.809   4.287 -0.6613  0.7359  0.8920
  698MOL0     C96247   6.149   5.685   4.277 -0.4864  0.6230  0.7143
  698MOL0     C96248   6.110   5.606   4.154 -0.4447 -0.8167  0.1059
  698MOL0     C96249   6.117   5.461   4.188  0.0992  0.1621 -0.0703
  698MOL0     C96250   6.259   5.428   4.212  0.1800  0.0537  0.4280
  698MOL0     C96251   6.378   5.406   4.228 -0.3041  0.0965 -0.4101
  698MOL0     C96252   5.942   5.733   4.538 -1.0267 -0.5725 -0.0462
  698MOL0     C96253   5.917   5.678   4.661  0.4401 -0.1878 -0.7660
  698MOL0     C96254   5.810   5.569   4.668  0.2484 -0.1746  0.7208
  698MOL0     H96255   5.807   5.578   5.138  2.0295 -2.0120 -1.2822
  698MOL0     H96256   5.818   5.480   5.374 -0.5684  1.5715 -1.1252
  698MOL0     H96257   5.966   5.449   5.705 -1.4101 -3.1453 -1.1427
  698MOL0     H96258   5.844   5.507   5.586 -0.4211 -1.7275  2.0685
  698MOL0     H96259   6.090   5.648   5.720  0.0631 -0.3619 -0.2321
  698MOL0     H96260   6.027   5.716   5.572  2.7551 -1.6627 -0.7114
  698MOL0     H96261   5.788   5.683   5.703 -3.0680  5.8921  0.3743
  698MOL0     H96262   5.899   5.708   5.850 -2.0313  2.8334  1.3077
  698MOL0     H96263   5.975   5.911   5.768  0.5899 -1.1467  0.9698
  698MOL0     H96264   5.876   5.898   5.614 -1.5092 -1.5597 -0.5013
  698MOL0     H96265   5.669   5.889   5.733 -0.6219  0.0847  1.4781
  698MOL0     H96266   5.740   6.046   5.742 -1.4929 -0.2136 -0.6820
  698MOL0     H96267   5.631   5.969   5.938 -0.8712 -1.6908  0.1154
  698MOL0     H96268   5.751   5.841   5.952  0.2379  0.8667  2.1439
  698MOL0     H96269   5.830   6.133   5.948 -4.2526 -0.5716 -0.3082
  698MOL0     H96270   5.937   5.987   5.967 -0.4701 -1.9418 -0.1635
  698MOL0     H96271   5.902   6.091   6.185 -0.1621 -0.4447  0.0466
  698MOL0     H96272   5.723   6.046   6.165  0.2962  0.4550 -0.6525
  698MOL0     H96273   6.091   5.923   6.184 -0.5624  0.6767  1.0638
  698MOL0     H96274   6.087   5.539   6.269 -0.8334  0.5194  0.6900
  698MOL0     H96275   6.178   5.670   6.292  0.2570  1.3318 -0.5598
  698MOL0     H96276   6.153   5.526   6.032 -0.5020 -0.0018  0.3414
  698MOL0     H96277   6.230   5.690   6.036 -1.6342 -1.3684 -3.0183
  698MOL0     H96278   6.396   5.633   6.204  3.0220 -0.3959  0.7659
  698MOL0     H96279   6.311   5.466   6.203 -0.0419  0.6530  0.3020
  698MOL0     H96280   6.452   5.612   5.980  1.7433  0.5079  0.4075
  698MOL0     H96281   6.541   5.495   6.084  0.4024  1.4971  1.0712
  698MOL0     H96282   6.633   5.357   5.884  0.9126 -2.4333 -2.4571
  698MOL0     H96283   6.807   5.437   5.653 -0.3605  0.4394  0.3349
  698MOL0     H96284   6.738   5.298   5.550 -3.4425 -0.2829  0.6351
  698MOL0     H96285   6.770   5.282   5.720  1.5505 -1.4847 -1.9367
  698MOL0     H96286   6.576   5.662   5.272 -0.5940 -1.7501  2.4095
  698MOL0     H96287   6.613   5.740   5.056  1.8405 -1.4113 -0.7900
  698MOL0     H96288   6.430   5.474   4.726  1.1665  0.6567  2.4396
  698MOL0     H96289   6.315   5.617   4.726  1.0939  3.4129  0.1302
  698MOL0     H96290   6.448   5.557   4.500  0.1026  1.4647 -2.7460
  698MOL0     H96291   6.449   5.724   4.547  0.2044  0.2804  0.3792
  698MOL0     H96292   6.660   5.518   4.636 -2.5125 -0.5846 -0.1682
  698MOL0     H96293   6.665   5.694   4.651  3.5808  0.9964 -2.1054
  698MOL0     H96294   6.643   5.740   4.422  1.1105  0.7692 -1.8441
  698MOL0     H96295   6.639   5.573   4.377 -1.2703  3.0020 -2.2840
  698MOL0     H96296   6.868   5.541   4.447 -3.2167 -0.8256  1.5552
  698MOL0     H96297   6.844   5.679   4.335  1.9454  1.0651 -0.3190
  698MOL0     H96298   6.894   5.705   4.641  1.5336  1.3135  1.4811
  698MOL0     H96299   6.851   5.839   4.544  0.3027 -0.5037  0.2643
  698MOL0     H96300   7.092   5.653   4.515 -2.2161 -0.9416 -1.4006
  698MOL0     H96301   7.103   5.815   4.590  2.3944 -0.1173 -2.1871
  698MOL0     H96302   7.080   5.730   4.307  4.2995 -0.4346  0.2360
  698MOL0     H96303   7.185   5.839   4.386  0.0854  1.8772  1.6777
  698MOL0     H96304   6.316   5.447   4.912 -0.9640 -2.5624  1.8588
  698MOL0     H96305   6.321   5.355   5.134  0.6134 -0.1184  0.1412
  698MOL0     H96306   6.294   5.483   5.545 -0.6035  2.2442  1.6146
  698MOL0     H96307   6.249   5.471   5.805  0.1129 -1.8442  2.0176
  698MOL0     H96308   6.213   5.585   5.398  0.6761 -2.8073  1.0394
  698MOL0     H96309   6.210   5.696   5.181 -1.1388  1.6210  1.5791
  698MOL0     H96310   6.160   5.839   4.846 -0.6965 -0.5717 -0.0399
  698MOL0     H96311   6.196   5.941   4.628  0.2002 -0.6309  1.1118
  698MOL0     H96312   5.963   5.780   4.287 -0.5551  0.1406 -1.7854
  698MOL0     H96313   6.086   5.865   4.195  0.8748 -3.0151 -1.3002
  698MOL0     H96314   6.136   5.618   4.363 -0.3663  0.6176  0.7294
  698MOL0     H96315   6.254   5.716   4.280 -0.3067 -0.0478  2.0530
  698MOL0     H96316   6.011   5.635   4.118  0.8408  1.8497 -1.6061
  698MOL0     H96317   6.188   5.632   4.081  0.4728  0.8419  1.6116
  698MOL0     H96318   6.083   5.399   4.105 -1.0098  1.1274 -0.3668
  698MOL0     H96319   6.052   5.451   4.276 -0.7892 -0.7410 -0.8189
  698MOL0     H96320   6.483   5.383   4.236  0.5634  3.6882  0.6224
  698MOL0     H96321   5.875   5.704   4.457  0.1505 -0.4394 -1.0998
  698MOL0     H96322   5.753   5.563   4.761  0.0491  1.7872  0.7725
  698MOL0     H96323   5.742   5.566   4.582  2.2671  0.3047 -0.9600
  698MOL0     H96324   5.860   5.472   4.673  1.5211  0.5214  2.7746
  699MOL0     O96325   8.363   6.153   0.074  0.6313  0.0191  0.0616
  699MOL0     C96326   8.321   6.046   0.033 -0.5441 -0.3178  1.0480
  699MOL0     O96327   8.382   5.928   0.040 -0.2557 -0.0190 -0.6564
  699MOL0     C96328   8.480   5.925   0.137  0.6489  0.1057 -0.0894
  699MOL0     C96329   8.455   5.939   0.276  1.4715 -0.5652 -0.9886
  699MOL0     C96330   8.554   5.944   0.364 -0.4003 -0.5018  0.3992
  699MOL0     C96331   8.686   5.949   0.314 -0.1271 -0.2706  0.4000
  699MOL0     O96332   8.788   5.955   0.405  0.3815 -0.4238  0.6173
  699MOL0     C96333   8.853   5.831   0.434 -0.2426  0.5060 -0.1118
  699MOL0     C96334   8.984   5.840   0.516 -0.1384 -0.6693  0.1761
  699MOL0     C96335   9.046   5.974   0.489 -0.1913 -0.0146 -0.3214
  699MOL0     C96336   9.193   5.994   0.533  1.0907 -0.3131  0.1372
  699MOL0     C96337   9.235   6.132   0.474  0.0853 -0.4254  0.2198
  699MOL0     C96338   9.249   6.154   0.327 -0.3844  0.3761 -0.1486
  699MOL0     C96339   9.342   6.058   0.266  0.8133 -0.1215 -0.1059
  699MOL0     C96340   9.462   6.131   0.206 -0.4159  0.3734  0.6468
  699MOL0     N96341   9.577   6.046   0.159  0.7610  0.1148  0.1504
  699MOL0     C96342   9.592   5.913   0.174  0.2134  0.7484  1.0981
  699MOL0     C96343   9.707   5.878   0.112 -0.4017 -0.3069  1.0643
  699MOL0     C96344   9.761   5.738   0.101 -1.1746  0.1957 -0.2440
  699MOL0     C96345   9.870   5.698   0.202 -0.2227  0.1750 -0.3494
  699MOL0     C96346   9.896   5.553   0.227  0.5104 -0.4091  0.6641
  699MOL0     C96347  10.008   5.519   0.321 -0.0016  0.0979 -0.0369
  699MOL0     O96348  10.135   5.576   0.276  0.4611  0.4041 -0.1298
  699MOL0     C96349  10.225   5.622   0.368 -0.3952  0.1830 -1.2003
  699MOL0     C96350  10.362   5.607   0.343 -0.3176 -0.4946  0.0597
  699MOL0     C96351  10.468   5.649   0.435  0.8229  0.4218  0.5808
  699MOL0     C96352  10.595   5.641   0.377  0.0918 -0.2198  0.1571
  699MOL0     C96353  10.429   5.702   0.559 -0.0098 -1.0442  0.1757
  699MOL0     C96354  10.528   5.742   0.666  0.3951  0.0004  0.6309
  699MOL0     O96355  10.636   5.786   0.615 -0.3000  0.4423  1.1540
  699MOL0     C96356  10.739   5.829   0.702 -0.8704 -0.6542 -0.4902
  699MOL0     C96357  10.806   5.735   0.785 -0.0355  0.2269 -0.7117
  699MOL0     C96358  10.923   5.769   0.843 -0.2658 -0.7367 -0.8187
  699MOL0     C96359  10.969   5.903   0.849 -0.7463 -0.0197 -0.2466
  699MOL0     O96360  11.079   5.944   0.924 -0.3013 -0.5980  0.2697
  699MOL0     C96361  11.168   5.846   0.990  1.5967 -0.0404  1.2909
  699MOL0     C96362  11.274   5.788   0.887 -0.1583 -0.0955 -0.3672
  699MOL0     C96363  11.385   5.727   0.971  0.1183 -0.4018 -0.7706
  699MOL0     C96364  11.482   5.830   1.026  1.0542 -0.0081  1.1221
  699MOL0     C96365  11.620   5.802   0.976 -0.4175  0.7487 -0.8701
  699MOL0     C96366  11.719   5.900   1.050 -0.4279 -0.3577  0.6612
  699MOL0     C96367  11.865   5.903   0.996 -0.0621  0.2784  0.3205
  699MOL0     C96368  11.962   6.006   1.050  0.6392  0.1527  0.3019
  699MOL0    Cl96369  11.962   6.038   1.228  0.2181 -0.4300  0.4122
  699MOL0     C96370  10.899   5.996   0.769  0.4300  0.7559  0.2481
  699MOL0     C96371  10.789   5.961   0.691 -0.3525  0.3588 -1.0790
  699MOL0     O96372  10.504   5.723   0.782 -0.0267 -0.5418 -0.1081
  699MOL0     C96373  10.298   5.713   0.591  1.5222 -1.4110 -0.4131
  699MOL0     C96374  10.193   5.674   0.499 -0.6787  0.0813 -0.8035
  699MOL0     N96375   9.762   5.992   0.062 -0.0141 -0.0198  0.8367
  699MOL0     N96376   9.681   6.096   0.084 -0.8124  0.1855  0.3515
  699MOL0     C96377   8.717   5.935   0.176 -0.3129  1.2836 -0.3537
  699MOL0     C96378   8.605   5.919   0.090 -1.3821  0.5159 -0.3909
  699MOL0     C96379   8.192   6.049  -0.024  0.9458 -0.0337 -1.5797
  699MOL0     C96380   8.075   6.227  -0.024 -0.4685  0.5342 -0.6355
  699MOL0     C96381   7.880   6.223  -0.110 -0.4108 -0.1918  0.1915
  699MOL0     C96382   7.805   6.049  -0.191  0.4180  0.8406 -0.2616
  699MOL0     O96383   7.673   6.037  -0.234  0.1679  0.9084 -0.4264
  699MOL0     C96384   7.622   5.920  -0.303  0.2547 -0.2386 -0.3643
  699MOL0     C96385   7.476   5.949  -0.353 -0.1819 -0.0425 -0.9018
  699MOL0     C96386   7.377   5.942  -0.234  0.5939  0.2176 -0.1585
  699MOL0     C96387   7.311   5.802  -0.217 -0.1128  0.0297  0.0379
  699MOL0     C96388   7.237   5.780  -0.095 -0.1109  0.5065 -0.8255
  699MOL0     C96389   7.168   5.770   0.002 -0.4329  0.1307  0.5025
  699MOL0     C96390   7.919   5.871  -0.192 -0.4529 -0.1547 -0.7364
  699MOL0     C96391   8.111   5.872  -0.110 -1.1799  0.4658 -0.9844
  699MOL0     C96392   8.172   5.735  -0.118 -0.2601 -0.3349 -0.6567
  699MOL0     H96393   8.350   5.936   0.306  1.3599 -0.1158 -1.3236
  699MOL0     H96394   8.547   5.962   0.471 -0.8669 -0.1912  0.3173
  699MOL0     H96395   8.880   5.779   0.342 -2.1279 -1.0781  0.1629
  699MOL0     H96396   8.784   5.771   0.493 -1.7258 -0.5621 -2.7567
  699MOL0     H96397   8.972   5.831   0.625  1.2044 -0.6813  0.3449
  699MOL0     H96398   9.048   5.757   0.484 -2.4659 -1.6484 -2.3375
  699MOL0     H96399   9.042   5.986   0.381 -4.6230  3.5848 -0.0677
  699MOL0     H96400   8.983   6.052   0.535 -1.7368 -2.7965  2.7487
  699MOL0     H96401   9.192   5.999   0.642  0.6869  1.4914  0.0743
  699MOL0     H96402   9.259   5.913   0.501  1.3820  0.6513 -1.8434
  699MOL0     H96403   9.331   6.158   0.519  0.0086  1.5309 -0.6150
  699MOL0     H96404   9.165   6.205   0.517  0.3691 -0.8094  1.3648
  699MOL0     H96405   9.153   6.141   0.276 -0.3784 -0.2950  0.0086
  699MOL0     H96406   9.283   6.256   0.308  0.5698  0.3591  1.3205
  699MOL0     H96407   9.298   5.994   0.189  2.4650  1.1535 -2.2303
  699MOL0     H96408   9.389   5.994   0.341  0.4196  0.0164  0.2637
  699MOL0     H96409   9.433   6.179   0.112  1.3471  0.3333  0.0334
  699MOL0     H96410   9.501   6.218   0.260  2.2837 -2.5377  3.8610
  699MOL0     H96411   9.522   5.849   0.227  0.8046  0.5589  1.6580
  699MOL0     H96412   9.800   5.725   0.000  0.7463 -3.1146  0.7870
  699MOL0     H96413   9.681   5.663   0.108 -0.5402 -0.6436 -1.7579
  699MOL0     H96414   9.965   5.731   0.157 -0.6747 -0.7790 -2.0828
  699MOL0     H96415   9.858   5.746   0.300  0.8532 -1.6431  0.7389
  699MOL0     H96416   9.804   5.521   0.277 -2.5515  4.9284 -0.7213
  699MOL0     H96417   9.910   5.497   0.134  2.8125 -0.1141  0.7763
  699MOL0     H96418   9.985   5.552   0.423 -1.4840 -0.5230 -0.1432
  699MOL0     H96419  10.008   5.410   0.332  3.0508  0.0170  0.2403
  699MOL0     H96420  10.379   5.578   0.240 -3.4033  0.7221 -0.9049
  699MOL0     H96421  10.676   5.614   0.446  0.6829  2.0895  0.4642
  699MOL0     H96422  10.613   5.737   0.328 -0.9453 -0.7154 -1.2443
  699MOL0     H96423  10.591   5.575   0.290  0.8966  2.2782 -1.8966
  699MOL0     H96424  10.771   5.635   0.809  2.1770 -1.0091 -2.3506
  699MOL0     H96425  10.965   5.700   0.916 -1.3389 -0.8681 -0.3187
  699MOL0     H96426  11.223   5.900   1.069  3.0358 -1.5969  1.4174
  699MOL0     H96427  11.111   5.758   1.020 -2.4524  1.3176 -1.6100
  699MOL0     H96428  11.221   5.716   0.824  1.8762  0.0220 -2.3560
  699MOL0     H96429  11.307   5.867   0.818  0.8909  0.4295  0.6938
  699MOL0     H96430  11.434   5.660   0.899 -0.8091 -0.8137 -1.0392
  699MOL0     H96431  11.344   5.662   1.048 -3.7865 -2.3360 -4.0873
  699MOL0     H96432  11.483   5.841   1.135 -0.6696  0.3692  1.1301
  699MOL0     H96433  11.458   5.932   0.995  0.0088 -0.3421  0.8052
  699MOL0     H96434  11.653   5.701   1.002 -1.7560  0.5563  0.1930
  699MOL0     H96435  11.637   5.809   0.868  2.1800  0.4773 -0.5491
  699MOL0     H96436  11.734   5.883   1.157  0.0519 -0.6716  0.5470
  699MOL0     H96437  11.683   6.002   1.033 -2.0359 -1.2077 -1.6462
  699MOL0     H96438  11.868   5.915   0.887  0.4498 -0.1802  0.2738
  699MOL0     H96439  11.908   5.803   1.010 -0.9773  0.1685  2.8479
  699MOL0     H96440  11.924   6.098   1.003 -1.5525 -1.2724 -0.8879
  699MOL0     H96441  12.065   5.987   1.017  0.9136  0.3492  1.0296
  699MOL0     H96442  10.947   6.091   0.745  0.3718  0.2556 -2.0971
  699MOL0     H96443  10.740   6.031   0.624  0.0381  0.8893 -0.8123
  699MOL0     H96444  10.271   5.762   0.684  3.0419 -1.4263  0.0567
  699MOL0     H96445  10.090   5.695   0.526 -0.5448  0.4046 -0.5332
  699MOL0     H96446   8.817   5.937   0.134 -0.5919  3.8114 -1.0380
  699MOL0     H96447   8.627   5.912  -0.016  0.3478  2.5844 -0.2527
  699MOL0     H96448   8.110   6.321   0.016 -2.5672  0.3104  2.0169
  699MOL0     H96449   7.825   6.317  -0.111  3.3001  2.2422  1.7677
  699MOL0     H96450   7.685   5.900  -0.391  5.0001 -0.2466  2.6696
  699MOL0     H96451   7.627   5.828  -0.243  0.5043  0.2255  0.3328
  699MOL0     H96452   7.453   5.878  -0.433 -0.7487  0.7528 -1.4630
  699MOL0     H96453   7.474   6.054  -0.384  1.1879  0.8317  1.6822
  699MOL0     H96454   7.438   5.959  -0.145 -0.2861  3.9716 -0.1181
  699MOL0     H96455   7.303   6.022  -0.228 -0.6177 -0.9330  1.1780
  699MOL0     H96456   7.394   5.733  -0.201  0.6079  1.4826  3.7167
  699MOL0     H96457   7.258   5.781  -0.310  4.0033  0.3288 -2.6633
  699MOL0     H96458   7.087   5.769   0.072 -0.8575 -1.6852  0.0261
  699MOL0     H96459   7.871   5.781  -0.230 -0.9258  0.5411 -1.8389
  699MOL0     H96460   8.265   5.742  -0.176  0.8391  1.0286  1.1327
  699MOL0     H96461   8.197   5.709  -0.014 -2.0521 -0.2381 -0.1735
  699MOL0     H96462   8.111   5.668  -0.179 -0.7457  2.5535 -3.5819
  700MOL0     O96463   8.248   8.344   5.734  0.1243  0.5420 -0.1684
  700MOL0     C96464   8.254   8.304   5.624  0.7098 -0.4414  1.2077
  700MOL0     O96465   8.177   8.356   5.524 -0.3278  0.4053  0.1031
  700MOL0     C96466   8.164   8.487   5.517  0.2874  0.2764  1.0047
  700MOL0     C96467   8.114   8.567   5.613 -0.2573  0.6590  0.1611
  700MOL0     C96468   8.113   8.702   5.610  1.5705 -0.3195 -0.3223
  700MOL0     C96469   8.164   8.766   5.497 -0.2130  0.0464  0.2664
  700MOL0     O96470   8.164   8.904   5.505 -0.2351 -0.3814 -0.2720
  700MOL0     C96471   8.230   8.970   5.406  0.4600 -0.8817 -0.1245
  700MOL0     C96472   8.254   9.119   5.444 -0.5763 -0.3845  0.2565
  700MOL0     C96473   8.175   9.221   5.360  1.1342  0.5280  0.2804
  700MOL0     C96474   8.240   9.267   5.236 -0.4860 -0.6878 -0.2422
  700MOL0     C96475   8.146   9.339   5.142 -0.1957 -0.4781  0.0902
  700MOL0     C96476   8.071   9.454   5.211  0.2706 -0.1965  0.5760
  700MOL0     C96477   7.969   9.512   5.112 -0.1802 -0.8218  0.4003
  700MOL0     C96478   7.878   9.630   5.159  0.3944  0.7331  0.1582
  700MOL0     N96479   7.760   9.585   5.228  0.6817 -0.7006  0.0379
  700MOL0     C96480   7.639   9.539   5.176 -0.6810 -1.3283 -0.0994
  700MOL0     C96481   7.561   9.525   5.283  0.7170  0.6055  0.6900
  700MOL0     C96482   7.415   9.485   5.280  0.9654 -0.2147  1.2001
  700MOL0     C96483   7.419   9.328   5.287  0.6152  0.2887  0.5133
  700MOL0     C96484   7.301   9.286   5.355 -0.2853  0.2535 -0.3683
  700MOL0     C96485   7.304   9.138   5.366  0.4825  0.3087 -0.3984
  700MOL0     O96486   7.318   9.080   5.239 -0.0362  0.3964  0.2882
  700MOL0     C96487   7.344   8.943   5.238  0.1577  0.6609 -0.0461
  700MOL0     C96488   7.279   8.871   5.145  0.0918  0.0043  0.6224
  700MOL0     C96489   7.284   8.733   5.135  0.3963 -0.2043 -0.4534
  700MOL0     C96490   7.209   8.668   5.020  0.3336  0.2126 -0.1834
  700MOL0     C96491   7.357   8.661   5.236  0.3238  0.1567 -0.8674
  700MOL0     C96492   7.371   8.516   5.240 -0.0884  0.6238 -0.9587
  700MOL0     O96493   7.421   8.462   5.348  0.6170 -0.3907 -0.8668
  700MOL0     C96494   7.424   8.326   5.358  0.2080  0.8331 -0.1413
  700MOL0     C96495   7.486   8.240   5.268  0.2996 -0.2119  0.6911
  700MOL0     C96496   7.480   8.100   5.279  0.1261  0.3644  0.5644
  700MOL0     C96497   7.409   8.043   5.384 -0.9330 -0.8209 -0.5092
  700MOL0     O96498   7.404   7.907   5.410  0.0160  0.5607  0.1363
  700MOL0     C96499   7.524   7.828   5.374 -0.6306  0.5621 -0.3801
  700MOL0     C96500   7.583   7.764   5.497 -0.1662  0.6690 -1.7399
  700MOL0     C96501   7.677   7.655   5.435 -0.3401  0.0002 -0.6067
  700MOL0     C96502   7.621   7.515   5.424  0.9994 -0.2256 -0.7492
  700MOL0     C96503   7.703   7.421   5.345 -0.8279 -0.5793  0.0314
  700MOL0     C96504   7.704   7.449   5.200  0.4536  1.3862 -0.0103
  700MOL0     C96505   7.586   7.385   5.130  0.1587 -1.0412  0.3382
  700MOL0     C96506   7.473   7.486   5.096 -0.2466 -1.1788  0.2326
  700MOL0    Cl96507   7.523   7.632   4.992 -0.0510  0.0960  0.1955
  700MOL0     C96508   7.354   8.130   5.481  0.3442 -0.9510 -0.7781
  700MOL0     C96509   7.362   8.271   5.469 -0.0547  0.3444 -0.1562
  700MOL0     O96510   7.348   8.453   5.139 -0.2353 -0.2190  0.7079
  700MOL0     C96511   7.405   8.733   5.343 -0.2821  0.6017  0.2723
  700MOL0     C96512   7.408   8.872   5.344 -0.0068 -0.1532 -0.1546
  700MOL0     N96513   7.631   9.563   5.397 -0.5698 -1.1641  0.0530
  700MOL0     N96514   7.745   9.609   5.361 -0.8489  0.4754 -0.5235
  700MOL0     C96515   8.207   8.683   5.387 -0.5920 -0.9359 -0.3884
  700MOL0     C96516   8.207   8.545   5.400  0.6632  0.8221 -0.2263
  700MOL0     C96517   8.343   8.184   5.594  0.5136  0.5865  0.0907
  700MOL0     C96518   8.310   8.103   5.480 -0.6894 -0.3255 -0.9739
  700MOL0     C96519   8.391   7.996   5.442  0.4519 -0.6013 -0.0532
  700MOL0     C96520   8.489   7.952   5.525 -0.2788  0.4014 -0.4633
  700MOL0     O96521   8.567   7.844   5.496 -0.2205  0.3220 -0.5086
  700MOL0     C96522   8.508   7.743   5.409  0.3395  0.0558 -0.4160
  700MOL0     C96523   8.591   7.621   5.443 -0.0157  0.9640  0.3467
  700MOL0     C96524   8.566   7.504   5.348 -0.3833  0.4655  0.7073
  700MOL0     C96525   8.605   7.535   5.202  0.3111  0.3180 -0.1317
  700MOL0     C96526   8.638   7.415   5.127 -0.1463 -0.5378 -0.3078
  700MOL0     C96527   8.689   7.311   5.074  0.2450  0.2420 -0.6091
  700MOL0     C96528   8.505   8.018   5.648 -0.7237 -0.3668  0.2323
  700MOL0     C96529   8.442   8.136   5.674  0.0619  0.4375 -0.5649
  700MOL0     C96530   8.491   8.203   5.803  0.3166 -0.1214  0.7057
  700MOL0     H96531   8.057   8.521   5.693  2.3305  0.4333  2.0084
  700MOL0     H96532   8.086   8.758   5.699  2.3058  0.1401 -0.3818
  700MOL0     H96533   8.166   8.960   5.318  2.1668  0.2703 -1.5609
  700MOL0     H96534   8.317   8.914   5.370  3.9618  3.2242  1.1913
  700MOL0     H96535   8.231   9.125   5.550 -2.5601 -2.4013  0.0138
  700MOL0     H96536   8.359   9.146   5.433 -1.2466  2.0793 -0.8984
  700MOL0     H96537   8.069   9.194   5.351  0.7359  1.7028  1.0638
  700MOL0     H96538   8.174   9.308   5.427  2.5876 -2.3255  4.4550
  700MOL0     H96539   8.327   9.331   5.257 -0.1439 -1.1679 -0.1652
  700MOL0     H96540   8.292   9.182   5.190  2.4967  1.3552 -0.9995
  700MOL0     H96541   8.077   9.270   5.093 -0.1245 -0.5628  0.1082
  700MOL0     H96542   8.201   9.374   5.054 -0.5235  2.5312  0.9658
  700MOL0     H96543   8.019   9.417   5.300 -0.4181  2.4287  1.3488
  700MOL0     H96544   8.137   9.538   5.235 -2.9508  2.6443  0.1998
  700MOL0     H96545   7.910   9.429   5.073 -1.6242  0.1163  0.5100
  700MOL0     H96546   8.024   9.552   5.026 -0.6944 -2.2509 -0.6262
  700MOL0     H96547   7.931   9.700   5.224 -1.5186  2.1331  0.2895
  700MOL0     H96548   7.841   9.681   5.070  0.1925 -0.6722 -0.5946
  700MOL0     H96549   7.615   9.518   5.072 -2.1999 -0.3652  0.0165
  700MOL0     H96550   7.368   9.527   5.190  2.8569  2.2984  1.2652
  700MOL0     H96551   7.364   9.535   5.363  0.0382  3.4208 -1.3026
  700MOL0     H96552   7.429   9.281   5.188 -2.4276 -1.7759  1.0407
  700MOL0     H96553   7.506   9.304   5.349 -1.3269  1.7397  4.0979
  700MOL0     H96554   7.301   9.323   5.458  1.7325 -2.3993  0.6738
  700MOL0     H96555   7.212   9.317   5.299  1.6811  2.2237 -2.6492
  700MOL0     H96556   7.386   9.117   5.435 -0.6887 -1.0708  0.6436
  700MOL0     H96557   7.209   9.105   5.409  0.0708  0.1053 -1.4284
  700MOL0     H96558   7.226   8.926   5.068  1.3685 -1.2307 -1.2419
  700MOL0     H96559   7.281   8.606   4.966  1.5625 -0.0657  1.6803
  700MOL0     H96560   7.165   8.740   4.950 -1.3799  0.5460  1.1517
  700MOL0     H96561   7.125   8.608   5.057 -0.3864  1.4501  0.2482
  700MOL0     H96562   7.545   8.288   5.190  0.8114  0.8517  1.6986
  700MOL0     H96563   7.525   8.050   5.194 -0.3945 -0.2676  0.6586
  700MOL0     H96564   7.500   7.752   5.299  0.3735  1.0805 -1.2515
  700MOL0     H96565   7.598   7.898   5.334 -3.0792  3.8634  0.3709
  700MOL0     H96566   7.646   7.843   5.540  1.3807 -1.0084 -0.7461
  700MOL0     H96567   7.503   7.716   5.554  0.6717  2.7322  1.4110
  700MOL0     H96568   7.763   7.644   5.501 -1.4039  0.0193  0.8377
  700MOL0     H96569   7.709   7.678   5.333 -1.3790 -3.7880 -1.9587
  700MOL0     H96570   7.516   7.522   5.393  1.3157  2.2736 -1.4916
  700MOL0     H96571   7.628   7.481   5.527  2.3181  3.2990  0.4492
  700MOL0     H96572   7.810   7.424   5.370 -0.0423  3.4805 -2.6810
  700MOL0     H96573   7.670   7.319   5.367 -2.1342 -0.3377 -0.7254
  700MOL0     H96574   7.797   7.407   5.162  0.9139  1.1057  1.3401
  700MOL0     H96575   7.711   7.556   5.180  0.4453  1.6602  1.3226
  700MOL0     H96576   7.540   7.303   5.187 -1.5139  1.8485  3.5509
  700MOL0     H96577   7.617   7.343   5.034  1.0004  1.0302 -0.3515
  700MOL0     H96578   7.432   7.529   5.188 -1.9794 -1.0053 -0.5832
  700MOL0     H96579   7.392   7.428   5.049 -0.5839  2.5694 -4.4772
  700MOL0     H96580   7.297   8.089   5.563  1.1640 -1.9682 -0.6987
  700MOL0     H96581   7.310   8.342   5.533  0.6304 -0.1379  0.9594
  700MOL0     H96582   7.459   8.692   5.428  0.6590 -1.5049 -1.2550
  700MOL0     H96583   7.455   8.918   5.430 -0.0804 -0.4386  0.0386
  700MOL0     H96584   8.244   8.731   5.297  0.4203  0.3411  0.6596
  700MOL0     H96585   8.241   8.473   5.326  0.6435  1.2146 -0.6201
  700MOL0     H96586   8.221   8.106   5.418 -1.8044 -2.4952  0.4025
  700MOL0     H96587   8.368   7.946   5.349 -3.7526  0.0635  0.4430
  700MOL0     H96588   8.402   7.729   5.427 -0.0811  3.5327  0.4614
  700MOL0     H96589   8.511   7.771   5.303 -2.3822 -0.4991 -0.7042
  700MOL0     H96590   8.568   7.607   5.549 -2.0145 -0.6460 -0.2381
  700MOL0     H96591   8.696   7.648   5.432  0.1668 -0.0924 -0.7334
  700MOL0     H96592   8.638   7.427   5.376 -0.5351 -0.9294 -2.3615
  700MOL0     H96593   8.463   7.468   5.341 -0.3093  0.1191  1.3023
  700MOL0     H96594   8.686   7.609   5.202  0.0133  0.6588  0.8243
  700MOL0     H96595   8.522   7.590   5.155 -1.1903  0.8456  2.8662
  700MOL0     H96596   8.718   7.223   5.021  0.6823  0.4115 -0.6524
  700MOL0     H96597   8.568   7.973   5.724 -2.3050 -0.4109  1.5774
  700MOL0     H96598   8.516   8.305   5.774  0.7164 -0.1519  0.9282
  700MOL0     H96599   8.412   8.215   5.877 -1.3844  1.6068 -1.2398
  700MOL0     H96600   8.583   8.156   5.841  0.2078 -0.5666  0.4351
  701MOL0     O96601   2.811   1.504   7.777  0.6152 -0.8650 -0.6410
  701MOL0     C96602   2.888   1.539   7.687 -0.5857 -0.3085 -0.4058
  701MOL0     O96603   2.995   1.618   7.710  0.2266  0.0399  0.1865
  701MOL0     C96604   3.045   1.651   7.842 -0.0584 -0.7463  0.2930
  701MOL0     C96605   3.066   1.780   7.885  0.2833 -0.1589  0.4824
  701MOL0     C96606   3.104   1.810   8.008  0.7076 -0.0669 -1.0079
  701MOL0     C96607   3.132   1.701   8.103 -1.3075 -1.6451 -0.4727
  701MOL0     O96608   3.169   1.731   8.232 -0.0924 -0.5846  0.9099
  701MOL0     C96609   3.160   1.866   8.286 -0.3744 -0.0171  0.6124
  701MOL0     C96610   3.290   1.936   8.249  1.0019  0.2925 -0.2679
  701MOL0     C96611   3.409   1.909   8.338  0.2164 -0.7276 -0.5001
  701MOL0     C96612   3.546   1.903   8.265  0.1126  0.3461  0.0604
  701MOL0     C96613   3.651   1.912   8.366 -0.0746 -0.4442 -0.5844
  701MOL0     C96614   3.783   1.927   8.278  0.0991  0.6261  0.3928
  701MOL0     C96615   3.911   1.911   8.359  1.1789 -0.4710 -0.0943
  701MOL0     C96616   4.026   1.961   8.274 -0.4056 -0.1841  1.0879
  701MOL0     N96617   4.157   1.947   8.337  0.8702  0.2649  0.4213
  701MOL0     C96618   4.182   1.890   8.460 -0.7816 -0.0643  0.9456
  701MOL0     C96619   4.322   1.870   8.459  0.1340 -0.7621  1.3860
  701MOL0     C96620   4.411   1.847   8.570  0.3166  0.2764  1.0840
  701MOL0     C96621   4.416   1.954   8.676 -0.1070 -0.6658  0.3640
  701MOL0     C96622   4.293   1.982   8.759 -0.4907 -0.2508  0.4173
  701MOL0     C96623   4.258   1.876   8.851 -1.0877 -0.5138 -0.9337
  701MOL0     O96624   4.217   1.754   8.793  0.0012  0.2064 -0.5657
  701MOL0     C96625   4.090   1.712   8.751  0.1135 -0.4436 -0.9023
  701MOL0     C96626   3.971   1.774   8.800 -0.6296 -0.6010 -1.3772
  701MOL0     C96627   3.843   1.740   8.761 -0.6934 -0.2740  0.5829
  701MOL0     C96628   3.721   1.822   8.808 -0.2682  0.6798 -0.0867
  701MOL0     C96629   3.832   1.636   8.662 -0.2425 -0.0980 -0.0860
  701MOL0     C96630   3.704   1.577   8.607 -0.8818  0.8623  0.5745
  701MOL0     O96631   3.703   1.498   8.495 -0.0851 -0.5041  0.4389
  701MOL0     C96632   3.589   1.448   8.449 -0.0111  1.0639 -0.1221
  701MOL0     C96633   3.552   1.310   8.462 -0.1322  0.3014 -0.4211
  701MOL0     C96634   3.425   1.273   8.412 -1.1957  0.4820  0.2690
  701MOL0     C96635   3.343   1.362   8.341 -0.2875  1.1402 -0.5620
  701MOL0     O96636   3.226   1.318   8.302  1.1640  0.0482 -0.4486
  701MOL0     C96637   3.130   1.304   8.407 -0.2353  0.2874  0.4030
  701MOL0     C96638   2.990   1.341   8.361  0.6037  0.5202  0.4500
  701MOL0     C96639   2.927   1.242   8.261 -0.0701 -0.2453 -0.1935
  701MOL0     C96640   2.813   1.315   8.187  0.3905 -0.6256  0.4659
  701MOL0     C96641   2.740   1.226   8.079 -0.4279 -0.5438 -0.0277
  701MOL0     C96642   2.624   1.297   7.999  1.1006 -0.2454 -0.9385
  701MOL0     C96643   2.513   1.203   7.964  0.0229 -0.4766 -0.1516
  701MOL0     C96644   2.555   1.093   7.867  0.1056 -0.3238 -0.7655
  701MOL0    Cl96645   2.405   0.994   7.831  0.6128  0.3518  0.1958
  701MOL0     C96646   3.383   1.487   8.330  0.6086 -0.6033  0.1822
  701MOL0     C96647   3.499   1.538   8.383  0.2143 -0.4257 -0.5253
  701MOL0     O96648   3.607   1.589   8.679 -1.0720 -0.4590  0.3829
  701MOL0     C96649   3.949   1.569   8.626  0.1751 -0.4699  0.1744
  701MOL0     C96650   4.075   1.597   8.674  0.2173 -0.5768 -0.3498
  701MOL0     N96651   4.369   1.905   8.338  0.0993 -1.1703 -0.1783
  701MOL0     N96652   4.274   1.956   8.266  0.0115  0.4311 -0.5152
  701MOL0     C96653   3.100   1.571   8.060 -0.7306 -0.1069  0.2592
  701MOL0     C96654   3.056   1.547   7.933 -0.1949  0.1920 -0.0702
  701MOL0     C96655   2.860   1.514   7.544 -1.3418 -0.4485  0.5036
  701MOL0     C96656   2.911   1.610   7.450  0.3528 -1.0964 -0.5844
  701MOL0     C96657   2.889   1.590   7.312  0.3269 -0.2445  0.4852
  701MOL0     C96658   2.813   1.484   7.263  0.3628  0.4922  1.4402
  701MOL0     O96659   2.780   1.479   7.136  0.5060 -0.1767  0.5210
  701MOL0     C96660   2.679   1.395   7.074 -0.3228  0.1925 -0.0709
  701MOL0     C96661   2.547   1.467   7.065  0.3302 -0.1021  0.4191
  701MOL0     C96662   2.449   1.380   6.997 -0.5842  0.0806 -0.0556
  701MOL0     C96663   2.345   1.470   6.930 -0.0873  0.2117 -0.8345
  701MOL0     C96664   2.402   1.529   6.804 -0.3579  0.2223 -0.1079
  701MOL0     C96665   2.440   1.597   6.705 -0.6997 -0.5104 -0.1485
  701MOL0     C96666   2.766   1.387   7.349 -0.2175  0.4006  0.2321
  701MOL0     C96667   2.793   1.395   7.492  0.4652  0.9362 -0.6502
  701MOL0     C96668   2.751   1.287   7.588 -0.3700 -0.0511  0.5488
  701MOL0     H96669   3.048   1.870   7.826 -1.7146 -2.0071 -1.9256
  701MOL0     H96670   3.108   1.916   8.031 -2.4843 -0.4121  1.9283
  701MOL0     H96671   3.139   1.874   8.393 -0.6122  1.5688  0.4780
  701MOL0     H96672   3.069   1.919   8.256 -0.7231 -2.5550 -3.6211
  701MOL0     H96673   3.300   1.919   8.141  0.6738  2.3755 -0.6578
  701MOL0     H96674   3.278   2.044   8.260 -2.5953 -0.2265  3.2372
  701MOL0     H96675   3.407   1.988   8.414 -1.0708 -1.2254  0.0057
  701MOL0     H96676   3.389   1.814   8.387 -4.4217  1.3877  2.4147
  701MOL0     H96677   3.560   1.808   8.212 -0.3492 -0.7539  1.8217
  701MOL0     H96678   3.561   1.989   8.199  0.4392 -0.8604 -1.5030
  701MOL0     H96679   3.646   1.822   8.428  1.1728  0.2653  0.6215
  701MOL0     H96680   3.641   2.003   8.426  0.0045 -0.8271  0.0177
  701MOL0     H96681   3.790   1.855   8.197 -1.9480  0.7765  0.0249
  701MOL0     H96682   3.787   2.029   8.238 -2.5261  0.6366 -0.0241
  701MOL0     H96683   3.924   1.809   8.399 -2.0279 -1.0380 -0.1760
  701MOL0     H96684   3.899   1.977   8.446 -3.4116 -1.6498  0.4752
  701MOL0     H96685   4.029   1.902   8.182  0.0959  0.2496  0.8161
  701MOL0     H96686   4.010   2.063   8.238 -0.2200 -0.9464 -1.3632
  701MOL0     H96687   4.116   1.870   8.544 -2.6870 -2.6788 -1.0194
  701MOL0     H96688   4.509   1.816   8.532  0.2108 -2.3048  2.6804
  701MOL0     H96689   4.393   1.759   8.633  4.3332 -0.9713  0.7715
  701MOL0     H96690   4.491   1.930   8.752 -1.3280  2.7215  2.9169
  701MOL0     H96691   4.437   2.052   8.632 -0.0564  0.3305  2.4913
  701MOL0     H96692   4.307   2.075   8.815  2.5521  1.7426 -3.1845
  701MOL0     H96693   4.207   1.997   8.692  0.1132 -2.5625 -1.0062
  701MOL0     H96694   4.359   1.853   8.888 -0.9022 -0.0971 -1.1688
  701MOL0     H96695   4.190   1.920   8.924  2.1136  0.1307  1.9152
  701MOL0     H96696   3.983   1.857   8.868  0.4340 -1.6705 -0.2035
  701MOL0     H96697   3.629   1.766   8.829  0.1332 -0.2828 -0.8133
  701MOL0     H96698   3.707   1.903   8.735 -1.3543  1.2722  0.7538
  701MOL0     H96699   3.750   1.874   8.899  3.2955 -2.3076  0.7365
  701MOL0     H96700   3.615   1.234   8.507 -1.4189  0.3405  1.5910
  701MOL0     H96701   3.401   1.168   8.431  0.1941  0.1458  0.2688
  701MOL0     H96702   3.144   1.208   8.457 -0.4753 -0.1332 -0.3245
  701MOL0     H96703   3.153   1.373   8.489 -1.6675  0.2760  0.8410
  701MOL0     H96704   2.921   1.352   8.445  0.2788  0.6942  0.1602
  701MOL0     H96705   2.987   1.438   8.310  0.5761  0.5980  0.5988
  701MOL0     H96706   2.879   1.164   8.321 -1.7261  0.7994 -0.0869
  701MOL0     H96707   2.994   1.194   8.189  1.1076  0.4603  0.4207
  701MOL0     H96708   2.857   1.402   8.135 -1.2740  1.4281  2.3389
  701MOL0     H96709   2.743   1.349   8.263 -1.6773 -0.8156 -1.2388
  701MOL0     H96710   2.822   1.192   8.014  0.9264  0.2928  1.1939
  701MOL0     H96711   2.701   1.135   8.125 -1.4548  0.2569  0.7007
  701MOL0     H96712   2.660   1.357   7.914  1.9252 -0.4049 -0.7128
  701MOL0     H96713   2.587   1.371   8.070 -0.5825 -2.6526  0.8530
  701MOL0     H96714   2.430   1.264   7.927  2.5889  2.5130 -1.4613
  701MOL0     H96715   2.464   1.155   8.050  2.5250 -2.1643  0.4326
  701MOL0     H96716   2.619   1.012   7.905 -0.9348 -0.3704  0.9912
  701MOL0     H96717   2.591   1.141   7.776  0.9991  2.3211  0.8723
  701MOL0     H96718   3.330   1.569   8.284  2.0220 -0.2834 -0.9600
  701MOL0     H96719   3.529   1.638   8.354  1.3968 -0.7630 -0.5172
  701MOL0     H96720   3.951   1.476   8.571  0.3532  0.8605 -2.2619
  701MOL0     H96721   4.159   1.530   8.663  1.2646  0.4962  0.8003
  701MOL0     H96722   3.106   1.482   8.123 -1.4616  2.1894  3.8750
  701MOL0     H96723   3.036   1.444   7.905  1.3786 -0.6469  1.6689
  701MOL0     H96724   2.970   1.695   7.484  2.5988 -2.9287  0.4114
  701MOL0     H96725   2.940   1.664   7.251  0.1672  0.2486  0.9424
  701MOL0     H96726   2.721   1.374   6.975  1.7814  1.7028  0.4250
  701MOL0     H96727   2.665   1.296   7.119  2.9929 -1.5653 -2.4368
  701MOL0     H96728   2.566   1.558   7.008  0.4285 -0.1196  0.4245
  701MOL0     H96729   2.508   1.505   7.160  2.5222  0.4233  1.1672
  701MOL0     H96730   2.482   1.304   6.926 -1.1146 -0.7301  0.5495
  701MOL0     H96731   2.409   1.312   7.073  1.8319  0.8668  2.0735
  701MOL0     H96732   2.308   1.546   7.000 -1.9121 -2.3909  1.2282
  701MOL0     H96733   2.262   1.414   6.889  1.0589 -1.1512 -1.3540
  701MOL0     H96734   2.465   1.652   6.617  1.0904  0.5596  0.9653
  701MOL0     H96735   2.712   1.297   7.321 -0.1661  0.6728 -0.7823
  701MOL0     H96736   2.725   1.192   7.540 -1.4917  1.6606 -2.4119
  701MOL0     H96737   2.821   1.273   7.672 -1.3067 -2.1952  1.0553
  701MOL0     H96738   2.655   1.307   7.636 -0.4818  0.1259  0.2525
  702MOL0     O96739   4.238   6.576   5.418  0.6264 -0.6631  0.0890
  702MOL0     C96740   4.129   6.590   5.366  1.0997  0.6866  0.9062
  702MOL0     O96741   4.066   6.712   5.351 -0.2059 -0.0452  0.3480
  702MOL0     C96742   4.073   6.809   5.451 -0.2135  0.8027  0.6865
  702MOL0     C96743   4.079   6.944   5.406 -0.2354 -0.5379 -0.9156
  702MOL0     C96744   4.096   7.052   5.501  1.3189 -0.3830 -0.6167
  702MOL0     C96745   4.078   7.022   5.638  0.4966  0.0031  0.8476
  702MOL0     O96746   4.083   7.136   5.715  0.5194 -0.4087  0.3687
  702MOL0     C96747   4.100   7.122   5.861 -0.1010  0.3270  0.4304
  702MOL0     C96748   4.238   7.082   5.897 -0.1499  0.3245  0.3700
  702MOL0     C96749   4.341   7.168   5.828 -0.6790 -0.9563  0.2540
  702MOL0     C96750   4.471   7.163   5.899 -0.3415 -0.1835 -0.2097
  702MOL0     C96751   4.593   7.219   5.824  0.2890  0.0478  0.4504
  702MOL0     C96752   4.631   7.150   5.689  0.0887 -0.9472 -0.9577
  702MOL0     C96753   4.780   7.167   5.664 -0.0501  0.5934  0.6449
  702MOL0     C96754   4.837   7.090   5.539  0.1228 -0.4837  0.5605
  702MOL0     N96755   4.781   6.959   5.499 -0.0352  0.8674 -0.3074
  702MOL0     C96756   4.661   6.939   5.429 -0.3950 -0.4877 -0.6049
  702MOL0     C96757   4.653   6.805   5.425  0.8434  0.9280  0.2747
  702MOL0     C96758   4.531   6.726   5.362  0.5304  0.6027 -0.6707
  702MOL0     C96759   4.578   6.676   5.221  0.9501 -0.3356 -0.3870
  702MOL0     C96760   4.476   6.587   5.157  0.1854  0.1464 -0.4612
  702MOL0     C96761   4.509   6.551   5.008  0.1943  0.6568  0.1944
  702MOL0     O96762   4.481   6.675   4.935 -0.6622 -0.2205  1.0128
  702MOL0     C96763   4.591   6.745   4.883 -0.0682 -0.3016  0.2324
  702MOL0     C96764   4.589   6.881   4.902  0.2586 -0.3448  0.2643
  702MOL0     C96765   4.681   6.972   4.860 -0.3077  0.6362  0.0011
  702MOL0     C96766   4.672   7.122   4.887  1.0402  0.9673  0.6285
  702MOL0     C96767   4.797   6.909   4.793  0.1223 -0.5177  1.1392
  702MOL0     C96768   4.918   6.985   4.743  0.0045  0.6037 -0.3303
  702MOL0     O96769   4.944   7.099   4.808  0.5233  0.1431  0.0238
  702MOL0     C96770   5.039   7.194   4.791 -0.3354 -0.8993 -0.3389
  702MOL0     C96771   5.147   7.185   4.702 -0.2239  0.8877 -0.4124
  702MOL0     C96772   5.245   7.282   4.691  0.0824 -0.0584 -0.5881
  702MOL0     C96773   5.229   7.401   4.763 -0.2779 -0.3440  1.1137
  702MOL0     O96774   5.315   7.509   4.770 -0.3176  0.8690  0.0072
  702MOL0     C96775   5.396   7.534   4.650  0.2510 -0.1475 -0.4359
  702MOL0     C96776   5.414   7.690   4.640 -0.2166  1.9707  1.0923
  702MOL0     C96777   5.487   7.735   4.755 -0.6833 -0.4215  0.8223
  702MOL0     C96778   5.504   7.885   4.741  0.1891 -0.5050 -0.8244
  702MOL0     C96779   5.594   7.948   4.853 -0.4450  0.6574 -0.3108
  702MOL0     C96780   5.646   8.086   4.818  0.1878 -0.7698 -0.8718
  702MOL0     C96781   5.758   8.147   4.899  0.7244 -0.8222  0.0170
  702MOL0     C96782   5.799   8.294   4.851 -0.1575 -0.1003 -0.2827
  702MOL0    Cl96783   5.939   8.359   4.958 -0.3390 -0.5509  0.2159
  702MOL0     C96784   5.130   7.418   4.852  0.0403  0.4865 -0.1650
  702MOL0     C96785   5.040   7.314   4.870  0.3981  0.8268 -0.0701
  702MOL0     O96786   4.982   6.936   4.646  0.8303 -0.3073  0.1867
  702MOL0     C96787   4.810   6.770   4.782 -0.6543  0.5578  0.7608
  702MOL0     C96788   4.710   6.680   4.824  0.5161 -0.0289 -0.2556
  702MOL0     N96789   4.763   6.749   5.485  0.5121  0.3902 -0.1137
  702MOL0     N96790   4.835   6.845   5.541  0.1187  0.0086 -0.1191
  702MOL0     C96791   4.068   6.889   5.678 -0.4593  0.0596 -0.1786
  702MOL0     C96792   4.080   6.785   5.588 -0.4704 -0.6342  0.1052
  702MOL0     C96793   4.073   6.486   5.273 -0.2026  0.1111  0.5112
  702MOL0     C96794   4.159   6.395   5.210  1.0325 -0.6296 -0.4248
  702MOL0     C96795   4.119   6.292   5.126 -0.2417 -0.3665  0.7341
  702MOL0     C96796   3.985   6.285   5.090 -0.6582 -0.5916  0.2835
  702MOL0     O96797   3.937   6.190   5.005  0.1455  0.0875  0.8603
  702MOL0     C96798   4.016   6.124   4.912  0.6285 -0.1623  0.1568
  702MOL0     C96799   4.064   6.218   4.797 -0.2641  0.5986  0.1344
  702MOL0     C96800   3.941   6.292   4.733 -0.3293  0.3511  0.2912
  702MOL0     C96801   3.823   6.224   4.672 -0.4095  0.0262  0.7839
  702MOL0     C96802   3.858   6.164   4.546  0.1087  0.0763 -0.1729
  702MOL0     C96803   3.900   6.110   4.446 -0.5290  0.4148 -0.5472
  702MOL0     C96804   3.898   6.385   5.129 -0.6459  0.1712  0.5630
  702MOL0     C96805   3.931   6.481   5.226  0.6618 -0.9366  0.5600
  702MOL0     C96806   3.822   6.570   5.272  0.1289  0.1607  0.9071
  702MOL0     H96807   4.086   6.970   5.301  0.9830  1.0746 -0.4800
  702MOL0     H96808   4.115   7.152   5.466 -1.6112 -0.1795 -1.9030
  702MOL0     H96809   4.026   7.053   5.902  1.6146  0.5504  4.3226
  702MOL0     H96810   4.070   7.212   5.914  1.0011  0.3763  1.0047
  702MOL0     H96811   4.258   7.080   6.004  1.8900 -1.4500  0.0203
  702MOL0     H96812   4.262   6.985   5.852  3.4246  2.2191 -2.3673
  702MOL0     H96813   4.345   7.157   5.720 -0.4319 -0.0804  0.1614
  702MOL0     H96814   4.307   7.271   5.846  1.2139  0.7228 -4.2975
  702MOL0     H96815   4.465   7.209   5.998  2.7673  0.5934 -0.2767
  702MOL0     H96816   4.496   7.056   5.907  0.7030  0.0896  0.2683
  702MOL0     H96817   4.675   7.213   5.896 -1.4399  0.9164  2.6048
  702MOL0     H96818   4.574   7.326   5.811  3.2569  0.3879 -2.3027
  702MOL0     H96819   4.618   7.042   5.700 -3.2803 -0.5154  0.7438
  702MOL0     H96820   4.568   7.202   5.616  3.0397  1.9312 -1.6997
  702MOL0     H96821   4.832   7.136   5.755 -1.7633 -1.5706  0.9966
  702MOL0     H96822   4.804   7.273   5.653 -1.7585  0.8060 -2.1525
  702MOL0     H96823   4.823   7.154   5.451  0.4366 -1.2740 -0.0817
  702MOL0     H96824   4.947   7.089   5.545  0.3664  1.8589 -1.6504
  702MOL0     H96825   4.596   7.018   5.392  2.1690  2.5942  0.9729
  702MOL0     H96826   4.445   6.794   5.354  0.2677  0.1605 -1.6907
  702MOL0     H96827   4.504   6.641   5.425  1.1779  1.3970  0.7292
  702MOL0     H96828   4.592   6.766   5.161 -0.2049  0.2696  0.2349
  702MOL0     H96829   4.668   6.615   5.229  0.5682 -0.6260  2.5698
  702MOL0     H96830   4.481   6.490   5.208 -0.5018  0.5323  0.3751
  702MOL0     H96831   4.377   6.633   5.155  1.6474  3.9118  1.9724
  702MOL0     H96832   4.613   6.517   5.006 -0.0996 -0.2218 -0.6421
  702MOL0     H96833   4.446   6.469   4.974  0.5265 -0.0806  1.2880
  702MOL0     H96834   4.503   6.928   4.950  1.2304  2.1404 -0.2706
  702MOL0     H96835   4.743   7.153   4.964 -0.7348  2.9132  1.5750
  702MOL0     H96836   4.574   7.144   4.931  0.5367 -0.3925  0.2447
  702MOL0     H96837   4.685   7.167   4.788 -0.4123  0.0400 -0.0134
  702MOL0     H96838   5.152   7.098   4.638 -0.0364  0.4336  0.2117
  702MOL0     H96839   5.328   7.275   4.621  2.5460  1.4467  1.9942
  702MOL0     H96840   5.499   7.498   4.660  0.9409  1.9838  0.6743
  702MOL0     H96841   5.343   7.498   4.561 -1.2164  2.1922 -0.6114
  702MOL0     H96842   5.464   7.718   4.547  0.5122 -2.2400  0.0048
  702MOL0     H96843   5.312   7.730   4.637 -2.1853 -2.5093  0.9410
  702MOL0     H96844   5.589   7.698   4.745 -0.4667  0.1902  0.7092
  702MOL0     H96845   5.431   7.706   4.844  2.6798 -3.3687  2.2298
  702MOL0     H96846   5.412   7.941   4.725  0.5714  0.1101 -0.9054
  702MOL0     H96847   5.566   7.897   4.651 -0.3558  0.7860 -1.0444
  702MOL0     H96848   5.542   7.943   4.948  2.0159  2.3708  1.2574
  702MOL0     H96849   5.679   7.880   4.858 -2.4665 -2.0484 -0.6959
  702MOL0     H96850   5.556   8.148   4.819  1.2751  0.8505  0.5238
  702MOL0     H96851   5.675   8.081   4.712  1.1064 -0.6795 -0.6331
  702MOL0     H96852   5.851   8.090   4.897 -0.2411 -2.5256  1.2105
  702MOL0     H96853   5.731   8.157   5.005 -1.0197 -0.9296 -0.3794
  702MOL0     H96854   5.719   8.368   4.865 -0.7441 -0.0455 -3.2721
  702MOL0     H96855   5.833   8.293   4.747  0.5507 -1.1152 -0.0550
  702MOL0     H96856   5.124   7.512   4.904  2.3250 -1.2169  3.5834
  702MOL0     H96857   4.948   7.320   4.927 -1.4647  0.4156 -2.8129
  702MOL0     H96858   4.903   6.732   4.741 -1.1313  1.9563 -1.7994
  702MOL0     H96859   4.730   6.581   4.786  0.5386  0.4895 -1.6452
  702MOL0     H96860   4.060   6.873   5.786  1.8441 -0.8336 -0.0881
  702MOL0     H96861   4.054   6.683   5.615 -2.0379  0.5408  3.7424
  702MOL0     H96862   4.267   6.393   5.222  0.9099 -1.7871  0.7562
  702MOL0     H96863   4.196   6.218   5.106  1.5533  1.4095  0.7298
  702MOL0     H96864   4.103   6.084   4.965  0.2684  0.2236  1.0563
  702MOL0     H96865   3.969   6.038   4.865  0.9407 -0.4450  0.3560
  702MOL0     H96866   4.117   6.154   4.725 -0.3938  1.2433 -0.5447
  702MOL0     H96867   4.134   6.294   4.831 -1.4267  0.3459  3.5026
  702MOL0     H96868   3.901   6.357   4.811  1.9172 -0.1343  1.9559
  702MOL0     H96869   3.997   6.357   4.665  0.8281  0.0220  0.8919
  702MOL0     H96870   3.757   6.310   4.653 -0.1491  0.3006  1.1076
  702MOL0     H96871   3.777   6.147   4.736 -1.8912  0.6041  0.4689
  702MOL0     H96872   3.921   6.061   4.353  3.5492  2.0229 -0.6455
  702MOL0     H96873   3.794   6.387   5.095 -1.0000  1.4587  1.5961
  702MOL0     H96874   3.838   6.673   5.238 -1.9497  0.1721 -0.1821
  702MOL0     H96875   3.721   6.543   5.240  0.3982 -0.6779  0.7248
  702MOL0     H96876   3.821   6.569   5.381 -1.3976 -0.2942  0.9125
  703MOL0     O96877   8.476   4.989  10.492  0.4353 -0.2269  0.6558
  703MOL0     C96878   8.412   5.078  10.429 -0.2900  0.6027  0.0985
  703MOL0     O96879   8.288   5.059  10.367 -0.0439 -0.3953  0.1014
  703MOL0     C96880   8.203   4.966  10.418 -1.2715  1.0171 -0.3183
  703MOL0     C96881   8.193   4.939  10.553 -0.4953 -0.0926 -0.8179
  703MOL0     C96882   8.094   4.859  10.606  1.5702  0.2392  0.4118
  703MOL0     C96883   8.010   4.780  10.523 -0.2361  0.0732 -0.1472
  703MOL0     O96884   7.905   4.696  10.570 -0.1722  0.0343 -0.3137
  703MOL0     C96885   7.928   4.654  10.701  0.7737  0.1492  0.2306
  703MOL0     C96886   7.822   4.553  10.740 -0.2871  0.3497 -0.3972
  703MOL0     C96887   7.850   4.468  10.869  0.1358 -0.7702 -0.1045
  703MOL0     C96888   7.761   4.350  10.901 -0.0884 -0.0392  0.2328
  703MOL0     C96889   7.759   4.303  11.053 -0.0834 -0.3824  0.5496
  703MOL0     C96890   7.897   4.259  11.100  0.4824 -1.0901  0.0724
  703MOL0     C96891   7.904   4.229  11.248  0.4500 -0.2697  0.2726
  703MOL0     C96892   7.827   4.103  11.287 -0.4737 -0.0593  0.4754
  703MOL0     N96893   7.822   4.076  11.432  0.0751 -0.5161  0.3671
  703MOL0     C96894   7.726   4.007  11.500  0.3055 -0.1653 -0.2715
  703MOL0     C96895   7.775   3.986  11.616 -0.1816 -0.0800 -0.3257
  703MOL0     C96896   7.708   3.922  11.731  0.6262 -0.0332  0.0627
  703MOL0     C96897   7.752   3.779  11.753 -0.4202 -0.6762  0.4016
  703MOL0     C96898   7.743   3.684  11.637 -0.2844 -0.3221 -0.4780
  703MOL0     C96899   7.619   3.592  11.651  0.0989 -0.4601 -0.3490
  703MOL0     O96900   7.503   3.660  11.606 -0.3928  0.1647  0.0891
  703MOL0     C96901   7.385   3.594  11.600  0.3668  0.3115 -0.2575
  703MOL0     C96902   7.274   3.667  11.571  0.3591  0.2400 -1.1006
  703MOL0     C96903   7.141   3.614  11.567 -0.0121  0.0851 -0.9315
  703MOL0     C96904   7.016   3.700  11.565  1.3281 -0.1061  0.1948
  703MOL0     C96905   7.143   3.471  11.559 -0.3848  0.1071 -0.0760
  703MOL0     C96906   7.007   3.405  11.542  0.5472  0.0345  0.0193
  703MOL0     O96907   6.998   3.278  11.582  0.2214  0.2776 -0.1611
  703MOL0     C96908   6.887   3.207  11.546  0.6151  0.0835  0.7717
  703MOL0     C96909   6.833   3.199  11.418 -0.3372  0.1240  0.8299
  703MOL0     C96910   6.714   3.119  11.399 -1.1378  0.1223  0.0993
  703MOL0     C96911   6.652   3.055  11.502 -0.1187  0.0479 -0.7880
  703MOL0     O96912   6.535   2.980  11.481  0.2549 -0.6242  0.6084
  703MOL0     C96913   6.542   2.840  11.491 -0.1717  0.2804  0.1888
  703MOL0     C96914   6.455   2.762  11.398  0.7171 -0.8328  0.1448
  703MOL0     C96915   6.310   2.739  11.466 -0.2855 -0.1523 -0.3837
  703MOL0     C96916   6.224   2.861  11.479 -0.4640  0.2998 -0.6020
  703MOL0     C96917   6.085   2.828  11.543  1.2862  0.3887  0.3111
  703MOL0     C96918   5.987   2.743  11.451  0.1426 -1.3669  0.9626
  703MOL0     C96919   5.846   2.716  11.512  0.7062  0.3073  0.2671
  703MOL0     C96920   5.765   2.611  11.430  0.3571 -0.5447 -0.0068
  703MOL0    Cl96921   5.861   2.460  11.413 -0.3304  0.1776 -0.4556
  703MOL0     C96922   6.713   3.054  11.626 -0.1299  0.0167  0.0681
  703MOL0     C96923   6.831   3.136  11.643 -0.6088  0.1550  0.3250
  703MOL0     O96924   6.924   3.454  11.469 -0.4693 -0.1039  0.1346
  703MOL0     C96925   7.252   3.396  11.603  0.1118 -0.0263  0.0943
  703MOL0     C96926   7.376   3.453  11.625 -0.2425  0.0281 -0.6601
  703MOL0     N96927   7.897   4.058  11.625  0.1738 -0.3577  0.0207
  703MOL0     N96928   7.927   4.110  11.516  0.6333 -0.3018  0.0279
  703MOL0     C96929   8.023   4.793  10.384 -0.1175 -1.5710  1.0976
  703MOL0     C96930   8.121   4.891  10.334 -0.4749 -0.2683 -0.2511
  703MOL0     C96931   8.484   5.207  10.410  0.7270  0.6785  0.5023
  703MOL0     C96932   8.622   5.199  10.384 -0.1271 -0.1992 -0.2990
  703MOL0     C96933   8.690   5.318  10.359  0.1960  0.0292 -0.3156
  703MOL0     C96934   8.631   5.442  10.382 -0.3771 -0.2358  0.1425
  703MOL0     O96935   8.719   5.538  10.343  0.0168 -0.4023  0.4206
  703MOL0     C96936   8.685   5.676  10.357  0.1197  0.1924 -0.6460
  703MOL0     C96937   8.768   5.757  10.257  0.0262  0.1800  0.3470
  703MOL0     C96938   8.727   5.725  10.115 -0.2615  0.6826  0.0678
  703MOL0     C96939   8.723   5.845  10.025  0.0919  0.1631  0.3492
  703MOL0     C96940   8.618   5.941  10.064 -0.3585 -1.4938 -0.3910
  703MOL0     C96941   8.529   6.019  10.101  0.1224  0.0778  0.6982
  703MOL0     C96942   8.492   5.444  10.404 -0.5386 -0.2022  1.2705
  703MOL0     C96943   8.417   5.334  10.428  0.1908  0.4220  0.3639
  703MOL0     C96944   8.275   5.346  10.456 -0.9511 -0.3187  1.1070
  703MOL0     H96945   8.252   4.994  10.626 -0.0583  1.2297 -2.1175
  703MOL0     H96946   8.085   4.853  10.714  3.5520  0.8059  0.6450
  703MOL0     H96947   7.912   4.740  10.767 -2.0692 -0.6658  0.7338
  703MOL0     H96948   8.021   4.601  10.727 -1.0899 -1.0936  5.6289
  703MOL0     H96949   7.729   4.607  10.761  1.0209  2.3908  0.5069
  703MOL0     H96950   7.815   4.484  10.655  0.9357 -1.6680  1.0708
  703MOL0     H96951   7.953   4.432  10.862  0.6052 -0.2616  2.7761
  703MOL0     H96952   7.837   4.535  10.955 -1.5796 -1.9798  0.6260
  703MOL0     H96953   7.655   4.363  10.876  0.5274  1.8676 -1.6541
  703MOL0     H96954   7.792   4.270  10.833 -0.9482  1.8050 -2.5279
  703MOL0     H96955   7.685   4.223  11.058 -0.1366 -0.3603  0.1783
  703MOL0     H96956   7.724   4.385  11.117  0.1245 -0.8017  1.2028
  703MOL0     H96957   7.922   4.173  11.037 -1.3777 -0.5066 -1.6001
  703MOL0     H96958   7.966   4.342  11.084 -2.3715  1.8735  1.8555
  703MOL0     H96959   7.861   4.313  11.303 -0.6803  0.1815 -1.2302
  703MOL0     H96960   8.006   4.204  11.278 -0.9717 -2.9838  3.5448
  703MOL0     H96961   7.724   4.118  11.253 -0.4850  0.6000  0.7693
  703MOL0     H96962   7.862   4.016  11.232 -1.3905  0.1672 -0.4910
  703MOL0     H96963   7.628   3.979  11.464  1.5325  0.5445 -4.6829
  703MOL0     H96964   7.600   3.938  11.730  0.6439  0.3432 -2.6076
  703MOL0     H96965   7.752   3.970  11.819  1.8745  0.8566 -1.0151
  703MOL0     H96966   7.854   3.786  11.791  0.3046 -1.6021 -1.2891
  703MOL0     H96967   7.684   3.735  11.827 -0.4704 -0.7387  0.3182
  703MOL0     H96968   7.732   3.739  11.543 -0.3693 -0.7255 -0.7061
  703MOL0     H96969   7.834   3.624  11.640  2.5792  3.3629 -3.5547
  703MOL0     H96970   7.641   3.507  11.585  3.6122  1.3943 -1.8689
  703MOL0     H96971   7.594   3.569  11.755  2.0966  4.4247  1.5008
  703MOL0     H96972   7.278   3.776  11.576  0.2710  0.1832  0.5185
  703MOL0     H96973   6.940   3.664  11.636 -1.5359  1.3369 -1.9138
  703MOL0     H96974   6.969   3.704  11.466  0.2924 -0.3644  0.6560
  703MOL0     H96975   7.048   3.803  11.585  0.3427  1.0607 -3.4936
  703MOL0     H96976   6.895   3.241  11.340 -1.9022 -3.2129 -2.5553
  703MOL0     H96977   6.679   3.104  11.297  0.9042 -1.5839 -0.4030
  703MOL0     H96978   6.645   2.806  11.473 -0.5336  0.2553 -2.2365
  703MOL0     H96979   6.505   2.815  11.591 -2.5142  1.7861 -0.2439
  703MOL0     H96980   6.450   2.810  11.300  2.5636 -0.6689  0.1021
  703MOL0     H96981   6.520   2.675  11.390  4.2131  1.7136 -2.3066
  703MOL0     H96982   6.321   2.687  11.562  0.6622 -0.9559 -0.9059
  703MOL0     H96983   6.262   2.666  11.400  2.3672 -1.9460 -0.5256
  703MOL0     H96984   6.216   2.900  11.377 -2.5772 -0.9139 -0.9662
  703MOL0     H96985   6.276   2.936  11.539 -0.9205  1.3189 -1.4429
  703MOL0     H96986   6.091   2.777  11.639 -1.8732  0.8101  0.8466
  703MOL0     H96987   6.039   2.926  11.554 -1.1816 -0.5249 -1.1357
  703MOL0     H96988   6.038   2.653  11.417  2.7914  1.0702 -2.0784
  703MOL0     H96989   5.965   2.801  11.361 -2.3036  1.3714  3.1081
  703MOL0     H96990   5.790   2.810  11.521 -2.2033 -1.0892 -1.4783
  703MOL0     H96991   5.850   2.676  11.614 -0.1009  3.1829  1.5313
  703MOL0     H96992   5.737   2.643  11.330  1.2389 -0.6641 -0.3036
  703MOL0     H96993   5.672   2.587  11.483  0.6448 -2.7413 -0.3743
  703MOL0     H96994   6.680   2.997  11.712  0.6602  0.1336  0.4669
  703MOL0     H96995   6.890   3.147  11.733 -0.0238 -0.5618  0.0417
  703MOL0     H96996   7.242   3.289  11.618  2.1528  0.0936  3.2685
  703MOL0     H96997   7.442   3.389  11.683 -3.1254 -3.6288 -1.0778
  703MOL0     H96998   7.950   4.753  10.315 -0.1620  2.1804 -1.3526
  703MOL0     H96999   8.141   4.921  10.231 -1.3967 -0.5130 -0.5133
  703MOL0     H97000   8.661   5.098  10.398 -2.2878 -0.9510  0.6753
  703MOL0     H97001   8.795   5.327  10.332  0.2155 -0.0493 -0.2659
  703MOL0     H97002   8.577   5.682  10.342  0.1326 -1.7596 -1.9351
  703MOL0     H97003   8.701   5.707  10.460 -0.0035  0.9700 -0.8591
  703MOL0     H97004   8.875   5.746  10.276  1.3901  0.1436 -5.5243
  703MOL0     H97005   8.750   5.861  10.287  3.0409  1.0488 -0.5263
  703MOL0     H97006   8.803   5.660  10.071  0.4961  1.6669 -0.1210
  703MOL0     H97007   8.628   5.679  10.108  0.5713 -1.2139  0.2418
  703MOL0     H97008   8.705   5.820   9.920 -1.1361 -0.2152  0.6267
  703MOL0     H97009   8.822   5.890  10.032  1.8387 -2.6690 -3.0763
  703MOL0     H97010   8.458   6.095  10.128 -1.1124 -0.8492  0.1293
  703MOL0     H97011   8.443   5.540  10.406 -1.0667 -0.1882 -2.8550
  703MOL0     H97012   8.211   5.313  10.373 -0.5788  0.3319  0.5483
  703MOL0     H97013   8.257   5.276  10.538 -3.5850 -3.4999 -1.8692
  703MOL0     H97014   8.247   5.451  10.467  1.9574  1.0889 -2.6245
  704MOL0     O97015   4.365   3.394  10.788 -0.3758  0.0326 -0.0670
  704MOL0     C97016   4.316   3.419  10.899 -0.4466  1.2526  0.1015
  704MOL0     O97017   4.184   3.398  10.940 -0.3355 -0.0969 -0.4959
  704MOL0     C97018   4.073   3.380  10.858  0.1314  0.1138 -1.0451
  704MOL0     C97019   3.959   3.471  10.861 -0.0724 -0.1312 -0.0604
  704MOL0     C97020   3.860   3.472  10.770  0.3574  0.1761 -0.0102
  704MOL0     C97021   3.868   3.387  10.662  0.5159 -0.9730 -0.8897
  704MOL0     O97022   3.775   3.394  10.558 -0.2657  0.7394  0.0050
  704MOL0     C97023   3.760   3.522  10.504 -0.4481  0.3574 -0.2278
  704MOL0     C97024   3.696   3.497  10.364  0.4046  0.2343  0.6532
  704MOL0     C97025   3.547   3.473  10.373 -0.1945  0.8906 -1.1568
  704MOL0     C97026   3.475   3.473  10.237  0.1930  0.1393  0.5013
  704MOL0     C97027   3.325   3.435  10.265 -0.8518 -0.2314 -0.0585
  704MOL0     C97028   3.271   3.341  10.154 -0.3532 -0.7327 -0.2052
  704MOL0     C97029   3.122   3.301  10.185 -0.5405 -0.2878  0.0471
  704MOL0     C97030   3.080   3.205  10.079 -0.5230 -0.5742  0.0213
  704MOL0     N97031   2.952   3.144  10.125 -0.3339  0.5120 -0.2458
  704MOL0     C97032   2.831   3.183  10.077  0.1354 -0.2285  0.7887
  704MOL0     C97033   2.743   3.094  10.134  0.2750 -0.3900 -0.1082
  704MOL0     C97034   2.597   3.118  10.126 -0.3226 -0.4146  0.2088
  704MOL0     C97035   2.550   3.055  10.002  0.2932 -0.3212  0.1209
  704MOL0     C97036   2.399   3.076   9.985  0.1538 -0.0234  1.1647
  704MOL0     C97037   2.330   2.972   9.904  1.0041  0.5644 -0.8176
  704MOL0     O97038   2.387   2.955   9.780 -0.2334 -0.4344  0.2415
  704MOL0     C97039   2.320   2.884   9.683 -0.4545 -0.0714 -0.3497
  704MOL0     C97040   2.369   2.875   9.550 -0.8484 -0.5739 -0.0223
  704MOL0     C97041   2.319   2.787   9.456 -0.6640 -0.3092 -0.9749
  704MOL0     C97042   2.401   2.767   9.327 -0.6077  0.7114  0.7492
  704MOL0     C97043   2.197   2.726   9.483  0.7005 -0.7100 -0.8917
  704MOL0     C97044   2.121   2.655   9.372  0.7225 -0.2635  0.0196
  704MOL0     O97045   2.026   2.561   9.419  0.3714 -1.5548 -0.4465
  704MOL0     C97046   1.951   2.492   9.325  0.2643 -0.0558 -0.3231
  704MOL0     C97047   1.930   2.357   9.353  0.2755 -0.4374 -0.3300
  704MOL0     C97048   1.839   2.279   9.274 -0.4126 -0.0230  0.6023
  704MOL0     C97049   1.785   2.331   9.158  0.2815 -0.1259  0.1357
  704MOL0     O97050   1.701   2.263   9.078  0.6492 -0.8819  0.7945
  704MOL0     C97051   1.752   2.145   9.022  0.1308  0.0088  0.2705
  704MOL0     C97052   1.873   2.158   8.922  0.1235 -0.0127  0.1063
  704MOL0     C97053   1.840   2.257   8.814 -0.2891  0.3491 -0.4944
  704MOL0     C97054   1.726   2.215   8.728  0.7062 -0.4016 -0.5111
  704MOL0     C97055   1.660   2.312   8.633 -0.6015 -0.3881 -0.3217
  704MOL0     C97056   1.547   2.236   8.563 -0.5809  0.3659 -0.0224
  704MOL0     C97057   1.491   2.323   8.454 -0.4518 -0.2707  0.7967
  704MOL0     C97058   1.353   2.283   8.403  0.7249 -0.1562  0.1794
  704MOL0    Cl97059   1.324   2.110   8.400 -0.1562 -0.1075  0.1429
  704MOL0     C97060   1.816   2.469   9.130  0.5335 -1.2323 -0.3579
  704MOL0     C97061   1.895   2.548   9.213  0.5455  0.3817  1.0020
  704MOL0     O97062   2.130   2.702   9.254 -0.2309  0.4308 -0.3231
  704MOL0     C97063   2.137   2.738   9.606  0.4553 -0.3841  0.3000
  704MOL0     C97064   2.198   2.813   9.710 -0.1333  0.6435  0.4907
  704MOL0     N97065   2.816   3.001  10.211 -0.4814 -0.3457  0.0555
  704MOL0     N97066   2.945   3.032  10.200 -0.0380  0.1720 -0.0455
  704MOL0     C97067   3.976   3.303  10.653 -0.2287  0.4114  0.6098
  704MOL0     C97068   4.078   3.291  10.756  0.3440  0.7061 -0.0758
  704MOL0     C97069   4.392   3.474  11.017 -0.0448  0.3513  0.4332
  704MOL0     C97070   4.377   3.421  11.146  0.0138 -0.3623  0.3615
  704MOL0     C97071   4.435   3.483  11.252 -0.3677 -0.7074 -0.5811
  704MOL0     C97072   4.539   3.581  11.230  0.4444  0.6081 -0.9004
  704MOL0     O97073   4.627   3.619  11.335  0.0594 -0.2149  0.0302
  704MOL0     C97074   4.567   3.698  11.438  0.0107 -0.2155  0.6408
  704MOL0     C97075   4.504   3.831  11.398  0.3945  1.3737 -0.1623
  704MOL0     C97076   4.607   3.904  11.305  0.3916  0.1008 -0.8724
  704MOL0     C97077   4.739   3.917  11.380  0.6380 -0.1287  0.6201
  704MOL0     C97078   4.844   4.004  11.319  0.9341  0.8267  0.2594
  704MOL0     C97079   4.929   4.070  11.263 -0.0042 -0.1153 -0.2193
  704MOL0     C97080   4.576   3.616  11.104  0.0632 -0.5691  0.0522
  704MOL0     C97081   4.496   3.569  11.001 -0.0892  0.2518  0.6977
  704MOL0     C97082   4.539   3.617  10.866 -0.5606  0.9397  0.3396
  704MOL0     H97083   3.958   3.554  10.931  2.7763  2.0995 -2.3968
  704MOL0     H97084   3.778   3.541  10.783  0.9932  1.3227 -1.6501
  704MOL0     H97085   3.858   3.570  10.491 -1.2098  2.2420  0.5810
  704MOL0     H97086   3.704   3.588  10.572  2.4115  2.5145  0.2280
  704MOL0     H97087   3.725   3.588  10.310  0.0316  0.6644  1.1597
  704MOL0     H97088   3.737   3.406  10.321 -0.8559 -1.0087  1.9931
  704MOL0     H97089   3.529   3.375  10.417  0.9348  1.6631  1.2081
  704MOL0     H97090   3.508   3.543  10.448  0.3267  0.0100 -0.0242
  704MOL0     H97091   3.486   3.575  10.198  0.9243  1.5332  4.0245
  704MOL0     H97092   3.519   3.396  10.173  0.5163 -1.5808  2.6590
  704MOL0     H97093   3.271   3.530  10.272 -1.0165 -0.3763  0.6975
  704MOL0     H97094   3.313   3.377  10.357 -0.8593  1.8552  1.3007
  704MOL0     H97095   3.285   3.395  10.060 -0.3730  0.7365  0.6017
  704MOL0     H97096   3.343   3.259  10.158  1.2825  0.5755 -1.2399
  704MOL0     H97097   3.064   3.393  10.200 -0.0945  0.1312 -0.7347
  704MOL0     H97098   3.122   3.251  10.282  2.1608 -1.2430 -0.3772
  704MOL0     H97099   3.062   3.264   9.989  0.3694  0.9665  0.7996
  704MOL0     H97100   3.160   3.134  10.061  1.4295  1.0711  1.6981
  704MOL0     H97101   2.798   3.269  10.020  2.1116  0.9908  1.3783
  704MOL0     H97102   2.566   3.222  10.143 -1.9370 -0.9321  0.6383
  704MOL0     H97103   2.551   3.068  10.212 -2.1355  1.1431  0.2141
  704MOL0     H97104   2.599   3.084   9.909 -3.2850 -0.6310 -2.0711
  704MOL0     H97105   2.563   2.947  10.012  1.3896 -0.1980  0.1452
  704MOL0     H97106   2.346   3.070  10.080  0.6688 -1.2169  1.3890
  704MOL0     H97107   2.388   3.168   9.927 -2.3007  0.2374  1.9119
  704MOL0     H97108   2.314   2.880   9.962 -1.7423  1.2078 -0.4149
  704MOL0     H97109   2.226   3.000   9.888  0.1656 -1.1159  1.1912
  704MOL0     H97110   2.458   2.934   9.527  0.7727 -3.0550 -0.4798
  704MOL0     H97111   2.461   2.676   9.341  0.9121  1.0518 -2.5074
  704MOL0     H97112   2.480   2.843   9.332  2.9800 -2.6641  0.6081
  704MOL0     H97113   2.360   2.757   9.226  1.8353 -0.6112 -0.2112
  704MOL0     H97114   1.975   2.316   9.443 -0.0734  0.0312  0.0625
  704MOL0     H97115   1.830   2.173   9.294 -0.2319 -0.3870 -1.1011
  704MOL0     H97116   1.781   2.076   9.102 -2.2139 -0.9424  0.3837
  704MOL0     H97117   1.658   2.100   8.986  0.0753  0.7604 -0.5647
  704MOL0     H97118   1.966   2.190   8.969  0.5366  1.0879 -1.3921
  704MOL0     H97119   1.894   2.059   8.881  0.3570  0.9082 -2.1214
  704MOL0     H97120   1.929   2.265   8.752  0.1128  1.9774  0.2386
  704MOL0     H97121   1.834   2.359   8.854  0.9111  1.3247 -2.6232
  704MOL0     H97122   1.643   2.177   8.789  0.5026  0.1242 -0.4548
  704MOL0     H97123   1.771   2.138   8.665  0.4333 -2.0043  1.1632
  704MOL0     H97124   1.626   2.395   8.695  0.0123 -1.4317  1.4669
  704MOL0     H97125   1.737   2.357   8.569 -2.2382  2.7516 -0.2455
  704MOL0     H97126   1.472   2.217   8.641 -0.3716 -0.8556 -0.1061
  704MOL0     H97127   1.585   2.142   8.523  0.3883  0.2144  1.2178
  704MOL0     H97128   1.562   2.326   8.370 -4.2478  1.7581 -2.7054
  704MOL0     H97129   1.483   2.425   8.493  1.0661  0.1755  0.0167
  704MOL0     H97130   1.334   2.326   8.304  2.6618  1.7208  0.5546
  704MOL0     H97131   1.273   2.323   8.466 -0.1238 -0.9708 -0.3388
  704MOL0     H97132   1.771   2.512   9.042 -2.7791 -3.7692 -0.0831
  704MOL0     H97133   1.901   2.651   9.178 -0.7054 -0.2289 -1.1358
  704MOL0     H97134   2.038   2.694   9.607  0.4533 -0.5236 -2.0781
  704MOL0     H97135   2.152   2.826   9.807  1.2286 -0.9498  1.4061
  704MOL0     H97136   3.991   3.229  10.574 -2.3352 -0.4888  0.9767
  704MOL0     H97137   4.159   3.219  10.753 -2.1730 -2.3300 -1.6257
  704MOL0     H97138   4.306   3.340  11.162 -4.4908  3.1919  0.3782
  704MOL0     H97139   4.410   3.468  11.357  0.1595  0.2920 -0.2968
  704MOL0     H97140   4.491   3.639  11.490  0.3368 -1.7073 -0.5144
  704MOL0     H97141   4.643   3.711  11.516  0.8276 -3.1679  0.4421
  704MOL0     H97142   4.478   3.886  11.489 -0.1958  1.6845 -0.5120
  704MOL0     H97143   4.417   3.816  11.333  1.2707  3.0658 -1.8451
  704MOL0     H97144   4.616   3.849  11.211 -0.6768 -1.4903 -0.0739
  704MOL0     H97145   4.564   4.004  11.291 -1.4275 -0.5185  0.1080
  704MOL0     H97146   4.786   3.819  11.387  1.7996  0.4050  0.4480
  704MOL0     H97147   4.724   3.962  11.478 -2.0957 -0.7298  0.5638
  704MOL0     H97148   5.007   4.138  11.236  1.3677 -0.4669  2.4765
  704MOL0     H97149   4.661   3.680  11.085  0.1987 -0.0476  2.1296
  704MOL0     H97150   4.588   3.714  10.883  2.3264 -0.6298  1.9890
  704MOL0     H97151   4.605   3.550  10.810  0.7296  2.9156 -0.6245
  704MOL0     H97152   4.461   3.645  10.795  2.1543 -0.5140 -3.5885
  705MOL0     O97153  11.397   3.036   7.726  0.4698 -0.0582 -0.1656
  705MOL0     C97154  11.282   3.048   7.757  0.2816  0.1492 -0.2143
  705MOL0     O97155  11.178   3.035   7.668  0.6492  0.3963  0.3251
  705MOL0     C97156  11.213   3.004   7.536  0.3810 -0.2130 -0.4837
  705MOL0     C97157  11.188   2.874   7.484  0.3835  0.3097 -0.8624
  705MOL0     C97158  11.233   2.840   7.356  0.2512 -0.5802  0.1766
  705MOL0     C97159  11.293   2.928   7.271 -0.5322  0.1394 -0.3341
  705MOL0     O97160  11.358   2.895   7.151 -0.3624  0.0625 -0.7431
  705MOL0     C97161  11.356   2.763   7.080 -0.1534 -0.6748  0.1685
  705MOL0     C97162  11.467   2.666   7.135 -0.3162 -0.1309  0.3003
  705MOL0     C97163  11.611   2.706   7.106 -0.8502 -0.5151  0.2106
  705MOL0     C97164  11.709   2.595   7.125 -0.9068  0.0935  0.1988
  705MOL0     C97165  11.857   2.645   7.113  0.2770  0.7320 -0.2633
  705MOL0     C97166  11.956   2.530   7.128 -0.2555  0.7575  0.7352
  705MOL0     C97167  12.102   2.581   7.111  0.4226  0.8282 -0.3394
  705MOL0     C97168  12.191   2.458   7.068 -1.0681 -0.0845  0.5756
  705MOL0     N97169  12.184   2.334   7.136 -0.3674  0.1068  0.4563
  705MOL0     C97170  12.177   2.333   7.270 -0.3581  0.2872  0.1424
  705MOL0     C97171  12.151   2.202   7.312  0.6090 -0.4403 -0.3134
  705MOL0     C97172  12.149   2.136   7.446  0.2390 -0.2255 -0.8374
  705MOL0     C97173  12.203   2.001   7.431 -0.2782  0.1219 -0.2804
  705MOL0     C97174  12.111   1.894   7.377 -0.3642 -0.2615  0.2373
  705MOL0     C97175  11.985   1.884   7.472  0.3722 -0.4884  0.5754
  705MOL0     O97176  11.922   1.759   7.503 -0.1736  0.0737  0.6086
  705MOL0     C97177  11.853   1.700   7.400  0.5348 -0.5752  0.8473
  705MOL0     C97178  11.812   1.573   7.430 -0.4211  0.4673 -0.3814
  705MOL0     C97179  11.743   1.490   7.339 -0.3979 -0.0848  1.3039
  705MOL0     C97180  11.676   1.362   7.372 -0.2268 -0.0148 -0.8473
  705MOL0     C97181  11.721   1.541   7.204 -0.7613 -0.4635 -0.7092
  705MOL0     C97182  11.647   1.466   7.098 -0.8580  0.0705  0.3185
  705MOL0     O97183  11.558   1.533   7.031  0.3920 -0.3814  0.7533
  705MOL0     C97184  11.446   1.474   6.967 -0.3488 -0.8976 -0.1817
  705MOL0     C97185  11.364   1.379   7.031 -0.1030 -0.3978 -0.0263
  705MOL0     C97186  11.257   1.331   6.968 -0.8360 -0.1277  0.5704
  705MOL0     C97187  11.223   1.363   6.833  0.1095 -0.6979  0.1654
  705MOL0     O97188  11.107   1.306   6.788  0.2038 -0.4305 -0.3512
  705MOL0     C97189  11.041   1.367   6.671  0.7772 -0.0097  0.4133
  705MOL0     C97190  10.891   1.335   6.671  0.6058  0.4895  0.6841
  705MOL0     C97191  10.840   1.193   6.627 -0.7184  0.3697  0.4513
  705MOL0     C97192  10.686   1.181   6.626 -0.4140  0.2502 -0.9251
  705MOL0     C97193  10.637   1.049   6.566  0.4689  0.2085 -0.6206
  705MOL0     C97194  10.490   1.004   6.592 -0.0121  0.0185  1.1462
  705MOL0     C97195  10.395   1.107   6.533  0.0896  1.0625  0.3848
  705MOL0     C97196  10.366   1.076   6.385 -0.1112 -0.2244  0.9439
  705MOL0    Cl97197  10.256   1.207   6.336 -0.1147  0.2146 -0.1335
  705MOL0     C97198  11.296   1.465   6.775 -0.2211 -0.8957  0.6225
  705MOL0     C97199  11.414   1.513   6.836 -0.6898 -0.7291  0.5213
  705MOL0     O97200  11.668   1.347   7.081  0.5945 -0.3589  0.7469
  705MOL0     C97201  11.760   1.679   7.178 -0.8607 -0.3239 -1.0893
  705MOL0     C97202  11.822   1.757   7.275 -0.0572 -0.2936  0.5125
  705MOL0     N97203  12.140   2.129   7.192  0.2835  0.2863 -0.4853
  705MOL0     N97204  12.163   2.206   7.088 -0.1961 -0.0715 -0.0775
  705MOL0     C97205  11.308   3.059   7.318  0.3269 -0.2873 -0.2785
  705MOL0     C97206  11.265   3.098   7.447  0.7059 -0.0521 -0.1014
  705MOL0     C97207  11.240   3.064   7.900 -0.6006 -0.0558 -0.0178
  705MOL0     C97208  11.105   3.035   7.937 -0.5797 -1.0521  0.0175
  705MOL0     C97209  11.073   3.024   8.070  0.9209 -0.7432  0.2293
  705MOL0     C97210  11.164   3.045   8.176  0.6035  0.3253  0.2241
  705MOL0     O97211  11.139   3.048   8.307  0.4001  0.5520 -0.3421
  705MOL0     C97212  11.024   2.993   8.368  0.4632  0.5932 -0.3264
  705MOL0     C97213  10.910   3.090   8.360 -0.1461 -0.2841 -0.1010
  705MOL0     C97214  10.780   3.018   8.405  0.0890 -0.1692  0.4908
  705MOL0     C97215  10.654   3.104   8.412  1.0142  0.3178 -0.0310
  705MOL0     C97216  10.527   3.044   8.453 -0.3486 -0.2136  0.4473
  705MOL0     C97217  10.441   2.984   8.503  0.4414  0.3872  0.1585
  705MOL0     C97218  11.296   3.085   8.143  0.5976  0.6054 -0.6346
  705MOL0     C97219  11.335   3.095   8.007 -0.1193 -0.2239  0.5779
  705MOL0     C97220  11.483   3.131   7.991  0.1773  0.0444 -0.9264
  705MOL0     H97221  11.119   2.808   7.536 -0.6381  2.9345  1.3655
  705MOL0     H97222  11.205   2.744   7.314 -4.7321  0.8583 -0.4997
  705MOL0     H97223  11.378   2.782   6.974 -0.0759  0.4811  0.3771
  705MOL0     H97224  11.259   2.715   7.092  0.4125 -2.4571 -1.8106
  705MOL0     H97225  11.452   2.643   7.241  1.2907 -2.5959  0.0955
  705MOL0     H97226  11.449   2.570   7.085 -0.2837  1.2231 -2.4421
  705MOL0     H97227  11.614   2.735   7.001 -0.5009 -1.0006  0.0778
  705MOL0     H97228  11.634   2.794   7.167 -2.9831  0.6637 -0.5841
  705MOL0     H97229  11.695   2.550   7.224 -1.4459  0.0216  0.0911
  705MOL0     H97230  11.686   2.514   7.055 -1.9114  0.8307 -0.3446
  705MOL0     H97231  11.885   2.715   7.192 -2.7532  2.6447 -0.7333
  705MOL0     H97232  11.867   2.692   7.015  2.3474  3.2633  1.0449
  705MOL0     H97233  11.940   2.474   7.221 -2.7351 -0.9310 -0.5966
  705MOL0     H97234  11.934   2.453   7.054  1.2051  0.0282  1.0235
  705MOL0     H97235  12.136   2.624   7.205 -1.5040 -0.3408  0.9661
  705MOL0     H97236  12.090   2.660   7.036 -0.6119  1.0084 -0.0114
  705MOL0     H97237  12.176   2.432   6.963  0.8451  0.6376  0.0880
  705MOL0     H97238  12.292   2.500   7.067 -0.3051 -1.6079  3.2180
  705MOL0     H97239  12.193   2.414   7.340  0.4402  0.5849 -0.3625
  705MOL0     H97240  12.042   2.138   7.469  0.6400 -1.6108  1.4599
  705MOL0     H97241  12.207   2.186   7.524 -2.0931  0.4238  0.5807
  705MOL0     H97242  12.289   2.004   7.362 -0.0495 -3.1188 -0.2657
  705MOL0     H97243  12.242   1.962   7.526 -1.6918  0.1863  0.3428
  705MOL0     H97244  12.093   1.889   7.269 -1.3442  1.2624  0.3003
  705MOL0     H97245  12.171   1.806   7.401 -0.9575 -0.5599  0.6605
  705MOL0     H97246  12.012   1.920   7.572 -0.0486 -0.5711  0.7227
  705MOL0     H97247  11.908   1.951   7.434 -0.0827 -0.8028  0.9357
  705MOL0     H97248  11.817   1.530   7.529 -2.3093 -1.8115 -1.1914
  705MOL0     H97249  11.689   1.334   7.477  2.3926  0.8376 -0.8655
  705MOL0     H97250  11.720   1.274   7.324 -0.0219 -1.7171  2.2436
  705MOL0     H97251  11.574   1.377   7.335 -0.4285  1.6787  0.2695
  705MOL0     H97252  11.384   1.359   7.136  1.3161 -2.7391 -0.6986
  705MOL0     H97253  11.202   1.251   7.016  1.3090  0.2058  3.8541
  705MOL0     H97254  11.052   1.474   6.651 -1.6064  0.3525  0.6753
  705MOL0     H97255  11.084   1.320   6.582 -2.4934  0.0104 -1.3363
  705MOL0     H97256  10.860   1.357   6.773  2.2874 -0.0849  1.3506
  705MOL0     H97257  10.845   1.409   6.605  1.1482  1.1143  0.9995
  705MOL0     H97258  10.871   1.115   6.697  0.3998 -0.9465 -1.4118
  705MOL0     H97259  10.875   1.158   6.529  0.5439 -0.5162  1.1882
  705MOL0     H97260  10.648   1.268   6.571 -1.0407  0.6572  0.1157
  705MOL0     H97261  10.664   1.193   6.733  0.8657  0.9913 -0.7260
  705MOL0     H97262  10.642   1.039   6.457 -3.5034 -0.5345 -0.8836
  705MOL0     H97263  10.703   0.967   6.598  0.1219  0.4530  0.7845
  705MOL0     H97264  10.482   0.987   6.700  1.3241  0.0939  1.2785
  705MOL0     H97265  10.468   0.912   6.537  1.3115  1.3056 -1.7793
  705MOL0     H97266  10.421   1.213   6.542  3.1488  0.2991  1.7595
  705MOL0     H97267  10.301   1.096   6.586  1.2918 -0.0445  2.4318
  705MOL0     H97268  10.309   0.982   6.380  2.0673 -1.5957  0.8341
  705MOL0     H97269  10.464   1.082   6.338  0.1641  0.2743  1.5801
  705MOL0     H97270  11.269   1.497   6.675 -1.1869 -2.5875  0.3076
  705MOL0     H97271  11.484   1.581   6.788 -2.3551  0.6588 -0.0413
  705MOL0     H97272  11.736   1.727   7.083  0.0262  1.1982 -0.5724
  705MOL0     H97273  11.849   1.858   7.248 -1.0081 -0.1561  0.0309
  705MOL0     H97274  11.341   3.133   7.247 -0.2235 -1.0311 -1.3439
  705MOL0     H97275  11.269   3.204   7.473 -4.3656 -0.4493  3.9607
  705MOL0     H97276  11.033   3.016   7.857  2.5577  0.3901 -3.4321
  705MOL0     H97277  10.969   3.013   8.102  0.8692  1.4083  0.9704
  705MOL0     H97278  11.004   2.893   8.328  0.1428  0.7157 -0.4737
  705MOL0     H97279  11.046   2.963   8.471 -0.8667  4.0490  1.1278
  705MOL0     H97280  10.900   3.139   8.263  3.4135  3.1829  1.0566
  705MOL0     H97281  10.921   3.179   8.422  2.0428 -0.8337  0.3811
  705MOL0     H97282  10.768   2.933   8.337 -4.4953 -0.9402  1.9141
  705MOL0     H97283  10.806   2.980   8.504  1.8101 -1.6020 -0.4540
  705MOL0     H97284  10.635   3.126   8.306 -0.2821 -0.1244  0.0910
  705MOL0     H97285  10.665   3.199   8.465 -0.7673  1.4291 -1.4862
  705MOL0     H97286  10.360   2.929   8.546  0.8386 -1.2811 -1.1322
  705MOL0     H97287  11.361   3.116   8.225  1.0759  1.2346 -1.2330
  705MOL0     H97288  11.552   3.069   8.050 -1.2335 -0.0171  0.7515
  705MOL0     H97289  11.520   3.138   7.888 -0.9489  0.3290 -1.3165
  705MOL0     H97290  11.498   3.232   8.030  2.1070  0.1330 -1.7765
  706MOL0     O97291   5.888   6.370   0.963  0.1437  0.7855 -0.4050
  706MOL0     C97292   5.928   6.256   0.957  1.0877  0.2005  0.6357
  706MOL0     O97293   5.911   6.161   1.053  0.5063 -0.1993 -0.3712
  706MOL0     C97294   5.912   6.179   1.189 -0.1318  0.0335 -0.0784
  706MOL0     C97295   5.949   6.305   1.246  0.2962 -0.3274 -0.6967
  706MOL0     C97296   5.966   6.316   1.385  0.6101  0.2490  0.4647
  706MOL0     C97297   5.943   6.204   1.470 -0.3777  0.7108  0.3425
  706MOL0     O97298   5.966   6.227   1.602  0.1890  0.2331 -0.4349
  706MOL0     C97299   5.889   6.160   1.704 -0.9999  0.6590  0.1889
  706MOL0     C97300   5.938   6.180   1.853  0.6288 -0.4341  0.4676
  706MOL0     C97301   6.092   6.155   1.870 -0.0373  0.5929  1.1640
  706MOL0     C97302   6.127   6.188   2.014 -0.2978  0.5943 -0.0000
  706MOL0     C97303   6.272   6.150   2.046 -0.0583 -0.4193  0.3601
  706MOL0     C97304   6.304   6.220   2.178 -0.7673  0.6297 -0.9093
  706MOL0     C97305   6.451   6.217   2.213 -0.5245 -0.1607  0.4366
  706MOL0     C97306   6.467   6.250   2.361 -0.3149  0.7582  0.6141
  706MOL0     N97307   6.606   6.284   2.388 -0.2760  0.2260 -1.0864
  706MOL0     C97308   6.668   6.405   2.353  0.3216  0.5021 -0.4408
  706MOL0     C97309   6.802   6.399   2.395  0.8160  0.1399 -0.3517
  706MOL0     C97310   6.898   6.513   2.395 -0.3508 -0.2774 -0.6732
  706MOL0     C97311   6.854   6.642   2.326  0.2711  0.2458 -0.0723
  706MOL0     C97312   6.953   6.760   2.320 -0.1169  0.3423  0.0248
  706MOL0     C97313   7.034   6.739   2.187 -0.1938 -0.3499  0.6081
  706MOL0     O97314   7.157   6.669   2.225 -0.1603 -0.1136 -0.0495
  706MOL0     C97315   7.261   6.736   2.297  0.8001 -0.7578 -0.1875
  706MOL0     C97316   7.253   6.875   2.323  0.0276  0.9362 -0.1348
  706MOL0     C97317   7.349   6.931   2.404 -0.4657 -0.4136  0.3862
  706MOL0     C97318   7.329   7.081   2.426 -0.0606  0.7585  0.2590
  706MOL0     C97319   7.471   6.857   2.450  0.0604 -0.4027 -0.6021
  706MOL0     C97320   7.572   6.904   2.555  0.8658  0.1622 -0.3121
  706MOL0     O97321   7.702   6.869   2.536 -0.0260  0.2877  0.7461
  706MOL0     C97322   7.794   6.954   2.585 -0.7918  0.0493  0.2800
  706MOL0     C97323   7.850   6.932   2.708 -0.3652  0.1173 -0.6455
  706MOL0     C97324   7.954   7.025   2.759  0.3218  1.0440 -0.0150
  706MOL0     C97325   8.003   7.126   2.675 -0.1847  1.1424 -0.5249
  706MOL0     O97326   8.102   7.212   2.707 -0.4618  0.6646 -0.6488
  706MOL0     C97327   8.185   7.179   2.822 -0.6928 -0.1565 -0.2696
  706MOL0     C97328   8.316   7.238   2.774 -0.4282 -0.8653  0.1665
  706MOL0     C97329   8.298   7.396   2.772 -0.6314  0.2317 -0.3742
  706MOL0     C97330   8.425   7.470   2.720 -0.1996  0.4979  0.0622
  706MOL0     C97331   8.430   7.621   2.736 -0.1285 -0.9861 -0.2372
  706MOL0     C97332   8.406   7.695   2.601  0.0112 -0.8562  0.7391
  706MOL0     C97333   8.406   7.855   2.622 -0.2001 -0.6582  0.2475
  706MOL0     C97334   8.386   7.924   2.484 -0.6336 -0.6155 -0.6097
  706MOL0    Cl97335   8.394   8.096   2.505 -0.2363  0.2920  0.2324
  706MOL0     C97336   7.950   7.138   2.548  0.8103  0.3157  0.5358
  706MOL0     C97337   7.842   7.062   2.503  0.0139 -0.4122  0.7576
  706MOL0     O97338   7.528   6.965   2.646 -0.3057 -0.7985 -0.6144
  706MOL0     C97339   7.469   6.722   2.418 -0.2351 -0.5967  0.0697
  706MOL0     C97340   7.365   6.664   2.348 -0.1294 -0.0410 -0.5318
  706MOL0     N97341   6.819   6.266   2.438  1.5153  0.2510 -0.3933
  706MOL0     N97342   6.710   6.198   2.429 -0.2381 -0.4199 -0.6039
  706MOL0     C97343   5.892   6.084   1.405 -0.9634 -0.3114 -0.7723
  706MOL0     C97344   5.877   6.065   1.267 -0.5363  0.0562  0.8612
  706MOL0     C97345   6.004   6.214   0.830  0.4676  0.3085 -0.0883
  706MOL0     C97346   6.017   6.074   0.815  0.1531  0.1321  0.4471
  706MOL0     C97347   6.102   6.030   0.715 -0.1310 -0.1833  0.2535
  706MOL0     C97348   6.181   6.107   0.640  0.2964 -0.4855  0.6238
  706MOL0     O97349   6.271   6.050   0.547  0.3645 -0.3840  0.3290
  706MOL0     C97350   6.392   6.123   0.511  0.1304  0.2035 -0.4309
  706MOL0     C97351   6.508   6.018   0.490 -0.2512 -0.7103 -0.3258
  706MOL0     C97352   6.583   5.975   0.618  0.1124  0.4311  0.8231
  706MOL0     C97353   6.483   5.903   0.711  0.1859 -0.6624  0.5979
  706MOL0     C97354   6.556   5.804   0.784  0.1083 -0.0424 -0.2022
  706MOL0     C97355   6.596   5.708   0.854  0.6591 -1.3818  0.6843
  706MOL0     C97356   6.168   6.244   0.655  0.5930 -0.2528 -0.5553
  706MOL0     C97357   6.074   6.305   0.743 -0.4984  0.2469 -0.7491
  706MOL0     C97358   6.093   6.455   0.776  0.3986 -0.7247  0.0184
  706MOL0     H97359   5.987   6.392   1.193  0.4821  0.2487  0.3517
  706MOL0     H97360   6.000   6.407   1.433 -1.2935 -1.0823  4.8708
  706MOL0     H97361   5.883   6.053   1.678  1.9064  0.5819 -0.5467
  706MOL0     H97362   5.788   6.201   1.703 -0.9777  0.7211  0.3594
  706MOL0     H97363   5.916   6.281   1.889  2.1106  2.1680 -4.8598
  706MOL0     H97364   5.883   6.110   1.917 -0.2951 -1.4976 -1.4006
  706MOL0     H97365   6.114   6.051   1.845 -1.0770  1.1530 -2.8974
  706MOL0     H97366   6.147   6.215   1.797  1.5607  0.7148  2.4134
  706MOL0     H97367   6.115   6.292   2.044  3.5263  0.4017  3.1229
  706MOL0     H97368   6.057   6.141   2.084  0.3274  1.4050  1.2063
  706MOL0     H97369   6.327   6.179   1.956  0.4309  0.4457  0.9255
  706MOL0     H97370   6.267   6.041   2.057 -0.9751 -0.3748  0.4034
  706MOL0     H97371   6.266   6.322   2.172  0.2631  1.0038 -1.2518
  706MOL0     H97372   6.258   6.163   2.259 -1.4950  1.5574 -0.6513
  706MOL0     H97373   6.501   6.291   2.149  0.3993 -1.5766 -0.5353
  706MOL0     H97374   6.487   6.116   2.192  1.2617  0.2210  1.4829
  706MOL0     H97375   6.412   6.339   2.394 -1.1258  0.3797  0.3324
  706MOL0     H97376   6.430   6.165   2.420  0.1130  1.9384  2.7066
  706MOL0     H97377   6.617   6.494   2.317 -4.0217 -0.9418  1.5330
  706MOL0     H97378   6.992   6.483   2.348  0.3701 -0.2704  0.7189
  706MOL0     H97379   6.908   6.539   2.501  0.3586 -2.4414 -0.1445
  706MOL0     H97380   6.812   6.627   2.226 -2.8938 -0.0359  1.1793
  706MOL0     H97381   6.765   6.678   2.379  1.2260  0.3843  1.4890
  706MOL0     H97382   6.901   6.856   2.314  0.6634  1.0222  2.7565
  706MOL0     H97383   7.008   6.761   2.415  1.8474 -3.0147 -0.9012
  706MOL0     H97384   6.984   6.682   2.108  1.4072 -0.9958  0.0185
  706MOL0     H97385   7.057   6.835   2.140 -1.0962 -2.2312 -4.2102
  706MOL0     H97386   7.167   6.929   2.286 -2.0230 -0.5992  2.0446
  706MOL0     H97387   7.233   7.118   2.388 -0.1911  1.1552  0.9640
  706MOL0     H97388   7.410   7.133   2.374  0.9872 -0.8121  0.2519
  706MOL0     H97389   7.328   7.105   2.532  1.0739 -1.1407  0.7581
  706MOL0     H97390   7.820   6.846   2.767 -1.8165  0.1946 -1.2405
  706MOL0     H97391   7.978   7.009   2.864  0.6222  1.6287  0.0127
  706MOL0     H97392   8.146   7.219   2.916  0.3309 -0.6751  0.4037
  706MOL0     H97393   8.194   7.071   2.839  0.7108  0.0664  0.5093
  706MOL0     H97394   8.396   7.218   2.847 -0.2801  0.6817  0.4631
  706MOL0     H97395   8.345   7.203   2.675  0.5630  0.5930 -0.1036
  706MOL0     H97396   8.257   7.430   2.867 -1.7631  2.4184 -1.5633
  706MOL0     H97397   8.224   7.417   2.694 -0.7100 -3.2627 -1.3926
  706MOL0     H97398   8.464   7.443   2.622  5.1384  1.5464  1.5723
  706MOL0     H97399   8.501   7.430   2.788  0.2097 -1.1160 -1.2827
  706MOL0     H97400   8.359   7.650   2.813 -0.2404  0.2713 -0.7876
  706MOL0     H97401   8.532   7.650   2.763 -0.9325  3.8301 -1.4174
  706MOL0     H97402   8.314   7.667   2.549  2.7160 -0.7147 -4.8191
  706MOL0     H97403   8.492   7.684   2.535  0.6623  1.2016  1.1468
  706MOL0     H97404   8.502   7.891   2.660 -0.5751  1.6012 -0.7928
  706MOL0     H97405   8.323   7.895   2.680 -0.6561  0.0165 -0.8463
  706MOL0     H97406   8.284   7.906   2.448 -0.5931 -2.4500  0.1088
  706MOL0     H97407   8.460   7.892   2.411  1.4162  5.1157 -1.5485
  706MOL0     H97408   7.985   7.227   2.496  1.5092  0.3119  0.9894
  706MOL0     H97409   7.799   7.085   2.406  0.6066 -0.3463  0.5067
  706MOL0     H97410   7.544   6.650   2.449 -0.2037  0.3405  2.4158
  706MOL0     H97411   7.380   6.557   2.332 -0.8643 -0.4775  1.4384
  706MOL0     H97412   5.862   5.997   1.463 -1.1589  0.4007  0.2143
  706MOL0     H97413   5.852   5.967   1.227  1.5060 -0.1937  0.0588
  706MOL0     H97414   5.967   6.004   0.882  1.5647 -0.1659  1.2328
  706MOL0     H97415   6.117   5.924   0.697  2.2286  0.3514 -1.4133
  706MOL0     H97416   6.378   6.178   0.417 -0.4300 -1.1523 -1.1779
  706MOL0     H97417   6.412   6.196   0.589 -2.6336  2.9258 -2.0484
  706MOL0     H97418   6.582   6.068   0.428 -0.2510  0.0171  0.2550
  706MOL0     H97419   6.469   5.938   0.427  0.0251 -0.0549 -1.3462
  706MOL0     H97420   6.675   5.919   0.600  1.9141  2.6536  2.6445
  706MOL0     H97421   6.621   6.067   0.662  3.0921  0.3244 -1.2124
  706MOL0     H97422   6.417   5.842   0.648 -0.2186 -0.3799  0.7421
  706MOL0     H97423   6.427   5.974   0.772  1.5085  1.8045 -0.9031
  706MOL0     H97424   6.654   5.635   0.906  2.0677 -0.4010  0.5351
  706MOL0     H97425   6.230   6.303   0.587 -1.4505  0.3723 -1.9925
  706MOL0     H97426   6.001   6.513   0.785  1.0058  0.5383 -1.4795
  706MOL0     H97427   6.132   6.471   0.877 -1.6013  1.7146  0.5069
  706MOL0     H97428   6.149   6.499   0.693 -0.9864  1.2250  0.0425
  707MOL0     O97429   5.816  10.779   2.093  0.1162  0.2691 -0.7540
  707MOL0     C97430   5.912  10.772   2.023 -0.1379 -0.0077  0.6073
  707MOL0     O97431   5.914  10.777   1.889 -0.5524  0.0334  0.8600
  707MOL0     C97432   5.798  10.812   1.824  0.2716 -0.5142  0.2737
  707MOL0     C97433   5.679  10.735   1.822 -0.8903  0.6830  0.2268
  707MOL0     C97434   5.570  10.769   1.735 -0.4370  0.4913  0.4242
  707MOL0     C97435   5.565  10.889   1.671 -0.5441 -0.0595  0.5998
  707MOL0     O97436   5.462  10.929   1.590 -0.0792 -0.7474 -0.3667
  707MOL0     C97437   5.337  10.929   1.649 -1.3975  0.0340 -0.2607
  707MOL0     C97438   5.240  10.965   1.535  0.6939 -0.1740 -0.0458
  707MOL0     C97439   5.107  11.005   1.596  0.1633 -0.5489  0.8256
  707MOL0     C97440   5.005  10.992   1.481  0.9683  0.0066 -0.2888
  707MOL0     C97441   4.861  10.959   1.532  1.2818  0.0999 -0.0750
  707MOL0     C97442   4.783  11.089   1.581  0.8743 -1.0230 -0.4930
  707MOL0     C97443   4.753  11.173   1.456  0.2433 -0.2741 -1.4673
  707MOL0     C97444   4.674  11.110   1.354  0.4507  0.8643 -0.1928
  707MOL0     N97445   4.541  11.066   1.396  0.5953 -1.0619 -0.0835
  707MOL0     C97446   4.422  11.140   1.417  0.0727 -0.3932  0.5932
  707MOL0     C97447   4.330  11.052   1.469 -0.7424  0.4873 -0.7349
  707MOL0     C97448   4.200  11.087   1.525 -0.8744 -0.3466 -0.9381
  707MOL0     C97449   4.104  11.130   1.413  0.6240 -0.2153  0.4611
  707MOL0     C97450   3.994  11.214   1.474  0.8841  0.3471 -0.1789
  707MOL0     C97451   4.024  11.360   1.503 -0.4036 -0.4261 -0.4559
  707MOL0     O97452   4.080  11.383   1.633 -0.4923 -0.3121 -0.0974
  707MOL0     C97453   4.139  11.505   1.623 -0.2415 -0.1054  0.6739
  707MOL0     C97454   4.066  11.627   1.635  0.5911  0.1690 -0.4100
  707MOL0     C97455   4.130  11.750   1.629 -0.6163 -0.2880  0.2543
  707MOL0     C97456   4.062  11.874   1.682 -0.3187 -0.3852  0.0335
  707MOL0     C97457   4.264  11.754   1.597 -0.5559  0.0937  0.1809
  707MOL0     C97458   4.339  11.887   1.586  0.0096  0.5812 -0.3257
  707MOL0     O97459   4.345  11.960   1.703 -0.1679  1.1665  0.0190
  707MOL0     C97460   4.434  12.063   1.720 -1.1354  0.4297 -0.2524
  707MOL0     C97461   4.397  12.182   1.792 -0.0410  0.9573  0.7283
  707MOL0     C97462   4.489  12.286   1.814  0.6577  0.2528 -0.8929
  707MOL0     C97463   4.619  12.287   1.759  0.6321 -0.3518  1.0653
  707MOL0     O97464   4.706  12.385   1.780  0.3921 -0.2047 -0.3807
  707MOL0     C97465   4.751  12.406   1.912 -0.6913  0.2768  0.0480
  707MOL0     C97466   4.900  12.430   1.911 -0.3413 -1.0689 -0.9546
  707MOL0     C97467   4.985  12.324   1.848 -1.2204  0.1983 -0.1385
  707MOL0     C97468   5.140  12.359   1.870  0.8777  0.2730 -0.0202
  707MOL0     C97469   5.213  12.222   1.874 -0.1659 -0.6750 -0.9196
  707MOL0     C97470   5.363  12.246   1.914  0.5765 -0.3469 -0.4055
  707MOL0     C97471   5.441  12.339   1.816  0.5825 -1.3141  0.2588
  707MOL0     C97472   5.588  12.333   1.856  0.1210 -0.2684  0.3220
  707MOL0    Cl97473   5.688  12.443   1.749 -0.0241  0.0730  0.0394
  707MOL0     C97474   4.652  12.179   1.676 -0.7395 -0.1437  0.2757
  707MOL0     C97475   4.555  12.070   1.647 -0.4998 -0.1468  0.4672
  707MOL0     O97476   4.395  11.913   1.481  0.3240  0.2403  0.0168
  707MOL0     C97477   4.333  11.638   1.580 -0.6599  0.0042  0.3739
  707MOL0     C97478   4.276  11.515   1.613 -0.9118  0.7037 -0.2999
  707MOL0     N97479   4.393  10.929   1.481  0.7948 -0.3209 -0.0928
  707MOL0     N97480   4.515  10.940   1.440 -0.1195 -0.2705 -0.2976
  707MOL0     C97481   5.682  10.967   1.659 -0.2343 -0.7054 -0.6362
  707MOL0     C97482   5.793  10.926   1.739 -0.6041  0.8469 -0.5642
  707MOL0     C97483   6.042  10.766   2.083  0.3045 -0.2056 -0.0383
  707MOL0     C97484   6.130  10.876   2.076 -0.5331  0.2921  0.5024
  707MOL0     C97485   6.256  10.873   2.138  0.2930  0.3527  0.5439
  707MOL0     C97486   6.301  10.760   2.206 -0.1855 -0.7737 -0.2796
  707MOL0     O97487   6.419  10.781   2.281  0.3408 -0.0965 -0.8498
  707MOL0     C97488   6.468  10.670   2.358  0.3897  0.2045  0.4012
  707MOL0     C97489   6.621  10.687   2.370 -0.2784 -0.2413  0.5538
  707MOL0     C97490   6.670  10.801   2.469 -0.0856  0.2989  0.0948
  707MOL0     C97491   6.629  10.776   2.617 -0.2315 -0.5655 -0.1160
  707MOL0     C97492   6.706  10.665   2.666 -1.0521  0.4171  0.0326
  707MOL0     C97493   6.778  10.575   2.709  1.0688 -0.3303  0.4667
  707MOL0     C97494   6.209  10.651   2.216  0.1269 -0.4192  0.9040
  707MOL0     C97495   6.087  10.654   2.147 -0.2612 -0.1172 -0.6591
  707MOL0     C97496   5.998  10.531   2.156 -0.8871  0.6632  1.3314
  707MOL0     H97497   5.693  10.638   1.869  2.8044  0.2363 -1.4559
  707MOL0     H97498   5.483  10.706   1.721  2.0034 -3.3435  0.9938
  707MOL0     H97499   5.336  11.005   1.728  2.0876 -2.6072  2.6917
  707MOL0     H97500   5.306  10.836   1.698 -0.6257  0.5867  1.3430
  707MOL0     H97501   5.264  11.051   1.473 -0.5421 -0.5232 -1.0595
  707MOL0     H97502   5.223  10.878   1.470 -1.8671  1.7148 -2.1279
  707MOL0     H97503   5.077  10.945   1.682  0.4126  0.3943  1.5866
  707MOL0     H97504   5.103  11.110   1.628 -1.1165  0.2146 -1.6554
  707MOL0     H97505   5.013  11.083   1.420  1.6813 -0.4559 -0.9159
  707MOL0     H97506   5.034  10.912   1.413  1.9247 -0.1217  0.2492
  707MOL0     H97507   4.867  10.889   1.617 -0.3017  1.6660  1.3918
  707MOL0     H97508   4.802  10.906   1.457  1.1087  1.4473 -0.9230
  707MOL0     H97509   4.685  11.063   1.621  0.0945 -0.5325 -2.0250
  707MOL0     H97510   4.839  11.152   1.651  0.6427  2.5352 -3.2394
  707MOL0     H97511   4.844  11.222   1.421  1.6637 -0.3325  1.7442
  707MOL0     H97512   4.693  11.260   1.485  0.3531 -0.7327  0.2768
  707MOL0     H97513   4.665  11.180   1.269  1.1890 -0.4195 -1.3618
  707MOL0     H97514   4.728  11.025   1.313  0.1716 -0.7238  2.5436
  707MOL0     H97515   4.413  11.245   1.390  2.1541 -0.4779 -0.6669
  707MOL0     H97516   4.205  11.165   1.601 -2.3245 -1.1737  0.0798
  707MOL0     H97517   4.157  11.004   1.582  1.2279 -0.4518  0.5694
  707MOL0     H97518   4.154  11.177   1.328 -0.2449  0.7050  0.4399
  707MOL0     H97519   4.058  11.044   1.365 -2.0243  2.2776 -1.8200
  707MOL0     H97520   3.925  11.213   1.390 -3.1306  0.3975  2.8097
  707MOL0     H97521   3.947  11.175   1.565  0.8575 -0.2388 -0.4434
  707MOL0     H97522   4.090  11.395   1.423  1.1624  3.7552  2.2962
  707MOL0     H97523   3.929  11.414   1.503  1.1447  2.7011  2.5870
  707MOL0     H97524   3.960  11.633   1.658  0.1598  1.0526 -2.4083
  707MOL0     H97525   3.955  11.851   1.678  0.0868 -2.2440 -1.4256
  707MOL0     H97526   4.071  11.960   1.614  1.1743 -1.4409 -1.1634
  707MOL0     H97527   4.086  11.908   1.783  2.2135  2.7208 -1.4102
  707MOL0     H97528   4.298  12.186   1.837  0.3775  1.3340  1.6273
  707MOL0     H97529   4.449  12.374   1.863  1.4237  0.7919 -1.2078
  707MOL0     H97530   4.703  12.491   1.960 -1.0149 -0.2904  0.7484
  707MOL0     H97531   4.738  12.314   1.971  0.9533  0.3016  0.5066
  707MOL0     H97532   4.909  12.526   1.860 -2.3065 -0.9697 -1.1943
  707MOL0     H97533   4.937  12.438   2.014  2.2502  0.1298 -1.9104
  707MOL0     H97534   4.964  12.305   1.742  0.9123 -1.2580 -0.3527
  707MOL0     H97535   4.960  12.228   1.893  1.8497 -1.4129 -1.6393
  707MOL0     H97536   5.151  12.396   1.972  0.5312  2.5525 -0.7483
  707MOL0     H97537   5.184  12.433   1.803  0.8845 -1.6974 -2.3361
  707MOL0     H97538   5.174  12.153   1.949 -0.1954  1.6867  1.3848
  707MOL0     H97539   5.209  12.180   1.773  1.5988  1.0312 -1.7613
  707MOL0     H97540   5.414  12.152   1.937  2.6497  0.5214 -1.1997
  707MOL0     H97541   5.364  12.295   2.012  3.2227  0.0719 -0.5680
  707MOL0     H97542   5.405  12.442   1.821  2.2949 -0.5658 -1.4703
  707MOL0     H97543   5.425  12.307   1.713  1.3662  0.9302 -0.6222
  707MOL0     H97544   5.629  12.232   1.848  0.7963  0.1035 -1.1344
  707MOL0     H97545   5.591  12.367   1.960 -0.5486 -2.3821  1.1002
  707MOL0     H97546   4.754  12.170   1.639  0.2583  1.3936  2.4235
  707MOL0     H97547   4.589  11.996   1.576  0.9740  1.0362 -0.1125
  707MOL0     H97548   4.440  11.643   1.562 -0.3391 -1.8928  1.4713
  707MOL0     H97549   4.340  11.428   1.601 -3.4183 -0.9894 -2.2554
  707MOL0     H97550   5.687  11.063   1.608  1.0374 -0.9659 -1.0539
  707MOL0     H97551   5.890  10.974   1.742  0.8489 -1.8300  3.2417
  707MOL0     H97552   6.104  10.970   2.027  2.6267  0.1652 -1.7620
  707MOL0     H97553   6.315  10.965   2.135  1.9137 -0.6583 -1.4430
  707MOL0     H97554   6.424  10.663   2.458  0.8365 -1.0491  0.5253
  707MOL0     H97555   6.434  10.580   2.306 -3.1299 -0.0717  2.8036
  707MOL0     H97556   6.672  10.683   2.273 -1.1106 -3.0153  0.1530
  707MOL0     H97557   6.656  10.593   2.413 -2.9559 -2.1660 -1.1666
  707MOL0     H97558   6.779  10.810   2.472 -0.1178  1.0248 -0.4591
  707MOL0     H97559   6.635  10.901   2.442  1.8901  1.2483  0.8773
  707MOL0     H97560   6.521  10.768   2.629 -0.2333 -2.2410 -1.0180
  707MOL0     H97561   6.663  10.859   2.680  3.6613 -2.0338 -0.0141
  707MOL0     H97562   6.836  10.495   2.750 -2.9210 -2.7601  1.8796
  707MOL0     H97563   6.219  10.573   2.291 -2.0497 -1.7264 -0.0572
  707MOL0     H97564   5.960  10.525   2.054  2.1097  1.4829  0.0705
  707MOL0     H97565   6.047  10.436   2.179 -0.1554  0.3491 -1.2130
  707MOL0     H97566   5.918  10.549   2.228  0.0207  3.0227  1.8289
  708MOL0     O97567   2.900   0.287  11.072  0.8104  0.0643  0.1278
  708MOL0     C97568   2.840   0.279  11.183  0.0638  0.5231 -0.6435
  708MOL0     O97569   2.895   0.245  11.306  0.2024  0.4861  0.0105
  708MOL0     C97570   3.029   0.235  11.319 -0.4967 -0.2175  0.6134
  708MOL0     C97571   3.109   0.346  11.267  0.1615 -0.0726  0.8788
  708MOL0     C97572   3.247   0.329  11.261  0.1833  0.0381 -0.2072
  708MOL0     C97573   3.316   0.218  11.321 -0.1646 -0.3374 -0.7232
  708MOL0     O97574   3.451   0.205  11.336 -0.4708 -0.4081  0.4183
  708MOL0     C97575   3.506   0.145  11.452 -0.4292  0.6153 -0.1735
  708MOL0     C97576   3.654   0.169  11.457 -0.2068 -0.8351 -0.5038
  708MOL0     C97577   3.679   0.311  11.514  0.5056  0.7588  0.0202
  708MOL0     C97578   3.680   0.298  11.669  0.0252  0.1678 -0.4857
  708MOL0     C97579   3.715   0.429  11.726 -0.3367  0.8541  0.4721
  708MOL0     C97580   3.683   0.435  11.872 -0.1131  0.5239  0.6784
  708MOL0     C97581   3.760   0.550  11.948 -0.1636 -0.3897  0.0578
  708MOL0     C97582   3.728   0.565  12.099 -0.0663  0.9380 -0.1432
  708MOL0     N97583   3.594   0.563  12.119  0.8328 -0.5105  0.0623
  708MOL0     C97584   3.505   0.473  12.173  0.6391 -1.5079 -0.3840
  708MOL0     C97585   3.387   0.537  12.206  0.5883  0.9046 -0.2580
  708MOL0     C97586   3.268   0.483  12.282 -0.0989 -1.1218  0.3441
  708MOL0     C97587   3.230   0.568  12.400 -0.4423  0.1892 -0.6657
  708MOL0     C97588   3.150   0.488  12.499  0.1452  0.0080  0.2890
  708MOL0     C97589   3.080   0.579  12.600  0.9683 -0.4656 -0.0973
  708MOL0     O97590   3.001   0.496  12.688 -0.4384 -0.3347  0.6063
  708MOL0     C97591   2.933   0.547  12.793  0.7206  0.2550 -0.0355
  708MOL0     C97592   3.003   0.581  12.911 -0.4617 -0.8714  0.7006
  708MOL0     C97593   2.936   0.624  13.019  0.4990 -0.1029  1.5271
  708MOL0     C97594   3.015   0.676  13.129  0.3415  0.2920  0.0695
  708MOL0     C97595   2.798   0.634  13.019 -0.3580 -1.4441  0.3853
  708MOL0     C97596   2.707   0.688  13.124  0.2763  0.8866 -0.4031
  708MOL0     O97597   2.592   0.743  13.077 -0.2836 -1.3490  0.3704
  708MOL0     C97598   2.493   0.783  13.159  0.3016  0.0175 -1.4676
  708MOL0     C97599   2.363   0.747  13.117 -0.0325 -0.9525  0.0795
  708MOL0     C97600   2.259   0.806  13.183 -0.2793  0.0438  0.1650
  708MOL0     C97601   2.269   0.901  13.289 -0.9320 -0.8543  0.7026
  708MOL0     O97602   2.164   0.956  13.359  0.8962  0.2885 -0.2310
  708MOL0     C97603   2.061   1.015  13.282  0.4378 -0.4770  0.7495
  708MOL0     C97604   1.943   1.058  13.377 -0.7957  0.8869  0.4151
  708MOL0     C97605   1.824   1.104  13.305 -0.2755  0.5386  0.1481
  708MOL0     C97606   1.720   1.153  13.399  0.0462  0.8412 -0.6470
  708MOL0     C97607   1.603   1.207  13.335  0.2849 -0.2828  0.6544
  708MOL0     C97608   1.649   1.346  13.285 -0.0638 -0.1968  0.5392
  708MOL0     C97609   1.521   1.384  13.204 -0.6448  0.4689 -0.5497
  708MOL0     C97610   1.501   1.535  13.192  0.0231 -0.2331  0.3716
  708MOL0    Cl97611   1.648   1.604  13.133 -0.5552  0.4739 -0.3168
  708MOL0     C97612   2.404   0.929  13.330  0.5847 -0.6696  0.2904
  708MOL0     C97613   2.505   0.865  13.272 -0.1165 -0.3945 -0.2090
  708MOL0     O97614   2.743   0.688  13.236  0.5015  0.3621  0.1136
  708MOL0     C97615   2.726   0.601  12.901  1.0384  0.3978 -0.3802
  708MOL0     C97616   2.798   0.553  12.790 -0.2770 -0.0810  0.2402
  708MOL0     N97617   3.402   0.661  12.148  0.6206 -0.0222  0.6747
  708MOL0     N97618   3.513   0.674  12.093  0.1368  0.0934 -0.3078
  708MOL0     C97619   3.232   0.111  11.365 -0.6385 -0.1739 -0.4328
  708MOL0     C97620   3.091   0.115  11.361  0.3717 -1.1445  0.3746
  708MOL0     C97621   2.689   0.278  11.185  0.9514  0.7222  0.9889
  708MOL0     C97622   2.622   0.328  11.073 -0.3938 -0.7921 -0.9730
  708MOL0     C97623   2.479   0.317  11.055 -0.2921 -0.5170 -0.2204
  708MOL0     C97624   2.410   0.244  11.147  0.2564 -0.8477 -0.4357
  708MOL0     O97625   2.276   0.222  11.138  0.0116 -0.1862 -0.2839
  708MOL0     C97626   2.215   0.232  11.007 -0.0925  0.5893 -0.6685
  708MOL0     C97627   2.066   0.219  11.029  0.5624  0.0846  0.1216
  708MOL0     C97628   1.990   0.237  10.902 -0.6056  0.4607  0.4620
  708MOL0     C97629   1.841   0.168  10.914 -0.7267 -0.3610  1.4390
  708MOL0     C97630   1.773   0.193  10.789  0.1186 -0.0693  0.6056
  708MOL0     C97631   1.724   0.221  10.683  0.5328 -0.8101 -0.0408
  708MOL0     C97632   2.477   0.193  11.252  0.8950 -0.8128  0.6389
  708MOL0     C97633   2.607   0.214  11.279  0.9883  0.4601 -0.2755
  708MOL0     C97634   2.650   0.134  11.404  0.1772  0.2308  0.8489
  708MOL0     H97635   3.080   0.435  11.213 -1.2552 -0.6546  0.6287
  708MOL0     H97636   3.297   0.412  11.212 -0.0400  1.7590  2.2912
  708MOL0     H97637   3.473   0.041  11.452 -0.4924  0.6128  1.6306
  708MOL0     H97638   3.470   0.182  11.548  1.3969  1.4246  0.2325
  708MOL0     H97639   3.705   0.094  11.518 -0.5239  1.6774  3.1621
  708MOL0     H97640   3.697   0.169  11.357  0.5980 -0.4358 -0.1612
  708MOL0     H97641   3.770   0.352  11.468 -0.8460  4.0780 -0.0373
  708MOL0     H97642   3.606   0.387  11.484  1.1560  1.2327 -0.4091
  708MOL0     H97643   3.590   0.257  11.715 -0.9201  0.4126 -2.0803
  708MOL0     H97644   3.751   0.218  11.693  1.6357  1.4269 -0.8788
  708MOL0     H97645   3.671   0.507  11.663  4.6559  2.9301 -0.8995
  708MOL0     H97646   3.821   0.452  11.714  0.7303 -2.8235  1.5382
  708MOL0     H97647   3.575   0.449  11.887  0.2532  4.5028  0.5800
  708MOL0     H97648   3.696   0.337  11.920  0.8546 -0.9868 -2.3968
  708MOL0     H97649   3.731   0.650  11.915 -3.2803 -0.9851  0.7170
  708MOL0     H97650   3.868   0.533  11.940 -0.3374 -2.1198  1.0512
  708MOL0     H97651   3.773   0.478  12.147 -0.3153  1.2651  0.6941
  708MOL0     H97652   3.764   0.657  12.146 -1.4824  0.2947  2.3370
  708MOL0     H97653   3.541   0.378  12.212 -2.8302 -3.2431 -1.0845
  708MOL0     H97654   3.266   0.374  12.292 -2.5601 -1.1762 -0.0873
  708MOL0     H97655   3.190   0.491  12.206  1.2728  4.1811 -0.8876
  708MOL0     H97656   3.310   0.628  12.444  2.4893 -3.3005 -0.7129
  708MOL0     H97657   3.150   0.632  12.363 -2.5439 -0.9265  1.6327
  708MOL0     H97658   3.065   0.443  12.447  0.4880  0.9428 -1.1551
  708MOL0     H97659   3.219   0.415  12.543 -1.2585  0.4537  3.4496
  708MOL0     H97660   3.162   0.630  12.653  2.0752 -1.8471 -0.4309
  708MOL0     H97661   3.010   0.647  12.551 -2.4129 -1.8555  2.4551
  708MOL0     H97662   3.109   0.565  12.895  0.0413  1.0219  1.9223
  708MOL0     H97663   3.119   0.643  13.117  0.2861 -1.4375  3.3531
  708MOL0     H97664   2.987   0.641  13.229 -0.6396  0.7160 -0.0484
  708MOL0     H97665   3.011   0.786  13.123 -2.1001  0.1793 -2.1043
  708MOL0     H97666   2.351   0.694  13.023  1.1296 -2.3668  0.6830
  708MOL0     H97667   2.161   0.769  13.153  0.2039 -1.5000  0.3786
  708MOL0     H97668   2.093   1.108  13.234  0.4436 -0.0835  1.5029
  708MOL0     H97669   2.024   0.939  13.212  1.2109  0.7044 -1.0305
  708MOL0     H97670   1.911   0.975  13.441 -0.0901  0.3506  0.0802
  708MOL0     H97671   1.982   1.136  13.443 -1.2610  2.5918 -1.2699
  708MOL0     H97672   1.773   1.024  13.250  1.2139 -0.0105 -0.4902
  708MOL0     H97673   1.839   1.178  13.226 -1.6810 -1.6025 -2.3068
  708MOL0     H97674   1.765   1.236  13.454  2.2304  0.1982 -1.3659
  708MOL0     H97675   1.700   1.072  13.468  0.1235  1.6811  0.3803
  708MOL0     H97676   1.566   1.149  13.250 -2.1273 -0.6080  1.8426
  708MOL0     H97677   1.523   1.211  13.409 -1.9970 -1.8969 -1.5504
  708MOL0     H97678   1.738   1.353  13.223 -0.6535  1.3228 -0.1873
  708MOL0     H97679   1.644   1.418  13.368 -0.4168  1.7881 -1.1118
  708MOL0     H97680   1.424   1.344  13.235 -0.2690 -0.4358 -0.4952
  708MOL0     H97681   1.533   1.348  13.102  1.0848 -0.3718 -0.0934
  708MOL0     H97682   1.481   1.588  13.285  1.5022  0.1151  0.5221
  708MOL0     H97683   1.421   1.557  13.121  0.4488 -1.7371 -0.6427
  708MOL0     H97684   2.410   1.002  13.410 -1.7378  1.4626 -1.3111
  708MOL0     H97685   2.606   0.883  13.309  0.4013  0.2307 -1.8057
  708MOL0     H97686   2.619   0.612  12.907  1.0940  1.7567 -1.5016
  708MOL0     H97687   2.744   0.532  12.698  0.0047  0.1881  0.0103
  708MOL0     H97688   3.280   0.018  11.394 -3.0639 -1.0489  1.0880
  708MOL0     H97689   3.033   0.027  11.386 -2.4706 -0.2493 -2.3652
  708MOL0     H97690   2.673   0.377  10.991  0.1761 -0.3445 -0.3555
  708MOL0     H97691   2.429   0.355  10.967  0.9261 -0.3045 -0.8389
  708MOL0     H97692   2.230   0.323  10.949  1.8857  0.5673 -0.2527
  708MOL0     H97693   2.241   0.149  10.941 -0.0409 -1.4183  1.6962
  708MOL0     H97694   2.029   0.282  11.110 -0.6300 -0.8557  0.3366
  708MOL0     H97695   2.049   0.118  11.068  0.7720  0.9888  2.7350
  708MOL0     H97696   1.986   0.341  10.871 -2.4058  0.3006  0.0604
  708MOL0     H97697   2.042   0.182  10.823  1.6173  0.7747  1.6343
  708MOL0     H97698   1.787   0.208  11.001  0.9870  0.6225  2.1112
  708MOL0     H97699   1.857   0.060  10.922 -0.3630 -0.6955 -2.1164
  708MOL0     H97700   1.687   0.253  10.588  0.0694  1.1179  0.7332
  708MOL0     H97701   2.410   0.136  11.314 -0.3098  0.9967  1.0805
  708MOL0     H97702   2.576   0.074  11.457 -0.6238  0.7055  0.2920
  708MOL0     H97703   2.732   0.063  11.391 -0.1642  0.0256 -0.3571
  708MOL0     H97704   2.680   0.220  11.464 -0.3409  1.1202 -0.1213
  709MOL0     O97705   6.451   9.368   6.502  0.0256 -0.2126  0.5096
  709MOL0     C97706   6.446   9.362   6.627 -0.8797  0.2557  0.0165
  709MOL0     O97707   6.341   9.320   6.697 -0.4595  0.2999  0.3814
  709MOL0     C97708   6.215   9.282   6.651 -0.7832 -0.2916  0.1837
  709MOL0     C97709   6.194   9.201   6.542 -0.0403  0.7613 -0.5572
  709MOL0     C97710   6.069   9.183   6.483 -0.9453  0.4925 -0.5141
  709MOL0     C97711   5.952   9.252   6.530 -0.5434  0.4611 -0.8267
  709MOL0     O97712   5.821   9.233   6.476  0.4252 -0.1607 -0.2622
  709MOL0     C97713   5.715   9.313   6.525  0.5983  0.1701  1.6779
  709MOL0     C97714   5.724   9.461   6.492 -0.5267  0.4903 -1.2292
  709MOL0     C97715   5.659   9.504   6.369 -0.4289 -0.4707 -0.1855
  709MOL0     C97716   5.666   9.659   6.356 -0.1658 -0.7593  0.0207
  709MOL0     C97717   5.599   9.712   6.230 -1.0205  0.8882  0.4803
  709MOL0     C97718   5.591   9.870   6.222  0.0495 -0.5179 -0.3833
  709MOL0     C97719   5.564   9.915   6.074  0.5190 -0.0473  0.3296
  709MOL0     C97720   5.694   9.916   5.990  0.3633  0.2357 -0.4744
  709MOL0     N97721   5.669   9.970   5.855  0.3162 -0.8876  0.3262
  709MOL0     C97722   5.665  10.103   5.815  0.4526 -0.1387  0.6186
  709MOL0     C97723   5.666  10.101   5.681 -0.1757  0.2508 -0.7780
  709MOL0     C97724   5.667  10.217   5.584  0.0073  0.1569 -0.3087
  709MOL0     C97725   5.624  10.187   5.448 -0.3019  0.3118  0.4412
  709MOL0     C97726   5.592  10.308   5.364 -0.1613 -0.4411  0.5901
  709MOL0     C97727   5.586  10.251   5.212 -0.0847  0.2580 -1.3254
  709MOL0     O97728   5.712  10.179   5.174 -0.2877  1.2420 -0.1378
  709MOL0     C97729   5.728  10.143   5.049  0.1401  0.4833 -0.8600
  709MOL0     C97730   5.850  10.154   4.990  0.0492 -0.9911  0.0243
  709MOL0     C97731   5.876  10.115   4.857  0.3493  0.0784  0.1223
  709MOL0     C97732   6.003  10.146   4.786 -0.6309 -0.1644  0.1438
  709MOL0     C97733   5.773  10.048   4.786  0.6341  0.5003 -1.0181
  709MOL0     C97734   5.774   9.992   4.643 -0.3583  0.7055  0.1480
  709MOL0     O97735   5.653   9.981   4.584 -0.0949  0.0601 -0.4379
  709MOL0     C97736   5.643   9.930   4.461 -0.6807  0.1778  0.6258
  709MOL0     C97737   5.676   9.798   4.436  0.0331  0.2981 -0.0793
  709MOL0     C97738   5.640   9.743   4.305  0.2171  0.0814 -1.2332
  709MOL0     C97739   5.592   9.825   4.203 -0.3994  0.0872  0.2706
  709MOL0     O97740   5.582   9.772   4.080 -0.4671  0.6663 -0.3387
  709MOL0     C97741   5.576   9.855   3.962  0.5056 -0.3693 -0.2503
  709MOL0     C97742   5.568   9.787   3.820  0.5158  0.0988 -0.3911
  709MOL0     C97743   5.442   9.703   3.815  0.6303 -0.0707  0.0447
  709MOL0     C97744   5.399   9.681   3.672  0.0094  0.0290 -0.4050
  709MOL0     C97745   5.517   9.616   3.584  0.2049 -0.5494 -1.3826
  709MOL0     C97746   5.464   9.547   3.457  0.0076 -0.8821 -0.1277
  709MOL0     C97747   5.382   9.629   3.363  1.2704  0.8211  0.3933
  709MOL0     C97748   5.374   9.564   3.222 -0.0355 -0.0378  0.0031
  709MOL0    Cl97749   5.284   9.686   3.128  0.3021  0.1369  0.2292
  709MOL0     C97750   5.558   9.957   4.234  0.0614 -0.2370 -1.2209
  709MOL0     C97751   5.593  10.013   4.361  0.6839  0.1179 -0.8065
  709MOL0     O97752   5.888   9.966   4.588 -0.2696  0.1119  0.8781
  709MOL0     C97753   5.652  10.033   4.850 -0.5924 -0.5741 -0.9866
  709MOL0     C97754   5.625  10.076   4.979  0.2394 -0.1355 -0.8142
  709MOL0     N97755   5.653   9.965   5.643 -0.1073 -0.4696 -0.5415
  709MOL0     N97756   5.658   9.895   5.750 -0.2952  0.4345  0.7803
  709MOL0     C97757   5.977   9.339   6.644 -0.3788 -0.5773 -0.1386
  709MOL0     C97758   6.106   9.353   6.707  0.3857 -0.5954  0.7660
  709MOL0     C97759   6.569   9.399   6.697 -0.0220 -0.0147 -0.2115
  709MOL0     C97760   6.593   9.353   6.830  0.3875  0.5876 -0.9399
  709MOL0     C97761   6.720   9.348   6.891  0.3654  0.3106  0.6393
  709MOL0     C97762   6.833   9.408   6.821 -0.6035  0.3406 -0.2882
  709MOL0     O97763   6.962   9.400   6.865  0.4302 -0.5997  0.0736
  709MOL0     C97764   6.991   9.373   7.000 -0.3198 -0.2683 -1.3463
  709MOL0     C97765   7.134   9.338   7.027 -0.0403  0.2423  0.0009
  709MOL0     C97766   7.173   9.223   6.942  0.4119  0.0469 -0.7558
  709MOL0     C97767   7.299   9.155   6.996  0.2046 -0.2641  0.0740
  709MOL0     C97768   7.292   9.082   7.120  1.0075  0.5760 -0.2199
  709MOL0     C97769   7.289   9.029   7.230  0.4105 -0.2121 -0.5468
  709MOL0     C97770   6.799   9.471   6.699  0.5924 -0.1925  0.2254
  709MOL0     C97771   6.672   9.469   6.635  0.7539  0.2078 -0.3513
  709MOL0     C97772   6.667   9.539   6.503  0.1923 -0.7296  0.1315
  709MOL0     H97773   6.281   9.152   6.500 -0.1904  0.6117 -0.6970
  709MOL0     H97774   6.060   9.122   6.393  2.4092 -2.3533  0.8606
  709MOL0     H97775   5.709   9.285   6.631  2.5247 -0.6044  1.6203
  709MOL0     H97776   5.620   9.285   6.481  1.5879  1.0821 -1.2464
  709MOL0     H97777   5.687   9.522   6.574 -0.3171 -0.9373 -0.0147
  709MOL0     H97778   5.831   9.483   6.481 -0.4238 -0.2514 -1.8928
  709MOL0     H97779   5.704   9.462   6.279  0.1217  1.3350 -0.8022
  709MOL0     H97780   5.554   9.472   6.369 -0.6029 -0.0067 -1.8689
  709MOL0     H97781   5.617   9.696   6.447 -0.0020 -2.4232  0.8344
  709MOL0     H97782   5.772   9.685   6.348  0.1942 -2.2790 -0.5328
  709MOL0     H97783   5.497   9.673   6.216 -0.7423 -0.7565  2.5109
  709MOL0     H97784   5.665   9.658   6.162 -0.7032 -2.2653  3.0685
  709MOL0     H97785   5.501   9.892   6.279  0.6195  2.6077 -0.4913
  709MOL0     H97786   5.664   9.930   6.277 -3.0052  0.9865  2.3440
  709MOL0     H97787   5.518  10.014   6.083  0.3256 -0.1484  0.4645
  709MOL0     H97788   5.485   9.851   6.036 -0.2598  0.8500  0.3854
  709MOL0     H97789   5.774   9.961   6.050  0.2178 -2.5563  2.0109
  709MOL0     H97790   5.733   9.814   5.986  0.9431  0.2860  2.2623
  709MOL0     H97791   5.679  10.194   5.872  3.4353  0.1270 -0.3721
  709MOL0     H97792   5.767  10.262   5.581  0.8344 -1.4089 -5.3593
  709MOL0     H97793   5.590  10.277   5.635 -0.7358 -0.8831 -0.1859
  709MOL0     H97794   5.712  10.136   5.406 -0.6572 -1.6367  1.9054
  709MOL0     H97795   5.546  10.111   5.451 -0.0676  0.0545  0.0889
  709MOL0     H97796   5.507  10.364   5.404  1.0759 -0.2982  3.1835
  709MOL0     H97797   5.682  10.371   5.366 -0.9682  0.7713  0.2936
  709MOL0     H97798   5.502  10.181   5.213 -0.5540  0.6568  2.4375
  709MOL0     H97799   5.549  10.326   5.141 -0.8882  0.4886 -0.6788
  709MOL0     H97800   5.916  10.228   5.034 -1.4807  1.8480 -2.0567
  709MOL0     H97801   5.990  10.177   4.682 -1.9414 -1.0127  0.0374
  709MOL0     H97802   6.070  10.060   4.793 -2.3581 -1.7142 -1.3289
  709MOL0     H97803   6.052  10.229   4.838 -3.6151  1.1006  1.1281
  709MOL0     H97804   5.698   9.727   4.515  0.8722  0.5690 -0.0542
  709MOL0     H97805   5.649   9.636   4.286  2.4862 -0.5548  2.3309
  709MOL0     H97806   5.487   9.919   3.968  0.8495  0.1110 -0.1950
  709MOL0     H97807   5.659   9.926   3.969 -1.3109  1.8911 -0.1834
  709MOL0     H97808   5.570   9.847   3.728  0.1056 -0.7214 -0.9450
  709MOL0     H97809   5.658   9.729   3.801  0.3063 -0.4982  0.3822
  709MOL0     H97810   5.364   9.761   3.866  0.5807  0.3734 -0.5253
  709MOL0     H97811   5.460   9.606   3.863 -2.7859 -0.5063  0.7111
  709MOL0     H97812   5.365   9.777   3.632  2.8604  1.7237  0.9838
  709MOL0     H97813   5.310   9.617   3.663 -0.1887 -0.0718  1.7986
  709MOL0     H97814   5.587   9.696   3.554  1.2185 -1.0924 -0.5217
  709MOL0     H97815   5.581   9.546   3.639 -1.3497 -0.4074  0.7026
  709MOL0     H97816   5.408   9.461   3.495 -4.3866  2.0441  0.8338
  709MOL0     H97817   5.555   9.529   3.400 -0.8144  2.9363 -3.1066
  709MOL0     H97818   5.421   9.731   3.350  0.0075  1.6315  2.4266
  709MOL0     H97819   5.278   9.629   3.397  1.0382 -1.1550 -0.2251
  709MOL0     H97820   5.325   9.466   3.233  2.0157 -0.9610  1.4484
  709MOL0     H97821   5.477   9.545   3.192 -1.0039 -0.7779 -3.2848
  709MOL0     H97822   5.504  10.028   4.173 -0.7962  1.6511  1.5314
  709MOL0     H97823   5.552  10.109   4.391 -0.9176 -0.5505 -0.7727
  709MOL0     H97824   5.581   9.969   4.800 -0.2561  0.0207 -2.2576
  709MOL0     H97825   5.527  10.056   5.021  0.2322  0.4755 -0.5332
  709MOL0     H97826   5.900   9.405   6.683  0.7795  0.0391  1.1884
  709MOL0     H97827   6.109   9.418   6.793 -0.7826  0.4667  0.0401
  709MOL0     H97828   6.507   9.301   6.873  1.5297 -1.5060 -1.0387
  709MOL0     H97829   6.727   9.286   6.979  0.7845  0.2942  0.5952
  709MOL0     H97830   6.957   9.457   7.060 -2.5155 -1.6860 -0.4524
  709MOL0     H97831   6.935   9.282   7.024 -0.4017 -0.4095 -2.0364
  709MOL0     H97832   7.145   9.308   7.131  0.1161 -0.2434 -0.1559
  709MOL0     H97833   7.191   9.431   7.013  4.0203 -1.7715  1.7320
  709MOL0     H97834   7.100   9.143   6.934 -2.6685  2.2059  2.6101
  709MOL0     H97835   7.196   9.253   6.840  1.9212 -0.9032 -0.7214
  709MOL0     H97836   7.382   9.225   6.998 -0.4358  0.8464 -3.8933
  709MOL0     H97837   7.330   9.082   6.921  4.8113 -1.5108  2.7883
  709MOL0     H97838   7.302   8.976   7.322  1.3273  0.4465 -0.2756
  709MOL0     H97839   6.885   9.518   6.651 -1.5730  1.2839 -2.4796
  709MOL0     H97840   6.745   9.616   6.507  1.8760 -2.3824  0.0742
  709MOL0     H97841   6.689   9.465   6.426 -1.1677 -1.3597  0.3082
  709MOL0     H97842   6.566   9.578   6.486 -1.5515 -4.3259  1.2727
  710MOL0     O97843   7.895   7.090  11.177  0.3313  0.6560 -1.4636
  710MOL0     C97844   7.954   7.199  11.166  0.2278 -0.9980 -0.4378
  710MOL0     O97845   8.014   7.261  11.269 -0.8335 -0.2819 -0.3242
  710MOL0     C97846   8.006   7.212  11.394  0.2037  0.6954 -0.2335
  710MOL0     C97847   7.932   7.271  11.493 -0.1230  0.1706  0.5309
  710MOL0     C97848   7.917   7.209  11.619 -0.0509  0.3733  0.4900
  710MOL0     C97849   7.999   7.094  11.643  0.4140  0.0750  0.2806
  710MOL0     O97850   8.006   7.054  11.773  0.3627  0.5733  0.5509
  710MOL0     C97851   7.994   6.917  11.809 -0.1025  0.6944 -0.7088
  710MOL0     C97852   7.968   6.913  11.959 -1.2872 -0.5456  0.3140
  710MOL0     C97853   7.841   6.987  11.998 -0.1421 -0.3006 -0.3850
  710MOL0     C97854   7.764   6.900  12.105  0.5438 -0.0183 -0.8141
  710MOL0     C97855   7.628   6.961  12.151  0.0444 -0.5924  0.3325
  710MOL0     C97856   7.537   6.854  12.218 -0.1254  0.6015  0.0963
  710MOL0     C97857   7.396   6.906  12.230 -0.1233  1.2252 -0.0698
  710MOL0     C97858   7.318   6.903  12.103  0.7698 -0.3046 -0.3856
  710MOL0     N97859   7.176   6.899  12.130 -0.1528  0.2813 -0.0489
  710MOL0     C97860   7.109   6.963  12.228  0.0132 -0.0887  0.3301
  710MOL0     C97861   6.978   6.943  12.217 -0.7533  0.1714  0.2381
  710MOL0     C97862   6.882   7.000  12.311 -0.5287  0.1915 -0.3545
  710MOL0     C97863   6.756   7.059  12.254 -0.3331 -0.5909 -0.0304
  710MOL0     C97864   6.706   7.169  12.350 -0.9299  0.4535 -0.4743
  710MOL0     C97865   6.576   7.222  12.302 -0.1305  0.1787  0.6741
  710MOL0     O97866   6.455   7.148  12.345 -0.1324  0.0537  0.4503
  710MOL0     C97867   6.427   7.159  12.480  0.2488  0.1326  0.2026
  710MOL0     C97868   6.357   7.050  12.536 -0.9163 -0.3470 -0.2950
  710MOL0     C97869   6.319   7.043  12.669  0.1655 -0.8020 -0.4758
  710MOL0     C97870   6.244   6.913  12.727  0.2093  1.0755 -0.5375
  710MOL0     C97871   6.353   7.152  12.756  0.4649 -1.1788 -0.2044
  710MOL0     C97872   6.320   7.151  12.898 -0.4522  0.3949 -0.3522
  710MOL0     O97873   6.213   7.083  12.926  0.4574 -0.1462  0.3217
  710MOL0     C97874   6.171   7.078  13.057  0.0082 -0.1880  0.0461
  710MOL0     C97875   6.194   6.984  13.157 -0.2222 -0.1093  0.0848
  710MOL0     C97876   6.132   7.002  13.283  0.3879 -0.4492  0.0394
  710MOL0     C97877   6.053   7.110  13.320  0.5306 -0.3551 -0.4534
  710MOL0     O97878   6.002   7.132  13.446 -0.1612  0.1928  0.6214
  710MOL0     C97879   6.038   7.034  13.552  0.6893  0.8744  0.4909
  710MOL0     C97880   5.983   7.075  13.687  0.1763 -1.0246 -0.5936
  710MOL0     C97881   6.021   6.969  13.785 -0.6225 -1.1471 -0.9628
  710MOL0     C97882   5.951   7.000  13.924  0.1790  0.4021  1.1382
  710MOL0     C97883   6.000   6.902  14.026 -0.1093 -0.7530  0.5127
  710MOL0     C97884   5.940   6.761  14.005 -0.2292  0.7510 -0.1426
  710MOL0     C97885   5.798   6.756  14.075  1.0020  1.2451  0.3228
  710MOL0     C97886   5.751   6.614  14.064 -0.2716  1.2443 -0.0085
  710MOL0    Cl97887   5.583   6.610  14.140  0.5671 -0.0429 -0.0564
  710MOL0     C97888   6.038   7.213  13.227  0.9581  0.2694  0.4755
  710MOL0     C97889   6.090   7.193  13.098  0.2477  0.1069 -0.7388
  710MOL0     O97890   6.391   7.207  12.978 -0.1406  0.4591 -0.6401
  710MOL0     C97891   6.419   7.260  12.699 -0.1995  0.2127 -0.5891
  710MOL0     C97892   6.457   7.269  12.562 -0.2436 -0.4709 -0.5953
  710MOL0     N97893   6.963   6.863  12.113 -0.0026  0.4764 -0.8999
  710MOL0     N97894   7.077   6.832  12.053 -0.7112  0.2936 -0.2412
  710MOL0     C97895   8.076   7.033  11.545 -0.2008 -0.0103 -0.8313
  710MOL0     C97896   8.069   7.083  11.419  0.6246 -0.1322  0.3053
  710MOL0     C97897   7.975   7.280  11.041  0.1759 -0.5837 -0.2183
  710MOL0     C97898   8.104   7.337  11.004 -0.4742  0.7201 -1.0522
  710MOL0     C97899   8.131   7.414  10.893  0.3053  1.1793  0.3422
  710MOL0     C97900   8.023   7.447  10.815  0.2005  0.2964 -0.0867
  710MOL0     O97901   8.033   7.536  10.711  1.1261 -0.2214  0.5402
  710MOL0     C97902   8.153   7.593  10.656 -0.5227  0.4514 -0.1542
  710MOL0     C97903   8.136   7.627  10.511 -0.3914  0.3458 -0.7971
  710MOL0     C97904   8.268   7.701  10.479  0.3589  0.2736  0.2297
  710MOL0     C97905   8.243   7.767  10.342 -0.6340 -0.1450  0.0711
  710MOL0     C97906   8.211   7.677  10.230 -0.5430 -0.2656  0.2291
  710MOL0     C97907   8.175   7.600  10.140  0.1752 -0.4092  0.1126
  710MOL0     C97908   7.897   7.388  10.835 -0.0730  0.1874 -0.8186
  710MOL0     C97909   7.872   7.310  10.950  0.8169  0.0324  0.3391
  710MOL0     C97910   7.748   7.234  10.938  0.2675 -0.3932 -0.8976
  710MOL0     H97911   7.900   7.374  11.486 -0.0635  0.3729  2.5824
  710MOL0     H97912   7.840   7.233  11.691 -1.0667  0.1860 -0.4954
  710MOL0     H97913   8.088   6.865  11.787  1.5478  3.7318 -1.3057
  710MOL0     H97914   7.911   6.864  11.761  1.9327 -1.0264 -2.5515
  710MOL0     H97915   7.955   6.806  11.972 -0.1019 -0.5534  1.5693
  710MOL0     H97916   8.049   6.962  12.014 -1.8227  3.2550 -1.8965
  710MOL0     H97917   7.872   7.082  12.043  1.6172 -0.1986 -1.7313
  710MOL0     H97918   7.769   7.009  11.918 -0.0199 -1.8203 -0.9296
  710MOL0     H97919   7.745   6.801  12.062 -0.0745  0.1842 -1.0061
  710MOL0     H97920   7.829   6.889  12.193 -1.7951 -0.3112  1.0040
  710MOL0     H97921   7.582   7.010  12.065  2.1625  3.5462  1.3530
  710MOL0     H97922   7.642   7.038  12.226 -1.4479  2.3245 -2.1729
  710MOL0     H97923   7.536   6.758  12.166 -3.3110  0.6683 -0.1650
  710MOL0     H97924   7.578   6.834  12.317 -3.5036 -1.7137  1.2199
  710MOL0     H97925   7.406   7.005  12.275 -2.2411  1.2300  0.5235
  710MOL0     H97926   7.341   6.848  12.305  1.2246  1.2490  0.9667
  710MOL0     H97927   7.352   6.990  12.044  1.7708  0.5534  1.3818
  710MOL0     H97928   7.336   6.813  12.044  0.4617 -0.9174  0.4570
  710MOL0     H97929   7.152   7.021  12.310  1.9567 -0.1067 -0.6265
  710MOL0     H97930   6.943   7.081  12.353 -0.2675  0.6899 -1.6461
  710MOL0     H97931   6.849   6.927  12.385 -3.6277  1.6276 -0.1867
  710MOL0     H97932   6.767   7.114  12.160  2.2052  0.7197  0.9651
  710MOL0     H97933   6.682   6.979  12.251 -0.1148 -0.7610 -1.5181
  710MOL0     H97934   6.700   7.136  12.454 -2.1103 -0.7295 -0.8967
  710MOL0     H97935   6.777   7.253  12.347 -0.4155  0.0421 -0.0316
  710MOL0     H97936   6.561   7.326  12.333 -2.7964  0.2221 -0.4992
  710MOL0     H97937   6.571   7.237  12.193 -1.2392  0.7235  0.7834
  710MOL0     H97938   6.340   6.960  12.478 -0.5648 -0.1260 -0.7491
  710MOL0     H97939   6.144   6.928  12.769 -0.5823 -3.1454 -0.4754
  710MOL0     H97940   6.291   6.860  12.810 -1.9437 -0.7448 -0.3715
  710MOL0     H97941   6.222   6.835  12.654  0.8158 -0.3100  0.7188
  710MOL0     H97942   6.256   6.898  13.134 -3.1955 -1.8642 -2.1462
  710MOL0     H97943   6.147   6.914  13.344 -1.9420  0.0656  1.5029
  710MOL0     H97944   5.993   6.941  13.515  0.0933  0.9413  1.0197
  710MOL0     H97945   6.145   7.016  13.548  0.6720  0.8255  0.1775
  710MOL0     H97946   6.017   7.175  13.717  0.1522 -1.0640 -0.4386
  710MOL0     H97947   5.876   7.091  13.674  0.3985  0.2742 -0.9770
  710MOL0     H97948   6.128   6.945  13.787 -0.0485  1.0788  1.8221
  710MOL0     H97949   5.979   6.878  13.741 -0.5792 -2.0386  0.7394
  710MOL0     H97950   5.842   6.997  13.910  0.1445 -0.2435  1.5460
  710MOL0     H97951   5.984   7.103  13.940  0.2742  0.8292 -1.4022
  710MOL0     H97952   6.109   6.909  14.026 -0.1456  1.5594  2.8764
  710MOL0     H97953   5.985   6.934  14.130  0.3585 -1.0691  0.6855
  710MOL0     H97954   5.992   6.684  14.062  1.4817  2.3566  0.5582
  710MOL0     H97955   5.930   6.740  13.898  1.7475  1.1487 -0.4537
  710MOL0     H97956   5.732   6.820  14.016  0.2923  0.1441 -0.1049
  710MOL0     H97957   5.803   6.787  14.180  0.6129  1.3328  0.3164
  710MOL0     H97958   5.815   6.541  14.115 -1.4496 -0.8471 -1.3320
  710MOL0     H97959   5.747   6.580  13.959  0.5738  0.7679  0.0966
  710MOL0     H97960   5.992   7.304  13.265 -0.4273 -0.6166  0.9808
  710MOL0     H97961   6.080   7.270  13.022  1.4717 -0.2727 -1.3301
  710MOL0     H97962   6.456   7.344  12.758  1.8835  0.0513 -1.5949
  710MOL0     H97963   6.500   7.362  12.527 -1.5359  0.6705  0.7674
  710MOL0     H97964   8.134   6.941  11.556 -1.3816 -0.6440  0.3655
  710MOL0     H97965   8.119   7.027  11.340  0.2345  0.9810 -0.7531
  710MOL0     H97966   8.195   7.317  11.059 -0.9291 -1.7033 -1.0526
  710MOL0     H97967   8.227   7.456  10.867  0.4283  1.6046  1.4643
  710MOL0     H97968   8.172   7.686  10.710 -0.7638 -0.3420  1.3299
  710MOL0     H97969   8.238   7.525  10.664 -0.2741  0.4914 -2.0406
  710MOL0     H97970   8.047   7.692  10.507 -1.8550 -0.9590  4.0083
  710MOL0     H97971   8.108   7.538  10.454 -2.4808 -0.6467  1.5708
  710MOL0     H97972   8.296   7.776  10.553  0.4032  0.5386 -0.0571
  710MOL0     H97973   8.353   7.632  10.468 -0.3496 -0.3852 -1.5045
  710MOL0     H97974   8.333   7.823  10.316 -1.4460  1.3259  0.3249
  710MOL0     H97975   8.163   7.842  10.344  1.0862  1.7796  0.2191
  710MOL0     H97976   8.134   7.546  10.057  2.3420  0.7646 -1.8494
  710MOL0     H97977   7.813   7.410  10.769  0.7046  2.5383 -1.1162
  710MOL0     H97978   7.688   7.281  10.860 -1.4748  0.3872  0.8457
  710MOL0     H97979   7.776   7.137  10.894  0.8143  0.6754 -3.0749
  710MOL0     H97980   7.695   7.233  11.033  1.6056 -0.2930 -0.1281
  711MOL0     O97981   9.169  10.025   3.236  0.6512  0.2362 -0.1824
  711MOL0     C97982   9.069   9.950   3.215 -0.6292 -0.3176  1.2424
  711MOL0     O97983   8.942   9.993   3.231  0.0501  0.1005  0.0399
  711MOL0     C97984   8.914  10.127   3.239 -0.2934 -0.1087 -0.7894
  711MOL0     C97985   8.892  10.186   3.363 -0.4740 -0.2803 -0.3836
  711MOL0     C97986   8.888  10.321   3.379  0.8094  0.4324 -0.3674
  711MOL0     C97987   8.888  10.405   3.264  0.4690 -0.1815  0.4108
  711MOL0     O97988   8.876  10.542   3.287  0.0608 -0.6160  0.1141
  711MOL0     C97989   8.899  10.640   3.187  0.3948  0.8961  0.2765
  711MOL0     C97990   8.933  10.771   3.253 -0.5545  0.0428 -0.0291
  711MOL0     C97991   8.820  10.835   3.333 -0.3519  0.6931 -0.5605
  711MOL0     C97992   8.864  10.973   3.401  0.6732 -0.8208  0.4080
  711MOL0     C97993   8.932  11.074   3.313  0.1360  0.0005  0.4769
  711MOL0     C97994   8.971  11.202   3.385  0.6301 -0.5411 -0.4425
  711MOL0     C97995   9.057  11.290   3.287  0.0001  0.3628 -0.5356
  711MOL0     C97996   9.087  11.421   3.351  0.6787 -0.4834  0.0344
  711MOL0     N97997   9.192  11.496   3.288 -0.5311  0.4265 -1.0924
  711MOL0     C97998   9.187  11.561   3.171 -0.0684  0.0034  0.4965
  711MOL0     C97999   9.310  11.601   3.150  0.5523 -0.8887 -0.2964
  711MOL0     C98000   9.357  11.699   3.041  0.6137  0.3346  0.8595
  711MOL0     C98001   9.487  11.667   2.970 -0.2130 -0.7556  0.9754
  711MOL0     C98002   9.521  11.739   2.839  0.1602 -0.5294 -0.4681
  711MOL0     C98003   9.522  11.885   2.868  0.0118 -0.3048  0.6302
  711MOL0     O98004   9.557  11.957   2.748  0.4610 -0.4215  0.5027
  711MOL0     C98005   9.532  12.089   2.747  0.2823 -0.5492  0.0689
  711MOL0     C98006   9.532  12.171   2.860 -0.2214  0.6189 -0.2256
  711MOL0     C98007   9.517  12.305   2.857  0.2227 -1.0772  0.1512
  711MOL0     C98008   9.524  12.385   2.974  0.5692 -0.2336  0.9839
  711MOL0     C98009   9.492  12.369   2.732 -0.6131 -0.0490 -0.2468
  711MOL0     C98010   9.461  12.521   2.723  0.0357  0.4888  0.2145
  711MOL0     O98011   9.560  12.611   2.763  0.1447 -0.4086 -0.1624
  711MOL0     C98012   9.562  12.734   2.700  0.2664 -0.8184  0.0165
  711MOL0     C98013   9.608  12.845   2.763  0.2639  0.9433  0.1776
  711MOL0     C98014   9.606  12.978   2.715 -0.1915  0.2855  0.5141
  711MOL0     C98015   9.560  12.997   2.584 -0.6293  0.2800 -0.3625
  711MOL0     O98016   9.558  13.112   2.510 -0.3368 -0.4422 -0.4847
  711MOL0     C98017   9.604  13.237   2.575  0.3993  0.7311 -0.7007
  711MOL0     C98018   9.620  13.340   2.470 -0.2984  0.8533  0.3962
  711MOL0     C98019   9.651  13.489   2.505  0.5219  0.5657 -0.5500
  711MOL0     C98020   9.689  13.573   2.389 -0.1393 -0.0861 -0.2928
  711MOL0     C98021   9.669  13.727   2.408  0.1386  0.3680  0.5097
  711MOL0     C98022   9.728  13.779   2.536  0.8102  0.3670 -0.2983
  711MOL0     C98023   9.710  13.926   2.521  0.7476 -0.3120  0.0490
  711MOL0     C98024   9.709  14.009   2.647  1.0396  0.6780 -0.4995
  711MOL0    Cl98025   9.603  13.937   2.770 -0.0275  0.4614  0.1576
  711MOL0     C98026   9.514  12.877   2.512 -1.3799  0.0730 -0.3604
  711MOL0     C98027   9.519  12.752   2.568  0.5740  0.8222  0.3002
  711MOL0     O98028   9.350  12.540   2.668 -0.4733  0.1749  0.1233
  711MOL0     C98029   9.485  12.289   2.619 -0.5125 -0.2730 -0.2141
  711MOL0     C98030   9.492  12.150   2.622 -0.9474 -0.1990  0.2416
  711MOL0     N98031   9.383  11.565   3.262  0.2776  0.8222  0.3415
  711MOL0     N98032   9.316  11.486   3.340  0.3618 -0.9716  0.1981
  711MOL0     C98033   8.893  10.347   3.139 -0.4710  0.3679  0.8853
  711MOL0     C98034   8.908  10.210   3.133 -0.4000  0.6280  0.6138
  711MOL0     C98035   9.083   9.804   3.203 -0.6602  0.6328  0.1747
  711MOL0     C98036   8.995   9.747   3.105 -0.0009 -1.1373  0.5850
  711MOL0     C98037   9.010   9.611   3.069  0.7279  0.8614 -0.5481
  711MOL0     C98038   9.110   9.532   3.117 -0.2423 -0.3553 -0.3803
  711MOL0     O98039   9.130   9.403   3.069  0.3153  0.1845 -0.4615
  711MOL0     C98040   9.263   9.362   3.034  1.0579 -0.7917 -0.0058
  711MOL0     C98041   9.274   9.208   3.037  0.5328 -0.7590 -0.1425
  711MOL0     C98042   9.294   9.138   3.178  0.2552  0.2227 -0.4506
  711MOL0     C98043   9.437   9.105   3.226 -0.9260 -0.4862  0.0596
  711MOL0     C98044   9.496   9.005   3.134 -0.0834 -0.3139  0.1638
  711MOL0     C98045   9.532   8.934   3.043  0.8421  0.0294  0.3030
  711MOL0     C98046   9.205   9.589   3.208  0.1505 -0.1315 -0.2072
  711MOL0     C98047   9.193   9.726   3.248 -0.8403  0.3847  0.7184
  711MOL0     C98048   9.300   9.767   3.349 -0.5489  0.1145 -0.2325
  711MOL0     H98049   8.901  10.126   3.453 -0.9413 -0.0339 -0.1703
  711MOL0     H98050   8.872  10.368   3.475 -3.9246 -0.8680 -0.2713
  711MOL0     H98051   8.810  10.654   3.124  1.8190  1.1312 -1.7847
  711MOL0     H98052   8.987  10.617   3.127  0.2691 -1.5648  0.9472
  711MOL0     H98053   9.013  10.753   3.324  0.2449  3.4766  0.0770
  711MOL0     H98054   8.955  10.838   3.170  0.6048 -1.0561 -0.6425
  711MOL0     H98055   8.735  10.847   3.266 -2.1995 -2.1667  1.0685
  711MOL0     H98056   8.786  10.771   3.415  0.3173  0.1681 -0.6833
  711MOL0     H98057   8.778  11.018   3.450  0.3047 -0.7081 -0.3429
  711MOL0     H98058   8.930  10.951   3.486  1.6934 -0.6574 -0.3214
  711MOL0     H98059   8.871  11.093   3.224  2.6801  0.4725 -1.2649
  711MOL0     H98060   9.027  11.030   3.281  1.7956  0.5507  4.1389
  711MOL0     H98061   8.882  11.258   3.415  1.3675  1.6477 -2.1274
  711MOL0     H98062   9.033  11.193   3.474  0.7209 -0.4572 -0.4971
  711MOL0     H98063   9.021  11.291   3.184 -1.3079  0.7398 -0.0896
  711MOL0     H98064   9.153  11.237   3.284 -0.0540  0.2577 -0.4349
  711MOL0     H98065   9.000  11.487   3.363  0.4264 -1.1812  2.4473
  711MOL0     H98066   9.133  11.395   3.446  1.6701 -1.3185 -0.6571
  711MOL0     H98067   9.111  11.572   3.094  0.3452  0.3979  0.1430
  711MOL0     H98068   9.384  11.789   3.096  3.2038  0.9896 -1.2660
  711MOL0     H98069   9.281  11.728   2.967  0.4492  0.6864  1.1637
  711MOL0     H98070   9.575  11.674   3.035  0.5520  0.6584 -0.1563
  711MOL0     H98071   9.490  11.560   2.947  4.3571 -0.8997  1.3278
  711MOL0     H98072   9.612  11.707   2.787 -0.3322 -2.4684 -0.1952
  711MOL0     H98073   9.446  11.726   2.761 -1.0095  0.7860  0.3807
  711MOL0     H98074   9.421  11.918   2.893 -0.2450 -1.2768  0.9472
  711MOL0     H98075   9.585  11.912   2.954 -1.1598 -2.0265  2.1233
  711MOL0     H98076   9.545  12.130   2.960 -4.0165 -1.1795 -0.2847
  711MOL0     H98077   9.611  12.450   2.954  0.2052 -0.2538 -0.8519
  711MOL0     H98078   9.543  12.317   3.058 -0.5816 -0.8218  0.7824
  711MOL0     H98079   9.436  12.449   2.984  0.8587  0.2925  0.2815
  711MOL0     H98080   9.658  12.830   2.858  1.6162 -1.8387 -0.8521
  711MOL0     H98081   9.669  13.050   2.766  3.1698  1.0022 -4.0235
  711MOL0     H98082   9.531  13.276   2.646  1.1937 -2.4531  2.1469
  711MOL0     H98083   9.693  13.219   2.636 -1.8355 -1.5947  2.1922
  711MOL0     H98084   9.703  13.300   2.411 -0.4686 -0.1475  0.8145
  711MOL0     H98085   9.529  13.342   2.410 -0.7061 -2.0587  0.7363
  711MOL0     H98086   9.737  13.500   2.572 -0.0077  1.3699  0.0246
  711MOL0     H98087   9.563  13.529   2.556 -1.0118 -2.6705 -0.4646
  711MOL0     H98088   9.633  13.536   2.303 -0.9046  4.2611 -1.8965
  711MOL0     H98089   9.798  13.568   2.381  0.4307  3.6568  2.4345
  711MOL0     H98090   9.697  13.788   2.321 -0.2314  0.2198  0.2855
  711MOL0     H98091   9.560  13.734   2.409  0.2317  2.5180  0.4275
  711MOL0     H98092   9.829  13.752   2.566  0.0078  1.8916  4.6734
  711MOL0     H98093   9.667  13.730   2.613  1.7848 -0.7111 -0.1881
  711MOL0     H98094   9.616  13.958   2.476  0.2235  3.8448  3.4766
  711MOL0     H98095   9.787  13.971   2.457 -0.6791 -1.1282 -2.3511
  711MOL0     H98096   9.662  14.105   2.624 -2.5988 -1.1964 -1.5798
  711MOL0     H98097   9.813  14.016   2.682  1.3833 -0.2692 -1.2865
  711MOL0     H98098   9.502  12.877   2.404  0.7523 -3.3176 -0.7553
  711MOL0     H98099   9.495  12.667   2.505 -0.4444  2.1810 -1.2017
  711MOL0     H98100   9.445  12.335   2.529 -1.9312 -3.0518 -1.1113
  711MOL0     H98101   9.472  12.088   2.535 -1.8457 -2.4079  1.9180
  711MOL0     H98102   8.858  10.403   3.053  1.9939  2.5939  1.2090
  711MOL0     H98103   8.894  10.165   3.035  1.0827 -0.4616  0.8771
  711MOL0     H98104   8.916   9.809   3.065  0.6481 -0.1879  0.7479
  711MOL0     H98105   8.945   9.565   2.995  1.0339  1.7304 -1.3828
  711MOL0     H98106   9.287   9.402   2.936 -1.2365 -0.1904 -0.3938
  711MOL0     H98107   9.332   9.402   3.108  1.9320 -2.8581  0.3802
  711MOL0     H98108   9.356   9.183   2.969  0.4283 -2.1691  0.2208
  711MOL0     H98109   9.189   9.152   2.997  0.8050 -2.1461  1.1424
  711MOL0     H98110   9.242   9.194   3.256 -0.0634 -1.6022  0.7092
  711MOL0     H98111   9.247   9.039   3.181  0.5832  0.0154 -1.6632
  711MOL0     H98112   9.428   9.057   3.324 -1.8244  0.1331  0.2977
  711MOL0     H98113   9.499   9.194   3.221 -1.7123  0.3756  3.1125
  711MOL0     H98114   9.569   8.877   2.959 -0.4094 -0.9955  0.4089
  711MOL0     H98115   9.283   9.527   3.252  0.8583 -0.8664 -2.3700
  711MOL0     H98116   9.275   9.862   3.396  1.0720  0.1292  0.6643
  711MOL0     H98117   9.316   9.684   3.419  2.6655 -0.0094 -0.9536
  711MOL0     H98118   9.396   9.779   3.298  0.1601  0.6176  1.1665
  712MOL0     O98119   8.706   3.858   5.026 -0.4363 -0.2622  0.2295
  712MOL0     C98120   8.583   3.846   5.044  0.2478  0.4266  0.1704
  712MOL0     O98121   8.497   3.771   4.975  0.0700  0.2970  0.4993
  712MOL0     C98122   8.517   3.737   4.846 -0.6217  0.8455  0.2680
  712MOL0     C98123   8.644   3.718   4.781  0.0157  0.0372 -0.1872
  712MOL0     C98124   8.640   3.664   4.652  0.0011  0.2473 -0.1968
  712MOL0     C98125   8.522   3.639   4.584  0.0333  0.6765  0.4173
  712MOL0     O98126   8.519   3.583   4.460 -0.0926  0.3181 -0.6465
  712MOL0     C98127   8.604   3.655   4.367 -0.0527  0.0215 -0.4999
  712MOL0     C98128   8.638   3.579   4.245  0.0586  0.2101 -0.0545
  712MOL0     C98129   8.691   3.669   4.137 -0.5685  0.4247  0.6572
  712MOL0     C98130   8.704   3.579   4.007 -0.0027  0.2460 -0.3275
  712MOL0     C98131   8.766   3.653   3.881 -0.0669  1.0164 -0.0191
  712MOL0     C98132   8.791   3.562   3.758  0.4897  0.0787 -0.8752
  712MOL0     C98133   8.656   3.495   3.706 -0.4496 -0.5646 -0.2967
  712MOL0     C98134   8.674   3.426   3.575  0.2757  0.9639 -0.1588
  712MOL0     N98135   8.643   3.525   3.473 -0.2283  0.1889 -0.1598
  712MOL0     C98136   8.738   3.605   3.403 -1.1100  0.3591  0.4015
  712MOL0     C98137   8.661   3.681   3.316 -0.0335 -0.1507 -0.3368
  712MOL0     C98138   8.692   3.800   3.234 -0.2270  0.6410 -0.8297
  712MOL0     C98139   8.792   3.772   3.127 -0.0544  0.4418  0.5486
  712MOL0     C98140   8.841   3.887   3.052  0.5477 -0.0202 -0.2757
  712MOL0     C98141   8.940   3.972   3.128 -0.3534  0.1014  0.7119
  712MOL0     O98142   9.071   3.917   3.107  0.1075  0.6674 -0.1582
  712MOL0     C98143   9.170   4.008   3.093  0.0103 -0.0851  0.1598
  712MOL0     C98144   9.259   4.034   3.200 -0.9433  0.4276 -0.0202
  712MOL0     C98145   9.370   4.127   3.196 -0.5164  0.0426  0.8189
  712MOL0     C98146   9.460   4.128   3.315  0.1843  0.0936  0.0313
  712MOL0     C98147   9.380   4.208   3.076 -0.1828  0.4417 -0.0890
  712MOL0     C98148   9.483   4.308   3.065 -0.6223  0.1948 -0.2168
  712MOL0     O98149   9.467   4.396   3.163  0.7905  0.4402 -0.0669
  712MOL0     C98150   9.581   4.455   3.204 -0.2752  0.3598 -0.2560
  712MOL0     C98151   9.574   4.587   3.226 -0.1767  0.0296  0.1493
  712MOL0     C98152   9.681   4.655   3.284  0.6973  0.0857 -0.9464
  712MOL0     C98153   9.797   4.600   3.331 -0.2461  0.9869 -0.8518
  712MOL0     O98154   9.907   4.657   3.393 -0.0010  0.2188 -0.3557
  712MOL0     C98155   9.899   4.799   3.407  0.4537  0.3226  0.8125
  712MOL0     C98156  10.025   4.827   3.488  0.0357 -0.7995  0.6000
  712MOL0     C98157  10.020   4.768   3.625  0.3822  1.3978  0.0441
  712MOL0     C98158  10.135   4.827   3.706  0.0395 -0.2032 -0.0792
  712MOL0     C98159  10.130   4.773   3.845  0.1832  0.5003  1.0923
  712MOL0     C98160  10.259   4.806   3.918 -0.2172 -0.2617  0.2300
  712MOL0     C98161  10.243   4.757   4.063 -0.2378 -0.0297  0.2766
  712MOL0     C98162  10.383   4.778   4.130 -0.7980  0.7291  0.5743
  712MOL0    Cl98163  10.416   4.955   4.144  0.0179  0.1759  0.0717
  712MOL0     C98164   9.799   4.461   3.312 -0.1574 -0.3277 -0.3407
  712MOL0     C98165   9.695   4.391   3.255  0.3511 -0.1095  0.1382
  712MOL0     O98166   9.565   4.320   2.974 -0.5281 -0.2232  0.7245
  712MOL0     C98167   9.286   4.195   2.973  0.9126 -0.5516 -0.7859
  712MOL0     C98168   9.191   4.091   2.981  0.6379 -0.4911  0.6162
  712MOL0     N98169   8.532   3.633   3.319  0.0524  0.0928 -0.0658
  712MOL0     N98170   8.521   3.540   3.410 -0.4985  0.0535  0.3472
  712MOL0     C98171   8.407   3.660   4.646  0.5215  0.2214  0.7013
  712MOL0     C98172   8.400   3.709   4.773  1.0022 -0.3879 -0.1154
  712MOL0     C98173   8.536   3.885   5.185 -0.5771  0.0314 -0.2320
  712MOL0     C98174   8.422   3.821   5.234 -0.3521  0.0919 -0.1397
  712MOL0     C98175   8.362   3.859   5.356  0.2635  0.6828  0.4679
  712MOL0     C98176   8.434   3.939   5.440 -0.3402  0.1831  0.4440
  712MOL0     O98177   8.389   3.970   5.565  0.5681  0.2216 -0.4320
  712MOL0     C98178   8.245   3.954   5.596 -0.6812 -0.1185 -0.6660
  712MOL0     C98179   8.228   3.986   5.744 -0.7467  0.5462 -0.3543
  712MOL0     C98180   8.077   3.960   5.774  0.5201  0.9767  0.2737
  712MOL0     C98181   8.024   3.803   5.768  0.3913 -1.7493  0.1184
  712MOL0     C98182   7.904   3.788   5.857 -0.0154  0.6215  0.4164
  712MOL0     C98183   7.818   3.756   5.941 -0.0640  0.2962 -0.4866
  712MOL0     C98184   8.551   3.997   5.388 -0.6220  0.0872 -0.0616
  712MOL0     C98185   8.605   3.973   5.264  0.3127 -0.2178 -0.1780
  712MOL0     C98186   8.714   4.064   5.218 -0.4651  0.1899  0.0004
  712MOL0     H98187   8.746   3.727   4.818 -0.0291  4.2016 -0.6076
  712MOL0     H98188   8.734   3.628   4.613  0.0499 -0.0577  0.2055
  712MOL0     H98189   8.700   3.678   4.415 -2.2963  2.5968  3.2420
  712MOL0     H98190   8.550   3.741   4.327 -0.3558  0.5550  1.0149
  712MOL0     H98191   8.704   3.495   4.267 -0.0189 -0.1553 -1.1481
  712MOL0     H98192   8.546   3.535   4.205  0.7894 -1.3457 -0.1281
  712MOL0     H98193   8.623   3.744   4.095 -0.0567  0.6599  0.2273
  712MOL0     H98194   8.788   3.718   4.152 -0.2727 -0.6321  2.4094
  712MOL0     H98195   8.771   3.496   4.028 -2.2022 -2.0265 -1.7176
  712MOL0     H98196   8.602   3.546   3.985 -1.4178  3.1457  1.3010
  712MOL0     H98197   8.863   3.698   3.907  0.6087 -1.1982  1.6268
  712MOL0     H98198   8.692   3.730   3.858 -0.6577  0.2611 -0.6977
  712MOL0     H98199   8.828   3.620   3.674 -0.1875  0.6756 -0.7694
  712MOL0     H98200   8.866   3.487   3.783 -0.1533  0.2310  1.7785
  712MOL0     H98201   8.577   3.569   3.694  0.9204  0.4810 -4.5951
  712MOL0     H98202   8.616   3.424   3.780 -1.5561 -1.2400 -1.5132
  712MOL0     H98203   8.773   3.381   3.556 -0.2679  0.5694 -2.3513
  712MOL0     H98204   8.598   3.349   3.559 -0.0132  0.3182  3.4873
  712MOL0     H98205   8.843   3.613   3.428 -1.3074  0.3889  1.2368
  712MOL0     H98206   8.736   3.870   3.305  0.8303 -0.1816 -0.6476
  712MOL0     H98207   8.602   3.846   3.192 -0.1920  0.1036 -1.5163
  712MOL0     H98208   8.873   3.714   3.174  0.5602  1.2615  0.5164
  712MOL0     H98209   8.741   3.707   3.056  0.0278  0.3394  0.5830
  712MOL0     H98210   8.886   3.864   2.955  0.4022 -0.0026 -0.3471
  712MOL0     H98211   8.765   3.964   3.039 -0.0182 -0.3959  0.7192
  712MOL0     H98212   8.927   4.067   3.075  0.1733 -0.8772 -1.2532
  712MOL0     H98213   8.919   3.989   3.234 -1.2068 -5.3940  1.7328
  712MOL0     H98214   9.255   3.971   3.289 -3.0159 -0.1876 -0.4985
  712MOL0     H98215   9.443   4.047   3.386 -2.8019 -1.4430 -2.1768
  712MOL0     H98216   9.446   4.224   3.364  2.6620  0.6176 -0.1487
  712MOL0     H98217   9.563   4.128   3.279 -0.2150  3.5429 -1.4571
  712MOL0     H98218   9.473   4.627   3.220 -0.1569  0.2095  0.9621
  712MOL0     H98219   9.649   4.756   3.305 -2.3320 -1.2985  1.8129
  712MOL0     H98220   9.890   4.859   3.316 -2.9082 -2.2445 -0.7598
  712MOL0     H98221   9.810   4.824   3.464  0.8615  2.1161  0.7254
  712MOL0     H98222  10.117   4.799   3.436  1.3009  1.5689  1.4027
  712MOL0     H98223  10.036   4.935   3.497  0.7862 -0.7491 -0.6860
  712MOL0     H98224  10.035   4.659   3.619  0.2765  1.2130  2.3637
  712MOL0     H98225   9.926   4.791   3.675 -1.0519 -2.9956 -0.2218
  712MOL0     H98226  10.129   4.935   3.722  1.7459 -0.5383  3.9520
  712MOL0     H98227  10.230   4.804   3.658 -0.9346 -2.3359 -1.1206
  712MOL0     H98228  10.049   4.824   3.899  0.3174  1.6256  0.2635
  712MOL0     H98229  10.111   4.666   3.839 -0.1316  0.6212 -0.6394
  712MOL0     H98230  10.292   4.909   3.911 -0.1675 -0.2386  0.7572
  712MOL0     H98231  10.339   4.744   3.876  0.7857  0.4041  1.0991
  712MOL0     H98232  10.215   4.652   4.065 -2.4286  0.5202  2.1585
  712MOL0     H98233  10.162   4.814   4.108 -1.3914 -1.6288  0.2962
  712MOL0     H98234  10.463   4.731   4.072 -1.3886  0.3899  0.0177
  712MOL0     H98235  10.370   4.730   4.227 -0.5180 -3.2801 -1.1666
  712MOL0     H98236   9.877   4.397   3.351 -1.3291 -2.4975 -1.3373
  712MOL0     H98237   9.701   4.283   3.240  1.9952 -0.1819  1.0482
  712MOL0     H98238   9.298   4.266   2.892 -0.2721  3.2638  2.1198
  712MOL0     H98239   9.123   4.090   2.897 -1.3020 -2.3936  2.0998
  712MOL0     H98240   8.316   3.632   4.595  1.5557  1.5541 -2.1183
  712MOL0     H98241   8.304   3.722   4.822 -0.4566  1.0519 -3.0817
  712MOL0     H98242   8.373   3.737   5.187  0.0298 -1.7182  2.4415
  712MOL0     H98243   8.279   3.795   5.384  3.4469 -3.7326  0.9146
  712MOL0     H98244   8.177   4.020   5.541 -3.5856 -2.0151  0.3903
  712MOL0     H98245   8.216   3.851   5.574  0.6238 -0.4588 -0.8574
  712MOL0     H98246   8.265   4.088   5.758  1.3732  0.0380 -1.7184
  712MOL0     H98247   8.284   3.909   5.799 -1.6641 -1.0038 -1.4976
  712MOL0     H98248   8.060   4.007   5.871 -2.3015 -0.0439  0.3793
  712MOL0     H98249   8.018   4.020   5.704  0.5438  0.9078  0.1950
  712MOL0     H98250   8.100   3.729   5.796 -0.3306 -2.4170  0.3726
  712MOL0     H98251   7.990   3.800   5.664  1.0598  0.8077 -0.2410
  712MOL0     H98252   7.770   3.712   6.027 -0.0351  3.2949  1.2124
  712MOL0     H98253   8.595   4.068   5.457 -2.5878  0.5166  0.8346
  712MOL0     H98254   8.813   4.017   5.215 -0.2750  0.6215 -2.1911
  712MOL0     H98255   8.690   4.120   5.128  0.4912  0.3058 -0.1874
  712MOL0     H98256   8.729   4.137   5.298 -1.2385 -1.2838  1.5503
  713MOL0     O98257   5.139   5.491   8.565  0.6107 -0.5833 -0.2637
  713MOL0     C98258   5.221   5.413   8.513  0.1076 -0.5181  0.0303
  713MOL0     O98259   5.339   5.362   8.573  0.5289 -0.8346  0.3470
  713MOL0     C98260   5.388   5.433   8.684  0.5900  0.2503 -0.8762
  713MOL0     C98261   5.325   5.435   8.809 -0.2489  0.6300  0.4232
  713MOL0     C98262   5.387   5.497   8.913  0.2392 -0.1331 -0.6381
  713MOL0     C98263   5.498   5.581   8.893  0.3157  1.1241 -0.6487
  713MOL0     O98264   5.554   5.637   9.011 -0.2559  0.6351  0.3284
  713MOL0     C98265   5.508   5.623   9.145  0.0859 -0.7023  0.0930
  713MOL0     C98266   5.592   5.706   9.242 -0.3962 -0.0230  0.6461
  713MOL0     C98267   5.569   5.847   9.224  0.5280 -0.3042 -0.5488
  713MOL0     C98268   5.661   5.938   9.308 -0.1095 -0.2342 -0.7366
  713MOL0     C98269   5.621   6.084   9.313  0.1883  0.3976  0.2801
  713MOL0     C98270   5.505   6.083   9.406 -0.3046 -0.4990  0.5544
  713MOL0     C98271   5.395   6.183   9.391  0.8806 -0.4368 -0.4666
  713MOL0     C98272   5.261   6.122   9.432  0.3887 -0.1089 -0.0877
  713MOL0     N98273   5.254   6.083   9.573 -0.9808  0.1404  0.4260
  713MOL0     C98274   5.291   6.166   9.676  1.2205 -0.7474 -0.2407
  713MOL0     C98275   5.293   6.083   9.787  0.8128  1.2071  1.2235
  713MOL0     C98276   5.325   6.129   9.924 -0.9219  0.1942  0.5528
  713MOL0     C98277   5.476   6.136   9.951  0.1320 -0.1684  0.0190
  713MOL0     C98278   5.486   6.142  10.097 -1.0780  0.3729 -0.6108
  713MOL0     C98279   5.624   6.189  10.146 -0.1797 -0.9707  0.2985
  713MOL0     O98280   5.731   6.100  10.100  0.2724  0.3906  0.4853
  713MOL0     C98281   5.853   6.150  10.127 -0.3637 -0.3513 -0.4386
  713MOL0     C98282   5.944   6.051  10.154 -0.2188  0.3941 -0.4347
  713MOL0     C98283   6.077   6.083  10.190  0.0734  0.0937 -0.7669
  713MOL0     C98284   6.166   5.965  10.214 -1.0094  0.4002 -0.3222
  713MOL0     C98285   6.127   6.221  10.198 -0.2485  1.2131 -0.0732
  713MOL0     C98286   6.266   6.271  10.231  0.4878  0.7894  0.2831
  713MOL0     O98287   6.339   6.187  10.307  0.1932  0.0308  0.2336
  713MOL0     C98288   6.479   6.191  10.277  0.4247 -0.0775 -0.7230
  713MOL0     C98289   6.552   6.245  10.376  1.3970 -0.1266  0.1693
  713MOL0     C98290   6.693   6.256  10.351  0.5264 -0.2717 -0.4941
  713MOL0     C98291   6.753   6.211  10.224  0.3047 -0.6761  0.3228
  713MOL0     O98292   6.885   6.215  10.193 -0.3712  0.1291 -0.0884
  713MOL0     C98293   6.979   6.278  10.285 -1.0647 -0.2376 -0.6933
  713MOL0     C98294   7.110   6.249  10.217 -0.4302  0.0602 -0.2191
  713MOL0     C98295   7.216   6.275  10.328 -0.3734  0.2703 -0.3096
  713MOL0     C98296   7.240   6.164  10.425 -0.6177  0.0090  0.3427
  713MOL0     C98297   7.383   6.166  10.479  0.2624 -0.4723 -1.1483
  713MOL0     C98298   7.390   6.060  10.584  0.5253 -0.7021  0.3195
  713MOL0     C98299   7.432   5.925  10.521 -0.4532  0.7810  0.0794
  713MOL0     C98300   7.438   5.817  10.633  0.3122 -0.6461  0.5028
  713MOL0    Cl98301   7.510   5.659  10.571 -0.1706 -0.4692  0.5035
  713MOL0     C98302   6.665   6.161  10.122  0.0143 -0.2158  0.9372
  713MOL0     C98303   6.524   6.156  10.151  0.4399 -0.0070  1.3089
  713MOL0     O98304   6.297   6.381  10.194 -0.5990 -0.1000  0.3454
  713MOL0     C98305   6.033   6.317  10.159 -0.7498  0.4208  0.1641
  713MOL0     C98306   5.897   6.288  10.124 -0.2092 -0.4781 -0.2684
  713MOL0     N98307   5.258   5.956   9.753 -0.3048  0.9742 -0.3135
  713MOL0     N98308   5.242   5.951   9.626 -0.6151 -0.2122  0.4687
  713MOL0     C98309   5.557   5.584   8.767 -1.2045 -0.8397  0.8268
  713MOL0     C98310   5.504   5.509   8.662 -1.1997 -0.5456 -0.2431
  713MOL0     C98311   5.172   5.365   8.390 -0.3923 -0.9921  0.1266
  713MOL0     C98312   5.034   5.382   8.359 -0.1538  0.3201  0.5496
  713MOL0     C98313   4.995   5.345   8.230  0.6923 -0.1315  1.4157
  713MOL0     C98314   5.069   5.265   8.143 -0.0954  0.3719 -0.2142
  713MOL0     O98315   5.035   5.216   8.022  0.1013 -0.9234 -0.3228
  713MOL0     C98316   4.910   5.261   7.961 -0.3031 -0.5045  0.2597
  713MOL0     C98317   4.859   5.171   7.842  0.0092 -0.1754 -0.4564
  713MOL0     C98318   4.829   5.031   7.900 -0.2113 -0.1375  0.9294
  713MOL0     C98319   4.744   4.967   7.789  0.1543 -0.5836  0.8265
  713MOL0     C98320   4.681   4.840   7.823 -0.8416 -0.4403 -1.0812
  713MOL0     C98321   4.613   4.752   7.861  0.3150 -0.1378  0.7943
  713MOL0     C98322   5.202   5.239   8.181 -0.7268  0.1160  0.5189
  713MOL0     C98323   5.255   5.274   8.305  0.1845 -0.5347 -0.1399
  713MOL0     C98324   5.403   5.236   8.334  0.1377  0.5261  0.6984
  713MOL0     H98325   5.233   5.380   8.824  1.4881 -1.7587  3.5284
  713MOL0     H98326   5.330   5.494   9.005  1.8302  0.9417  0.4368
  713MOL0     H98327   5.514   5.519   9.180 -0.4056  0.1688  2.9870
  713MOL0     H98328   5.405   5.652   9.163  0.2822 -1.3180  2.5453
  713MOL0     H98329   5.564   5.674   9.343 -0.6451 -2.1447 -0.0307
  713MOL0     H98330   5.693   5.670   9.222 -1.0204 -1.6032  0.1034
  713MOL0     H98331   5.583   5.874   9.118  2.0636  0.2951 -0.2105
  713MOL0     H98332   5.468   5.873   9.258  2.0060  3.2527  1.6392
  713MOL0     H98333   5.675   5.896   9.408 -2.4717 -0.7616 -0.5684
  713MOL0     H98334   5.758   5.929   9.258 -1.0038 -1.6732 -2.3065
  713MOL0     H98335   5.597   6.116   9.211 -0.6493 -1.6366 -0.2169
  713MOL0     H98336   5.703   6.144   9.355  1.9435 -2.5653  1.4091
  713MOL0     H98337   5.460   5.985   9.418  1.3887 -1.3641  0.1530
  713MOL0     H98338   5.545   6.098   9.507 -2.3901  0.9588  1.2329
  713MOL0     H98339   5.391   6.208   9.285  2.4307 -0.8076 -0.6258
  713MOL0     H98340   5.413   6.274   9.449 -3.4437 -0.2314  0.9317
  713MOL0     H98341   5.183   6.196   9.410  0.3352  1.2044  3.7708
  713MOL0     H98342   5.241   6.037   9.367 -0.9598  1.2178 -1.4966
  713MOL0     H98343   5.324   6.269   9.670  0.4416 -0.5638 -1.7356
  713MOL0     H98344   5.280   6.067  10.003  0.1396 -1.3939 -0.0290
  713MOL0     H98345   5.288   6.231   9.934  0.5963  0.6611  1.7812
  713MOL0     H98346   5.526   6.048   9.909 -0.0777 -0.3578  0.1735
  713MOL0     H98347   5.523   6.221   9.899  0.5967 -0.8247 -0.6549
  713MOL0     H98348   5.411   6.211  10.137 -1.1012 -0.4645  0.8362
  713MOL0     H98349   5.471   6.044  10.141  2.0574 -0.9689 -2.2205
  713MOL0     H98350   5.639   6.292  10.113  0.8226 -1.7167 -1.6941
  713MOL0     H98351   5.616   6.186  10.256  3.2383  3.9372  1.0068
  713MOL0     H98352   5.913   5.948  10.140  2.3908 -0.6025  0.5752
  713MOL0     H98353   6.187   5.933  10.317 -0.1555 -0.7124 -0.8138
  713MOL0     H98354   6.261   5.996  10.169 -0.3348  0.4158  1.0677
  713MOL0     H98355   6.139   5.876  10.157 -0.4593  0.9285 -1.4521
  713MOL0     H98356   6.496   6.267  10.467  4.0202 -0.5789  2.0102
  713MOL0     H98357   6.755   6.308  10.424  2.5618  0.5306 -2.6632
  713MOL0     H98358   6.965   6.386  10.290  0.4953 -0.0863  1.5293
  713MOL0     H98359   6.966   6.236  10.385 -0.4667  0.4526 -0.3139
  713MOL0     H98360   7.117   6.145  10.183  0.6450 -0.5291  1.6562
  713MOL0     H98361   7.126   6.321  10.136  1.4278  1.0713  0.9612
  713MOL0     H98362   7.183   6.363  10.385 -0.2381  0.5236 -0.6127
  713MOL0     H98363   7.307   6.288  10.267  1.0428  1.8401  1.9599
  713MOL0     H98364   7.227   6.066  10.378  0.2976  0.5680 -1.1560
  713MOL0     H98365   7.166   6.165  10.505  0.0979  2.3998  1.0455
  713MOL0     H98366   7.462   6.172  10.403  1.2779  1.1217 -0.0274
  713MOL0     H98367   7.399   6.259  10.536  0.6946 -2.0744  1.5124
  713MOL0     H98368   7.296   6.054  10.640 -0.9747 -0.5668 -2.0252
  713MOL0     H98369   7.468   6.091  10.654  0.5439 -1.3860  0.6136
  713MOL0     H98370   7.538   5.931  10.495 -0.4713  0.5155 -0.0520
  713MOL0     H98371   7.371   5.899  10.434  1.3654  0.1784 -1.0815
  713MOL0     H98372   7.335   5.804  10.668  0.2396  1.2971  1.1291
  713MOL0     H98373   7.491   5.849  10.723  1.2990 -1.8170  0.3683
  713MOL0     H98374   6.704   6.134  10.025  1.7549  1.7513  1.0095
  713MOL0     H98375   6.458   6.104  10.082 -1.2996  2.0104  1.3610
  713MOL0     H98376   6.063   6.421  10.150  0.0877  0.2234  0.6325
  713MOL0     H98377   5.833   6.372  10.097 -1.7265 -0.4741  2.9047
  713MOL0     H98378   5.644   5.649   8.759 -0.8262 -1.1716  2.0137
  713MOL0     H98379   5.556   5.500   8.567  2.9804 -1.2098  1.8365
  713MOL0     H98380   4.953   5.431   8.413 -2.5588 -1.3687 -1.2703
  713MOL0     H98381   4.891   5.368   8.211  1.7399  3.5077 -1.1664
  713MOL0     H98382   4.826   5.259   8.032 -0.4503 -4.5208  0.1603
  713MOL0     H98383   4.915   5.366   7.929 -0.3440 -0.5354  0.1498
  713MOL0     H98384   4.936   5.169   7.765 -0.0632 -2.2349 -0.5264
  713MOL0     H98385   4.771   5.227   7.809  0.0380  1.1338  1.4695
  713MOL0     H98386   4.925   4.985   7.923  1.3123  1.6736 -1.3100
  713MOL0     H98387   4.763   5.040   7.986 -0.6254  1.9227  0.4537
  713MOL0     H98388   4.800   4.945   7.698 -0.3664  0.5220  0.2208
  713MOL0     H98389   4.663   5.028   7.750 -0.0432 -2.0915 -1.2851
  713MOL0     H98390   4.566   4.657   7.876  1.9122 -0.9038  1.1717
  713MOL0     H98391   5.264   5.188   8.109 -0.8986  1.1300 -0.3691
  713MOL0     H98392   5.463   5.327   8.323 -0.3240  0.7875  0.3316
  713MOL0     H98393   5.419   5.188   8.431 -0.9553  1.0296  1.1331
  713MOL0     H98394   5.436   5.164   8.258  0.2947  2.1967 -0.8805
  714MOL0     O98395   1.030  11.221   8.169 -0.0772  0.1627 -0.5203
  714MOL0     C98396   1.104  11.128   8.212  0.5961 -0.4022 -0.5174
  714MOL0     O98397   1.204  11.150   8.306 -0.1084  0.1558 -0.2374
  714MOL0     C98398   1.205  11.276   8.362  0.6586 -0.2414  0.1577
  714MOL0     C98399   1.152  11.286   8.483  0.4621 -0.2579  0.2658
  714MOL0     C98400   1.146  11.408   8.550  0.0431 -0.1456  1.3259
  714MOL0     C98401   1.185  11.521   8.490 -0.9454 -0.1922  0.2007
  714MOL0     O98402   1.188  11.631   8.573 -0.8275  0.1215 -0.1281
  714MOL0     C98403   1.197  11.762   8.519 -0.3153 -0.3709  0.3737
  714MOL0     C98404   1.233  11.858   8.633 -0.0736  0.4061  0.0464
  714MOL0     C98405   1.171  11.989   8.619 -0.8714 -0.3596 -0.8561
  714MOL0     C98406   1.192  12.085   8.741 -0.7913  0.4285  0.5280
  714MOL0     C98407   1.143  12.031   8.875  0.0057 -0.3049 -0.4080
  714MOL0     C98408   0.995  12.043   8.892 -0.2166 -0.3447  0.1037
  714MOL0     C98409   0.950  12.099   9.024  0.0643  0.5987 -0.9288
  714MOL0     C98410   0.954  12.250   9.060 -0.3236  0.3631 -0.8514
  714MOL0     N98411   1.087  12.315   9.045 -0.1710  0.1906  0.5903
  714MOL0     C98412   1.114  12.394   8.942  0.1043  0.1017 -0.1603
  714MOL0     C98413   1.242  12.422   8.957  0.0976 -0.0161 -0.2727
  714MOL0     C98414   1.315  12.522   8.870 -0.1650 -0.9598 -0.7789
  714MOL0     C98415   1.389  12.455   8.759 -0.0119 -0.2665 -1.2896
  714MOL0     C98416   1.515  12.391   8.803 -0.7038  0.2430  0.0854
  714MOL0     C98417   1.605  12.347   8.685  0.1345 -0.7252 -0.3627
  714MOL0     O98418   1.557  12.233   8.614 -0.8305 -0.8721  0.1028
  714MOL0     C98419   1.581  12.208   8.484  0.1364  0.6679 -0.3296
  714MOL0     C98420   1.656  12.278   8.395 -0.0910 -0.3951  0.3153
  714MOL0     C98421   1.687  12.239   8.260 -0.7854  0.3693  0.4589
  714MOL0     C98422   1.786  12.339   8.186 -0.0337 -0.4258 -0.0668
  714MOL0     C98423   1.640  12.116   8.217  0.4837  0.2351  0.1022
  714MOL0     C98424   1.679  12.042   8.097  0.6615  0.1240  0.3799
  714MOL0     O98425   1.635  11.910   8.095  0.3913  0.0180 -0.6025
  714MOL0     C98426   1.672  11.814   8.002  0.1845  0.0187  0.2826
  714MOL0     C98427   1.597  11.700   7.997  0.2732 -0.1439 -0.8143
  714MOL0     C98428   1.620  11.600   7.904 -1.1840 -0.2828 -0.3178
  714MOL0     C98429   1.738  11.599   7.832  0.4092 -0.9733  0.3999
  714MOL0     O98430   1.747  11.498   7.742 -0.1410 -0.4636 -0.1918
  714MOL0     C98431   1.787  11.527   7.610 -0.1868  0.5330  0.1122
  714MOL0     C98432   1.847  11.398   7.540 -1.0530  0.0702  0.1051
  714MOL0     C98433   1.934  11.442   7.420 -0.4817  0.2521 -0.6349
  714MOL0     C98434   1.962  11.323   7.329  0.9231  0.4370 -0.0031
  714MOL0     C98435   1.983  11.348   7.175 -0.2264  0.6256  0.0329
  714MOL0     C98436   2.137  11.374   7.159 -0.0121 -0.1831 -0.5419
  714MOL0     C98437   2.185  11.367   7.017 -0.1710 -1.0428  0.4399
  714MOL0     C98438   2.344  11.409   7.007  0.3253  0.8110  0.0683
  714MOL0    Cl98439   2.376  11.551   7.104 -0.1779 -0.2665  0.1465
  714MOL0     C98440   1.812  11.709   7.832  0.1606  0.0142  0.4552
  714MOL0     C98441   1.781  11.815   7.915  0.0018 -0.1548 -0.1456
  714MOL0     O98442   1.740  12.100   8.014  0.9257 -0.0971  0.0983
  714MOL0     C98443   1.550  12.044   8.305 -0.9857 -0.5160 -0.2393
  714MOL0     C98444   1.517  12.087   8.437 -0.3532 -0.6910  0.0694
  714MOL0     N98445   1.295  12.350   9.059  0.3834  0.2947 -0.1230
  714MOL0     N98446   1.197  12.287   9.118 -0.0353  0.0878  0.0707
  714MOL0     C98447   1.239  11.519   8.361 -0.2824  0.6059  0.2822
  714MOL0     C98448   1.240  11.396   8.299 -1.0499  0.7726 -0.6514
  714MOL0     C98449   1.072  10.997   8.160  0.0569 -0.5634 -0.9957
  714MOL0     C98450   1.170  10.918   8.111 -0.2655  0.0786 -0.4521
  714MOL0     C98451   1.129  10.805   8.034  0.0443 -0.1927  0.0728
  714MOL0     C98452   1.006  10.752   8.037  0.1544  0.7550  1.7304
  714MOL0     O98453   0.978  10.635   7.964 -0.1391  0.3944 -0.3478
  714MOL0     C98454   0.864  10.555   8.006 -0.3500 -1.1735 -0.4081
  714MOL0     C98455   0.846  10.421   7.943 -0.2778  0.8707  0.9635
  714MOL0     C98456   0.808  10.429   7.790  0.0887  0.4650  0.2115
  714MOL0     C98457   0.931  10.448   7.705  1.2011 -0.3381  0.2550
  714MOL0     C98458   0.891  10.520   7.580  0.3526 -1.0453 -0.8293
  714MOL0     C98459   0.869  10.595   7.485  0.2747 -0.4174 -0.7258
  714MOL0     C98460   0.910  10.827   8.106  0.5884  0.6988  0.0659
  714MOL0     C98461   0.943  10.940   8.179  0.1632  0.8394  0.3582
  714MOL0     C98462   0.835  11.015   8.261  0.3524 -0.8968 -0.3733
  714MOL0     H98463   1.110  11.198   8.530 -1.3297 -0.1773 -1.0936
  714MOL0     H98464   1.118  11.411   8.655 -0.6063 -0.3195  1.1630
  714MOL0     H98465   1.106  11.794   8.468  0.7809  2.7972  0.1664
  714MOL0     H98466   1.272  11.761   8.439  0.3393 -1.2276  0.9787
  714MOL0     H98467   1.205  11.819   8.731  0.9865  2.8624  1.4239
  714MOL0     H98468   1.342  11.865   8.638 -0.0740 -0.1654  1.4241
  714MOL0     H98469   1.198  12.034   8.523 -0.8943  0.6892 -0.3830
  714MOL0     H98470   1.064  11.979   8.600 -0.9159 -0.8627 -0.3603
  714MOL0     H98471   1.300  12.099   8.751 -0.6638 -0.5161  0.5215
  714MOL0     H98472   1.157  12.188   8.726 -1.2980  0.4851  1.9563
  714MOL0     H98473   1.184  12.079   8.964  0.7237 -1.8936  0.1424
  714MOL0     H98474   1.163  11.925   8.890  3.8346  0.0722 -1.7602
  714MOL0     H98475   0.958  12.099   8.806  0.3758  0.2052  0.1960
  714MOL0     H98476   0.949  11.945   8.875 -2.1245 -0.0537  2.8429
  714MOL0     H98477   1.001  12.039   9.100 -0.2648  0.0435 -1.1423
  714MOL0     H98478   0.845  12.072   9.041  0.5087  1.0170  4.2498
  714MOL0     H98479   0.878  12.305   9.003 -0.3652  0.1980 -0.9569
  714MOL0     H98480   0.922  12.262   9.164  0.2153 -2.5566 -0.2585
  714MOL0     H98481   1.033  12.435   8.883 -1.4320 -3.0940 -0.4901
  714MOL0     H98482   1.382  12.584   8.931 -0.5758 -0.7075 -0.5877
  714MOL0     H98483   1.239  12.587   8.827  3.0379  1.7186 -2.9926
  714MOL0     H98484   1.341  12.363   8.725  3.5408 -2.2122 -1.5223
  714MOL0     H98485   1.410  12.531   8.683 -2.2188  1.0816 -0.6443
  714MOL0     H98486   1.563  12.460   8.873  0.1685 -1.5199  1.3127
  714MOL0     H98487   1.487  12.305   8.865 -1.7003 -0.9795 -1.9521
  714MOL0     H98488   1.614  12.432   8.617  0.9588 -1.4951 -1.2419
  714MOL0     H98489   1.707  12.337   8.723  0.3295 -1.4443 -1.0498
  714MOL0     H98490   1.700  12.372   8.427  1.5209  0.1241 -2.9528
  714MOL0     H98491   1.798  12.432   8.241 -2.8533 -0.7205  1.2230
  714MOL0     H98492   1.735  12.360   8.091 -0.9388  2.1573  0.9276
  714MOL0     H98493   1.879  12.282   8.184 -0.4557 -1.1620  0.6279
  714MOL0     H98494   1.504  11.690   8.051  0.3025  0.5154 -0.6402
  714MOL0     H98495   1.551  11.518   7.886 -0.1426 -0.7738 -2.3913
  714MOL0     H98496   1.701  11.557   7.549  0.4464  1.1850 -0.4712
  714MOL0     H98497   1.864  11.604   7.604  2.1090 -1.5911  0.5375
  714MOL0     H98498   1.899  11.344   7.619 -0.3001  0.8284  0.1358
  714MOL0     H98499   1.763  11.331   7.518 -0.6348 -0.8832  1.3308
  714MOL0     H98500   2.029  11.486   7.449  0.8000 -0.8140 -2.9586
  714MOL0     H98501   1.868  11.515   7.372  0.2366  1.3579  0.0137
  714MOL0     H98502   1.879  11.253   7.344  1.9767 -0.6469  1.0457
  714MOL0     H98503   2.051  11.282   7.378  1.0737  1.9759  1.0914
  714MOL0     H98504   1.966  11.252   7.124  1.1070 -1.0388  2.5185
  714MOL0     H98505   1.912  11.425   7.145 -0.6193  0.8925  1.6024
  714MOL0     H98506   2.195  11.292   7.203 -0.0796  0.9012  1.7273
  714MOL0     H98507   2.159  11.467   7.211 -1.8602  1.1086 -1.9692
  714MOL0     H98508   2.133  11.442   6.956  1.2623  0.2373  0.7010
  714MOL0     H98509   2.177  11.266   6.977 -1.3738 -0.3777 -1.1225
  714MOL0     H98510   2.370  11.417   6.901 -0.3677  1.3920 -0.0593
  714MOL0     H98511   2.399  11.326   7.052 -1.4085 -1.6086 -1.9901
  714MOL0     H98512   1.906  11.728   7.780 -0.6076  3.0971  0.0441
  714MOL0     H98513   1.855  11.894   7.904 -3.2555  3.0145 -1.5065
  714MOL0     H98514   1.508  11.946   8.288 -0.5568 -0.5753 -1.0224
  714MOL0     H98515   1.464  12.033   8.515 -1.0700  2.3063  1.8168
  714MOL0     H98516   1.278  11.596   8.295  2.0302 -1.4345 -0.9184
  714MOL0     H98517   1.284  11.392   8.199  0.8366  0.7190  0.1465
  714MOL0     H98518   1.275  10.947   8.116  0.2718 -1.7859 -0.1911
  714MOL0     H98519   1.208  10.750   7.983  1.5921  0.5963  1.4986
  714MOL0     H98520   0.871  10.541   8.114  0.5387  1.4083 -0.0522
  714MOL0     H98521   0.773  10.611   7.981 -0.6075 -1.8390 -0.9873
  714MOL0     H98522   0.772  10.360   7.995  2.0460 -1.8254  1.3762
  714MOL0     H98523   0.938  10.362   7.955 -0.8332  0.0714  1.3983
  714MOL0     H98524   0.733  10.350   7.783 -1.0205  1.3202  1.7416
  714MOL0     H98525   0.744  10.518   7.777 -0.1214  0.6448  2.2602
  714MOL0     H98526   0.980  10.352   7.683 -1.1453 -1.7142  0.7038
  714MOL0     H98527   0.992  10.516   7.765  0.1877 -0.3865  1.3743
  714MOL0     H98528   0.828  10.659   7.408 -0.4510  0.3759  0.2880
  714MOL0     H98529   0.812  10.783   8.126  0.1087  2.1905  1.2536
  714MOL0     H98530   0.832  11.120   8.228 -0.5059 -1.3458 -1.8157
  714MOL0     H98531   0.735  10.979   8.237  0.3711 -1.8233  0.8245
  714MOL0     H98532   0.845  11.009   8.370  0.7247  2.3079 -0.1141
  715MOL0     O98533   3.173   1.874   0.655 -1.0426 -0.1237 -0.1011
  715MOL0     C98534   3.122   1.835   0.551  0.3743 -0.2227 -0.4156
  715MOL0     O98535   3.189   1.815   0.433 -0.1302  0.6584  0.9230
  715MOL0     C98536   3.317   1.840   0.430 -0.4017 -1.0402  0.2482
  715MOL0     C98537   3.415   1.782   0.512 -0.8757 -0.7415  1.1743
  715MOL0     C98538   3.544   1.840   0.505  0.2534  0.5320 -0.5144
  715MOL0     C98539   3.574   1.947   0.415  0.2957  1.4184  0.1136
  715MOL0     O98540   3.691   2.029   0.408 -0.2419  0.1954 -0.2048
  715MOL0     C98541   3.807   1.979   0.477 -0.2440 -0.4235  0.2120
  715MOL0     C98542   3.918   2.080   0.483 -0.4309 -0.1693  0.7253
  715MOL0     C98543   3.890   2.193   0.582 -0.6446  0.2169  0.3208
  715MOL0     C98544   3.793   2.297   0.542  0.8460 -0.3790  0.0255
  715MOL0     C98545   3.786   2.412   0.640  0.0420  0.4388 -0.5384
  715MOL0     C98546   3.677   2.502   0.586  0.4204  0.6018  0.3937
  715MOL0     C98547   3.668   2.627   0.670 -0.1380  0.2910  0.6737
  715MOL0     C98548   3.543   2.693   0.601  1.1169 -0.1131  1.1364
  715MOL0     N98549   3.510   2.807   0.688  0.0348 -0.1155  0.0279
  715MOL0     C98550   3.448   2.803   0.810 -0.4595  0.5217 -0.4062
  715MOL0     C98551   3.432   2.937   0.844 -0.5182 -1.0021 -0.0777
  715MOL0     C98552   3.363   2.973   0.975  0.5383 -0.2159  0.0824
  715MOL0     C98553   3.269   3.090   0.958  0.1988  0.2730 -0.8576
  715MOL0     C98554   3.340   3.220   0.983  0.5569 -1.0266 -1.0559
  715MOL0     C98555   3.248   3.340   0.936  0.4444  0.6813 -0.1349
  715MOL0     O98556   3.283   3.459   1.010  0.7453  0.2352  0.1247
  715MOL0     C98557   3.171   3.527   1.042  0.7047  0.3387  0.1719
  715MOL0     C98558   3.116   3.607   0.946 -0.7214 -0.8364 -0.2063
  715MOL0     C98559   3.001   3.676   0.961 -0.0483 -0.7977 -0.4990
  715MOL0     C98560   2.951   3.765   0.840  0.2962  1.0860  0.0704
  715MOL0     C98561   2.919   3.652   1.074 -0.1903  0.7147 -0.1249
  715MOL0     C98562   2.790   3.715   1.094  0.1746  0.4496  0.2804
  715MOL0     O98563   2.699   3.649   1.168 -0.4886  0.9217 -0.5421
  715MOL0     C98564   2.569   3.690   1.186 -0.2420 -0.5654  0.4757
  715MOL0     C98565   2.519   3.812   1.249 -0.3239  0.0787 -0.0523
  715MOL0     C98566   2.386   3.820   1.286 -0.6143  0.6349 -0.5516
  715MOL0     C98567   2.301   3.718   1.264  0.5677 -0.0711 -1.6328
  715MOL0     O98568   2.177   3.731   1.317  0.6042 -1.1331  0.0572
  715MOL0     C98569   2.105   3.624   1.379 -0.8533  0.1714 -0.5833
  715MOL0     C98570   2.007   3.667   1.490 -0.4283 -0.0664 -0.3115
  715MOL0     C98571   1.923   3.537   1.530 -0.2155 -0.2971 -0.9614
  715MOL0     C98572   1.825   3.569   1.641  0.5860 -0.3919 -0.5164
  715MOL0     C98573   1.726   3.453   1.656 -0.6014  0.0949 -0.2563
  715MOL0     C98574   1.599   3.492   1.746  0.6011  0.1882  0.2780
  715MOL0     C98575   1.523   3.363   1.787 -0.8849 -0.3683 -0.7052
  715MOL0     C98576   1.404   3.388   1.879  0.2725  0.3817 -0.3436
  715MOL0    Cl98577   1.304   3.517   1.825  0.1095 -0.0495 -0.0032
  715MOL0     C98578   2.341   3.603   1.186 -0.5046 -0.7108  0.1143
  715MOL0     C98579   2.475   3.598   1.149  0.0162  0.2753 -0.8415
  715MOL0     O98580   2.782   3.831   1.053  0.0081 -0.0543 -0.4276
  715MOL0     C98581   2.974   3.563   1.173 -0.3876 -0.1312  0.3097
  715MOL0     C98582   3.098   3.515   1.166 -0.6491  0.7035 -0.3180
  715MOL0     N98583   3.484   3.019   0.752  0.6141  0.3903  0.7009
  715MOL0     N98584   3.529   2.938   0.659  0.0160 -0.4724  0.7832
  715MOL0     C98585   3.467   1.992   0.344  0.1246 -0.1171 -0.4823
  715MOL0     C98586   3.341   1.945   0.343 -0.2418 -0.0910  0.3157
  715MOL0     C98587   2.970   1.816   0.549 -0.0515 -0.2248  0.3792
  715MOL0     C98588   2.914   1.771   0.432  0.1456  0.1969 -0.8747
  715MOL0     C98589   2.779   1.761   0.427 -0.2509 -0.1528 -0.2070
  715MOL0     C98590   2.697   1.783   0.535 -0.8744  0.5417 -0.4646
  715MOL0     O98591   2.569   1.748   0.512 -0.4263 -0.3592  0.5484
  715MOL0     C98592   2.463   1.779   0.607  0.7026 -0.4217 -0.1087
  715MOL0     C98593   2.331   1.699   0.575 -0.3032 -1.2861  0.5458
  715MOL0     C98594   2.203   1.736   0.658 -0.4498  0.0354  0.1271
  715MOL0     C98595   2.186   1.675   0.801 -0.3905  0.0270 -0.5892
  715MOL0     C98596   2.096   1.760   0.885 -0.1425  0.4467  0.0051
  715MOL0     C98597   2.010   1.827   0.943 -0.5759  0.0100  0.2795
  715MOL0     C98598   2.752   1.830   0.650 -0.0448 -0.1060 -0.3514
  715MOL0     C98599   2.889   1.858   0.659 -0.9926  0.2106 -0.6912
  715MOL0     C98600   2.935   1.911   0.800 -0.5000  0.8697 -0.8463
  715MOL0     H98601   3.388   1.699   0.577 -1.8051 -2.8100 -1.6315
  715MOL0     H98602   3.614   1.792   0.572  3.2591  2.9332 -1.6839
  715MOL0     H98603   3.845   1.891   0.424  2.5890  0.4473  0.6336
  715MOL0     H98604   3.775   1.951   0.578 -1.8770  0.8641  0.0954
  715MOL0     H98605   4.008   2.025   0.512 -1.0702 -0.8139  1.5106
  715MOL0     H98606   3.937   2.122   0.383  0.3043  0.9657  1.3149
  715MOL0     H98607   3.855   2.146   0.675 -1.5498 -0.6012 -0.4113
  715MOL0     H98608   3.986   2.239   0.607  1.8244 -3.2579 -1.7985
  715MOL0     H98609   3.836   2.341   0.451  3.6382 -2.4665  0.1753
  715MOL0     H98610   3.699   2.250   0.511 -1.2880  1.8156  2.6608
  715MOL0     H98611   3.883   2.462   0.637 -0.1795  0.8362 -2.3137
  715MOL0     H98612   3.761   2.376   0.740 -0.4524 -2.7901 -1.7207
  715MOL0     H98613   3.687   2.514   0.477 -1.2166  0.2139  0.1746
  715MOL0     H98614   3.580   2.454   0.597  0.4507  0.4918  0.1886
  715MOL0     H98615   3.755   2.694   0.659 -0.6555  1.0971  1.4073
  715MOL0     H98616   3.660   2.617   0.778 -2.5012  0.2459  0.5289
  715MOL0     H98617   3.560   2.728   0.499 -2.4209 -1.9870 -0.2988
  715MOL0     H98618   3.452   2.632   0.596  0.0059  1.5354  0.0787
  715MOL0     H98619   3.433   2.712   0.866  1.9076  1.1016  1.3846
  715MOL0     H98620   3.439   3.005   1.046  2.4923  2.4867 -2.9943
  715MOL0     H98621   3.300   2.891   1.012  2.4940 -1.1513  1.5063
  715MOL0     H98622   3.218   3.090   0.862 -1.2557  0.7629 -0.1076
  715MOL0     H98623   3.193   3.089   1.037  1.4177 -2.1180  0.4171
  715MOL0     H98624   3.363   3.208   1.089  0.1314 -0.4413 -0.8922
  715MOL0     H98625   3.443   3.232   0.949  0.8943  0.4121  0.3751
  715MOL0     H98626   3.271   3.371   0.833  1.7124  0.3782  0.0292
  715MOL0     H98627   3.143   3.313   0.943  0.8873 -0.7181  1.7673
  715MOL0     H98628   3.174   3.625   0.856 -1.1286 -2.2102 -0.7738
  715MOL0     H98629   2.846   3.747   0.817  0.2280 -1.0949  1.7854
  715MOL0     H98630   3.009   3.740   0.750  0.7745 -0.6750  0.8164
  715MOL0     H98631   2.966   3.872   0.856 -1.9653  1.5587 -0.6416
  715MOL0     H98632   2.598   3.880   1.277 -0.8292  0.0942  1.4390
  715MOL0     H98633   2.363   3.910   1.343  2.8902 -0.0039  2.2123
  715MOL0     H98634   2.043   3.561   1.314 -2.0119  1.3722 -0.6856
  715MOL0     H98635   2.175   3.562   1.436 -1.2427  0.7776  0.5943
  715MOL0     H98636   2.052   3.707   1.581 -2.3039  1.0275  0.1734
  715MOL0     H98637   1.947   3.744   1.441  2.1932  2.2023 -0.2106
  715MOL0     H98638   1.983   3.448   1.552 -2.1205 -1.0206  1.8167
  715MOL0     H98639   1.857   3.511   1.447 -1.0495 -1.5198  0.0631
  715MOL0     H98640   1.763   3.658   1.627  0.0826 -0.9697 -2.1354
  715MOL0     H98641   1.880   3.601   1.730 -2.8559  1.1879  1.2337
  715MOL0     H98642   1.678   3.426   1.562 -2.3066 -2.6956  1.2920
  715MOL0     H98643   1.779   3.376   1.712  0.5497  1.4812  0.6477
  715MOL0     H98644   1.536   3.564   1.694  1.0071  1.4601  1.4660
  715MOL0     H98645   1.647   3.535   1.835  1.8364  1.4116 -0.9208
  715MOL0     H98646   1.601   3.305   1.838  3.0715  2.7491 -2.6479
  715MOL0     H98647   1.491   3.307   1.698 -0.2812 -1.8528 -0.0262
  715MOL0     H98648   1.439   3.421   1.978  0.2848 -0.1229 -0.1737
  715MOL0     H98649   1.347   3.296   1.897  0.0742  0.7368  0.9766
  715MOL0     H98650   2.263   3.538   1.147  0.5830 -1.2015 -1.3303
  715MOL0     H98651   2.514   3.520   1.084  0.7445 -1.0702  1.1119
  715MOL0     H98652   2.915   3.540   1.261 -1.5105  1.3787 -0.0016
  715MOL0     H98653   3.141   3.449   1.240 -1.2201 -2.6516 -2.7392
  715MOL0     H98654   3.486   2.083   0.288 -0.0918  1.5415  2.0145
  715MOL0     H98655   3.252   1.989   0.299 -2.0860 -2.7441  1.1017
  715MOL0     H98656   2.978   1.752   0.346  3.5429 -0.7637  1.6647
  715MOL0     H98657   2.732   1.726   0.336  2.7925 -1.2064 -1.5135
  715MOL0     H98658   2.494   1.748   0.707  0.2870  3.1174  1.2531
  715MOL0     H98659   2.449   1.887   0.610 -1.5452 -0.6819  0.8248
  715MOL0     H98660   2.346   1.591   0.582  1.7672 -1.0387  0.6091
  715MOL0     H98661   2.307   1.714   0.469 -0.0349 -1.4582  0.4610
  715MOL0     H98662   2.201   1.845   0.662 -0.4739  0.0742 -0.7571
  715MOL0     H98663   2.111   1.715   0.603 -1.7856  3.5144  0.8017
  715MOL0     H98664   2.277   1.663   0.860 -1.2269  1.1114  0.9846
  715MOL0     H98665   2.145   1.574   0.798  1.9195 -1.0416  0.7064
  715MOL0     H98666   1.944   1.876   1.011  0.5847  0.3671  1.1830
  715MOL0     H98667   2.685   1.834   0.735 -0.8042 -1.1092 -0.8853
  715MOL0     H98668   2.986   2.007   0.790 -1.8440  1.6030 -0.9189
  715MOL0     H98669   2.852   1.924   0.871  1.5430 -2.3883  2.4998
  715MOL0     H98670   2.994   1.834   0.852 -1.5399  2.4837  3.1536
  716MOL0     O98671   4.810  11.002   9.039  0.2091 -0.4931  0.3219
  716MOL0     C98672   4.822  10.988   9.161  0.3239  0.6461  0.0754
  716MOL0     O98673   4.722  10.998   9.253  1.0201 -0.4645  0.1914
  716MOL0     C98674   4.588  10.970   9.216 -0.7404  1.2712  0.9509
  716MOL0     C98675   4.557  10.866   9.128 -0.1018 -0.5314  1.2176
  716MOL0     C98676   4.422  10.844   9.096 -0.0200 -0.3484  0.0661
  716MOL0     C98677   4.315  10.929   9.150  0.7145 -0.1820 -0.2479
  716MOL0     O98678   4.180  10.925   9.104  0.6827  0.2847  0.7465
  716MOL0     C98679   4.145  10.855   8.978 -0.3352  0.2414 -0.0748
  716MOL0     C98680   4.001  10.846   8.937  0.4981  0.0762 -1.3123
  716MOL0     C98681   3.950  10.983   8.917 -0.1753 -0.5421 -0.1025
  716MOL0     C98682   3.794  10.987   8.911 -0.9175  0.3381  0.4347
  716MOL0     C98683   3.739  11.112   8.841 -0.1187  0.8902 -0.1547
  716MOL0     C98684   3.593  11.099   8.822 -0.4101  0.3406  0.0323
  716MOL0     C98685   3.548  11.225   8.743  0.2722 -0.1057 -0.0569
  716MOL0     C98686   3.392  11.237   8.737  0.9935  0.3973 -1.3101
  716MOL0     N98687   3.319  11.114   8.713 -0.7413 -0.8982 -0.1608
  716MOL0     C98688   3.271  11.089   8.588 -0.1447  0.1845  0.4568
  716MOL0     C98689   3.221  10.960   8.594 -0.4809 -0.5285 -0.1597
  716MOL0     C98690   3.165  10.878   8.480 -0.4921  0.9139 -0.1636
  716MOL0     C98691   3.021  10.874   8.488  0.2624 -0.1013 -0.4631
  716MOL0     C98692   2.967  10.813   8.621 -0.0334  0.9507  0.3141
  716MOL0     C98693   2.820  10.756   8.610 -0.6228 -0.1565 -0.0411
  716MOL0     O98694   2.754  10.879   8.584 -0.5331  0.1534  0.0303
  716MOL0     C98695   2.625  10.865   8.564 -0.8382 -0.3533  0.4459
  716MOL0     C98696   2.571  10.785   8.466 -0.5724 -0.8830 -0.7454
  716MOL0     C98697   2.440  10.752   8.456  0.5439  0.4402 -0.3016
  716MOL0     C98698   2.387  10.670   8.339 -0.0335  0.5182 -0.3288
  716MOL0     C98699   2.354  10.786   8.571  0.2804  0.6384  0.8474
  716MOL0     C98700   2.216  10.729   8.593  0.3900  0.7636 -0.3984
  716MOL0     O98701   2.157  10.766   8.715  0.1213  0.2111  0.0369
  716MOL0     C98702   2.049  10.708   8.773 -0.3534  0.2271 -0.4214
  716MOL0     C98703   1.993  10.582   8.741 -0.9332 -0.2169  0.4056
  716MOL0     C98704   1.881  10.534   8.806  0.3898  0.4328  0.5913
  716MOL0     C98705   1.821  10.603   8.908  0.3316  0.9466 -0.5655
  716MOL0     O98706   1.710  10.566   8.979  0.0600  0.0264 -0.4045
  716MOL0     C98707   1.609  10.493   8.908  1.7364 -0.3004 -0.6735
  716MOL0     C98708   1.548  10.581   8.793  0.1499  1.2633  0.3846
  716MOL0     C98709   1.487  10.702   8.861 -0.2933 -0.6080  0.1180
  716MOL0     C98710   1.421  10.797   8.762 -0.4851 -0.2420 -0.1257
  716MOL0     C98711   1.293  10.746   8.692 -0.0812  0.4293 -0.3809
  716MOL0     C98712   1.232  10.843   8.590 -0.3182 -0.4309 -0.6534
  716MOL0     C98713   1.156  10.767   8.479 -1.0978  0.4810  0.6418
  716MOL0     C98714   1.036  10.701   8.548 -0.0121  0.6580  0.5364
  716MOL0    Cl98715   0.949  10.603   8.419 -0.1373  0.1089  0.4454
  716MOL0     C98716   1.885  10.729   8.942  0.1974  1.1660  0.3546
  716MOL0     C98717   1.995  10.783   8.877 -0.0540  0.9798  0.4044
  716MOL0     O98718   2.163  10.651   8.512 -0.2543  0.4816 -0.3632
  716MOL0     C98719   2.401  10.871   8.666 -0.9723  0.4096  0.0902
  716MOL0     C98720   2.542  10.900   8.669 -0.9152 -0.6092 -0.1786
  716MOL0     N98721   3.240  10.914   8.726 -0.3061  0.4445  0.2220
  716MOL0     N98722   3.297  11.008   8.790  0.7373 -0.1835 -1.1478
  716MOL0     C98723   4.346  11.037   9.239  0.1377 -0.2279 -0.8993
  716MOL0     C98724   4.485  11.055   9.268  0.2803 -0.0358 -0.2108
  716MOL0     C98725   4.966  10.984   9.206  0.3901  0.1735 -0.9130
  716MOL0     C98726   4.999  11.053   9.325  0.4504  0.0510 -0.3104
  716MOL0     C98727   5.128  11.050   9.372 -0.1351  0.1205 -0.7515
  716MOL0     C98728   5.235  11.009   9.313  0.3301  0.9310  0.6150
  716MOL0     O98729   5.356  11.019   9.371  0.2215 -0.0733  0.2984
  716MOL0     C98730   5.481  11.001   9.303  0.6458  0.5597  0.6289
  716MOL0     C98731   5.582  11.102   9.345  0.2890 -0.0294 -0.6598
  716MOL0     C98732   5.581  11.119   9.503 -0.5976 -0.2622 -0.1452
  716MOL0     C98733   5.716  11.177   9.548 -0.0919 -0.8784 -0.5294
  716MOL0     C98734   5.758  11.130   9.684 -0.0306  0.8809 -0.0308
  716MOL0     C98735   5.787  11.085   9.795  0.1520  0.5124 -0.0788
  716MOL0     C98736   5.206  10.940   9.189  0.1480  0.1026  0.5679
  716MOL0     C98737   5.075  10.922   9.138  0.0350 -0.1655 -0.4122
  716MOL0     C98738   5.073  10.850   9.005  0.2561  0.0326  0.4075
  716MOL0     H98739   4.639  10.806   9.091 -0.2256  1.2496 -2.3448
  716MOL0     H98740   4.406  10.756   9.033 -1.0619  1.5480 -2.5035
  716MOL0     H98741   4.173  10.750   8.992  0.1001  0.4796  0.9186
  716MOL0     H98742   4.204  10.904   8.900  1.9506 -1.1901  0.6375
  716MOL0     H98743   4.011  10.789   8.844  0.8630 -0.6447 -0.8418
  716MOL0     H98744   3.938  10.787   9.006 -0.5576  3.7033  1.1320
  716MOL0     H98745   3.982  11.051   8.997  0.8377  1.5650 -2.1869
  716MOL0     H98746   3.988  11.018   8.820  1.6833 -1.3624  0.2768
  716MOL0     H98747   3.759  10.897   8.860  2.5023 -1.3623  0.8133
  716MOL0     H98748   3.761  10.984   9.016 -1.0812  0.9129  0.4005
  716MOL0     H98749   3.781  11.118   8.740 -1.0311  0.0580 -0.5994
  716MOL0     H98750   3.767  11.201   8.898  2.0064  1.2904 -1.7129
  716MOL0     H98751   3.570  11.014   8.756  0.2325 -0.8212  1.2426
  716MOL0     H98752   3.546  11.078   8.918  1.4547  0.8028  1.0850
  716MOL0     H98753   3.584  11.222   8.639  1.3041  0.5256  0.2612
  716MOL0     H98754   3.589  11.313   8.794 -0.2709 -1.2070  2.3996
  716MOL0     H98755   3.352  11.279   8.831 -0.3827 -1.4422 -1.0191
  716MOL0     H98756   3.371  11.318   8.666 -0.4113 -1.1807 -2.7650
  716MOL0     H98757   3.282  11.144   8.495  1.0245 -1.9047 -0.7026
  716MOL0     H98758   3.198  10.775   8.495  1.7789  1.7924  1.3566
  716MOL0     H98759   3.202  10.912   8.383  0.8314  1.6759  0.5805
  716MOL0     H98760   2.993  10.980   8.486 -2.6677 -0.8071 -0.7891
  716MOL0     H98761   2.978  10.838   8.394  1.1086  0.4595 -1.0838
  716MOL0     H98762   3.025  10.723   8.642 -1.7370  0.1899  2.0276
  716MOL0     H98763   2.981  10.876   8.709  3.4806 -2.3169  2.4006
  716MOL0     H98764   2.815  10.680   8.532  0.2876  0.3127 -0.5766
  716MOL0     H98765   2.788  10.711   8.705 -1.2689  0.3101 -0.0269
  716MOL0     H98766   2.639  10.738   8.395  2.2372 -0.2044  1.3217
  716MOL0     H98767   2.346  10.572   8.364 -4.4304  2.2378  0.0293
  716MOL0     H98768   2.467  10.669   8.264  0.2688  1.3450 -0.0288
  716MOL0     H98769   2.301  10.725   8.302 -2.0715 -2.8789 -1.0776
  716MOL0     H98770   2.017  10.525   8.652 -0.1790 -0.3063  0.6551
  716MOL0     H98771   1.835  10.446   8.761  0.4675 -0.1291  1.5722
  716MOL0     H98772   1.643  10.392   8.883 -1.0815 -1.8125  1.1327
  716MOL0     H98773   1.533  10.471   8.983  1.5408 -0.7843 -1.0085
  716MOL0     H98774   1.626  10.605   8.720  1.2526 -2.0848  0.2558
  716MOL0     H98775   1.467  10.524   8.747 -0.6304  2.4877  0.2169
  716MOL0     H98776   1.563  10.762   8.912  0.3398  0.0681 -1.5267
  716MOL0     H98777   1.416  10.672   8.938 -1.8727  1.8018 -0.2788
  716MOL0     H98778   1.486  10.834   8.683 -1.4055  1.7439 -0.0229
  716MOL0     H98779   1.395  10.888   8.817  0.9764  0.0333  0.1350
  716MOL0     H98780   1.327  10.658   8.637  1.1285 -0.1128  1.1717
  716MOL0     H98781   1.222  10.724   8.772  0.7907 -0.1052  0.2619
  716MOL0     H98782   1.306  10.913   8.551  0.4540 -1.2266 -0.6756
  716MOL0     H98783   1.165  10.909   8.645  3.1748  0.7820  2.6383
  716MOL0     H98784   1.217  10.694   8.424  2.8202  1.6951  2.9396
  716MOL0     H98785   1.128  10.837   8.400 -1.7051  1.4424  1.6789
  716MOL0     H98786   0.960  10.775   8.576 -1.4334 -0.8447  0.8463
  716MOL0     H98787   1.063  10.645   8.637  0.1840  0.2969  0.2515
  716MOL0     H98788   1.842  10.774   9.031 -0.0529 -0.2858  0.9830
  716MOL0     H98789   2.044  10.871   8.917  0.3582  1.1501 -0.4448
  716MOL0     H98790   2.340  10.907   8.748  2.0783  0.9152  2.2714
  716MOL0     H98791   2.586  10.957   8.750  1.3283  4.3158 -4.2737
  716MOL0     H98792   4.274  11.105   9.283 -2.6391 -2.9922 -0.8151
  716MOL0     H98793   4.521  11.144   9.318  1.5958  0.5403 -2.0718
  716MOL0     H98794   4.929  11.105   9.389  1.3565 -2.2641  2.8480
  716MOL0     H98795   5.151  11.096   9.467 -0.6034 -1.6008  0.2568
  716MOL0     H98796   5.519  10.903   9.334  0.7671  0.0600 -0.9946
  716MOL0     H98797   5.481  11.006   9.194 -4.4903  1.1061  0.4026
  716MOL0     H98798   5.577  11.196   9.289 -0.5190 -0.2025 -0.8956
  716MOL0     H98799   5.670  11.042   9.323 -1.6858 -2.4641 -2.4944
  716MOL0     H98800   5.513  11.198   9.536  0.3274  0.6278 -0.2920
  716MOL0     H98801   5.566  11.027   9.560  0.2713  0.6511  1.6551
  716MOL0     H98802   5.708  11.285   9.564  0.4101 -0.4194 -3.0111
  716MOL0     H98803   5.803  11.150   9.487  0.8600 -2.0491  1.2321
  716MOL0     H98804   5.814  11.060   9.895  1.1087 -0.1476 -0.4947
  716MOL0     H98805   5.287  10.890   9.137 -0.2139 -1.4040  1.3796
  716MOL0     H98806   5.130  10.914   8.938  0.2932 -0.8980 -0.4736
  716MOL0     H98807   5.106  10.746   9.007  0.6718  0.1173 -1.0703
  716MOL0     H98808   4.967  10.847   8.977 -0.2206  1.6960  1.8095
  717MOL0     O98809   8.337   3.537  10.851 -0.3785  0.4795 -0.1378
  717MOL0     C98810   8.336   3.451  10.942  0.1385  0.3835 -0.1163
  717MOL0     O98811   8.435   3.429  11.034 -0.7337  0.5225 -0.3028
  717MOL0     C98812   8.552   3.492  10.999 -0.1508 -0.0249  0.9051
  717MOL0     C98813   8.645   3.417  10.929 -0.2864  0.1324 -0.5655
  717MOL0     C98814   8.767   3.467  10.891  0.2354  0.6570 -0.2037
  717MOL0     C98815   8.798   3.597  10.912 -1.1201 -0.1425 -0.9914
  717MOL0     O98816   8.910   3.650  10.862  0.6634 -0.5426  0.2284
  717MOL0     C98817   8.944   3.610  10.729  0.8049 -0.3938 -1.0195
  717MOL0     C98818   9.058   3.502  10.742 -0.6921 -0.3776  0.4440
  717MOL0     C98819   9.108   3.449  10.603  0.1640 -0.4862  0.5475
  717MOL0     C98820   9.248   3.397  10.633  0.6741  0.1808 -1.0181
  717MOL0     C98821   9.294   3.329  10.505  0.3402  0.0209  0.0173
  717MOL0     C98822   9.445   3.303  10.520  0.1560  0.0784 -0.1262
  717MOL0     C98823   9.502   3.252  10.387 -0.4742  1.1988  0.4661
  717MOL0     C98824   9.653   3.235  10.372  0.2419 -0.9444 -0.9362
  717MOL0     N98825   9.685   3.191  10.239  0.1487  0.1683 -0.3434
  717MOL0     C98826   9.739   3.259  10.133  1.0549 -0.3928 -0.8722
  717MOL0     C98827   9.727   3.179  10.030 -0.4952  0.1023 -0.4750
  717MOL0     C98828   9.773   3.215   9.895 -0.3348  0.9639 -0.7361
  717MOL0     C98829   9.914   3.155   9.881 -0.3758 -0.1309  0.1476
  717MOL0     C98830   9.954   3.156   9.731 -0.5288  0.2825  0.2310
  717MOL0     C98831  10.086   3.083   9.713  0.3637 -0.0967  0.2440
  717MOL0     O98832  10.171   3.152   9.627  0.2304  0.6804  0.5356
  717MOL0     C98833  10.296   3.095   9.608 -0.4184 -0.3137 -0.6783
  717MOL0     C98834  10.383   3.171   9.527 -0.0680  0.2740  0.0476
  717MOL0     C98835  10.515   3.130   9.478 -0.0359  0.1244  0.1246
  717MOL0     C98836  10.581   3.230   9.385  0.2350 -0.6627  0.6020
  717MOL0     C98837  10.553   2.999   9.502 -0.5481  0.5136 -0.4723
  717MOL0     C98838  10.672   2.931   9.443 -1.3360  0.6778  0.3357
  717MOL0     O98839  10.676   2.800   9.448  0.0966 -0.2739 -0.7052
  717MOL0     C98840  10.796   2.738   9.418  0.5177  0.7789  1.0902
  717MOL0     C98841  10.909   2.746   9.490  0.2848 -0.0027 -0.1325
  717MOL0     C98842  11.017   2.668   9.458  0.0540  0.7809 -0.0991
  717MOL0     C98843  11.013   2.573   9.356 -0.7406 -0.3508 -0.2405
  717MOL0     O98844  11.127   2.504   9.339 -0.0005 -0.9742  0.4833
  717MOL0     C98845  11.162   2.472   9.205  0.3758  0.1891 -0.8941
  717MOL0     C98846  11.310   2.449   9.204  0.3201  0.4531 -0.0178
  717MOL0     C98847  11.365   2.427   9.067 -0.1815 -0.2840  0.0198
  717MOL0     C98848  11.517   2.411   9.073  0.9924  0.8720 -0.0008
  717MOL0     C98849  11.557   2.274   9.141  0.9170 -0.1884 -0.9481
  717MOL0     C98850  11.707   2.254   9.091  0.0771 -0.1830  0.2345
  717MOL0     C98851  11.759   2.116   9.131  0.5410 -0.3474  1.2140
  717MOL0     C98852  11.892   2.126   9.202 -0.5820 -0.5974 -0.4872
  717MOL0    Cl98853  11.881   2.247   9.335  0.2552 -0.1371  0.1170
  717MOL0     C98854  10.896   2.563   9.282 -0.3319 -0.0959  0.2672
  717MOL0     C98855  10.787   2.647   9.311 -0.3605 -0.4305 -0.1826
  717MOL0     O98856  10.757   2.994   9.385  0.1804 -0.1654  0.2293
  717MOL0     C98857  10.467   2.924   9.585 -0.1415  0.0631 -0.9705
  717MOL0     C98858  10.350   2.973   9.649  0.0646  0.0601 -0.0068
  717MOL0     N98859   9.667   3.059  10.069 -0.1647  0.4707 -0.7575
  717MOL0     N98860   9.639   3.070  10.192  0.1411  0.5053 -0.4740
  717MOL0     C98861   8.702   3.676  10.975  0.4403  0.3032  0.8702
  717MOL0     C98862   8.586   3.625  11.023  0.4859  0.6658 -0.1850
  717MOL0     C98863   8.223   3.349  10.951 -0.6043 -0.0577 -0.1541
  717MOL0     C98864   8.235   3.226  11.014 -0.2644 -0.0718 -0.1793
  717MOL0     C98865   8.133   3.131  11.008 -0.9519  0.3209 -0.0604
  717MOL0     C98866   8.016   3.150  10.940  0.8057  0.7731 -0.7633
  717MOL0     O98867   7.913   3.068  10.901  0.9122  0.2469 -0.5390
  717MOL0     C98868   7.873   2.959  10.985 -0.7623  0.8230 -1.0627
  717MOL0     C98869   7.735   2.988  11.049  0.3592  0.4908 -0.2592
  717MOL0     C98870   7.635   2.982  10.931  0.4356  0.8025 -1.3856
  717MOL0     C98871   7.487   2.976  10.979 -0.0012 -0.4091  0.3375
  717MOL0     C98872   7.402   2.915  10.876  0.9592  0.1063 -0.9558
  717MOL0     C98873   7.315   2.866  10.807 -0.0057 -0.2920  0.1505
  717MOL0     C98874   7.992   3.283  10.898 -1.0767 -0.3991  0.6315
  717MOL0     C98875   8.093   3.383  10.898 -0.4492 -0.6345 -0.1701
  717MOL0     C98876   8.052   3.522  10.836  0.0920 -0.6167 -0.1021
  717MOL0     H98877   8.636   3.313  10.897  2.7932 -0.0393 -1.1961
  717MOL0     H98878   8.829   3.395  10.839  2.3377  2.0503  0.2588
  717MOL0     H98879   8.982   3.706  10.693  2.2550  0.5094  2.4445
  717MOL0     H98880   8.853   3.574  10.680  1.9656 -3.0635 -1.4034
  717MOL0     H98881   9.146   3.548  10.788 -1.5412  0.3852  1.3494
  717MOL0     H98882   9.017   3.419  10.799 -3.3067  2.0720  2.3658
  717MOL0     H98883   9.046   3.366  10.569 -0.5467  0.3299 -0.2218
  717MOL0     H98884   9.108   3.515  10.516  2.4159 -2.2651 -0.9088
  717MOL0     H98885   9.315   3.479  10.660  1.4349  0.5970 -3.8342
  717MOL0     H98886   9.241   3.323  10.713  5.1142  0.4923 -0.0599
  717MOL0     H98887   9.275   3.399  10.423 -0.7615 -1.3783 -0.9587
  717MOL0     H98888   9.226   3.245  10.488 -1.4597  1.8971 -2.8504
  717MOL0     H98889   9.498   3.391  10.558 -1.0110  0.1946  1.3110
  717MOL0     H98890   9.456   3.227  10.598 -1.9821  1.4193  1.5825
  717MOL0     H98891   9.471   3.317  10.304 -0.1259  0.3937 -0.3129
  717MOL0     H98892   9.450   3.156  10.373  2.1991 -0.2972  0.1743
  717MOL0     H98893   9.713   3.322  10.400 -1.8723 -0.1785  1.5563
  717MOL0     H98894   9.691   3.160  10.441  1.0558  0.4223  0.1538
  717MOL0     H98895   9.778   3.360  10.131  1.1629 -0.3873  0.4821
  717MOL0     H98896   9.763   3.322   9.874 -2.5717  0.3692 -3.3124
  717MOL0     H98897   9.693   3.173   9.834 -2.4285  3.6055 -0.0178
  717MOL0     H98898   9.981   3.222   9.936  1.3137 -2.2083  0.7453
  717MOL0     H98899   9.937   3.055   9.919  0.1163  0.2634  0.9401
  717MOL0     H98900   9.872   3.105   9.679 -0.0921  1.3162 -1.5824
  717MOL0     H98901   9.963   3.257   9.690  3.0734 -0.7496 -1.9920
  717MOL0     H98902  10.141   3.096   9.806  2.4505 -1.3620 -0.7350
  717MOL0     H98903  10.079   2.978   9.682  1.0952  0.0675 -0.5061
  717MOL0     H98904  10.355   3.274   9.504  0.8233  0.7391  0.9677
  717MOL0     H98905  10.662   3.204   9.317 -1.0530 -2.0083 -0.4971
  717MOL0     H98906  10.629   3.304   9.449  0.5139 -1.5156  1.4106
  717MOL0     H98907  10.511   3.287   9.323  1.5378  1.4105  0.9602
  717MOL0     H98908  10.916   2.812   9.576  1.0702 -2.8308  2.1071
  717MOL0     H98909  11.104   2.669   9.522  0.3618  0.1114 -0.4969
  717MOL0     H98910  11.102   2.394   9.157  0.2433 -0.9105  0.9619
  717MOL0     H98911  11.161   2.563   9.144  2.2304  1.3799  0.7520
  717MOL0     H98912  11.365   2.535   9.243  1.8185  0.5838 -2.2427
  717MOL0     H98913  11.329   2.361   9.266 -0.1288  0.7040  0.4829
  717MOL0     H98914  11.343   2.517   9.010 -2.6169  0.2557  1.6443
  717MOL0     H98915  11.322   2.340   9.016 -1.7507  1.4866 -1.8377
  717MOL0     H98916  11.561   2.493   9.130  3.5631 -0.9355  0.7968
  717MOL0     H98917  11.551   2.417   8.969  0.5380  0.7366 -0.1630
  717MOL0     H98918  11.556   2.285   9.250  2.3061 -1.1459 -0.8213
  717MOL0     H98919  11.488   2.197   9.105  0.3819 -0.1822  0.0083
  717MOL0     H98920  11.765   2.344   9.116 -1.1664  1.0880 -1.2457
  717MOL0     H98921  11.702   2.251   8.982 -1.9866  0.2454  0.2868
  717MOL0     H98922  11.772   2.067   9.033 -0.0134  1.7634  0.0190
  717MOL0     H98923  11.691   2.049   9.183  0.7376 -3.4936 -2.1646
  717MOL0     H98924  11.964   2.162   9.128  0.5248  0.3876  1.0122
  717MOL0     H98925  11.920   2.025   9.236 -0.6119  0.5024  3.2707
  717MOL0     H98926  10.896   2.490   9.202 -0.5720  0.5372 -0.3162
  717MOL0     H98927  10.689   2.636   9.267 -0.1446 -1.3472 -0.4597
  717MOL0     H98928  10.502   2.824   9.609 -2.6010 -0.5135  0.5586
  717MOL0     H98929  10.300   2.902   9.714  1.5468 -1.9259 -0.9382
  717MOL0     H98930   8.713   3.784  10.975  3.1699  0.1194  1.8518
  717MOL0     H98931   8.513   3.694  11.065 -0.3443  0.7884 -1.7752
  717MOL0     H98932   8.328   3.214  11.068 -0.6057 -0.6233  0.2999
  717MOL0     H98933   8.156   3.035  11.053  4.3091  1.2453 -0.1221
  717MOL0     H98934   7.872   2.867  10.926 -0.6422 -0.4525  0.8079
  717MOL0     H98935   7.941   2.929  11.066 -2.2200 -0.2948 -0.1766
  717MOL0     H98936   7.732   3.081  11.107  0.6877 -0.9705  2.2086
  717MOL0     H98937   7.723   2.899  11.111 -0.6390  0.6592 -0.1896
  717MOL0     H98938   7.635   3.067  10.862 -1.1972  0.2430 -2.1474
  717MOL0     H98939   7.648   2.897  10.863 -2.1907  0.0238 -1.0398
  717MOL0     H98940   7.452   3.077  11.001 -2.0808 -0.9724 -0.1580
  717MOL0     H98941   7.485   2.916  11.071  2.9509 -2.1452 -0.6187
  717MOL0     H98942   7.221   2.836  10.765 -1.3060  3.0989  0.3463
  717MOL0     H98943   7.897   3.308  10.852 -1.6230  0.6817  2.2745
  717MOL0     H98944   8.096   3.539  10.738  1.5456  0.4573  0.6949
  717MOL0     H98945   7.945   3.511  10.813  0.3147 -0.9727 -0.9636
  717MOL0     H98946   8.062   3.604  10.907 -1.1562 -1.0523  0.6229
  718MOL0     O98947   6.534   0.965   4.868 -0.0942  0.7339  0.2500
  718MOL0     C98948   6.414   0.935   4.879  1.3404  0.4037  0.2526
  718MOL0     O98949   6.320   1.010   4.942 -0.0196 -0.6802  0.0200
  718MOL0     C98950   6.368   1.139   4.985 -0.0220 -0.3357  0.0704
  718MOL0     C98951   6.346   1.261   4.905 -0.8830 -0.3838 -0.2776
  718MOL0     C98952   6.381   1.393   4.951 -0.6990 -0.4879  0.1703
  718MOL0     C98953   6.425   1.406   5.077  0.8864  0.1679  0.8548
  718MOL0     O98954   6.445   1.538   5.116  0.3000  0.2458 -0.2985
  718MOL0     C98955   6.581   1.565   5.144  0.0740 -0.7329 -0.5588
  718MOL0     C98956   6.643   1.607   5.008 -0.6768  0.9374  0.3597
  718MOL0     C98957   6.725   1.484   4.954  0.0078 -0.3365 -0.4334
  718MOL0     C98958   6.809   1.522   4.833 -0.3487 -0.6101  0.0113
  718MOL0     C98959   6.887   1.413   4.774  0.2705 -0.0866 -0.0825
  718MOL0     C98960   6.807   1.296   4.719  0.2022 -0.6119  0.3168
  718MOL0     C98961   6.686   1.329   4.636  0.0620  0.2069 -0.5245
  718MOL0     C98962   6.618   1.196   4.588 -0.3230  1.2978  0.5972
  718MOL0     N98963   6.492   1.226   4.521  0.7050 -0.5467 -0.4045
  718MOL0     C98964   6.460   1.332   4.437 -0.1825 -0.8621 -0.7438
  718MOL0     C98965   6.330   1.333   4.426  0.0247 -0.3653  0.0042
  718MOL0     C98966   6.245   1.423   4.354 -0.7032 -0.2609  0.3199
  718MOL0     C98967   6.167   1.514   4.458 -0.1691 -0.5341  0.3938
  718MOL0     C98968   6.074   1.608   4.381  0.6888  0.0443 -0.6023
  718MOL0     C98969   5.979   1.553   4.285 -0.2052 -0.2987 -0.3259
  718MOL0     O98970   6.037   1.543   4.151 -0.2045  0.3301 -0.0481
  718MOL0     C98971   6.014   1.424   4.085 -0.1618  0.2910  0.0842
  718MOL0     C98972   5.924   1.322   4.114 -0.5102 -0.5113  0.5163
  718MOL0     C98973   5.926   1.204   4.037  1.3574  0.0019  0.0875
  718MOL0     C98974   5.803   1.122   4.065 -0.1352  0.1357 -0.1851
  718MOL0     C98975   6.024   1.180   3.935  0.0703  0.1506  0.4816
  718MOL0     C98976   6.036   1.055   3.863 -0.5448  0.2436 -0.5719
  718MOL0     O98977   6.137   1.044   3.765 -0.6020  0.1381  0.1541
  718MOL0     C98978   6.163   0.920   3.720  0.2863 -0.6673  0.2938
  718MOL0     C98979   6.251   0.833   3.788 -0.1338 -0.4447  0.6890
  718MOL0     C98980   6.269   0.706   3.732 -0.0463 -0.2592 -0.6808
  718MOL0     C98981   6.225   0.663   3.606  0.4992  0.5734 -0.5415
  718MOL0     O98982   6.262   0.536   3.569  0.5339 -0.3379 -0.1903
  718MOL0     C98983   6.254   0.490   3.439  0.8583  0.2323  0.5055
  718MOL0     C98984   6.175   0.360   3.437  0.1458 -0.4547  0.0906
  718MOL0     C98985   6.159   0.294   3.296  0.0214 -0.9874 -0.2050
  718MOL0     C98986   6.088   0.385   3.196  0.7327 -0.7280  0.4288
  718MOL0     C98987   6.024   0.309   3.073  0.0889 -0.3043  0.8084
  718MOL0     C98988   5.879   0.260   3.091 -0.7124 -1.0265  0.6752
  718MOL0     C98989   5.851   0.165   2.971  0.3418 -0.4957 -0.6115
  718MOL0     C98990   5.906   0.028   3.002 -0.0379  0.2397 -0.4514
  718MOL0    Cl98991   5.830  -0.060   3.132  0.2320  0.3299 -0.1306
  718MOL0     C98992   6.142   0.761   3.530 -0.3175  0.1838 -0.5930
  718MOL0     C98993   6.117   0.891   3.585  0.4752  0.1390  0.6210
  718MOL0     O98994   5.977   0.963   3.906  0.2955 -0.3884 -0.4408
  718MOL0     C98995   6.113   1.289   3.905  1.1390  0.8430 -0.0476
  718MOL0     C98996   6.099   1.408   3.979 -0.5563  0.2598  1.3331
  718MOL0     N98997   6.280   1.236   4.498  0.0618  0.1152  0.2587
  718MOL0     N98998   6.370   1.168   4.554  0.4844  0.0309  0.2568
  718MOL0     C98999   6.454   1.286   5.151 -0.2236 -0.0237  1.2574
  718MOL0     C99000   6.426   1.157   5.110 -0.8951 -0.1235 -0.3414
  718MOL0     C99001   6.382   0.798   4.844  0.9814 -0.0250 -0.2467
  718MOL0     C99002   6.298   0.722   4.932 -0.3898  0.3265 -0.3535
  718MOL0     C99003   6.262   0.594   4.907  1.4346  0.1253  1.6679
  718MOL0     C99004   6.306   0.535   4.791 -0.1596  0.4581 -0.7171
  718MOL0     O99005   6.287   0.397   4.768  0.6239  0.4920  0.0453
  718MOL0     C99006   6.186   0.353   4.673 -0.1368  0.0528  0.5721
  718MOL0     C99007   6.208   0.200   4.655  1.0986 -0.5136 -0.2261
  718MOL0     C99008   6.201   0.127   4.781  0.1505 -0.2768 -0.4159
  718MOL0     C99009   6.241  -0.018   4.759  0.3027  0.0304 -0.5002
  718MOL0     C99010   6.250  -0.105   4.880 -0.6610 -0.0482  0.4441
  718MOL0     C99011   6.272  -0.187   4.966  0.5545 -0.7354  0.4261
  718MOL0     C99012   6.385   0.605   4.704 -0.5215 -0.3397  0.3676
  718MOL0     C99013   6.416   0.734   4.729 -0.7460  0.3519  0.1035
  718MOL0     C99014   6.502   0.805   4.624  0.7110 -0.2160  0.0265
  718MOL0     H99015   6.304   1.254   4.805 -1.0170 -3.9639 -0.1238
  718MOL0     H99016   6.377   1.483   4.891  2.2822 -0.2200  0.2393
  718MOL0     H99017   6.633   1.494   5.207 -0.0996  0.0628  0.5148
  718MOL0     H99018   6.569   1.662   5.195  2.0829  0.5906 -2.4286
  718MOL0     H99019   6.571   1.635   4.931 -0.4907  1.2270  0.2881
  718MOL0     H99020   6.713   1.689   5.025 -0.1621  1.8097 -4.4514
  718MOL0     H99021   6.787   1.454   5.039 -0.9569 -0.3592  0.2832
  718MOL0     H99022   6.655   1.403   4.931  0.2924 -0.3341 -1.3311
  718MOL0     H99023   6.740   1.570   4.763  1.3277  1.2397 -0.4691
  718MOL0     H99024   6.876   1.595   4.879 -0.3770 -1.0606  0.7781
  718MOL0     H99025   6.969   1.376   4.837  0.7268 -1.0750 -1.2352
  718MOL0     H99026   6.952   1.459   4.700  0.7346  1.1378  1.0414
  718MOL0     H99027   6.874   1.236   4.656 -0.0589  1.9916 -2.6267
  718MOL0     H99028   6.770   1.243   4.808  0.3099  0.3027  0.9219
  718MOL0     H99029   6.703   1.400   4.555  0.2526 -0.1619 -0.8098
  718MOL0     H99030   6.615   1.366   4.711  0.9286  2.3709 -0.6996
  718MOL0     H99031   6.678   1.146   4.511 -1.0240  1.3777 -0.0160
  718MOL0     H99032   6.599   1.131   4.674 -0.6576  0.4515 -0.1027
  718MOL0     H99033   6.524   1.410   4.397 -3.3199  2.6422  0.5251
  718MOL0     H99034   6.180   1.358   4.295  1.8078 -0.7799 -2.0616
  718MOL0     H99035   6.298   1.493   4.289  0.4462 -0.0382  1.4673
  718MOL0     H99036   6.114   1.458   4.536  1.4917  0.4809  2.3517
  718MOL0     H99037   6.225   1.584   4.519  1.0706  0.3023 -1.6294
  718MOL0     H99038   6.031   1.669   4.460  0.7537 -0.7499  0.0599
  718MOL0     H99039   6.124   1.685   4.320 -1.5799 -1.2503 -4.4734
  718MOL0     H99040   5.956   1.457   4.333  5.0374 -1.8727 -0.2325
  718MOL0     H99041   5.892   1.618   4.286 -0.0121 -0.0397  0.9132
  718MOL0     H99042   5.861   1.329   4.202  0.9510  1.8960  1.4724
  718MOL0     H99043   5.733   1.155   4.143 -0.5430  0.0090 -0.4916
  718MOL0     H99044   5.832   1.023   4.101 -2.9941 -1.7832 -2.6283
  718MOL0     H99045   5.733   1.110   3.982 -3.2917  2.4103  1.9463
  718MOL0     H99046   6.299   0.851   3.883  1.4252 -1.3371  0.1079
  718MOL0     H99047   6.321   0.632   3.792  0.4622  0.8722  0.3204
  718MOL0     H99048   6.196   0.560   3.378  3.2059 -0.7732 -3.1758
  718MOL0     H99049   6.352   0.472   3.394  1.2114  0.1342  1.2969
  718MOL0     H99050   6.221   0.279   3.495 -1.6088 -2.0630 -0.6516
  718MOL0     H99051   6.078   0.365   3.488 -0.0453 -2.0898 -0.0567
  718MOL0     H99052   6.107   0.198   3.306  0.5920 -1.3310 -0.5076
  718MOL0     H99053   6.257   0.270   3.255 -1.3346 -2.7473 -2.7034
  718MOL0     H99054   6.161   0.458   3.157 -1.4177  2.0063  1.2016
  718MOL0     H99055   6.007   0.438   3.246 -0.4879  1.0594 -3.0435
  718MOL0     H99056   6.042   0.369   2.983  1.6146 -0.6958  0.8340
  718MOL0     H99057   6.078   0.218   3.046  0.3835 -1.2385  4.1089
  718MOL0     H99058   5.812   0.346   3.098  0.4345 -0.2536  3.5835
  718MOL0     H99059   5.871   0.215   3.190 -1.1963  2.6753  2.5112
  718MOL0     H99060   5.876   0.200   2.870 -0.4792 -1.7341 -1.2730
  718MOL0     H99061   5.742   0.159   2.967  0.0931  2.2826 -0.1700
  718MOL0     H99062   6.012   0.021   3.027 -0.1945 -1.1248 -0.0888
  718MOL0     H99063   5.902  -0.035   2.912 -1.9715 -1.9202  1.0507
  718MOL0     H99064   6.102   0.731   3.434 -0.9710 -1.0957  0.0585
  718MOL0     H99065   6.063   0.964   3.525 -1.1030 -1.2953  0.2356
  718MOL0     H99066   6.171   1.292   3.813  1.7366  2.8843  0.3448
  718MOL0     H99067   6.164   1.488   3.945 -2.1108  0.2281 -2.0957
  718MOL0     H99068   6.508   1.297   5.245  2.1108 -1.5184  0.1831
  718MOL0     H99069   6.433   1.067   5.169  2.1722 -0.0058 -0.3724
  718MOL0     H99070   6.272   0.771   5.025 -0.3681  0.3799 -0.3754
  718MOL0     H99071   6.217   0.539   4.988 -0.9077 -0.4982  0.0462
  718MOL0     H99072   6.082   0.365   4.703  0.3995  3.3726  1.5763
  718MOL0     H99073   6.184   0.411   4.580 -1.8748 -1.5299 -0.4500
  718MOL0     H99074   6.307   0.185   4.611  1.6926 -2.0971  1.5133
  718MOL0     H99075   6.128   0.155   4.595  2.8060 -2.3725 -1.2551
  718MOL0     H99076   6.243   0.179   4.868 -0.8963 -2.4933  1.5160
  718MOL0     H99077   6.093   0.126   4.793 -0.0003  2.0257 -1.2028
  718MOL0     H99078   6.338  -0.029   4.709  0.6756 -2.4839  0.6144
  718MOL0     H99079   6.168  -0.069   4.696 -0.4919 -1.0049  1.1808
  718MOL0     H99080   6.288  -0.232   5.062  0.9347  0.5086  0.9667
  718MOL0     H99081   6.437   0.549   4.627  1.2234  1.9723 -0.2552
  718MOL0     H99082   6.514   0.753   4.529  0.5711  1.1582 -0.7526
  718MOL0     H99083   6.453   0.901   4.611  0.1514  0.2906  4.2757
  718MOL0     H99084   6.593   0.830   4.680 -0.6423  4.5587  0.5490
  719MOL0     O99085   8.491   3.017   6.402  0.0496  0.0325 -0.2047
  719MOL0     C99086   8.559   3.071   6.316  0.5381  0.4261  0.0570
  719MOL0     O99087   8.533   3.072   6.178  0.1391  0.1724  0.9032
  719MOL0     C99088   8.401   3.043   6.138 -0.6798  0.3821  0.1229
  719MOL0     C99089   8.364   2.919   6.090  0.4642 -0.4031 -0.8548
  719MOL0     C99090   8.237   2.906   6.033 -0.1961  0.9127 -0.6893
  719MOL0     C99091   8.131   3.000   6.036 -0.5948 -0.4903 -0.4984
  719MOL0     O99092   8.005   2.964   6.007  0.2505 -0.0649  0.5004
  719MOL0     C99093   7.939   3.054   5.919 -0.0730 -0.2835 -0.9110
  719MOL0     C99094   7.946   3.014   5.772 -0.8926 -0.2759 -0.3721
  719MOL0     C99095   7.879   3.105   5.671  0.0672  0.2182  0.2774
  719MOL0     C99096   7.883   3.042   5.527  0.3915 -1.1103  0.0597
  719MOL0     C99097   7.843   3.151   5.422  0.9264  1.0268 -0.3968
  719MOL0     C99098   7.792   3.074   5.290 -0.0226 -0.5465 -0.6504
  719MOL0     C99099   7.778   3.161   5.167  0.8737 -0.0933  0.2773
  719MOL0     C99100   7.914   3.215   5.123 -0.2479  0.3653  0.1921
  719MOL0     N99101   7.898   3.294   4.995 -0.5627  0.2713  0.0210
  719MOL0     C99102   7.889   3.429   4.996  0.5224 -0.0798 -0.8527
  719MOL0     C99103   7.900   3.461   4.866  0.0116  0.6955  1.9058
  719MOL0     C99104   7.895   3.597   4.799  0.4073  0.8316 -0.2652
  719MOL0     C99105   7.761   3.662   4.768  0.0818 -1.2890  0.1881
  719MOL0     C99106   7.669   3.703   4.879  0.0433 -0.0685  0.2831
  719MOL0     C99107   7.531   3.740   4.827  0.4223  0.8503  1.0156
  719MOL0     O99108   7.540   3.846   4.733  0.7519  0.1338 -0.0288
  719MOL0     C99109   7.422   3.904   4.692 -0.1049  0.2804 -0.4828
  719MOL0     C99110   7.292   3.866   4.733 -0.5398 -0.6011  0.2244
  719MOL0     C99111   7.172   3.943   4.703 -0.5962 -0.5234 -0.0089
  719MOL0     C99112   7.041   3.886   4.757 -0.3787  0.2266 -0.1972
  719MOL0     C99113   7.189   4.050   4.611  0.0351 -0.6745 -0.3165
  719MOL0     C99114   7.079   4.122   4.562  0.1313 -0.1783 -0.6311
  719MOL0     O99115   6.981   4.145   4.655  0.5588  0.0838 -0.3875
  719MOL0     C99116   6.895   4.249   4.623  0.0169  0.4042 -0.5389
  719MOL0     C99117   6.799   4.238   4.519 -0.4488  0.2871 -0.7447
  719MOL0     C99118   6.728   4.358   4.493  0.1678 -0.4406  1.1763
  719MOL0     C99119   6.732   4.478   4.570  0.8484 -0.4650 -0.0133
  719MOL0     O99120   6.643   4.592   4.560 -0.5054 -0.7631  0.2405
  719MOL0     C99121   6.511   4.551   4.521 -0.0357 -0.0302  0.3220
  719MOL0     C99122   6.415   4.677   4.533  0.1516  0.9293 -0.2485
  719MOL0     C99123   6.491   4.795   4.470  0.5011  0.5309 -0.0155
  719MOL0     C99124   6.406   4.922   4.494 -0.1004 -0.2219 -0.0897
  719MOL0     C99125   6.387   4.969   4.643  0.1174 -0.0453  0.5919
  719MOL0     C99126   6.278   5.079   4.644 -0.1246  0.1020  0.2795
  719MOL0     C99127   6.256   5.138   4.780  0.0990 -0.0770 -0.4627
  719MOL0     C99128   6.146   5.241   4.767  0.6053 -0.7689  0.1674
  719MOL0    Cl99129   6.165   5.361   4.629 -0.0620  0.3250 -0.2887
  719MOL0     C99130   6.815   4.473   4.682  0.2560 -0.0919 -0.5348
  719MOL0     C99131   6.891   4.360   4.720  0.8293  0.3192  0.6493
  719MOL0     O99132   7.081   4.173   4.450  0.4602 -0.0737  0.4272
  719MOL0     C99133   7.319   4.083   4.570 -0.0000  0.3242 -0.7594
  719MOL0     C99134   7.427   4.010   4.609  0.2206  0.3530 -0.4650
  719MOL0     N99135   7.924   3.342   4.798  0.3138  0.3408 -0.0808
  719MOL0     N99136   7.916   3.239   4.870 -0.1427 -0.5800  0.1951
  719MOL0     C99137   8.177   3.131   6.083 -0.6982  0.6945  0.2973
  719MOL0     C99138   8.303   3.150   6.131 -0.5848  0.2840 -0.4943
  719MOL0     C99139   8.685   3.137   6.365 -1.0648  1.5577  0.4036
  719MOL0     C99140   8.741   3.085   6.482 -1.0871  1.2016 -0.2691
  719MOL0     C99141   8.880   3.110   6.517  0.0361  0.0312  0.1420
  719MOL0     C99142   8.962   3.182   6.430 -0.2435 -0.3486 -0.9960
  719MOL0     O99143   9.097   3.195   6.461 -0.1805  0.0988 -0.0772
  719MOL0     C99144   9.175   3.075   6.438 -0.9505 -1.0189  0.3990
  719MOL0     C99145   9.293   3.085   6.344 -0.3473  0.3390 -0.7254
  719MOL0     C99146   9.348   2.942   6.311  0.2773  0.2510 -0.2014
  719MOL0     C99147   9.441   2.942   6.192 -0.5707 -0.0038 -0.1486
  719MOL0     C99148   9.463   2.801   6.162 -0.0348 -0.3713 -0.6291
  719MOL0     C99149   9.475   2.687   6.146 -0.6934  0.2137 -0.1807
  719MOL0     C99150   8.899   3.238   6.323 -0.9272 -0.4048  0.4897
  719MOL0     C99151   8.767   3.225   6.281 -0.2226  0.4099 -0.1685
  719MOL0     C99152   8.725   3.308   6.157  0.5447  0.3262 -0.6367
  719MOL0     H99153   8.426   2.831   6.097 -2.4539 -2.4585  2.9658
  719MOL0     H99154   8.206   2.812   5.989  1.7134  1.4206 -3.3817
  719MOL0     H99155   7.977   3.156   5.927  1.3994 -0.9082  0.9785
  719MOL0     H99156   7.834   3.055   5.949 -0.3677  0.4775 -1.9403
  719MOL0     H99157   8.051   3.014   5.742  0.0180  0.3326  2.5283
  719MOL0     H99158   7.908   2.913   5.754  0.8635 -0.8483 -1.1118
  719MOL0     H99159   7.775   3.122   5.698  0.4870  2.0431  0.9087
  719MOL0     H99160   7.931   3.201   5.666 -0.4490  0.4883 -0.0552
  719MOL0     H99161   7.988   3.017   5.509  0.5981  0.9085 -1.9465
  719MOL0     H99162   7.820   2.953   5.522 -0.9790 -0.1044 -2.6987
  719MOL0     H99163   7.925   3.222   5.406  1.2534  0.7886  0.1779
  719MOL0     H99164   7.765   3.207   5.473  3.1438  1.7824  2.4304
  719MOL0     H99165   7.869   2.997   5.276  0.6162 -0.4653  1.9128
  719MOL0     H99166   7.698   3.025   5.317 -0.5555  0.3356 -0.8690
  719MOL0     H99167   7.722   3.247   5.205  2.3414  0.8786  0.3605
  719MOL0     H99168   7.730   3.106   5.086 -1.3027  0.6772  0.9842
  719MOL0     H99169   7.951   3.284   5.200 -1.1724 -1.1130  2.0451
  719MOL0     H99170   7.984   3.133   5.105 -1.7372 -1.7732  3.2038
  719MOL0     H99171   7.890   3.486   5.089 -1.4101 -0.7701 -0.3548
  719MOL0     H99172   7.953   3.590   4.707 -1.6154 -0.4333 -1.5245
  719MOL0     H99173   7.965   3.658   4.856  0.7510 -1.3848  1.8795
  719MOL0     H99174   7.792   3.753   4.717  2.3667 -1.5649  0.9445
  719MOL0     H99175   7.698   3.604   4.700 -1.8352  2.5252 -1.6165
  719MOL0     H99176   7.660   3.619   4.948  0.9991 -1.6519 -1.4325
  719MOL0     H99177   7.709   3.790   4.933 -0.3510  0.1742  0.1874
  719MOL0     H99178   7.488   3.646   4.791  2.0883 -0.4720  2.3448
  719MOL0     H99179   7.474   3.772   4.914  0.5830  0.7534  1.1566
  719MOL0     H99180   7.269   3.788   4.806 -0.1599 -0.6022  0.3462
  719MOL0     H99181   7.043   3.919   4.861  1.5226  0.0077 -0.1243
  719MOL0     H99182   7.046   3.777   4.750  1.4717  0.2701 -0.0239
  719MOL0     H99183   6.947   3.924   4.716 -2.0879  0.0463  3.1465
  719MOL0     H99184   6.788   4.146   4.463  1.8281 -2.7045  3.1978
  719MOL0     H99185   6.652   4.353   4.415  1.6985 -2.0447 -0.3379
  719MOL0     H99186   6.509   4.520   4.416 -0.2579 -0.1369  0.3576
  719MOL0     H99187   6.469   4.473   4.585  0.1694 -0.3742  0.0429
  719MOL0     H99188   6.327   4.661   4.471  2.0223 -0.9412 -2.6472
  719MOL0     H99189   6.399   4.697   4.639 -1.6327 -0.4354 -0.2070
  719MOL0     H99190   6.534   4.775   4.372 -0.4320  1.7955 -0.7062
  719MOL0     H99191   6.589   4.807   4.517  0.4012 -0.3706  0.4666
  719MOL0     H99192   6.308   4.920   4.444 -0.6491 -1.2980  0.9663
  719MOL0     H99193   6.438   5.003   4.428 -2.5761 -1.6694 -3.3810
  719MOL0     H99194   6.358   4.893   4.716  1.5043 -0.2154  0.9994
  719MOL0     H99195   6.482   5.011   4.678  0.1211 -1.1358  1.9853
  719MOL0     H99196   6.181   5.061   4.597 -1.0432  3.2785  0.7137
  719MOL0     H99197   6.315   5.164   4.587  1.3573 -0.8198 -0.1707
  719MOL0     H99198   6.343   5.192   4.819 -0.1524 -1.2661  1.9258
  719MOL0     H99199   6.226   5.067   4.858  0.5803  1.8081  1.5434
  719MOL0     H99200   6.129   5.295   4.860 -0.6752 -0.4708 -0.2258
  719MOL0     H99201   6.055   5.183   4.746  1.0644 -1.6955  0.6517
  719MOL0     H99202   6.823   4.560   4.746  4.4490 -0.1952 -0.6009
  719MOL0     H99203   6.954   4.368   4.808  1.4690  1.2792  0.1292
  719MOL0     H99204   7.350   4.162   4.502  0.3386 -0.9293 -2.1384
  719MOL0     H99205   7.526   4.043   4.579  0.5814  0.9307  1.2118
  719MOL0     H99206   8.109   3.216   6.086 -0.6301  0.7324  0.7609
  719MOL0     H99207   8.350   3.247   6.144  2.3659 -1.2714  2.0144
  719MOL0     H99208   8.681   3.027   6.550  0.5169 -0.0513  0.1315
  719MOL0     H99209   8.915   3.071   6.612 -1.5133 -1.9935 -0.0506
  719MOL0     H99210   9.208   3.046   6.539 -0.9681 -1.1806  0.3588
  719MOL0     H99211   9.116   2.988   6.407  2.6840 -3.6454  0.1437
  719MOL0     H99212   9.375   3.144   6.386  0.8762  0.3814 -2.9843
  719MOL0     H99213   9.268   3.140   6.253 -1.1780  0.4381 -0.4394
  719MOL0     H99214   9.398   2.900   6.398  3.1743 -1.0949 -2.3537
  719MOL0     H99215   9.264   2.874   6.293  1.3108 -1.8109  2.2527
  719MOL0     H99216   9.535   2.987   6.225  0.3327  1.4976 -4.1308
  719MOL0     H99217   9.407   2.998   6.105  0.8736  0.4652 -0.4470
  719MOL0     H99218   9.479   2.581   6.135  1.1133  0.3050 -0.7502
  719MOL0     H99219   8.962   3.311   6.272 -3.3462  0.7439 -1.0733
  719MOL0     H99220   8.799   3.384   6.132 -0.7578  1.0508 -2.5809
  719MOL0     H99221   8.705   3.250   6.066  4.3168 -2.7337  0.2079
  719MOL0     H99222   8.629   3.353   6.184 -0.0414 -0.9365 -0.5226
  720MOL0     O99223   1.260  10.184  10.784 -0.4563 -0.8896 -0.3775
  720MOL0     C99224   1.183  10.092  10.795 -0.0302  0.1413 -0.7278
  720MOL0     O99225   1.219   9.964  10.811  0.4737  0.2211 -0.0181
  720MOL0     C99226   1.341   9.908  10.789 -0.8867  0.5941 -0.0092
  720MOL0     C99227   1.421   9.964  10.682  0.4238  0.0623  0.1740
  720MOL0     C99228   1.556   9.916  10.675  0.3585  0.7248 -0.1839
  720MOL0     C99229   1.608   9.817  10.760 -0.2937  0.1730  0.3996
  720MOL0     O99230   1.734   9.782  10.727 -0.1933  0.3206 -0.3705
  720MOL0     C99231   1.815   9.730  10.833  0.6203 -0.5229 -0.6499
  720MOL0     C99232   1.960   9.722  10.801 -0.3151  0.8406 -0.0092
  720MOL0     C99233   1.981   9.672  10.661  0.1770  0.7230  0.4794
  720MOL0     C99234   2.129   9.672  10.626 -0.5126 -0.6141  0.2331
  720MOL0     C99235   2.173   9.565  10.528  0.2824 -0.5428 -0.0915
  720MOL0     C99236   2.198   9.441  10.615 -0.1322 -0.2918  0.2139
  720MOL0     C99237   2.241   9.322  10.538  1.0801  0.1511 -0.4690
  720MOL0     C99238   2.228   9.195  10.630  0.4838  0.2654 -0.1300
  720MOL0     N99239   2.365   9.168  10.681  0.0975  0.5634  0.5076
  720MOL0     C99240   2.404   9.222  10.797  0.2860 -0.3430 -0.4785
  720MOL0     C99241   2.530   9.180  10.806  0.1655 -0.5422  0.0713
  720MOL0     C99242   2.618   9.198  10.919 -0.3592  0.0142 -1.1719
  720MOL0     C99243   2.603   9.091  11.029 -0.9607 -0.0908 -0.0990
  720MOL0     C99244   2.571   8.951  10.968  0.0242 -0.0729 -0.1254
  720MOL0     C99245   2.602   8.835  11.063 -0.1518 -0.0380 -0.0209
  720MOL0     O99246   2.540   8.859  11.188  0.3142 -0.4103 -0.4836
  720MOL0     C99247   2.593   8.798  11.301  0.5299 -0.3745  0.0557
  720MOL0     C99248   2.669   8.674  11.302 -0.4147 -0.2445 -0.2062
  720MOL0     C99249   2.712   8.619  11.424 -0.2001 -0.2560  0.6187
  720MOL0     C99250   2.777   8.467  11.411 -0.8186 -0.6101  0.1511
  720MOL0     C99251   2.697   8.690  11.547 -0.6199  0.0845  1.0481
  720MOL0     C99252   2.726   8.624  11.681 -0.7969  0.2620 -0.0146
  720MOL0     O99253   2.732   8.484  11.689 -0.1931  0.1344 -0.2009
  720MOL0     C99254   2.770   8.442  11.812 -0.4141  0.2231 -0.5581
  720MOL0     C99255   2.682   8.462  11.910  0.1134  0.1845 -0.6177
  720MOL0     C99256   2.691   8.397  12.031  0.5718  0.7064  0.3942
  720MOL0     C99257   2.797   8.298  12.054 -0.2159 -1.1344  0.0477
  720MOL0     O99258   2.811   8.240  12.178  0.6984  0.1628 -0.4160
  720MOL0     C99259   2.889   8.115  12.183  0.0146 -0.7663  0.0201
  720MOL0     C99260   2.864   8.043  12.320 -1.0229 -1.0172 -0.3860
  720MOL0     C99261   2.959   8.087  12.430 -0.7022 -0.6735  0.2836
  720MOL0     C99262   2.953   7.995  12.558  0.4880  0.0670  0.0454
  720MOL0     C99263   2.841   8.023  12.650  0.9079 -0.2058 -0.3673
  720MOL0     C99264   2.845   7.926  12.770 -0.7474  0.0251 -0.2305
  720MOL0     C99265   2.733   7.949  12.878 -0.8077  0.4093  0.4294
  720MOL0     C99266   2.773   7.874  13.000 -0.3576  0.9263  0.9043
  720MOL0    Cl99267   2.909   7.947  13.095  0.5796 -0.1286 -0.0744
  720MOL0     C99268   2.885   8.271  11.948  0.3477 -0.7315 -0.1833
  720MOL0     C99269   2.869   8.345  11.828 -0.3094  1.3661 -0.9499
  720MOL0     O99270   2.744   8.702  11.773 -0.0971  0.2377 -0.2816
  720MOL0     C99271   2.639   8.819  11.542  0.6794 -0.5090 -0.1415
  720MOL0     C99272   2.577   8.875  11.424 -0.5029 -0.8109 -0.7789
  720MOL0     N99273   2.569   9.117  10.691  0.2674 -0.9171  0.9684
  720MOL0     N99274   2.471   9.118  10.612 -0.2131 -0.4055  0.9360
  720MOL0     C99275   1.529   9.768  10.863  0.1074  0.1002 -0.0678
  720MOL0     C99276   1.391   9.809  10.880 -0.1976 -0.3656 -0.5476
  720MOL0     C99277   1.038  10.115  10.799  0.1980 -0.1984  0.2728
  720MOL0     C99278   0.963  10.051  10.889  0.2315  0.6921 -0.6838
  720MOL0     C99279   0.828  10.079  10.912 -0.1738 -0.3034 -0.2784
  720MOL0     C99280   0.763  10.180  10.844  0.3203  0.3057  0.1616
  720MOL0     O99281   0.632  10.208  10.872  0.0446 -0.6245  1.3474
  720MOL0     C99282   0.563  10.326  10.816 -0.1544 -0.7909  0.4449
  720MOL0     C99283   0.417  10.299  10.808  0.2862  0.3960 -0.8801
  720MOL0     C99284   0.357  10.204  10.925  0.3836 -0.0797  1.3548
  720MOL0     C99285   0.206  10.212  10.939 -0.3474  0.8535  0.5710
  720MOL0     C99286   0.187  10.139  11.064 -0.6072 -0.4551 -0.3174
  720MOL0     C99287   0.168  10.081  11.164 -0.1952  0.6664  0.2182
  720MOL0     C99288   0.835  10.255  10.750  0.7444  0.4371 -0.1596
  720MOL0     C99289   0.974  10.222  10.733  0.0741  0.0404  0.1151
  720MOL0     C99290   1.038  10.312  10.633 -0.8890  0.4814  0.1738
  720MOL0     H99291   1.377  10.035  10.613 -0.6750 -1.0085 -0.2603
  720MOL0     H99292   1.622   9.951  10.596 -0.6501  0.4214 -1.2008
  720MOL0     H99293   1.775   9.633  10.860 -5.1816  0.6916 -3.2220
  720MOL0     H99294   1.805   9.796  10.920  1.6408 -0.6575 -0.4239
  720MOL0     H99295   2.006   9.821  10.799  1.3753  0.0811 -1.0643
  720MOL0     H99296   2.009   9.664  10.879 -1.0321  2.2107  1.5196
  720MOL0     H99297   1.943   9.570  10.649 -1.8940  1.1267  2.7928
  720MOL0     H99298   1.926   9.727  10.584  0.8591 -2.4278 -2.5226
  720MOL0     H99299   2.168   9.768  10.590  2.0946  0.0650  4.1726
  720MOL0     H99300   2.178   9.664  10.724  0.6865  0.7795 -0.2136
  720MOL0     H99301   2.254   9.609  10.470 -0.7924  0.7506 -0.6473
  720MOL0     H99302   2.086   9.547  10.465 -0.5361  2.3200  0.0738
  720MOL0     H99303   2.278   9.474  10.682 -0.7246  2.0850 -0.1326
  720MOL0     H99304   2.115   9.418  10.682 -0.6214  1.8796  0.4329
  720MOL0     H99305   2.349   9.332  10.528  1.1940 -0.1624  0.3789
  720MOL0     H99306   2.187   9.303  10.444 -2.2010  1.9715  0.8764
  720MOL0     H99307   2.150   9.195  10.708  0.5733 -1.6355  0.0011
  720MOL0     H99308   2.209   9.108  10.566  2.1632  1.2066 -2.0026
  720MOL0     H99309   2.337   9.275  10.866 -0.3983 -0.4139 -1.0804
  720MOL0     H99310   2.613   9.302  10.951 -1.9410 -0.5661  0.6356
  720MOL0     H99311   2.715   9.175  10.873 -1.1640 -0.1640 -2.8687
  720MOL0     H99312   2.694   9.093  11.089 -0.6581 -1.6865 -0.4607
  720MOL0     H99313   2.521   9.117  11.097 -0.0135  1.7191  0.4280
  720MOL0     H99314   2.470   8.959  10.926 -1.0753  0.6665  2.4464
  720MOL0     H99315   2.627   8.938  10.875  2.0666 -0.7078  1.1341
  720MOL0     H99316   2.571   8.742  11.016 -1.8547  1.6107 -2.4143
  720MOL0     H99317   2.710   8.821  11.063 -0.3027 -1.2505  0.7123
  720MOL0     H99318   2.697   8.615  11.215  2.7616  0.8293 -0.0387
  720MOL0     H99319   2.810   8.438  11.311 -1.3900  0.8474 -0.4844
  720MOL0     H99320   2.711   8.391  11.454  0.5596 -2.1303 -0.3542
  720MOL0     H99321   2.868   8.476  11.471 -0.5201  2.4008 -0.6123
  720MOL0     H99322   2.593   8.522  11.894  0.0800 -0.0257 -1.2642
  720MOL0     H99323   2.626   8.419  12.114  0.4708  1.2304  0.1792
  720MOL0     H99324   2.864   8.051  12.097  1.1783 -0.7409 -0.3528
  720MOL0     H99325   2.994   8.146  12.177 -0.7103  1.8359 -0.7486
  720MOL0     H99326   2.761   8.059  12.353 -0.0097  1.8080  1.8483
  720MOL0     H99327   2.869   7.934  12.310 -1.2552 -1.0930  0.3063
  720MOL0     H99328   2.942   8.188  12.470  0.4541 -0.8520  1.3001
  720MOL0     H99329   3.062   8.077  12.395 -0.7740 -0.5096  0.0229
  720MOL0     H99330   3.046   8.011  12.613  0.3429  0.1602  0.2627
  720MOL0     H99331   2.942   7.890  12.529  0.4981  0.2753 -0.7340
  720MOL0     H99332   2.841   8.126  12.687  0.8370  0.0280 -1.0040
  720MOL0     H99333   2.746   8.000  12.601  1.4598 -3.2014 -0.1792
  720MOL0     H99334   2.941   7.938  12.823 -0.5122  2.1696 -1.0133
  720MOL0     H99335   2.841   7.825  12.728 -1.8614 -1.3521  2.8999
  720MOL0     H99336   2.638   7.910  12.841 -0.7543  1.6519 -1.1070
  720MOL0     H99337   2.718   8.053  12.908  0.1020  0.8443 -0.5975
  720MOL0     H99338   2.798   7.768  12.983 -1.2792  0.7495  0.5475
  720MOL0     H99339   2.693   7.854  13.072 -1.4264  0.0448 -0.4458
  720MOL0     H99340   2.951   8.186  11.940 -0.0288 -1.1082  0.6307
  720MOL0     H99341   2.928   8.296  11.751  2.3120  2.3093  0.3451
  720MOL0     H99342   2.647   8.859  11.643 -0.1187 -0.0829 -0.2404
  720MOL0     H99343   2.522   8.967  11.443  1.2221  0.2616 -0.8013
  720MOL0     H99344   1.561   9.691  10.932  2.2181  1.5400  0.6677
  720MOL0     H99345   1.344   9.753  10.960  2.1823  0.2675  1.4097
  720MOL0     H99346   1.004   9.968  10.944 -0.9421  0.7409  0.3209
  720MOL0     H99347   0.777  10.016  10.985  0.2974 -0.5453 -0.1535
  720MOL0     H99348   0.581  10.408  10.886 -1.4675  0.3913 -0.5376
  720MOL0     H99349   0.602  10.363  10.720  0.0192  1.1844  1.2299
  720MOL0     H99350   0.385  10.257  10.712 -1.4078 -1.2479  0.3211
  720MOL0     H99351   0.364  10.392  10.833 -0.8263 -0.4686  0.1316
  720MOL0     H99352   0.397  10.102  10.922  1.4363  0.2956 -2.7483
  720MOL0     H99353   0.397  10.262  11.009  0.2314 -1.4399  2.4052
  720MOL0     H99354   0.153  10.181  10.849 -2.1320 -2.3709  2.5426
  720MOL0     H99355   0.178  10.316  10.958 -0.2285  1.3948 -1.8415
  720MOL0     H99356   0.149  10.028  11.255  0.0442  1.9629  1.0578
  720MOL0     H99357   0.794  10.328  10.681 -1.2248 -1.0111 -0.5918
  720MOL0     H99358   1.114  10.251  10.583 -0.1195 -0.6622  2.5914
  720MOL0     H99359   0.963  10.356  10.565 -2.9470 -0.5328  1.6755
  720MOL0     H99360   1.072  10.394  10.697  0.3075  0.7556 -0.7891
  721MOL0     O99361   4.193   7.229   0.680  0.3042  0.1471  0.5570
  721MOL0     C99362   4.303   7.245   0.735 -1.1399  0.0311  0.2643
  721MOL0     O99363   4.328   7.340   0.837  0.5195  0.9733  0.1429
  721MOL0     C99364   4.223   7.436   0.853  0.3294  0.1786 -0.8291
  721MOL0     C99365   4.122   7.433   0.944 -0.4223 -0.8685 -0.6350
  721MOL0     C99366   4.031   7.548   0.956 -1.0203 -0.3526 -0.4628
  721MOL0     C99367   4.039   7.651   0.868 -0.2540  0.0808  0.0663
  721MOL0     O99368   3.952   7.755   0.865 -0.1007 -0.1641 -0.1705
  721MOL0     C99369   3.824   7.736   0.929 -0.6000  0.8702 -0.2312
  721MOL0     C99370   3.752   7.862   0.915  0.4702 -0.5158  0.7766
  721MOL0     C99371   3.700   7.885   0.777  0.3739 -0.9004  0.0341
  721MOL0     C99372   3.564   7.818   0.740 -0.0875  0.6978 -0.9909
  721MOL0     C99373   3.490   7.894   0.632  0.3526  0.6867 -0.8793
  721MOL0     C99374   3.358   7.832   0.584 -0.2702 -0.6822  0.0141
  721MOL0     C99375   3.237   7.870   0.668 -0.6258  0.2421  0.0752
  721MOL0     C99376   3.134   7.762   0.644  0.5058 -0.4492  0.0322
  721MOL0     N99377   3.096   7.681   0.760  0.0057  0.3276  0.2892
  721MOL0     C99378   3.188   7.613   0.843 -0.0936 -1.0280  0.8451
  721MOL0     C99379   3.129   7.597   0.959  0.4741  0.2578  0.2472
  721MOL0     C99380   3.203   7.522   1.062 -0.1670 -0.5515 -0.2943
  721MOL0     C99381   3.134   7.386   1.085  0.3200 -0.4841 -0.5661
  721MOL0     C99382   3.236   7.298   1.165 -0.3746  0.5397  0.8979
  721MOL0     C99383   3.184   7.163   1.219 -0.8853  0.9626  0.1413
  721MOL0     O99384   3.093   7.098   1.123  0.0660  0.1407  0.2641
  721MOL0     C99385   3.038   6.976   1.139  0.3378  0.0331  0.4061
  721MOL0     C99386   2.964   6.917   1.033  0.5341  0.3684  0.3809
  721MOL0     C99387   2.907   6.792   1.040  0.4149 -0.0612 -0.7643
  721MOL0     C99388   2.842   6.740   0.913 -0.0322  0.0597  0.1133
  721MOL0     C99389   2.935   6.710   1.159 -0.1778 -0.2784  0.0687
  721MOL0     C99390   2.890   6.577   1.195  0.2073 -0.5147  1.0865
  721MOL0     O99391   2.967   6.495   1.278 -0.2401 -0.4667  0.5330
  721MOL0     C99392   2.915   6.386   1.334 -0.2110 -1.0887  0.6927
  721MOL0     C99393   2.909   6.269   1.264  0.3774  0.2225  0.0511
  721MOL0     C99394   2.863   6.155   1.334 -1.4541 -0.0247  0.4308
  721MOL0     C99395   2.830   6.149   1.463  0.1371 -0.0406 -0.5873
  721MOL0     O99396   2.811   6.037   1.533 -0.1037 -0.1313 -0.4458
  721MOL0     C99397   2.882   5.918   1.489  0.1946 -0.6270  0.1714
  721MOL0     C99398   2.971   5.874   1.597 -0.1918  0.6244  1.0310
  721MOL0     C99399   2.907   5.792   1.708 -1.4925 -0.3887 -0.3803
  721MOL0     C99400   2.797   5.859   1.779  0.3923 -1.0141 -0.8745
  721MOL0     C99401   2.828   5.983   1.853 -1.1479  0.4135 -0.8639
  721MOL0     C99402   2.740   6.009   1.965 -0.2092  0.0749  0.3350
  721MOL0     C99403   2.774   6.149   2.012  0.1155  0.4097 -0.2428
  721MOL0     C99404   2.663   6.206   2.107 -0.0203  0.0474 -0.2331
  721MOL0    Cl99405   2.680   6.388   2.092  0.0492  0.2233 -0.3136
  721MOL0     C99406   2.820   6.278   1.530  0.6751  0.1218  0.0921
  721MOL0     C99407   2.872   6.394   1.469  1.0374  0.1040 -0.4094
  721MOL0     O99408   2.780   6.546   1.145 -0.7033  0.4634  0.1037
  721MOL0     C99409   3.026   6.768   1.255  0.5245 -0.6844  0.3439
  721MOL0     C99410   3.068   6.897   1.246  0.1349  0.2508 -0.1996
  721MOL0     N99411   2.997   7.643   0.944  0.4527 -0.8485 -0.1795
  721MOL0     N99412   2.986   7.707   0.829 -0.9762 -0.1140  0.0057
  721MOL0     C99413   4.146   7.641   0.768 -0.2900  0.1767 -0.1901
  721MOL0     C99414   4.241   7.538   0.761  0.4820  1.1710 -0.9158
  721MOL0     C99415   4.416   7.159   0.724 -0.2012 -0.2875 -0.2249
  721MOL0     C99416   4.430   7.060   0.819  0.5706 -0.2538  1.2942
  721MOL0     C99417   4.522   6.949   0.802 -0.4945 -1.3630 -0.5053
  721MOL0     C99418   4.585   6.938   0.678 -0.3722 -0.3583  0.5121
  721MOL0     O99419   4.660   6.823   0.661  0.4467  0.2052 -0.3201
  721MOL0     C99420   4.720   6.803   0.526 -0.4481 -0.1982 -0.5487
  721MOL0     C99421   4.745   6.648   0.516  0.1205  0.4833 -0.7114
  721MOL0     C99422   4.812   6.608   0.383 -0.3535  0.6644 -0.7267
  721MOL0     C99423   4.907   6.487   0.397  0.0573  1.4165 -0.0424
  721MOL0     C99424   4.964   6.451   0.264  0.0288  0.1526 -0.5588
  721MOL0     C99425   4.998   6.427   0.155  0.4161 -0.2171 -0.4853
  721MOL0     C99426   4.573   7.048   0.585 -1.0975  0.1902 -0.8026
  721MOL0     C99427   4.485   7.157   0.606 -0.0010 -0.9131 -0.3818
  721MOL0     C99428   4.465   7.255   0.499 -0.7151  0.4038  0.0437
  721MOL0     H99429   4.127   7.354   1.018  0.9650  0.2535  0.5229
  721MOL0     H99430   3.956   7.533   1.032 -0.2038 -1.2503  0.1991
  721MOL0     H99431   3.848   7.723   1.035 -1.1547 -0.0401 -0.2113
  721MOL0     H99432   3.755   7.662   0.887  0.3834 -0.8908  1.1063
  721MOL0     H99433   3.664   7.858   0.980  1.8777  0.8484  2.9043
  721MOL0     H99434   3.807   7.948   0.955 -2.7477  2.8018 -1.3282
  721MOL0     H99435   3.676   7.992   0.765 -3.8475 -1.3651  2.3378
  721MOL0     H99436   3.775   7.863   0.701  0.4075 -2.4567  0.4989
  721MOL0     H99437   3.585   7.714   0.711  0.0650  0.5981 -0.5305
  721MOL0     H99438   3.500   7.808   0.828  0.7191  0.4442 -0.4120
  721MOL0     H99439   3.554   7.897   0.544  1.1721  1.4214 -0.2820
  721MOL0     H99440   3.470   7.995   0.670  3.0996  1.5582 -1.5822
  721MOL0     H99441   3.352   7.855   0.478  1.4205  0.2285  0.0884
  721MOL0     H99442   3.365   7.722   0.583  1.0424 -0.6145  0.6787
  721MOL0     H99443   3.197   7.970   0.648  1.2277  1.0123  0.0353
  721MOL0     H99444   3.255   7.866   0.776 -3.2825  1.1645  0.6295
  721MOL0     H99445   3.039   7.808   0.614  0.4594 -0.9417 -0.6084
  721MOL0     H99446   3.147   7.693   0.560 -1.9294 -1.4978  0.4223
  721MOL0     H99447   3.292   7.588   0.820  0.5851  2.0831  0.0566
  721MOL0     H99448   3.193   7.576   1.157 -1.2676 -1.1837 -0.0250
  721MOL0     H99449   3.306   7.507   1.030  0.0037 -1.1085  0.4888
  721MOL0     H99450   3.036   7.390   1.132  0.1563  1.6989 -1.0237
  721MOL0     H99451   3.117   7.341   0.987 -3.4231  0.6795 -0.6002
  721MOL0     H99452   3.312   7.274   1.090 -2.4630  0.1798 -1.2574
  721MOL0     H99453   3.286   7.356   1.242 -0.7337  0.9763  0.8089
  721MOL0     H99454   3.267   7.098   1.252  0.5186  3.0876  1.0185
  721MOL0     H99455   3.129   7.174   1.313  1.7198  0.3886  1.8460
  721MOL0     H99456   2.950   6.983   0.948  1.0462 -0.9437 -0.7690
  721MOL0     H99457   2.813   6.826   0.852 -0.4102  0.1989  0.4822
  721MOL0     H99458   2.755   6.679   0.941 -0.1326  0.7940  1.5339
  721MOL0     H99459   2.916   6.683   0.857  3.0525 -0.6450  4.4210
  721MOL0     H99460   2.932   6.262   1.158 -2.9533 -0.7809 -0.7287
  721MOL0     H99461   2.852   6.058   1.285  0.2962 -1.3650  2.4803
  721MOL0     H99462   2.825   5.834   1.449  0.3592 -0.8236  0.3500
  721MOL0     H99463   2.955   5.938   1.410  1.3393 -3.6270  0.3417
  721MOL0     H99464   3.044   5.808   1.549  0.5655  3.2252 -1.6524
  721MOL0     H99465   3.025   5.964   1.627  0.3060  0.5086  0.4990
  721MOL0     H99466   2.993   5.771   1.773 -0.2969  0.3514 -1.6635
  721MOL0     H99467   2.883   5.691   1.672 -3.5247 -0.4668  1.0357
  721MOL0     H99468   2.777   5.782   1.855  3.4377 -0.5460  0.5811
  721MOL0     H99469   2.712   5.872   1.712 -2.5380 -0.6086  2.5969
  721MOL0     H99470   2.931   5.981   1.889 -0.5974 -0.2007 -2.3586
  721MOL0     H99471   2.818   6.064   1.780 -2.0243 -0.6710 -1.9972
  721MOL0     H99472   2.749   5.928   2.038 -1.3433  2.2386  3.0267
  721MOL0     H99473   2.635   6.006   1.932 -0.2892  2.8543  0.1034
  721MOL0     H99474   2.787   6.223   1.932 -1.2656  2.4314  1.2894
  721MOL0     H99475   2.871   6.148   2.063  1.6197 -0.9855 -2.9389
  721MOL0     H99476   2.676   6.172   2.210  1.6604  0.4696 -0.2900
  721MOL0     H99477   2.564   6.185   2.064  0.6058  0.0525 -1.7353
  721MOL0     H99478   2.788   6.289   1.633 -3.7847 -1.8405 -0.8313
  721MOL0     H99479   2.869   6.493   1.514  3.4414 -0.4388  1.1887
  721MOL0     H99480   3.041   6.718   1.350 -3.9354  0.0340  1.6455
  721MOL0     H99481   3.127   6.941   1.326  0.6821 -1.8249  0.6148
  721MOL0     H99482   4.160   7.729   0.705  0.3156 -1.0583 -1.8772
  721MOL0     H99483   4.311   7.519   0.679  2.8975 -0.6813  1.3985
  721MOL0     H99484   4.353   7.063   0.896 -1.4552  1.1287 -0.6627
  721MOL0     H99485   4.525   6.876   0.882 -0.4697 -0.1176  0.6741
  721MOL0     H99486   4.656   6.840   0.445  0.9792  0.3259 -1.4807
  721MOL0     H99487   4.815   6.856   0.517  0.0802 -0.2459  3.2058
  721MOL0     H99488   4.642   6.614   0.525 -0.0121  1.1893  0.6623
  721MOL0     H99489   4.790   6.615   0.610 -2.1411 -0.4452  0.1051
  721MOL0     H99490   4.732   6.575   0.316 -0.2518  1.5519 -1.3001
  721MOL0     H99491   4.876   6.688   0.346  3.1138 -0.7260  1.7543
  721MOL0     H99492   4.847   6.400   0.425  1.8967 -0.3718 -1.4239
  721MOL0     H99493   4.990   6.522   0.459 -0.5918  3.7910 -0.4050
  721MOL0     H99494   5.026   6.399   0.055 -2.4678  2.9649 -2.3996
  721MOL0     H99495   4.602   7.061   0.481 -1.8054  0.9067 -0.9221
  721MOL0     H99496   4.556   7.276   0.441 -0.3147 -2.2200 -0.4228
  721MOL0     H99497   4.391   7.218   0.427  0.9598 -1.5518 -0.7862
  721MOL0     H99498   4.426   7.346   0.545  2.9423  1.3020  1.7628
  722MOL0     O99499   3.413   9.632   0.211 -0.1258  0.6509  0.3304
  722MOL0     C99500   3.333   9.689   0.278  0.7277  0.7228  1.4542
  722MOL0     O99501   3.363   9.755   0.387 -1.3180 -0.3063  0.0071
  722MOL0     C99502   3.501   9.741   0.428 -0.4390 -0.3696  0.6121
  722MOL0     C99503   3.596   9.844   0.383  0.8219  1.0025 -0.5097
  722MOL0     C99504   3.723   9.839   0.447  0.1174 -0.2883 -0.6288
  722MOL0     C99505   3.763   9.738   0.546  0.1711 -0.1000 -0.3427
  722MOL0     O99506   3.888   9.753   0.595  0.2556  0.8775  0.0474
  722MOL0     C99507   3.916   9.685   0.711  0.1496 -0.3471 -0.4503
  722MOL0     C99508   4.055   9.735   0.742 -0.0694  0.7106 -0.1289
  722MOL0     C99509   4.168   9.679   0.667 -0.4264  0.0397  0.0731
  722MOL0     C99510   4.298   9.731   0.725 -0.1607  0.8976  0.3701
  722MOL0     C99511   4.417   9.665   0.650  0.2779 -0.1182  0.7580
  722MOL0     C99512   4.553   9.691   0.695  0.3478 -0.1591  0.2099
  722MOL0     C99513   4.592   9.840   0.673 -0.2645  0.6367  0.2817
  722MOL0     C99514   4.728   9.879   0.732 -0.7850  0.3499 -0.7561
  722MOL0     N99515   4.753  10.019   0.741 -0.6445 -0.7390  0.0976
  722MOL0     C99516   4.725  10.102   0.842 -0.1620  0.6100  0.0303
  722MOL0     C99517   4.790  10.216   0.812 -0.2440 -0.4127 -0.7309
  722MOL0     C99518   4.789  10.336   0.901  0.6260  0.3564  0.5060
  722MOL0     C99519   4.648  10.373   0.928 -0.1768  0.2595  0.0744
  722MOL0     C99520   4.579  10.428   0.808 -0.3143  0.4129 -0.0461
  722MOL0     C99521   4.469  10.347   0.750  0.2939  0.8563  0.9567
  722MOL0     O99522   4.413  10.423   0.642 -0.3000  0.3205 -0.0550
  722MOL0     C99523   4.307  10.375   0.561 -0.1860 -0.0482  0.2372
  722MOL0     C99524   4.251  10.252   0.583  0.4036  0.4595  0.3418
  722MOL0     C99525   4.137  10.211   0.502  0.1177 -0.0359 -1.2957
  722MOL0     C99526   4.094  10.067   0.539 -0.3651 -0.4370 -0.0921
  722MOL0     C99527   4.076  10.303   0.418  0.3673  0.8858  0.4854
  722MOL0     C99528   3.954  10.271   0.343  0.5870 -0.0520 -0.7154
  722MOL0     O99529   3.883  10.379   0.311  0.0773 -0.3295  0.3900
  722MOL0     C99530   3.797  10.381   0.204 -0.3706 -0.5932  0.1182
  722MOL0     C99531   3.822  10.498   0.127  0.2026  1.4821 -0.2297
  722MOL0     C99532   3.741  10.526   0.019 -0.4136 -0.8692  0.2347
  722MOL0     C99533   3.634  10.450  -0.019  0.2258 -0.0840  0.5028
  722MOL0     O99534   3.566  10.459  -0.138  0.4409 -0.3665 -0.2353
  722MOL0     C99535   3.552  10.592  -0.203  0.3963 -0.8531  0.0073
  722MOL0     C99536   3.412  10.606  -0.263  0.0702  0.8340  0.4400
  722MOL0     C99537   3.389  10.744  -0.337  2.1454 -1.3582  0.6016
  722MOL0     C99538   3.247  10.781  -0.385 -0.5456 -0.2370  0.5396
  722MOL0     C99539   3.200  10.927  -0.369  0.0991 -0.1853  0.6564
  722MOL0     C99540   3.287  11.019  -0.460 -0.3941  0.4090 -0.9835
  722MOL0     C99541   3.218  11.152  -0.487 -0.1623 -0.5032 -0.7910
  722MOL0     C99542   3.254  11.264  -0.376 -0.2076  0.2605  0.1921
  722MOL0    Cl99543   3.200  11.221  -0.204  0.2437  0.2345  0.0783
  722MOL0     C99544   3.608  10.331   0.056  0.3499 -0.2925 -0.0172
  722MOL0     C99545   3.690  10.299   0.169 -0.3347 -0.9923 -0.7266
  722MOL0     O99546   3.922  10.153   0.310  0.1765 -0.9451  0.7225
  722MOL0     C99547   4.129  10.431   0.408  0.0667  0.5255  0.7851
  722MOL0     C99548   4.255  10.460   0.466  0.7823  0.6073  0.0790
  722MOL0     N99549   4.845  10.201   0.690  0.0251  0.1946 -0.2404
  722MOL0     N99550   4.819  10.085   0.650  0.1971  0.0011  0.5395
  722MOL0     C99551   3.666   9.645   0.576  1.1086 -0.1989 -0.7366
  722MOL0     C99552   3.539   9.638   0.517  0.6572 -0.1443  1.0057
  722MOL0     C99553   3.183   9.673   0.245  0.2392 -0.8733 -0.1357
  722MOL0     C99554   3.090   9.722   0.343  0.0138 -0.5687  0.4646
  722MOL0     C99555   2.958   9.713   0.327 -1.1700 -0.9977 -0.3206
  722MOL0     C99556   2.904   9.651   0.215  0.6416 -0.0809 -0.1724
  722MOL0     O99557   2.771   9.635   0.198  0.1406  1.1393  0.2080
  722MOL0     C99558   2.673   9.641   0.307  0.0706  0.5257  0.0100
  722MOL0     C99559   2.596   9.510   0.290 -0.4902 -0.9645  0.3109
  722MOL0     C99560   2.669   9.383   0.339  0.0204 -0.2867 -0.5473
  722MOL0     C99561   2.559   9.277   0.342 -0.1885 -0.3108  0.4533
  722MOL0     C99562   2.628   9.147   0.347 -0.1781 -0.5074 -0.0723
  722MOL0     C99563   2.679   9.039   0.357  0.7625  0.3602  0.5503
  722MOL0     C99564   2.991   9.594   0.119 -0.0640 -0.3572  0.0213
  722MOL0     C99565   3.128   9.594   0.136  0.7868 -0.0834  0.2566
  722MOL0     C99566   3.215   9.512   0.042 -0.1376  0.2592  0.8556
  722MOL0     H99567   3.577   9.913   0.301 -0.2553 -2.2549 -3.2494
  722MOL0     H99568   3.795   9.913   0.416  0.5905 -0.2160  0.5798
  722MOL0     H99569   3.906   9.576   0.702 -4.5257 -0.3461  1.6378
  722MOL0     H99570   3.850   9.728   0.787  0.4112  1.7912 -1.3852
  722MOL0     H99571   4.050   9.843   0.725  0.7767  0.5199 -1.6857
  722MOL0     H99572   4.064   9.716   0.850 -2.2801  1.5863  0.2444
  722MOL0     H99573   4.172   9.571   0.687 -2.8894 -0.1011  0.0765
  722MOL0     H99574   4.164   9.696   0.559  1.0483 -0.3470 -0.0611
  722MOL0     H99575   4.298   9.840   0.717  2.5619  0.9808  0.4829
  722MOL0     H99576   4.322   9.699   0.827 -0.1734  0.4098  0.2254
  722MOL0     H99577   4.400   9.692   0.545  2.5371 -1.4294 -0.0124
  722MOL0     H99578   4.413   9.556   0.657 -0.0400 -0.0193  2.5185
  722MOL0     H99579   4.568   9.663   0.800  0.2784  0.3332  0.3531
  722MOL0     H99580   4.627   9.631   0.641  0.6779  0.8439 -0.4749
  722MOL0     H99581   4.512   9.899   0.719  1.3083  0.6848  3.2028
  722MOL0     H99582   4.594   9.848   0.564  0.9206 -3.4529 -0.1514
  722MOL0     H99583   4.734   9.832   0.831 -0.7199  1.5858 -0.1591
  722MOL0     H99584   4.812   9.833   0.679 -2.0109 -0.3644 -2.1471
  722MOL0     H99585   4.666  10.073   0.929 -1.6786 -2.1778 -1.7612
  722MOL0     H99586   4.847  10.423   0.868  0.4366  0.1831 -0.3118
  722MOL0     H99587   4.829  10.300   0.996 -1.4621 -0.8504  0.9774
  722MOL0     H99588   4.597  10.289   0.977 -2.4230  2.2781  1.3678
  722MOL0     H99589   4.653  10.455   1.000  0.7046 -1.3595  1.9598
  722MOL0     H99590   4.542  10.525   0.845 -0.8138  0.6456 -1.1223
  722MOL0     H99591   4.655  10.444   0.731 -0.2917 -1.3332 -0.4070
  722MOL0     H99592   4.524  10.263   0.708 -0.2063  0.6236  0.7610
  722MOL0     H99593   4.391  10.324   0.823 -0.0368  0.5480  0.5128
  722MOL0     H99594   4.293  10.188   0.660 -0.5839 -0.2950  0.2741
  722MOL0     H99595   4.014  10.072   0.613 -1.3028  0.2020 -1.1084
  722MOL0     H99596   4.185  10.019   0.577  0.5209  2.7151  2.1313
  722MOL0     H99597   4.060  10.021   0.445 -3.2700 -0.0605  0.6643
  722MOL0     H99598   3.916  10.549   0.148 -0.8754  2.7282  1.9930
  722MOL0     H99599   3.757  10.614  -0.041 -5.6629 -0.9042 -1.7404
  722MOL0     H99600   3.557  10.680  -0.139  1.8680  1.6027 -3.2098
  722MOL0     H99601   3.633  10.612  -0.273 -2.4370  0.9724 -3.0400
  722MOL0     H99602   3.397  10.531  -0.342 -1.2249 -1.2122  2.4892
  722MOL0     H99603   3.338  10.578  -0.188 -1.1334  1.3209 -0.5218
  722MOL0     H99604   3.462  10.766  -0.415  0.3405  0.3589 -0.7030
  722MOL0     H99605   3.408  10.827  -0.267  0.0186  2.0836 -2.5467
  722MOL0     H99606   3.177  10.711  -0.337  2.2994 -1.2157  3.6128
  722MOL0     H99607   3.239  10.754  -0.491 -0.6881 -1.8704  0.9269
  722MOL0     H99608   3.094  10.929  -0.394 -0.1319  0.3252  1.6229
  722MOL0     H99609   3.208  10.958  -0.264  3.2659  0.7656  0.2479
  722MOL0     H99610   3.294  10.967  -0.556 -0.5478 -3.7894  1.0565
  722MOL0     H99611   3.383  11.049  -0.418 -0.7517  3.5734 -2.1564
  722MOL0     H99612   3.109  11.144  -0.486 -0.2082 -0.2073 -1.9966
  722MOL0     H99613   3.224  11.195  -0.587 -1.7941  1.6244 -0.0541
  722MOL0     H99614   3.220  11.366  -0.398 -0.3278  0.2566  0.3591
  722MOL0     H99615   3.362  11.274  -0.386  0.1186 -2.3883  0.4295
  722MOL0     H99616   3.521  10.272   0.031 -0.3674  0.6524  0.1856
  722MOL0     H99617   3.672  10.209   0.228  1.0158 -1.7499 -1.4244
  722MOL0     H99618   4.091  10.513   0.349 -2.4529  0.0062  1.5533
  722MOL0     H99619   4.289  10.557   0.430  0.3949 -0.0600 -2.2378
  722MOL0     H99620   3.707   9.567   0.639  3.5183  1.6022  0.0878
  722MOL0     H99621   3.464   9.570   0.556 -0.4429  0.5688  0.2269
  722MOL0     H99622   3.132   9.780   0.425 -0.1882 -0.6364  0.6180
  722MOL0     H99623   2.898   9.767   0.399  0.2491 -0.0439  0.1911
  722MOL0     H99624   2.708   9.651   0.411  0.3596 -3.1205  0.3911
  722MOL0     H99625   2.613   9.730   0.289  1.8075  1.7951  0.1447
  722MOL0     H99626   2.552   9.496   0.191 -2.9835 -3.1057  1.5894
  722MOL0     H99627   2.497   9.517   0.338 -1.1478  0.9876 -1.2017
  722MOL0     H99628   2.745   9.357   0.265 -0.8856  0.4238 -1.7682
  722MOL0     H99629   2.718   9.406   0.434  0.1459  0.2554 -0.7393
  722MOL0     H99630   2.498   9.290   0.253  0.6390 -2.2439 -0.4623
  722MOL0     H99631   2.490   9.305   0.423 -0.0626 -2.3167  1.3363
  722MOL0     H99632   2.715   8.939   0.370  4.2848  1.1675 -1.4595
  722MOL0     H99633   2.944   9.558   0.029  0.5638  0.6127 -0.7078
  722MOL0     H99634   3.256   9.431   0.104  1.4100 -0.0970 -0.5588
  722MOL0     H99635   3.159   9.465  -0.040 -1.1235  1.8110  0.6098
  722MOL0     H99636   3.293   9.581   0.009 -0.3004  0.8205  1.6125
  723MOL0     O99637   0.751   3.575  10.172 -0.6749  0.2279  0.0822
  723MOL0     C99638   0.775   3.573  10.048  0.5087  0.8986  0.1328
  723MOL0     O99639   0.783   3.676   9.967 -0.0904 -0.0008  0.1837
  723MOL0     C99640   0.774   3.803  10.006 -0.2889 -0.9988 -0.0208
  723MOL0     C99641   0.840   3.840  10.126  0.2381 -0.0715 -0.9260
  723MOL0     C99642   0.806   3.966  10.192  0.2792  0.5856 -0.5095
  723MOL0     C99643   0.720   4.054  10.124  0.3376 -0.2624 -0.0619
  723MOL0     O99644   0.703   4.171  10.196  0.4624 -0.6605 -0.1068
  723MOL0     C99645   0.654   4.292  10.134 -0.1258 -0.5528  0.0790
  723MOL0     C99646   0.645   4.392  10.250 -0.5919  0.6943  0.9521
  723MOL0     C99647   0.509   4.387  10.313 -0.5490 -0.1158 -0.3960
  723MOL0     C99648   0.513   4.474  10.439 -0.6312  0.1359 -0.4468
  723MOL0     C99649   0.392   4.496  10.526 -0.2672 -0.4659 -0.1121
  723MOL0     C99650   0.303   4.607  10.478  0.0762 -0.9382  0.1738
  723MOL0     C99651   0.196   4.575  10.367 -0.3783 -0.3370 -0.6232
  723MOL0     C99652   0.061   4.526  10.419  0.0990 -0.5104 -0.0984
  723MOL0     N99653   0.041   4.379  10.405 -0.1312 -0.0427 -0.0366
  723MOL0     C99654   0.003   4.312  10.290  0.5232  0.6453  0.8937
  723MOL0     C99655  -0.017   4.186  10.332 -0.0396  0.3395  0.2567
  723MOL0     C99656  -0.053   4.061  10.247  0.8764  0.0471  0.5261
  723MOL0     C99657   0.067   3.979  10.236  0.5904  1.0405  0.5464
  723MOL0     C99658   0.044   3.867  10.133 -1.2946 -0.0075 -1.1880
  723MOL0     C99659  -0.062   3.773  10.165  0.6331  1.1218 -0.1795
  723MOL0     O99660  -0.061   3.685  10.052 -0.6294  0.2431 -0.1778
  723MOL0     C99661  -0.082   3.549  10.052  0.0359  0.2068 -0.1455
  723MOL0     C99662  -0.051   3.471   9.943  0.0512  0.1370  1.4155
  723MOL0     C99663  -0.088   3.339   9.932  0.8719 -0.5693 -0.1305
  723MOL0     C99664  -0.050   3.261   9.808 -0.0180  0.2061 -0.3923
  723MOL0     C99665  -0.149   3.283  10.047  0.1455 -0.7900 -0.6084
  723MOL0     C99666  -0.180   3.141  10.070 -0.3047 -0.2779  0.5535
  723MOL0     O99667  -0.251   3.112  10.182  0.1803  0.1093  0.4808
  723MOL0     C99668  -0.258   2.993  10.254  0.5901  0.2939  0.2182
  723MOL0     C99669  -0.331   2.994  10.374  0.4060 -0.1433  0.0701
  723MOL0     C99670  -0.351   2.871  10.443  0.5201  0.3142  0.0879
  723MOL0     C99671  -0.287   2.748  10.399  0.6464  0.3097 -0.0627
  723MOL0     O99672  -0.282   2.637  10.475 -1.1925 -0.0181 -0.4637
  723MOL0     C99673  -0.401   2.611  10.543 -0.0441  0.6689 -0.5845
  723MOL0     C99674  -0.415   2.465  10.598 -1.5244 -0.8030  0.0105
  723MOL0     C99675  -0.294   2.440  10.694 -0.2170  0.0532 -0.3418
  723MOL0     C99676  -0.278   2.305  10.759  0.2129  0.1634 -0.2864
  723MOL0     C99677  -0.390   2.266  10.858  0.6726  0.1092 -0.5526
  723MOL0     C99678  -0.373   2.125  10.928  0.2910  0.1766  0.0310
  723MOL0     C99679  -0.496   2.096  11.017 -0.2131 -0.0214 -0.1336
  723MOL0     C99680  -0.466   1.990  11.122 -0.4671 -0.6577  0.0163
  723MOL0    Cl99681  -0.314   2.023  11.211 -0.0892  0.1182  0.0280
  723MOL0     C99682  -0.213   2.754  10.277  0.4740 -0.8002 -0.4394
  723MOL0     C99683  -0.205   2.873  10.199  0.5319  0.0883 -1.1675
  723MOL0     O99684  -0.102   3.069  10.010  0.3684 -0.4665 -0.0130
  723MOL0     C99685  -0.183   3.366  10.156  0.3804 -0.0509  0.0988
  723MOL0     C99686  -0.151   3.499  10.161 -0.0737  1.3361  0.3956
  723MOL0     N99687  -0.020   4.185  10.469 -0.1411  0.2972 -0.7464
  723MOL0     N99688   0.005   4.303  10.512 -0.3560 -0.5033  0.2654
  723MOL0     C99689   0.651   4.015  10.007 -0.9242 -0.4200  0.0679
  723MOL0     C99690   0.680   3.890   9.952  0.8255  0.5407 -0.6417
  723MOL0     C99691   0.835   3.450   9.985 -0.0675 -0.0490  0.1496
  723MOL0     C99692   0.949   3.459   9.895 -0.3666 -0.6536  0.1924
  723MOL0     C99693   0.997   3.345   9.826  0.5226 -0.4865  0.9580
  723MOL0     C99694   0.946   3.221   9.850  0.4210 -0.1263 -0.2859
  723MOL0     O99695   0.971   3.109   9.774 -0.1065 -0.6673 -0.2317
  723MOL0     C99696   0.969   3.126   9.629 -0.5883  0.8941 -0.2545
  723MOL0     C99697   0.860   3.026   9.574  0.3407  0.4381 -0.2060
  723MOL0     C99698   0.865   3.027   9.419 -0.1739  0.2233 -0.2727
  723MOL0     C99699   0.734   2.953   9.370 -0.7881  0.3919 -0.4923
  723MOL0     C99700   0.734   2.941   9.221  0.4606  0.7275  0.2797
  723MOL0     C99701   0.731   2.911   9.105  0.3137 -0.0388  1.2498
  723MOL0     C99702   0.837   3.220   9.937 -0.0874 -0.1929 -0.2157
  723MOL0     C99703   0.779   3.318  10.012 -0.5787 -0.2264 -0.6452
  723MOL0     C99704   0.674   3.284  10.116 -0.3864  0.7233 -0.2457
  723MOL0     H99705   0.908   3.770  10.174  2.1849  1.8256 -0.7786
  723MOL0     H99706   0.852   3.983  10.289 -0.9743  2.2196 -0.1561
  723MOL0     H99707   0.551   4.270  10.105 -0.6685 -0.2184  1.6470
  723MOL0     H99708   0.709   4.333  10.049 -0.3986 -0.2017  0.0683
  723MOL0     H99709   0.712   4.361  10.332 -0.1719  1.8554  1.0606
  723MOL0     H99710   0.669   4.493  10.217 -0.3656  0.6531  0.9872
  723MOL0     H99711   0.433   4.427  10.244 -2.5691 -1.3317  1.0346
  723MOL0     H99712   0.479   4.285  10.337  2.9812 -0.7372  2.1598
  723MOL0     H99713   0.591   4.422  10.495  2.8022  0.2264 -4.6006
  723MOL0     H99714   0.562   4.570  10.420 -1.5056  1.0101  1.4414
  723MOL0     H99715   0.430   4.519  10.626  0.5051  1.7337 -0.8458
  723MOL0     H99716   0.334   4.403  10.528 -0.2449 -0.5307  2.9913
  723MOL0     H99717   0.246   4.642  10.564 -3.0063 -2.8359 -0.8998
  723MOL0     H99718   0.382   4.670  10.436  1.1938 -2.5818 -0.2687
  723MOL0     H99719   0.235   4.507  10.290 -1.0879 -1.9559  0.3998
  723MOL0     H99720   0.174   4.671  10.320  0.7913 -0.5732 -1.7133
  723MOL0     H99721   0.035   4.552  10.522 -1.1949  0.6167 -0.6817
  723MOL0     H99722  -0.010   4.581  10.355  1.4174 -0.0266 -1.2002
  723MOL0     H99723   0.002   4.343  10.186  0.7845  3.4937  1.6522
  723MOL0     H99724  -0.087   4.088  10.146  1.3104 -2.9388 -0.5219
  723MOL0     H99725  -0.140   4.008  10.288  0.3555 -0.1841 -0.8090
  723MOL0     H99726   0.155   4.035  10.203 -0.5402  1.4964 -1.8467
  723MOL0     H99727   0.083   3.931  10.333 -4.5851 -0.4784  0.9317
  723MOL0     H99728   0.013   3.916  10.040 -3.2642  0.5357 -0.2832
  723MOL0     H99729   0.138   3.810  10.125 -2.2232 -1.9059  0.5474
  723MOL0     H99730  -0.034   3.721  10.257  2.1696  1.4043 -0.4629
  723MOL0     H99731  -0.160   3.816  10.189 -2.0149 -3.9527 -0.6381
  723MOL0     H99732   0.003   3.516   9.859 -2.4339  1.7927  0.6018
  723MOL0     H99733  -0.020   3.333   9.730 -0.5814 -0.6785 -1.4480
  723MOL0     H99734  -0.128   3.195   9.769 -0.7580  0.4565  0.6472
  723MOL0     H99735   0.040   3.202   9.828  0.6790  2.1520  2.9336
  723MOL0     H99736  -0.373   3.086  10.412 -2.4628 -0.4799 -1.9354
  723MOL0     H99737  -0.413   2.872  10.533 -0.1320  1.5050 -0.3454
  723MOL0     H99738  -0.412   2.670  10.635  2.6696 -2.1121  1.7554
  723MOL0     H99739  -0.488   2.630  10.479  0.4687  0.1573 -1.4535
  723MOL0     H99740  -0.511   2.448  10.647 -1.1138 -2.2736  0.3475
  723MOL0     H99741  -0.409   2.390  10.519 -0.1172 -1.8286  1.0467
  723MOL0     H99742  -0.285   2.519  10.770  0.4142 -0.9581  0.6652
  723MOL0     H99743  -0.202   2.445  10.635 -0.3895 -1.4327 -0.7722
  723MOL0     H99744  -0.180   2.299  10.807 -0.1191  3.9233  1.1964
  723MOL0     H99745  -0.282   2.226  10.683 -0.7950 -0.1249  0.0354
  723MOL0     H99746  -0.399   2.348  10.929 -1.5969 -1.0707  0.6422
  723MOL0     H99747  -0.479   2.257  10.795  1.0959  0.3533 -1.2101
  723MOL0     H99748  -0.288   2.136  10.997 -1.0226  0.4728  1.6667
  723MOL0     H99749  -0.367   2.044  10.854 -2.2207 -0.3666  0.3215
  723MOL0     H99750  -0.579   2.065  10.953  1.2816 -0.1133 -2.1208
  723MOL0     H99751  -0.521   2.192  11.063  0.7646  0.8438 -1.3281
  723MOL0     H99752  -0.445   1.890  11.083  2.3238 -0.2480  0.2266
  723MOL0     H99753  -0.550   1.970  11.189 -1.6092  0.2048 -1.1180
  723MOL0     H99754  -0.182   2.663  10.226 -0.6948 -1.5799  0.2039
  723MOL0     H99755  -0.172   2.849  10.098 -0.3827 -2.7044 -0.9017
  723MOL0     H99756  -0.222   3.320  10.246 -1.8596 -3.7350 -2.4744
  723MOL0     H99757  -0.172   3.552  10.253  0.9269  1.8079  0.3629
  723MOL0     H99758   0.573   4.077   9.963 -0.3380  0.8140  0.7199
  723MOL0     H99759   0.627   3.848   9.866 -1.1292 -1.4997  1.4072
  723MOL0     H99760   1.009   3.548   9.882 -1.6097  0.1232 -0.3860
  723MOL0     H99761   1.088   3.338   9.768  0.0448 -1.9522  0.3348
  723MOL0     H99762   0.955   3.228   9.592  0.1600  2.5093  3.4573
  723MOL0     H99763   1.067   3.091   9.595 -0.7662  0.2956 -0.1546
  723MOL0     H99764   0.760   3.053   9.610  0.0391 -1.6941  0.6841
  723MOL0     H99765   0.872   2.919   9.595 -0.6374  0.3443 -0.0634
  723MOL0     H99766   0.852   3.132   9.388  1.6560 -0.0138 -2.0555
  723MOL0     H99767   0.961   2.983   9.392  3.1150  5.6773  0.9371
  723MOL0     H99768   0.642   3.001   9.404  1.4169  3.8852  1.1504
  723MOL0     H99769   0.746   2.850   9.406  0.1568 -0.2497 -2.4937
  723MOL0     H99770   0.745   2.867   9.009  0.5182 -2.1001  2.1568
  723MOL0     H99771   0.785   3.126   9.951 -0.1637 -0.1179  0.0084
  723MOL0     H99772   0.719   3.311  10.212  0.7131  1.1805 -0.8703
  723MOL0     H99773   0.582   3.343  10.111  0.7143  2.4434 -1.0469
  723MOL0     H99774   0.648   3.178  10.109  2.4528  0.0696 -2.7441
  724MOL0     O99775  10.922   8.684   2.928  0.6640 -0.5830 -0.4657
  724MOL0     C99776  10.837   8.603   2.894 -0.2948  0.7850  0.3292
  724MOL0     O99777  10.712   8.629   2.849  1.0796 -0.0842  0.0732
  724MOL0     C99778  10.666   8.756   2.867  0.2978  1.2718  0.0371
  724MOL0     C99779  10.535   8.767   2.938 -0.0191 -0.5328 -0.2816
  724MOL0     C99780  10.490   8.893   2.978  1.1768  0.1526  0.5908
  724MOL0     C99781  10.550   9.012   2.943 -0.8054  0.1870  0.0649
  724MOL0     O99782  10.510   9.132   2.993 -0.0748  0.5994 -0.1206
  724MOL0     C99783  10.377   9.165   3.039 -0.6304  0.0137  0.0833
  724MOL0     C99784  10.307   9.255   2.938  0.4382 -0.0573  0.1087
  724MOL0     C99785  10.255   9.169   2.823 -0.1730 -0.6583  0.5709
  724MOL0     C99786  10.204   9.263   2.714 -0.3565 -0.3350  0.0037
  724MOL0     C99787  10.108   9.196   2.620 -0.1157  1.2509 -1.0357
  724MOL0     C99788  10.177   9.083   2.546  0.2275  0.3024  0.9815
  724MOL0     C99789  10.084   9.010   2.449  0.0106 -0.0401 -0.1682
  724MOL0     C99790   9.968   8.933   2.522  0.3250 -0.6423 -0.4303
  724MOL0     N99791  10.018   8.851   2.629  0.6847 -0.0761  0.8916
  724MOL0     C99792  10.079   8.729   2.619 -0.6992 -0.2726 -0.0692
  724MOL0     C99793  10.125   8.693   2.748 -0.4510 -0.8064  0.3962
  724MOL0     C99794  10.198   8.568   2.782 -0.5355  1.2384 -0.6587
  724MOL0     C99795  10.350   8.576   2.748 -0.0486 -0.5917 -0.3739
  724MOL0     C99796  10.397   8.475   2.643  0.1659  0.2009  0.1657
  724MOL0     C99797  10.363   8.328   2.683  0.2722  0.6503 -0.1686
  724MOL0     O99798  10.386   8.239   2.567  0.9840 -0.1730 -0.1785
  724MOL0     C99799  10.388   8.103   2.595 -0.1779 -0.2624 -0.4291
  724MOL0     C99800  10.347   8.039   2.710  0.1381  0.4660 -0.8599
  724MOL0     C99801  10.346   7.893   2.727 -0.7435  0.0952  0.0104
  724MOL0     C99802  10.313   7.846   2.868 -0.3325 -0.1741  0.5284
  724MOL0     C99803  10.394   7.815   2.620  0.3936  0.1772  0.8029
  724MOL0     C99804  10.423   7.671   2.635  0.1570  0.3792  0.0789
  724MOL0     O99805  10.419   7.601   2.513 -0.8197 -0.4351  0.5136
  724MOL0     C99806  10.472   7.477   2.518  0.5968  0.8617 -0.5186
  724MOL0     C99807  10.613   7.472   2.515 -0.5462 -0.0737  0.5840
  724MOL0     C99808  10.676   7.346   2.540  0.2820 -0.3599  0.0196
  724MOL0     C99809  10.601   7.226   2.544  0.4665  0.0122  0.0600
  724MOL0     O99810  10.661   7.105   2.542  0.0448 -0.9135 -0.3530
  724MOL0     C99811  10.694   7.067   2.677 -0.2343 -0.5079 -0.3105
  724MOL0     C99812  10.716   6.913   2.670 -0.8591  0.0303 -0.0737
  724MOL0     C99813  10.850   6.885   2.592  0.0790 -1.3563 -0.3475
  724MOL0     C99814  10.875   6.737   2.558 -0.1695 -0.0321 -0.9304
  724MOL0     C99815  10.947   6.735   2.427  0.0645  0.5531 -0.0961
  724MOL0     C99816  10.995   6.596   2.382  0.0746 -0.4248  0.4542
  724MOL0     C99817  11.128   6.569   2.447 -0.4536 -0.5473 -0.8437
  724MOL0     C99818  11.178   6.428   2.401  0.4676  0.0906 -0.2665
  724MOL0    Cl99819  11.052   6.301   2.431 -0.1397 -0.6786  0.3600
  724MOL0     C99820  10.459   7.239   2.531  0.9438 -0.2601 -0.3077
  724MOL0     C99821  10.389   7.360   2.538  0.3613 -0.4684 -0.9120
  724MOL0     O99822  10.454   7.623   2.746  0.6980 -0.0039 -0.0615
  724MOL0     C99823  10.435   7.888   2.501  0.0106  0.0969 -0.4638
  724MOL0     C99824  10.431   8.026   2.483 -0.5234  0.4918 -0.3065
  724MOL0     N99825  10.094   8.801   2.828 -0.3247  0.5119 -0.7685
  724MOL0     N99826  10.020   8.892   2.763  0.1557 -0.8457  0.4527
  724MOL0     C99827  10.675   9.004   2.870  0.3465  0.0135  0.3010
  724MOL0     C99828  10.727   8.882   2.831 -0.2301 -0.6828  0.9436
  724MOL0     C99829  10.891   8.465   2.894 -0.3060 -1.4460  0.0998
  724MOL0     C99830  10.803   8.364   2.857 -0.3527  0.5310 -0.5657
  724MOL0     C99831  10.837   8.226   2.876 -0.1676 -0.0700  0.9092
  724MOL0     C99832  10.961   8.189   2.919 -0.1749  0.0940 -0.7482
  724MOL0     O99833  10.987   8.050   2.921  0.4000  0.2322 -0.5503
  724MOL0     C99834  11.092   7.991   3.006 -0.4541 -0.8760 -0.3730
  724MOL0     C99835  11.200   7.918   2.915  0.1699  0.3619  1.6183
  724MOL0     C99836  11.165   7.770   2.891 -0.2363 -0.1100  0.5271
  724MOL0     C99837  11.269   7.710   2.779 -0.1959  0.1286 -0.2261
  724MOL0     C99838  11.247   7.764   2.642  0.7461  0.3077 -0.4245
  724MOL0     C99839  11.233   7.804   2.534  0.0020  0.5840  1.1816
  724MOL0     C99840  11.054   8.292   2.942  0.6883  0.2261 -0.7980
  724MOL0     C99841  11.026   8.430   2.922 -0.5643  0.1375  0.0259
  724MOL0     C99842  11.144   8.532   2.936  0.6717 -1.1547 -0.5620
  724MOL0     H99843  10.496   8.674   2.979  2.9076 -1.3781  0.8190
  724MOL0     H99844  10.397   8.905   3.032  2.0465  0.9775  1.9550
  724MOL0     H99845  10.391   9.217   3.134  1.0204  1.4969 -0.8811
  724MOL0     H99846  10.308   9.083   3.055 -1.4373 -0.3018 -3.9770
  724MOL0     H99847  10.215   9.293   2.983 -0.1226 -0.4428 -0.6879
  724MOL0     H99848  10.369   9.340   2.910 -0.2417  1.7537  3.4733
  724MOL0     H99849  10.337   9.111   2.780  1.1666 -0.4774  2.7408
  724MOL0     H99850  10.179   9.104   2.866 -2.9435  2.2191  0.4296
  724MOL0     H99851  10.157   9.342   2.773 -1.6321  0.6858 -2.2566
  724MOL0     H99852  10.277   9.309   2.648 -1.8598 -0.3517 -1.7563
  724MOL0     H99853  10.065   9.279   2.562 -1.4104  0.1530 -1.6893
  724MOL0     H99854  10.032   9.156   2.688  1.6978  1.2184  1.0628
  724MOL0     H99855  10.253   9.140   2.492 -0.0218  0.6516  0.9932
  724MOL0     H99856  10.225   9.022   2.623 -1.0791  1.0008  2.3973
  724MOL0     H99857  10.135   8.924   2.404  0.2683  0.0641 -0.0725
  724MOL0     H99858  10.047   9.080   2.373 -1.9915  1.4895  2.0984
  724MOL0     H99859   9.910   9.009   2.576  0.9060 -1.6028  1.6824
  724MOL0     H99860   9.897   8.879   2.459 -3.2143  2.0211  0.9145
  724MOL0     H99861  10.093   8.676   2.525 -2.3499 -0.8398 -0.0226
  724MOL0     H99862  10.141   8.482   2.746 -0.2441  0.1019  1.4254
  724MOL0     H99863  10.196   8.559   2.891  0.0306 -3.6053 -0.8295
  724MOL0     H99864  10.367   8.674   2.702 -4.4817  0.9129  0.6901
  724MOL0     H99865  10.405   8.571   2.842 -3.4581 -0.8571  1.7748
  724MOL0     H99866  10.346   8.494   2.549  1.4056 -3.0599 -1.3423
  724MOL0     H99867  10.504   8.486   2.624 -0.0316 -2.2778 -3.4569
  724MOL0     H99868  10.426   8.300   2.768 -0.9039 -0.1796  0.4626
  724MOL0     H99869  10.256   8.319   2.706  0.4424  1.5162  1.0616
  724MOL0     H99870  10.315   8.090   2.800  2.9733 -0.1466  0.6261
  724MOL0     H99871  10.283   7.740   2.869 -0.7413 -0.1063  3.1684
  724MOL0     H99872  10.227   7.894   2.917 -0.8281 -1.5250  1.0564
  724MOL0     H99873  10.402   7.855   2.931  1.5217 -0.9371 -1.8397
  724MOL0     H99874  10.671   7.564   2.504  2.4362 -2.0393 -1.6121
  724MOL0     H99875  10.783   7.328   2.544  0.4633  0.7858  1.1016
  724MOL0     H99876  10.786   7.115   2.712 -1.4085 -0.4631  3.0822
  724MOL0     H99877  10.608   7.091   2.739  1.2268  1.4719  1.0772
  724MOL0     H99878  10.731   6.891   2.776  0.3581  2.2214  0.2666
  724MOL0     H99879  10.627   6.865   2.627 -0.7586  1.4297 -1.9503
  724MOL0     H99880  10.939   6.918   2.647 -0.4342 -0.5262 -0.0048
  724MOL0     H99881  10.838   6.932   2.494  2.6683  0.6687  0.1889
  724MOL0     H99882  10.780   6.682   2.556  0.0956 -0.5474 -0.1048
  724MOL0     H99883  10.938   6.687   2.633 -3.7104 -0.9960  1.6724
  724MOL0     H99884  10.887   6.781   2.348 -1.5310 -0.7545  0.2807
  724MOL0     H99885  11.030   6.804   2.445  1.6167 -0.6200 -2.3025
  724MOL0     H99886  11.003   6.594   2.273 -1.8160  0.0716  0.2618
  724MOL0     H99887  10.920   6.523   2.414 -0.5962  1.1056  2.7289
  724MOL0     H99888  11.119   6.573   2.556 -0.6662  0.1702 -0.8814
  724MOL0     H99889  11.202   6.645   2.419  0.4984  0.0207  2.6912
  724MOL0     H99890  11.278   6.396   2.431  0.4495 -0.9114 -1.2189
  724MOL0     H99891  11.179   6.427   2.292 -0.2421 -2.3298 -0.3066
  724MOL0     H99892  10.411   7.144   2.549  1.9724 -0.5093  1.2664
  724MOL0     H99893  10.285   7.369   2.567  0.4128 -0.7319 -0.6440
  724MOL0     H99894  10.482   7.828   2.424  4.2701  0.5616  1.4707
  724MOL0     H99895  10.453   8.082   2.392 -1.3414 -0.2881 -0.9996
  724MOL0     H99896  10.723   9.094   2.834 -0.2268  0.2482  0.1076
  724MOL0     H99897  10.823   8.875   2.780  1.5831 -2.9310  4.2599
  724MOL0     H99898  10.702   8.393   2.832 -0.4904 -0.6780 -1.4716
  724MOL0     H99899  10.760   8.150   2.862 -1.6900  1.1917  2.0150
  724MOL0     H99900  11.141   8.076   3.055  1.5903 -1.9452 -0.4624
  724MOL0     H99901  11.040   7.926   3.077 -2.9821 -1.0168 -2.2190
  724MOL0     H99902  11.303   7.921   2.952  0.6238  3.4472  0.4125
  724MOL0     H99903  11.198   7.967   2.817  1.6720 -2.8677 -0.1983
  724MOL0     H99904  11.178   7.702   2.976 -0.7592 -1.7241 -0.6123
  724MOL0     H99905  11.059   7.754   2.870  0.1111 -2.1824  0.1063
  724MOL0     H99906  11.250   7.603   2.774  0.2337 -0.0854  1.9603
  724MOL0     H99907  11.372   7.725   2.813  0.2930  1.4874 -2.1219
  724MOL0     H99908  11.200   7.841   2.439 -2.5495  2.6736  2.7208
  724MOL0     H99909  11.159   8.266   2.952  0.6881 -0.1868 -1.7422
  724MOL0     H99910  11.134   8.586   2.841 -0.5283 -0.0597  0.1511
  724MOL0     H99911  11.134   8.598   3.023  1.1608  1.2823 -2.2445
  724MOL0     H99912  11.241   8.483   2.947  1.2148  0.1572  0.8339
  725MOL0     O99913   5.776   3.724  10.907  0.1494 -0.6783  0.0658
  725MOL0     C99914   5.889   3.673  10.905  0.2957 -0.5377  0.6988
  725MOL0     O99915   5.944   3.617  10.792 -0.0161 -0.5187 -0.8022
  725MOL0     C99916   5.869   3.607  10.674  0.1638 -0.7969  0.6954
  725MOL0     C99917   5.906   3.690  10.563  0.1798 -0.0837  0.2906
  725MOL0     C99918   5.840   3.674  10.439  0.3383  0.0347  0.2656
  725MOL0     C99919   5.729   3.591  10.423  0.5155 -0.4216 -0.2563
  725MOL0     O99920   5.647   3.606  10.321  0.1518 -0.2139  0.5936
  725MOL0     C99921   5.587   3.482  10.273 -0.2550 -1.7985 -0.2082
  725MOL0     C99922   5.504   3.504  10.149  0.7265 -0.2776 -0.7222
  725MOL0     C99923   5.392   3.594  10.183 -1.0247 -0.1261  0.5258
  725MOL0     C99924   5.272   3.606  10.085  0.0028 -0.6517 -0.1645
  725MOL0     C99925   5.198   3.745  10.111  0.4080  0.1025  0.9086
  725MOL0     C99926   5.100   3.730  10.231  0.3785 -0.1736 -0.3918
  725MOL0     C99927   5.039   3.870  10.261  0.0215 -1.2670 -0.7653
  725MOL0     C99928   4.969   3.886  10.403  1.5513  0.0520 -0.0671
  725MOL0     N99929   4.842   3.808  10.413  0.3219 -0.2896  1.4519
  725MOL0     C99930   4.827   3.668  10.430  0.0680 -1.4843 -0.3226
  725MOL0     C99931   4.699   3.650  10.454  0.2001  0.3005  0.2232
  725MOL0     C99932   4.647   3.509  10.466 -0.6148  0.5547 -0.2353
  725MOL0     C99933   4.550   3.473  10.345 -0.9631 -0.7588 -0.2415
  725MOL0     C99934   4.495   3.330  10.350 -0.2887  0.5770 -0.9098
  725MOL0     C99935   4.426   3.299  10.483  0.0675 -0.3137 -0.1480
  725MOL0     O99936   4.361   3.167  10.478 -0.4037  0.2428 -0.2172
  725MOL0     C99937   4.258   3.140  10.391  0.3635  0.1358  0.4403
  725MOL0     C99938   4.240   3.009  10.348  0.2337  0.3643  0.0152
  725MOL0     C99939   4.148   2.972  10.257  1.3636  0.0139  1.2048
  725MOL0     C99940   4.151   2.822  10.227  0.9808 -0.3650  0.1592
  725MOL0     C99941   4.053   3.065  10.211 -0.4753 -0.0431  0.6415
  725MOL0     C99942   3.930   3.035  10.140  0.5640  0.5112 -0.0580
  725MOL0     O99943   3.854   3.140  10.112  0.0017  0.7080  0.7102
  725MOL0     C99944   3.730   3.129  10.053  0.5847 -0.8291 -0.3151
  725MOL0     C99945   3.690   3.257   9.998  0.6285 -0.3097  0.5378
  725MOL0     C99946   3.566   3.269   9.938 -0.2907 -0.0085  0.4348
  725MOL0     C99947   3.485   3.156   9.922  1.4719 -0.1055  0.3181
  725MOL0     O99948   3.365   3.171   9.849 -0.0859  0.1496 -0.2545
  725MOL0     C99949   3.380   3.189   9.700  0.9608  0.1360  0.0250
  725MOL0     C99950   3.381   3.054   9.646  0.5784  0.9466  0.6644
  725MOL0     C99951   3.279   3.041   9.537  0.1189  0.3576  0.0094
  725MOL0     C99952   3.288   2.909   9.456  0.6589  0.3172  0.2518
  725MOL0     C99953   3.209   2.922   9.330  0.1352 -0.2353  0.3176
  725MOL0     C99954   3.067   2.869   9.340  0.1379 -0.3321 -0.5472
  725MOL0     C99955   2.955   2.891   9.230 -0.3204  0.1578  0.2936
  725MOL0     C99956   2.821   2.821   9.260 -0.5058  0.1321  0.3757
  725MOL0    Cl99957   2.831   2.638   9.237 -0.7437  0.1005  0.0355
  725MOL0     C99958   3.519   3.032   9.984  0.8785  0.5810  1.0550
  725MOL0     C99959   3.642   3.017  10.047 -0.2983  0.6912  0.3328
  725MOL0     O99960   3.903   2.924  10.107 -0.2007  0.1332 -0.1819
  725MOL0     C99961   4.070   3.196  10.259  0.8374  0.1965  0.3680
  725MOL0     C99962   4.170   3.236  10.342 -0.5751  0.0533  0.2794
  725MOL0     N99963   4.640   3.772  10.469 -1.4990  0.7563 -0.7512
  725MOL0     N99964   4.722   3.866  10.436  0.0227  0.3852 -0.5029
  725MOL0     C99965   5.682   3.529  10.542 -0.3871  0.2207  1.1153
  725MOL0     C99966   5.752   3.530  10.662 -0.7581  0.4111 -0.2403
  725MOL0     C99967   5.967   3.673  11.030  0.1617 -0.2440 -0.1793
  725MOL0     C99968   5.975   3.781  11.119 -0.0143  0.1785  0.5327
  725MOL0     C99969   6.075   3.784  11.211 -0.4052  0.6981 -0.2978
  725MOL0     C99970   6.155   3.677  11.235  0.4305 -0.8549 -0.9510
  725MOL0     O99971   6.217   3.668  11.354  0.5009  0.3508 -0.3376
  725MOL0     C99972   6.249   3.769  11.444  0.1966  0.1822 -0.1502
  725MOL0     C99973   6.361   3.851  11.388 -0.5690 -0.4813  0.2500
  725MOL0     C99974   6.436   3.800  11.262 -0.0959  1.0478  0.2139
  725MOL0     C99975   6.569   3.876  11.238 -0.0614 -0.3450 -0.3445
  725MOL0     C99976   6.655   3.891  11.359 -0.5728 -0.8728 -0.0878
  725MOL0     C99977   6.737   3.906  11.449 -0.7237 -0.6979 -0.2066
  725MOL0     C99978   6.149   3.570  11.148  0.1852 -0.1625  0.0351
  725MOL0     C99979   6.049   3.556  11.047  0.4760 -1.0264  1.0284
  725MOL0     C99980   6.027   3.429  10.978  0.4957  0.4609  0.2734
  725MOL0     H99981   5.991   3.757  10.570  1.1966 -1.4891  2.1198
  725MOL0     H99982   5.879   3.744  10.366 -4.2732  2.4647 -0.2081
  725MOL0     H99983   5.536   3.424  10.351  1.7761 -0.5463  2.1737
  725MOL0     H99984   5.664   3.414  10.235  4.2222  2.1539  0.9721
  725MOL0     H99985   5.557   3.547  10.063  1.2511  1.4558  0.3987
  725MOL0     H99986   5.451   3.416  10.112 -0.5436  0.1846 -0.0652
  725MOL0     H99987   5.346   3.574  10.280 -0.6513 -2.7081  0.2372
  725MOL0     H99988   5.434   3.695  10.190 -1.0175  0.0953 -1.9326
  725MOL0     H99989   5.309   3.618   9.983  1.2149 -4.5131 -0.3025
  725MOL0     H99990   5.201   3.523  10.087  0.5479 -1.1118  0.7268
  725MOL0     H99991   5.142   3.775  10.022  1.4469  1.6641  0.7361
  725MOL0     H99992   5.269   3.827  10.124  1.1339  0.0237 -1.8551
  725MOL0     H99993   5.013   3.666  10.210 -2.1787  2.1455  2.2274
  725MOL0     H99994   5.148   3.694  10.322 -0.3122  1.2819  0.5762
  725MOL0     H99995   4.966   3.906  10.188  0.2747 -1.9328 -1.3674
  725MOL0     H99996   5.110   3.953  10.269 -0.5091 -0.7419 -1.4305
  725MOL0     H99997   5.036   3.844  10.479 -1.1975 -4.2447  0.3444
  725MOL0     H99998   4.946   3.991  10.423 -1.2287  0.0078 -2.3674
  725MOL0     H99999   4.905   3.593  10.418  2.6028  0.7939  0.8203
  725MOL0     H    0   4.589   3.491  10.557  0.7974 -2.7352  0.1766
  725MOL0     H    1   4.723   3.430  10.473 -2.0298 -0.7960  0.3835
  725MOL0     H    2   4.471   3.548  10.350 -0.1089  0.1303  2.8751
  725MOL0     H    3   4.602   3.484  10.250 -3.3769 -0.4277 -1.5898
  725MOL0     H    4   4.440   3.322  10.256 -0.0295 -0.4958 -0.9805
  725MOL0     H    5   4.580   3.262  10.347 -0.0921  0.5561  1.8978
  725MOL0     H    6   4.499   3.296  10.564  1.4708  1.9160 -1.2447
  725MOL0     H    7   4.354   3.378  10.503  0.9490  0.5579 -0.3440
  725MOL0     H    8   4.303   2.934  10.396 -0.2482 -0.8055 -1.1333
  725MOL0     H    9   4.066   2.778  10.280  1.8593 -1.1327  0.9832
  725MOL0     H   10   4.243   2.773  10.258  1.1989 -0.0529  0.0079
  725MOL0     H   11   4.144   2.803  10.119  0.6773  0.1658  0.0852
  725MOL0     H   12   3.755   3.344  10.006  2.8818 -1.8457 -0.2221
  725MOL0     H   13   3.546   3.368   9.896  0.1336  1.0327  2.5413
  725MOL0     H   14   3.293   3.250   9.672 -0.3832 -0.0005  3.3871
  725MOL0     H   15   3.476   3.234   9.674  0.7956  1.2017  1.1578
  725MOL0     H   16   3.482   3.036   9.607  1.6682  5.2540  0.9926
  725MOL0     H   17   3.355   2.980   9.723 -3.1928  0.9477 -0.4119
  725MOL0     H   18   3.289   3.127   9.470 -2.6318  2.1340  1.6506
  725MOL0     H   19   3.182   3.042   9.588  0.3840  1.8385  0.5496
  725MOL0     H   20   3.247   2.826   9.514 -0.0648  0.3222 -0.2354
  725MOL0     H   21   3.391   2.881   9.433  0.2678 -1.2834  0.2873
  725MOL0     H   22   3.208   3.029   9.304 -1.4575  0.1303  1.7297
  725MOL0     H   23   3.257   2.871   9.246 -0.0467  0.7014 -0.3690
  725MOL0     H   24   3.041   2.917   9.435  1.6722  1.6409 -1.0496
  725MOL0     H   25   3.061   2.761   9.357 -0.8854  0.1302  2.9020
  725MOL0     H   26   2.994   2.860   9.132  0.3205 -2.0714  1.1859
  725MOL0     H   27   2.942   3.000   9.230  0.2960  0.3331 -2.5940
  725MOL0     H   28   2.748   2.865   9.192 -2.7739 -1.8976  1.3592
  725MOL0     H   29   2.783   2.847   9.360 -1.7977 -0.5332  0.0746
  725MOL0     H   30   3.448   2.953   9.963  2.1238  0.3996 -3.5862
  725MOL0     H   31   3.663   2.915  10.077 -1.0525  0.5619  0.4533
  725MOL0     H   32   4.000   3.277  10.239 -0.9127 -0.5347  2.9501
  725MOL0     H   33   4.197   3.334  10.378 -0.7739  0.8425 -1.6030
  725MOL0     H   34   5.587   3.477  10.539 -0.8499  1.0546 -1.7624
  725MOL0     H   35   5.712   3.475  10.747 -1.2826  1.6223  0.3097
  725MOL0     H   36   5.915   3.871  11.116  0.9831  0.9468  2.3281
  725MOL0     H   37   6.064   3.863  11.285 -1.2119 -0.7448  1.1949
  725MOL0     H   38   6.161   3.825  11.477 -0.9649  0.5235 -3.4722
  725MOL0     H   39   6.281   3.716  11.534  1.4549  2.0551  0.5558
  725MOL0     H   40   6.431   3.865  11.471  1.8737 -1.6242 -1.4943
  725MOL0     H   41   6.304   3.941  11.363 -2.2082 -0.6187  3.0685
  725MOL0     H   42   6.457   3.696  11.289 -0.6053  1.5959  3.0553
  725MOL0     H   43   6.375   3.789  11.172  0.5679  0.9374 -0.2275
  725MOL0     H   44   6.539   3.978  11.213 -0.2546  1.2358  5.0859
  725MOL0     H   45   6.623   3.831  11.154  1.9143  0.5598  0.3784
  725MOL0     H   46   6.794   3.925  11.538  0.3618  0.4232 -1.1049
  725MOL0     H   47   6.212   3.486  11.177 -1.4488 -1.0317  1.2835
  725MOL0     H   48   6.091   3.429  10.889 -2.1648  2.0274 -1.7806
  725MOL0     H   49   6.052   3.345  11.044  0.0129  1.2187  1.4521
  725MOL0     H   50   5.924   3.406  10.951  0.6865 -0.3078  0.1739
  726MOL0     O   51  10.224   0.086   7.078 -0.5809 -0.5490 -0.3116
  726MOL0     C   52  10.174   0.097   6.969 -0.2769 -1.0269 -0.1524
  726MOL0     O   53  10.223   0.169   6.861 -0.9485  0.1797 -0.1873
  726MOL0     C   54  10.340   0.238   6.880  0.1051  0.2396 -0.2337
  726MOL0     C   55  10.466   0.177   6.915  0.2224 -0.3540  0.5376
  726MOL0     C   56  10.582   0.266   6.928  0.6604  0.8889 -0.0710
  726MOL0     C   57  10.568   0.405   6.907 -0.3419 -0.5678  0.3059
  726MOL0     O   58  10.665   0.503   6.931  0.3682 -0.1132  0.5398
  726MOL0     C   59  10.802   0.453   6.922  0.2366 -0.4957 -0.6719
  726MOL0     C   60  10.908   0.564   6.895 -0.1191 -0.4909 -0.1952
  726MOL0     C   61  10.910   0.635   6.757 -0.1294  0.5457 -1.6534
  726MOL0     C   62  10.952   0.529   6.652 -0.1620 -0.2072 -0.0972
  726MOL0     C   63  11.017   0.589   6.521 -0.0766  0.4467 -0.0899
  726MOL0     C   64  10.952   0.732   6.482  0.1892 -0.4566  0.3970
  726MOL0     C   65  10.999   0.790   6.348  0.1989  0.3558 -0.5950
  726MOL0     C   66  10.986   0.693   6.237  0.7069  0.4853  0.3106
  726MOL0     N   67  11.008   0.754   6.109  0.7953 -0.5200  0.6331
  726MOL0     C   68  11.122   0.822   6.065  0.4817  0.6773  0.5979
  726MOL0     C   69  11.079   0.902   5.964  0.6511 -0.2754 -0.2069
  726MOL0     C   70  11.162   1.002   5.899  0.3865 -0.6632  0.2273
  726MOL0     C   71  11.270   0.956   5.797  0.3244  0.8034 -0.3738
  726MOL0     C   72  11.387   1.057   5.804  0.4610  0.6326 -0.6468
  726MOL0     C   73  11.479   1.070   5.679 -1.1366  0.4065 -0.6585
  726MOL0     O   74  11.571   1.188   5.705 -0.2465  0.7707  0.3538
  726MOL0     C   75  11.683   1.193   5.626  0.4043  0.0481  0.3226
  726MOL0     C   76  11.807   1.217   5.685  0.9374  0.3982 -0.3573
  726MOL0     C   77  11.923   1.233   5.615 -0.2085 -0.3398 -0.7623
  726MOL0     C   78  12.051   1.253   5.687 -0.4863  0.4462  0.1039
  726MOL0     C   79  11.925   1.221   5.475  0.0256 -0.6569 -0.5147
  726MOL0     C   80  12.047   1.236   5.390  0.9775  0.0186  0.7075
  726MOL0     O   81  12.044   1.145   5.290  0.8337  0.6932  0.0498
  726MOL0     C   82  12.123   1.148   5.179  0.0177 -0.0529  0.1555
  726MOL0     C   83  12.075   1.080   5.061  0.2194  0.6656  0.2850
  726MOL0     C   84  12.144   1.078   4.939  0.2927 -0.1560 -0.3570
  726MOL0     C   85  12.258   1.149   4.932  0.3736  0.2309  0.6969
  726MOL0     O   86  12.324   1.149   4.809  0.0301 -1.4131 -0.2072
  726MOL0     C   87  12.374   1.278   4.780  0.2156 -0.7975  0.5355
  726MOL0     C   88  12.413   1.294   4.634 -0.2328 -0.1411  0.7946
  726MOL0     C   89  12.556   1.254   4.611 -1.1475 -0.4913 -0.0073
  726MOL0     C   90  12.617   1.293   4.482  1.2757  0.7024  0.2057
  726MOL0     C   91  12.765   1.270   4.476  0.6858  0.0265  0.4810
  726MOL0     C   92  12.850   1.393   4.521 -0.4038 -0.5734  0.0720
  726MOL0     C   93  12.995   1.349   4.541  1.1364  0.1150  0.1608
  726MOL0     C   94  13.098   1.451   4.606  0.9968 -0.3999 -0.2103
  726MOL0    Cl   95  13.146   1.586   4.489 -0.3042  0.3136  0.1071
  726MOL0     C   96  12.309   1.206   5.051 -1.4027  0.3625  0.4391
  726MOL0     C   97  12.239   1.213   5.164  0.5158  0.4693 -1.0762
  726MOL0     O   98  12.130   1.319   5.413 -0.4292 -0.0516 -0.6694
  726MOL0     C   99  11.803   1.201   5.421 -0.0278  0.0627  0.6974
  726MOL0     C  100  11.681   1.184   5.488 -0.2408  0.3353 -0.4193
  726MOL0     N  101  10.945   0.876   5.944 -0.3454 -0.1259  0.3861
  726MOL0     N  102  10.903   0.796   6.030  1.0190  0.1880  0.6326
  726MOL0     C  103  10.440   0.457   6.894 -0.7858  0.2130  0.6424
  726MOL0     C  104  10.330   0.373   6.875  0.2761 -0.4811  0.6262
  726MOL0     C  105  10.030   0.051   6.954 -0.6157  0.8338 -0.1796
  726MOL0     C  106   9.949   0.118   6.868 -0.1316 -0.6796  0.4736
  726MOL0     C  107   9.813   0.091   6.837 -0.5430 -0.7081 -1.5758
  726MOL0     C  108   9.756  -0.014   6.909 -0.1916  0.9211  0.0124
  726MOL0     O  109   9.634  -0.065   6.870  0.4659  0.6778  0.0877
  726MOL0     C  110   9.553  -0.023   6.757 -0.3064  0.3865  0.4344
  726MOL0     C  111   9.405  -0.047   6.801 -0.0211 -0.1323  0.2036
  726MOL0     C  112   9.304   0.031   6.715  0.2537  0.4600  0.0121
  726MOL0     C  113   9.175   0.068   6.776  1.8013  0.9896  0.6749
  726MOL0     C  114   9.090  -0.049   6.786  0.2936 -0.2693 -0.0281
  726MOL0     C  115   9.017  -0.138   6.799 -0.7829 -0.0186  0.0846
  726MOL0     C  116   9.833  -0.066   7.015  0.1975 -0.3744 -0.9828
  726MOL0     C  117   9.967  -0.039   7.037  0.1744 -0.1184 -0.2221
  726MOL0     C  118  10.035  -0.113   7.148  0.5606 -0.1746 -0.1201
  726MOL0     H  119  10.488   0.071   6.911  0.9336 -0.1868 -0.1954
  726MOL0     H  120  10.684   0.229   6.930  1.1754  1.9848 -2.4868
  726MOL0     H  121  10.809   0.385   6.837 -0.0813  0.7613 -1.7304
  726MOL0     H  122  10.832   0.412   7.018 -2.0785 -0.6575  0.0496
  726MOL0     H  123  10.900   0.647   6.966 -0.4779 -0.0667 -0.7192
  726MOL0     H  124  11.009   0.530   6.922 -0.6020 -1.1417  0.8538
  726MOL0     H  125  10.811   0.676   6.737 -1.5894 -1.2216  1.3423
  726MOL0     H  126  10.985   0.714   6.762  0.3944 -0.0351  1.1482
  726MOL0     H  127  11.020   0.458   6.700 -0.7725 -1.3183 -0.8393
  726MOL0     H  128  10.870   0.465   6.617 -0.0823  1.0519 -2.8979
  726MOL0     H  129  10.992   0.521   6.439 -3.3002 -1.4198  2.2280
  726MOL0     H  130  11.126   0.600   6.532 -0.1986 -0.2113  2.3498
  726MOL0     H  131  10.844   0.724   6.492 -0.2321  1.9046 -1.4102
  726MOL0     H  132  10.982   0.807   6.556  0.3019 -0.0435 -0.0619
  726MOL0     H  133  11.102   0.822   6.367  0.9893 -1.0126 -2.3238
  726MOL0     H  134  10.941   0.880   6.326  1.6375  1.0849 -1.5878
  726MOL0     H  135  11.060   0.613   6.251  0.9238  0.7179  0.4959
  726MOL0     H  136  10.888   0.645   6.244  1.0893 -0.6463 -1.3801
  726MOL0     H  137  11.213   0.827   6.123  1.2997 -2.3441 -0.2379
  726MOL0     H  138  11.229   1.034   5.979  1.6274 -0.2097 -0.9612
  726MOL0     H  139  11.097   1.082   5.861  0.1439 -1.5097 -1.2038
  726MOL0     H  140  11.304   0.856   5.825  2.8125  1.2929 -1.4453
  726MOL0     H  141  11.225   0.949   5.698 -0.5851 -1.3008  0.1203
  726MOL0     H  142  11.341   1.156   5.816 -2.2438 -0.5744 -0.5443
  726MOL0     H  143  11.443   1.037   5.896 -2.4112  0.2551  1.1439
  726MOL0     H  144  11.530   0.973   5.670 -0.8287  0.7557 -3.4186
  726MOL0     H  145  11.419   1.082   5.589 -0.2295 -1.2722 -1.5361
  726MOL0     H  146  11.813   1.213   5.793  0.6909  1.2908 -0.3065
  726MOL0     H  147  12.082   1.351   5.648  0.8052  0.2650  0.6222
  726MOL0     H  148  12.119   1.170   5.667 -0.3556  0.8609 -1.2589
  726MOL0     H  149  12.032   1.257   5.795 -1.2672 -1.6887  0.0961
  726MOL0     H  150  11.975   1.038   5.058  1.2360 -1.9363  0.2623
  726MOL0     H  151  12.099   1.021   4.857  0.1125 -4.3479  2.3533
  726MOL0     H  152  12.294   1.348   4.805  0.6956 -0.4394  1.0979
  726MOL0     H  153  12.464   1.297   4.840  1.0678  2.1726 -1.4450
  726MOL0     H  154  12.338   1.239   4.576  0.9526 -0.9085 -0.0415
  726MOL0     H  155  12.409   1.396   4.595 -0.0802 -0.6731 -0.6712
  726MOL0     H  156  12.586   1.151   4.634  2.2321  0.5857  1.0938
  726MOL0     H  157  12.613   1.316   4.681  0.6515  2.1172 -3.4427
  726MOL0     H  158  12.595   1.399   4.469 -3.6389 -0.2279 -0.8956
  726MOL0     H  159  12.570   1.244   4.397 -0.0607  0.8810  0.8214
  726MOL0     H  160  12.793   1.183   4.535  3.0286  0.7399  0.5620
  726MOL0     H  161  12.790   1.257   4.370 -0.0127 -1.4959  0.4812
  726MOL0     H  162  12.812   1.430   4.617 -1.6431 -0.4161 -0.4628
  726MOL0     H  163  12.829   1.477   4.454 -2.9416  0.8497  2.4394
  726MOL0     H  164  13.033   1.295   4.454 -1.0608 -2.3067  0.5883
  726MOL0     H  165  12.992   1.263   4.609  0.7280 -0.4401 -0.5470
  726MOL0     H  166  13.186   1.399   4.645  2.2276  2.6537  1.3728
  726MOL0     H  167  13.053   1.501   4.692  0.5079 -1.2628  0.0557
  726MOL0     H  168  12.403   1.259   5.041 -0.8530 -0.4448  1.1679
  726MOL0     H  169  12.289   1.267   5.243 -0.3537 -0.8163  0.4010
  726MOL0     H  170  11.806   1.221   5.314  1.8505  1.2463  0.9241
  726MOL0     H  171  11.593   1.194   5.425  1.0492 -1.2497 -2.6256
  726MOL0     H  172  10.420   0.564   6.900  1.5379  0.6373  2.4232
  726MOL0     H  173  10.235   0.422   6.854 -0.1931 -0.5658  2.3853
  726MOL0     H  174   9.991   0.193   6.802 -2.1383  2.3169  2.3692
  726MOL0     H  175   9.769   0.156   6.763  1.1951  3.4725  0.7610
  726MOL0     H  176   9.551   0.085   6.739 -2.5285  0.7093  2.2157
  726MOL0     H  177   9.573  -0.085   6.669 -2.9456  1.6511 -1.1983
  726MOL0     H  178   9.398  -0.023   6.908  0.4530  0.9575  0.0019
  726MOL0     H  179   9.387  -0.155   6.805 -2.1330  0.1765  0.2322
  726MOL0     H  180   9.349   0.126   6.683 -1.1560  1.1718  0.0623
  726MOL0     H  181   9.296  -0.037   6.630  3.3399  0.1813 -0.1602
  726MOL0     H  182   9.112   0.130   6.711  0.4122 -0.2791  0.7803
  726MOL0     H  183   9.194   0.111   6.875  0.2244  2.0007  0.5791
  726MOL0     H  184   8.967  -0.233   6.794  2.2992 -1.7714 -0.1294
  726MOL0     H  185   9.787  -0.140   7.081 -1.0443  1.9878  0.9437
  726MOL0     H  186  10.130  -0.149   7.108  0.8756 -0.5819  0.9721
  726MOL0     H  187  10.057  -0.048   7.233 -3.4205  2.9777 -1.2132
  726MOL0     H  188   9.975  -0.200   7.176 -0.5209 -0.8300 -3.9661
  727MOL0     O  189   1.020  11.162   8.776  0.8130 -0.3437  0.5859
  727MOL0     C  190   1.072  11.077   8.852  0.2907 -0.2863 -0.8078
  727MOL0     O  191   1.188  11.097   8.916 -0.2677 -0.1368 -0.4664
  727MOL0     C  192   1.282  11.185   8.882  0.6031  0.1766 -0.4942
  727MOL0     C  193   1.329  11.271   8.981 -0.3056 -0.7420  0.5995
  727MOL0     C  194   1.442  11.345   8.961 -0.5291 -1.0723 -0.1197
  727MOL0     C  195   1.513  11.338   8.847  0.0157 -0.1203 -0.7324
  727MOL0     O  196   1.629  11.412   8.821  0.7880 -0.2488 -0.1580
  727MOL0     C  197   1.746  11.341   8.769 -0.6377 -0.2149  0.1496
  727MOL0     C  198   1.856  11.456   8.764  0.6620  0.1664 -0.7619
  727MOL0     C  199   1.930  11.478   8.902  0.1238 -0.2025  0.0954
  727MOL0     C  200   2.040  11.584   8.899  0.3990 -0.1327  0.4239
  727MOL0     C  201   2.082  11.617   9.034  0.3096 -0.2153  0.5346
  727MOL0     C  202   2.200  11.721   9.020  0.5174 -0.3540 -0.2362
  727MOL0     C  203   2.247  11.777   9.152 -0.4404 -0.9698 -0.0118
  727MOL0     C  204   2.370  11.714   9.213  0.0760 -0.1214 -0.2155
  727MOL0     N  205   2.343  11.590   9.294 -0.6174  0.5088 -0.4262
  727MOL0     C  206   2.384  11.464   9.250 -0.3297  0.2186 -0.2673
  727MOL0     C  207   2.384  11.388   9.369  1.3266  0.5889  0.2193
  727MOL0     C  208   2.419  11.244   9.386  0.1264 -0.9677  0.5565
  727MOL0     C  209   2.465  11.204   9.527  0.1036  0.5476  0.0078
  727MOL0     C  210   2.599  11.247   9.575 -0.4502  0.0558 -0.0053
  727MOL0     C  211   2.620  11.208   9.725 -0.4583  0.7849 -1.2045
  727MOL0     O  212   2.592  11.073   9.761  0.2519 -0.0887 -0.3882
  727MOL0     C  213   2.676  10.979   9.714 -0.2148  0.3937  0.1261
  727MOL0     C  214   2.606  10.864   9.679  0.0115 -0.9681 -0.8921
  727MOL0     C  215   2.669  10.748   9.641  2.1045  0.7042 -0.4377
  727MOL0     C  216   2.588  10.633   9.607  0.3362  0.3796 -0.0043
  727MOL0     C  217   2.806  10.747   9.637 -0.9013  1.6664  0.2109
  727MOL0     C  218   2.884  10.629   9.624  0.5045 -0.6555  0.1977
  727MOL0     O  219   2.863  10.525   9.705 -0.1714 -0.0394  0.2126
  727MOL0     C  220   2.930  10.411   9.674 -0.1563  0.9518 -0.0599
  727MOL0     C  221   3.070  10.414   9.671  0.3318 -0.6129 -1.1142
  727MOL0     C  222   3.144  10.307   9.656  0.6368  0.0471  1.3651
  727MOL0     C  223   3.089  10.181   9.657  0.5661  0.5843  0.6533
  727MOL0     O  224   3.160  10.058   9.632  0.3822  0.0540 -0.7424
  727MOL0     C  225   3.302  10.059   9.635 -0.5983  0.2209 -0.0707
  727MOL0     C  226   3.369  10.049   9.494  0.6605  0.2635 -0.0775
  727MOL0     C  227   3.517  10.038   9.502  0.3649 -0.6768  0.3391
  727MOL0     C  228   3.593  10.095   9.375  0.2504 -0.0833  0.3586
  727MOL0     C  229   3.731  10.040   9.364 -0.2930  0.3425  0.5505
  727MOL0     C  230   3.800  10.092   9.243 -0.6598  1.0756  0.3803
  727MOL0     C  231   3.911   9.988   9.223  0.4227  0.1928  0.7837
  727MOL0     C  232   4.007  10.028   9.108  0.8390 -0.5693  0.1522
  727MOL0    Cl  233   4.091  10.184   9.165 -0.2736  0.3755  0.2599
  727MOL0     C  234   2.946  10.171   9.668 -0.0661 -0.5602 -0.0851
  727MOL0     C  235   2.861  10.286   9.670 -0.4526 -0.4332  0.4507
  727MOL0     O  236   2.971  10.646   9.539 -0.4768  0.8864 -0.5547
  727MOL0     C  237   2.881  10.863   9.660 -0.2611  0.3194 -1.3124
  727MOL0     C  238   2.817  10.978   9.703  0.0601  0.2996  0.0800
  727MOL0     N  239   2.346  11.464   9.482 -0.0255  0.4865 -0.1081
  727MOL0     N  240   2.308  11.580   9.434  0.4065 -0.1366 -0.2628
  727MOL0     C  241   1.465  11.253   8.751 -0.6052  0.2162 -0.3091
  727MOL0     C  242   1.350  11.174   8.764  0.2351 -1.1204 -1.1395
  727MOL0     C  243   1.013  10.948   8.869  0.6327 -0.0856  0.2323
  727MOL0     C  244   1.084  10.854   8.951  0.1052  0.1975  0.1377
  727MOL0     C  245   1.022  10.732   8.984 -0.8733 -1.7046  0.7532
  727MOL0     C  246   0.898  10.698   8.930 -0.0367  0.2801 -0.1257
  727MOL0     O  247   0.837  10.575   8.939 -0.2043  0.0688  0.3519
  727MOL0     C  248   0.911  10.456   8.985  0.3681 -0.2157 -0.4018
  727MOL0     C  249   0.944  10.370   8.858  1.0883 -0.4226  1.0283
  727MOL0     C  250   1.090  10.371   8.817  0.3567  0.2296 -0.3099
  727MOL0     C  251   1.199  10.338   8.932  0.5437  0.2625  0.6220
  727MOL0     C  252   1.307  10.272   8.864  0.3612  0.2300  0.6317
  727MOL0     C  253   1.388  10.214   8.795  0.8662  0.6625 -0.3212
  727MOL0     C  254   0.830  10.795   8.860  0.1223  0.6734 -0.1423
  727MOL0     C  255   0.877  10.917   8.829 -0.2086  0.4747  0.8773
  727MOL0     C  256   0.778  11.009   8.751 -0.2407 -0.0181 -0.2711
  727MOL0     H  257   1.276  11.283   9.075 -1.9070  0.0952 -0.3641
  727MOL0     H  258   1.468  11.425   9.031 -1.9769 -1.0029  0.3597
  727MOL0     H  259   1.733  11.305   8.666 -2.3743  1.1160 -0.1352
  727MOL0     H  260   1.763  11.254   8.833  0.5975  0.2712  0.5057
  727MOL0     H  261   1.936  11.427   8.696  0.9705  0.5412 -0.5634
  727MOL0     H  262   1.802  11.544   8.727 -0.0861 -0.4083 -1.0706
  727MOL0     H  263   1.855  11.503   8.979 -0.8283  1.3739 -1.2548
  727MOL0     H  264   1.972  11.380   8.923 -2.2504 -1.3451 -0.0798
  727MOL0     H  265   2.113  11.545   8.828 -1.5271 -2.7529 -0.2766
  727MOL0     H  266   1.991  11.676   8.865  2.1868  0.7172  0.0472
  727MOL0     H  267   2.114  11.532   9.094  0.1477  0.7837  2.0989
  727MOL0     H  268   2.004  11.672   9.088 -0.5634 -2.0276  1.1760
  727MOL0     H  269   2.281  11.673   8.964 -1.2279 -0.7857 -2.5764
  727MOL0     H  270   2.163  11.811   8.968  1.4421  1.3024  1.8116
  727MOL0     H  271   2.161  11.807   9.212 -2.7293 -1.7494 -2.7435
  727MOL0     H  272   2.293  11.874   9.131 -1.6568 -0.2320  0.6470
  727MOL0     H  273   2.442  11.693   9.134  1.8177 -0.1858  1.3248
  727MOL0     H  274   2.413  11.794   9.274  0.1469  1.2178 -1.9663
  727MOL0     H  275   2.411  11.440   9.148 -0.2835  0.4948 -0.3200
  727MOL0     H  276   2.491  11.208   9.311 -0.7246 -0.5268 -0.5114
  727MOL0     H  277   2.336  11.176   9.366 -0.2941 -0.0239 -1.1723
  727MOL0     H  278   2.393  11.242   9.600 -2.0346 -1.2016 -1.0671
  727MOL0     H  279   2.446  11.097   9.531  0.6353  0.4876  1.0732
  727MOL0     H  280   2.688  11.219   9.518 -0.7671  0.2941 -0.6254
  727MOL0     H  281   2.604  11.356   9.571 -3.4603  0.4046  2.1675
  727MOL0     H  282   2.721  11.243   9.751 -0.5966 -0.0683  0.5994
  727MOL0     H  283   2.554  11.268   9.788 -1.1443 -2.2898  1.2473
  727MOL0     H  284   2.501  10.882   9.699  0.0056 -0.3501 -1.4320
  727MOL0     H  285   2.546  10.591   9.699  2.6029  0.3984  1.0968
  727MOL0     H  286   2.645  10.554   9.558 -1.8785 -1.5657  0.3810
  727MOL0     H  287   2.506  10.667   9.543 -1.1126 -3.0057 -0.1539
  727MOL0     H  288   3.131  10.503   9.673  1.1706 -1.2024  0.2029
  727MOL0     H  289   3.252  10.320   9.653  0.6013  0.4780  1.8667
  727MOL0     H  290   3.348  10.147   9.682 -1.2554  1.2988 -1.3938
  727MOL0     H  291   3.334   9.968   9.687 -0.5296  1.1297  1.5558
  727MOL0     H  292   3.330   9.964   9.437  1.4774 -0.0084 -0.2439
  727MOL0     H  293   3.347  10.145   9.445 -0.3147  2.8399  4.7848
  727MOL0     H  294   3.539   9.932   9.520 -1.9829 -0.9583  1.8802
  727MOL0     H  295   3.556  10.092   9.588 -3.4115  1.1303  1.1049
  727MOL0     H  296   3.595  10.204   9.375  2.5377 -0.0514 -1.3509
  727MOL0     H  297   3.542  10.052   9.288  0.9061 -1.4304  0.6164
  727MOL0     H  298   3.786  10.073   9.453 -0.1232  2.2347 -0.1902
  727MOL0     H  299   3.723   9.931   9.364 -0.8233  0.2947 -2.6141
  727MOL0     H  300   3.850  10.189   9.244  2.5969 -0.3993 -1.4545
  727MOL0     H  301   3.728  10.101   9.161 -2.5830 -0.3663  1.8132
  727MOL0     H  302   3.866   9.891   9.202 -2.8840  1.7376  0.0115
  727MOL0     H  303   3.975   9.985   9.313  1.3940  4.7665  0.5187
  727MOL0     H  304   3.960  10.045   9.011  1.9319 -1.2818 -0.5295
  727MOL0     H  305   4.068   9.940   9.085 -0.8220 -2.2950  1.9137
  727MOL0     H  306   2.893  10.077   9.670 -1.5935  0.1938 -2.0635
  727MOL0     H  307   2.753  10.279   9.678 -0.4835  0.7930  1.4498
  727MOL0     H  308   2.988  10.856   9.647  0.3411  0.4180  2.3347
  727MOL0     H  309   2.871  11.068   9.732  2.0524 -1.2313  1.4092
  727MOL0     H  310   1.519  11.248   8.657 -1.7580  0.3450 -0.9976
  727MOL0     H  311   1.322  11.107   8.684 -0.9858 -2.2897  0.2345
  727MOL0     H  312   1.186  10.858   8.988 -0.0043  0.2997  0.4263
  727MOL0     H  313   1.087  10.659   9.032 -0.8112 -2.0750  0.1178
  727MOL0     H  314   1.001  10.484   9.040  0.2761 -0.1127 -0.3032
  727MOL0     H  315   0.857  10.395   9.058  0.6983 -1.0747 -0.8615
  727MOL0     H  316   0.883  10.406   8.775  2.2270  0.4693  0.5533
  727MOL0     H  317   0.916  10.267   8.885  0.6808 -1.1483 -1.8344
  727MOL0     H  318   1.093  10.301   8.733 -3.1945 -1.3432  0.6919
  727MOL0     H  319   1.102  10.474   8.781 -1.6064  0.6456  0.1204
  727MOL0     H  320   1.174  10.265   9.009  0.6749  2.2600  2.6560
  727MOL0     H  321   1.236  10.428   8.982  1.3477 -0.4266  1.2887
  727MOL0     H  322   1.452  10.154   8.734  0.2047  0.2348 -0.6099
  727MOL0     H  323   0.724  10.780   8.841 -0.0542 -2.1158  2.2608
  727MOL0     H  324   0.803  11.042   8.650 -1.8910 -1.3262 -1.1477
  727MOL0     H  325   0.674  10.975   8.755 -0.4701  0.7454  2.1485
  727MOL0     H  326   0.781  11.106   8.803 -0.9772  0.6847 -1.4940
  728MOL0     O  327   1.893   2.576   5.427 -0.1999  0.2654  0.1440
  728MOL0     C  328   2.001   2.555   5.480  0.3711  1.3788 -0.2963
  728MOL0     O  329   2.115   2.608   5.442 -0.0625 -0.6291  0.1695
  728MOL0     C  330   2.128   2.718   5.360 -0.4425  0.0141  0.1856
  728MOL0     C  331   2.248   2.745   5.299 -0.1749 -0.7757 -0.6298
  728MOL0     C  332   2.281   2.866   5.232 -0.2774 -0.0402 -0.1645
  728MOL0     C  333   2.185   2.961   5.218 -0.1532 -1.3758  0.7191
  728MOL0     O  334   2.212   3.078   5.147  0.2920  0.0001  0.2243
  728MOL0     C  335   2.171   3.063   5.011 -0.6351  0.1786 -0.2355
  728MOL0     C  336   2.179   3.201   4.953 -0.0495  0.1324  0.2216
  728MOL0     C  337   2.326   3.245   4.914 -0.4384  0.6238  0.7872
  728MOL0     C  338   2.385   3.342   5.023  0.1673  0.7234  0.6066
  728MOL0     C  339   2.529   3.371   4.996  0.4815 -0.2919 -0.1046
  728MOL0     C  340   2.589   3.431   5.118  0.1532 -0.5481  0.4920
  728MOL0     C  341   2.733   3.461   5.100  0.2640  0.9040  0.1647
  728MOL0     C  342   2.806   3.529   5.209 -0.4778 -1.0226  0.8142
  728MOL0     N  343   2.787   3.679   5.188  0.1430  0.0205  1.4562
  728MOL0     C  344   2.667   3.756   5.183 -0.2075  0.0048 -0.8424
  728MOL0     C  345   2.723   3.883   5.155 -0.3112  0.6219 -0.2756
  728MOL0     C  346   2.637   3.998   5.123  0.0363  0.1219  0.9648
  728MOL0     C  347   2.701   4.122   5.164 -0.2920  0.0448 -0.2409
  728MOL0     C  348   2.820   4.174   5.084 -0.4302  0.2172 -0.1504
  728MOL0     C  349   2.856   4.314   5.130  0.4981 -0.0433  0.6835
  728MOL0     O  350   2.884   4.408   5.018 -0.0016 -0.8472  0.6823
  728MOL0     C  351   2.892   4.534   5.071 -1.8268  0.0573 -0.4256
  728MOL0     C  352   2.933   4.563   5.209  1.0655 -0.8237  0.0119
  728MOL0     C  353   2.921   4.694   5.263  0.0198  0.3112  0.1823
  728MOL0     C  354   2.974   4.724   5.402  0.0469 -0.1189  0.6786
  728MOL0     C  355   2.895   4.805   5.182 -0.3272 -0.4185  0.1896
  728MOL0     C  356   2.890   4.939   5.227  0.0401 -0.0088  0.5254
  728MOL0     O  357   2.990   5.026   5.177  0.5826  0.8021  0.7040
  728MOL0     C  358   2.991   5.152   5.217  0.3258 -0.2333  0.9011
  728MOL0     C  359   3.117   5.208   5.240 -0.1262  0.8622 -0.1037
  728MOL0     C  360   3.125   5.348   5.276  0.0513  0.5094 -0.2641
  728MOL0     C  361   3.010   5.423   5.281 -0.0630  0.0020 -0.5027
  728MOL0     O  362   3.016   5.557   5.314  0.5118  0.1438 -0.1449
  728MOL0     C  363   2.906   5.644   5.302  0.6356  0.5467 -0.4567
  728MOL0     C  364   2.948   5.794   5.275 -0.6581  0.1774 -0.3067
  728MOL0     C  365   3.083   5.841   5.338  0.1482 -0.2524 -0.3075
  728MOL0     C  366   3.111   5.987   5.340  0.6432 -0.4182  0.0991
  728MOL0     C  367   3.244   6.043   5.382  0.2184  0.9410  0.6936
  728MOL0     C  368   3.258   6.049   5.537 -0.0640  0.1466  0.2101
  728MOL0     C  369   3.247   6.190   5.591 -0.4630  0.2903  1.0029
  728MOL0     C  370   3.289   6.196   5.734  0.2311  0.2300  0.2837
  728MOL0    Cl  371   3.459   6.154   5.769  0.1525 -0.3075 -0.2795
  728MOL0     C  372   2.882   5.370   5.248  0.2197  0.2273  0.5803
  728MOL0     C  373   2.873   5.229   5.226  0.3205  0.2140  0.5576
  728MOL0     O  374   2.803   4.971   5.312 -0.5353 -0.6655  0.1904
  728MOL0     C  375   2.878   4.781   5.043 -0.1844  0.1657  0.6051
  728MOL0     C  376   2.872   4.649   4.993  0.6185 -0.5222 -0.2075
  728MOL0     N  377   2.862   3.872   5.145 -0.3708  0.0540 -0.4372
  728MOL0     N  378   2.889   3.753   5.150 -0.5132 -0.1872  0.4036
  728MOL0     C  379   2.050   2.931   5.254 -0.2774  0.7172 -0.3579
  728MOL0     C  380   2.024   2.813   5.332  0.2052 -0.4345  0.7488
  728MOL0     C  381   2.002   2.471   5.609 -0.0610 -0.8793 -0.6155
  728MOL0     C  382   2.131   2.462   5.673 -0.3930  0.0661  0.1600
  728MOL0     C  383   2.139   2.392   5.792 -0.6613 -0.4214 -0.6686
  728MOL0     C  384   2.028   2.325   5.842 -0.3188  0.4425 -0.3000
  728MOL0     O  385   2.032   2.261   5.968  0.3636  0.8640 -0.0736
  728MOL0     C  386   1.983   2.338   6.081  0.0928  0.5247 -0.2448
  728MOL0     C  387   1.834   2.365   6.101 -0.1851  0.4830  0.5705
  728MOL0     C  388   1.750   2.244   6.133 -0.3169 -1.3350 -0.1082
  728MOL0     C  389   1.596   2.264   6.162 -0.2463 -0.5169  0.4098
  728MOL0     C  390   1.567   2.259   6.306 -1.0507 -0.7990  0.3261
  728MOL0     C  391   1.544   2.256   6.426  0.2893  0.1300  0.0191
  728MOL0     C  392   1.900   2.334   5.781 -0.1569 -0.1590  0.2357
  728MOL0     C  393   1.896   2.395   5.656  0.8364 -0.1310 -0.0929
  728MOL0     C  394   1.765   2.362   5.585  0.2622  0.2444 -0.0908
  728MOL0     H  395   2.322   2.667   5.313  0.0804 -0.6950 -1.5074
  728MOL0     H  396   2.387   2.879   5.212  0.2486 -2.2529  0.8082
  728MOL0     H  397   2.072   3.016   5.007 -1.6889  1.9363  2.2595
  728MOL0     H  398   2.245   2.996   4.966  1.4118  0.9262  1.8071
  728MOL0     H  399   2.133   3.204   4.854  1.6659 -0.4798 -0.6507
  728MOL0     H  400   2.130   3.276   5.015 -0.7869  3.2619 -3.7203
  728MOL0     H  401   2.383   3.152   4.908  1.6908  1.9204 -0.5572
  728MOL0     H  402   2.327   3.283   4.812 -0.1013  0.8851  0.8866
  728MOL0     H  403   2.332   3.438   5.017 -2.8215 -0.9104 -2.0961
  728MOL0     H  404   2.369   3.309   5.126 -0.7155  1.5524  0.7484
  728MOL0     H  405   2.533   3.438   4.910  1.2862 -1.1439 -0.7545
  728MOL0     H  406   2.582   3.279   4.969 -0.5919 -0.3324 -2.3188
  728MOL0     H  407   2.528   3.521   5.134  1.4208  0.1284  1.6509
  728MOL0     H  408   2.579   3.353   5.194  0.0050 -1.5312 -0.5186
  728MOL0     H  409   2.746   3.516   5.006  2.2198  0.5652  0.2070
  728MOL0     H  410   2.775   3.366   5.066 -1.4895  0.6073 -1.3119
  728MOL0     H  411   2.771   3.514   5.312  1.9926  0.6714  2.0205
  728MOL0     H  412   2.914   3.519   5.225 -0.0183 -0.5840 -1.6315
  728MOL0     H  413   2.561   3.734   5.186 -0.6239  1.9217  0.3395
  728MOL0     H  414   2.536   3.985   5.163  0.5704  1.9517  3.1888
  728MOL0     H  415   2.639   4.013   5.015  0.9458 -1.6062  0.7159
  728MOL0     H  416   2.627   4.203   5.156 -0.0696  0.2047 -0.7062
  728MOL0     H  417   2.726   4.099   5.268  1.1004 -0.1292 -0.5945
  728MOL0     H  418   2.912   4.121   5.108 -0.1803  0.8400  0.3159
  728MOL0     H  419   2.811   4.169   4.976  0.4336  0.4508 -0.2422
  728MOL0     H  420   2.780   4.360   5.193  1.4053  1.7232  0.5606
  728MOL0     H  421   2.941   4.301   5.199 -0.9328 -0.3747  2.4498
  728MOL0     H  422   2.955   4.485   5.282  2.1312  0.1305  0.7460
  728MOL0     H  423   2.902   4.774   5.467 -0.4210  0.7107 -0.4374
  728MOL0     H  424   3.061   4.789   5.409 -0.0696  0.3251 -1.4007
  728MOL0     H  425   2.997   4.629   5.450 -0.7796 -1.6435 -1.7179
  728MOL0     H  426   3.205   5.145   5.246 -0.2330  0.8197  1.6604
  728MOL0     H  427   3.225   5.387   5.288  1.0444 -1.9834  0.2389
  728MOL0     H  428   2.850   5.626   5.210  0.4304 -0.1944 -0.1909
  728MOL0     H  429   2.836   5.636   5.385  0.3560  0.5469 -0.6928
  728MOL0     H  430   2.952   5.815   5.168 -4.7358  0.3051 -0.5924
  728MOL0     H  431   2.869   5.856   5.319 -0.7755 -0.4779  0.4255
  728MOL0     H  432   3.168   5.784   5.299 -0.0952 -0.2087 -0.9108
  728MOL0     H  433   3.083   5.803   5.440 -1.1158 -2.4647 -1.0772
  728MOL0     H  434   3.031   6.025   5.403  2.2416 -0.9981  2.6251
  728MOL0     H  435   3.101   6.022   5.237  1.7831 -1.1851 -0.2960
  728MOL0     H  436   3.320   5.974   5.344 -0.6863  0.1140  0.3388
  728MOL0     H  437   3.262   6.140   5.335  2.3596  1.1396  1.8214
  728MOL0     H  438   3.362   6.022   5.560  0.5953  0.3948 -2.1405
  728MOL0     H  439   3.180   5.982   5.574  0.3102  0.2245  1.1625
  728MOL0     H  440   3.145   6.229   5.589 -0.8408 -0.6586 -1.1284
  728MOL0     H  441   3.315   6.258   5.538 -2.3725  1.5503  0.0654
  728MOL0     H  442   3.230   6.126   5.793  2.0955  2.9805  6.1263
  728MOL0     H  443   3.257   6.290   5.779  3.4269  1.7672 -0.3712
  728MOL0     H  444   2.781   5.409   5.249  0.2321  0.3093  2.5283
  728MOL0     H  445   2.774   5.186   5.216  0.5850 -0.3006  0.0758
  728MOL0     H  446   2.865   4.870   4.981 -1.5685 -0.5565 -0.1887
  728MOL0     H  447   2.859   4.628   4.887  2.0253 -1.9554 -0.1403
  728MOL0     H  448   1.977   3.009   5.234 -1.4197  0.3809  2.0828
  728MOL0     H  449   1.922   2.811   5.368 -0.4167 -0.3489 -0.8851
  728MOL0     H  450   2.220   2.497   5.622 -0.6885 -1.2647 -1.3440
  728MOL0     H  451   2.238   2.372   5.833  0.3802  1.6758 -1.9909
  728MOL0     H  452   2.018   2.290   6.173 -1.9624  4.2508  2.7895
  728MOL0     H  453   2.033   2.434   6.070 -0.4161  0.6732 -1.4490
  728MOL0     H  454   1.799   2.417   6.011 -0.0757 -0.6499 -0.1502
  728MOL0     H  455   1.820   2.438   6.181 -2.6842  3.2991 -2.1424
  728MOL0     H  456   1.754   2.193   6.036 -0.2903 -1.1465 -0.2068
  728MOL0     H  457   1.794   2.175   6.205  0.8797  0.3800  0.8630
  728MOL0     H  458   1.536   2.184   6.119 -0.3569  0.2078 -0.8244
  728MOL0     H  459   1.556   2.356   6.119  1.0256 -1.0113 -2.0195
  728MOL0     H  460   1.538   2.242   6.533 -1.6921  3.0749  0.4244
  728MOL0     H  461   1.813   2.296   5.833  0.1141 -2.4804 -0.8788
  728MOL0     H  462   1.777   2.305   5.492  0.8907  1.5466 -0.8327
  728MOL0     H  463   1.696   2.316   5.657  1.3426 -0.7100  0.3630
  728MOL0     H  464   1.714   2.456   5.562  0.8526  0.1139 -2.0729
  729MOL0     O  465   5.006   4.341   2.657  0.4230 -0.3899  0.3489
  729MOL0     C  466   4.890   4.295   2.676 -0.0120  0.4046 -0.4474
  729MOL0     O  467   4.777   4.364   2.716 -0.0339 -0.5793 -0.1986
  729MOL0     C  468   4.784   4.506   2.737  0.0231 -0.2460 -0.1424
  729MOL0     C  469   4.884   4.601   2.694  0.4981  0.1553  0.3624
  729MOL0     C  470   4.866   4.738   2.732  0.0142  0.3107  0.0556
  729MOL0     C  471   4.761   4.784   2.812 -0.4442  0.4304 -0.5960
  729MOL0     O  472   4.773   4.912   2.862 -0.5144  0.0742  0.0864
  729MOL0     C  473   4.713   4.943   2.990  0.2181 -0.0820  0.4567
  729MOL0     C  474   4.763   5.083   3.054 -0.3461  1.2352  0.5196
  729MOL0     C  475   4.708   5.195   2.957 -0.5346  0.1995 -0.7899
  729MOL0     C  476   4.725   5.332   3.020  0.3359  0.2063 -0.5341
  729MOL0     C  477   4.861   5.383   3.067  1.0274  0.3549  0.0458
  729MOL0     C  478   4.976   5.364   2.973  0.3140  0.4628  0.0522
  729MOL0     C  479   4.973   5.459   2.863 -0.2633 -0.3813  1.1856
  729MOL0     C  480   4.967   5.606   2.909 -0.8394 -0.2151 -0.3170
  729MOL0     N  481   5.026   5.697   2.804  0.2257  0.4491  0.4173
  729MOL0     C  482   5.154   5.690   2.764 -0.1827  0.4898 -0.1393
  729MOL0     C  483   5.155   5.750   2.638  0.3199 -1.5177 -1.4684
  729MOL0     C  484   5.267   5.764   2.547 -0.5765 -0.6755  0.6060
  729MOL0     C  485   5.294   5.634   2.471 -0.2945  0.1526 -0.4664
  729MOL0     C  486   5.393   5.637   2.349  0.2673  0.8178 -0.6875
  729MOL0     C  487   5.443   5.502   2.295 -0.6897 -1.4385  0.3133
  729MOL0     O  488   5.521   5.437   2.396  0.3583 -0.3471  0.3440
  729MOL0     C  489   5.661   5.424   2.385  1.0668  0.4818 -0.2160
  729MOL0     C  490   5.741   5.484   2.288  0.0223 -0.0466  0.1848
  729MOL0     C  491   5.868   5.435   2.255 -0.0714  0.0246 -0.1688
  729MOL0     C  492   5.941   5.511   2.156  0.5822  0.3134 -0.0140
  729MOL0     C  493   5.926   5.327   2.333  1.5256  0.4485  0.9011
  729MOL0     C  494   6.061   5.285   2.348 -0.3668 -0.1838  0.5319
  729MOL0     O  495   6.094   5.175   2.421  0.7566 -0.5979  0.3812
  729MOL0     C  496   6.219   5.124   2.408 -0.8231 -0.6836  0.0874
  729MOL0     C  497   6.240   4.988   2.389 -0.1390  0.7421  0.0957
  729MOL0     C  498   6.372   4.936   2.378 -0.3089 -0.2862 -0.0441
  729MOL0     C  499   6.487   5.020   2.378  0.8817 -0.4041 -0.5989
  729MOL0     O  500   6.608   4.962   2.347 -0.1080  0.6062  0.7429
  729MOL0     C  501   6.726   5.046   2.326 -0.1388 -0.6787 -0.1517
  729MOL0     C  502   6.849   4.961   2.292  0.4783  0.3962  0.1891
  729MOL0     C  503   6.837   4.896   2.151 -0.1776 -0.2562  0.1844
  729MOL0     C  504   6.962   4.837   2.106 -0.4207  1.0372  1.2412
  729MOL0     C  505   6.951   4.744   1.986  0.1798 -0.1000  0.5585
  729MOL0     C  506   6.930   4.807   1.851  0.4112 -0.0926 -0.2845
  729MOL0     C  507   7.038   4.908   1.800  0.0236 -0.3259 -0.1163
  729MOL0     C  508   7.175   4.851   1.813 -0.3632 -0.1740  0.0662
  729MOL0    Cl  509   7.197   4.691   1.733 -0.1952  0.0143  0.4576
  729MOL0     C  510   6.465   5.161   2.384  0.7694 -1.0134  0.1314
  729MOL0     C  511   6.343   5.202   2.412  1.3227 -0.6002  0.2667
  729MOL0     O  512   6.142   5.328   2.272  0.0558 -0.4110  0.0712
  729MOL0     C  513   5.842   5.267   2.426  0.1406 -0.5269 -0.5013
  729MOL0     C  514   5.711   5.319   2.449 -0.7050  0.0175  0.5399
  729MOL0     N  515   5.021   5.800   2.628 -0.6248 -0.2173  1.0832
  729MOL0     N  516   4.942   5.767   2.723  0.3735  0.1431 -0.7103
  729MOL0     C  517   4.662   4.696   2.846  0.0332  0.5018 -0.2508
  729MOL0     C  518   4.679   4.564   2.818 -0.4714 -0.5158 -0.1437
  729MOL0     C  519   4.872   4.147   2.657  0.4601  0.1445  0.0545
  729MOL0     C  520   4.739   4.107   2.640 -0.3953 -0.5041  0.8382
  729MOL0     C  521   4.722   3.973   2.607  0.1674  0.4852  0.2245
  729MOL0     C  522   4.827   3.883   2.605 -0.9815  0.1557 -1.1018
  729MOL0     O  523   4.808   3.751   2.574 -0.6046  0.1253 -0.4295
  729MOL0     C  524   4.799   3.725   2.436 -0.5255 -0.7647 -0.3685
  729MOL0     C  525   4.897   3.629   2.390 -0.4452  0.2339 -0.3549
  729MOL0     C  526   4.866   3.578   2.255  0.6545  0.9468 -0.5401
  729MOL0     C  527   4.905   3.668   2.133 -0.6373 -0.9593 -0.5004
  729MOL0     C  528   5.048   3.698   2.125  0.7709 -0.4032 -0.2788
  729MOL0     C  529   5.166   3.718   2.122  0.1857 -0.0487  0.3548
  729MOL0     C  530   4.957   3.922   2.625 -0.2229  0.3440  0.2841
  729MOL0     C  531   4.979   4.055   2.647  0.5703  0.2533 -0.7448
  729MOL0     C  532   5.129   4.084   2.671  0.1006  0.5729 -0.9851
  729MOL0     H  533   4.961   4.577   2.621  1.0469  0.6002  0.7862
  729MOL0     H  534   4.937   4.811   2.695 -2.8786  2.4347 -1.7253
  729MOL0     H  535   4.736   4.861   3.059  1.8826  0.7223  0.8841
  729MOL0     H  536   4.603   4.936   2.987  0.2446 -1.0680  1.1822
  729MOL0     H  537   4.722   5.092   3.155 -2.2496 -0.4619 -0.0200
  729MOL0     H  538   4.871   5.097   3.048 -0.1061 -0.6762 -0.6758
  729MOL0     H  539   4.760   5.183   2.861 -0.1587 -1.4167 -0.4161
  729MOL0     H  540   4.602   5.179   2.936 -0.5011 -1.0032 -0.1413
  729MOL0     H  541   4.672   5.403   2.956 -0.7451  0.5279  0.6750
  729MOL0     H  542   4.659   5.341   3.106 -0.6488  1.7074 -1.4183
  729MOL0     H  543   4.892   5.345   3.165  3.3441  3.3830  0.6479
  729MOL0     H  544   4.848   5.491   3.077  0.7647  0.3963 -0.6844
  729MOL0     H  545   5.063   5.368   3.040  0.9792 -3.0120 -0.4485
  729MOL0     H  546   4.978   5.264   2.929 -1.1557  1.3068 -2.0945
  729MOL0     H  547   4.893   5.437   2.793 -0.1771 -0.4773  1.1171
  729MOL0     H  548   5.061   5.437   2.802  0.9308 -2.4768  3.4637
  729MOL0     H  549   4.860   5.621   2.926 -0.9251 -0.6397 -0.4553
  729MOL0     H  550   5.025   5.614   3.001 -2.2696 -0.7276  0.6790
  729MOL0     H  551   5.240   5.634   2.799 -0.3513  2.1252  3.3246
  729MOL0     H  552   5.353   5.805   2.600 -2.5373  0.3591  3.2609
  729MOL0     H  553   5.246   5.846   2.478  0.2663 -0.0342  1.0973
  729MOL0     H  554   5.345   5.570   2.544 -0.4173  0.3434 -0.2117
  729MOL0     H  555   5.200   5.582   2.448 -1.3730  1.0489  1.6266
  729MOL0     H  556   5.344   5.675   2.259  0.8032  0.8924 -0.9497
  729MOL0     H  557   5.480   5.698   2.376  1.0080  0.8912 -2.9820
  729MOL0     H  558   5.353   5.446   2.272 -0.1263 -2.6087  0.9069
  729MOL0     H  559   5.507   5.513   2.207  1.2757 -4.1894  1.2598
  729MOL0     H  560   5.713   5.573   2.233 -0.3692 -1.2890 -1.7088
  729MOL0     H  561   6.008   5.458   2.088  0.3058  0.2386 -0.2303
  729MOL0     H  562   5.994   5.601   2.190  0.2011  1.3274 -1.9653
  729MOL0     H  563   5.860   5.550   2.093  0.8175  3.5559  1.4732
  729MOL0     H  564   6.152   4.927   2.373  0.8132 -0.7380  0.3486
  729MOL0     H  565   6.378   4.828   2.370  2.1161 -0.2340  0.0536
  729MOL0     H  566   6.711   5.115   2.242 -0.6352  0.8420  1.1283
  729MOL0     H  567   6.749   5.102   2.417  1.8434 -2.2495  0.3838
  729MOL0     H  568   6.941   5.020   2.285  0.6581 -0.0400 -1.6332
  729MOL0     H  569   6.854   4.881   2.366  0.9319  0.5157  0.2920
  729MOL0     H  570   6.813   4.981   2.086  0.7480  0.5237  0.8447
  729MOL0     H  571   6.762   4.819   2.133  0.9699 -1.2135 -0.6297
  729MOL0     H  572   6.995   4.781   2.194  1.1613  0.4661  0.3145
  729MOL0     H  573   7.036   4.916   2.098 -1.3222  1.8782  0.9988
  729MOL0     H  574   7.038   4.678   1.983 -0.5304 -1.0338 -1.6026
  729MOL0     H  575   6.859   4.687   2.001 -0.3254  0.3890 -0.5457
  729MOL0     H  576   6.836   4.864   1.842  0.5289 -0.2159 -3.9657
  729MOL0     H  577   6.924   4.728   1.776 -2.3076  1.0777 -1.4413
  729MOL0     H  578   7.030   4.997   1.863  0.7662 -0.2997 -0.0461
  729MOL0     H  579   7.024   4.934   1.695  2.1049 -0.6226 -0.5138
  729MOL0     H  580   7.206   4.842   1.918 -0.2921 -0.0343  0.0577
  729MOL0     H  581   7.245   4.923   1.771  0.6233 -1.0175  0.2072
  729MOL0     H  582   6.547   5.233   2.382 -1.1443  1.2783 -0.7363
  729MOL0     H  583   6.327   5.308   2.429  3.0582  0.3517 -3.0406
  729MOL0     H  584   5.880   5.186   2.488 -1.5311 -3.2679 -2.7885
  729MOL0     H  585   5.652   5.276   2.529  0.4824 -0.3847  1.2274
  729MOL0     H  586   4.592   4.730   2.920  1.3843 -0.2552  1.4415
  729MOL0     H  587   4.599   4.502   2.854 -2.2657  1.2380 -0.8967
  729MOL0     H  588   4.657   4.177   2.651 -0.5398 -0.7218  1.1561
  729MOL0     H  589   4.624   3.934   2.584  0.1159  1.3827 -1.2899
  729MOL0     H  590   4.697   3.684   2.433 -0.8982  0.0756  0.2229
  729MOL0     H  591   4.807   3.812   2.370  1.7393  0.3771  1.2700
  729MOL0     H  592   4.907   3.545   2.459  2.7053 -0.7419 -1.8292
  729MOL0     H  593   4.991   3.684   2.390 -0.7981  0.8852 -1.4911
  729MOL0     H  594   4.924   3.487   2.240  0.4768  0.9891 -1.5639
  729MOL0     H  595   4.760   3.551   2.243  0.3858  0.6593  2.0883
  729MOL0     H  596   4.852   3.764   2.135  1.3714  0.2096  0.4206
  729MOL0     H  597   4.864   3.621   2.044  0.2864 -2.0923 -0.3472
  729MOL0     H  598   5.272   3.732   2.115 -0.1391  1.8294 -2.1227
  729MOL0     H  599   5.044   3.857   2.621  0.7503  1.6368 -0.4949
  729MOL0     H  600   5.189   4.114   2.585  1.6639  1.6449  0.4132
  729MOL0     H  601   5.134   4.172   2.735 -2.5283  0.0763  0.0504
  729MOL0     H  602   5.184   4.003   2.720 -2.2822  0.1921  1.2988
  730MOL0     O  603   4.739   7.031   6.795 -0.6052  0.0736 -0.1069
  730MOL0     C  604   4.689   6.927   6.770  0.2529 -0.2492 -0.4277
  730MOL0     O  605   4.565   6.883   6.819 -0.3311 -0.7438  0.2090
  730MOL0     C  606   4.511   6.955   6.925 -0.0843  0.6200  0.2272
  730MOL0     C  607   4.581   6.988   7.043  0.0472  0.0707 -1.0833
  730MOL0     C  608   4.519   7.047   7.152  0.8329 -0.4851  0.1198
  730MOL0     C  609   4.384   7.095   7.139  0.9111  0.3948  0.3819
  730MOL0     O  610   4.315   7.159   7.239 -0.0940 -1.0830  0.2654
  730MOL0     C  611   4.345   7.102   7.369 -0.1821  0.0952  0.2879
  730MOL0     C  612   4.234   7.156   7.461  0.1060  0.2397 -0.6902
  730MOL0     C  613   4.226   7.312   7.489  0.2185 -0.2825  0.2322
  730MOL0     C  614   4.367   7.373   7.517 -0.2036 -0.6086  0.5285
  730MOL0     C  615   4.364   7.509   7.589 -0.3935  0.7687 -0.4029
  730MOL0     C  616   4.322   7.628   7.493  1.1969 -0.1252  0.6599
  730MOL0     C  617   4.286   7.762   7.569 -0.2102 -0.1044  0.2220
  730MOL0     C  618   4.230   7.869   7.463  0.4896  0.0334 -0.9615
  730MOL0     N  619   4.332   7.913   7.377  0.2818 -0.1500 -0.6753
  730MOL0     C  620   4.342   7.873   7.251  0.8793 -0.3054  0.6438
  730MOL0     C  621   4.413   7.969   7.183 -0.1918  0.3927  0.1774
  730MOL0     C  622   4.459   7.979   7.033 -0.4609 -0.1483  0.8347
  730MOL0     C  623   4.576   7.881   7.006  0.4785  0.1589 -0.9614
  730MOL0     C  624   4.711   7.955   7.016  0.3812 -0.8240  0.2738
  730MOL0     C  625   4.817   7.902   6.909  0.0060  0.0875  0.2164
  730MOL0     O  626   4.927   8.000   6.900  0.1529 -0.1611 -0.0411
  730MOL0     C  627   5.052   7.980   6.962 -0.0770 -0.2017 -0.3095
  730MOL0     C  628   5.068   7.913   7.086 -0.2811  0.8266  0.3255
  730MOL0     C  629   5.195   7.907   7.139  0.8393  0.8699  0.0842
  730MOL0     C  630   5.212   7.826   7.274  0.2396 -0.8943 -0.4882
  730MOL0     C  631   5.308   7.955   7.065  0.5280 -0.5492  1.4819
  730MOL0     C  632   5.455   7.925   7.103 -0.4688  0.1766  0.1451
  730MOL0     O  633   5.494   7.825   7.184  0.3757  0.1073 -0.4570
  730MOL0     C  634   5.624   7.806   7.202  0.4121 -0.1809 -0.2184
  730MOL0     C  635   5.692   7.705   7.139  0.0346  0.8825  0.1454
  730MOL0     C  636   5.831   7.698   7.149  0.1120 -0.4658  0.0568
  730MOL0     C  637   5.898   7.786   7.232  0.4659  0.0598 -0.3601
  730MOL0     O  638   6.030   7.772   7.253 -0.3567  0.3192 -0.6666
  730MOL0     C  639   6.100   7.688   7.161  0.2394 -0.0972 -0.5567
  730MOL0     C  640   6.250   7.693   7.185  0.0116  0.6872 -0.8188
  730MOL0     C  641   6.298   7.835   7.177 -0.1662  0.4454 -0.0304
  730MOL0     C  642   6.430   7.855   7.254 -0.1776 -0.0929 -0.0623
  730MOL0     C  643   6.554   7.914   7.181 -1.4409  0.7803 -0.4909
  730MOL0     C  644   6.535   8.041   7.113 -0.3786 -0.3671  0.5407
  730MOL0     C  645   6.664   8.088   7.049 -0.0979  0.3872  0.3996
  730MOL0     C  646   6.780   8.131   7.142  0.3534  0.4040  0.3143
  730MOL0    Cl  647   6.905   8.199   7.049 -0.4836  0.3366  0.0777
  730MOL0     C  648   5.827   7.884   7.304  0.1792  0.5691 -0.8203
  730MOL0     C  649   5.692   7.893   7.278 -0.5806  0.5010 -1.1320
  730MOL0     O  650   5.534   8.006   7.047  0.2149  0.4969  0.1707
  730MOL0     C  651   5.295   8.034   6.945  0.0346 -0.3897  0.2219
  730MOL0     C  652   5.161   8.050   6.905  0.1156  0.2361  0.5928
  730MOL0     N  653   4.441   8.074   7.265  0.7908  0.5910  0.3847
  730MOL0     N  654   4.391   8.042   7.377 -0.7146 -0.0012  0.0709
  730MOL0     C  655   4.325   7.072   7.010  0.1801 -0.0386 -0.3132
  730MOL0     C  656   4.391   7.005   6.908  0.4121 -0.4617  0.0433
  730MOL0     C  657   4.769   6.840   6.674  0.4717  0.3126  0.4252
  730MOL0     C  658   4.714   6.719   6.645  0.6204 -0.3465  0.6480
  730MOL0     C  659   4.765   6.632   6.547 -0.4334  0.6659  1.1441
  730MOL0     C  660   4.876   6.670   6.472 -0.4356  0.5021 -0.8645
  730MOL0     O  661   4.908   6.587   6.377  0.7647  0.1235  0.6493
  730MOL0     C  662   5.038   6.605   6.314  0.1603  0.4468 -0.2493
  730MOL0     C  663   5.068   6.479   6.227  0.0607  0.8547 -0.0724
  730MOL0     C  664   5.098   6.506   6.080  0.4698 -0.2082 -0.7077
  730MOL0     C  665   5.139   6.378   6.007  0.1541 -0.4405 -0.6500
  730MOL0     C  666   5.040   6.269   6.010  0.8186  0.1362 -0.4655
  730MOL0     C  667   4.959   6.175   6.015  0.0188  0.2147  0.3134
  730MOL0     C  668   4.938   6.791   6.504  1.0122 -0.1623  0.3574
  730MOL0     C  669   4.889   6.873   6.608 -1.8815 -0.1185 -0.2180
  730MOL0     C  670   4.969   6.999   6.648 -0.1380  0.1009 -0.6235
  730MOL0     H  671   4.686   6.962   7.051 -0.2122 -1.3980 -1.9308
  730MOL0     H  672   4.569   7.051   7.249 -1.4414  3.5287  1.3441
  730MOL0     H  673   4.441   7.124   7.415  2.0322 -3.6887 -1.9428
  730MOL0     H  674   4.337   6.993   7.355  4.0283 -0.0781 -2.6619
  730MOL0     H  675   4.134   7.130   7.425 -0.3881 -1.0474  1.4114
  730MOL0     H  676   4.247   7.105   7.557  1.6686  0.2300 -0.8918
  730MOL0     H  677   4.190   7.370   7.403  1.7223  1.2836  0.6060
  730MOL0     H  678   4.173   7.326   7.583  0.1957 -1.7192  0.4527
  730MOL0     H  679   4.417   7.309   7.590  0.2007  1.0616  1.7896
  730MOL0     H  680   4.420   7.373   7.421 -2.4327 -0.5280 -0.7568
  730MOL0     H  681   4.471   7.522   7.611 -0.3360 -1.1036  0.5881
  730MOL0     H  682   4.307   7.515   7.681  0.5279  1.8108  0.1291
  730MOL0     H  683   4.392   7.641   7.410  1.0108  1.3670  0.7041
  730MOL0     H  684   4.229   7.606   7.440  1.1137  1.6694 -0.0383
  730MOL0     H  685   4.376   7.811   7.608  0.8298 -2.2180  0.6202
  730MOL0     H  686   4.216   7.738   7.649 -2.2693  2.8164 -0.5400
  730MOL0     H  687   4.145   7.834   7.405  0.2125  1.3284 -1.3615
  730MOL0     H  688   4.208   7.955   7.526  1.8508 -1.8328  2.3229
  730MOL0     H  689   4.307   7.777   7.216  3.8363 -1.2120 -0.0822
  730MOL0     H  690   4.487   8.082   7.010  1.1428 -0.4060  1.4841
  730MOL0     H  691   4.376   7.949   6.969 -1.5398  1.4547  1.4335
  730MOL0     H  692   4.571   7.789   7.065  2.4466 -0.1449 -1.1888
  730MOL0     H  693   4.563   7.832   6.909 -0.4653 -2.3790  0.3439
  730MOL0     H  694   4.695   8.060   6.991  2.3246 -0.2501  1.2542
  730MOL0     H  695   4.744   7.963   7.120  1.3598  1.9641 -0.1627
  730MOL0     H  696   4.845   7.799   6.933 -4.2273 -0.7340  2.7205
  730MOL0     H  697   4.779   7.888   6.808  1.7518 -0.8944 -0.3437
  730MOL0     H  698   4.980   7.882   7.141  0.3136  0.3679  1.0450
  730MOL0     H  699   5.264   7.883   7.351 -0.1015  0.5447 -1.2852
  730MOL0     H  700   5.272   7.737   7.256  2.0806  0.2428 -0.1535
  730MOL0     H  701   5.115   7.786   7.304  0.1929  0.0114  0.6496
  730MOL0     H  702   5.633   7.628   7.089  0.6985 -1.4785  2.7119
  730MOL0     H  703   5.873   7.612   7.097  1.9585 -0.6107  1.6970
  730MOL0     H  704   6.057   7.588   7.170 -3.5147  0.6549 -5.5584
  730MOL0     H  705   6.088   7.722   7.057  1.0745  1.9404 -0.0250
  730MOL0     H  706   6.275   7.663   7.287 -0.7835  0.7912 -0.5925
  730MOL0     H  707   6.295   7.627   7.110  3.0106  2.2536 -0.5439
  730MOL0     H  708   6.221   7.911   7.197 -0.9700 -0.4183  0.2361
  730MOL0     H  709   6.327   7.852   7.073 -1.3295  1.7983 -0.1603
  730MOL0     H  710   6.457   7.760   7.301 -1.5720 -1.8990 -2.6380
  730MOL0     H  711   6.404   7.924   7.335 -0.8796  1.7315 -1.7581
  730MOL0     H  712   6.641   7.924   7.247  0.4084  2.5433 -2.9857
  730MOL0     H  713   6.590   7.844   7.106 -1.9274  1.6434 -1.5576
  730MOL0     H  714   6.507   8.116   7.187 -3.0997  0.2083 -0.9014
  730MOL0     H  715   6.458   8.030   7.035  0.0641 -0.6315  0.1351
  730MOL0     H  716   6.633   8.177   6.992  0.7811  0.4513 -0.0024
  730MOL0     H  717   6.696   8.020   6.969 -2.3784  1.5175 -1.6318
  730MOL0     H  718   6.825   8.048   7.197  1.0072  0.7472  0.2965
  730MOL0     H  719   6.753   8.215   7.208  2.8160  0.5506  1.2156
  730MOL0     H  720   5.873   7.958   7.368 -0.3135  0.8297 -0.7630
  730MOL0     H  721   5.640   7.978   7.323 -0.6103  0.8554 -1.8248
  730MOL0     H  722   5.380   8.076   6.893  1.0511 -0.7483  1.5224
  730MOL0     H  723   5.133   8.105   6.816 -0.5064 -2.5840 -1.0934
  730MOL0     H  724   4.227   7.119   7.017 -0.6710 -1.9494  3.0365
  730MOL0     H  725   4.339   7.002   6.813 -2.6648  1.0288  1.5037
  730MOL0     H  726   4.616   6.687   6.681 -0.0932 -0.6812 -1.4529
  730MOL0     H  727   4.730   6.529   6.541  1.4597  0.0150 -3.9938
  730MOL0     H  728   5.041   6.697   6.255 -2.0746 -1.5898 -3.9761
  730MOL0     H  729   5.115   6.602   6.391  0.2938  1.6711 -0.3157
  730MOL0     H  730   4.982   6.412   6.228  0.2137  0.6483  1.4727
  730MOL0     H  731   5.148   6.421   6.273 -1.7550 -0.3118  1.7805
  730MOL0     H  732   5.014   6.559   6.036 -2.2836 -3.2938  0.4177
  730MOL0     H  733   5.188   6.568   6.075 -0.8039  1.6810 -0.8788
  730MOL0     H  734   5.240   6.347   6.036 -0.3461 -1.9220 -0.4031
  730MOL0     H  735   5.162   6.397   5.902 -0.8902  0.1232 -0.7930
  730MOL0     H  736   4.891   6.094   6.030  2.3337 -1.4138  3.1395
  730MOL0     H  737   5.032   6.814   6.455  1.4936 -1.5533  0.5874
  730MOL0     H  738   4.916   7.087   6.610 -0.8344 -0.8511 -1.9147
  730MOL0     H  739   4.986   7.010   6.756  1.1857 -1.6184 -0.6048
  730MOL0     H  740   5.068   6.986   6.602 -0.5811 -0.7557 -1.3372
  731MOL0     O  741   2.379   4.467   5.915 -0.4847 -0.2541  0.4509
  731MOL0     C  742   2.305   4.558   5.886 -0.9674  0.7982 -0.3689
  731MOL0     O  743   2.193   4.600   5.954  0.7142 -0.2603  0.3642
  731MOL0     C  744   2.130   4.528   6.054 -0.3230  0.2952  0.1238
  731MOL0     C  745   2.203   4.453   6.150 -0.3525 -1.1001 -0.8684
  731MOL0     C  746   2.140   4.359   6.239 -0.2781 -0.3063 -0.5727
  731MOL0     C  747   2.002   4.361   6.246 -0.2789  0.8680  0.4618
  731MOL0     O  748   1.937   4.283   6.337  0.0825 -0.2867 -0.3469
  731MOL0     C  749   1.925   4.332   6.462 -0.9640  0.4449  0.4770
  731MOL0     C  750   1.783   4.307   6.522 -0.4973  1.2409 -0.3396
  731MOL0     C  751   1.681   4.390   6.461 -0.3320 -0.2489 -0.4130
  731MOL0     C  752   1.547   4.340   6.499  0.1926  1.0462 -1.0802
  731MOL0     C  753   1.443   4.444   6.467 -0.2289  0.9189  0.2929
  731MOL0     C  754   1.453   4.514   6.334  0.4851  0.2184 -0.4801
  731MOL0     C  755   1.349   4.620   6.296 -0.3457 -0.2714 -0.0403
  731MOL0     C  756   1.209   4.558   6.260 -1.5408 -0.3107  0.1434
  731MOL0     N  757   1.200   4.438   6.186  0.3128 -0.0482 -0.5151
  731MOL0     C  758   1.209   4.439   6.047  0.6020  0.5719 -0.7695
  731MOL0     C  759   1.237   4.306   6.027  0.7155 -0.4842  0.0568
  731MOL0     C  760   1.249   4.237   5.894  0.2396 -0.2703 -0.1458
  731MOL0     C  761   1.124   4.172   5.834  0.3874  0.1470 -0.0434
  731MOL0     C  762   1.145   4.130   5.686 -0.2424  0.1368  0.3089
  731MOL0     C  763   1.211   3.993   5.679 -0.1422 -0.5787 -0.5573
  731MOL0     O  764   1.244   3.958   5.548 -0.3257 -0.5835 -0.0512
  731MOL0     C  765   1.340   4.025   5.478 -0.0427  0.0614  0.2268
  731MOL0     C  766   1.435   4.118   5.536  0.3147 -0.5422 -0.8139
  731MOL0     C  767   1.540   4.188   5.465  1.0439  0.9670 -0.8110
  731MOL0     C  768   1.637   4.282   5.537  0.3235  0.2100  0.0396
  731MOL0     C  769   1.554   4.154   5.330  0.1556 -0.4765 -0.6169
  731MOL0     C  770   1.664   4.213   5.243 -0.0292  0.7613 -1.2149
  731MOL0     O  771   1.745   4.118   5.183  0.4679  0.6378  0.2897
  731MOL0     C  772   1.842   4.168   5.105  0.9430 -0.4862 -0.2433
  731MOL0     C  773   1.963   4.210   5.158 -0.0380  0.9273 -0.6642
  731MOL0     C  774   2.072   4.253   5.080  0.5890  0.9003 -0.1478
  731MOL0     C  775   2.055   4.264   4.938 -0.0943 -0.1095 -0.5949
  731MOL0     O  776   2.170   4.311   4.873 -0.1423 -0.0669 -0.0559
  731MOL0     C  777   2.149   4.386   4.756 -0.1498 -0.4787  0.6946
  731MOL0     C  778   2.151   4.316   4.622  0.4328  0.3937 -0.6091
  731MOL0     C  779   2.282   4.257   4.583  0.4623  0.2276 -0.3434
  731MOL0     C  780   2.284   4.188   4.446  0.8158  0.8551 -0.1171
  731MOL0     C  781   2.425   4.152   4.396 -0.4113 -0.5211  0.6289
  731MOL0     C  782   2.416   4.082   4.261  0.2512 -1.2564  0.3196
  731MOL0     C  783   2.310   4.138   4.160  0.8677 -0.7762  0.8781
  731MOL0     C  784   2.333   4.093   4.014  0.3353 -0.6106 -0.2847
  731MOL0    Cl  785   2.360   3.916   4.009 -0.3285  0.2122  0.1580
  731MOL0     C  786   1.932   4.236   4.883 -0.4532 -0.6860 -0.7459
  731MOL0     C  787   1.825   4.188   4.962 -0.2725 -0.4565 -0.8857
  731MOL0     O  788   1.667   4.337   5.233 -0.7930  0.0798  0.5020
  731MOL0     C  789   1.459   4.062   5.273 -0.0133 -0.0485  0.0582
  731MOL0     C  790   1.366   3.997   5.345 -0.5255 -0.1267 -0.6010
  731MOL0     N  791   1.253   4.246   6.139 -1.1551  0.3912 -1.2041
  731MOL0     N  792   1.238   4.316   6.239 -0.8181  0.1884  1.0855
  731MOL0     C  793   1.923   4.431   6.157  0.2852 -0.3187 -0.4458
  731MOL0     C  794   1.986   4.519   6.068  0.6756 -0.2735 -0.3441
  731MOL0     C  795   2.333   4.616   5.749 -0.4200 -0.4523 -0.9343
  731MOL0     C  796   2.190   4.749   5.667  0.7605 -0.4046 -0.1586
  731MOL0     C  797   2.217   4.833   5.477  0.1790 -0.6155  1.3545
  731MOL0     C  798   2.382   4.783   5.361  0.1642 -0.5555  0.5458
  731MOL0     O  799   2.400   4.843   5.234 -0.2303  0.5722 -0.2647
  731MOL0     C  800   2.502   4.774   5.158  0.0614 -0.0625 -0.4509
  731MOL0     C  801   2.439   4.649   5.092 -0.7361  0.1612  0.0266
  731MOL0     C  802   2.540   4.563   5.025  0.0506 -0.0996 -0.2056
  731MOL0     C  803   2.456   4.444   4.967  0.0076 -0.4580  0.7250
  731MOL0     C  804   2.521   4.350   4.869 -0.9074  0.4483  0.2637
  731MOL0     C  805   2.581   4.284   4.794 -0.4014  0.3376  0.2108
  731MOL0     C  806   2.522   4.649   5.436  0.5297  0.6856 -1.3377
  731MOL0     C  807   2.501   4.565   5.634  0.6531  0.0319  0.7262
  731MOL0     C  808   2.594   4.461   5.679 -0.3057 -0.0258 -0.3498
  731MOL0     H  809   2.311   4.459   6.163 -0.6350  1.4008  0.9359
  731MOL0     H  810   2.198   4.295   6.304  0.1430 -0.5066 -1.1430
  731MOL0     H  811   1.929   4.441   6.455 -1.3043  0.3606 -2.5052
  731MOL0     H  812   2.007   4.286   6.517 -0.3130  0.2354 -0.6295
  731MOL0     H  813   1.756   4.205   6.496 -1.8031  1.7269 -0.9704
  731MOL0     H  814   1.772   4.315   6.631 -0.4879 -0.6380 -0.1679
  731MOL0     H  815   1.698   4.491   6.499 -2.6568 -0.2414  0.7928
  731MOL0     H  816   1.688   4.393   6.352 -0.3030 -1.4010 -0.4563
  731MOL0     H  817   1.530   4.244   6.450  0.9979 -0.3200  1.1807
  731MOL0     H  818   1.538   4.314   6.605 -2.7119 -3.3279 -2.1186
  731MOL0     H  819   1.439   4.521   6.546  0.1087  0.7929  0.4348
  731MOL0     H  820   1.344   4.400   6.479 -0.7538  1.8694 -0.3980
  731MOL0     H  821   1.546   4.570   6.316 -0.3842  1.2939 -1.7839
  731MOL0     H  822   1.457   4.436   6.257  1.4075 -0.4868  0.2544
  731MOL0     H  823   1.396   4.679   6.216  1.8500 -0.0553  1.3098
  731MOL0     H  824   1.324   4.687   6.379 -0.5078  2.0419 -1.8558
  731MOL0     H  825   1.138   4.538   6.341 -0.4798  0.4518  1.2952
  731MOL0     H  826   1.167   4.643   6.206  1.4477  0.9624 -0.3548
  731MOL0     H  827   1.177   4.518   5.980 -0.3778 -0.9127 -2.1193
  731MOL0     H  828   1.330   4.163   5.902 -0.3148 -0.7015  1.7976
  731MOL0     H  829   1.292   4.308   5.823 -0.1214 -0.5867 -0.6935
  731MOL0     H  830   1.099   4.088   5.900 -1.3320 -0.9092 -1.9458
  731MOL0     H  831   1.053   4.254   5.841 -0.7899 -0.6437 -1.9301
  731MOL0     H  832   1.045   4.114   5.643 -0.1576  0.6363 -0.0758
  731MOL0     H  833   1.202   4.203   5.629 -1.4933 -0.5189 -1.8970
  731MOL0     H  834   1.291   3.979   5.752 -1.7569 -0.2855  1.3644
  731MOL0     H  835   1.131   3.925   5.708 -0.2465  0.3603  1.5624
  731MOL0     H  836   1.443   4.142   5.642  0.9331  1.3004 -1.2352
  731MOL0     H  837   1.616   4.285   5.644 -0.3245  1.8272 -0.1179
  731MOL0     H  838   1.621   4.384   5.502 -3.3328 -0.7965 -1.7058
  731MOL0     H  839   1.741   4.255   5.513 -0.0454 -0.5631 -0.7410
  731MOL0     H  840   1.969   4.194   5.265 -1.8274  2.7778 -0.2219
  731MOL0     H  841   2.166   4.275   5.128  0.1447 -0.5659  1.5116
  731MOL0     H  842   2.046   4.423   4.767  0.0876  0.8882 -1.1983
  731MOL0     H  843   2.219   4.469   4.751 -0.6351  0.2206  3.6104
  731MOL0     H  844   2.073   4.239   4.617  0.4923  0.2240  0.8165
  731MOL0     H  845   2.126   4.388   4.543  0.4634  1.4887  0.3683
  731MOL0     H  846   2.311   4.189   4.664 -2.4539  0.0812  0.6922
  731MOL0     H  847   2.348   4.344   4.578  1.3610 -0.2185  2.3840
  731MOL0     H  848   2.219   4.243   4.378 -1.2661  1.0466  1.8937
  731MOL0     H  849   2.230   4.094   4.461 -0.3494  1.6318  0.9013
  731MOL0     H  850   2.493   4.238   4.387 -1.8568  0.7010  0.9756
  731MOL0     H  851   2.484   4.086   4.460  0.3414 -0.5969 -0.1155
  731MOL0     H  852   2.390   3.981   4.296 -3.8331 -0.9531 -1.2657
  731MOL0     H  853   2.514   4.095   4.215  0.6113  1.6239  1.7199
  731MOL0     H  854   2.295   4.245   4.147 -2.4356 -1.5669 -7.3192
  731MOL0     H  855   2.215   4.105   4.201  1.5680  0.4886  3.7890
  731MOL0     H  856   2.419   4.144   3.970  1.9548 -0.1921  3.0629
  731MOL0     H  857   2.243   4.116   3.955 -1.1414  0.0481  2.0971
  731MOL0     H  858   1.914   4.253   4.778 -3.6775 -0.1138 -0.2025
  731MOL0     H  859   1.737   4.162   4.905 -0.4834 -0.8926 -0.3826
  731MOL0     H  860   1.477   4.043   5.167 -1.4927  1.8871 -0.6028
  731MOL0     H  861   1.306   3.933   5.281 -0.9052  2.1349 -2.6972
  731MOL0     H  862   1.815   4.437   6.163  0.4532  3.5774  2.9740
  731MOL0     H  863   1.918   4.585   6.016 -0.2484 -0.1829  0.9115
  731MOL0     H  864   2.096   4.777   5.713 -0.0900  0.3494 -2.2285
  731MOL0     H  865   2.144   4.896   5.428  0.8211 -1.3960 -0.7580
  731MOL0     H  866   2.537   4.845   5.084 -0.5218 -0.0290 -0.7001
  731MOL0     H  867   2.596   4.751   5.209  0.9423 -0.3198 -2.1356
  731MOL0     H  868   2.368   4.681   5.015 -0.4102 -0.3215 -0.4867
  731MOL0     H  869   2.378   4.599   5.167 -0.2673 -0.4120  0.0397
  731MOL0     H  870   2.585   4.621   4.944  1.6924 -1.6131 -0.4307
  731MOL0     H  871   2.608   4.519   5.099 -0.1052 -1.4082 -0.8018
  731MOL0     H  872   2.366   4.487   4.922  0.6862  3.5642  2.8282
  731MOL0     H  873   2.420   4.379   5.047  1.0615 -1.1149  0.6803
  731MOL0     H  874   2.632   4.232   4.715  1.7824  0.7638  1.2461
  731MOL0     H  875   2.613   4.621   5.384  1.6510 -2.0451  1.7828
  731MOL0     H  876   2.582   4.448   5.787 -0.0521 -1.4529 -0.4689
  731MOL0     H  877   2.582   4.361   5.635  0.4756  0.8958 -2.7814
  731MOL0     H  878   2.699   4.483   5.659  0.4657  1.9830  4.4240
  732MOL0     O  879   0.635   0.410   7.538  0.0601  0.1056 -0.6674
  732MOL0     C  880   0.544   0.421   7.619  0.6938 -0.7796  0.4974
  732MOL0     O  881   0.419   0.364   7.607 -0.8391  0.6999 -0.2946
  732MOL0     C  882   0.383   0.275   7.504 -0.0640 -0.5118  0.0878
  732MOL0     C  883   0.470   0.211   7.412  0.0118 -0.0246  0.3394
  732MOL0     C  884   0.419   0.113   7.319  0.1397 -0.2332 -0.2987
  732MOL0     C  885   0.279   0.105   7.307 -0.4127  0.1798 -0.5373
  732MOL0     O  886   0.223   0.027   7.214  0.1136 -0.9068  0.0325
  732MOL0     C  887   0.189  -0.110   7.239 -0.5964  0.7778  0.2371
  732MOL0     C  888   0.273  -0.178   7.138  0.4171 -0.0165  0.9396
  732MOL0     C  889   0.220  -0.332   7.120 -1.0522 -0.3147 -0.4100
  732MOL0     C  890   0.220  -0.418   7.249 -0.4382  0.5270 -0.2958
  732MOL0     C  891   0.166  -0.547   7.201  0.0233 -0.2068  0.0990
  732MOL0     C  892   0.119  -0.638   7.316 -0.5445  0.7826 -0.1433
  732MOL0     C  893  -0.029  -0.616   7.335 -0.6597 -0.1897  0.2811
  732MOL0     C  894  -0.117  -0.692   7.226 -0.3091 -0.6046  0.8944
  732MOL0     N  895  -0.238  -0.615   7.196  0.7196  0.2439 -0.3875
  732MOL0     C  896  -0.244  -0.489   7.146  0.1722 -0.4168  0.3197
  732MOL0     C  897  -0.372  -0.460   7.130  0.7208 -1.2421  0.6922
  732MOL0     C  898  -0.445  -0.339   7.081 -0.0216  1.1821  0.1983
  732MOL0     C  899  -0.470  -0.349   6.930 -0.3167  0.6986  0.3899
  732MOL0     C  900  -0.342  -0.297   6.849  0.5578 -0.6233 -0.7863
  732MOL0     C  901  -0.331  -0.338   6.700  0.4845 -0.1112  0.1056
  732MOL0     O  902  -0.233  -0.266   6.629 -0.3497 -0.1053  0.5592
  732MOL0     C  903  -0.110  -0.320   6.641 -0.2620 -1.4911  0.5953
  732MOL0     C  904  -0.070  -0.441   6.583  0.3923  0.5351 -0.0791
  732MOL0     C  905   0.062  -0.490   6.601 -0.3178 -0.2150 -0.4251
  732MOL0     C  906   0.077  -0.637   6.561  0.2690  0.1877  0.5219
  732MOL0     C  907   0.165  -0.416   6.667  0.2214  0.0878  0.6008
  732MOL0     C  908   0.289  -0.472   6.708  0.0818  0.3429 -0.5123
  732MOL0     O  909   0.406  -0.405   6.689  0.4777  0.2336 -0.1273
  732MOL0     C  910   0.529  -0.456   6.697 -0.2101 -0.1663  0.4992
  732MOL0     C  911   0.559  -0.587   6.658 -0.7847  0.7456 -0.3180
  732MOL0     C  912   0.683  -0.644   6.683 -0.4617  0.2455 -0.1548
  732MOL0     C  913   0.784  -0.574   6.738  0.2612 -1.4471 -0.2286
  732MOL0     O  914   0.898  -0.635   6.763 -0.1833 -0.4368  0.3293
  732MOL0     C  915   1.009  -0.562   6.828 -0.1215  1.0199  0.8614
  732MOL0     C  916   1.088  -0.473   6.731  0.0489  0.5020  0.3584
  732MOL0     C  917   1.185  -0.554   6.638 -0.5886  0.0761  0.3366
  732MOL0     C  918   1.290  -0.637   6.720  0.7552  0.2000  0.2815
  732MOL0     C  919   1.406  -0.689   6.626  0.5099 -0.8499 -0.0701
  732MOL0     C  920   1.510  -0.760   6.706  0.0141  0.4506  0.0308
  732MOL0     C  921   1.604  -0.860   6.627 -0.2969  0.0461  0.5409
  732MOL0     C  922   1.727  -0.892   6.708  0.4500  0.0264  0.1655
  732MOL0    Cl  923   1.846  -0.753   6.731  0.3423 -0.0681  0.3576
  732MOL0     C  924   0.764  -0.436   6.759  0.5946  0.1443  0.4842
  732MOL0     C  925   0.639  -0.377   6.732  0.3594  0.0773 -0.1285
  732MOL0     O  926   0.284  -0.575   6.770 -0.3261 -0.3338 -0.5765
  732MOL0     C  927   0.125  -0.294   6.714  0.3366  0.2420 -0.3566
  732MOL0     C  928  -0.012  -0.255   6.716  0.6020 -0.6513 -0.3390
  732MOL0     N  929  -0.443  -0.569   7.172 -0.4553 -0.2639 -0.1389
  732MOL0     N  930  -0.365  -0.658   7.211  0.5024  0.3813 -0.0581
  732MOL0     C  931   0.198   0.167   7.395 -0.3627  0.9802 -0.6007
  732MOL0     C  932   0.246   0.255   7.492 -0.0809  0.8078 -0.8396
  732MOL0     C  933   0.567   0.512   7.734 -0.4484  0.0919 -0.1635
  732MOL0     C  934   0.457   0.593   7.761  0.0915 -0.3834 -0.4487
  732MOL0     C  935   0.464   0.685   7.867  0.8522 -0.6706  1.1398
  732MOL0     C  936   0.591   0.714   7.924  0.3478  0.9394 -0.0736
  732MOL0     O  937   0.627   0.814   8.014  0.8221  0.0062 -0.1427
  732MOL0     C  938   0.518   0.864   8.096 -0.3190  0.0506  0.0689
  732MOL0     C  939   0.592   0.949   8.213  0.4057 -0.2267 -0.1968
  732MOL0     C  940   0.489   1.005   8.311 -0.6898  0.0581 -0.8250
  732MOL0     C  941   0.447   1.152   8.285 -1.1028  0.0107  0.1669
  732MOL0     C  942   0.352   1.158   8.172  0.4587  0.0377  0.2359
  732MOL0     C  943   0.281   1.136   8.077 -0.1045  0.6199 -0.1391
  732MOL0     C  944   0.700   0.631   7.894 -0.4596 -0.2739 -0.0845
  732MOL0     C  945   0.688   0.528   7.805 -0.1843  0.1073  0.2809
  732MOL0     C  946   0.821   0.449   7.794  0.5849 -0.4134  0.1472
  732MOL0     H  947   0.577   0.227   7.421 -0.4387  2.1931  3.8496
  732MOL0     H  948   0.481   0.059   7.248  0.3579  1.1101 -1.1572
  732MOL0     H  949   0.084  -0.124   7.214 -0.6507  1.7388 -0.1050
  732MOL0     H  950   0.196  -0.156   7.338 -1.9953 -2.8257 -1.1592
  732MOL0     H  951   0.257  -0.129   7.042  0.7554 -0.1536  0.8133
  732MOL0     H  952   0.380  -0.177   7.161  1.0936  1.9796 -1.7925
  732MOL0     H  953   0.119  -0.328   7.077 -1.6618  2.5582  1.0020
  732MOL0     H  954   0.288  -0.384   7.052 -0.5784 -0.5885  0.2636
  732MOL0     H  955   0.325  -0.431   7.273 -0.3526 -0.6286 -1.2196
  732MOL0     H  956   0.160  -0.387   7.336  1.6396 -0.6682  1.6703
  732MOL0     H  957   0.247  -0.596   7.146  1.7247  2.2609  0.2338
  732MOL0     H  958   0.081  -0.533   7.134  0.3108 -3.3306 -1.1221
  732MOL0     H  959   0.137  -0.744   7.294  4.8188  1.4649 -0.3993
  732MOL0     H  960   0.175  -0.614   7.406  1.8940 -0.3602 -1.2534
  732MOL0     H  961  -0.047  -0.509   7.345  0.3374 -0.2142  3.3849
  732MOL0     H  962  -0.064  -0.651   7.433 -0.3865  1.0398  0.8339
  732MOL0     H  963  -0.062  -0.679   7.132  0.7846 -4.3845  0.8631
  732MOL0     H  964  -0.141  -0.796   7.250  2.0801 -0.8014  2.8387
  732MOL0     H  965  -0.169  -0.413   7.128 -1.4815  1.4303  0.8107
  732MOL0     H  966  -0.379  -0.253   7.094 -2.1532  2.9161  0.0494
  732MOL0     H  967  -0.540  -0.332   7.133 -0.0648 -3.6373  1.2216
  732MOL0     H  968  -0.486  -0.457   6.919 -0.2353  0.6765  0.4921
  732MOL0     H  969  -0.553  -0.289   6.892  2.0014  2.2987 -2.5081
  732MOL0     H  970  -0.329  -0.188   6.856  2.2598 -0.8569  0.0504
  732MOL0     H  971  -0.255  -0.341   6.898 -0.4436 -2.3912 -0.5155
  732MOL0     H  972  -0.319  -0.446   6.690 -0.3434 -0.0985 -1.3814
  732MOL0     H  973  -0.423  -0.313   6.647  1.4035  2.2467 -0.5375
  732MOL0     H  974  -0.146  -0.492   6.525 -2.2243  4.9486 -0.9626
  732MOL0     H  975   0.074  -0.708   6.644 -1.2734 -0.7556 -0.2954
  732MOL0     H  976   0.177  -0.645   6.517 -0.0977  0.2465 -0.3426
  732MOL0     H  977   0.006  -0.657   6.480 -1.3459  2.1231  1.3897
  732MOL0     H  978   0.480  -0.653   6.625  2.2899 -2.6568 -1.6282
  732MOL0     H  979   0.697  -0.747   6.652  3.4236  1.2967 -2.5182
  732MOL0     H  980   0.972  -0.514   6.920 -2.3991 -0.2373  0.6689
  732MOL0     H  981   1.068  -0.639   6.877 -3.2806 -1.1828  1.5118
  732MOL0     H  982   1.020  -0.411   6.673 -0.7209 -0.1699  0.5165
  732MOL0     H  983   1.154  -0.413   6.794 -0.8822  0.3813  1.4899
  732MOL0     H  984   1.234  -0.481   6.573  1.4731  0.2868  2.0144
  732MOL0     H  985   1.126  -0.633   6.590 -1.2812 -2.1235  4.3756
  732MOL0     H  986   1.250  -0.730   6.761  2.3898 -1.1121 -0.9181
  732MOL0     H  987   1.339  -0.573   6.793  0.8573 -1.5428  1.8148
  732MOL0     H  988   1.365  -0.757   6.551 -0.2951 -0.4427 -0.0048
  732MOL0     H  989   1.446  -0.610   6.562 -1.2463  0.4604  0.3988
  732MOL0     H  990   1.451  -0.816   6.779 -1.2900  2.5162  0.6517
  732MOL0     H  991   1.574  -0.689   6.759  3.2505 -1.6109 -0.7806
  732MOL0     H  992   1.635  -0.809   6.535  0.5557 -1.4460 -0.0410
  732MOL0     H  993   1.547  -0.945   6.587 -0.6579 -0.8111  2.7477
  732MOL0     H  994   1.777  -0.962   6.641 -1.7368 -3.6101  2.0290
  732MOL0     H  995   1.699  -0.941   6.802 -2.3941 -1.0555 -1.1420
  732MOL0     H  996   0.841  -0.363   6.782  0.7281 -0.0402  0.6284
  732MOL0     H  997   0.632  -0.272   6.757  0.3300  0.8197 -2.9096
  732MOL0     H  998   0.194  -0.228   6.766  2.8915 -2.0721 -0.5602
  732MOL0     H  999  -0.048  -0.166   6.767  1.9961 -0.1431 -0.1992
  732MOL0     H 1000   0.093   0.146   7.379  0.1418 -2.2384 -0.3774
  732MOL0     H 1001   0.177   0.291   7.567  0.6546 -2.4805  1.6337
  732MOL0     H 1002   0.365   0.583   7.704  0.8513 -3.1273 -1.3628
  732MOL0     H 1003   0.380   0.743   7.902 -0.7030 -1.1107 -1.5857
  732MOL0     H 1004   0.450   0.928   8.040  0.2051  0.5421 -0.0170
  732MOL0     H 1005   0.460   0.788   8.149  0.3513  0.8050  1.9973
  732MOL0     H 1006   0.653   1.030   8.172  3.1346 -0.2744  3.3369
  732MOL0     H 1007   0.664   0.877   8.252 -0.8522 -1.5987 -0.3505
  732MOL0     H 1008   0.400   0.941   8.311 -0.6567 -0.2003 -4.0843
  732MOL0     H 1009   0.536   1.001   8.409  0.1094 -1.0733 -1.2202
  732MOL0     H 1010   0.530   1.219   8.263 -2.4718  1.5875 -0.4287
  732MOL0     H 1011   0.407   1.199   8.376 -1.1293 -2.0834  1.3055
  732MOL0     H 1012   0.236   1.114   7.982  0.8297  0.2849 -0.5202
  732MOL0     H 1013   0.792   0.642   7.951 -1.2704  1.2110  0.9921
  732MOL0     H 1014   0.814   0.381   7.709 -0.3432 -0.3493  0.1578
  732MOL0     H 1015   0.903   0.520   7.780 -0.3238  1.0005  1.6077
  732MOL0     H 1016   0.839   0.387   7.882 -3.3529 -0.2469  1.2568
  733MOL0     O 1017   9.581   6.292   5.105 -0.3828  0.6073 -0.1087
  733MOL0     C 1018   9.492   6.328   5.179 -0.2009  0.2240 -2.0155
  733MOL0     O 1019   9.488   6.286   5.309  0.7737  0.2134 -0.0272
  733MOL0     C 1020   9.570   6.185   5.349  0.3790  0.2854  0.2147
  733MOL0     C 1021   9.676   6.220   5.436 -0.4335 -0.5531 -0.8910
  733MOL0     C 1022   9.774   6.130   5.482 -0.2751  0.7335  0.4193
  733MOL0     C 1023   9.763   5.993   5.439 -0.3270  0.1780  0.9846
  733MOL0     O 1024   9.852   5.890   5.475  0.3095 -0.4556 -0.0335
  733MOL0     C 1025   9.956   5.913   5.578 -0.4812  0.4624  0.5796
  733MOL0     C 1026   9.967   5.804   5.673 -0.4659  0.3050  0.7239
  733MOL0     C 1027  10.087   5.834   5.765 -0.3287 -0.5780  0.6883
  733MOL0     C 1028  10.117   5.742   5.877  0.2607 -0.1486 -0.0049
  733MOL0     C 1029  10.243   5.782   5.955 -0.3832  0.4046  0.2905
  733MOL0     C 1030  10.271   5.685   6.064  0.0075  0.1197  0.7404
  733MOL0     C 1031  10.410   5.711   6.133  0.6525 -0.7364 -0.4427
  733MOL0     C 1032  10.436   5.604   6.229 -0.0891  0.3698 -1.1018
  733MOL0     N 1033  10.570   5.613   6.275 -0.3571  0.0762  0.3797
  733MOL0     C 1034  10.669   5.526   6.236  0.6118 -0.4700  0.3732
  733MOL0     C 1035  10.782   5.556   6.307 -0.2276  0.5536 -0.2622
  733MOL0     C 1036  10.920   5.490   6.285  0.0765 -0.3473 -0.1866
  733MOL0     C 1037  10.968   5.415   6.408 -0.0178  1.3276 -0.3983
  733MOL0     C 1038  10.867   5.301   6.438 -0.3884  0.4408 -0.5518
  733MOL0     C 1039  10.891   5.246   6.571  0.2706  1.1254 -0.2324
  733MOL0     O 1040  10.854   5.339   6.674  0.1026 -0.1614 -0.7706
  733MOL0     C 1041  10.893   5.318   6.809 -1.0793 -0.4827 -0.2015
  733MOL0     C 1042  10.858   5.194   6.869 -0.3444 -0.3970  0.7529
  733MOL0     C 1043  10.910   5.157   6.993  0.5485 -0.5629 -0.5332
  733MOL0     C 1044  10.870   5.030   7.038  0.6000 -0.0757  0.0748
  733MOL0     C 1045  10.994   5.250   7.056  0.4349  0.4945 -0.5679
  733MOL0     C 1046  11.068   5.216   7.184  0.0023 -0.3885  0.7071
  733MOL0     O 1047  11.114   5.329   7.250  0.6047 -0.1766  0.0207
  733MOL0     C 1048  11.128   5.329   7.381 -0.4278 -0.5045 -0.6865
  733MOL0     C 1049  11.032   5.274   7.469  0.0555  0.4477 -0.4355
  733MOL0     C 1050  11.042   5.295   7.604  0.1119  0.2387  0.2124
  733MOL0     C 1051  11.153   5.363   7.662  0.4779  0.0437  0.3512
  733MOL0     O 1052  11.179   5.386   7.795  0.3324 -0.5515  0.2995
  733MOL0     C 1053  11.242   5.281   7.861 -0.5284 -0.3264 -0.1735
  733MOL0     C 1054  11.146   5.178   7.907 -0.0860 -1.0475 -0.7151
  733MOL0     C 1055  11.199   5.088   8.018  0.1828 -0.1723 -0.7457
  733MOL0     C 1056  11.207   5.138   8.160 -0.5152  0.3806 -0.8322
  733MOL0     C 1057  11.264   5.032   8.264 -0.3614  0.0172  1.5730
  733MOL0     C 1058  11.290   5.100   8.398 -0.7727  0.4683  0.2767
  733MOL0     C 1059  11.269   5.009   8.511 -0.0723  0.3866 -0.2249
  733MOL0     C 1060  11.313   5.069   8.643  0.0242  0.0136  0.6906
  733MOL0    Cl 1061  11.221   4.987   8.776 -0.0414 -0.7150  0.1413
  733MOL0     C 1062  11.244   5.421   7.579  0.0744 -0.1261 -0.1278
  733MOL0     C 1063  11.231   5.404   7.443  0.6683  0.0005 -0.3103
  733MOL0     O 1064  11.096   5.100   7.219  0.3722  0.2935 -0.1702
  733MOL0     C 1065  11.016   5.379   6.997 -1.0442 -0.0440 -0.5011
  733MOL0     C 1066  10.967   5.409   6.882  0.2713  0.2676  0.3474
  733MOL0     N 1067  10.742   5.642   6.402  0.1624  0.1411 -0.2837
  733MOL0     N 1068  10.623   5.675   6.387 -0.1587  0.4701 -0.4985
  733MOL0     C 1069   9.648   5.957   5.364  0.8131 -0.1630 -0.3253
  733MOL0     C 1070   9.552   6.057   5.307  0.5553 -0.0808  0.6814
  733MOL0     C 1071   9.396   6.423   5.143  0.1669 -0.1032  0.3895
  733MOL0     C 1072   9.280   6.449   5.226 -0.1785 -0.4344  0.2207
  733MOL0     C 1073   9.184   6.541   5.190 -0.4817 -0.4142 -0.4826
  733MOL0     C 1074   9.201   6.619   5.080  0.5277 -0.4743  0.0636
  733MOL0     O 1075   9.115   6.719   5.041 -0.0173 -0.0121  0.9700
  733MOL0     C 1076   8.976   6.691   5.044  0.0997  0.7108  0.7607
  733MOL0     C 1077   8.905   6.784   4.941 -0.3272 -0.1169 -0.6181
  733MOL0     C 1078   8.761   6.726   4.907 -0.2650 -0.2313 -0.6542
  733MOL0     C 1079   8.668   6.697   5.023 -0.1619 -0.3823 -0.0449
  733MOL0     C 1080   8.573   6.593   4.976  0.7416 -0.2876 -0.2496
  733MOL0     C 1081   8.497   6.504   4.939  0.6002 -0.5098 -0.1302
  733MOL0     C 1082   9.314   6.598   5.007 -0.4001 -0.6296  0.7496
  733MOL0     C 1083   9.414   6.509   5.031 -0.2896  0.1669  0.0839
  733MOL0     C 1084   9.540   6.511   4.950  1.3749  0.0307 -0.1127
  733MOL0     H 1085   9.682   6.325   5.462 -2.4877 -0.3812 -0.9634
  733MOL0     H 1086   9.859   6.171   5.535  1.8982  0.2998 -2.4878
  733MOL0     H 1087   9.920   5.996   5.639 -3.1226 -1.0131  1.2097
  733MOL0     H 1088  10.051   5.943   5.535 -0.6635  1.5007  0.8845
  733MOL0     H 1089   9.875   5.794   5.731 -1.9372  0.9309 -1.4099
  733MOL0     H 1090   9.979   5.709   5.620 -1.0942  0.7608 -0.2584
  733MOL0     H 1091  10.177   5.836   5.702  0.1787 -0.5330  1.4111
  733MOL0     H 1092  10.062   5.936   5.797  0.3390 -0.4207  0.7082
  733MOL0     H 1093  10.040   5.725   5.953 -1.4262 -2.3205 -2.0569
  733MOL0     H 1094  10.133   5.641   5.837 -0.5166 -0.5026  0.5398
  733MOL0     H 1095  10.237   5.883   5.996  0.8813  0.6292 -0.0431
  733MOL0     H 1096  10.322   5.781   5.879  0.1836 -1.6835  0.8506
  733MOL0     H 1097  10.192   5.675   6.139  1.3194 -1.5017  2.0108
  733MOL0     H 1098  10.271   5.588   6.012 -1.9622 -1.1387  2.9165
  733MOL0     H 1099  10.397   5.810   6.179 -2.8556  0.7634 -4.1165
  733MOL0     H 1100  10.491   5.721   6.060  0.7969 -0.6736 -0.2768
  733MOL0     H 1101  10.382   5.624   6.321  1.0428 -0.2536 -0.2764
  733MOL0     H 1102  10.411   5.507   6.185  1.2146 -0.9644  0.9594
  733MOL0     H 1103  10.671   5.460   6.150  0.9658 -0.2029  0.1740
  733MOL0     H 1104  10.991   5.567   6.254  1.7155 -0.9643  1.7824
  733MOL0     H 1105  10.906   5.418   6.204 -2.4856 -0.9708  0.7074
  733MOL0     H 1106  11.065   5.369   6.385 -0.2468 -0.8728  2.4247
  733MOL0     H 1107  10.983   5.479   6.496 -0.5052  1.4194 -0.3794
  733MOL0     H 1108  10.761   5.325   6.424 -0.7733  0.1159  1.4411
  733MOL0     H 1109  10.888   5.220   6.368 -0.3340 -2.4985  2.5828
  733MOL0     H 1110  10.831   5.155   6.580 -1.8259  2.5365  0.9045
  733MOL0     H 1111  10.995   5.221   6.591  0.5613  2.0592 -0.5241
  733MOL0     H 1112  10.780   5.132   6.827 -1.1367 -1.7651  3.9866
  733MOL0     H 1113  10.790   4.984   6.979 -1.3017  1.0667  1.6395
  733MOL0     H 1114  10.840   5.034   7.144  2.0719 -3.1655  0.7028
  733MOL0     H 1115  10.963   4.973   7.027  0.7940  0.4251 -0.9740
  733MOL0     H 1116  10.941   5.229   7.429 -1.0310  1.0736  1.2079
  733MOL0     H 1117  10.971   5.253   7.675  1.0967 -1.9591 -0.0465
  733MOL0     H 1118  11.316   5.246   7.788  2.1805  3.2634  0.5884
  733MOL0     H 1119  11.299   5.320   7.945  3.2693  1.3027 -3.1923
  733MOL0     H 1120  11.045   5.210   7.937 -1.4229 -2.9431 -2.8449
  733MOL0     H 1121  11.136   5.116   7.818 -0.8421 -1.2762 -0.4819
  733MOL0     H 1122  11.296   5.042   7.998 -0.4980 -2.5404  1.0100
  733MOL0     H 1123  11.129   5.006   8.034  0.9965 -0.9500 -1.0923
  733MOL0     H 1124  11.107   5.167   8.193 -1.4223 -4.1742  1.0825
  733MOL0     H 1125  11.276   5.223   8.161 -3.4181  2.9317 -0.2604
  733MOL0     H 1126  11.179   4.963   8.275 -1.3795  0.0247 -3.5383
  733MOL0     H 1127  11.353   4.975   8.236 -1.2456 -0.3339 -0.7424
  733MOL0     H 1128  11.221   5.179   8.427  3.0364  2.3575  5.6937
  733MOL0     H 1129  11.387   5.150   8.407 -1.0344  0.5569  3.7895
  733MOL0     H 1130  11.329   4.919   8.496 -0.9851 -0.4586  0.9617
  733MOL0     H 1131  11.166   4.972   8.510 -0.0248  0.2548 -1.9050
  733MOL0     H 1132  11.281   5.174   8.634  0.9626  0.2241 -0.3869
  733MOL0     H 1133  11.422   5.057   8.649  0.5577  1.3338 -3.4495
  733MOL0     H 1134  11.323   5.475   7.629 -1.7152  0.6325  2.0242
  733MOL0     H 1135  11.290   5.443   7.361 -1.3595  0.0687 -1.7985
  733MOL0     H 1136  11.077   5.457   7.042 -0.2566 -0.9311 -0.0014
  733MOL0     H 1137  10.974   5.510   6.841 -0.1586 -1.0212 -3.3200
  733MOL0     H 1138   9.622   5.854   5.343 -0.5856 -0.1645  1.2489
  733MOL0     H 1139   9.474   6.018   5.243  2.1077  1.6038 -2.4838
  733MOL0     H 1140   9.256   6.404   5.321  0.7974 -0.0391  0.6673
  733MOL0     H 1141   9.098   6.555   5.254  0.7455 -4.6647  2.5436
  733MOL0     H 1142   8.943   6.587   5.040  1.2499  0.3078  1.3965
  733MOL0     H 1143   8.940   6.729   5.140 -2.3038 -0.6801  0.4915
  733MOL0     H 1144   8.965   6.785   4.850 -2.6306 -1.4317 -2.2552
  733MOL0     H 1145   8.911   6.888   4.971  0.6037  0.1322 -1.6307
  733MOL0     H 1146   8.706   6.795   4.842  0.6562 -0.0343 -1.2512
  733MOL0     H 1147   8.783   6.638   4.845  0.6637  0.0983 -0.7997
  733MOL0     H 1148   8.621   6.787   5.064  3.0772  1.5298 -0.1844
  733MOL0     H 1149   8.729   6.660   5.106 -2.8952 -0.5609  2.0054
  733MOL0     H 1150   8.422   6.430   4.919 -1.1448  0.1669  3.1567
  733MOL0     H 1151   9.326   6.662   4.920 -0.9363 -0.1237  1.0398
  733MOL0     H 1152   9.529   6.599   4.886 -0.2034 -0.5212 -0.6439
  733MOL0     H 1153   9.627   6.510   5.016  1.1306 -5.5773  0.6126
  733MOL0     H 1154   9.541   6.419   4.890 -0.0418 -1.1473  1.5568
  734MOL0     O 1155   4.177   5.283   6.420 -0.3478 -1.3622  0.1132
  734MOL0     C 1156   4.176   5.408   6.406 -0.6158  0.4321 -0.0282
  734MOL0     O 1157   4.086   5.479   6.336  0.4904  0.1776  0.6067
  734MOL0     C 1158   4.004   5.422   6.241  0.5091  0.2576  1.1769
  734MOL0     C 1159   3.920   5.519   6.179 -0.0597  0.3872 -0.3882
  734MOL0     C 1160   3.837   5.479   6.074 -0.4050 -0.1539 -0.1532
  734MOL0     C 1161   3.827   5.348   6.028 -0.3339  0.3139 -0.3925
  734MOL0     O 1162   3.736   5.319   5.925  0.1651 -0.1217 -0.1565
  734MOL0     C 1163   3.784   5.251   5.807 -0.1484  0.8153 -0.4082
  734MOL0     C 1164   3.904   5.341   5.756 -0.2602 -0.0665 -0.6551
  734MOL0     C 1165   3.952   5.330   5.615 -0.0003 -0.4807  0.6900
  734MOL0     C 1166   4.035   5.208   5.581  0.2565  0.5655 -0.4052
  734MOL0     C 1167   4.042   5.188   5.426 -1.3217 -0.1543 -1.5333
  734MOL0     C 1168   4.083   5.048   5.383 -0.6607 -1.0730  0.3443
  734MOL0     C 1169   4.079   5.051   5.229  0.0106 -0.6599 -0.3051
  734MOL0     C 1170   4.087   4.911   5.162  0.0957  0.4694  0.1575
  734MOL0     N 1171   4.227   4.877   5.110  0.0323 -0.7111 -0.1889
  734MOL0     C 1172   4.319   4.793   5.166  0.5633 -0.0104 -0.2486
  734MOL0     C 1173   4.415   4.783   5.080 -0.5978 -0.0725  0.2070
  734MOL0     C 1174   4.522   4.678   5.104 -0.8770  0.2037  0.2117
  734MOL0     C 1175   4.614   4.724   5.220 -0.1315 -0.0288 -0.3259
  734MOL0     C 1176   4.698   4.850   5.186  0.1346  0.2377 -0.8000
  734MOL0     C 1177   4.784   4.902   5.309 -0.2176  1.1114  0.2967
  734MOL0     O 1178   4.892   4.818   5.348 -0.4423  0.5766  0.7631
  734MOL0     C 1179   4.972   4.872   5.444  0.5548  1.2799  1.1326
  734MOL0     C 1180   4.978   5.007   5.484 -0.0143  0.0811  0.0134
  734MOL0     C 1181   5.069   5.039   5.592 -0.0729  1.0250  0.8263
  734MOL0     C 1182   5.097   5.176   5.623 -0.1729  0.1082 -0.4650
  734MOL0     C 1183   5.134   4.935   5.660 -0.4042  0.8611 -0.3371
  734MOL0     C 1184   5.204   4.947   5.792 -0.1677 -0.3455  0.6207
  734MOL0     O 1185   5.318   5.013   5.799 -0.5493  0.3383  0.3308
  734MOL0     C 1186   5.355   5.024   5.928 -0.5740 -0.5051  0.1496
  734MOL0     C 1187   5.407   4.920   6.004 -0.2661  0.6773  0.1043
  734MOL0     C 1188   5.423   4.944   6.138  0.3825 -0.1275 -0.7645
  734MOL0     C 1189   5.429   5.073   6.185 -0.0849 -0.1731  0.1817
  734MOL0     O 1190   5.457   5.096   6.326 -0.2061  0.4439 -0.7785
  734MOL0     C 1191   5.530   5.010   6.414 -0.0912 -1.4031  0.0846
  734MOL0     C 1192   5.592   5.095   6.522 -0.0253 -0.7086  0.2905
  734MOL0     C 1193   5.705   5.190   6.462 -0.3486 -0.4312  0.4120
  734MOL0     C 1194   5.809   5.228   6.569 -0.0088 -0.6595 -0.3535
  734MOL0     C 1195   5.903   5.347   6.537 -1.4989 -0.4183  0.3307
  734MOL0     C 1196   6.010   5.401   6.642 -0.3104  0.5901  0.5348
  734MOL0     C 1197   6.117   5.303   6.682 -0.5122 -0.4725 -0.1718
  734MOL0     C 1198   6.194   5.373   6.812 -0.1689 -0.0053  0.1344
  734MOL0    Cl 1199   6.273   5.529   6.758  0.1275  0.5073  0.1705
  734MOL0     C 1200   5.397   5.172   6.098 -0.3131 -0.1642  0.2384
  734MOL0     C 1201   5.363   5.154   5.974 -0.0584  0.0904  0.3385
  734MOL0     O 1202   5.137   4.904   5.885  0.4272 -0.7827 -0.2426
  734MOL0     C 1203   5.118   4.802   5.621  0.4053 -0.3596  0.6061
  734MOL0     C 1204   5.044   4.770   5.514 -0.1374  0.5263 -0.2508
  734MOL0     N 1205   4.400   4.871   4.981  0.0131  0.1196  0.5570
  734MOL0     N 1206   4.276   4.914   4.992 -0.1625  0.4347 -0.5041
  734MOL0     C 1207   3.914   5.253   6.088  0.2610  0.7778  0.6737
  734MOL0     C 1208   4.008   5.293   6.186  0.5845  0.4912 -0.4524
  734MOL0     C 1209   4.298   5.485   6.476  0.2858  0.3799 -0.6614
  734MOL0     C 1210   4.387   5.412   6.555  0.4293 -0.1676  0.1878
  734MOL0     C 1211   4.501   5.464   6.606 -0.3725  0.0689  0.8039
  734MOL0     C 1212   4.537   5.596   6.579 -0.1445 -0.8167  0.2671
  734MOL0     O 1213   4.653   5.650   6.632 -0.3056 -0.1765  0.0240
  734MOL0     C 1214   4.745   5.662   6.515  0.4486  0.7422 -0.6521
  734MOL0     C 1215   4.753   5.797   6.443 -0.6676 -0.5972 -0.0837
  734MOL0     C 1216   4.885   5.803   6.366  0.5951  0.4539 -0.7962
  734MOL0     C 1217   4.903   5.923   6.265  0.6909  0.9482  0.3739
  734MOL0     C 1218   4.831   6.048   6.295  0.0794  0.1185 -0.5978
  734MOL0     C 1219   4.755   6.136   6.327 -0.0244 -0.4151 -0.1041
  734MOL0     C 1220   4.443   5.681   6.520 -0.0413  0.4202 -0.0772
  734MOL0     C 1221   4.328   5.620   6.457  0.1561  0.4492  0.6908
  734MOL0     C 1222   4.219   5.711   6.396  0.0653 -0.0902  0.4676
  734MOL0     H 1223   3.919   5.622   6.215  2.4936  0.6855 -0.9716
  734MOL0     H 1224   3.757   5.539   6.031 -0.3173 -0.2355 -0.4332
  734MOL0     H 1225   3.711   5.243   5.726  0.2696  1.9718 -0.9185
  734MOL0     H 1226   3.818   5.150   5.832  0.7831  0.5179 -2.6582
  734MOL0     H 1227   3.869   5.445   5.764 -0.2968  0.1871 -3.3231
  734MOL0     H 1228   3.979   5.316   5.831 -1.6193  0.5206  0.9555
  734MOL0     H 1229   3.864   5.350   5.553  0.5873  2.3017  0.6039
  734MOL0     H 1230   4.012   5.421   5.598 -1.3032  0.4776  1.0615
  734MOL0     H 1231   4.131   5.218   5.631 -0.1465 -1.5629  0.9436
  734MOL0     H 1232   3.998   5.115   5.625  3.6948 -1.2280 -1.0004
  734MOL0     H 1233   4.109   5.266   5.390  0.6030 -0.7614  0.5180
  734MOL0     H 1234   3.945   5.210   5.380 -1.8467 -0.7227 -0.7340
  734MOL0     H 1235   4.182   5.020   5.421  0.5985  1.5733 -0.6802
  734MOL0     H 1236   4.011   4.976   5.422 -0.5922 -0.7392  1.1030
  734MOL0     H 1237   4.162   5.110   5.189  0.1157 -1.1011 -0.7443
  734MOL0     H 1238   3.980   5.089   5.199  0.5489  2.4323  1.3341
  734MOL0     H 1239   4.052   4.838   5.235 -0.3049  0.4610 -0.0382
  734MOL0     H 1240   4.023   4.900   5.074  0.7344  1.4250 -0.4499
  734MOL0     H 1241   4.318   4.745   5.264 -0.5060  2.9176  1.2823
  734MOL0     H 1242   4.578   4.667   5.011 -1.4773 -0.3740 -0.0850
  734MOL0     H 1243   4.474   4.585   5.136 -1.7165  1.3413  2.4774
  734MOL0     H 1244   4.551   4.744   5.307 -0.2081 -0.0068 -0.3862
  734MOL0     H 1245   4.687   4.647   5.248 -0.8578 -0.2189  1.1647
  734MOL0     H 1246   4.743   4.829   5.089  1.3798 -0.6524 -0.0653
  734MOL0     H 1247   4.621   4.927   5.174  0.0043  0.5095  1.2533
  734MOL0     H 1248   4.817   5.001   5.278  2.2849  0.7302  1.5137
  734MOL0     H 1249   4.724   4.922   5.398 -0.5644 -2.2710  0.9588
  734MOL0     H 1250   4.917   5.084   5.438  0.3345  0.7447  0.6316
  734MOL0     H 1251   5.148   5.224   5.539  1.3995  0.5937  0.7181
  734MOL0     H 1252   5.156   5.183   5.715  0.7725 -1.8300 -0.8680
  734MOL0     H 1253   4.999   5.222   5.637  0.3511  1.9026 -2.2911
  734MOL0     H 1254   5.408   4.815   5.979 -0.1332  1.1799 -2.2290
  734MOL0     H 1255   5.439   4.864   6.210  3.8266  1.7292  0.7855
  734MOL0     H 1256   5.456   4.939   6.451 -1.6283 -0.5281 -1.1531
  734MOL0     H 1257   5.615   4.957   6.370  0.5074  0.1225 -0.6977
  734MOL0     H 1258   5.514   5.148   6.579 -1.0665 -2.5505  0.6535
  734MOL0     H 1259   5.637   5.024   6.592  2.6597  0.3924 -0.2086
  734MOL0     H 1260   5.657   5.278   6.419  0.6832 -0.7036 -1.3983
  734MOL0     H 1261   5.755   5.140   6.379 -2.3177 -0.0938 -1.0338
  734MOL0     H 1262   5.868   5.139   6.591 -3.2404 -2.9122 -0.0263
  734MOL0     H 1263   5.752   5.258   6.657  1.3315  3.8549 -0.7818
  734MOL0     H 1264   5.965   5.317   6.452  0.8996  1.9645  1.0958
  734MOL0     H 1265   5.847   5.432   6.497 -0.7486  0.0699  0.2830
  734MOL0     H 1266   5.960   5.448   6.727 -0.0250  1.0162  0.4684
  734MOL0     H 1267   6.067   5.483   6.596  1.6795  0.0779  1.9742
  734MOL0     H 1268   6.180   5.284   6.594 -0.2334  0.4104 -0.1741
  734MOL0     H 1269   6.061   5.213   6.708 -2.9092  1.1326  0.5446
  734MOL0     H 1270   6.270   5.298   6.835 -0.9745 -0.8871  0.0174
  734MOL0     H 1271   6.128   5.384   6.898 -0.1878 -2.5506  0.5328
  734MOL0     H 1272   5.407   5.271   6.142  0.1321  0.3815 -1.0457
  734MOL0     H 1273   5.347   5.233   5.902 -1.4274  2.0605  2.6332
  734MOL0     H 1274   5.150   4.714   5.676  0.6207  0.7628  2.3652
  734MOL0     H 1275   5.034   4.664   5.493  2.1562  0.5389 -1.6580
  734MOL0     H 1276   3.913   5.149   6.058 -3.8370  0.3195  1.8145
  734MOL0     H 1277   4.071   5.209   6.214 -0.2713 -0.1576 -0.4099
  734MOL0     H 1278   4.367   5.306   6.569 -1.3391  0.2673  1.3246
  734MOL0     H 1279   4.565   5.412   6.676  0.7084  2.1485  1.4548
  734MOL0     H 1280   4.841   5.630   6.558 -0.9477 -2.7010  0.2463
  734MOL0     H 1281   4.716   5.589   6.440  0.9144  1.4988 -1.5954
  734MOL0     H 1282   4.739   5.871   6.522 -1.4753  1.2664 -1.8930
  734MOL0     H 1283   4.671   5.812   6.372 -1.4322  0.3296  0.9587
  734MOL0     H 1284   4.971   5.795   6.434  1.6192 -7.0224 -2.1253
  734MOL0     H 1285   4.907   5.711   6.311 -2.0646 -1.0848  0.5296
  734MOL0     H 1286   4.874   5.885   6.166  1.2856  0.2874  0.4484
  734MOL0     H 1287   5.009   5.947   6.253  1.0752 -1.3540 -1.8136
  734MOL0     H 1288   4.681   6.205   6.362  2.9314  1.9049  2.1448
  734MOL0     H 1289   4.448   5.789   6.516 -2.5563  0.6088 -0.2738
  734MOL0     H 1290   4.174   5.685   6.300  1.1184 -1.5677  0.3321
  734MOL0     H 1291   4.137   5.724   6.466  0.4734  3.1191  0.4969
  734MOL0     H 1292   4.250   5.815   6.382 -1.0497  0.1228 -0.6466
  735MOL0     O 1293   6.168   7.349   7.054 -0.3963 -0.1630 -0.3335
  735MOL0     C 1294   6.155   7.275   6.959  0.5181 -0.0473 -0.8208
  735MOL0     O 1295   6.037   7.214   6.928  0.2504 -0.8122  0.2071
  735MOL0     C 1296   5.923   7.278   6.964 -0.0110  0.3849 -0.6903
  735MOL0     C 1297   5.860   7.368   6.878  0.9552  0.3755  0.3152
  735MOL0     C 1298   5.726   7.406   6.906  0.7690  0.2874 -0.5620
  735MOL0     C 1299   5.659   7.366   7.020  0.0585  0.3242 -0.5075
  735MOL0     O 1300   5.535   7.425   7.034 -0.5134  0.8109 -0.0902
  735MOL0     C 1301   5.454   7.383   7.147 -0.5493  0.1762  0.9375
  735MOL0     C 1302   5.309   7.444   7.136  0.1098 -1.3325  0.1210
  735MOL0     C 1303   5.210   7.399   7.244  0.1062  0.0789  0.6636
  735MOL0     C 1304   5.242   7.455   7.382  0.6758  0.1940 -0.6095
  735MOL0     C 1305   5.116   7.432   7.477  0.3129 -0.2542 -0.1543
  735MOL0     C 1306   5.078   7.292   7.520  0.4197 -0.7771  0.4872
  735MOL0     C 1307   5.193   7.213   7.574 -0.1935 -0.2007  0.2997
  735MOL0     C 1308   5.153   7.067   7.597  0.0631  0.6077 -0.3208
  735MOL0     N 1309   5.104   6.989   7.483  0.0735 -0.4389  0.1763
  735MOL0     C 1310   5.183   6.939   7.380 -0.1665  0.2055  2.1031
  735MOL0     C 1311   5.091   6.902   7.284  0.4707  0.1150  0.8702
  735MOL0     C 1312   5.120   6.824   7.150 -0.0393 -0.3979 -0.0925
  735MOL0     C 1313   5.052   6.903   7.029 -0.2258 -0.8573  0.5430
  735MOL0     C 1314   5.092   7.054   7.013 -0.4034  0.8555  0.1178
  735MOL0     C 1315   5.225   7.077   6.943 -0.0108  0.5330 -0.0237
  735MOL0     O 1316   5.338   7.033   7.014  0.0700  0.2862 -0.5534
  735MOL0     C 1317   5.458   7.019   6.943  0.3635  0.2255  0.1398
  735MOL0     C 1318   5.543   6.913   6.993 -0.0415 -0.7459  0.8370
  735MOL0     C 1319   5.666   6.886   6.919  0.3208 -1.2008  0.3836
  735MOL0     C 1320   5.758   6.783   6.977  0.2386 -0.7202 -0.4019
  735MOL0     C 1321   5.704   6.969   6.809 -0.1906 -0.2370 -0.8394
  735MOL0     C 1322   5.832   6.971   6.732  0.0406  0.8254 -0.1828
  735MOL0     O 1323   5.830   7.035   6.610  0.3420 -0.1768  0.8414
  735MOL0     C 1324   5.946   7.059   6.542 -1.0208  0.2055 -0.7348
  735MOL0     C 1325   6.023   7.172   6.586 -0.2958  0.6199  0.1936
  735MOL0     C 1326   6.138   7.207   6.509  0.1837 -0.4385  0.1689
  735MOL0     C 1327   6.184   7.135   6.398  0.0759 -0.5611 -0.3479
  735MOL0     O 1328   6.288   7.165   6.312  0.2430 -0.7176 -0.2329
  735MOL0     C 1329   6.382   7.264   6.371  0.9023  0.0109  0.1507
  735MOL0     C 1330   6.504   7.259   6.271 -0.5896  0.0034  0.0828
  735MOL0     C 1331   6.456   7.290   6.126 -0.0535  0.3631 -0.6910
  735MOL0     C 1332   6.577   7.261   6.042 -0.5029  0.1148  0.5807
  735MOL0     C 1333   6.523   7.261   5.895  0.2106 -0.5138  0.3324
  735MOL0     C 1334   6.647   7.233   5.810 -0.2465  0.1737 -0.6639
  735MOL0     C 1335   6.698   7.089   5.829 -0.2631 -1.0740 -0.0720
  735MOL0     C 1336   6.845   7.082   5.894 -0.2637 -0.4384 -0.4472
  735MOL0    Cl 1337   6.893   6.918   5.944  0.0881 -0.2443  0.0914
  735MOL0     C 1338   6.107   7.019   6.362 -0.0936  0.0568 -0.1553
  735MOL0     C 1339   5.993   6.982   6.435  0.0060 -0.7014 -0.0544
  735MOL0     O 1340   5.933   6.921   6.785 -0.2590  0.3863 -0.3669
  735MOL0     C 1341   5.608   7.069   6.769  0.0056  0.3570 -0.4686
  735MOL0     C 1342   5.484   7.100   6.834 -0.4764 -0.6040 -0.4017
  735MOL0     N 1343   4.967   6.942   7.328 -0.7462 -0.4987  0.4637
  735MOL0     N 1344   4.979   6.976   7.449  0.1203  0.0922  0.2736
  735MOL0     C 1345   5.725   7.271   7.106 -0.5942 -0.0375  0.0590
  735MOL0     C 1346   5.856   7.232   7.074  0.5638 -0.4609 -0.6955
  735MOL0     C 1347   6.272   7.249   6.875  0.0280  0.4873 -0.6032
  735MOL0     C 1348   6.275   7.117   6.806  1.0217  0.0815 -0.0433
  735MOL0     C 1349   6.388   7.072   6.736 -0.5475 -0.8700 -0.1656
  735MOL0     C 1350   6.498   7.157   6.733 -0.5036 -0.3520 -0.2853
  735MOL0     O 1351   6.613   7.101   6.676  0.1061 -0.2935 -1.6020
  735MOL0     C 1352   6.717   7.189   6.629 -0.2377  0.1426 -0.8535
  735MOL0     C 1353   6.836   7.095   6.590  0.2761  0.1871  0.8568
  735MOL0     C 1354   6.798   6.993   6.475 -0.9411  0.6470 -0.2657
  735MOL0     C 1355   6.924   6.916   6.421 -0.3597  0.7993 -0.1111
  735MOL0     C 1356   6.883   6.812   6.338  0.0744  0.3436  0.1639
  735MOL0     C 1357   6.831   6.735   6.264 -0.5178 -0.5884  0.4802
  735MOL0     C 1358   6.501   7.286   6.792 -0.1436  0.1361 -0.2055
  735MOL0     C 1359   6.387   7.330   6.862 -0.1731  0.0705  0.1497
  735MOL0     C 1360   6.394   7.467   6.911  0.0866  0.2844  0.2667
  735MOL0     H 1361   5.914   7.387   6.786 -2.4383 -2.5848 -2.6082
  735MOL0     H 1362   5.675   7.464   6.830 -0.1570  0.1349 -0.0629
  735MOL0     H 1363   5.508   7.406   7.239 -1.6076 -3.1424  2.5103
  735MOL0     H 1364   5.441   7.275   7.133 -2.6294  0.4030  0.7763
  735MOL0     H 1365   5.314   7.553   7.134 -0.4661 -1.3069 -1.3508
  735MOL0     H 1366   5.275   7.407   7.039  2.6779 -2.4344 -0.4441
  735MOL0     H 1367   5.107   7.422   7.216 -0.8546 -1.6144  2.5505
  735MOL0     H 1368   5.213   7.289   7.244 -2.5488 -0.0862  2.5115
  735MOL0     H 1369   5.333   7.404   7.416  0.0714 -0.5714 -0.0986
  735MOL0     H 1370   5.261   7.563   7.384  0.0312  0.3050  0.7676
  735MOL0     H 1371   5.026   7.484   7.443  1.0355 -0.4083 -2.4357
  735MOL0     H 1372   5.145   7.482   7.570  0.4724  0.8336 -0.7739
  735MOL0     H 1373   5.000   7.293   7.597 -1.0474  0.6112 -0.9166
  735MOL0     H 1374   5.039   7.247   7.428  1.2630  0.5183 -0.5481
  735MOL0     H 1375   5.235   7.262   7.663  2.9401 -1.0776 -0.5682
  735MOL0     H 1376   5.262   7.219   7.490 -2.5533 -1.0486 -1.8227
  735MOL0     H 1377   5.241   7.013   7.634 -0.7427 -0.1624  0.5231
  735MOL0     H 1378   5.083   7.057   7.681  1.4560  2.4167  1.1413
  735MOL0     H 1379   5.290   6.925   7.369 -0.3567  0.2349 -0.4469
  735MOL0     H 1380   5.071   6.726   7.158 -1.6400  0.4800  1.8401
  735MOL0     H 1381   5.227   6.821   7.130 -0.3919  1.2140 -2.6654
  735MOL0     H 1382   5.059   6.847   6.936 -3.4684 -0.0295 -0.3394
  735MOL0     H 1383   4.943   6.903   7.039 -0.3571  1.1284 -0.3381
  735MOL0     H 1384   5.006   7.084   6.952  0.4365 -2.1462 -2.8274
  735MOL0     H 1385   5.090   7.108   7.108  0.2175  0.2524  0.4909
  735MOL0     H 1386   5.223   7.030   6.844 -2.8256 -3.0106  1.4891
  735MOL0     H 1387   5.228   7.185   6.926 -3.2253  0.7226 -0.0159
  735MOL0     H 1388   5.513   6.856   7.081  3.2044 -1.1656  1.8212
  735MOL0     H 1389   5.839   6.846   7.013  0.7021 -0.8692 -1.1614
  735MOL0     H 1390   5.786   6.709   6.901 -0.7935  1.1040 -2.7054
  735MOL0     H 1391   5.710   6.729   7.059  2.4708 -0.2336  1.2982
  735MOL0     H 1392   5.997   7.231   6.673 -3.0798 -2.1339  1.4163
  735MOL0     H 1393   6.202   7.286   6.546 -1.9902  1.2391  0.5924
  735MOL0     H 1394   6.336   7.363   6.363 -2.8644 -1.5037  0.7969
  735MOL0     H 1395   6.404   7.227   6.471 -0.0092 -3.0157 -0.6428
  735MOL0     H 1396   6.578   7.336   6.295 -0.4779 -0.3213  0.7892
  735MOL0     H 1397   6.547   7.159   6.276 -0.7424 -0.1098 -0.7510
  735MOL0     H 1398   6.419   7.392   6.121  1.7625  1.1935  1.1430
  735MOL0     H 1399   6.379   7.214   6.109  0.7721 -0.9979  1.2913
  735MOL0     H 1400   6.612   7.160   6.067 -3.3520 -0.9976  0.4636
  735MOL0     H 1401   6.661   7.331   6.047 -0.0397 -0.2516 -1.2783
  735MOL0     H 1402   6.450   7.182   5.876 -4.4693  3.1168  1.1951
  735MOL0     H 1403   6.476   7.358   5.875  1.1593  0.3275  1.9035
  735MOL0     H 1404   6.730   7.304   5.813 -0.0441 -0.0140 -1.5878
  735MOL0     H 1405   6.610   7.236   5.708 -0.3602  3.6941 -0.6499
  735MOL0     H 1406   6.715   7.054   5.727 -1.7269  1.7662 -1.4063
  735MOL0     H 1407   6.629   7.029   5.890  2.4848 -0.5987  3.8527
  735MOL0     H 1408   6.857   7.144   5.983 -0.1030 -0.1652 -0.6567
  735MOL0     H 1409   6.908   7.113   5.810 -0.3768 -2.7037 -1.4560
  735MOL0     H 1410   6.139   6.961   6.277 -1.3426  0.5507 -0.9837
  735MOL0     H 1411   5.936   6.899   6.396  3.1003 -1.7258 -2.7755
  735MOL0     H 1412   5.643   7.133   6.689  1.1155  2.0271  1.2475
  735MOL0     H 1413   5.421   7.176   6.790  0.7054 -0.6973 -2.3763
  735MOL0     H 1414   5.682   7.218   7.191  2.2411 -0.6789  1.1965
  735MOL0     H 1415   5.901   7.154   7.135 -0.6879  0.7343  1.9054
  735MOL0     H 1416   6.187   7.054   6.811  0.8150  0.3552 -0.2332
  735MOL0     H 1417   6.389   6.982   6.676 -2.3950 -1.3686  0.4622
  735MOL0     H 1418   6.688   7.243   6.538  0.3509 -2.0471 -2.4252
  735MOL0     H 1419   6.751   7.260   6.705  0.3664 -1.4088  0.3677
  735MOL0     H 1420   6.858   7.038   6.681 -2.4417 -0.7766  1.0092
  735MOL0     H 1421   6.928   7.145   6.559 -0.0697 -0.7116 -1.9092
  735MOL0     H 1422   6.739   6.915   6.522  1.2527 -0.3050  1.0682
  735MOL0     H 1423   6.738   7.045   6.399  0.2204  1.2435 -0.8138
  735MOL0     H 1424   6.973   6.877   6.511 -2.7225  1.2325  1.4445
  735MOL0     H 1425   6.988   6.988   6.369  1.1251  0.3564  1.0162
  735MOL0     H 1426   6.783   6.657   6.208 -3.1213  0.1160  1.5518
  735MOL0     H 1427   6.586   7.353   6.783  0.0215  0.2506  1.8678
  735MOL0     H 1428   6.439   7.471   7.011 -0.2214  1.2064  0.3776
  735MOL0     H 1429   6.467   7.523   6.853 -0.0759 -0.1342 -0.3485
  735MOL0     H 1430   6.294   7.506   6.934 -1.6929 -3.4262 -0.3579
  736MOL0     O 1431   7.568  10.730   8.883 -0.3504 -0.0952  0.5546
  736MOL0     C 1432   7.678  10.707   8.930  0.7510 -0.2823  0.0796
  736MOL0     O 1433   7.795  10.678   8.859 -0.0619  0.3282 -0.0811
  736MOL0     C 1434   7.806  10.654   8.720 -0.0712 -0.4790  0.1428
  736MOL0     C 1435   7.704  10.597   8.649  0.3931  1.3583  1.1503
  736MOL0     C 1436   7.711  10.561   8.513 -0.5373  0.1878  0.7915
  736MOL0     C 1437   7.829  10.588   8.447  0.4505  0.0235 -0.7717
  736MOL0     O 1438   7.853  10.554   8.322 -0.5253  0.4428  0.2230
  736MOL0     C 1439   7.756  10.495   8.239  0.2793 -0.1772 -0.4304
  736MOL0     C 1440   7.826  10.440   8.104  0.0480 -0.5326  0.8498
  736MOL0     C 1441   7.720  10.404   7.988 -0.5490 -0.0729 -0.1112
  736MOL0     C 1442   7.808  10.345   7.873 -0.5281  0.1993  0.3962
  736MOL0     C 1443   7.770  10.381   7.733 -0.1836 -0.3612  0.0341
  736MOL0     C 1444   7.638  10.320   7.685 -0.1851  0.0128  0.5024
  736MOL0     C 1445   7.603  10.360   7.536  0.5909  0.0336  0.7380
  736MOL0     C 1446   7.477  10.285   7.490  0.1042  0.8584  0.1197
  736MOL0     N 1447   7.479  10.260   7.343  0.1242  0.6288  0.4847
  736MOL0     C 1448   7.491  10.350   7.241 -0.9925  0.2783  0.5337
  736MOL0     C 1449   7.473  10.281   7.130 -0.1337  0.2567 -0.1169
  736MOL0     C 1450   7.468  10.336   6.985  0.0663  0.7805 -0.3112
  736MOL0     C 1451   7.591  10.425   6.958  0.7819  0.3616  0.3270
  736MOL0     C 1452   7.573  10.572   6.994 -0.9942 -0.4298  0.3231
  736MOL0     C 1453   7.655  10.659   6.914  0.3874  0.2149  0.0286
  736MOL0     O 1454   7.788  10.661   6.966 -0.7500 -0.4066 -0.2385
  736MOL0     C 1455   7.883  10.729   6.889  0.1994  0.4707 -0.6966
  736MOL0     C 1456   7.951  10.833   6.940  0.2481 -1.5179 -0.3747
  736MOL0     C 1457   8.059  10.895   6.873  0.3261  0.8225  0.2207
  736MOL0     C 1458   8.122  11.010   6.946  0.4087 -0.2103  0.2470
  736MOL0     C 1459   8.080  10.859   6.735  0.5153 -0.4861 -0.1944
  736MOL0     C 1460   8.174  10.926   6.650 -0.3267 -1.5307 -0.4787
  736MOL0     O 1461   8.155  10.921   6.519 -0.8863  0.3043 -0.4491
  736MOL0     C 1462   8.239  11.001   6.452  0.8482 -0.3033  0.6327
  736MOL0     C 1463   8.324  10.942   6.356 -0.6005 -0.1180  0.4646
  736MOL0     C 1464   8.396  11.017   6.260 -0.1965  0.1076  0.5489
  736MOL0     C 1465   8.393  11.155   6.269 -0.2854 -0.5300 -0.6827
  736MOL0     O 1466   8.474  11.239   6.188  0.8710  1.0796 -0.8058
  736MOL0     C 1467   8.571  11.174   6.113 -0.1844  0.5488 -0.8999
  736MOL0     C 1468   8.665  11.266   6.051 -0.5816 -1.1661  0.5966
  736MOL0     C 1469   8.608  11.338   5.925  0.6773 -0.2173 -0.8009
  736MOL0     C 1470   8.715  11.418   5.850 -0.3942 -0.1305 -0.4938
  736MOL0     C 1471   8.705  11.421   5.698  0.6169 -0.1877 -1.0742
  736MOL0     C 1472   8.851  11.423   5.626 -0.4924  0.3518 -0.4858
  736MOL0     C 1473   8.829  11.448   5.473  0.2534 -1.4870  0.1765
  736MOL0     C 1474   8.903  11.353   5.387 -0.6462 -0.5321 -0.8998
  736MOL0    Cl 1475   9.077  11.383   5.409 -0.0163  0.2610  0.1852
  736MOL0     C 1476   8.312  11.218   6.366 -0.3293 -0.2455  0.2605
  736MOL0     C 1477   8.235  11.137   6.451  0.3047  0.2749  0.1913
  736MOL0     O 1478   8.281  10.966   6.708 -0.1848  0.1905  0.0128
  736MOL0     C 1479   8.009  10.749   6.683  0.1790  0.0396  0.0861
  736MOL0     C 1480   7.906  10.683   6.756 -0.6467  0.0750  0.0759
  736MOL0     N 1481   7.441  10.150   7.160 -0.0234  0.0131 -0.3552
  736MOL0     N 1482   7.442  10.144   7.284  0.1850  0.6491  0.0472
  736MOL0     C 1483   7.932  10.648   8.521 -1.0210  0.6407  0.2874
  736MOL0     C 1484   7.927  10.688   8.650  0.0266 -0.4761 -0.1924
  736MOL0     C 1485   7.693  10.754   9.070  0.5994 -0.0258 -0.1440
  736MOL0     C 1486   7.581  10.800   9.137  0.4874  0.1239  0.2732
  736MOL0     C 1487   7.588  10.842   9.268 -0.5770  0.6368  0.3914
  736MOL0     C 1488   7.713  10.848   9.335 -0.1431 -0.1695  0.0055
  736MOL0     O 1489   7.740  10.887   9.463  0.4282  0.4394 -0.4302
  736MOL0     C 1490   7.660  10.988   9.525  0.0331 -0.3464  0.0473
  736MOL0     C 1491   7.740  11.036   9.646  1.0299 -0.3886  0.1935
  736MOL0     C 1492   7.673  11.169   9.692 -0.6327 -0.6538  0.0844
  736MOL0     C 1493   7.523  11.162   9.725 -0.2030 -0.5658  0.1693
  736MOL0     C 1494   7.485  11.058   9.821 -0.1784  1.0267  0.2573
  736MOL0     C 1495   7.450  10.975   9.900  0.1439  0.1775  0.7534
  736MOL0     C 1496   7.825  10.802   9.272 -0.1114 -0.8873  0.5887
  736MOL0     C 1497   7.814  10.745   9.146 -0.6296  0.3396 -0.2408
  736MOL0     C 1498   7.946  10.689   9.088  0.2695  0.0190 -0.3973
  736MOL0     H 1499   7.607  10.573   8.691  0.7174  1.3597  1.9156
  736MOL0     H 1500   7.616  10.531   8.468  0.4574 -0.1103 -1.2334
  736MOL0     H 1501   7.682  10.572   8.215 -0.2870 -0.3438  0.7022
  736MOL0     H 1502   7.708  10.412   8.291  0.6662 -0.5594 -0.6842
  736MOL0     H 1503   7.890  10.521   8.068 -2.2380  0.3338 -1.6016
  736MOL0     H 1504   7.878  10.348   8.132 -0.6306 -0.3831  2.7410
  736MOL0     H 1505   7.652  10.331   8.033 -1.6442  1.4296  0.7794
  736MOL0     H 1506   7.659  10.491   7.963 -0.2797  0.4382  0.9567
  736MOL0     H 1507   7.911  10.382   7.880 -0.5139  0.4057 -0.7443
  736MOL0     H 1508   7.810  10.236   7.883 -0.8829  0.1960  0.4407
  736MOL0     H 1509   7.853  10.354   7.667  1.7441  0.6292  1.9161
  736MOL0     H 1510   7.767  10.490   7.735 -1.9945 -0.3557 -1.0164
  736MOL0     H 1511   7.648  10.212   7.698 -2.1503 -0.0234  2.1805
  736MOL0     H 1512   7.565  10.347   7.762 -1.1281  0.6561 -0.5821
  736MOL0     H 1513   7.677  10.334   7.459 -1.0523 -0.8865 -0.5935
  736MOL0     H 1514   7.589  10.468   7.543  0.0049 -0.1550  3.7077
  736MOL0     H 1515   7.472  10.187   7.537  3.3927  1.0703  1.1039
  736MOL0     H 1516   7.390  10.345   7.520 -1.9471 -1.3011 -1.1049
  736MOL0     H 1517   7.514  10.456   7.240  4.0322 -0.3573 -4.3041
  736MOL0     H 1518   7.386  10.409   6.986  0.2198  0.9609 -0.6095
  736MOL0     H 1519   7.452  10.254   6.915 -2.0144  0.9132 -0.0560
  736MOL0     H 1520   7.685  10.399   7.009  1.2430  1.3075 -0.0299
  736MOL0     H 1521   7.619  10.415   6.853  1.9029  1.9246  0.4400
  736MOL0     H 1522   7.471  10.607   6.977 -0.6399  2.2585  3.0378
  736MOL0     H 1523   7.609  10.590   7.095  1.0185 -1.2320 -0.1918
  736MOL0     H 1524   7.648  10.635   6.807  2.4937  2.1456 -0.6171
  736MOL0     H 1525   7.622  10.762   6.929 -1.1148 -0.2212 -0.0491
  736MOL0     H 1526   7.923  10.868   7.039 -2.4181  1.9039 -2.1037
  736MOL0     H 1527   8.094  11.108   6.905  0.7417 -0.9755 -1.9379
  736MOL0     H 1528   8.231  11.005   6.946  0.7103  2.9562 -1.8009
  736MOL0     H 1529   8.075  11.015   7.044 -3.9610  0.7677 -1.6353
  736MOL0     H 1530   8.337  10.834   6.360  1.1808 -0.1684 -2.8632
  736MOL0     H 1531   8.452  10.958   6.188 -0.0621  0.1172  0.6463
  736MOL0     H 1532   8.635  11.116   6.181  2.0308 -0.2871 -3.5242
  736MOL0     H 1533   8.533  11.099   6.044  1.3285 -3.1021  1.8535
  736MOL0     H 1534   8.690  11.336   6.131  1.0826  0.1544 -0.9718
  736MOL0     H 1535   8.760  11.217   6.025  1.9383  3.1818  0.5767
  736MOL0     H 1536   8.533  11.412   5.954 -1.0267 -1.5136 -1.7665
  736MOL0     H 1537   8.559  11.262   5.864  0.9222 -2.4460  1.5609
  736MOL0     H 1538   8.816  11.379   5.861 -1.3348 -2.8626 -0.6231
  736MOL0     H 1539   8.705  11.524   5.876 -0.0750 -0.1100 -0.4586
  736MOL0     H 1540   8.655  11.335   5.654 -0.9829  0.1399 -0.0005
  736MOL0     H 1541   8.645  11.507   5.666 -0.1710 -1.2050 -2.4518
  736MOL0     H 1542   8.914  11.334   5.632 -1.7095 -0.4405  3.6839
  736MOL0     H 1543   8.917  11.498   5.671  1.1888  0.9224 -3.6142
  736MOL0     H 1544   8.831  11.556   5.453 -3.0837 -1.3639 -0.1622
  736MOL0     H 1545   8.728  11.421   5.440  1.3115 -2.0225 -3.0158
  736MOL0     H 1546   8.870  11.367   5.284 -3.4908 -0.6434 -0.0869
  736MOL0     H 1547   8.885  11.250   5.419  0.0139 -0.4434 -0.2169
  736MOL0     H 1548   8.317  11.326   6.376  3.3879 -0.2184 -0.5112
  736MOL0     H 1549   8.167  11.184   6.521 -1.5409 -0.3664 -1.0850
  736MOL0     H 1550   8.013  10.694   6.590 -0.4376 -4.6209  2.5199
  736MOL0     H 1551   7.845  10.598   6.726 -0.5598  0.1094 -0.2044
  736MOL0     H 1552   8.029  10.669   8.476 -0.5385 -0.5911  0.6906
  736MOL0     H 1553   8.014  10.731   8.700  0.1048  0.7865 -1.3645
  736MOL0     H 1554   7.484  10.797   9.090  1.5081 -0.5892 -1.9355
  736MOL0     H 1555   7.499  10.851   9.329 -0.3376  0.8324  0.7136
  736MOL0     H 1556   7.642  11.075   9.462 -1.7142  0.4109  1.4812
  736MOL0     H 1557   7.561  10.947   9.549 -0.7597  0.3066 -1.9112
  736MOL0     H 1558   7.846  11.050   9.624  0.3671  1.1702 -2.4329
  736MOL0     H 1559   7.731  10.955   9.720  2.6286 -1.1319 -0.3715
  736MOL0     H 1560   7.732  11.220   9.769  0.4728 -2.0616  0.1880
  736MOL0     H 1561   7.676  11.244   9.612  1.1658  1.7469  2.2479
  736MOL0     H 1562   7.468  11.150   9.630  2.1188 -4.3187 -0.9322
  736MOL0     H 1563   7.488  11.256   9.768 -1.3759 -0.4947 -0.8559
  736MOL0     H 1564   7.432  10.924   9.993 -0.7007 -0.8808  0.0246
  736MOL0     H 1565   7.914  10.796   9.333  1.0201  0.1546 -0.8776
  736MOL0     H 1566   7.988  10.737   9.000  1.8155 -3.0891 -1.4902
  736MOL0     H 1567   8.028  10.700   9.161  0.5978  2.0045 -1.0041
  736MOL0     H 1568   7.926  10.588   9.052  1.1660 -1.4891  2.8882
  737MOL0     O 1569   5.547   8.173   3.273 -0.0482 -0.2142  0.2797
  737MOL0     C 1570   5.490   8.282   3.241  0.6422 -0.2190  0.7338
  737MOL0     O 1571   5.552   8.404   3.209 -0.1176  1.0819 -0.3771
  737MOL0     C 1572   5.688   8.412   3.220  0.4148  0.2927  0.5608
  737MOL0     C 1573   5.741   8.536   3.248 -0.1494 -0.1533 -0.0912
  737MOL0     C 1574   5.872   8.565   3.257  0.2606 -0.5425  0.9338
  737MOL0     C 1575   5.961   8.458   3.249  0.2119  0.1591  0.0513
  737MOL0     O 1576   6.099   8.459   3.264  0.6318 -0.3727  0.1933
  737MOL0     C 1577   6.146   8.557   3.355 -0.3896  0.3190 -0.4309
  737MOL0     C 1578   6.296   8.587   3.326 -0.8535 -0.2313  0.1219
  737MOL0     C 1579   6.387   8.463   3.304 -0.3695 -0.3290  1.5000
  737MOL0     C 1580   6.380   8.396   3.170 -0.5097 -0.3682  0.0392
  737MOL0     C 1581   6.490   8.290   3.153 -0.0845 -0.8718 -0.3327
  737MOL0     C 1582   6.515   8.250   3.007  0.3722 -1.1386 -0.2810
  737MOL0     C 1583   6.625   8.150   2.997  0.0228 -0.7821 -0.4330
  737MOL0     C 1584   6.642   8.104   2.852  0.0105  0.0850 -0.4939
  737MOL0     N 1585   6.696   8.202   2.761  0.2478  0.4117 -0.4283
  737MOL0     C 1586   6.824   8.197   2.697  0.2685 -0.0495 -0.3813
  737MOL0     C 1587   6.833   8.307   2.625  0.1337 -0.1906  0.2938
  737MOL0     C 1588   6.938   8.337   2.515  0.0381  0.0020 -0.3739
  737MOL0     C 1589   6.897   8.283   2.374  0.0987  0.3092 -0.4118
  737MOL0     C 1590   6.982   8.360   2.273  0.1552 -0.1235  0.3137
  737MOL0     C 1591   6.961   8.298   2.134  0.0615  0.0300 -0.2756
  737MOL0     O 1592   7.049   8.184   2.130 -0.0896 -0.7411  0.1507
  737MOL0     C 1593   7.083   8.145   2.005 -0.9778  0.8860 -0.6274
  737MOL0     C 1594   7.221   8.146   1.978  0.1177  0.3805  0.0749
  737MOL0     C 1595   7.275   8.107   1.852  0.1313  0.6927  0.1007
  737MOL0     C 1596   7.423   8.091   1.843 -0.4730  0.8193 -0.2158
  737MOL0     C 1597   7.184   8.063   1.753  0.7592 -0.0906  0.6787
  737MOL0     C 1598   7.225   8.021   1.616  0.0972  0.0395  0.4270
  737MOL0     O 1599   7.134   7.943   1.540  0.0301  0.0755 -0.2464
  737MOL0     C 1600   7.155   7.924   1.402 -0.2039 -0.5697  0.4203
  737MOL0     C 1601   7.280   7.897   1.341  0.1481  0.0228  0.9521
  737MOL0     C 1602   7.285   7.881   1.203  0.3502  0.0427  0.0726
  737MOL0     C 1603   7.169   7.882   1.126  0.6919  0.0199  0.1184
  737MOL0     O 1604   7.160   7.865   0.985  0.6393 -0.7702  0.5807
  737MOL0     C 1605   7.274   7.802   0.927 -0.7254 -0.7886 -0.3038
  737MOL0     C 1606   7.286   7.837   0.777 -0.1970 -0.5701 -0.4792
  737MOL0     C 1607   7.375   7.737   0.705  0.3561 -0.4835 -0.4389
  737MOL0     C 1608   7.410   7.770   0.566 -0.1887 -0.6618  0.6416
  737MOL0     C 1609   7.451   7.653   0.480  0.3141  0.0344 -0.2552
  737MOL0     C 1610   7.597   7.612   0.509 -0.2911 -0.1793  1.0121
  737MOL0     C 1611   7.646   7.487   0.434 -0.5247 -1.2058 -0.1236
  737MOL0     C 1612   7.803   7.484   0.439  0.8681  0.0961 -0.1427
  737MOL0    Cl 1613   7.896   7.546   0.294 -0.1573  0.2706 -0.2096
  737MOL0     C 1614   7.045   7.889   1.187  0.1133  0.1215 -1.1054
  737MOL0     C 1615   7.037   7.913   1.323 -0.2216 -0.5980 -1.2365
  737MOL0     O 1616   7.324   8.072   1.566 -0.0216  0.2493 -0.6669
  737MOL0     C 1617   7.043   8.061   1.781 -0.5676  0.1795 -0.5341
  737MOL0     C 1618   6.992   8.102   1.907 -0.8243 -0.8304 -0.2226
  737MOL0     N 1619   6.714   8.375   2.637  0.7923 -0.0820 -0.3342
  737MOL0     N 1620   6.629   8.308   2.713 -0.8576  0.2835  0.0185
  737MOL0     C 1621   5.917   8.331   3.225 -0.3697  0.0608  0.7650
  737MOL0     C 1622   5.781   8.312   3.206 -0.5365  0.7661  0.5617
  737MOL0     C 1623   5.341   8.289   3.261  0.1354 -0.0388 -0.3677
  737MOL0     C 1624   5.261   8.311   3.150 -0.1564  0.1844  0.7483
  737MOL0     C 1625   5.125   8.322   3.156 -0.4691 -0.0708 -0.5350
  737MOL0     C 1626   5.069   8.319   3.291  0.2443  0.6321  0.0173
  737MOL0     O 1627   4.937   8.356   3.290 -0.5020  0.4941 -0.1517
  737MOL0     C 1628   4.852   8.301   3.395  0.0622 -1.4220 -0.8308
  737MOL0     C 1629   4.845   8.153   3.410  0.0507 -0.0659  0.1246
  737MOL0     C 1630   4.778   8.092   3.290 -0.4228  0.3363 -0.5951
  737MOL0     C 1631   4.794   7.943   3.284 -0.7678  0.4112 -0.0785
  737MOL0     C 1632   4.713   7.891   3.171  0.7789  0.6439  0.0389
  737MOL0     C 1633   4.641   7.874   3.069  0.5831 -0.0293 -0.2184
  737MOL0     C 1634   5.147   8.300   3.401 -0.0439 -0.5043  0.2915
  737MOL0     C 1635   5.286   8.287   3.395 -0.3373  0.8462  0.3619
  737MOL0     C 1636   5.361   8.262   3.526  0.4392  0.8620  0.1528
  737MOL0     H 1637   5.676   8.621   3.268 -1.0534 -1.0971  1.1818
  737MOL0     H 1638   5.890   8.669   3.281 -1.0247 -0.2169  0.5389
  737MOL0     H 1639   6.118   8.520   3.454 -1.1221 -0.6920 -0.9951
  737MOL0     H 1640   6.104   8.656   3.338  2.7403  1.3446 -3.3645
  737MOL0     H 1641   6.320   8.659   3.248  1.5376  0.6309  1.5636
  737MOL0     H 1642   6.337   8.640   3.413  2.3344  0.1432 -1.4531
  737MOL0     H 1643   6.487   8.499   3.328 -1.0135  2.0670  0.8639
  737MOL0     H 1644   6.352   8.385   3.372  1.2140 -0.7582  1.8625
  737MOL0     H 1645   6.279   8.357   3.153 -0.4087 -1.3511  1.5721
  737MOL0     H 1646   6.389   8.460   3.081 -1.4547 -0.8145 -0.3955
  737MOL0     H 1647   6.463   8.199   3.208 -0.8096 -1.4429 -1.5948
  737MOL0     H 1648   6.580   8.335   3.194 -1.0462  2.3404 -1.4842
  737MOL0     H 1649   6.423   8.214   2.960 -1.4114  4.8187 -2.1638
  737MOL0     H 1650   6.542   8.338   2.949  2.0471  0.1112  2.2144
  737MOL0     H 1651   6.588   8.063   3.052 -0.7476 -1.6864 -2.2659
  737MOL0     H 1652   6.719   8.174   3.046  0.8469 -5.2920  0.6728
  737MOL0     H 1653   6.707   8.016   2.858 -0.1497 -0.0919 -1.1813
  737MOL0     H 1654   6.542   8.072   2.820  0.0502 -0.0198 -0.5145
  737MOL0     H 1655   6.904   8.126   2.716  0.3410  0.3946  1.1156
  737MOL0     H 1656   7.032   8.290   2.545  0.1846  0.1893 -0.5340
  737MOL0     H 1657   6.946   8.445   2.501  2.9719 -0.3212 -2.3336
  737MOL0     H 1658   6.910   8.174   2.378 -1.9348  0.0305 -0.3057
  737MOL0     H 1659   6.789   8.298   2.369 -0.1018  0.0091  1.8961
  737MOL0     H 1660   6.938   8.460   2.281 -3.1562 -1.4737  0.6238
  737MOL0     H 1661   7.088   8.366   2.299  0.7502  0.9426 -2.0260
  737MOL0     H 1662   6.855   8.273   2.124 -0.5278  1.5603  1.6032
  737MOL0     H 1663   6.990   8.372   2.058 -0.1517  1.0352  0.5989
  737MOL0     H 1664   7.296   8.170   2.054  1.2282  2.1003 -1.4709
  737MOL0     H 1665   7.462   8.088   1.945  0.0806  0.0838 -0.4366
  737MOL0     H 1666   7.459   8.179   1.789 -0.9874  0.3862 -1.2963
  737MOL0     H 1667   7.459   7.998   1.796 -0.0178 -0.9051  3.2134
  737MOL0     H 1668   7.373   7.881   1.396 -1.2474 -1.5883  2.9896
  737MOL0     H 1669   7.385   7.880   1.162  1.2571 -2.2810  2.0839
  737MOL0     H 1670   7.373   7.832   0.962 -0.9191 -0.3277 -0.1405
  737MOL0     H 1671   7.270   7.696   0.954  1.7690 -0.1426  3.3614
  737MOL0     H 1672   7.183   7.845   0.741 -0.2887  1.0600  0.0665
  737MOL0     H 1673   7.321   7.941   0.769 -2.4416  0.3341  0.6341
  737MOL0     H 1674   7.345   7.632   0.717  1.7465 -0.6112  3.3986
  737MOL0     H 1675   7.462   7.744   0.771  0.0677  0.9848 -0.1956
  737MOL0     H 1676   7.467   7.861   0.545 -1.7398  0.2001 -0.0494
  737MOL0     H 1677   7.310   7.797   0.531 -1.4254 -1.5640  3.2182
  737MOL0     H 1678   7.384   7.572   0.511 -1.7605  2.6941  2.9802
  737MOL0     H 1679   7.444   7.677   0.374 -2.3553 -0.9041 -0.3540
  737MOL0     H 1680   7.605   7.588   0.615 -1.3360 -1.3995  0.8329
  737MOL0     H 1681   7.657   7.699   0.479 -0.6852 -0.6881 -1.4958
  737MOL0     H 1682   7.606   7.488   0.333  0.5733 -0.9086 -0.5695
  737MOL0     H 1683   7.614   7.397   0.488  1.6265  0.7113  4.9386
  737MOL0     H 1684   7.837   7.382   0.460 -0.2140  0.1941  2.4789
  737MOL0     H 1685   7.830   7.545   0.526  0.7457 -1.7236  1.2233
  737MOL0     H 1686   6.956   7.865   1.131  0.6048 -1.2005 -1.3520
  737MOL0     H 1687   6.940   7.917   1.371  1.1250  0.4988  1.6526
  737MOL0     H 1688   6.976   8.020   1.707 -2.7392 -0.9879  1.9102
  737MOL0     H 1689   6.887   8.100   1.932 -2.0518  1.0833 -4.3397
  737MOL0     H 1690   5.982   8.244   3.228  0.2504  0.4551 -0.4941
  737MOL0     H 1691   5.753   8.213   3.173 -0.7134  1.0540 -0.1742
  737MOL0     H 1692   5.316   8.327   3.058  0.4844 -1.6151  0.7889
  737MOL0     H 1693   5.064   8.342   3.068 -0.6846 -0.2366 -0.4257
  737MOL0     H 1694   4.885   8.339   3.493 -0.3637  1.2967 -1.6478
  737MOL0     H 1695   4.754   8.351   3.390 -0.8271 -2.8377  1.1363
  737MOL0     H 1696   4.777   8.129   3.493 -0.5886 -0.8059 -0.5952
  737MOL0     H 1697   4.944   8.113   3.431  0.8877  2.1577  0.6720
  737MOL0     H 1698   4.673   8.121   3.282 -0.9396 -1.2909 -0.0191
  737MOL0     H 1699   4.830   8.129   3.201 -0.6882 -3.0853 -2.3573
  737MOL0     H 1700   4.757   7.897   3.376  0.3993 -0.3103  0.0501
  737MOL0     H 1701   4.901   7.917   3.281 -0.6578  0.5807  1.5924
  737MOL0     H 1702   4.573   7.891   2.988 -0.4217  0.6678  0.7560
  737MOL0     H 1703   5.082   8.305   3.488 -1.1293  1.2963 -0.5757
  737MOL0     H 1704   5.328   8.338   3.598  0.3295  2.0457 -1.1185
  737MOL0     H 1705   5.332   8.163   3.563  1.3547 -0.0610 -1.4884
  737MOL0     H 1706   5.469   8.256   3.516  0.4121 -0.6001  0.5305
  738MOL0     O 1707   3.245   9.245   5.635  0.2579 -0.5325 -0.7236
  738MOL0     C 1708   3.169   9.161   5.589 -0.4045  0.1767  0.2610
  738MOL0     O 1709   3.097   9.073   5.658 -0.0621 -0.0298  0.3628
  738MOL0     C 1710   3.098   9.045   5.793  0.8390 -0.2602 -0.6660
  738MOL0     C 1711   3.122   9.143   5.890 -0.6833  0.2862  0.1129
  738MOL0     C 1712   3.099   9.131   6.027  0.4257 -0.1187  0.3654
  738MOL0     C 1713   3.043   9.006   6.071 -0.0294 -0.2665 -0.0212
  738MOL0     O 1714   3.026   8.978   6.205 -0.4990 -0.0018 -0.9603
  738MOL0     C 1715   2.898   8.960   6.260  0.1730 -0.2416  0.4193
  738MOL0     C 1716   2.904   8.952   6.415  0.6129 -0.8969  0.1838
  738MOL0     C 1717   2.920   9.099   6.467  0.5424 -1.3446 -0.1483
  738MOL0     C 1718   2.922   9.102   6.622 -0.4107 -0.3791  0.1712
  738MOL0     C 1719   2.914   9.255   6.676  0.0933 -0.2400 -0.5804
  738MOL0     C 1720   2.785   9.337   6.647  0.4918  0.2379 -0.3118
  738MOL0     C 1721   2.812   9.483   6.703  0.0150 -0.5021 -0.0266
  738MOL0     C 1722   2.826   9.477   6.857 -0.9691 -0.8649  0.1061
  738MOL0     N 1723   2.790   9.609   6.919  0.3684 -0.3721 -0.2098
  738MOL0     C 1724   2.881   9.714   6.944  0.1698 -0.2855  0.4334
  738MOL0     C 1725   2.806   9.812   7.002 -0.8077 -0.1667  1.0002
  738MOL0     C 1726   2.852   9.950   7.040 -0.1364 -0.0007  0.6145
  738MOL0     C 1727   3.000   9.979   7.005 -0.4021  0.4955  0.4646
  738MOL0     C 1728   3.033  10.124   6.974 -0.4117 -0.2187  0.0775
  738MOL0     C 1729   3.175  10.163   7.011  0.3496 -0.1366 -0.0880
  738MOL0     O 1730   3.225  10.272   6.941 -0.4598  0.4457  0.8578
  738MOL0     C 1731   3.181  10.399   6.970  0.4130  0.8453  0.5121
  738MOL0     C 1732   3.093  10.436   7.074 -0.1800  0.3353  0.7287
  738MOL0     C 1733   3.049  10.573   7.084 -0.0471  0.4577 -0.0377
  738MOL0     C 1734   2.940  10.604   7.189  0.6050 -0.4594 -0.0982
  738MOL0     C 1735   3.095  10.669   6.991 -0.8678 -1.0765 -1.0101
  738MOL0     C 1736   3.064  10.809   6.991 -0.7794 -0.6469 -0.5392
  738MOL0     O 1737   2.952  10.852   7.049 -0.3617  0.0763 -0.3690
  738MOL0     C 1738   2.936  10.988   7.078  0.1584 -0.4168 -0.3359
  738MOL0     C 1739   2.806  11.015   7.127 -0.4735 -0.0165  0.2524
  738MOL0     C 1740   2.763  11.135   7.179 -0.3962 -0.5111  0.2943
  738MOL0     C 1741   2.855  11.245   7.173 -0.3938  0.2722 -0.7418
  738MOL0     O 1742   2.823  11.373   7.219  0.5196  0.2527  0.0161
  738MOL0     C 1743   2.738  11.373   7.325 -0.4703  0.0813 -0.2009
  738MOL0     C 1744   2.737  11.522   7.381  0.1466  0.4079 -0.0826
  738MOL0     C 1745   2.835  11.544   7.490 -0.3690  0.1501  0.1005
  738MOL0     C 1746   2.851  11.692   7.514 -0.2875  0.5219  0.8007
  738MOL0     C 1747   2.914  11.766   7.400  0.4021  0.2379 -0.3169
  738MOL0     C 1748   3.000  11.869   7.450 -0.6806  0.3893  0.6050
  738MOL0     C 1749   3.033  11.967   7.338  0.2380 -0.5483  0.0555
  738MOL0     C 1750   3.090  12.097   7.385  0.4181  0.0976  0.2965
  738MOL0    Cl 1751   3.131  12.174   7.235  0.3974  0.3923  0.2435
  738MOL0     C 1752   2.982  11.224   7.116  0.3161  1.0290  0.4954
  738MOL0     C 1753   3.026  11.097   7.063  0.8979  0.2463  0.2636
  738MOL0     O 1754   3.148  10.881   6.932  0.5841 -0.0646 -0.4698
  738MOL0     C 1755   3.188  10.627   6.894  0.2564 -0.5947 -0.0680
  738MOL0     C 1756   3.230  10.498   6.887 -0.7375  0.2591  1.0683
  738MOL0     N 1757   2.677   9.764   7.020 -0.3374  0.1209  0.1309
  738MOL0     N 1758   2.672   9.647   6.965  1.1231  0.8342 -0.2960
  738MOL0     C 1759   3.013   8.907   5.978 -0.5679 -0.3822  0.0743
  738MOL0     C 1760   3.037   8.927   5.838  0.6442  0.3584 -0.7593
  738MOL0     C 1761   3.181   9.138   5.448  1.3100 -0.6698  0.0660
  738MOL0     C 1762   3.110   9.028   5.398  0.0078 -0.9343  0.0752
  738MOL0     C 1763   3.109   8.990   5.266  0.5130  0.1072 -0.6429
  738MOL0     C 1764   3.176   9.063   5.169  0.0649  0.5835  1.1120
  738MOL0     O 1765   3.168   9.015   5.035  0.2885  0.7673  0.1377
  738MOL0     C 1766   3.086   9.100   4.956 -0.2330  0.3062 -0.7280
  738MOL0     C 1767   3.037   9.008   4.838  0.9970 -0.5329 -0.7322
  738MOL0     C 1768   3.135   8.971   4.733 -0.3497  0.1908  0.3851
  738MOL0     C 1769   3.107   8.839   4.661 -1.3523  0.0035 -0.4249
  738MOL0     C 1770   2.973   8.847   4.598 -0.6010  0.5967 -0.2492
  738MOL0     C 1771   2.859   8.842   4.572  0.2230  0.2250  0.2778
  738MOL0     C 1772   3.264   9.160   5.213  0.3005  0.0119  0.0951
  738MOL0     C 1773   3.258   9.207   5.349  0.0099  0.0240  0.2577
  738MOL0     C 1774   3.339   9.335   5.379  0.4316 -0.1217 -0.4124
  738MOL0     H 1775   3.169   9.237   5.865  2.8700 -1.5366 -0.8560
  738MOL0     H 1776   3.135   9.198   6.105 -0.3054 -0.0233  0.6273
  738MOL0     H 1777   2.871   8.861   6.223  3.8681 -0.3256 -2.6072
  738MOL0     H 1778   2.824   9.030   6.219 -1.2950 -3.4960 -3.0770
  738MOL0     H 1779   2.812   8.915   6.462 -0.6462  1.6167 -0.1042
  738MOL0     H 1780   2.989   8.893   6.450  0.4597 -1.4494 -0.3586
  738MOL0     H 1781   3.015   9.138   6.430 -0.2631  0.7965 -0.0745
  738MOL0     H 1782   2.835   9.160   6.434  2.0522 -0.0347 -1.7689
  738MOL0     H 1783   2.827   9.054   6.649 -0.5092 -1.0807 -1.3680
  738MOL0     H 1784   3.015   9.052   6.650  0.8811  2.3641  1.1509
  738MOL0     H 1785   2.997   9.317   6.641  1.5075 -2.1097 -0.7150
  738MOL0     H 1786   2.936   9.238   6.782  1.6668 -0.5556 -0.9374
  738MOL0     H 1787   2.771   9.351   6.539 -0.8404  4.5932  0.2666
  738MOL0     H 1788   2.696   9.287   6.687  0.4815  0.7599  0.3355
  738MOL0     H 1789   2.732   9.548   6.669  1.1941  0.0392 -1.9052
  738MOL0     H 1790   2.896   9.518   6.644  0.0272 -0.4893 -0.0017
  738MOL0     H 1791   2.773   9.390   6.897  0.4453 -1.4331  0.7873
  738MOL0     H 1792   2.931   9.462   6.884 -0.1888 -0.1195 -2.2433
  738MOL0     H 1793   2.989   9.707   6.933  0.2981 -1.8702  2.1375
  738MOL0     H 1794   2.844   9.961   7.148  1.0543 -3.1783  1.1255
  738MOL0     H 1795   2.784  10.022   6.993  1.3514  1.7258  0.9707
  738MOL0     H 1796   3.057   9.949   7.093 -1.4076 -1.0198  0.6258
  738MOL0     H 1797   3.034   9.917   6.921 -0.9598  1.2262 -0.3265
  738MOL0     H 1798   3.025  10.155   6.869 -0.3582 -3.7361 -1.1021
  738MOL0     H 1799   2.968  10.180   7.043 -0.5659  1.9517 -1.7090
  738MOL0     H 1800   3.174  10.177   7.120 -0.0158 -0.2915 -0.0694
  738MOL0     H 1801   3.249  10.085   6.992  2.3512  1.9001 -1.1584
  738MOL0     H 1802   3.062  10.363   7.148  2.8975  0.2255  2.0666
  738MOL0     H 1803   2.985  10.660   7.272  0.0640  0.8351 -0.6500
  738MOL0     H 1804   2.908  10.509   7.232  1.1328 -0.3240  0.6071
  738MOL0     H 1805   2.852  10.659   7.154  0.1226  0.4858  2.3661
  738MOL0     H 1806   2.739  10.930   7.128 -0.2285 -0.2272 -0.2608
  738MOL0     H 1807   2.666  11.161   7.221 -1.8744 -1.2351 -2.4880
  738MOL0     H 1808   2.632  11.353   7.307 -1.1943  0.9361  2.6286
  738MOL0     H 1809   2.773  11.302   7.402  1.0506 -0.5248 -1.3941
  738MOL0     H 1810   2.742  11.597   7.301 -0.7828 -0.1572 -0.6941
  738MOL0     H 1811   2.637  11.530   7.423  0.1824 -0.1765  0.1205
  738MOL0     H 1812   2.925  11.492   7.455 -3.1602 -3.0120 -3.0932
  738MOL0     H 1813   2.823  11.499   7.589  4.1973 -0.2569  0.7080
  738MOL0     H 1814   2.922  11.702   7.597  1.5262  0.0693 -0.6233
  738MOL0     H 1815   2.754  11.737   7.539 -1.3873 -0.6538 -1.1328
  738MOL0     H 1816   2.964  11.699   7.330  3.0825  0.6610  1.0926
  738MOL0     H 1817   2.826  11.813   7.353 -1.3060  1.1298  3.3479
  738MOL0     H 1818   3.097  11.825   7.475  1.2121  3.0231 -1.4958
  738MOL0     H 1819   2.956  11.922   7.536 -0.5613  1.0610  0.2564
  738MOL0     H 1820   2.943  11.974   7.277 -0.5633  2.1938  1.3978
  738MOL0     H 1821   3.111  11.912   7.283 -1.0453 -1.2830 -1.0886
  738MOL0     H 1822   3.178  12.077   7.447  1.5358  0.6288 -1.0607
  738MOL0     H 1823   3.012  12.151   7.439 -1.6583 -1.5244 -0.9411
  738MOL0     H 1824   3.045  11.312   7.106  0.2030  1.2269  1.4549
  738MOL0     H 1825   3.133  11.092   7.043  0.8120  1.6127 -0.7269
  738MOL0     H 1826   3.223  10.694   6.817  2.4838 -0.9463  0.5690
  738MOL0     H 1827   3.302  10.487   6.807 -1.9608 -1.2972  0.1278
  738MOL0     H 1828   2.972   8.813   6.013 -2.3169 -0.1263 -1.1836
  738MOL0     H 1829   3.015   8.851   5.764 -1.2136  1.2919 -1.2231
  738MOL0     H 1830   3.055   8.960   5.463 -2.1541  1.8033  1.3295
  738MOL0     H 1831   3.054   8.898   5.244  0.5911 -1.0455  3.2442
  738MOL0     H 1832   3.001   9.133   5.016 -0.1209  1.0729 -0.9789
  738MOL0     H 1833   3.140   9.182   4.907  0.9027 -0.9827 -1.7446
  738MOL0     H 1834   2.961   9.062   4.781 -1.0999 -1.6805  0.8269
  738MOL0     H 1835   3.006   8.913   4.881 -0.5760  0.2595 -0.0302
  738MOL0     H 1836   3.139   9.043   4.650 -2.0407 -3.1522 -2.8805
  738MOL0     H 1837   3.239   8.968   4.768  0.0376  3.3803 -0.1626
  738MOL0     H 1838   3.120   8.750   4.723 -1.5064  1.4136  1.7348
  738MOL0     H 1839   3.186   8.825   4.586 -0.1960 -0.8273  0.9008
  738MOL0     H 1840   2.752   8.841   4.573  0.1294 -0.0847 -2.3544
  738MOL0     H 1841   3.326   9.218   5.146  1.5664 -0.7758  0.5588
  738MOL0     H 1842   3.274   9.422   5.391  1.1655  0.5376 -1.1549
  738MOL0     H 1843   3.397   9.309   5.468 -2.4134 -2.6359  0.8996
  738MOL0     H 1844   3.402   9.362   5.294 -0.7492 -0.2323 -1.3608
  739MOL0     O 1845   5.659   2.907   2.153  0.3798 -0.1119 -0.5689
  739MOL0     C 1846   5.555   2.961   2.190  0.3516 -0.4797  0.3817
  739MOL0     O 1847   5.536   3.002   2.320  0.3929  0.5492 -0.2614
  739MOL0     C 1848   5.633   2.974   2.413  0.9084  0.0328 -0.0877
  739MOL0     C 1849   5.689   2.844   2.420 -0.3571 -0.4399  0.2807
  739MOL0     C 1850   5.771   2.820   2.524  0.0053  0.6510  0.8094
  739MOL0     C 1851   5.801   2.912   2.616 -0.4926  1.5735 -0.6999
  739MOL0     O 1852   5.883   2.874   2.715  0.2251 -0.3809  0.0285
  739MOL0     C 1853   5.819   2.787   2.811  0.1703 -0.8313 -0.5835
  739MOL0     C 1854   5.787   2.888   2.933  0.5761  0.2522 -0.1260
  739MOL0     C 1855   5.693   2.827   3.032  0.3633  0.3408 -0.5895
  739MOL0     C 1856   5.757   2.692   3.088 -0.2066 -0.3649 -0.1156
  739MOL0     C 1857   5.702   2.625   3.215 -0.4145 -0.9341  0.2136
  739MOL0     C 1858   5.742   2.708   3.345  1.1568  0.3644 -0.1518
  739MOL0     C 1859   5.614   2.794   3.384 -0.0744  0.3167 -0.0634
  739MOL0     C 1860   5.629   2.836   3.534  0.7106  0.0184 -0.0975
  739MOL0     N 1861   5.589   2.723   3.619  0.6367 -0.6115  0.9911
  739MOL0     C 1862   5.663   2.625   3.676 -0.2065 -0.2894  0.0183
  739MOL0     C 1863   5.576   2.538   3.735 -0.0890 -0.5020 -0.5428
  739MOL0     C 1864   5.606   2.410   3.814  0.5600 -0.2621  0.9306
  739MOL0     C 1865   5.518   2.291   3.759  0.9284  0.9265  0.4333
  739MOL0     C 1866   5.567   2.229   3.620 -0.6049 -0.4373 -0.6315
  739MOL0     C 1867   5.467   2.139   3.537  0.2339  1.2049  0.0400
  739MOL0     O 1868   5.527   2.068   3.432 -0.5114  0.5449 -0.7290
  739MOL0     C 1869   5.450   1.979   3.351 -0.5826  0.0273  0.7948
  739MOL0     C 1870   5.524   1.898   3.262  0.2811  0.1080 -0.5744
  739MOL0     C 1871   5.451   1.813   3.173  0.0340 -0.2061 -0.4992
  739MOL0     C 1872   5.536   1.745   3.064  0.6957 -0.8560  0.7933
  739MOL0     C 1873   5.312   1.789   3.180  0.1304  0.1165  0.4162
  739MOL0     C 1874   5.233   1.690   3.100 -0.9996  0.4414 -0.6549
  739MOL0     O 1875   5.279   1.654   2.973  0.2707  0.4624 -0.2498
  739MOL0     C 1876   5.201   1.589   2.878 -0.1094  0.3087 -0.2714
  739MOL0     C 1877   5.259   1.602   2.748 -0.0209  0.5886 -0.2073
  739MOL0     C 1878   5.193   1.550   2.638  0.4737 -0.2636  0.4109
  739MOL0     C 1879   5.073   1.484   2.656  0.0621  0.2135 -0.1588
  739MOL0     O 1880   5.002   1.413   2.557  0.5161 -0.7797 -0.1473
  739MOL0     C 1881   5.060   1.407   2.426  0.3765 -0.0822 -0.3173
  739MOL0     C 1882   4.960   1.340   2.338 -0.0307 -0.5294  0.5746
  739MOL0     C 1883   5.013   1.363   2.204 -0.4096 -0.7030  0.0143
  739MOL0     C 1884   4.927   1.290   2.108  0.3638  0.4661 -0.4270
  739MOL0     C 1885   4.804   1.367   2.066  0.1142  0.9066  0.3248
  739MOL0     C 1886   4.720   1.283   1.976  0.6697 -0.0958 -0.0756
  739MOL0     C 1887   4.581   1.351   1.954 -0.4263  0.4684 -0.3870
  739MOL0     C 1888   4.471   1.246   1.906  0.1059  0.3068  0.3012
  739MOL0    Cl 1889   4.400   1.155   2.042  0.0824  0.6023  0.1930
  739MOL0     C 1890   5.019   1.460   2.784  0.9771 -0.0641  0.0605
  739MOL0     C 1891   5.090   1.505   2.898  0.5126  0.8046 -0.3525
  739MOL0     O 1892   5.126   1.661   3.151 -0.3839 -0.4153  0.0339
  739MOL0     C 1893   5.239   1.878   3.267 -0.0414  0.1441 -0.0774
  739MOL0     C 1894   5.308   1.971   3.348 -0.0947  0.5386 -0.2272
  739MOL0     N 1895   5.445   2.586   3.719 -0.4994 -0.2940 -0.0225
  739MOL0     N 1896   5.459   2.694   3.641 -0.0322  0.1078 -0.4507
  739MOL0     C 1897   5.741   3.037   2.619 -0.1563 -0.2292  0.1638
  739MOL0     C 1898   5.647   3.061   2.520 -0.1739  0.4155 -0.4783
  739MOL0     C 1899   5.433   2.982   2.110 -0.7834  0.7146  1.0464
  739MOL0     C 1900   5.327   3.046   2.177  1.0368  0.0081 -0.1273
  739MOL0     C 1901   5.203   3.062   2.106  0.0575 -0.1457 -0.3438
  739MOL0     C 1902   5.182   3.008   1.979  0.8100  0.4725 -1.3947
  739MOL0     O 1903   5.058   3.034   1.924 -0.2062  0.6372  0.6526
  739MOL0     C 1904   5.014   3.002   1.792 -0.6514  0.1144 -0.4011
  739MOL0     C 1905   4.859   3.038   1.785  0.1622  0.0829  0.2007
  739MOL0     C 1906   4.823   3.176   1.832 -0.2042  1.6120  0.5629
  739MOL0     C 1907   4.668   3.206   1.829 -0.1805  0.2137  0.4336
  739MOL0     C 1908   4.587   3.109   1.897  0.0443  0.0554 -1.2807
  739MOL0     C 1909   4.529   3.032   1.973 -0.3448  0.1702 -0.5945
  739MOL0     C 1910   5.289   2.947   1.919  0.6571  0.2919  0.0310
  739MOL0     C 1911   5.416   2.933   1.985  0.3706  1.4445  0.1156
  739MOL0     C 1912   5.532   2.873   1.906 -0.2757  0.4736  0.4825
  739MOL0     H 1913   5.687   2.780   2.333  0.9746  0.4755 -0.4652
  739MOL0     H 1914   5.820   2.724   2.518  1.5821  1.3447  2.0606
  739MOL0     H 1915   5.890   2.714   2.851  1.5730  0.4016 -0.7114
  739MOL0     H 1916   5.733   2.734   2.771 -2.1119  0.5641  2.0919
  739MOL0     H 1917   5.878   2.915   2.988  1.0388 -0.2943 -0.6192
  739MOL0     H 1918   5.744   2.980   2.893  3.8688  1.3182 -1.5928
  739MOL0     H 1919   5.663   2.893   3.115 -2.2886  2.7322 -3.1923
  739MOL0     H 1920   5.601   2.810   2.975  0.4596  1.5160 -1.1192
  739MOL0     H 1921   5.736   2.615   3.013  0.5033  0.2005 -0.9076
  739MOL0     H 1922   5.866   2.699   3.091 -0.2009 -0.6763  1.0583
  739MOL0     H 1923   5.746   2.526   3.225 -0.5072 -0.8974  1.0743
  739MOL0     H 1924   5.594   2.607   3.211 -0.7690  0.2422  2.4929
  739MOL0     H 1925   5.768   2.638   3.425  1.9088  0.0766 -0.6344
  739MOL0     H 1926   5.826   2.777   3.332  0.7499  0.7811 -0.6184
  739MOL0     H 1927   5.524   2.736   3.364 -0.0753  0.4152 -0.3582
  739MOL0     H 1928   5.608   2.881   3.318 -0.6161  2.6070  2.8165
  739MOL0     H 1929   5.726   2.877   3.563  1.7409  0.5184 -3.7755
  739MOL0     H 1930   5.571   2.926   3.558  1.9977  0.3409  2.0338
  739MOL0     H 1931   5.771   2.626   3.674 -0.1593 -1.4670  0.7653
  739MOL0     H 1932   5.591   2.421   3.922  1.5579  1.6286  0.9209
  739MOL0     H 1933   5.713   2.388   3.804  1.2246  0.2001  5.0322
  739MOL0     H 1934   5.516   2.211   3.834  2.3728  1.1110  0.6870
  739MOL0     H 1935   5.416   2.331   3.749  0.8645  0.9143  1.0054
  739MOL0     H 1936   5.604   2.316   3.565  1.2923 -1.6078 -1.2766
  739MOL0     H 1937   5.655   2.168   3.641 -0.1853  0.5778  0.7047
  739MOL0     H 1938   5.425   2.064   3.606  1.9404  1.6496  1.6550
  739MOL0     H 1939   5.392   2.193   3.479  2.7810  2.4958 -2.2387
  739MOL0     H 1940   5.632   1.910   3.258  0.3565 -0.7467 -3.2157
  739MOL0     H 1941   5.515   1.796   2.970  3.8085 -0.6190  0.1405
  739MOL0     H 1942   5.529   1.636   3.051 -0.2499 -1.0534  2.5573
  739MOL0     H 1943   5.640   1.771   3.084  0.6876  0.0202 -0.2085
  739MOL0     H 1944   5.361   1.640   2.744  0.2559  0.1273  1.6694
  739MOL0     H 1945   5.237   1.552   2.539  1.3586  1.6076  0.7857
  739MOL0     H 1946   5.084   1.504   2.381  0.9072 -0.1380 -0.1637
  739MOL0     H 1947   5.154   1.351   2.428  0.0374 -0.6481  0.2468
  739MOL0     H 1948   4.949   1.233   2.361 -2.3129 -0.7109 -1.0596
  739MOL0     H 1949   4.864   1.392   2.340 -0.7487 -1.3825 -3.6968
  739MOL0     H 1950   5.118   1.336   2.187 -0.5994 -0.4667 -1.7129
  739MOL0     H 1951   4.998   1.468   2.176 -0.8452 -0.6652  0.3827
  739MOL0     H 1952   4.892   1.193   2.146  1.8744  0.6251  1.5184
  739MOL0     H 1953   4.991   1.268   2.022  1.2325  1.5931 -0.0897
  739MOL0     H 1954   4.744   1.401   2.151 -0.9478  0.2258 -0.1412
  739MOL0     H 1955   4.844   1.442   1.997  1.9013  0.7616  1.1547
  739MOL0     H 1956   4.703   1.193   2.036  4.0372  1.1256  3.0843
  739MOL0     H 1957   4.765   1.266   1.878 -2.0527 -0.9553 -1.2694
  739MOL0     H 1958   4.577   1.439   1.889 -1.3722 -1.0386 -2.4865
  739MOL0     H 1959   4.556   1.399   2.049  2.2104  0.1833  0.5399
  739MOL0     H 1960   4.519   1.186   1.828  2.6543  1.6400  0.7227
  739MOL0     H 1961   4.387   1.303   1.865 -0.0074 -0.2944 -0.3287
  739MOL0     H 1962   4.924   1.409   2.779 -0.0416  1.7703 -0.0956
  739MOL0     H 1963   5.064   1.474   2.998  1.8487 -1.1397 -0.5489
  739MOL0     H 1964   5.135   1.873   3.297  0.8840 -1.1115  3.3741
  739MOL0     H 1965   5.255   2.032   3.422 -2.4761 -0.2765 -1.1655
  739MOL0     H 1966   5.766   3.107   2.699  1.7463  0.8755 -1.3012
  739MOL0     H 1967   5.580   3.147   2.526 -2.0294 -0.9465 -0.6092
  739MOL0     H 1968   5.347   3.103   2.267  2.2592 -0.8592  0.1723
  739MOL0     H 1969   5.126   3.126   2.148 -0.6135 -0.0119 -1.7168
  739MOL0     H 1970   5.069   3.046   1.708 -0.0484 -0.7289 -0.4597
  739MOL0     H 1971   5.022   2.894   1.773  0.6507  0.5019 -2.3265
  739MOL0     H 1972   4.816   2.970   1.859 -0.1256  1.3697  1.2625
  739MOL0     H 1973   4.824   3.017   1.683  2.1465  4.2017 -1.5735
  739MOL0     H 1974   4.847   3.187   1.938 -3.3741  2.8452  1.2689
  739MOL0     H 1975   4.883   3.241   1.768  1.4422 -0.7427 -0.4343
  739MOL0     H 1976   4.635   3.223   1.726  0.0696  0.1243  0.3354
  739MOL0     H 1977   4.668   3.302   1.881 -0.0283 -1.1997  3.2386
  739MOL0     H 1978   4.482   2.964   2.041 -1.3467 -0.6459 -2.0511
  739MOL0     H 1979   5.282   2.897   1.823  2.5221  0.2550 -0.1208
  739MOL0     H 1980   5.498   2.841   1.807  0.8558  1.9990 -0.4442
  739MOL0     H 1981   5.593   2.959   1.879 -0.6872  0.8901  0.8723
  739MOL0     H 1982   5.588   2.793   1.957  0.5777  1.4285  1.0869
  740MOL0     O 1983   1.946   7.157   8.426  0.1308  0.5215 -0.2693
  740MOL0     C 1984   1.940   7.134   8.309  0.8960 -0.1120  0.5307
  740MOL0     O 1985   2.031   7.081   8.224 -0.2615 -0.3087  0.0449
  740MOL0     C 1986   2.161   7.057   8.259 -1.0604  0.2769 -0.1402
  740MOL0     C 1987   2.213   7.025   8.391  0.1073  0.2905 -0.6570
  740MOL0     C 1988   2.346   6.995   8.414 -0.5757 -0.4607 -0.3177
  740MOL0     C 1989   2.434   6.990   8.310  0.2549  0.1886  0.0012
  740MOL0     O 1990   2.570   6.969   8.321  0.6682  0.2873 -0.4681
  740MOL0     C 1991   2.631   6.885   8.219  0.1776 -0.0610 -0.3856
  740MOL0     C 1992   2.762   6.834   8.277 -0.8933 -0.0803 -0.7107
  740MOL0     C 1993   2.870   6.941   8.309  0.1386  1.1827 -0.7011
  740MOL0     C 1994   2.891   7.002   8.449 -0.2171 -0.1560 -0.0821
  740MOL0     C 1995   3.011   7.097   8.462  0.3690  0.1812  0.0857
  740MOL0     C 1996   3.032   7.155   8.602  0.0414 -0.4193 -0.1083
  740MOL0     C 1997   3.145   7.254   8.595 -0.4895  0.8143 -0.7619
  740MOL0     C 1998   3.127   7.368   8.511 -0.3061 -0.4197  0.2086
  740MOL0     N 1999   3.234   7.470   8.517  0.2368  0.3506 -0.2817
  740MOL0     C 2000   3.277   7.540   8.624 -0.8341  0.4995  1.3146
  740MOL0     C 2001   3.374   7.623   8.581  0.1639 -0.5322  0.2748
  740MOL0     C 2002   3.431   7.722   8.667 -0.5428  0.2913  0.0669
  740MOL0     C 2003   3.585   7.707   8.663 -0.4449  0.3913 -0.5667
  740MOL0     C 2004   3.671   7.821   8.733  0.1279  0.0338  0.3054
  740MOL0     C 2005   3.815   7.816   8.685  0.9737 -0.5795  0.0057
  740MOL0     O 2006   3.832   7.839   8.545  0.7413 -0.4132  0.4491
  740MOL0     C 2007   3.957   7.819   8.498  0.0986  0.3784  0.3339
  740MOL0     C 2008   4.023   7.698   8.514  0.3927 -0.5380 -0.4387
  740MOL0     C 2009   4.156   7.683   8.476 -0.1463  1.0006  0.7082
  740MOL0     C 2010   4.206   7.554   8.530 -0.6360 -0.1632  0.4816
  740MOL0     C 2011   4.228   7.786   8.405 -0.0630  0.2624  0.0487
  740MOL0     C 2012   4.362   7.771   8.359 -0.2328  1.1403  0.3082
  740MOL0     O 2013   4.438   7.888   8.348  0.3722  0.4375 -0.1835
  740MOL0     C 2014   4.555   7.881   8.283  0.1129  0.1290 -0.3012
  740MOL0     C 2015   4.564   7.884   8.144  0.4730 -0.2217  0.3057
  740MOL0     C 2016   4.688   7.889   8.080  0.9589  0.8413 -0.8627
  740MOL0     C 2017   4.808   7.890   8.159 -0.3943 -0.3614 -0.4872
  740MOL0     O 2018   4.926   7.878   8.083  0.2519 -0.4267 -0.4362
  740MOL0     C 2019   5.049   7.863   8.145 -0.0279  0.1548  0.2813
  740MOL0     C 2020   5.149   7.891   8.023 -0.2495 -0.4827 -0.0593
  740MOL0     C 2021   5.139   7.792   7.906 -0.1940  0.5629  0.5545
  740MOL0     C 2022   5.069   7.849   7.781 -0.3788 -1.1529 -0.1535
  740MOL0     C 2023   5.059   7.740   7.671 -0.8152  0.2503 -0.2992
  740MOL0     C 2024   4.965   7.777   7.563  0.0037  0.6443 -0.1737
  740MOL0     C 2025   4.818   7.786   7.612  1.1594 -0.5942 -0.0787
  740MOL0     C 2026   4.713   7.730   7.514  0.2975 -0.2551  0.3835
  740MOL0    Cl 2027   4.750   7.761   7.342  0.2925  0.2590 -0.2650
  740MOL0     C 2028   4.797   7.904   8.292 -0.4444  1.4093  1.2688
  740MOL0     C 2029   4.674   7.887   8.358  0.7573  0.7294 -0.3734
  740MOL0     O 2030   4.412   7.663   8.332 -0.2902  0.0490  0.1481
  740MOL0     C 2031   4.153   7.909   8.381  0.1247 -0.7477  0.8579
  740MOL0     C 2032   4.017   7.926   8.436 -0.5102  0.7947 -0.0448
  740MOL0     N 2033   3.363   7.621   8.444  1.2729  0.6456 -0.4856
  740MOL0     N 2034   3.285   7.527   8.409  0.2006  0.0645 -1.0055
  740MOL0     C 2035   2.385   7.009   8.178  1.5738  0.1766 -0.2317
  740MOL0     C 2036   2.251   7.035   8.153  0.3115  0.8963 -0.5987
  740MOL0     C 2037   1.806   7.176   8.251  1.4924  0.7827  0.3281
  740MOL0     C 2038   1.690   7.134   8.317 -0.2734  0.3478  0.7693
  740MOL0     C 2039   1.568   7.173   8.270  0.3444  0.4843  1.0172
  740MOL0     C 2040   1.559   7.250   8.153 -0.0283 -0.9955  0.1717
  740MOL0     O 2041   1.435   7.278   8.103 -0.2610 -0.4434  0.0446
  740MOL0     C 2042   1.399   7.411   8.138 -0.1117 -0.5098 -0.3836
  740MOL0     C 2043   1.257   7.428   8.092 -0.1168 -0.0480  0.3830
  740MOL0     C 2044   1.157   7.331   8.154 -0.5558 -0.2300  0.7889
  740MOL0     C 2045   1.049   7.392   8.246  0.1741 -0.5850 -0.4227
  740MOL0     C 2046   0.919   7.430   8.186 -0.8853 -0.9004  0.1513
  740MOL0     C 2047   0.817   7.478   8.152  0.3456  1.0267 -0.6702
  740MOL0     C 2048   1.675   7.275   8.074 -0.8921  0.7386 -1.1240
  740MOL0     C 2049   1.795   7.234   8.121 -0.1821 -0.6406  0.1045
  740MOL0     C 2050   1.920   7.269   8.040 -0.1076 -0.4302  0.5761
  740MOL0     H 2051   2.148   7.017   8.477 -0.6399  0.8366 -1.1512
  740MOL0     H 2052   2.384   6.962   8.510 -1.2899 -1.1694 -0.2632
  740MOL0     H 2053   2.657   6.944   8.131  3.9676 -2.7631 -1.3599
  740MOL0     H 2054   2.564   6.806   8.185 -0.7763 -0.1629  1.5817
  740MOL0     H 2055   2.741   6.771   8.364 -3.2313  0.4876 -0.8030
  740MOL0     H 2056   2.795   6.769   8.195 -1.6718 -0.3090 -0.8474
  740MOL0     H 2057   2.967   6.899   8.279  0.6315  1.1494  0.8471
  740MOL0     H 2058   2.843   7.019   8.237 -2.1104  1.4725  0.3629
  740MOL0     H 2059   2.799   7.056   8.473 -0.0559 -0.5568  1.6017
  740MOL0     H 2060   2.907   6.922   8.522  2.1036  0.4333  0.1351
  740MOL0     H 2061   2.983   7.176   8.391 -1.3827 -1.0121 -0.6343
  740MOL0     H 2062   3.105   7.050   8.432 -0.7115 -2.5619  0.7109
  740MOL0     H 2063   2.945   7.204   8.647  1.0229  1.7907 -0.4608
  740MOL0     H 2064   3.061   7.087   8.682 -1.6821 -1.2206 -0.1435
  740MOL0     H 2065   3.230   7.190   8.569 -0.8522 -0.7587  1.6142
  740MOL0     H 2066   3.162   7.281   8.699  0.6734 -1.4683 -0.2949
  740MOL0     H 2067   3.136   7.336   8.406  3.7930 -3.2016  1.1888
  740MOL0     H 2068   3.030   7.412   8.536 -0.9139 -0.4508 -1.8599
  740MOL0     H 2069   3.238   7.524   8.724 -0.5710 -3.3262  0.9501
  740MOL0     H 2070   3.392   7.718   8.769 -1.0237  1.5272 -0.0582
  740MOL0     H 2071   3.407   7.820   8.626  2.0595  0.9388 -0.0895
  740MOL0     H 2072   3.599   7.606   8.704 -1.0430  0.6473  0.2882
  740MOL0     H 2073   3.622   7.700   8.560  0.7959  1.2016 -0.1977
  740MOL0     H 2074   3.624   7.918   8.715 -1.1810 -0.1759  2.2966
  740MOL0     H 2075   3.675   7.802   8.840 -1.8383 -2.0180  0.0943
  740MOL0     H 2076   3.872   7.897   8.732  2.6828 -0.6593 -1.8048
  740MOL0     H 2077   3.861   7.720   8.708  1.6530 -0.1234  0.5961
  740MOL0     H 2078   3.967   7.618   8.562 -1.2591  2.4040  3.0325
  740MOL0     H 2079   4.314   7.554   8.543 -0.4987  1.6338 -0.2933
  740MOL0     H 2080   4.192   7.480   8.451  1.4735  1.1459 -1.2278
  740MOL0     H 2081   4.156   7.518   8.620 -1.4458  0.7465  0.4151
  740MOL0     H 2082   4.476   7.886   8.081  0.3854  0.0820  0.4370
  740MOL0     H 2083   4.685   7.880   7.972 -1.3993 -1.7191 -0.6965
  740MOL0     H 2084   5.071   7.938   8.222 -0.6999 -1.3685  2.0569
  740MOL0     H 2085   5.059   7.764   8.192  1.1270 -0.0693 -0.4036
  740MOL0     H 2086   5.138   7.998   8.004 -0.4203  0.3611  3.8868
  740MOL0     H 2087   5.252   7.887   8.060  0.3161  2.2517 -1.0837
  740MOL0     H 2088   5.075   7.709   7.936  2.5184 -1.2743  1.5793
  740MOL0     H 2089   5.233   7.749   7.870 -1.4077 -1.9596  0.2172
  740MOL0     H 2090   5.120   7.941   7.751 -1.0601  0.2095  2.5608
  740MOL0     H 2091   4.969   7.872   7.819  0.1899 -1.0314  1.3327
  740MOL0     H 2092   5.161   7.724   7.635 -1.1469 -0.9628 -0.7393
  740MOL0     H 2093   5.029   7.640   7.703 -1.1493 -0.3007 -2.1648
  740MOL0     H 2094   4.982   7.700   7.487  4.6639 -0.1452  1.3573
  740MOL0     H 2095   5.000   7.871   7.520  3.8760 -1.0921 -1.2436
  740MOL0     H 2096   4.798   7.890   7.639 -0.9292 -0.4403 -2.0232
  740MOL0     H 2097   4.798   7.731   7.704 -0.2936 -0.9869 -0.6197
  740MOL0     H 2098   4.607   7.742   7.537 -0.2581 -1.7347 -1.1770
  740MOL0     H 2099   4.722   7.622   7.528  1.7400 -0.3929 -1.2530
  740MOL0     H 2100   4.885   7.906   8.355 -1.2240 -1.3955  2.6050
  740MOL0     H 2101   4.662   7.894   8.465  2.7924  5.2425 -0.1883
  740MOL0     H 2102   4.209   7.983   8.324 -1.9138 -0.7689 -1.3238
  740MOL0     H 2103   3.955   8.015   8.429 -0.8140  0.6391  0.6209
  740MOL0     H 2104   2.440   7.006   8.085  2.1440 -1.7802  0.1188
  740MOL0     H 2105   2.218   7.034   8.050  0.6648  2.4622 -0.7546
  740MOL0     H 2106   1.706   7.073   8.405  0.2171 -0.8187 -0.0881
  740MOL0     H 2107   1.484   7.129   8.323 -0.3329  1.6543  0.9313
  740MOL0     H 2108   1.406   7.433   8.245  1.1533  2.1607 -0.9233
  740MOL0     H 2109   1.468   7.477   8.084 -1.0684 -0.1308 -1.1735
  740MOL0     H 2110   1.262   7.418   7.983 -0.6143  0.1013  0.3447
  740MOL0     H 2111   1.228   7.529   8.120  1.3110  0.3240  0.6060
  740MOL0     H 2112   1.103   7.287   8.070 -0.8762  0.9447  0.3532
  740MOL0     H 2113   1.205   7.250   8.209 -1.9280 -2.8828 -1.6531
  740MOL0     H 2114   1.092   7.486   8.281  0.9967 -1.2608  0.4470
  740MOL0     H 2115   1.042   7.328   8.335  1.8087  1.4166  1.2832
  740MOL0     H 2116   0.722   7.513   8.120 -0.4697  0.1227  0.6646
  740MOL0     H 2117   1.666   7.339   7.987 -2.3353 -1.0246 -2.3425
  740MOL0     H 2118   2.013   7.267   8.098  0.8455 -2.5427 -0.8732
  740MOL0     H 2119   1.926   7.201   7.954  0.1043  0.8669 -0.4634
  740MOL0     H 2120   1.912   7.368   7.996  0.1740 -1.0081 -0.8385
  741MOL0     O 2121   0.663   4.351   8.355  0.2806  0.2462  0.4247
  741MOL0     C 2122   0.545   4.353   8.334  0.2749  0.5718 -0.4395
  741MOL0     O 2123   0.468   4.465   8.310 -0.5159 -0.2898 -0.8069
  741MOL0     C 2124   0.516   4.561   8.228  0.4715  0.4610  0.4497
  741MOL0     C 2125   0.586   4.529   8.109  0.3419 -0.1792  0.4264
  741MOL0     C 2126   0.658   4.624   8.031 -0.2119 -0.7113  0.0304
  741MOL0     C 2127   0.631   4.759   8.056  0.3068 -0.1098  0.1605
  741MOL0     O 2128   0.668   4.867   7.974 -0.4847 -0.0253 -0.7698
  741MOL0     C 2129   0.737   4.969   8.033 -0.0843 -0.8393  0.1180
  741MOL0     C 2130   0.864   5.005   7.946  0.2187  0.5654 -0.2443
  741MOL0     C 2131   0.833   5.078   7.809  0.9808 -1.0714 -0.1445
  741MOL0     C 2132   0.759   5.217   7.836  0.7666 -0.3044  0.6431
  741MOL0     C 2133   0.612   5.219   7.821 -1.0085  0.0026 -0.0638
  741MOL0     C 2134   0.557   5.364   7.836  1.0074  0.6170  0.0523
  741MOL0     C 2135   0.483   5.408   7.712  0.6326  0.3085 -0.5898
  741MOL0     C 2136   0.417   5.553   7.696 -0.2211  0.1788 -0.8356
  741MOL0     N 2137   0.463   5.647   7.792  0.5730 -1.6062 -0.3655
  741MOL0     C 2138   0.587   5.694   7.814 -0.6648 -0.3574 -1.2659
  741MOL0     C 2139   0.571   5.779   7.928  0.8664 -0.0760  0.7756
  741MOL0     C 2140   0.676   5.869   7.986 -0.3893  0.5361 -0.5083
  741MOL0     C 2141   0.694   5.857   8.137 -0.0531 -0.2424 -0.0076
  741MOL0     C 2142   0.809   5.947   8.192 -0.6631  0.7153 -0.1594
  741MOL0     C 2143   0.796   5.955   8.348 -0.0232  0.3585  0.5982
  741MOL0     O 2144   0.894   6.040   8.400  0.4028 -0.1483  0.2987
  741MOL0     C 2145   0.869   6.087   8.530 -0.2641  0.0287 -0.2423
  741MOL0     C 2146   0.778   6.043   8.623  0.6647  0.3227  0.5394
  741MOL0     C 2147   0.749   6.103   8.748  0.3705  0.2319  0.2176
  741MOL0     C 2148   0.636   6.053   8.834 -0.7747  0.6074 -0.9915
  741MOL0     C 2149   0.830   6.215   8.784 -0.1538  0.8776 -0.1240
  741MOL0     C 2150   0.828   6.286   8.909 -0.2691  0.0127 -1.5723
  741MOL0     O 2151   0.927   6.357   8.942 -0.5361  0.7074 -0.1339
  741MOL0     C 2152   0.903   6.467   9.013  1.0473  0.0456 -0.0339
  741MOL0     C 2153   0.883   6.456   9.151 -0.0789 -0.2722 -0.1211
  741MOL0     C 2154   0.843   6.568   9.220  1.0477  0.3600  0.0562
  741MOL0     C 2155   0.821   6.688   9.162 -0.4713  0.4070 -0.3222
  741MOL0     O 2156   0.778   6.798   9.234  0.5159  0.1502  0.0438
  741MOL0     C 2157   0.693   6.784   9.351 -0.2021  0.7858  0.0026
  741MOL0     C 2158   0.631   6.929   9.382  0.4400  0.6192  0.5155
  741MOL0     C 2159   0.731   7.027   9.444 -0.6532 -0.0825 -0.2478
  741MOL0     C 2160   0.743   6.999   9.599  0.5794  0.2735  1.0429
  741MOL0     C 2161   0.812   7.119   9.673 -0.4156  0.2196 -0.6336
  741MOL0     C 2162   0.809   7.107   9.833 -0.3743 -0.2248  0.4617
  741MOL0     C 2163   0.677   7.065   9.904 -0.4562 -0.5040 -0.4509
  741MOL0     C 2164   0.692   7.051  10.064  1.2320 -0.7121  0.9887
  741MOL0    Cl 2165   0.565   6.910  10.098 -0.6635 -0.2643 -0.3632
  741MOL0     C 2166   0.858   6.701   9.027  0.4283 -0.0208 -0.8280
  741MOL0     C 2167   0.891   6.589   8.947  0.7498 -0.2499  0.1528
  741MOL0     O 2168   0.725   6.285   8.970 -0.0173  0.0773  1.1318
  741MOL0     C 2169   0.929   6.251   8.692 -0.6128  0.3932  0.4503
  741MOL0     C 2170   0.953   6.194   8.566  0.2371  0.0867 -0.5097
  741MOL0     N 2171   0.445   5.780   7.965 -0.3171  0.4065 -0.0624
  741MOL0     N 2172   0.378   5.702   7.883  0.6550 -0.0240 -0.9201
  741MOL0     C 2173   0.557   4.794   8.169 -0.7956  0.1111 -0.3154
  741MOL0     C 2174   0.504   4.700   8.261  0.4381  1.0237  0.1163
  741MOL0     C 2175   0.466   4.229   8.324 -0.0010  0.5982 -0.9103
  741MOL0     C 2176   0.341   4.230   8.272 -0.9462 -0.4666  0.9716
  741MOL0     C 2177   0.272   4.116   8.235  0.5357  0.5854 -1.1671
  741MOL0     C 2178   0.319   3.996   8.273  0.0929 -0.3024  0.2996
  741MOL0     O 2179   0.245   3.887   8.237  0.0965  0.2581 -0.1095
  741MOL0     C 2180   0.241   3.768   8.313 -0.0983  0.2322  0.5358
  741MOL0     C 2181   0.253   3.657   8.211  0.0397  0.5188  0.2693
  741MOL0     C 2182   0.264   3.521   8.284 -0.2841  1.2463 -0.1144
  741MOL0     C 2183   0.226   3.404   8.191 -0.0934 -0.0826 -0.2203
  741MOL0     C 2184   0.247   3.267   8.238  0.7430  0.0001 -0.1328
  741MOL0     C 2185   0.275   3.159   8.288 -0.0753 -0.3373  0.3544
  741MOL0     C 2186   0.441   3.985   8.336  0.3614 -0.3162 -0.5920
  741MOL0     C 2187   0.521   4.104   8.362 -0.1379 -0.4389  0.1739
  741MOL0     C 2188   0.641   4.093   8.452  0.8350 -0.2194  0.1054
  741MOL0     H 2189   0.591   4.427   8.072 -2.8312 -0.0029 -0.7956
  741MOL0     H 2190   0.715   4.578   7.951 -0.1072  1.3288 -1.1364
  741MOL0     H 2191   0.782   4.951   8.131 -0.7907 -2.2475  0.2091
  741MOL0     H 2192   0.683   5.062   8.049  3.8354  1.5150  1.1962
  741MOL0     H 2193   0.938   5.065   8.001 -1.1348  0.4784  1.8063
  741MOL0     H 2194   0.920   4.912   7.934 -0.2128  0.0487  1.3800
  741MOL0     H 2195   0.933   5.107   7.778 -0.6116  4.5377 -1.1146
  741MOL0     H 2196   0.782   5.020   7.731 -1.7588  0.7198  0.1769
  741MOL0     H 2197   0.791   5.266   7.929  0.3366  0.1700  0.5474
  741MOL0     H 2198   0.793   5.285   7.758  0.0887  0.4161  0.9651
  741MOL0     H 2199   0.572   5.153   7.899  1.7960  0.0595  1.5451
  741MOL0     H 2200   0.595   5.174   7.723  0.7683 -3.1832  0.9378
  741MOL0     H 2201   0.499   5.364   7.929  0.9554 -1.4080  0.0675
  741MOL0     H 2202   0.642   5.433   7.850  0.0539  1.5671  1.4987
  741MOL0     H 2203   0.404   5.337   7.687  1.6470 -1.3146  0.6193
  741MOL0     H 2204   0.559   5.388   7.636  1.0135  0.7703 -0.3374
  741MOL0     H 2205   0.450   5.583   7.596 -0.4784  2.1537 -0.3778
  741MOL0     H 2206   0.311   5.537   7.678  0.4852 -1.9805 -3.9052
  741MOL0     H 2207   0.683   5.686   7.764  0.3345 -0.1769  0.5652
  741MOL0     H 2208   0.644   5.973   7.970 -1.4725  0.4119  0.6724
  741MOL0     H 2209   0.767   5.851   7.928 -1.7462  0.5886 -2.7705
  741MOL0     H 2210   0.598   5.872   8.185  0.8602 -1.2985  2.2840
  741MOL0     H 2211   0.730   5.756   8.158  4.5616  0.5813 -2.5939
  741MOL0     H 2212   0.905   5.905   8.162 -1.9462 -0.1773 -3.4369
  741MOL0     H 2213   0.800   6.049   8.155  2.0751  1.4259  0.8990
  741MOL0     H 2214   0.695   5.990   8.369  0.6887  1.0363  3.2992
  741MOL0     H 2215   0.807   5.857   8.394 -0.1739  0.1161  0.1163
  741MOL0     H 2216   0.699   5.973   8.595 -1.7894  2.8840  0.5455
  741MOL0     H 2217   0.654   6.050   8.941 -4.7838  2.4510 -0.0678
  741MOL0     H 2218   0.617   5.947   8.816  2.2010  0.0732 -1.5100
  741MOL0     H 2219   0.538   6.101   8.824 -1.4312 -0.4920 -0.0703
  741MOL0     H 2220   0.893   6.355   9.189 -2.9429 -0.4608  0.3051
  741MOL0     H 2221   0.834   6.564   9.328 -1.0710 -1.7041 -0.1366
  741MOL0     H 2222   0.612   6.717   9.320  0.3964  1.0958 -2.4636
  741MOL0     H 2223   0.747   6.758   9.442 -2.9100  3.7966  2.7196
  741MOL0     H 2224   0.587   6.971   9.291 -1.8027 -1.3450  0.6072
  741MOL0     H 2225   0.541   6.912   9.441 -0.1262  1.3407 -0.1179
  741MOL0     H 2226   0.686   7.126   9.439 -1.4028 -0.3271  1.0966
  741MOL0     H 2227   0.831   7.025   9.400 -0.0247 -1.4920  1.1144
  741MOL0     H 2228   0.775   6.897   9.620  0.5232 -0.1608 -0.8471
  741MOL0     H 2229   0.641   6.993   9.636 -0.3953  3.7952 -0.6269
  741MOL0     H 2230   0.914   7.121   9.635 -0.0290 -2.5206  0.0040
  741MOL0     H 2231   0.752   7.205   9.642  0.2865  0.3132 -1.8086
  741MOL0     H 2232   0.831   7.205   9.877 -0.9478  0.1677 -0.1029
  741MOL0     H 2233   0.894   7.048   9.868 -0.4699  0.6313  2.2632
  741MOL0     H 2234   0.654   6.969   9.857 -2.0814 -0.0923 -0.5693
  741MOL0     H 2235   0.604   7.145   9.887 -1.0608 -1.6235 -3.7921
  741MOL0     H 2236   0.671   7.150  10.105  0.2832  0.2908 -1.6795
  741MOL0     H 2237   0.794   7.019  10.083  2.2406 -0.0531 -2.5213
  741MOL0     H 2238   0.841   6.802   8.991 -0.9495  0.0035 -0.1600
  741MOL0     H 2239   0.896   6.608   8.841  0.1383  4.5778  0.7675
  741MOL0     H 2240   0.995   6.336   8.707  2.6347 -1.9439  0.2841
  741MOL0     H 2241   1.017   6.252   8.500  0.8036 -0.1640 -0.1904
  741MOL0     H 2242   0.544   4.898   8.196  2.9539 -0.1369  3.6243
  741MOL0     H 2243   0.458   4.722   8.357  0.6971  0.2830  0.4176
  741MOL0     H 2244   0.299   4.320   8.227  0.4686  0.1977  0.9056
  741MOL0     H 2245   0.178   4.107   8.181  0.3754 -1.5601 -0.6102
  741MOL0     H 2246   0.324   3.763   8.383 -0.1720 -1.1565  0.5471
  741MOL0     H 2247   0.148   3.781   8.370  0.5043  2.3585  1.1038
  741MOL0     H 2248   0.329   3.673   8.135 -1.4754 -2.2929 -2.0854
  741MOL0     H 2249   0.164   3.664   8.147  1.5876  2.6453 -1.8469
  741MOL0     H 2250   0.368   3.510   8.317 -0.5425  0.0222  0.3355
  741MOL0     H 2251   0.208   3.533   8.376  0.9380 -2.0799  1.2347
  741MOL0     H 2252   0.284   3.412   8.098  2.4263  3.6983  1.4443
  741MOL0     H 2253   0.120   3.424   8.171 -0.3363 -2.0181 -1.0793
  741MOL0     H 2254   0.303   3.066   8.334  0.3086  0.0955  0.9924
  741MOL0     H 2255   0.481   3.889   8.366  0.7175 -0.6048 -1.9239
  741MOL0     H 2256   0.734   4.088   8.395  0.3234  3.8815 -1.3913
  741MOL0     H 2257   0.647   4.172   8.528 -3.6796 -0.4312  0.9418
  741MOL0     H 2258   0.619   3.999   8.504 -1.8744  0.3954  0.2252
  742MOL0     O 2259   8.527   1.483   5.002 -0.0801 -0.8747 -0.5362
  742MOL0     C 2260   8.648   1.490   5.020  0.0288  0.6098 -0.0440
  742MOL0     O 2261   8.732   1.596   4.977  0.1545  0.0352  0.3509
  742MOL0     C 2262   8.676   1.723   4.988  0.7518 -0.4643 -0.6555
  742MOL0     C 2263   8.577   1.760   4.901  0.0686 -1.1204  0.0831
  742MOL0     C 2264   8.535   1.898   4.902  0.6593 -0.4755  0.0786
  742MOL0     C 2265   8.588   1.989   4.995 -0.4921 -0.1590 -0.1725
  742MOL0     O 2266   8.541   2.118   4.996  0.2756 -0.0540  0.0729
  742MOL0     C 2267   8.398   2.136   4.977 -0.9474  0.1743  0.0990
  742MOL0     C 2268   8.353   2.271   5.029  0.3397 -0.1837  0.4984
  742MOL0     C 2269   8.204   2.298   5.000  0.0430 -0.0970  0.8796
  742MOL0     C 2270   8.171   2.442   5.042  0.2980 -0.9215 -0.0571
  742MOL0     C 2271   8.032   2.486   4.991 -0.2235  0.4216 -0.7795
  742MOL0     C 2272   8.012   2.637   5.007  0.4513 -0.0208 -0.4397
  742MOL0     C 2273   7.875   2.669   4.939 -0.1957 -0.1387 -0.6694
  742MOL0     C 2274   7.844   2.816   4.988  1.1333  0.2490 -0.2311
  742MOL0     N 2275   7.764   2.886   4.891 -0.3407  0.0846  0.0494
  742MOL0     C 2276   7.809   2.964   4.787  0.5300  0.8428 -0.8896
  742MOL0     C 2277   7.687   3.011   4.727 -0.3476  0.5789 -0.2342
  742MOL0     C 2278   7.668   3.121   4.621  0.4087 -0.2439 -0.0361
  742MOL0     C 2279   7.690   3.068   4.484 -0.5402  0.3193 -0.1627
  742MOL0     C 2280   7.677   3.179   4.381 -0.6276 -0.1682 -0.3380
  742MOL0     C 2281   7.698   3.145   4.235 -0.3921 -0.1120 -0.2039
  742MOL0     O 2282   7.839   3.112   4.198  0.1397 -0.8351 -0.9415
  742MOL0     C 2283   7.850   2.976   4.160  0.7056  0.5770  1.3915
  742MOL0     C 2284   7.776   2.865   4.205  0.5554  0.3731  0.3931
  742MOL0     C 2285   7.776   2.740   4.145 -0.4391  0.7526 -0.4006
  742MOL0     C 2286   7.697   2.627   4.214  0.1414 -0.9854  0.5336
  742MOL0     C 2287   7.867   2.727   4.032  0.2943 -0.1757  0.3406
  742MOL0     C 2288   7.902   2.605   3.965 -0.2323 -0.3238 -0.7735
  742MOL0     O 2289   7.961   2.614   3.835  0.1164  0.1805  0.2259
  742MOL0     C 2290   7.995   2.500   3.778 -0.8073 -0.5956  0.5274
  742MOL0     C 2291   8.136   2.480   3.750 -0.7365 -0.0261 -0.4933
  742MOL0     C 2292   8.192   2.370   3.684 -0.3813 -0.0715 -1.0029
  742MOL0     C 2293   8.108   2.278   3.632  0.0494  0.0562  0.2858
  742MOL0     O 2294   8.158   2.169   3.573 -0.0071  0.8785  0.1304
  742MOL0     C 2295   8.074   2.059   3.542 -0.3626  0.6726 -1.6110
  742MOL0     C 2296   8.053   1.984   3.679  0.4387 -0.1399  1.0336
  742MOL0     C 2297   7.959   1.864   3.662 -0.3279 -1.1318 -0.5097
  742MOL0     C 2298   7.925   1.797   3.796  0.0285  0.5325 -0.2782
  742MOL0     C 2299   7.823   1.685   3.785 -0.0353  0.7591  1.1127
  742MOL0     C 2300   7.888   1.565   3.713  0.1720 -0.3394 -0.5443
  742MOL0     C 2301   7.796   1.443   3.700  0.1071 -0.0958  0.1082
  742MOL0     C 2302   7.863   1.328   3.770 -0.3735 -0.4132  0.4513
  742MOL0    Cl 2303   7.748   1.189   3.758 -0.2107 -0.0785 -0.2330
  742MOL0     C 2304   7.966   2.297   3.658  0.0804  0.8064 -0.5459
  742MOL0     C 2305   7.908   2.400   3.735  0.5070  0.2119  0.1370
  742MOL0     O 2306   7.898   2.508   4.035 -0.8615 -0.4849 -1.1636
  742MOL0     C 2307   7.943   2.832   3.989  0.3781 -0.2401 -0.3706
  742MOL0     C 2308   7.931   2.956   4.051 -0.5650 -0.8789 -0.8543
  742MOL0     N 2309   7.590   2.948   4.798  0.7401 -0.0641 -0.1346
  742MOL0     N 2310   7.634   2.877   4.892 -0.2395  0.0026  0.2773
  742MOL0     C 2311   8.689   1.946   5.087  0.1957 -0.5419 -0.0173
  742MOL0     C 2312   8.730   1.811   5.085 -0.3044 -0.9356  0.7187
  742MOL0     C 2313   8.713   1.358   5.054 -0.2352  0.4133  0.4418
  742MOL0     C 2314   8.641   1.244   5.086 -0.2851 -0.5004  0.6999
  742MOL0     C 2315   8.697   1.122   5.108  0.0839  0.5781 -0.7589
  742MOL0     C 2316   8.836   1.097   5.116  0.0401 -0.7067 -0.2719
  742MOL0     O 2317   8.904   0.979   5.148  0.2551 -0.0649 -0.5232
  742MOL0     C 2318   8.823   0.871   5.203  0.0485 -1.0153  1.1143
  742MOL0     C 2319   8.839   0.862   5.354  1.0050  0.1861 -0.2262
  742MOL0     C 2320   8.788   0.983   5.432  0.4613  0.0412  0.5569
  742MOL0     C 2321   8.811   0.987   5.588 -0.9430  0.1987  0.2048
  742MOL0     C 2322   8.947   1.053   5.600  0.2141  0.6647  0.3240
  742MOL0     C 2323   9.060   1.105   5.603 -0.5359  0.1405 -1.5746
  742MOL0     C 2324   8.911   1.211   5.091 -0.1833  1.2144 -0.6603
  742MOL0     C 2325   8.858   1.338   5.062 -0.0918  0.3464 -0.4429
  742MOL0     C 2326   8.969   1.450   5.061  0.2851  0.8849  0.3490
  742MOL0     H 2327   8.535   1.691   4.829  1.2159 -2.2907  0.5174
  742MOL0     H 2328   8.468   1.920   4.819  2.9265  1.9831 -1.2298
  742MOL0     H 2329   8.346   2.060   5.036  0.7950  0.8894  2.7422
  742MOL0     H 2330   8.359   2.129   4.875  2.2660  3.1638 -1.5531
  742MOL0     H 2331   8.367   2.276   5.137 -1.6585  0.7479  0.7586
  742MOL0     H 2332   8.420   2.349   4.990  3.0372 -1.5810  1.9963
  742MOL0     H 2333   8.203   2.299   4.891  1.1509  1.8427  0.8459
  742MOL0     H 2334   8.150   2.223   5.059  1.0303 -0.0396  1.8979
  742MOL0     H 2335   8.179   2.465   5.149  0.5714  3.7812 -0.8558
  742MOL0     H 2336   8.244   2.512   4.999  0.7574 -0.4163  1.4671
  742MOL0     H 2337   7.945   2.433   5.031  0.0176 -1.0067 -2.0589
  742MOL0     H 2338   8.028   2.467   4.884 -1.5607  2.2876 -1.1169
  742MOL0     H 2339   8.012   2.665   5.112  2.0816  0.2018 -0.4778
  742MOL0     H 2340   8.090   2.691   4.953 -0.5070 -0.4151 -2.3082
  742MOL0     H 2341   7.797   2.601   4.975  1.9389 -2.3305  0.0890
  742MOL0     H 2342   7.878   2.667   4.830 -2.3352 -1.9859 -0.7746
  742MOL0     H 2343   7.804   2.819   5.090  2.7812  1.3543  0.4231
  742MOL0     H 2344   7.936   2.874   4.993  0.5246  1.2278 -0.2193
  742MOL0     H 2345   7.913   2.981   4.764  0.2411  0.8909 -2.2026
  742MOL0     H 2346   7.738   3.197   4.656  1.0708 -1.3163  1.0745
  742MOL0     H 2347   7.566   3.161   4.629 -0.5156 -2.4798  0.2966
  742MOL0     H 2348   7.790   3.027   4.467 -0.5931  0.4916 -0.9300
  742MOL0     H 2349   7.615   2.990   4.469  0.6042 -1.0360  0.9091
  742MOL0     H 2350   7.575   3.219   4.389 -0.5724 -0.3246  1.7750
  742MOL0     H 2351   7.738   3.264   4.412 -0.6194 -0.9251  1.8741
  742MOL0     H 2352   7.627   3.065   4.213 -0.1223 -0.8097  1.3440
  742MOL0     H 2353   7.682   3.236   4.177  0.2494  0.8144  1.0360
  742MOL0     H 2354   7.712   2.877   4.292  1.4679 -1.2530  1.3224
  742MOL0     H 2355   7.655   2.550   4.149  3.0847 -0.1703 -2.6083
  742MOL0     H 2356   7.613   2.663   4.276  1.6961  0.0889  2.1076
  742MOL0     H 2357   7.763   2.583   4.289  0.5571 -1.0758  0.1107
  742MOL0     H 2358   8.213   2.549   3.782  0.0585 -0.9700 -0.3378
  742MOL0     H 2359   8.298   2.381   3.668  0.3451  0.8656  3.2264
  742MOL0     H 2360   7.983   2.103   3.499 -0.5671  0.7704 -1.0893
  742MOL0     H 2361   8.121   1.987   3.475  2.2778  1.6711 -0.9520
  742MOL0     H 2362   8.145   1.947   3.725  1.2579 -0.5985 -0.8970
  742MOL0     H 2363   8.007   2.052   3.752  1.6044  1.6270  0.1963
  742MOL0     H 2364   8.020   1.795   3.603  2.4541 -1.7545  2.8123
  742MOL0     H 2365   7.865   1.890   3.612  0.2446  2.5646  0.0350
  742MOL0     H 2366   7.885   1.881   3.853 -2.4067 -0.6938 -0.0675
  742MOL0     H 2367   8.012   1.767   3.855 -0.7425  0.6376  0.9326
  742MOL0     H 2368   7.783   1.662   3.884 -2.8268 -0.4568 -0.2049
  742MOL0     H 2369   7.733   1.712   3.729 -0.5327 -1.6007  0.6847
  742MOL0     H 2370   7.983   1.540   3.761  0.1929 -0.5426 -0.6889
  742MOL0     H 2371   7.900   1.593   3.608 -3.6407 -2.6080 -1.8083
  742MOL0     H 2372   7.805   1.420   3.593  0.5156 -2.8460  0.6687
  742MOL0     H 2373   7.694   1.462   3.735 -0.9953 -1.1692 -2.2601
  742MOL0     H 2374   7.869   1.379   3.867  4.6507  0.1607  0.1267
  742MOL0     H 2375   7.965   1.307   3.736  1.2347  4.4617  1.4413
  742MOL0     H 2376   7.889   2.230   3.623 -2.5706  3.1602  0.4337
  742MOL0     H 2377   7.803   2.421   3.752  0.7873  0.3964  1.8070
  742MOL0     H 2378   8.019   2.825   3.912 -0.2060  0.7345 -1.0567
  742MOL0     H 2379   7.993   3.039   4.018  0.0163 -1.0621 -0.2427
  742MOL0     H 2380   8.716   2.017   5.165 -0.2387  4.3853 -3.8226
  742MOL0     H 2381   8.815   1.788   5.148  1.7986  0.8447 -1.2962
  742MOL0     H 2382   8.534   1.254   5.069 -0.0209  0.3018 -0.5893
  742MOL0     H 2383   8.621   1.044   5.113  2.4312 -1.7879 -0.1616
  742MOL0     H 2384   8.715   0.881   5.186  0.3090  0.8390  0.3004
  742MOL0     H 2385   8.878   0.786   5.161 -1.3311 -1.8064  0.8182
  742MOL0     H 2386   8.943   0.830   5.360  0.5083 -1.3922  0.7124
  742MOL0     H 2387   8.784   0.774   5.390  1.2974  0.8819  2.0786
  742MOL0     H 2388   8.823   1.078   5.389  1.7907 -0.5757  0.2329
  742MOL0     H 2389   8.681   0.971   5.415  0.4042 -2.2989  2.1798
  742MOL0     H 2390   8.794   0.894   5.643 -3.0797  0.4127 -0.0076
  742MOL0     H 2391   8.736   1.057   5.626  0.4212  2.7239 -1.4343
  742MOL0     H 2392   9.160   1.143   5.605 -0.0425 -0.8755 -3.4548
  742MOL0     H 2393   9.018   1.193   5.094 -0.1580  1.4812  0.1753
  742MOL0     H 2394   8.987   1.473   4.956 -0.5946 -0.3830 -0.1058
  742MOL0     H 2395   8.934   1.538   5.116 -0.6161 -0.4447  1.9924
  742MOL0     H 2396   9.068   1.420   5.096  1.3294  0.4834 -2.6150
  743MOL0     O 2397  11.291   4.576  10.554  0.2051 -0.4596  0.7963
  743MOL0     C 2398  11.186   4.555  10.608  0.6508  0.4078 -0.2900
  743MOL0     O 2399  11.074   4.545  10.543  0.0754  0.2804  0.1106
  743MOL0     C 2400  11.067   4.584  10.407 -0.9131 -0.3962 -0.2870
  743MOL0     C 2401  10.965   4.672  10.375  0.1402  0.3958 -0.2068
  743MOL0     C 2402  10.943   4.708  10.239 -0.1674 -0.2651  0.7177
  743MOL0     C 2403  11.025   4.660  10.138  0.3695  0.0644 -0.1287
  743MOL0     O 2404  11.009   4.708  10.013 -0.3791 -0.1793  0.8481
  743MOL0     C 2405  11.052   4.625   9.901  0.1938 -0.5151 -0.0524
  743MOL0     C 2406  10.999   4.675   9.761 -0.2094  0.3257 -0.0758
  743MOL0     C 2407  10.849   4.665   9.761  0.9341 -0.1308  0.9335
  743MOL0     C 2408  10.803   4.624   9.619  0.5939  0.3681 -0.2671
  743MOL0     C 2409  10.650   4.596   9.596 -0.5304 -0.3198  0.5837
  743MOL0     C 2410  10.570   4.716   9.645  0.0146 -1.0690 -0.0674
  743MOL0     C 2411  10.419   4.699   9.616 -0.7037 -0.2293  0.4791
  743MOL0     C 2412  10.336   4.816   9.658 -0.6329 -0.0878  0.4101
  743MOL0     N 2413  10.197   4.792   9.655  0.4876  0.4329  0.0842
  743MOL0     C 2414  10.134   4.771   9.528 -0.1833  0.6751 -0.5467
  743MOL0     C 2415  10.006   4.734   9.551  0.7934  1.6307 -0.2104
  743MOL0     C 2416   9.885   4.682   9.468 -0.4580 -0.2388 -0.0981
  743MOL0     C 2417   9.859   4.784   9.359  0.5058 -0.0563  0.4007
  743MOL0     C 2418   9.833   4.927   9.416 -0.8735 -0.4691  0.5816
  743MOL0     C 2419   9.713   4.936   9.518 -0.4226 -0.4155  0.6401
  743MOL0     O 2420   9.639   5.059   9.507 -0.2367 -0.4101 -1.0037
  743MOL0     C 2421   9.709   5.173   9.535 -0.5962 -0.6576 -1.2645
  743MOL0     C 2422   9.797   5.186   9.640  0.2640 -0.0208  0.1178
  743MOL0     C 2423   9.856   5.312   9.667 -0.2023  0.1127  0.1184
  743MOL0     C 2424   9.949   5.316   9.783  0.1182 -0.1323 -0.6829
  743MOL0     C 2425   9.836   5.421   9.574  0.9102  0.1846 -0.9151
  743MOL0     C 2426   9.915   5.545   9.577  0.6114 -0.0845  0.4783
  743MOL0     O 2427   9.850   5.661   9.633 -0.6847  0.0890  0.1218
  743MOL0     C 2428   9.921   5.778   9.635 -0.1103 -0.4750  0.0601
  743MOL0     C 2429   9.985   5.822   9.749 -0.7551 -0.1396  0.3620
  743MOL0     C 2430  10.052   5.943   9.748  0.4200  0.3941 -0.0547
  743MOL0     C 2431  10.051   6.029   9.636 -0.2825  0.4283  0.7334
  743MOL0     O 2432  10.109   6.153   9.648 -0.0881 -0.2008  0.1420
  743MOL0     C 2433  10.247   6.135   9.650  0.2200 -0.6700 -0.1996
  743MOL0     C 2434  10.323   6.266   9.667 -0.4669  1.6016 -0.1145
  743MOL0     C 2435  10.292   6.335   9.800 -0.2773  0.8493 -0.3288
  743MOL0     C 2436  10.292   6.242   9.919  1.0048 -0.2430 -0.2399
  743MOL0     C 2437  10.327   6.323  10.044 -0.3230  0.1441 -0.1957
  743MOL0     C 2438  10.357   6.243  10.173 -0.5149 -0.2001 -0.0041
  743MOL0     C 2439  10.394   6.337  10.282 -0.2876 -0.7953 -0.2022
  743MOL0     C 2440  10.401   6.266  10.419  0.0084  0.3157  0.6176
  743MOL0    Cl 2441  10.445   6.358  10.569 -0.1609  0.0724  0.4512
  743MOL0     C 2442   9.974   5.980   9.527  0.2220  0.8406  0.1742
  743MOL0     C 2443   9.915   5.851   9.521  0.1367 -0.1571  0.0152
  743MOL0     O 2444  10.027   5.536   9.536  0.2645 -0.1200 -0.3433
  743MOL0     C 2445   9.730   5.413   9.480  0.2015 -1.2483  0.2403
  743MOL0     C 2446   9.673   5.287   9.463  0.0926  0.8235  0.0428
  743MOL0     N 2447   9.982   4.741   9.689  0.0057  0.4909 -0.2152
  743MOL0     N 2448  10.092   4.773   9.743 -0.3267 -0.6372 -0.1432
  743MOL0     C 2449  11.119   4.562  10.176  0.1666 -0.5639  0.9414
  743MOL0     C 2450  11.142   4.524  10.306  0.7612  0.0482  1.1103
  743MOL0     C 2451  11.178   4.545  10.760  0.3075  0.3573 -0.6179
  743MOL0     C 2452  11.051   4.533  10.829 -1.1050 -0.7722 -0.7403
  743MOL0     C 2453  11.042   4.506  10.967  0.0151 -0.5866  0.4693
  743MOL0     C 2454  11.155   4.491  11.040 -0.4721 -0.2136 -0.8888
  743MOL0     O 2455  11.162   4.464  11.174  0.0877 -0.3191  0.4290
  743MOL0     C 2456  11.038   4.433  11.240 -0.0925 -0.5320 -0.2730
  743MOL0     C 2457  11.056   4.459  11.386  1.1163 -1.5561 -0.6543
  743MOL0     C 2458  11.084   4.611  11.399  0.9543 -0.1855 -1.1053
  743MOL0     C 2459  11.109   4.656  11.543  0.1424 -0.2149  0.9057
  743MOL0     C 2460  10.977   4.642  11.624  0.1547 -0.5725  0.7946
  743MOL0     C 2461  10.884   4.607  11.685  0.7631  0.1803  0.6894
  743MOL0     C 2462  11.275   4.523  10.985 -0.0174 -0.1041 -0.2036
  743MOL0     C 2463  11.292   4.539  10.842  0.1202 -1.1143 -0.4531
  743MOL0     C 2464  11.433   4.553  10.785 -0.1482  0.4659 -0.1783
  743MOL0     H 2465  10.902   4.714  10.453  1.0825  1.1452  0.1741
  743MOL0     H 2466  10.868   4.784  10.221  1.1885  1.3613  1.6186
  743MOL0     H 2467  11.012   4.524   9.911  1.7818 -1.1266  0.5273
  743MOL0     H 2468  11.161   4.624   9.898  0.1906 -1.1484 -0.0199
  743MOL0     H 2469  11.035   4.775   9.735  1.1386  0.5696  2.4811
  743MOL0     H 2470  11.045   4.610   9.686 -0.7206  0.5409 -0.5799
  743MOL0     H 2471  10.824   4.582   9.827 -0.7917 -2.9864 -2.9600
  743MOL0     H 2472  10.821   4.764   9.799  1.9894 -0.6865  3.3759
  743MOL0     H 2473  10.827   4.713   9.560  1.5558  0.8002  0.7416
  743MOL0     H 2474  10.863   4.545   9.574  1.5033  2.3559 -2.7989
  743MOL0     H 2475  10.621   4.506   9.651 -0.1754 -0.3780  0.6803
  743MOL0     H 2476  10.649   4.573   9.489  0.6124 -1.2672  0.7541
  743MOL0     H 2477  10.576   4.713   9.755  0.1777 -0.3449 -0.0501
  743MOL0     H 2478  10.609   4.808   9.601  0.8923 -1.4476 -0.0949
  743MOL0     H 2479  10.372   4.618   9.673 -2.7509 -0.0431 -0.8064
  743MOL0     H 2480  10.406   4.691   9.508  0.8294  0.2295  0.2477
  743MOL0     H 2481  10.362   4.846   9.760  0.1990  0.0058  0.1746
  743MOL0     H 2482  10.372   4.900   9.598  3.0010 -1.0259  1.0539
  743MOL0     H 2483  10.188   4.791   9.436  0.0369 -1.6801 -0.9843
  743MOL0     H 2484   9.795   4.675   9.531 -0.7056  2.1155 -0.0975
  743MOL0     H 2485   9.918   4.585   9.431  1.4448  0.3098  0.0748
  743MOL0     H 2486   9.947   4.780   9.294  0.7987 -1.9682  0.8668
  743MOL0     H 2487   9.780   4.759   9.287  3.1861  3.8692 -4.6143
  743MOL0     H 2488   9.923   4.951   9.473 -1.6739  0.8523  1.3263
  743MOL0     H 2489   9.835   5.011   9.346  0.4868 -2.2463 -1.6683
  743MOL0     H 2490   9.637   4.862   9.491  0.1166 -0.1705 -1.8341
  743MOL0     H 2491   9.745   4.912   9.620 -0.4230 -1.8654  0.3169
  743MOL0     H 2492   9.816   5.103   9.708 -2.1595 -0.6336  0.1441
  743MOL0     H 2493  10.041   5.256   9.780  0.3757 -0.1239  2.7557
  743MOL0     H 2494   9.884   5.281   9.864  0.6854  2.4855  1.0439
  743MOL0     H 2495   9.991   5.417   9.793  1.4845 -0.5086 -2.1488
  743MOL0     H 2496   9.988   5.761   9.839 -1.9199  2.1015  2.0136
  743MOL0     H 2497  10.098   5.981   9.838  1.2450  0.0760 -0.3334
  743MOL0     H 2498  10.284   6.071   9.730  0.8683 -2.0424 -1.5432
  743MOL0     H 2499  10.278   6.086   9.557  1.4557 -1.9603  0.8338
  743MOL0     H 2500  10.429   6.240   9.673 -0.6137  0.9516 -0.2307
  743MOL0     H 2501  10.300   6.328   9.581 -0.5943  1.0276 -0.4985
  743MOL0     H 2502  10.196   6.386   9.791 -0.7386  0.6632  2.6822
  743MOL0     H 2503  10.371   6.410   9.814  0.1901  0.0056  1.9951
  743MOL0     H 2504  10.360   6.157   9.909 -0.9210 -1.9726  0.6067
  743MOL0     H 2505  10.189   6.205   9.925  0.2842  1.0441 -2.9356
  743MOL0     H 2506  10.413   6.386  10.019 -0.7996 -0.2476 -3.2193
  743MOL0     H 2507  10.244   6.390  10.071 -3.0058 -1.9605 -2.5823
  743MOL0     H 2508  10.425   6.161  10.146 -0.6955 -0.9812  1.7706
  743MOL0     H 2509  10.270   6.184  10.201  1.2687 -2.2077  1.6688
  743MOL0     H 2510  10.319   6.416  10.285  0.4604 -0.0096 -1.2321
  743MOL0     H 2511  10.489   6.391  10.270  1.0094 -1.8008  3.8411
  743MOL0     H 2512  10.477   6.188  10.404  0.8349  1.6336 -3.0497
  743MOL0     H 2513  10.304   6.220  10.436  0.1493 -0.3684 -0.3251
  743MOL0     H 2514   9.965   6.043   9.439  4.7951  3.5015  1.3228
  743MOL0     H 2515   9.877   5.822   9.423  4.3153 -1.9246 -1.3364
  743MOL0     H 2516   9.690   5.498   9.427 -0.7999 -1.3983  0.7377
  743MOL0     H 2517   9.586   5.279   9.398 -1.0731 -0.5686  1.6903
  743MOL0     H 2518  11.174   4.517  10.094  2.1632  0.0907  1.8267
  743MOL0     H 2519  11.211   4.444  10.334 -1.9768 -1.8545  3.0483
  743MOL0     H 2520  10.956   4.517  10.778 -0.1580 -5.1912 -1.4973
  743MOL0     H 2521  10.943   4.479  11.002 -1.1382  3.8584  1.2365
  743MOL0     H 2522  10.962   4.501  11.198  3.2165  1.8449 -2.9589
  743MOL0     H 2523  10.995   4.333  11.226  0.7662 -0.9611  0.0734
  743MOL0     H 2524  11.150   4.419  11.426  0.5725  1.9837  5.3333
  743MOL0     H 2525  10.969   4.430  11.444  1.4834  0.1801  0.8602
  743MOL0     H 2526  11.161   4.636  11.326  0.9793 -0.4620 -1.1760
  743MOL0     H 2527  10.993   4.648  11.350  1.2476  0.0977 -1.4408
  743MOL0     H 2528  11.138   4.761  11.543 -2.2641  0.5147 -0.1675
  743MOL0     H 2529  11.192   4.598  11.584  0.7296  1.3689  2.0671
  743MOL0     H 2530  10.788   4.579  11.724 -0.1496  2.3970  0.2295
  743MOL0     H 2531  11.358   4.523  11.056  0.7000  1.7228 -0.9912
  743MOL0     H 2532  11.444   4.641  10.721 -0.6040  1.5324  1.1880
  743MOL0     H 2533  11.510   4.571  10.860  0.1074 -1.5897  0.1092
  743MOL0     H 2534  11.471   4.460  10.741  3.1748  0.8860  1.4432
  744MOL0     O 2535   9.015   4.579   9.363 -0.6712  0.4957 -0.0649
  744MOL0     C 2536   9.086   4.573   9.465 -0.3970 -0.3043  0.5346
  744MOL0     O 2537   9.216   4.578   9.456 -0.2163 -0.1352 -1.0610
  744MOL0     C 2538   9.280   4.612   9.341 -0.6444  0.9773  0.6794
  744MOL0     C 2539   9.281   4.539   9.217 -0.7354  0.4494  1.0927
  744MOL0     C 2540   9.339   4.586   9.104 -0.1233  0.2347  0.0901
  744MOL0     C 2541   9.409   4.705   9.107  0.0507 -0.3841  0.6947
  744MOL0     O 2542   9.477   4.745   8.984  0.7258 -0.0461 -0.1915
  744MOL0     C 2543   9.533   4.870   8.979  0.1800 -0.0679  0.2700
  744MOL0     C 2544   9.561   4.894   8.823  0.3622 -0.7403 -0.6003
  744MOL0     C 2545   9.591   5.039   8.801 -0.1542 -0.4015  0.1836
  744MOL0     C 2546   9.602   5.068   8.654 -0.2334  0.0715  1.4154
  744MOL0     C 2547   9.639   5.211   8.604  0.3394 -0.3984  0.0309
  744MOL0     C 2548   9.741   5.296   8.687 -0.7373 -0.3470 -0.4098
  744MOL0     C 2549   9.764   5.439   8.633 -0.8434  0.6168  0.3151
  744MOL0     C 2550   9.852   5.424   8.501  0.6876 -0.1461  0.2046
  744MOL0     N 2551   9.860   5.555   8.423 -0.6462 -0.0828  0.3491
  744MOL0     C 2552   9.930   5.571   8.307  0.0146 -0.0649 -0.2189
  744MOL0     C 2553   9.920   5.703   8.273 -0.7425  0.7188 -0.5791
  744MOL0     C 2554   9.972   5.766   8.148  0.0771 -0.6734 -0.1182
  744MOL0     C 2555  10.111   5.830   8.156  0.4956  0.1224  0.0281
  744MOL0     C 2556  10.158   5.863   8.014 -0.1253  0.1218 -0.8075
  744MOL0     C 2557  10.308   5.906   8.012  0.3981 -0.3511 -0.6222
  744MOL0     O 2558  10.346   6.034   8.066 -0.0597 -0.1700 -0.5557
  744MOL0     C 2559  10.472   6.083   8.058  0.5491 -0.0741  0.0259
  744MOL0     C 2560  10.584   5.999   8.034 -0.4388  0.1212  0.2989
  744MOL0     C 2561  10.700   6.061   8.003 -0.3836  0.4616 -0.7968
  744MOL0     C 2562  10.806   5.955   7.977  0.1902  0.3759  0.1683
  744MOL0     C 2563  10.724   6.203   8.018  0.0328  1.2697  0.6607
  744MOL0     C 2564  10.861   6.273   8.019 -0.6647 -0.1536  0.3804
  744MOL0     O 2565  10.855   6.399   8.042  0.2704 -0.1997  0.8199
  744MOL0     C 2566  10.967   6.478   8.014 -0.2292 -0.4579 -0.1110
  744MOL0     C 2567  11.008   6.575   8.101 -0.3224  0.7231 -0.1581
  744MOL0     C 2568  11.114   6.658   8.067  0.8471 -0.3919 -0.2272
  744MOL0     C 2569  11.178   6.657   7.937 -0.2773  1.4566 -0.7852
  744MOL0     O 2570  11.297   6.725   7.910  0.0778  0.2241 -0.1132
  744MOL0     C 2571  11.413   6.639   7.932  0.3544 -0.0291 -0.8460
  744MOL0     C 2572  11.550   6.706   7.900 -0.2397  0.9808  0.5462
  744MOL0     C 2573  11.595   6.712   7.757  0.1622  0.4356 -0.4746
  744MOL0     C 2574  11.592   6.579   7.684  0.2903 -0.0793  0.3088
  744MOL0     C 2575  11.614   6.588   7.529  0.4189 -0.4772 -1.2304
  744MOL0     C 2576  11.756   6.631   7.499 -0.1890 -0.0612 -0.2048
  744MOL0     C 2577  11.792   6.668   7.348  0.3764 -0.3650  1.0020
  744MOL0     C 2578  11.688   6.756   7.291  0.0333 -0.1657  0.2685
  744MOL0    Cl 2579  11.738   6.919   7.358  0.3993  0.0936 -0.1143
  744MOL0     C 2580  11.124   6.560   7.848 -0.4091  0.0147 -0.3521
  744MOL0     C 2581  11.020   6.471   7.888 -0.5885 -0.5452 -0.1026
  744MOL0     O 2582  10.959   6.204   8.001 -0.8230  0.2605 -0.1464
  744MOL0     C 2583  10.603   6.280   8.034 -0.5364  0.9666 -0.0246
  744MOL0     C 2584  10.488   6.220   8.072 -0.7406  0.3994 -0.0741
  744MOL0     N 2585   9.860   5.771   8.376 -0.7914 -0.2795  0.0271
  744MOL0     N 2586   9.833   5.686   8.462 -0.1306  0.0896 -0.2734
  744MOL0     C 2587   9.432   4.766   9.232 -0.4171  0.0590 -0.2417
  744MOL0     C 2588   9.372   4.720   9.351 -0.0059 -0.9337 -0.6609
  744MOL0     C 2589   9.035   4.533   9.601 -0.0553 -0.0753  0.5152
  744MOL0     C 2590   9.110   4.567   9.708 -0.6865  0.5609  0.2506
  744MOL0     C 2591   9.066   4.553   9.842 -0.7786 -0.9365  0.3611
  744MOL0     C 2592   8.951   4.474   9.864 -0.1245 -0.1234 -0.9058
  744MOL0     O 2593   8.917   4.428   9.987  0.1127 -0.3885 -0.1949
  744MOL0     C 2594   9.019   4.399  10.087 -0.2726  0.3123 -0.1670
  744MOL0     C 2595   9.087   4.271  10.044  0.5383  0.4411 -0.3224
  744MOL0     C 2596   9.173   4.220  10.158 -0.0215  0.5451 -0.0199
  744MOL0     C 2597   9.112   4.105  10.252 -0.0373  0.4191  0.0098
  744MOL0     C 2598   9.002   4.154  10.335 -0.3089 -0.0508 -0.4785
  744MOL0     C 2599   8.910   4.192  10.402  0.8483  0.2639 -0.8736
  744MOL0     C 2600   8.874   4.451   9.759  0.3067  0.4190  0.3467
  744MOL0     C 2601   8.910   4.482   9.622  0.8080 -0.0632 -0.1646
  744MOL0     C 2602   8.812   4.427   9.517  0.5438  0.7188 -0.0114
  744MOL0     H 2603   9.226   4.446   9.212  0.3012 -0.0922 -2.1303
  744MOL0     H 2604   9.342   4.523   9.016  3.4287 -0.6427  0.6955
  744MOL0     H 2605   9.621   4.859   9.043 -0.1932 -1.8107  0.5406
  744MOL0     H 2606   9.461   4.945   9.013  0.7734  0.2344  0.8882
  744MOL0     H 2607   9.637   4.822   8.790  1.0699 -0.7873  1.0475
  744MOL0     H 2608   9.467   4.871   8.772 -0.1107 -0.2402  0.0324
  744MOL0     H 2609   9.518   5.116   8.828 -0.5304 -0.7584  0.1808
  744MOL0     H 2610   9.689   5.063   8.845  1.1086 -1.4757 -1.8876
  744MOL0     H 2611   9.687   5.005   8.626 -0.5377  1.1952 -2.5828
  744MOL0     H 2612   9.513   5.034   8.600  1.0350 -0.5133 -0.3941
  744MOL0     H 2613   9.554   5.277   8.592  1.4949  1.0028 -0.7761
  744MOL0     H 2614   9.677   5.200   8.502  0.2171  0.0448 -0.0641
  744MOL0     H 2615   9.702   5.311   8.789  2.6424 -1.1978  1.1310
  744MOL0     H 2616   9.833   5.238   8.694 -0.9761 -0.7618 -0.6662
  744MOL0     H 2617   9.824   5.484   8.713  1.0428 -1.6609  0.3184
  744MOL0     H 2618   9.674   5.498   8.614  0.0333  2.6324  2.0263
  744MOL0     H 2619   9.948   5.374   8.518  1.2863  0.5290 -1.0258
  744MOL0     H 2620   9.804   5.351   8.434 -1.5233  2.4051 -1.1828
  744MOL0     H 2621   9.990   5.495   8.258  1.5822 -0.4226  2.0648
  744MOL0     H 2622   9.904   5.843   8.109 -2.1081 -0.9217  2.8351
  744MOL0     H 2623   9.988   5.684   8.078  0.3680  0.3885 -1.3330
  744MOL0     H 2624  10.119   5.915   8.224 -0.2397  1.0495 -1.0005
  744MOL0     H 2625  10.179   5.754   8.194 -0.3343 -1.3110 -1.2322
  744MOL0     H 2626  10.143   5.781   7.943  1.5942 -1.7668  0.8582
  744MOL0     H 2627  10.107   5.951   7.974  1.8256  1.6159 -0.1705
  744MOL0     H 2628  10.362   5.823   8.060  1.3536 -0.9910 -2.6752
  744MOL0     H 2629  10.338   5.910   7.907  1.5826 -1.8616 -0.3832
  744MOL0     H 2630  10.571   5.891   8.036 -2.1764  0.2605 -0.9001
  744MOL0     H 2631  10.765   5.856   7.956 -0.3102  0.0554  2.3679
  744MOL0     H 2632  10.875   5.951   8.062 -1.2289 -1.2264  1.3200
  744MOL0     H 2633  10.875   5.983   7.897 -0.2192  2.7390  0.5865
  744MOL0     H 2634  10.969   6.584   8.202 -0.2922  1.4949 -0.2135
  744MOL0     H 2635  11.156   6.708   8.154 -1.1969 -1.1708  1.3017
  744MOL0     H 2636  11.416   6.617   8.039 -0.2633  0.9662 -0.6078
  744MOL0     H 2637  11.399   6.541   7.885  0.6665 -1.2101  1.4132
  744MOL0     H 2638  11.547   6.806   7.945 -2.0728  0.4668  1.6467
  744MOL0     H 2639  11.627   6.646   7.949  1.7877  0.8029 -2.6022
  744MOL0     H 2640  11.697   6.750   7.763 -0.8387  3.1662  0.9420
  744MOL0     H 2641  11.524   6.779   7.708 -0.3541 -0.3395 -0.8027
  744MOL0     H 2642  11.492   6.536   7.692  0.8927 -1.2301  1.9203
  744MOL0     H 2643  11.662   6.515   7.738 -0.8450 -1.6133  0.0117
  744MOL0     H 2644  11.608   6.490   7.480 -2.3069 -1.3158  0.5761
  744MOL0     H 2645  11.543   6.659   7.486 -0.1140  1.3091  2.2026
  744MOL0     H 2646  11.828   6.551   7.521 -3.9346 -2.7421  4.2074
  744MOL0     H 2647  11.777   6.720   7.558  2.4491  0.5364 -1.8858
  744MOL0     H 2648  11.781   6.582   7.282 -1.7032  1.7444 -1.6043
  744MOL0     H 2649  11.893   6.703   7.324  1.0057 -4.0902 -3.1215
  744MOL0     H 2650  11.585   6.734   7.320  0.1271 -1.2381 -0.1905
  744MOL0     H 2651  11.696   6.753   7.182  1.5343 -0.7525  0.3758
  744MOL0     H 2652  11.174   6.545   7.753 -1.1042 -1.8468 -0.4585
  744MOL0     H 2653  10.993   6.399   7.811 -2.0891  0.9320 -1.0064
  744MOL0     H 2654  10.615   6.387   8.020  1.8342  0.6772 -0.6573
  744MOL0     H 2655  10.394   6.270   8.094 -0.2356  1.7608 -0.8539
  744MOL0     H 2656   9.503   4.848   9.240  0.6592 -0.8018 -0.7226
  744MOL0     H 2657   9.379   4.754   9.454  1.1160 -2.3921 -0.2202
  744MOL0     H 2658   9.210   4.609   9.700  0.0097 -0.3591  2.8774
  744MOL0     H 2659   9.131   4.588   9.921  0.8990 -2.5520 -0.2482
  744MOL0     H 2660   9.086   4.486  10.091  0.0349  0.4029 -3.8740
  744MOL0     H 2661   8.968   4.377  10.181  0.2187 -4.1568 -0.7371
  744MOL0     H 2662   9.140   4.282   9.949 -1.0973 -1.6820 -1.5786
  744MOL0     H 2663   9.010   4.195  10.022  1.0158  0.0171 -0.5537
  744MOL0     H 2664   9.264   4.175  10.117 -0.2267 -2.5860  2.6273
  744MOL0     H 2665   9.190   4.310  10.217 -0.5771  0.2711  0.5663
  744MOL0     H 2666   9.189   4.082  10.326 -0.2243  2.0661  0.7600
  744MOL0     H 2667   9.102   4.010  10.199  3.3220  0.6221 -1.2269
  744MOL0     H 2668   8.827   4.228  10.460  1.4088  1.4232 -0.7625
  744MOL0     H 2669   8.779   4.401   9.777  2.0681 -3.8389 -0.9749
  744MOL0     H 2670   8.772   4.507   9.455  2.8097  0.1325 -2.4513
  744MOL0     H 2671   8.862   4.349   9.459 -3.4030 -0.3619 -2.2629
  744MOL0     H 2672   8.726   4.385   9.570  0.3533  2.0645  0.7894
  745MOL0     O 2673   3.722   6.056   0.945 -0.8794  0.0058  0.6094
  745MOL0     C 2674   3.815   5.982   0.889 -0.4511 -0.2101 -0.5994
  745MOL0     O 2675   3.821   5.845   0.891  0.1631 -0.4265  0.7729
  745MOL0     C 2676   3.791   5.789   1.014 -1.0032  0.3917 -0.4388
  745MOL0     C 2677   3.745   5.656   1.003  1.1062  0.1388 -1.1611
  745MOL0     C 2678   3.731   5.574   1.117  0.4681 -0.7722 -0.0123
  745MOL0     C 2679   3.744   5.628   1.245  0.6541  0.4770 -0.7771
  745MOL0     O 2680   3.718   5.535   1.348 -0.0386 -0.0045 -0.1553
  745MOL0     C 2681   3.827   5.518   1.437 -0.1062  0.8196 -0.7141
  745MOL0     C 2682   3.797   5.577   1.577 -0.2561  0.1859  0.7267
  745MOL0     C 2683   3.856   5.502   1.690 -0.0890  0.5373  0.5678
  745MOL0     C 2684   3.840   5.581   1.829  0.9940 -1.2209  0.3575
  745MOL0     C 2685   3.837   5.484   1.949  0.1292  0.0873  0.6147
  745MOL0     C 2686   3.965   5.410   1.979 -0.0661 -0.0901  0.3014
  745MOL0     C 2687   4.097   5.500   1.975 -0.3311 -0.4593  0.3197
  745MOL0     C 2688   4.117   5.633   2.054 -0.6134 -1.1685 -0.5630
  745MOL0     N 2689   4.091   5.618   2.192  0.7978 -0.2873 -0.2944
  745MOL0     C 2690   3.990   5.687   2.262 -0.8921 -0.2881 -0.1776
  745MOL0     C 2691   3.930   5.603   2.349 -0.8117  0.9063  0.4768
  745MOL0     C 2692   3.808   5.632   2.435 -0.4902  0.1719 -0.7441
  745MOL0     C 2693   3.720   5.510   2.482 -0.2658  0.1981 -0.4753
  745MOL0     C 2694   3.615   5.549   2.590 -0.5703 -0.0911 -0.0476
  745MOL0     C 2695   3.542   5.426   2.650 -0.4187 -0.5987 -0.3457
  745MOL0     O 2696   3.621   5.319   2.701 -0.2887 -0.4450  1.1023
  745MOL0     C 2697   3.691   5.358   2.817 -1.2418 -0.1910  0.1940
  745MOL0     C 2698   3.623   5.397   2.931  1.0312 -0.5902 -0.9491
  745MOL0     C 2699   3.700   5.425   3.048  0.7124  0.5037  0.3765
  745MOL0     C 2700   3.611   5.472   3.159  0.4714  0.7432 -0.6184
  745MOL0     C 2701   3.844   5.420   3.045  0.1265 -0.1616  0.0442
  745MOL0     C 2702   3.915   5.506   3.143 -0.6081  0.0941 -1.3123
  745MOL0     O 2703   4.049   5.544   3.114 -0.1706 -0.3278 -0.4979
  745MOL0     C 2704   4.136   5.604   3.205 -0.6015  0.2997 -0.5973
  745MOL0     C 2705   4.089   5.714   3.284  0.1196  0.7861 -0.3628
  745MOL0     C 2706   4.177   5.784   3.361 -0.0151 -0.1126 -0.6760
  745MOL0     C 2707   4.315   5.746   3.373  0.4434  0.6033  1.2288
  745MOL0     O 2708   4.384   5.828   3.457 -0.4984 -0.1049  0.6572
  745MOL0     C 2709   4.515   5.790   3.494  0.3559 -0.5392 -0.3555
  745MOL0     C 2710   4.586   5.882   3.584  0.4168 -0.1003 -0.0533
  745MOL0     C 2711   4.519   5.927   3.716 -0.2886  0.1394  0.7733
  745MOL0     C 2712   4.643   5.987   3.797  0.4023 -0.4490 -0.0199
  745MOL0     C 2713   4.589   6.065   3.920 -0.7662  0.4391  0.2703
  745MOL0     C 2714   4.706   6.131   3.999 -1.1224  1.0590  0.0054
  745MOL0     C 2715   4.829   6.044   4.040 -0.0521  0.2564 -0.3642
  745MOL0     C 2716   4.918   6.112   4.145  1.1929 -1.5143 -0.0117
  745MOL0    Cl 2717   4.960   6.266   4.081  0.2122  0.0333  0.7276
  745MOL0     C 2718   4.361   5.633   3.298  0.7732  0.2409 -0.2994
  745MOL0     C 2719   4.271   5.567   3.212 -0.1254  0.1579 -0.0300
  745MOL0     O 2720   3.860   5.528   3.247  0.5068 -0.0682  0.4125
  745MOL0     C 2721   3.913   5.368   2.938  0.7148 -1.7780  0.3948
  745MOL0     C 2722   3.834   5.330   2.827  0.0367 -0.0266  0.1423
  745MOL0     N 2723   3.996   5.479   2.338  0.0596  0.1556  0.1103
  745MOL0     N 2724   4.086   5.494   2.246  1.1125  0.5215 -0.0662
  745MOL0     C 2725   3.785   5.758   1.267 -0.1488 -0.2535  0.6667
  745MOL0     C 2726   3.816   5.836   1.147 -0.1998  0.1853  0.2384
  745MOL0     C 2727   3.907   6.053   0.804 -0.6430 -0.7255  0.5457
  745MOL0     C 2728   3.963   5.987   0.699  0.1483  0.1753 -0.5276
  745MOL0     C 2729   4.034   6.053   0.596 -0.1019 -0.5950 -0.3224
  745MOL0     C 2730   4.065   6.181   0.598  0.8081  0.1543 -0.1823
  745MOL0     O 2731   4.135   6.242   0.497 -0.1280  0.6524  0.2602
  745MOL0     C 2732   4.075   6.238   0.363 -0.2242  0.3708  0.5919
  745MOL0     C 2733   4.141   6.124   0.281  0.4763 -0.0468 -0.0188
  745MOL0     C 2734   4.289   6.083   0.317  0.4009 -0.2137 -0.0910
  745MOL0     C 2735   4.348   5.973   0.230  1.2036 -0.1963  0.3194
  745MOL0     C 2736   4.471   5.924   0.292 -0.3762 -0.4111 -0.1592
  745MOL0     C 2737   4.559   5.867   0.349  0.6145  0.5134  0.0942
  745MOL0     C 2738   4.010   6.260   0.708 -0.4684  0.3828  0.5115
  745MOL0     C 2739   3.928   6.197   0.806  0.2057  0.4727  0.2291
  745MOL0     C 2740   3.873   6.306   0.902 -0.0380 -0.5460  0.0113
  745MOL0     H 2741   3.719   5.607   0.910 -0.4869  0.7513 -1.0739
  745MOL0     H 2742   3.707   5.469   1.105  0.3772 -0.6864 -0.6267
  745MOL0     H 2743   3.914   5.572   1.399 -0.7593  2.5607  0.1503
  745MOL0     H 2744   3.829   5.409   1.426 -2.5586  0.5712  0.6100
  745MOL0     H 2745   3.835   5.680   1.577 -3.5218  1.5682 -1.2850
  745MOL0     H 2746   3.688   5.585   1.570 -0.5824 -3.3405 -0.1028
  745MOL0     H 2747   3.799   5.408   1.699  2.0472 -0.7881  1.0681
  745MOL0     H 2748   3.958   5.473   1.663 -1.0038  0.5077 -3.4611
  745MOL0     H 2749   3.927   5.647   1.838  0.6540 -0.7191  0.0201
  745MOL0     H 2750   3.745   5.634   1.822  1.5719 -0.2689 -0.6200
  745MOL0     H 2751   3.755   5.412   1.937  0.9152 -0.4523 -2.3756
  745MOL0     H 2752   3.816   5.541   2.040 -0.9699 -0.9596  1.0464
  745MOL0     H 2753   3.961   5.368   2.080  0.8006  1.2564  0.9337
  745MOL0     H 2754   3.965   5.332   1.902 -0.4629  0.6119 -0.4221
  745MOL0     H 2755   4.127   5.506   1.870  1.3661  0.6741  0.8190
  745MOL0     H 2756   4.176   5.434   2.014 -0.0090  0.0297  0.4991
  745MOL0     H 2757   4.219   5.662   2.026 -1.1223 -0.1786 -1.4811
  745MOL0     H 2758   4.045   5.708   2.019 -0.4613  0.4924  2.4049
  745MOL0     H 2759   3.959   5.789   2.243 -0.0418  0.4460  2.0278
  745MOL0     H 2760   3.742   5.697   2.377  0.7541 -0.3303 -2.8181
  745MOL0     H 2761   3.841   5.682   2.527  0.5744 -0.8088 -0.5678
  745MOL0     H 2762   3.658   5.471   2.400 -1.6387  0.1007  0.5785
  745MOL0     H 2763   3.784   5.431   2.522  0.5618  1.0481 -0.0699
  745MOL0     H 2764   3.664   5.599   2.674 -1.5825  0.9714 -0.0741
  745MOL0     H 2765   3.545   5.615   2.539  1.5693  0.0673 -3.0785
  745MOL0     H 2766   3.454   5.452   2.708 -0.4531 -2.2017  0.3892
  745MOL0     H 2767   3.485   5.385   2.566 -1.5708  0.3216 -0.0347
  745MOL0     H 2768   3.514   5.397   2.927  1.0018 -1.7342 -0.5382
  745MOL0     H 2769   3.622   5.396   3.237  1.1839 -0.1455 -1.5602
  745MOL0     H 2770   3.507   5.471   3.125  1.0882 -1.1491 -2.7167
  745MOL0     H 2771   3.628   5.573   3.197 -0.9737  0.4303  0.9786
  745MOL0     H 2772   3.982   5.729   3.290  0.1888  1.1225  0.1731
  745MOL0     H 2773   4.162   5.883   3.404  1.8602  1.1835 -2.7480
  745MOL0     H 2774   4.499   5.693   3.543 -0.8812  0.2172  0.8131
  745MOL0     H 2775   4.570   5.778   3.400 -0.1852 -1.7031 -0.5427
  745MOL0     H 2776   4.680   5.838   3.617  1.7823  3.9932  2.2899
  745MOL0     H 2777   4.610   5.975   3.532  2.5430 -0.9198 -0.6303
  745MOL0     H 2778   4.486   5.834   3.763  2.2980 -0.9913  0.5183
  745MOL0     H 2779   4.435   5.997   3.709  1.7145  2.6006 -0.4845
  745MOL0     H 2780   4.702   6.055   3.734 -0.5540 -0.2530 -0.7266
  745MOL0     H 2781   4.713   5.909   3.829  0.6353 -0.5380 -0.7159
  745MOL0     H 2782   4.528   6.148   3.886 -0.4584  0.6319  0.1817
  745MOL0     H 2783   4.523   5.997   3.974 -1.2830  0.7857  0.0845
  745MOL0     H 2784   4.671   6.172   4.094 -1.5150  0.4093  0.1483
  745MOL0     H 2785   4.739   6.204   3.925 -1.9413  0.8280 -0.6157
  745MOL0     H 2786   4.894   6.011   3.959 -0.0501  0.2322 -0.3528
  745MOL0     H 2787   4.804   5.948   4.086  1.7106 -0.4160 -0.7308
  745MOL0     H 2788   5.010   6.058   4.168  1.4973 -0.2756  1.8759
  745MOL0     H 2789   4.865   6.130   4.238 -0.6478 -1.9789 -0.9306
  745MOL0     H 2790   4.468   5.616   3.290  1.0675  2.8110 -3.7053
  745MOL0     H 2791   4.315   5.490   3.148  2.4871  0.0722  1.7236
  745MOL0     H 2792   4.020   5.365   2.952  0.8167 -1.5213 -0.3257
  745MOL0     H 2793   3.859   5.295   2.727 -4.7246  2.3453 -2.2306
  745MOL0     H 2794   3.801   5.795   1.368  1.5551 -0.2983  0.4540
  745MOL0     H 2795   3.860   5.936   1.146  0.9755 -0.1596 -4.4436
  745MOL0     H 2796   3.943   5.881   0.689 -1.9153  0.3710  1.0489
  745MOL0     H 2797   4.057   5.993   0.509 -0.7184 -0.9482 -0.2487
  745MOL0     H 2798   3.966   6.228   0.365 -0.3453  1.5740  2.3283
  745MOL0     H 2799   4.097   6.332   0.311 -0.3942 -0.9889 -2.0756
  745MOL0     H 2800   4.154   6.147   0.175  3.0439  0.7260  0.3952
  745MOL0     H 2801   4.077   6.036   0.278  0.5048 -0.0989  0.6839
  745MOL0     H 2802   4.351   6.173   0.312  0.9623 -0.4251  2.1411
  745MOL0     H 2803   4.285   6.046   0.420 -1.4400 -1.0746 -0.4203
  745MOL0     H 2804   4.357   6.018   0.131 -2.1070  0.5649  0.2565
  745MOL0     H 2805   4.285   5.885   0.212 -0.8993  1.3562 -0.2848
  745MOL0     H 2806   4.630   5.807   0.401 -0.1342  0.6569  1.3207
  745MOL0     H 2807   4.030   6.367   0.713 -0.9773  0.6982 -2.2860
  745MOL0     H 2808   3.958   6.361   0.943 -0.8522  1.2671 -0.6110
  745MOL0     H 2809   3.801   6.365   0.845  0.3970  0.1276  0.1442
  745MOL0     H 2810   3.833   6.270   0.997  1.6466  4.1366  2.8110
  746MOL0     O 2811   2.263   8.718  10.200  0.0796  1.0176  0.1256
  746MOL0     C 2812   2.225   8.738  10.307  0.3522 -0.0829 -0.2237
  746MOL0     O 2813   2.143   8.837  10.356 -0.3412 -0.2321  0.4553
  746MOL0     C 2814   2.103   8.933  10.269 -0.9305 -0.6467  0.2593
  746MOL0     C 2815   2.183   9.050  10.260  0.4910 -0.2886 -0.4336
  746MOL0     C 2816   2.147   9.159  10.185 -0.1886  0.5760  0.4406
  746MOL0     C 2817   2.046   9.151  10.088  0.5833 -0.0144  0.5761
  746MOL0     O 2818   2.009   9.260  10.016 -0.5387 -0.4850  0.4848
  746MOL0     C 2819   1.986   9.235   9.868  1.1383 -0.7841 -0.1227
  746MOL0     C 2820   2.114   9.196   9.799 -0.5599 -0.5875 -0.7313
  746MOL0     C 2821   2.216   9.305   9.789  0.8002 -0.9345 -0.0366
  746MOL0     C 2822   2.341   9.250   9.717  0.1697  0.2776 -1.0763
  746MOL0     C 2823   2.323   9.207   9.573 -0.6511  0.2847  0.4038
  746MOL0     C 2824   2.454   9.235   9.483  0.3223  0.0769  1.1220
  746MOL0     C 2825   2.593   9.186   9.548  1.5719 -0.2238 -0.0880
  746MOL0     C 2826   2.705   9.215   9.453 -0.0393 -0.1066 -0.4785
  746MOL0     N 2827   2.706   9.360   9.412 -0.3528  0.9504 -0.3729
  746MOL0     C 2828   2.733   9.469   9.495 -0.6663  0.2440 -0.1594
  746MOL0     C 2829   2.706   9.581   9.428  0.0553 -0.3807 -0.1792
  746MOL0     C 2830   2.728   9.722   9.493  0.2077 -0.1113 -0.2469
  746MOL0     C 2831   2.845   9.790   9.409 -0.4536  0.3539  0.5697
  746MOL0     C 2832   2.982   9.720   9.451 -0.7593  0.0191 -0.1862
  746MOL0     C 2833   3.093   9.804   9.394 -0.6494 -0.6080  0.8926
  746MOL0     O 2834   3.134   9.766   9.255  0.4407 -0.3341 -0.4204
  746MOL0     C 2835   3.208   9.856   9.182  0.5090 -0.1646 -0.2838
  746MOL0     C 2836   3.171   9.995   9.162  0.1842 -1.1506  0.3282
  746MOL0     C 2837   3.239  10.084   9.074 -0.3136 -0.4243 -0.0167
  746MOL0     C 2838   3.162  10.210   9.039 -0.3433  0.0204 -0.4213
  746MOL0     C 2839   3.361  10.041   9.029  0.1767  0.0859 -0.2422
  746MOL0     C 2840   3.446  10.120   8.939  0.5556 -0.1694 -0.5347
  746MOL0     O 2841   3.566  10.165   8.998  0.1932  0.6291  0.5143
  746MOL0     C 2842   3.655  10.215   8.910 -0.2917 -0.1911  0.0904
  746MOL0     C 2843   3.700  10.350   8.924  0.0648  0.5281 -0.0478
  746MOL0     C 2844   3.805  10.401   8.845  0.2561  1.1060 -0.9962
  746MOL0     C 2845   3.881  10.319   8.764 -0.9792  0.7782 -0.2409
  746MOL0     O 2846   4.001  10.345   8.704 -0.2306 -0.0637  0.2678
  746MOL0     C 2847   4.058  10.473   8.702  0.4807  0.5999  0.4313
  746MOL0     C 2848   4.199  10.443   8.665 -0.0604 -0.4716  0.3455
  746MOL0     C 2849   4.262  10.385   8.788  0.6128  0.5969 -0.2589
  746MOL0     C 2850   4.268  10.468   8.915 -0.4334  0.7955  0.5867
  746MOL0     C 2851   4.358  10.397   9.017 -1.4378 -0.5038 -0.3881
  746MOL0     C 2852   4.358  10.469   9.152  0.1570 -0.4091  0.0162
  746MOL0     C 2853   4.409  10.376   9.260  0.2714 -0.5771 -0.5123
  746MOL0     C 2854   4.367  10.436   9.396 -0.1812 -0.0527 -1.1287
  746MOL0    Cl 2855   4.439  10.334   9.521 -0.0185  0.1676  0.7432
  746MOL0     C 2856   3.837  10.182   8.750  0.7976 -0.3586  0.5463
  746MOL0     C 2857   3.722  10.137   8.821 -0.9226 -0.9048  0.3930
  746MOL0     O 2858   3.408  10.133   8.823 -0.0865 -0.5368 -0.6233
  746MOL0     C 2859   3.407   9.914   9.064  0.6781 -0.8131 -0.5906
  746MOL0     C 2860   3.333   9.826   9.139  0.6741  0.7987  0.8379
  746MOL0     N 2861   2.663   9.544   9.298 -0.2544  0.4675  0.5518
  746MOL0     N 2862   2.655   9.417   9.300  0.1400  0.1201 -0.1376
  746MOL0     C 2863   1.962   9.037  10.093 -0.6479 -0.4205  0.0848
  746MOL0     C 2864   1.993   8.926  10.183 -0.1986  0.2580 -0.5398
  746MOL0     C 2865   2.268   8.642  10.415  0.2374  0.1721 -0.8042
  746MOL0     C 2866   2.277   8.503  10.383  0.1102  0.2097  0.4365
  746MOL0     C 2867   2.313   8.416  10.482 -0.2506 -0.5487 -0.5873
  746MOL0     C 2868   2.347   8.460  10.613  0.1169  0.0519 -0.2332
  746MOL0     O 2869   2.370   8.373  10.712  0.7942  0.3595 -0.0719
  746MOL0     C 2870   2.402   8.406  10.848 -0.4661 -0.6028 -0.0041
  746MOL0     C 2871   2.433   8.268  10.913 -0.1742 -0.0151 -0.3079
  746MOL0     C 2872   2.477   8.288  11.060  0.2851  1.1573 -0.2626
  746MOL0     C 2873   2.496   8.160  11.138 -0.1681  0.1973  0.6050
  746MOL0     C 2874   2.627   8.111  11.125 -0.1698 -0.1621 -0.2777
  746MOL0     C 2875   2.747   8.095  11.106 -0.4416 -0.3794 -0.2373
  746MOL0     C 2876   2.346   8.599  10.642 -0.4763  0.7923  0.4098
  746MOL0     C 2877   2.303   8.687  10.543 -0.1959 -0.2253 -0.1372
  746MOL0     C 2878   2.294   8.839  10.585  0.1245 -0.3728 -0.7625
  746MOL0     H 2879   2.283   9.050  10.302  1.7429 -2.3615 -3.0334
  746MOL0     H 2880   2.216   9.242  10.198  1.2498 -0.6081  0.7052
  746MOL0     H 2881   1.956   9.332   9.828  2.7601  0.1489  0.8455
  746MOL0     H 2882   1.908   9.163   9.839  0.5789  0.7442 -2.7377
  746MOL0     H 2883   2.158   9.108   9.848  1.7532 -0.0116 -1.6241
  746MOL0     H 2884   2.089   9.166   9.697 -0.6945  1.6213 -1.4045
  746MOL0     H 2885   2.169   9.381   9.726 -1.7796 -2.4527 -0.0758
  746MOL0     H 2886   2.236   9.350   9.887  0.5786  1.5380 -1.0763
  746MOL0     H 2887   2.422   9.321   9.738 -0.5957  0.4342  1.7086
  746MOL0     H 2888   2.365   9.155   9.765  0.0394  1.4813  1.5572
  746MOL0     H 2889   2.242   9.267   9.531  0.0894 -0.8335 -2.9406
  746MOL0     H 2890   2.301   9.100   9.565 -0.2479  0.3142 -1.8362
  746MOL0     H 2891   2.435   9.171   9.396  0.0102  0.5706  0.8269
  746MOL0     H 2892   2.457   9.334   9.437 -0.1692 -1.3202 -2.1965
  746MOL0     H 2893   2.585   9.077   9.560  1.8222 -0.5835 -2.7282
  746MOL0     H 2894   2.593   9.246   9.640 -0.5349 -0.7169  0.2880
  746MOL0     H 2895   2.802   9.199   9.502 -1.0281  1.5103  2.2303
  746MOL0     H 2896   2.697   9.155   9.362 -1.4986 -0.0226 -0.4313
  746MOL0     H 2897   2.761   9.457   9.599  0.0721  0.5691 -0.3160
  746MOL0     H 2898   2.764   9.701   9.594  2.2341 -0.6984 -1.0303
  746MOL0     H 2899   2.639   9.786   9.489 -0.5866 -0.6416  4.0811
  746MOL0     H 2900   2.823   9.791   9.302  0.3512  1.2466  0.3903
  746MOL0     H 2901   2.833   9.895   9.440  1.0291  0.3853  1.1226
  746MOL0     H 2902   2.996   9.731   9.559 -1.2871  1.8616 -0.2714
  746MOL0     H 2903   2.984   9.613   9.426 -0.0881 -0.2251  0.8502
  746MOL0     H 2904   3.066   9.909   9.411 -0.9156 -0.6463  0.7119
  746MOL0     H 2905   3.184   9.788   9.452  0.2598 -1.5947 -0.7293
  746MOL0     H 2906   3.069  10.018   9.192 -0.2016 -0.9292 -1.0770
  746MOL0     H 2907   3.223  10.299   9.022  0.3712  0.7181  4.3088
  746MOL0     H 2908   3.088  10.234   9.116 -1.8045 -1.9066 -1.1356
  746MOL0     H 2909   3.121  10.192   8.939  0.9142  1.3711 -1.2227
  746MOL0     H 2910   3.663  10.419   9.000 -0.4339 -0.1808  0.3611
  746MOL0     H 2911   3.843  10.502   8.861 -0.9262  1.2273  1.4614
  746MOL0     H 2912   4.014  10.527   8.618  0.7380 -1.6492 -1.2564
  746MOL0     H 2913   4.058  10.527   8.797 -0.7286  2.8589 -0.7652
  746MOL0     H 2914   4.203  10.374   8.580 -2.6576 -1.4907  0.9382
  746MOL0     H 2915   4.243  10.542   8.656 -0.7338 -0.2520 -0.6661
  746MOL0     H 2916   4.368  10.376   8.764  0.3308 -2.6957 -0.7006
  746MOL0     H 2917   4.230  10.284   8.816 -3.5103  1.0892 -2.4505
  746MOL0     H 2918   4.166  10.477   8.955  0.0389 -0.5381  2.2166
  746MOL0     H 2919   4.295  10.571   8.892  0.8243  0.3163 -0.1773
  746MOL0     H 2920   4.306  10.303   9.037 -1.9883  0.6502  4.9064
  746MOL0     H 2921   4.458  10.381   8.975  0.0023  4.4373  0.4758
  746MOL0     H 2922   4.252  10.482   9.175  0.1093 -1.9838  0.8093
  746MOL0     H 2923   4.404  10.568   9.149 -2.4538  0.8850 -0.1521
  746MOL0     H 2924   4.517  10.370   9.242  0.4837 -0.6261  0.6584
  746MOL0     H 2925   4.372  10.273   9.256  3.1480 -1.8568  1.7488
  746MOL0     H 2926   4.258  10.428   9.400 -0.0010 -3.2721  1.6942
  746MOL0     H 2927   4.414  10.534   9.405  0.3598 -0.4035  0.0151
  746MOL0     H 2928   3.905  10.119   8.694 -1.4317 -0.5995 -2.0870
  746MOL0     H 2929   3.699  10.032   8.807  1.8424 -1.3438 -1.9001
  746MOL0     H 2930   3.495   9.866   9.024  0.6382 -0.5971 -0.9399
  746MOL0     H 2931   3.379   9.731   9.164  3.0534  1.1575 -1.7307
  746MOL0     H 2932   1.878   9.030  10.024  0.9237  2.2535 -2.2992
  746MOL0     H 2933   1.925   8.843  10.197  0.5902 -0.2114  0.7270
  746MOL0     H 2934   2.240   8.465  10.289 -0.7140 -1.0361  1.2333
  746MOL0     H 2935   2.313   8.308  10.470 -0.4811 -0.9432  2.1123
  746MOL0     H 2936   2.500   8.456  10.846  0.2824 -2.0356 -1.4312
  746MOL0     H 2937   2.334   8.474  10.900  0.8987 -0.5187  1.7911
  746MOL0     H 2938   2.520   8.226  10.862  0.6176 -1.8120  2.3371
  746MOL0     H 2939   2.344   8.204  10.911 -1.1476  1.2902 -1.6778
  746MOL0     H 2940   2.569   8.346  11.070 -0.5371  2.5006 -0.2674
  746MOL0     H 2941   2.396   8.345  11.107 -1.0271 -1.3355  0.7080
  746MOL0     H 2942   2.429   8.077  11.114 -0.2120  0.1868  0.7689
  746MOL0     H 2943   2.480   8.184  11.243  2.5105  1.7638  0.7470
  746MOL0     H 2944   2.850   8.066  11.105 -1.0588 -2.8410 -0.3678
  746MOL0     H 2945   2.369   8.629  10.744  1.1147 -0.3859  0.4281
  746MOL0     H 2946   2.328   8.844  10.689 -0.5317  0.0743 -0.5649
  746MOL0     H 2947   2.362   8.897  10.522  1.4284 -1.8313 -0.7741
  746MOL0     H 2948   2.200   8.896  10.590 -0.2311 -1.0162  0.1516
  747MOL0     O 2949   5.419   9.935   5.241 -0.2714  0.0282  0.3096
  747MOL0     C 2950   5.362   9.826   5.235  0.2347 -0.5288 -0.6033
  747MOL0     O 2951   5.266   9.789   5.129 -0.1165  0.2618 -0.2937
  747MOL0     C 2952   5.218   9.884   5.038 -0.1063  0.7305 -0.6060
  747MOL0     C 2953   5.216  10.021   5.044  0.1699  0.0597  0.4194
  747MOL0     C 2954   5.172  10.104   4.940  0.3461 -0.0420 -1.0698
  747MOL0     C 2955   5.126  10.045   4.824 -0.0476  0.0576 -0.2682
  747MOL0     O 2956   5.065  10.122   4.729  0.0925  0.0964  0.3736
  747MOL0     C 2957   5.012  10.252   4.757  0.7161 -1.2826 -0.2945
  747MOL0     C 2958   4.978  10.311   4.624 -0.4239  0.1523 -0.3920
  747MOL0     C 2959   4.947  10.461   4.647 -0.7176 -0.2846  0.2265
  747MOL0     C 2960   4.911  10.549   4.531  0.1385 -0.0472  0.3467
  747MOL0     C 2961   4.894  10.689   4.586  0.3515  0.5886  0.2779
  747MOL0     C 2962   4.794  10.779   4.502 -0.0615 -1.0455 -0.1711
  747MOL0     C 2963   4.735  10.893   4.581  0.6184 -0.0705 -0.3032
  747MOL0     C 2964   4.609  10.864   4.656 -0.2428 -0.0419  0.0651
  747MOL0     N 2965   4.586  10.977   4.757 -0.2105  1.0293  0.5943
  747MOL0     C 2966   4.507  11.084   4.723 -0.2520 -0.4277 -0.1515
  747MOL0     C 2967   4.527  11.167   4.830  0.1802 -0.3857 -0.9488
  747MOL0     C 2968   4.465  11.302   4.854  0.6970 -0.4367 -0.0583
  747MOL0     C 2969   4.314  11.293   4.874 -0.6679 -0.2577  0.2731
  747MOL0     C 2970   4.257  11.170   4.953  0.3653  0.5260 -0.4912
  747MOL0     C 2971   4.146  11.088   4.879  0.5614 -0.4785 -0.9464
  747MOL0     O 2972   4.049  11.171   4.812  0.1093 -0.9426 -0.0187
  747MOL0     C 2973   3.947  11.240   4.880 -0.0273 -0.5033 -0.4028
  747MOL0     C 2974   3.852  11.291   4.799 -1.1479  0.4166  1.0427
  747MOL0     C 2975   3.754  11.368   4.846  0.1540  0.1658 -0.4462
  747MOL0     C 2976   3.660  11.420   4.739 -0.2645 -0.1706 -0.6242
  747MOL0     C 2977   3.735  11.392   4.988  0.6442 -0.1898 -0.0964
  747MOL0     C 2978   3.618  11.476   5.048 -0.5331 -0.4483 -0.8195
  747MOL0     O 2979   3.569  11.430   5.164  0.8064  0.8530 -0.3376
  747MOL0     C 2980   3.458  11.496   5.213 -0.4322  1.0462 -0.3263
  747MOL0     C 2981   3.453  11.514   5.357 -0.0518 -0.0256 -0.0085
  747MOL0     C 2982   3.340  11.560   5.420  0.6564  0.1254 -0.3275
  747MOL0     C 2983   3.229  11.601   5.345 -0.4448  0.8951 -0.4856
  747MOL0     O 2984   3.127  11.674   5.403  0.0298  0.3124 -0.8186
  747MOL0     C 2985   3.029  11.741   5.326 -0.6016  0.7325  0.1710
  747MOL0     C 2986   2.979  11.843   5.438 -0.9806 -0.3604  0.0782
  747MOL0     C 2987   2.903  11.950   5.373 -0.0062 -0.0543  0.2802
  747MOL0     C 2988   2.839  12.043   5.476 -0.0455 -0.1075  0.4339
  747MOL0     C 2989   2.758  12.149   5.402 -0.1540 -0.5781  0.5458
  747MOL0     C 2990   2.657  12.233   5.495  0.3056  0.3952 -0.0803
  747MOL0     C 2991   2.716  12.359   5.566 -0.9942 -0.4899 -0.2431
  747MOL0     C 2992   2.619  12.416   5.669 -0.2742  0.7736  0.0265
  747MOL0    Cl 2993   2.451  12.333   5.668 -0.0305 -0.3291 -0.0972
  747MOL0     C 2994   3.227  11.576   5.203  0.2487  0.7113 -0.2922
  747MOL0     C 2995   3.340  11.521   5.140  0.8370 -0.0844  0.6049
  747MOL0     O 2996   3.589  11.584   4.995 -0.7190 -0.0698 -0.4486
  747MOL0     C 2997   3.834  11.332   5.077 -0.5615  0.4817  0.1917
  747MOL0     C 2998   3.943  11.262   5.020 -0.1441 -0.7958 -1.3909
  747MOL0     N 2999   4.590  11.097   4.932 -0.2395  0.2939  0.1991
  747MOL0     N 3000   4.620  10.980   4.890 -0.3687  0.2234 -0.3683
  747MOL0     C 3001   5.146   9.904   4.808  0.2935 -1.2677 -0.0563
  747MOL0     C 3002   5.194   9.831   4.911  0.5999  1.4361 -0.1319
  747MOL0     C 3003   5.393   9.730   5.345 -0.0183 -0.2452 -0.0992
  747MOL0     C 3004   5.419   9.783   5.483  0.0526 -0.2887  1.2153
  747MOL0     C 3005   5.441   9.689   5.580 -0.9585 -0.3412  0.3169
  747MOL0     C 3006   5.446   9.551   5.559 -0.3152 -0.5856  0.7431
  747MOL0     O 3007   5.477   9.451   5.647 -0.0403  0.7321  0.7344
  747MOL0     C 3008   5.567   9.481   5.759  0.2542  0.4005 -0.3494
  747MOL0     C 3009   5.515   9.457   5.897 -0.0935  0.9169 -0.5613
  747MOL0     C 3010   5.431   9.327   5.926  0.2037 -0.1909 -0.2892
  747MOL0     C 3011   5.396   9.323   6.078 -0.3299 -0.3881 -0.3515
  747MOL0     C 3012   5.471   9.224   6.157  0.1605  0.4498 -0.0486
  747MOL0     C 3013   5.551   9.163   6.223  0.9524 -0.2392 -0.0977
  747MOL0     C 3014   5.421   9.509   5.424  0.6415  0.3533 -0.6267
  747MOL0     C 3015   5.401   9.587   5.321  0.2094  0.6059 -0.0113
  747MOL0     C 3016   5.389   9.515   5.185  0.1133 -0.0636 -0.5503
  747MOL0     H 3017   5.222  10.065   5.143  0.1687  0.7548  0.1173
  747MOL0     H 3018   5.165  10.212   4.948 -0.1038 -0.1821  1.2473
  747MOL0     H 3019   5.084  10.319   4.805 -1.2397  0.7565 -0.0229
  747MOL0     H 3020   4.921  10.242   4.817 -0.8574 -1.1239 -2.5155
  747MOL0     H 3021   5.069  10.309   4.563 -0.3608  2.8613 -0.5371
  747MOL0     H 3022   4.890  10.272   4.572  0.2970  0.6350 -2.0343
  747MOL0     H 3023   4.868  10.462   4.722 -0.1464  0.5240  0.8496
  747MOL0     H 3024   5.025  10.506   4.710 -2.7623 -2.2128  4.5783
  747MOL0     H 3025   4.983  10.549   4.449  0.8771 -1.0697  0.9772
  747MOL0     H 3026   4.815  10.513   4.493  0.3047  0.9272 -1.0822
  747MOL0     H 3027   4.992  10.727   4.615  3.0747 -3.3957 -2.5872
  747MOL0     H 3028   4.851  10.690   4.686  0.4702 -0.5092  0.3602
  747MOL0     H 3029   4.848  10.828   4.420 -1.4050  1.7393  0.5077
  747MOL0     H 3030   4.714  10.714   4.467 -1.0616 -0.1825  0.4504
  747MOL0     H 3031   4.723  10.981   4.517 -2.8823 -0.8804 -0.9960
  747MOL0     H 3032   4.808  10.923   4.656  3.4243 -3.0272 -1.6070
  747MOL0     H 3033   4.528  10.855   4.583  1.0645  1.7620 -1.7400
  747MOL0     H 3034   4.632  10.768   4.703  2.2111  0.1787 -0.5168
  747MOL0     H 3035   4.452  11.110   4.633  1.3881  0.8419 -0.8447
  747MOL0     H 3036   4.495  11.365   4.770  0.4060  0.3833  0.4378
  747MOL0     H 3037   4.500  11.361   4.940 -1.5190  0.2656  0.4116
  747MOL0     H 3038   4.261  11.380   4.912 -2.3859 -1.1270 -0.0434
  747MOL0     H 3039   4.281  11.286   4.770  1.7269  4.0828 -1.0568
  747MOL0     H 3040   4.337  11.098   4.972 -2.7985 -3.7817 -1.8572
  747MOL0     H 3041   4.227  11.194   5.055  0.9091  0.0837 -0.2222
  747MOL0     H 3042   4.202  11.026   4.809  1.5030 -0.2741 -0.3915
  747MOL0     H 3043   4.096  11.017   4.945 -4.9046  1.9671 -1.8593
  747MOL0     H 3044   3.864  11.283   4.692  0.9302 -0.0833  1.2859
  747MOL0     H 3045   3.729  11.470   4.671 -1.1369 -1.3595 -2.4830
  747MOL0     H 3046   3.587  11.496   4.768  2.3163  0.6647  4.9109
  747MOL0     H 3047   3.606  11.332   4.701 -2.1330  0.7407 -0.1863
  747MOL0     H 3048   3.546  11.485   5.405  0.9671  0.1889 -1.7851
  747MOL0     H 3049   3.334  11.581   5.526 -1.7904  0.8395 -0.5699
  747MOL0     H 3050   3.071  11.804   5.247 -2.9573  4.4607  1.5946
  747MOL0     H 3051   2.950  11.678   5.283  0.6042 -0.8730  0.2070
  747MOL0     H 3052   2.907  11.790   5.501 -2.1306  1.6389  0.5263
  747MOL0     H 3053   3.067  11.875   5.495  0.2495 -2.1869 -0.6799
  747MOL0     H 3054   2.824  11.908   5.311 -0.4707  2.0679 -0.6516
  747MOL0     H 3055   2.976  12.005   5.313  0.7430 -0.9391  0.3623
  747MOL0     H 3056   2.914  12.093   5.538 -1.3299 -0.7501  2.6216
  747MOL0     H 3057   2.779  11.971   5.532  0.2353 -1.7267 -1.2360
  747MOL0     H 3058   2.823  12.226   5.360 -2.3059  2.1737  1.9413
  747MOL0     H 3059   2.703  12.108   5.317  2.1067 -0.7867 -0.9208
  747MOL0     H 3060   2.627  12.167   5.577 -0.8481  2.3214  1.1291
  747MOL0     H 3061   2.574  12.278   5.439 -1.3018  1.0334  2.6078
  747MOL0     H 3062   2.739  12.437   5.493  0.2930 -1.3113 -0.7493
  747MOL0     H 3063   2.809  12.322   5.612  0.7658  1.0812 -2.3363
  747MOL0     H 3064   2.615  12.523   5.646 -0.3200  0.1204 -3.5956
  747MOL0     H 3065   2.668  12.404   5.766 -0.5559 -1.5709 -0.0770
  747MOL0     H 3066   3.140  11.605   5.144 -1.4357 -1.5314  0.9317
  747MOL0     H 3067   3.330  11.515   5.032 -0.8773 -1.5642  0.8077
  747MOL0     H 3068   3.830  11.346   5.185  0.5877  0.0528  0.3122
  747MOL0     H 3069   4.014  11.213   5.086  0.1575  0.0120 -1.1081
  747MOL0     H 3070   5.122   9.856   4.714 -0.0261  0.3998 -0.8569
  747MOL0     H 3071   5.200   9.723   4.901 -3.9635  1.0470 -0.6293
  747MOL0     H 3072   5.433   9.890   5.501  3.1140 -0.0417 -1.5878
  747MOL0     H 3073   5.456   9.736   5.677  0.9280  0.6927 -0.4271
  747MOL0     H 3074   5.659   9.425   5.740  0.6729  0.0519  2.2476
  747MOL0     H 3075   5.601   9.585   5.754  1.8116  0.1918  3.1267
  747MOL0     H 3076   5.457   9.548   5.914 -0.5407  0.4335  0.6265
  747MOL0     H 3077   5.599   9.460   5.967 -0.0070 -1.3988 -0.4951
  747MOL0     H 3078   5.350   9.317   5.853  1.5970 -0.3135 -1.8808
  747MOL0     H 3079   5.495   9.242   5.899  0.1213 -0.8533  1.4880
  747MOL0     H 3080   5.288   9.306   6.081 -0.7232  1.7112 -0.8291
  747MOL0     H 3081   5.404   9.425   6.114  0.7964 -0.1123 -1.3097
  747MOL0     H 3082   5.628   9.107   6.273  2.6317  0.1381 -2.1219
  747MOL0     H 3083   5.426   9.402   5.408 -2.7723  0.0201 -0.0484
  747MOL0     H 3084   5.440   9.419   5.190  2.1355  1.0210  1.7225
  747MOL0     H 3085   5.282   9.495   5.175  0.2174 -1.2470  0.4211
  747MOL0     H 3086   5.432   9.589   5.117  0.5734  1.3734  1.2141
  748MOL0     O 3087   9.888   3.976   6.969 -0.4842 -0.2305  0.6395
  748MOL0     C 3088   9.810   3.968   7.059 -0.5783 -0.1786 -0.2448
  748MOL0     O 3089   9.692   3.892   7.058  0.5644 -0.2901  0.8818
  748MOL0     C 3090   9.636   3.831   6.947 -0.3806 -0.4011  0.5295
  748MOL0     C 3091   9.526   3.745   6.978  0.1536 -0.2205  0.1160
  748MOL0     C 3092   9.463   3.671   6.875  0.7063 -0.8399 -1.0903
  748MOL0     C 3093   9.496   3.697   6.743 -0.7367  0.1844 -0.2608
  748MOL0     O 3094   9.430   3.625   6.641  0.2244  0.0576 -0.0302
  748MOL0     C 3095   9.293   3.664   6.622  0.1790  0.2299  0.3563
  748MOL0     C 3096   9.236   3.648   6.482 -0.1354  0.4318 -0.8736
  748MOL0     C 3097   9.087   3.659   6.493 -0.8513  0.3358  0.2636
  748MOL0     C 3098   9.026   3.528   6.542 -0.5675 -0.9252 -0.0477
  748MOL0     C 3099   8.875   3.525   6.505 -0.4287 -0.9100 -0.1173
  748MOL0     C 3100   8.792   3.454   6.615  0.2737  0.5669 -0.6024
  748MOL0     C 3101   8.646   3.447   6.567  1.5288 -0.1172  0.5281
  748MOL0     C 3102   8.551   3.416   6.678 -0.7977  1.2541 -0.5501
  748MOL0     N 3103   8.415   3.420   6.626  0.0042 -0.1437 -0.3701
  748MOL0     C 3104   8.348   3.320   6.567  0.3788 -0.4649  0.0551
  748MOL0     C 3105   8.231   3.381   6.527 -0.3956 -0.0494 -0.3642
  748MOL0     C 3106   8.128   3.310   6.441 -0.4984 -0.9477 -0.2747
  748MOL0     C 3107   8.007   3.282   6.538 -0.6263  0.5271 -0.5229
  748MOL0     C 3108   7.996   3.145   6.612 -0.1492  0.6934 -0.7588
  748MOL0     C 3109   8.123   3.087   6.674  0.1688 -0.1383  0.3221
  748MOL0     O 3110   8.101   2.968   6.750  0.1133 -0.3100 -0.3687
  748MOL0     C 3111   8.204   2.903   6.812  0.9238  0.4728  0.4393
  748MOL0     C 3112   8.333   2.951   6.822  0.5465  0.0400  0.0442
  748MOL0     C 3113   8.437   2.874   6.872  0.2616  0.5778 -0.1409
  748MOL0     C 3114   8.573   2.936   6.869 -0.1286  0.2161 -0.4555
  748MOL0     C 3115   8.404   2.741   6.923  0.1672 -0.5750  0.7722
  748MOL0     C 3116   8.501   2.660   7.004  0.1491  0.9972  0.2084
  748MOL0     O 3117   8.452   2.582   7.107  0.0652 -0.7504  0.6650
  748MOL0     C 3118   8.487   2.457   7.121 -1.0443  1.0256  0.3363
  748MOL0     C 3119   8.479   2.401   7.251 -0.5444 -0.1784 -0.0550
  748MOL0     C 3120   8.513   2.272   7.281  0.1367  0.5511 -0.4000
  748MOL0     C 3121   8.573   2.198   7.187 -1.0889  0.3533  0.3979
  748MOL0     O 3122   8.637   2.080   7.211 -0.1661 -0.2090 -0.2884
  748MOL0     C 3123   8.612   2.000   7.324  0.5870  0.7752  0.5422
  748MOL0     C 3124   8.638   1.858   7.280  0.5785  0.1012  0.3036
  748MOL0     C 3125   8.717   1.785   7.384  0.5254  0.3602 -0.3217
  748MOL0     C 3126   8.630   1.754   7.517 -0.1869 -0.4541  0.6821
  748MOL0     C 3127   8.720   1.692   7.625 -0.3256 -1.3527 -0.1722
  748MOL0     C 3128   8.657   1.688   7.765 -0.6532 -0.8112  0.3099
  748MOL0     C 3129   8.760   1.666   7.877  0.6393  0.0410 -0.6358
  748MOL0     C 3130   8.683   1.697   8.008  0.5690  0.2306 -0.2776
  748MOL0    Cl 3131   8.784   1.673   8.156  0.0985 -0.1611 -0.1350
  748MOL0     C 3132   8.597   2.247   7.061 -0.2251  0.1849 -0.1706
  748MOL0     C 3133   8.548   2.378   7.024  0.3130 -0.5099 -0.3168
  748MOL0     O 3134   8.617   2.668   6.974  0.3408  0.3721  0.2956
  748MOL0     C 3135   8.276   2.688   6.907  0.5012 -0.1154 -0.8769
  748MOL0     C 3136   8.180   2.770   6.842  0.1127  0.6121  0.3499
  748MOL0     N 3137   8.223   3.515   6.578 -0.0519  0.2587 -0.1874
  748MOL0     N 3138   8.327   3.532   6.648 -0.2966  0.6538  0.8561
  748MOL0     C 3139   9.588   3.790   6.717  0.7403 -0.1866  0.8649
  748MOL0     C 3140   9.662   3.856   6.807 -0.7825 -0.9610  0.5571
  748MOL0     C 3141   9.844   4.039   7.184  0.5543 -0.0930 -0.2214
  748MOL0     C 3142   9.767   4.009   7.299  0.7471  0.0392  0.2347
  748MOL0     C 3143   9.786   4.059   7.425  0.4629 -0.2751  0.2590
  748MOL0     C 3144   9.894   4.149   7.445 -0.4529 -0.4172 -0.2327
  748MOL0     O 3145   9.912   4.207   7.566 -0.1439  0.6410 -0.2831
  748MOL0     C 3146  10.047   4.241   7.612  1.3273  0.3547  0.7877
  748MOL0     C 3147  10.116   4.114   7.641 -0.5910 -0.3349  0.0584
  748MOL0     C 3148  10.264   4.141   7.681  0.8906 -0.1838  1.2785
  748MOL0     C 3149  10.347   4.018   7.648 -0.6299 -0.4150  0.1694
  748MOL0     C 3150  10.360   3.999   7.503  0.1015  0.1071  0.3506
  748MOL0     C 3151  10.366   3.982   7.381 -0.0970 -0.6128  0.4912
  748MOL0     C 3152   9.983   4.175   7.339 -0.8753  0.9294  0.6674
  748MOL0     C 3153   9.954   4.123   7.208 -0.6474  0.4407  0.5306
  748MOL0     C 3154  10.046   4.182   7.098  0.7416 -0.0189 -0.5567
  748MOL0     H 3155   9.493   3.737   7.081  1.4489 -0.6454  0.5266
  748MOL0     H 3156   9.377   3.607   6.892 -1.8539  2.5818 -0.1235
  748MOL0     H 3157   9.282   3.768   6.656  1.3756  0.5757 -0.2680
  748MOL0     H 3158   9.239   3.603   6.695  2.4323 -2.2486  0.0955
  748MOL0     H 3159   9.278   3.730   6.422 -1.5735  1.4923 -0.4733
  748MOL0     H 3160   9.272   3.557   6.432 -0.7954  0.3761 -1.2632
  748MOL0     H 3161   9.051   3.741   6.556 -3.0814 -0.9263  0.7324
  748MOL0     H 3162   9.045   3.679   6.394  0.8913 -3.7450 -1.5338
  748MOL0     H 3163   9.074   3.443   6.494  0.1859  0.2301 -1.4199
  748MOL0     H 3164   9.030   3.531   6.651  0.9249  1.4859 -0.1047
  748MOL0     H 3165   8.859   3.480   6.406 -1.0850 -1.7335  0.3535
  748MOL0     H 3166   8.829   3.625   6.501 -3.2612 -2.1559 -1.6205
  748MOL0     H 3167   8.834   3.355   6.637 -0.0233  0.6861  0.5152
  748MOL0     H 3168   8.796   3.509   6.709 -4.1453  1.6464 -0.8377
  748MOL0     H 3169   8.639   3.372   6.488  2.4966 -0.0829  0.3893
  748MOL0     H 3170   8.615   3.536   6.512  3.3012  0.4173  0.3289
  748MOL0     H 3171   8.574   3.318   6.722 -2.2211  1.5400  0.8906
  748MOL0     H 3172   8.560   3.493   6.754 -0.1999  0.0094  0.6986
  748MOL0     H 3173   8.373   3.218   6.542 -3.1888 -1.5828  0.4774
  748MOL0     H 3174   8.158   3.208   6.415 -1.0640 -0.9211 -1.0628
  748MOL0     H 3175   8.109   3.371   6.352  1.6257 -0.7457 -0.6443
  748MOL0     H 3176   8.011   3.362   6.612  0.5158  1.4273 -1.5175
  748MOL0     H 3177   7.913   3.289   6.484 -1.2606 -1.4758  0.2216
  748MOL0     H 3178   7.933   3.165   6.700 -2.4434 -1.7163 -1.7141
  748MOL0     H 3179   7.947   3.071   6.548 -0.1280 -1.2175  1.2935
  748MOL0     H 3180   8.197   3.066   6.595  1.0974  0.2659  1.0740
  748MOL0     H 3181   8.160   3.164   6.741  0.0959 -0.2137  0.4491
  748MOL0     H 3182   8.364   3.047   6.780 -0.9437  0.3186 -0.4755
  748MOL0     H 3183   8.619   2.924   6.968 -1.4380 -1.7935 -0.0407
  748MOL0     H 3184   8.560   3.042   6.844 -1.5030  0.4332  1.0094
  748MOL0     H 3185   8.630   2.883   6.792 -0.9106  0.8625 -1.4978
  748MOL0     H 3186   8.428   2.461   7.326  0.5887 -1.6675  2.0026
  748MOL0     H 3187   8.488   2.229   7.377 -2.4585 -1.1930 -1.7398
  748MOL0     H 3188   8.665   2.029   7.415  0.1702  0.1083  1.0020
  748MOL0     H 3189   8.504   2.009   7.341  0.5730  1.0587  0.3185
  748MOL0     H 3190   8.551   1.798   7.252  1.2348 -0.5556 -0.3762
  748MOL0     H 3191   8.706   1.856   7.195 -2.5284 -0.5865 -2.3800
  748MOL0     H 3192   8.807   1.839   7.412  0.4011  1.3164 -1.6967
  748MOL0     H 3193   8.751   1.694   7.334 -1.7091  0.3014 -1.9035
  748MOL0     H 3194   8.550   1.684   7.495  2.2970 -4.0468  2.1533
  748MOL0     H 3195   8.588   1.848   7.555  1.0424  0.5058 -0.2251
  748MOL0     H 3196   8.754   1.596   7.583 -1.6810 -1.1409 -1.8336
  748MOL0     H 3197   8.807   1.755   7.646  0.5314 -3.2532  2.5007
  748MOL0     H 3198   8.582   1.611   7.785  0.2252 -1.4793  1.1181
  748MOL0     H 3199   8.600   1.781   7.778  0.7039  0.6275 -2.9369
  748MOL0     H 3200   8.837   1.743   7.869 -2.0483  3.4707  2.6246
  748MOL0     H 3201   8.791   1.562   7.892 -2.0034 -0.4527  2.7831
  748MOL0     H 3202   8.596   1.631   8.008 -0.6033  1.6779 -1.7520
  748MOL0     H 3203   8.645   1.800   8.009  3.8201  1.5629  1.2163
  748MOL0     H 3204   8.655   2.185   6.993  1.4054  2.2427 -0.7777
  748MOL0     H 3205   8.557   2.414   6.922 -1.8884  1.0362 -0.0260
  748MOL0     H 3206   8.250   2.586   6.932  2.0535  0.0389  1.6425
  748MOL0     H 3207   8.083   2.722   6.830  0.0168  0.9445 -0.2924
  748MOL0     H 3208   9.592   3.815   6.611  1.4516 -1.0246  0.6843
  748MOL0     H 3209   9.741   3.923   6.776 -0.3250 -0.6497  2.2962
  748MOL0     H 3210   9.685   3.937   7.300  0.2370  0.6094  0.6502
  748MOL0     H 3211   9.718   4.038   7.507 -0.5154  0.6646 -0.2970
  748MOL0     H 3212  10.098   4.305   7.540 -3.6742  1.6816 -2.1005
  748MOL0     H 3213  10.043   4.302   7.703 -1.2298  2.6168 -0.6826
  748MOL0     H 3214  10.117   4.055   7.549 -0.2937 -1.8791  1.0140
  748MOL0     H 3215  10.060   4.056   7.714 -3.5482 -0.1899 -1.8949
  748MOL0     H 3216  10.299   4.229   7.626 -3.3965 -0.5815 -2.8155
  748MOL0     H 3217  10.271   4.151   7.789  0.8949  0.0555  1.2561
  748MOL0     H 3218  10.288   3.935   7.689 -0.6312 -1.3315 -1.5872
  748MOL0     H 3219  10.443   4.029   7.699 -0.3163 -0.8410 -0.3145
  748MOL0     H 3220  10.387   3.973   7.276  0.3422  0.2902  0.4830
  748MOL0     H 3221  10.069   4.238   7.357  2.1451 -1.3180 -3.9359
  748MOL0     H 3222  10.113   4.107   7.057  0.3441 -2.2822  2.5531
  748MOL0     H 3223   9.987   4.226   7.017 -0.6652  0.9529  0.9226
  748MOL0     H 3224  10.108   4.260   7.142  1.1224 -0.5158 -0.2015
  749MOL0     O 3225   0.987   2.804   2.825  0.0378  0.3015 -0.2591
  749MOL0     C 3226   0.891   2.726   2.815 -0.3710  0.0664  0.7523
  749MOL0     O 3227   0.757   2.761   2.802  0.1130 -0.7845  0.0877
  749MOL0     C 3228   0.726   2.896   2.806 -0.3685  0.6515  0.3515
  749MOL0     C 3229   0.638   2.953   2.703  0.2858 -0.8145  0.1012
  749MOL0     C 3230   0.586   3.081   2.714  0.4909  0.2203 -0.5777
  749MOL0     C 3231   0.626   3.170   2.819 -0.2142  0.3002  1.3535
  749MOL0     O 3232   0.573   3.302   2.818  0.2574  0.0071  0.5521
  749MOL0     C 3233   0.574   3.387   2.934 -0.4818  0.1748 -0.3438
  749MOL0     C 3234   0.463   3.490   2.930 -0.9884  1.0005 -0.1408
  749MOL0     C 3235   0.321   3.414   2.955  0.0537  0.4175 -0.1060
  749MOL0     C 3236   0.197   3.507   2.948  0.7536  0.2266 -0.6105
  749MOL0     C 3237   0.063   3.433   2.928  0.8275  0.1811 -0.0034
  749MOL0     C 3238  -0.050   3.533   2.958 -0.1991  0.3363  0.0045
  749MOL0     C 3239  -0.180   3.465   2.944 -0.6190  0.4246  0.7741
  749MOL0     C 3240  -0.253   3.453   3.082 -0.3806  0.2507  0.2585
  749MOL0     N 3241  -0.351   3.348   3.087  0.2144 -0.6873 -0.4949
  749MOL0     C 3242  -0.314   3.216   3.113 -0.5117 -0.2704  0.6840
  749MOL0     C 3243  -0.428   3.152   3.110 -0.3304  0.0847 -0.1238
  749MOL0     C 3244  -0.439   2.998   3.109  0.2206 -0.8180  0.0277
  749MOL0     C 3245  -0.389   2.930   2.975  0.0795 -0.7515  0.4196
  749MOL0     C 3246  -0.463   2.985   2.849 -1.0592  1.3583  0.3887
  749MOL0     C 3247  -0.607   2.946   2.874  0.9072  0.4681  0.4954
  749MOL0     O 3248  -0.689   2.949   2.751  0.8024 -0.4882  0.1388
  749MOL0     C 3249  -0.748   3.061   2.701 -0.6193  1.1608 -0.7589
  749MOL0     C 3250  -0.722   3.182   2.754  0.0026 -0.1820  0.4419
  749MOL0     C 3251  -0.779   3.300   2.707 -1.1911  0.2946  0.0974
  749MOL0     C 3252  -0.728   3.426   2.766  0.0911 -0.6329  0.5492
  749MOL0     C 3253  -0.857   3.295   2.586 -0.5005 -0.3964 -0.1985
  749MOL0     C 3254  -0.915   3.417   2.529 -0.5189  0.7428 -0.5078
  749MOL0     O 3255  -1.041   3.413   2.478  0.6600 -0.2197 -0.0841
  749MOL0     C 3256  -1.093   3.541   2.458  0.0149 -0.5454 -0.6086
  749MOL0     C 3257  -1.118   3.590   2.330  0.0331 -0.2741 -0.2510
  749MOL0     C 3258  -1.173   3.717   2.317  0.2939 -1.2505 -0.2191
  749MOL0     C 3259  -1.174   3.801   2.425  0.4606  0.0269  0.7466
  749MOL0     O 3260  -1.199   3.937   2.412  0.3457  0.2402 -0.0127
  749MOL0     C 3261  -1.340   3.957   2.410  0.5238  0.7809  0.1774
  749MOL0     C 3262  -1.381   4.081   2.489  0.0275 -1.0673  0.1800
  749MOL0     C 3263  -1.291   4.200   2.448  0.2421 -0.0674  0.0057
  749MOL0     C 3264  -1.321   4.315   2.541  0.7172 -0.0526  0.1034
  749MOL0     C 3265  -1.250   4.434   2.480  0.0323  0.3612 -0.0215
  749MOL0     C 3266  -1.275   4.559   2.572 -0.5225 -0.6244  0.6294
  749MOL0     C 3267  -1.410   4.623   2.545  0.2216  0.1987  0.1581
  749MOL0     C 3268  -1.444   4.757   2.615  0.1133 -0.9840 -0.4913
  749MOL0    Cl 3269  -1.420   4.727   2.788  0.2759 -0.0027 -0.2943
  749MOL0     C 3270  -1.155   3.756   2.557 -0.0378  0.3192  0.2896
  749MOL0     C 3271  -1.134   3.617   2.575 -0.0127 -0.0986  0.3002
  749MOL0     O 3272  -0.847   3.511   2.540  0.0228 -0.1727  0.4041
  749MOL0     C 3273  -0.883   3.173   2.530  0.7800  0.2292 -0.6220
  749MOL0     C 3274  -0.831   3.056   2.591  0.3845 -0.0273  0.7148
  749MOL0     N 3275  -0.532   3.243   3.086  0.1281  0.3509  0.6704
  749MOL0     N 3276  -0.484   3.355   3.077 -0.3130  0.6400 -0.2675
  749MOL0     C 3277   0.705   3.109   2.921 -0.2800 -0.6430  0.8198
  749MOL0     C 3278   0.763   2.979   2.909 -0.1599 -1.0401 -0.2847
  749MOL0     C 3279   0.917   2.586   2.807 -0.5302  0.8188 -0.4816
  749MOL0     C 3280   0.823   2.498   2.743  0.5334  1.1338 -0.4221
  749MOL0     C 3281   0.850   2.364   2.706 -0.4010  0.5006  0.1731
  749MOL0     C 3282   0.969   2.312   2.743  0.3364  0.4431  0.1543
  749MOL0     O 3283   0.991   2.183   2.713  0.6291  0.1529 -0.3655
  749MOL0     C 3284   1.096   2.097   2.765  0.0966 -0.1479 -0.2664
  749MOL0     C 3285   1.100   1.956   2.716  0.4076  0.5600  0.3063
  749MOL0     C 3286   1.124   1.964   2.558 -0.1433 -0.0397 -0.7268
  749MOL0     C 3287   1.093   1.825   2.490 -0.6739 -0.2378  0.7484
  749MOL0     C 3288   1.195   1.724   2.504 -0.0197 -0.4953  0.2177
  749MOL0     C 3289   1.265   1.628   2.507  0.6514 -0.0350 -0.4533
  749MOL0     C 3290   1.062   2.388   2.807 -0.3121  0.1129  0.7004
  749MOL0     C 3291   1.030   2.516   2.854  0.9302 -0.4469  1.1416
  749MOL0     C 3292   1.140   2.581   2.930  0.3126 -0.4878 -1.1568
  749MOL0     H 3293   0.600   2.902   2.615  1.0541 -2.4641  0.6844
  749MOL0     H 3294   0.508   3.116   2.647 -2.8860  1.7809  3.7493
  749MOL0     H 3295   0.672   3.427   2.961 -0.2105  0.7350 -2.0157
  749MOL0     H 3296   0.543   3.328   3.021  2.8119  1.0385  1.5632
  749MOL0     H 3297   0.469   3.559   3.015 -1.4959  0.2058  0.5550
  749MOL0     H 3298   0.471   3.552   2.840 -0.8735  2.3922  0.7953
  749MOL0     H 3299   0.321   3.354   2.864 -2.3543 -0.3117  0.3049
  749MOL0     H 3300   0.319   3.340   3.035  0.9529 -2.1905 -2.3282
  749MOL0     H 3301   0.185   3.551   3.047 -1.7004 -0.8213 -0.3669
  749MOL0     H 3302   0.217   3.581   2.869  0.0290 -0.9985 -1.9823
  749MOL0     H 3303   0.066   3.342   2.990  0.8043 -0.2049 -0.5653
  749MOL0     H 3304   0.061   3.395   2.826 -1.1535  1.6154 -0.5622
  749MOL0     H 3305  -0.037   3.560   3.063 -1.0908 -0.6301  0.3751
  749MOL0     H 3306  -0.041   3.626   2.901  0.5758  0.1629 -0.1738
  749MOL0     H 3307  -0.169   3.371   2.889  1.9124  1.4479 -0.6271
  749MOL0     H 3308  -0.237   3.529   2.876  2.2768  1.1156 -1.2227
  749MOL0     H 3309  -0.179   3.429   3.159 -0.5164 -0.2905  0.2249
  749MOL0     H 3310  -0.309   3.543   3.107 -0.6133  0.3389 -0.5572
  749MOL0     H 3311  -0.215   3.173   3.124 -0.5010  0.2616  3.0473
  749MOL0     H 3312  -0.545   2.974   3.124  0.3347 -1.2263  0.2023
  749MOL0     H 3313  -0.383   2.958   3.194 -2.0233 -2.8516  0.6765
  749MOL0     H 3314  -0.284   2.961   2.970  0.3080 -0.8837  3.0867
  749MOL0     H 3315  -0.386   2.821   2.980 -0.0844 -0.9299 -2.0282
  749MOL0     H 3316  -0.446   3.092   2.833  0.0315  1.3714  1.4636
  749MOL0     H 3317  -0.415   2.931   2.767 -1.0029 -2.9552  2.9288
  749MOL0     H 3318  -0.617   2.844   2.913 -1.5265 -0.0927 -1.3337
  749MOL0     H 3319  -0.649   3.014   2.949  0.5077  1.0953 -0.2837
  749MOL0     H 3320  -0.651   3.203   2.833  0.6462 -0.0289 -0.1662
  749MOL0     H 3321  -0.807   3.496   2.795 -0.6495 -2.1865  2.4739
  749MOL0     H 3322  -0.656   3.482   2.705 -0.4846  0.5073  0.8724
  749MOL0     H 3323  -0.680   3.414   2.863  0.4019  0.3559  0.5338
  749MOL0     H 3324  -1.092   3.526   2.246  1.1984 -1.2354  0.8047
  749MOL0     H 3325  -1.213   3.759   2.226 -1.0975  0.1272  0.9549
  749MOL0     H 3326  -1.379   3.954   2.308  3.2494 -5.1495 -1.0805
  749MOL0     H 3327  -1.394   3.870   2.449  1.2060 -0.4702 -1.5399
  749MOL0     H 3328  -1.487   4.109   2.483  0.4108  0.1051 -3.1309
  749MOL0     H 3329  -1.369   4.055   2.595 -0.3449  1.7115  1.0095
  749MOL0     H 3330  -1.323   4.221   2.345 -3.5741 -0.8275  0.8783
  749MOL0     H 3331  -1.184   4.178   2.451  0.3964 -0.3118 -3.2603
  749MOL0     H 3332  -1.299   4.303   2.647  2.0366  0.9997 -0.0263
  749MOL0     H 3333  -1.429   4.330   2.527  0.2782 -4.0916 -2.9491
  749MOL0     H 3334  -1.145   4.407   2.463 -0.9232 -1.6499 -3.7637
  749MOL0     H 3335  -1.278   4.438   2.375 -0.7742 -0.0054  0.1693
  749MOL0     H 3336  -1.197   4.628   2.540  3.0245 -3.0519  3.2564
  749MOL0     H 3337  -1.262   4.526   2.676 -1.4762 -0.0468  0.9577
  749MOL0     H 3338  -1.488   4.549   2.562 -1.3351  1.9299  0.9426
  749MOL0     H 3339  -1.424   4.646   2.438 -0.1205  1.1624  0.3960
  749MOL0     H 3340  -1.547   4.783   2.589  0.0943 -0.5825 -0.0270
  749MOL0     H 3341  -1.379   4.838   2.582 -0.7783  0.4436  1.1078
  749MOL0     H 3342  -1.170   3.832   2.633 -0.4512  2.8360 -2.1531
  749MOL0     H 3343  -1.122   3.574   2.674  0.8905 -0.4907  0.0241
  749MOL0     H 3344  -0.940   3.169   2.438  1.1159 -0.6903 -0.7997
  749MOL0     H 3345  -0.864   2.960   2.553 -3.5813  0.6750  1.8685
  749MOL0     H 3346   0.729   3.180   2.999 -0.6146 -0.5202  0.8113
  749MOL0     H 3347   0.812   2.929   2.992 -1.0373 -2.2996 -0.4911
  749MOL0     H 3348   0.726   2.532   2.707 -1.3219 -2.5178  0.6481
  749MOL0     H 3349   0.774   2.302   2.660 -0.5548  1.6271 -1.1693
  749MOL0     H 3350   1.192   2.150   2.757 -0.9038  2.1566  1.7166
  749MOL0     H 3351   1.073   2.082   2.871 -1.1093 -2.6359 -0.8087
  749MOL0     H 3352   1.005   1.906   2.740  0.9381  0.3368  2.0309
  749MOL0     H 3353   1.173   1.897   2.772  0.1595  1.3101  1.4569
  749MOL0     H 3354   1.056   2.036   2.512  0.3109  0.1541 -1.1100
  749MOL0     H 3355   1.228   1.997   2.542 -1.8659  5.3779 -3.0493
  749MOL0     H 3356   1.078   1.834   2.382  3.7254  0.2835 -0.0078
  749MOL0     H 3357   0.996   1.786   2.521 -1.2730 -0.1564 -0.9095
  749MOL0     H 3358   1.309   1.530   2.505 -2.3125 -1.5638  1.6015
  749MOL0     H 3359   1.165   2.357   2.825 -0.8746 -2.4777 -0.1715
  749MOL0     H 3360   1.099   2.671   2.977  0.4211 -0.6273 -0.7930
  749MOL0     H 3361   1.175   2.515   3.010 -1.8192  2.5702  2.6649
  749MOL0     H 3362   1.219   2.612   2.861  0.2100  0.3217 -0.9231
  750MOL0     O 3363   3.294   4.420   4.316  0.8855  0.3265  0.5139
  750MOL0     C 3364   3.350   4.360   4.225  0.1117  0.2665  0.6446
  750MOL0     O 3365   3.482   4.340   4.210 -0.2661 -0.1069 -0.4614
  750MOL0     C 3366   3.560   4.440   4.251 -0.1775 -0.2193  0.9838
  750MOL0     C 3367   3.607   4.448   4.386 -0.0467 -0.2248 -0.4048
  750MOL0     C 3368   3.719   4.535   4.424  0.2946 -0.7752  0.4165
  750MOL0     C 3369   3.769   4.614   4.332  0.0681 -0.5764  0.3885
  750MOL0     O 3370   3.881   4.693   4.354  0.7646 -1.2352 -1.1462
  750MOL0     C 3371   4.012   4.641   4.357 -0.4364  0.0913 -0.5145
  750MOL0     C 3372   4.103   4.756   4.341  0.2684  0.0053 -0.2788
  750MOL0     C 3373   4.186   4.786   4.466 -0.8370 -0.5236 -0.3198
  750MOL0     C 3374   4.286   4.901   4.456 -0.3141 -1.0724  0.3040
  750MOL0     C 3375   4.366   4.909   4.576 -0.2545 -0.2766 -0.0517
  750MOL0     C 3376   4.491   5.012   4.562 -0.9408 -0.6420  0.0783
  750MOL0     C 3377   4.582   4.983   4.681 -0.1173 -0.9660  0.3296
  750MOL0     C 3378   4.712   5.063   4.670 -0.0183 -0.5012 -0.3523
  750MOL0     N 3379   4.790   5.032   4.789  0.7365  0.4806  0.1364
  750MOL0     C 3380   4.890   4.938   4.790 -0.1899 -0.2185  1.2417
  750MOL0     C 3381   4.946   4.947   4.916  0.6175  0.5594  0.1641
  750MOL0     C 3382   5.075   4.874   4.934  0.0259 -0.0367  0.8409
  750MOL0     C 3383   5.179   4.952   4.857  0.6590 -0.4560  0.0410
  750MOL0     C 3384   5.213   4.899   4.718  0.0861  0.1312 -1.5371
  750MOL0     C 3385   5.348   4.957   4.678 -0.4044 -0.7078  0.3745
  750MOL0     O 3386   5.355   4.948   4.535  0.0770 -0.0390  0.6431
  750MOL0     C 3387   5.461   5.003   4.483  0.0096 -0.6106  0.8881
  750MOL0     C 3388   5.585   5.017   4.544 -0.5131 -0.3088  0.7863
  750MOL0     C 3389   5.700   5.071   4.472 -0.3343  0.0886 -0.2015
  750MOL0     C 3390   5.826   5.099   4.557  0.9120  0.4483 -0.4730
  750MOL0     C 3391   5.685   5.109   4.342 -0.6309  0.0432  0.7388
  750MOL0     C 3392   5.799   5.158   4.248  0.1713 -0.0183 -1.0011
  750MOL0     O 3393   5.912   5.084   4.270  0.1833 -0.5345 -0.0034
  750MOL0     C 3394   6.009   5.083   4.186  0.9791 -0.3595  0.1580
  750MOL0     C 3395   5.992   5.040   4.054 -0.2945 -0.6924  0.5040
  750MOL0     C 3396   6.092   5.042   3.958  0.1499  0.2362  0.4436
  750MOL0     C 3397   6.218   5.075   3.999 -0.0389  0.7447  0.3937
  750MOL0     O 3398   6.315   5.077   3.902 -0.1614  0.0579 -1.0125
  750MOL0     C 3399   6.429   4.994   3.931 -0.8192  0.1857  0.0167
  750MOL0     C 3400   6.492   4.951   3.801 -0.5796 -0.3799 -0.0356
  750MOL0     C 3401   6.570   5.069   3.722  0.4735 -0.6628 -0.3924
  750MOL0     C 3402   6.534   5.070   3.566  0.4154  0.6835 -0.2657
  750MOL0     C 3403   6.541   5.209   3.504 -0.3560 -0.6725 -0.1049
  750MOL0     C 3404   6.540   5.188   3.356 -0.7078 -0.1193  0.4864
  750MOL0     C 3405   6.393   5.183   3.315  0.0540  0.5164  0.6646
  750MOL0     C 3406   6.366   5.208   3.161  0.7463  0.9540 -0.1125
  750MOL0    Cl 3407   6.277   5.059   3.106  0.2985  0.0384  0.2095
  750MOL0     C 3408   6.243   5.089   4.135  0.4014 -0.0577  0.0316
  750MOL0     C 3409   6.144   5.096   4.225 -0.5965 -0.9570 -0.6369
  750MOL0     O 3410   5.778   5.244   4.169 -0.4103 -0.5378  0.4692
  750MOL0     C 3411   5.567   5.082   4.283 -0.5385 -0.6841  0.2058
  750MOL0     C 3412   5.456   5.043   4.351 -0.3224  0.1083  0.3381
  750MOL0     N 3413   4.886   5.045   4.985  0.1803  0.1735  0.7180
  750MOL0     N 3414   4.790   5.088   4.916  0.0453  0.8026 -0.3036
  750MOL0     C 3415   3.720   4.610   4.197 -1.0360  1.1847 -0.2782
  750MOL0     C 3416   3.617   4.524   4.161  0.0995  0.4837 -0.1387
  750MOL0     C 3417   3.262   4.304   4.117 -0.0288 -0.9986 -0.2989
  750MOL0     C 3418   3.319   4.200   4.040  0.2843 -0.3766  0.5561
  750MOL0     C 3419   3.235   4.129   3.950  0.4922  0.0313 -0.4810
  750MOL0     C 3420   3.095   4.163   3.939  1.2623  0.1432  0.3875
  750MOL0     O 3421   3.024   4.079   3.852  0.1744  0.5783  0.6944
  750MOL0     C 3422   2.880   4.083   3.853  0.0853  0.6542  0.5466
  750MOL0     C 3423   2.815   3.975   3.763 -0.1794  1.2126 -0.4490
  750MOL0     C 3424   2.664   3.950   3.790 -0.1569  0.3952 -0.5214
  750MOL0     C 3425   2.598   3.829   3.707 -0.6342 -0.6710  0.1320
  750MOL0     C 3426   2.574   3.883   3.576 -0.3425  0.6820  0.4268
  750MOL0     C 3427   2.538   3.902   3.456  0.2660 -0.8679 -0.3170
  750MOL0     C 3428   3.045   4.274   4.008  0.0885  0.4795 -1.3498
  750MOL0     C 3429   3.124   4.353   4.097  0.5162  0.3655 -0.5151
  750MOL0     C 3430   3.066   4.478   4.151  0.2579 -0.2132 -0.3874
  750MOL0     H 3431   3.575   4.364   4.448 -0.4172  0.1230 -0.1243
  750MOL0     H 3432   3.762   4.533   4.524  1.6886 -1.5055 -0.1616
  750MOL0     H 3433   4.022   4.566   4.279 -2.3413 -2.0393  1.1552
  750MOL0     H 3434   4.037   4.584   4.447 -2.5149  1.2929  0.9150
  750MOL0     H 3435   4.177   4.745   4.261  0.4365  1.7646 -0.3987
  750MOL0     H 3436   4.053   4.846   4.304 -0.7453  0.4295  1.9966
  750MOL0     H 3437   4.107   4.799   4.541 -2.7643 -5.1713 -1.1883
  750MOL0     H 3438   4.228   4.693   4.505  0.8639  0.8490  1.3458
  750MOL0     H 3439   4.344   4.893   4.363 -2.0260 -0.5759 -0.8457
  750MOL0     H 3440   4.227   4.993   4.460  0.3885 -0.4716 -1.9614
  750MOL0     H 3441   4.410   4.812   4.598  0.7707 -0.1529 -1.3813
  750MOL0     H 3442   4.300   4.932   4.660 -1.1311 -1.4397 -0.4025
  750MOL0     H 3443   4.549   4.993   4.472 -1.6279 -3.6950  0.1756
  750MOL0     H 3444   4.459   5.117   4.563  1.7487  0.2781  1.0698
  750MOL0     H 3445   4.597   4.874   4.678  0.0132 -0.9520  0.4849
  750MOL0     H 3446   4.534   5.013   4.774 -2.3988 -0.2360 -1.0225
  750MOL0     H 3447   4.766   5.046   4.577 -0.4377  3.4920 -1.4898
  750MOL0     H 3448   4.686   5.169   4.677 -0.4141 -0.6913  1.6523
  750MOL0     H 3449   4.929   4.872   4.713  0.4115 -0.2038  1.5291
  750MOL0     H 3450   5.070   4.773   4.891  0.8103  0.2156  0.1272
  750MOL0     H 3451   5.102   4.867   5.039  2.2702 -0.7293  0.2712
  750MOL0     H 3452   5.166   5.060   4.867 -1.3072 -0.7921  2.0341
  750MOL0     H 3453   5.269   4.948   4.920  2.0834 -0.3096 -1.9101
  750MOL0     H 3454   5.219   4.790   4.725  1.1805  0.3004  2.9755
  750MOL0     H 3455   5.127   4.915   4.651 -1.0296  2.2746  0.2932
  750MOL0     H 3456   5.350   5.064   4.703  2.6070 -0.5408 -0.1404
  750MOL0     H 3457   5.431   4.909   4.730 -1.6215  1.1500  4.4013
  750MOL0     H 3458   5.601   4.982   4.646 -0.7357 -1.0963  0.5527
  750MOL0     H 3459   5.901   5.022   4.535  0.7351  0.0032  0.4301
  750MOL0     H 3460   5.789   5.089   4.659  3.4697  3.2085  0.8987
  750MOL0     H 3461   5.871   5.198   4.545  0.5305  0.7472  0.4746
  750MOL0     H 3462   5.891   5.015   4.023 -0.0812 -1.4951  0.4186
  750MOL0     H 3463   6.061   5.009   3.860 -2.6687 -1.0016  1.6419
  750MOL0     H 3464   6.505   5.055   3.981 -1.1929  1.4032 -0.8354
  750MOL0     H 3465   6.419   4.913   4.003  2.6010 -0.1104  0.3269
  750MOL0     H 3466   6.571   4.879   3.823  0.1406  0.7698  1.3223
  750MOL0     H 3467   6.423   4.898   3.734  0.8478 -0.2730 -1.6564
  750MOL0     H 3468   6.679   5.073   3.735  0.6570 -2.6030 -0.9666
  750MOL0     H 3469   6.538   5.165   3.763 -0.9204 -1.2575 -0.0241
  750MOL0     H 3470   6.436   5.025   3.550  0.5040 -0.2219  1.4602
  750MOL0     H 3471   6.601   5.000   3.515  1.0450  3.3551 -3.4687
  750MOL0     H 3472   6.466   5.281   3.539  1.3690  0.4798  1.3479
  750MOL0     H 3473   6.636   5.254   3.533  2.2866 -3.1159 -3.9246
  750MOL0     H 3474   6.592   5.098   3.320 -2.5651 -1.3115  0.6688
  750MOL0     H 3475   6.583   5.280   3.316 -0.7184 -1.2527 -2.3619
  750MOL0     H 3476   6.327   5.259   3.358 -0.2229  1.6026 -1.5105
  750MOL0     H 3477   6.362   5.083   3.346 -2.3835  1.7249  2.4556
  750MOL0     H 3478   6.463   5.221   3.112  0.9867  0.9009  0.3342
  750MOL0     H 3479   6.300   5.295   3.160 -2.9013 -1.6077 -0.7107
  750MOL0     H 3480   6.342   5.102   4.179 -0.8735  3.8042  2.3010
  750MOL0     H 3481   6.172   5.099   4.330  2.3271  0.9633 -1.3469
  750MOL0     H 3482   5.551   5.102   4.177  0.9664 -1.7415 -0.2495
  750MOL0     H 3483   5.361   5.039   4.298  0.1968  2.0244 -0.8313
  750MOL0     H 3484   3.772   4.669   4.121 -3.4517  0.6956 -2.4465
  750MOL0     H 3485   3.595   4.512   4.056 -0.6689 -0.3773  0.1164
  750MOL0     H 3486   3.419   4.160   4.039  0.0260 -1.0064 -0.3993
  750MOL0     H 3487   3.268   4.053   3.879  2.6046 -0.5966  1.0656
  750MOL0     H 3488   2.846   4.073   3.956 -4.7249  2.3603 -0.6462
  750MOL0     H 3489   2.857   4.180   3.808 -1.2990 -0.0650 -0.3819
  750MOL0     H 3490   2.865   3.879   3.778 -0.2135  0.8288 -2.4448
  750MOL0     H 3491   2.819   4.011   3.660  0.1872  4.4850  0.6078
  750MOL0     H 3492   2.657   3.921   3.895 -2.8228  3.6335  0.3748
  750MOL0     H 3493   2.602   4.039   3.775 -0.7462  0.2565  0.8888
  750MOL0     H 3494   2.507   3.792   3.756 -1.1597 -0.0677 -0.3739
  750MOL0     H 3495   2.664   3.743   3.690 -1.4610 -1.1552 -0.7487
  750MOL0     H 3496   2.521   3.917   3.352  0.2493 -1.4411 -0.4029
  750MOL0     H 3497   2.945   4.313   3.990  0.0775  1.1117 -0.0531
  750MOL0     H 3498   3.124   4.569   4.132 -1.6919  1.1544 -0.1313
  750MOL0     H 3499   2.965   4.505   4.118  0.4199  0.4363 -0.3612
  750MOL0     H 3500   3.051   4.464   4.258 -1.7539 -1.5257 -0.7897
  751MOL0     O 3501   7.453  11.175   0.053  0.4849  0.2391  0.0043
  751MOL0     C 3502   7.392  11.068   0.036 -1.1832 -0.1028  0.0221
  751MOL0     O 3503   7.259  11.044   0.060  0.4643  0.0468  0.0297
  751MOL0     C 3504   7.174  11.134   0.116 -0.0638 -0.5773  0.0397
  751MOL0     C 3505   7.154  11.268   0.071 -0.2838  0.8782 -0.2997
  751MOL0     C 3506   7.073  11.360   0.135 -1.2912 -0.3916  0.7803
  751MOL0     C 3507   7.016  11.327   0.253  0.8109 -0.4660 -0.3266
  751MOL0     O 3508   6.923  11.409   0.314  0.7690  0.6417  0.2634
  751MOL0     C 3509   6.958  11.470   0.439  0.1183 -0.2906  0.1268
  751MOL0     C 3510   6.892  11.413   0.562 -0.0046 -0.2302 -0.2570
  751MOL0     C 3511   6.739  11.392   0.543 -0.1928 -0.5367 -0.4194
  751MOL0     C 3512   6.677  11.529   0.528 -0.4239  0.2948  0.4777
  751MOL0     C 3513   6.516  11.529   0.522 -0.3775 -0.0950 -0.5758
  751MOL0     C 3514   6.457  11.672   0.533  0.4665 -0.1518 -0.6103
  751MOL0     C 3515   6.523  11.763   0.640 -0.4503  0.7744 -0.5358
  751MOL0     C 3516   6.439  11.885   0.676 -0.0411  0.4579 -0.1820
  751MOL0     N 3517   6.452  11.903   0.819 -0.2711 -0.5263  0.0981
  751MOL0     C 3518   6.353  11.882   0.909 -0.1463 -1.0668 -0.3887
  751MOL0     C 3519   6.411  11.921   1.024 -0.2787 -0.1560  0.6162
  751MOL0     C 3520   6.353  11.924   1.166  0.4551 -0.0025  0.1241
  751MOL0     C 3521   6.378  12.055   1.235  0.5783 -1.0065  0.5488
  751MOL0     C 3522   6.374  12.049   1.382  1.4400 -0.2136  0.1993
  751MOL0     C 3523   6.238  12.056   1.450 -0.5379 -0.2098 -0.3814
  751MOL0     O 3524   6.191  12.189   1.465  0.2155 -0.5214  0.1386
  751MOL0     C 3525   6.248  12.279   1.555  0.3884  0.4332  0.2517
  751MOL0     C 3526   6.180  12.393   1.583 -0.3739 -0.0850 -0.1850
  751MOL0     C 3527   6.222  12.494   1.680  0.0370  0.4758  0.2021
  751MOL0     C 3528   6.140  12.615   1.696  0.4005  0.3390 -0.4718
  751MOL0     C 3529   6.334  12.464   1.758  0.4633  0.5745 -0.6122
  751MOL0     C 3530   6.390  12.555   1.852  0.6497  0.2236  0.2682
  751MOL0     O 3531   6.410  12.499   1.972 -0.9397 -0.6104 -0.3802
  751MOL0     C 3532   6.479  12.565   2.060  1.0633  1.0664 -0.0601
  751MOL0     C 3533   6.422  12.681   2.114 -0.5881  0.2712  0.1995
  751MOL0     C 3534   6.479  12.737   2.231  0.2892 -0.3768 -0.0093
  751MOL0     C 3535   6.589  12.685   2.292 -0.2533  0.4929  1.4194
  751MOL0     O 3536   6.666  12.760   2.389  0.2837 -0.6767 -0.1128
  751MOL0     C 3537   6.779  12.692   2.445 -0.8340  0.5499  0.0719
  751MOL0     C 3538   6.839  12.772   2.560  0.3222 -0.1003  0.5228
  751MOL0     C 3539   6.879  12.907   2.499 -0.3682 -0.3576 -0.3490
  751MOL0     C 3540   6.957  12.987   2.607 -0.8307  0.4689 -0.1873
  751MOL0     C 3541   7.014  13.120   2.553  0.2229 -0.3175 -0.6756
  751MOL0     C 3542   7.138  13.106   2.457 -0.7443 -0.0870 -0.5437
  751MOL0     C 3543   7.205  13.242   2.437 -0.4655 -0.7273  0.0311
  751MOL0     C 3544   7.336  13.242   2.363 -0.1919  0.0046 -0.1936
  751MOL0    Cl 3545   7.454  13.183   2.480  0.1821  0.1065 -0.3467
  751MOL0     C 3546   6.630  12.553   2.256  1.0050 -0.2165  0.0604
  751MOL0     C 3547   6.586  12.501   2.130  0.0764 -0.0780 -0.0504
  751MOL0     O 3548   6.395  12.670   1.819 -0.5098 -1.0003  0.4401
  751MOL0     C 3549   6.388  12.332   1.753 -0.7054 -0.1552  0.0255
  751MOL0     C 3550   6.344  12.244   1.654 -0.5093 -0.1016  0.0669
  751MOL0     N 3551   6.535  11.982   0.993  0.0804  0.8299  0.0734
  751MOL0     N 3552   6.551  11.977   0.872 -0.0199  0.8493  0.2908
  751MOL0     C 3553   7.025  11.200   0.300 -0.2982  0.3319 -0.5377
  751MOL0     C 3554   7.107  11.101   0.246 -0.0829  0.3417  0.4724
  751MOL0     C 3555   7.475  10.961  -0.018  0.2724  0.0122 -0.0613
  751MOL0     C 3556   7.618  10.975   0.009  0.2759  0.3388 -0.5605
  751MOL0     C 3557   7.708  10.867  -0.018 -0.0667  0.7072 -0.1997
  751MOL0     C 3558   7.667  10.766  -0.098 -0.9440  1.1888 -0.3635
  751MOL0     O 3559   7.745  10.666  -0.150  0.4633  0.5357  0.1684
  751MOL0     C 3560   7.884  10.657  -0.117 -1.3231  1.0466  0.1987
  751MOL0     C 3561   7.920  10.542  -0.004  0.1127 -0.4319  0.7217
  751MOL0     C 3562   7.867  10.414  -0.068  0.6193  0.7540 -0.2788
  751MOL0     C 3563   7.942  10.292  -0.006 -0.1986 -0.1991  0.8875
  751MOL0     C 3564   7.905  10.258   0.133 -0.2274 -0.9410 -0.1446
  751MOL0     C 3565   7.870  10.229   0.249 -0.6425  0.2683  0.8802
  751MOL0     C 3566   7.527  10.756  -0.133 -0.2472 -0.2645 -1.5443
  751MOL0     C 3567   7.429  10.854  -0.094  0.0325 -0.0970 -0.3905
  751MOL0     C 3568   7.278  10.830  -0.129 -0.8664 -0.1880 -0.3033
  751MOL0     H 3569   7.204  11.282  -0.025  1.3027 -2.7940 -0.1864
  751MOL0     H 3570   7.052  11.460   0.099  2.4190  1.0013  2.0012
  751MOL0     H 3571   6.930  11.575   0.431 -0.4979 -0.4365  0.3536
  751MOL0     H 3572   7.067  11.474   0.454  0.8631  1.2533 -4.1364
  751MOL0     H 3573   6.948  11.320   0.578  1.3569  0.5638 -0.2626
  751MOL0     H 3574   6.914  11.478   0.647 -1.8977 -0.3342  0.3717
  751MOL0     H 3575   6.725  11.330   0.454  0.3634 -3.3758  1.3561
  751MOL0     H 3576   6.698  11.343   0.632  0.6419 -0.5611 -0.0394
  751MOL0     H 3577   6.718  11.584   0.613  2.6065 -1.8500  0.6001
  751MOL0     H 3578   6.697  11.593   0.442  4.3524  0.5175  1.4510
  751MOL0     H 3579   6.477  11.479   0.611  0.5493 -0.5326 -0.4018
  751MOL0     H 3580   6.489  11.483   0.427  1.3599  0.0101 -1.1683
  751MOL0     H 3581   6.480  11.705   0.432  1.0250  0.0359 -0.4282
  751MOL0     H 3582   6.351  11.657   0.555 -0.2985  1.0325 -3.1562
  751MOL0     H 3583   6.625  11.793   0.613  0.9085 -2.3211  0.7497
  751MOL0     H 3584   6.527  11.700   0.729  0.5798  0.2942 -0.9067
  751MOL0     H 3585   6.483  11.965   0.616  1.6237 -0.8120 -0.7266
  751MOL0     H 3586   6.333  11.868   0.653 -0.2636 -0.3914  1.3158
  751MOL0     H 3587   6.256  11.833   0.903 -1.0945  0.2083  2.7630
  751MOL0     H 3588   6.398  11.841   1.221 -0.3950  0.4717  1.5738
  751MOL0     H 3589   6.246  11.900   1.160  1.1194 -3.8182  1.0136
  751MOL0     H 3590   6.475  12.096   1.204 -1.2274  3.4408  0.0291
  751MOL0     H 3591   6.303  12.128   1.203  1.8805  0.6750  1.1176
  751MOL0     H 3592   6.426  11.959   1.417 -3.5565 -3.8186 -0.4361
  751MOL0     H 3593   6.446  12.122   1.419  1.4010 -0.1995  0.2502
  751MOL0     H 3594   6.158  12.010   1.393 -2.3615  0.2045  1.7069
  751MOL0     H 3595   6.254  12.008   1.547 -0.4866  0.6274  0.0340
  751MOL0     H 3596   6.098  12.403   1.513  0.3930 -0.3586 -1.1503
  751MOL0     H 3597   6.175  12.694   1.629 -0.6113  1.2619  0.0453
  751MOL0     H 3598   6.143  12.654   1.799 -1.7621 -1.3427  0.3051
  751MOL0     H 3599   6.041  12.581   1.664  0.3096 -1.3139  1.3879
  751MOL0     H 3600   6.330  12.716   2.069 -0.3706 -0.4874 -0.8834
  751MOL0     H 3601   6.441  12.826   2.281 -0.1022 -0.2874 -0.4529
  751MOL0     H 3602   6.753  12.590   2.475  0.5102  0.1586 -0.0599
  751MOL0     H 3603   6.854  12.688   2.366 -1.0487  1.7403 -0.2038
  751MOL0     H 3604   6.767  12.781   2.642 -0.5713 -1.2808 -0.1050
  751MOL0     H 3605   6.930  12.720   2.592 -0.4663  0.1656  3.5261
  751MOL0     H 3606   6.791  12.966   2.473  2.6899  3.1597 -4.3071
  751MOL0     H 3607   6.932  12.892   2.404 -1.9617  1.2149 -1.5549
  751MOL0     H 3608   7.047  12.933   2.635 -0.4190  1.1945 -0.1019
  751MOL0     H 3609   6.898  13.013   2.696  0.9221 -0.6642  1.3704
  751MOL0     H 3610   6.935  13.165   2.494  0.2885  1.5382  0.5670
  751MOL0     H 3611   7.044  13.188   2.634 -0.2919 -0.1772 -0.6020
  751MOL0     H 3612   7.098  13.062   2.365 -1.5069  1.4999 -1.0061
  751MOL0     H 3613   7.208  13.033   2.498 -0.1667 -0.6358 -2.3814
  751MOL0     H 3614   7.223  13.274   2.540 -1.6778  0.3023 -0.0360
  751MOL0     H 3615   7.139  13.317   2.391  2.6848  1.5909 -1.0174
  751MOL0     H 3616   7.356  13.342   2.325 -1.4500 -0.4879 -2.3037
  751MOL0     H 3617   7.335  13.168   2.283 -0.4864  2.5338 -2.6594
  751MOL0     H 3618   6.710  12.492   2.297  1.8156  0.1917 -0.8851
  751MOL0     H 3619   6.615  12.401   2.101  2.1255  0.6408 -0.6276
  751MOL0     H 3620   6.461  12.311   1.830  0.6983  0.6981 -1.0022
  751MOL0     H 3621   6.384  12.143   1.657  2.9934  1.0263 -2.1834
  751MOL0     H 3622   6.981  11.164   0.393 -0.0882 -1.8911 -1.2272
  751MOL0     H 3623   7.113  11.003   0.294  3.3282 -0.0447 -0.4871
  751MOL0     H 3624   7.674  11.061   0.043  4.0650 -2.4002  0.8308
  751MOL0     H 3625   7.808  10.878   0.023 -1.4013  0.4508  3.4554
  751MOL0     H 3626   7.949  10.627  -0.200  1.1736  3.2675  1.2132
  751MOL0     H 3627   7.927  10.749  -0.077 -0.2701 -0.0169  1.5969
  751MOL0     H 3628   7.857  10.572   0.080  0.4006 -1.0398  1.1625
  751MOL0     H 3629   8.028  10.539   0.016  0.1632 -1.9102  0.3116
  751MOL0     H 3630   7.760  10.396  -0.054  1.1767 -1.1470  2.2722
  751MOL0     H 3631   7.882  10.404  -0.176 -1.9143 -0.7958 -0.5772
  751MOL0     H 3632   8.051  10.307  -0.004  0.1311 -2.2601  1.0771
  751MOL0     H 3633   7.916  10.208  -0.070 -0.1825 -0.0974  0.7478
  751MOL0     H 3634   7.831  10.192   0.342 -2.5679 -3.1645 -1.0903
  751MOL0     H 3635   7.501  10.667  -0.189  0.8522  0.6772 -3.6626
  751MOL0     H 3636   7.280  10.776  -0.224  2.0261  1.3689 -1.2855
  751MOL0     H 3637   7.236  10.757  -0.060  1.5711 -0.5751  0.8939
  751MOL0     H 3638   7.227  10.926  -0.138 -2.4585 -0.7728  1.7643
  752MOL0     O 3639   4.587   0.374   8.834  0.3211 -0.6135 -0.3264
  752MOL0     C 3640   4.693   0.382   8.892  0.9145 -0.3060  0.5774
  752MOL0     O 3641   4.811   0.331   8.848 -0.2557 -0.0923 -0.2273
  752MOL0     C 3642   4.819   0.284   8.719 -0.2396 -0.4850 -0.8771
  752MOL0     C 3643   4.810   0.148   8.695 -0.7108  0.3381  0.3629
  752MOL0     C 3644   4.823   0.096   8.567  0.3350 -1.1129 -1.0770
  752MOL0     C 3645   4.854   0.185   8.462  0.1813  0.1970  0.0756
  752MOL0     O 3646   4.884   0.138   8.332  0.6702  0.6473 -0.8818
  752MOL0     C 3647   4.873   0.001   8.291  0.3355  0.2355 -0.2185
  752MOL0     C 3648   4.973  -0.030   8.175  0.5016 -0.8712 -0.4249
  752MOL0     C 3649   4.927  -0.134   8.077  0.0779 -0.0122  0.3213
  752MOL0     C 3650   5.041  -0.137   7.970 -0.4342  0.8455  0.2699
  752MOL0     C 3651   5.018  -0.238   7.856 -0.2340  0.2383 -0.5070
  752MOL0     C 3652   5.148  -0.270   7.780  0.4304  0.3730 -0.1828
  752MOL0     C 3653   5.250  -0.347   7.865  0.0027  0.4814  0.7035
  752MOL0     C 3654   5.370  -0.383   7.771 -0.5149  0.2619 -0.4806
  752MOL0     N 3655   5.324  -0.475   7.661  0.1294 -0.1507  0.3144
  752MOL0     C 3656   5.270  -0.599   7.668  1.1140  0.1412 -0.9748
  752MOL0     C 3657   5.265  -0.637   7.540  0.6935 -0.1397 -0.0378
  752MOL0     C 3658   5.189  -0.759   7.485 -0.0132  0.5427  0.3758
  752MOL0     C 3659   5.265  -0.904   7.479  0.7473  0.3895 -0.4567
  752MOL0     C 3660   5.316  -0.949   7.622 -0.0541  0.2969  0.1479
  752MOL0     C 3661   5.184  -0.970   7.707  0.9484 -0.7819 -0.6085
  752MOL0     O 3662   5.244  -1.000   7.830  0.0757  0.4989 -0.1239
  752MOL0     C 3663   5.165  -1.045   7.940 -1.0583 -1.5381 -0.8705
  752MOL0     C 3664   5.026  -1.057   7.938 -0.6445  0.2815 -0.0441
  752MOL0     C 3665   4.956  -1.103   8.051  0.1443 -0.2644  0.1568
  752MOL0     C 3666   4.806  -1.089   8.060 -0.3104 -0.0029 -0.1351
  752MOL0     C 3667   5.026  -1.172   8.158  0.2266 -0.1816 -1.3925
  752MOL0     C 3668   4.958  -1.236   8.283  0.1249 -0.9569 -0.0197
  752MOL0     O 3669   4.824  -1.272   8.280 -0.0986 -0.0476  0.7630
  752MOL0     C 3670   4.755  -1.309   8.386  1.1490  0.1445 -0.1461
  752MOL0     C 3671   4.745  -1.230   8.502  0.0940  0.9427 -0.2407
  752MOL0     C 3672   4.651  -1.264   8.602  0.4386 -1.0071  0.7469
  752MOL0     C 3673   4.568  -1.378   8.585 -0.5630 -0.0708 -0.2375
  752MOL0     O 3674   4.484  -1.414   8.680 -0.2520 -0.0722  0.1883
  752MOL0     C 3675   4.536  -1.425   8.812  0.1654 -0.0502  0.0668
  752MOL0     C 3676   4.441  -1.511   8.904  0.1600  0.1476  0.9799
  752MOL0     C 3677   4.485  -1.491   9.049 -0.3361 -0.4263 -0.7570
  752MOL0     C 3678   4.379  -1.539   9.149 -0.0873 -0.7918  1.2456
  752MOL0     C 3679   4.445  -1.551   9.292 -0.2985 -0.2856  0.7263
  752MOL0     C 3680   4.360  -1.622   9.396  0.7347  1.0978  0.3698
  752MOL0     C 3681   4.428  -1.666   9.527  0.1220  0.8340 -0.4966
  752MOL0     C 3682   4.448  -1.541   9.611 -0.7453  0.6885  0.6911
  752MOL0    Cl 3683   4.461  -1.571   9.789 -0.0500  0.2260  0.0243
  752MOL0     C 3684   4.576  -1.447   8.465  0.0092  0.1677 -0.2930
  752MOL0     C 3685   4.668  -1.408   8.368  0.0558  0.3918 -0.1518
  752MOL0     O 3686   5.031  -1.263   8.377  0.0645  0.2586  0.4854
  752MOL0     C 3687   5.165  -1.163   8.159  0.1202 -0.1838 -0.1347
  752MOL0     C 3688   5.229  -1.095   8.057 -0.1419  0.3793  0.2228
  752MOL0     N 3689   5.319  -0.542   7.454 -0.3446  0.0103 -0.2913
  752MOL0     N 3690   5.347  -0.445   7.535  0.6769 -0.0907  0.5636
  752MOL0     C 3691   4.880   0.317   8.482  0.6498 -0.8863  0.4474
  752MOL0     C 3692   4.852   0.365   8.612 -0.7909  0.3518 -0.8479
  752MOL0     C 3693   4.692   0.452   9.012  0.1073  0.0603  0.1180
  752MOL0     C 3694   4.810   0.512   9.044 -0.9840 -0.3222 -0.4783
  752MOL0     C 3695   4.831   0.578   9.167 -1.2579  0.4987  0.1884
  752MOL0     C 3696   4.730   0.615   9.251 -0.9649  0.6548  0.0221
  752MOL0     O 3697   4.731   0.690   9.365  0.6695 -0.2809 -0.4002
  752MOL0     C 3698   4.863   0.713   9.426  0.6758 -0.0582 -0.0034
  752MOL0     C 3699   4.901   0.860   9.397  0.1255  0.1392 -0.1198
  752MOL0     C 3700   5.044   0.893   9.447 -0.4535 -0.2385 -0.2408
  752MOL0     C 3701   5.084   1.042   9.457  0.4687  1.3091  0.0167
  752MOL0     C 3702   5.006   1.106   9.559  0.6950  0.2156 -0.3264
  752MOL0     C 3703   4.948   1.154   9.653  0.2313 -0.5035 -0.7016
  752MOL0     C 3704   4.608   0.569   9.202  0.5737  0.3550  0.2361
  752MOL0     C 3705   4.580   0.489   9.091 -0.3989 -1.2939 -0.7675
  752MOL0     C 3706   4.434   0.452   9.057  0.4769 -0.6499 -0.9490
  752MOL0     H 3707   4.783   0.076   8.772  0.9649 -0.2259  0.4700
  752MOL0     H 3708   4.807  -0.011   8.556 -2.8588 -0.6490 -1.9329
  752MOL0     H 3709   4.775  -0.029   8.254  0.4722 -0.5977  0.0738
  752MOL0     H 3710   4.898  -0.069   8.371  0.2171 -0.1056 -0.4783
  752MOL0     H 3711   4.996   0.070   8.137  0.5903 -0.9337 -0.5352
  752MOL0     H 3712   5.063  -0.076   8.216 -0.7946 -1.2539  2.1724
  752MOL0     H 3713   4.915  -0.234   8.120  0.9128 -1.0513 -1.7221
  752MOL0     H 3714   4.835  -0.101   8.029  0.6569  0.0394 -0.7831
  752MOL0     H 3715   5.051  -0.038   7.925 -1.8665  1.2408  0.7518
  752MOL0     H 3716   5.136  -0.143   8.022 -1.2129  0.9072  1.7606
  752MOL0     H 3717   4.936  -0.206   7.791 -1.8754 -0.4579  1.1224
  752MOL0     H 3718   4.980  -0.331   7.899  2.6469 -0.3335  1.0715
  752MOL0     H 3719   5.128  -0.321   7.685  1.3514 -0.9665  0.3173
  752MOL0     H 3720   5.189  -0.170   7.762 -1.1029  1.0115 -0.3012
  752MOL0     H 3721   5.204  -0.433   7.915 -0.2999 -0.3330 -0.9267
  752MOL0     H 3722   5.288  -0.271   7.934 -1.2436  1.6837  0.1409
  752MOL0     H 3723   5.396  -0.290   7.720  0.7739 -0.9014 -2.0430
  752MOL0     H 3724   5.452  -0.436   7.821  0.8267  0.8696 -1.9585
  752MOL0     H 3725   5.217  -0.644   7.751 -0.0018  1.5438 -0.8843
  752MOL0     H 3726   5.178  -0.737   7.379  4.3551 -0.4274 -0.4319
  752MOL0     H 3727   5.089  -0.773   7.528 -0.1156 -0.7227 -0.2302
  752MOL0     H 3728   5.205  -0.981   7.430  0.3681 -0.2278  0.9197
  752MOL0     H 3729   5.357  -0.887   7.422  2.5661  0.5499  2.3606
  752MOL0     H 3730   5.377  -1.040   7.623 -0.6768 -0.1554 -0.8552
  752MOL0     H 3731   5.376  -0.876   7.677  1.5940 -2.2163  1.8824
  752MOL0     H 3732   5.128  -0.876   7.707 -0.3337 -1.5133  0.7214
  752MOL0     H 3733   5.120  -1.048   7.666 -1.3618  0.8519 -0.2863
  752MOL0     H 3734   4.969  -1.014   7.856  2.2051  1.8012 -1.3891
  752MOL0     H 3735   4.773  -1.019   7.982 -3.1808  0.4137  1.2943
  752MOL0     H 3736   4.774  -1.050   8.157 -0.0227 -0.8397  0.3000
  752MOL0     H 3737   4.749  -1.182   8.060 -0.2672 -0.1193  3.1118
  752MOL0     H 3738   4.797  -1.135   8.501  0.2629  0.8609  0.3757
  752MOL0     H 3739   4.650  -1.198   8.688  1.6024  2.1683 -1.4772
  752MOL0     H 3740   4.638  -1.463   8.814  1.3316  2.8489  1.5981
  752MOL0     H 3741   4.545  -1.328   8.860  1.4550  0.1900 -0.6308
  752MOL0     H 3742   4.335  -1.486   8.895  0.7084  2.0433 -0.7328
  752MOL0     H 3743   4.454  -1.614   8.869  0.1895  0.2183  0.7823
  752MOL0     H 3744   4.507  -1.385   9.066  1.1254 -0.9842  1.1852
  752MOL0     H 3745   4.576  -1.551   9.064 -1.1215 -1.6816 -0.8740
  752MOL0     H 3746   4.341  -1.638   9.123 -2.3538  0.2501  0.3383
  752MOL0     H 3747   4.295  -1.469   9.158 -1.2790 -1.9985 -0.0493
  752MOL0     H 3748   4.539  -1.604   9.276  0.8420  1.6308  0.6797
  752MOL0     H 3749   4.476  -1.456   9.337 -2.0591 -0.2198  1.8833
  752MOL0     H 3750   4.332  -1.719   9.355  2.9864  1.2486 -1.7126
  752MOL0     H 3751   4.267  -1.565   9.403  1.0285  1.5908  0.3351
  752MOL0     H 3752   4.521  -1.722   9.518 -0.3246  0.1217 -0.8039
  752MOL0     H 3753   4.357  -1.732   9.579  2.1671 -0.1311  1.2239
  752MOL0     H 3754   4.363  -1.473   9.605 -0.5973  0.8060 -0.2831
  752MOL0     H 3755   4.536  -1.487   9.574 -0.0647  0.0587  1.3531
  752MOL0     H 3756   4.512  -1.533   8.451 -1.3193  1.1918 -0.8278
  752MOL0     H 3757   4.677  -1.478   8.286  1.9788 -2.7620  2.5215
  752MOL0     H 3758   5.205  -1.221   8.242 -1.7435 -0.6518  0.4919
  752MOL0     H 3759   5.337  -1.084   8.070  0.4312 -1.1953 -2.4523
  752MOL0     H 3760   4.903   0.375   8.393 -1.6117 -1.1370 -0.3642
  752MOL0     H 3761   4.862   0.470   8.637 -2.1031  0.2669  0.1531
  752MOL0     H 3762   4.904   0.515   8.989 -0.3621  0.6585  0.6068
  752MOL0     H 3763   4.934   0.611   9.174 -0.9018 -0.6985  0.8550
  752MOL0     H 3764   4.845   0.693   9.532 -0.8518 -0.8280 -0.3747
  752MOL0     H 3765   4.932   0.634   9.396 -1.9845 -3.3769  1.9568
  752MOL0     H 3766   4.834   0.909   9.467  0.2514  1.9979 -1.2235
  752MOL0     H 3767   4.891   0.896   9.294 -0.2395 -0.0695 -0.1582
  752MOL0     H 3768   5.070   0.846   9.542 -0.7936  1.3932  0.6782
  752MOL0     H 3769   5.130   0.855   9.390 -0.2966 -3.9380  2.1191
  752MOL0     H 3770   5.065   1.104   9.369  3.0355 -0.0452 -1.6041
  752MOL0     H 3771   5.192   1.053   9.468  1.0085 -0.7779 -2.2447
  752MOL0     H 3772   4.922   1.203   9.745  3.6200  2.3902 -1.0627
  752MOL0     H 3773   4.519   0.592   9.260 -2.7092 -4.1004 -2.4134
  752MOL0     H 3774   4.373   0.452   9.148  0.7633  2.1969 -0.6519
  752MOL0     H 3775   4.399   0.532   8.990 -0.6941  1.6611  2.1619
  752MOL0     H 3776   4.416   0.357   9.007 -0.6583  0.6513 -3.1810
  753MOL0     O 3777   6.247   9.832   7.082 -0.3491 -0.3776  0.0498
  753MOL0     C 3778   6.220   9.738   7.010 -0.5551  0.3405 -1.1590
  753MOL0     O 3779   6.309   9.635   6.978  1.4065  0.3145 -0.5967
  753MOL0     C 3780   6.435   9.651   7.031 -0.5280  0.0041 -0.7435
  753MOL0     C 3781   6.471   9.637   7.168 -0.1996  0.6081  0.7348
  753MOL0     C 3782   6.609   9.629   7.213 -0.3278 -0.6202  0.1750
  753MOL0     C 3783   6.718   9.645   7.130 -0.2110  0.3509  0.2501
  753MOL0     O 3784   6.839   9.625   7.188  0.0683 -0.5618  0.5859
  753MOL0     C 3785   6.895   9.712   7.289  0.0792  0.0905 -0.0839
  753MOL0     C 3786   7.011   9.633   7.368 -0.0517 -0.5530  0.0464
  753MOL0     C 3787   6.942   9.532   7.457  0.4055  0.2815 -0.3401
  753MOL0     C 3788   7.043   9.453   7.538 -0.7839  0.2152  0.9107
  753MOL0     C 3789   7.035   9.487   7.686  0.1937 -0.4920 -0.6689
  753MOL0     C 3790   7.166   9.445   7.765  0.1748 -0.0322 -0.4522
  753MOL0     C 3791   7.175   9.477   7.913  0.1257  0.5958  0.6162
  753MOL0     C 3792   7.194   9.631   7.938 -0.2896 -0.6957  0.0677
  753MOL0     N 3793   7.213   9.663   8.081 -0.2053  0.3001 -0.5657
  753MOL0     C 3794   7.107   9.665   8.167 -0.1515 -0.6460 -0.1875
  753MOL0     C 3795   7.176   9.696   8.283  0.1543  0.0179  0.0705
  753MOL0     C 3796   7.119   9.694   8.419 -0.0190  0.5811  0.0157
  753MOL0     C 3797   7.172   9.570   8.492  0.1953 -0.6778  0.7418
  753MOL0     C 3798   7.151   9.437   8.428 -0.0113 -0.3024 -0.7595
  753MOL0     C 3799   7.006   9.388   8.410 -0.0778  0.0221  1.1136
  753MOL0     O 3800   6.929   9.345   8.522  0.1985  0.2575  0.0629
  753MOL0     C 3801   6.954   9.230   8.593  0.4097 -0.7010  1.2602
  753MOL0     C 3802   6.909   9.233   8.723  0.5391  0.2600 -0.2549
  753MOL0     C 3803   6.922   9.120   8.811 -0.8381 -0.4238 -0.2333
  753MOL0     C 3804   6.851   9.114   8.948 -0.2006  0.5088 -0.6378
  753MOL0     C 3805   6.983   9.006   8.757 -0.1520  0.4581  0.6711
  753MOL0     C 3806   7.007   8.872   8.832  1.0904 -0.1601  0.3592
  753MOL0     O 3807   7.008   8.878   8.967  0.2289 -0.2571  0.4442
  753MOL0     C 3808   7.038   8.771   9.049 -0.5083  0.1480  1.1482
  753MOL0     C 3809   6.971   8.754   9.168 -0.5995  0.4351  0.3225
  753MOL0     C 3810   7.007   8.651   9.252 -0.1827 -0.0032 -0.7183
  753MOL0     C 3811   7.120   8.566   9.222 -0.2890 -0.3881  0.5552
  753MOL0     O 3812   7.169   8.469   9.299  0.0020  0.1618 -0.3068
  753MOL0     C 3813   7.214   8.514   9.428 -0.6333 -1.5543  0.3750
  753MOL0     C 3814   7.216   8.395   9.515 -0.2228  0.1891 -0.0252
  753MOL0     C 3815   7.072   8.386   9.574 -0.1362 -0.3549  0.0498
  753MOL0     C 3816   7.075   8.257   9.645 -0.1104 -0.3774  0.7354
  753MOL0     C 3817   6.968   8.246   9.754  0.3531  0.6211 -0.1075
  753MOL0     C 3818   6.830   8.276   9.713  0.3168 -0.4436  0.1561
  753MOL0     C 3819   6.724   8.217   9.811  0.2728 -1.0715 -0.1901
  753MOL0     C 3820   6.724   8.248   9.967  0.3007  0.2102  0.4175
  753MOL0    Cl 3821   6.652   8.403  10.017  0.3337 -0.0237  0.3291
  753MOL0     C 3822   7.186   8.595   9.104 -0.7603 -0.2152 -1.0871
  753MOL0     C 3823   7.148   8.696   9.021  0.0705 -0.4254  0.0218
  753MOL0     O 3824   7.006   8.772   8.765 -0.1312 -0.1561  0.5362
  753MOL0     C 3825   7.024   8.998   8.620 -0.1696 -0.4689 -0.5806
  753MOL0     C 3826   7.020   9.118   8.539  0.3771  0.2791 -0.4918
  753MOL0     N 3827   7.305   9.732   8.254  0.2569  0.2060 -0.2105
  753MOL0     N 3828   7.338   9.699   8.129  0.4101  0.1515 -0.1172
  753MOL0     C 3829   6.683   9.662   6.989  0.1305  0.1734  0.7856
  753MOL0     C 3830   6.551   9.663   6.943 -0.2269 -1.2710  0.6456
  753MOL0     C 3831   6.082   9.727   6.955  0.3075 -0.0187 -0.7477
  753MOL0     C 3832   5.974   9.683   7.036  0.6810  0.1288  0.2049
  753MOL0     C 3833   5.848   9.665   6.971  0.1173 -0.2381  0.3653
  753MOL0     C 3834   5.829   9.681   6.834  0.1228  0.4715 -0.6566
  753MOL0     O 3835   5.707   9.667   6.778 -0.1055 -0.4761  0.2024
  753MOL0     C 3836   5.607   9.756   6.828 -0.5970  0.0274 -0.4818
  753MOL0     C 3837   5.495   9.781   6.724  0.5249  0.2149  0.3733
  753MOL0     C 3838   5.431   9.922   6.757  0.0019 -0.8458 -0.5337
  753MOL0     C 3839   5.305   9.949   6.681 -0.0968  0.0392 -0.7281
  753MOL0     C 3840   5.208   9.844   6.700 -0.7880  0.7512  0.0922
  753MOL0     C 3841   5.135   9.749   6.703  0.2390 -0.2144  0.1527
  753MOL0     C 3842   5.939   9.707   6.754  0.5308  0.5577  0.6545
  753MOL0     C 3843   6.065   9.729   6.812 -0.4320  0.6012 -0.0368
  753MOL0     C 3844   6.176   9.757   6.719 -0.4524 -0.4514  0.0519
  753MOL0     H 3845   6.387   9.622   7.236 -0.9434 -4.7679 -0.8891
  753MOL0     H 3846   6.629   9.610   7.318 -0.1375 -2.1048 -0.1107
  753MOL0     H 3847   6.818   9.743   7.360  2.1327 -2.4136  3.5776
  753MOL0     H 3848   6.951   9.793   7.241 -0.1898 -0.3641 -1.2161
  753MOL0     H 3849   7.060   9.573   7.290 -1.8337 -2.3891  0.2495
  753MOL0     H 3850   7.074   9.708   7.417 -1.0928  1.8186 -2.0081
  753MOL0     H 3851   6.871   9.578   7.527 -0.0712 -0.7773 -0.1186
  753MOL0     H 3852   6.883   9.467   7.393  0.9816  0.9576 -1.5933
  753MOL0     H 3853   7.032   9.344   7.536 -1.3923  0.2126  2.8391
  753MOL0     H 3854   7.144   9.476   7.501 -1.2339  0.8143  0.0169
  753MOL0     H 3855   6.946   9.434   7.722 -0.9126  1.7952  0.1231
  753MOL0     H 3856   7.016   9.591   7.711  1.5169 -0.7193  1.5002
  753MOL0     H 3857   7.191   9.339   7.758  2.7587  0.1058  3.3382
  753MOL0     H 3858   7.241   9.498   7.706 -0.2094  1.1449  0.0955
  753MOL0     H 3859   7.251   9.415   7.960  0.1064  1.7511  2.2446
  753MOL0     H 3860   7.079   9.443   7.954 -0.1585  0.9311  0.2411
  753MOL0     H 3861   7.279   9.670   7.881 -0.4799  2.4404  1.7236
  753MOL0     H 3862   7.107   9.687   7.903 -0.2837 -0.9657 -0.3812
  753MOL0     H 3863   7.004   9.642   8.143  0.2137 -1.3169 -1.1653
  753MOL0     H 3864   7.010   9.703   8.407  0.2684  2.8732 -1.5759
  753MOL0     H 3865   7.155   9.787   8.465  2.5792 -0.1194 -0.4529
  753MOL0     H 3866   7.280   9.586   8.503  0.5770  1.2978 -3.6313
  753MOL0     H 3867   7.123   9.573   8.589  0.0784 -0.1858  0.6747
  753MOL0     H 3868   7.205   9.434   8.333 -1.6121 -0.1003 -1.7002
  753MOL0     H 3869   7.198   9.365   8.495 -1.2854 -0.0392  0.4660
  753MOL0     H 3870   6.961   9.482   8.376 -1.6503 -0.6931  1.1352
  753MOL0     H 3871   7.000   9.315   8.328 -1.5619  1.9761 -0.6211
  753MOL0     H 3872   6.861   9.323   8.761  0.6015  0.8969 -1.6226
  753MOL0     H 3873   6.913   9.112   9.039  1.1731  0.6922 -1.5422
  753MOL0     H 3874   6.774   9.036   8.941 -0.8815  1.0174  0.7576
  753MOL0     H 3875   6.772   9.186   8.971 -3.4267 -3.2895  1.4865
  753MOL0     H 3876   6.890   8.824   9.185 -1.0743 -0.3713  1.5528
  753MOL0     H 3877   6.953   8.627   9.343 -0.0345  2.3650  0.0629
  753MOL0     H 3878   7.317   8.548   9.429 -1.0355 -0.2342  2.1752
  753MOL0     H 3879   7.149   8.593   9.466 -0.6925  0.5690 -3.6433
  753MOL0     H 3880   7.250   8.309   9.456 -1.9977 -1.5963  1.4088
  753MOL0     H 3881   7.295   8.414   9.588  1.8970  0.1914 -2.1946
  753MOL0     H 3882   7.001   8.371   9.492  1.5933 -1.9824 -1.2268
  753MOL0     H 3883   7.062   8.469   9.643 -3.0039 -0.1926 -0.4198
  753MOL0     H 3884   7.170   8.245   9.697 -1.1330  2.8631  3.7618
  753MOL0     H 3885   7.066   8.172   9.576  2.4938 -0.3681  0.2729
  753MOL0     H 3886   6.960   8.144   9.793 -2.3239  0.9083  0.2696
  753MOL0     H 3887   6.992   8.300   9.845  0.1344 -3.3111  2.5346
  753MOL0     H 3888   6.806   8.226   9.619 -3.3662  0.7593  0.2793
  753MOL0     H 3889   6.813   8.383   9.700 -1.4174 -0.8430 -1.2971
  753MOL0     H 3890   6.740   8.109   9.800 -0.1292 -1.0399 -1.2149
  753MOL0     H 3891   6.624   8.245   9.776  1.4670  4.0808 -0.2100
  753MOL0     H 3892   6.826   8.227  10.002 -0.9272 -3.2250  2.4501
  753MOL0     H 3893   6.664   8.168  10.011 -1.9058  0.7171 -1.4946
  753MOL0     H 3894   7.260   8.517   9.088  0.9651  0.2451  3.2030
  753MOL0     H 3895   7.205   8.712   8.930 -3.3896 -1.7560 -2.6528
  753MOL0     H 3896   7.081   8.913   8.583  1.4865  0.3550  0.0022
  753MOL0     H 3897   7.073   9.118   8.445  1.6868 -3.4244  0.0590
  753MOL0     H 3898   6.756   9.668   6.909 -0.6178  1.4719  0.1662
  753MOL0     H 3899   6.524   9.667   6.838 -0.4672 -0.8053  0.7231
  753MOL0     H 3900   6.003   9.659   7.138  1.7359 -2.4256 -0.5987
  753MOL0     H 3901   5.763   9.634   7.032  0.1445 -2.9499 -0.8104
  753MOL0     H 3902   5.553   9.710   6.912  0.9130  0.0789  0.5532
  753MOL0     H 3903   5.643   9.854   6.862 -0.2064 -0.5241  0.7740
  753MOL0     H 3904   5.436   9.689   6.723 -0.6053  0.8402  2.9651
  753MOL0     H 3905   5.546   9.789   6.627 -3.5443  2.4958 -1.8815
  753MOL0     H 3906   5.404   9.936   6.862 -0.1547  2.7533 -0.9355
  753MOL0     H 3907   5.500  10.005   6.737 -0.5734 -0.5517 -1.3435
  753MOL0     H 3908   5.330   9.953   6.575 -0.9979  0.8817 -0.9231
  753MOL0     H 3909   5.256  10.042   6.712  0.4073  0.1013 -0.1130
  753MOL0     H 3910   5.060   9.673   6.691 -0.4087  0.4830 -0.3151
  753MOL0     H 3911   5.940   9.696   6.646  2.0510  0.2697  0.6762
  753MOL0     H 3912   6.271   9.786   6.765  0.7981 -1.6111 -1.6704
  753MOL0     H 3913   6.194   9.676   6.647 -2.6534  0.3775 -1.5546
  753MOL0     H 3914   6.145   9.846   6.663  5.5228  1.6193 -0.7254
  754MOL0     O 3915   6.798   7.690   6.141  0.0938 -0.0568  0.1282
  754MOL0     C 3916   6.816   7.648   6.256 -0.4497  0.2914 -0.0582
  754MOL0     O 3917   6.928   7.587   6.295  0.1490 -1.0872 -0.1934
  754MOL0     C 3918   7.049   7.586   6.229  0.7290  0.1992 -1.0170
  754MOL0     C 3919   7.071   7.622   6.100 -0.7178  0.2023  0.6812
  754MOL0     C 3920   7.203   7.635   6.052 -0.7144 -0.3214 -0.1197
  754MOL0     C 3921   7.310   7.604   6.139  0.0857  0.4364  0.2456
  754MOL0     O 3922   7.444   7.616   6.102  0.2586  1.1184 -0.6866
  754MOL0     C 3923   7.469   7.689   5.980  0.7733  0.0400 -0.4909
  754MOL0     C 3924   7.627   7.700   5.962 -0.5093 -0.9085 -0.5909
  754MOL0     C 3925   7.725   7.690   6.086 -0.6880  0.0654  0.4644
  754MOL0     C 3926   7.699   7.811   6.180  0.1110 -0.4384  0.2260
  754MOL0     C 3927   7.781   7.808   6.304 -0.2091  0.5604  0.8941
  754MOL0     C 3928   7.755   7.935   6.385  1.0576 -0.7997 -0.3088
  754MOL0     C 3929   7.856   7.949   6.499 -0.0258  0.4960 -0.3169
  754MOL0     C 3930   7.855   7.836   6.604 -0.3508 -0.5277 -1.0872
  754MOL0     N 3931   7.969   7.841   6.699 -0.0704  0.7056  0.7333
  754MOL0     C 3932   7.968   7.909   6.820 -0.1973 -0.6294 -0.4849
  754MOL0     C 3933   8.096   7.906   6.866 -1.1075 -0.2400 -0.9011
  754MOL0     C 3934   8.155   7.968   6.984  0.4139 -0.7720  0.0683
  754MOL0     C 3935   8.182   8.121   6.961 -0.7781 -0.5800  0.1746
  754MOL0     C 3936   8.315   8.152   6.894 -1.0317  0.0166 -0.4971
  754MOL0     C 3937   8.444   8.124   6.978 -0.3706 -0.1058  0.1899
  754MOL0     O 3938   8.438   8.204   7.095  0.0354  0.0946  0.1497
  754MOL0     C 3939   8.553   8.245   7.148 -0.0012  0.3530 -0.1523
  754MOL0     C 3940   8.551   8.355   7.233  0.2657  0.8033 -0.5729
  754MOL0     C 3941   8.669   8.410   7.293 -0.3351 -0.1925 -0.2965
  754MOL0     C 3942   8.668   8.524   7.399 -0.9318 -0.1814 -0.0616
  754MOL0     C 3943   8.792   8.343   7.272 -0.3688  0.8338 -0.0711
  754MOL0     C 3944   8.907   8.376   7.350  0.9045  0.1521  1.4346
  754MOL0     O 3945   8.953   8.269   7.418 -0.0997  0.2475  0.3823
  754MOL0     C 3946   9.082   8.268   7.474  0.1375 -0.2757 -0.2660
  754MOL0     C 3947   9.200   8.299   7.399 -0.4514  0.0777  0.2903
  754MOL0     C 3948   9.329   8.300   7.452  0.0264 -0.6421 -1.1972
  754MOL0     C 3949   9.350   8.277   7.596 -1.0079 -0.8678 -0.0619
  754MOL0     O 3950   9.486   8.276   7.631  0.1136  0.2599  0.2322
  754MOL0     C 3951   9.522   8.327   7.767  0.0445 -0.7160  0.0481
  754MOL0     C 3952   9.672   8.340   7.797 -0.1368  0.6054  0.0107
  754MOL0     C 3953   9.733   8.429   7.683 -0.0343 -1.1387 -0.5887
  754MOL0     C 3954   9.866   8.487   7.718 -1.0123 -0.8982  0.2246
  754MOL0     C 3955   9.969   8.371   7.743 -0.4859 -0.2735  0.0058
  754MOL0     C 3956  10.111   8.406   7.729  0.3932  0.2037  0.2244
  754MOL0     C 3957  10.208   8.292   7.727  0.2740  0.0330 -0.3075
  754MOL0     C 3958  10.298   8.294   7.854  0.4704  0.2134  0.0258
  754MOL0    Cl 3959  10.199   8.285   8.010 -0.0608 -0.4010 -0.2749
  754MOL0     C 3960   9.236   8.236   7.665  0.7089 -0.3699 -0.3210
  754MOL0     C 3961   9.105   8.242   7.604  0.5300 -0.2871 -0.1062
  754MOL0     O 3962   8.959   8.483   7.325 -0.1140  0.2021 -0.7823
  754MOL0     C 3963   8.787   8.220   7.193  0.4187 -0.9538  0.1725
  754MOL0     C 3964   8.675   8.164   7.141  0.5027 -0.3550  0.2194
  754MOL0     N 3965   8.169   7.840   6.772 -0.9201  0.2589  0.7859
  754MOL0     N 3966   8.104   7.804   6.670 -0.0002 -0.1292 -0.1353
  754MOL0     C 3967   7.293   7.576   6.273  1.3937 -0.5718  0.1805
  754MOL0     C 3968   7.154   7.575   6.319 -0.2497 -0.0629 -0.0857
  754MOL0     C 3969   6.710   7.634   6.354  0.3158  0.3371 -0.7832
  754MOL0     C 3970   6.578   7.646   6.310  0.0016  0.1214 -0.5546
  754MOL0     C 3971   6.471   7.623   6.390  0.2848  0.2852 -0.3478
  754MOL0     C 3972   6.485   7.579   6.518 -1.3076 -0.6432 -0.7066
  754MOL0     O 3973   6.374   7.546   6.594  0.1900  1.2450  1.5294
  754MOL0     C 3974   6.244   7.606   6.562 -0.7858  0.8008 -1.1637
  754MOL0     C 3975   6.174   7.625   6.700 -1.0792  1.6285  1.0631
  754MOL0     C 3976   6.042   7.708   6.670 -0.3791 -0.1545  0.7283
  754MOL0     C 3977   5.972   7.704   6.808 -0.0350  0.2216  0.1492
  754MOL0     C 3978   5.831   7.742   6.791  0.0414 -0.3630 -0.7348
  754MOL0     C 3979   5.720   7.777   6.781 -0.3250 -0.5890  0.3253
  754MOL0     C 3980   6.610   7.581   6.576  0.0029  0.1600  0.4209
  754MOL0     C 3981   6.728   7.612   6.495 -0.1822  0.0881  0.9132
  754MOL0     C 3982   6.858   7.619   6.567  0.7816 -0.1640 -0.8900
  754MOL0     H 3983   6.995   7.641   6.025 -2.4425  0.5127  2.4112
  754MOL0     H 3984   7.217   7.661   5.948 -2.0814  1.5632  0.1314
  754MOL0     H 3985   7.420   7.786   5.994 -1.0544 -1.2504  3.2809
  754MOL0     H 3986   7.430   7.643   5.889  1.0367 -0.5603 -0.3044
  754MOL0     H 3987   7.658   7.623   5.892  2.5575 -0.0108 -0.3689
  754MOL0     H 3988   7.652   7.795   5.914  1.2532 -1.4190 -0.7371
  754MOL0     H 3989   7.711   7.591   6.132  0.4201  0.3737  1.5016
  754MOL0     H 3990   7.827   7.697   6.048 -0.5414  1.6558  1.0732
  754MOL0     H 3991   7.733   7.897   6.122 -1.0562  0.9133  1.4765
  754MOL0     H 3992   7.593   7.830   6.200  0.3426  0.7598  0.3702
  754MOL0     H 3993   7.886   7.814   6.273  0.2549 -0.7368  2.1173
  754MOL0     H 3994   7.747   7.717   6.354  0.1682 -0.0556  0.0445
  754MOL0     H 3995   7.765   8.022   6.320 -0.3777 -1.0216 -0.8455
  754MOL0     H 3996   7.650   7.943   6.415  0.0032  0.5603 -3.9484
  754MOL0     H 3997   7.836   8.036   6.562 -4.3244 -2.2906  2.7140
  754MOL0     H 3998   7.957   7.954   6.458  0.9815  0.6405  2.0050
  754MOL0     H 3999   7.754   7.822   6.643  0.5710  1.4794  2.4054
  754MOL0     H 4000   7.867   7.742   6.548 -0.4833  0.5991 -3.0887
  754MOL0     H 4001   7.880   7.946   6.872  1.8759  1.1783  2.0422
  754MOL0     H 4002   8.243   7.905   7.004  0.8842 -1.7247 -4.0249
  754MOL0     H 4003   8.088   7.952   7.068 -0.1444  1.1432  0.0473
  754MOL0     H 4004   8.106   8.169   6.900 -0.8136 -2.5875 -1.4650
  754MOL0     H 4005   8.179   8.166   7.061 -3.5472 -2.0761  0.8786
  754MOL0     H 4006   8.325   8.109   6.794 -0.6648  2.0996 -1.4054
  754MOL0     H 4007   8.323   8.258   6.868 -0.6947 -0.4441 -2.4174
  754MOL0     H 4008   8.457   8.019   7.004  1.1969  0.3201  1.2582
  754MOL0     H 4009   8.527   8.146   6.911 -0.6758 -0.9837 -0.4855
  754MOL0     H 4010   8.454   8.398   7.256  0.5021  0.6885  0.6956
  754MOL0     H 4011   8.585   8.596   7.394  0.2538  1.1800 -1.1530
  754MOL0     H 4012   8.752   8.594   7.390 -0.6049 -0.5351  0.2231
  754MOL0     H 4013   8.666   8.486   7.501 -2.7302  3.7929  1.6238
  754MOL0     H 4014   9.193   8.317   7.292 -4.7278 -1.5962  0.0853
  754MOL0     H 4015   9.420   8.318   7.395  0.4078 -0.6872 -0.6091
  754MOL0     H 4016   9.484   8.430   7.760 -0.7576 -0.9150  1.2727
  754MOL0     H 4017   9.467   8.271   7.843 -1.6797  1.3629  0.4295
  754MOL0     H 4018   9.690   8.380   7.897  2.1153  0.9732 -0.4878
  754MOL0     H 4019   9.708   8.237   7.796 -1.2887  0.1912 -0.2488
  754MOL0     H 4020   9.669   8.505   7.635  1.6654 -1.6356 -3.9563
  754MOL0     H 4021   9.754   8.358   7.603  4.1704 -0.7772 -0.0342
  754MOL0     H 4022   9.867   8.550   7.807  0.1278 -0.9308  0.2576
  754MOL0     H 4023   9.893   8.550   7.633 -0.5994  1.1647  1.7997
  754MOL0     H 4024   9.964   8.322   7.841  3.6278 -0.5720  0.2129
  754MOL0     H 4025   9.952   8.290   7.672 -0.9547  0.7752 -1.1144
  754MOL0     H 4026  10.124   8.476   7.812 -0.0564  1.6178 -0.8446
  754MOL0     H 4027  10.121   8.461   7.635  1.3671  0.1117  0.2664
  754MOL0     H 4028  10.268   8.321   7.639  1.1877  0.1692  0.3453
  754MOL0     H 4029  10.159   8.197   7.703 -0.3656  0.2266  0.2019
  754MOL0     H 4030  10.347   8.392   7.860  1.0792 -0.0262 -0.8862
  754MOL0     H 4031  10.376   8.219   7.841  1.8542  1.7837 -1.2013
  754MOL0     H 4032   9.249   8.198   7.765  0.4109  0.9896  0.2520
  754MOL0     H 4033   9.025   8.219   7.673  0.9373 -0.8584  0.1816
  754MOL0     H 4034   8.878   8.172   7.158 -1.6133 -2.5683 -3.2698
  754MOL0     H 4035   8.671   8.071   7.084  0.5220  1.0131 -2.1198
  754MOL0     H 4036   7.374   7.551   6.341 -1.1486 -1.6160  3.0782
  754MOL0     H 4037   7.133   7.535   6.418  0.1408 -1.8061 -0.6739
  754MOL0     H 4038   6.555   7.690   6.214 -2.4012  2.7448  1.0649
  754MOL0     H 4039   6.372   7.628   6.345  0.5176  1.3192 -0.7662
  754MOL0     H 4040   6.257   7.705   6.519 -1.1300  1.0723 -0.6652
  754MOL0     H 4041   6.185   7.546   6.492  1.2764 -0.2084 -2.1236
  754MOL0     H 4042   6.243   7.669   6.773  0.9656 -1.5665  1.2740
  754MOL0     H 4043   6.139   7.525   6.727 -0.1728  0.3069 -2.1916
  754MOL0     H 4044   6.073   7.803   6.627  1.3306 -0.1267  1.9218
  754MOL0     H 4045   5.981   7.669   6.588 -1.8365  2.1574  0.6496
  754MOL0     H 4046   6.017   7.781   6.871 -2.8421  0.5164  1.9827
  754MOL0     H 4047   5.985   7.607   6.855 -1.8198 -0.2855 -0.3354
  754MOL0     H 4048   5.617   7.808   6.784 -0.1049  0.0508  1.8407
  754MOL0     H 4049   6.619   7.562   6.682  3.0062 -1.1188  0.0441
  754MOL0     H 4050   6.834   7.638   6.672 -0.3386 -2.1107 -0.7467
  754MOL0     H 4051   6.912   7.526   6.550  0.9981 -0.3502  0.7124
  754MOL0     H 4052   6.911   7.704   6.522 -0.2982  0.8223 -0.3656
  755MOL0     O 4053   2.105   1.390   8.380  0.1680  0.8882 -0.3367
  755MOL0     C 4054   2.143   1.481   8.307  0.3511 -0.2895  0.7335
  755MOL0     O 4055   2.275   1.517   8.296 -0.3883 -0.0596  0.1022
  755MOL0     C 4056   2.367   1.477   8.385  0.4143 -0.5301 -1.0469
  755MOL0     C 4057   2.440   1.579   8.453  0.0203 -0.1263  0.8529
  755MOL0     C 4058   2.547   1.549   8.544 -0.0055 -0.3751  0.2730
  755MOL0     C 4059   2.575   1.415   8.563 -0.9869 -0.1079 -0.3729
  755MOL0     O 4060   2.670   1.372   8.650 -0.6404  0.3922  0.2445
  755MOL0     C 4061   2.718   1.466   8.750 -0.7306 -0.0485  0.6443
  755MOL0     C 4062   2.827   1.394   8.834  0.7090 -0.2240 -0.7005
  755MOL0     C 4063   2.952   1.336   8.761 -0.1630 -1.0828 -1.0250
  755MOL0     C 4064   3.081   1.362   8.842  0.2519 -0.6322  1.4068
  755MOL0     C 4065   3.208   1.320   8.778 -0.4991  0.1594  0.5640
  755MOL0     C 4066   3.329   1.365   8.847  0.8279 -0.2451  1.2174
  755MOL0     C 4067   3.453   1.296   8.802  0.8487  0.5835 -0.7894
  755MOL0     C 4068   3.513   1.209   8.913 -0.2501  0.1125  0.3768
  755MOL0     N 4069   3.558   1.272   9.034 -0.3167 -1.5693 -0.0052
  755MOL0     C 4070   3.606   1.399   9.043  0.3826  0.5892  0.4523
  755MOL0     C 4071   3.687   1.400   9.157  0.5531  0.2954 -0.2010
  755MOL0     C 4072   3.777   1.522   9.201  0.3032 -0.3353 -0.2881
  755MOL0     C 4073   3.881   1.545   9.092 -0.1049  0.1103 -0.6169
  755MOL0     C 4074   3.985   1.431   9.086 -0.1554  0.0272  1.0598
  755MOL0     C 4075   4.124   1.485   9.045  1.0456  0.1933  0.3070
  755MOL0     O 4076   4.187   1.553   9.156 -0.6271  0.0067  0.3025
  755MOL0     C 4077   4.310   1.600   9.113  0.1949  0.5170 -0.3486
  755MOL0     C 4078   4.374   1.675   9.213 -0.0308 -0.6916 -0.3200
  755MOL0     C 4079   4.500   1.723   9.209 -0.2277  0.1057  0.0749
  755MOL0     C 4080   4.552   1.792   9.330  0.4344  0.6496  0.4777
  755MOL0     C 4081   4.570   1.706   9.087  0.2785 -1.1928 -0.4469
  755MOL0     C 4082   4.698   1.773   9.066 -0.8930  0.4088  0.3108
  755MOL0     O 4083   4.754   1.855   9.156  0.1695 -0.0485 -0.0490
  755MOL0     C 4084   4.884   1.898   9.158 -0.0261  0.3882 -0.0152
  755MOL0     C 4085   4.954   1.954   9.049 -0.2047 -0.3555  0.3550
  755MOL0     C 4086   5.071   2.022   9.064 -1.0272 -0.2807  0.6952
  755MOL0     C 4087   5.121   2.041   9.201  0.2169  0.0963  0.3535
  755MOL0     O 4088   5.232   2.120   9.222 -0.3717  0.4742  0.3612
  755MOL0     C 4089   5.284   2.221   9.128  0.8309  0.4867  0.0891
  755MOL0     C 4090   5.390   2.297   9.198 -0.4999  0.4367  0.2691
  755MOL0     C 4091   5.447   2.411   9.096 -0.4698  0.2377 -0.0475
  755MOL0     C 4092   5.580   2.462   9.155  0.0060  0.7242 -0.1001
  755MOL0     C 4093   5.620   2.610   9.110  0.0807 -1.1834 -0.0990
  755MOL0     C 4094   5.731   2.677   9.189  0.0224 -0.0630  0.0572
  755MOL0     C 4095   5.755   2.825   9.134 -0.1120  0.7223  0.2962
  755MOL0     C 4096   5.805   2.912   9.248  0.6923  0.1431  0.4501
  755MOL0    Cl 4097   5.913   3.040   9.176 -0.2680 -0.0567  0.0185
  755MOL0     C 4098   5.057   1.981   9.310  0.5034  0.4491  0.3110
  755MOL0     C 4099   4.937   1.906   9.288 -0.0126  0.6089 -0.6584
  755MOL0     O 4100   4.749   1.740   8.963 -0.7436 -0.6829  0.1125
  755MOL0     C 4101   4.501   1.641   8.981 -0.2305 -1.2881 -0.0600
  755MOL0     C 4102   4.365   1.600   8.984  0.6700  0.0953  0.3684
  755MOL0     N 4103   3.670   1.275   9.222  0.0282  0.9256  0.6011
  755MOL0     N 4104   3.600   1.202   9.143 -0.5592  0.3041  1.0091
  755MOL0     C 4105   2.515   1.315   8.486 -0.5250  0.0286 -0.1122
  755MOL0     C 4106   2.411   1.349   8.395 -0.1514 -0.0197  0.2677
  755MOL0     C 4107   2.060   1.550   8.207  0.0364  0.5812 -0.0068
  755MOL0     C 4108   2.108   1.655   8.126  0.1297  0.7141 -0.7582
  755MOL0     C 4109   2.040   1.683   8.008  0.3255 -0.0133  0.1189
  755MOL0     C 4110   1.912   1.643   7.981 -0.4158 -0.3557 -0.5897
  755MOL0     O 4111   1.847   1.685   7.867  0.7758 -0.2607 -0.1022
  755MOL0     C 4112   1.875   1.610   7.740  0.5802  0.9675 -0.8235
  755MOL0     C 4113   1.950   1.689   7.629  0.6922 -0.7941 -0.1936
  755MOL0     C 4114   1.865   1.802   7.566 -0.2349 -0.6082  0.1794
  755MOL0     C 4115   1.806   1.913   7.657  0.5055 -0.5721 -0.2423
  755MOL0     C 4116   1.910   1.975   7.739  1.1475 -0.6953 -0.5956
  755MOL0     C 4117   1.978   2.028   7.819 -0.6685 -0.4883  0.8527
  755MOL0     C 4118   1.853   1.563   8.072  0.1714 -0.7345 -0.8074
  755MOL0     C 4119   1.926   1.522   8.186  0.4302 -0.8327  1.1311
  755MOL0     C 4120   1.842   1.440   8.290 -0.5616 -0.6715 -0.7629
  755MOL0     H 4121   2.435   1.683   8.423 -1.2505 -0.5241 -0.3942
  755MOL0     H 4122   2.594   1.632   8.595  1.5960  0.3985 -2.2729
  755MOL0     H 4123   2.645   1.515   8.815  0.9553  3.4240  0.1422
  755MOL0     H 4124   2.781   1.531   8.689 -1.4391 -1.7505 -2.0871
  755MOL0     H 4125   2.864   1.466   8.909  0.6221 -0.0285 -0.8448
  755MOL0     H 4126   2.781   1.310   8.886 -1.0613  2.0929  1.7772
  755MOL0     H 4127   2.936   1.228   8.754  1.3549 -1.4557  0.4963
  755MOL0     H 4128   2.956   1.396   8.670  1.0431  1.8680  0.8200
  755MOL0     H 4129   3.081   1.470   8.861  2.4883 -0.4965  0.9575
  755MOL0     H 4130   3.074   1.311   8.939  0.0707 -0.4434  1.4941
  755MOL0     H 4131   3.196   1.378   8.686 -5.6469 -1.3327 -0.0158
  755MOL0     H 4132   3.201   1.211   8.771 -2.5364  0.1694  1.5588
  755MOL0     H 4133   3.332   1.474   8.838 -0.9070 -0.3362 -2.1771
  755MOL0     H 4134   3.315   1.333   8.950  2.3839 -0.3098  1.4357
  755MOL0     H 4135   3.523   1.374   8.773 -0.4376  3.2422  2.5963
  755MOL0     H 4136   3.438   1.232   8.714 -2.2453  0.6911 -0.4752
  755MOL0     H 4137   3.438   1.133   8.938 -1.1097  0.4123 -1.1504
  755MOL0     H 4138   3.603   1.160   8.874 -0.4074  2.1753 -2.9640
  755MOL0     H 4139   3.599   1.484   8.976 -0.6799  1.4378  1.6022
  755MOL0     H 4140   3.829   1.487   9.291  2.0883 -1.9703 -1.8619
  755MOL0     H 4141   3.717   1.605   9.238  0.4975 -1.7007  3.5862
  755MOL0     H 4142   3.836   1.572   8.996 -1.7521 -0.4448 -0.0427
  755MOL0     H 4143   3.949   1.621   9.129  1.2473 -1.5548  0.4826
  755MOL0     H 4144   3.989   1.378   9.181 -0.3308  1.9319  2.1773
  755MOL0     H 4145   3.948   1.368   9.005  0.3103  1.7411 -0.5600
  755MOL0     H 4146   4.188   1.403   9.010  1.2938  1.3785 -2.2598
  755MOL0     H 4147   4.106   1.548   8.958  1.6346 -0.9798 -0.7064
  755MOL0     H 4148   4.321   1.676   9.308 -2.3257 -2.2587 -1.4855
  755MOL0     H 4149   4.507   1.759   9.425  0.6403 -0.3996  0.2302
  755MOL0     H 4150   4.528   1.898   9.322 -1.1131  0.2182 -1.2853
  755MOL0     H 4151   4.657   1.772   9.351  0.4673  0.5964  0.2606
  755MOL0     H 4152   4.900   1.942   8.956  0.2199  1.3618 -0.1380
  755MOL0     H 4153   5.110   2.084   8.984 -1.2636 -1.2815 -0.2114
  755MOL0     H 4154   5.332   2.166   9.046  1.1366  0.0882  0.5265
  755MOL0     H 4155   5.208   2.294   9.099  0.7950 -0.2476 -1.7962
  755MOL0     H 4156   5.351   2.341   9.290 -1.0918 -0.1011  0.2791
  755MOL0     H 4157   5.472   2.227   9.217  1.3790  2.5193  0.2241
  755MOL0     H 4158   5.370   2.488   9.100  0.7547  1.4531  0.5623
  755MOL0     H 4159   5.468   2.367   8.998  0.9848  1.6435 -0.3945
  755MOL0     H 4160   5.660   2.390   9.135  0.6416  0.9304  1.5751
  755MOL0     H 4161   5.560   2.460   9.262 -1.9346 -2.1212 -0.3961
  755MOL0     H 4162   5.632   2.601   9.001  1.9096  1.2779 -0.1845
  755MOL0     H 4163   5.535   2.677   9.125 -0.1563 -1.3680 -0.5894
  755MOL0     H 4164   5.820   2.615   9.178 -0.6622 -0.9384 -0.6952
  755MOL0     H 4165   5.697   2.690   9.292 -1.7445 -0.7788 -0.4007
  755MOL0     H 4166   5.668   2.879   9.097 -0.8990 -1.7234 -1.7525
  755MOL0     H 4167   5.832   2.812   9.057 -1.4316 -2.9283 -0.6500
  755MOL0     H 4168   5.869   2.866   9.324 -0.9057  1.1699  2.5117
  755MOL0     H 4169   5.717   2.953   9.299 -0.0326  0.7574 -1.2219
  755MOL0     H 4170   5.095   2.002   9.410  0.0214  1.4477  0.3032
  755MOL0     H 4171   4.882   1.870   9.375  1.5663  0.7553  0.4509
  755MOL0     H 4172   4.565   1.631   8.894  2.2115 -3.5455  1.8284
  755MOL0     H 4173   4.310   1.552   8.903  0.3402  0.2586  0.4949
  755MOL0     H 4174   2.555   1.215   8.496 -3.4087 -1.0332  2.3918
  755MOL0     H 4175   2.367   1.285   8.319  0.6851  3.2902 -3.4004
  755MOL0     H 4176   2.208   1.694   8.143  0.0747 -0.2627  2.5664
  755MOL0     H 4177   2.085   1.754   7.939 -0.2642 -2.0696 -2.5495
  755MOL0     H 4178   1.915   1.510   7.758  1.5031  1.3545 -0.6780
  755MOL0     H 4179   1.775   1.576   7.711  1.1932 -1.3203 -0.4253
  755MOL0     H 4180   1.985   1.620   7.552  1.9946  0.2231 -0.5465
  755MOL0     H 4181   2.031   1.738   7.683  0.4545 -1.0618  0.4132
  755MOL0     H 4182   1.923   1.855   7.490  1.1562 -1.2017  0.7947
  755MOL0     H 4183   1.780   1.749   7.521 -0.1748  0.1482 -0.8710
  755MOL0     H 4184   1.732   1.860   7.718  1.1135 -1.2341 -0.0760
  755MOL0     H 4185   1.754   1.994   7.605 -1.7177 -0.2509  2.2652
  755MOL0     H 4186   2.040   2.069   7.896 -4.2162  1.1116  3.1122
  755MOL0     H 4187   1.752   1.525   8.058 -1.5732  3.0181  0.2143
  755MOL0     H 4188   1.848   1.331   8.281 -1.1610 -1.0658  2.3972
  755MOL0     H 4189   1.874   1.465   8.391 -1.8229 -1.0688 -0.2454
  755MOL0     H 4190   1.734   1.460   8.293 -0.4869 -0.3373  1.1200
  756MOL0     O 4191   0.668   6.167   3.025 -0.5266 -0.4577  0.1478
  756MOL0     C 4192   0.659   6.067   3.096  0.4470 -0.4414 -0.3617
  756MOL0     O 4193   0.596   6.047   3.220  0.0245  0.5301  0.0853
  756MOL0     C 4194   0.539   6.157   3.269  1.2281  0.2259 -0.9304
  756MOL0     C 4195   0.400   6.187   3.285  0.0307  0.5415  0.3874
  756MOL0     C 4196   0.364   6.311   3.341  0.3259  0.7158 -1.6137
  756MOL0     C 4197   0.458   6.391   3.402  0.0532 -0.5898 -0.6063
  756MOL0     O 4198   0.438   6.500   3.490  0.3476 -0.0477 -0.1632
  756MOL0     C 4199   0.324   6.481   3.584 -0.6000 -0.2834 -0.1408
  756MOL0     C 4200   0.188   6.543   3.529 -1.2463  0.3139 -0.1116
  756MOL0     C 4201   0.201   6.686   3.498 -0.1503 -0.3250  0.1987
  756MOL0     C 4202   0.196   6.723   3.350 -0.3304 -0.2404 -0.0864
  756MOL0     C 4203   0.171   6.865   3.318  0.5829  0.6404  0.5488
  756MOL0     C 4204   0.276   6.968   3.364 -0.2038 -0.7780 -0.4640
  756MOL0     C 4205   0.241   7.053   3.488 -0.6977  0.5517  0.0064
  756MOL0     C 4206   0.369   7.118   3.545  0.7886  0.5254 -1.4010
  756MOL0     N 4207   0.407   7.224   3.450 -0.8328  0.5645  0.6853
  756MOL0     C 4208   0.378   7.356   3.456  0.4571 -0.6215  0.4665
  756MOL0     C 4209   0.421   7.419   3.347  0.2704  0.5232 -0.2943
  756MOL0     C 4210   0.418   7.565   3.320 -1.2773 -1.0592  0.0356
  756MOL0     C 4211   0.429   7.594   3.172  0.0312  0.6736  0.6912
  756MOL0     C 4212   0.316   7.528   3.085  0.8228 -0.4120 -0.3181
  756MOL0     C 4213   0.291   7.605   2.953 -0.1360  0.3599 -0.0352
  756MOL0     O 4214   0.255   7.736   2.973  0.3942  0.2108 -0.1733
  756MOL0     C 4215   0.178   7.814   2.890  0.4110  0.0867  1.2521
  756MOL0     C 4216   0.172   7.945   2.932  0.4112 -0.2921  0.2591
  756MOL0     C 4217   0.117   8.051   2.854 -0.4041  0.1660  0.4763
  756MOL0     C 4218   0.115   8.190   2.911  0.3722  0.1118 -0.1792
  756MOL0     C 4219   0.056   8.007   2.733 -0.9721 -0.1178  0.5664
  756MOL0     C 4220  -0.005   8.103   2.650 -0.5859 -0.4174  0.8986
  756MOL0     O 4221  -0.139   8.092   2.641  1.1305  0.2084  1.3383
  756MOL0     C 4222  -0.204   8.176   2.550 -0.1616  0.4970 -0.1876
  756MOL0     C 4223  -0.231   8.140   2.415 -0.8593 -0.2830 -0.1021
  756MOL0     C 4224  -0.304   8.224   2.333 -0.8835 -0.3556  0.6796
  756MOL0     C 4225  -0.348   8.346   2.379  0.0626 -0.3995 -0.2650
  756MOL0     O 4226  -0.409   8.449   2.303 -0.1262 -0.0589  0.8201
  756MOL0     C 4227  -0.436   8.420   2.163  0.6331  0.7132  0.9684
  756MOL0     C 4228  -0.506   8.543   2.096 -0.3639 -0.4868 -0.2236
  756MOL0     C 4229  -0.609   8.601   2.195 -0.5386 -0.2150  0.2880
  756MOL0     C 4230  -0.556   8.710   2.285 -0.2601  0.4133  0.7084
  756MOL0     C 4231  -0.632   8.743   2.418  0.7428 -0.8169  0.3705
  756MOL0     C 4232  -0.765   8.805   2.385  0.5445 -0.0175 -0.1806
  756MOL0     C 4233  -0.854   8.826   2.508 -0.4326 -0.7545 -0.2215
  756MOL0     C 4234  -0.997   8.893   2.476  0.5590  0.4791 -0.1626
  756MOL0    Cl 4235  -1.101   8.795   2.365  0.2050 -0.1695 -0.3409
  756MOL0     C 4236  -0.330   8.380   2.508  0.1150  0.4544 -1.0384
  756MOL0     C 4237  -0.264   8.290   2.598 -0.2248 -0.1707 -0.1724
  756MOL0     O 4238   0.057   8.189   2.597 -0.0286  0.4288 -0.2036
  756MOL0     C 4239   0.050   7.873   2.696  0.0359  1.0464  0.4827
  756MOL0     C 4240   0.112   7.774   2.769 -1.2325 -0.5078 -0.4288
  756MOL0     N 4241   0.481   7.328   3.271 -0.8831  1.0599  0.5844
  756MOL0     N 4242   0.472   7.210   3.328 -0.1655  0.2984  0.6140
  756MOL0     C 4243   0.597   6.361   3.393  0.7823 -0.5102  0.3198
  756MOL0     C 4244   0.636   6.247   3.320  0.1187 -0.4154 -0.2274
  756MOL0     C 4245   0.702   5.942   3.043 -0.7078 -0.1897  0.1687
  756MOL0     C 4246   0.682   5.811   3.114  0.0468 -1.2434  0.8185
  756MOL0     C 4247   0.721   5.691   3.057  0.3408 -0.3024 -1.9866
  756MOL0     C 4248   0.772   5.678   2.932  0.2732 -0.2500  1.4613
  756MOL0     O 4249   0.780   5.541   2.888  0.7446  0.3608  0.2336
  756MOL0     C 4250   0.795   5.517   2.746  0.1719 -0.2066 -0.8069
  756MOL0     C 4251   0.903   5.407   2.720 -0.2000  0.1526 -0.1056
  756MOL0     C 4252   1.038   5.474   2.728 -0.8050  0.6070 -0.0944
  756MOL0     C 4253   1.149   5.390   2.661  0.1893  0.4160 -0.9808
  756MOL0     C 4254   1.165   5.251   2.724 -0.7026 -1.2497 -0.9980
  756MOL0     C 4255   1.187   5.141   2.774  0.4715 -0.3276  0.3066
  756MOL0     C 4256   0.787   5.804   2.857 -0.2081  0.4506 -0.2376
  756MOL0     C 4257   0.771   5.929   2.918  0.2037  0.1166 -0.3386
  756MOL0     C 4258   0.836   6.043   2.851  0.5439 -0.5233 -0.1695
  756MOL0     H 4259   0.322   6.116   3.260  0.0795  0.5140  0.3120
  756MOL0     H 4260   0.264   6.345   3.364  0.9860  0.7612  1.7066
  756MOL0     H 4261   0.354   6.520   3.681  2.1273 -3.3274  0.4179
  756MOL0     H 4262   0.320   6.373   3.601 -1.0508 -0.0579  1.2816
  756MOL0     H 4263   0.148   6.495   3.440  2.7266 -1.7280 -0.9902
  756MOL0     H 4264   0.122   6.526   3.615  0.8799 -0.7873  1.3926
  756MOL0     H 4265   0.120   6.746   3.541  0.7733  0.3513  1.0579
  756MOL0     H 4266   0.292   6.723   3.546 -1.9173  1.1049  2.6884
  756MOL0     H 4267   0.288   6.702   3.295 -0.2052  0.6252 -0.2186
  756MOL0     H 4268   0.121   6.655   3.309 -0.9441 -1.0724  2.2396
  756MOL0     H 4269   0.069   6.889   3.351 -1.0000 -1.6679 -2.2035
  756MOL0     H 4270   0.166   6.864   3.209  2.2507 -1.1352  0.4492
  756MOL0     H 4271   0.374   6.924   3.385 -0.9734 -2.3120  0.0736
  756MOL0     H 4272   0.281   7.044   3.285  4.8805  0.0019  0.2888
  756MOL0     H 4273   0.187   6.990   3.559 -1.1794  0.3198 -0.5620
  756MOL0     H 4274   0.171   7.133   3.464 -0.1981  0.9002 -0.3120
  756MOL0     H 4275   0.359   7.159   3.646 -1.1448 -0.7108 -1.0445
  756MOL0     H 4276   0.450   7.045   3.551 -0.2144 -0.7343 -2.3845
  756MOL0     H 4277   0.313   7.395   3.534 -1.2416 -1.2954 -0.5471
  756MOL0     H 4278   0.506   7.608   3.368 -1.5720 -2.5979  2.0513
  756MOL0     H 4279   0.328   7.609   3.364 -1.1589 -0.4262 -0.3394
  756MOL0     H 4280   0.424   7.698   3.141  0.1713  0.0158 -1.7636
  756MOL0     H 4281   0.524   7.558   3.130 -0.5331 -1.3883  1.0470
  756MOL0     H 4282   0.337   7.421   3.071 -2.1998 -1.0352 -0.9418
  756MOL0     H 4283   0.223   7.534   3.143  2.8927 -0.1831  3.3018
  756MOL0     H 4284   0.373   7.607   2.881 -0.8693 -1.9918 -1.0387
  756MOL0     H 4285   0.209   7.552   2.902 -0.8575  3.1421 -1.9930
  756MOL0     H 4286   0.212   7.976   3.028 -4.3330  2.4584  1.6766
  756MOL0     H 4287   0.056   8.205   3.002 -0.1029  1.3822 -0.6687
  756MOL0     H 4288   0.067   8.259   2.841 -2.3440 -1.0172  0.4354
  756MOL0     H 4289   0.219   8.224   2.921  0.2128  0.2172  1.2997
  756MOL0     H 4290  -0.198   8.041   2.383 -2.1859 -1.5405  2.1528
  756MOL0     H 4291  -0.311   8.209   2.225 -0.4205  2.1567  0.2282
  756MOL0     H 4292  -0.346   8.416   2.100 -0.6309  2.2397 -1.0711
  756MOL0     H 4293  -0.488   8.325   2.147 -2.0085  1.8530  2.1807
  756MOL0     H 4294  -0.438   8.617   2.053 -3.6016  1.4843 -2.3282
  756MOL0     H 4295  -0.563   8.503   2.012 -1.7417 -2.3697  1.4726
  756MOL0     H 4296  -0.649   8.515   2.249 -0.7923 -0.3505 -0.1138
  756MOL0     H 4297  -0.691   8.650   2.142  0.4741 -0.4715 -1.6503
  756MOL0     H 4298  -0.546   8.799   2.224  0.5331  2.0563  3.0800
  756MOL0     H 4299  -0.453   8.685   2.313 -0.9498 -1.1213  2.0950
  756MOL0     H 4300  -0.638   8.654   2.481  0.2735 -0.3290  1.0377
  756MOL0     H 4301  -0.572   8.813   2.478  1.0980 -2.7157  2.3672
  756MOL0     H 4302  -0.818   8.749   2.307  1.7985 -0.8217 -0.4756
  756MOL0     H 4303  -0.751   8.902   2.337 -0.8557  0.0711 -0.4466
  756MOL0     H 4304  -0.806   8.884   2.587  1.2592 -2.9919  0.4997
  756MOL0     H 4305  -0.871   8.728   2.553 -4.4256 -1.0926 -2.0617
  756MOL0     H 4306  -0.976   8.994   2.441  1.4971  0.2288 -0.3552
  756MOL0     H 4307  -1.071   8.901   2.557 -0.1450  0.4272 -0.7887
  756MOL0     H 4308  -0.387   8.463   2.550  1.1449  1.5304 -1.7192
  756MOL0     H 4309  -0.262   8.319   2.702 -5.5268 -0.8655  0.4123
  756MOL0     H 4310   0.006   7.838   2.603  0.4326 -2.4598  1.4881
  756MOL0     H 4311   0.115   7.671   2.735 -0.7560 -1.0880  1.2804
  756MOL0     H 4312   0.677   6.419   3.437  2.2966 -1.4308 -1.0896
  756MOL0     H 4313   0.741   6.219   3.319  0.6282  1.2728 -2.6009
  756MOL0     H 4314   0.628   5.812   3.208 -3.3984  2.2195 -0.8977
  756MOL0     H 4315   0.701   5.602   3.116 -0.5268  1.1867  0.1003
  756MOL0     H 4316   0.702   5.483   2.699  1.0826  0.9270 -3.6643
  756MOL0     H 4317   0.814   5.609   2.690 -0.1120  0.0714 -0.4436
  756MOL0     H 4318   0.886   5.359   2.623 -4.8907  2.6529 -0.8028
  756MOL0     H 4319   0.891   5.334   2.801 -0.8137 -1.1544 -1.3382
  756MOL0     H 4320   1.047   5.571   2.679 -2.1078  0.9911  0.3873
  756MOL0     H 4321   1.076   5.488   2.830  0.2245 -4.4377  0.4900
  756MOL0     H 4322   1.241   5.448   2.658 -0.0611  1.1335  2.0030
  756MOL0     H 4323   1.130   5.375   2.555 -0.5793  0.8697 -0.9153
  756MOL0     H 4324   1.212   5.046   2.816  1.5763  0.4600  1.5073
  756MOL0     H 4325   0.833   5.799   2.759 -1.0870 -1.9281 -0.5872
  756MOL0     H 4326   0.880   6.112   2.924 -0.4985  0.3643 -0.3683
  756MOL0     H 4327   0.918   6.014   2.785  0.5376  0.4168 -0.6070
  756MOL0     H 4328   0.755   6.089   2.794  0.4191 -0.1743  0.2787
  757MOL0     O 4329   7.074   2.156   4.684  0.8657 -0.1391 -0.5197
  757MOL0     C 4330   7.166   2.235   4.684  0.3935  0.5970 -0.0976
  757MOL0     O 4331   7.263   2.234   4.598 -0.3868 -0.3575  0.4414
  757MOL0     C 4332   7.264   2.137   4.498 -0.8884 -0.3520 -0.2412
  757MOL0     C 4333   7.234   2.172   4.365  0.6614 -0.1053 -0.2541
  757MOL0     C 4334   7.248   2.083   4.259 -0.3691  0.0535 -0.0887
  757MOL0     C 4335   7.284   1.955   4.286  0.1968  0.0081  0.3496
  757MOL0     O 4336   7.278   1.872   4.179 -0.8108  0.5851  0.0202
  757MOL0     C 4337   7.328   1.734   4.194  0.3876  0.7788 -0.4569
  757MOL0     C 4338   7.205   1.650   4.230  0.2440  0.7887  0.3479
  757MOL0     C 4339   7.130   1.593   4.110 -0.5434 -0.0384 -0.2193
  757MOL0     C 4340   6.980   1.568   4.150  0.4094 -0.2107  0.2140
  757MOL0     C 4341   6.897   1.499   4.046 -0.1033 -0.2181 -0.3082
  757MOL0     C 4342   6.920   1.344   4.050  0.6825 -0.4554  0.0093
  757MOL0     C 4343   6.875   1.281   4.183  0.4749 -0.6034 -0.1612
  757MOL0     C 4344   6.877   1.126   4.172  0.6925  0.2325 -0.5151
  757MOL0     N 4345   6.745   1.093   4.113 -0.7489 -0.1087 -0.6577
  757MOL0     C 4346   6.621   1.125   4.173 -0.2533 -0.3058 -0.7246
  757MOL0     C 4347   6.537   1.066   4.086 -0.8413 -0.5687 -0.2979
  757MOL0     C 4348   6.384   1.074   4.093  0.3944  0.3219  0.2009
  757MOL0     C 4349   6.325   0.996   4.208 -0.1335 -0.0338 -0.2998
  757MOL0     C 4350   6.173   1.031   4.225  0.4209 -0.4981  0.0689
  757MOL0     C 4351   6.122   0.945   4.347 -0.1998 -0.1025 -0.1104
  757MOL0     O 4352   6.037   0.827   4.320 -0.2579 -0.5458  0.1562
  757MOL0     C 4353   6.102   0.730   4.245  1.2841 -0.1122  0.5928
  757MOL0     C 4354   6.201   0.657   4.306 -0.0861  0.0328  0.1986
  757MOL0     C 4355   6.275   0.545   4.244 -0.1088  0.5549 -0.5745
  757MOL0     C 4356   6.382   0.483   4.324 -0.1653  0.1442  0.8787
  757MOL0     C 4357   6.240   0.509   4.109 -0.2046 -0.3734  0.4337
  757MOL0     C 4358   6.304   0.396   4.036 -0.2130 -0.1500  0.4801
  757MOL0     O 4359   6.303   0.410   3.902 -0.0959  0.4956 -0.4860
  757MOL0     C 4360   6.352   0.305   3.826 -0.1977  0.4969  0.2407
  757MOL0     C 4361   6.470   0.325   3.760 -0.3052 -0.5522 -0.0964
  757MOL0     C 4362   6.510   0.227   3.668 -0.3889  0.7383  0.0079
  757MOL0     C 4363   6.441   0.114   3.630 -0.4975 -0.1966 -0.2439
  757MOL0     O 4364   6.494   0.028   3.532  1.1180  0.6212  0.6514
  757MOL0     C 4365   6.408  -0.081   3.482  0.7081  0.9095 -0.5050
  757MOL0     C 4366   6.291  -0.023   3.399 -0.3758  0.0469 -0.2429
  757MOL0     C 4367   6.230  -0.132   3.313  0.4081  0.4174  0.5218
  757MOL0     C 4368   6.114  -0.221   3.369  0.6145 -0.3504  0.4852
  757MOL0     C 4369   6.049  -0.293   3.252  0.7453 -0.7537 -0.2886
  757MOL0     C 4370   5.901  -0.346   3.276 -0.5382 -0.1621  0.2186
  757MOL0     C 4371   5.898  -0.459   3.382  0.0516  0.9108 -0.2512
  757MOL0     C 4372   5.827  -0.588   3.350 -0.1076  1.3875 -0.4750
  757MOL0    Cl 4373   5.662  -0.562   3.387  0.4845  0.0829 -0.1354
  757MOL0     C 4374   6.329   0.091   3.710 -0.1077 -0.0021  0.1790
  757MOL0     C 4375   6.284   0.184   3.805  0.5982  0.2730  0.3536
  757MOL0     O 4376   6.355   0.303   4.096  0.5732 -0.1983  0.5547
  757MOL0     C 4377   6.141   0.593   4.042 -0.1246 -0.3283  0.4399
  757MOL0     C 4378   6.072   0.700   4.114  0.5765 -0.5293 -0.0621
  757MOL0     N 4379   6.610   1.002   3.983  0.1686  0.1903 -0.4084
  757MOL0     N 4380   6.736   1.028   4.000 -0.5612  1.4917  0.1567
  757MOL0     C 4381   7.313   1.912   4.420 -0.8893  0.0465  0.0801
  757MOL0     C 4382   7.315   2.009   4.523  0.3332  0.4184  0.6177
  757MOL0     C 4383   7.161   2.352   4.773 -0.4816 -0.1206  0.0914
  757MOL0     C 4384   7.289   2.421   4.792 -0.6398  0.5325 -0.6724
  757MOL0     C 4385   7.297   2.527   4.879 -0.1213  0.5642 -0.0040
  757MOL0     C 4386   7.180   2.586   4.933 -0.0042  0.1835 -0.8562
  757MOL0     O 4387   7.183   2.683   5.031 -0.0729  0.0536 -0.7490
  757MOL0     C 4388   7.301   2.749   5.076 -0.7667  0.4606 -0.9156
  757MOL0     C 4389   7.268   2.834   5.194 -0.2716  0.4429 -0.1230
  757MOL0     C 4390   7.391   2.904   5.262  0.0568  0.5300  0.9567
  757MOL0     C 4391   7.365   2.988   5.379 -0.4606  0.5943 -0.9118
  757MOL0     C 4392   7.288   3.111   5.359 -0.5249 -0.2013 -0.4584
  757MOL0     C 4393   7.232   3.215   5.330  0.4191  0.2847 -0.6159
  757MOL0     C 4394   7.065   2.518   4.931  0.9998  0.1247  0.4830
  757MOL0     C 4395   7.045   2.406   4.842  0.2847 -0.4442 -0.0122
  757MOL0     C 4396   6.904   2.334   4.832 -0.5603 -0.2125  0.6786
  757MOL0     H 4397   7.192   2.270   4.345 -0.3176  0.5732  4.0704
  757MOL0     H 4398   7.234   2.118   4.157 -1.2420 -0.0799 -0.0193
  757MOL0     H 4399   7.411   1.723   4.265  0.0117  0.7522 -0.0102
  757MOL0     H 4400   7.378   1.701   4.103 -0.3494  1.8532 -1.2692
  757MOL0     H 4401   7.257   1.570   4.285  1.1557  1.2202  0.1365
  757MOL0     H 4402   7.141   1.695   4.306  1.6065  0.9116  1.4750
  757MOL0     H 4403   7.133   1.662   4.026  2.1903  1.2985  0.8483
  757MOL0     H 4404   7.190   1.505   4.087  3.3958  2.5393 -0.8051
  757MOL0     H 4405   6.967   1.517   4.246  1.6600  0.5843  0.8338
  757MOL0     H 4406   6.934   1.667   4.160 -1.3226 -1.0366  0.8457
  757MOL0     H 4407   6.921   1.527   3.943  0.3262 -2.9362 -1.0321
  757MOL0     H 4408   6.790   1.505   4.065 -0.1728  0.1327 -0.8027
  757MOL0     H 4409   6.860   1.291   3.975  1.2196  0.8553 -1.4202
  757MOL0     H 4410   7.023   1.326   4.018 -0.4002 -1.3427 -3.4233
  757MOL0     H 4411   6.780   1.322   4.221 -0.6294 -0.8032 -2.5345
  757MOL0     H 4412   6.949   1.312   4.257  0.6018  0.7799 -0.8426
  757MOL0     H 4413   6.958   1.083   4.111  1.6493 -0.3852  1.1385
  757MOL0     H 4414   6.897   1.084   4.271  1.9181  0.0357 -0.8343
  757MOL0     H 4415   6.589   1.184   4.258 -1.0362 -0.6898 -0.7398
  757MOL0     H 4416   6.341   1.037   4.000  1.1785  0.3826 -0.1900
  757MOL0     H 4417   6.350   1.178   4.101 -1.2018 -0.2273  0.9741
  757MOL0     H 4418   6.349   0.890   4.212  1.0579  0.2457  2.2940
  757MOL0     H 4419   6.381   1.043   4.290 -3.1743  2.2953  0.6218
  757MOL0     H 4420   6.169   1.137   4.252 -0.5616  1.1457 -5.3160
  757MOL0     H 4421   6.119   1.009   4.133 -0.5359 -2.7153  1.1035
  757MOL0     H 4422   6.199   0.917   4.420  0.5084 -0.6887 -1.0607
  757MOL0     H 4423   6.062   1.020   4.400  0.5406  0.7988 -0.5202
  757MOL0     H 4424   6.221   0.663   4.413  1.7131 -0.8743 -0.0373
  757MOL0     H 4425   6.452   0.453   4.245 -1.6517  0.1267 -0.4950
  757MOL0     H 4426   6.343   0.390   4.365  0.9268 -0.7430 -0.0163
  757MOL0     H 4427   6.434   0.552   4.391 -1.1018  1.3401  0.4313
  757MOL0     H 4428   6.532   0.414   3.765  0.8365 -1.3809  2.0623
  757MOL0     H 4429   6.603   0.238   3.614 -1.7620 -0.3057 -2.8137
  757MOL0     H 4430   6.472  -0.144   3.419  1.3423 -1.5175  2.3296
  757MOL0     H 4431   6.377  -0.157   3.554  2.7209  1.1867  0.7336
  757MOL0     H 4432   6.218   0.022   3.466 -0.7990  0.5575 -1.0370
  757MOL0     H 4433   6.333   0.050   3.329  2.9153 -1.0664  0.3533
  757MOL0     H 4434   6.312  -0.201   3.291  1.5015  1.9820 -0.5958
  757MOL0     H 4435   6.195  -0.088   3.219 -1.7405 -0.4885  0.8530
  757MOL0     H 4436   6.040  -0.178   3.436  1.1364 -1.4868  1.8366
  757MOL0     H 4437   6.168  -0.297   3.426  2.0237 -0.5084 -0.9857
  757MOL0     H 4438   6.046  -0.220   3.171  0.2098  2.6404  2.5109
  757MOL0     H 4439   6.100  -0.386   3.227 -1.4049 -1.6803 -1.5125
  757MOL0     H 4440   5.854  -0.384   3.185  2.2561 -0.3965 -1.2627
  757MOL0     H 4441   5.841  -0.260   3.306  2.2482  1.7638  0.7355
  757MOL0     H 4442   5.861  -0.425   3.479 -5.3433 -1.6809 -1.0027
  757MOL0     H 4443   5.998  -0.501   3.399 -0.0748  0.3397 -0.8588
  757MOL0     H 4444   5.865  -0.665   3.418 -1.3622  1.1376 -0.0312
  757MOL0     H 4445   5.848  -0.614   3.246  0.2697  1.0464 -0.3178
  757MOL0     H 4446   6.271   0.001   3.693  1.6780 -1.3457  0.9324
  757MOL0     H 4447   6.199   0.159   3.866  0.2121  1.5402  0.3670
  757MOL0     H 4448   6.106   0.579   3.940 -1.9724  0.4375  0.9275
  757MOL0     H 4449   5.993   0.746   4.055 -1.0397 -2.2353  0.6742
  757MOL0     H 4450   7.352   1.814   4.447  1.3373  2.0913  5.8330
  757MOL0     H 4451   7.348   1.969   4.619 -1.6977 -1.2894  0.6847
  757MOL0     H 4452   7.375   2.383   4.738 -1.4366 -1.6039 -0.5204
  757MOL0     H 4453   7.397   2.569   4.888  1.1454 -1.9199 -1.1621
  757MOL0     H 4454   7.376   2.673   5.103 -0.3562 -0.2737 -3.8062
  757MOL0     H 4455   7.336   2.817   4.998 -0.9738  1.2980 -0.2826
  757MOL0     H 4456   7.223   2.777   5.275  2.0099  1.8664  2.2863
  757MOL0     H 4457   7.200   2.914   5.164  0.1059  1.0809  0.7008
  757MOL0     H 4458   7.464   2.832   5.299  0.0558  0.8117  1.5199
  757MOL0     H 4459   7.450   2.956   5.186  1.3750 -1.3925  0.6089
  757MOL0     H 4460   7.459   3.030   5.415 -2.0508  4.5189 -0.8371
  757MOL0     H 4461   7.312   2.930   5.456  1.1542  0.4701  0.1457
  757MOL0     H 4462   7.192   3.302   5.282  1.8804 -0.3815 -3.2145
  757MOL0     H 4463   6.982   2.569   4.980  0.6147  0.7724 -0.7978
  757MOL0     H 4464   6.924   2.242   4.889 -2.2732 -1.4595 -0.6129
  757MOL0     H 4465   6.820   2.378   4.887 -0.4003  0.4259  0.4217
  757MOL0     H 4466   6.873   2.315   4.729  0.4811 -1.6778  0.6011
  758MOL0     O 4467   5.849   8.869   5.181  0.1610 -0.3152 -0.0203
  758MOL0     C 4468   5.734   8.912   5.177  0.3720  0.3774 -0.5010
  758MOL0     O 4469   5.683   8.995   5.269  0.4487  0.3301 -0.2605
  758MOL0     C 4470   5.725   9.017   5.401  0.5008 -0.0946 -0.1178
  758MOL0     C 4471   5.845   8.967   5.474  0.6236 -0.4260  0.2526
  758MOL0     C 4472   5.863   9.003   5.604  0.0119 -0.8593 -0.2726
  758MOL0     C 4473   5.782   9.094   5.672  0.8248 -0.8845  0.1360
  758MOL0     O 4474   5.788   9.132   5.807  0.2262  0.0622  0.3996
  758MOL0     C 4475   5.909   9.083   5.880  1.0972  0.0447  0.5388
  758MOL0     C 4476   5.910   9.147   6.015  0.2342 -1.5634  0.2234
  758MOL0     C 4477   5.978   9.278   6.017 -0.2561 -0.2617 -0.8153
  758MOL0     C 4478   5.960   9.356   6.148  0.3360 -0.1041  0.8881
  758MOL0     C 4479   6.086   9.443   6.196 -0.2709 -0.0840 -0.1230
  758MOL0     C 4480   6.048   9.521   6.315 -1.0219 -0.4204  0.2596
  758MOL0     C 4481   6.136   9.647   6.342  0.5146  1.0675  0.3096
  758MOL0     C 4482   6.281   9.627   6.381  0.1512 -0.6272 -0.7716
  758MOL0     N 4483   6.357   9.755   6.367 -0.4990 -0.0396  0.2517
  758MOL0     C 4484   6.383   9.815   6.252 -0.4971 -1.0303  0.8140
  758MOL0     C 4485   6.450   9.924   6.280 -0.7423  0.5764  0.2411
  758MOL0     C 4486   6.518  10.014   6.175  0.4971 -0.8056 -0.3507
  758MOL0     C 4487   6.626   9.936   6.109 -0.4198  0.8294  0.5648
  758MOL0     C 4488   6.738  10.032   6.068 -0.4370 -0.2633 -0.7920
  758MOL0     C 4489   6.840   9.944   5.985  0.2561 -0.7667 -0.1163
  758MOL0     O 4490   6.781   9.913   5.853  1.0011 -0.5217 -0.4376
  758MOL0     C 4491   6.825   9.804   5.778 -1.1112 -0.3086 -0.9779
  758MOL0     C 4492   6.952   9.754   5.779  0.2305  0.1944 -1.0446
  758MOL0     C 4493   6.996   9.654   5.689 -0.7383  0.8769  0.1583
  758MOL0     C 4494   7.143   9.612   5.714  0.1384  0.4418 -0.4183
  758MOL0     C 4495   6.913   9.604   5.587  0.7157  0.1398 -0.6439
  758MOL0     C 4496   6.962   9.517   5.480  0.8582  0.3976  0.7640
  758MOL0     O 4497   6.870   9.484   5.385 -0.1582  0.4561  0.5641
  758MOL0     C 4498   6.929   9.406   5.281  0.8716 -0.7383  0.3616
  758MOL0     C 4499   6.996   9.469   5.169  0.5547 -0.4295 -0.1243
  758MOL0     C 4500   7.050   9.406   5.059 -0.5275 -0.1272 -0.0194
  758MOL0     C 4501   7.033   9.264   5.050  0.8222 -1.0253 -0.1188
  758MOL0     O 4502   7.089   9.193   4.949  0.4322 -0.1012 -0.5326
  758MOL0     C 4503   7.029   9.216   4.825 -0.4763  0.0614  1.1200
  758MOL0     C 4504   6.936   9.102   4.784 -0.3520  1.0430  0.4212
  758MOL0     C 4505   7.007   8.966   4.757  0.0848 -0.5122  0.1015
  758MOL0     C 4506   6.920   8.869   4.680 -0.3586  0.3125  0.2737
  758MOL0     C 4507   6.964   8.723   4.697  0.4548 -0.5738  0.4154
  758MOL0     C 4508   7.105   8.693   4.651  0.0992  0.1748  0.2304
  758MOL0     C 4509   7.147   8.542   4.654  0.3036 -0.5057 -0.1198
  758MOL0     C 4510   7.288   8.516   4.596  0.7229 -0.9989 -0.6555
  758MOL0    Cl 4511   7.300   8.587   4.422 -0.2629  0.1461 -0.0800
  758MOL0     C 4512   6.967   9.196   5.147 -0.9159 -0.5265  0.1821
  758MOL0     C 4513   6.908   9.270   5.260 -0.2608  0.4754  0.5849
  758MOL0     O 4514   7.081   9.486   5.476 -0.7919 -0.6756  0.1213
  758MOL0     C 4515   6.783   9.666   5.589  0.3489 -0.1362  0.8757
  758MOL0     C 4516   6.732   9.754   5.684 -0.4230 -0.6199  0.3261
  758MOL0     N 4517   6.479   9.927   6.411  0.5741  1.3621  1.0196
  758MOL0     N 4518   6.421   9.825   6.470 -0.9119 -0.0082 -0.6486
  758MOL0     C 4519   5.664   9.142   5.598 -0.9694 -0.4624 -0.1436
  758MOL0     C 4520   5.634   9.101   5.466 -0.0963 -0.6156 -0.2855
  758MOL0     C 4521   5.663   8.869   5.055  1.0934 -0.6262  0.0262
  758MOL0     C 4522   5.732   8.797   4.956  0.3790 -0.0846  0.0022
  758MOL0     C 4523   5.681   8.759   4.829  0.7136 -0.3399 -1.1647
  758MOL0     C 4524   5.542   8.799   4.806  0.1838 -1.0861  0.4442
  758MOL0     O 4525   5.459   8.781   4.692 -0.0640  0.0272 -0.5638
  758MOL0     C 4526   5.514   8.706   4.584 -0.4652  0.1375  0.2292
  758MOL0     C 4527   5.602   8.800   4.510  1.0203 -0.7871  1.1970
  758MOL0     C 4528   5.669   8.733   4.394  0.4214 -0.1420 -0.1662
  758MOL0     C 4529   5.736   8.840   4.313 -0.1521 -0.7651  0.4021
  758MOL0     C 4530   5.821   8.784   4.203  0.4922 -0.7727  1.2906
  758MOL0     C 4531   5.878   8.747   4.106 -0.5513 -0.0151  0.4143
  758MOL0     C 4532   5.473   8.864   4.897  0.2996 -0.6287 -0.6734
  758MOL0     C 4533   5.527   8.900   5.022 -0.1279 -1.1910 -0.0288
  758MOL0     C 4534   5.443   8.989   5.113 -0.0511 -0.2273  0.1124
  758MOL0     H 4535   5.922   8.909   5.423  1.3232 -0.8475  1.7069
  758MOL0     H 4536   5.949   8.958   5.652 -1.0153 -0.4695  2.1117
  758MOL0     H 4537   6.003   9.096   5.825 -0.0589  2.6573 -1.0274
  758MOL0     H 4538   5.888   8.975   5.877 -0.5128  0.2797 -3.4705
  758MOL0     H 4539   5.805   9.159   6.042 -0.0038 -0.9967 -0.9037
  758MOL0     H 4540   5.942   9.082   6.098  2.7646 -0.7927 -0.0471
  758MOL0     H 4541   6.083   9.254   6.002  1.0089  2.3908  2.6016
  758MOL0     H 4542   5.952   9.329   5.923  0.6164 -0.0958 -0.9730
  758MOL0     H 4543   5.876   9.422   6.121  0.2816 -0.5048  0.0334
  758MOL0     H 4544   5.933   9.284   6.225 -0.0682  0.2571  1.0892
  758MOL0     H 4545   6.106   9.507   6.110 -2.5568  0.8672 -0.0102
  758MOL0     H 4546   6.174   9.381   6.217  0.3133  0.4417 -0.9443
  758MOL0     H 4547   5.942   9.548   6.303 -0.3281  2.5217 -0.0950
  758MOL0     H 4548   6.047   9.449   6.397  1.2158 -3.3051 -2.0359
  758MOL0     H 4549   6.083   9.708   6.416 -1.2825  2.0858 -1.7013
  758MOL0     H 4550   6.126   9.702   6.248  1.5463 -0.9407 -1.0476
  758MOL0     H 4551   6.283   9.584   6.482  2.5845  0.2988 -0.3723
  758MOL0     H 4552   6.332   9.554   6.318  2.0048 -0.5802  0.6084
  758MOL0     H 4553   6.368   9.767   6.156 -0.4771 -1.0466  0.8187
  758MOL0     H 4554   6.561  10.103   6.221  0.1586 -0.6574 -0.3154
  758MOL0     H 4555   6.457  10.045   6.089  0.6361  1.3815  0.2762
  758MOL0     H 4556   6.663   9.859   6.177 -4.1799  2.3788  4.9645
  758MOL0     H 4557   6.585   9.874   6.029  0.7315 -1.3114  1.5670
  758MOL0     H 4558   6.699  10.117   6.012  1.1382  0.9120 -0.1972
  758MOL0     H 4559   6.785  10.074   6.157  0.2232 -2.4633 -0.0470
  758MOL0     H 4560   6.932  10.002   5.977 -0.9397  1.7111  2.3464
  758MOL0     H 4561   6.856   9.851   6.039 -3.7025 -1.5887 -0.0408
  758MOL0     H 4562   7.014   9.799   5.856 -1.7443 -2.1365  2.1856
  758MOL0     H 4563   7.189   9.673   5.793  1.0999 -1.1083  0.2777
  758MOL0     H 4564   7.208   9.616   5.626 -1.0722 -0.2078 -1.3684
  758MOL0     H 4565   7.152   9.513   5.761  2.6245  1.5648  1.7031
  758MOL0     H 4566   7.006   9.576   5.184 -0.2006 -0.3820  0.0795
  758MOL0     H 4567   7.101   9.461   4.980  1.3636 -0.1774  1.1073
  758MOL0     H 4568   6.982   9.315   4.818 -2.7919 -0.9604  1.5190
  758MOL0     H 4569   7.105   9.217   4.746 -2.8860 -3.1831 -1.5327
  758MOL0     H 4570   6.856   9.079   4.855 -1.9967 -0.1998 -1.7081
  758MOL0     H 4571   6.889   9.130   4.689  3.0130 -1.7113 -2.3215
  758MOL0     H 4572   7.023   8.918   4.854 -1.3464  1.1349  1.2046
  758MOL0     H 4573   7.109   8.981   4.720  0.5279  2.3135  2.1648
  758MOL0     H 4574   6.925   8.882   4.571 -0.1793  3.9482  0.5865
  758MOL0     H 4575   6.814   8.881   4.703  0.0135  1.1583  1.6818
  758MOL0     H 4576   6.958   8.693   4.802  1.4266 -1.0761  0.3378
  758MOL0     H 4577   6.895   8.665   4.637  2.1459 -2.3138  0.0557
  758MOL0     H 4578   7.179   8.738   4.718 -0.2747  0.4162  0.4867
  758MOL0     H 4579   7.117   8.738   4.552 -0.2769 -1.4088 -0.5594
  758MOL0     H 4580   7.071   8.476   4.611  0.4182  0.0944 -1.2785
  758MOL0     H 4581   7.160   8.519   4.760  0.7913  0.0302 -0.0535
  758MOL0     H 4582   7.287   8.407   4.599 -2.5329 -1.0405  0.0171
  758MOL0     H 4583   7.370   8.560   4.652  1.4258  0.6136 -2.7991
  758MOL0     H 4584   6.959   9.088   5.140 -2.9307 -0.7999  3.9919
  758MOL0     H 4585   6.836   9.226   5.327 -0.7601 -0.0874 -0.3122
  758MOL0     H 4586   6.714   9.623   5.517  1.6044 -0.8709  0.0675
  758MOL0     H 4587   6.633   9.798   5.688  1.5213  4.2464  1.0069
  758MOL0     H 4588   5.603   9.217   5.648 -0.7823 -0.5057  0.1473
  758MOL0     H 4589   5.549   9.148   5.417 -0.8820 -1.0930  0.5939
  758MOL0     H 4590   5.831   8.755   4.972 -0.3278 -2.3114 -1.0803
  758MOL0     H 4591   5.749   8.693   4.775  0.7136 -0.1523 -1.3962
  758MOL0     H 4592   5.565   8.619   4.628  0.7962  0.9150  0.3626
  758MOL0     H 4593   5.442   8.663   4.515  0.9426  0.2752 -1.3806
  758MOL0     H 4594   5.676   8.852   4.571 -0.2139  0.1300  1.9696
  758MOL0     H 4595   5.535   8.874   4.467  0.2576 -0.8095  2.2840
  758MOL0     H 4596   5.741   8.663   4.437 -0.2948  0.7584  2.6898
  758MOL0     H 4597   5.600   8.677   4.329  2.4539 -2.8276 -0.1971
  758MOL0     H 4598   5.799   8.904   4.375  3.1796 -2.9108 -0.5309
  758MOL0     H 4599   5.660   8.909   4.275  1.7058  1.7297  0.9550
  758MOL0     H 4600   5.939   8.717   4.023 -0.9222 -1.7028  0.7071
  758MOL0     H 4601   5.375   8.904   4.876  1.1258  2.3079  0.4547
  758MOL0     H 4602   5.471   9.095   5.110  2.5573 -0.8483  0.1455
  758MOL0     H 4603   5.335   8.977   5.106  0.1919 -1.6810 -1.8334
  758MOL0     H 4604   5.454   8.950   5.215  2.6523 -2.2991 -0.8649
  759MOL0     O 4605   7.547   4.631   5.069  0.0837  0.4440 -0.2584
  759MOL0     C 4606   7.654   4.590   5.011 -0.2074 -0.6207  0.1346
  759MOL0     O 4607   7.664   4.547   4.878 -1.1834  0.6479  0.2830
  759MOL0     C 4608   7.553   4.544   4.803 -0.7278  0.0099 -0.2890
  759MOL0     C 4609   7.438   4.481   4.851  0.2368  0.4745  0.0687
  759MOL0     C 4610   7.326   4.476   4.769 -0.4789 -0.1314 -0.1410
  759MOL0     C 4611   7.322   4.533   4.646  0.2107  0.6941 -0.9550
  759MOL0     O 4612   7.212   4.515   4.565 -0.4262  0.6454 -0.7323
  759MOL0     C 4613   7.205   4.562   4.427 -0.3241 -0.9309 -0.5671
  759MOL0     C 4614   7.074   4.518   4.385  0.7119 -0.0297 -0.7739
  759MOL0     C 4615   7.039   4.546   4.242 -0.3441  0.0614 -0.4052
  759MOL0     C 4616   6.963   4.675   4.239  0.2065  0.5674  0.1578
  759MOL0     C 4617   6.934   4.724   4.102  1.0863  0.0548 -0.2474
  759MOL0     C 4618   6.865   4.627   4.013  0.2636  0.4278 -0.5515
  759MOL0     C 4619   6.709   4.611   4.051  0.2537  0.5208  0.5437
  759MOL0     C 4620   6.632   4.537   3.937  0.2941  0.9555  0.2623
  759MOL0     N 4621   6.679   4.387   3.923  0.5509 -0.2922  0.2621
  759MOL0     C 4622   6.694   4.294   4.026  0.3670 -0.2744  0.4600
  759MOL0     C 4623   6.797   4.211   3.985 -0.2557 -0.0636 -0.0426
  759MOL0     C 4624   6.873   4.113   4.065 -0.0786 -0.4751 -0.3797
  759MOL0     C 4625   6.950   4.020   3.977 -0.4846  0.6255  0.3978
  759MOL0     C 4626   7.035   3.926   4.078  0.7730 -0.2077 -0.0880
  759MOL0     C 4627   7.156   3.854   4.014 -1.3077 -0.6457 -0.3058
  759MOL0     O 4628   7.245   3.963   3.976  0.4470  0.0302 -0.0905
  759MOL0     C 4629   7.335   3.947   3.867 -0.1229 -0.4429  0.1704
  759MOL0     C 4630   7.385   3.821   3.823 -0.5263  0.6845  0.7966
  759MOL0     C 4631   7.477   3.807   3.715 -0.0855  0.1870  0.1847
  759MOL0     C 4632   7.533   3.674   3.688  0.2671 -0.1908  0.3818
  759MOL0     C 4633   7.504   3.915   3.632 -0.1887  0.0492  0.2828
  759MOL0     C 4634   7.593   3.912   3.507  0.0105  0.1101 -0.2370
  759MOL0     O 4635   7.642   4.034   3.472  0.2009 -0.4285 -0.0965
  759MOL0     C 4636   7.723   4.036   3.357  1.0057 -0.0886 -0.1005
  759MOL0     C 4637   7.861   4.015   3.357 -0.0442  0.2072 -0.5310
  759MOL0     C 4638   7.929   4.009   3.237  0.3069 -0.4516  0.3615
  759MOL0     C 4639   7.869   4.043   3.108  0.0106 -0.0370 -0.4134
  759MOL0     O 4640   7.949   4.036   2.993 -0.2177 -0.1468 -0.5681
  759MOL0     C 4641   7.949   4.154   2.903 -0.0195 -0.8063  0.1243
  759MOL0     C 4642   8.071   4.144   2.808  0.6601 -0.8693 -0.2737
  759MOL0     C 4643   8.071   4.256   2.704  0.0633  0.1156  0.0038
  759MOL0     C 4644   8.173   4.237   2.586 -1.1778 -0.7312 -0.4834
  759MOL0     C 4645   8.145   4.364   2.492 -0.9989 -0.3303  0.1350
  759MOL0     C 4646   8.261   4.396   2.404  0.2207  0.5942 -0.5206
  759MOL0     C 4647   8.239   4.502   2.293  0.4603 -0.3325  1.0791
  759MOL0     C 4648   8.365   4.506   2.185  0.1635  0.5721 -0.1013
  759MOL0    Cl 4649   8.350   4.399   2.031 -0.0944 -0.5894 -0.4599
  759MOL0     C 4650   7.735   4.059   3.109  0.5076  0.2022 -0.4386
  759MOL0     C 4651   7.663   4.062   3.231  0.3763 -0.1355 -0.4124
  759MOL0     O 4652   7.606   3.802   3.450  0.0241 -0.4228  0.1306
  759MOL0     C 4653   7.462   4.046   3.684  0.5185 -0.1235 -0.5175
  759MOL0     C 4654   7.378   4.057   3.794 -0.1881  0.3395  0.4367
  759MOL0     N 4655   6.822   4.234   3.850  0.4470 -0.3303  0.1576
  759MOL0     N 4656   6.746   4.343   3.813  0.2369  0.1785 -1.3199
  759MOL0     C 4657   7.436   4.603   4.597  0.2776  1.0425  0.1757
  759MOL0     C 4658   7.558   4.601   4.670  0.0479 -0.1070 -0.3912
  759MOL0     C 4659   7.775   4.588   5.088 -0.2370 -0.7245  0.0661
  759MOL0     C 4660   7.757   4.555   5.220 -0.1205 -0.5593  0.1969
  759MOL0     C 4661   7.873   4.571   5.310 -0.4879 -0.1935  0.7395
  759MOL0     C 4662   8.000   4.597   5.250 -0.0684 -0.1405 -0.3609
  759MOL0     O 4663   8.106   4.614   5.333 -0.4368  0.9757  0.1094
  759MOL0     C 4664   8.138   4.493   5.408  0.3286  0.7207  0.5098
  759MOL0     C 4665   8.238   4.403   5.337  0.0336 -0.5008 -0.1237
  759MOL0     C 4666   8.348   4.476   5.260 -0.2677 -0.0114 -0.3116
  759MOL0     C 4667   8.453   4.372   5.214 -0.1193  1.0151  0.0755
  759MOL0     C 4668   8.576   4.456   5.187  0.6500  0.4392 -1.5197
  759MOL0     C 4669   8.668   4.533   5.192  1.3144  0.8857 -0.4293
  759MOL0     C 4670   8.016   4.618   5.108  0.2799  0.3289  0.1070
  759MOL0     C 4671   7.899   4.608   5.028  0.2905  0.0792  0.0631
  759MOL0     C 4672   7.912   4.627   4.874  0.0654  0.1194 -0.2445
  759MOL0     H 4673   7.443   4.437   4.950  0.4777 -1.6092 -0.8147
  759MOL0     H 4674   7.239   4.424   4.807  1.4865 -1.1989  3.3965
  759MOL0     H 4675   7.288   4.523   4.367 -2.9434 -0.8191 -4.6101
  759MOL0     H 4676   7.198   4.671   4.438 -2.3426 -1.1031  0.2362
  759MOL0     H 4677   7.077   4.412   4.413  2.0634  0.2296  0.1864
  759MOL0     H 4678   6.993   4.553   4.449 -0.8477 -1.0057 -2.1241
  759MOL0     H 4679   7.133   4.540   4.185  0.0569 -0.1424  0.2617
  759MOL0     H 4680   6.986   4.456   4.209  3.5997 -2.9066  0.4430
  759MOL0     H 4681   6.870   4.659   4.294  0.1534 -1.8592 -0.5453
  759MOL0     H 4682   7.011   4.762   4.285 -3.8247  2.1716  1.7746
  759MOL0     H 4683   7.026   4.754   4.052  0.1024  1.0077 -1.5661
  759MOL0     H 4684   6.873   4.814   4.108 -2.0171 -1.7973 -1.4985
  759MOL0     H 4685   6.878   4.679   3.917 -0.9208  1.4563 -0.1758
  759MOL0     H 4686   6.916   4.531   3.998 -2.7820 -1.3304 -0.5151
  759MOL0     H 4687   6.666   4.710   4.066 -1.0538  0.2921 -1.3817
  759MOL0     H 4688   6.699   4.547   4.139  0.1631 -3.7214 -2.2484
  759MOL0     H 4689   6.524   4.545   3.952 -0.0628 -2.1293 -0.0683
  759MOL0     H 4690   6.647   4.600   3.848 -1.7343 -0.2989 -1.0480
  759MOL0     H 4691   6.650   4.289   4.125 -2.3628 -1.2727 -0.6917
  759MOL0     H 4692   6.804   4.059   4.129  1.0117 -2.6511 -0.9418
  759MOL0     H 4693   6.936   4.167   4.137 -2.0942 -0.1899  1.2668
  759MOL0     H 4694   6.878   3.966   3.914 -1.0030  2.5177 -0.7126
  759MOL0     H 4695   7.007   4.076   3.903 -0.4228 -0.4811 -0.4220
  759MOL0     H 4696   7.073   3.985   4.162  1.1264 -2.9044  1.7797
  759MOL0     H 4697   6.971   3.850   4.124 -1.2247  1.7543  0.5448
  759MOL0     H 4698   7.212   3.784   4.077  1.4983  0.9957 -0.8016
  759MOL0     H 4699   7.125   3.797   3.926  2.0404  1.2581 -2.9836
  759MOL0     H 4700   7.339   3.731   3.862  0.7541 -1.9017 -3.1348
  759MOL0     H 4701   7.641   3.688   3.684  0.0451  1.5688 -0.3720
  759MOL0     H 4702   7.498   3.631   3.594  0.0071  1.6623 -0.4104
  759MOL0     H 4703   7.505   3.604   3.768  0.5594 -0.9532 -0.1756
  759MOL0     H 4704   7.902   3.989   3.455 -2.0255 -2.6702 -0.3313
  759MOL0     H 4705   8.034   3.982   3.241  0.5149  0.5033  1.5114
  759MOL0     H 4706   7.858   4.176   2.847 -0.6931 -2.9246  0.2913
  759MOL0     H 4707   7.955   4.243   2.966 -0.5021  0.3522 -1.3997
  759MOL0     H 4708   8.160   4.140   2.871  0.2248 -0.5019  0.3720
  759MOL0     H 4709   8.067   4.058   2.740 -2.7989  0.5350 -2.1161
  759MOL0     H 4710   8.083   4.350   2.759  0.2112 -0.2039  0.5232
  759MOL0     H 4711   7.976   4.245   2.653  1.1141 -3.1550 -1.4786
  759MOL0     H 4712   8.158   4.141   2.536 -0.3651 -0.3349 -1.5093
  759MOL0     H 4713   8.273   4.250   2.629 -1.4611  0.6174 -0.1839
  759MOL0     H 4714   8.061   4.342   2.425  0.6942 -2.2451 -1.4722
  759MOL0     H 4715   8.128   4.457   2.547 -3.5770 -1.0479  0.7177
  759MOL0     H 4716   8.294   4.305   2.353  3.1198  1.8800 -1.1696
  759MOL0     H 4717   8.337   4.421   2.478 -2.2224  3.4834  1.2452
  759MOL0     H 4718   8.244   4.593   2.354 -0.3185 -0.5140  1.4325
  759MOL0     H 4719   8.146   4.504   2.236  1.7667  1.3092 -1.1531
  759MOL0     H 4720   8.457   4.467   2.231  0.6091  0.9552 -0.6616
  759MOL0     H 4721   8.380   4.607   2.147  0.4066  0.2428 -0.9248
  759MOL0     H 4722   7.679   4.074   3.017  1.2391  0.2854 -0.8784
  759MOL0     H 4723   7.555   4.070   3.222  0.2745  1.2709  1.5166
  759MOL0     H 4724   7.488   4.131   3.622  0.2170 -0.4147 -1.0423
  759MOL0     H 4725   7.345   4.154   3.830  1.4594  0.0892  2.9087
  759MOL0     H 4726   7.445   4.652   4.501  1.7313 -1.3561 -0.9887
  759MOL0     H 4727   7.654   4.637   4.634 -1.1651  3.7999 -0.1878
  759MOL0     H 4728   7.662   4.520   5.259  0.4644 -0.3937  1.8659
  759MOL0     H 4729   7.858   4.544   5.414  1.5913 -0.7619  0.9334
  759MOL0     H 4730   8.173   4.520   5.509  1.6464  1.2563 -0.0561
  759MOL0     H 4731   8.048   4.435   5.426 -0.9840  2.3104 -0.6389
  759MOL0     H 4732   8.187   4.334   5.269  1.8634 -0.0511 -2.0277
  759MOL0     H 4733   8.280   4.342   5.418 -0.9715 -2.5692 -1.0805
  759MOL0     H 4734   8.303   4.536   5.180 -2.3512  1.8981  2.1077
  759MOL0     H 4735   8.403   4.550   5.320 -1.9785  2.7302 -1.8778
  759MOL0     H 4736   8.416   4.323   5.123 -3.4013 -0.2622  1.9370
  759MOL0     H 4737   8.466   4.297   5.292  2.1946 -1.5822 -2.5661
  759MOL0     H 4738   8.740   4.613   5.203  1.6087  0.2355  4.5681
  759MOL0     H 4739   8.115   4.642   5.070 -0.1183  0.1537 -1.0586
  759MOL0     H 4740   7.881   4.532   4.829 -0.7853  1.3168 -2.3387
  759MOL0     H 4741   7.864   4.709   4.820  2.4894 -0.2122 -3.1794
  759MOL0     H 4742   8.018   4.637   4.850  0.5776  2.3105  2.4523
  760MOL0     O 4743   1.458   2.142   3.478  0.2162 -1.4013  0.2304
  760MOL0     C 4744   1.346   2.102   3.496 -0.6915 -0.3665 -0.0179
  760MOL0     O 4745   1.254   2.083   3.395 -0.3460  0.1906  0.5188
  760MOL0     C 4746   1.302   2.121   3.271 -0.6061  0.8347 -0.3163
  760MOL0     C 4747   1.309   2.028   3.166  1.1651  0.5528 -0.2862
  760MOL0     C 4748   1.345   2.060   3.039 -0.6574 -1.1232 -0.0092
  760MOL0     C 4749   1.379   2.194   3.013  0.6903 -0.4281  1.3918
  760MOL0     O 4750   1.410   2.219   2.876  0.5545 -0.7137 -0.0550
  760MOL0     C 4751   1.469   2.344   2.850 -0.1255  0.1417 -0.0196
  760MOL0     C 4752   1.479   2.368   2.694  0.5780  0.9907 -0.9612
  760MOL0     C 4753   1.564   2.277   2.613 -0.5330 -0.8182  0.5257
  760MOL0     C 4754   1.500   2.193   2.509  0.4201  0.3241 -0.5063
  760MOL0     C 4755   1.582   2.167   2.385 -0.4509  0.8934 -0.0734
  760MOL0     C 4756   1.494   2.094   2.289  0.6947  0.1264 -0.3721
  760MOL0     C 4757   1.571   2.067   2.155  0.5812  0.0956  0.7030
  760MOL0     C 4758   1.560   2.183   2.054 -0.7061  0.3204 -0.6072
  760MOL0     N 4759   1.648   2.161   1.941  0.2596 -0.3092  0.4281
  760MOL0     C 4760   1.746   2.239   1.873 -0.1515  0.5545 -0.7913
  760MOL0     C 4761   1.797   2.152   1.781 -0.7102  0.1670 -0.1034
  760MOL0     C 4762   1.905   2.171   1.678  0.2697  1.0601 -1.0585
  760MOL0     C 4763   1.986   2.299   1.691 -0.0343 -0.1187  0.1714
  760MOL0     C 4764   2.096   2.282   1.794 -0.2980 -0.0930 -0.6208
  760MOL0     C 4765   2.213   2.191   1.758  0.0477 -0.8426 -0.1980
  760MOL0     O 4766   2.330   2.268   1.718 -0.6127  0.7887 -0.0730
  760MOL0     C 4767   2.312   2.342   1.600  0.0541  0.8363 -0.4934
  760MOL0     C 4768   2.330   2.277   1.487 -0.1231 -0.1746 -0.2691
  760MOL0     C 4769   2.309   2.335   1.366 -0.2182 -0.0552  0.5087
  760MOL0     C 4770   2.327   2.252   1.241  0.9471 -0.4795 -0.4819
  760MOL0     C 4771   2.283   2.474   1.355  0.6603  0.3794  0.5888
  760MOL0     C 4772   2.273   2.554   1.229  0.2508  0.5649  0.1537
  760MOL0     O 4773   2.247   2.691   1.251  0.3952  0.2499  0.1953
  760MOL0     C 4774   2.286   2.791   1.167 -0.4542  0.1388  0.1965
  760MOL0     C 4775   2.400   2.772   1.086  0.3111 -0.6031  0.1036
  760MOL0     C 4776   2.447   2.875   0.996 -0.7691 -0.3403 -0.5087
  760MOL0     C 4777   2.377   3.000   0.995 -0.5183  0.0611 -0.2159
  760MOL0     O 4778   2.414   3.112   0.919  0.3036  0.3782  0.4801
  760MOL0     C 4779   2.523   3.110   0.832 -0.5536  0.0317  0.2554
  760MOL0     C 4780   2.484   3.036   0.705  0.0867  0.4175  0.1364
  760MOL0     C 4781   2.586   3.069   0.587  0.7645 -0.0100  0.4137
  760MOL0     C 4782   2.594   2.961   0.482 -0.1801  0.5074  1.1992
  760MOL0     C 4783   2.698   2.995   0.373  0.4984 -0.3111 -0.7364
  760MOL0     C 4784   2.705   2.885   0.269  0.0586  0.2713  0.5365
  760MOL0     C 4785   2.627   2.918   0.144  0.0752 -0.2539  0.2239
  760MOL0     C 4786   2.632   2.822   0.025 -0.3755 -0.3624  0.8891
  760MOL0    Cl 4787   2.799   2.814  -0.050 -0.3502 -0.1470  0.0545
  760MOL0     C 4788   2.265   3.016   1.076 -0.1378 -0.3247 -0.0517
  760MOL0     C 4789   2.218   2.917   1.164  0.3292  0.0425 -0.8677
  760MOL0     O 4790   2.297   2.511   1.116  0.1156 -0.3447  0.0812
  760MOL0     C 4791   2.273   2.552   1.478 -0.4349  0.0985  0.3740
  760MOL0     C 4792   2.286   2.483   1.595 -0.3063 -0.2581  0.7126
  760MOL0     N 4793   1.727   2.032   1.783  0.5452 -0.8457 -0.6095
  760MOL0     N 4794   1.649   2.037   1.885 -0.0097 -0.3628 -0.2202
  760MOL0     C 4795   1.393   2.293   3.115 -0.7067 -0.4530 -0.2814
  760MOL0     C 4796   1.348   2.248   3.247  0.0786 -0.0530  0.3271
  760MOL0     C 4797   1.293   2.091   3.632 -0.2802  0.5112 -0.4765
  760MOL0     C 4798   1.156   2.101   3.645  0.3324 -0.3871  0.1298
  760MOL0     C 4799   1.097   2.082   3.774  0.3301 -0.2033 -0.4573
  760MOL0     C 4800   1.170   2.067   3.891 -0.2775  0.4655  0.8376
  760MOL0     O 4801   1.122   2.059   4.023  0.7220 -0.4989  0.5137
  760MOL0     C 4802   0.984   2.060   4.039 -0.0631  0.3936  0.3775
  760MOL0     C 4803   0.965   2.052   4.186  0.0075  0.2903  0.7313
  760MOL0     C 4804   0.993   2.180   4.268 -0.5264 -0.6148  0.5375
  760MOL0     C 4805   1.122   2.170   4.348  0.0259  1.1911 -0.9222
  760MOL0     C 4806   1.141   2.288   4.430  0.2179 -0.0130  0.8066
  760MOL0     C 4807   1.164   2.387   4.500 -0.0001 -0.0798 -0.5019
  760MOL0     C 4808   1.313   2.080   3.875  0.1185  0.0137 -0.9993
  760MOL0     C 4809   1.369   2.078   3.748 -0.1932  0.0405 -0.1757
  760MOL0     C 4810   1.527   2.065   3.744  0.6879 -0.1698 -1.0313
  760MOL0     H 4811   1.269   1.929   3.185  1.8024  0.7504  2.3817
  760MOL0     H 4812   1.337   1.985   2.961 -2.6345 -1.3163  0.3372
  760MOL0     H 4813   1.559   2.346   2.911 -2.5711  1.2479  3.9744
  760MOL0     H 4814   1.405   2.426   2.884  0.4020  0.5757 -0.0659
  760MOL0     H 4815   1.379   2.351   2.654  0.5706 -0.5336 -0.3557
  760MOL0     H 4816   1.514   2.470   2.677  0.4102  1.3635  0.7069
  760MOL0     H 4817   1.641   2.340   2.568 -2.1328 -1.2745 -3.2254
  760MOL0     H 4818   1.622   2.207   2.675  0.0899 -0.0945  0.7762
  760MOL0     H 4819   1.470   2.098   2.553  0.8728  1.7633  3.3245
  760MOL0     H 4820   1.412   2.241   2.465  0.6267  1.2706  0.0762
  760MOL0     H 4821   1.665   2.101   2.409 -1.3258  0.0065  0.6047
  760MOL0     H 4822   1.624   2.253   2.333 -0.2258 -1.6984 -4.8056
  760MOL0     H 4823   1.453   2.003   2.335 -0.3272 -0.0350 -1.5636
  760MOL0     H 4824   1.407   2.156   2.267 -0.0796  0.2372  2.5939
  760MOL0     H 4825   1.541   1.967   2.120  2.5516 -0.6749  1.0747
  760MOL0     H 4826   1.676   2.042   2.175  0.6630 -1.2300 -1.0904
  760MOL0     H 4827   1.453   2.198   2.036 -1.1069 -0.1530  1.1701
  760MOL0     H 4828   1.596   2.269   2.111 -0.4772  0.9786 -1.7051
  760MOL0     H 4829   1.781   2.336   1.906  0.9646 -0.4267  1.0986
  760MOL0     H 4830   1.852   2.170   1.583  0.1386 -1.6262 -1.0255
  760MOL0     H 4831   1.976   2.087   1.682  0.0791  0.8323  3.7365
  760MOL0     H 4832   2.033   2.337   1.600 -0.3419  1.3044  0.5718
  760MOL0     H 4833   1.929   2.387   1.723 -1.0686  0.3279 -2.5858
  760MOL0     H 4834   2.131   2.379   1.832  0.7666  0.5698 -3.1101
  760MOL0     H 4835   2.051   2.227   1.878 -4.5797 -1.7415 -3.6363
  760MOL0     H 4836   2.244   2.132   1.845  4.0133  1.3794  0.1747
  760MOL0     H 4837   2.182   2.126   1.677 -2.1944  1.0638 -0.9793
  760MOL0     H 4838   2.347   2.170   1.490  1.4161  0.0464 -0.2925
  760MOL0     H 4839   2.329   2.147   1.271  1.1064 -0.0877  0.9689
  760MOL0     H 4840   2.429   2.271   1.205  0.7325 -0.7336 -1.2272
  760MOL0     H 4841   2.247   2.263   1.168 -1.6191  1.7183  2.3933
  760MOL0     H 4842   2.458   2.682   1.102  1.3340  0.4914  3.5427
  760MOL0     H 4843   2.536   2.855   0.938  0.9279 -1.2571  2.2177
  760MOL0     H 4844   2.531   3.216   0.807  1.9037 -0.2913 -0.5882
  760MOL0     H 4845   2.615   3.066   0.872 -0.7366 -0.9747 -0.3781
  760MOL0     H 4846   2.475   2.927   0.717  1.0279  0.3511  0.2902
  760MOL0     H 4847   2.383   3.069   0.676  0.3275 -0.1794 -1.5004
  760MOL0     H 4848   2.682   3.091   0.633  0.8144  4.5236 -1.2765
  760MOL0     H 4849   2.555   3.163   0.540 -2.5869 -2.1721 -2.1727
  760MOL0     H 4850   2.502   2.945   0.425  0.9794  1.5079 -1.0958
  760MOL0     H 4851   2.619   2.865   0.526  0.1981 -0.3787 -0.8166
  760MOL0     H 4852   2.679   3.090   0.322  2.8540  0.0162 -1.0949
  760MOL0     H 4853   2.795   2.983   0.421  0.9284  0.3643 -1.4213
  760MOL0     H 4854   2.666   2.798   0.323 -1.4612  1.6803  1.7957
  760MOL0     H 4855   2.809   2.874   0.237  0.1447  1.8676  0.2123
  760MOL0     H 4856   2.668   3.009   0.098 -2.4947 -0.1427 -2.0480
  760MOL0     H 4857   2.525   2.940   0.176 -0.4164  0.7540 -1.8725
  760MOL0     H 4858   2.559   2.862  -0.045  0.7964  0.2719 -0.0132
  760MOL0     H 4859   2.597   2.726   0.064 -0.8736 -0.2189  0.7959
  760MOL0     H 4860   2.217   3.114   1.077 -1.6688 -1.0430  0.6199
  760MOL0     H 4861   2.131   2.936   1.225  0.6101  3.1976 -1.2768
  760MOL0     H 4862   2.247   2.657   1.476  0.8611  0.4335  0.4287
  760MOL0     H 4863   2.301   2.536   1.688 -0.9274  0.4212  0.4284
  760MOL0     H 4864   1.433   2.393   3.099  0.9747 -0.9448  0.5546
  760MOL0     H 4865   1.350   2.316   3.332  0.8914  0.8817 -0.4078
  760MOL0     H 4866   1.092   2.122   3.560  1.7240 -3.4829 -1.8956
  760MOL0     H 4867   0.989   2.079   3.785  0.1692  2.7730 -0.4780
  760MOL0     H 4868   0.941   2.151   3.996  0.0814 -0.1789 -1.0180
  760MOL0     H 4869   0.947   1.975   3.981  1.0854  0.4424 -0.4524
  760MOL0     H 4870   1.010   1.963   4.231 -2.3379 -1.2845  0.1503
  760MOL0     H 4871   0.858   2.031   4.199  0.3654 -0.5356  2.7885
  760MOL0     H 4872   1.003   2.262   4.197 -0.2489 -1.9827 -1.0820
  760MOL0     H 4873   0.918   2.205   4.344  1.7294  0.6554  2.5049
  760MOL0     H 4874   1.206   2.157   4.279 -0.9499 -1.2011 -1.7632
  760MOL0     H 4875   1.115   2.078   4.407  0.2261  0.1293 -2.4824
  760MOL0     H 4876   1.184   2.474   4.558 -2.6097 -0.3040  0.8587
  760MOL0     H 4877   1.362   2.054   3.968 -3.8368 -0.6330  1.1354
  760MOL0     H 4878   1.552   2.028   3.844 -0.3846 -2.2335 -1.4647
  760MOL0     H 4879   1.548   1.989   3.667 -0.2089  0.3067 -1.7681
  760MOL0     H 4880   1.579   2.160   3.731  1.5278 -0.4455  0.1253
  761MOL0     O 4881   0.021   9.530   4.435  0.0820  0.1167  0.9591
  761MOL0     C 4882  -0.081   9.477   4.486 -0.4285 -1.0974  0.1874
  761MOL0     O 4883  -0.205   9.535   4.504  0.0857 -0.1652  0.0523
  761MOL0     C 4884  -0.211   9.666   4.491 -0.2255  0.7444 -0.5422
  761MOL0     C 4885  -0.176   9.757   4.597 -0.3737  0.1662  0.0272
  761MOL0     C 4886  -0.174   9.893   4.580  0.0563 -0.1868  0.1634
  761MOL0     C 4887  -0.208   9.952   4.459 -0.2258  0.1445  0.8568
  761MOL0     O 4888  -0.217  10.092   4.438  0.4371  0.3632 -0.1461
  761MOL0     C 4889  -0.101  10.173   4.471 -0.4750  0.4519  0.0989
  761MOL0     C 4890  -0.079  10.302   4.392 -0.4099  1.5155 -0.1904
  761MOL0     C 4891  -0.179  10.412   4.433 -0.4805 -0.0129 -0.2520
  761MOL0     C 4892  -0.155  10.539   4.348  0.5858 -0.8797  0.6684
  761MOL0     C 4893  -0.214  10.513   4.202  0.6113  0.0719 -0.1790
  761MOL0     C 4894  -0.187  10.627   4.099 -0.2876 -0.7246  0.2363
  761MOL0     C 4895  -0.242  10.566   3.959 -0.2051  0.0876  0.3099
  761MOL0     C 4896  -0.218  10.665   3.846  0.6971  0.2961  0.6208
  761MOL0     N 4897  -0.320  10.647   3.736  1.0454  0.3933  0.2559
  761MOL0     C 4898  -0.443  10.709   3.727  0.7316  0.1442 -0.5890
  761MOL0     C 4899  -0.504  10.637   3.625  0.1681  0.2083  0.1315
  761MOL0     C 4900  -0.648  10.671   3.578  0.5693 -0.3065  0.4387
  761MOL0     C 4901  -0.649  10.747   3.440  0.3368  0.3759 -0.3355
  761MOL0     C 4902  -0.789  10.759   3.370  0.1557 -0.1904  0.4001
  761MOL0     C 4903  -0.765  10.858   3.256  0.8829 -1.0060  0.5665
  761MOL0     O 4904  -0.882  10.917   3.204  0.7817 -0.2923 -0.7312
  761MOL0     C 4905  -0.886  10.963   3.076  0.2521  0.4929  0.0662
  761MOL0     C 4906  -0.800  10.929   2.972 -0.3642 -0.0324  0.5468
  761MOL0     C 4907  -0.804  11.006   2.851  0.3080  0.1170 -0.4440
  761MOL0     C 4908  -0.703  10.969   2.749 -0.3495 -0.2568  0.2371
  761MOL0     C 4909  -0.902  11.109   2.833 -0.0822 -0.8640 -0.7606
  761MOL0     C 4910  -0.897  11.210   2.723 -0.5118  0.6941  0.4424
  761MOL0     O 4911  -0.925  11.340   2.752  0.0323  0.2207 -0.3745
  761MOL0     C 4912  -0.854  11.432   2.683  0.4389  0.0098 -0.3159
  761MOL0     C 4913  -0.716  11.433   2.665  0.0425 -0.9045 -0.2329
  761MOL0     C 4914  -0.657  11.544   2.601 -0.0573 -0.9704 -0.9015
  761MOL0     C 4915  -0.719  11.661   2.571 -0.1985  0.6769  0.9989
  761MOL0     O 4916  -0.669  11.774   2.516 -0.1837  0.1753 -0.3755
  761MOL0     C 4917  -0.527  11.807   2.523 -0.5504  0.5818 -0.2211
  761MOL0     C 4918  -0.507  11.956   2.505 -0.0787  0.3190  0.6389
  761MOL0     C 4919  -0.572  12.031   2.621  0.0103 -0.5656  0.0733
  761MOL0     C 4920  -0.594  12.176   2.573 -0.4488  0.8426 -0.8240
  761MOL0     C 4921  -0.642  12.284   2.667 -0.0913  0.5047 -0.9407
  761MOL0     C 4922  -0.780  12.254   2.723  0.7865  0.1712 -0.4402
  761MOL0     C 4923  -0.802  12.355   2.844 -0.1504  0.3896 -1.0878
  761MOL0     C 4924  -0.718  12.332   2.968  0.9477 -0.3524  0.2634
  761MOL0    Cl 4925  -0.720  12.163   3.012  0.7633  0.0233 -0.0145
  761MOL0     C 4926  -0.861  11.655   2.578 -0.0802  0.3240  0.2780
  761MOL0     C 4927  -0.921  11.538   2.622 -0.0049 -0.5777  0.2312
  761MOL0     O 4928  -0.866  11.179   2.606  1.1573 -0.1813  0.2215
  761MOL0     C 4929  -1.000  11.129   2.931  0.3656 -0.4763 -0.5630
  761MOL0     C 4930  -0.988  11.051   3.051 -0.5803 -0.0597 -0.8556
  761MOL0     N 4931  -0.426  10.531   3.581  0.9775  0.7555 -0.1241
  761MOL0     N 4932  -0.316  10.539   3.641 -0.8847  0.2947 -0.7192
  761MOL0     C 4933  -0.236   9.863   4.352 -0.7419  0.5308 -0.3350
  761MOL0     C 4934  -0.244   9.720   4.368 -0.1049  0.4070  0.3042
  761MOL0     C 4935  -0.075   9.334   4.513 -0.2160 -0.2959 -0.8780
  761MOL0     C 4936  -0.052   9.250   4.404 -0.1937  0.4114  0.0184
  761MOL0     C 4937  -0.048   9.116   4.415 -0.5187 -0.3980 -1.1698
  761MOL0     C 4938  -0.085   9.063   4.542 -0.1743  0.6923 -0.5618
  761MOL0     O 4939  -0.070   8.930   4.550  0.5268 -0.8300 -0.0514
  761MOL0     C 4940  -0.176   8.864   4.619  0.2107  0.5123 -0.0786
  761MOL0     C 4941  -0.242   8.765   4.534 -0.2946 -0.0599  0.1403
  761MOL0     C 4942  -0.132   8.658   4.495 -0.4508 -0.2988 -0.3131
  761MOL0     C 4943  -0.200   8.530   4.468  0.0763  0.7012 -0.3559
  761MOL0     C 4944  -0.233   8.454   4.588 -0.0016 -0.1570 -0.3147
  761MOL0     C 4945  -0.247   8.390   4.682 -0.0921  0.4780 -0.6628
  761MOL0     C 4946  -0.101   9.145   4.652 -0.1486  0.3922 -1.1772
  761MOL0     C 4947  -0.106   9.282   4.642  0.7147 -0.7196 -0.3218
  761MOL0     C 4948  -0.130   9.357   4.769 -0.1653  0.6806 -0.8647
  761MOL0     H 4949  -0.128   9.717   4.685 -0.9355 -0.9267 -0.1451
  761MOL0     H 4950  -0.143   9.953   4.665 -4.0890  0.6917  1.2612
  761MOL0     H 4951  -0.014  10.112   4.445 -1.7911 -2.0020  1.1285
  761MOL0     H 4952  -0.087  10.203   4.575  2.9576  2.8818 -0.8737
  761MOL0     H 4953   0.024  10.334   4.407  0.3344  0.1645 -2.0682
  761MOL0     H 4954  -0.100  10.280   4.287 -1.9217  2.7692 -0.1927
  761MOL0     H 4955  -0.283  10.380   4.425 -1.0299  1.2515  1.4069
  761MOL0     H 4956  -0.171  10.440   4.538 -1.4109 -2.6862  0.5965
  761MOL0     H 4957  -0.208  10.627   4.385 -0.7497 -1.0798 -0.6613
  761MOL0     H 4958  -0.047  10.555   4.345  0.4765 -0.1301  0.4301
  761MOL0     H 4959  -0.322  10.522   4.213  0.6960  0.3911  0.4035
  761MOL0     H 4960  -0.177  10.415   4.167  0.8944 -0.4993  1.6357
  761MOL0     H 4961  -0.243  10.718   4.120  0.5328  0.1457 -1.1138
  761MOL0     H 4962  -0.081  10.653   4.096  0.0597 -2.0088  0.7444
  761MOL0     H 4963  -0.347  10.539   3.967 -0.7549  1.6465 -0.9914
  761MOL0     H 4964  -0.187  10.478   3.925  2.9648  2.3395 -0.9320
  761MOL0     H 4965  -0.231  10.771   3.869 -4.0460  0.6573 -2.4481
  761MOL0     H 4966  -0.120  10.653   3.798  0.7642  3.3697 -0.2274
  761MOL0     H 4967  -0.458  10.797   3.790 -0.9883 -0.9326  0.5957
  761MOL0     H 4968  -0.705  10.724   3.655  0.1432 -0.4370  0.2142
  761MOL0     H 4969  -0.678  10.567   3.564  1.9875 -0.8718  1.2930
  761MOL0     H 4970  -0.595  10.842   3.445  1.1839  0.0851 -2.8079
  761MOL0     H 4971  -0.585  10.676   3.386  1.4513  0.1557  1.1945
  761MOL0     H 4972  -0.823  10.661   3.335 -0.3454  0.0226  0.2713
  761MOL0     H 4973  -0.872  10.795   3.431 -3.5176 -1.6171 -3.2875
  761MOL0     H 4974  -0.719  10.950   3.293 -4.2260  2.1837 -0.0237
  761MOL0     H 4975  -0.705  10.810   3.177 -1.1949  0.0596 -1.7989
  761MOL0     H 4976  -0.729  10.848   2.980 -1.7582 -1.1390  2.4532
  761MOL0     H 4977  -0.757  10.958   2.655  0.9267 -0.2200 -0.5098
  761MOL0     H 4978  -0.651  10.877   2.776  2.2657  0.3608 -2.2436
  761MOL0     H 4979  -0.629  11.049   2.738 -0.5650 -0.2087 -1.0231
  761MOL0     H 4980  -0.664  11.343   2.695 -1.1736 -0.1480  5.0337
  761MOL0     H 4981  -0.551  11.551   2.581 -0.2928 -0.3869 -1.9857
  761MOL0     H 4982  -0.476  11.786   2.617  1.3082  1.6592 -0.9340
  761MOL0     H 4983  -0.470  11.742   2.455  1.3053  1.5405  0.3459
  761MOL0     H 4984  -0.402  11.986   2.512 -0.5005  1.6738  1.3973
  761MOL0     H 4985  -0.540  11.987   2.406 -0.6302  5.2559  2.1080
  761MOL0     H 4986  -0.499  12.020   2.701  0.6982 -1.4960 -0.6571
  761MOL0     H 4987  -0.668  11.993   2.658 -0.1660  0.9560  1.2875
  761MOL0     H 4988  -0.662  12.182   2.487  0.9182  0.5900 -1.9521
  761MOL0     H 4989  -0.494  12.207   2.542  0.7787  0.2757  2.2271
  761MOL0     H 4990  -0.572  12.275   2.750 -2.4626  0.2504  1.1493
  761MOL0     H 4991  -0.643  12.377   2.609 -0.5931 -0.5657 -2.7492
  761MOL0     H 4992  -0.792  12.152   2.761  1.4178  1.0759  2.5022
  761MOL0     H 4993  -0.857  12.258   2.645  1.2063 -0.9850 -0.9298
  761MOL0     H 4994  -0.904  12.335   2.877  0.7298 -2.3485  0.2806
  761MOL0     H 4995  -0.798  12.458   2.806  0.4172  1.0249  0.6049
  761MOL0     H 4996  -0.765  12.391   3.048 -0.4033  0.9900 -1.4415
  761MOL0     H 4997  -0.616  12.366   2.949  1.3358 -2.9350 -3.2845
  761MOL0     H 4998  -0.930  11.728   2.537 -1.0182  0.1722  1.4926
  761MOL0     H 4999  -1.030  11.542   2.622 -0.0144 -0.8569  0.1853
  761MOL0     H 5000  -1.072  11.210   2.927 -0.3394 -1.0562 -0.1420
  761MOL0     H 5001  -1.056  11.068   3.134  1.3701 -0.8999  1.0370
  761MOL0     H 5002  -0.279   9.907   4.262 -1.3080  0.2482 -0.2107
  761MOL0     H 5003  -0.276   9.660   4.283  1.8472 -0.2843 -0.0021
  761MOL0     H 5004  -0.030   9.286   4.304 -1.9789 -0.0127 -0.5788
  761MOL0     H 5005  -0.011   9.058   4.331  0.0681 -0.4788 -0.8604
  761MOL0     H 5006  -0.139   8.806   4.704 -1.8382 -3.7876 -1.8385
  761MOL0     H 5007  -0.253   8.937   4.647 -0.4908  0.2893 -1.3519
  761MOL0     H 5008  -0.283   8.810   4.442 -0.8960 -4.1229 -1.8146
  761MOL0     H 5009  -0.327   8.722   4.587  0.2983  2.0766  3.0341
  761MOL0     H 5010  -0.088   8.689   4.400  1.5722 -0.0039  0.6540
  761MOL0     H 5011  -0.054   8.637   4.568  2.4968  3.8019 -1.9080
  761MOL0     H 5012  -0.131   8.479   4.400  0.6588  0.4171  0.4427
  761MOL0     H 5013  -0.292   8.532   4.409 -1.4520 -1.1123  1.8169
  761MOL0     H 5014  -0.267   8.338   4.773  0.3040  1.4719  0.0064
  761MOL0     H 5015  -0.125   9.094   4.745  0.6268 -0.2867 -1.3389
  761MOL0     H 5016  -0.237   9.358   4.794 -0.3625  0.0870 -1.6279
  761MOL0     H 5017  -0.066   9.314   4.847 -2.1778 -0.4053  0.2904
  761MOL0     H 5018  -0.088   9.456   4.748  0.7071  0.1492 -1.6970
  762MOL0     O 5019   0.135   5.287   8.010 -0.5001  0.4433 -0.8607
  762MOL0     C 5020   0.088   5.285   7.903  0.4291 -0.7859  0.6475
  762MOL0     O 5021   0.052   5.177   7.835 -0.1402 -0.6986 -0.0614
  762MOL0     C 5022   0.091   5.048   7.873  0.0142 -0.0848 -0.8616
  762MOL0     C 5023  -0.006   4.950   7.828 -0.1227 -0.4450  1.0665
  762MOL0     C 5024   0.022   4.811   7.833 -0.6085  0.9247 -1.5005
  762MOL0     C 5025   0.137   4.773   7.909  0.7650 -0.1580 -0.3774
  762MOL0     O 5026   0.152   4.639   7.926 -0.7210  0.1359 -1.0337
  762MOL0     C 5027   0.282   4.577   7.928  0.7326  0.7818  0.5273
  762MOL0     C 5028   0.353   4.572   7.794  0.8203  0.1484 -0.9148
  762MOL0     C 5029   0.295   4.461   7.699 -0.5884  0.4964  0.9192
  762MOL0     C 5030   0.205   4.531   7.590 -0.5179  0.1163 -0.6372
  762MOL0     C 5031   0.131   4.431   7.500  0.4372  0.8756 -0.3907
  762MOL0     C 5032   0.022   4.516   7.416  0.2735  0.4473 -0.4859
  762MOL0     C 5033   0.084   4.615   7.325 -0.3864 -0.5282 -0.5261
  762MOL0     C 5034  -0.021   4.681   7.223 -0.1927  0.1961  0.3244
  762MOL0     N 5035   0.050   4.768   7.128 -0.4525  1.4236 -0.5577
  762MOL0     C 5036   0.122   4.879   7.148  0.1622 -0.8354 -0.4189
  762MOL0     C 5037   0.155   4.920   7.022  0.5721 -0.0132  0.3003
  762MOL0     C 5038   0.234   5.045   6.988 -0.5259 -0.0488 -0.1978
  762MOL0     C 5039   0.377   5.011   6.930  0.0900 -0.7721 -0.0817
  762MOL0     C 5040   0.488   4.998   7.037  0.9792 -0.3355 -0.0341
  762MOL0     C 5041   0.505   5.140   7.107  0.1038 -0.1526 -0.3069
  762MOL0     O 5042   0.579   5.127   7.236  0.1100  0.1440  0.4428
  762MOL0     C 5043   0.714   5.107   7.235 -0.2664 -1.0296 -0.1720
  762MOL0     C 5044   0.801   5.090   7.131 -0.8093  0.3829 -0.5672
  762MOL0     C 5045   0.931   5.048   7.151 -1.4451  0.0074  0.2407
  762MOL0     C 5046   1.025   5.050   7.021  0.0999 -0.8892  0.1412
  762MOL0     C 5047   0.982   5.021   7.287 -0.7279  0.6377 -0.1859
  762MOL0     C 5048   1.119   4.971   7.309 -0.3784  0.1541  0.7705
  762MOL0     O 5049   1.211   5.076   7.308 -0.0473  0.9182 -0.0725
  762MOL0     C 5050   1.327   5.052   7.371  0.0945  0.3104  0.4354
  762MOL0     C 5051   1.334   5.036   7.509  0.1404 -0.4843  0.5993
  762MOL0     C 5052   1.456   5.009   7.564 -0.4058  0.3506  0.4090
  762MOL0     C 5053   1.573   5.011   7.487 -0.4502 -0.2389  0.2164
  762MOL0     O 5054   1.709   4.998   7.529  0.0553  0.6147 -0.6539
  762MOL0     C 5055   1.719   4.961   7.674 -0.0507 -0.4366 -0.2153
  762MOL0     C 5056   1.872   4.937   7.719  0.2887 -0.0767 -0.3688
  762MOL0     C 5057   1.943   5.071   7.769  0.1276  0.1119 -0.0010
  762MOL0     C 5058   2.073   5.045   7.839 -0.0123  0.0118 -0.5403
  762MOL0     C 5059   2.141   5.180   7.854 -0.2658  0.0520  0.0455
  762MOL0     C 5060   2.266   5.163   7.958  0.0075  0.0851  0.0936
  762MOL0     C 5061   2.364   5.284   7.957  0.0120  0.2923  0.1538
  762MOL0     C 5062   2.497   5.246   8.031  0.1546 -0.2967  0.3073
  762MOL0    Cl 5063   2.489   5.283   8.205 -0.2416 -0.0966 -0.2935
  762MOL0     C 5064   1.563   5.024   7.345 -0.2458 -0.2172 -0.4859
  762MOL0     C 5065   1.436   5.051   7.292  0.1313  1.1721  0.1506
  762MOL0     O 5066   1.136   4.860   7.349  0.2468  0.3108  0.5996
  762MOL0     C 5067   0.897   5.042   7.398 -0.9317  0.3520  0.1481
  762MOL0     C 5068   0.765   5.086   7.368  0.1249  0.0608  0.0628
  762MOL0     N 5069   0.106   4.834   6.925 -0.8053  0.1660 -0.1138
  762MOL0     N 5070   0.040   4.750   6.994 -0.0028 -0.5026  0.1385
  762MOL0     C 5071   0.233   4.873   7.951  0.2270  0.0682  0.4817
  762MOL0     C 5072   0.209   5.008   7.930 -0.0177 -0.1517  0.4809
  762MOL0     C 5073   0.071   5.421   7.839  0.8925 -0.3937  0.6479
  762MOL0     C 5074   0.071   5.418   7.702 -0.4174 -0.4425 -0.0921
  762MOL0     C 5075   0.051   5.536   7.627 -0.0922  0.2635 -0.1902
  762MOL0     C 5076   0.056   5.665   7.689  0.1044 -0.3876 -0.2046
  762MOL0     O 5077   0.012   5.785   7.635 -0.1698  0.6979  0.8781
  762MOL0     C 5078   0.023   5.789   7.496 -0.5876 -0.2251 -0.4116
  762MOL0     C 5079  -0.113   5.762   7.422  0.1301  1.0927 -1.0171
  762MOL0     C 5080  -0.089   5.739   7.272 -0.6518  0.9037 -0.1487
  762MOL0     C 5081  -0.232   5.742   7.197 -0.5030 -0.2191 -0.3238
  762MOL0     C 5082  -0.213   5.724   7.051  0.4982 -0.3166  0.0190
  762MOL0     C 5083  -0.192   5.697   6.937  0.0831 -0.0607 -1.1247
  762MOL0     C 5084   0.064   5.673   7.830 -0.1729 -0.3776 -0.3012
  762MOL0     C 5085   0.070   5.554   7.905  0.2946  0.4713 -0.1778
  762MOL0     C 5086   0.058   5.556   8.057  0.8206 -0.5846 -0.1483
  762MOL0     H 5087  -0.090   4.988   7.771  1.5106  0.8362 -0.5941
  762MOL0     H 5088  -0.044   4.735   7.791  1.1825 -1.9086  0.4422
  762MOL0     H 5089   0.267   4.472   7.953  0.0469  0.2811 -1.7721
  762MOL0     H 5090   0.347   4.631   7.998  2.8137 -0.7288 -0.1171
  762MOL0     H 5091   0.371   4.674   7.757  0.4251  0.5253 -0.0916
  762MOL0     H 5092   0.446   4.526   7.828  0.4186  0.7269  1.0883
  762MOL0     H 5093   0.376   4.419   7.639 -1.7855 -0.5467 -0.0322
  762MOL0     H 5094   0.239   4.378   7.743 -0.8428  0.3282  0.3018
  762MOL0     H 5095   0.138   4.590   7.653  0.3499 -3.0424  3.6825
  762MOL0     H 5096   0.271   4.596   7.531 -0.3277  1.4851  1.0134
  762MOL0     H 5097   0.069   4.354   7.548 -0.8143  0.5563 -2.4006
  762MOL0     H 5098   0.207   4.382   7.438  1.9531  0.9353  1.3374
  762MOL0     H 5099  -0.054   4.458   7.362  0.5001  0.6049 -0.9732
  762MOL0     H 5100  -0.037   4.576   7.487  0.1853  0.9431 -0.9669
  762MOL0     H 5101   0.159   4.562   7.265 -2.5161 -0.8994 -2.9962
  762MOL0     H 5102   0.134   4.696   7.379 -1.5080  0.4861 -0.9741
  762MOL0     H 5103  -0.071   4.594   7.179  0.0005 -0.9533  2.2515
  762MOL0     H 5104  -0.101   4.739   7.268 -1.0063 -0.8231  0.2333
  762MOL0     H 5105   0.136   4.936   7.240  0.6779 -0.4998 -0.7009
  762MOL0     H 5106   0.237   5.100   7.083 -1.2437 -1.7490  0.8431
  762MOL0     H 5107   0.170   5.102   6.920 -1.6603 -1.0056  0.0342
  762MOL0     H 5108   0.359   4.922   6.869 -0.9121  0.5906 -1.8591
  762MOL0     H 5109   0.408   5.094   6.866 -2.7669  1.3084  1.0207
  762MOL0     H 5110   0.449   4.924   7.107 -0.9962  1.4251  0.8381
  762MOL0     H 5111   0.584   4.972   6.991  0.5975  0.5477 -1.4160
  762MOL0     H 5112   0.556   5.201   7.032 -3.5006  2.0317 -1.1993
  762MOL0     H 5113   0.419   5.203   7.131  0.0321 -0.6869  0.9420
  762MOL0     H 5114   0.778   5.103   7.026  1.5895  0.0604 -1.1839
  762MOL0     H 5115   0.955   5.037   6.937  0.4039 -1.5696 -0.0103
  762MOL0     H 5116   1.113   4.986   7.016  1.6205  1.1912 -2.7628
  762MOL0     H 5117   1.072   5.146   6.998  1.8451 -1.8641 -0.5555
  762MOL0     H 5118   1.253   5.040   7.580  1.6908  0.7437  2.3930
  762MOL0     H 5119   1.464   4.989   7.671  1.1088  1.0890  0.4482
  762MOL0     H 5120   1.658   5.026   7.737 -1.6187 -1.4846 -0.6054
  762MOL0     H 5121   1.676   4.861   7.679 -0.9621  0.0080  1.6751
  762MOL0     H 5122   1.877   4.864   7.800  1.6875  1.4736  1.0378
  762MOL0     H 5123   1.929   4.895   7.635 -0.6764 -0.1914 -0.9843
  762MOL0     H 5124   1.877   5.127   7.836 -0.3938  0.1633 -0.5505
  762MOL0     H 5125   1.960   5.138   7.685 -2.9694  0.9337 -0.0831
  762MOL0     H 5126   2.130   4.973   7.779 -5.4954 -2.9018 -2.9457
  762MOL0     H 5127   2.057   5.002   7.938  3.2451 -0.1527  0.0264
  762MOL0     H 5128   2.178   5.206   7.755 -0.2570  1.5540  0.4207
  762MOL0     H 5129   2.067   5.252   7.890 -1.2253 -0.5754 -0.5884
  762MOL0     H 5130   2.323   5.077   7.922 -1.0651 -1.0573  1.0133
  762MOL0     H 5131   2.233   5.142   8.061 -1.2119 -0.3317 -0.3641
  762MOL0     H 5132   2.311   5.372   7.993 -0.1467 -0.1758  1.0807
  762MOL0     H 5133   2.392   5.302   7.852  0.7561  2.2001  0.6467
  762MOL0     H 5134   2.577   5.305   7.988 -1.4753  1.1244 -0.9044
  762MOL0     H 5135   2.521   5.140   8.017 -0.7884 -1.0926  3.7354
  762MOL0     H 5136   1.648   5.031   7.278 -0.8713  0.2136 -1.2455
  762MOL0     H 5137   1.430   5.071   7.186 -0.1409  2.3412  0.3669
  762MOL0     H 5138   0.933   5.022   7.498  2.0798  0.3822 -0.8242
  762MOL0     H 5139   0.692   5.097   7.447 -0.0852 -1.4723  0.1198
  762MOL0     H 5140   0.330   4.846   7.993  1.1535  0.7045 -1.1740
  762MOL0     H 5141   0.291   5.077   7.949 -2.7065  2.6091  3.1859
  762MOL0     H 5142   0.072   5.329   7.639  0.4094  0.2922 -1.1634
  762MOL0     H 5143   0.021   5.521   7.524 -1.4321  1.9182 -0.0867
  762MOL0     H 5144   0.054   5.891   7.468 -1.2390  0.0821 -0.0449
  762MOL0     H 5145   0.100   5.726   7.452 -0.7930 -3.2329  3.1124
  762MOL0     H 5146  -0.186   5.841   7.444 -3.5735 -2.4826  0.9788
  762MOL0     H 5147  -0.146   5.663   7.455 -0.0268  1.0549 -1.2900
  762MOL0     H 5148  -0.023   5.811   7.221  1.9285 -1.4506 -0.4039
  762MOL0     H 5149  -0.038   5.644   7.253 -1.2714  1.2148 -4.2348
  762MOL0     H 5150  -0.286   5.833   7.223  1.4119 -0.0100  3.6091
  762MOL0     H 5151  -0.292   5.661   7.238  0.3334 -1.1485 -0.8775
  762MOL0     H 5152  -0.173   5.654   6.840  3.1510 -1.9859  0.1856
  762MOL0     H 5153   0.055   5.775   7.864  0.1574 -0.6087  0.5112
  762MOL0     H 5154   0.001   5.478   8.109 -1.0029  0.8643  0.1544
  762MOL0     H 5155   0.153   5.543   8.109 -0.4381 -1.5027  2.0981
  762MOL0     H 5156   0.020   5.655   8.083  1.6988 -0.0075 -0.9869
  763MOL0     O 5157   1.573   9.858   3.460 -0.3143 -0.0333  0.1333
  763MOL0     C 5158   1.468   9.921   3.482 -0.2292 -0.2867 -0.4826
  763MOL0     O 5159   1.436   9.989   3.601  0.1742 -0.2401  0.4388
  763MOL0     C 5160   1.537  10.013   3.686  0.2190  0.3707 -0.0181
  763MOL0     C 5161   1.565   9.922   3.794 -0.4311  0.9518  0.5853
  763MOL0     C 5162   1.654   9.959   3.893 -0.5366  1.0888  0.9156
  763MOL0     C 5163   1.720  10.081   3.881  0.2795 -0.7419 -0.2697
  763MOL0     O 5164   1.801  10.142   3.969  0.7804 -0.5310  0.5174
  763MOL0     C 5165   1.840  10.075   4.085 -0.4355 -0.4166 -0.0940
  763MOL0     C 5166   1.925  10.148   4.181  0.1999  0.2655  0.5994
  763MOL0     C 5167   2.037  10.247   4.124  0.2968 -0.3992 -0.3070
  763MOL0     C 5168   1.988  10.385   4.087  0.0944  0.4434 -0.3440
  763MOL0     C 5169   2.056  10.450   3.974 -0.0345  0.2069  0.0739
  763MOL0     C 5170   2.036  10.377   3.841 -1.4010  0.3862  1.0007
  763MOL0     C 5171   2.166  10.406   3.750  0.7955 -0.1352 -0.3304
  763MOL0     C 5172   2.151  10.348   3.615  0.6231  0.2597  0.0158
  763MOL0     N 5173   2.265  10.362   3.528 -0.0829  0.6019 -0.6560
  763MOL0     C 5174   2.322  10.477   3.481  0.3472 -0.4256  0.2157
  763MOL0     C 5175   2.404  10.450   3.378  0.4588  1.3635 -0.9282
  763MOL0     C 5176   2.477  10.542   3.276  0.5151 -0.4186 -0.4140
  763MOL0     C 5177   2.474  10.691   3.307  0.0873  0.2375  0.1895
  763MOL0     C 5178   2.597  10.761   3.237 -0.3240  0.0391  0.1668
  763MOL0     C 5179   2.601  10.750   3.081  0.5517  0.1549  0.1195
  763MOL0     O 5180   2.475  10.786   3.019  0.5434 -0.0777 -0.1937
  763MOL0     C 5181   2.449  10.916   2.990 -0.2265 -0.2622  0.6518
  763MOL0     C 5182   2.527  11.030   3.031  0.2608  0.8215 -0.3042
  763MOL0     C 5183   2.500  11.161   2.993  0.0392 -0.5240  0.3478
  763MOL0     C 5184   2.599  11.265   3.047 -0.0732 -0.9278 -0.4727
  763MOL0     C 5185   2.380  11.197   2.919  0.1467  0.0269  0.0773
  763MOL0     C 5186   2.342  11.343   2.877 -0.6330 -0.7027 -0.2354
  763MOL0     O 5187   2.206  11.359   2.830  0.5969  0.0133 -0.1562
  763MOL0     C 5188   2.185  11.463   2.744  0.2193  0.8451 -0.2629
  763MOL0     C 5189   2.222  11.456   2.607 -0.5605  0.0152 -0.0203
  763MOL0     C 5190   2.174  11.556   2.509  0.1537  0.3581 -0.0379
  763MOL0     C 5191   2.086  11.654   2.559  0.1198  0.0043  0.2469
  763MOL0     O 5192   2.039  11.753   2.478 -0.0457  0.3445  0.3192
  763MOL0     C 5193   2.070  11.889   2.515  0.9322 -0.0494  0.7805
  763MOL0     C 5194   2.217  11.920   2.509  0.3795  0.5317 -0.1984
  763MOL0     C 5195   2.257  12.072   2.525 -1.3276  1.0251 -0.1914
  763MOL0     C 5196   2.250  12.155   2.407 -0.7208 -0.2487  0.6457
  763MOL0     C 5197   2.299  12.297   2.439  0.1342  0.4401 -0.3861
  763MOL0     C 5198   2.242  12.388   2.328 -0.0440  1.1826 -0.7683
  763MOL0     C 5199   2.261  12.537   2.357 -0.0150  0.0860 -0.6291
  763MOL0     C 5200   2.224  12.619   2.235  0.2785  0.0383 -0.4738
  763MOL0    Cl 5201   2.291  12.783   2.251  0.3103 -0.0277 -0.1887
  763MOL0     C 5202   2.061  11.666   2.698  0.6794  0.2989 -0.0266
  763MOL0     C 5203   2.116  11.565   2.784 -0.4415  0.5617 -0.4578
  763MOL0     O 5204   2.428  11.429   2.870  0.5165  1.2143 -0.5631
  763MOL0     C 5205   2.294  11.085   2.890 -0.0731 -0.1297  0.0511
  763MOL0     C 5206   2.332  10.950   2.923  0.9994  0.4531 -0.7924
  763MOL0     N 5207   2.409  10.309   3.369 -0.0103 -0.0035 -0.1154
  763MOL0     N 5208   2.320  10.264   3.451 -0.1482 -0.7463 -0.2242
  763MOL0     C 5209   1.686  10.173   3.777  0.3601  0.0107 -0.3936
  763MOL0     C 5210   1.595  10.135   3.680 -0.2960  0.4406 -0.4885
  763MOL0     C 5211   1.365   9.897   3.380 -0.6740  0.2348  0.2225
  763MOL0     C 5212   1.330   9.768   3.340  0.0833 -0.9583 -0.9903
  763MOL0     C 5213   1.237   9.745   3.247  0.1873  0.1829 -0.6833
  763MOL0     C 5214   1.174   9.853   3.180 -0.2709 -0.6081  0.2346
  763MOL0     O 5215   1.089   9.837   3.079  0.2946 -0.1216  0.4323
  763MOL0     C 5216   1.010   9.719   3.073  0.1019 -0.7516  0.1295
  763MOL0     C 5217   0.927   9.720   2.947  0.6402  0.7033 -0.1103
  763MOL0     C 5218   0.844   9.594   2.940 -0.3132  0.2477  0.0568
  763MOL0     C 5219   0.759   9.581   2.818  0.2796  0.6942 -0.4590
  763MOL0     C 5220   0.681   9.454   2.807 -0.4328 -0.0429 -0.1623
  763MOL0     C 5221   0.609   9.358   2.794  0.0023 -1.0199 -0.3435
  763MOL0     C 5222   1.207   9.985   3.216  0.2714 -0.1489 -0.0529
  763MOL0     C 5223   1.312  10.007   3.311  0.5408 -0.2411 -0.4180
  763MOL0     C 5224   1.352  10.151   3.330 -0.5109  0.8466 -0.8896
  763MOL0     H 5225   1.513   9.827   3.793 -1.5339  1.5161 -1.6479
  763MOL0     H 5226   1.683   9.896   3.977 -1.0612  4.9199  4.2832
  763MOL0     H 5227   1.894   9.984   4.055 -0.9328 -0.0983 -2.0978
  763MOL0     H 5228   1.755  10.048   4.148 -1.0895  1.7368  0.0306
  763MOL0     H 5229   1.858  10.210   4.242  0.9767  1.0387  0.6823
  763MOL0     H 5230   1.965  10.082   4.257  1.8863  2.0149  1.3133
  763MOL0     H 5231   2.109  10.270   4.203  1.3432 -2.3828 -0.6228
  763MOL0     H 5232   2.106  10.206   4.050 -0.2595 -1.3477 -0.3211
  763MOL0     H 5233   1.889  10.372   4.044  0.4941  1.5402 -1.6880
  763MOL0     H 5234   1.991  10.455   4.170 -0.4136  1.1512 -0.9111
  763MOL0     H 5235   2.164  10.443   3.994  0.3816  4.2936 -0.0656
  763MOL0     H 5236   2.029  10.555   3.968  0.2673  0.2091 -2.0935
  763MOL0     H 5237   2.016  10.270   3.850 -0.8742 -0.4464 -4.4605
  763MOL0     H 5238   1.948  10.418   3.790 -0.5207  2.8982  1.3795
  763MOL0     H 5239   2.257  10.384   3.807  3.1097  2.4488 -2.7069
  763MOL0     H 5240   2.166  10.515   3.738 -2.2417 -0.1061 -0.8117
  763MOL0     H 5241   2.126  10.242   3.628 -3.2218  0.6717 -2.4440
  763MOL0     H 5242   2.065  10.388   3.561 -1.5664 -3.3442  0.4780
  763MOL0     H 5243   2.293  10.579   3.508  2.5008  0.7459 -1.5653
  763MOL0     H 5244   2.427  10.529   3.180  1.2086  0.9906 -1.0090
  763MOL0     H 5245   2.583  10.514   3.278  0.3796 -0.9274 -0.1392
  763MOL0     H 5246   2.383  10.729   3.260  1.3264 -0.6960 -3.2767
  763MOL0     H 5247   2.485  10.717   3.413 -1.7654 -0.9263  0.6963
  763MOL0     H 5248   2.610  10.862   3.275  3.5575 -0.5297  0.7844
  763MOL0     H 5249   2.686  10.713   3.278  1.8605  1.7583 -2.2394
  763MOL0     H 5250   2.677  10.812   3.034  0.7417 -0.7630 -0.8035
  763MOL0     H 5251   2.638  10.650   3.058 -0.4891 -0.2599  0.1585
  763MOL0     H 5252   2.623  11.011   3.078  0.6687  1.1117 -1.0017
  763MOL0     H 5253   2.661  11.236   3.132  1.7847  2.8244 -0.3498
  763MOL0     H 5254   2.550  11.359   3.072 -0.9710 -0.8608 -2.2978
  763MOL0     H 5255   2.678  11.269   2.971 -0.5173  0.4711 -0.8948
  763MOL0     H 5256   2.281  11.375   2.566 -0.1737 -0.0611  0.6881
  763MOL0     H 5257   2.174  11.557   2.401 -5.0181 -0.7382 -0.3374
  763MOL0     H 5258   2.020  11.953   2.442  0.0689 -0.5451  0.9130
  763MOL0     H 5259   2.020  11.923   2.606 -2.0596  0.6900 -0.9789
  763MOL0     H 5260   2.264  11.855   2.584  0.0014 -0.4378 -0.7984
  763MOL0     H 5261   2.248  11.881   2.412 -0.4853  0.7943 -0.5913
  763MOL0     H 5262   2.364  12.071   2.550 -1.1193 -2.3461 -0.7975
  763MOL0     H 5263   2.211  12.120   2.612  0.3972  1.9658  0.2546
  763MOL0     H 5264   2.144  12.152   2.380 -1.3293 -0.9380  2.8739
  763MOL0     H 5265   2.297  12.117   2.316 -2.0657  0.5671 -0.4350
  763MOL0     H 5266   2.248  12.334   2.527  0.9715  1.5503 -0.3404
  763MOL0     H 5267   2.406  12.312   2.460 -0.2819  1.0584  1.4368
  763MOL0     H 5268   2.134  12.370   2.324  0.1263  0.1522 -0.9420
  763MOL0     H 5269   2.277  12.367   2.227 -2.1156 -0.1156 -1.2865
  763MOL0     H 5270   2.368  12.554   2.373 -0.2015  0.2741  0.5020
  763MOL0     H 5271   2.206  12.555   2.450  2.2841  0.5973  0.6946
  763MOL0     H 5272   2.115  12.618   2.224 -0.0817 -5.8654  0.5174
  763MOL0     H 5273   2.275  12.566   2.154  1.0356  0.1087 -0.0526
  763MOL0     H 5274   2.000  11.750   2.731 -0.9867 -0.8742  0.0243
  763MOL0     H 5275   2.113  11.560   2.892  4.3140  2.1733 -0.0181
  763MOL0     H 5276   2.203  11.100   2.833  0.5556  1.2158 -0.6373
  763MOL0     H 5277   2.263  10.868   2.904  2.4900 -1.1742  0.5086
  763MOL0     H 5278   1.731  10.272   3.779 -0.2978  0.3110 -0.2188
  763MOL0     H 5279   1.569  10.208   3.604 -0.1834  3.0733  1.8467
  763MOL0     H 5280   1.369   9.690   3.404 -1.2719  0.6570  2.0527
  763MOL0     H 5281   1.211   9.644   3.217  3.2524 -0.8793 -0.0549
  763MOL0     H 5282   1.084   9.639   3.063 -0.8712 -1.7527  0.6663
  763MOL0     H 5283   0.946   9.697   3.159 -0.4626 -1.3505 -0.4308
  763MOL0     H 5284   0.989   9.729   2.857  0.5158 -1.8594 -0.5515
  763MOL0     H 5285   0.860   9.803   2.967  1.9097  2.1552 -1.5841
  763MOL0     H 5286   0.911   9.507   2.947 -1.2498 -0.6071 -1.1766
  763MOL0     H 5287   0.774   9.586   3.023 -1.8401 -0.7479 -1.2701
  763MOL0     H 5288   0.829   9.580   2.734 -0.0832  0.9468 -0.7667
  763MOL0     H 5289   0.690   9.665   2.832  0.0686  0.3198  0.8845
  763MOL0     H 5290   0.542   9.276   2.782  1.1232 -1.9873 -0.1752
  763MOL0     H 5291   1.166  10.061   3.151  2.4583  0.4274 -0.8479
  763MOL0     H 5292   1.460  10.165   3.325 -0.1201 -1.5884 -0.3834
  763MOL0     H 5293   1.305  10.216   3.256 -0.4837  1.5250 -0.3208
  763MOL0     H 5294   1.313  10.182   3.428 -0.3640  1.3548 -0.9911
  764MOL0     O 5295   7.378   7.495  10.938 -0.3400  0.1801  0.3021
  764MOL0     C 5296   7.307   7.454  10.843 -1.2320  0.3544 -0.6411
  764MOL0     O 5297   7.198   7.368  10.855 -0.3530  0.6558 -0.9167
  764MOL0     C 5298   7.160   7.318  10.979  0.7474  0.1178 -0.0033
  764MOL0     C 5299   7.134   7.185  10.996  0.2995 -0.8553 -0.4666
  764MOL0     C 5300   7.094   7.137  11.123  0.7618  0.6002  0.3558
  764MOL0     C 5301   7.080   7.222  11.234 -0.9559  0.4917  0.8474
  764MOL0     O 5302   7.047   7.181  11.359 -0.0637  0.9850 -0.0951
  764MOL0     C 5303   7.001   7.052  11.387  0.3687  0.3956  0.5439
  764MOL0     C 5304   6.951   7.042  11.534 -0.3064 -0.2381 -0.2393
  764MOL0     C 5305   7.031   6.945  11.626 -0.1170 -0.2767  0.3488
  764MOL0     C 5306   6.963   6.913  11.758 -0.5627 -0.5612 -0.0183
  764MOL0     C 5307   6.816   6.876  11.747 -0.7858  0.3212 -0.1505
  764MOL0     C 5308   6.754   6.841  11.878  0.0693  1.4937  0.0021
  764MOL0     C 5309   6.616   6.788  11.859 -0.2925  0.1591  0.2254
  764MOL0     C 5310   6.584   6.719  11.994  0.4914 -0.5273 -0.8227
  764MOL0     N 5311   6.448   6.757  12.023 -0.2737 -0.3965  0.6778
  764MOL0     C 5312   6.403   6.831  12.132 -1.0652  0.1582 -0.0854
  764MOL0     C 5313   6.267   6.826  12.124 -0.4767 -0.0333 -0.2591
  764MOL0     C 5314   6.175   6.871  12.232 -0.5401 -0.6028 -0.1394
  764MOL0     C 5315   6.042   6.911  12.179  0.1068  0.0333  0.0718
  764MOL0     C 5316   5.960   6.978  12.290  0.3082 -0.4113 -0.5423
  764MOL0     C 5317   6.020   7.121  12.313 -0.0971  1.0048  0.3958
  764MOL0     O 5318   5.943   7.175  12.414 -0.2621  0.3398  0.3470
  764MOL0     C 5319   6.002   7.258  12.509 -0.2680 -0.1564  1.0860
  764MOL0     C 5320   6.091   7.358  12.454  0.3687  0.2692 -0.7864
  764MOL0     C 5321   6.135   7.457  12.547  0.0389  0.5028  0.5295
  764MOL0     C 5322   6.235   7.557  12.490 -1.0148  0.2570 -0.5641
  764MOL0     C 5323   6.088   7.460  12.683  0.9972  0.7483 -0.4437
  764MOL0     C 5324   6.124   7.558  12.789 -0.3733  0.1267  0.1923
  764MOL0     O 5325   6.137   7.515  12.911 -0.3063  0.0338  0.4487
  764MOL0     C 5326   6.164   7.609  13.006 -0.1994 -0.2212 -0.0418
  764MOL0     C 5327   6.073   7.713  13.041 -0.1951  0.1743  0.3557
  764MOL0     C 5328   6.102   7.799  13.147  0.0518 -0.3257  0.6637
  764MOL0     C 5329   6.219   7.781  13.226 -0.6343 -0.5053  0.2843
  764MOL0     O 5330   6.262   7.863  13.332  0.7266 -1.0835  0.1133
  764MOL0     C 5331   6.167   7.957  13.370  0.9796  1.0827 -0.7247
  764MOL0     C 5332   6.204   8.015  13.498  0.0768  0.5055 -0.2284
  764MOL0     C 5333   6.305   8.133  13.477  0.1104 -0.3481 -0.2484
  764MOL0     C 5334   6.335   8.179  13.618 -0.7090  0.0688 -0.3668
  764MOL0     C 5335   6.425   8.309  13.624 -1.0042  0.2106  0.1139
  764MOL0     C 5336   6.456   8.370  13.761 -0.1145 -0.1615  0.2673
  764MOL0     C 5337   6.468   8.527  13.750  0.2236  0.4685 -0.9286
  764MOL0     C 5338   6.521   8.567  13.893  0.2108  1.4773  0.0630
  764MOL0    Cl 5339   6.494   8.745  13.913  0.2873 -0.3051  0.2686
  764MOL0     C 5340   6.302   7.675  13.189 -0.8044 -0.6224 -0.1356
  764MOL0     C 5341   6.276   7.595  13.082  0.6567 -1.0247 -0.1138
  764MOL0     O 5342   6.140   7.673  12.746  0.2710 -0.2742 -0.0020
  764MOL0     C 5343   5.992   7.365  12.732 -0.2566  0.1227  0.4604
  764MOL0     C 5344   5.950   7.263  12.642  0.2281  0.9337  0.9436
  764MOL0     N 5345   6.236   6.764  12.003 -0.3704 -0.5100  0.2623
  764MOL0     N 5346   6.345   6.716  11.948  0.3227  0.4324 -0.1691
  764MOL0     C 5347   7.089   7.356  11.208 -0.8768 -0.3164 -1.2048
  764MOL0     C 5348   7.138   7.400  11.085 -0.2467 -0.5651 -0.2261
  764MOL0     C 5349   7.329   7.514  10.701  0.0176  0.4944 -0.4687
  764MOL0     C 5350   7.237   7.475  10.606  0.4194  0.3932 -0.0570
  764MOL0     C 5351   7.244   7.508  10.479 -0.9871  0.1656  0.6123
  764MOL0     C 5352   7.340   7.591  10.430 -0.1555  0.3633 -0.6995
  764MOL0     O 5353   7.336   7.625  10.301  0.3511  0.1175 -0.5019
  764MOL0     C 5354   7.400   7.744  10.252 -0.8159 -0.1454  1.0263
  764MOL0     C 5355   7.381   7.760  10.098  0.6763  0.2255 -0.2855
  764MOL0     C 5356   7.499   7.808  10.021 -0.4992  0.2555  0.4676
  764MOL0     C 5357   7.536   7.959  10.063 -0.3171 -0.1076 -0.0270
  764MOL0     C 5358   7.444   8.060  10.001 -0.6861  0.3038  0.4008
  764MOL0     C 5359   7.385   8.132   9.927  0.3962 -0.1045 -0.1183
  764MOL0     C 5360   7.443   7.634  10.516 -0.1270 -0.0256 -0.2992
  764MOL0     C 5361   7.440   7.598  10.654  0.9248  0.1043  0.8053
  764MOL0     C 5362   7.551   7.641  10.742 -0.2478 -0.1799  0.4121
  764MOL0     H 5363   7.160   7.110  10.922 -2.0524 -0.8164 -1.4087
  764MOL0     H 5364   7.069   7.032  11.131 -2.8679  1.0789 -2.1506
  764MOL0     H 5365   7.086   6.988  11.360 -0.4329 -0.0833 -0.9947
  764MOL0     H 5366   6.928   7.012  11.316  2.3494 -2.3432 -0.1169
  764MOL0     H 5367   6.960   7.141  11.581  3.1062 -1.3648  1.8199
  764MOL0     H 5368   6.848   7.006  11.528  0.4421 -2.4520 -0.5128
  764MOL0     H 5369   7.051   6.853  11.569  0.1432 -0.4552  0.7191
  764MOL0     H 5370   7.131   6.988  11.635 -0.5416  0.8518 -0.1369
  764MOL0     H 5371   7.031   6.838  11.800 -1.4577 -1.4094 -0.0445
  764MOL0     H 5372   6.955   7.002  11.821  1.2012  0.6854 -1.4637
  764MOL0     H 5373   6.817   6.788  11.681 -1.0236  0.0552  0.2014
  764MOL0     H 5374   6.753   6.953  11.701 -0.2944  0.8091 -0.0070
  764MOL0     H 5375   6.821   6.771  11.929 -0.7271 -0.3441 -1.3074
  764MOL0     H 5376   6.748   6.928  11.943 -0.4301  1.1343  0.4419
  764MOL0     H 5377   6.608   6.713  11.779  0.6775  0.7999 -0.4937
  764MOL0     H 5378   6.552   6.873  11.832 -2.2188 -1.1002  0.5601
  764MOL0     H 5379   6.589   6.613  11.967  1.2475 -0.0338 -2.7842
  764MOL0     H 5380   6.647   6.741  12.081  3.5798 -0.4574 -2.9057
  764MOL0     H 5381   6.462   6.872  12.213 -1.4341  1.6669 -0.5598
  764MOL0     H 5382   6.219   6.958  12.282 -1.1531 -0.2263 -0.2458
  764MOL0     H 5383   6.158   6.785  12.297 -0.2444 -2.2211 -2.1148
  764MOL0     H 5384   6.053   6.977  12.093  0.3612  1.6474  1.3062
  764MOL0     H 5385   5.993   6.826  12.130 -0.2456 -0.7733  1.7716
  764MOL0     H 5386   5.859   6.987  12.250 -0.3846  0.5707  1.3042
  764MOL0     H 5387   5.961   6.914  12.379  2.1111  0.8340  0.3946
  764MOL0     H 5388   6.125   7.120  12.344  0.3230  0.8641 -0.9741
  764MOL0     H 5389   5.999   7.185  12.227  1.8073  0.1860 -0.7268
  764MOL0     H 5390   6.126   7.350  12.351  0.1660  1.5285 -0.9618
  764MOL0     H 5391   6.189   7.656  12.488 -2.6423 -0.4655 -2.4593
  764MOL0     H 5392   6.263   7.542  12.385 -2.4894  1.7602 -1.2230
  764MOL0     H 5393   6.327   7.538  12.547 -2.0097 -2.9413  0.2037
  764MOL0     H 5394   5.988   7.722  12.974 -1.6820 -3.1439  1.6088
  764MOL0     H 5395   6.038   7.886  13.159 -0.3917 -0.8269  2.0700
  764MOL0     H 5396   6.166   8.033  13.291  0.0507 -0.7745 -2.5837
  764MOL0     H 5397   6.066   7.916  13.375  1.0189  1.0861  0.4791
  764MOL0     H 5398   6.112   8.057  13.540  0.6244  2.2447 -0.6921
  764MOL0     H 5399   6.236   7.944  13.574 -0.1686  3.0432  2.4271
  764MOL0     H 5400   6.263   8.224  13.433 -0.7114  1.5256  3.8895
  764MOL0     H 5401   6.388   8.096  13.417 -0.4464 -0.6092 -0.8765
  764MOL0     H 5402   6.380   8.098  13.675 -0.2884  1.8823  2.0067
  764MOL0     H 5403   6.247   8.200  13.679 -2.5981 -1.1373 -2.5040
  764MOL0     H 5404   6.520   8.299  13.569 -1.2734  0.1344 -0.3425
  764MOL0     H 5405   6.369   8.386  13.572  0.0641  1.1542  0.3204
  764MOL0     H 5406   6.548   8.329  13.804  0.1290  1.3144  1.2482
  764MOL0     H 5407   6.380   8.343  13.834 -2.1347  1.5321 -1.0932
  764MOL0     H 5408   6.368   8.568  13.736  1.1919  2.2047 -3.2902
  764MOL0     H 5409   6.532   8.569  13.672  0.6921  2.5400  0.4945
  764MOL0     H 5410   6.622   8.526  13.904 -1.4467 -3.9609 -1.4714
  764MOL0     H 5411   6.462   8.512  13.967  0.8961  0.4159 -0.1618
  764MOL0     H 5412   6.400   7.670  13.236 -0.4738  2.4317 -0.3249
  764MOL0     H 5413   6.338   7.507  13.068 -0.0028 -2.0855  2.7977
  764MOL0     H 5414   5.969   7.364  12.838  1.3387 -1.0925  0.8320
  764MOL0     H 5415   5.880   7.185  12.671  2.7111 -2.5299 -1.4471
  764MOL0     H 5416   7.078   7.422  11.294  0.0481 -1.2077 -0.3817
  764MOL0     H 5417   7.162   7.506  11.080 -0.5018 -0.5194 -0.5100
  764MOL0     H 5418   7.161   7.403  10.633 -0.1020  0.0214 -2.3262
  764MOL0     H 5419   7.174   7.467  10.407 -0.8806  3.0450 -1.2855
  764MOL0     H 5420   7.366   7.829  10.312 -0.8660 -0.5167  1.5254
  764MOL0     H 5421   7.509   7.737  10.262 -0.9116 -0.5473  1.9075
  764MOL0     H 5422   7.290   7.816  10.074 -1.1563 -1.7052  1.6675
  764MOL0     H 5423   7.357   7.662  10.057  1.4829 -0.0395 -0.1486
  764MOL0     H 5424   7.583   7.738  10.026  0.4302  1.3934  1.3419
  764MOL0     H 5425   7.475   7.806   9.914  1.5379 -0.3934 -0.0167
  764MOL0     H 5426   7.644   7.968  10.043 -0.6644  2.0367 -1.2337
  764MOL0     H 5427   7.538   7.977  10.171  0.4287  0.5877 -0.1445
  764MOL0     H 5428   7.332   8.213   9.882 -0.8635 -0.4499  0.6948
  764MOL0     H 5429   7.525   7.697  10.484  1.6688  0.6916  4.9164
  764MOL0     H 5430   7.612   7.552  10.757 -0.4753 -0.5395 -0.6911
  764MOL0     H 5431   7.609   7.721  10.695  3.5200 -1.1297  2.9791
  764MOL0     H 5432   7.507   7.681  10.834  1.3158 -1.5330  1.8133
  765MOL0     O 5433   4.318   9.204   4.247 -0.5026  0.2335 -0.1893
  765MOL0     C 5434   4.281   9.123   4.324  0.2617 -0.6363 -0.1542
  765MOL0     O 5435   4.347   9.004   4.345  0.2981 -0.2980 -0.0086
  765MOL0     C 5436   4.386   8.950   4.225 -0.7748  0.3140 -0.7023
  765MOL0     C 5437   4.514   8.899   4.215 -0.0940  0.3580  0.7430
  765MOL0     C 5438   4.555   8.811   4.109  0.0644 -0.3910 -0.4955
  765MOL0     C 5439   4.476   8.782   4.004 -0.4993  0.7295  0.0457
  765MOL0     O 5440   4.495   8.702   3.896 -0.6704 -0.0328  0.9342
  765MOL0     C 5441   4.624   8.664   3.845  0.3144 -0.5985 -0.0368
  765MOL0     C 5442   4.701   8.780   3.784 -0.0083  0.9082 -1.1093
  765MOL0     C 5443   4.632   8.843   3.670  0.1366 -0.4519  0.2992
  765MOL0     C 5444   4.719   8.956   3.605  0.6684  0.7988 -1.1090
  765MOL0     C 5445   4.652   9.011   3.476  0.2110  0.4182 -0.6512
  765MOL0     C 5446   4.511   9.064   3.494  0.6573  0.2920 -0.6030
  765MOL0     C 5447   4.500   9.205   3.412  0.8954 -0.3984 -0.0378
  765MOL0     C 5448   4.353   9.252   3.432 -0.1223 -0.4113  0.2812
  765MOL0     N 5449   4.301   9.361   3.341  0.1689 -0.3301  0.1419
  765MOL0     C 5450   4.167   9.379   3.330  0.5482 -0.9104 -0.2100
  765MOL0     C 5451   4.159   9.450   3.216  0.8483 -0.9661 -0.2753
  765MOL0     C 5452   4.025   9.493   3.151 -0.4843  0.3769 -0.7330
  765MOL0     C 5453   3.969   9.391   3.049  0.1468  0.4216 -0.0516
  765MOL0     C 5454   4.082   9.331   2.959  0.1746 -0.4728  0.5699
  765MOL0     C 5455   4.033   9.222   2.853  0.7489  0.1541  0.3347
  765MOL0     O 5456   4.146   9.164   2.785  0.4623  0.5627  0.2107
  765MOL0     C 5457   4.163   9.037   2.740  0.2097 -0.0838  0.5322
  765MOL0     C 5458   4.054   8.946   2.741 -0.9116 -0.2068  0.4334
  765MOL0     C 5459   4.077   8.814   2.687 -0.0788 -0.1723 -0.4175
  765MOL0     C 5460   3.953   8.736   2.658 -0.1418  0.0590  0.0519
  765MOL0     C 5461   4.202   8.777   2.636 -0.3195 -0.0230  0.5068
  765MOL0     C 5462   4.242   8.642   2.581  0.5207 -0.3404 -0.3419
  765MOL0     O 5463   4.381   8.618   2.566 -0.0954  0.2976 -0.3456
  765MOL0     C 5464   4.426   8.499   2.512 -0.6568 -0.0648 -0.3010
  765MOL0     C 5465   4.496   8.486   2.391 -0.2979 -1.0081 -0.4771
  765MOL0     C 5466   4.525   8.360   2.348  0.4509 -0.3424 -0.0563
  765MOL0     C 5467   4.465   8.246   2.388 -0.7597  0.5284 -0.2065
  765MOL0     O 5468   4.502   8.127   2.334  0.5850  0.8083  0.6789
  765MOL0     C 5469   4.603   8.117   2.223  0.1749  0.0300 -0.9932
  765MOL0     C 5470   4.562   8.140   2.082 -0.1426  0.4588  0.2572
  765MOL0     C 5471   4.465   8.043   2.016  0.3092  0.5449 -0.3946
  765MOL0     C 5472   4.532   7.923   1.944 -0.5245  0.4777 -0.1078
  765MOL0     C 5473   4.534   7.929   1.787  0.8970  0.0969  0.9106
  765MOL0     C 5474   4.573   8.070   1.728  1.2199  0.5545 -0.5471
  765MOL0     C 5475   4.644   8.062   1.599  0.1568  0.2834 -0.1878
  765MOL0     C 5476   4.566   8.008   1.479  0.2732  0.4385 -0.0524
  765MOL0    Cl 5477   4.449   8.137   1.423  0.1656  0.1450  0.2412
  765MOL0     C 5478   4.402   8.254   2.515 -0.5186 -0.1187  0.2179
  765MOL0     C 5479   4.378   8.386   2.572  0.3102 -0.1261 -0.5215
  765MOL0     O 5480   4.151   8.566   2.541  0.0076 -0.7011 -0.3163
  765MOL0     C 5481   4.303   8.869   2.633  0.4947  0.0648  0.1306
  765MOL0     C 5482   4.284   9.001   2.679  0.3252  0.7836  0.6864
  765MOL0     N 5483   4.286   9.474   3.165 -0.6102 -0.3905  1.0601
  765MOL0     N 5484   4.361   9.415   3.238  0.1271 -0.1071 -0.0286
  765MOL0     C 5485   4.351   8.843   4.001  0.3788  0.2973 -0.5428
  765MOL0     C 5486   4.299   8.910   4.121 -0.2230 -0.0637 -0.1245
  765MOL0     C 5487   4.150   9.144   4.405 -0.5649 -0.4593  0.5283
  765MOL0     C 5488   4.111   9.281   4.414  0.5218 -0.7499  0.6064
  765MOL0     C 5489   3.990   9.317   4.480 -0.6736 -0.0441  1.6796
  765MOL0     C 5490   3.912   9.219   4.547 -0.2356 -0.4673 -0.3093
  765MOL0     O 5491   3.800   9.258   4.609 -0.0303 -0.2056  0.3058
  765MOL0     C 5492   3.819   9.297   4.740 -0.0231 -0.6435 -0.3918
  765MOL0     C 5493   3.697   9.281   4.830  0.1117 -0.3948  0.3207
  765MOL0     C 5494   3.571   9.326   4.763  1.0136  0.0334  0.1766
  765MOL0     C 5495   3.449   9.323   4.846 -1.1424 -1.1469 -0.6900
  765MOL0     C 5496   3.337   9.384   4.778  0.8077 -0.2453 -0.4463
  765MOL0     C 5497   3.262   9.417   4.694  0.6512  1.1854 -0.4415
  765MOL0     C 5498   3.963   9.080   4.557  0.0812 -0.5690 -0.1789
  765MOL0     C 5499   4.074   9.047   4.485  0.0008  0.2009  0.2056
  765MOL0     C 5500   4.114   8.906   4.502 -0.6244 -0.2713 -0.6325
  765MOL0     H 5501   4.562   8.917   4.311  0.0236 -2.3317  1.2730
  765MOL0     H 5502   4.652   8.767   4.129  0.9656  2.2285  1.5324
  765MOL0     H 5503   4.616   8.583   3.772 -2.6954 -0.3762 -0.0480
  765MOL0     H 5504   4.688   8.626   3.926 -0.3982  0.7523  1.2153
  765MOL0     H 5505   4.717   8.854   3.862  1.0828 -1.8057  1.4553
  765MOL0     H 5506   4.797   8.735   3.753  0.4702  1.3708 -0.3189
  765MOL0     H 5507   4.605   8.773   3.590  3.0549  2.0407 -3.2789
  765MOL0     H 5508   4.539   8.888   3.703  0.9690  1.7717 -0.2054
  765MOL0     H 5509   4.721   9.037   3.679 -0.6494 -2.1684  2.4533
  765MOL0     H 5510   4.821   8.920   3.594  0.6741  0.4313  0.0478
  765MOL0     H 5511   4.660   8.936   3.396  1.8987  0.4250 -0.5267
  765MOL0     H 5512   4.708   9.091   3.428 -0.5016  0.6186 -1.1718
  765MOL0     H 5513   4.446   8.983   3.460 -1.2051  1.2260  0.5711
  765MOL0     H 5514   4.484   9.084   3.598  2.0794  0.3403 -0.2302
  765MOL0     H 5515   4.519   9.203   3.305  0.9484 -1.2720 -0.0183
  765MOL0     H 5516   4.567   9.280   3.454  1.1672 -0.9494  0.5331
  765MOL0     H 5517   4.283   9.168   3.417 -1.5284  1.3511 -5.6251
  765MOL0     H 5518   4.345   9.280   3.537 -0.9297 -0.5584  0.2717
  765MOL0     H 5519   4.078   9.337   3.375  1.0535  0.6169  2.4366
  765MOL0     H 5520   4.030   9.591   3.103 -2.1695  1.2297  0.6988
  765MOL0     H 5521   3.948   9.508   3.227  0.0054 -1.3224  0.1382
  765MOL0     H 5522   3.921   9.306   3.099 -0.7932 -0.0948 -1.7107
  765MOL0     H 5523   3.890   9.449   2.999 -1.6046  1.2950  3.4180
  765MOL0     H 5524   4.142   9.410   2.913  1.5086 -2.5808 -1.5856
  765MOL0     H 5525   4.143   9.264   3.022  1.1049 -1.1179 -0.9443
  765MOL0     H 5526   3.967   9.154   2.906  2.0561  0.1874  2.1024
  765MOL0     H 5527   3.974   9.274   2.777  0.5168 -0.3501  0.1691
  765MOL0     H 5528   3.958   8.970   2.785 -1.4761 -1.2313 -0.2344
  765MOL0     H 5529   3.870   8.808   2.664  3.4435  4.6506  0.4695
  765MOL0     H 5530   3.942   8.660   2.736  2.0099 -1.2518 -0.8213
  765MOL0     H 5531   3.947   8.680   2.564  2.9413 -4.3015  2.1152
  765MOL0     H 5532   4.538   8.575   2.346 -2.0842  1.2357  2.0023
  765MOL0     H 5533   4.582   8.364   2.256  1.3021 -1.3911  0.3922
  765MOL0     H 5534   4.680   8.193   2.241 -1.5051  1.7167 -0.6814
  765MOL0     H 5535   4.648   8.018   2.235  0.9119  0.6682  3.2288
  765MOL0     H 5536   4.519   8.240   2.071  1.0853  1.0305  0.4407
  765MOL0     H 5537   4.663   8.129   2.040 -0.6256  2.2546 -1.5008
  765MOL0     H 5538   4.402   8.096   1.943  1.3651  1.0334 -0.9805
  765MOL0     H 5539   4.398   8.007   2.095 -0.1541  0.5250 -0.7956
  765MOL0     H 5540   4.475   7.835   1.976  1.1880 -1.0069 -0.9811
  765MOL0     H 5541   4.634   7.904   1.979 -0.5764  0.8820  0.2780
  765MOL0     H 5542   4.602   7.857   1.741  1.4914  3.1549 -3.7019
  765MOL0     H 5543   4.432   7.893   1.769  0.3124  2.0144  0.0438
  765MOL0     H 5544   4.640   8.112   1.803  0.8124  0.3222 -0.0448
  765MOL0     H 5545   4.482   8.130   1.714  1.9978  2.0139  0.3368
  765MOL0     H 5546   4.729   8.000   1.626  0.6203  2.1622  3.0897
  765MOL0     H 5547   4.687   8.159   1.573 -2.8424  1.6693 -0.4961
  765MOL0     H 5548   4.506   7.918   1.495  1.2948 -0.2205  0.1627
  765MOL0     H 5549   4.642   7.989   1.403 -0.7664 -0.4126 -0.9302
  765MOL0     H 5550   4.369   8.166   2.570 -0.0006 -1.1582 -1.0686
  765MOL0     H 5551   4.324   8.409   2.663  2.1706 -0.5865  0.7702
  765MOL0     H 5552   4.401   8.854   2.587  1.0408  5.6435 -1.3479
  765MOL0     H 5553   4.363   9.075   2.691 -1.4909  2.8327  0.6356
  765MOL0     H 5554   4.282   8.830   3.918 -1.1086 -1.4011  0.8713
  765MOL0     H 5555   4.197   8.948   4.122  0.3879  1.8616  2.7795
  765MOL0     H 5556   4.185   9.352   4.377  2.5700 -1.9024  2.2995
  765MOL0     H 5557   3.950   9.418   4.472  0.8227  0.4590 -0.2471
  765MOL0     H 5558   3.896   9.248   4.799 -0.8129  0.4075  1.5982
  765MOL0     H 5559   3.849   9.401   4.754  0.3790 -0.9089  0.8346
  765MOL0     H 5560   3.727   9.345   4.914  0.2603 -1.8446  1.4208
  765MOL0     H 5561   3.688   9.179   4.868 -1.3707 -1.0461 -1.6304
  765MOL0     H 5562   3.586   9.421   4.712  1.0812  0.1159  0.3469
  765MOL0     H 5563   3.545   9.255   4.683 -3.7447 -0.2104  1.6105
  765MOL0     H 5564   3.473   9.374   4.940 -1.9126  1.7630 -1.9674
  765MOL0     H 5565   3.417   9.222   4.871 -0.0391 -1.4963 -0.6572
  765MOL0     H 5566   3.196   9.454   4.618 -3.8808 -0.8570  2.1078
  765MOL0     H 5567   3.916   9.009   4.624 -1.1104 -1.8682 -2.2600
  765MOL0     H 5568   4.033   8.833   4.495  0.8045 -2.1058  0.8473
  765MOL0     H 5569   4.183   8.873   4.423  0.2562  3.4170 -1.5859
  765MOL0     H 5570   4.158   8.898   4.602 -2.5193 -1.3969  0.1579
  766MOL0     O 5571   8.666   5.125   6.571 -0.3873 -0.1829 -0.2143
  766MOL0     C 5572   8.678   5.032   6.484 -0.2137 -0.4312  0.7140
  766MOL0     O 5573   8.665   4.895   6.510  0.1995  0.5383  0.4424
  766MOL0     C 5574   8.614   4.866   6.631 -1.2451  0.6404 -0.5159
  766MOL0     C 5575   8.485   4.891   6.674  0.6796  1.1585 -0.3744
  766MOL0     C 5576   8.437   4.839   6.804  0.1684 -0.0857 -0.5360
  766MOL0     C 5577   8.532   4.773   6.893 -0.1880 -0.3159  0.1850
  766MOL0     O 5578   8.477   4.731   7.011  0.2409 -0.4923  0.1806
  766MOL0     C 5579   8.535   4.768   7.134 -0.8019 -0.0511  0.1328
  766MOL0     C 5580   8.582   4.650   7.230 -0.8371 -1.1047  0.7991
  766MOL0     C 5581   8.721   4.591   7.201 -0.1288  0.6405 -1.1264
  766MOL0     C 5582   8.704   4.456   7.130 -0.8951 -0.2432 -0.6245
  766MOL0     C 5583   8.829   4.375   7.122 -0.9651  0.1358 -0.5291
  766MOL0     C 5584   8.935   4.454   7.042  0.3967  0.5031 -0.8225
  766MOL0     C 5585   9.066   4.371   7.020  0.1643  0.2071 -0.9570
  766MOL0     C 5586   9.175   4.470   6.977  0.7064 -1.2684 -0.2389
  766MOL0     N 5587   9.223   4.550   7.091  1.1028 -0.3423 -0.3076
  766MOL0     C 5588   9.252   4.499   7.215  0.3344  0.4755  0.9419
  766MOL0     C 5589   9.257   4.611   7.287 -0.2489  0.1621 -0.3038
  766MOL0     C 5590   9.264   4.618   7.436 -0.6573 -0.4893 -0.3294
  766MOL0     C 5591   9.167   4.528   7.510  0.0442  0.4647  0.7201
  766MOL0     C 5592   9.187   4.529   7.660  0.7639 -0.5003  0.5950
  766MOL0     C 5593   9.316   4.461   7.698 -0.7107  0.3192 -0.8299
  766MOL0     O 5594   9.318   4.431   7.838 -0.6004 -0.2949  0.1367
  766MOL0     C 5595   9.407   4.342   7.887  0.7228  0.1884  0.1271
  766MOL0     C 5596   9.515   4.277   7.826  0.9183 -0.0376 -0.3660
  766MOL0     C 5597   9.603   4.188   7.894  0.2552  0.3751  0.0397
  766MOL0     C 5598   9.702   4.116   7.808  0.5572  0.3956  0.1886
  766MOL0     C 5599   9.575   4.156   8.034 -0.0195 -0.2242  0.3991
  766MOL0     C 5600   9.648   4.056   8.113  0.3485  0.1808 -0.1554
  766MOL0     O 5601   9.601   4.043   8.237 -0.3193 -0.4274 -0.5864
  766MOL0     C 5602   9.654   3.948   8.320  0.1782  0.4161  0.0202
  766MOL0     C 5603   9.790   3.937   8.353 -0.3278  0.1072 -0.3926
  766MOL0     C 5604   9.830   3.831   8.433  0.2070 -1.2482 -0.7053
  766MOL0     C 5605   9.744   3.745   8.497  0.2049 -0.6810 -0.8897
  766MOL0     O 5606   9.781   3.640   8.583 -0.2319 -0.9618 -0.6840
  766MOL0     C 5607   9.713   3.638   8.715 -0.1613 -0.0930  0.5649
  766MOL0     C 5608   9.793   3.533   8.798  0.7968  0.3479 -0.3821
  766MOL0     C 5609   9.768   3.527   8.946 -0.0274 -0.3487 -1.4629
  766MOL0     C 5610   9.644   3.445   8.981 -0.1760 -0.1338 -1.3945
  766MOL0     C 5611   9.633   3.445   9.132 -0.0806 -0.0983  0.6577
  766MOL0     C 5612   9.496   3.395   9.177 -0.2162 -1.0424 -0.4425
  766MOL0     C 5613   9.466   3.411   9.324  0.3144 -0.4902  0.3512
  766MOL0     C 5614   9.551   3.314   9.413 -0.1240  0.2935 -0.7517
  766MOL0    Cl 5615   9.517   3.351   9.582 -0.0669  0.1715 -0.2471
  766MOL0     C 5616   9.612   3.756   8.471 -0.1427  0.5395 -0.4875
  766MOL0     C 5617   9.571   3.855   8.380 -0.4440 -0.4547  0.2259
  766MOL0     O 5618   9.712   3.973   8.056 -0.5731 -0.1117 -0.3454
  766MOL0     C 5619   9.474   4.232   8.098 -0.3640 -0.1458  0.1540
  766MOL0     C 5620   9.391   4.320   8.027  0.0002  0.5846 -0.3723
  766MOL0     N 5621   9.240   4.720   7.209  0.3857  0.0075  0.2452
  766MOL0     N 5622   9.224   4.686   7.087  0.1715 -0.0789  0.2507
  766MOL0     C 5623   8.661   4.746   6.840 -0.1427  0.2691 -0.2064
  766MOL0     C 5624   8.698   4.787   6.713 -0.3796 -0.0267 -0.9397
  766MOL0     C 5625   8.711   5.059   6.336 -1.0573 -0.2600 -0.2323
  766MOL0     C 5626   8.733   4.953   6.255  0.0063 -0.1317 -0.4383
  766MOL0     C 5627   8.784   4.979   6.131  0.3161 -0.4518  0.2820
  766MOL0     C 5628   8.806   5.106   6.079  0.4543 -0.1999 -0.8398
  766MOL0     O 5629   8.864   5.132   5.958 -0.9200  0.1174  1.0717
  766MOL0     C 5630   8.976   5.049   5.928  0.6140  0.0749  0.2202
  766MOL0     C 5631   9.077   5.096   5.818  0.2211  1.1083  0.1136
  766MOL0     C 5632   9.175   5.205   5.870  0.5927  0.1694  0.5438
  766MOL0     C 5633   9.213   5.309   5.769 -1.2595  0.7928 -0.3253
  766MOL0     C 5634   9.284   5.246   5.660  0.5291  0.6703 -0.0521
  766MOL0     C 5635   9.340   5.206   5.562  0.9236  0.1436  0.0703
  766MOL0     C 5636   8.771   5.218   6.157 -0.2032  1.2805  1.0155
  766MOL0     C 5637   8.719   5.191   6.289  0.1852  0.4555 -0.4626
  766MOL0     C 5638   8.638   5.303   6.344  0.4382 -0.5268 -0.6941
  766MOL0     H 5639   8.423   4.946   6.604 -2.3438  0.7264  1.7735
  766MOL0     H 5640   8.336   4.850   6.842  0.4553 -2.5076  1.1359
  766MOL0     H 5641   8.472   4.839   7.189  1.1566 -0.3393  2.9930
  766MOL0     H 5642   8.626   4.823   7.107 -1.9261  0.1463 -3.9904
  766MOL0     H 5643   8.598   4.686   7.332  0.3050  0.4462  0.1038
  766MOL0     H 5644   8.505   4.572   7.235 -0.8620 -1.1763 -0.4482
  766MOL0     H 5645   8.783   4.662   7.145 -1.1292  2.2245 -0.3156
  766MOL0     H 5646   8.776   4.567   7.292 -1.5862  0.4539 -0.2613
  766MOL0     H 5647   8.620   4.402   7.174 -0.5878  0.9592  1.5761
  766MOL0     H 5648   8.658   4.466   7.031 -3.0548  1.3047  0.4602
  766MOL0     H 5649   8.803   4.277   7.080 -0.4521 -1.5889  2.8833
  766MOL0     H 5650   8.860   4.343   7.221 -1.6466 -0.4657 -0.5011
  766MOL0     H 5651   8.894   4.467   6.941  1.6187 -1.6724 -1.6846
  766MOL0     H 5652   8.957   4.541   7.103 -0.2327 -1.3629  2.3014
  766MOL0     H 5653   9.045   4.291   6.949 -3.1855 -0.0487  0.1647
  766MOL0     H 5654   9.094   4.317   7.111 -0.3293  0.1805 -0.8189
  766MOL0     H 5655   9.256   4.414   6.929  1.4931  2.6664 -4.1175
  766MOL0     H 5656   9.129   4.534   6.901 -3.2161 -1.1558  1.9355
  766MOL0     H 5657   9.257   4.393   7.239  2.8451  0.6125  1.3618
  766MOL0     H 5658   9.259   4.722   7.469  2.3895  0.1119 -1.3683
  766MOL0     H 5659   9.371   4.599   7.447 -0.7013 -0.8506 -0.5354
  766MOL0     H 5660   9.064   4.547   7.479 -0.2026  0.6964  1.6554
  766MOL0     H 5661   9.203   4.426   7.488  3.1616  1.6482 -0.2141
  766MOL0     H 5662   9.179   4.630   7.702  1.5938 -0.6913  1.2493
  766MOL0     H 5663   9.097   4.476   7.689  0.5807 -1.0373 -0.8712
  766MOL0     H 5664   9.329   4.365   7.648  1.8948  0.3960 -0.4541
  766MOL0     H 5665   9.406   4.519   7.677 -0.1697  0.8415  2.4649
  766MOL0     H 5666   9.539   4.300   7.722 -1.1138  0.9136 -0.6747
  766MOL0     H 5667   9.805   4.148   7.831  1.6906  0.3406 -4.0060
  766MOL0     H 5668   9.697   4.147   7.703 -0.5651 -0.1155  0.0842
  766MOL0     H 5669   9.690   4.007   7.811  0.1153  0.4675  1.3077
  766MOL0     H 5670   9.862   4.015   8.331  2.2549 -2.4717 -1.8474
  766MOL0     H 5671   9.936   3.827   8.455 -0.2538  0.7818  2.5751
  766MOL0     H 5672   9.714   3.734   8.767  0.8143  0.2488 -0.0510
  766MOL0     H 5673   9.608   3.614   8.700 -0.5164  1.7326 -0.1128
  766MOL0     H 5674   9.775   3.437   8.749 -0.8320  0.2172  0.4220
  766MOL0     H 5675   9.901   3.546   8.783  1.0276 -1.0981 -0.1708
  766MOL0     H 5676   9.767   3.628   8.989  1.7932 -0.5918 -0.7871
  766MOL0     H 5677   9.855   3.483   8.995  0.8757  2.9040  0.1556
  766MOL0     H 5678   9.640   3.346   8.934  0.7039  0.4501 -2.7448
  766MOL0     H 5679   9.552   3.493   8.947 -0.2426 -0.3233 -1.4843
  766MOL0     H 5680   9.711   3.383   9.176 -0.2092 -1.5302 -1.0131
  766MOL0     H 5681   9.650   3.547   9.165 -0.7915 -0.3620  1.9042
  766MOL0     H 5682   9.488   3.291   9.142 -0.5573 -1.3835  0.6232
  766MOL0     H 5683   9.418   3.454   9.129 -2.1879 -1.0171  2.5817
  766MOL0     H 5684   9.360   3.387   9.334  0.3785 -0.4061  1.3395
  766MOL0     H 5685   9.480   3.515   9.356  1.0605 -0.3276 -0.4575
  766MOL0     H 5686   9.660   3.322   9.403  0.4518 -0.4682  3.2276
  766MOL0     H 5687   9.522   3.211   9.391 -1.1112 -0.4249  3.1532
  766MOL0     H 5688   9.542   3.689   8.519  0.9717 -1.3642 -1.3881
  766MOL0     H 5689   9.467   3.864   8.348 -0.2217 -0.8579 -0.6361
  766MOL0     H 5690   9.455   4.214   8.203  0.4404  0.5029  0.4160
  766MOL0     H 5691   9.311   4.349   8.095  0.2295  1.7607 -0.5804
  766MOL0     H 5692   8.741   4.702   6.899 -1.3521 -0.5229  0.9006
  766MOL0     H 5693   8.804   4.766   6.699 -0.1317  0.7411 -0.3380
  766MOL0     H 5694   8.736   4.852   6.296  2.4141  0.2394  0.4635
  766MOL0     H 5695   8.810   4.893   6.070  3.0635  1.2437 -1.1579
  766MOL0     H 5696   9.025   5.024   6.022  2.3013 -1.8150 -1.0578
  766MOL0     H 5697   8.922   4.967   5.880  1.2540 -2.9966  4.2517
  766MOL0     H 5698   9.019   5.133   5.733  0.5008 -2.3739 -1.7871
  766MOL0     H 5699   9.128   5.006   5.780 -0.6876  1.7147 -2.7654
  766MOL0     H 5700   9.145   5.258   5.961 -0.7707 -0.8357  0.7109
  766MOL0     H 5701   9.263   5.141   5.884  1.2405  0.5839 -1.4240
  766MOL0     H 5702   9.276   5.388   5.811  0.5089 -1.4303  1.4405
  766MOL0     H 5703   9.122   5.352   5.726 -2.6722 -1.1521  0.5412
  766MOL0     H 5704   9.386   5.174   5.470 -0.0899 -0.4712 -0.2308
  766MOL0     H 5705   8.803   5.316   6.123  2.2852  0.2658  0.1480
  766MOL0     H 5706   8.535   5.267   6.356 -0.7266  2.1154 -1.9819
  766MOL0     H 5707   8.679   5.344   6.437  0.2731 -0.1044 -0.8036
  766MOL0     H 5708   8.629   5.395   6.286 -1.4587 -0.9802 -1.1823
  767MOL0     O 5709   4.507   2.172  10.697 -0.4708  0.3061 -0.4117
  767MOL0     C 5710   4.477   2.272  10.643  0.4086 -1.2612  0.1563
  767MOL0     O 5711   4.515   2.302  10.519 -0.5473  0.0263  0.1927
  767MOL0     C 5712   4.638   2.246  10.478  0.5867 -0.2420 -0.3638
  767MOL0     C 5713   4.651   2.125  10.405  0.8017 -0.1741 -0.8234
  767MOL0     C 5714   4.769   2.074  10.360 -1.0991  0.3642 -1.4849
  767MOL0     C 5715   4.888   2.125  10.405 -0.5385  0.0216 -0.1780
  767MOL0     O 5716   4.999   2.050  10.358 -0.3185 -0.3000  0.1862
  767MOL0     C 5717   5.128   2.108  10.383  0.7441 -0.3264  0.0748
  767MOL0     C 5718   5.151   2.242  10.291 -0.2900  1.2293  0.1952
  767MOL0     C 5719   5.159   2.214  10.138  0.8053 -0.7097  0.9860
  767MOL0     C 5720   5.244   2.309  10.056 -0.3073 -0.1691  0.1548
  767MOL0     C 5721   5.179   2.444  10.029  0.6998 -1.0569 -0.4858
  767MOL0     C 5722   5.225   2.519   9.897  0.8852  0.2384 -0.0968
  767MOL0     C 5723   5.146   2.647   9.847  0.2254 -0.1979  0.0704
  767MOL0     C 5724   5.197   2.701   9.711 -0.4812  0.3709  0.1639
  767MOL0     N 5725   5.108   2.644   9.613 -0.0917  0.2474  0.2696
  767MOL0     C 5726   4.988   2.693   9.580  0.1933  0.4507  0.1683
  767MOL0     C 5727   4.951   2.620   9.468 -0.0316 -0.5891 -0.2551
  767MOL0     C 5728   4.828   2.634   9.380 -0.7128  0.9682  0.3537
  767MOL0     C 5729   4.719   2.540   9.418  0.0401  0.2130  0.4714
  767MOL0     C 5730   4.587   2.566   9.330 -0.2603  0.5981  0.4382
  767MOL0     C 5731   4.532   2.708   9.349  0.0305  0.3589  0.8231
  767MOL0     O 5732   4.393   2.719   9.301 -0.0506  0.4703 -0.7101
  767MOL0     C 5733   4.362   2.792   9.192 -0.0748  0.4018  0.5652
  767MOL0     C 5734   4.244   2.750   9.136 -0.5490 -0.8871  0.8822
  767MOL0     C 5735   4.200   2.821   9.020  0.1450  1.0499 -1.0208
  767MOL0     C 5736   4.066   2.782   8.961  0.4589  0.0176 -0.0084
  767MOL0     C 5737   4.267   2.933   8.976 -1.0133 -0.2248  0.2035
  767MOL0     C 5738   4.212   3.013   8.857  0.1881  0.1534  0.3655
  767MOL0     O 5739   4.220   3.147   8.877 -0.2115  0.3942  0.4227
  767MOL0     C 5740   4.213   3.233   8.767  1.1551 -0.9547 -0.6853
  767MOL0     C 5741   4.174   3.365   8.797  0.1129  0.3384 -0.1243
  767MOL0     C 5742   4.167   3.459   8.688 -0.8293  0.1155 -0.3733
  767MOL0     C 5743   4.198   3.424   8.553  0.2632 -0.6706 -0.8307
  767MOL0     O 5744   4.199   3.531   8.464 -0.1515  0.8702  0.2910
  767MOL0     C 5745   4.201   3.489   8.322 -0.0595 -0.9835  0.5281
  767MOL0     C 5746   4.191   3.613   8.235  0.1551  0.8875 -0.4048
  767MOL0     C 5747   4.049   3.683   8.254  0.9629  0.3505 -0.4196
  767MOL0     C 5748   4.065   3.798   8.349  0.4631 -0.2637 -0.3758
  767MOL0     C 5749   3.928   3.852   8.383 -0.0041  0.1339 -0.7162
  767MOL0     C 5750   3.945   3.960   8.489  0.7346 -0.7900 -0.3607
  767MOL0     C 5751   3.803   4.033   8.515  0.7647 -1.0077 -1.2713
  767MOL0     C 5752   3.802   4.127   8.637 -0.5558 -1.0216  0.3128
  767MOL0    Cl 5753   3.647   4.219   8.641  0.4539 -0.4108  0.3488
  767MOL0     C 5754   4.240   3.296   8.522 -0.3496  0.5079  0.1054
  767MOL0     C 5755   4.250   3.201   8.627 -0.3638 -0.6671  0.0577
  767MOL0     O 5756   4.177   2.964   8.752 -0.0069  0.4488 -0.1860
  767MOL0     C 5757   4.389   2.972   9.030  0.5102  0.0238 -0.2716
  767MOL0     C 5758   4.441   2.894   9.135 -0.0578 -1.2982  0.6283
  767MOL0     N 5759   5.050   2.535   9.429  0.2581  0.0576  0.0947
  767MOL0     N 5760   5.140   2.556   9.513  0.0240  0.7027  0.0898
  767MOL0     C 5761   4.883   2.242  10.479 -1.0790  0.4277  0.6439
  767MOL0     C 5762   4.762   2.303  10.518 -0.6388 -0.3908  0.6532
  767MOL0     C 5763   4.378   2.358  10.701  0.4638  0.2776 -0.3720
  767MOL0     C 5764   4.265   2.381  10.636  0.0617  0.5845 -0.5593
  767MOL0     C 5765   4.161   2.460  10.691  1.0012  0.6770  0.0252
  767MOL0     C 5766   4.187   2.506  10.821  0.0284  0.4177 -0.2992
  767MOL0     O 5767   4.079   2.577  10.868 -0.4095  0.1202 -0.0975
  767MOL0     C 5768   4.063   2.639  10.991  0.4849  0.1980 -0.8452
  767MOL0     C 5769   3.958   2.748  10.984 -0.0297  0.3814 -0.3673
  767MOL0     C 5770   3.830   2.701  10.929 -0.3799  0.0818 -0.5525
  767MOL0     C 5771   3.711   2.759  10.999 -0.3158  0.5529  0.3322
  767MOL0     C 5772   3.587   2.745  10.920 -0.4979 -0.8217 -0.3719
  767MOL0     C 5773   3.494   2.732  10.839 -0.6411  0.3818 -0.2221
  767MOL0     C 5774   4.300   2.489  10.887 -1.0250  0.6751 -0.2112
  767MOL0     C 5775   4.404   2.416  10.832 -0.4456  0.0035  0.1875
  767MOL0     C 5776   4.541   2.414  10.889 -0.0609  0.0351  0.1457
  767MOL0     H 5777   4.554   2.083  10.381 -0.2905  3.2084 -2.9398
  767MOL0     H 5778   4.778   1.995  10.287  4.0858 -1.4222  0.6033
  767MOL0     H 5779   5.193   2.024  10.356  0.0350 -0.4961 -1.1679
  767MOL0     H 5780   5.140   2.136  10.488 -0.7869 -1.4018  0.5651
  767MOL0     H 5781   5.070   2.316  10.299 -1.4678  0.1452 -1.1727
  767MOL0     H 5782   5.246   2.291  10.316  2.0311 -2.4961 -0.5427
  767MOL0     H 5783   5.214   2.122  10.115  0.6336 -0.4938 -0.4114
  767MOL0     H 5784   5.056   2.213  10.102 -0.1218  1.7000  3.2768
  767MOL0     H 5785   5.343   2.325  10.100 -0.0774  1.1972 -0.7899
  767MOL0     H 5786   5.267   2.257   9.962 -0.4808  1.3674 -0.7681
  767MOL0     H 5787   5.196   2.513  10.112  0.7112  1.9482 -2.8185
  767MOL0     H 5788   5.071   2.429  10.025  0.5356 -0.4618  1.0344
  767MOL0     H 5789   5.332   2.540   9.902  0.3516  3.7144 -0.8916
  767MOL0     H 5790   5.227   2.443   9.819 -1.8303  0.0754 -0.1001
  767MOL0     H 5791   5.151   2.735   9.913 -1.8479  2.0641 -2.5446
  767MOL0     H 5792   5.040   2.622   9.848  0.5759 -1.7743  1.0722
  767MOL0     H 5793   5.188   2.810   9.708 -1.3538  0.3205 -3.0789
  767MOL0     H 5794   5.297   2.661   9.690 -0.5448 -0.5957  1.5968
  767MOL0     H 5795   4.927   2.761   9.638  0.6540  1.3578 -0.3905
  767MOL0     H 5796   4.864   2.606   9.280  0.0392 -0.7149  1.0614
  767MOL0     H 5797   4.794   2.738   9.374  0.9049  1.4641 -3.5376
  767MOL0     H 5798   4.740   2.437   9.388 -2.3628 -0.7018  1.6696
  767MOL0     H 5799   4.697   2.532   9.525  0.2919 -0.2345  0.4905
  767MOL0     H 5800   4.596   2.538   9.225 -0.6464 -1.5554  0.9445
  767MOL0     H 5801   4.510   2.501   9.371  1.7104 -1.0317  1.7701
  767MOL0     H 5802   4.536   2.749   9.451 -1.8279  1.5214  0.4921
  767MOL0     H 5803   4.594   2.777   9.291 -2.6184  2.1645 -0.0808
  767MOL0     H 5804   4.195   2.661   9.174  0.0621 -0.8477  1.7732
  767MOL0     H 5805   4.077   2.749   8.857 -1.0522  4.3456 -1.7892
  767MOL0     H 5806   3.988   2.859   8.967 -0.4605 -0.7803 -1.2812
  767MOL0     H 5807   4.023   2.694   9.008  0.8191 -0.0879  0.1232
  767MOL0     H 5808   4.155   3.398   8.899  0.0444  3.1621 -0.9445
  767MOL0     H 5809   4.138   3.560   8.715 -0.1858  0.2573 -0.2021
  767MOL0     H 5810   4.294   3.440   8.293 -0.5814 -2.5540  1.3966
  767MOL0     H 5811   4.115   3.423   8.307 -0.9525 -0.0597  1.3887
  767MOL0     H 5812   4.271   3.682   8.266  0.2197  0.1279  1.2272
  767MOL0     H 5813   4.205   3.583   8.131  0.1847 -0.9806  0.1091
  767MOL0     H 5814   3.975   3.613   8.294  2.0780 -1.4962 -1.4250
  767MOL0     H 5815   4.003   3.714   8.159  1.2466 -0.0831 -0.7027
  767MOL0     H 5816   4.122   3.872   8.292  1.7495 -0.2339  0.8798
  767MOL0     H 5817   4.104   3.765   8.446  0.1965 -0.0081 -0.1803
  767MOL0     H 5818   3.876   3.905   8.302  1.4530  0.7233 -1.3024
  767MOL0     H 5819   3.862   3.775   8.424 -0.0204  0.0149 -0.9654
  767MOL0     H 5820   4.023   4.031   8.460 -0.9168  1.0613 -0.5125
  767MOL0     H 5821   3.974   3.918   8.586  0.2400 -0.1069  0.0926
  767MOL0     H 5822   3.721   3.965   8.536 -2.1683  2.0761 -1.9249
  767MOL0     H 5823   3.778   4.094   8.428  2.8247  1.6322 -0.1708
  767MOL0     H 5824   3.887   4.195   8.623 -0.5245 -0.7857  1.5012
  767MOL0     H 5825   3.808   4.070   8.730 -0.5576 -0.8508  0.4174
  767MOL0     H 5826   4.286   3.272   8.427  3.8246  1.0159  1.7840
  767MOL0     H 5827   4.271   3.098   8.602 -3.8806 -2.1880  2.5474
  767MOL0     H 5828   4.446   3.057   8.994 -3.2974  3.2616  0.6229
  767MOL0     H 5829   4.536   2.928   9.175 -0.1139  1.1242 -1.1115
  767MOL0     H 5830   4.969   2.292  10.522 -3.0084  2.8740  1.9103
  767MOL0     H 5831   4.773   2.387  10.586  0.8509  0.7832 -0.9451
  767MOL0     H 5832   4.257   2.334  10.539 -0.7510 -5.5277  2.0500
  767MOL0     H 5833   4.068   2.490  10.644  0.9861  1.7968  0.7275
  767MOL0     H 5834   4.034   2.557  11.058 -0.2658  0.1444 -1.2167
  767MOL0     H 5835   4.155   2.679  11.034 -0.4576 -0.8301  2.4535
  767MOL0     H 5836   3.992   2.822  10.912  0.3037 -1.1929 -1.8666
  767MOL0     H 5837   3.943   2.799  11.080 -2.4638  1.0079 -1.0080
  767MOL0     H 5838   3.822   2.719  10.822 -0.4268 -1.8768 -0.9161
  767MOL0     H 5839   3.828   2.592  10.932  1.1932  0.0101  2.4490
  767MOL0     H 5840   3.716   2.866  11.022 -1.7885  0.6009  0.5737
  767MOL0     H 5841   3.701   2.700  11.091  0.8071 -1.2715 -0.6752
  767MOL0     H 5842   3.424   2.718  10.760  0.8494 -1.0835 -1.3653
  767MOL0     H 5843   4.309   2.517  10.992  0.3990  0.7624 -0.3298
  767MOL0     H 5844   4.547   2.324  10.951  3.1099 -0.4055 -0.5912
  767MOL0     H 5845   4.613   2.403  10.807  1.4553 -0.0052  1.4308
  767MOL0     H 5846   4.550   2.503  10.952 -2.3698 -1.9071  3.5045
  768MOL0     O 5847   5.910   5.026   0.375 -0.9005 -0.4336  0.8067
  768MOL0     C 5848   5.889   5.154   0.361  0.4447 -0.5977 -0.2832
  768MOL0     O 5849   5.831   5.246   0.449 -0.0372 -0.6023 -0.2107
  768MOL0     C 5850   5.769   5.201   0.553  0.6391  1.1971 -0.8193
  768MOL0     C 5851   5.800   5.263   0.676  0.4982 -0.1818 -1.3220
  768MOL0     C 5852   5.732   5.237   0.794  0.6641  0.6098 -0.5816
  768MOL0     C 5853   5.634   5.134   0.787  0.3881 -0.7260  0.0856
  768MOL0     O 5854   5.558   5.118   0.906  0.2602  0.1832 -0.1509
  768MOL0     C 5855   5.593   4.997   0.969 -0.0582 -0.0188 -0.6739
  768MOL0     C 5856   5.563   5.006   1.116  1.0736 -0.5363 -0.4895
  768MOL0     C 5857   5.418   4.963   1.147 -0.1677 -0.6297 -0.2127
  768MOL0     C 5858   5.312   5.078   1.122 -0.2909  0.5821 -0.1389
  768MOL0     C 5859   5.190   5.037   1.194  0.1924  0.5140 -0.0672
  768MOL0     C 5860   5.061   5.055   1.118 -0.6932 -0.1904 -0.2230
  768MOL0     C 5861   4.955   5.147   1.181  0.3918  0.1335 -1.3375
  768MOL0     C 5862   4.822   5.148   1.117  0.0883 -0.7602  0.0119
  768MOL0     N 5863   4.752   5.018   1.105  0.4611 -0.3328  0.0350
  768MOL0     C 5864   4.711   4.934   1.202 -0.3227  0.1675 -1.0224
  768MOL0     C 5865   4.638   4.834   1.154  0.0474 -0.2439 -0.5489
  768MOL0     C 5866   4.590   4.715   1.234 -0.0709  0.1216 -0.2372
  768MOL0     C 5867   4.609   4.591   1.153 -0.1141  0.0601  0.0801
  768MOL0     C 5868   4.568   4.460   1.231 -1.0632 -1.3594  0.3619
  768MOL0     C 5869   4.662   4.414   1.342 -0.4832 -0.1028 -0.4462
  768MOL0     O 5870   4.791   4.372   1.298  0.5843 -0.1675  0.4388
  768MOL0     C 5871   4.867   4.323   1.398 -0.8492  0.1953  0.8515
  768MOL0     C 5872   4.864   4.351   1.529  0.1777 -0.3666  0.3672
  768MOL0     C 5873   4.963   4.302   1.617  0.2893 -0.2356  0.6045
  768MOL0     C 5874   4.934   4.331   1.757  0.7360  0.3612  0.0966
  768MOL0     C 5875   5.073   4.232   1.568 -0.8560 -0.4038 -0.0420
  768MOL0     C 5876   5.198   4.193   1.647 -0.5317  0.3612 -0.3064
  768MOL0     O 5877   5.273   4.096   1.591 -0.5147  1.0054  0.5085
  768MOL0     C 5878   5.340   4.009   1.672 -0.6766  0.5906  0.4299
  768MOL0     C 5879   5.272   3.917   1.740 -0.4980  0.7888 -0.0908
  768MOL0     C 5880   5.352   3.829   1.828  0.3873  0.8788 -0.6686
  768MOL0     C 5881   5.492   3.844   1.842  0.5914 -0.6206  0.6152
  768MOL0     O 5882   5.552   3.767   1.942  0.2144  0.1525  0.8235
  768MOL0     C 5883   5.695   3.760   1.932 -0.0085 -0.4637  0.6424
  768MOL0     C 5884   5.769   3.651   2.021  0.0578 -0.2998  0.1230
  768MOL0     C 5885   5.759   3.674   2.172 -0.0118  0.9219 -0.2798
  768MOL0     C 5886   5.822   3.553   2.249  0.5971  0.0549  0.6205
  768MOL0     C 5887   5.744   3.431   2.241 -0.0476  0.6997  0.8407
  768MOL0     C 5888   5.805   3.320   2.317  0.2067  0.5185 -0.7232
  768MOL0     C 5889   5.919   3.270   2.221  0.4676  0.6829 -0.2750
  768MOL0     C 5890   5.979   3.156   2.292 -0.7158 -0.0838 -0.1436
  768MOL0    Cl 5891   6.106   3.088   2.194  0.0774 -0.7198  0.2042
  768MOL0     C 5892   5.555   3.949   1.771  0.3899  0.0388  0.0186
  768MOL0     C 5893   5.482   4.020   1.679 -0.1147  0.2209 -0.2579
  768MOL0     O 5894   5.222   4.250   1.749 -0.6066 -0.3622  0.3364
  768MOL0     C 5895   5.078   4.202   1.431 -0.2894  1.0885 -0.5003
  768MOL0     C 5896   4.978   4.252   1.353 -0.4878  0.7494  0.2876
  768MOL0     N 5897   4.623   4.855   1.021  0.6877 -0.1497 -0.4287
  768MOL0     N 5898   4.698   4.959   0.996 -0.2424  0.5328 -0.3518
  768MOL0     C 5899   5.596   5.083   0.675 -0.2575  0.6957  1.4608
  768MOL0     C 5900   5.659   5.113   0.554  0.0255  0.2077 -0.2330
  768MOL0     C 5901   5.949   5.219   0.243  0.6218  0.6367  0.4076
  768MOL0     C 5902   5.908   5.344   0.205 -0.6324 -0.0924 -0.0983
  768MOL0     C 5903   5.963   5.415   0.098 -0.1260  0.2603 -1.2448
  768MOL0     C 5904   6.065   5.363   0.027 -0.1457 -0.2763  0.7098
  768MOL0     O 5905   6.126   5.442  -0.063  0.3126  0.4095 -0.1298
  768MOL0     C 5906   6.099   5.430  -0.208  0.2460  0.1945  0.5423
  768MOL0     C 5907   6.073   5.577  -0.265 -0.1532  0.1118  1.0651
  768MOL0     C 5908   6.205   5.661  -0.276  0.6950 -0.2699  0.1485
  768MOL0     C 5909   6.185   5.782  -0.356  0.0861 -0.2556  0.4862
  768MOL0     C 5910   6.296   5.876  -0.365  0.3069 -0.1762 -0.1234
  768MOL0     C 5911   6.389   5.951  -0.394  0.2487 -0.0138 -0.2627
  768MOL0     C 5912   6.111   5.233   0.050 -0.7334 -0.1012  0.6238
  768MOL0     C 5913   6.058   5.159   0.161  0.3039 -0.0004  0.5088
  768MOL0     C 5914   6.137   5.033   0.188 -0.0320 -0.6736  0.6345
  768MOL0     H 5915   5.889   5.323   0.696 -0.4533  0.1712  2.6868
  768MOL0     H 5916   5.749   5.280   0.892 -2.4271  1.3587 -0.2570
  768MOL0     H 5917   5.700   4.975   0.965 -0.0814 -1.1806  2.2188
  768MOL0     H 5918   5.534   4.918   0.922 -1.0539  0.0312  0.4266
  768MOL0     H 5919   5.624   4.930   1.165  4.2330  0.7074 -2.1727
  768MOL0     H 5920   5.578   5.106   1.156  2.7039 -0.5436 -0.9713
  768MOL0     H 5921   5.396   4.867   1.100  3.0349 -1.1789 -0.8397
  768MOL0     H 5922   5.412   4.944   1.254 -0.2551 -4.8859 -0.8105
  768MOL0     H 5923   5.351   5.177   1.147  1.7015 -0.0869 -0.4086
  768MOL0     H 5924   5.300   5.076   1.014  0.7284 -3.3555 -0.3271
  768MOL0     H 5925   5.185   5.106   1.279 -0.5374  0.3783  0.0068
  768MOL0     H 5926   5.208   4.932   1.218  1.3685  1.2659  2.7482
  768MOL0     H 5927   5.082   5.096   1.019 -1.7984  1.0894  0.0435
  768MOL0     H 5928   5.012   4.960   1.096  1.8616 -1.6391 -0.0415
  768MOL0     H 5929   4.986   5.251   1.195 -1.1044  0.3591  0.6631
  768MOL0     H 5930   4.938   5.113   1.283  3.7133  1.8810 -0.0404
  768MOL0     H 5931   4.754   5.210   1.176  0.5859 -0.1843 -0.0078
  768MOL0     H 5932   4.840   5.198   1.021  0.7458  0.9885  0.9835
  768MOL0     H 5933   4.723   4.942   1.309 -0.2098 -0.4070 -0.9871
  768MOL0     H 5934   4.483   4.728   1.252  0.2485  5.0608 -0.5163
  768MOL0     H 5935   4.646   4.711   1.328  0.1462  2.7667 -0.1723
  768MOL0     H 5936   4.559   4.604   1.056 -1.7414  2.3429  1.1176
  768MOL0     H 5937   4.716   4.586   1.136 -0.0665  2.6632 -0.8617
  768MOL0     H 5938   4.464   4.466   1.266 -0.4966  2.5908  1.8752
  768MOL0     H 5939   4.583   4.379   1.159 -1.4413 -1.7267  0.6897
  768MOL0     H 5940   4.671   4.498   1.412 -4.0746  0.5999 -0.6119
  768MOL0     H 5941   4.604   4.334   1.389 -0.3276 -0.9962 -1.7473
  768MOL0     H 5942   4.785   4.416   1.565  1.2872  1.8984 -1.0460
  768MOL0     H 5943   4.830   4.302   1.778  0.7004  0.6275  0.2966
  768MOL0     H 5944   4.941   4.439   1.769 -1.5825  0.5616  0.2522
  768MOL0     H 5945   5.003   4.278   1.824 -2.3648  1.7139  4.8919
  768MOL0     H 5946   5.168   3.895   1.716 -0.1548  1.5054 -2.5500
  768MOL0     H 5947   5.300   3.747   1.878 -1.2962  2.0933 -0.3382
  768MOL0     H 5948   5.726   3.746   1.828  2.6195  1.0428  1.1195
  768MOL0     H 5949   5.743   3.853   1.966  2.3328 -1.1017 -0.6612
  768MOL0     H 5950   5.730   3.555   1.987  0.0790  0.3938 -2.0621
  768MOL0     H 5951   5.876   3.648   1.996  0.3789 -0.0873  1.4105
  768MOL0     H 5952   5.656   3.686   2.205 -0.8674 -1.9722 -1.5199
  768MOL0     H 5953   5.806   3.769   2.197 -0.7317  1.6100 -1.4864
  768MOL0     H 5954   5.840   3.576   2.355  0.9971  3.6426 -0.1047
  768MOL0     H 5955   5.924   3.544   2.210  1.5165  0.0087  2.8927
  768MOL0     H 5956   5.653   3.447   2.299 -2.4617 -1.3574 -2.0946
  768MOL0     H 5957   5.719   3.403   2.138 -0.4825 -1.0101  1.3894
  768MOL0     H 5958   5.732   3.244   2.347  1.0256  0.0613  0.2096
  768MOL0     H 5959   5.841   3.346   2.418 -1.9873  1.6678 -0.1891
  768MOL0     H 5960   5.989   3.349   2.190  1.1119  0.5946  0.8956
  768MOL0     H 5961   5.869   3.227   2.134 -0.6466 -3.3981  2.1528
  768MOL0     H 5962   5.903   3.079   2.313 -1.2048  0.4985  0.2570
  768MOL0     H 5963   6.017   3.185   2.391  0.0927  0.0648 -0.4908
  768MOL0     H 5964   5.657   3.972   1.798  0.8512 -0.7484 -0.9751
  768MOL0     H 5965   5.518   4.101   1.617 -0.2893 -0.2521 -1.0013
  768MOL0     H 5966   5.163   4.146   1.393 -0.2485  1.1658 -0.5218
  768MOL0     H 5967   4.967   4.228   1.248 -3.1836  1.1777  0.4132
  768MOL0     H 5968   5.501   5.031   0.669 -1.0929  2.1814  1.3301
  768MOL0     H 5969   5.621   5.079   0.458 -3.1573  1.0579  0.5875
  768MOL0     H 5970   5.843   5.402   0.271  2.9037  2.1031  1.7545
  768MOL0     H 5971   5.911   5.511   0.088 -1.4749  0.9416  6.0745
  768MOL0     H 5972   6.191   5.384  -0.244 -1.4646 -2.3126 -0.9490
  768MOL0     H 5973   6.022   5.354  -0.224  0.7333 -0.0655 -0.6730
  768MOL0     H 5974   6.002   5.626  -0.198 -1.1105  0.5814 -0.2534
  768MOL0     H 5975   6.039   5.573  -0.369  3.6184  1.7369 -0.4257
  768MOL0     H 5976   6.235   5.689  -0.174 -2.5110  0.3001  1.0715
  768MOL0     H 5977   6.283   5.596  -0.315  0.3289  0.3827 -1.7943
  768MOL0     H 5978   6.100   5.842  -0.323 -1.0272 -1.7053  0.3387
  768MOL0     H 5979   6.164   5.741  -0.455  2.2143  2.5691 -1.2879
  768MOL0     H 5980   6.468   6.020  -0.417 -1.4600  1.3448 -2.5413
  768MOL0     H 5981   6.200   5.191   0.004 -0.5219 -0.1696  1.0882
  768MOL0     H 5982   6.122   5.001   0.292 -0.2804  2.2012  1.5671
  768MOL0     H 5983   6.100   4.961   0.115  0.0589  0.8999 -1.0148
  768MOL0     H 5984   6.244   5.053   0.180  0.0104 -0.8987  0.6265
  769MOL0     O 5985   2.810   2.935   8.244  0.7467 -0.7576 -0.2043
  769MOL0     C 5986   2.722   3.007   8.191 -0.0663  0.4866 -0.7476
  769MOL0     O 5987   2.642   3.094   8.262 -0.3336  0.1715 -0.6090
  769MOL0     C 5988   2.657   3.093   8.398 -0.0376  0.3548  0.0407
  769MOL0     C 5989   2.766   3.164   8.455 -0.0673  0.1825 -0.6392
  769MOL0     C 5990   2.784   3.164   8.596  0.0707 -0.1632 -0.3689
  769MOL0     C 5991   2.699   3.091   8.676 -1.1559  0.3026 -0.3413
  769MOL0     O 5992   2.735   3.088   8.803  0.0656  0.2035 -0.0096
  769MOL0     C 5993   2.627   3.088   8.902 -0.2637 -0.5202 -0.8481
  769MOL0     C 5994   2.528   3.200   8.889 -0.0944 -0.6138 -0.3497
  769MOL0     C 5995   2.586   3.350   8.883  0.4338  0.8300  0.0507
  769MOL0     C 5996   2.482   3.440   8.821  0.4314 -0.3715  0.5446
  769MOL0     C 5997   2.537   3.586   8.814  0.0874 -0.6450 -0.7484
  769MOL0     C 5998   2.494   3.685   8.703 -0.0109  0.4832 -0.7777
  769MOL0     C 5999   2.563   3.822   8.725 -0.6049  0.5407 -1.4322
  769MOL0     C 6000   2.525   3.927   8.619 -0.4656 -0.2740 -1.1861
  769MOL0     N 6001   2.400   3.992   8.647  0.2483  1.0418  1.0236
  769MOL0     C 6002   2.389   4.106   8.718 -0.2037  0.5950 -0.3013
  769MOL0     C 6003   2.260   4.149   8.687  0.2670  0.5038  0.1016
  769MOL0     C 6004   2.195   4.271   8.737  0.1930  0.1523 -0.0564
  769MOL0     C 6005   2.039   4.271   8.726 -0.4776 -0.3681 -0.9560
  769MOL0     C 6006   1.970   4.291   8.862  0.3500 -0.1618  0.1167
  769MOL0     C 6007   1.972   4.162   8.948 -0.0193 -0.9407 -0.9446
  769MOL0     O 6008   1.886   4.051   8.910  0.5751  0.8527 -1.2343
  769MOL0     C 6009   1.779   4.036   8.979 -0.1963  0.1705 -0.7632
  769MOL0     C 6010   1.660   4.094   8.945  0.4874 -0.3749 -0.8758
  769MOL0     C 6011   1.539   4.064   9.016  0.4162  0.8114 -1.0018
  769MOL0     C 6012   1.409   4.127   8.967  0.4050  0.0774 -0.2349
  769MOL0     C 6013   1.541   3.975   9.123  0.9751 -0.0196 -0.6846
  769MOL0     C 6014   1.435   3.953   9.217 -0.8930 -0.1230  0.4724
  769MOL0     O 6015   1.421   3.822   9.271  1.1592 -0.2971 -0.2396
  769MOL0     C 6016   1.356   3.802   9.394 -0.5441 -0.4418 -0.8936
  769MOL0     C 6017   1.243   3.880   9.438 -0.4349 -0.7247 -0.7543
  769MOL0     C 6018   1.186   3.847   9.564 -0.3315  0.1019  1.0049
  769MOL0     C 6019   1.237   3.738   9.651 -0.2264 -0.3947 -0.0276
  769MOL0     O 6020   1.184   3.715   9.774  0.1028  0.5223 -0.5011
  769MOL0     C 6021   1.140   3.820   9.854 -0.6722 -0.2372  0.5421
  769MOL0     C 6022   1.151   3.804  10.011 -1.2569  0.1864  0.9356
  769MOL0     C 6023   1.300   3.809  10.050  0.9600 -0.2172  0.0816
  769MOL0     C 6024   1.364   3.671  10.054  0.1258  0.4771  0.4852
  769MOL0     C 6025   1.514   3.692  10.071 -0.8051  0.1895  0.0704
  769MOL0     C 6026   1.582   3.747   9.941  0.8344 -0.6142  0.4687
  769MOL0     C 6027   1.736   3.720   9.925 -0.3575 -0.8431 -1.1614
  769MOL0     C 6028   1.833   3.832   9.986 -0.0561 -0.3975  0.0275
  769MOL0    Cl 6029   2.013   3.802   9.964  0.6947  0.4807 -0.2200
  769MOL0     C 6030   1.347   3.669   9.603  0.5602  0.2111 -0.0296
  769MOL0     C 6031   1.402   3.693   9.475  0.4406  0.5177  0.0525
  769MOL0     O 6032   1.366   4.050   9.245 -0.8097 -0.3812  0.4052
  769MOL0     C 6033   1.665   3.909   9.144  0.2161  0.1117  0.0838
  769MOL0     C 6034   1.777   3.934   9.073  0.4461 -0.3435  0.2409
  769MOL0     N 6035   2.206   4.051   8.608  0.0948  0.4999  0.0943
  769MOL0     N 6036   2.288   3.962   8.577  0.3853  0.8814 -0.1722
  769MOL0     C 6037   2.588   3.026   8.624  0.1192 -0.0663 -0.2115
  769MOL0     C 6038   2.579   3.018   8.485  0.6765 -0.0092 -0.7819
  769MOL0     C 6039   2.695   3.009   8.046  0.6813 -0.3398 -0.0871
  769MOL0     C 6040   2.582   3.086   8.004  0.3890 -0.7955 -0.9643
  769MOL0     C 6041   2.557   3.105   7.874 -0.7740 -0.9416 -0.1445
  769MOL0     C 6042   2.627   3.046   7.772 -0.7679  0.5569  0.1505
  769MOL0     O 6043   2.587   3.069   7.642  0.1091 -0.0729 -0.2276
  769MOL0     C 6044   2.647   3.002   7.529  0.5580  0.2702 -0.1290
  769MOL0     C 6045   2.566   3.056   7.406  0.0742 -0.2880  0.2336
  769MOL0     C 6046   2.607   2.989   7.275  0.8436  0.7344 -0.4168
  769MOL0     C 6047   2.535   3.041   7.152 -0.5148  0.8285 -0.9152
  769MOL0     C 6048   2.387   3.009   7.164  0.0368  0.3277  0.3212
  769MOL0     C 6049   2.265   2.973   7.165  0.1429 -0.4532 -0.0653
  769MOL0     C 6050   2.728   2.954   7.806 -0.1751  0.5087  0.4375
  769MOL0     C 6051   2.765   2.936   7.938 -1.1399 -0.9696  0.1117
  769MOL0     C 6052   2.877   2.844   7.975 -0.2237  0.1163  0.8747
  769MOL0     H 6053   2.834   3.224   8.396  1.2060  0.9528  1.4876
  769MOL0     H 6054   2.872   3.209   8.643  0.7160  0.2194 -1.8956
  769MOL0     H 6055   2.675   3.085   9.000 -0.5771  2.7227 -0.4882
  769MOL0     H 6056   2.577   2.991   8.900  3.5429 -2.7775  1.6764
  769MOL0     H 6057   2.454   3.184   8.811 -2.6222  1.7522  1.3953
  769MOL0     H 6058   2.483   3.199   8.989  1.6241  2.5126  0.6034
  769MOL0     H 6059   2.607   3.392   8.982 -0.3250 -1.5262  1.2823
  769MOL0     H 6060   2.678   3.363   8.824 -2.1308  4.2295 -3.7426
  769MOL0     H 6061   2.463   3.408   8.718 -2.2919  0.0388  0.8383
  769MOL0     H 6062   2.387   3.431   8.875  1.1332  0.7543  2.0351
  769MOL0     H 6063   2.645   3.579   8.799  0.0417 -1.5907 -0.6531
  769MOL0     H 6064   2.515   3.634   8.910  1.8089 -1.1396 -0.0913
  769MOL0     H 6065   2.519   3.636   8.608 -2.6779 -3.1599  0.1537
  769MOL0     H 6066   2.386   3.701   8.706  0.2175  1.9533  0.3237
  769MOL0     H 6067   2.671   3.808   8.736 -0.7955  0.6488  1.6199
  769MOL0     H 6068   2.531   3.855   8.825 -1.3065 -2.5114 -0.5411
  769MOL0     H 6069   2.607   3.999   8.614 -0.3969 -0.2673 -0.2260
  769MOL0     H 6070   2.517   3.871   8.525  1.2425 -1.0393 -0.9134
  769MOL0     H 6071   2.463   4.148   8.785  0.3120 -0.1889 -0.3640
  769MOL0     H 6072   2.228   4.351   8.670 -0.6115 -0.4049 -1.1459
  769MOL0     H 6073   2.230   4.284   8.840 -0.2827 -0.4445  0.1878
  769MOL0     H 6074   2.010   4.362   8.672 -0.3302  1.4696  1.8696
  769MOL0     H 6075   2.000   4.181   8.678  0.2557 -2.4483  2.0662
  769MOL0     H 6076   2.031   4.368   8.910 -0.2522  0.9377 -0.8242
  769MOL0     H 6077   1.866   4.322   8.847  1.1658  2.2206 -1.2008
  769MOL0     H 6078   2.074   4.124   8.946  0.6535  0.6078  0.8611
  769MOL0     H 6079   1.953   4.191   9.051 -1.4367  0.2390 -1.4906
  769MOL0     H 6080   1.671   4.163   8.861  0.2392  1.3121  0.4358
  769MOL0     H 6081   1.421   4.143   8.859 -5.1976 -3.5602 -1.8365
  769MOL0     H 6082   1.393   4.222   9.018  1.7553  0.4885 -0.5308
  769MOL0     H 6083   1.316   4.073   8.986  0.5355  0.3531  1.2826
  769MOL0     H 6084   1.214   3.964   9.376  2.6044 -0.6578 -2.3171
  769MOL0     H 6085   1.090   3.892   9.588 -1.7874 -2.1995 -0.0716
  769MOL0     H 6086   1.169   3.919   9.816 -0.8615 -0.0037  0.9933
  769MOL0     H 6087   1.033   3.816   9.831 -0.7589  2.4987  0.0490
  769MOL0     H 6088   1.114   3.899  10.051  1.3679  1.4029  0.6520
  769MOL0     H 6089   1.098   3.715  10.046 -0.3650  0.2726  2.5932
  769MOL0     H 6090   1.301   3.860  10.146 -0.4063 -0.1193  0.0616
  769MOL0     H 6091   1.346   3.870   9.971 -2.4109 -1.0711 -2.8182
  769MOL0     H 6092   1.334   3.611   9.968 -0.8827  0.7864  0.6166
  769MOL0     H 6093   1.326   3.616  10.140  0.1443  0.9599  0.8048
  769MOL0     H 6094   1.541   3.764  10.149 -0.1117  1.9912 -1.7582
  769MOL0     H 6095   1.557   3.597  10.105 -0.7381  1.0850  2.7324
  769MOL0     H 6096   1.561   3.854   9.930 -1.3206 -1.1344 -1.1801
  769MOL0     H 6097   1.534   3.709   9.850 -0.9411  4.0587 -0.8688
  769MOL0     H 6098   1.754   3.720   9.817  0.2108 -0.4768 -1.0742
  769MOL0     H 6099   1.753   3.621   9.969  2.1415 -0.2169 -0.5616
  769MOL0     H 6100   1.810   3.840  10.093 -1.3247  1.9874 -0.3678
  769MOL0     H 6101   1.804   3.929   9.945  2.0697 -0.0300 -0.7494
  769MOL0     H 6102   1.398   3.588   9.655  1.7000 -0.0141 -1.4252
  769MOL0     H 6103   1.475   3.629   9.427 -1.1862  0.1169 -2.0346
  769MOL0     H 6104   1.670   3.834   9.222 -0.4951 -1.0395 -0.9331
  769MOL0     H 6105   1.870   3.878   9.085  1.9413  2.2425  1.7725
  769MOL0     H 6106   2.528   2.965   8.690  0.1450  2.1340  1.9847
  769MOL0     H 6107   2.488   2.970   8.448  0.0874 -0.6329  1.3176
  769MOL0     H 6108   2.517   3.143   8.069  0.4648 -1.4278 -0.3184
  769MOL0     H 6109   2.481   3.179   7.851 -0.7234 -0.4528  1.1490
  769MOL0     H 6110   2.754   3.023   7.517  0.6582 -0.4517 -0.5433
  769MOL0     H 6111   2.630   2.896   7.549  1.1996  0.4801  1.7381
  769MOL0     H 6112   2.576   3.165   7.399 -1.5299  0.0824  2.5941
  769MOL0     H 6113   2.461   3.032   7.425  0.1538  0.6133  2.0980
  769MOL0     H 6114   2.715   3.000   7.259  1.1682 -0.2005  0.9782
  769MOL0     H 6115   2.585   2.882   7.288  0.5739  0.7423 -0.7912
  769MOL0     H 6116   2.574   2.998   7.059 -0.6513 -0.0647 -0.5677
  769MOL0     H 6117   2.553   3.145   7.125 -0.0151  0.9272 -0.2228
  769MOL0     H 6118   2.161   2.953   7.180 -0.6842  3.5543  0.6704
  769MOL0     H 6119   2.778   2.895   7.731 -1.6506 -0.3774  0.1007
  769MOL0     H 6120   2.832   2.768   8.039 -1.3207 -1.0127 -1.1146
  769MOL0     H 6121   2.927   2.799   7.889 -1.1836 -0.2911  0.5124
  769MOL0     H 6122   2.957   2.896   8.028  2.1359 -2.1201 -0.2840
  770MOL0     O 6123   5.568   1.823   4.353 -0.0235 -0.4284 -0.6057
  770MOL0     C 6124   5.660   1.773   4.411 -0.4528 -0.7320  0.5903
  770MOL0     O 6125   5.777   1.840   4.439 -0.2886  0.1763 -0.1407
  770MOL0     C 6126   5.794   1.968   4.389 -0.6415  0.0172 -0.4838
  770MOL0     C 6127   5.857   1.982   4.269 -1.2004 -0.5052  0.4944
  770MOL0     C 6128   5.877   2.117   4.223 -0.4151 -0.0996 -0.0022
  770MOL0     C 6129   5.823   2.229   4.289  0.6352 -0.7886 -0.7236
  770MOL0     O 6130   5.836   2.353   4.229  0.6489 -0.0984 -0.8449
  770MOL0     C 6131   5.716   2.420   4.198 -0.0789 -0.5210 -0.3191
  770MOL0     C 6132   5.731   2.562   4.145 -0.1206  0.3973  0.6159
  770MOL0     C 6133   5.606   2.652   4.139 -0.2840  0.2623  0.5500
  770MOL0     C 6134   5.653   2.795   4.123  0.2398 -0.5560  0.1936
  770MOL0     C 6135   5.717   2.828   3.987 -0.8550  1.1710 -0.2951
  770MOL0     C 6136   5.779   2.963   3.979 -0.7451 -0.8456  0.3806
  770MOL0     C 6137   5.833   2.994   3.843  0.0416  1.0474  0.5493
  770MOL0     C 6138   5.925   3.120   3.836 -0.0989 -0.4869 -0.3008
  770MOL0     N 6139   6.055   3.087   3.888  0.3255  0.0322 -0.0864
  770MOL0     C 6140   6.124   3.176   3.969  1.1288  0.2856 -0.3281
  770MOL0     C 6141   6.241   3.120   3.974  0.2809 -0.3722 -0.6065
  770MOL0     C 6142   6.345   3.166   4.063 -0.5874 -0.5402 -0.2802
  770MOL0     C 6143   6.318   3.131   4.213  0.2597  0.2659  0.2540
  770MOL0     C 6144   6.423   3.184   4.311  0.8211 -0.6300 -0.1891
  770MOL0     C 6145   6.368   3.185   4.452 -0.3308  0.1880 -0.2735
  770MOL0     O 6146   6.371   3.048   4.505 -0.2106  0.4877  0.1179
  770MOL0     C 6147   6.324   3.030   4.633 -0.6888  0.2964  0.4978
  770MOL0     C 6148   6.256   2.915   4.667  0.8912 -0.1858 -1.3415
  770MOL0     C 6149   6.194   2.885   4.792  0.3581  0.0366  0.4491
  770MOL0     C 6150   6.103   2.768   4.816  0.1800 -0.1854 -1.0072
  770MOL0     C 6151   6.209   2.988   4.890  0.2747  0.5505 -0.0815
  770MOL0     C 6152   6.154   2.976   5.026  0.1523  0.6789  0.6779
  770MOL0     O 6153   6.119   3.091   5.089 -0.0642 -0.1884  0.1815
  770MOL0     C 6154   6.088   3.073   5.231  0.3047 -0.3972  0.8562
  770MOL0     C 6155   5.959   3.042   5.258  0.5035  0.4079 -0.1440
  770MOL0     C 6156   5.922   3.010   5.388  0.6128  1.0049  0.4078
  770MOL0     C 6157   6.019   3.007   5.491  0.3723 -1.1312 -0.2680
  770MOL0     O 6158   5.986   2.966   5.616  0.4749 -0.2829  0.1244
  770MOL0     C 6159   5.923   3.069   5.696 -0.4993 -0.6128 -0.0755
  770MOL0     C 6160   5.883   3.022   5.838 -1.0976  0.5309  0.2557
  770MOL0     C 6161   5.757   3.097   5.877 -0.3664 -0.7349 -0.6308
  770MOL0     C 6162   5.704   3.051   6.018 -0.2601  0.5525  0.3551
  770MOL0     C 6163   5.607   3.147   6.088  0.3178  0.0758 -0.2576
  770MOL0     C 6164   5.481   3.177   5.998 -0.4619  0.5295 -0.1631
  770MOL0     C 6165   5.388   3.272   6.077 -0.2692  0.2163  0.0754
  770MOL0     C 6166   5.242   3.272   6.016 -1.4079  0.6597 -0.4334
  770MOL0    Cl 6167   5.151   3.129   6.085 -0.1652 -0.2145 -0.1404
  770MOL0     C 6168   6.149   3.056   5.470  0.1291 -1.2080 -0.1667
  770MOL0     C 6169   6.185   3.083   5.336 -0.3876 -0.6470  0.7172
  770MOL0     O 6170   6.123   2.866   5.069  0.0186 -0.0207 -0.2059
  770MOL0     C 6171   6.273   3.116   4.853  0.3435  0.3792 -0.5689
  770MOL0     C 6172   6.330   3.134   4.728  1.2492  0.7267  0.8910
  770MOL0     N 6173   6.250   3.012   3.894  0.3101 -0.4104  0.2542
  770MOL0     N 6174   6.139   2.994   3.837  0.3852  0.3637 -1.1991
  770MOL0     C 6175   5.762   2.204   4.411  0.0628  0.0302  0.6894
  770MOL0     C 6176   5.746   2.074   4.461  0.6850 -0.5034  0.5816
  770MOL0     C 6177   5.652   1.630   4.473 -0.3205 -0.3532  0.1338
  770MOL0     C 6178   5.732   1.589   4.578 -1.0323  0.2357 -0.3337
  770MOL0     C 6179   5.742   1.451   4.610  0.2448 -0.4013  0.2238
  770MOL0     C 6180   5.675   1.360   4.531 -1.4457 -0.1278 -0.3420
  770MOL0     O 6181   5.670   1.230   4.583  0.5119 -0.3184  0.0540
  770MOL0     C 6182   5.754   1.175   4.689 -0.2474 -0.1829 -0.2785
  770MOL0     C 6183   5.894   1.163   4.628  0.0221  1.0708  0.1621
  770MOL0     C 6184   5.987   1.123   4.741 -0.5235  0.6854  0.2276
  770MOL0     C 6185   6.085   1.006   4.700  0.0295  0.5490  0.6395
  770MOL0     C 6186   6.014   0.883   4.659  0.5646  0.9388  0.5907
  770MOL0     C 6187   5.959   0.787   4.612  0.5688 -0.3349 -0.6109
  770MOL0     C 6188   5.586   1.403   4.436  0.6156  0.5722 -0.3390
  770MOL0     C 6189   5.567   1.538   4.401 -0.8008  0.8443  0.1011
  770MOL0     C 6190   5.469   1.546   4.286  0.3821  0.2275 -0.0577
  770MOL0     H 6191   5.883   1.900   4.202 -3.1848 -0.0162 -0.9789
  770MOL0     H 6192   5.920   2.140   4.126  2.9514 -0.8802  1.1731
  770MOL0     H 6193   5.654   2.426   4.288  1.9198  1.1240  1.0518
  770MOL0     H 6194   5.658   2.369   4.121  0.1597 -0.8211 -0.2989
  770MOL0     H 6195   5.795   2.622   4.211 -1.3526  1.5379  0.8331
  770MOL0     H 6196   5.780   2.554   4.048 -0.7063 -1.8596  0.4517
  770MOL0     H 6197   5.537   2.623   4.060 -0.7738  2.0967  0.2475
  770MOL0     H 6198   5.550   2.628   4.230 -0.8138 -1.0547 -0.0951
  770MOL0     H 6199   5.563   2.858   4.122 -0.1828 -1.1640 -0.8873
  770MOL0     H 6200   5.722   2.821   4.204  2.1818 -3.0000 -0.5655
  770MOL0     H 6201   5.645   2.820   3.904  0.7754 -2.1132 -1.5782
  770MOL0     H 6202   5.796   2.756   3.964 -1.3203  1.3620 -2.7391
  770MOL0     H 6203   5.697   3.033   3.995  0.1005  1.0281 -2.6780
  770MOL0     H 6204   5.855   2.983   4.056 -0.0267 -0.1798 -0.4674
  770MOL0     H 6205   5.751   3.006   3.771  0.9553 -1.8256 -1.1283
  770MOL0     H 6206   5.891   2.905   3.818  1.3391  2.3817 -1.6024
  770MOL0     H 6207   5.933   3.156   3.733  1.0203 -0.3784 -0.1907
  770MOL0     H 6208   5.881   3.198   3.898  0.6440  0.2940 -0.7450
  770MOL0     H 6209   6.078   3.244   4.040 -2.5221 -1.3121 -0.9359
  770MOL0     H 6210   6.354   3.275   4.060  2.3537 -0.6580  0.6699
  770MOL0     H 6211   6.443   3.129   4.032 -0.4816 -0.4242 -0.0899
  770MOL0     H 6212   6.219   3.166   4.245  0.6695  1.6571  0.0380
  770MOL0     H 6213   6.330   3.022   4.212  3.1927  0.5162 -0.1616
  770MOL0     H 6214   6.513   3.124   4.294  0.9151 -0.0515 -1.8689
  770MOL0     H 6215   6.439   3.287   4.278  1.4552 -0.6043  0.1786
  770MOL0     H 6216   6.448   3.240   4.503  1.1302 -1.8165 -0.3041
  770MOL0     H 6217   6.271   3.236   4.458 -1.7058 -2.2404 -0.5456
  770MOL0     H 6218   6.241   2.837   4.592  0.4319 -1.0677 -0.3681
  770MOL0     H 6219   6.071   2.713   4.727 -1.0752 -1.3180  0.0924
  770MOL0     H 6220   6.016   2.811   4.867  1.3631  0.6746  0.3514
  770MOL0     H 6221   6.149   2.699   4.887 -2.3209  2.8645  4.2271
  770MOL0     H 6222   5.888   3.037   5.176 -0.0582  1.8013  0.2103
  770MOL0     H 6223   5.819   2.982   5.408  0.2975  3.0186  2.0887
  770MOL0     H 6224   5.997   3.148   5.711 -0.9260 -0.3754  0.9013
  770MOL0     H 6225   5.835   3.114   5.650 -0.5267 -1.8241 -1.2563
  770MOL0     H 6226   5.857   2.916   5.828 -0.0505  0.1650  1.1894
  770MOL0     H 6227   5.967   3.023   5.908  1.2730 -1.8496 -2.2633
  770MOL0     H 6228   5.680   3.076   5.803  0.2224  0.4213 -1.5915
  770MOL0     H 6229   5.763   3.204   5.899 -1.2688 -0.6777 -0.6160
  770MOL0     H 6230   5.794   3.040   6.079  0.5734 -2.7077 -1.2146
  770MOL0     H 6231   5.665   2.950   6.003 -0.6773  0.7453  0.1236
  770MOL0     H 6232   5.577   3.093   6.178  3.3199 -1.8224 -0.2377
  770MOL0     H 6233   5.651   3.243   6.114  1.7973 -0.0286 -2.1418
  770MOL0     H 6234   5.432   3.082   5.975 -0.4687  0.4305  0.2509
  770MOL0     H 6235   5.498   3.213   5.896 -1.2365  0.3671 -0.3546
  770MOL0     H 6236   5.421   3.376   6.068  1.5170 -0.1388  1.8063
  770MOL0     H 6237   5.389   3.250   6.184  1.0658  1.5134  0.3580
  770MOL0     H 6238   5.233   3.276   5.907 -0.7481 -0.8287 -0.5702
  770MOL0     H 6239   5.177   3.352   6.052 -2.2041  0.1682 -0.7554
  770MOL0     H 6240   6.207   3.065   5.561 -2.7391  0.5890  1.6691
  770MOL0     H 6241   6.278   3.134   5.312 -1.3452  1.1551  0.6091
  770MOL0     H 6242   6.264   3.203   4.916  0.7784  1.6691 -2.2224
  770MOL0     H 6243   6.366   3.236   4.714 -3.2029  2.5129  0.7653
  770MOL0     H 6244   5.719   2.289   4.463  2.1430  0.3909  1.9116
  770MOL0     H 6245   5.694   2.055   4.554 -1.3157  2.9753  0.3353
  770MOL0     H 6246   5.806   1.649   4.629  0.0768 -1.6767  0.4174
  770MOL0     H 6247   5.808   1.431   4.694 -1.2644 -1.0298  1.3081
  770MOL0     H 6248   5.749   1.238   4.778  1.6021  0.3120 -0.4784
  770MOL0     H 6249   5.711   1.080   4.722  0.9169 -0.7798 -0.4063
  770MOL0     H 6250   5.938   1.254   4.585  2.7432 -0.0632  0.3090
  770MOL0     H 6251   5.890   1.088   4.548  1.1531  2.9881 -1.8166
  770MOL0     H 6252   6.051   1.208   4.765  2.4340 -1.8810  2.3055
  770MOL0     H 6253   5.927   1.090   4.826  0.1786 -2.4104 -0.3620
  770MOL0     H 6254   6.131   0.976   4.794 -2.7497 -1.7658  1.4112
  770MOL0     H 6255   6.160   1.044   4.630  2.7735 -3.6232  0.9531
  770MOL0     H 6256   5.893   0.707   4.587  2.6494 -2.4433  0.2767
  770MOL0     H 6257   5.524   1.325   4.392 -0.1166  0.4840  0.7968
  770MOL0     H 6258   5.514   1.532   4.187 -1.6021  2.0502 -1.2986
  770MOL0     H 6259   5.398   1.463   4.290 -0.9947  1.3515 -0.4518
  770MOL0     H 6260   5.413   1.640   4.285  1.1953  0.8554  3.0389
  771MOL0     O 6261   7.151   6.262   7.571 -0.5754  0.3239  0.8519
  771MOL0     C 6262   7.029   6.276   7.574  0.5531  0.4688  0.5862
  771MOL0     O 6263   6.968   6.369   7.651 -0.6437  0.3908  0.2659
  771MOL0     C 6264   7.045   6.469   7.709 -0.1658 -0.6620  0.7748
  771MOL0     C 6265   7.041   6.505   7.846 -0.3907 -0.9253 -0.2769
  771MOL0     C 6266   7.102   6.618   7.889 -0.6487 -0.3944  1.4511
  771MOL0     C 6267   7.176   6.707   7.803  0.6058  0.4895  0.3494
  771MOL0     O 6268   7.222   6.818   7.863 -0.7866 -0.3141 -1.2655
  771MOL0     C 6269   7.369   6.840   7.846 -0.2678 -0.2230  0.0697
  771MOL0     C 6270   7.438   6.927   7.959 -0.7426  0.6740 -0.3386
  771MOL0     C 6271   7.415   7.079   7.938  0.1318  1.0184 -0.6632
  771MOL0     C 6272   7.392   7.144   8.072 -0.1892 -0.5940  0.0760
  771MOL0     C 6273   7.375   7.295   8.064 -1.1103 -0.4513 -0.0730
  771MOL0     C 6274   7.260   7.347   7.979  0.5019 -0.5609 -0.2646
  771MOL0     C 6275   7.126   7.322   8.044  0.8075  0.1261 -1.0534
  771MOL0     C 6276   6.998   7.385   7.977  0.6039  0.3383 -0.0839
  771MOL0     N 6277   6.931   7.305   7.870 -0.9645 -0.8218  0.7445
  771MOL0     C 6278   6.992   7.201   7.805  0.5595  1.4468 -0.4966
  771MOL0     C 6279   6.913   7.162   7.701  0.6041  0.4890 -0.0544
  771MOL0     C 6280   6.948   7.053   7.601 -0.0429 -1.1128 -0.1420
  771MOL0     C 6281   6.839   6.945   7.593 -0.0533 -0.1276 -0.0631
  771MOL0     C 6282   6.879   6.835   7.505 -0.0292  0.4928  0.8133
  771MOL0     C 6283   6.771   6.732   7.483 -0.0729  0.7847 -0.2639
  771MOL0     O 6284   6.830   6.610   7.432  0.6720  0.4574 -0.1093
  771MOL0     C 6285   6.759   6.545   7.340  0.4189  0.2907 -0.3706
  771MOL0     C 6286   6.835   6.462   7.247  0.1180 -0.5237 -0.6171
  771MOL0     C 6287   6.777   6.356   7.172 -0.5622 -0.4960 -0.1512
  771MOL0     C 6288   6.872   6.279   7.079  0.6182 -0.6208  0.1017
  771MOL0     C 6289   6.634   6.340   7.194 -0.3040  0.2436  0.4990
  771MOL0     C 6290   6.562   6.235   7.115 -0.0763  0.3359 -0.0427
  771MOL0     O 6291   6.423   6.222   7.146 -0.1253  0.1813 -0.4299
  771MOL0     C 6292   6.345   6.119   7.093 -0.6093  0.3032 -0.6493
  771MOL0     C 6293   6.224   6.097   7.162  0.4328 -0.3760 -0.3178
  771MOL0     C 6294   6.135   5.997   7.117 -0.0797 -0.7938  0.2318
  771MOL0     C 6295   6.170   5.915   7.008  0.4206 -0.0809 -0.1246
  771MOL0     O 6296   6.080   5.822   6.955 -0.6338  0.1261  0.1505
  771MOL0     C 6297   5.984   5.757   7.030  0.7345  0.1243  0.2382
  771MOL0     C 6298   5.881   5.672   6.954  0.1168  0.3102  0.0554
  771MOL0     C 6299   5.790   5.597   7.057  0.5835 -0.3651  0.7172
  771MOL0     C 6300   5.798   5.443   7.059 -0.1560 -0.4210 -0.0843
  771MOL0     C 6301   5.725   5.365   6.952  0.3966 -0.1326  0.3046
  771MOL0     C 6302   5.572   5.376   6.959  0.4574  0.6922 -0.1792
  771MOL0     C 6303   5.498   5.256   6.897 -0.5844  0.6228  0.5425
  771MOL0     C 6304   5.358   5.233   6.939 -0.7224  0.4005  0.3814
  771MOL0    Cl 6305   5.253   5.383   6.940 -0.6211 -0.1473 -0.6768
  771MOL0     C 6306   6.288   5.933   6.941 -0.2680  0.2805  0.5671
  771MOL0     C 6307   6.374   6.032   6.980  0.3261  0.3907  0.1127
  771MOL0     O 6308   6.623   6.153   7.043 -0.8911  0.7337  0.7157
  771MOL0     C 6309   6.556   6.422   7.279  0.0510  0.8338  0.3609
  771MOL0     C 6310   6.617   6.515   7.356 -0.4744  0.0432 -0.4246
  771MOL0     N 6311   6.805   7.251   7.712  0.5973 -0.4353  0.2627
  771MOL0     N 6312   6.819   7.336   7.807 -0.1776  0.3628 -0.2006
  771MOL0     C 6313   7.183   6.671   7.664  0.6743 -1.0899 -0.2264
  771MOL0     C 6314   7.120   6.553   7.624  0.2117 -0.4271  0.5999
  771MOL0     C 6315   6.941   6.189   7.494  0.5838 -0.3492 -0.7100
  771MOL0     C 6316   6.803   6.181   7.528 -0.1474 -0.2854 -0.0616
  771MOL0     C 6317   6.708   6.096   7.456 -0.7969  0.1983 -0.0691
  771MOL0     C 6318   6.754   6.015   7.355  0.5746 -0.2163 -0.7363
  771MOL0     O 6319   6.687   5.922   7.290 -0.4679  0.0387  0.1846
  771MOL0     C 6320   6.546   5.926   7.291  0.2245 -1.1748 -0.3185
  771MOL0     C 6321   6.480   5.853   7.406  0.1185 -0.1928 -0.0311
  771MOL0     C 6322   6.336   5.891   7.426  0.2349 -0.6306 -0.8750
  771MOL0     C 6323   6.315   6.014   7.528 -0.8784  0.8499 -0.1450
  771MOL0     C 6324   6.176   6.052   7.522  0.3953  0.0365  0.0049
  771MOL0     C 6325   6.063   6.094   7.508 -0.0223  0.0091 -0.5990
  771MOL0     C 6326   6.891   5.994   7.340 -1.3164  0.0538 -0.9184
  771MOL0     C 6327   6.982   6.077   7.404  0.2136 -1.3865 -0.6184
  771MOL0     C 6328   7.124   6.046   7.369  0.9089 -0.3470  0.2121
  771MOL0     H 6329   6.972   6.461   7.916 -2.2398  2.4517  0.2310
  771MOL0     H 6330   7.096   6.639   7.995  0.7793 -1.9538  1.8964
  771MOL0     H 6331   7.380   6.899   7.755  0.4390 -0.7399 -0.1856
  771MOL0     H 6332   7.421   6.744   7.838 -0.6694 -0.3406 -1.2609
  771MOL0     H 6333   7.419   6.887   8.058 -0.2263 -1.4793 -1.0539
  771MOL0     H 6334   7.546   6.913   7.942 -0.9871  0.2887 -1.7516
  771MOL0     H 6335   7.508   7.107   7.887 -0.0951  1.0035 -1.0858
  771MOL0     H 6336   7.330   7.101   7.874 -1.1236  0.3831  0.7163
  771MOL0     H 6337   7.294   7.113   8.111  0.1194  2.0587  3.3640
  771MOL0     H 6338   7.474   7.112   8.137 -0.0745  1.6889  1.1526
  771MOL0     H 6339   7.462   7.342   8.017  0.2641 -1.0311  1.7623
  771MOL0     H 6340   7.356   7.325   8.168 -1.1113 -2.4584  0.5457
  771MOL0     H 6341   7.271   7.456   7.980 -1.2910 -0.3116 -1.5827
  771MOL0     H 6342   7.259   7.312   7.875 -4.2383  1.1284 -1.0260
  771MOL0     H 6343   7.131   7.361   8.146  1.4784  1.9106 -1.7301
  771MOL0     H 6344   7.106   7.219   8.074 -1.8427  0.1978 -2.2863
  771MOL0     H 6345   6.923   7.392   8.056  1.0525  2.4664  0.2148
  771MOL0     H 6346   7.011   7.489   7.944  1.1803 -0.1238 -1.4050
  771MOL0     H 6347   7.083   7.147   7.829  0.4413  2.2056  1.8714
  771MOL0     H 6348   7.043   7.010   7.633  1.3905  3.0040  1.7728
  771MOL0     H 6349   6.967   7.089   7.499  0.4927 -3.3237 -0.8803
  771MOL0     H 6350   6.811   6.902   7.689 -3.3171 -3.0861 -2.1206
  771MOL0     H 6351   6.744   6.986   7.559 -0.9075  3.4169  5.3645
  771MOL0     H 6352   6.927   6.869   7.413 -0.6335 -0.8939 -0.0415
  771MOL0     H 6353   6.958   6.791   7.566  0.9929  0.7179 -0.3123
  771MOL0     H 6354   6.710   6.721   7.573  0.6771  1.7427  0.3849
  771MOL0     H 6355   6.698   6.774   7.413  0.0560  2.2853  0.4650
  771MOL0     H 6356   6.942   6.477   7.246  0.2388 -1.3551 -1.4093
  771MOL0     H 6357   6.975   6.311   7.097  0.4859 -0.4538  0.5809
  771MOL0     H 6358   6.852   6.302   6.974  1.7946  1.6129  0.3045
  771MOL0     H 6359   6.871   6.170   7.088  3.0271 -0.7306 -0.2098
  771MOL0     H 6360   6.198   6.169   7.239 -0.4114 -1.8922  0.8552
  771MOL0     H 6361   6.036   5.995   7.161  0.5030 -0.5716  1.6187
  771MOL0     H 6362   6.020   5.695   7.112 -1.9022  1.5899  2.7069
  771MOL0     H 6363   5.938   5.842   7.082  1.7419 -0.7271  2.6666
  771MOL0     H 6364   5.823   5.749   6.901  0.2083  0.7813  0.6203
  771MOL0     H 6365   5.930   5.605   6.883  1.5892  1.9456 -0.5710
  771MOL0     H 6366   5.687   5.619   7.027  0.6776 -0.5469  0.2496
  771MOL0     H 6367   5.815   5.627   7.159 -0.3660  1.7003  0.3957
  771MOL0     H 6368   5.753   5.399   7.148  1.2132 -0.4971  0.5913
  771MOL0     H 6369   5.902   5.411   7.058  0.7959  2.3406 -0.1660
  771MOL0     H 6370   5.778   5.385   6.858 -0.2488  0.5639  0.0769
  771MOL0     H 6371   5.747   5.260   6.973  1.3827 -1.0731 -4.2896
  771MOL0     H 6372   5.542   5.470   6.913  2.3844  1.4729  0.0507
  771MOL0     H 6373   5.542   5.366   7.064 -0.1410 -1.6289 -0.5302
  771MOL0     H 6374   5.557   5.165   6.910 -3.2993 -1.3352  0.0775
  771MOL0     H 6375   5.494   5.260   6.788  2.4496 -0.8215  0.2675
  771MOL0     H 6376   5.367   5.189   7.038  3.9974 -0.3026 -0.1069
  771MOL0     H 6377   5.313   5.165   6.867 -2.1144 -2.6351  3.8241
  771MOL0     H 6378   6.315   5.872   6.856  0.1683 -0.5923  1.3206
  771MOL0     H 6379   6.471   6.036   6.931  1.0666 -0.4917  1.4437
  771MOL0     H 6380   6.450   6.405   7.291  0.4904 -3.5708 -0.1959
  771MOL0     H 6381   6.567   6.576   7.431  2.1090  0.4196  1.1232
  771MOL0     H 6382   7.217   6.742   7.589 -1.7443 -1.3843 -1.7583
  771MOL0     H 6383   7.112   6.526   7.519  0.0435 -4.1887  1.4532
  771MOL0     H 6384   6.762   6.247   7.604  0.9233  1.1608 -0.6753
  771MOL0     H 6385   6.601   6.111   7.469 -0.4588  3.3136  0.0877
  771MOL0     H 6386   6.524   6.033   7.287  2.1223 -0.7526 -0.1328
  771MOL0     H 6387   6.510   5.892   7.194  3.3289 -0.2070 -1.9424
  771MOL0     H 6388   6.528   5.859   7.504  0.5291  1.2690 -0.3070
  771MOL0     H 6389   6.480   5.747   7.376 -1.0722 -0.3667  0.5336
  771MOL0     H 6390   6.291   5.908   7.328 -0.5205  2.3971 -0.1099
  771MOL0     H 6391   6.287   5.801   7.465  1.8023 -0.8262  0.8019
  771MOL0     H 6392   6.368   6.108   7.511  2.5347 -0.6253  1.4573
  771MOL0     H 6393   6.351   5.980   7.625 -1.4378 -0.0863 -0.2521
  771MOL0     H 6394   5.964   6.131   7.491  0.0703 -0.5992 -2.7781
  771MOL0     H 6395   6.922   5.913   7.274 -2.9802 -0.9690 -0.5012
  771MOL0     H 6396   7.171   6.137   7.329 -1.6657  0.7039 -0.6178
  771MOL0     H 6397   7.176   6.015   7.460 -1.7870 -1.6596  1.4256
  771MOL0     H 6398   7.135   5.970   7.290 -4.0262 -1.2900  0.1471
  772MOL0     O 6399   8.388  10.189   2.175 -0.0061  0.5731  0.0123
  772MOL0     C 6400   8.397  10.071   2.143 -0.2685 -0.1315  0.8345
  772MOL0     O 6401   8.467   9.972   2.216 -0.1497 -1.4873 -0.1771
  772MOL0     C 6402   8.535  10.013   2.325  1.0316 -1.0425 -0.2651
  772MOL0     C 6403   8.476   9.979   2.447  0.5101 -0.4603 -0.2325
  772MOL0     C 6404   8.561   9.989   2.570 -0.4950 -0.5501  0.6915
  772MOL0     C 6405   8.688  10.045   2.554 -0.2172  0.7910 -0.3795
  772MOL0     O 6406   8.779  10.055   2.655 -0.7523 -0.2211  0.8783
  772MOL0     C 6407   8.730  10.105   2.775  0.9693  0.0547 -0.0196
  772MOL0     C 6408   8.706  10.266   2.785  0.6793  0.0048  0.9539
  772MOL0     C 6409   8.829  10.356   2.783  0.1794 -0.2669  0.9051
  772MOL0     C 6410   8.896  10.352   2.654 -0.6335  0.2771  0.4496
  772MOL0     C 6411   9.020  10.439   2.635  0.5263 -0.6802 -0.6477
  772MOL0     C 6412   8.988  10.587   2.669  0.2972 -0.5319  0.9354
  772MOL0     C 6413   8.877  10.657   2.574 -0.1597  0.9616 -0.9363
  772MOL0     C 6414   8.873  10.807   2.600 -0.3896 -0.3588  0.4895
  772MOL0     N 6415   8.811  10.846   2.734 -0.0806 -0.0551  0.7822
  772MOL0     C 6416   8.735  10.963   2.754 -0.5328  0.3620 -0.2681
  772MOL0     C 6417   8.693  10.957   2.879  0.1715 -0.4699  0.1718
  772MOL0     C 6418   8.614  11.059   2.963  0.3455 -0.2257  0.1406
  772MOL0     C 6419   8.497  10.992   3.048 -0.7391  0.5156  1.5492
  772MOL0     C 6420   8.394  10.925   2.949  0.6215  0.9842 -0.1559
  772MOL0     C 6421   8.285  10.869   3.044 -0.0046  0.3041 -0.6127
  772MOL0     O 6422   8.225  10.988   3.101  0.1802  0.5249  0.2701
  772MOL0     C 6423   8.163  10.964   3.217 -0.3074  0.0643 -0.2687
  772MOL0     C 6424   8.024  10.942   3.222  0.2351 -0.1206  0.3303
  772MOL0     C 6425   7.961  10.934   3.346 -0.5198 -0.6106 -0.1768
  772MOL0     C 6426   7.816  10.900   3.343 -0.7162 -0.1259  0.4127
  772MOL0     C 6427   8.030  10.970   3.465  0.5925  0.5843 -0.8651
  772MOL0     C 6428   7.956  10.991   3.593 -0.3119  0.4010 -1.1599
  772MOL0     O 6429   7.868  10.894   3.624 -0.3082  0.3491 -0.2468
  772MOL0     C 6430   7.797  10.880   3.747 -0.4129 -0.4736  0.1348
  772MOL0     C 6431   7.779  10.982   3.836  0.9040  0.5076  0.0279
  772MOL0     C 6432   7.680  10.971   3.934  0.0998  0.4475  0.4015
  772MOL0     C 6433   7.619  10.845   3.966  0.4242 -0.0697  1.0539
  772MOL0     O 6434   7.536  10.852   4.075  0.1326  0.2320 -0.2351
  772MOL0     C 6435   7.485  10.722   4.131  0.1483 -0.6668  0.1827
  772MOL0     C 6436   7.347  10.672   4.063 -0.5291  0.3796 -0.1895
  772MOL0     C 6437   7.225  10.755   4.105 -0.9415  0.3904  0.0383
  772MOL0     C 6438   7.220  10.888   4.024  0.6809  0.9975  1.1006
  772MOL0     C 6439   7.090  10.972   4.043  0.2678 -0.4395  0.6335
  772MOL0     C 6440   7.109  11.120   4.003  0.1369  0.1788  0.4306
  772MOL0     C 6441   6.989  11.207   4.028 -0.3528  0.8653  0.9373
  772MOL0     C 6442   7.008  11.325   3.953  0.7646 -0.6087 -0.2748
  772MOL0    Cl 6443   7.163  11.405   4.005 -0.0140  0.3333 -0.6071
  772MOL0     C 6444   7.640  10.738   3.873  0.2976 -0.8899  0.4858
  772MOL0     C 6445   7.732  10.760   3.769 -0.7454  0.4092  0.2123
  772MOL0     O 6446   8.004  11.079   3.672  0.1239  0.1369 -0.3881
  772MOL0     C 6447   8.167  10.979   3.459  0.2800 -0.3137  0.3917
  772MOL0     C 6448   8.237  10.981   3.334  1.1778  0.3678  0.8260
  772MOL0     N 6449   8.740  10.840   2.934 -0.3784  0.4612 -0.4951
  772MOL0     N 6450   8.815  10.782   2.854 -0.1814  0.0818 -0.1631
  772MOL0     C 6451   8.739  10.090   2.429 -0.2129  0.5563  0.5442
  772MOL0     C 6452   8.659  10.080   2.315  0.5633  0.4748  0.0132
  772MOL0     C 6453   8.308  10.030   2.033  0.1778 -0.1958  0.3775
  772MOL0     C 6454   8.202   9.935   2.053  0.3671  0.6673  0.8360
  772MOL0     C 6455   8.118   9.893   1.944  0.6959  0.0356 -0.8662
  772MOL0     C 6456   8.125   9.956   1.816  0.6680  0.3220 -0.2229
  772MOL0     O 6457   8.034   9.935   1.716  0.7489 -0.7007 -0.3538
  772MOL0     C 6458   7.904   9.998   1.748 -0.8404  0.3524  0.4449
  772MOL0     C 6459   7.803   9.985   1.637 -0.6209  0.6465 -0.5600
  772MOL0     C 6460   7.836  10.053   1.506 -0.8956 -0.1014 -1.7248
  772MOL0     C 6461   7.775   9.973   1.395  0.5769  0.5610  0.2430
  772MOL0     C 6462   7.629   9.958   1.385  0.2175  0.5603 -0.0113
  772MOL0     C 6463   7.506   9.954   1.380 -0.6737 -0.6199 -0.3944
  772MOL0     C 6464   8.233  10.042   1.802  0.7242 -0.9626 -0.2372
  772MOL0     C 6465   8.323  10.075   1.901 -0.0908 -0.2320 -0.1372
  772MOL0     C 6466   8.424  10.166   1.854 -0.0557  0.1665 -0.0776
  772MOL0     H 6467   8.380   9.930   2.434  1.3609 -2.5277  0.7804
  772MOL0     H 6468   8.512   9.952   2.659 -0.8940 -2.8923 -0.4329
  772MOL0     H 6469   8.788  10.070   2.861 -2.7724 -2.5183  1.7717
  772MOL0     H 6470   8.631  10.060   2.788  0.8323 -0.1556 -1.5328
  772MOL0     H 6471   8.631  10.300   2.713  1.8093 -1.1869 -0.8384
  772MOL0     H 6472   8.653  10.263   2.881  1.6845  0.2806  1.5261
  772MOL0     H 6473   8.789  10.452   2.818 -1.3799 -0.4681 -0.2142
  772MOL0     H 6474   8.898  10.310   2.854  2.7282  0.4117 -0.9724
  772MOL0     H 6475   8.940  10.254   2.634 -3.2746 -0.7017 -1.0200
  772MOL0     H 6476   8.817  10.357   2.579  0.6004  2.1356 -0.8208
  772MOL0     H 6477   9.066  10.431   2.537  0.1959  2.5408 -1.1632
  772MOL0     H 6478   9.097  10.411   2.707  0.2763  2.6350  1.0948
  772MOL0     H 6479   8.945  10.592   2.769 -0.9169 -0.1574  0.4113
  772MOL0     H 6480   9.085  10.635   2.659 -0.7517  1.4637 -0.5631
  772MOL0     H 6481   8.775  10.622   2.589 -0.6646  2.9113  0.5483
  772MOL0     H 6482   8.911  10.635   2.472 -1.7020 -3.3556 -0.7192
  772MOL0     H 6483   8.975  10.848   2.602 -0.3776 -0.4025  0.7566
  772MOL0     H 6484   8.813  10.854   2.521  0.8528  1.6633  0.6802
  772MOL0     H 6485   8.723  11.047   2.687  0.8534  1.4598  0.8042
  772MOL0     H 6486   8.582  11.148   2.908  1.8657  1.5858  2.0200
  772MOL0     H 6487   8.689  11.103   3.030 -0.4695  1.7394 -0.1604
  772MOL0     H 6488   8.530  10.912   3.116 -1.1990 -1.1900 -0.1489
  772MOL0     H 6489   8.455  11.070   3.112 -1.0282  0.1229  1.8388
  772MOL0     H 6490   8.352  10.998   2.879  2.5662  1.4172 -0.9373
  772MOL0     H 6491   8.442  10.858   2.877  1.3520  1.6360 -0.2953
  772MOL0     H 6492   8.218  10.811   2.980  1.1212 -2.4824  0.5385
  772MOL0     H 6493   8.329  10.818   3.131 -0.6030  0.7837 -0.0162
  772MOL0     H 6494   7.974  10.937   3.126  0.9451  2.1789 -0.2469
  772MOL0     H 6495   7.809  10.810   3.404  4.7084 -1.9710 -1.1260
  772MOL0     H 6496   7.768  10.869   3.249 -0.9086 -0.0518  0.4847
  772MOL0     H 6497   7.754  10.979   3.387 -0.6378 -0.1652  0.5926
  772MOL0     H 6498   7.826  11.078   3.813  0.5470  1.1454  1.8105
  772MOL0     H 6499   7.653  11.049   4.004  3.8054  2.3718 -0.0763
  772MOL0     H 6500   7.548  10.633   4.123 -1.0808 -1.5108 -0.6802
  772MOL0     H 6501   7.458  10.732   4.237 -1.4776 -0.4412 -0.2139
  772MOL0     H 6502   7.373  10.659   3.958 -0.3845 -0.7198 -0.0337
  772MOL0     H 6503   7.339  10.567   4.093  2.3577 -1.3278 -4.3733
  772MOL0     H 6504   7.234  10.777   4.212  1.5649  0.5112 -0.1477
  772MOL0     H 6505   7.139  10.688   4.096  0.2199 -1.5540  2.1545
  772MOL0     H 6506   7.215  10.849   3.922 -0.2696  0.1350  1.4636
  772MOL0     H 6507   7.314  10.942   4.041  2.3890 -1.3969 -0.1413
  772MOL0     H 6508   7.010  10.915   3.996 -0.2743 -1.4986  2.7125
  772MOL0     H 6509   7.071  10.975   4.150  1.0503 -2.5588  0.8825
  772MOL0     H 6510   7.148  11.118   3.901 -0.8705 -1.9577  0.0379
  772MOL0     H 6511   7.188  11.160   4.067 -1.0275  1.4272  1.1543
  772MOL0     H 6512   6.980  11.228   4.135 -5.2044 -2.7664  1.5627
  772MOL0     H 6513   6.898  11.157   3.993  1.2138 -1.1251 -0.5030
  772MOL0     H 6514   6.924  11.391   3.974  1.3530 -0.3460  1.3197
  772MOL0     H 6515   7.015  11.298   3.847  2.4748  0.1513 -0.3916
  772MOL0     H 6516   7.601  10.639   3.894 -0.8856 -0.2682  1.3234
  772MOL0     H 6517   7.743  10.678   3.699  0.7269 -0.1106  1.0065
  772MOL0     H 6518   8.227  11.000   3.547 -0.5956 -2.0972  1.4643
  772MOL0     H 6519   8.344  10.978   3.316  0.6916  0.4751 -2.9819
  772MOL0     H 6520   8.840  10.129   2.414 -0.3418  1.6749  2.3458
  772MOL0     H 6521   8.688  10.101   2.213 -1.0239  0.6052 -0.4339
  772MOL0     H 6522   8.174   9.890   2.147 -4.7169 -0.3585 -0.8599
  772MOL0     H 6523   8.042   9.817   1.958  1.5342 -0.9776 -1.6174
  772MOL0     H 6524   7.854   9.960   1.838 -0.8861  1.2904  0.8309
  772MOL0     H 6525   7.911  10.102   1.783  0.1654 -0.5216  3.0736
  772MOL0     H 6526   7.703  10.010   1.673 -0.6523 -0.0681 -0.1348
  772MOL0     H 6527   7.797   9.876   1.631 -1.6498  0.4822  2.0103
  772MOL0     H 6528   7.796  10.154   1.500  0.3395  0.3770 -2.0264
  772MOL0     H 6529   7.942  10.050   1.483 -0.9091  1.9251 -2.1735
  772MOL0     H 6530   7.815   9.872   1.410 -0.9666  0.0709  1.2308
  772MOL0     H 6531   7.813   9.995   1.294  1.6493 -2.1198 -0.0375
  772MOL0     H 6532   7.401   9.936   1.387 -1.1846  1.8130 -0.8580
  772MOL0     H 6533   8.240  10.088   1.704 -2.6104 -0.9750 -0.5743
  772MOL0     H 6534   8.523  10.130   1.885  0.0590  1.2829  0.9442
  772MOL0     H 6535   8.413  10.181   1.746 -3.2058 -1.0744 -0.0098
  772MOL0     H 6536   8.408  10.260   1.908 -1.1644  0.2123 -0.4766
  773MOL0     O 6537   3.802   8.339   7.220 -0.6055 -0.0437 -0.7550
  773MOL0     C 6538   3.889   8.254   7.194  0.3301  0.3321 -0.7083
  773MOL0     O 6539   4.017   8.230   7.262  1.9236 -0.6041  0.4729
  773MOL0     C 6540   4.024   8.285   7.384  0.0816  0.8272 -1.7277
  773MOL0     C 6541   3.919   8.306   7.477 -0.3138  0.0316  0.1664
  773MOL0     C 6542   3.934   8.362   7.612  0.3152  0.6273 -0.2964
  773MOL0     C 6543   4.062   8.408   7.644 -0.1667  0.9192  0.8684
  773MOL0     O 6544   4.082   8.468   7.760 -0.4658 -0.5637 -0.2717
  773MOL0     C 6545   4.172   8.580   7.767  0.0583  1.0142 -0.0808
  773MOL0     C 6546   4.270   8.579   7.883 -0.3789 -0.0076 -0.3533
  773MOL0     C 6547   4.188   8.583   8.020  0.0198 -1.1647  0.0167
  773MOL0     C 6548   4.207   8.454   8.082 -0.1842  0.5606 -0.2545
  773MOL0     C 6549   4.157   8.439   8.227  0.2670 -0.1221  0.5370
  773MOL0     C 6550   4.188   8.311   8.299  0.1592 -0.3040 -0.1644
  773MOL0     C 6551   4.333   8.269   8.332  0.7484  0.2452  0.3615
  773MOL0     C 6552   4.415   8.379   8.408 -0.7413 -0.2274 -0.4840
  773MOL0     N 6553   4.512   8.318   8.502 -0.1116  0.1054 -0.5600
  773MOL0     C 6554   4.620   8.229   8.466 -0.3317 -1.8715 -0.1984
  773MOL0     C 6555   4.683   8.213   8.584 -0.0426 -0.2340 -0.0985
  773MOL0     C 6556   4.813   8.135   8.607  0.3120  0.2516  0.3614
  773MOL0     C 6557   4.941   8.194   8.538 -1.0754  0.2889 -0.6011
  773MOL0     C 6558   5.070   8.114   8.568 -0.1805  0.9136 -0.3324
  773MOL0     C 6559   5.126   8.155   8.704 -0.2518  0.0959  0.3567
  773MOL0     O 6560   5.237   8.089   8.776  0.1268  0.1955  0.1517
  773MOL0     C 6561   5.334   8.060   8.692 -0.8415 -0.1286 -0.6831
  773MOL0     C 6562   5.418   8.162   8.647 -0.0581  0.0413 -0.5225
  773MOL0     C 6563   5.524   8.133   8.554  0.7046 -0.4582  0.7576
  773MOL0     C 6564   5.604   8.255   8.509 -0.1865 -0.7593  0.1982
  773MOL0     C 6565   5.547   8.003   8.515  0.0991 -0.6461 -0.4308
  773MOL0     C 6566   5.653   7.963   8.428 -0.2301  0.9342  1.1065
  773MOL0     O 6567   5.732   7.853   8.476 -0.2519 -0.1489  0.9753
  773MOL0     C 6568   5.785   7.755   8.399  0.1762 -0.4077 -1.2791
  773MOL0     C 6569   5.759   7.739   8.262 -0.2779  1.3259 -0.2539
  773MOL0     C 6570   5.828   7.634   8.199  0.3694  0.0269 -0.1035
  773MOL0     C 6571   5.906   7.536   8.272  0.5532 -0.4139 -0.9022
  773MOL0     O 6572   5.975   7.433   8.207 -0.1262  0.6252 -0.1634
  773MOL0     C 6573   5.960   7.303   8.262 -0.7620  0.6415  0.1150
  773MOL0     C 6574   5.857   7.222   8.177  0.7693  0.7901 -0.8806
  773MOL0     C 6575   5.872   7.230   8.028  0.2952 -0.3298 -0.5535
  773MOL0     C 6576   5.775   7.140   7.954  0.4310  0.5943 -0.9333
  773MOL0     C 6577   5.634   7.212   7.965 -0.3408  0.4297 -0.1100
  773MOL0     C 6578   5.608   7.299   7.839 -0.1566 -0.7415 -0.5010
  773MOL0     C 6579   5.600   7.208   7.709  0.1686 -0.3359  1.5549
  773MOL0     C 6580   5.534   7.303   7.598  0.2446  0.2403  0.3556
  773MOL0    Cl 6581   5.575   7.227   7.438  0.0566  0.0204  0.4135
  773MOL0     C 6582   5.923   7.552   8.404  0.2110 -0.5829 -0.5980
  773MOL0     C 6583   5.853   7.655   8.471  0.1317  0.3073 -0.2609
  773MOL0     O 6584   5.671   8.016   8.318 -0.3528 -0.8401 -0.2064
  773MOL0     C 6585   5.472   7.900   8.575  0.9608  1.1344 -0.3291
  773MOL0     C 6586   5.353   7.928   8.648 -0.9710 -1.0367  0.2842
  773MOL0     N 6587   4.611   8.281   8.685  0.0278 -0.0022 -1.0805
  773MOL0     N 6588   4.515   8.341   8.637  0.5764  1.4588 -0.3080
  773MOL0     C 6589   4.167   8.388   7.552  0.0593  0.7277 -0.5882
  773MOL0     C 6590   4.145   8.330   7.428 -1.3428 -0.4275 -0.0563
  773MOL0     C 6591   3.857   8.173   7.079 -0.4626 -1.3632  0.0725
  773MOL0     C 6592   3.725   8.141   7.052 -0.0061 -0.8374  0.2337
  773MOL0     C 6593   3.697   8.061   6.951 -0.0551 -0.0968 -0.2346
  773MOL0     C 6594   3.796   8.016   6.866 -0.0265  0.8390 -0.8567
  773MOL0     O 6595   3.747   7.939   6.764  0.1968  0.6016  0.1508
  773MOL0     C 6596   3.828   7.884   6.661  0.1182  0.0811  0.3993
  773MOL0     C 6597   3.876   7.741   6.692 -0.6108 -0.9741 -0.3343
  773MOL0     C 6598   3.976   7.689   6.596 -0.1820  0.4675  0.0855
  773MOL0     C 6599   4.008   7.540   6.594 -0.0564  0.2442  0.0611
  773MOL0     C 6600   3.990   7.460   6.717 -0.0152  0.0144 -0.1297
  773MOL0     C 6601   3.983   7.390   6.817  0.2315  0.0330  0.1133
  773MOL0     C 6602   3.925   8.046   6.891 -0.3467  0.5341  0.4979
  773MOL0     C 6603   3.958   8.132   6.993  0.0174  1.2306  0.7305
  773MOL0     C 6604   4.113   8.146   7.014  0.0241 -1.4374  0.1823
  773MOL0     H 6605   3.819   8.270   7.455 -0.0067 -1.6916  1.3508
  773MOL0     H 6606   3.853   8.358   7.683 -0.3906  2.8266 -0.8855
  773MOL0     H 6607   4.115   8.674   7.771 -1.2748  0.2585 -0.7673
  773MOL0     H 6608   4.247   8.579   7.687 -0.5576  1.7629 -0.6896
  773MOL0     H 6609   4.338   8.494   7.878  1.5984  1.4969 -0.0417
  773MOL0     H 6610   4.326   8.672   7.873 -0.8730  0.3914  0.4433
  773MOL0     H 6611   4.252   8.651   8.077 -1.9312  2.1686 -1.4805
  773MOL0     H 6612   4.089   8.628   8.017 -0.2775 -1.7395  0.7629
  773MOL0     H 6613   4.165   8.377   8.016 -2.9431  0.1542  1.8101
  773MOL0     H 6614   4.315   8.437   8.083 -0.3277 -0.6318  2.5206
  773MOL0     H 6615   4.049   8.457   8.231  0.7427  3.7039  0.1307
  773MOL0     H 6616   4.205   8.519   8.284  0.3189 -1.1467  1.9796
  773MOL0     H 6617   4.142   8.318   8.398  1.1225  1.2115  0.2008
  773MOL0     H 6618   4.134   8.225   8.258 -1.7363  0.8816 -0.2384
  773MOL0     H 6619   4.381   8.228   8.242 -0.3982 -3.3497  1.2508
  773MOL0     H 6620   4.328   8.179   8.393  2.6847 -0.6394 -0.6884
  773MOL0     H 6621   4.480   8.443   8.347  0.4340  0.2877  1.2235
  773MOL0     H 6622   4.350   8.451   8.458  2.2096  2.4594 -0.1169
  773MOL0     H 6623   4.645   8.199   8.365  1.8322 -0.1803 -0.2393
  773MOL0     H 6624   4.794   8.031   8.577 -0.5032  0.7982 -1.1738
  773MOL0     H 6625   4.828   8.125   8.715 -0.6434 -2.2768  0.3224
  773MOL0     H 6626   4.913   8.192   8.432  0.7767  0.7927 -1.1273
  773MOL0     H 6627   4.954   8.298   8.566 -1.4849  0.9771 -2.7872
  773MOL0     H 6628   5.040   8.009   8.567 -0.4098  0.9772 -1.7254
  773MOL0     H 6629   5.140   8.118   8.484 -0.2482  0.4146 -0.4143
  773MOL0     H 6630   5.156   8.259   8.687  0.9760 -0.4371 -1.0042
  773MOL0     H 6631   5.049   8.176   8.778 -0.6634 -0.4982  0.0976
  773MOL0     H 6632   5.411   8.265   8.681 -2.9385  0.0122 -0.8624
  773MOL0     H 6633   5.664   8.238   8.419 -1.2031  1.3707 -0.9729
  773MOL0     H 6634   5.670   8.293   8.587  0.1409 -0.6583 -0.1248
  773MOL0     H 6635   5.545   8.337   8.467  1.2084  0.1236 -0.0783
  773MOL0     H 6636   5.698   7.806   8.201 -0.3138  1.4954 -0.0314
  773MOL0     H 6637   5.793   7.608   8.100 -2.3034 -0.9576  1.0069
  773MOL0     H 6638   6.058   7.254   8.259 -0.7657  0.6710 -1.2813
  773MOL0     H 6639   5.948   7.302   8.370  3.0699  0.7527  0.6749
  773MOL0     H 6640   5.859   7.116   8.205 -3.1713  0.3875 -1.5014
  773MOL0     H 6641   5.755   7.257   8.196 -1.1319 -3.3492 -2.1478
  773MOL0     H 6642   5.974   7.199   8.000 -0.1293 -2.4330  0.0664
  773MOL0     H 6643   5.854   7.331   7.989  1.5014  0.4484  0.8072
  773MOL0     H 6644   5.769   7.048   8.013 -1.6158  0.9286 -0.5803
  773MOL0     H 6645   5.811   7.125   7.851  1.5942 -0.2604 -0.4202
  773MOL0     H 6646   5.557   7.134   7.968  0.3831 -0.2927  0.2826
  773MOL0     H 6647   5.621   7.273   8.054  0.8453 -1.9828  1.8521
  773MOL0     H 6648   5.681   7.379   7.822 -0.4085 -0.7577 -1.7344
  773MOL0     H 6649   5.511   7.346   7.854  0.8314  0.7608  1.7422
  773MOL0     H 6650   5.529   7.126   7.724 -2.4891  1.6742  0.7717
  773MOL0     H 6651   5.700   7.166   7.690  0.9698  0.3251  3.9371
  773MOL0     H 6652   5.574   7.405   7.604 -0.1104  0.7741 -3.5589
  773MOL0     H 6653   5.426   7.316   7.605  0.5747  2.7316  1.8756
  773MOL0     H 6654   6.001   7.500   8.458  1.8770  0.9630 -1.4223
  773MOL0     H 6655   5.864   7.657   8.579  0.8158 -3.2830 -0.1481
  773MOL0     H 6656   5.499   7.797   8.559 -4.8408 -0.6756 -0.9361
  773MOL0     H 6657   5.276   7.853   8.663 -2.6363  0.8690  1.7178
  773MOL0     H 6658   4.270   8.400   7.584  0.1005 -2.2856  0.6900
  773MOL0     H 6659   4.230   8.320   7.362 -1.7367  2.6653 -1.1901
  773MOL0     H 6660   3.640   8.166   7.115 -1.5708 -2.1989 -1.2512
  773MOL0     H 6661   3.593   8.042   6.926 -0.6838  0.1136  2.0175
  773MOL0     H 6662   3.761   7.885   6.575  0.2282  2.0240  0.2944
  773MOL0     H 6663   3.911   7.954   6.646  0.2870 -0.1019  0.4824
  773MOL0     H 6664   3.790   7.674   6.698  1.6786 -4.1670 -0.3909
  773MOL0     H 6665   3.913   7.761   6.792 -2.1421 -0.2743  0.1277
  773MOL0     H 6666   3.951   7.717   6.494 -0.3960 -0.8441 -0.2489
  773MOL0     H 6667   4.069   7.746   6.598 -1.3782  2.6435 -1.9574
  773MOL0     H 6668   4.111   7.519   6.563  0.0190  0.0791  0.4153
  773MOL0     H 6669   3.946   7.489   6.519  1.8881 -2.4513  0.1382
  773MOL0     H 6670   3.965   7.332   6.906 -1.5476  3.0976  1.9436
  773MOL0     H 6671   4.011   8.001   6.842 -0.4808  1.4156 -0.5776
  773MOL0     H 6672   4.167   8.115   6.924 -0.0802  2.0543 -1.2324
  773MOL0     H 6673   4.139   8.251   7.030 -1.4289 -1.1207  0.5954
  773MOL0     H 6674   4.140   8.078   7.095  0.7966 -2.7575 -1.1275
  774MOL0     O 6675   5.408   6.871  10.776 -0.3447 -1.3458 -0.3810
  774MOL0     C 6676   5.284   6.885  10.765 -1.2322 -0.2550  0.3842
  774MOL0     O 6677   5.205   6.872  10.654 -0.0777 -0.3005 -0.6270
  774MOL0     C 6678   5.253   6.855  10.530 -1.0374 -0.2980  0.9042
  774MOL0     C 6679   5.175   6.773  10.448  0.7778 -0.0251 -0.1682
  774MOL0     C 6680   5.190   6.773  10.310  0.7096  0.1616  0.7934
  774MOL0     C 6681   5.291   6.851  10.252 -0.6714  0.3169 -0.8999
  774MOL0     O 6682   5.287   6.844  10.115 -0.1874  0.4922 -0.3185
  774MOL0     C 6683   5.287   6.973  10.061  0.3126 -1.2026 -0.4329
  774MOL0     C 6684   5.251   6.971   9.924  0.2203 -1.2246  0.3793
  774MOL0     C 6685   5.101   7.000   9.903  0.2489 -0.0465  0.0754
  774MOL0     C 6686   5.011   6.880   9.926 -0.5299 -0.3250 -0.2465
  774MOL0     C 6687   4.864   6.925   9.929  0.0083 -0.8862 -0.4683
  774MOL0     C 6688   4.774   6.799   9.936  0.2573 -0.1004  0.1363
  774MOL0     C 6689   4.628   6.847   9.944 -0.1814 -0.4895  0.0682
  774MOL0     C 6690   4.556   6.739  10.026  0.5495  0.1459  0.5018
  774MOL0     N 6691   4.421   6.781  10.069 -0.3157 -0.3319  0.4714
  774MOL0     C 6692   4.320   6.824   9.982 -0.1210  0.5765  0.1629
  774MOL0     C 6693   4.220   6.845  10.064  0.1932 -0.2676  0.7322
  774MOL0     C 6694   4.083   6.901  10.029 -1.0321  0.1532 -0.9601
  774MOL0     C 6695   3.987   6.792   9.981 -1.4049 -0.1122 -1.3116
  774MOL0     C 6696   3.848   6.863   9.941 -0.3957  0.0019 -0.1141
  774MOL0     C 6697   3.757   6.757   9.866  0.4545 -0.3514  0.1616
  774MOL0     O 6698   3.740   6.641   9.946  0.1863  0.1945  0.2791
  774MOL0     C 6699   3.631   6.649  10.038 -0.3918 -0.3363 -0.5681
  774MOL0     C 6700   3.503   6.624   9.986 -0.0406  0.0163 -0.5583
  774MOL0     C 6701   3.393   6.625  10.073 -0.4297 -0.5006  0.4938
  774MOL0     C 6702   3.252   6.622  10.020 -0.5176 -0.0584 -0.8138
  774MOL0     C 6703   3.412   6.653  10.210  0.4829  0.4204 -0.0636
  774MOL0     C 6704   3.311   6.640  10.315 -0.2031 -0.2807  0.6175
  774MOL0     O 6705   3.253   6.516  10.315 -0.6350  0.7240  0.0390
  774MOL0     C 6706   3.198   6.461  10.427 -0.5401  1.0963  0.7276
  774MOL0     C 6707   3.079   6.384  10.423  0.5221  0.1571  0.9113
  774MOL0     C 6708   3.014   6.346  10.535 -0.1643 -0.3364 -0.1752
  774MOL0     C 6709   3.068   6.371  10.663 -1.1887  0.5509  0.6729
  774MOL0     O 6710   2.994   6.338  10.771  0.2592  0.1577 -0.3597
  774MOL0     C 6711   3.040   6.380  10.905 -0.0273 -0.4891 -0.3351
  774MOL0     C 6712   2.957   6.319  11.015 -0.0083  0.3333 -0.3883
  774MOL0     C 6713   2.805   6.340  10.993  0.1496  0.2798  0.0376
  774MOL0     C 6714   2.731   6.223  11.057 -0.3063  0.0132 -1.5916
  774MOL0     C 6715   2.579   6.223  11.038 -0.8761 -0.7551  1.2894
  774MOL0     C 6716   2.511   6.119  11.124 -0.4483 -0.3844 -0.1310
  774MOL0     C 6717   2.381   6.062  11.058  0.9881  0.4515  0.0960
  774MOL0     C 6718   2.289   5.983  11.163  0.6512  0.6024  0.0177
  774MOL0    Cl 6719   2.133   5.979  11.078 -0.2128 -0.3898 -0.0685
  774MOL0     C 6720   3.191   6.427  10.670  0.0163 -0.4887  0.3236
  774MOL0     C 6721   3.244   6.479  10.556 -0.0677 -0.3092  0.3118
  774MOL0     O 6722   3.307   6.725  10.398  0.1804  0.1141  0.2357
  774MOL0     C 6723   3.541   6.672  10.258 -0.5606  0.8908  0.1744
  774MOL0     C 6724   3.651   6.676  10.171  0.3137 -0.1572 -0.1191
  774MOL0     N 6725   4.247   6.810  10.191 -0.3189 -0.2294  0.7357
  774MOL0     N 6726   4.371   6.783  10.202 -1.4533  0.0861 -0.0112
  774MOL0     C 6727   5.375   6.934  10.334 -0.6959 -0.2433  0.4394
  774MOL0     C 6728   5.360   6.934  10.476  0.2592  0.3934 -0.7816
  774MOL0     C 6729   5.219   6.895  10.899  0.1190 -0.4067  0.2856
  774MOL0     C 6730   5.283   6.971  10.997 -0.1815  0.6705  0.1488
  774MOL0     C 6731   5.219   6.997  11.126 -1.0474  0.4521  0.7303
  774MOL0     C 6732   5.089   6.957  11.155 -1.1012 -0.2078  0.0824
  774MOL0     O 6733   5.033   7.012  11.273 -0.7166  0.8555  0.1719
  774MOL0     C 6734   4.901   6.982  11.310  0.6179  0.3493  0.8505
  774MOL0     C 6735   4.859   7.082  11.416  0.1433 -0.2170  0.0496
  774MOL0     C 6736   4.721   7.044  11.467 -0.1224  0.0509 -0.0202
  774MOL0     C 6737   4.669   7.128  11.579 -0.2885 -0.0073 -0.7904
  774MOL0     C 6738   4.740   7.110  11.707  0.1365  0.1676  0.0721
  774MOL0     C 6739   4.804   7.075  11.798 -0.5647 -1.3651 -0.1363
  774MOL0     C 6740   5.026   6.890  11.056  0.9220  0.2416 -0.6647
  774MOL0     C 6741   5.091   6.852  10.935 -0.0091  0.0678  1.4586
  774MOL0     C 6742   5.024   6.756  10.846 -0.0062  0.6481  0.4568
  774MOL0     H 6743   5.095   6.718  10.497 -0.8012  0.7581 -1.7567
  774MOL0     H 6744   5.133   6.705  10.247  2.3442  0.8865 -1.6050
  774MOL0     H 6745   5.388   7.016  10.064 -0.1241 -0.0944 -0.8313
  774MOL0     H 6746   5.215   7.036  10.114  0.0305  1.5010 -3.6878
  774MOL0     H 6747   5.305   7.043   9.862 -1.2251  0.1790  0.6897
  774MOL0     H 6748   5.276   6.871   9.887 -0.8066 -0.5751 -2.3543
  774MOL0     H 6749   5.067   7.080   9.968  0.6660  2.1779 -2.2618
  774MOL0     H 6750   5.089   7.038   9.801 -1.8862  1.6398  0.8836
  774MOL0     H 6751   5.019   6.794   9.858 -1.7070 -1.2705  0.7527
  774MOL0     H 6752   5.038   6.837  10.022  0.6427 -0.5184 -0.6397
  774MOL0     H 6753   4.838   6.995   9.849 -0.6840 -0.1315  0.3887
  774MOL0     H 6754   4.859   6.988  10.019  0.0935  2.5603 -2.6820
  774MOL0     H 6755   4.798   6.742   9.846  0.7706  2.2921 -1.3382
  774MOL0     H 6756   4.801   6.736  10.020 -1.9137  0.1083  1.0496
  774MOL0     H 6757   4.580   6.861   9.847 -1.2649  2.9804  0.9560
  774MOL0     H 6758   4.614   6.950   9.978 -0.4854 -0.5694  0.1919
  774MOL0     H 6759   4.550   6.646   9.968 -3.0984 -0.0550  0.9683
  774MOL0     H 6760   4.600   6.712  10.122  1.1658 -0.4174  0.0671
  774MOL0     H 6761   4.331   6.831   9.874 -1.2441 -2.8130 -0.2832
  774MOL0     H 6762   4.094   6.975   9.950 -0.1140 -1.6498 -2.5844
  774MOL0     H 6763   4.042   6.941  10.122  0.5518  0.0341 -0.1722
  774MOL0     H 6764   4.040   6.753   9.894  0.1767  0.3673 -0.6048
  774MOL0     H 6765   3.965   6.730  10.069 -2.9899  1.8744 -0.2243
  774MOL0     H 6766   3.787   6.903  10.022 -1.7586 -0.2158 -0.9906
  774MOL0     H 6767   3.863   6.946   9.871 -0.7233  0.3067  0.1761
  774MOL0     H 6768   3.656   6.798   9.855  0.2346 -0.8554  0.2794
  774MOL0     H 6769   3.806   6.733   9.771  2.2399 -2.0345  1.4292
  774MOL0     H 6770   3.472   6.626   9.882 -4.2579 -4.2385  0.2431
  774MOL0     H 6771   3.217   6.719   9.983  1.0019  1.4905  1.5583
  774MOL0     H 6772   3.181   6.577  10.089  0.4517 -0.4384 -0.0362
  774MOL0     H 6773   3.268   6.556   9.934  3.6061 -1.3544  0.6962
  774MOL0     H 6774   3.028   6.360  10.330  1.4320  2.4551 -0.2622
  774MOL0     H 6775   2.911   6.312  10.534 -0.8184  1.4945  0.2276
  774MOL0     H 6776   3.144   6.360  10.930  0.3787 -0.4205 -1.8735
  774MOL0     H 6777   3.030   6.489  10.914 -1.0533 -0.6678  1.0244
  774MOL0     H 6778   2.980   6.212  11.022  0.8238  0.4617 -1.0820
  774MOL0     H 6779   2.979   6.361  11.114  0.9395  0.9300 -0.8336
  774MOL0     H 6780   2.777   6.350  10.888 -3.3388 -1.9697  0.5763
  774MOL0     H 6781   2.774   6.428  11.050  0.3013  0.1482  0.3286
  774MOL0     H 6782   2.773   6.226  11.158 -0.2496  1.5319 -1.6255
  774MOL0     H 6783   2.756   6.125  11.016  0.1055 -0.1127 -1.0498
  774MOL0     H 6784   2.544   6.326  11.039  0.8016 -0.0931 -0.6927
  774MOL0     H 6785   2.563   6.189  10.935 -1.8173  0.0740  1.1522
  774MOL0     H 6786   2.483   6.168  11.218  1.4982 -0.6851  0.6417
  774MOL0     H 6787   2.570   6.030  11.145 -0.8490 -0.4789  0.6174
  774MOL0     H 6788   2.407   6.004  10.969  1.3748  1.2597 -0.3321
  774MOL0     H 6789   2.322   6.149  11.027 -0.5927 -0.5524  0.1795
  774MOL0     H 6790   2.277   6.045  11.252  2.5235 -0.1408  0.8417
  774MOL0     H 6791   2.323   5.882  11.191 -1.8266  0.5119  3.2411
  774MOL0     H 6792   3.231   6.449  10.768  1.1981 -0.2021 -0.2093
  774MOL0     H 6793   3.341   6.527  10.563 -0.4310  0.1542  4.1402
  774MOL0     H 6794   3.557   6.677  10.365 -0.0859 -0.0915  0.1603
  774MOL0     H 6795   3.748   6.699  10.213 -0.6884  1.8404  1.2591
  774MOL0     H 6796   5.445   6.996  10.280 -1.6525 -0.6462 -1.3436
  774MOL0     H 6797   5.408   7.011  10.534 -2.8417  2.4273 -0.6891
  774MOL0     H 6798   5.387   6.999  10.981  0.2397 -1.0370 -0.4288
  774MOL0     H 6799   5.269   7.060  11.198  0.9245 -2.9253  2.5644
  774MOL0     H 6800   4.835   6.994  11.224  1.4727 -0.5124  0.0458
  774MOL0     H 6801   4.907   6.879  11.345  2.4504 -0.9147 -2.6384
  774MOL0     H 6802   4.850   7.187  11.389 -3.1473 -0.6402 -1.0366
  774MOL0     H 6803   4.938   7.070  11.490 -1.0375 -0.5285  1.3002
  774MOL0     H 6804   4.647   7.038  11.386  1.1414  0.2325 -1.2245
  774MOL0     H 6805   4.733   6.939  11.495 -2.1513 -0.1283  0.3308
  774MOL0     H 6806   4.567   7.100  11.607 -1.1726  2.8280 -0.7607
  774MOL0     H 6807   4.650   7.231  11.546 -2.1423 -0.7634 -2.2145
  774MOL0     H 6808   4.862   7.037  11.880 -3.2868 -2.2554  1.4957
  774MOL0     H 6809   4.926   6.853  11.074 -0.9436  3.5630 -3.0703
  774MOL0     H 6810   4.966   6.697  10.918 -0.9356 -0.7568 -1.3332
  774MOL0     H 6811   4.954   6.803  10.775  0.2173 -0.2770 -0.4059
  774MOL0     H 6812   5.100   6.698  10.793 -1.0813 -1.8927  1.5443
  775MOL0     O 6813   9.605   6.182   0.551  0.4131 -0.6197  0.2721
  775MOL0     C 6814   9.636   6.299   0.562  0.3574 -0.1709 -0.0079
  775MOL0     O 6815   9.561   6.394   0.621  0.4784 -0.4495  0.3968
  775MOL0     C 6816   9.434   6.391   0.673 -1.3264 -0.4369 -0.4537
  775MOL0     C 6817   9.395   6.292   0.761 -0.3528 -0.0823 -0.2596
  775MOL0     C 6818   9.264   6.282   0.814 -0.3871 -1.0495 -0.1102
  775MOL0     C 6819   9.169   6.383   0.780 -0.4219  0.4501 -1.1715
  775MOL0     O 6820   9.042   6.388   0.824 -0.2502  0.5630 -0.1584
  775MOL0     C 6821   8.971   6.253   0.824 -0.8741 -0.5876 -0.3082
  775MOL0     C 6822   8.824   6.278   0.815 -0.2681  0.2881  0.1148
  775MOL0     C 6823   8.775   6.354   0.697 -0.0550 -0.2670  0.7270
  775MOL0     C 6824   8.797   6.287   0.564 -0.7064 -0.4336 -0.0700
  775MOL0     C 6825   8.751   6.385   0.449 -0.8493 -0.8806 -0.9507
  775MOL0     C 6826   8.600   6.367   0.436  0.6395 -0.4046  0.7537
  775MOL0     C 6827   8.539   6.460   0.325  0.3595  0.6022 -0.0472
  775MOL0     C 6828   8.387   6.445   0.321 -0.2458 -0.5097 -0.1550
  775MOL0     N 6829   8.322   6.516   0.213 -0.0755  0.1390 -0.1161
  775MOL0     C 6830   8.352   6.486   0.077 -0.2014 -0.4476 -0.6000
  775MOL0     C 6831   8.283   6.580   0.008 -0.3500  0.4067  0.2836
  775MOL0     C 6832   8.288   6.609  -0.141 -0.3528 -0.6646 -0.5558
  775MOL0     C 6833   8.225   6.505  -0.223 -0.3945  0.8387 -0.9575
  775MOL0     C 6834   8.258   6.507  -0.371  1.1194 -0.2916  0.3511
  775MOL0     C 6835   8.213   6.642  -0.460  0.3483 -0.3547 -0.4564
  775MOL0     O 6836   8.089   6.678  -0.425  0.1203 -0.5280 -0.0179
  775MOL0     C 6837   7.975   6.596  -0.459  0.5982 -0.8916  0.2752
  775MOL0     C 6838   7.852   6.621  -0.402 -0.5598  0.7136  0.2600
  775MOL0     C 6839   7.739   6.544  -0.428  1.3368  0.7100  0.6866
  775MOL0     C 6840   7.616   6.593  -0.368  1.3292 -0.1319 -0.8803
  775MOL0     C 6841   7.744   6.432  -0.511  0.2855 -0.3149  0.2842
  775MOL0     C 6842   7.624   6.339  -0.540  0.9398  0.3158 -0.2582
  775MOL0     O 6843   7.520   6.350  -0.454 -0.3683 -0.0766  0.4483
  775MOL0     C 6844   7.392   6.314  -0.485  0.1226 -0.7069  0.2295
  775MOL0     C 6845   7.345   6.237  -0.596 -0.0666  0.9697  0.4681
  775MOL0     C 6846   7.209   6.198  -0.596 -0.2029 -0.8768  0.1178
  775MOL0     C 6847   7.124   6.255  -0.510  0.8988 -0.5938 -0.3614
  775MOL0     O 6848   6.989   6.207  -0.502  0.1497  0.3783  0.2551
  775MOL0     C 6849   6.995   6.073  -0.472  0.3822  1.2313 -0.6468
  775MOL0     C 6850   6.877   6.039  -0.386 -0.0466 -0.9966  0.5870
  775MOL0     C 6851   6.870   6.117  -0.257  0.2204 -1.0642 -0.6351
  775MOL0     C 6852   6.967   6.083  -0.147 -0.8321 -0.8026  0.6664
  775MOL0     C 6853   6.923   6.142  -0.009  0.4266  0.8160 -0.3716
  775MOL0     C 6854   7.016   6.129   0.111 -0.0261 -0.3843  0.1027
  775MOL0     C 6855   7.163   6.181   0.079  0.5796  0.1915 -0.0496
  775MOL0     C 6856   7.242   6.164   0.216 -0.3285 -0.1347  0.5202
  775MOL0    Cl 6857   7.425   6.190   0.186  0.0428 -0.2931  0.0124
  775MOL0     C 6858   7.165   6.334  -0.399  0.6350  0.7161  0.2351
  775MOL0     C 6859   7.298   6.365  -0.393 -0.0279  0.1872  0.0709
  775MOL0     O 6860   7.636   6.251  -0.626 -0.1223 -0.6305 -0.1736
  775MOL0     C 6861   7.872   6.399  -0.563 -0.5781 -0.9507  1.2906
  775MOL0     C 6862   7.989   6.478  -0.547 -0.3198 -1.4648 -1.2527
  775MOL0     N 6863   8.210   6.657   0.098 -0.3715  0.4887  0.2719
  775MOL0     N 6864   8.232   6.616   0.220 -0.8814 -0.4034 -0.2650
  775MOL0     C 6865   9.212   6.483   0.697 -0.2868 -0.5013  0.4651
  775MOL0     C 6866   9.338   6.488   0.639 -0.5359  0.2455 -0.3687
  775MOL0     C 6867   9.750   6.343   0.475  0.0010 -0.0764 -0.2347
  775MOL0     C 6868   9.811   6.258   0.386  1.2260  0.4826  0.3440
  775MOL0     C 6869   9.917   6.289   0.312 -1.1584  0.3934 -0.2361
  775MOL0     C 6870   9.969   6.415   0.315 -1.0607  0.4398 -0.7611
  775MOL0     O 6871  10.063   6.460   0.232 -0.2009  0.2858 -0.0312
  775MOL0     C 6872  10.167   6.368   0.194 -0.4501 -0.1885  0.0702
  775MOL0     C 6873  10.270   6.418   0.091 -0.4181 -0.5833  0.1399
  775MOL0     C 6874  10.369   6.311   0.067 -0.3159  0.7923  0.6998
  775MOL0     C 6875  10.489   6.371  -0.018  0.3217 -1.1237  0.4925
  775MOL0     C 6876  10.598   6.278  -0.037 -1.3927 -0.5635  0.8334
  775MOL0     C 6877  10.677   6.187  -0.041  0.3587 -0.2838 -0.0420
  775MOL0     C 6878   9.913   6.507   0.405 -0.4157  0.5769 -0.1773
  775MOL0     C 6879   9.801   6.475   0.491 -0.4455 -0.4897 -0.7754
  775MOL0     C 6880   9.756   6.580   0.590 -1.0074 -0.6879 -1.0851
  775MOL0     H 6881   9.458   6.207   0.784  0.1135 -0.1158 -1.5620
  775MOL0     H 6882   9.242   6.198   0.880 -1.2178 -1.2855 -0.6652
  775MOL0     H 6883   9.001   6.191   0.908  0.4361 -1.6961 -1.5375
  775MOL0     H 6884   9.007   6.196   0.738 -2.5322 -1.2965 -0.5562
  775MOL0     H 6885   8.793   6.173   0.820  3.9121 -1.1786 -0.3867
  775MOL0     H 6886   8.809   6.326   0.912  4.3358 -0.0989  1.2770
  775MOL0     H 6887   8.668   6.378   0.701 -0.4659 -0.1415 -4.1805
  775MOL0     H 6888   8.822   6.452   0.684 -0.6375 -0.0345  0.3091
  775MOL0     H 6889   8.902   6.260   0.550 -0.1741 -1.1065  4.1095
  775MOL0     H 6890   8.743   6.192   0.560 -0.8178 -0.3798  0.1389
  775MOL0     H 6891   8.803   6.359   0.356 -0.0167 -0.2362 -0.6728
  775MOL0     H 6892   8.777   6.485   0.482  0.0799 -1.7878  1.2735
  775MOL0     H 6893   8.571   6.266   0.407  0.7654 -0.7704  1.8457
  775MOL0     H 6894   8.560   6.390   0.535  0.6682 -0.1201  0.6990
  775MOL0     H 6895   8.583   6.427   0.230 -3.1373 -0.6941 -1.3866
  775MOL0     H 6896   8.560   6.566   0.344 -2.7632  1.1574  0.7267
  775MOL0     H 6897   8.368   6.339   0.299 -2.4615  0.0002 -1.0156
  775MOL0     H 6898   8.333   6.469   0.413 -2.1756 -1.4604 -0.9745
  775MOL0     H 6899   8.425   6.421   0.030  0.7080 -1.3906  1.9399
  775MOL0     H 6900   8.395   6.619  -0.162 -0.1487 -2.1752 -0.3509
  775MOL0     H 6901   8.238   6.706  -0.153 -0.2088 -0.0236  2.8639
  775MOL0     H 6902   8.262   6.411  -0.181  0.2244  2.4981  2.5285
  775MOL0     H 6903   8.117   6.508  -0.206 -0.3378 -3.0822  1.1512
  775MOL0     H 6904   8.362   6.485  -0.396  1.2073  2.8776 -3.0616
  775MOL0     H 6905   8.217   6.424  -0.428  2.1532 -1.5862  1.4377
  775MOL0     H 6906   8.265   6.729  -0.418 -1.6735 -0.1356  1.7851
  775MOL0     H 6907   8.231   6.634  -0.568 -1.3420  0.7190 -0.8537
  775MOL0     H 6908   7.849   6.707  -0.336 -2.1312  1.8836 -1.2102
  775MOL0     H 6909   7.523   6.593  -0.427 -0.7805  3.7900  1.9359
  775MOL0     H 6910   7.622   6.695  -0.329  1.0445 -0.6208  0.5111
  775MOL0     H 6911   7.605   6.534  -0.277  1.9786  2.2132  0.8134
  775MOL0     H 6912   7.415   6.196  -0.668 -2.2160 -1.9182 -0.1848
  775MOL0     H 6913   7.159   6.139  -0.672 -1.4521  0.8376 -0.4564
  775MOL0     H 6914   6.995   6.001  -0.555 -1.8023 -1.9657  1.8687
  775MOL0     H 6915   7.082   6.059  -0.407 -0.4418 -1.3973  0.0390
  775MOL0     H 6916   6.786   6.053  -0.445  0.8259  2.2727 -0.2078
  775MOL0     H 6917   6.867   5.932  -0.365 -2.3595 -0.9569  0.0070
  775MOL0     H 6918   6.768   6.110  -0.218  0.9248  2.9205  2.5999
  775MOL0     H 6919   6.893   6.222  -0.278  3.1562 -1.8252 -1.7181
  775MOL0     H 6920   7.062   6.127  -0.178 -1.8100 -0.0849 -1.4772
  775MOL0     H 6921   6.991   5.976  -0.137 -0.2236 -0.8166 -0.7604
  775MOL0     H 6922   6.893   6.245  -0.029  0.6871  0.3833 -3.6116
  775MOL0     H 6923   6.833   6.083   0.008  1.0410 -0.2682 -0.7629
  775MOL0     H 6924   7.026   6.021   0.123  4.9270 -0.6630 -3.3683
  775MOL0     H 6925   6.981   6.188   0.197 -0.3274 -1.1167  0.4886
  775MOL0     H 6926   7.151   6.284   0.043  0.2632  0.2794  0.3019
  775MOL0     H 6927   7.210   6.124  -0.002 -0.4963 -1.1179  0.2040
  775MOL0     H 6928   7.222   6.070   0.268  0.2640 -0.2621  0.5250
  775MOL0     H 6929   7.202   6.234   0.290  0.4851 -0.5253  1.3484
  775MOL0     H 6930   7.087   6.371  -0.333 -3.7777 -0.4400 -3.7679
  775MOL0     H 6931   7.318   6.427  -0.306 -1.3720  0.5367  0.1533
  775MOL0     H 6932   7.868   6.321  -0.638 -0.9795  2.6389 -2.7943
  775MOL0     H 6933   8.080   6.441  -0.593  3.0935  0.4485  3.2288
  775MOL0     H 6934   9.147   6.563   0.663  2.2375  0.8096 -1.6066
  775MOL0     H 6935   9.357   6.567   0.567 -0.7673  0.6193 -0.0181
  775MOL0     H 6936   9.770   6.159   0.368  2.5118  0.0328 -0.2247
  775MOL0     H 6937   9.962   6.205   0.260  1.8043  2.1420 -0.7463
  775MOL0     H 6938  10.224   6.350   0.286  0.0269  0.5310 -0.0741
  775MOL0     H 6939  10.114   6.283   0.149  0.7217  0.3789 -2.6260
  775MOL0     H 6940  10.312   6.512   0.129 -2.6425  0.3719  0.4197
  775MOL0     H 6941  10.213   6.439   0.000  1.7368 -1.2864 -1.4557
  775MOL0     H 6942  10.409   6.285   0.165 -0.9081  2.4371  1.4266
  775MOL0     H 6943  10.329   6.223   0.017  2.6910 -0.5427  0.4237
  775MOL0     H 6944  10.535   6.453   0.039 -0.9980 -0.7293  1.0428
  775MOL0     H 6945  10.447   6.424  -0.104  0.3391 -0.5082  0.8572
  775MOL0     H 6946  10.726   6.092  -0.036 -2.1461 -1.6024  2.9592
  775MOL0     H 6947   9.956   6.603   0.428 -0.7716 -0.1621  4.3653
  775MOL0     H 6948   9.672   6.638   0.551 -2.0200  0.6850  2.7022
  775MOL0     H 6949   9.742   6.541   0.691 -1.8194 -0.7647 -1.2228
  775MOL0     H 6950   9.843   6.646   0.598 -1.1662 -0.6521  0.6106
  776MOL0     O 6951   3.903   0.766   3.257 -0.4450 -0.0262 -0.6323
  776MOL0     C 6952   4.009   0.696   3.246  1.0967 -0.0010 -0.1059
  776MOL0     O 6953   4.019   0.598   3.144 -0.5791  0.3461 -0.1763
  776MOL0     C 6954   3.907   0.575   3.069  1.1470 -0.4806  0.2442
  776MOL0     C 6955   3.925   0.583   2.927  0.5549  0.2381  0.7287
  776MOL0     C 6956   3.823   0.531   2.844 -0.1429  1.3131 -0.1306
  776MOL0     C 6957   3.700   0.479   2.891 -0.1395  0.1714 -0.1631
  776MOL0     O 6958   3.609   0.444   2.804  0.3194  0.1169 -0.1891
  776MOL0     C 6959   3.468   0.444   2.836  0.5220 -0.2569  0.6190
  776MOL0     C 6960   3.381   0.423   2.711  0.1533 -0.0066  0.1610
  776MOL0     C 6961   3.423   0.535   2.608  0.6634  0.5599 -0.6131
  776MOL0     C 6962   3.384   0.500   2.474 -0.4178  0.8659 -0.0269
  776MOL0     C 6963   3.443   0.605   2.380 -0.2871 -0.2585  0.1877
  776MOL0     C 6964   3.414   0.570   2.235  0.5314 -0.5553  0.9230
  776MOL0     C 6965   3.479   0.663   2.144 -0.0165 -0.6754 -0.6777
  776MOL0     C 6966   3.414   0.802   2.117  0.1835  0.1845 -1.1559
  776MOL0     N 6967   3.287   0.799   2.040 -0.2867 -0.0448 -0.8986
  776MOL0     C 6968   3.163   0.824   2.091 -0.1853  0.4429  0.9863
  776MOL0     C 6969   3.076   0.827   1.982 -0.8245  0.8968 -0.2106
  776MOL0     C 6970   2.928   0.877   2.001  0.2221 -0.0150 -0.6977
  776MOL0     C 6971   2.880   0.991   1.918 -0.5423  0.8771  0.4144
  776MOL0     C 6972   2.982   1.110   1.886  0.2630  0.7676  0.1219
  776MOL0     C 6973   3.067   1.158   2.001 -0.7053  0.1557 -0.1916
  776MOL0     O 6974   3.121   1.291   1.984 -0.3065  0.2840  0.4060
  776MOL0     C 6975   3.257   1.309   1.959  0.6740 -0.1322  0.0332
  776MOL0     C 6976   3.344   1.216   1.903  0.1382 -0.7604  0.2254
  776MOL0     C 6977   3.484   1.246   1.878  0.5355 -0.6168 -0.2470
  776MOL0     C 6978   3.567   1.122   1.835  0.4383 -0.5953  0.8462
  776MOL0     C 6979   3.528   1.378   1.886 -0.3493 -0.5642 -0.9595
  776MOL0     C 6980   3.649   1.431   1.823 -0.3924 -0.3775  0.0804
  776MOL0     O 6981   3.740   1.337   1.799 -0.3843 -0.8161  0.3356
  776MOL0     C 6982   3.853   1.360   1.721 -0.1517  0.5391  0.1454
  776MOL0     C 6983   3.947   1.447   1.759 -0.5633  0.0265 -0.7747
  776MOL0     C 6984   4.068   1.460   1.696  0.0864 -0.6442 -0.4153
  776MOL0     C 6985   4.095   1.390   1.576  0.5863  0.7562 -0.0833
  776MOL0     O 6986   4.218   1.393   1.518  0.1449 -0.4188 -0.0672
  776MOL0     C 6987   4.248   1.323   1.398 -0.5041 -1.3399  0.5740
  776MOL0     C 6988   4.289   1.175   1.429  0.1560  0.7145  0.0976
  776MOL0     C 6989   4.417   1.173   1.511  0.0655  0.5836  0.9141
  776MOL0     C 6990   4.443   1.028   1.547  0.5796 -0.3437 -0.4061
  776MOL0     C 6991   4.490   0.934   1.435 -0.1971 -0.1765 -0.0888
  776MOL0     C 6992   4.617   0.973   1.358 -0.1824 -0.2685  0.8240
  776MOL0     C 6993   4.742   0.981   1.442  0.2526  0.6133 -0.6424
  776MOL0     C 6994   4.850   1.064   1.373  0.0541 -0.1893 -0.9462
  776MOL0    Cl 6995   4.783   1.231   1.360  0.7027 -0.8647 -0.2531
  776MOL0     C 6996   3.996   1.302   1.532  0.9637  0.1584  0.3657
  776MOL0     C 6997   3.881   1.278   1.607  0.8826 -0.2950  0.5723
  776MOL0     O 6998   3.668   1.555   1.809  0.3272 -0.4585 -0.7682
  776MOL0     C 6999   3.446   1.471   1.945 -0.5032 -0.6326  0.6588
  776MOL0     C 7000   3.316   1.440   1.984  0.3528  0.0069  0.3798
  776MOL0     N 7001   3.162   0.811   1.875  0.9932 -0.9775  1.2231
  776MOL0     N 7002   3.281   0.782   1.908 -0.1132 -0.6971  0.6825
  776MOL0     C 7003   3.681   0.480   3.034  0.5417 -0.1612 -0.2686
  776MOL0     C 7004   3.787   0.520   3.119  0.1237  0.5776  0.1057
  776MOL0     C 7005   4.116   0.709   3.344 -0.4288 -0.4578 -0.5945
  776MOL0     C 7006   4.214   0.608   3.334 -0.6202 -0.4072  0.3637
  776MOL0     C 7007   4.328   0.613   3.425 -0.2039  0.2242  0.3252
  776MOL0     C 7008   4.335   0.699   3.536  0.4403  0.2443  0.4409
  776MOL0     O 7009   4.451   0.698   3.622  0.8267 -0.0406 -0.2057
  776MOL0     C 7010   4.502   0.567   3.656  0.9482  0.3410  0.0363
  776MOL0     C 7011   4.545   0.573   3.805 -0.2711  0.1801  0.4312
  776MOL0     C 7012   4.652   0.461   3.817 -0.5376  0.2231  0.5252
  776MOL0     C 7013   4.703   0.455   3.953 -0.0853  0.0886  0.1361
  776MOL0     C 7014   4.807   0.345   3.952 -0.8755  1.0931 -0.8003
  776MOL0     C 7015   4.895   0.250   3.959  1.0728 -0.0648  0.0433
  776MOL0     C 7016   4.234   0.796   3.547  0.7100 -0.2109 -0.1264
  776MOL0     C 7017   4.134   0.810   3.448  0.7597 -0.0178 -0.5753
  776MOL0     C 7018   4.021   0.907   3.481  1.2564  0.3541  0.4618
  776MOL0     H 7019   4.021   0.602   2.881  0.7023  0.8329  1.2628
  776MOL0     H 7020   3.844   0.504   2.741 -3.7316 -0.5490 -0.5240
  776MOL0     H 7021   3.437   0.540   2.878 -0.4211  0.5905 -1.8407
  776MOL0     H 7022   3.447   0.361   2.904 -0.4413 -0.2714  0.3272
  776MOL0     H 7023   3.384   0.322   2.670 -0.1275  0.6207 -1.5271
  776MOL0     H 7024   3.272   0.437   2.719 -0.0262 -0.7992 -0.6855
  776MOL0     H 7025   3.362   0.622   2.637 -1.0894 -1.1199  1.1030
  776MOL0     H 7026   3.530   0.555   2.607  0.4612  1.7366 -0.8483
  776MOL0     H 7027   3.424   0.401   2.453  1.1616  1.3023  0.8410
  776MOL0     H 7028   3.276   0.496   2.455 -0.0178  0.1859 -2.5326
  776MOL0     H 7029   3.551   0.594   2.388 -0.1311  1.4665  0.9870
  776MOL0     H 7030   3.412   0.708   2.403  0.3838  0.0654 -0.3524
  776MOL0     H 7031   3.448   0.467   2.218  1.6191 -0.0033 -0.4679
  776MOL0     H 7032   3.307   0.563   2.215  0.7783 -0.7931 -0.4056
  776MOL0     H 7033   3.483   0.609   2.049 -3.2111 -0.1004 -1.2428
  776MOL0     H 7034   3.580   0.689   2.178 -0.7577  0.4543  0.7512
  776MOL0     H 7035   3.398   0.853   2.212  0.9046 -1.3597 -0.1555
  776MOL0     H 7036   3.482   0.868   2.063  1.3492  1.2697  1.4715
  776MOL0     H 7037   3.135   0.840   2.195  2.0816  0.2045  1.6781
  776MOL0     H 7038   2.920   0.904   2.107  2.2345 -1.3368 -0.1619
  776MOL0     H 7039   2.860   0.792   1.986  0.4292 -0.5764  1.2805
  776MOL0     H 7040   2.877   0.932   1.826 -0.1001 -2.5464  2.4264
  776MOL0     H 7041   2.786   1.034   1.952  0.2731  1.5910  1.8654
  776MOL0     H 7042   3.047   1.069   1.808  0.3726  0.0931  0.5632
  776MOL0     H 7043   2.935   1.198   1.842  0.4022  0.5496 -0.4810
  776MOL0     H 7044   3.012   1.157   2.095 -1.0264  1.4187 -0.3517
  776MOL0     H 7045   3.148   1.093   2.036 -1.4249  0.1235  1.5039
  776MOL0     H 7046   3.316   1.115   1.875 -0.6755 -0.9333  1.5704
  776MOL0     H 7047   3.522   1.027   1.864 -0.6590 -0.7067 -1.0966
  776MOL0     H 7048   3.664   1.126   1.887  0.4256  1.0351  0.7968
  776MOL0     H 7049   3.593   1.120   1.729  5.0956  0.5854  1.7217
  776MOL0     H 7050   3.944   1.493   1.858  0.0679  0.7206 -1.0650
  776MOL0     H 7051   4.144   1.524   1.739 -0.5794  0.7524 -1.2462
  776MOL0     H 7052   4.165   1.328   1.327  1.1311  0.8008 -1.3282
  776MOL0     H 7053   4.332   1.370   1.346  0.0051 -2.1777  0.6254
  776MOL0     H 7054   4.208   1.139   1.492  0.6299  0.9739  0.8651
  776MOL0     H 7055   4.301   1.113   1.339  1.1850  0.8416  0.1311
  776MOL0     H 7056   4.394   1.230   1.602 -0.1675  1.3092  0.4132
  776MOL0     H 7057   4.505   1.221   1.467  0.2492 -1.9996 -1.8126
  776MOL0     H 7058   4.355   0.981   1.594 -0.0127 -1.3346 -2.3787
  776MOL0     H 7059   4.519   1.018   1.625  0.5254  1.4171 -0.0938
  776MOL0     H 7060   4.516   0.842   1.489 -0.1011  1.2316  2.4337
  776MOL0     H 7061   4.413   0.933   1.358 -1.1646 -0.9962  0.8598
  776MOL0     H 7062   4.594   1.063   1.301 -0.7379 -0.1957  1.1527
  776MOL0     H 7063   4.628   0.892   1.286  1.1846 -0.9573  1.7495
  776MOL0     H 7064   4.774   0.879   1.467  0.7851  1.0716  0.6369
  776MOL0     H 7065   4.726   1.046   1.529 -0.8892  1.6368 -1.5821
  776MOL0     H 7066   4.881   1.023   1.276  2.3755  0.7781 -0.6751
  776MOL0     H 7067   4.942   1.066   1.432  1.0524 -1.7171 -2.3612
  776MOL0     H 7068   4.001   1.234   1.448 -2.6714 -2.5625  2.0550
  776MOL0     H 7069   3.797   1.213   1.585  0.4518 -1.3599  4.5040
  776MOL0     H 7070   3.472   1.576   1.953 -0.1583 -0.6764  0.1864
  776MOL0     H 7071   3.250   1.510   2.032 -1.9001 -1.2748 -0.6693
  776MOL0     H 7072   3.586   0.441   3.069 -0.3308  1.3863 -0.7950
  776MOL0     H 7073   3.772   0.505   3.226 -1.0899  3.7865  0.5159
  776MOL0     H 7074   4.226   0.532   3.257 -0.1532 -3.0689  2.9003
  776MOL0     H 7075   4.413   0.554   3.392  0.2192  1.4032 -0.7712
  776MOL0     H 7076   4.424   0.493   3.639  0.1860  0.9235  0.8750
  776MOL0     H 7077   4.591   0.554   3.594  2.0765  3.3382  0.8188
  776MOL0     H 7078   4.465   0.548   3.876  0.9973  3.7371  3.4213
  776MOL0     H 7079   4.583   0.666   3.846  0.4613 -0.9817  2.5411
  776MOL0     H 7080   4.606   0.366   3.787 -0.6542 -0.0341  1.5069
  776MOL0     H 7081   4.733   0.494   3.751 -1.6161  4.0308  0.8637
  776MOL0     H 7082   4.626   0.433   4.027 -0.0753  0.9072  0.3917
  776MOL0     H 7083   4.745   0.551   3.984 -2.7312  2.1591 -2.1583
  776MOL0     H 7084   4.957   0.163   3.949 -1.8462 -2.3706  0.5758
  776MOL0     H 7085   4.230   0.873   3.624 -3.6856 -1.8799  1.6538
  776MOL0     H 7086   3.995   0.965   3.392  3.8781  0.7657 -0.1184
  776MOL0     H 7087   3.932   0.848   3.505  0.5705  0.1514 -2.2919
  776MOL0     H 7088   4.039   0.973   3.567  0.2969 -1.6821  2.3440
  777MOL0     O 7089   7.531   4.943   2.911  0.1620  0.6619 -0.6562
  777MOL0     C 7090   7.414   4.940   2.871 -0.2524  0.5410 -0.5685
  777MOL0     O 7091   7.367   5.010   2.765  0.1209  0.5937 -0.7425
  777MOL0     C 7092   7.457   5.068   2.673  0.2229  0.6147  0.5664
  777MOL0     C 7093   7.486   5.019   2.544  0.0395  0.1840 -0.7712
  777MOL0     C 7094   7.578   5.093   2.464  0.6270  0.3968  0.9794
  777MOL0     C 7095   7.638   5.205   2.511  0.2854  0.5882 -0.7187
  777MOL0     O 7096   7.725   5.274   2.432 -0.1317 -0.9498  0.3992
  777MOL0     C 7097   7.860   5.221   2.418 -1.5630  0.9079  0.0241
  777MOL0     C 7098   7.946   5.294   2.526  0.2943  1.3567  0.6422
  777MOL0     C 7099   7.931   5.452   2.511  0.1497  0.6005  0.0409
  777MOL0     C 7100   8.042   5.541   2.572 -0.7392  0.2131  0.1743
  777MOL0     C 7101   8.016   5.692   2.544 -0.1163  0.9691  0.3175
  777MOL0     C 7102   8.144   5.768   2.578  0.6623 -0.3649 -0.1998
  777MOL0     C 7103   8.193   5.762   2.721  0.4278 -0.2951  0.4950
  777MOL0     C 7104   8.342   5.804   2.741  0.8232  0.1309 -0.2296
  777MOL0     N 7105   8.342   5.947   2.742  0.0797  0.0029  0.2019
  777MOL0     C 7106   8.329   6.026   2.856 -0.2433  0.3553  0.6148
  777MOL0     C 7107   8.361   6.153   2.812 -0.2213  0.0330  0.2190
  777MOL0     C 7108   8.363   6.274   2.900 -0.0421 -0.6607  0.0846
  777MOL0     C 7109   8.229   6.298   2.965 -0.0991 -0.6520  0.1819
  777MOL0     C 7110   8.116   6.323   2.861  0.2777  0.0984 -0.6882
  777MOL0     C 7111   8.129   6.436   2.759  0.4432 -0.2810 -0.8286
  777MOL0     O 7112   8.191   6.552   2.815  1.2571  0.4680  0.6099
  777MOL0     C 7113   8.234   6.635   2.722  0.4055  0.2093 -0.4908
  777MOL0     C 7114   8.357   6.693   2.760  0.6637  0.8106 -0.4669
  777MOL0     C 7115   8.409   6.792   2.675 -0.2790 -1.2338 -0.1863
  777MOL0     C 7116   8.527   6.861   2.742 -0.6639  0.0919 -1.0530
  777MOL0     C 7117   8.339   6.836   2.556  0.6772  1.2620  0.0813
  777MOL0     C 7118   8.386   6.947   2.482  0.0382  0.2182  0.5342
  777MOL0     O 7119   8.310   7.017   2.398 -0.1705 -0.3270  0.9077
  777MOL0     C 7120   8.355   7.142   2.343 -0.5097 -1.2022 -0.1064
  777MOL0     C 7121   8.312   7.270   2.391  0.4356 -0.1470 -0.4085
  777MOL0     C 7122   8.351   7.394   2.340 -0.1484 -0.2282  0.7089
  777MOL0     C 7123   8.429   7.396   2.228 -0.1372  0.0011 -0.1351
  777MOL0     O 7124   8.473   7.510   2.166  0.3040 -0.9504 -0.4609
  777MOL0     C 7125   8.414   7.640   2.191 -0.9853 -0.6186  0.3092
  777MOL0     C 7126   8.486   7.734   2.088  0.9291 -0.3268 -0.6568
  777MOL0     C 7127   8.635   7.752   2.132 -0.0941  0.1269  0.1597
  777MOL0     C 7128   8.687   7.899   2.097 -0.9920 -0.7210 -0.0063
  777MOL0     C 7129   8.833   7.927   2.145  0.1453  0.7760  0.9754
  777MOL0     C 7130   8.873   8.066   2.096  0.5678  0.3199  0.0487
  777MOL0     C 7131   9.011   8.096   2.146 -0.0170 -0.6001  0.0860
  777MOL0     C 7132   9.044   8.235   2.081  0.0611 -0.1648 -1.2830
  777MOL0    Cl 7133   9.216   8.269   2.126  0.2532 -0.3129 -0.2312
  777MOL0     C 7134   8.488   7.274   2.189 -0.0714  0.2102 -0.2120
  777MOL0     C 7135   8.451   7.144   2.239  0.1814 -0.5663 -0.2190
  777MOL0     O 7136   8.516   6.950   2.482  0.6278  0.1137 -0.4735
  777MOL0     C 7137   8.220   6.773   2.516  0.4716 -0.4642  0.3635
  777MOL0     C 7138   8.167   6.685   2.604  1.1934  0.7418 -0.2495
  777MOL0     N 7139   8.408   6.139   2.684 -0.1060 -0.6944 -0.0314
  777MOL0     N 7140   8.394   6.015   2.638  0.3988 -0.0063 -0.2922
  777MOL0     C 7141   7.603   5.259   2.640 -0.0763  0.6358 -0.1271
  777MOL0     C 7142   7.516   5.187   2.719 -0.3466 -0.2000  1.2419
  777MOL0     C 7143   7.314   4.843   2.928 -0.5903 -0.4609 -0.0894
  777MOL0     C 7144   7.206   4.788   2.852 -0.3392  0.4380  0.8811
  777MOL0     C 7145   7.116   4.689   2.901 -0.6832 -0.1766  0.3375
  777MOL0     C 7146   7.129   4.650   3.034  0.6708 -0.5435 -0.0460
  777MOL0     O 7147   7.057   4.553   3.087  0.3550  0.1509  0.2212
  777MOL0     C 7148   6.917   4.531   3.058  0.0344 -0.0923  0.0330
  777MOL0     C 7149   6.821   4.611   3.145  0.9997 -0.8198 -0.1959
  777MOL0     C 7150   6.689   4.548   3.120  0.1210  0.2075  0.7144
  777MOL0     C 7151   6.586   4.597   3.221  0.1295  0.9743 -0.2807
  777MOL0     C 7152   6.556   4.739   3.187  0.0617  0.4363 -0.2466
  777MOL0     C 7153   6.541   4.849   3.147  0.3796 -0.1594  0.1287
  777MOL0     C 7154   7.223   4.711   3.110  0.3302  0.3901 -0.8488
  777MOL0     C 7155   7.318   4.801   3.062 -0.2336 -0.5207  0.8162
  777MOL0     C 7156   7.414   4.859   3.163  0.3727  0.4934 -1.1023
  777MOL0     H 7157   7.442   4.928   2.505  0.8652  0.4735 -2.4595
  777MOL0     H 7158   7.615   5.054   2.370  0.1660 -0.9186  1.3063
  777MOL0     H 7159   7.901   5.248   2.320 -0.8343 -0.6083 -0.1294
  777MOL0     H 7160   7.867   5.113   2.438  1.9933  0.9678 -0.2287
  777MOL0     H 7161   7.909   5.260   2.623 -1.4548 -1.1530 -0.7944
  777MOL0     H 7162   8.050   5.262   2.515 -0.0649 -0.9161  2.9614
  777MOL0     H 7163   7.943   5.470   2.404  4.4253 -0.9919  0.0652
  777MOL0     H 7164   7.834   5.485   2.551 -0.7688 -1.9685  0.0875
  777MOL0     H 7165   8.049   5.514   2.677  1.2100 -1.6103 -0.3424
  777MOL0     H 7166   8.137   5.520   2.522 -0.0474  1.0604  1.1132
  777MOL0     H 7167   7.941   5.722   2.618  1.9390  1.4078  2.3361
  777MOL0     H 7168   7.982   5.709   2.442 -3.0672 -2.2196  0.5658
  777MOL0     H 7169   8.225   5.725   2.519  2.5217 -2.2254  3.3717
  777MOL0     H 7170   8.123   5.871   2.547  1.9232 -0.2225 -0.6227
  777MOL0     H 7171   8.182   5.657   2.749 -1.7647  0.1497  1.5387
  777MOL0     H 7172   8.127   5.827   2.780 -3.0824 -2.0372 -1.2185
  777MOL0     H 7173   8.382   5.776   2.839  3.2188  2.2707 -0.4826
  777MOL0     H 7174   8.400   5.779   2.651 -0.8854 -0.6865 -1.1503
  777MOL0     H 7175   8.313   5.999   2.960  2.3514  0.1330  1.0238
  777MOL0     H 7176   8.405   6.354   2.839 -0.6734 -1.6083 -1.6711
  777MOL0     H 7177   8.437   6.257   2.979  0.3922 -0.4582 -0.2718
  777MOL0     H 7178   8.190   6.212   3.020  1.3022 -0.5903  1.3135
  777MOL0     H 7179   8.240   6.390   3.022  2.0570  0.3860 -1.7593
  777MOL0     H 7180   8.091   6.235   2.801  1.0283 -0.3632 -0.3347
  777MOL0     H 7181   8.020   6.337   2.911 -0.2444 -0.4692 -1.5137
  777MOL0     H 7182   8.190   6.392   2.679  2.3773 -0.0541  0.4735
  777MOL0     H 7183   8.028   6.450   2.720 -0.5897  2.5153  2.4015
  777MOL0     H 7184   8.391   6.675   2.862 -3.0616  2.3594  1.2389
  777MOL0     H 7185   8.616   6.827   2.688  0.1966  2.0587 -0.9342
  777MOL0     H 7186   8.532   6.838   2.849 -0.6192  3.4317 -0.2351
  777MOL0     H 7187   8.519   6.970   2.746 -2.0256 -0.0026 -0.5914
  777MOL0     H 7188   8.234   7.273   2.467  0.1304  2.4256 -0.7473
  777MOL0     H 7189   8.328   7.478   2.405  1.1437 -0.1135  1.0570
  777MOL0     H 7190   8.308   7.632   2.163 -1.0967  2.0958 -0.2738
  777MOL0     H 7191   8.417   7.676   2.295 -3.0701 -3.7088  1.5932
  777MOL0     H 7192   8.487   7.700   1.984  0.6232 -2.9027  0.0986
  777MOL0     H 7193   8.430   7.826   2.106 -2.1910 -2.0963 -0.7306
  777MOL0     H 7194   8.693   7.677   2.078 -0.0985 -1.4082  2.1311
  777MOL0     H 7195   8.656   7.727   2.237  0.4080 -1.3580 -0.2624
  777MOL0     H 7196   8.623   7.977   2.139  0.6996  0.1653  1.0053
  777MOL0     H 7197   8.674   7.907   1.989 -3.6906 -0.2775  0.2719
  777MOL0     H 7198   8.841   7.930   2.254  0.5460 -0.0324  0.9836
  777MOL0     H 7199   8.899   7.849   2.104 -3.1113 -1.2393 -0.8886
  777MOL0     H 7200   8.807   8.143   2.135  0.9546  0.6142  0.1257
  777MOL0     H 7201   8.891   8.060   1.988  0.7191 -4.3199  0.1286
  777MOL0     H 7202   9.088   8.023   2.119  0.8847  0.7131 -1.0558
  777MOL0     H 7203   9.011   8.110   2.255 -0.8525 -0.1840  0.0422
  777MOL0     H 7204   8.974   8.305   2.126  0.1954 -1.5086  1.1454
  777MOL0     H 7205   9.034   8.231   1.972 -1.3357  2.2691 -1.3244
  777MOL0     H 7206   8.561   7.266   2.108 -0.2262  1.1687 -0.4530
  777MOL0     H 7207   8.479   7.050   2.191  0.4939 -1.1697  1.0997
  777MOL0     H 7208   8.175   6.791   2.418  2.4078  1.1143 -0.2920
  777MOL0     H 7209   8.067   6.649   2.582  1.0654 -0.6790  2.2694
  777MOL0     H 7210   7.648   5.347   2.686 -1.6661  0.5512  1.7173
  777MOL0     H 7211   7.496   5.219   2.821  1.6589 -0.6109  1.8042
  777MOL0     H 7212   7.192   4.836   2.756  4.9565  3.6029  1.3640
  777MOL0     H 7213   7.035   4.656   2.838  0.7954 -1.1942 -1.1170
  777MOL0     H 7214   6.892   4.553   2.954  1.4772 -1.3800 -0.6271
  777MOL0     H 7215   6.895   4.424   3.064  0.4229 -0.1904 -0.2677
  777MOL0     H 7216   6.817   4.718   3.123 -0.0605 -1.0857 -1.4827
  777MOL0     H 7217   6.860   4.605   3.247 -0.3629  0.0052  0.3940
  777MOL0     H 7218   6.657   4.562   3.016 -2.2908 -1.0045  1.2188
  777MOL0     H 7219   6.689   4.440   3.138  0.0414  0.2987  1.2874
  777MOL0     H 7220   6.629   4.579   3.320  3.0268  0.9932 -1.4340
  777MOL0     H 7221   6.492   4.541   3.220 -0.7399  2.2177  2.7058
  777MOL0     H 7222   6.540   4.948   3.104  0.2927  0.5041  1.6164
  777MOL0     H 7223   7.246   4.664   3.206 -3.5250 -0.4353 -0.1469
  777MOL0     H 7224   7.368   4.854   3.262  3.7613  0.1204  0.5864
  777MOL0     H 7225   7.506   4.802   3.174 -0.2183 -0.5046 -1.2711
  777MOL0     H 7226   7.440   4.964   3.144  4.1342 -0.4828 -2.1826
  778MOL0     O 7227   0.657   7.591   6.593 -0.1427  0.4443  0.3904
  778MOL0     C 7228   0.654   7.469   6.570 -0.5754  0.4552  0.0575
  778MOL0     O 7229   0.613   7.418   6.443 -0.9884  0.4137 -0.0589
  778MOL0     C 7230   0.617   7.502   6.332  0.5444 -0.2179 -0.3604
  778MOL0     C 7231   0.726   7.580   6.291 -0.2089  1.1557  0.1071
  778MOL0     C 7232   0.726   7.652   6.176  0.2538 -0.2178 -0.8377
  778MOL0     C 7233   0.611   7.652   6.099  0.5231 -1.0069 -0.5663
  778MOL0     O 7234   0.613   7.724   5.982 -0.4007  0.9170 -0.0262
  778MOL0     C 7235   0.493   7.752   5.902  0.8134 -0.0106 -0.1306
  778MOL0     C 7236   0.492   7.886   5.838 -0.0640 -0.6686 -0.1979
  778MOL0     C 7237   0.374   7.911   5.744  1.2243  0.1280 -0.6705
  778MOL0     C 7238   0.246   7.942   5.828  0.2495  0.3537  0.7057
  778MOL0     C 7239   0.118   7.951   5.741  0.2198 -0.3000 -1.0803
  778MOL0     C 7240  -0.009   8.003   5.828  0.6103  0.0725  0.5142
  778MOL0     C 7241  -0.149   7.928   5.816  0.2840 -0.1228 -0.0357
  778MOL0     C 7242  -0.141   7.793   5.891  0.9900  0.0826  0.2193
  778MOL0     N 7243  -0.244   7.697   5.841 -0.5078 -0.7256  0.0256
  778MOL0     C 7244  -0.371   7.735   5.815 -0.3757  0.4941 -0.3443
  778MOL0     C 7245  -0.446   7.624   5.816  0.6043 -0.2171 -0.7510
  778MOL0     C 7246  -0.590   7.620   5.776  0.8823 -0.4507  0.4522
  778MOL0     C 7247  -0.663   7.519   5.863  0.0613  0.3586 -0.7386
  778MOL0     C 7248  -0.811   7.523   5.852  0.5994 -0.6068  0.3143
  778MOL0     C 7249  -0.869   7.400   5.926  0.3945 -0.4353 -0.4030
  778MOL0     O 7250  -0.820   7.275   5.873  1.1599  0.9775 -0.6686
  778MOL0     C 7251  -0.863   7.223   5.754 -0.8594  0.1642  0.3572
  778MOL0     C 7252  -0.806   7.114   5.710 -0.3789 -0.8885 -1.2074
  778MOL0     C 7253  -0.839   7.057   5.587 -0.2692 -0.4042  0.5259
  778MOL0     C 7254  -0.761   6.936   5.552 -0.6667  0.0862  0.4072
  778MOL0     C 7255  -0.931   7.122   5.501  0.5020  1.1462  0.1503
  778MOL0     C 7256  -0.957   7.080   5.368 -0.4082  0.4297  0.6443
  778MOL0     O 7257  -1.086   7.096   5.331  0.0402  0.3854  0.5590
  778MOL0     C 7258  -1.138   7.029   5.214 -0.0727 -0.2828 -0.1713
  778MOL0     C 7259  -1.091   6.917   5.149  0.0994 -0.1950 -0.6336
  778MOL0     C 7260  -1.151   6.891   5.025 -0.1856  0.1245 -0.2077
  778MOL0     C 7261  -1.254   6.965   4.970 -0.1188 -0.4032 -0.5268
  778MOL0     O 7262  -1.286   6.955   4.841  0.7270  0.6661  0.1762
  778MOL0     C 7263  -1.425   6.921   4.819 -0.4179 -0.2595  0.1603
  778MOL0     C 7264  -1.445   6.770   4.808 -0.3250  1.1491  0.3976
  778MOL0     C 7265  -1.591   6.734   4.783  1.1277 -0.2054 -0.1744
  778MOL0     C 7266  -1.628   6.604   4.842  0.5220  0.8075  0.0004
  778MOL0     C 7267  -1.595   6.495   4.725 -0.1969  0.7098  0.7458
  778MOL0     C 7268  -1.605   6.343   4.767 -0.1812 -0.5979  0.4852
  778MOL0     C 7269  -1.602   6.255   4.647  0.6781  0.7742  0.0865
  778MOL0     C 7270  -1.618   6.106   4.691  1.0792  0.6975  0.2446
  778MOL0    Cl 7271  -1.624   6.002   4.541  0.1311 -0.0184 -0.1308
  778MOL0     C 7272  -1.310   7.064   5.053  0.6209  0.3905  0.8014
  778MOL0     C 7273  -1.247   7.102   5.166 -0.6487  0.2340 -0.1166
  778MOL0     O 7274  -0.867   7.030   5.293  0.6105  0.2990 -0.9153
  778MOL0     C 7275  -0.996   7.236   5.547 -0.8079  0.9483  0.2708
  778MOL0     C 7276  -0.968   7.280   5.680 -0.1906 -0.3501 -0.4692
  778MOL0     N 7277  -0.359   7.523   5.861  0.5384 -0.4744  0.7710
  778MOL0     N 7278  -0.234   7.570   5.859  0.3977  0.0997 -1.3090
  778MOL0     C 7279   0.497   7.584   6.146  0.4370 -0.3310  0.4359
  778MOL0     C 7280   0.501   7.508   6.255 -0.2611 -0.5257 -0.4177
  778MOL0     C 7281   0.658   7.367   6.685  0.0988 -0.4101  1.0896
  778MOL0     C 7282   0.644   7.229   6.658  1.6567 -0.0734  0.7120
  778MOL0     C 7283   0.652   7.127   6.752  0.8757 -0.6357  0.0082
  778MOL0     C 7284   0.663   7.156   6.882  0.1160 -0.5453 -0.5863
  778MOL0     O 7285   0.665   7.075   6.987 -0.0316  0.2815  0.7735
  778MOL0     C 7286   0.591   6.953   6.981 -0.2460  0.0110  0.8667
  778MOL0     C 7287   0.503   6.941   7.100 -0.8973  0.5900  0.3076
  778MOL0     C 7288   0.559   6.971   7.238  0.6300 -0.3721 -0.9048
  778MOL0     C 7289   0.559   7.119   7.285 -0.2227 -0.0786 -0.1283
  778MOL0     C 7290   0.605   7.125   7.424  0.3197 -0.4383  0.1344
  778MOL0     C 7291   0.646   7.137   7.535 -0.2502 -0.2753  0.0102
  778MOL0     C 7292   0.686   7.295   6.912 -0.4001 -0.1526  0.0283
  778MOL0     C 7293   0.680   7.397   6.820  0.0781 -0.2662 -0.5967
  778MOL0     C 7294   0.700   7.535   6.869 -0.3073 -0.3733  0.8171
  778MOL0     H 7295   0.821   7.577   6.343 -0.9073 -1.7802  1.4082
  778MOL0     H 7296   0.807   7.711   6.136 -0.6234  0.4864 -1.6374
  778MOL0     H 7297   0.402   7.754   5.963 -0.0536  3.5484 -1.3286
  778MOL0     H 7298   0.510   7.682   5.819  1.5941  0.5530 -0.4623
  778MOL0     H 7299   0.504   7.966   5.912 -0.3974  0.6628 -1.5190
  778MOL0     H 7300   0.579   7.888   5.771  1.3863  3.7713  1.4519
  778MOL0     H 7301   0.392   8.003   5.687  0.2345  0.7971  0.0630
  778MOL0     H 7302   0.355   7.817   5.692 -1.6265  0.3043 -0.1118
  778MOL0     H 7303   0.233   7.868   5.907  1.2208 -0.4990  0.0926
  778MOL0     H 7304   0.253   8.040   5.877  1.1062 -0.1449  1.6234
  778MOL0     H 7305   0.101   7.853   5.697  0.0095  0.5937 -3.1032
  778MOL0     H 7306   0.138   8.010   5.651 -1.5104 -2.3183 -2.8822
  778MOL0     H 7307   0.028   7.984   5.929 -1.7590 -0.1618  1.3999
  778MOL0     H 7308  -0.020   8.110   5.810 -0.0899 -0.2733 -1.3699
  778MOL0     H 7309  -0.176   7.912   5.711  2.9769 -1.5644 -0.5970
  778MOL0     H 7310  -0.231   7.979   5.868  2.2307  1.5624  1.5265
  778MOL0     H 7311  -0.044   7.744   5.890 -0.3363 -2.7766  1.2773
  778MOL0     H 7312  -0.175   7.821   5.991 -0.9753 -0.6453 -0.2011
  778MOL0     H 7313  -0.412   7.832   5.786 -0.4421 -0.0970 -2.3920
  778MOL0     H 7314  -0.605   7.585   5.674 -3.4825 -1.7896  1.3432
  778MOL0     H 7315  -0.634   7.717   5.798  3.9817  1.8452 -2.4007
  778MOL0     H 7316  -0.623   7.419   5.845 -1.4773 -0.9777  2.3117
  778MOL0     H 7317  -0.631   7.545   5.964  2.4164 -0.0885 -1.3268
  778MOL0     H 7318  -0.860   7.609   5.899 -1.1712 -1.5321  0.2752
  778MOL0     H 7319  -0.833   7.523   5.745  2.4191 -1.7221 -0.1072
  778MOL0     H 7320  -0.833   7.394   6.029  4.9393 -0.3974 -1.7990
  778MOL0     H 7321  -0.977   7.408   5.943  0.2151  1.8886 -2.0778
  778MOL0     H 7322  -0.725   7.073   5.769  0.7193  2.4788 -0.1746
  778MOL0     H 7323  -0.774   6.856   5.625  0.4433  0.4859  1.0615
  778MOL0     H 7324  -0.652   6.951   5.553 -0.4559 -1.2822  1.9983
  778MOL0     H 7325  -0.778   6.899   5.450  2.2653 -0.5489  0.0447
  778MOL0     H 7326  -1.005   6.855   5.172 -0.0083 -0.4202 -0.8293
  778MOL0     H 7327  -1.116   6.804   4.970  1.1257  2.2385 -3.0130
  778MOL0     H 7328  -1.487   6.956   4.902  0.5740 -0.4468  0.9912
  778MOL0     H 7329  -1.457   6.980   4.733  0.1572  1.1508  0.8907
  778MOL0     H 7330  -1.392   6.733   4.720  1.4243  2.9428  0.6301
  778MOL0     H 7331  -1.405   6.715   4.894  0.7852 -1.2257 -1.5391
  778MOL0     H 7332  -1.615   6.749   4.678 -1.6249 -0.4524  0.3453
  778MOL0     H 7333  -1.659   6.805   4.833  1.2602  0.1790 -0.5370
  778MOL0     H 7334  -1.736   6.599   4.857  0.8201  0.6002  2.3678
  778MOL0     H 7335  -1.574   6.584   4.935 -1.9622 -3.4087  0.8319
  778MOL0     H 7336  -1.672   6.510   4.649 -0.8142  1.4020  1.4882
  778MOL0     H 7337  -1.497   6.519   4.683  0.1180  0.7921  1.4970
  778MOL0     H 7338  -1.704   6.334   4.814 -0.9787  0.0948 -0.9823
  778MOL0     H 7339  -1.527   6.318   4.839 -0.4914 -1.6135  0.4867
  778MOL0     H 7340  -1.509   6.271   4.592 -1.8405  2.7603 -4.2119
  778MOL0     H 7341  -1.683   6.269   4.574  0.9157  2.6500  0.1471
  778MOL0     H 7342  -1.713   6.099   4.745 -0.2270  1.2066 -1.8458
  778MOL0     H 7343  -1.539   6.076   4.760  0.1372  1.2617  1.6330
  778MOL0     H 7344  -1.369   7.146   5.011  2.1451  0.9226 -0.3778
  778MOL0     H 7345  -1.269   7.198   5.212  0.7866 -0.2617  1.7231
  778MOL0     H 7346  -1.076   7.287   5.494 -0.1753 -0.6940 -2.4772
  778MOL0     H 7347  -1.038   7.356   5.713 -1.0935 -1.9846  1.6760
  778MOL0     H 7348   0.403   7.586   6.092  1.0464  1.4450 -0.6538
  778MOL0     H 7349   0.412   7.450   6.276 -1.2508  0.2668 -2.1819
  778MOL0     H 7350   0.636   7.194   6.555 -1.8923 -1.7984  1.4465
  778MOL0     H 7351   0.651   7.021   6.726  1.4497 -1.0511  1.5622
  778MOL0     H 7352   0.534   6.951   6.888 -0.1984  0.3417  0.8310
  778MOL0     H 7353   0.652   6.863   6.965  0.5380  0.7507 -0.4677
  778MOL0     H 7354   0.469   6.837   7.095  0.5021  0.1047  0.5137
  778MOL0     H 7355   0.420   7.010   7.080 -0.3096  1.2649  0.1678
  778MOL0     H 7356   0.506   6.908   7.309  2.8447 -2.3279 -0.8613
  778MOL0     H 7357   0.655   6.919   7.245  0.3892 -0.7641 -0.5088
  778MOL0     H 7358   0.456   7.152   7.298 -0.7856 -1.9951  0.7161
  778MOL0     H 7359   0.628   7.184   7.231  2.2856 -1.0231  1.7625
  778MOL0     H 7360   0.682   7.142   7.635 -0.3367 -2.5651  0.2022
  778MOL0     H 7361   0.723   7.314   7.012  0.8348 -1.5531 -0.1412
  778MOL0     H 7362   0.799   7.575   6.843 -0.8327  0.2794 -0.2531
  778MOL0     H 7363   0.619   7.598   6.831 -0.8429 -1.7114 -0.3517
  778MOL0     H 7364   0.690   7.547   6.977  1.1294  3.4796  0.6813
  779MOL0     O 7365  10.059   9.842   4.888  0.2682 -0.3241  0.3731
  779MOL0     C 7366  10.109   9.863   5.001 -0.8201 -0.2016  0.0150
  779MOL0     O 7367  10.189   9.979   5.019  0.4254 -0.0251 -0.2153
  779MOL0     C 7368  10.186  10.079   4.919 -0.9812 -0.3798 -0.8922
  779MOL0     C 7369  10.058  10.140   4.883 -0.4116  0.2394 -0.6715
  779MOL0     C 7370  10.049  10.245   4.786  0.2057 -0.4035  0.4196
  779MOL0     C 7371  10.167  10.287   4.730 -0.4893 -0.2030 -0.3055
  779MOL0     O 7372  10.162  10.393   4.642 -0.2662  0.4871  0.6727
  779MOL0     C 7373  10.244  10.392   4.524  1.0233 -0.6921 -0.2055
  779MOL0     C 7374  10.200  10.300   4.407 -0.7498 -0.5286 -0.5087
  779MOL0     C 7375  10.090  10.357   4.315 -0.4061  0.3781  0.5518
  779MOL0     C 7376   9.965  10.391   4.401  0.7949  0.1108 -0.5543
  779MOL0     C 7377   9.830  10.420   4.332 -0.3302 -0.6673  0.5426
  779MOL0     C 7378   9.790  10.326   4.217  0.2319  0.1563  0.1019
  779MOL0     C 7379   9.646  10.354   4.176  0.0071 -0.3759  0.3082
  779MOL0     C 7380   9.586  10.240   4.085  0.4750 -0.2953  0.2645
  779MOL0     N 7381   9.433  10.240   4.081  0.1852 -1.0377 -0.0531
  779MOL0     C 7382   9.355  10.273   4.193  0.0647 -0.0278  0.0580
  779MOL0     C 7383   9.227  10.263   4.154  0.5357  0.6920 -0.0567
  779MOL0     C 7384   9.111  10.283   4.255  0.1636 -0.0961  0.4281
  779MOL0     C 7385   9.056  10.423   4.278  0.0224 -0.7139  0.3591
  779MOL0     C 7386   8.962  10.414   4.393  0.0739 -0.5060  0.0891
  779MOL0     C 7387   9.005  10.443   4.535 -0.0328  0.2424 -0.2130
  779MOL0     O 7388   9.084  10.564   4.529  0.2914 -0.2939 -0.6035
  779MOL0     C 7389   9.024  10.680   4.560  0.1792  0.3137 -0.5121
  779MOL0     C 7390   9.104  10.793   4.589 -0.9477 -0.1524  0.4153
  779MOL0     C 7391   9.048  10.916   4.627  1.0087  0.2621 -0.0141
  779MOL0     C 7392   9.137  11.034   4.661  0.3059  0.3724  0.3652
  779MOL0     C 7393   8.907  10.926   4.645  1.2053  0.0359  0.2030
  779MOL0     C 7394   8.834  11.047   4.692 -0.8685 -0.1867  0.2730
  779MOL0     O 7395   8.887  11.099   4.804 -0.4029  0.7996  0.0977
  779MOL0     C 7396   8.813  11.185   4.877  0.8579  0.6057  0.0436
  779MOL0     C 7397   8.670  11.174   4.894  0.1374  0.0348 -0.9526
  779MOL0     C 7398   8.598  11.263   4.971 -0.1849 -0.1065  0.7959
  779MOL0     C 7399   8.669  11.369   5.019  0.8380 -0.0673 -0.0792
  779MOL0     O 7400   8.609  11.469   5.098 -0.1143 -0.7540 -0.3937
  779MOL0     C 7401   8.501  11.548   5.038 -0.0456  0.9680  0.3770
  779MOL0     C 7402   8.481  11.687   5.093 -0.0342  0.6766  0.7355
  779MOL0     C 7403   8.612  11.748   5.138  0.6576 -0.3565 -1.2428
  779MOL0     C 7404   8.722  11.773   5.039 -1.2317  0.0625  0.2925
  779MOL0     C 7405   8.839  11.850   5.085 -1.1928 -0.5468  0.5568
  779MOL0     C 7406   8.918  11.809   5.210 -0.2142 -0.1782  0.0476
  779MOL0     C 7407   9.034  11.902   5.248 -0.5858  0.7859  0.6514
  779MOL0     C 7408   9.138  11.827   5.345 -0.3531 -0.3095 -0.2058
  779MOL0    Cl 7409   9.041  11.762   5.492  0.4972  0.0948  0.1708
  779MOL0     C 7410   8.802  11.386   5.012  0.1511  0.0782  0.1868
  779MOL0     C 7411   8.868  11.285   4.950 -0.0989 -0.5627 -0.1046
  779MOL0     O 7412   8.753  11.087   4.622 -0.5896 -0.0491  0.4030
  779MOL0     C 7413   8.835  10.814   4.608 -0.5918  0.0369  0.1642
  779MOL0     C 7414   8.886  10.690   4.571 -0.9803 -0.3178 -1.1613
  779MOL0     N 7415   9.219  10.210   4.034  1.0809 -0.6964  1.1626
  779MOL0     N 7416   9.344  10.191   3.985  0.3440 -0.6949  0.0030
  779MOL0     C 7417  10.292  10.238   4.773  0.0097  0.5234  0.6576
  779MOL0     C 7418  10.300  10.140   4.868  1.2456  1.1932 -0.2370
  779MOL0     C 7419  10.087   9.765   5.105  0.1189 -1.2249 -0.5184
  779MOL0     C 7420  10.158   9.781   5.227  0.0443 -0.1933 -0.1708
  779MOL0     C 7421  10.155   9.674   5.317 -0.0695 -0.1362  0.6098
  779MOL0     C 7422  10.088   9.559   5.303 -1.3626 -0.5984 -0.4158
  779MOL0     O 7423  10.087   9.460   5.404 -0.5470 -0.1539  0.3969
  779MOL0     C 7424  10.168   9.482   5.526 -0.5035 -0.7829 -0.3374
  779MOL0     C 7425  10.143   9.377   5.627 -0.1539  0.0023  0.2140
  779MOL0     C 7426  10.225   9.257   5.601 -0.2841 -0.4209 -1.1340
  779MOL0     C 7427  10.224   9.175   5.732  0.2036  0.3605 -0.7073
  779MOL0     C 7428  10.103   9.096   5.762  0.7670  0.0816  0.3193
  779MOL0     C 7429  10.000   9.036   5.798  0.6872 -0.1970 -1.0886
  779MOL0     C 7430  10.012   9.547   5.186  0.0818 -0.8643 -0.8200
  779MOL0     C 7431  10.015   9.644   5.090 -0.1190 -0.0205 -0.9336
  779MOL0     C 7432   9.927   9.604   4.968 -1.1778  0.5541  0.3518
  779MOL0     H 7433   9.967  10.098   4.923 -0.4978 -0.9092 -2.0211
  779MOL0     H 7434   9.957  10.297   4.758  0.7551  0.3299 -0.0652
  779MOL0     H 7435  10.351  10.382   4.541  1.3777  0.4681 -1.5612
  779MOL0     H 7436  10.240  10.492   4.479  4.5334 -1.1644 -1.8391
  779MOL0     H 7437  10.287  10.266   4.349 -1.1639 -1.2617 -0.7051
  779MOL0     H 7438  10.173  10.210   4.462 -0.6239 -0.0496  0.3641
  779MOL0     H 7439  10.115  10.446   4.258 -3.1385  2.1800  1.9393
  779MOL0     H 7440  10.069  10.274   4.245 -0.9251  2.2747 -1.6767
  779MOL0     H 7441   9.953  10.305   4.468 -0.6581  1.0007  0.3913
  779MOL0     H 7442   9.990  10.483   4.455 -2.5668  0.7189  0.2047
  779MOL0     H 7443   9.834  10.520   4.288 -1.3822 -2.0426 -2.9768
  779MOL0     H 7444   9.754  10.415   4.410  0.7988 -0.9487  1.6658
  779MOL0     H 7445   9.853  10.333   4.128 -2.2330  0.1596 -1.7293
  779MOL0     H 7446   9.797  10.222   4.252 -2.2378  0.1699  0.8083
  779MOL0     H 7447   9.632  10.447   4.119 -0.5352 -2.7943 -3.9395
  779MOL0     H 7448   9.583  10.379   4.262 -1.8548  1.3886 -1.4182
  779MOL0     H 7449   9.629  10.243   3.985  0.6570 -2.2684  0.2472
  779MOL0     H 7450   9.620  10.147   4.131 -0.9821  1.0185  4.5008
  779MOL0     H 7451   9.382  10.300   4.295  2.3286  2.0935 -1.0048
  779MOL0     H 7452   9.147  10.239   4.348  2.5128 -1.2530 -0.9069
  779MOL0     H 7453   9.031  10.222   4.213  0.8852 -1.2576  0.6922
  779MOL0     H 7454   9.138  10.493   4.296  0.3269 -0.1840 -2.5776
  779MOL0     H 7455   9.013  10.463   4.186  0.7857  0.3092  0.4312
  779MOL0     H 7456   8.886  10.491   4.378  1.6813  1.2853  0.5913
  779MOL0     H 7457   8.903  10.322   4.387 -1.1769  0.1279  1.9531
  779MOL0     H 7458   8.919  10.437   4.603  0.9804  0.6849  1.1549
  779MOL0     H 7459   9.086  10.379   4.572 -0.6171 -0.8101 -0.7301
  779MOL0     H 7460   9.208  10.793   4.558 -0.4146 -0.8455  2.1204
  779MOL0     H 7461   9.223  11.019   4.595  0.4766 -1.4239  0.9339
  779MOL0     H 7462   9.178  11.017   4.761  2.4858  0.6316 -0.4360
  779MOL0     H 7463   9.090  11.132   4.648  1.1310  1.6144  4.9041
  779MOL0     H 7464   8.616  11.092   4.847 -1.1908  0.6960 -0.6344
  779MOL0     H 7465   8.490  11.260   4.987 -0.5146 -2.4736 -1.1508
  779MOL0     H 7466   8.524  11.556   4.931  3.5970  2.4295  1.1228
  779MOL0     H 7467   8.403  11.502   5.052  0.0607  0.4484 -0.4626
  779MOL0     H 7468   8.426  11.757   5.030 -1.9748  1.0383  2.7146
  779MOL0     H 7469   8.428  11.668   5.186  0.5887 -1.3122  0.7363
  779MOL0     H 7470   8.639  11.673   5.213  0.9836  0.6116 -0.3609
  779MOL0     H 7471   8.590  11.843   5.187 -2.8118 -0.8368 -1.6506
  779MOL0     H 7472   8.687  11.823   4.948  0.1967 -1.7161 -1.3388
  779MOL0     H 7473   8.760  11.681   4.994 -0.9893  1.2981 -2.1879
  779MOL0     H 7474   8.905  11.850   4.998 -0.0756  2.1261  1.2688
  779MOL0     H 7475   8.815  11.953   5.113  2.9213  0.6495  0.4577
  779MOL0     H 7476   8.954  11.709   5.181  1.7162  0.7390 -0.9560
  779MOL0     H 7477   8.853  11.809   5.297 -0.2947  1.1465  0.0006
  779MOL0     H 7478   8.977  11.974   5.307 -2.4571  0.6285 -0.8737
  779MOL0     H 7479   9.087  11.939   5.159  1.7782 -0.2001  1.5749
  779MOL0     H 7480   9.200  11.913   5.375 -2.5333  0.9329  0.9815
  779MOL0     H 7481   9.200  11.748   5.303 -0.1293  0.0898 -0.6362
  779MOL0     H 7482   8.854  11.471   5.055  0.2495  0.3710 -0.5058
  779MOL0     H 7483   8.975  11.300   4.942 -0.5075  1.7189 -4.4274
  779MOL0     H 7484   8.728  10.828   4.615 -0.6714  1.4006 -2.4700
  779MOL0     H 7485   8.805  10.620   4.554 -0.0654 -1.6068 -0.4016
  779MOL0     H 7486  10.372  10.297   4.729  0.0491  1.7653  2.3073
  779MOL0     H 7487  10.392  10.099   4.909 -1.2093 -2.7975  1.9167
  779MOL0     H 7488  10.228   9.859   5.256 -0.7725  0.1029  1.0305
  779MOL0     H 7489  10.233   9.677   5.393  0.2065 -0.1109  0.3282
  779MOL0     H 7490  10.276   9.481   5.510 -0.9075 -0.2655 -3.7146
  779MOL0     H 7491  10.154   9.579   5.575  4.4980 -1.0216  2.1925
  779MOL0     H 7492  10.039   9.346   5.621  0.3136 -1.7931  0.8630
  779MOL0     H 7493  10.148   9.424   5.726 -0.5164  2.8077 -0.9944
  779MOL0     H 7494  10.174   9.208   5.517 -1.6480  1.8701 -1.7210
  779MOL0     H 7495  10.321   9.289   5.560  0.3848 -0.4227  0.3783
  779MOL0     H 7496  10.233   9.248   5.813  0.0861 -0.2152 -0.1639
  779MOL0     H 7497  10.308   9.105   5.739 -1.2014 -1.2151  1.8961
  779MOL0     H 7498   9.912   8.991   5.839  1.5037  0.4601  1.6230
  779MOL0     H 7499   9.963   9.451   5.181 -1.5593 -0.0359 -1.5669
  779MOL0     H 7500   9.972   9.555   4.881 -0.6060 -2.3446  2.1606
  779MOL0     H 7501   9.851   9.533   5.002 -1.6491  0.7208 -0.3266
  779MOL0     H 7502   9.869   9.691   4.935 -4.0015 -0.3494  2.4881
  780MOL0     O 7503   4.107   4.655   5.518  0.1270  0.0161  0.1887
  780MOL0     C 7504   4.028   4.661   5.615  0.5776  0.2600  0.9621
  780MOL0     O 7505   3.926   4.575   5.635  0.5463 -0.3999 -0.5896
  780MOL0     C 7506   3.879   4.495   5.540  0.3892 -1.1563 -0.8886
  780MOL0     C 7507   3.789   4.547   5.449 -0.0227  0.5751  0.0258
  780MOL0     C 7508   3.746   4.468   5.341 -0.6814 -0.8367  0.4541
  780MOL0     C 7509   3.799   4.342   5.305  0.3836 -0.2511  0.1174
  780MOL0     O 7510   3.768   4.268   5.198  0.8818 -0.1606 -0.6727
  780MOL0     C 7511   3.676   4.315   5.102 -0.5034  0.0350  0.8998
  780MOL0     C 7512   3.673   4.228   4.974 -0.2569 -0.3334 -0.6423
  780MOL0     C 7513   3.783   4.259   4.875  0.0809  0.8392  0.3255
  780MOL0     C 7514   3.731   4.189   4.740 -0.8750 -0.1275 -0.1299
  780MOL0     C 7515   3.814   4.238   4.622 -0.1595  0.2660 -0.6419
  780MOL0     C 7516   3.962   4.191   4.620  0.1201  0.2872  0.5047
  780MOL0     C 7517   4.033   4.237   4.489  0.9199  0.3697 -0.3700
  780MOL0     C 7518   4.179   4.225   4.503  0.1546 -0.4256  0.1825
  780MOL0     N 7519   4.251   4.312   4.409 -1.1035  0.8896 -0.2863
  780MOL0     C 7520   4.291   4.284   4.279  0.0559  0.4920 -0.1158
  780MOL0     C 7521   4.345   4.402   4.231  1.1316 -0.9351 -0.0351
  780MOL0     C 7522   4.442   4.418   4.115 -0.1351  0.0808 -0.3912
  780MOL0     C 7523   4.593   4.406   4.169  0.4871 -0.1213  0.8215
  780MOL0     C 7524   4.686   4.415   4.055  0.2575 -0.7253 -0.6640
  780MOL0     C 7525   4.827   4.463   4.099 -0.3289  0.5714  0.0857
  780MOL0     O 7526   4.932   4.416   4.012  0.4018  0.1484 -0.2665
  780MOL0     C 7527   5.033   4.505   3.984 -0.0159 -0.2716  0.5230
  780MOL0     C 7528   5.115   4.565   4.071  0.2423  0.9548 -0.8681
  780MOL0     C 7529   5.220   4.648   4.034 -0.1217  0.6398  0.2386
  780MOL0     C 7530   5.307   4.687   4.145 -1.4568 -0.3231 -1.0391
  780MOL0     C 7531   5.249   4.678   3.899  0.8005 -0.3028 -1.3336
  780MOL0     C 7532   5.365   4.759   3.849 -0.0633  0.3453  0.0328
  780MOL0     O 7533   5.392   4.752   3.715 -0.0821 -0.0226 -0.1366
  780MOL0     C 7534   5.513   4.793   3.659 -0.5464 -0.0417 -0.3910
  780MOL0     C 7535   5.546   4.928   3.661 -0.1968 -0.0433  0.5220
  780MOL0     C 7536   5.666   4.973   3.608 -0.1204 -0.0448 -0.6105
  780MOL0     C 7537   5.757   4.883   3.548  0.4210 -0.2519  0.2787
  780MOL0     O 7538   5.885   4.920   3.514  0.6267  0.4091  0.1315
  780MOL0     C 7539   5.982   4.929   3.615 -0.3361 -0.0813 -0.4177
  780MOL0     C 7540   6.134   4.944   3.571 -0.0973 -0.7665 -0.3228
  780MOL0     C 7541   6.181   4.865   3.446  1.1009 -0.3712  0.0195
  780MOL0     C 7542   6.165   4.711   3.472  0.7695 -0.3254 -0.2514
  780MOL0     C 7543   6.221   4.635   3.346 -0.4598  0.2581 -0.8180
  780MOL0     C 7544   6.141   4.642   3.218  0.3035  0.1229 -0.0285
  780MOL0     C 7545   6.209   4.566   3.106  0.6126 -0.1276  0.1158
  780MOL0     C 7546   6.115   4.524   2.994 -0.1425 -0.4757 -0.0366
  780MOL0    Cl 7547   6.071   4.669   2.907 -0.1073  0.1843 -0.0363
  780MOL0     C 7548   5.717   4.751   3.529  0.4184 -0.0978 -0.5110
  780MOL0     C 7549   5.600   4.701   3.594  0.1316  0.0529  0.2668
  780MOL0     O 7550   5.438   4.821   3.929 -0.0202 -0.1799 -0.4930
  780MOL0     C 7551   5.163   4.614   3.805 -0.4593 -0.6787  0.2147
  780MOL0     C 7552   5.057   4.533   3.845 -0.3518  0.1247 -1.1883
  780MOL0     N 7553   4.336   4.491   4.341  0.3772  0.1277  0.6087
  780MOL0     N 7554   4.275   4.439   4.437 -0.4129  0.2655  0.0992
  780MOL0     C 7555   3.890   4.294   5.403 -0.2472  0.7765 -1.0187
  780MOL0     C 7556   3.931   4.373   5.516  0.0142 -0.1310  0.2313
  780MOL0     C 7557   4.047   4.767   5.712  0.3884  0.2134 -0.1306
  780MOL0     C 7558   4.169   4.832   5.711 -0.4846  0.1079 -0.9875
  780MOL0     C 7559   4.210   4.925   5.810  0.1226  0.3203 -0.1146
  780MOL0     C 7560   4.113   4.969   5.896 -0.8494  0.1708 -0.3762
  780MOL0     O 7561   4.140   5.063   5.995  0.2022  0.8499 -0.1002
  780MOL0     C 7562   4.201   5.004   6.115  0.4822  0.9526  0.5933
  780MOL0     C 7563   4.350   5.029   6.102 -0.2300  0.6451 -0.6589
  780MOL0     C 7564   4.426   4.964   6.219 -0.0080  0.1156 -1.3466
  780MOL0     C 7565   4.574   5.004   6.227  0.1091  0.4229  0.4157
  780MOL0     C 7566   4.603   5.149   6.268 -0.0062 -0.8926  0.8849
  780MOL0     C 7567   4.618   5.266   6.283 -0.6262 -1.1535  0.4148
  780MOL0     C 7568   3.987   4.914   5.894  0.0959 -0.1214 -0.2397
  780MOL0     C 7569   3.947   4.813   5.797  0.2197 -0.0283  0.6325
  780MOL0     C 7570   3.796   4.780   5.791 -0.7233  0.2707 -0.0056
  780MOL0     H 7571   3.740   4.642   5.467 -0.5929  0.0856  1.1680
  780MOL0     H 7572   3.675   4.518   5.275  2.9986  1.7860 -1.8694
  780MOL0     H 7573   3.701   4.415   5.065 -1.6984 -0.1998 -0.6811
  780MOL0     H 7574   3.574   4.315   5.143 -0.9238  1.1512 -0.0925
  780MOL0     H 7575   3.668   4.120   4.991 -1.7404 -0.3563 -1.0853
  780MOL0     H 7576   3.572   4.247   4.936  0.0602 -0.4303 -1.5565
  780MOL0     H 7577   3.799   4.366   4.862 -2.6147  1.0957 -1.8030
  780MOL0     H 7578   3.873   4.212   4.915  0.0276 -1.6588 -2.1525
  780MOL0     H 7579   3.743   4.080   4.749  0.7005 -0.2021 -2.1208
  780MOL0     H 7580   3.626   4.212   4.724 -1.0704 -0.3632  0.7808
  780MOL0     H 7581   3.798   4.346   4.621 -0.8284  0.1824 -0.1145
  780MOL0     H 7582   3.762   4.189   4.540 -0.3792  1.6741 -1.3700
  780MOL0     H 7583   4.005   4.242   4.706  0.6388  0.7173 -0.0045
  780MOL0     H 7584   3.970   4.083   4.639 -1.6542  0.1058  0.4300
  780MOL0     H 7585   4.007   4.342   4.470  2.3016  0.9061  0.5844
  780MOL0     H 7586   3.994   4.178   4.405  3.9945  1.5826 -2.8406
  780MOL0     H 7587   4.215   4.237   4.606 -0.7517  1.2311  0.3327
  780MOL0     H 7588   4.203   4.122   4.476 -4.3585 -1.8817  0.8251
  780MOL0     H 7589   4.301   4.191   4.225 -0.1126 -0.7292  1.8778
  780MOL0     H 7590   4.416   4.517   4.076  0.2422  0.0154 -0.8127
  780MOL0     H 7591   4.421   4.347   4.035 -1.4243  1.5241 -1.3941
  780MOL0     H 7592   4.610   4.481   4.247 -2.1478 -0.1663  1.5039
  780MOL0     H 7593   4.589   4.306   4.213 -1.3399 -0.1918  0.5363
  780MOL0     H 7594   4.697   4.316   4.010  0.4734  0.2375 -2.8561
  780MOL0     H 7595   4.650   4.487   3.981 -0.1461  3.0375  2.8221
  780MOL0     H 7596   4.820   4.572   4.105 -3.6259  0.4397  0.0819
  780MOL0     H 7597   4.843   4.416   4.197  1.0754  3.6647  1.4771
  780MOL0     H 7598   5.088   4.539   4.173 -0.9449  1.7475 -0.9673
  780MOL0     H 7599   5.339   4.791   4.149  1.9895 -1.2969  1.8853
  780MOL0     H 7600   5.403   4.635   4.134 -0.7783  0.9136 -1.0640
  780MOL0     H 7601   5.259   4.664   4.241  0.4792 -2.9715 -0.6029
  780MOL0     H 7602   5.470   4.998   3.695  0.3185  1.5446 -1.3757
  780MOL0     H 7603   5.687   5.079   3.604 -1.0718  0.1759 -0.0086
  780MOL0     H 7604   5.953   5.017   3.673  1.9080 -1.5097  3.2534
  780MOL0     H 7605   5.982   4.842   3.681  3.5086  0.9310  1.2145
  780MOL0     H 7606   6.157   5.051   3.563  2.1781 -0.6804  4.2758
  780MOL0     H 7607   6.194   4.906   3.653 -3.2317 -1.9801  1.6105
  780MOL0     H 7608   6.286   4.892   3.430  1.1735  0.6487  1.8703
  780MOL0     H 7609   6.126   4.899   3.358  1.4211  2.6537  0.8801
  780MOL0     H 7610   6.066   4.671   3.494  2.9149 -5.4077  1.7895
  780MOL0     H 7611   6.232   4.680   3.552 -1.2674  1.4933  2.3025
  780MOL0     H 7612   6.323   4.673   3.328  0.7710 -1.8132  1.3513
  780MOL0     H 7613   6.234   4.529   3.368  0.7256  0.9071  2.0832
  780MOL0     H 7614   6.127   4.748   3.194  1.2724  0.5245  1.0995
  780MOL0     H 7615   6.037   4.610   3.226 -0.3632  2.1391  0.1362
  780MOL0     H 7616   6.241   4.467   3.139 -3.0894 -2.7396 -3.1569
  780MOL0     H 7617   6.294   4.621   3.065  0.2112 -0.3934 -1.1014
  780MOL0     H 7618   6.024   4.480   3.036 -0.2840  0.3444  0.5468
  780MOL0     H 7619   6.171   4.446   2.942  1.4202 -1.7499  3.3077
  780MOL0     H 7620   5.778   4.686   3.468  0.4060 -0.7178  0.1280
  780MOL0     H 7621   5.564   4.602   3.567  0.1785  0.4618 -1.4517
  780MOL0     H 7622   5.193   4.625   3.701  0.6273 -0.4550  0.5350
  780MOL0     H 7623   5.000   4.473   3.776 -1.3408 -1.1173  0.6441
  780MOL0     H 7624   3.925   4.192   5.392  0.4457  0.9570 -0.5568
  780MOL0     H 7625   3.999   4.333   5.590  0.1665 -0.2184  0.0444
  780MOL0     H 7626   4.242   4.809   5.633 -1.8228 -2.0774 -1.6884
  780MOL0     H 7627   4.315   4.954   5.806  0.9794 -2.6019 -3.0344
  780MOL0     H 7628   4.165   5.047   6.208  3.4868  0.0354  2.3431
  780MOL0     H 7629   4.185   4.896   6.121  0.5138  1.0085  1.9118
  780MOL0     H 7630   4.375   5.135   6.093  1.9826  0.2212 -0.0967
  780MOL0     H 7631   4.392   4.978   6.015 -1.2139 -0.9537 -0.2399
  780MOL0     H 7632   4.367   4.971   6.312 -1.1179 -2.2221 -1.7749
  780MOL0     H 7633   4.433   4.856   6.202 -1.3170  0.1504 -2.2824
  780MOL0     H 7634   4.622   4.981   6.132  0.6967 -0.8515  1.0021
  780MOL0     H 7635   4.633   4.946   6.298 -3.0323 -2.8801  0.6558
  780MOL0     H 7636   4.634   5.369   6.306  0.3363 -0.6336 -2.2641
  780MOL0     H 7637   3.916   4.945   5.970 -1.0560 -2.1941 -0.3937
  780MOL0     H 7638   3.773   4.767   5.685 -1.3033 -0.9238  0.2477
  780MOL0     H 7639   3.761   4.690   5.842 -2.3071  0.7929 -0.1316
  780MOL0     H 7640   3.739   4.857   5.843 -0.2438 -0.8089  2.2636
  781MOL0     O 7641   7.281   1.606   0.827 -0.2479  0.6355  0.1559
  781MOL0     C 7642   7.166   1.624   0.790  0.0321  0.1352  0.0604
  781MOL0     O 7643   7.073   1.685   0.859 -0.3008  0.7555  0.1796
  781MOL0     C 7644   7.101   1.775   0.959 -0.5655  0.0536 -0.5298
  781MOL0     C 7645   7.016   1.882   0.964 -0.2829 -0.5692 -0.2989
  781MOL0     C 7646   7.024   1.985   1.067  1.0208 -0.4119  0.6545
  781MOL0     C 7647   7.131   1.975   1.154  0.1868 -0.9597  0.0630
  781MOL0     O 7648   7.155   2.083   1.240  0.1942  0.3652  0.2066
  781MOL0     C 7649   7.204   2.069   1.374  0.4218  0.1347 -0.2350
  781MOL0     C 7650   7.194   2.195   1.466  0.8840  0.4931 -0.3306
  781MOL0     C 7651   7.049   2.232   1.467  0.7531 -1.5210 -0.8442
  781MOL0     C 7652   7.017   2.345   1.565  0.0418 -0.0663 -0.4464
  781MOL0     C 7653   7.075   2.320   1.706  0.1052 -0.3064 -0.0606
  781MOL0     C 7654   7.021   2.418   1.818  0.2133  0.6317  0.3264
  781MOL0     C 7655   7.085   2.437   1.958 -0.2133  0.2879 -0.3792
  781MOL0     C 7656   7.041   2.568   2.013  0.0205  0.4592  0.1723
  781MOL0     N 7657   6.905   2.595   2.056 -0.0428  0.1099  0.2136
  781MOL0     C 7658   6.856   2.563   2.179 -0.2801 -0.7398 -0.0987
  781MOL0     C 7659   6.730   2.617   2.181 -0.4287 -0.0251 -0.1113
  781MOL0     C 7660   6.646   2.629   2.307 -0.0143  0.6903  0.9804
  781MOL0     C 7661   6.500   2.580   2.285  0.1187 -1.1121  0.0177
  781MOL0     C 7662   6.481   2.435   2.250  0.0147  0.5069  0.0638
  781MOL0     C 7663   6.500   2.393   2.105 -0.1112  0.7250 -0.0540
  781MOL0     O 7664   6.393   2.464   2.046 -1.2703 -0.1187  0.0741
  781MOL0     C 7665   6.386   2.465   1.910  0.5625 -0.2078 -0.3083
  781MOL0     C 7666   6.283   2.547   1.846 -0.3110  0.0662  0.4864
  781MOL0     C 7667   6.275   2.564   1.707 -1.1666 -0.1317 -0.3556
  781MOL0     C 7668   6.156   2.636   1.659  0.2935  0.0790  0.1550
  781MOL0     C 7669   6.365   2.490   1.623  0.3870 -0.7194 -0.0596
  781MOL0     C 7670   6.370   2.503   1.479  0.1933  0.2639 -0.5806
  781MOL0     O 7671   6.438   2.406   1.418 -0.4832  0.3264 -0.3803
  781MOL0     C 7672   6.473   2.409   1.284 -0.2263  0.3662  0.2956
  781MOL0     C 7673   6.395   2.355   1.186  0.7440  0.1411  0.0809
  781MOL0     C 7674   6.442   2.354   1.055 -0.1949  0.4239 -0.3681
  781MOL0     C 7675   6.576   2.391   1.022 -0.1795  0.0308 -0.3668
  781MOL0     O 7676   6.618   2.386   0.889 -0.4717  0.1765 -0.3606
  781MOL0     C 7677   6.698   2.274   0.847  0.1913 -0.3848 -0.1210
  781MOL0     C 7678   6.699   2.256   0.703  0.0625 -0.7683  0.1918
  781MOL0     C 7679   6.761   2.364   0.620  0.8231 -0.2657 -0.4456
  781MOL0     C 7680   6.753   2.335   0.474 -0.4925 -0.6505  0.1913
  781MOL0     C 7681   6.823   2.446   0.396  0.4011 -0.9313 -0.8708
  781MOL0     C 7682   6.966   2.409   0.350 -0.4824  0.0177 -0.4776
  781MOL0     C 7683   7.054   2.525   0.309 -0.6345  0.1163  0.4126
  781MOL0     C 7684   7.199   2.497   0.306 -0.8315  0.6314 -0.0969
  781MOL0    Cl 7685   7.243   2.369   0.197  0.6068  0.1976  0.2464
  781MOL0     C 7686   6.658   2.440   1.124  0.1949  0.4468 -0.1967
  781MOL0     C 7687   6.601   2.459   1.253  0.3715 -0.1317 -0.0726
  781MOL0     O 7688   6.316   2.591   1.421  0.1736 -0.4614  0.1676
  781MOL0     C 7689   6.461   2.403   1.692 -0.1467 -0.1365 -0.2839
  781MOL0     C 7690   6.470   2.392   1.831  0.3828  0.0481  0.1904
  781MOL0     N 7691   6.709   2.672   2.054 -0.4102  0.2849 -0.2468
  781MOL0     N 7692   6.811   2.649   1.981  0.2689  0.4559 -0.1945
  781MOL0     C 7693   7.209   1.854   1.161 -0.4614 -0.0526 -0.0760
  781MOL0     C 7694   7.192   1.752   1.067  0.7530 -0.2575 -0.7079
  781MOL0     C 7695   7.119   1.560   0.664 -0.4784  1.2167 -0.3149
  781MOL0     C 7696   7.216   1.484   0.595 -0.1468  0.7984 -0.7928
  781MOL0     C 7697   7.194   1.415   0.473  0.2319  0.2456 -0.3269
  781MOL0     C 7698   7.063   1.408   0.434  0.1772  0.5378  0.1957
  781MOL0     O 7699   7.041   1.327   0.327  0.1160  0.1361  1.2088
  781MOL0     C 7700   6.940   1.355   0.226  0.2998 -0.0955  0.7913
  781MOL0     C 7701   6.981   1.483   0.145 -0.7414  1.0471 -0.8103
  781MOL0     C 7702   6.896   1.492   0.016  0.3548  0.2373  0.3721
  781MOL0     C 7703   6.954   1.598  -0.079  0.8207 -0.0390 -0.2407
  781MOL0     C 7704   7.078   1.563  -0.145 -0.9943  0.8629 -0.4872
  781MOL0     C 7705   7.185   1.543  -0.200  0.3290  0.0143 -0.1661
  781MOL0     C 7706   6.962   1.492   0.497 -0.0739  0.0795 -0.2429
  781MOL0     C 7707   6.988   1.558   0.612  0.8354 -0.6285  0.3965
  781MOL0     C 7708   6.866   1.633   0.672 -0.0897 -0.4420 -0.0611
  781MOL0     H 7709   6.930   1.906   0.903 -1.7937  0.9844  2.2409
  781MOL0     H 7710   6.967   2.077   1.058  2.7978  0.8977  2.0997
  781MOL0     H 7711   7.307   2.032   1.365  1.6100  2.8229  1.0406
  781MOL0     H 7712   7.143   1.990   1.419  2.1101 -0.6389  0.8022
  781MOL0     H 7713   7.233   2.173   1.566 -1.9426  0.4572  0.8591
  781MOL0     H 7714   7.263   2.274   1.433  1.5314  0.3842  0.7202
  781MOL0     H 7715   7.021   2.261   1.365 -0.0403  0.2394 -0.1653
  781MOL0     H 7716   6.983   2.150   1.499 -0.3746 -0.0064  0.9020
  781MOL0     H 7717   7.057   2.442   1.535 -3.5092  2.6839  2.7183
  781MOL0     H 7718   6.909   2.358   1.575  0.1833 -0.0363  1.3221
  781MOL0     H 7719   7.184   2.329   1.703  0.0879  0.0023  0.2378
  781MOL0     H 7720   7.057   2.215   1.733 -0.8107  0.2721  1.7868
  781MOL0     H 7721   7.033   2.515   1.769 -0.3929  0.2556 -0.5721
  781MOL0     H 7722   6.912   2.411   1.828  0.4830 -2.6449  2.5536
  781MOL0     H 7723   7.194   2.435   1.950 -0.1681 -1.3488  0.3031
  781MOL0     H 7724   7.064   2.354   2.025  2.3106  0.8536  1.2454
  781MOL0     H 7725   7.098   2.592   2.102 -0.6326 -1.6138  1.2172
  781MOL0     H 7726   7.068   2.637   1.932 -1.3570 -0.0849 -0.8095
  781MOL0     H 7727   6.905   2.512   2.261 -0.8801 -4.7360 -1.9865
  781MOL0     H 7728   6.634   2.734   2.332  2.7927  1.3203 -0.0003
  781MOL0     H 7729   6.683   2.576   2.395 -1.7848 -1.3685  0.5721
  781MOL0     H 7730   6.455   2.596   2.383  0.7480 -1.3460  0.3462
  781MOL0     H 7731   6.443   2.651   2.224 -0.8072 -0.2667  1.7911
  781MOL0     H 7732   6.545   2.371   2.311  1.5977  3.2251  1.4643
  781MOL0     H 7733   6.378   2.405   2.272  0.5703 -1.7900 -0.2595
  781MOL0     H 7734   6.593   2.425   2.059  0.8364  0.4418  1.5917
  781MOL0     H 7735   6.485   2.285   2.095 -0.7901  0.5397  2.2918
  781MOL0     H 7736   6.214   2.607   1.905 -2.9725 -2.8822  0.6211
  781MOL0     H 7737   6.168   2.743   1.675 -2.2656  0.1791  1.9888
  781MOL0     H 7738   6.074   2.606   1.725 -0.2529 -0.1996 -0.6294
  781MOL0     H 7739   6.109   2.610   1.564 -4.5064 -0.4500  2.3804
  781MOL0     H 7740   6.290   2.335   1.203  0.2868  0.3915 -2.1250
  781MOL0     H 7741   6.379   2.321   0.973 -0.3029  0.5294 -0.3272
  781MOL0     H 7742   6.801   2.281   0.883 -0.1684  1.4662  0.6987
  781MOL0     H 7743   6.673   2.177   0.890  0.2960  0.4076  1.8660
  781MOL0     H 7744   6.753   2.166   0.672  1.2729  0.1971 -0.6070
  781MOL0     H 7745   6.597   2.231   0.674 -0.7150 -0.0095  2.1275
  781MOL0     H 7746   6.864   2.374   0.657  1.0153 -0.8410 -0.8043
  781MOL0     H 7747   6.701   2.454   0.635  0.9013  0.5751 -4.1276
  781MOL0     H 7748   6.651   2.318   0.437  0.5612 -1.2541 -2.7027
  781MOL0     H 7749   6.799   2.238   0.456 -2.5082 -1.3076 -1.8812
  781MOL0     H 7750   6.761   2.472   0.309  0.5612  0.1287 -0.6838
  781MOL0     H 7751   6.834   2.533   0.461 -0.6114 -1.5255  0.1512
  781MOL0     H 7752   6.953   2.331   0.275 -1.4601 -0.6132  0.3268
  781MOL0     H 7753   7.009   2.353   0.433  1.5675  2.5417  0.3060
  781MOL0     H 7754   7.041   2.610   0.377  2.9288  2.1609 -1.1647
  781MOL0     H 7755   7.021   2.557   0.210  1.1536  1.0898  0.0766
  781MOL0     H 7756   7.234   2.469   0.406  2.1057  1.2598 -0.8422
  781MOL0     H 7757   7.248   2.585   0.265 -1.3893  0.5977 -0.8608
  781MOL0     H 7758   6.757   2.477   1.097  0.1816  0.5451 -0.1142
  781MOL0     H 7759   6.668   2.501   1.328  2.7239 -2.4180 -0.7243
  781MOL0     H 7760   6.537   2.347   1.638  1.2515  0.4429  1.0359
  781MOL0     H 7761   6.547   2.325   1.869 -0.6989 -1.3117  0.0620
  781MOL0     H 7762   7.273   1.855   1.248 -3.9169 -4.1175  3.0058
  781MOL0     H 7763   7.255   1.666   1.083  0.3272 -0.1692  1.9478
  781MOL0     H 7764   7.314   1.475   0.639 -0.7341  0.6852  0.5216
  781MOL0     H 7765   7.275   1.359   0.426  0.4461 -0.4710  0.8568
  781MOL0     H 7766   6.952   1.267   0.162 -0.2715 -1.1095  2.0313
  781MOL0     H 7767   6.842   1.358   0.274  0.1575 -2.0476  0.6929
  781MOL0     H 7768   7.088   1.468   0.125 -1.0792 -4.2049 -0.0828
  781MOL0     H 7769   6.971   1.571   0.209  1.6520 -0.1206  1.3317
  781MOL0     H 7770   6.892   1.388  -0.019  0.9715  1.1167 -2.5513
  781MOL0     H 7771   6.795   1.520   0.045  0.3513  2.4351 -1.5157
  781MOL0     H 7772   6.975   1.691  -0.026  1.4879 -0.5417  0.3927
  781MOL0     H 7773   6.877   1.615  -0.155  1.0960  0.5348 -0.3907
  781MOL0     H 7774   7.272   1.554  -0.261 -1.3612  0.6772 -2.6560
  781MOL0     H 7775   6.866   1.502   0.447 -0.4615  1.2602  0.6746
  781MOL0     H 7776   6.783   1.637   0.601 -1.5479 -0.2733  1.5888
  781MOL0     H 7777   6.829   1.578   0.759 -3.4749  1.0358 -0.3888
  781MOL0     H 7778   6.900   1.736   0.688  2.2831 -1.3317  1.0973
  782MOL0     O 7779   5.620   8.229   9.189 -0.0114  0.0210  0.0511
  782MOL0     C 7780   5.601   8.213   9.309  0.5173 -0.4143 -0.0762
  782MOL0     O 7781   5.533   8.304   9.393 -0.3782  0.0356 -0.4248
  782MOL0     C 7782   5.498   8.429   9.348  0.2786 -0.6514  0.6913
  782MOL0     C 7783   5.597   8.521   9.319  0.4873  0.1997 -0.4789
  782MOL0     C 7784   5.572   8.660   9.295 -0.1302  0.2293  0.1485
  782MOL0     C 7785   5.437   8.699   9.291  0.6987 -0.6994  0.1234
  782MOL0     O 7786   5.397   8.829   9.251 -0.0729  0.5745  0.1010
  782MOL0     C 7787   5.459   8.881   9.136 -0.4002  0.1243 -0.7043
  782MOL0     C 7788   5.341   8.938   9.057 -0.1736 -0.6722 -0.0891
  782MOL0     C 7789   5.391   9.049   8.958  0.4592  0.0239 -0.2120
  782MOL0     C 7790   5.512   9.015   8.873  0.2640 -0.4297  0.3332
  782MOL0     C 7791   5.536   9.143   8.780  0.7563 -0.4511 -0.0643
  782MOL0     C 7792   5.661   9.113   8.689  0.7841 -0.4749 -0.1822
  782MOL0     C 7793   5.627   9.039   8.552 -0.5531  0.4121 -0.3896
  782MOL0     C 7794   5.532   9.107   8.460 -1.0572 -0.0722  0.6258
  782MOL0     N 7795   5.561   9.067   8.326 -0.4884 -0.4342  0.7386
  782MOL0     C 7796   5.668   9.110   8.247 -0.4476 -0.4354 -0.3782
  782MOL0     C 7797   5.642   9.054   8.127 -0.8893  1.1130  1.1134
  782MOL0     C 7798   5.738   9.057   8.009 -0.1896 -0.5919  0.2045
  782MOL0     C 7799   5.681   8.998   7.883 -0.4991  0.3745  0.1070
  782MOL0     C 7800   5.774   9.042   7.768 -0.2085 -0.2581 -0.4044
  782MOL0     C 7801   5.748   8.953   7.645  0.6433 -0.3581 -0.2871
  782MOL0     O 7802   5.635   9.004   7.576  0.5280 -0.2939  0.1237
  782MOL0     C 7803   5.586   8.929   7.468 -0.0171  0.0571 -0.2853
  782MOL0     C 7804   5.525   9.003   7.373  0.7638 -0.6814 -1.2507
  782MOL0     C 7805   5.483   8.943   7.250  0.3381  0.2453  0.1500
  782MOL0     C 7806   5.413   9.027   7.146 -0.0364  0.3858 -1.1324
  782MOL0     C 7807   5.513   8.807   7.215  0.7410 -0.2719  1.4368
  782MOL0     C 7808   5.482   8.734   7.086  0.2044 -0.9984  0.6317
  782MOL0     O 7809   5.452   8.602   7.090 -0.5513 -0.0887 -0.2058
  782MOL0     C 7810   5.450   8.517   6.976 -0.6966 -0.1895  0.3250
  782MOL0     C 7811   5.572   8.456   6.934 -0.9542  0.3332  0.6153
  782MOL0     C 7812   5.564   8.362   6.828  0.6550  1.0808 -0.3288
  782MOL0     C 7813   5.443   8.334   6.761  0.7348  0.4904  0.1960
  782MOL0     O 7814   5.422   8.243   6.655  0.3066 -0.1342 -0.0092
  782MOL0     C 7815   5.540   8.203   6.600 -0.0131  0.1323  0.6164
  782MOL0     C 7816   5.511   8.146   6.462 -0.6865  0.7404  0.3712
  782MOL0     C 7817   5.626   8.072   6.394  0.2629  0.3226  0.8966
  782MOL0     C 7818   5.576   8.049   6.252  0.2512 -0.2975 -0.0854
  782MOL0     C 7819   5.686   7.975   6.181 -0.1234 -0.9728 -0.2087
  782MOL0     C 7820   5.658   7.897   6.057  0.4162 -0.0184  0.8801
  782MOL0     C 7821   5.579   7.984   5.961  0.1244  0.2476  0.4803
  782MOL0     C 7822   5.577   7.922   5.824  0.2950  1.0660 -0.8535
  782MOL0    Cl 7823   5.493   8.045   5.732  0.3979 -0.1036  0.3515
  782MOL0     C 7824   5.330   8.397   6.806  0.5951 -0.7999  0.8596
  782MOL0     C 7825   5.327   8.481   6.916  0.0565 -0.3879  0.0629
  782MOL0     O 7826   5.497   8.805   6.986  0.2413  0.5826  0.5072
  782MOL0     C 7827   5.574   8.737   7.322  1.0040  0.3173 -0.0271
  782MOL0     C 7828   5.614   8.797   7.448 -0.1197  0.2170 -0.0244
  782MOL0     N 7829   5.520   8.984   8.122 -0.3589  0.1143 -0.0205
  782MOL0     N 7830   5.474   8.995   8.244 -0.1890  0.2459  0.1211
  782MOL0     C 7831   5.342   8.609   9.320 -0.0807 -0.1159  0.3813
  782MOL0     C 7832   5.372   8.476   9.352 -0.5266 -1.1366  0.3384
  782MOL0     C 7833   5.635   8.088   9.372  0.6056  0.3284 -0.0280
  782MOL0     C 7834   5.573   7.970   9.325 -0.7285 -0.1097 -0.0881
  782MOL0     C 7835   5.587   7.849   9.390  0.2136  0.8235 -0.6936
  782MOL0     C 7836   5.662   7.846   9.512  0.1602  0.5509 -0.4860
  782MOL0     O 7837   5.662   7.728   9.586 -0.7071 -0.8986  0.6609
  782MOL0     C 7838   5.755   7.701   9.693  0.4808  0.4315  0.1571
  782MOL0     C 7839   5.894   7.665   9.634  0.1773  1.2727  0.2447
  782MOL0     C 7840   6.008   7.622   9.727  0.4112 -0.0989  0.1579
  782MOL0     C 7841   6.082   7.735   9.784  0.0121  0.6088 -0.0287
  782MOL0     C 7842   6.019   7.803   9.903 -0.3669  0.5463  0.8048
  782MOL0     C 7843   5.994   7.875   9.995 -0.4662  0.9508  0.5181
  782MOL0     C 7844   5.732   7.959   9.551 -0.4396 -0.7404 -0.1741
  782MOL0     C 7845   5.721   8.088   9.481  0.5438  0.8183  0.6060
  782MOL0     C 7846   5.784   8.213   9.543  0.1694 -0.2047 -0.1157
  782MOL0     H 7847   5.697   8.480   9.325  0.6662  0.2187 -2.4172
  782MOL0     H 7848   5.653   8.732   9.292  0.0357  0.1693  2.0172
  782MOL0     H 7849   5.511   8.800   9.082 -0.8820  0.9741 -2.5305
  782MOL0     H 7850   5.518   8.968   9.167 -2.3043  1.2370 -0.0928
  782MOL0     H 7851   5.292   8.863   8.994  1.3168 -1.0214 -0.8735
  782MOL0     H 7852   5.258   8.981   9.114  0.8199 -0.1723  1.0260
  782MOL0     H 7853   5.304   9.070   8.896  1.4724  2.5126 -0.9125
  782MOL0     H 7854   5.414   9.143   9.009  0.9871  0.6966 -1.6297
  782MOL0     H 7855   5.594   9.008   8.945 -0.2777  0.6922  1.0799
  782MOL0     H 7856   5.505   8.921   8.817 -0.2145 -0.6117  0.6850
  782MOL0     H 7857   5.548   9.231   8.844  0.2200 -1.8220  1.9907
  782MOL0     H 7858   5.445   9.157   8.719  1.0485  0.9425 -0.2138
  782MOL0     H 7859   5.700   9.209   8.653  0.7516  0.2479  1.6391
  782MOL0     H 7860   5.733   9.049   8.740 -1.6498 -1.4549  2.2553
  782MOL0     H 7861   5.587   8.942   8.584 -1.8852  0.8763 -0.5788
  782MOL0     H 7862   5.722   9.026   8.500  1.3639  3.1168  2.0887
  782MOL0     H 7863   5.432   9.063   8.466 -0.1348 -2.4022 -0.0939
  782MOL0     H 7864   5.528   9.215   8.482 -0.1044  0.1258 -0.0962
  782MOL0     H 7865   5.762   9.157   8.274 -0.5524 -0.2352 -0.3572
  782MOL0     H 7866   5.835   9.014   8.035 -0.2878  0.2795  2.2356
  782MOL0     H 7867   5.763   9.162   7.990 -0.6416 -0.2326  1.4775
  782MOL0     H 7868   5.679   8.889   7.893  1.0457  0.4662  2.1848
  782MOL0     H 7869   5.583   9.045   7.876 -0.9498 -0.7432 -1.7501
  782MOL0     H 7870   5.757   9.148   7.747  1.8947  0.0810 -0.6342
  782MOL0     H 7871   5.881   9.043   7.792  0.0204  4.4521 -0.6168
  782MOL0     H 7872   5.833   8.959   7.577  0.4838 -0.8021 -0.5319
  782MOL0     H 7873   5.734   8.851   7.683 -1.8213  0.1308  0.3162
  782MOL0     H 7874   5.514   9.109   7.392 -2.2676 -0.1830 -4.6099
  782MOL0     H 7875   5.469   9.041   7.053 -2.7150 -0.0566 -2.9561
  782MOL0     H 7876   5.372   9.120   7.185 -1.2747  0.0797 -1.6474
  782MOL0     H 7877   5.323   8.975   7.111  1.5348 -3.0277 -0.5036
  782MOL0     H 7878   5.666   8.455   6.988  0.7468 -0.7887 -2.1409
  782MOL0     H 7879   5.658   8.317   6.798  0.4512  2.6201 -3.7507
  782MOL0     H 7880   5.609   8.287   6.585 -1.0017  1.0723  1.2110
  782MOL0     H 7881   5.591   8.128   6.661 -1.2327  1.6938  3.7440
  782MOL0     H 7882   5.419   8.087   6.463  0.5240 -1.3743 -2.1452
  782MOL0     H 7883   5.486   8.227   6.393 -0.7338 -2.6053 -3.9640
  782MOL0     H 7884   5.644   7.980   6.450 -1.6952  1.1161  2.9812
  782MOL0     H 7885   5.721   8.128   6.396 -0.4204  1.5061  1.2747
  782MOL0     H 7886   5.562   8.150   6.211  0.5197 -0.0879  0.3326
  782MOL0     H 7887   5.483   7.995   6.238  1.4979 -2.1431 -1.7560
  782MOL0     H 7888   5.770   8.041   6.157  0.1102 -0.5582  1.5579
  782MOL0     H 7889   5.734   7.901   6.246  7.1082  1.1535 -2.2337
  782MOL0     H 7890   5.602   7.805   6.073 -1.0529  0.7514  0.3104
  782MOL0     H 7891   5.755   7.871   6.014  1.7008  0.5942  3.2146
  782MOL0     H 7892   5.604   8.091   5.960 -1.0261  0.5651 -1.5054
  782MOL0     H 7893   5.478   7.991   6.003 -0.4474  2.5339 -1.0528
  782MOL0     H 7894   5.515   7.834   5.811  1.3606 -0.0064  0.8845
  782MOL0     H 7895   5.678   7.898   5.790  0.4462 -1.0851  0.8611
  782MOL0     H 7896   5.238   8.395   6.749  2.7449  0.1877 -3.0171
  782MOL0     H 7897   5.227   8.511   6.945 -1.9473 -4.8393 -1.3261
  782MOL0     H 7898   5.604   8.635   7.299 -0.1118  0.4508 -2.4713
  782MOL0     H 7899   5.663   8.736   7.522 -0.4423  0.5252  0.4523
  782MOL0     H 7900   5.239   8.644   9.316  0.1035  0.5617  1.2392
  782MOL0     H 7901   5.298   8.404   9.385  0.4366 -1.5394  1.7108
  782MOL0     H 7902   5.513   7.984   9.236 -0.2180  1.3914 -0.2406
  782MOL0     H 7903   5.522   7.768   9.358  0.0776 -0.5807  2.6847
  782MOL0     H 7904   5.772   7.778   9.769 -0.1403 -2.4065  3.4511
  782MOL0     H 7905   5.714   7.622   9.757  0.3621  0.5761  0.2623
  782MOL0     H 7906   5.926   7.742   9.563 -1.9397  0.7819 -1.3375
  782MOL0     H 7907   5.881   7.575   9.574 -0.0648  2.2670 -1.2367
  782MOL0     H 7908   5.974   7.553   9.806 -1.1258 -0.4389 -0.7561
  782MOL0     H 7909   6.071   7.554   9.670 -0.9409 -2.4765  1.3191
  782MOL0     H 7910   6.117   7.802   9.706 -2.2724  0.9939 -0.7904
  782MOL0     H 7911   6.172   7.681   9.818 -0.2803 -0.4368 -0.8553
  782MOL0     H 7912   5.963   7.936  10.078 -1.7314  0.4766  0.4155
  782MOL0     H 7913   5.787   7.955   9.644 -0.9360  0.3042  0.1863
  782MOL0     H 7914   5.846   8.264   9.468 -0.2964 -1.9303 -1.7284
  782MOL0     H 7915   5.713   8.283   9.588 -0.2609 -1.7450  1.7358
  782MOL0     H 7916   5.854   8.179   9.621  0.3827 -1.4376 -0.8254
  783MOL0     O 7917   6.827   4.267   7.645  0.3166  0.6165 -0.1250
  783MOL0     C 7918   6.870   4.179   7.715 -0.0174  0.2476 -0.0444
  783MOL0     O 7919   6.939   4.200   7.826  0.3176  0.4678 -1.2035
  783MOL0     C 7920   7.027   4.307   7.834  0.1686  0.0967 -0.1255
  783MOL0     C 7921   7.007   4.438   7.785  1.2400 -1.3383  0.3174
  783MOL0     C 7922   7.113   4.528   7.779  0.1582  0.5441 -0.9539
  783MOL0     C 7923   7.239   4.499   7.831 -0.3957 -0.1259  0.4793
  783MOL0     O 7924   7.328   4.606   7.832 -0.2394 -0.0961 -1.6551
  783MOL0     C 7925   7.449   4.582   7.904 -0.8798 -0.1258 -1.1518
  783MOL0     C 7926   7.555   4.694   7.878 -0.0941  0.2689 -0.1999
  783MOL0     C 7927   7.601   4.697   7.733  0.1858 -0.1307 -0.4164
  783MOL0     C 7928   7.713   4.797   7.742 -0.4922  0.0750 -0.4362
  783MOL0     C 7929   7.769   4.808   7.599  0.1038  0.9377 -1.0496
  783MOL0     C 7930   7.661   4.872   7.504 -0.3169  0.1274  0.0692
  783MOL0     C 7931   7.733   4.896   7.374  0.8440 -0.0169  1.4145
  783MOL0     C 7932   7.628   4.962   7.277 -0.1932  0.5512  0.6483
  783MOL0     N 7933   7.570   4.861   7.189  0.3322  0.3047 -0.0952
  783MOL0     C 7934   7.449   4.812   7.218  0.2229 -1.0197 -0.0895
  783MOL0     C 7935   7.426   4.729   7.114 -1.1705  0.0586  1.1309
  783MOL0     C 7936   7.302   4.659   7.088  0.6059 -0.5081 -1.3761
  783MOL0     C 7937   7.207   4.767   7.037  0.7012 -0.9158 -0.5191
  783MOL0     C 7938   7.061   4.729   7.033 -0.2067  0.8534 -0.5673
  783MOL0     C 7939   6.965   4.838   7.002  0.6317  0.4559  0.4627
  783MOL0     O 7940   7.006   4.901   6.881 -0.0079 -0.1881 -0.3911
  783MOL0     C 7941   6.958   4.856   6.764 -0.7346 -0.3430  0.8964
  783MOL0     C 7942   6.903   4.730   6.749 -0.1480  0.5884  0.3204
  783MOL0     C 7943   6.856   4.687   6.628 -0.3300 -0.1428  0.3353
  783MOL0     C 7944   6.829   4.543   6.621  0.3621  0.1028  1.0104
  783MOL0     C 7945   6.830   4.780   6.522 -0.2316  0.3549  0.0722
  783MOL0     C 7946   6.747   4.755   6.394  0.7791  0.7562  0.3042
  783MOL0     O 7947   6.712   4.864   6.315 -0.1516 -0.7332  0.0278
  783MOL0     C 7948   6.609   4.871   6.228  0.2210  0.6612 -0.4982
  783MOL0     C 7949   6.575   4.998   6.179 -0.1114  0.0203  0.4214
  783MOL0     C 7950   6.458   5.013   6.099  0.0795 -0.2242  0.1378
  783MOL0     C 7951   6.377   4.906   6.053  0.0345  0.6245 -0.3152
  783MOL0     O 7952   6.279   4.902   5.965  0.0994  0.0692 -0.1956
  783MOL0     C 7953   6.245   5.029   5.902  0.4963  0.4592  0.3475
  783MOL0     C 7954   6.129   5.086   5.982  0.0160  0.1274  0.1052
  783MOL0     C 7955   6.073   5.219   5.920 -1.3009  0.0758  0.3753
  783MOL0     C 7956   5.979   5.276   6.020  0.5057  0.4377  0.0586
  783MOL0     C 7957   5.887   5.379   5.956 -0.3882 -0.1963 -0.5417
  783MOL0     C 7958   5.758   5.405   6.034 -0.3102  0.4346  0.1310
  783MOL0     C 7959   5.683   5.519   5.970 -0.0544 -0.3860  1.0175
  783MOL0     C 7960   5.555   5.544   6.041  0.0408 -0.2808  0.1795
  783MOL0    Cl 7961   5.471   5.665   5.923  0.4913 -0.3058 -0.5512
  783MOL0     C 7962   6.411   4.780   6.110  0.4227  0.1265 -0.0479
  783MOL0     C 7963   6.527   4.762   6.186 -0.3590  0.1728 -0.3807
  783MOL0     O 7964   6.697   4.643   6.380  0.2062 -0.9389  0.9588
  783MOL0     C 7965   6.895   4.910   6.536 -0.4975  0.7022  0.2669
  783MOL0     C 7966   6.959   4.941   6.655 -0.3321 -0.5423 -0.2990
  783MOL0     N 7967   7.540   4.727   7.033  0.9034 -0.2244  0.0711
  783MOL0     N 7968   7.623   4.812   7.077  0.7755  0.3617  0.1851
  783MOL0     C 7969   7.262   4.368   7.890  0.2802 -0.5829  0.1372
  783MOL0     C 7970   7.152   4.280   7.892 -0.6600  0.5570 -0.4772
  783MOL0     C 7971   6.835   4.037   7.692 -0.4898 -0.5853 -0.2807
  783MOL0     C 7972   6.828   3.955   7.801  0.1465  0.2428  0.1678
  783MOL0     C 7973   6.796   3.816   7.791 -0.1064 -0.2339  0.0048
  783MOL0     C 7974   6.763   3.761   7.667 -1.5828 -1.1128 -0.7093
  783MOL0     O 7975   6.737   3.631   7.651  0.5763  0.4502  0.3707
  783MOL0     C 7976   6.828   3.543   7.721  0.1532  0.5443  0.5680
  783MOL0     C 7977   6.771   3.410   7.696  0.7845  1.1390 -1.4201
  783MOL0     C 7978   6.792   3.357   7.556  0.8075 -0.0935  0.0792
  783MOL0     C 7979   6.930   3.363   7.509  0.6097 -0.3886  0.0382
  783MOL0     C 7980   6.949   3.288   7.376  0.5280 -0.1444  0.0401
  783MOL0     C 7981   6.971   3.221   7.271  0.3002 -0.1485  0.0186
  783MOL0     C 7982   6.774   3.846   7.559  0.4695 -0.0321  0.2924
  783MOL0     C 7983   6.803   3.981   7.566  1.5895  0.2937 -0.2056
  783MOL0     C 7984   6.807   4.057   7.440 -0.3484 -0.9625 -1.0698
  783MOL0     H 7985   6.907   4.456   7.747  1.2974 -2.0818 -0.2171
  783MOL0     H 7986   7.090   4.627   7.742  0.9944  0.5087 -1.6071
  783MOL0     H 7987   7.501   4.499   7.856  1.1182  0.7295 -0.5611
  783MOL0     H 7988   7.436   4.558   8.010 -0.1309 -1.4227 -1.3436
  783MOL0     H 7989   7.512   4.788   7.915 -1.0959 -0.1784 -0.1865
  783MOL0     H 7990   7.640   4.675   7.945  1.8823  2.8986 -1.7713
  783MOL0     H 7991   7.620   4.596   7.695  0.3115 -0.0096 -0.6793
  783MOL0     H 7992   7.517   4.744   7.682  0.1668 -1.6278 -1.8801
  783MOL0     H 7993   7.666   4.893   7.767 -1.2364  0.1749 -2.1404
  783MOL0     H 7994   7.798   4.777   7.808 -1.4766 -1.5029  0.4244
  783MOL0     H 7995   7.783   4.707   7.558 -1.2686  1.0870 -1.9516
  783MOL0     H 7996   7.866   4.859   7.596  2.0416 -2.4114 -0.2493
  783MOL0     H 7997   7.581   4.800   7.483  3.2031 -3.0010 -4.8696
  783MOL0     H 7998   7.631   4.971   7.541  2.6898  2.0927 -2.2134
  783MOL0     H 7999   7.789   4.810   7.337  1.1478  1.6867 -2.5872
  783MOL0     H 8000   7.809   4.972   7.399  3.0703 -2.5324  2.8143
  783MOL0     H 8001   7.568   5.037   7.330  2.7962  1.6127  2.8137
  783MOL0     H 8002   7.689   5.020   7.207 -0.1718  0.4364  0.5735
  783MOL0     H 8003   7.378   4.844   7.294  0.9247 -2.6611  1.3079
  783MOL0     H 8004   7.262   4.625   7.183  0.6374  1.8214 -0.4768
  783MOL0     H 8005   7.315   4.578   7.015  1.5795 -2.7313  1.0883
  783MOL0     H 8006   7.216   4.860   7.094 -1.0801 -0.3369 -1.1082
  783MOL0     H 8007   7.238   4.798   6.938 -2.0989 -0.7551 -1.4407
  783MOL0     H 8008   7.059   4.642   6.967  3.7148 -1.3068  1.7432
  783MOL0     H 8009   7.046   4.702   7.138 -1.1383  0.2142 -0.8599
  783MOL0     H 8010   6.863   4.803   6.988  1.6541 -2.3499 -0.8269
  783MOL0     H 8011   6.964   4.908   7.086 -1.6542  0.7497  0.2342
  783MOL0     H 8012   6.894   4.664   6.835  0.3684  3.3931  2.6837
  783MOL0     H 8013   6.894   4.495   6.695  2.6160  0.2134 -0.7859
  783MOL0     H 8014   6.837   4.496   6.523 -1.1755 -1.4176  1.5534
  783MOL0     H 8015   6.724   4.531   6.650 -0.2779  0.3647 -1.0577
  783MOL0     H 8016   6.631   5.083   6.215 -1.8472  0.8658  1.2622
  783MOL0     H 8017   6.429   5.116   6.078  0.0412 -0.5875 -1.8195
  783MOL0     H 8018   6.333   5.095   5.902 -0.1476  1.3396 -0.3326
  783MOL0     H 8019   6.224   5.027   5.795 -0.5344  2.1537  0.4695
  783MOL0     H 8020   6.057   5.005   5.997  1.2273 -0.6281  2.4418
  783MOL0     H 8021   6.165   5.111   6.082  0.7161  1.0872 -0.3729
  783MOL0     H 8022   6.028   5.191   5.824 -1.2711 -0.8946  0.6403
  783MOL0     H 8023   6.147   5.297   5.903 -3.4965  2.3566  0.6836
  783MOL0     H 8024   6.021   5.309   6.115 -0.5285  0.9217  0.3627
  783MOL0     H 8025   5.906   5.200   6.050 -1.0915  1.7531 -0.3421
  783MOL0     H 8026   5.947   5.469   5.934  1.4187 -1.6103 -1.7034
  783MOL0     H 8027   5.855   5.347   5.856  2.3095 -0.6365 -1.3477
  783MOL0     H 8028   5.779   5.431   6.138 -1.3622 -0.7524  0.6638
  783MOL0     H 8029   5.708   5.308   6.040  2.0713 -0.7999  1.7166
  783MOL0     H 8030   5.652   5.508   5.866 -1.1415  1.5006  1.0830
  783MOL0     H 8031   5.740   5.612   5.963 -2.1984  0.9491 -5.1882
  783MOL0     H 8032   5.575   5.575   6.144  0.1090 -0.5948  0.2620
  783MOL0     H 8033   5.487   5.458   6.038 -0.2417 -0.0340 -2.3896
  783MOL0     H 8034   6.357   4.690   6.083  0.0602  0.9065 -2.0873
  783MOL0     H 8035   6.540   4.658   6.215  2.0747 -0.0284 -1.9170
  783MOL0     H 8036   6.897   4.984   6.457  4.5515  2.1089  1.3591
  783MOL0     H 8037   6.995   5.043   6.665 -2.6658  0.2857  0.4578
  783MOL0     H 8038   7.340   4.342   7.961 -0.6131  2.1181  2.3185
  783MOL0     H 8039   7.182   4.184   7.933  0.3306 -0.2015 -2.7986
  783MOL0     H 8040   6.839   3.998   7.900 -1.4931  0.4023  0.3017
  783MOL0     H 8041   6.782   3.756   7.881 -0.1098  0.5392  0.5264
  783MOL0     H 8042   6.931   3.557   7.689 -0.2365  2.2072 -0.1059
  783MOL0     H 8043   6.822   3.565   7.828 -2.2517  0.1166  0.5802
  783MOL0     H 8044   6.663   3.416   7.711  0.6443 -0.8647 -1.3564
  783MOL0     H 8045   6.806   3.338   7.771 -2.1097 -0.4970 -1.4838
  783MOL0     H 8046   6.747   3.257   7.548  0.5931 -0.0307  0.4632
  783MOL0     H 8047   6.734   3.421   7.488 -0.9433 -0.1071  1.4796
  783MOL0     H 8048   6.992   3.308   7.580  1.0934 -1.2982 -1.0717
  783MOL0     H 8049   6.967   3.466   7.501 -3.7551  1.3163 -1.0725
  783MOL0     H 8050   6.979   3.162   7.183  0.4688 -0.1681  0.0479
  783MOL0     H 8051   6.749   3.805   7.462  1.5027  1.2508 -0.5427
  783MOL0     H 8052   6.885   4.133   7.434 -0.2057 -1.1299 -1.4204
  783MOL0     H 8053   6.819   3.990   7.354  2.7107 -1.2739 -0.5194
  783MOL0     H 8054   6.710   4.106   7.431 -0.7077 -1.5490 -0.5126
  784MOL0     O 8055  11.142   4.754   1.874  0.5115 -0.5747 -0.2783
  784MOL0     C 8056  11.064   4.795   1.962  0.0611 -0.2902  0.6470
  784MOL0     O 8057  10.957   4.721   2.016 -0.3609  0.2150 -0.7535
  784MOL0     C 8058  10.973   4.591   2.050 -0.1566  0.2923  0.5112
  784MOL0     C 8059  10.893   4.492   2.001 -0.0078 -1.1415  0.4587
  784MOL0     C 8060  10.910   4.358   2.040 -0.1026 -0.7896 -0.1751
  784MOL0     C 8061  11.011   4.322   2.130  0.1637  0.1539 -0.2822
  784MOL0     O 8062  11.053   4.198   2.174  0.9111  0.3763  0.0050
  784MOL0     C 8063  10.954   4.096   2.132 -0.0649  0.0163 -0.2209
  784MOL0     C 8064  10.969   4.043   1.991 -0.2409  0.7629  0.4027
  784MOL0     C 8065  11.115   3.989   1.975  0.0021  0.6265  0.0562
  784MOL0     C 8066  11.130   3.923   1.830  0.0953 -0.3545 -0.0862
  784MOL0     C 8067  11.273   3.874   1.816 -0.4912 -0.1274  0.7962
  784MOL0     C 8068  11.292   3.764   1.701  0.3049 -0.3497  0.1485
  784MOL0     C 8069  11.440   3.724   1.691 -0.3402 -0.3272  0.3276
  784MOL0     C 8070  11.470   3.643   1.565  0.0183  0.0373 -0.3784
  784MOL0     N 8071  11.608   3.600   1.544  0.0950  0.5509  0.0382
  784MOL0     C 8072  11.710   3.664   1.484 -0.3065 -0.3778  0.5205
  784MOL0     C 8073  11.816   3.573   1.496  1.1889  0.6330 -0.7282
  784MOL0     C 8074  11.960   3.596   1.454  0.5579  0.0335  1.2835
  784MOL0     C 8075  11.964   3.577   1.299 -0.1496 -0.2897  0.3244
  784MOL0     C 8076  11.972   3.427   1.258 -0.6178 -0.6663  0.8556
  784MOL0     C 8077  11.987   3.420   1.110  0.6166  0.2936 -0.6395
  784MOL0     O 8078  11.889   3.488   1.032  0.4151  0.4031  0.0528
  784MOL0     C 8079  11.813   3.413   0.948  0.6321  0.4718  0.5711
  784MOL0     C 8080  11.853   3.316   0.854 -0.4196  0.2579  0.1882
  784MOL0     C 8081  11.761   3.246   0.773  0.1936 -0.6271  0.9383
  784MOL0     C 8082  11.813   3.178   0.650  0.2444  0.3429  0.2881
  784MOL0     C 8083  11.623   3.272   0.790  0.5054  0.5740  0.4246
  784MOL0     C 8084  11.516   3.210   0.706 -0.6357 -0.1035  0.1627
  784MOL0     O 8085  11.390   3.248   0.732 -0.2800 -0.2508  0.0477
  784MOL0     C 8086  11.280   3.214   0.647  0.2316 -0.4600 -0.5950
  784MOL0     C 8087  11.276   3.254   0.515 -0.5953 -0.1171  0.1887
  784MOL0     C 8088  11.168   3.211   0.434  0.6904  0.0926  0.1823
  784MOL0     C 8089  11.062   3.145   0.486  0.4266  0.2167 -0.2422
  784MOL0     O 8090  10.970   3.119   0.390  0.3411 -0.9686  0.4173
  784MOL0     C 8091  10.828   3.116   0.426  0.0058 -0.7438 -0.7781
  784MOL0     C 8092  10.733   3.209   0.361 -0.1147  0.1007 -0.7527
  784MOL0     C 8093  10.771   3.362   0.366 -0.7395 -0.1404 -0.8648
  784MOL0     C 8094  10.748   3.420   0.228 -1.2990 -0.0376 -0.4445
  784MOL0     C 8095  10.799   3.566   0.215 -0.1508  0.3887 -0.3371
  784MOL0     C 8096  10.701   3.646   0.123 -0.4207  0.2706  0.0854
  784MOL0     C 8097  10.656   3.588  -0.013  0.7206  0.3791  0.5745
  784MOL0     C 8098  10.584   3.697  -0.093 -0.0611  0.5327 -0.4355
  784MOL0    Cl 8099  10.436   3.755  -0.021 -0.3688  0.0110 -0.0357
  784MOL0     C 8100  11.057   3.122   0.629  0.3747 -0.5580  0.0091
  784MOL0     C 8101  11.163   3.164   0.710 -0.9649  0.6697 -0.4001
  784MOL0     O 8102  11.547   3.148   0.605  0.5033  0.3639  0.6923
  784MOL0     C 8103  11.587   3.357   0.888  0.2223 -0.3176 -0.3270
  784MOL0     C 8104  11.677   3.424   0.962  0.4771  0.3266  0.1698
  784MOL0     N 8105  11.777   3.460   1.562 -0.2244  0.0719  0.1994
  784MOL0     N 8106  11.652   3.477   1.592  0.1328  0.2254  0.5801
  784MOL0     C 8107  11.100   4.423   2.173 -0.6412 -0.1104  0.7008
  784MOL0     C 8108  11.081   4.560   2.137  0.0852 -0.0063  0.1462
  784MOL0     C 8109  11.078   4.938   2.005 -0.0025 -0.0057  0.2682
  784MOL0     C 8110  11.075   5.039   1.906  0.1289  0.9808 -0.0782
  784MOL0     C 8111  11.087   5.176   1.938 -0.0790 -0.6050 -0.9879
  784MOL0     C 8112  11.078   5.215   2.075  0.3019  0.7642 -0.2237
  784MOL0     O 8113  11.103   5.351   2.095 -0.4126  0.7330  0.2666
  784MOL0     C 8114  11.128   5.387   2.235  0.1155 -0.7964 -0.8656
  784MOL0     C 8115  11.268   5.334   2.277  0.4590 -0.5549  0.8809
  784MOL0     C 8116  11.395   5.413   2.245 -0.0369  0.0183 -0.1101
  784MOL0     C 8117  11.531   5.359   2.267  0.2184  1.0549 -0.0379
  784MOL0     C 8118  11.632   5.431   2.189 -0.2746 -0.8483 -0.0218
  784MOL0     C 8119  11.696   5.516   2.127 -0.3668  0.2513 -0.5507
  784MOL0     C 8120  11.070   5.117   2.173  0.1476  1.1377  0.3570
  784MOL0     C 8121  11.091   4.981   2.141 -0.1084 -0.7009  0.4189
  784MOL0     C 8122  11.116   4.888   2.253 -0.2512 -0.1086 -0.8963
  784MOL0     H 8123  10.812   4.538   1.944 -0.0682 -1.6286  0.1546
  784MOL0     H 8124  10.831   4.288   2.014 -1.9283  0.5392  1.4915
  784MOL0     H 8125  10.847   4.113   2.147 -0.0225  1.0255 -0.9517
  784MOL0     H 8126  10.992   4.010   2.189 -3.0069 -0.9508  0.4330
  784MOL0     H 8127  10.900   3.964   1.962 -2.5787  2.6401  0.5872
  784MOL0     H 8128  10.963   4.124   1.918  1.5976 -0.1134 -0.7987
  784MOL0     H 8129  11.189   4.068   1.984  0.2076  0.4081  0.2826
  784MOL0     H 8130  11.139   3.913   2.049  0.7397  0.3509 -0.4487
  784MOL0     H 8131  11.057   3.842   1.839 -1.0587  0.5198 -1.1941
  784MOL0     H 8132  11.101   3.986   1.746  1.9267  2.3231  1.1538
  784MOL0     H 8133  11.318   3.827   1.904  3.0595 -3.8167 -2.5301
  784MOL0     H 8134  11.348   3.951   1.795  5.0330 -4.3211  2.4445
  784MOL0     H 8135  11.231   3.676   1.721  1.0734 -0.7684  0.7102
  784MOL0     H 8136  11.266   3.808   1.604  4.4682  0.2666 -0.9006
  784MOL0     H 8137  11.460   3.665   1.781 -2.5372 -1.2960  0.2478
  784MOL0     H 8138  11.502   3.812   1.675  0.1527 -0.8686 -0.8627
  784MOL0     H 8139  11.402   3.559   1.582 -0.3529  0.4009 -0.0379
  784MOL0     H 8140  11.430   3.691   1.475  2.9931  1.1544 -1.2235
  784MOL0     H 8141  11.712   3.762   1.438 -2.3053 -0.2823  0.5158
  784MOL0     H 8142  12.015   3.512   1.497  2.3545  0.8250  0.6491
  784MOL0     H 8143  12.000   3.691   1.491  5.5508 -0.9317 -0.9021
  784MOL0     H 8144  11.882   3.631   1.251 -0.4747 -0.2277  0.9337
  784MOL0     H 8145  12.062   3.621   1.279 -0.5962  2.1504  2.8588
  784MOL0     H 8146  12.057   3.379   1.307 -2.3326 -1.3487  3.3194
  784MOL0     H 8147  11.883   3.373   1.291 -0.3321  0.2661  3.3182
  784MOL0     H 8148  12.079   3.469   1.078 -1.5265  4.3421 -1.3055
  784MOL0     H 8149  11.991   3.314   1.082  3.4987 -0.1417  1.1193
  784MOL0     H 8150  11.957   3.295   0.833 -0.9204 -0.8796 -1.2730
  784MOL0     H 8151  11.920   3.198   0.643  0.5639 -1.0325  0.8109
  784MOL0     H 8152  11.763   3.191   0.553  0.3004  0.7133  0.3069
  784MOL0     H 8153  11.800   3.071   0.668  2.4472 -0.3818 -1.9649
  784MOL0     H 8154  11.349   3.328   0.483 -2.2429  1.6714  0.3250
  784MOL0     H 8155  11.156   3.249   0.333 -2.0644  0.1089  0.4619
  784MOL0     H 8156  10.788   3.020   0.393 -0.9166 -1.0839  1.1685
  784MOL0     H 8157  10.811   3.125   0.534 -2.1039  3.1002 -1.2560
  784MOL0     H 8158  10.727   3.166   0.260 -0.0246 -0.6596 -0.4364
  784MOL0     H 8159  10.639   3.208   0.416  0.0787  1.2296 -0.3692
  784MOL0     H 8160  10.878   3.378   0.386 -1.2288  1.3179  0.8904
  784MOL0     H 8161  10.707   3.422   0.431 -2.5109  0.8574 -3.3794
  784MOL0     H 8162  10.639   3.414   0.216 -1.5042 -1.5602  1.6036
  784MOL0     H 8163  10.808   3.364   0.156  5.1688  4.6290  0.4910
  784MOL0     H 8164  10.801   3.616   0.313 -1.2622  0.7486 -0.4829
  784MOL0     H 8165  10.899   3.565   0.171  1.7043 -2.6947  3.3990
  784MOL0     H 8166  10.759   3.737   0.103  0.7736 -0.2008  1.2619
  784MOL0     H 8167  10.610   3.668   0.180  0.1238 -0.0987  1.1258
  784MOL0     H 8168  10.589   3.504   0.010  2.6581 -1.5572 -0.5299
  784MOL0     H 8169  10.744   3.546  -0.062  1.3781  0.4286  1.6688
  784MOL0     H 8170  10.568   3.668  -0.198  4.9644 -0.9109 -1.0598
  784MOL0     H 8171  10.653   3.781  -0.095 -0.6885  1.1038  0.9624
  784MOL0     H 8172  10.983   3.059   0.677 -1.3737  1.1057 -0.3911
  784MOL0     H 8173  11.166   3.159   0.818 -2.4897  0.6641 -0.3302
  784MOL0     H 8174  11.480   3.363   0.906  0.1730  1.7265 -0.9619
  784MOL0     H 8175  11.626   3.472   1.045 -0.3932 -1.3359  0.6341
  784MOL0     H 8176  11.180   4.392   2.239 -0.0615  0.6056  0.3563
  784MOL0     H 8177  11.164   4.623   2.165  2.5009 -2.4995 -0.9582
  784MOL0     H 8178  11.078   5.008   1.802 -1.5387  0.2255  0.0674
  784MOL0     H 8179  11.096   5.252   1.861  0.7915  0.7323  0.3797
  784MOL0     H 8180  11.120   5.496   2.239 -1.2650 -0.6662 -4.0246
  784MOL0     H 8181  11.051   5.346   2.300  1.8909 -0.1766  1.7817
  784MOL0     H 8182  11.286   5.236   2.232 -1.3717 -0.1524 -0.9188
  784MOL0     H 8183  11.261   5.313   2.384 -2.7134  0.9047  1.0842
  784MOL0     H 8184  11.398   5.423   2.136  1.3725 -1.7667 -0.2804
  784MOL0     H 8185  11.384   5.512   2.291 -0.1448  0.0424 -0.1835
  784MOL0     H 8186  11.537   5.253   2.242  1.4207  0.0141  3.9033
  784MOL0     H 8187  11.556   5.357   2.374 -2.1472  0.4496  0.5479
  784MOL0     H 8188  11.764   5.585   2.081  2.6435 -1.6078  0.8106
  784MOL0     H 8189  11.083   5.156   2.273  1.0878 -2.3494  1.7433
  784MOL0     H 8190  11.035   4.814   2.254  0.3619 -0.9791 -4.4171
  784MOL0     H 8191  11.209   4.832   2.236  0.0181 -1.0109  2.7517
  784MOL0     H 8192  11.135   4.950   2.341  0.6263 -3.7412  1.7167
  785MOL0     O 8193   4.653   8.889  10.091  0.1360 -0.1531  0.4865
  785MOL0     C 8194   4.751   8.917  10.163 -1.1449 -0.3391  0.5525
  785MOL0     O 8195   4.796   9.046  10.175  0.4582  0.1497 -0.0543
  785MOL0     C 8196   4.760   9.145  10.095  0.6139  0.0518  1.1759
  785MOL0     C 8197   4.649   9.211  10.137  0.4023  0.3404 -0.8544
  785MOL0     C 8198   4.611   9.328  10.058  0.0870 -0.1999  0.1176
  785MOL0     C 8199   4.673   9.375   9.950 -1.0554 -0.2837 -0.8519
  785MOL0     O 8200   4.645   9.506   9.907 -0.7186 -0.0499 -1.0539
  785MOL0     C 8201   4.712   9.574   9.794 -0.3159  0.7464 -0.0947
  785MOL0     C 8202   4.853   9.630   9.824 -0.4864  0.1723 -0.0348
  785MOL0     C 8203   4.921   9.680   9.689  0.4424  0.3502  0.0845
  785MOL0     C 8204   5.069   9.641   9.680 -0.5346  1.2654 -0.7512
  785MOL0     C 8205   5.139   9.676   9.550 -0.5382 -0.1964 -0.8958
  785MOL0     C 8206   5.153   9.824   9.513  0.6200 -0.0193 -0.1087
  785MOL0     C 8207   5.252   9.857   9.395  0.3585  0.8688 -0.4951
  785MOL0     C 8208   5.197   9.796   9.258  0.1215 -0.3353 -1.2112
  785MOL0     N 8209   5.278   9.817   9.137 -0.0258 -0.2994  0.0281
  785MOL0     C 8210   5.411   9.837   9.146  0.5551  0.5999  0.2174
  785MOL0     C 8211   5.459   9.839   9.017 -0.8363  0.3348 -0.0067
  785MOL0     C 8212   5.608   9.848   8.983 -0.1969 -0.2155  0.2360
  785MOL0     C 8213   5.707   9.730   9.010 -0.7094 -0.3189  0.1745
  785MOL0     C 8214   5.686   9.625   8.907  0.1743  0.3950  0.0978
  785MOL0     C 8215   5.807   9.537   8.903 -0.0611  0.4350 -0.6846
  785MOL0     O 8216   5.769   9.403   8.870  0.3688  0.3294 -0.1671
  785MOL0     C 8217   5.843   9.303   8.926 -0.2376  0.0221  0.4264
  785MOL0     C 8218   5.808   9.247   9.046  0.6689 -0.2661 -1.0553
  785MOL0     C 8219   5.872   9.130   9.087  0.1878 -0.2496 -0.0564
  785MOL0     C 8220   5.827   9.084   9.228  1.3633 -0.0675  0.0785
  785MOL0     C 8221   5.967   9.069   9.006 -0.2993  0.2466  0.2422
  785MOL0     C 8222   6.016   8.933   9.046 -0.5023 -0.8861 -0.6260
  785MOL0     O 8223   5.927   8.847   9.115 -0.4275  0.9281  0.0205
  785MOL0     C 8224   5.978   8.732   9.164 -0.6505  0.8944  0.5465
  785MOL0     C 8225   5.947   8.705   9.299  0.5864 -0.3538  0.2607
  785MOL0     C 8226   5.968   8.578   9.350 -0.0117 -1.0500 -0.5410
  785MOL0     C 8227   6.046   8.480   9.276  0.1312 -0.1279  0.6721
  785MOL0     O 8228   6.060   8.351   9.335 -0.4557 -0.1787 -0.5134
  785MOL0     C 8229   6.060   8.238   9.238  0.1358 -0.6437 -0.0936
  785MOL0     C 8230   6.060   8.103   9.323 -0.1221 -0.4655 -0.2482
  785MOL0     C 8231   6.010   7.992   9.237 -0.4287  0.3427  0.2526
  785MOL0     C 8232   6.021   7.861   9.313  0.2251  0.4310 -0.2406
  785MOL0     C 8233   6.005   7.744   9.211 -0.8350 -0.3813  0.7153
  785MOL0     C 8234   5.929   7.630   9.274 -0.2565  0.1111 -0.9026
  785MOL0     C 8235   5.926   7.504   9.188  0.1488 -0.1820  0.5034
  785MOL0     C 8236   5.890   7.375   9.269 -0.0770  0.4016 -1.3423
  785MOL0    Cl 8237   5.841   7.245   9.171  0.6968 -0.0000  0.0136
  785MOL0     C 8238   6.107   8.522   9.160  0.1720  0.1245  0.0609
  785MOL0     C 8239   6.063   8.642   9.096 -0.1386  0.3268  0.7924
  785MOL0     O 8240   6.126   8.905   9.010 -0.1697 -0.3104  0.5073
  785MOL0     C 8241   6.007   9.131   8.888 -0.4915 -0.8385 -0.7688
  785MOL0     C 8242   5.938   9.245   8.843 -0.3152  0.5062 -0.3795
  785MOL0     N 8243   5.352   9.814   8.935 -1.0567  0.0972  0.2342
  785MOL0     N 8244   5.239   9.809   9.008  0.1495 -0.3038  0.4676
  785MOL0     C 8245   4.787   9.298   9.914 -0.1501 -0.4508  0.8220
  785MOL0     C 8246   4.835   9.190   9.986 -0.5718 -0.6817  0.2334
  785MOL0     C 8247   4.799   8.815  10.263  0.4416  0.4624 -0.1513
  785MOL0     C 8248   4.718   8.704  10.295  0.1848 -0.2636 -0.1774
  785MOL0     C 8249   4.745   8.606  10.387 -0.4455 -0.3489 -1.0350
  785MOL0     C 8250   4.871   8.612  10.445 -0.1745 -0.6973  0.6158
  785MOL0     O 8251   4.922   8.513  10.524  0.0588 -0.1210  0.2836
  785MOL0     C 8252   4.830   8.423  10.578 -0.4551  0.3222  1.0114
  785MOL0     C 8253   4.917   8.327  10.676  0.3818 -0.0860  0.3229
  785MOL0     C 8254   4.990   8.220  10.594  0.0873 -0.5970 -0.0746
  785MOL0     C 8255   5.081   8.121  10.671  0.2227  1.1201 -0.2038
  785MOL0     C 8256   5.209   8.180  10.696 -0.9279  0.0203 -0.2082
  785MOL0     C 8257   5.319   8.220  10.729 -0.5160 -0.4808 -0.5021
  785MOL0     C 8258   4.956   8.718  10.415 -0.1010  0.0755 -0.1385
  785MOL0     C 8259   4.915   8.828  10.334 -0.1190 -0.4344 -0.3341
  785MOL0     C 8260   5.017   8.940  10.330 -1.4912 -0.3479 -0.5260
  785MOL0     H 8261   4.595   9.191  10.229  0.6457  0.0440 -0.7748
  785MOL0     H 8262   4.533   9.386  10.105 -1.3413 -2.7177  1.0050
  785MOL0     H 8263   4.646   9.656   9.761  0.4492 -0.3682 -5.1824
  785MOL0     H 8264   4.709   9.503   9.711  0.1818 -2.3474  2.3860
  785MOL0     H 8265   4.847   9.709   9.900  3.2254 -0.4029  1.0717
  785MOL0     H 8266   4.910   9.555   9.879  2.8553  0.6766 -2.4946
  785MOL0     H 8267   4.866   9.636   9.606 -0.2285  1.3644 -0.0322
  785MOL0     H 8268   4.906   9.788   9.684  0.9997  0.3903 -0.8985
  785MOL0     H 8269   5.117   9.687   9.766  1.0396 -0.5183 -0.6092
  785MOL0     H 8270   5.077   9.535   9.705  2.8969  1.8084  0.9993
  785MOL0     H 8271   5.084   9.623   9.472 -2.1519  0.0252  0.0460
  785MOL0     H 8272   5.242   9.643   9.566 -1.4699 -2.5934  0.7688
  785MOL0     H 8273   5.055   9.868   9.488  0.7101  0.9055  1.1096
  785MOL0     H 8274   5.185   9.876   9.604 -1.3925  0.7894  0.1972
  785MOL0     H 8275   5.344   9.807   9.425 -1.3994 -2.1129  0.4455
  785MOL0     H 8276   5.263   9.966   9.399 -1.5853  1.1179 -0.8884
  785MOL0     H 8277   5.185   9.688   9.269 -1.0325 -0.3619 -2.4665
  785MOL0     H 8278   5.098   9.843   9.253  0.7599  1.0806 -1.0777
  785MOL0     H 8279   5.479   9.843   9.230  0.9923 -1.4813  0.0521
  785MOL0     H 8280   5.640   9.937   9.038  0.6453  2.3330 -3.9075
  785MOL0     H 8281   5.604   9.873   8.876 -2.4232 -2.9542 -0.4393
  785MOL0     H 8282   5.809   9.766   8.991 -1.0611  0.7397  0.2376
  785MOL0     H 8283   5.705   9.696   9.114 -2.1935 -0.9942 -0.0473
  785MOL0     H 8284   5.603   9.561   8.938 -0.3588  1.5215  1.0718
  785MOL0     H 8285   5.665   9.669   8.809 -1.8775 -0.1146  0.2728
  785MOL0     H 8286   5.874   9.570   8.823 -1.3729  1.2833 -1.4750
  785MOL0     H 8287   5.871   9.540   8.993 -0.4503 -1.4234 -0.3140
  785MOL0     H 8288   5.743   9.303   9.113  2.6628  0.7180  0.1554
  785MOL0     H 8289   5.741   9.138   9.270  1.0293  0.6276 -1.4285
  785MOL0     H 8290   5.918   9.092   9.289  2.9574  2.8777 -2.3462
  785MOL0     H 8291   5.788   8.983   9.222 -1.7559  0.7816  3.1597
  785MOL0     H 8292   5.898   8.788   9.348  0.8108  0.4846 -0.8894
  785MOL0     H 8293   5.927   8.556   9.448 -1.2505  2.0725 -0.2518
  785MOL0     H 8294   5.978   8.253   9.168  1.5461  1.2477 -1.4765
  785MOL0     H 8295   6.144   8.248   9.168  0.2034  1.4527  0.2133
  785MOL0     H 8296   6.163   8.080   9.352 -0.5430 -1.7435  0.2788
  785MOL0     H 8297   6.002   8.118   9.414  1.3772 -0.8017  0.7973
  785MOL0     H 8298   6.076   7.982   9.151 -0.2793  0.1094  0.3941
  785MOL0     H 8299   5.913   8.011   9.190  0.3291  2.1837 -0.6824
  785MOL0     H 8300   5.943   7.871   9.389  4.2739  3.6591  4.0350
  785MOL0     H 8301   6.113   7.851   9.371 -0.7497 -0.6836  1.1731
  785MOL0     H 8302   5.962   7.781   9.118  0.2639  0.6326  0.5824
  785MOL0     H 8303   6.106   7.708   9.187 -0.2321  1.8222 -0.2580
  785MOL0     H 8304   5.826   7.658   9.295  0.9560  2.2960  3.3063
  785MOL0     H 8305   5.967   7.602   9.373  0.7157 -1.9972 -1.8148
  785MOL0     H 8306   6.028   7.498   9.150 -0.3070  1.8732 -1.2195
  785MOL0     H 8307   5.863   7.514   9.100 -2.0158 -0.3868  1.9443
  785MOL0     H 8308   5.808   7.406   9.335 -0.1372  1.5773 -1.9490
  785MOL0     H 8309   5.974   7.341   9.330  0.5232  0.6801 -2.0070
  785MOL0     H 8310   6.172   8.441   9.130  0.1252 -0.0240  0.3546
  785MOL0     H 8311   6.112   8.666   9.002 -2.6675 -0.3975 -0.7984
  785MOL0     H 8312   6.078   9.082   8.823  0.8399 -1.2425  0.9088
  785MOL0     H 8313   5.941   9.275   8.739  1.2764 -0.3872 -0.6235
  785MOL0     H 8314   4.843   9.327   9.826 -1.0134  3.5282  1.4128
  785MOL0     H 8315   4.919   9.130   9.953  2.2758  1.9470  2.1517
  785MOL0     H 8316   4.619   8.700  10.249 -0.0184  0.9171  0.1138
  785MOL0     H 8317   4.684   8.517  10.403 -2.0374  0.8481 -0.0715
  785MOL0     H 8318   4.756   8.475  10.639 -0.9441  0.0958  0.6230
  785MOL0     H 8319   4.778   8.362  10.503 -2.6698  2.4413  0.6922
  785MOL0     H 8320   4.846   8.277  10.743 -1.6272 -0.4572 -1.9594
  785MOL0     H 8321   4.972   8.393  10.744 -1.0118  1.4237  0.0583
  785MOL0     H 8322   4.914   8.160  10.543 -1.2688  0.6724  0.3625
  785MOL0     H 8323   5.047   8.267  10.513 -1.3393  1.1406 -0.1442
  785MOL0     H 8324   5.101   8.032  10.610 -0.0863  2.5145 -2.4650
  785MOL0     H 8325   5.043   8.085  10.767 -0.1270  0.8966 -0.4233
  785MOL0     H 8326   5.418   8.250  10.758  0.0746 -0.1695 -2.6202
  785MOL0     H 8327   5.049   8.710  10.470  0.1332  1.4814 -0.2955
  785MOL0     H 8328   4.975   9.038  10.357  2.6126  2.4693 -3.1312
  785MOL0     H 8329   5.100   8.918  10.397 -1.1355 -0.5296 -1.0158
  785MOL0     H 8330   5.051   8.967  10.229 -1.7260  3.9425  0.3333
  786MOL0     O 8331  10.090   0.789   2.402 -0.5680 -0.6836 -0.6863
  786MOL0     C 8332  10.038   0.731   2.500 -0.0766  0.6170 -0.4696
  786MOL0     O 8333   9.946   0.631   2.496 -0.8319 -0.6451 -0.3568
  786MOL0     C 8334   9.897   0.591   2.377 -0.1771 -1.1354  0.6867
  786MOL0     C 8335   9.967   0.591   2.250 -0.3144  0.2870  0.7118
  786MOL0     C 8336   9.899   0.550   2.138  0.4200  0.5839  0.0842
  786MOL0     C 8337   9.767   0.503   2.132  0.3101  0.6860  0.4705
  786MOL0     O 8338   9.699   0.477   2.013 -0.3505  0.2220 -0.2362
  786MOL0     C 8339   9.624   0.362   2.027  0.1794  0.5039 -0.1030
  786MOL0     C 8340   9.594   0.310   1.882  0.3319 -0.1300 -0.7005
  786MOL0     C 8341   9.728   0.273   1.804 -0.4417 -0.5830  0.4595
  786MOL0     C 8342   9.700   0.255   1.650  0.7080 -0.8061  0.3943
  786MOL0     C 8343   9.814   0.218   1.563 -0.4960 -0.3933 -0.5006
  786MOL0     C 8344   9.763   0.185   1.420  0.3375 -0.1889  0.2336
  786MOL0     C 8345   9.684   0.300   1.356  0.7507 -0.2005  0.5604
  786MOL0     C 8346   9.638   0.269   1.215  0.7460 -0.1432  0.4112
  786MOL0     N 8347   9.557   0.147   1.200 -0.2601  0.9550 -0.3621
  786MOL0     C 8348   9.430   0.116   1.248 -1.0268 -0.6328 -0.3209
  786MOL0     C 8349   9.382   0.002   1.193 -0.6908  0.1469 -0.7684
  786MOL0     C 8350   9.237  -0.017   1.170  0.3039 -0.2492 -0.2322
  786MOL0     C 8351   9.202   0.020   1.024  0.0049 -0.8929  0.2925
  786MOL0     C 8352   9.061   0.043   0.992  0.2540 -0.8282  0.7015
  786MOL0     C 8353   9.026   0.116   0.865  0.3087  0.3231  0.3367
  786MOL0     O 8354   9.083   0.245   0.882 -0.5073 -0.0678  0.3217
  786MOL0     C 8355   9.076   0.333   0.781  0.4312  0.7898  0.0474
  786MOL0     C 8356   9.173   0.431   0.781  0.7256 -0.2724 -0.9764
  786MOL0     C 8357   9.185   0.535   0.689 -0.6912  0.0268  0.8107
  786MOL0     C 8358   9.292   0.644   0.710 -0.6673 -0.7715  0.2911
  786MOL0     C 8359   9.096   0.536   0.581  0.2808  0.1437 -0.8115
  786MOL0     C 8360   9.090   0.645   0.480  0.3180  0.1376 -0.1885
  786MOL0     O 8361   9.008   0.632   0.378  0.1244 -0.5619  0.3700
  786MOL0     C 8362   9.023   0.725   0.273 -0.4090  0.2050 -0.0885
  786MOL0     C 8363   9.015   0.867   0.282  0.8973  0.4754 -0.4613
  786MOL0     C 8364   9.028   0.947   0.165 -0.3923 -0.3085  0.1424
  786MOL0     C 8365   9.035   0.883   0.039 -0.2549  0.2226 -0.4056
  786MOL0     O 8366   9.031   0.965  -0.075 -0.4410 -0.8605 -0.0985
  786MOL0     C 8367   9.136   1.069  -0.091 -0.2536 -0.9493 -0.7849
  786MOL0     C 8368   9.074   1.205  -0.053 -0.2993 -0.0647  0.5130
  786MOL0     C 8369   8.934   1.228  -0.114  0.1591  0.3349 -0.1094
  786MOL0     C 8370   8.867   1.357  -0.064 -0.0031  0.0044  0.2324
  786MOL0     C 8371   8.720   1.361  -0.101  0.3004 -0.3821 -1.0384
  786MOL0     C 8372   8.685   1.367  -0.245  0.3049  0.3313 -0.2166
  786MOL0     C 8373   8.532   1.390  -0.261 -0.0588  0.1513 -0.0315
  786MOL0     C 8374   8.489   1.419  -0.409  0.0200 -0.1285 -0.8506
  786MOL0    Cl 8375   8.318   1.455  -0.425 -0.1244  0.3207 -0.2526
  786MOL0     C 8376   9.023   0.743   0.022 -0.6765  1.1731 -0.5471
  786MOL0     C 8377   9.037   0.666   0.143  1.1908  0.1999 -1.3479
  786MOL0     O 8378   9.151   0.742   0.502  1.0212 -0.2260 -0.5481
  786MOL0     C 8379   8.995   0.443   0.579  0.6310  0.0063  0.9601
  786MOL0     C 8380   8.980   0.353   0.682 -1.0550  0.7942 -0.3551
  786MOL0     N 8381   9.485  -0.051   1.115  0.4050 -0.0140 -0.3256
  786MOL0     N 8382   9.586   0.028   1.129 -0.1398  0.6371  0.3780
  786MOL0     C 8383   9.697   0.490   2.257 -0.1064 -1.0066 -0.8283
  786MOL0     C 8384   9.767   0.539   2.377 -0.0921 -0.1902  1.0587
  786MOL0     C 8385  10.097   0.776   2.627  0.9497 -0.0663 -1.0375
  786MOL0     C 8386  10.219   0.852   2.615  0.2751  0.2573 -0.2035
  786MOL0     C 8387  10.297   0.890   2.723 -0.0848  0.0769 -0.4713
  786MOL0     C 8388  10.256   0.869   2.853  0.3954 -0.5506  1.1587
  786MOL0     O 8389  10.326   0.901   2.963 -0.1185  0.2160 -0.2255
  786MOL0     C 8390  10.396   1.019   2.968  0.2613  0.0083  0.9788
  786MOL0     C 8391  10.481   1.027   3.097 -0.1207  0.0348 -0.3618
  786MOL0     C 8392  10.403   1.076   3.217 -0.5760 -0.1913  0.1111
  786MOL0     C 8393  10.299   0.984   3.262  0.3743 -0.7017 -0.0069
  786MOL0     C 8394  10.232   1.008   3.388  0.2191  0.9768  0.2313
  786MOL0     C 8395  10.173   1.031   3.484  0.1277 -0.7593 -0.4236
  786MOL0     C 8396  10.137   0.806   2.870  0.1865 -0.5194  0.0062
  786MOL0     C 8397  10.057   0.753   2.766  0.3830 -0.1464  0.2990
  786MOL0     C 8398   9.932   0.689   2.802  0.1814  0.2971  0.1781
  786MOL0     H 8399  10.069   0.627   2.241  0.5380 -2.0524  0.3291
  786MOL0     H 8400   9.951   0.548   2.043 -1.4963 -1.8699 -1.0432
  786MOL0     H 8401   9.528   0.383   2.075  1.2762 -0.5698  2.7669
  786MOL0     H 8402   9.657   0.283   2.095 -3.6734 -2.0299 -0.8293
  786MOL0     H 8403   9.524   0.226   1.886  1.9832 -1.5858 -0.7302
  786MOL0     H 8404   9.535   0.379   1.822 -0.4305  0.1628  0.3659
  786MOL0     H 8405   9.798   0.357   1.807 -0.1524 -0.6476 -2.4887
  786MOL0     H 8406   9.778   0.180   1.833 -2.1084 -2.1604 -1.4569
  786MOL0     H 8407   9.613   0.189   1.640 -0.8941  1.3579 -0.7336
  786MOL0     H 8408   9.666   0.354   1.620  1.8111 -0.7427 -0.7317
  786MOL0     H 8409   9.861   0.126   1.599  1.2466 -0.0761 -1.8382
  786MOL0     H 8410   9.878   0.307   1.564 -0.3251 -0.5034 -1.3668
  786MOL0     H 8411   9.843   0.176   1.346  0.3947  0.8409  0.1564
  786MOL0     H 8412   9.700   0.096   1.420  0.2397 -0.1201 -0.4287
  786MOL0     H 8413   9.726   0.401   1.365 -0.0090  0.1852  0.0035
  786MOL0     H 8414   9.587   0.302   1.407  2.1935  0.9374  3.4760
  786MOL0     H 8415   9.573   0.350   1.184 -3.9149 -3.3446  0.7719
  786MOL0     H 8416   9.727   0.271   1.150 -0.7622 -1.4369 -1.8226
  786MOL0     H 8417   9.367   0.191   1.295  1.0404 -0.6600  2.8266
  786MOL0     H 8418   9.185   0.062   1.225 -1.2393 -1.2846 -0.1456
  786MOL0     H 8419   9.209  -0.118   1.203  1.4512 -1.2485 -2.1575
  786MOL0     H 8420   9.271   0.097   0.988  1.2586 -1.0070  2.3133
  786MOL0     H 8421   9.228  -0.061   0.955 -1.5667  0.6522 -2.2963
  786MOL0     H 8422   9.012  -0.055   0.986 -1.3777 -0.0550 -4.5450
  786MOL0     H 8423   9.005   0.096   1.069  0.8007  3.1697 -1.3946
  786MOL0     H 8424   9.073   0.070   0.777 -1.4287  1.7034 -1.3861
  786MOL0     H 8425   8.917   0.113   0.861  0.3239 -1.8822  0.2531
  786MOL0     H 8426   9.254   0.414   0.852 -0.0664  3.1299  0.9335
  786MOL0     H 8427   9.242   0.739   0.732 -1.2941 -0.6486 -1.5063
  786MOL0     H 8428   9.354   0.644   0.619 -0.6813 -3.4728  0.2071
  786MOL0     H 8429   9.359   0.623   0.794 -1.4423  1.9345  1.7185
  786MOL0     H 8430   9.005   0.914   0.379  0.2904  1.3004 -0.9075
  786MOL0     H 8431   9.031   1.055   0.174 -2.5190 -0.3207  1.8905
  786MOL0     H 8432   9.213   1.061  -0.014  0.7192 -1.8709 -1.8083
  786MOL0     H 8433   9.161   1.074  -0.198 -2.0860  1.5842 -1.1879
  786MOL0     H 8434   9.056   1.211   0.054 -0.1908 -2.2163  0.6920
  786MOL0     H 8435   9.142   1.278  -0.098  0.7559 -1.4276 -0.1701
  786MOL0     H 8436   8.868   1.145  -0.085 -2.0771  2.0321 -0.0358
  786MOL0     H 8437   8.940   1.232  -0.223  0.7809  2.6991 -0.0401
  786MOL0     H 8438   8.916   1.442  -0.111  0.7730 -0.4862  0.1264
  786MOL0     H 8439   8.886   1.367   0.043  1.1449 -3.1063  0.4273
  786MOL0     H 8440   8.667   1.277  -0.054  3.8281 -2.1581  0.1581
  786MOL0     H 8441   8.690   1.454  -0.052  1.7749  0.3559 -1.4716
  786MOL0     H 8442   8.714   1.274  -0.295 -2.9904 -2.5421  2.6683
  786MOL0     H 8443   8.733   1.456  -0.286 -0.9606  1.7038  1.1828
  786MOL0     H 8444   8.518   1.480  -0.201 -1.1950  0.4865 -0.7776
  786MOL0     H 8445   8.472   1.310  -0.218  2.4469 -0.2130  3.1842
  786MOL0     H 8446   8.524   1.336  -0.471  1.2764  0.9080 -1.5985
  786MOL0     H 8447   8.565   1.492  -0.442  0.5163  0.5516  1.6317
  786MOL0     H 8448   9.015   0.692  -0.074  1.8211  2.0587 -1.2922
  786MOL0     H 8449   9.036   0.557   0.146 -0.8194  0.1393  2.8885
  786MOL0     H 8450   8.909   0.452   0.514  1.3424  1.7246  0.1977
  786MOL0     H 8451   8.881   0.315   0.703 -0.7331  0.0855 -0.0822
  786MOL0     H 8452   9.595   0.455   2.264  0.0099 -1.2477 -0.2693
  786MOL0     H 8453   9.714   0.523   2.470 -0.8826 -0.9677  0.4859
  786MOL0     H 8454  10.267   0.879   2.522 -0.5894 -1.4896 -1.2024
  786MOL0     H 8455  10.393   0.936   2.702  0.6231 -0.5132  1.2942
  786MOL0     H 8456  10.452   1.035   2.876 -1.9359 -1.0842 -0.6320
  786MOL0     H 8457  10.322   1.099   2.979  1.3570  0.7393  4.2077
  786MOL0     H 8458  10.567   1.090   3.075  0.6332 -0.2496  1.5967
  786MOL0     H 8459  10.520   0.926   3.115 -1.8177 -0.8878 -1.5600
  786MOL0     H 8460  10.477   1.108   3.291  2.1577 -3.1926 -1.0788
  786MOL0     H 8461  10.352   1.170   3.191  1.0363  0.5779 -0.4073
  786MOL0     H 8462  10.329   0.878   3.266  0.1493 -0.7317  2.4245
  786MOL0     H 8463  10.221   0.987   3.185  0.4116 -0.2586 -0.0253
  786MOL0     H 8464  10.118   1.045   3.574  0.8235 -1.9977  0.2177
  786MOL0     H 8465  10.104   0.772   2.967  1.6317 -0.0395  0.6881
  786MOL0     H 8466   9.900   0.698   2.906 -2.8461  2.0491 -0.7822
  786MOL0     H 8467   9.848   0.709   2.734  1.8398  0.7174 -1.8516
  786MOL0     H 8468   9.955   0.582   2.792 -1.7031  0.0134 -1.9515
  787MOL0     O 8469   7.770   1.900   3.332  0.0281  0.0633 -0.8906
  787MOL0     C 8470   7.765   1.878   3.207  0.1570 -0.0485 -0.4421
  787MOL0     O 8471   7.661   1.873   3.132  0.0245 -0.0420 -0.7804
  787MOL0     C 8472   7.538   1.898   3.180  0.0913 -0.5367 -0.2817
  787MOL0     C 8473   7.470   2.021   3.144 -0.3596  0.4279 -0.4050
  787MOL0     C 8474   7.343   2.044   3.194 -0.0921  0.5724  0.0368
  787MOL0     C 8475   7.292   1.958   3.297  0.9709  0.1603  0.1625
  787MOL0     O 8476   7.173   2.003   3.354 -0.3580 -0.3211 -0.3215
  787MOL0     C 8477   7.117   1.937   3.469 -0.5030  0.8634 -0.2815
  787MOL0     C 8478   7.015   2.034   3.525 -0.0767  0.2767 -0.3954
  787MOL0     C 8479   7.086   2.149   3.596  0.5475  0.6959 -0.5279
  787MOL0     C 8480   6.988   2.251   3.648 -0.2367 -1.4610 -0.0612
  787MOL0     C 8481   7.086   2.356   3.712 -0.0131  0.3877  0.3436
  787MOL0     C 8482   7.016   2.490   3.738  0.2299 -0.5108  0.3698
  787MOL0     C 8483   6.900   2.482   3.839 -0.5120 -0.4683  0.0182
  787MOL0     C 8484   6.776   2.543   3.775 -0.1491  0.6598 -1.0204
  787MOL0     N 8485   6.690   2.441   3.711  0.3345 -0.0065 -0.0691
  787MOL0     C 8486   6.653   2.446   3.578 -0.7605  0.6369  0.4091
  787MOL0     C 8487   6.609   2.320   3.545  0.1796  0.2281 -0.3068
  787MOL0     C 8488   6.555   2.285   3.411  0.0431 -1.4478 -1.0228
  787MOL0     C 8489   6.670   2.213   3.333  0.1319 -0.8462  0.1647
  787MOL0     C 8490   6.617   2.142   3.203  0.6530 -0.1476  0.1586
  787MOL0     C 8491   6.578   2.244   3.086  0.3863  0.4701 -0.7324
  787MOL0     O 8492   6.694   2.318   3.038  0.2647 -0.1236 -0.6584
  787MOL0     C 8493   6.787   2.244   2.976 -0.8744  0.7703  0.1690
  787MOL0     C 8494   6.915   2.295   2.974 -0.2041 -0.0204 -0.4799
  787MOL0     C 8495   7.030   2.253   2.910  0.3978 -0.3165  0.2068
  787MOL0     C 8496   7.156   2.329   2.914 -0.6094  0.8186  0.1777
  787MOL0     C 8497   7.013   2.132   2.846  0.0716  1.1123 -0.5385
  787MOL0     C 8498   7.124   2.074   2.763 -0.2261 -0.3762 -0.4219
  787MOL0     O 8499   7.253   2.073   2.821  0.6456  0.0274  0.4358
  787MOL0     C 8500   7.361   2.013   2.758  0.0416 -0.5468 -1.3012
  787MOL0     C 8501   7.436   1.933   2.843  0.5850 -0.6753 -0.2044
  787MOL0     C 8502   7.546   1.865   2.801  0.2846  0.2861  0.3276
  787MOL0     C 8503   7.591   1.883   2.674  0.2163 -0.4250 -0.0973
  787MOL0     O 8504   7.704   1.820   2.628  0.4065 -0.2767  1.1361
  787MOL0     C 8505   7.801   1.783   2.726 -0.7934 -0.0330 -0.1436
  787MOL0     C 8506   7.915   1.693   2.682  0.2769 -0.7811  0.1874
  787MOL0     C 8507   7.881   1.541   2.652  0.0455 -0.1916  0.2351
  787MOL0     C 8508   7.769   1.519   2.546  0.9539  0.4812 -0.0677
  787MOL0     C 8509   7.737   1.366   2.528 -0.1483  0.5173 -0.3343
  787MOL0     C 8510   7.615   1.364   2.432 -0.0060 -0.2090 -0.2599
  787MOL0     C 8511   7.558   1.220   2.399 -0.0976  0.3245 -0.5371
  787MOL0     C 8512   7.549   1.211   2.238  0.6961  0.2256  0.0380
  787MOL0    Cl 8513   7.474   1.071   2.177  0.0061 -0.1492 -0.2921
  787MOL0     C 8514   7.519   1.966   2.585 -0.3977  0.5311 -0.6798
  787MOL0     C 8515   7.398   2.036   2.627 -0.3744  0.7440  0.6378
  787MOL0     O 8516   7.089   2.030   2.645 -0.3138  0.5280 -0.5259
  787MOL0     C 8517   6.879   2.082   2.832 -0.0116  0.2086 -0.1305
  787MOL0     C 8518   6.766   2.141   2.891 -0.6079 -0.1668  0.4852
  787MOL0     N 8519   6.609   2.240   3.657  0.8446  0.7118 -0.2121
  787MOL0     N 8520   6.660   2.313   3.753 -0.2086  0.0109 -0.2474
  787MOL0     C 8521   7.342   1.834   3.321 -0.5571  0.0422 -0.8520
  787MOL0     C 8522   7.463   1.807   3.257 -0.3818 -0.0417 -0.6624
  787MOL0     C 8523   7.880   1.829   3.139 -0.3854 -0.7468 -0.1281
  787MOL0     C 8524   7.930   1.894   3.025  0.4686 -0.0743 -0.0912
  787MOL0     C 8525   8.050   1.856   2.968 -0.8971 -0.4451 -0.2909
  787MOL0     C 8526   8.122   1.745   3.017  0.2916 -0.2446  0.1699
  787MOL0     O 8527   8.243   1.689   2.963 -0.4327 -0.5875  0.2641
  787MOL0     C 8528   8.318   1.764   2.861  0.6885 -0.4453  0.2869
  787MOL0     C 8529   8.445   1.706   2.820 -0.1068 -0.3101  0.0082
  787MOL0     C 8530   8.536   1.709   2.942 -0.6055 -0.9817  0.0477
  787MOL0     C 8531   8.690   1.699   2.897 -0.8955 -0.8877  0.4385
  787MOL0     C 8532   8.718   1.584   2.807  1.1368  0.6072 -1.3096
  787MOL0     C 8533   8.740   1.481   2.750  1.1621  0.2809 -0.0706
  787MOL0     C 8534   8.074   1.673   3.119  0.0040  0.2726  0.3518
  787MOL0     C 8535   7.953   1.716   3.194 -0.0180 -0.1475  0.2651
  787MOL0     C 8536   7.907   1.626   3.309  1.3001  0.4404  0.6703
  787MOL0     H 8537   7.526   2.103   3.100  0.8601  0.6818  1.4756
  787MOL0     H 8538   7.291   2.136   3.170 -0.0570  1.2825  2.4228
  787MOL0     H 8539   7.190   1.898   3.541 -1.3717 -0.4480 -0.0730
  787MOL0     H 8540   7.057   1.851   3.439 -0.1648  1.5138 -3.1098
  787MOL0     H 8541   6.944   2.070   3.451  0.7547 -0.8353 -1.7837
  787MOL0     H 8542   6.959   1.974   3.597 -0.2127  0.4103 -0.3906
  787MOL0     H 8543   7.148   2.118   3.681  1.7806  1.6862 -1.0274
  787MOL0     H 8544   7.149   2.206   3.527  2.1224  2.2865  2.0486
  787MOL0     H 8545   6.929   2.294   3.565  2.0205  2.2992  0.0343
  787MOL0     H 8546   6.926   2.210   3.728  0.0378 -0.1076  0.8850
  787MOL0     H 8547   7.168   2.372   3.641 -1.2428 -0.4038 -1.3196
  787MOL0     H 8548   7.120   2.321   3.811  1.7737  1.0389 -0.0010
  787MOL0     H 8549   7.090   2.559   3.781 -0.4261 -0.1547  0.9474
  787MOL0     H 8550   6.980   2.527   3.641 -1.3346  0.3867  1.2359
  787MOL0     H 8551   6.924   2.541   3.928 -0.7838  1.2008 -0.9642
  787MOL0     H 8552   6.870   2.391   3.891 -3.2682  1.9737  3.1366
  787MOL0     H 8553   6.713   2.592   3.850  0.0464 -1.6123  0.7578
  787MOL0     H 8554   6.799   2.614   3.696  0.9617  0.8329 -0.5562
  787MOL0     H 8555   6.663   2.527   3.506  2.3932 -0.2134 -0.2815
  787MOL0     H 8556   6.537   2.379   3.358 -2.4737  0.3072  2.4828
  787MOL0     H 8557   6.458   2.242   3.437 -0.3706  0.3726  0.7484
  787MOL0     H 8558   6.747   2.287   3.307  0.6329 -1.5965 -0.5676
  787MOL0     H 8559   6.727   2.148   3.400  2.2634 -0.3020 -0.9908
  787MOL0     H 8560   6.684   2.061   3.173  2.5479  1.1381  0.7372
  787MOL0     H 8561   6.532   2.080   3.234  1.4175 -1.6709 -0.7280
  787MOL0     H 8562   6.532   2.201   2.997  0.8786 -0.9907 -0.3143
  787MOL0     H 8563   6.507   2.309   3.138  0.4745 -1.1889  1.6312
  787MOL0     H 8564   6.928   2.387   3.030  0.3272 -0.7776  0.6624
  787MOL0     H 8565   7.133   2.434   2.935  0.1114  1.3824 -1.6520
  787MOL0     H 8566   7.208   2.327   2.818  1.0409  0.1680  1.0250
  787MOL0     H 8567   7.221   2.290   2.993 -1.7122 -1.3684  0.0724
  787MOL0     H 8568   7.397   1.918   2.943 -2.1572  0.1081 -1.0809
  787MOL0     H 8569   7.600   1.802   2.870 -0.9415 -2.0109 -0.7015
  787MOL0     H 8570   7.854   1.869   2.767  3.0281  0.0400 -4.4884
  787MOL0     H 8571   7.770   1.725   2.814  0.3977  1.5913  1.4168
  787MOL0     H 8572   7.961   1.740   2.595  1.8908  0.0628  1.4331
  787MOL0     H 8573   8.000   1.691   2.752  0.4721  1.1515  0.0620
  787MOL0     H 8574   7.861   1.479   2.739  0.9606 -0.4505  0.2701
  787MOL0     H 8575   7.973   1.503   2.606 -1.6314 -1.3436 -2.3919
  787MOL0     H 8576   7.788   1.576   2.455  0.0338  1.9970  0.6601
  787MOL0     H 8577   7.685   1.574   2.590  1.6097  1.5601 -0.1422
  787MOL0     H 8578   7.819   1.306   2.487 -1.3184  0.2371 -2.4341
  787MOL0     H 8579   7.711   1.321   2.624  1.1906 -2.2258 -1.1680
  787MOL0     H 8580   7.642   1.405   2.334 -1.3564 -0.0187 -0.5771
  787MOL0     H 8581   7.534   1.420   2.480  0.7119  1.4593 -0.9141
  787MOL0     H 8582   7.463   1.195   2.447  0.2460  0.2483  0.1097
  787MOL0     H 8583   7.626   1.137   2.419 -3.0609 -2.2975 -0.5568
  787MOL0     H 8584   7.649   1.215   2.195 -0.3884  2.3178 -2.5679
  787MOL0     H 8585   7.490   1.294   2.196 -1.3352 -0.1578  1.9107
  787MOL0     H 8586   7.561   1.963   2.485  1.3796 -4.1907 -0.0182
  787MOL0     H 8587   7.340   2.097   2.557  0.6179  1.0877  0.1025
  787MOL0     H 8588   6.849   1.993   2.777  0.3072  0.0537 -0.0605
  787MOL0     H 8589   6.668   2.098   2.872  0.4919 -2.2436 -0.9432
  787MOL0     H 8590   7.293   1.764   3.388 -4.4597  2.6142 -0.6973
  787MOL0     H 8591   7.509   1.713   3.287 -1.4517  0.8177  4.8792
  787MOL0     H 8592   7.870   1.972   2.978  0.2736 -1.1601 -1.7481
  787MOL0     H 8593   8.080   1.902   2.875  1.0010 -1.1752 -0.0925
  787MOL0     H 8594   8.263   1.781   2.768 -0.8671 -0.1897  1.2357
  787MOL0     H 8595   8.340   1.866   2.894  4.6054 -1.6952  2.2198
  787MOL0     H 8596   8.483   1.768   2.738  1.4428 -2.2045 -0.8062
  787MOL0     H 8597   8.443   1.601   2.789  1.4861 -0.8725  1.6620
  787MOL0     H 8598   8.517   1.799   3.001 -2.6817  1.0097 -3.3128
  787MOL0     H 8599   8.513   1.615   2.992 -0.1092  0.0840  2.3864
  787MOL0     H 8600   8.760   1.672   2.976  0.5091 -0.6262 -0.6695
  787MOL0     H 8601   8.714   1.790   2.841  0.7007 -1.7314 -0.3318
  787MOL0     H 8602   8.767   1.425   2.662  0.2811  3.3915 -2.5252
  787MOL0     H 8603   8.128   1.590   3.164  1.4933  0.9482 -0.1498
  787MOL0     H 8604   7.978   1.603   3.390  0.4387  1.7887  1.8558
  787MOL0     H 8605   7.820   1.665   3.362 -0.3568 -0.4171 -1.2679
  787MOL0     H 8606   7.869   1.538   3.256  1.9929 -0.1820  1.1857
  788MOL0     O 8607   3.057   3.469   8.807 -0.6985  0.4211  0.1810
  788MOL0     C 8608   3.124   3.405   8.725 -0.0367  0.1872 -0.5522
  788MOL0     O 8609   3.138   3.439   8.597 -0.1185  0.0900 -0.1048
  788MOL0     C 8610   3.090   3.560   8.553  0.6917 -0.6581  1.0141
  788MOL0     C 8611   2.948   3.593   8.561 -0.4038  1.0383 -0.0681
  788MOL0     C 8612   2.901   3.715   8.521 -0.0921 -0.1462 -0.2129
  788MOL0     C 8613   2.990   3.803   8.460  0.5623 -0.1860  0.4719
  788MOL0     O 8614   2.942   3.919   8.407  0.2683  0.2494 -0.6319
  788MOL0     C 8615   2.805   3.925   8.364 -0.4726  0.1993 -0.5506
  788MOL0     C 8616   2.778   4.056   8.291 -0.1485 -0.7074  0.9812
  788MOL0     C 8617   2.853   4.048   8.160 -0.2997 -0.3825 -0.1865
  788MOL0     C 8618   2.885   4.186   8.089 -0.0972 -0.1731 -1.2971
  788MOL0     C 8619   2.756   4.252   8.047 -0.2140  0.8953 -0.2152
  788MOL0     C 8620   2.787   4.384   7.973  0.4698  0.5185 -0.4037
  788MOL0     C 8621   2.659   4.458   7.940 -0.3763 -0.0854 -0.7409
  788MOL0     C 8622   2.615   4.544   8.060 -0.2023  0.4338 -0.3578
  788MOL0     N 8623   2.492   4.615   8.018  0.2413  0.8543  0.0909
  788MOL0     C 8624   2.369   4.555   8.009  0.7441 -0.1174  0.5055
  788MOL0     C 8625   2.287   4.647   7.950  0.7727 -0.0254 -0.4269
  788MOL0     C 8626   2.146   4.622   7.917  0.4831 -0.1678 -0.3791
  788MOL0     C 8627   2.129   4.628   7.760  1.4669 -0.2705  0.0677
  788MOL0     C 8628   2.170   4.505   7.679  0.6012  0.3154 -0.4129
  788MOL0     C 8629   2.323   4.488   7.636 -0.8401 -0.3775  0.1100
  788MOL0     O 8630   2.365   4.539   7.508  0.8528 -0.7253 -0.4831
  788MOL0     C 8631   2.323   4.662   7.469  0.1785 -0.0501 -1.4387
  788MOL0     C 8632   2.250   4.665   7.349 -0.7924 -0.0987 -0.8949
  788MOL0     C 8633   2.209   4.789   7.292  0.6364  0.4073 -0.2627
  788MOL0     C 8634   2.128   4.781   7.162  0.2577  0.0848  0.0153
  788MOL0     C 8635   2.218   4.909   7.367  0.0311  0.6255  0.2206
  788MOL0     C 8636   2.166   5.033   7.315  0.3757  0.6243 -1.2252
  788MOL0     O 8637   2.059   5.039   7.240  0.3330  0.1577  0.3790
  788MOL0     C 8638   2.010   5.158   7.199 -0.3396  0.6249 -0.1514
  788MOL0     C 8639   2.076   5.234   7.100 -0.5797 -0.0091  0.0365
  788MOL0     C 8640   2.048   5.377   7.099 -0.6133 -0.3904  0.2829
  788MOL0     C 8641   1.945   5.438   7.166 -0.2374  0.2990 -0.3408
  788MOL0     O 8642   1.926   5.574   7.150 -0.2070  0.2715 -0.1252
  788MOL0     C 8643   1.892   5.651   7.270  1.1444  0.5354  0.5536
  788MOL0     C 8644   1.869   5.796   7.227 -0.3959 -0.4121 -0.0193
  788MOL0     C 8645   1.745   5.816   7.140  0.3170  0.1859  0.9562
  788MOL0     C 8646   1.766   5.950   7.063 -0.3282  0.7844 -0.2021
  788MOL0     C 8647   1.754   6.072   7.158 -0.4131 -0.3256 -1.3521
  788MOL0     C 8648   1.783   6.205   7.091  0.2739 -0.1103 -0.3710
  788MOL0     C 8649   1.747   6.323   7.197  0.4884 -0.0148  0.2501
  788MOL0     C 8650   1.794   6.462   7.139 -0.1544 -0.4468 -0.3549
  788MOL0    Cl 8651   1.976   6.462   7.133  0.3247  0.3469 -0.2480
  788MOL0     C 8652   1.867   5.349   7.254 -0.5379  0.3630  0.6862
  788MOL0     C 8653   1.914   5.218   7.276  1.1495 -0.2208 -0.5859
  788MOL0     O 8654   2.233   5.126   7.354 -0.1989 -0.4473  0.8510
  788MOL0     C 8655   2.288   4.901   7.487  1.1381  0.1520 -0.2336
  788MOL0     C 8656   2.334   4.779   7.541 -1.3741  0.1475 -0.1800
  788MOL0     N 8657   2.363   4.764   7.933 -0.8837  0.2857 -0.6800
  788MOL0     N 8658   2.482   4.748   7.973 -0.1677 -0.0482  0.1064
  788MOL0     C 8659   3.120   3.776   8.441 -1.1179  0.3491  0.0687
  788MOL0     C 8660   3.176   3.650   8.491  0.5673  0.0263  0.4722
  788MOL0     C 8661   3.187   3.276   8.777  0.0417 -0.0805 -0.2880
  788MOL0     C 8662   3.309   3.244   8.716 -0.9046 -0.4561  0.0553
  788MOL0     C 8663   3.375   3.129   8.765  0.0650  0.1859  0.0099
  788MOL0     C 8664   3.334   3.053   8.873  0.4132 -0.7193 -0.6591
  788MOL0     O 8665   3.387   2.928   8.923 -0.3782 -0.3966  0.5652
  788MOL0     C 8666   3.468   2.857   8.832  0.7901 -0.7979  0.0944
  788MOL0     C 8667   3.588   2.806   8.908  0.0089  0.4049  0.7283
  788MOL0     C 8668   3.667   2.697   8.846 -0.1181 -0.3289  0.2933
  788MOL0     C 8669   3.760   2.763   8.740  0.2146 -0.3038  0.8463
  788MOL0     C 8670   3.691   2.771   8.607 -0.0720 -0.5582 -0.2530
  788MOL0     C 8671   3.637   2.749   8.502  0.3210 -0.1560 -0.5127
  788MOL0     C 8672   3.209   3.075   8.916 -0.4033  0.1557  0.4232
  788MOL0     C 8673   3.139   3.189   8.875  0.3672  0.4532  0.3242
  788MOL0     C 8674   2.997   3.209   8.930 -0.8544 -0.9770  0.6978
  788MOL0     H 8675   2.891   3.517   8.614  3.9056 -1.4238  1.5858
  788MOL0     H 8676   2.796   3.740   8.536  0.1827 -0.4924  2.9327
  788MOL0     H 8677   2.732   3.914   8.445 -0.9530  3.0940 -0.4715
  788MOL0     H 8678   2.779   3.842   8.298  3.4089  0.4744 -2.7019
  788MOL0     H 8679   2.675   4.086   8.268  1.6121  2.6572 -4.3082
  788MOL0     H 8680   2.821   4.136   8.352 -2.3973  0.1744  1.5308
  788MOL0     H 8681   2.949   3.996   8.168  0.8187  1.1317 -2.7251
  788MOL0     H 8682   2.791   3.984   8.096  1.9019 -2.3684 -0.4639
  788MOL0     H 8683   2.950   4.243   8.156  0.9837 -0.1798 -2.3055
  788MOL0     H 8684   2.948   4.163   8.002  0.9282 -0.9543 -0.3700
  788MOL0     H 8685   2.698   4.271   8.137  1.5229  1.5920  0.7942
  788MOL0     H 8686   2.695   4.197   7.974 -0.1121 -0.3172  0.5744
  788MOL0     H 8687   2.859   4.448   8.026  1.7400 -1.7750  0.7615
  788MOL0     H 8688   2.838   4.369   7.878 -0.0456  1.3009 -0.8195
  788MOL0     H 8689   2.583   4.387   7.906 -0.6582 -0.4086  0.5037
  788MOL0     H 8690   2.666   4.518   7.849 -2.7608 -1.3992 -1.8797
  788MOL0     H 8691   2.594   4.480   8.146  3.6402  1.2610  1.4154
  788MOL0     H 8692   2.687   4.618   8.097  0.0077 -1.1736  2.7804
  788MOL0     H 8693   2.347   4.453   8.037  1.3094  0.6769  4.4940
  788MOL0     H 8694   2.085   4.704   7.956 -3.1630 -2.9595  0.3304
  788MOL0     H 8695   2.122   4.523   7.955 -1.2679  0.1131 -0.6575
  788MOL0     H 8696   2.024   4.635   7.732  1.7726 -0.2291 -1.1192
  788MOL0     H 8697   2.172   4.720   7.718  3.0125 -2.1403 -2.7247
  788MOL0     H 8698   2.143   4.408   7.723  3.4604 -0.9778 -1.2499
  788MOL0     H 8699   2.115   4.512   7.585  1.8823  1.3429 -1.1177
  788MOL0     H 8700   2.394   4.537   7.703  0.6961  0.0733 -1.7317
  788MOL0     H 8701   2.347   4.381   7.640 -3.5774 -1.0438  0.4515
  788MOL0     H 8702   2.239   4.567   7.304 -1.1851 -2.2511  3.3806
  788MOL0     H 8703   2.025   4.804   7.191  0.6892 -0.9734  2.6244
  788MOL0     H 8704   2.138   4.682   7.115 -0.2378  0.1548 -0.2477
  788MOL0     H 8705   2.152   4.852   7.082  0.4022  0.7131  0.6148
  788MOL0     H 8706   2.170   5.198   7.057 -0.0948  1.3468 -0.1033
  788MOL0     H 8707   2.115   5.448   7.051  0.7496 -2.0195 -0.3240
  788MOL0     H 8708   1.799   5.614   7.312  0.9712 -0.7477 -0.8838
  788MOL0     H 8709   1.968   5.639   7.347  1.8974 -4.3403 -0.6218
  788MOL0     H 8710   1.854   5.861   7.313 -1.0318  2.6391 -2.2654
  788MOL0     H 8711   1.960   5.826   7.175  0.4396 -2.6680  0.0411
  788MOL0     H 8712   1.653   5.828   7.199 -1.1115 -0.8987 -0.9702
  788MOL0     H 8713   1.740   5.743   7.060 -0.2588  0.6965  0.5148
  788MOL0     H 8714   1.693   5.957   6.982 -2.8816  0.9801  1.9773
  788MOL0     H 8715   1.867   5.940   7.021 -0.1630  2.2987 -0.2442
  788MOL0     H 8716   1.649   6.075   7.189 -1.4538  0.1999 -4.5657
  788MOL0     H 8717   1.821   6.061   7.244  0.0265 -1.5547 -1.8313
  788MOL0     H 8718   1.714   6.213   7.007  0.7695 -0.3787 -0.8049
  788MOL0     H 8719   1.886   6.210   7.056  1.9635 -0.3778  3.9006
  788MOL0     H 8720   1.794   6.312   7.295  1.5460 -2.2344 -0.4487
  788MOL0     H 8721   1.638   6.325   7.203  0.4011 -2.7441  0.8823
  788MOL0     H 8722   1.751   6.538   7.205  0.4586 -0.9248  0.6362
  788MOL0     H 8723   1.770   6.483   7.035  2.4693  0.7254 -0.8255
  788MOL0     H 8724   1.783   5.378   7.316  0.5968 -1.8364  3.4579
  788MOL0     H 8725   1.867   5.166   7.359 -0.5776  2.5934  0.3765
  788MOL0     H 8726   2.288   4.991   7.548 -3.3342 -0.0984  0.4841
  788MOL0     H 8727   2.373   4.787   7.642  1.7770 -0.4374 -1.2389
  788MOL0     H 8728   3.188   3.851   8.401 -0.8680  2.3776  3.9064
  788MOL0     H 8729   3.282   3.635   8.474  0.5500  2.7058 -2.7760
  788MOL0     H 8730   3.364   3.311   8.650 -1.9024  0.3461  0.0012
  788MOL0     H 8731   3.476   3.104   8.734 -0.4529 -2.2439  0.0955
  788MOL0     H 8732   3.419   2.769   8.790  2.4669 -1.2982 -0.9117
  788MOL0     H 8733   3.498   2.900   8.735  0.5818 -1.1097 -0.1108
  788MOL0     H 8734   3.553   2.766   9.004  0.1975 -1.9869 -0.1570
  788MOL0     H 8735   3.653   2.891   8.930 -0.2585  1.2461 -1.4771
  788MOL0     H 8736   3.730   2.636   8.912  2.0216  1.0543 -0.3796
  788MOL0     H 8737   3.593   2.631   8.800 -3.3853  2.1463  1.5424
  788MOL0     H 8738   3.847   2.696   8.736 -0.1999 -0.9931  2.6210
  788MOL0     H 8739   3.801   2.859   8.773 -0.2107  0.1786  0.0092
  788MOL0     H 8740   3.587   2.736   8.408  0.6176 -0.8231 -0.5797
  788MOL0     H 8741   3.159   3.006   8.983  0.3605 -1.2761 -0.4335
  788MOL0     H 8742   3.003   3.269   9.021  1.9687  1.4391 -0.9035
  788MOL0     H 8743   2.943   3.260   8.849  0.6069 -0.7200 -0.1568
  788MOL0     H 8744   2.946   3.118   8.962  0.7642 -1.4241  2.0917
  789MOL0     O 8745   3.595   5.451   4.045 -0.0067 -0.3772 -0.0147
  789MOL0     C 8746   3.690   5.434   3.975  0.4565 -0.6097  0.6064
  789MOL0     O 8747   3.762   5.535   3.916  0.0967 -0.8367 -0.2720
  789MOL0     C 8748   3.752   5.664   3.965 -0.1008 -1.3705  0.1260
  789MOL0     C 8749   3.634   5.736   3.938  0.6315 -0.5386  0.5769
  789MOL0     C 8750   3.626   5.872   3.976  0.1076  0.7155  0.5951
  789MOL0     C 8751   3.737   5.940   4.036 -0.1451 -0.2456  0.6601
  789MOL0     O 8752   3.730   6.072   4.071 -0.3253  0.4842 -0.4580
  789MOL0     C 8753   3.718   6.166   3.962 -0.2601  0.2184  0.1224
  789MOL0     C 8754   3.698   6.315   4.015 -0.3619 -0.5441 -0.4969
  789MOL0     C 8755   3.835   6.364   4.080  0.8557 -0.0453  0.2936
  789MOL0     C 8756   3.933   6.423   3.979  0.7609 -0.0378 -0.7505
  789MOL0     C 8757   4.026   6.508   4.057 -0.2536 -0.0351  0.1567
  789MOL0     C 8758   4.103   6.604   3.955 -0.3630  0.5090 -0.0767
  789MOL0     C 8759   4.175   6.727   4.018  0.0116  0.5105  0.5276
  789MOL0     C 8760   4.310   6.680   4.066 -0.5702 -0.6924 -0.2201
  789MOL0     N 8761   4.397   6.632   3.951 -0.3314 -0.4289 -0.1389
  789MOL0     C 8762   4.494   6.705   3.888  0.2425 -0.3127 -1.2845
  789MOL0     C 8763   4.567   6.622   3.817 -0.7410 -0.8967  0.0036
  789MOL0     C 8764   4.700   6.652   3.747  0.0239 -0.2645 -0.3967
  789MOL0     C 8765   4.676   6.685   3.596  0.0659  0.3501  0.0079
  789MOL0     C 8766   4.644   6.832   3.591  0.2367  0.1621 -0.0033
  789MOL0     C 8767   4.645   6.890   3.449  0.5315  0.4227 -0.1108
  789MOL0     O 8768   4.784   6.920   3.422 -0.0617  0.6088  0.7514
  789MOL0     C 8769   4.832   6.978   3.304 -0.0585 -0.5836 -0.5838
  789MOL0     C 8770   4.970   6.995   3.293 -0.4574  1.2631  0.5090
  789MOL0     C 8771   5.030   7.053   3.179  0.4052 -0.4372 -0.0901
  789MOL0     C 8772   5.177   7.079   3.200 -0.2681 -0.7686 -0.2641
  789MOL0     C 8773   4.947   7.099   3.070 -0.8261  1.0323 -0.5118
  789MOL0     C 8774   4.997   7.169   2.948 -0.4061 -0.9650  0.4577
  789MOL0     O 8775   5.116   7.219   2.955 -0.6148 -0.1501  0.0727
  789MOL0     C 8776   5.165   7.281   2.843 -0.1470  0.4141 -0.0288
  789MOL0     C 8777   5.189   7.223   2.716 -0.7502 -0.2164  0.2136
  789MOL0     C 8778   5.237   7.300   2.609  0.1502  1.0358 -0.0944
  789MOL0     C 8779   5.269   7.431   2.623 -0.2026  0.6963 -0.2254
  789MOL0     O 8780   5.325   7.511   2.519  0.6005  0.0075 -0.1670
  789MOL0     C 8781   5.294   7.470   2.377  0.3403 -0.6571  0.6093
  789MOL0     C 8782   5.338   7.582   2.286  0.6934 -0.0601  0.2954
  789MOL0     C 8783   5.486   7.621   2.286  0.9755  0.2641 -0.3591
  789MOL0     C 8784   5.531   7.667   2.146  0.2692  1.1619 -0.1324
  789MOL0     C 8785   5.533   7.820   2.134 -0.0850  0.1445 -0.4056
  789MOL0     C 8786   5.499   7.858   1.986  0.5848  0.2155 -0.1815
  789MOL0     C 8787   5.457   8.006   1.962 -0.9904 -0.0189 -0.2435
  789MOL0     C 8788   5.345   8.058   2.048  0.3322 -0.0474  0.1183
  789MOL0    Cl 8789   5.267   8.197   1.973  0.0056 -0.4571  0.3192
  789MOL0     C 8790   5.248   7.494   2.744 -0.1626 -0.1366 -0.0568
  789MOL0     C 8791   5.192   7.418   2.847 -0.2230 -0.0193 -0.2580
  789MOL0     O 8792   4.930   7.168   2.843  0.2942  0.0638 -0.2686
  789MOL0     C 8793   4.809   7.074   3.084 -0.4443 -0.0456 -1.1662
  789MOL0     C 8794   4.749   7.016   3.200  0.2391 -0.3110 -0.7756
  789MOL0     N 8795   4.519   6.496   3.834 -0.4569  0.3406 -0.2844
  789MOL0     N 8796   4.417   6.506   3.911  0.8211 -0.2096  0.5137
  789MOL0     C 8797   3.854   5.863   4.053 -0.0269  0.0695 -0.4021
  789MOL0     C 8798   3.866   5.730   4.025  0.4234  0.2235 -1.0458
  789MOL0     C 8799   3.756   5.301   3.968  1.3278  0.6659 -0.1534
  789MOL0     C 8800   3.895   5.288   3.958 -0.4604 -0.3275 -0.6075
  789MOL0     C 8801   3.960   5.159   3.953 -0.0535 -0.1510  0.1993
  789MOL0     C 8802   3.878   5.047   3.963 -0.3259  0.6671 -0.6237
  789MOL0     O 8803   3.939   4.920   3.966 -0.6690  0.7146 -0.3013
  789MOL0     C 8804   4.081   4.898   3.948 -0.0086  0.4175 -0.6068
  789MOL0     C 8805   4.126   4.756   3.918  0.0044  0.9938  0.5897
  789MOL0     C 8806   4.043   4.646   3.970 -0.3971 -0.0329  0.0358
  789MOL0     C 8807   4.110   4.512   3.925  0.2523  0.8209  0.5165
  789MOL0     C 8808   4.034   4.405   3.993 -0.2074 -0.0306  0.0431
  789MOL0     C 8809   3.981   4.318   4.064 -0.4080  0.2684 -0.6978
  789MOL0     C 8810   3.740   5.059   3.986 -0.8532  1.0676 -0.2823
  789MOL0     C 8811   3.678   5.180   3.985  0.1327  0.3765 -0.7238
  789MOL0     C 8812   3.525   5.181   3.994  0.1489 -0.0491 -0.6294
  789MOL0     H 8813   3.545   5.680   3.910  0.7102 -0.2200 -0.3185
  789MOL0     H 8814   3.533   5.927   3.973 -0.5644 -0.2972  1.7342
  789MOL0     H 8815   3.637   6.140   3.893 -1.7102  1.1420  1.4250
  789MOL0     H 8816   3.810   6.156   3.903 -0.8740 -0.0462 -0.8182
  789MOL0     H 8817   3.670   6.381   3.933 -4.2872  2.3712  2.7799
  789MOL0     H 8818   3.617   6.328   4.088  0.1430  0.8896 -0.1577
  789MOL0     H 8819   3.812   6.452   4.141  3.9111  2.7723 -2.2438
  789MOL0     H 8820   3.882   6.288   4.143 -0.0098 -2.6022 -1.9504
  789MOL0     H 8821   3.978   6.340   3.924 -2.5421 -2.8544  0.4268
  789MOL0     H 8822   3.879   6.490   3.912  1.0235 -0.4905 -1.4165
  789MOL0     H 8823   4.104   6.445   4.099  0.6431  0.6107 -0.5023
  789MOL0     H 8824   3.989   6.579   4.132  1.0884  0.9131 -0.0389
  789MOL0     H 8825   4.171   6.554   3.886  1.0862  3.0345 -0.5975
  789MOL0     H 8826   4.025   6.651   3.894  1.8142  2.1125 -1.8124
  789MOL0     H 8827   4.109   6.774   4.092  1.2438  3.1892  0.0204
  789MOL0     H 8828   4.201   6.810   3.953  0.7145 -0.4697 -0.4770
  789MOL0     H 8829   4.357   6.766   4.115  1.4946 -1.2042 -1.2195
  789MOL0     H 8830   4.305   6.592   4.130  2.7461 -0.5380  0.4562
  789MOL0     H 8831   4.502   6.812   3.906 -3.0458  0.4827 -3.5479
  789MOL0     H 8832   4.766   6.565   3.756 -0.3393 -0.3896  1.4690
  789MOL0     H 8833   4.746   6.730   3.808 -2.2005  1.6431 -1.0205
  789MOL0     H 8834   4.766   6.665   3.538  0.5627  1.8718  0.1923
  789MOL0     H 8835   4.591   6.628   3.559  0.7995 -1.7957  1.4649
  789MOL0     H 8836   4.536   6.842   3.607  0.2357  0.7891 -0.3792
  789MOL0     H 8837   4.707   6.889   3.660 -0.8081  1.0428  0.2569
  789MOL0     H 8838   4.594   6.823   3.379  0.6376 -3.0073  2.8189
  789MOL0     H 8839   4.591   6.985   3.455  0.1236  0.2519 -0.8974
  789MOL0     H 8840   5.036   6.974   3.377  3.8192  1.7121 -2.4367
  789MOL0     H 8841   5.180   7.187   3.216 -0.4583 -0.9939  1.4521
  789MOL0     H 8842   5.230   7.051   3.108  0.2945  1.1067 -0.5471
  789MOL0     H 8843   5.215   7.028   3.290  0.8997 -2.9202 -1.8714
  789MOL0     H 8844   5.166   7.117   2.710 -1.1345 -0.1571  0.6140
  789MOL0     H 8845   5.257   7.248   2.516 -1.5623  1.1518 -0.5789
  789MOL0     H 8846   5.360   7.385   2.359 -0.0271 -1.5578  3.1365
  789MOL0     H 8847   5.195   7.427   2.363 -0.5909  0.8017  2.2648
  789MOL0     H 8848   5.309   7.556   2.184  0.8358  2.0808 -0.3438
  789MOL0     H 8849   5.277   7.668   2.313  0.0675 -0.0530 -1.0644
  789MOL0     H 8850   5.545   7.537   2.324  0.5484 -0.1337 -0.5697
  789MOL0     H 8851   5.501   7.704   2.356 -0.5698 -2.2228  3.2133
  789MOL0     H 8852   5.465   7.619   2.073  0.2622  0.1331  0.5338
  789MOL0     H 8853   5.630   7.629   2.118  0.4166  0.1349  1.6469
  789MOL0     H 8854   5.461   7.867   2.202 -1.4481  0.9084 -2.2926
  789MOL0     H 8855   5.631   7.860   2.165  0.3749 -2.4200  1.8698
  789MOL0     H 8856   5.420   7.805   1.932  0.9556  0.2645 -0.7802
  789MOL0     H 8857   5.590   7.841   1.928  1.4318 -0.6890  1.3339
  789MOL0     H 8858   5.417   8.029   1.863  0.6861  0.8665 -0.7552
  789MOL0     H 8859   5.547   8.062   1.988 -2.7199  2.1675  1.4696
  789MOL0     H 8860   5.374   8.083   2.151 -0.8972 -0.8420  0.6809
  789MOL0     H 8861   5.269   7.982   2.064 -2.5779  1.2751 -5.1417
  789MOL0     H 8862   5.273   7.598   2.764  1.8254 -0.5728 -0.0808
  789MOL0     H 8863   5.173   7.476   2.936 -0.3034 -1.5959  0.7826
  789MOL0     H 8864   4.747   7.131   3.015 -2.3925 -0.5787  0.0525
  789MOL0     H 8865   4.646   6.983   3.193  0.1639 -1.4907  3.0627
  789MOL0     H 8866   3.944   5.914   4.086  1.3323 -2.1358 -0.4729
  789MOL0     H 8867   3.958   5.683   4.057 -0.4153 -0.3698  0.5992
  789MOL0     H 8868   3.953   5.379   3.940  1.0501 -1.0835  0.2611
  789MOL0     H 8869   4.068   5.157   3.947 -0.0964 -2.0776 -1.1579
  789MOL0     H 8870   4.121   4.949   3.860  0.1038 -1.6200 -1.7910
  789MOL0     H 8871   4.141   4.915   4.037 -0.1442 -0.4656 -0.3413
  789MOL0     H 8872   4.232   4.740   3.937  0.8406 -2.4258 -4.8332
  789MOL0     H 8873   4.124   4.739   3.809 -1.5133  0.1225  0.7286
  789MOL0     H 8874   4.028   4.646   4.079 -2.8477  2.7759 -0.1806
  789MOL0     H 8875   3.946   4.662   3.923 -0.1304  1.3497 -0.0910
  789MOL0     H 8876   4.203   4.515   3.983 -1.5555  0.6281  3.6341
  789MOL0     H 8877   4.114   4.512   3.815 -1.3226  1.6607  0.4242
  789MOL0     H 8878   3.945   4.243   4.131  1.5703 -2.4056 -2.4081
  789MOL0     H 8879   3.697   4.962   4.007  0.6984  0.9518  2.8720
  789MOL0     H 8880   3.498   5.225   4.090  1.5956 -1.0624  0.2801
  789MOL0     H 8881   3.474   5.244   3.920  0.2328  0.4689 -0.2514
  789MOL0     H 8882   3.482   5.080   3.992 -0.0362 -0.0056  0.4632
  790MOL0     O 8883   8.703   6.631   0.008  0.1172  0.0757  0.0768
  790MOL0     C 8884   8.740   6.623  -0.115 -0.2420 -0.9477  0.0474
  790MOL0     O 8885   8.814   6.720  -0.183  0.2769 -0.2914  0.4239
  790MOL0     C 8886   8.860   6.840  -0.137  0.0946 -0.2126 -0.4412
  790MOL0     C 8887   8.824   6.907  -0.022 -0.0521 -0.4379  0.0607
  790MOL0     C 8888   8.888   7.024   0.017  0.1313  0.1744 -0.8082
  790MOL0     C 8889   8.994   7.074  -0.053 -0.4929 -0.1499  1.0390
  790MOL0     O 8890   9.074   7.176  -0.009 -0.2946 -0.3565  0.3313
  790MOL0     C 8891   9.102   7.179   0.130 -0.2084  0.2158 -0.0612
  790MOL0     C 8892   9.230   7.258   0.145  0.5809 -0.5297  0.6921
  790MOL0     C 8893   9.277   7.284   0.286 -0.1423 -0.2082  0.5424
  790MOL0     C 8894   9.400   7.373   0.278  1.4623  0.9454  0.4148
  790MOL0     C 8895   9.417   7.436   0.422 -0.1429  0.1710 -0.6286
  790MOL0     C 8896   9.491   7.571   0.417  0.3440  0.8110 -0.3266
  790MOL0     C 8897   9.514   7.626   0.557  0.4099  0.5214 -0.1766
  790MOL0     C 8898   9.535   7.780   0.556 -0.6224  0.5244 -0.1446
  790MOL0     N 8899   9.435   7.871   0.501 -0.5999  0.1780 -0.3878
  790MOL0     C 8900   9.313   7.885   0.562 -0.5930  0.3027 -0.4860
  790MOL0     C 8901   9.251   7.988   0.503  1.0906 -0.1797  0.3758
  790MOL0     C 8902   9.119   8.042   0.536 -0.3175  0.2288 -0.4390
  790MOL0     C 8903   9.072   8.155   0.447  0.3300 -0.7901  0.4942
  790MOL0     C 8904   8.929   8.202   0.480  0.0256 -0.5595 -0.2832
  790MOL0     C 8905   8.909   8.329   0.395  0.1710  0.1619 -0.6325
  790MOL0     O 8906   8.871   8.281   0.262 -1.2955 -0.1393 -0.6059
  790MOL0     C 8907   8.742   8.262   0.235  0.0371 -0.4082  0.6719
  790MOL0     C 8908   8.719   8.241   0.103 -0.5583  0.1608 -0.3664
  790MOL0     C 8909   8.588   8.236   0.057  0.9338  0.1640  0.1557
  790MOL0     C 8910   8.572   8.219  -0.100 -0.2129 -0.5630  0.4421
  790MOL0     C 8911   8.485   8.256   0.145 -0.6173  0.1276 -0.0813
  790MOL0     C 8912   8.344   8.229   0.112 -0.6761 -0.2500 -0.4502
  790MOL0     O 8913   8.253   8.294   0.191  1.1928 -0.1307 -0.5001
  790MOL0     C 8914   8.113   8.317   0.159 -0.0960  0.5642 -0.0417
  790MOL0     C 8915   8.067   8.311   0.028  0.4734 -0.1273  0.1979
  790MOL0     C 8916   7.926   8.337   0.003 -0.1187 -0.6767 -0.6868
  790MOL0     C 8917   7.843   8.381   0.110  0.5917  0.1044  0.1407
  790MOL0     O 8918   7.717   8.420   0.091 -0.2884 -0.2036 -0.5697
  790MOL0     C 8919   7.646   8.353  -0.013  0.9462 -0.7156 -0.1168
  790MOL0     C 8920   7.494   8.377   0.025  0.1994  0.4460 -0.1367
  790MOL0     C 8921   7.467   8.529  -0.007  0.0344 -0.2476 -0.2580
  790MOL0     C 8922   7.329   8.568   0.034  0.0352 -0.1766  0.2677
  790MOL0     C 8923   7.295   8.712   0.056  0.4371 -0.3936 -0.3238
  790MOL0     C 8924   7.163   8.748   0.131  1.0140  0.3480 -0.4822
  790MOL0     C 8925   7.039   8.682   0.053 -0.6282 -0.9358  0.3102
  790MOL0     C 8926   7.020   8.739  -0.089  0.1779  0.9105 -0.1513
  790MOL0    Cl 8927   7.018   8.918  -0.115  0.2083 -0.4643 -0.0739
  790MOL0     C 8928   7.899   8.399   0.234  0.7583  1.0425 -0.1162
  790MOL0     C 8929   8.028   8.365   0.263  0.7449  0.4149  0.3340
  790MOL0     O 8930   8.321   8.169   0.008 -0.7860 -0.2501  1.0396
  790MOL0     C 8931   8.517   8.271   0.282  0.4818  0.8569 -0.1297
  790MOL0     C 8932   8.647   8.268   0.331  0.2427 -0.4555  0.7197
  790MOL0     N 8933   9.344   8.046   0.416  0.1058  0.5053 -0.3962
  790MOL0     N 8934   9.457   7.981   0.420  0.4655 -0.1941 -0.7563
  790MOL0     C 8935   9.031   7.012  -0.180  0.2711  0.7519  0.0923
  790MOL0     C 8936   8.958   6.894  -0.221  0.1095 -0.8380  0.1644
  790MOL0     C 8937   8.692   6.504  -0.188 -0.8228 -0.3835 -0.3623
  790MOL0     C 8938   8.645   6.389  -0.115 -0.3867 -0.1958  0.0212
  790MOL0     C 8939   8.587   6.284  -0.190  0.0985 -0.7329 -0.2749
  790MOL0     C 8940   8.571   6.289  -0.323 -0.3602  0.7741  0.0556
  790MOL0     O 8941   8.507   6.196  -0.404  1.2252  0.2148 -0.4745
  790MOL0     C 8942   8.404   6.118  -0.348  0.7227  0.0245 -0.9942
  790MOL0     C 8943   8.304   6.085  -0.459  0.2594 -0.2973 -0.0127
  790MOL0     C 8944   8.182   6.012  -0.408 -0.4963 -0.4320  0.9902
  790MOL0     C 8945   8.085   6.109  -0.332  0.0317  0.2951  0.5061
  790MOL0     C 8946   8.040   6.073  -0.195  0.6344  1.3256  0.3217
  790MOL0     C 8947   7.962   6.022  -0.022  0.4916  0.3443  0.0082
  790MOL0     C 8948   8.606   6.398  -0.390 -0.0261  1.0554 -0.0109
  790MOL0     C 8949   8.664   6.509  -0.332  0.2945  0.3685  0.3003
  790MOL0     C 8950   8.669   6.639  -0.412  0.1480  0.5404  0.3591
  790MOL0     H 8951   8.738   6.866   0.029  0.6735 -3.6082 -1.0224
  790MOL0     H 8952   8.860   7.070   0.111  1.9506 -0.8156  0.2832
  790MOL0     H 8953   9.117   7.081   0.176  0.5609  0.8995  1.1988
  790MOL0     H 8954   9.022   7.235   0.179 -0.2256 -0.1321  0.3167
  790MOL0     H 8955   9.300   7.205   0.080 -0.9124 -0.5266 -1.0064
  790MOL0     H 8956   9.223   7.346   0.081  2.2506 -0.3956  0.6512
  790MOL0     H 8957   9.189   7.324   0.340 -0.4646 -1.1277  0.7144
  790MOL0     H 8958   9.307   7.192   0.336  1.8315  0.7004  1.1298
  790MOL0     H 8959   9.482   7.308   0.245  0.3373 -0.4414  0.2400
  790MOL0     H 8960   9.384   7.449   0.200 -1.1564 -1.4385 -1.6040
  790MOL0     H 8961   9.469   7.364   0.486 -1.8587  0.0983  0.7296
  790MOL0     H 8962   9.317   7.448   0.464 -0.4256 -2.0399 -0.5524
  790MOL0     H 8963   9.587   7.553   0.370  1.2305  1.6622  1.0827
  790MOL0     H 8964   9.421   7.632   0.359 -2.8768 -3.6097 -1.6804
  790MOL0     H 8965   9.611   7.591   0.594 -0.7967 -0.0228  2.7319
  790MOL0     H 8966   9.433   7.593   0.623  1.7041 -1.2120  0.6062
  790MOL0     H 8967   9.554   7.811   0.659 -0.1599 -1.1020  0.2873
  790MOL0     H 8968   9.624   7.791   0.493 -1.8180 -1.9955 -2.5165
  790MOL0     H 8969   9.287   7.817   0.642  1.7462 -0.8177 -0.5983
  790MOL0     H 8970   9.111   8.072   0.641  1.7384  0.9130 -0.4437
  790MOL0     H 8971   9.053   7.955   0.521  1.7512 -1.1529 -2.1191
  790MOL0     H 8972   9.141   8.240   0.453 -2.6664  2.2592 -3.2240
  790MOL0     H 8973   9.073   8.121   0.343 -3.1707  0.3871 -0.0527
  790MOL0     H 8974   8.855   8.124   0.461 -1.6780  0.1758  2.7227
  790MOL0     H 8975   8.930   8.223   0.587 -1.1207 -1.9403  0.0198
  790MOL0     H 8976   8.846   8.403   0.444  0.5876 -1.2123  2.1918
  790MOL0     H 8977   9.011   8.369   0.381 -0.0778  1.1452  0.2655
  790MOL0     H 8978   8.790   8.213   0.025  0.7501 -1.3095  1.2652
  790MOL0     H 8979   8.666   8.237  -0.154 -0.4379 -0.1390  0.1892
  790MOL0     H 8980   8.481   8.266  -0.138 -1.9022 -3.8483  0.0070
  790MOL0     H 8981   8.576   8.111  -0.119  2.2639 -0.5790  0.7026
  790MOL0     H 8982   8.138   8.305  -0.053  1.3058  2.7106  0.6167
  790MOL0     H 8983   7.890   8.323  -0.098 -1.4265  1.3397 -0.5548
  790MOL0     H 8984   7.669   8.383  -0.115 -0.4664 -0.4351 -0.3748
  790MOL0     H 8985   7.682   8.249  -0.009  4.8732  0.5065  0.1676
  790MOL0     H 8986   7.423   8.321  -0.036 -0.1722  1.7661 -0.9554
  790MOL0     H 8987   7.475   8.362   0.132 -0.0668  3.4334  0.3217
  790MOL0     H 8988   7.477   8.548  -0.114  0.2795  0.7448 -0.0668
  790MOL0     H 8989   7.528   8.599   0.050  1.4419 -1.4153 -0.2703
  790MOL0     H 8990   7.312   8.510   0.125  1.7683 -2.9350 -1.0502
  790MOL0     H 8991   7.265   8.520  -0.041  1.6931  0.5533 -1.7012
  790MOL0     H 8992   7.379   8.766   0.102 -2.0261  1.2712  2.5888
  790MOL0     H 8993   7.296   8.762  -0.042  1.2772  0.8610  0.3010
  790MOL0     H 8994   7.139   8.854   0.122 -0.3683  0.0537 -0.5204
  790MOL0     H 8995   7.181   8.709   0.232  2.7706  1.1650 -0.4392
  790MOL0     H 8996   6.941   8.683   0.101 -1.0822 -2.8519 -0.4833
  790MOL0     H 8997   7.067   8.576   0.050 -1.6622 -1.4150  3.5113
  790MOL0     H 8998   6.923   8.703  -0.122  0.8353 -1.1361  0.0078
  790MOL0     H 8999   7.091   8.679  -0.146  0.2171 -0.6087  1.4012
  790MOL0     H 9000   7.838   8.447   0.310  0.4574  1.1613 -0.4290
  790MOL0     H 9001   8.063   8.368   0.365  2.8774 -0.1307 -0.3323
  790MOL0     H 9002   8.435   8.244   0.349  0.1488 -0.3500 -0.9889
  790MOL0     H 9003   8.658   8.277   0.438 -0.4850  0.9183  0.7103
  790MOL0     H 9004   9.121   7.045  -0.230 -0.6430  2.0702 -0.7285
  790MOL0     H 9005   8.990   6.837  -0.308 -1.6805 -2.0976  0.2665
  790MOL0     H 9006   8.653   6.380  -0.007 -0.8778  2.6142  0.3724
  790MOL0     H 9007   8.552   6.200  -0.131  0.8920 -2.2367 -1.8566
  790MOL0     H 9008   8.443   6.023  -0.313 -2.2395 -0.9388 -0.0158
  790MOL0     H 9009   8.359   6.174  -0.266 -1.6950  2.3590 -3.6760
  790MOL0     H 9010   8.345   6.039  -0.549  1.6225  5.5393 -2.8360
  790MOL0     H 9011   8.251   6.176  -0.490 -2.8896 -1.7478  0.7179
  790MOL0     H 9012   8.109   5.970  -0.478 -0.4194 -1.4725  1.5103
  790MOL0     H 9013   8.218   5.930  -0.345 -0.9966 -0.4708  1.2347
  790MOL0     H 9014   7.993   6.116  -0.391  0.3690  0.3253 -0.0246
  790MOL0     H 9015   8.128   6.209  -0.332 -1.4331  0.9607 -0.2746
  790MOL0     H 9016   7.913   5.983   0.065  1.4073 -2.4048 -0.5855
  790MOL0     H 9017   8.578   6.412  -0.494  0.1859  0.5428 -0.1397
  790MOL0     H 9018   8.775   6.659  -0.432  0.3562  1.5906  2.2975
  790MOL0     H 9019   8.621   6.651  -0.509  1.5870  4.1111 -0.0725
  790MOL0     H 9020   8.618   6.719  -0.358  0.1542  1.6960 -1.2991
  791MOL0     O 9021  10.654   1.916   5.040  0.8839  0.2579 -0.2399
  791MOL0     C 9022  10.738   1.892   4.953 -0.7127  0.5032 -0.0762
  791MOL0     O 9023  10.767   1.764   4.907 -0.0277  0.1795 -0.1166
  791MOL0     C 9024  10.689   1.654   4.922 -0.1543  0.1031 -0.3219
  791MOL0     C 9025  10.747   1.535   4.914  0.4828  0.1920  0.6344
  791MOL0     C 9026  10.679   1.416   4.923  0.3746  0.4678 -0.7316
  791MOL0     C 9027  10.541   1.417   4.918  0.3758 -0.2221 -0.3070
  791MOL0     O 9028  10.465   1.308   4.898 -0.1828  1.1187 -0.1384
  791MOL0     C 9029  10.519   1.177   4.890 -0.2971 -0.7243 -0.1932
  791MOL0     C 9030  10.415   1.083   4.830 -0.2278  0.0678 -0.2059
  791MOL0     C 9031  10.353   1.126   4.702 -0.7565 -0.2006  0.4713
  791MOL0     C 9032  10.464   1.130   4.594 -0.3940 -1.1381  0.2099
  791MOL0     C 9033  10.403   1.147   4.457  0.4279  0.0059 -0.2424
  791MOL0     C 9034  10.498   1.178   4.336 -0.2043  0.0746 -0.3504
  791MOL0     C 9035  10.545   1.041   4.288  0.3192  0.1338  0.7017
  791MOL0     C 9036  10.692   1.017   4.323 -0.2022  0.2689  0.1944
  791MOL0     N 9037  10.784   1.094   4.242 -0.1235 -0.1217 -0.5703
  791MOL0     C 9038  10.776   1.117   4.108  0.9650  0.1785  0.4688
  791MOL0     C 9039  10.867   1.211   4.081  0.3304 -0.5571 -0.0852
  791MOL0     C 9040  10.882   1.295   3.954  0.1311  0.2037 -0.3524
  791MOL0     C 9041  11.030   1.317   3.917  0.4734  0.7778 -0.1540
  791MOL0     C 9042  11.059   1.322   3.766 -0.1159  0.2669 -0.9333
  791MOL0     C 9043  11.098   1.188   3.701  0.3004 -0.2289  0.0555
  791MOL0     O 9044  11.135   1.226   3.561  0.2923  0.4350  0.4307
  791MOL0     C 9045  11.179   1.144   3.461  0.7120  0.7237 -0.6062
  791MOL0     C 9046  11.201   1.187   3.334  0.1703 -0.0842  0.4011
  791MOL0     C 9047  11.234   1.101   3.226 -0.2041  0.1552 -0.3217
  791MOL0     C 9048  11.250   1.170   3.090 -0.3934  0.0931  0.1759
  791MOL0     C 9049  11.246   0.963   3.245  0.1313  0.3424 -0.7006
  791MOL0     C 9050  11.285   0.865   3.144 -0.3559 -0.3827  0.5198
  791MOL0     O 9051  11.223   0.749   3.165 -1.0573 -0.1562 -0.6311
  791MOL0     C 9052  11.227   0.650   3.073  0.1310  0.8256  0.8362
  791MOL0     C 9053  11.342   0.618   2.990  0.6448  0.5365  0.1158
  791MOL0     C 9054  11.337   0.506   2.899 -0.1146  0.0056  0.0477
  791MOL0     C 9055  11.232   0.417   2.888  0.6664  0.7636 -0.1414
  791MOL0     O 9056  11.244   0.324   2.795  0.4305  0.1926  1.2078
  791MOL0     C 9057  11.217   0.188   2.855 -0.2034  0.0490 -0.4094
  791MOL0     C 9058  11.314   0.084   2.778  0.7257  0.2108 -0.5719
  791MOL0     C 9059  11.273  -0.068   2.792  0.5323  0.1298  0.2536
  791MOL0     C 9060  11.369  -0.160   2.716 -0.2235  1.0183  0.0955
  791MOL0     C 9061  11.356  -0.310   2.737 -0.3661  0.0153 -0.8883
  791MOL0     C 9062  11.457  -0.388   2.642  0.0882 -0.0481 -0.5111
  791MOL0     C 9063  11.602  -0.385   2.691  0.1823 -0.1695 -0.7781
  791MOL0     C 9064  11.696  -0.480   2.613  0.3072 -0.1065  0.5537
  791MOL0    Cl 9065  11.847  -0.521   2.703 -0.0941 -0.6729 -0.1034
  791MOL0     C 9066  11.129   0.441   2.978 -0.1435  0.2288  0.0225
  791MOL0     C 9067  11.127   0.549   3.066 -0.4589  0.8453 -0.9662
  791MOL0     O 9068  11.363   0.894   3.056 -0.8547  0.6143  0.7012
  791MOL0     C 9069  11.220   0.916   3.375  0.4923 -0.8984 -0.9627
  791MOL0     C 9070  11.195   1.006   3.479  0.4098 -0.6818 -0.1680
  791MOL0     N 9071  10.931   1.242   4.207 -0.4597  0.4499 -0.1579
  791MOL0     N 9072  10.884   1.163   4.298 -0.0162  0.2677 -1.2469
  791MOL0     C 9073  10.475   1.546   4.927 -1.1045 -0.3064  0.1627
  791MOL0     C 9074  10.552   1.660   4.931 -0.4830  0.0010  0.5855
  791MOL0     C 9075  10.838   1.991   4.897  0.6299 -0.0460 -0.4786
  791MOL0     C 9076  10.844   2.001   4.758 -0.0827  0.4134 -0.7421
  791MOL0     C 9077  10.906   2.116   4.695 -0.2975 -0.9169 -0.4351
  791MOL0     C 9078  10.986   2.202   4.775  0.7988 -0.0934  0.4057
  791MOL0     O 9079  11.030   2.310   4.708 -0.3156 -0.8766  0.3487
  791MOL0     C 9080  11.109   2.408   4.779  0.0241 -0.0076  0.2791
  791MOL0     C 9081  11.185   2.497   4.685  0.3158 -0.3163 -0.4732
  791MOL0     C 9082  11.253   2.425   4.567 -0.3528 -0.2466  0.8806
  791MOL0     C 9083  11.349   2.513   4.483  0.4936 -0.1005 -0.1609
  791MOL0     C 9084  11.307   2.650   4.450 -0.1495  0.1971 -0.2171
  791MOL0     C 9085  11.276   2.763   4.416 -0.2832 -0.2164  0.6056
  791MOL0     C 9086  11.006   2.168   4.917  0.1188  0.0436  0.0920
  791MOL0     C 9087  10.925   2.067   4.978 -0.0336 -0.4508 -0.6378
  791MOL0     C 9088  10.955   2.057   5.117 -0.4551  0.5703  0.7102
  791MOL0     H 9089  10.856   1.532   4.921  0.6499 -0.6191 -1.6055
  791MOL0     H 9090  10.744   1.331   4.941  0.4698  0.6353 -0.2784
  791MOL0     H 9091  10.547   1.140   4.989  2.5417  1.2931 -0.1257
  791MOL0     H 9092  10.612   1.173   4.833  1.9575  0.8037  3.0459
  791MOL0     H 9093  10.469   0.990   4.811 -1.0330 -1.0996  2.6392
  791MOL0     H 9094  10.331   1.056   4.895 -1.8880  0.4867 -2.0759
  791MOL0     H 9095  10.264   1.068   4.677  0.0773 -1.6557  0.7377
  791MOL0     H 9096  10.321   1.229   4.720 -0.9351 -0.0499 -0.6388
  791MOL0     H 9097  10.522   1.220   4.614 -0.1098 -1.1790 -0.3899
  791MOL0     H 9098  10.532   1.045   4.604  1.7791  0.5296  0.3941
  791MOL0     H 9099  10.336   1.232   4.476  0.9579  0.1029  1.2849
  791MOL0     H 9100  10.343   1.059   4.434  2.9639 -0.9656 -4.2343
  791MOL0     H 9101  10.429   1.221   4.262 -1.9114 -0.6017  0.7804
  791MOL0     H 9102  10.575   1.252   4.358 -0.5543  0.1983  0.5356
  791MOL0     H 9103  10.526   1.038   4.180  0.3398  1.0978  0.6674
  791MOL0     H 9104  10.486   0.952   4.313 -0.2125 -0.8644 -3.3046
  791MOL0     H 9105  10.713   1.051   4.425 -1.3106  2.2542 -0.1992
  791MOL0     H 9106  10.724   0.914   4.305 -0.9656  0.5093 -3.2037
  791MOL0     H 9107  10.704   1.075   4.039  2.3821  1.0231 -1.6545
  791MOL0     H 9108  10.826   1.388   3.969 -2.1569 -1.0840 -0.4412
  791MOL0     H 9109  10.827   1.245   3.874  2.7761  0.0169 -2.1768
  791MOL0     H 9110  11.052   1.416   3.958 -0.6376  0.6819  0.7272
  791MOL0     H 9111  11.088   1.252   3.984  0.8025  3.1658  2.0296
  791MOL0     H 9112  10.971   1.353   3.709  0.8427  3.1192 -1.0235
  791MOL0     H 9113  11.137   1.393   3.735  0.2503  0.2253 -0.1321
  791MOL0     H 9114  11.184   1.135   3.742  0.1355 -1.3260 -0.9666
  791MOL0     H 9115  11.010   1.123   3.701  0.0854  0.0596  0.2416
  791MOL0     H 9116  11.191   1.293   3.312  1.6164 -0.6743 -4.0171
  791MOL0     H 9117  11.348   1.212   3.069 -0.7812  1.5332  1.1067
  791MOL0     H 9118  11.185   1.258   3.094 -0.7417 -0.0714 -1.4097
  791MOL0     H 9119  11.203   1.110   3.011  0.5110 -2.4894  1.4806
  791MOL0     H 9120  11.434   0.676   2.999  1.2577 -0.1951 -1.1080
  791MOL0     H 9121  11.424   0.489   2.837 -0.7991  2.0404 -1.5834
  791MOL0     H 9122  11.220   0.186   2.965  1.0339  1.1565 -0.3896
  791MOL0     H 9123  11.114   0.161   2.830 -1.1202 -1.0050  3.7112
  791MOL0     H 9124  11.300   0.111   2.673 -0.4622  4.8726  0.5445
  791MOL0     H 9125  11.421   0.088   2.801  0.5667  1.4915  0.0966
  791MOL0     H 9126  11.170  -0.075   2.755  0.4168 -1.2186  0.8008
  791MOL0     H 9127  11.275  -0.109   2.893  0.2751 -0.2566  0.1036
  791MOL0     H 9128  11.473  -0.131   2.731  1.5242 -2.0623 -4.1014
  791MOL0     H 9129  11.353  -0.125   2.614 -0.4975  2.6465  0.6751
  791MOL0     H 9130  11.364  -0.332   2.844  1.4109 -0.2512 -1.0395
  791MOL0     H 9131  11.258  -0.348   2.707  0.2271 -0.7847 -1.8711
  791MOL0     H 9132  11.460  -0.351   2.539  1.4706 -1.6506 -1.0940
  791MOL0     H 9133  11.425  -0.493   2.636 -0.0418 -0.0873  0.5906
  791MOL0     H 9134  11.600  -0.427   2.792 -5.2060 -0.3262 -0.6374
  791MOL0     H 9135  11.634  -0.280   2.685  0.8397 -0.4359 -3.4936
  791MOL0     H 9136  11.728  -0.438   2.517  1.4619 -0.2617  0.8553
  791MOL0     H 9137  11.644  -0.575   2.595  1.8001 -0.7324 -0.6865
  791MOL0     H 9138  11.039   0.381   2.973 -1.3355  1.9283  0.2463
  791MOL0     H 9139  11.042   0.562   3.133 -2.0546  2.8238 -3.1827
  791MOL0     H 9140  11.223   0.816   3.419  0.7694  1.0774  4.2230
  791MOL0     H 9141  11.183   0.973   3.581 -0.8572  4.5165  1.6839
  791MOL0     H 9142  10.367   1.557   4.929 -1.0502  0.3280 -0.2211
  791MOL0     H 9143  10.493   1.751   4.931 -0.4134  0.1482  3.4231
  791MOL0     H 9144  10.782   1.937   4.696 -3.4532  0.3977  2.3408
  791MOL0     H 9145  10.900   2.141   4.590 -0.4613 -1.4516 -0.5579
  791MOL0     H 9146  11.041   2.475   4.833 -0.0904 -0.9453  1.3376
  791MOL0     H 9147  11.179   2.361   4.848 -0.7663 -0.0078  1.1137
  791MOL0     H 9148  11.261   2.554   4.738 -2.2009  0.0508  3.0835
  791MOL0     H 9149  11.123   2.577   4.645  1.8532  1.0659 -0.1717
  791MOL0     H 9150  11.301   2.332   4.601 -1.2089 -1.0715 -0.0958
  791MOL0     H 9151  11.180   2.389   4.494  2.3429 -0.5020 -1.9130
  791MOL0     H 9152  11.371   2.453   4.395  0.2727  0.9295 -0.9337
  791MOL0     H 9153  11.448   2.514   4.529  1.1686 -0.6857 -1.5456
  791MOL0     H 9154  11.237   2.862   4.412  1.9209  0.6685 -0.7187
  791MOL0     H 9155  11.077   2.220   4.980  0.6477 -1.5508  0.8599
  791MOL0     H 9156  10.947   2.152   5.171 -0.4479  0.3630  1.0831
  791MOL0     H 9157  10.892   1.980   5.163  1.4839 -2.2071 -0.9911
  791MOL0     H 9158  11.061   2.030   5.115  0.1687  2.7854  0.3835
  792MOL0     O 9159   7.441   8.109   0.310  0.3670 -0.2832 -0.0002
  792MOL0     C 9160   7.388   8.062   0.215 -0.5168 -0.1759  0.2929
  792MOL0     O 9161   7.435   7.964   0.135  0.1348  0.1475 -0.2142
  792MOL0     C 9162   7.568   7.938   0.134  1.1390 -0.5935  0.4072
  792MOL0     C 9163   7.641   7.943   0.015 -0.1098  0.2664  0.1328
  792MOL0     C 9164   7.777   7.909   0.010  0.4202  0.1222  0.1673
  792MOL0     C 9165   7.848   7.882   0.127 -0.5086 -0.6489 -0.1358
  792MOL0     O 9166   7.982   7.866   0.115  0.9304  0.3407  0.4162
  792MOL0     C 9167   8.064   7.857   0.234  0.4481  0.3942 -0.5331
  792MOL0     C 9168   8.078   7.982   0.319  0.1482 -0.4405 -0.0862
  792MOL0     C 9169   8.142   7.960   0.453 -0.0897 -0.1529 -0.3440
  792MOL0     C 9170   8.173   8.100   0.510 -0.0471  0.8357  0.0462
  792MOL0     C 9171   8.245   8.106   0.645 -0.0262 -0.8395 -0.9316
  792MOL0     C 9172   8.394   8.130   0.624  0.0144 -0.4064  0.5480
  792MOL0     C 9173   8.480   8.135   0.746 -0.1994 -0.0598  0.1033
  792MOL0     C 9174   8.629   8.167   0.706  0.1732 -0.8617 -0.4543
  792MOL0     N 9175   8.707   8.180   0.832  0.5298 -0.2233  0.2816
  792MOL0     C 9176   8.668   8.239   0.952 -0.7132 -0.8034 -0.1846
  792MOL0     C 9177   8.777   8.216   1.027  0.0291  0.3080  0.2231
  792MOL0     C 9178   8.784   8.219   1.179  0.6063 -1.1029 -0.2276
  792MOL0     C 9179   8.872   8.107   1.225 -0.3160 -0.7455  0.1798
  792MOL0     C 9180   8.848   8.069   1.375 -0.5748  0.2591  1.2743
  792MOL0     C 9181   8.925   8.149   1.477  0.8694  0.6262 -0.0728
  792MOL0     O 9182   8.894   8.120   1.613 -0.4703 -0.0111  0.0804
  792MOL0     C 9183   8.926   8.003   1.678  0.5480 -0.1764  0.2845
  792MOL0     C 9184   9.049   7.997   1.743 -0.3852  0.4888  0.7648
  792MOL0     C 9185   9.074   7.889   1.824  0.4127 -0.7067  0.2581
  792MOL0     C 9186   9.201   7.902   1.897 -0.5190  0.3459  0.7968
  792MOL0     C 9187   8.973   7.783   1.840 -0.2206  1.1005  0.0191
  792MOL0     C 9188   8.988   7.650   1.908 -0.2767 -0.0161  0.3528
  792MOL0     O 9189   8.897   7.552   1.886 -0.0689  0.1926  0.0411
  792MOL0     C 9190   8.922   7.430   1.952 -0.8590  0.5619 -0.3511
  792MOL0     C 9191   8.844   7.386   2.062 -0.0797 -0.3553  0.4250
  792MOL0     C 9192   8.855   7.264   2.123  1.0737 -0.2686  0.5093
  792MOL0     C 9193   8.952   7.172   2.073 -0.0479  0.9311 -0.0159
  792MOL0     O 9194   8.969   7.043   2.132  0.1382  0.3712 -1.0750
  792MOL0     C 9195   8.858   6.990   2.212 -0.2395 -1.1044  0.7696
  792MOL0     C 9196   8.890   6.844   2.254  0.3697 -0.9566  0.2323
  792MOL0     C 9197   8.770   6.804   2.340  0.4095 -0.3135  0.5366
  792MOL0     C 9198   8.786   6.662   2.373 -0.1162 -0.3776 -0.6352
  792MOL0     C 9199   8.688   6.616   2.470  0.5280  0.0753 -0.2967
  792MOL0     C 9200   8.677   6.470   2.510 -0.0357  1.2787  0.4383
  792MOL0     C 9201   8.806   6.423   2.572 -0.0179 -0.8983  0.0065
  792MOL0     C 9202   8.779   6.291   2.633  0.2812  0.9631 -0.4314
  792MOL0    Cl 9203   8.924   6.195   2.667 -0.0831 -0.0769  0.1521
  792MOL0     C 9204   9.035   7.203   1.962 -0.1691 -0.1886 -0.2316
  792MOL0     C 9205   9.025   7.336   1.910  0.9422  0.1233  1.0770
  792MOL0     O 9206   9.088   7.636   1.977 -0.3468  0.3648 -0.3372
  792MOL0     C 9207   8.849   7.799   1.774 -0.5574  0.2778 -0.6536
  792MOL0     C 9208   8.829   7.906   1.686  0.2573 -0.1792 -0.1850
  792MOL0     N 9209   8.883   8.177   0.949 -0.4043  0.6777  0.4639
  792MOL0     N 9210   8.839   8.147   0.833 -0.0723 -0.5410 -0.2871
  792MOL0     C 9211   7.778   7.878   0.244 -0.3551  0.3959  0.1769
  792MOL0     C 9212   7.640   7.912   0.249 -0.2327  0.1894 -0.8769
  792MOL0     C 9213   7.256   8.126   0.177 -0.7934 -0.3264 -0.3928
  792MOL0     C 9214   7.205   8.071   0.056  0.5693 -1.0034  0.6630
  792MOL0     C 9215   7.096   8.128   0.004 -1.2946 -0.7321  0.2671
  792MOL0     C 9216   7.028   8.240   0.058 -0.1624 -0.8226 -0.2068
  792MOL0     O 9217   6.912   8.309   0.023  0.3655 -0.2688 -0.1692
  792MOL0     C 9218   6.838   8.238  -0.082 -0.2757 -0.5855 -0.2804
  792MOL0     C 9219   6.691   8.293  -0.108  0.6171 -0.4736  0.0091
  792MOL0     C 9220   6.706   8.436  -0.155 -0.9699 -0.9844  0.3542
  792MOL0     C 9221   6.575   8.522  -0.169  0.1841 -0.5288 -0.4198
  792MOL0     C 9222   6.587   8.659  -0.130 -0.3792 -0.4237  0.5595
  792MOL0     C 9223   6.598   8.780  -0.091  0.1452 -0.1416 -0.0354
  792MOL0     C 9224   7.094   8.300   0.173  0.0459 -0.1898  0.5757
  792MOL0     C 9225   7.206   8.250   0.230 -1.0034 -0.1607  0.0139
  792MOL0     C 9226   7.257   8.319   0.357 -0.7278  0.4178  0.4836
  792MOL0     H 9227   7.591   7.950  -0.082 -2.0070 -2.2835  0.8203
  792MOL0     H 9228   7.829   7.913  -0.085  0.4969 -0.8892  0.1642
  792MOL0     H 9229   8.159   7.836   0.185  0.0312  0.0437 -1.2089
  792MOL0     H 9230   8.042   7.770   0.296  1.9238 -1.0973 -2.0030
  792MOL0     H 9231   8.139   8.055   0.266  0.0527  0.4313  0.9749
  792MOL0     H 9232   7.976   8.020   0.334  0.9637  1.8399  0.0134
  792MOL0     H 9233   8.071   7.907   0.517 -1.7403  2.6592  0.3234
  792MOL0     H 9234   8.241   7.916   0.436  0.9224  1.1556  1.7600
  792MOL0     H 9235   8.252   8.135   0.443  1.6784 -4.8650 -1.4779
  792MOL0     H 9236   8.081   8.160   0.512  1.1919  2.9903 -1.8201
  792MOL0     H 9237   8.218   8.022   0.709  1.3144  0.7503  1.9034
  792MOL0     H 9238   8.198   8.194   0.689  0.5523  0.9604 -3.6307
  792MOL0     H 9239   8.435   8.052   0.560 -0.5660  0.2317 -0.6404
  792MOL0     H 9240   8.413   8.216   0.559 -1.1503 -1.9107 -1.9055
  792MOL0     H 9241   8.472   8.035   0.790 -2.9613  0.0649  0.0416
  792MOL0     H 9242   8.435   8.208   0.814 -2.5125 -1.6304  0.3741
  792MOL0     H 9243   8.661   8.077   0.652  0.7712 -0.7488 -0.2939
  792MOL0     H 9244   8.634   8.261   0.651 -0.5749  0.2507  1.2919
  792MOL0     H 9245   8.574   8.276   0.993 -0.0605  0.9342 -0.1653
  792MOL0     H 9246   8.683   8.223   1.220  0.1919  2.0259 -1.2908
  792MOL0     H 9247   8.832   8.311   1.214 -1.4898 -0.3082  0.7657
  792MOL0     H 9248   8.859   8.018   1.162  0.9387 -0.1478 -0.9680
  792MOL0     H 9249   8.978   8.127   1.206 -0.0641 -1.2327  1.0018
  792MOL0     H 9250   8.741   8.081   1.395 -0.6051  1.6222  0.3713
  792MOL0     H 9251   8.878   7.966   1.397 -0.3294 -0.1531 -0.7935
  792MOL0     H 9252   9.032   8.151   1.456  0.6132  2.0776 -1.4791
  792MOL0     H 9253   8.883   8.250   1.469 -2.0090 -0.5632 -1.3196
  792MOL0     H 9254   9.116   8.082   1.729  1.6647 -1.3083 -1.2614
  792MOL0     H 9255   9.243   8.003   1.902  1.2979 -0.1607 -2.0826
  792MOL0     H 9256   9.267   7.825   1.856 -2.4743 -0.5210 -0.9379
  792MOL0     H 9257   9.191   7.864   1.999 -0.0062  0.4119  0.8756
  792MOL0     H 9258   8.770   7.455   2.101 -0.4711  0.5355 -1.7852
  792MOL0     H 9259   8.785   7.240   2.202 -1.7620  3.6950 -0.4888
  792MOL0     H 9260   8.851   7.043   2.308  0.9237 -0.7047  0.6454
  792MOL0     H 9261   8.765   6.998   2.154  1.4682  0.7272 -1.9533
  792MOL0     H 9262   8.901   6.788   2.160 -2.5375 -1.8865  0.3353
  792MOL0     H 9263   8.982   6.843   2.312  0.8146 -3.7553 -0.3867
  792MOL0     H 9264   8.684   6.813   2.273 -0.9679  0.7430  2.3482
  792MOL0     H 9265   8.767   6.872   2.426  1.7640  1.5122 -0.7752
  792MOL0     H 9266   8.887   6.640   2.410 -0.1290  1.0633  0.3223
  792MOL0     H 9267   8.763   6.612   2.278  2.1006  2.0497 -2.6291
  792MOL0     H 9268   8.695   6.683   2.556  0.7673 -0.0418 -0.2221
  792MOL0     H 9269   8.590   6.641   2.428 -0.2230 -1.7134  0.2826
  792MOL0     H 9270   8.656   6.404   2.425 -2.1310  1.6339  0.6265
  792MOL0     H 9271   8.595   6.465   2.582 -1.9115  0.8967 -1.6377
  792MOL0     H 9272   8.840   6.494   2.648  0.9397 -0.9902 -0.3180
  792MOL0     H 9273   8.873   6.412   2.486 -3.9533 -0.8995 -3.3615
  792MOL0     H 9274   8.730   6.233   2.555  2.3536  0.3167 -1.3193
  792MOL0     H 9275   8.717   6.294   2.723  0.3266  0.1683 -0.3625
  792MOL0     H 9276   9.103   7.127   1.925  0.0854  0.2061 -0.5816
  792MOL0     H 9277   9.080   7.366   1.822  0.8486 -0.2306  0.8942
  792MOL0     H 9278   8.767   7.730   1.788 -0.8842  0.3654 -2.0006
  792MOL0     H 9279   8.731   7.929   1.646  0.4910  0.9418 -0.1193
  792MOL0     H 9280   7.831   7.844   0.332  2.5403 -2.0565 -2.3167
  792MOL0     H 9281   7.599   7.903   0.349 -0.9981  2.6765 -0.9091
  792MOL0     H 9282   7.244   7.982   0.007 -1.3635 -0.8234 -1.3058
  792MOL0     H 9283   7.054   8.088  -0.088 -2.5388  1.4301 -0.1589
  792MOL0     H 9284   6.896   8.240  -0.174  1.2031 -1.2707  0.5948
  792MOL0     H 9285   6.826   8.135  -0.048  0.1565  0.2751  2.8133
  792MOL0     H 9286   6.619   8.275  -0.028  1.7253  1.0956  1.4076
  792MOL0     H 9287   6.652   8.248  -0.200 -0.8871 -0.7317  0.7556
  792MOL0     H 9288   6.779   8.479  -0.085  0.7996 -0.7254 -1.5482
  792MOL0     H 9289   6.759   8.429  -0.251  2.9552  1.1799  2.1201
  792MOL0     H 9290   6.514   8.487  -0.085 -0.4985 -2.9829 -1.8312
  792MOL0     H 9291   6.530   8.509  -0.267  1.3811  1.2671 -1.2536
  792MOL0     H 9292   6.605   8.881  -0.058 -0.3553 -0.6282  1.6703
  792MOL0     H 9293   7.050   8.388   0.219 -0.5653 -0.7699  1.1178
  792MOL0     H 9294   7.367   8.318   0.360 -0.6187 -3.4070  0.4500
  792MOL0     H 9295   7.211   8.418   0.355  1.1434  1.3307  0.7006
  792MOL0     H 9296   7.218   8.272   0.448  0.7653 -2.3589 -0.2043
  793MOL0     O 9297   9.479   9.551   4.140  0.4304 -0.4020  0.2814
  793MOL0     C 9298   9.433   9.510   4.242 -0.7552 -0.6242 -0.4046
  793MOL0     O 9299   9.418   9.584   4.363 -0.0596 -0.0900 -0.2586
  793MOL0     C 9300   9.447   9.718   4.370  0.2556  0.0813  0.9570
  793MOL0     C 9301   9.553   9.786   4.317  0.3217 -0.5659  0.9172
  793MOL0     C 9302   9.573   9.920   4.337  0.2641  1.5068  0.1973
  793MOL0     C 9303   9.487   9.989   4.419 -0.6557  0.7826  0.4838
  793MOL0     O 9304   9.512  10.117   4.434  0.2022 -0.4251  0.3159
  793MOL0     C 9305   9.440  10.182   4.542  0.7243 -1.1546 -0.1147
  793MOL0     C 9306   9.484  10.326   4.570 -0.3702  0.0705 -0.8066
  793MOL0     C 9307   9.412  10.389   4.690  0.1957  0.0816 -0.0869
  793MOL0     C 9308   9.467  10.526   4.731 -0.3892 -0.0935  0.2219
  793MOL0     C 9309   9.412  10.585   4.859 -0.3257  0.0056 -0.2068
  793MOL0     C 9310   9.267  10.596   4.868 -0.0312  0.6255  0.3866
  793MOL0     C 9311   9.210  10.709   4.945  0.4700 -0.3635  0.9992
  793MOL0     C 9312   9.062  10.687   4.966 -0.1641  0.0741  0.7694
  793MOL0     N 9313   9.008  10.764   5.073 -0.4039  0.2711  0.4063
  793MOL0     C 9314   8.884  10.810   5.082 -0.4717 -0.9804 -0.3659
  793MOL0     C 9315   8.858  10.841   5.213 -0.6283 -0.4372 -0.7045
  793MOL0     C 9316   8.743  10.907   5.278  0.2235 -0.4322 -0.0545
  793MOL0     C 9317   8.728  11.047   5.221  0.1881  0.3096  0.9745
  793MOL0     C 9318   8.622  11.137   5.289  0.0774  1.1332 -0.8840
  793MOL0     C 9319   8.469  11.100   5.261  0.3237 -0.1359 -0.1007
  793MOL0     O 9320   8.379  11.214   5.251 -0.4331 -0.4800 -0.2786
  793MOL0     C 9321   8.333  11.284   5.361 -0.5189  0.6924  0.3852
  793MOL0     C 9322   8.233  11.377   5.330  0.0333  0.4216  0.1858
  793MOL0     C 9323   8.156  11.438   5.426  0.4061 -0.7247 -0.2710
  793MOL0     C 9324   8.042  11.541   5.376 -0.7102 -0.3404 -0.3650
  793MOL0     C 9325   8.187  11.417   5.562  0.1136  0.0839 -0.6001
  793MOL0     C 9326   8.129  11.492   5.672 -0.0485  0.8050 -0.4052
  793MOL0     O 9327   8.109  11.426   5.787  0.2000  0.7271 -0.5137
  793MOL0     C 9328   8.058  11.485   5.904  0.1450  0.8983 -0.6089
  793MOL0     C 9329   7.955  11.581   5.901 -0.0228  0.3414 -0.5459
  793MOL0     C 9330   7.896  11.619   6.025 -0.5280  0.1512  0.0067
  793MOL0     C 9331   7.948  11.566   6.143  0.6575 -0.8668 -0.3056
  793MOL0     O 9332   7.883  11.596   6.257  0.6193  0.0585  0.2632
  793MOL0     C 9333   7.938  11.579   6.381 -0.1197 -0.9269 -0.8959
  793MOL0     C 9334   7.844  11.654   6.477  0.0516 -0.0921 -0.1154
  793MOL0     C 9335   7.887  11.630   6.627  0.0029  0.4831 -0.5107
  793MOL0     C 9336   8.017  11.685   6.671 -0.6517  0.0392  0.5850
  793MOL0     C 9337   8.017  11.833   6.688  0.2727 -0.3575 -0.3935
  793MOL0     C 9338   7.930  11.888   6.803  0.3125 -0.0719 -0.7852
  793MOL0     C 9339   7.957  12.040   6.827 -0.2956  0.1499  0.2447
  793MOL0     C 9340   8.083  12.070   6.903 -0.0493  0.0931  0.2948
  793MOL0    Cl 9341   8.061  12.220   6.967 -0.3382 -0.1561  0.1436
  793MOL0     C 9342   8.048  11.465   6.139 -0.2095 -0.8873 -0.9542
  793MOL0     C 9343   8.107  11.426   6.020  0.6909  0.3741  0.2858
  793MOL0     O 9344   8.118  11.610   5.653  0.7939  0.1188  0.0399
  793MOL0     C 9345   8.296  11.332   5.592  0.7265 -0.2113  0.0616
  793MOL0     C 9346   8.362  11.249   5.492  0.2062  0.0592 -0.2306
  793MOL0     N 9347   8.977  10.801   5.282  0.6326 -0.2149 -0.5340
  793MOL0     N 9348   9.062  10.742   5.196 -0.2045  0.1955 -0.5617
  793MOL0     C 9349   9.367   9.919   4.474 -0.3319  0.4672  0.5384
  793MOL0     C 9350   9.354   9.781   4.457 -0.5435  0.1088  0.9984
  793MOL0     C 9351   9.393   9.364   4.249  0.1296 -0.1841 -0.4036
  793MOL0     C 9352   9.409   9.304   4.375  0.1977  0.2928  1.2652
  793MOL0     C 9353   9.410   9.159   4.384  1.2278 -0.5014  0.8912
  793MOL0     C 9354   9.367   9.084   4.274 -0.0403 -0.2304 -0.9938
  793MOL0     O 9355   9.343   8.948   4.273  0.6644 -0.3127 -0.0414
  793MOL0     C 9356   9.403   8.855   4.370 -0.1175  0.0806 -0.1128
  793MOL0     C 9357   9.314   8.841   4.493  0.2747 -0.4811  0.1832
  793MOL0     C 9358   9.393   8.816   4.627 -0.0743  0.1687  0.2089
  793MOL0     C 9359   9.444   8.671   4.648 -0.4266 -0.1570 -0.8176
  793MOL0     C 9360   9.348   8.572   4.621 -0.2802  0.7452 -0.3555
  793MOL0     C 9361   9.255   8.488   4.614  0.2786  0.2650  0.2692
  793MOL0     C 9362   9.328   9.143   4.160  0.0876  0.0534  0.0109
  793MOL0     C 9363   9.353   9.277   4.136  1.0641 -0.4885 -0.7859
  793MOL0     C 9364   9.331   9.323   3.997  0.1634 -0.5131 -0.1561
  793MOL0     H 9365   9.619   9.729   4.253 -1.5011 -0.6009 -1.0162
  793MOL0     H 9366   9.659   9.955   4.281  0.0695  1.1100 -0.3572
  793MOL0     H 9367   9.458  10.127   4.635  0.3016 -0.3911  0.4220
  793MOL0     H 9368   9.333  10.188   4.523  0.4011 -1.1745  1.5365
  793MOL0     H 9369   9.591  10.336   4.591 -0.4172 -1.6974  0.4150
  793MOL0     H 9370   9.475  10.391   4.482  1.2678 -1.9094 -2.5462
  793MOL0     H 9371   9.302  10.395   4.687  0.0338  2.2898  3.7152
  793MOL0     H 9372   9.441  10.330   4.777  0.9756  2.4511  1.3359
  793MOL0     H 9373   9.574  10.521   4.749 -0.7573  1.0107  3.4341
  793MOL0     H 9374   9.467  10.591   4.643  4.1908 -1.7050 -1.2447
  793MOL0     H 9375   9.461  10.681   4.876 -2.4200  0.6217  3.3133
  793MOL0     H 9376   9.449  10.522   4.940  0.4729  1.1603  0.3487
  793MOL0     H 9377   9.224  10.589   4.767  1.2591 -0.8081 -0.1013
  793MOL0     H 9378   9.239  10.505   4.920 -0.9841  0.9671  0.4839
  793MOL0     H 9379   9.215  10.793   4.876 -2.8554 -1.0546 -0.2624
  793MOL0     H 9380   9.265  10.727   5.038 -0.4056 -2.0289  1.8945
  793MOL0     H 9381   9.004  10.715   4.877  1.3328  1.0921  0.0598
  793MOL0     H 9382   9.045  10.580   4.981 -1.0847 -0.2128 -1.7701
  793MOL0     H 9383   8.822  10.846   5.001  0.8890  0.2692 -0.8889
  793MOL0     H 9384   8.752  10.908   5.387 -1.8098 -0.4166  0.1645
  793MOL0     H 9385   8.658  10.841   5.259  1.9668 -2.0316 -3.0098
  793MOL0     H 9386   8.817  11.105   5.246 -1.0519  1.8669  1.9832
  793MOL0     H 9387   8.709  11.053   5.113 -0.9870  0.8546  1.1935
  793MOL0     H 9388   8.641  11.147   5.396  0.2597 -0.9768 -0.6853
  793MOL0     H 9389   8.626  11.234   5.238 -2.2395  0.8924 -1.6547
  793MOL0     H 9390   8.460  11.052   5.163 -2.2501  0.8052 -0.4211
  793MOL0     H 9391   8.426  11.031   5.334 -0.2305 -1.8329 -1.9576
  793MOL0     H 9392   8.221  11.397   5.224  0.3292 -3.3400 -0.6959
  793MOL0     H 9393   7.965  11.536   5.453  0.6694  0.6238  1.1685
  793MOL0     H 9394   8.002  11.514   5.278 -0.5395 -0.0552 -0.5177
  793MOL0     H 9395   8.082  11.643   5.365 -1.1439 -0.2195 -0.8982
  793MOL0     H 9396   7.929  11.622   5.804  0.0643  2.4156  0.2654
  793MOL0     H 9397   7.828  11.701   6.043  2.9681  3.3407 -0.0073
  793MOL0     H 9398   7.952  11.473   6.405  1.2743 -0.8916 -1.4543
  793MOL0     H 9399   8.033  11.634   6.378 -0.1353 -0.7489  0.8856
  793MOL0     H 9400   7.839  11.761   6.457 -1.0375  0.3599  2.2486
  793MOL0     H 9401   7.749  11.603   6.457  0.8348 -1.0703 -1.5421
  793MOL0     H 9402   7.889  11.522   6.645  1.3030  0.3538 -1.3359
  793MOL0     H 9403   7.808  11.670   6.692  1.5813  0.4776  1.5137
  793MOL0     H 9404   8.099  11.658   6.604 -2.4209 -1.6397 -1.0192
  793MOL0     H 9405   8.039  11.630   6.763  2.6986  1.0563  0.5224
  793MOL0     H 9406   8.117  11.869   6.714  1.3073 -2.5060 -1.1433
  793MOL0     H 9407   7.995  11.873   6.588  1.0869 -1.7006 -1.1318
  793MOL0     H 9408   7.961  11.846   6.899 -0.4547 -1.1043 -0.9688
  793MOL0     H 9409   7.824  11.872   6.779 -0.0929 -0.9178  1.3610
  793MOL0     H 9410   7.872  12.081   6.882  1.5790  0.7348  2.9107
  793MOL0     H 9411   7.968  12.087   6.729  2.5014 -2.4112 -0.8514
  793MOL0     H 9412   8.174  12.072   6.842 -1.5407  1.6471 -2.0654
  793MOL0     H 9413   8.094  12.001   6.987  1.3696  1.6176  1.4334
  793MOL0     H 9414   8.079  11.433   6.237  0.3683  1.1573 -0.4199
  793MOL0     H 9415   8.200  11.370   6.025  1.2912  1.3912  0.8477
  793MOL0     H 9416   8.330  11.313   5.693  1.7116  2.1823  0.2596
  793MOL0     H 9417   8.426  11.170   5.529 -2.0477 -0.5552  2.8890
  793MOL0     H 9418   9.288   9.984   4.512 -0.0908  1.6240 -0.8307
  793MOL0     H 9419   9.262   9.733   4.490 -1.0957 -1.3249 -2.2155
  793MOL0     H 9420   9.421   9.366   4.464  1.3502 -1.0047  2.0602
  793MOL0     H 9421   9.431   9.113   4.480  0.6791 -4.3264 -0.6358
  793MOL0     H 9422   9.416   8.753   4.332  2.0500 -0.1037  1.0127
  793MOL0     H 9423   9.502   8.893   4.397 -0.3788  1.6196 -1.1800
  793MOL0     H 9424   9.244   8.761   4.466  1.6796 -1.5530 -0.4370
  793MOL0     H 9425   9.258   8.934   4.492  2.5815  1.0763 -3.3441
  793MOL0     H 9426   9.471   8.894   4.629  1.0156 -0.7416 -2.3333
  793MOL0     H 9427   9.317   8.839   4.702 -1.0821  1.2334 -1.0778
  793MOL0     H 9428   9.478   8.660   4.751  0.5599 -1.5482 -1.2592
  793MOL0     H 9429   9.521   8.668   4.571  0.4015  2.0872 -0.1381
  793MOL0     H 9430   9.174   8.418   4.621  1.9165 -1.7852 -0.1976
  793MOL0     H 9431   9.308   9.072   4.080  1.7902 -1.0174  0.4924
  793MOL0     H 9432   9.340   9.241   3.925  1.7335  0.7931 -1.5337
  793MOL0     H 9433   9.240   9.384   3.997  0.7454  0.3636 -0.5501
  793MOL0     H 9434   9.417   9.383   3.966 -1.0242  0.8048 -1.0475
  794MOL0     O 9435   1.792   0.812   8.974  0.5753  0.0239 -0.3451
  794MOL0     C 9436   1.832   0.839   9.089  0.1465 -0.2759  0.2962
  794MOL0     O 9437   1.960   0.844   9.118  0.6239 -0.4030  0.4794
  794MOL0     C 9438   2.050   0.812   9.015 -0.7761 -0.0611 -0.0325
  794MOL0     C 9439   2.068   0.685   8.949  0.0292  0.1713  1.2051
  794MOL0     C 9440   2.179   0.655   8.869  0.6164 -0.3448  0.0466
  794MOL0     C 9441   2.269   0.751   8.843 -0.9317 -0.0976  0.2052
  794MOL0     O 9442   2.385   0.716   8.782  0.5634 -0.4325  0.3037
  794MOL0     C 9443   2.370   0.671   8.651  0.1734 -0.0288 -0.4115
  794MOL0     C 9444   2.503   0.692   8.569  0.4920  0.4520 -0.1566
  794MOL0     C 9445   2.530   0.839   8.560  0.9373 -0.5069 -0.0040
  794MOL0     C 9446   2.666   0.873   8.497 -0.0242  0.3178  0.2542
  794MOL0     C 9447   2.732   0.989   8.559 -0.4479 -0.2007  0.0086
  794MOL0     C 9448   2.845   0.970   8.659  0.7345 -0.0774 -0.8854
  794MOL0     C 9449   2.985   0.987   8.589 -0.7532  0.4095  0.9406
  794MOL0     C 9450   3.098   0.952   8.689  0.5466  0.5212 -0.7251
  794MOL0     N 9451   3.227   0.930   8.625  0.8966 -0.2752 -0.2975
  794MOL0     C 9452   3.283   0.808   8.580  0.4401  0.0926  0.8774
  794MOL0     C 9453   3.421   0.839   8.564  0.1705  0.0719  0.3855
  794MOL0     C 9454   3.536   0.752   8.516  0.1243  0.4057 -0.0219
  794MOL0     C 9455   3.555   0.620   8.596 -0.3213 -0.5910  0.7846
  794MOL0     C 9456   3.585   0.627   8.749 -0.1244  1.7845 -0.3909
  794MOL0     C 9457   3.717   0.686   8.783  0.2534 -0.1998  0.0745
  794MOL0     O 9458   3.708   0.831   8.798  0.2060 -0.3354 -0.2566
  794MOL0     C 9459   3.824   0.890   8.805  0.4956 -0.6534  0.0118
  794MOL0     C 9460   3.809   1.025   8.769 -1.3103  0.8015  0.2511
  794MOL0     C 9461   3.915   1.117   8.768 -0.8804 -0.0922 -0.0461
  794MOL0     C 9462   3.874   1.257   8.725 -0.5414  0.0229 -0.3210
  794MOL0     C 9463   4.043   1.071   8.812 -0.4237 -0.5216 -0.8476
  794MOL0     C 9464   4.173   1.152   8.831  0.4331 -0.1635  0.2322
  794MOL0     O 9465   4.278   1.089   8.898  0.5010  0.1463  0.7271
  794MOL0     C 9466   4.384   1.169   8.935  0.4226  1.1279  0.1390
  794MOL0     C 9467   4.494   1.194   8.850 -0.1449 -0.5564 -0.2950
  794MOL0     C 9468   4.614   1.256   8.886 -0.4669  0.1456 -0.9338
  794MOL0     C 9469   4.624   1.296   9.018  0.4686 -0.7373  0.0665
  794MOL0     O 9470   4.729   1.367   9.047  0.3014 -0.0512  0.5514
  794MOL0     C 9471   4.776   1.391   9.182 -0.5820 -0.2964  0.1763
  794MOL0     C 9472   4.921   1.440   9.194  0.9679 -0.0227  0.4814
  794MOL0     C 9473   5.033   1.334   9.154  0.0017 -0.2634  0.6393
  794MOL0     C 9474   5.154   1.353   9.252  0.8673  0.4891  0.2599
  794MOL0     C 9475   5.254   1.239   9.215  1.0548 -1.1108  0.4592
  794MOL0     C 9476   5.377   1.250   9.303  0.9132  0.7294  0.0464
  794MOL0     C 9477   5.473   1.124   9.297  0.2695  0.4853  0.3342
  794MOL0     C 9478   5.599   1.163   9.241 -0.6390  0.0035 -0.2250
  794MOL0    Cl 9479   5.719   1.031   9.258 -0.1790 -0.1753  0.5114
  794MOL0     C 9480   4.512   1.276   9.109 -0.1381  0.3431 -0.4146
  794MOL0     C 9481   4.389   1.228   9.062 -0.4158 -0.1434 -0.3199
  794MOL0     O 9482   4.171   1.268   8.799  0.1398  0.6926  0.4721
  794MOL0     C 9483   4.052   0.940   8.853  0.2656  0.3575 -0.3326
  794MOL0     C 9484   3.955   0.842   8.832 -0.2051 -0.6969  0.6355
  794MOL0     N 9485   3.440   0.970   8.605 -0.5597 -0.1013  0.0744
  794MOL0     N 9486   3.328   1.020   8.638 -0.1219  0.0034  1.0211
  794MOL0     C 9487   2.260   0.878   8.890 -0.0495  0.8607  0.3229
  794MOL0     C 9488   2.155   0.908   8.983 -0.3269 -0.4208  0.2033
  794MOL0     C 9489   1.733   0.875   9.195 -0.5875 -1.3235 -0.3266
  794MOL0     C 9490   1.599   0.831   9.183  0.0261 -0.1629 -0.5829
  794MOL0     C 9491   1.511   0.836   9.288 -0.2950  0.1317  0.3085
  794MOL0     C 9492   1.543   0.886   9.418  0.0701 -0.6118  1.3020
  794MOL0     O 9493   1.443   0.883   9.509  0.6523 -0.3848  1.4502
  794MOL0     C 9494   1.473   0.933   9.638  0.2322  0.1070 -0.2466
  794MOL0     C 9495   1.354   0.915   9.732 -0.8961 -0.1542  0.5861
  794MOL0     C 9496   1.386   0.944   9.874 -1.0399 -0.9283 -0.1597
  794MOL0     C 9497   1.257   0.921   9.956  0.9310  0.0534  0.8777
  794MOL0     C 9498   1.291   0.894  10.095 -0.0643  0.4022  0.5624
  794MOL0     C 9499   1.330   0.853  10.201 -0.8818 -0.9229  0.4385
  794MOL0     C 9500   1.671   0.939   9.421  0.0239  0.5452 -1.4029
  794MOL0     C 9501   1.765   0.932   9.319 -0.8308 -1.0740 -0.1268
  794MOL0     C 9502   1.896   1.005   9.357  0.5336 -0.2041  0.7163
  794MOL0     H 9503   2.002   0.599   8.951 -2.6818  1.9235 -1.7132
  794MOL0     H 9504   2.198   0.552   8.839 -1.5181 -0.5705 -0.7158
  794MOL0     H 9505   2.288   0.729   8.607  0.5847  1.0361  0.1805
  794MOL0     H 9506   2.348   0.564   8.651 -0.9810  0.1581  1.5918
  794MOL0     H 9507   2.581   0.644   8.630  1.4379  0.9631 -0.9455
  794MOL0     H 9508   2.500   0.656   8.466 -3.3931 -1.7392  0.5442
  794MOL0     H 9509   2.453   0.888   8.500 -0.1778 -2.5232 -0.2872
  794MOL0     H 9510   2.528   0.888   8.657 -0.5218  0.6864 -0.5925
  794MOL0     H 9511   2.732   0.786   8.499 -1.6624 -1.1178 -2.4818
  794MOL0     H 9512   2.662   0.886   8.388 -0.2545  0.0589  0.2294
  794MOL0     H 9513   2.663   1.054   8.614 -0.0356  1.1143 -0.9847
  794MOL0     H 9514   2.764   1.054   8.478  0.5781  0.9141  1.2733
  794MOL0     H 9515   2.837   1.044   8.740  0.7917 -0.4943 -0.4935
  794MOL0     H 9516   2.848   0.870   8.705  2.1710 -0.3597 -1.5407
  794MOL0     H 9517   3.003   1.085   8.543 -0.8471  0.3154  0.7037
  794MOL0     H 9518   2.990   0.916   8.506 -0.5961  1.8666 -0.3398
  794MOL0     H 9519   3.092   1.029   8.767 -4.3211 -2.4039  2.3292
  794MOL0     H 9520   3.071   0.867   8.752  1.0832  1.0366  0.2376
  794MOL0     H 9521   3.241   0.712   8.554  2.1555 -0.3553 -0.4366
  794MOL0     H 9522   3.628   0.812   8.508  0.2014  0.5001  1.3131
  794MOL0     H 9523   3.511   0.722   8.414 -2.9406  0.9069  0.4797
  794MOL0     H 9524   3.462   0.565   8.577  0.9309 -2.7190  0.5185
  794MOL0     H 9525   3.632   0.564   8.543 -1.0196 -1.2485  0.4343
  794MOL0     H 9526   3.517   0.682   8.814 -2.1020  0.1443 -0.9356
  794MOL0     H 9527   3.590   0.523   8.784 -1.4279  1.0801 -2.1407
  794MOL0     H 9528   3.745   0.649   8.882  1.7373 -1.8010 -0.8787
  794MOL0     H 9529   3.790   0.657   8.707 -1.6015  0.3401 -2.0272
  794MOL0     H 9530   3.710   1.053   8.737 -1.4343 -0.0336 -0.1341
  794MOL0     H 9531   3.905   1.274   8.622  6.1885 -3.4004  0.5972
  794MOL0     H 9532   3.931   1.325   8.790 -0.5981 -0.2928  0.0605
  794MOL0     H 9533   3.769   1.277   8.744 -1.1332 -2.1549 -1.0188
  794MOL0     H 9534   4.487   1.153   8.750 -2.3229 -1.2813  0.1003
  794MOL0     H 9535   4.703   1.269   8.825  0.8042 -0.2643  0.7794
  794MOL0     H 9536   4.710   1.463   9.232 -1.2949  0.3319 -1.5766
  794MOL0     H 9537   4.769   1.301   9.243 -0.2015 -2.3238 -2.5633
  794MOL0     H 9538   4.926   1.533   9.137 -2.8416 -0.2182 -0.4409
  794MOL0     H 9539   4.932   1.476   9.297  1.7463  0.4043  0.2592
  794MOL0     H 9540   5.072   1.367   9.057 -0.2007 -1.7356  0.0350
  794MOL0     H 9541   5.000   1.230   9.143  2.3237 -0.9516 -0.5681
  794MOL0     H 9542   5.108   1.335   9.350  0.6880  1.7652  0.4390
  794MOL0     H 9543   5.185   1.458   9.244  2.5962  0.0526  0.7868
  794MOL0     H 9544   5.216   1.137   9.225 -1.3365 -0.6595 -2.4483
  794MOL0     H 9545   5.291   1.253   9.113  2.2117 -2.7168  0.6132
  794MOL0     H 9546   5.334   1.249   9.404  1.6932 -0.1317  0.3830
  794MOL0     H 9547   5.426   1.345   9.280 -1.6338  2.8272  2.5571
  794MOL0     H 9548   5.427   1.039   9.245 -1.1110  0.8971  0.8665
  794MOL0     H 9549   5.488   1.093   9.401 -0.4599  1.5196  0.7605
  794MOL0     H 9550   5.631   1.256   9.289  1.4512 -0.8514  0.1374
  794MOL0     H 9551   5.585   1.177   9.133 -2.0063 -0.3374 -0.1122
  794MOL0     H 9552   4.516   1.314   9.211  0.9917  1.2977 -0.7888
  794MOL0     H 9553   4.303   1.222   9.128  0.8462 -1.5904  1.2979
  794MOL0     H 9554   4.149   0.895   8.872  0.5771  1.7025  1.4675
  794MOL0     H 9555   3.971   0.738   8.858  0.6196 -1.1812 -1.6268
  794MOL0     H 9556   2.336   0.944   8.850  3.0694 -3.3055 -1.4017
  794MOL0     H 9557   2.152   1.007   9.027 -2.2008 -0.2942 -0.1334
  794MOL0     H 9558   1.552   0.787   9.095 -4.2332  1.6542  0.4942
  794MOL0     H 9559   1.417   0.794   9.252  0.0008 -2.8132  2.6575
  794MOL0     H 9560   1.560   0.889   9.688 -0.3191  0.8796  1.4910
  794MOL0     H 9561   1.492   1.041   9.631  0.8322 -0.0051 -0.4095
  794MOL0     H 9562   1.291   0.827   9.720 -3.4590  1.7096 -0.6010
  794MOL0     H 9563   1.284   0.998   9.721 -1.2717 -0.4127  0.9887
  794MOL0     H 9564   1.469   0.876   9.899  1.7783  0.8067 -3.8294
  794MOL0     H 9565   1.421   1.047   9.882  0.8805 -1.1210 -3.9805
  794MOL0     H 9566   1.190   0.850   9.907 -0.0416  0.1078  2.0759
  794MOL0     H 9567   1.196   1.013   9.953 -2.3685 -1.8538 -3.8609
  794MOL0     H 9568   1.366   0.815  10.294 -0.4525 -2.0746 -0.1796
  794MOL0     H 9569   1.682   0.983   9.520  0.0501 -0.7765 -0.7952
  794MOL0     H 9570   1.913   1.089   9.289 -0.0709  1.5579  2.6125
  794MOL0     H 9571   1.883   1.048   9.457 -1.9849  1.4090 -0.2027
  794MOL0     H 9572   1.985   0.941   9.352  1.5843  1.2243  0.3301
  795MOL0     O 9573   3.136   0.162   2.589  0.0827 -0.0223 -0.2009
  795MOL0     C 9574   3.151   0.054   2.535 -1.0038  0.3142  0.7697
  795MOL0     O 9575   3.250  -0.037   2.572  0.0177 -0.0735 -0.7764
  795MOL0     C 9576   3.321  -0.003   2.688 -0.3939 -0.1580 -0.0827
  795MOL0     C 9577   3.427   0.085   2.679 -0.1344  0.5908  0.0353
  795MOL0     C 9578   3.513   0.099   2.787 -0.1349  0.6580 -0.4640
  795MOL0     C 9579   3.494   0.029   2.906 -0.5178 -0.0562 -0.0046
  795MOL0     O 9580   3.580   0.046   3.013 -0.2611 -0.2204 -0.1225
  795MOL0     C 9581   3.691  -0.043   3.010 -0.3283  0.4866  0.6639
  795MOL0     C 9582   3.772  -0.011   3.130  0.2829  0.1813  0.3354
  795MOL0     C 9583   3.828   0.135   3.116 -0.0446  0.1291 -0.3989
  795MOL0     C 9584   3.947   0.142   3.208 -0.7332 -1.0140  0.5947
  795MOL0     C 9585   4.053   0.253   3.171  0.2524  0.4968 -0.4861
  795MOL0     C 9586   4.090   0.281   3.023  0.6421  0.4476 -0.6420
  795MOL0     C 9587   4.142   0.162   2.947  0.2265  0.8314 -0.2641
  795MOL0     C 9588   4.280   0.110   2.994  0.1280  0.0855 -0.2683
  795MOL0     N 9589   4.401   0.183   2.957  0.5925  0.2861  0.1334
  795MOL0     C 9590   4.476   0.173   2.839  0.5619  0.0895 -0.9116
  795MOL0     C 9591   4.577   0.257   2.872  0.2451  0.2684 -0.5791
  795MOL0     C 9592   4.685   0.287   2.776  0.5101 -0.2782 -0.6037
  795MOL0     C 9593   4.737   0.430   2.770 -0.2952 -0.4172  0.1970
  795MOL0     C 9594   4.782   0.468   2.630 -0.1297  0.1745 -0.2742
  795MOL0     C 9595   4.851   0.601   2.616  0.0248 -0.1214 -0.0610
  795MOL0     O 9596   4.888   0.607   2.474  0.4478  0.9405 -0.1685
  795MOL0     C 9597   4.989   0.700   2.441  0.7824 -0.1696 -0.5884
  795MOL0     C 9598   5.018   0.813   2.523 -0.1509 -0.6221  0.3454
  795MOL0     C 9599   5.104   0.916   2.476 -0.3459  0.0809  0.4029
  795MOL0     C 9600   5.144   1.024   2.572  0.2818 -0.2875  0.3241
  795MOL0     C 9601   5.156   0.908   2.341  0.7714 -0.1107  0.0345
  795MOL0     C 9602   5.253   1.013   2.282  0.6038  1.1540  0.0878
  795MOL0     O 9603   5.302   0.983   2.164  0.3745 -0.1549 -0.5278
  795MOL0     C 9604   5.378   1.076   2.114  0.3140  0.5603  0.5562
  795MOL0     C 9605   5.325   1.158   2.019  0.5669 -0.0392  0.7519
  795MOL0     C 9606   5.402   1.263   1.971  0.1714  0.4398  0.0958
  795MOL0     C 9607   5.535   1.292   2.013 -1.2786  0.6387 -1.1106
  795MOL0     O 9608   5.616   1.400   1.964 -0.2630 -0.1073  0.9117
  795MOL0     C 9609   5.639   1.400   1.820 -0.2423  0.1875 -0.2905
  795MOL0     C 9610   5.671   1.537   1.766  0.3745 -0.2841 -0.6792
  795MOL0     C 9611   5.739   1.560   1.628 -0.0066  0.1611 -0.0454
  795MOL0     C 9612   5.647   1.510   1.517  0.0207  0.5027 -0.3128
  795MOL0     C 9613   5.726   1.461   1.391 -0.1843 -0.7158  0.6675
  795MOL0     C 9614   5.634   1.393   1.283 -0.7118  0.3459  0.4234
  795MOL0     C 9615   5.727   1.361   1.162 -0.3612 -0.1549 -0.7372
  795MOL0     C 9616   5.652   1.380   1.036  0.5202  0.4897  0.0052
  795MOL0    Cl 9617   5.617   1.560   1.013  0.2012 -0.0428  0.5403
  795MOL0     C 9618   5.578   1.216   2.116 -0.5251  1.3209 -0.1278
  795MOL0     C 9619   5.504   1.105   2.169  0.1714 -0.0604  0.1225
  795MOL0     O 9620   5.262   1.122   2.335  0.4201 -1.1730 -0.4132
  795MOL0     C 9621   5.120   0.798   2.264 -0.1215 -0.2612 -0.7226
  795MOL0     C 9622   5.033   0.695   2.305  0.3974  0.4986 -0.2098
  795MOL0     N 9623   4.567   0.299   3.010 -0.4071 -0.1788  0.5909
  795MOL0     N 9624   4.459   0.258   3.051  0.1072  0.7407  0.0914
  795MOL0     C 9625   3.371  -0.048   2.924 -0.7799 -0.6100 -0.0017
  795MOL0     C 9626   3.289  -0.071   2.807  0.4647 -0.3010  0.2788
  795MOL0     C 9627   3.093   0.022   2.402  0.0443 -0.8893 -0.1896
  795MOL0     C 9628   3.135  -0.101   2.337  0.4998 -0.8073 -0.2876
  795MOL0     C 9629   3.083  -0.136   2.213 -0.0664  1.3167  0.1096
  795MOL0     C 9630   2.999  -0.056   2.137  0.2577  0.7335 -0.3439
  795MOL0     O 9631   2.951  -0.099   2.011  0.3123 -0.5140  0.3156
  795MOL0     C 9632   2.880  -0.218   2.012 -0.3358  0.2218  0.8148
  795MOL0     C 9633   2.771  -0.210   1.905 -1.0174  0.8126  0.6451
  795MOL0     C 9634   2.685  -0.340   1.886 -0.3366  0.3406 -0.0082
  795MOL0     C 9635   2.598  -0.338   1.756 -0.4734 -0.4598 -0.1803
  795MOL0     C 9636   2.530  -0.468   1.733  0.3682 -1.3770 -1.2316
  795MOL0     C 9637   2.452  -0.555   1.694 -0.0969 -0.9263  0.2463
  795MOL0     C 9638   2.961   0.064   2.199  0.1127  0.6159 -1.0483
  795MOL0     C 9639   3.003   0.108   2.326  0.2501  0.0139 -0.4639
  795MOL0     C 9640   2.935   0.234   2.384  0.3782  0.0091  0.1587
  795MOL0     H 9641   3.443   0.142   2.588  1.3769  0.3585  0.1316
  795MOL0     H 9642   3.600   0.163   2.784  0.4719 -0.0487  0.9959
  795MOL0     H 9643   3.746  -0.038   2.916  0.9121 -1.8938  1.1859
  795MOL0     H 9644   3.663  -0.149   3.012 -0.9701  0.4589 -3.2317
  795MOL0     H 9645   3.715  -0.019   3.224  0.3134  1.8306  0.5155
  795MOL0     H 9646   3.851  -0.086   3.125  0.9506  0.8772  0.2501
  795MOL0     H 9647   3.849   0.166   3.013 -0.9905  0.5195 -0.4812
  795MOL0     H 9648   3.757   0.206   3.158 -3.2444 -2.1606 -1.5059
  795MOL0     H 9649   3.913   0.145   3.312 -3.3394 -3.0386 -0.0899
  795MOL0     H 9650   3.998   0.046   3.197 -0.9075 -1.0092 -0.3547
  795MOL0     H 9651   4.142   0.231   3.230 -0.5150  2.8447  1.7803
  795MOL0     H 9652   4.010   0.345   3.213  0.3727  1.2820 -1.9974
  795MOL0     H 9653   4.008   0.323   2.964  0.3264 -0.5122 -0.8947
  795MOL0     H 9654   4.163   0.362   3.032 -0.2548  1.0960  2.0011
  795MOL0     H 9655   4.154   0.189   2.842  1.2607  0.5643 -0.2309
  795MOL0     H 9656   4.068   0.084   2.965  2.7330 -0.9629  3.6197
  795MOL0     H 9657   4.284   0.107   3.104  1.2337  1.4785 -0.2553
  795MOL0     H 9658   4.290   0.009   2.952 -0.0967  0.6668 -1.7607
  795MOL0     H 9659   4.461   0.109   2.753  2.3707  0.9457 -1.9215
  795MOL0     H 9660   4.651   0.254   2.677 -0.4743 -0.0350 -0.3661
  795MOL0     H 9661   4.773   0.224   2.788  2.8665  1.8072 -4.7361
  795MOL0     H 9662   4.662   0.503   2.801  1.5519  1.4986  0.4419
  795MOL0     H 9663   4.828   0.430   2.831  0.4900 -2.1048 -0.8987
  795MOL0     H 9664   4.846   0.389   2.590 -1.4042 -0.9048 -0.2476
  795MOL0     H 9665   4.694   0.470   2.564 -0.0042 -1.6452 -0.5536
  795MOL0     H 9666   4.786   0.687   2.632 -1.3066 -0.8689 -1.1509
  795MOL0     H 9667   4.938   0.607   2.683  0.8733 -0.8838 -1.0572
  795MOL0     H 9668   4.987   0.835   2.625  1.3602 -0.6056  0.8259
  795MOL0     H 9669   5.115   1.005   2.676 -1.8536  0.1461 -0.1379
  795MOL0     H 9670   5.085   1.111   2.541  1.2107  0.3855  0.4054
  795MOL0     H 9671   5.247   1.060   2.572 -0.3951  1.8139  0.4569
  795MOL0     H 9672   5.231   1.135   1.970  1.0742 -0.9628  0.1751
  795MOL0     H 9673   5.369   1.339   1.901  1.0237  2.2294  1.5582
  795MOL0     H 9674   5.727   1.338   1.803  0.9016  1.9787 -1.1306
  795MOL0     H 9675   5.565   1.350   1.756  1.3087 -2.0831 -0.4405
  795MOL0     H 9676   5.573   1.585   1.774 -0.2249 -1.5948  0.1183
  795MOL0     H 9677   5.739   1.571   1.845  0.5437  0.1112 -0.9881
  795MOL0     H 9678   5.829   1.498   1.626  1.2623  1.9694 -0.3504
  795MOL0     H 9679   5.758   1.667   1.625 -0.0423  0.1455 -2.2009
  795MOL0     H 9680   5.586   1.596   1.490  1.0639  1.3111 -0.1451
  795MOL0     H 9681   5.592   1.423   1.556 -1.6195  1.8777  0.5421
  795MOL0     H 9682   5.767   1.545   1.333  3.0379 -3.6237 -1.7103
  795MOL0     H 9683   5.810   1.396   1.417  1.4333  0.9451 -0.1694
  795MOL0     H 9684   5.554   1.461   1.255 -3.0669 -1.8248  1.5274
  795MOL0     H 9685   5.585   1.300   1.313 -1.9875  0.8541 -0.0496
  795MOL0     H 9686   5.766   1.258   1.166  0.1988  0.0716 -0.1361
  795MOL0     H 9687   5.812   1.429   1.162 -2.5717  2.7973 -1.5822
  795MOL0     H 9688   5.560   1.321   1.036 -0.1882  1.5626 -0.2997
  795MOL0     H 9689   5.721   1.349   0.957  2.1946  1.2611  1.0959
  795MOL0     H 9690   5.673   1.247   2.159  0.5217 -4.1451  2.3295
  795MOL0     H 9691   5.535   1.044   2.254  0.9776  0.5850  0.3095
  795MOL0     H 9692   5.162   0.787   2.164  0.6305 -1.7672 -0.2713
  795MOL0     H 9693   4.998   0.604   2.256 -0.3586 -0.9081  2.7309
  795MOL0     H 9694   3.369  -0.097   3.021  1.4416  0.7875  0.8213
  795MOL0     H 9695   3.210  -0.145   2.805 -0.0665  0.2606 -0.1861
  795MOL0     H 9696   3.186  -0.177   2.395 -0.4249 -1.4822 -0.3242
  795MOL0     H 9697   3.119  -0.233   2.179  2.9035  0.8556  3.8312
  795MOL0     H 9698   2.951  -0.292   1.975 -0.0622  1.2000 -0.6973
  795MOL0     H 9699   2.846  -0.241   2.114  0.3979 -1.2521  0.7560
  795MOL0     H 9700   2.832  -0.202   1.814 -1.0510 -2.4866  0.2094
  795MOL0     H 9701   2.700  -0.127   1.912 -0.6383  1.3966 -1.6356
  795MOL0     H 9702   2.752  -0.427   1.891  0.4916  0.8582 -1.4356
  795MOL0     H 9703   2.627  -0.357   1.978  0.6373  0.6543  0.6754
  795MOL0     H 9704   2.655  -0.304   1.669  1.1882  1.0468  1.4059
  795MOL0     H 9705   2.518  -0.266   1.773  1.8046  2.6492 -1.6326
  795MOL0     H 9706   2.377  -0.626   1.666 -2.1285  1.8290 -1.8035
  795MOL0     H 9707   2.900   0.134   2.144 -1.0438  0.4091 -0.0899
  795MOL0     H 9708   3.000   0.322   2.386 -0.5676  0.7448 -0.6890
  795MOL0     H 9709   2.847   0.247   2.321 -0.9783  1.6436  2.2585
  795MOL0     H 9710   2.902   0.211   2.486  1.2234 -1.6837  0.0862
  796MOL0     O 9711   0.323   0.401   5.133  0.0111 -0.5593 -0.1615
  796MOL0     C 9712   0.390   0.311   5.100 -0.2283 -0.3876  0.5652
  796MOL0     O 9713   0.469   0.241   5.181 -0.4182 -0.6243  1.0732
  796MOL0     C 9714   0.447   0.259   5.320 -0.3285 -0.1016 -0.1043
  796MOL0     C 9715   0.490   0.369   5.403  0.0631 -0.3813  1.1414
  796MOL0     C 9716   0.457   0.373   5.537 -0.9626 -0.7550 -0.3116
  796MOL0     C 9717   0.380   0.271   5.601  0.2902 -0.5290  0.0736
  796MOL0     O 9718   0.351   0.267   5.734  0.5376 -0.0720  0.1854
  796MOL0     C 9719   0.379   0.393   5.797  0.3795  0.1571  0.1542
  796MOL0     C 9720   0.317   0.394   5.939 -0.0323  0.3725 -0.0942
  796MOL0     C 9721   0.425   0.384   6.046 -0.5657 -1.0581 -0.2900
  796MOL0     C 9722   0.355   0.413   6.179  0.8252  0.1013  0.7236
  796MOL0     C 9723   0.460   0.430   6.295 -0.2107 -0.3603  0.5557
  796MOL0     C 9724   0.519   0.294   6.339  0.1400  0.2593 -0.0504
  796MOL0     C 9725   0.633   0.301   6.442 -0.4269 -0.1107  0.5597
  796MOL0     C 9726   0.760   0.338   6.359  0.6106  0.3154 -0.1832
  796MOL0     N 9727   0.883   0.336   6.440 -0.2010  0.2067  0.6135
  796MOL0     C 9728   0.896   0.409   6.556 -0.1036 -0.3663 -0.3319
  796MOL0     C 9729   1.028   0.404   6.598  0.3793 -0.6185 -0.5012
  796MOL0     C 9730   1.076   0.466   6.728  0.4348  0.0152 -0.7201
  796MOL0     C 9731   1.065   0.623   6.742 -0.3736 -0.5230  0.0294
  796MOL0     C 9732   1.130   0.710   6.629 -0.5850  0.3509  0.0880
  796MOL0     C 9733   1.280   0.712   6.644  0.3474  0.8432  0.3329
  796MOL0     O 9734   1.324   0.769   6.763  0.0404 -0.3259 -0.7598
  796MOL0     C 9735   1.444   0.745   6.810 -0.1079 -0.1641  0.0758
  796MOL0     C 9736   1.469   0.759   6.949 -0.3850 -0.2002 -0.2405
  796MOL0     C 9737   1.595   0.736   7.002  0.2142 -0.0706 -0.3159
  796MOL0     C 9738   1.618   0.786   7.144 -0.2350 -0.0183  0.1599
  796MOL0     C 9739   1.701   0.704   6.918  0.8395 -1.0186  0.2593
  796MOL0     C 9740   1.831   0.659   6.969  0.2457 -0.2935  0.0745
  796MOL0     O 9741   1.919   0.635   6.871 -0.0398 -0.1215  0.4429
  796MOL0     C 9742   2.050   0.598   6.907 -0.0672 -0.8835 -0.8328
  796MOL0     C 9743   2.071   0.487   6.996  0.5781  0.0331  0.9598
  796MOL0     C 9744   2.206   0.440   7.023  1.6024 -0.1350  0.8336
  796MOL0     C 9745   2.314   0.510   6.976 -0.3961 -0.1516  0.2029
  796MOL0     O 9746   2.440   0.488   7.010 -0.7903  0.1958 -0.4602
  796MOL0     C 9747   2.503   0.350   7.021  0.5405 -0.0910  0.1127
  796MOL0     C 9748   2.618   0.354   6.918  0.3226  0.2484  0.7341
  796MOL0     C 9749   2.718   0.459   6.948 -0.1221 -0.4618  0.3484
  796MOL0     C 9750   2.851   0.445   6.857  0.5487 -0.2225  0.3056
  796MOL0     C 9751   2.945   0.564   6.889  0.2853 -0.7904 -0.6528
  796MOL0     C 9752   3.068   0.559   6.792 -0.4898 -0.0595  0.0702
  796MOL0     C 9753   3.028   0.620   6.659 -0.2362  0.0363  0.1737
  796MOL0     C 9754   3.151   0.607   6.565 -0.4788 -0.6858 -0.3403
  796MOL0    Cl 9755   3.177   0.441   6.509 -0.3116  0.3659  0.2754
  796MOL0     C 9756   2.296   0.613   6.881 -0.5519 -0.1335 -0.6574
  796MOL0     C 9757   2.164   0.659   6.853 -0.3277 -0.4826 -0.3111
  796MOL0     O 9758   1.859   0.672   7.089  0.7997 -0.7135  0.5644
  796MOL0     C 9759   1.672   0.704   6.777  0.6737 -0.9258 -0.0526
  796MOL0     C 9760   1.546   0.719   6.727  0.4639  0.0115 -0.4340
  796MOL0     N 9761   1.087   0.314   6.507 -0.5297  0.5354  1.2833
  796MOL0     N 9762   1.012   0.288   6.414 -0.2269  0.3417 -0.4650
  796MOL0     C 9763   0.326   0.169   5.517  0.4403 -0.1808  0.1267
  796MOL0     C 9764   0.365   0.169   5.382 -0.8583  1.0839 -0.5213
  796MOL0     C 9765   0.391   0.293   4.946  0.1246 -0.0207 -0.7115
  796MOL0     C 9766   0.317   0.379   4.866 -0.2502  0.9148 -0.2440
  796MOL0     C 9767   0.317   0.376   4.730  1.0191  0.6211  1.0018
  796MOL0     C 9768   0.396   0.283   4.656  0.2272  0.7488  0.0760
  796MOL0     O 9769   0.387   0.256   4.517 -1.0257 -0.7260 -0.3421
  796MOL0     C 9770   0.322   0.355   4.437 -0.1699 -0.3352 -0.0482
  796MOL0     C 9771   0.407   0.478   4.410 -0.6732  0.0410  0.1447
  796MOL0     C 9772   0.541   0.455   4.325 -0.2015 -0.2729 -1.2669
  796MOL0     C 9773   0.605   0.580   4.269  0.7830 -0.0574  0.5210
  796MOL0     C 9774   0.515   0.648   4.168 -0.9911  0.4296  0.1984
  796MOL0     C 9775   0.442   0.697   4.085 -0.5784  0.4990  1.2842
  796MOL0     C 9776   0.476   0.200   4.731 -0.0182  0.4888 -0.8376
  796MOL0     C 9777   0.473   0.202   4.873 -0.9510  0.0982 -0.2356
  796MOL0     C 9778   0.564   0.104   4.947 -0.2200 -0.8422  0.2457
  796MOL0     H 9779   0.557   0.443   5.360 -0.9643  0.7162  1.3763
  796MOL0     H 9780   0.512   0.440   5.602 -1.6472 -0.5708  0.0927
  796MOL0     H 9781   0.328   0.478   5.752  0.8990  0.9648  1.0489
  796MOL0     H 9782   0.486   0.414   5.807  0.3008  2.0335 -2.1283
  796MOL0     H 9783   0.264   0.489   5.956  1.0006  0.8428  0.6643
  796MOL0     H 9784   0.241   0.319   5.963 -1.6713  1.8729 -0.3706
  796MOL0     H 9785   0.477   0.288   6.051  0.5719 -0.4793 -0.6439
  796MOL0     H 9786   0.499   0.460   6.019 -0.3971 -1.3227 -0.5955
  796MOL0     H 9787   0.285   0.495   6.162 -2.2470 -2.8236 -2.4670
  796MOL0     H 9788   0.304   0.317   6.193  1.3730 -0.4020 -0.5943
  796MOL0     H 9789   0.409   0.495   6.366  2.4775  2.0497  0.4891
  796MOL0     H 9790   0.541   0.493   6.258 -0.8958  1.7791  2.4971
  796MOL0     H 9791   0.445   0.242   6.401 -0.3135  0.2093 -0.6194
  796MOL0     H 9792   0.548   0.235   6.252  1.7939  2.4205 -1.0741
  796MOL0     H 9793   0.637   0.205   6.493  0.9199 -0.8799 -0.9196
  796MOL0     H 9794   0.607   0.384   6.509 -0.3197  1.0311 -0.7506
  796MOL0     H 9795   0.784   0.271   6.276  0.7155  0.9993 -0.7054
  796MOL0     H 9796   0.757   0.438   6.317 -0.0503  0.5498  0.3865
  796MOL0     H 9797   0.815   0.446   6.617 -3.2359 -0.6748 -3.9735
  796MOL0     H 9798   1.180   0.438   6.744  0.7548  1.6529  0.4191
  796MOL0     H 9799   1.019   0.435   6.816  0.8162  0.9759 -0.1137
  796MOL0     H 9800   0.965   0.664   6.761 -0.7613 -0.2519 -2.2459
  796MOL0     H 9801   1.118   0.653   6.832 -0.5006  1.5850 -0.5625
  796MOL0     H 9802   1.097   0.679   6.529  0.8320  0.5318 -0.4552
  796MOL0     H 9803   1.097   0.811   6.654  0.0859  0.6829 -0.3445
  796MOL0     H 9804   1.316   0.609   6.654  1.0103  1.2096  2.3229
  796MOL0     H 9805   1.320   0.766   6.558  1.7276  2.7286  2.0551
  796MOL0     H 9806   1.386   0.790   7.012  0.5763  1.9466  0.0390
  796MOL0     H 9807   1.662   0.713   7.212 -0.1335  0.5966  0.7647
  796MOL0     H 9808   1.530   0.827   7.195  0.5567 -1.1680  2.6308
  796MOL0     H 9809   1.692   0.865   7.129  0.4144 -0.7636 -0.6643
  796MOL0     H 9810   1.997   0.427   7.049  2.2262 -1.7001  1.4054
  796MOL0     H 9811   2.223   0.376   7.109 -0.0459  0.1936  1.4439
  796MOL0     H 9812   2.543   0.337   7.122 -0.4610  1.5171  0.7783
  796MOL0     H 9813   2.431   0.271   6.997 -1.3240  1.0609  1.5303
  796MOL0     H 9814   2.670   0.258   6.920 -2.7385 -1.5278  2.3298
  796MOL0     H 9815   2.574   0.364   6.818  2.4133 -0.3146 -0.3031
  796MOL0     H 9816   2.750   0.442   7.051 -1.0258 -2.1503  0.3832
  796MOL0     H 9817   2.678   0.561   6.939  0.9832 -0.1675 -2.1001
  796MOL0     H 9818   2.831   0.446   6.750 -0.9109  1.1809  0.5532
  796MOL0     H 9819   2.899   0.353   6.891  0.4574 -1.8729 -3.5545
  796MOL0     H 9820   2.890   0.658   6.879  0.1634 -0.7478  0.3113
  796MOL0     H 9821   2.980   0.556   6.992 -0.9496 -4.6150 -0.3615
  796MOL0     H 9822   3.098   0.455   6.774  2.0424  0.7936 -1.0836
  796MOL0     H 9823   3.153   0.614   6.833 -0.1679 -0.5613  0.0766
  796MOL0     H 9824   3.007   0.726   6.676 -1.7853 -0.1548 -0.3890
  796MOL0     H 9825   2.941   0.572   6.615  0.5194 -0.2476 -1.0789
  796MOL0     H 9826   3.245   0.650   6.602  2.1298 -2.8060 -3.9281
  796MOL0     H 9827   3.125   0.664   6.476  2.3863  4.0953  1.5223
  796MOL0     H 9828   2.384   0.657   6.835 -0.3900  0.5740  0.2954
  796MOL0     H 9829   2.143   0.745   6.789 -0.9747  0.1127  0.6758
  796MOL0     H 9830   1.755   0.689   6.709  0.0045 -0.1194 -1.0818
  796MOL0     H 9831   1.535   0.703   6.620 -0.9819 -3.8082  0.1428
  796MOL0     H 9832   0.261   0.089   5.553 -2.1719  1.1811 -1.2523
  796MOL0     H 9833   0.344   0.082   5.321  1.5093  1.0663 -1.4036
  796MOL0     H 9834   0.254   0.452   4.915  1.5443 -0.3540  4.5235
  796MOL0     H 9835   0.245   0.435   4.675  0.3341 -2.0649 -1.2368
  796MOL0     H 9836   0.298   0.313   4.339  0.6650 -0.0571 -0.3832
  796MOL0     H 9837   0.223   0.393   4.464 -1.0701 -0.6855 -2.6114
  796MOL0     H 9838   0.430   0.506   4.513 -1.6205 -1.9425  0.9381
  796MOL0     H 9839   0.343   0.553   4.363 -1.5770 -1.0923 -0.4787
  796MOL0     H 9840   0.619   0.400   4.379  0.9346  1.6744 -0.8468
  796MOL0     H 9841   0.519   0.388   4.241 -0.9263 -0.8030 -0.6566
  796MOL0     H 9842   0.690   0.542   4.211 -0.7364 -1.9865 -0.5071
  796MOL0     H 9843   0.635   0.660   4.337  0.1458  1.8396 -1.3016
  796MOL0     H 9844   0.384   0.743   4.009  0.5768  1.2003  0.7920
  796MOL0     H 9845   0.532   0.119   4.685  2.2100  1.3356  0.2705
  796MOL0     H 9846   0.630   0.049   4.879 -0.8817 -1.5275  0.1369
  796MOL0     H 9847   0.635   0.159   5.010  0.2940  0.9113 -1.7747
  796MOL0     H 9848   0.503   0.041   5.013 -1.1880 -0.3635 -0.1799
  797MOL0     O 9849  10.315   5.659  10.110  0.2250  0.4250  0.5041
  797MOL0     C 9850  10.256   5.641  10.004 -0.0634  0.1344  0.3354
  797MOL0     O 9851  10.126   5.579   9.991 -0.1167 -0.4644  0.0141
  797MOL0     C 9852  10.107   5.469  10.079  0.1618  0.3251 -0.2474
  797MOL0     C 9853  10.047   5.488  10.199  0.1501  0.7514  0.4214
  797MOL0     C 9854  10.034   5.384  10.295  1.3207  0.0915 -0.2914
  797MOL0     C 9855  10.075   5.261  10.265  0.4447  0.2218 -0.0639
  797MOL0     O 9856  10.052   5.165  10.357  0.5951  0.1403  0.1833
  797MOL0     C 9857  10.076   5.021  10.330 -0.0320 -0.6069 -0.6936
  797MOL0     C 9858  10.073   4.949  10.453  0.3854 -0.1104 -0.1988
  797MOL0     C 9859  10.061   4.803  10.456  0.4543 -0.1924 -0.1380
  797MOL0     C 9860  10.123   4.755  10.580  0.5014 -0.4573 -0.0340
  797MOL0     C 9861  10.065   4.627  10.637  0.3482 -0.1920  0.9129
  797MOL0     C 9862  10.087   4.507  10.545 -0.3722  0.7762 -0.5263
  797MOL0     C 9863  10.050   4.380  10.622  0.3947 -0.7777 -1.2247
  797MOL0     C 9864  10.030   4.261  10.533 -0.1504 -0.0946  0.1140
  797MOL0     N 9865  10.149   4.236  10.448  0.6497 -0.3714 -0.1138
  797MOL0     C 9866  10.145   4.221  10.311 -0.4042 -0.4754  0.5076
  797MOL0     C 9867  10.271   4.184  10.290  0.5203  0.4765  0.0889
  797MOL0     C 9868  10.331   4.160  10.156  0.0039  0.5684 -0.0559
  797MOL0     C 9869  10.380   4.298  10.086 -0.9310 -0.3478 -0.0571
  797MOL0     C 9870  10.394   4.269   9.943  0.5141 -0.1777  0.1514
  797MOL0     C 9871  10.415   4.383   9.840  0.3670  1.7159  0.4390
  797MOL0     O 9872  10.521   4.470   9.891  0.0400  0.5103  0.9971
  797MOL0     C 9873  10.495   4.555   9.993  0.1012  0.3696 -0.0953
  797MOL0     C 9874  10.381   4.624  10.012  0.3937  0.0528 -0.0150
  797MOL0     C 9875  10.371   4.727  10.107  0.3652  0.4705  0.3993
  797MOL0     C 9876  10.242   4.797  10.112 -0.5305  0.1591 -0.5223
  797MOL0     C 9877  10.488   4.759  10.191  0.8304  0.4565 -0.3727
  797MOL0     C 9878  10.495   4.857  10.301  0.1177  0.8598 -0.3780
  797MOL0     O 9879  10.612   4.871  10.372  0.6291 -1.3647  0.6954
  797MOL0     C 9880  10.616   4.943  10.491  0.4574 -0.1480  0.4211
  797MOL0     C 9881  10.513   4.922  10.580 -0.5190  0.3121 -0.9075
  797MOL0     C 9882  10.505   4.977  10.709 -0.6337 -0.0813 -0.3003
  797MOL0     C 9883  10.595   5.084  10.733  1.4194  1.0770  0.4902
  797MOL0     O 9884  10.581   5.150  10.850  0.0802 -0.2172  0.7107
  797MOL0     C 9885  10.662   5.263  10.888 -0.5740  0.2309 -0.0127
  797MOL0     C 9886  10.611   5.397  10.820  0.1617 -0.2324  1.3875
  797MOL0     C 9887  10.708   5.526  10.840  0.9217  1.1456 -0.0680
  797MOL0     C 9888  10.632   5.645  10.773 -0.4651  0.5605  0.7851
  797MOL0     C 9889  10.714   5.771  10.810 -0.5950  1.2710 -0.7949
  797MOL0     C 9890  10.660   5.899  10.743 -0.0976  0.9750 -0.0799
  797MOL0     C 9891  10.684   5.894  10.589 -0.9049  0.1632 -0.6204
  797MOL0     C 9892  10.826   5.940  10.570  0.2837  0.2260 -0.0320
  797MOL0    Cl 9893  10.862   5.956  10.395  0.0277 -0.2386  0.6408
  797MOL0     C 9894  10.701   5.111  10.642  0.4153 -0.4565 -0.9389
  797MOL0     C 9895  10.717   5.034  10.532 -0.2549 -0.6512  0.6666
  797MOL0     O 9896  10.394   4.929  10.320  0.1878 -0.3972 -0.0979
  797MOL0     C 9897  10.597   4.678  10.170  0.8724 -0.2450 -0.6710
  797MOL0     C 9898  10.608   4.590  10.070  0.6308 -0.0041  0.5720
  797MOL0     N 9899  10.351   4.170  10.405  0.4383 -0.1704  0.7211
  797MOL0     N 9900  10.270   4.200  10.497 -0.0408  0.0877  0.1208
  797MOL0     C 9901  10.154   5.241  10.150  0.3609 -0.1795 -0.2596
  797MOL0     C 9902  10.165   5.345  10.061 -0.4599  0.5958  0.2705
  797MOL0     C 9903  10.308   5.719   9.889 -0.4912  0.4369 -0.0508
  797MOL0     C 9904  10.261   5.683   9.757  0.9934  1.0057  0.3809
  797MOL0     C 9905  10.297   5.749   9.641 -0.3770 -0.5403  0.7050
  797MOL0     C 9906  10.398   5.838   9.645  0.6153  0.3687  0.6392
  797MOL0     O 9907  10.441   5.890   9.521 -0.2652 -0.2356 -0.1723
  797MOL0     C 9908  10.558   5.980   9.522  0.3116  1.0545 -0.2589
  797MOL0     C 9909  10.602   6.028   9.384 -0.3662 -0.0424  0.3377
  797MOL0     C 9910  10.491   6.092   9.296  0.0080  0.2630  0.3755
  797MOL0     C 9911  10.540   6.124   9.158  0.2174 -0.2227  0.4061
  797MOL0     C 9912  10.433   6.166   9.072  0.0453  0.8130  0.1468
  797MOL0     C 9913  10.343   6.193   8.992  0.5539  0.1065 -0.3262
  797MOL0     C 9914  10.465   5.867   9.765  0.1596  0.5734  0.0202
  797MOL0     C 9915  10.420   5.818   9.890  0.1157  0.4992 -0.5066
  797MOL0     C 9916  10.481   5.867  10.017 -0.2418 -0.4331 -0.3415
  797MOL0     H 9917   9.983   5.575  10.211 -0.3079  0.3393  1.1087
  797MOL0     H 9918   9.978   5.398  10.387  0.2714  2.5314 -1.2156
  797MOL0     H 9919  10.177   5.016  10.290  0.9015 -3.2004  1.6512
  797MOL0     H 9920  10.004   4.978  10.260  0.1735 -1.2687 -0.5045
  797MOL0     H 9921  10.166   4.977  10.503  1.6844  0.6844 -2.8941
  797MOL0     H 9922   9.985   4.989  10.504  0.7952 -0.6668  0.9724
  797MOL0     H 9923   9.953   4.783  10.458  0.4678 -0.2689 -0.1981
  797MOL0     H 9924  10.100   4.746  10.371 -0.3848 -0.6424 -0.2316
  797MOL0     H 9925  10.228   4.745  10.549  1.1677  1.6218  1.3063
  797MOL0     H 9926  10.106   4.832  10.656  1.9924  0.3459 -0.4638
  797MOL0     H 9927   9.958   4.638  10.653  0.2556  0.4187 -0.0220
  797MOL0     H 9928  10.115   4.613  10.733 -1.1530 -1.2635  1.5645
  797MOL0     H 9929  10.023   4.524  10.458 -0.7076  2.2912 -0.0180
  797MOL0     H 9930  10.194   4.513  10.525  0.3448 -1.3455  2.0511
  797MOL0     H 9931   9.954   4.386  10.674  0.3583 -0.8984 -1.2769
  797MOL0     H 9932  10.137   4.350  10.681  0.9019 -0.2594 -1.7073
  797MOL0     H 9933  10.013   4.171  10.592  2.4057 -0.3950  0.5230
  797MOL0     H 9934   9.943   4.287  10.473 -0.3489  0.3511  0.5832
  797MOL0     H 9935  10.064   4.236  10.241 -0.0142  3.8209  0.7130
  797MOL0     H 9936  10.250   4.117  10.096 -1.3963  0.9706  1.4549
  797MOL0     H 9937  10.415   4.091  10.165  1.0243  1.3164 -2.8121
  797MOL0     H 9938  10.316   4.382  10.114 -0.4979 -0.5345  1.5754
  797MOL0     H 9939  10.481   4.321  10.120 -0.4917 -2.7567  0.4552
  797MOL0     H 9940  10.475   4.202   9.914  0.5304 -0.0876 -0.0163
  797MOL0     H 9941  10.308   4.212   9.905  0.4448  0.4494 -0.6581
  797MOL0     H 9942  10.442   4.343   9.742 -2.3412  3.2381 -1.0076
  797MOL0     H 9943  10.326   4.444   9.824  0.0229  0.4897 -2.9885
  797MOL0     H 9944  10.285   4.606   9.964 -0.6660  1.8508  1.3175
  797MOL0     H 9945  10.190   4.773  10.019  1.2131 -2.1333 -0.9893
  797MOL0     H 9946  10.249   4.906  10.116 -0.6734  0.2833 -2.5391
  797MOL0     H 9947  10.191   4.748  10.196 -4.5993 -2.5869 -4.1089
  797MOL0     H 9948  10.440   4.848  10.549  1.6239 -1.5733 -1.7826
  797MOL0     H 9949  10.421   4.950  10.772 -0.8462 -0.7192 -0.8438
  797MOL0     H 9950  10.657   5.266  10.997  0.2784 -2.9716  0.2184
  797MOL0     H 9951  10.766   5.247  10.860  0.1971  1.7881  1.7763
  797MOL0     H 9952  10.581   5.368  10.719  2.3199 -2.6302  1.3430
  797MOL0     H 9953  10.512   5.427  10.856 -2.6534 -2.5372 -3.3950
  797MOL0     H 9954  10.800   5.495  10.790 -0.2688 -1.3028 -0.8809
  797MOL0     H 9955  10.714   5.539  10.949 -3.7139 -2.3272  0.9532
  797MOL0     H 9956  10.530   5.640  10.811 -1.5137 -1.8996 -1.9150
  797MOL0     H 9957  10.641   5.629  10.665 -0.5935 -3.9626  1.2627
  797MOL0     H 9958  10.698   5.783  10.918 -0.7040  1.6634 -0.8509
  797MOL0     H 9959  10.821   5.761  10.787 -0.4710 -0.1740  0.2439
  797MOL0     H 9960  10.706   5.982  10.797  1.0057  0.4598 -0.1979
  797MOL0     H 9961  10.552   5.906  10.752 -0.2322  1.4550 -1.7797
  797MOL0     H 9962  10.621   5.959  10.528  0.2786  1.0001 -0.9653
  797MOL0     H 9963  10.676   5.793  10.548 -1.3395 -0.0885  0.0560
  797MOL0     H 9964  10.889   5.857  10.605  0.2306  0.9806  2.0059
  797MOL0     H 9965  10.851   6.029  10.628  4.4400 -1.4526  1.1295
  797MOL0     H 9966  10.775   5.184  10.674 -0.7424 -0.4488  1.9715
  797MOL0     H 9967  10.801   5.031  10.464 -0.1674  0.0319  0.7404
  797MOL0     H 9968  10.683   4.682  10.236 -0.7215  0.3503  1.4831
  797MOL0     H 9969  10.699   4.533  10.053 -0.0818 -1.0024 -0.0292
  797MOL0     H 9970  10.199   5.146  10.123  0.7179 -0.1652  0.2620
  797MOL0     H 9971  10.222   5.341   9.968  0.1375  2.5279  0.4919
  797MOL0     H 9972  10.191   5.600   9.750  1.1050  0.8182  1.3029
  797MOL0     H 9973  10.253   5.723   9.546 -1.0533  3.6389 -0.3273
  797MOL0     H 9974  10.531   6.070   9.578  1.7683  0.1717  1.9750
  797MOL0     H 9975  10.646   5.940   9.573 -0.7496 -1.1391 -0.0054
  797MOL0     H 9976  10.636   5.942   9.326 -3.5643  1.3910 -4.3040
  797MOL0     H 9977  10.682   6.101   9.402 -3.0523  2.7715  1.8838
  797MOL0     H 9978  10.403   6.028   9.300 -0.9193  1.1744 -2.7763
  797MOL0     H 9979  10.468   6.190   9.339 -1.9325  0.2239 -0.5125
  797MOL0     H 9980  10.584   6.031   9.122  1.0424  0.3011  0.0220
  797MOL0     H 9981  10.610   6.208   9.168 -0.8509  0.5243  2.1326
  797MOL0     H 9982  10.262   6.216   8.926  0.7978  0.1090 -0.6328
  797MOL0     H 9983  10.550   5.934   9.756  0.0361  0.5243 -1.8716
  797MOL0     H 9984  10.551   5.794  10.059  1.2304  0.4529 -1.1638
  797MOL0     H 9985  10.539   5.958  10.000 -0.4174 -0.0391  1.0560
  797MOL0     H 9986  10.407   5.907  10.087 -1.2703  0.3262 -1.8173
  798MOL0     O 9987   2.498   1.156   6.323 -0.2412  0.4379  0.0975
  798MOL0     C 9988   2.404   1.175   6.396  0.2085 -0.5614 -0.6509
  798MOL0     O 9989   2.403   1.163   6.537 -0.4215  0.5117 -0.3049
  798MOL0     C 9990   2.527   1.154   6.600 -0.2435  0.4369  0.1183
  798MOL0     C 9991   2.550   1.041   6.673 -0.3864 -0.1496  0.3150
  798MOL0     C 9992   2.654   1.036   6.761  0.1582  0.9724  0.4509
  798MOL0     C 9993   2.755   1.135   6.770  0.1585 -1.2131 -0.5384
  798MOL0     O 9994   2.867   1.129   6.844 -0.4382  0.0224  0.1637
  798MOL0     C 9995   2.872   1.037   6.956 -0.5300 -0.0766  0.5922
  798MOL0     C 9996   3.016   1.050   7.015 -0.2374  0.3141 -0.4265
  798MOL0     C 9997   3.012   1.030   7.168 -0.0809  0.1628  0.2888
  798MOL0     C 9998   3.155   1.037   7.220  0.9325 -0.6138 -0.2605
  798MOL0     C 9999   3.154   1.006   7.376 -1.1776 -0.2015 -0.1575
  798MOL0     C10000   3.297   0.985   7.402 -0.3944  0.1196  0.2910
  798MOL0     C10001   3.318   0.969   7.557  0.3851 -0.1153  0.6580
  798MOL0     C10002   3.465   0.971   7.602  0.4684  0.2092  0.2387
  798MOL0     N10003   3.480   0.925   7.736  0.4802 -1.0113 -0.4363
  798MOL0     C10004   3.504   0.997   7.853  0.3543  0.5938 -0.2143
  798MOL0     C10005   3.536   0.902   7.946 -0.5854  0.5068  0.7470
  798MOL0     C10006   3.563   0.934   8.099 -0.2444  0.2453  0.1927
  798MOL0     C10007   3.449   0.904   8.195 -0.6877  0.2036  0.1623
  798MOL0     C10008   3.327   0.971   8.150 -0.1422  0.3949  0.4638
  798MOL0     C10009   3.216   0.962   8.253 -0.3710  0.5130  0.0012
  798MOL0     O10010   3.083   0.969   8.198 -0.5616 -0.1476 -0.1496
  798MOL0     C10011   3.017   0.852   8.167  0.0622  0.1301 -0.6109
  798MOL0     C10012   2.880   0.848   8.175  0.3899  0.4803  0.5169
  798MOL0     C10013   2.806   0.726   8.151 -1.3461 -0.0041 -0.0206
  798MOL0     C10014   2.665   0.735   8.140  0.7030 -0.5771 -0.6290
  798MOL0     C10015   2.876   0.605   8.134 -0.9026 -0.3987 -1.2332
  798MOL0     C10016   2.818   0.465   8.131  0.1073  0.0132  0.5623
  798MOL0     O10017   2.905   0.355   8.140  0.0744 -0.5278  0.0291
  798MOL0     C10018   2.860   0.224   8.116  0.0392 -0.4639  0.1642
  798MOL0     C10019   2.775   0.187   8.012  0.2481 -0.3435  0.1273
  798MOL0     C10020   2.739   0.056   8.003 -0.6234  0.6214  0.3279
  798MOL0     C10021   2.797  -0.049   8.080  0.3454 -0.7064  0.7061
  798MOL0     O10022   2.755  -0.182   8.056 -0.5681  0.0262  0.2471
  798MOL0     C10023   2.815  -0.289   8.134  0.7452 -0.9129  0.9620
  798MOL0     C10024   2.742  -0.410   8.101  0.4236  0.4582 -0.0746
  798MOL0     C10025   2.589  -0.402   8.121 -0.3186 -0.1758 -0.4527
  798MOL0     C10026   2.515  -0.535   8.092  0.0922  0.0531 -0.3543
  798MOL0     C10027   2.451  -0.540   7.948  1.0083 -0.4544 -0.7575
  798MOL0     C10028   2.398  -0.681   7.911  0.7862 -0.4920 -0.3591
  798MOL0     C10029   2.512  -0.776   7.891 -0.1129 -0.6055  0.2535
  798MOL0     C10030   2.472  -0.903   7.830 -0.0960 -0.5806  0.2197
  798MOL0    Cl10031   2.353  -1.000   7.934  0.0533  0.2709  0.2183
  798MOL0     C10032   2.891  -0.014   8.177  0.4178 -0.5471  0.2896
  798MOL0     C10033   2.919   0.124   8.194  0.4824  0.6170 -0.4198
  798MOL0     O10034   2.697   0.451   8.132 -0.5058  0.2913  0.5081
  798MOL0     C10035   3.013   0.618   8.132  0.1661 -0.9658  0.1902
  798MOL0     C10036   3.081   0.735   8.137 -0.6304 -0.1115 -0.7067
  798MOL0     N10037   3.545   0.778   7.886 -0.5780  0.8851  0.9903
  798MOL0     N10038   3.516   0.796   7.757  0.0276 -0.1985 -0.7996
  798MOL0     C10039   2.741   1.245   6.682 -1.2734  0.1565  0.4952
  798MOL0     C10040   2.623   1.251   6.603 -0.1009  0.2596  0.7571
  798MOL0     C10041   2.285   1.236   6.328  0.0301  0.6127 -0.4003
  798MOL0     C10042   2.228   1.166   6.219 -0.4196 -0.4438  1.4802
  798MOL0     C10043   2.111   1.208   6.162  0.3365 -0.6342  0.5062
  798MOL0     C10044   2.046   1.321   6.212  0.3933  0.2307  0.2794
  798MOL0     O10045   1.921   1.351   6.160 -0.3367 -0.2151 -0.3630
  798MOL0     C10046   1.850   1.471   6.183  0.5939  0.6305  0.9650
  798MOL0     C10047   1.907   1.591   6.111  0.3768 -0.4846  0.0273
  798MOL0     C10048   1.908   1.570   5.961  0.4070 -0.2875  0.6674
  798MOL0     C10049   2.034   1.495   5.917 -0.5813  0.4742  1.2510
  798MOL0     C10050   2.063   1.504   5.774 -0.1941  1.1731 -0.0690
  798MOL0     C10051   2.085   1.500   5.657  0.1260 -0.8502 -0.1062
  798MOL0     C10052   2.106   1.403   6.312 -0.0327  0.7678 -0.2132
  798MOL0     C10053   2.226   1.358   6.373 -0.1064 -0.2589  0.2239
  798MOL0     C10054   2.264   1.431   6.505 -0.4565 -0.2305 -0.0260
  798MOL0     H10055   2.485   0.955   6.668  0.2859 -0.6499 -0.0115
  798MOL0     H10056   2.661   0.938   6.808  2.1792 -0.0424 -1.7336
  798MOL0     H10057   2.859   0.933   6.924 -4.1138  0.5315 -0.4154
  798MOL0     H10058   2.787   1.059   7.022 -0.1354  0.8937  0.8019
  798MOL0     H10059   3.078   0.968   6.979  0.6276  0.0882  1.4597
  798MOL0     H10060   3.068   1.138   6.976  0.6053 -0.6271 -1.4989
  798MOL0     H10061   2.950   1.112   7.205  1.8040  1.7021  0.2021
  798MOL0     H10062   2.965   0.937   7.201 -3.7273  0.6966 -2.7087
  798MOL0     H10063   3.210   0.957   7.170  0.6209 -2.0162  1.5472
  798MOL0     H10064   3.197   1.134   7.192  0.4901 -0.6768 -1.1893
  798MOL0     H10065   3.107   0.910   7.400  3.1120 -2.8654 -1.3029
  798MOL0     H10066   3.108   1.083   7.438 -0.7365  0.6665 -0.8773
  798MOL0     H10067   3.342   0.897   7.354  1.7823  0.2946  1.8481
  798MOL0     H10068   3.359   1.067   7.365  2.6094 -1.9348  0.3957
  798MOL0     H10069   3.287   0.865   7.574  0.8223 -0.4766 -0.5969
  798MOL0     H10070   3.254   1.040   7.610  3.2049  3.7029 -0.6170
  798MOL0     H10071   3.521   0.911   7.531  0.6773 -0.6394  1.0949
  798MOL0     H10072   3.503   1.072   7.584  1.1152 -0.1091 -0.1925
  798MOL0     H10073   3.504   1.104   7.867  1.0794  0.3920  1.6071
  798MOL0     H10074   3.595   1.038   8.115  0.7894 -0.1967  1.1468
  798MOL0     H10075   3.649   0.880   8.138 -1.1842  0.4998  2.8478
  798MOL0     H10076   3.425   0.799   8.212  2.3877 -0.8222 -1.0556
  798MOL0     H10077   3.478   0.951   8.289  0.4990  1.6172 -0.8525
  798MOL0     H10078   3.349   1.072   8.116  2.7458 -0.4840 -0.5116
  798MOL0     H10079   3.306   0.920   8.056  2.3408  1.8451 -0.9881
  798MOL0     H10080   3.224   0.866   8.305  2.8023  0.4027 -0.5022
  798MOL0     H10081   3.238   1.042   8.325  1.4587  1.5928 -1.6684
  798MOL0     H10082   2.822   0.938   8.193 -2.2706 -1.3642  1.6721
  798MOL0     H10083   2.626   0.697   8.045 -1.6398  0.8002 -0.3135
  798MOL0     H10084   2.631   0.835   8.169  0.4284 -0.5809 -0.9229
  798MOL0     H10085   2.632   0.667   8.219  1.9956 -1.4684 -0.8415
  798MOL0     H10086   2.726   0.265   7.955  1.3887  0.1053 -0.2821
  798MOL0     H10087   2.662   0.034   7.929 -0.3333 -0.0426  0.2209
  798MOL0     H10088   2.923  -0.290   8.113  0.5263  2.6686 -1.0576
  798MOL0     H10089   2.793  -0.268   8.239  0.1732  0.7199  0.5317
  798MOL0     H10090   2.757  -0.438   7.996  0.9273 -0.2864  0.1864
  798MOL0     H10091   2.779  -0.497   8.157 -1.9788 -1.5718 -1.4368
  798MOL0     H10092   2.541  -0.326   8.059 -1.8287 -1.0396 -0.3937
  798MOL0     H10093   2.561  -0.377   8.224 -0.2086 -1.0253 -0.2098
  798MOL0     H10094   2.436  -0.543   8.167  2.4008  0.1085  2.2909
  798MOL0     H10095   2.578  -0.623   8.109 -1.8893 -0.9817  2.4751
  798MOL0     H10096   2.363  -0.475   7.954 -0.7624 -2.8028  1.3110
  798MOL0     H10097   2.537  -0.517   7.885  3.3766 -2.9012  1.3244
  798MOL0     H10098   2.338  -0.685   7.820  3.0650 -3.1124 -1.9333
  798MOL0     H10099   2.339  -0.719   7.994  1.6422  0.6883  0.8390
  798MOL0     H10100   2.563  -0.804   7.983  1.5945 -2.8195 -1.2777
  798MOL0     H10101   2.594  -0.739   7.828 -1.4967  0.3751 -1.0528
  798MOL0     H10102   2.566  -0.955   7.811 -1.1617 -3.0870  1.3856
  798MOL0     H10103   2.437  -0.893   7.727  0.0414  2.1887  0.3553
  798MOL0     H10104   2.933  -0.087   8.245 -1.2250 -0.8548  1.0172
  798MOL0     H10105   2.978   0.163   8.276  3.2011 -0.2552 -1.8716
  798MOL0     H10106   3.076   0.530   8.122  2.2908  0.1687  2.5416
  798MOL0     H10107   3.189   0.726   8.125 -0.3865  0.4191  0.8710
  798MOL0     H10108   2.806   1.332   6.674  1.0978 -1.3989  1.5595
  798MOL0     H10109   2.624   1.342   6.545  1.8269  0.4357  1.0230
  798MOL0     H10110   2.283   1.079   6.186  0.6808  0.6464  0.3842
  798MOL0     H10111   2.067   1.159   6.075 -1.1957  0.4582  0.6275
  798MOL0     H10112   1.746   1.465   6.150  1.5347  1.2401 -2.5320
  798MOL0     H10113   1.847   1.495   6.289  1.4449  2.4895  0.6215
  798MOL0     H10114   2.004   1.628   6.145 -0.6894  1.8616  0.7518
  798MOL0     H10115   1.845   1.681   6.111  0.3940 -0.4566 -0.9604
  798MOL0     H10116   1.821   1.508   5.938  1.4559 -0.2921 -4.4110
  798MOL0     H10117   1.886   1.663   5.908  0.3776 -2.1124 -2.7766
  798MOL0     H10118   2.022   1.388   5.936 -2.4124  0.3105 -0.5261
  798MOL0     H10119   2.124   1.524   5.972  0.9659 -1.6380 -0.0086
  798MOL0     H10120   2.096   1.472   5.554  0.7984  0.6879 -0.4743
  798MOL0     H10121   2.053   1.487   6.358 -2.4265 -1.1138  0.6793
  798MOL0     H10122   2.207   1.377   6.581  1.6427 -2.9569 -0.2473
  798MOL0     H10123   2.366   1.423   6.544 -1.4118 -0.2775  2.6453
  798MOL0     H10124   2.242   1.538   6.500 -1.6899 -0.2851  2.5265
  799MOL0     O10125   2.367   2.770   6.685  0.4018  0.2920 -0.4320
  799MOL0     C10126   2.383   2.881   6.634  0.2120 -0.0717 -0.3556
  799MOL0     O10127   2.275   2.972   6.595  0.3626 -0.0401  0.1113
  799MOL0     C10128   2.157   2.938   6.655 -0.2258 -0.0343  1.4489
  799MOL0     C10129   2.048   2.919   6.579 -0.6232 -0.5217  1.0718
  799MOL0     C10130   1.921   2.914   6.631 -0.0713 -0.4760 -0.3476
  799MOL0     C10131   1.897   2.938   6.770  0.1904  0.1702  0.0483
  799MOL0     O10132   1.772   2.950   6.829 -0.4483 -0.1193  0.0569
  799MOL0     C10133   1.690   3.060   6.774 -0.1519  0.7070 -0.4962
  799MOL0     C10134   1.625   3.150   6.876  0.3375  1.1061 -1.0148
  799MOL0     C10135   1.576   3.280   6.811 -0.0771 -0.5573  0.0639
  799MOL0     C10136   1.477   3.350   6.907  0.0408  0.9256  0.0438
  799MOL0     C10137   1.393   3.461   6.843 -0.5534  0.0912  0.2982
  799MOL0     C10138   1.248   3.479   6.899 -0.8673  0.7600  0.7607
  799MOL0     C10139   1.179   3.611   6.851  0.3625  1.7921 -0.3938
  799MOL0     C10140   1.125   3.609   6.705 -0.3201  0.6077 -0.4748
  799MOL0     N10141   1.020   3.711   6.683 -0.0175  0.4063  0.0068
  799MOL0     C10142   0.882   3.690   6.702  0.6268  0.4750  0.4727
  799MOL0     C10143   0.817   3.801   6.657 -0.0647 -0.4518 -0.5835
  799MOL0     C10144   0.667   3.827   6.653 -0.2935  1.1704  0.5694
  799MOL0     C10145   0.609   3.808   6.520 -0.0701  0.0917 -0.9966
  799MOL0     C10146   0.601   3.663   6.473  0.1088 -0.1975 -1.0492
  799MOL0     C10147   0.527   3.646   6.342 -1.0096  0.4632  0.9762
  799MOL0     O10148   0.402   3.706   6.331 -0.1950  0.1815  0.8824
  799MOL0     C10149   0.329   3.690   6.216  0.3382  0.1151  0.1562
  799MOL0     C10150   0.194   3.729   6.237 -0.8413 -0.0256  0.3614
  799MOL0     C10151   0.100   3.718   6.136  0.2294  0.6744  0.7487
  799MOL0     C10152  -0.027   3.778   6.165  0.0863 -0.1409  0.9550
  799MOL0     C10153   0.138   3.674   6.013  0.4398  1.0619 -0.0320
  799MOL0     C10154   0.050   3.666   5.910  0.0420 -0.5971  0.3636
  799MOL0     O10155   0.036   3.551   5.844 -0.6412  0.2620  0.2086
  799MOL0     C10156  -0.072   3.539   5.762 -0.0363 -0.0303 -1.2265
  799MOL0     C10157  -0.044   3.515   5.630  0.0460  0.0936  0.4367
  799MOL0     C10158  -0.147   3.504   5.529 -0.0252  0.0945  0.1445
  799MOL0     C10159  -0.278   3.521   5.564  0.0857 -0.8205  0.1436
  799MOL0     O10160  -0.388   3.533   5.482 -0.2332  0.3673 -0.2076
  799MOL0     C10161  -0.379   3.449   5.373 -0.0227 -0.2083  0.3995
  799MOL0     C10162  -0.511   3.433   5.310  0.1151 -0.3502 -0.2740
  799MOL0     C10163  -0.548   3.558   5.228 -0.2290 -0.5087  0.2306
  799MOL0     C10164  -0.694   3.579   5.209  0.1486  0.9161 -0.1110
  799MOL0     C10165  -0.726   3.700   5.131  0.4560 -0.1029  0.0864
  799MOL0     C10166  -0.732   3.661   4.981 -0.1802 -0.4088 -1.1727
  799MOL0     C10167  -0.712   3.788   4.895 -0.3227  0.6073 -0.0578
  799MOL0     C10168  -0.772   3.761   4.757  0.0348 -0.0814  0.0042
  799MOL0    Cl10169  -0.668   3.630   4.695  0.2457  0.3676 -0.0927
  799MOL0     C10170  -0.308   3.550   5.697  0.6519  0.3855  0.0288
  799MOL0     C10171  -0.209   3.561   5.793 -0.1788  0.3504  0.0236
  799MOL0     O10172  -0.010   3.769   5.887  0.0627 -0.5486  0.1942
  799MOL0     C10173   0.265   3.621   5.992  0.4264 -0.7220 -0.0188
  799MOL0     C10174   0.365   3.638   6.092  0.4886  0.2175  0.8003
  799MOL0     N10175   0.915   3.892   6.613  0.4709  0.4153 -0.1809
  799MOL0     N10176   1.030   3.835   6.624 -0.0240  0.4224 -0.4845
  799MOL0     C10177   2.015   2.937   6.852 -0.2886  0.6533 -0.3286
  799MOL0     C10178   2.139   2.933   6.795  0.5751  0.2729  0.1908
  799MOL0     C10179   2.516   2.914   6.610 -0.3419 -0.7598  0.8598
  799MOL0     C10180   2.546   2.985   6.487 -0.3175 -0.4317 -0.2271
  799MOL0     C10181   2.679   3.009   6.448 -0.8280  0.3845 -0.0153
  799MOL0     C10182   2.790   2.968   6.526  0.6540  0.4727 -0.2067
  799MOL0     O10183   2.908   2.990   6.464 -0.1229 -0.3793 -0.0940
  799MOL0     C10184   3.013   3.015   6.561 -0.1086  0.6459  1.2690
  799MOL0     C10185   3.111   3.130   6.514 -0.2282 -0.3100 -0.2434
  799MOL0     C10186   3.045   3.273   6.553 -0.6951  0.2301  0.3522
  799MOL0     C10187   2.942   3.329   6.454  0.5283 -0.3126 -0.3880
  799MOL0     C10188   2.995   3.410   6.349  0.7336 -0.3552  0.0284
  799MOL0     C10189   3.040   3.473   6.252  0.0585  0.3651  0.0609
  799MOL0     C10190   2.757   2.917   6.649  0.2700  0.1539  0.0311
  799MOL0     C10191   2.625   2.884   6.693  0.9356  0.8566 -0.1407
  799MOL0     C10192   2.622   2.823   6.837  0.8682 -0.2029  0.1791
  799MOL0     H10193   2.074   2.925   6.473  0.9543 -0.1055  1.4450
  799MOL0     H10194   1.827   2.910   6.577  0.8149  2.7567 -2.4125
  799MOL0     H10195   1.625   3.014   6.699 -1.5862  1.3436  0.3017
  799MOL0     H10196   1.763   3.119   6.718  2.2338  0.5723  2.2564
  799MOL0     H10197   1.548   3.088   6.922  0.7497 -0.3663 -2.2223
  799MOL0     H10198   1.691   3.176   6.959  1.5886  0.2528 -1.7142
  799MOL0     H10199   1.662   3.343   6.788 -0.1664  0.5785  2.4987
  799MOL0     H10200   1.529   3.253   6.716  0.2688 -2.3246  0.3494
  799MOL0     H10201   1.414   3.264   6.931  2.1395 -1.2380 -1.6109
  799MOL0     H10202   1.520   3.380   7.003 -2.7302  4.9456  0.2524
  799MOL0     H10203   1.398   3.434   6.737 -1.0163 -1.1663  0.5689
  799MOL0     H10204   1.450   3.552   6.859  0.2953 -0.4219  0.2664
  799MOL0     H10205   1.185   3.390   6.898  0.1616 -0.0051  1.8284
  799MOL0     H10206   1.252   3.490   7.008  0.6743  3.1231  0.5489
  799MOL0     H10207   1.253   3.692   6.862  1.4682  0.6102  1.3439
  799MOL0     H10208   1.097   3.638   6.918  2.7895  1.9090  2.7630
  799MOL0     H10209   1.217   3.626   6.647  0.5562  1.9536  1.2033
  799MOL0     H10210   1.082   3.511   6.684  0.1120 -0.0581  1.4862
  799MOL0     H10211   0.834   3.598   6.732  2.7989 -0.8651  0.0206
  799MOL0     H10212   0.650   3.927   6.692 -0.5254  0.5004  2.2833
  799MOL0     H10213   0.629   3.756   6.728  0.5201  1.7306  1.5380
  799MOL0     H10214   0.509   3.852   6.524  0.2905  0.8414  0.5370
  799MOL0     H10215   0.674   3.866   6.454  1.5451 -1.1244 -0.5219
  799MOL0     H10216   0.706   3.633   6.460  0.1251 -0.7386  0.1797
  799MOL0     H10217   0.558   3.599   6.551 -2.3016  0.0284 -2.1116
  799MOL0     H10218   0.594   3.692   6.269 -1.2882  0.9484  1.0215
  799MOL0     H10219   0.524   3.541   6.310 -0.0718  0.1610  1.8566
  799MOL0     H10220   0.168   3.774   6.332  3.7523  0.9361  1.4190
  799MOL0     H10221  -0.116   3.734   6.118  0.4777  1.3998 -1.4288
  799MOL0     H10222  -0.030   3.877   6.117  2.7992 -1.2674 -1.9066
  799MOL0     H10223  -0.039   3.787   6.273 -0.8024  1.1414  0.7802
  799MOL0     H10224   0.060   3.509   5.600 -0.4553 -2.7498 -1.0314
  799MOL0     H10225  -0.118   3.481   5.428  0.2485  1.5150 -0.1268
  799MOL0     H10226  -0.301   3.480   5.303  1.0137  1.4819  2.1883
  799MOL0     H10227  -0.351   3.346   5.399  0.1863 -0.0122  0.9662
  799MOL0     H10228  -0.511   3.345   5.245 -2.9107 -0.3020 -0.5075
  799MOL0     H10229  -0.578   3.408   5.392 -2.3069 -1.5088 -2.4371
  799MOL0     H10230  -0.494   3.550   5.133 -0.7707  1.7111 -0.3113
  799MOL0     H10231  -0.524   3.649   5.283 -1.2598 -1.0777  1.6943
  799MOL0     H10232  -0.742   3.574   5.307 -0.7714  0.0802 -0.5989
  799MOL0     H10233  -0.739   3.493   5.159 -3.1919  2.3969  0.0979
  799MOL0     H10234  -0.823   3.735   5.166  0.1054 -1.5744  0.6633
  799MOL0     H10235  -0.651   3.777   5.148 -0.5965  0.7081  1.2317
  799MOL0     H10236  -0.825   3.607   4.960  1.6585 -3.0493 -3.3324
  799MOL0     H10237  -0.661   3.579   4.968  0.0108 -0.7485  1.4190
  799MOL0     H10238  -0.603   3.799   4.892 -0.3013  0.5930  0.5708
  799MOL0     H10239  -0.755   3.877   4.941  0.6086  0.7609  0.5396
  799MOL0     H10240  -0.784   3.852   4.698  0.1552 -0.6246 -0.8704
  799MOL0     H10241  -0.870   3.718   4.785  0.7682 -1.7836  0.0979
  799MOL0     H10242  -0.412   3.581   5.710  0.4877  0.2381 -0.8816
  799MOL0     H10243  -0.250   3.600   5.886 -1.3507  0.4671 -0.5218
  799MOL0     H10244   0.292   3.568   5.901  2.1529  0.8834 -0.5335
  799MOL0     H10245   0.462   3.594   6.070 -0.0024 -1.0771  1.1019
  799MOL0     H10246   2.002   2.946   6.959  1.4644  5.2971 -0.2626
  799MOL0     H10247   2.234   2.928   6.847  2.9797 -2.8110 -3.9286
  799MOL0     H10248   2.475   3.028   6.417  1.9298 -1.2943 -3.2264
  799MOL0     H10249   2.700   3.068   6.360 -0.4881 -0.6782 -0.6529
  799MOL0     H10250   2.986   3.036   6.665  2.5830  1.2287  1.9228
  799MOL0     H10251   3.069   2.923   6.578 -1.4172  0.1762  3.5720
  799MOL0     H10252   3.132   3.119   6.407 -1.2252  0.0728 -0.4952
  799MOL0     H10253   3.206   3.125   6.567 -0.0501  1.8002 -0.2466
  799MOL0     H10254   3.000   3.268   6.652 -1.8237 -1.6108 -0.1999
  799MOL0     H10255   3.130   3.342   6.561  0.8083 -1.0582 -2.7668
  799MOL0     H10256   2.874   3.388   6.517 -1.5612 -1.9353 -1.0222
  799MOL0     H10257   2.895   3.243   6.407  1.3980 -1.5436  0.8955
  799MOL0     H10258   3.084   3.535   6.176 -2.5738  2.3665  0.0333
  799MOL0     H10259   2.836   2.887   6.716 -2.1272 -1.8806  2.1794
  799MOL0     H10260   2.521   2.833   6.876  0.1490 -3.1607 -0.6378
  799MOL0     H10261   2.643   2.715   6.838  1.8130 -0.0402 -0.6033
  799MOL0     H10262   2.701   2.873   6.895 -0.0331 -0.5861  1.8064
  800MOL0     O10263   6.461   4.534   9.283  0.1231  0.4801  0.6910
  800MOL0     C10264   6.445   4.650   9.240 -0.1706  0.6838  0.1482
  800MOL0     O10265   6.325   4.707   9.205 -0.7732  0.1863  0.2589
  800MOL0     C10266   6.221   4.620   9.187 -0.7518 -0.2031 -0.3411
  800MOL0     C10267   6.125   4.598   9.282 -0.2625  0.7362 -0.2079
  800MOL0     C10268   6.026   4.501   9.260  0.5405  0.3849 -0.4705
  800MOL0     C10269   6.019   4.425   9.135  0.5982  0.7050 -0.0285
  800MOL0     O10270   5.926   4.330   9.110 -0.2267  0.2828 -0.1102
  800MOL0     C10271   5.869   4.261   9.217  0.1348 -0.5724  1.0790
  800MOL0     C10272   5.800   4.151   9.137  0.1107  0.2313  0.3102
  800MOL0     C10273   5.721   4.054   9.224 -1.1502 -0.3488  0.0915
  800MOL0     C10274   5.597   4.122   9.271 -0.2564 -1.1714 -0.3238
  800MOL0     C10275   5.517   4.040   9.372  0.7255  0.2280 -0.1573
  800MOL0     C10276   5.366   4.066   9.374  0.2418 -0.5311  0.3143
  800MOL0     C10277   5.293   4.034   9.509  0.2773  0.8962  0.0822
  800MOL0     C10278   5.138   4.070   9.522  0.3005 -0.5880  0.1237
  800MOL0     N10279   5.063   4.040   9.402  0.8545 -0.2721 -0.1954
  800MOL0     C10280   5.050   4.117   9.291 -0.1512 -0.2163 -0.1852
  800MOL0     C10281   4.990   4.033   9.198 -0.9109 -0.5509  0.2117
  800MOL0     C10282   4.963   4.083   9.061 -0.2966  0.5148  0.4978
  800MOL0     C10283   4.847   4.013   8.993  0.6737 -0.4765  0.2394
  800MOL0     C10284   4.713   4.046   9.056  0.2361 -0.5576  0.4903
  800MOL0     C10285   4.593   4.008   8.969  1.3451  0.1394 -0.1776
  800MOL0     O10286   4.602   4.053   8.832 -0.6840  0.4341  0.2257
  800MOL0     C10287   4.583   4.180   8.792 -0.5392  0.5391 -0.8789
  800MOL0     C10288   4.616   4.200   8.658  0.0339 -0.4671 -0.4900
  800MOL0     C10289   4.583   4.320   8.591  0.1105 -0.5173  0.1138
  800MOL0     C10290   4.622   4.331   8.444 -0.7061  0.2176 -0.6560
  800MOL0     C10291   4.519   4.417   8.666 -0.3264 -0.2006  0.3564
  800MOL0     C10292   4.462   4.548   8.606 -0.0709 -0.2992 -0.3216
  800MOL0     O10293   4.343   4.601   8.652  0.0212 -0.7307 -0.2868
  800MOL0     C10294   4.305   4.720   8.585 -0.1077  0.2799  0.4481
  800MOL0     C10295   4.174   4.746   8.554 -0.2848  0.0838  0.2944
  800MOL0     C10296   4.120   4.871   8.523 -0.1704  0.0878  0.0530
  800MOL0     C10297   4.207   4.987   8.519  0.1385 -0.6957  0.7059
  800MOL0     O10298   4.147   5.107   8.504  0.2839 -0.3955 -0.9196
  800MOL0     C10299   4.177   5.215   8.593 -0.1437 -0.0326 -0.5202
  800MOL0     C10300   4.149   5.346   8.520  0.0161 -0.3938  0.0115
  800MOL0     C10301   4.156   5.464   8.617 -0.5935 -1.2683 -0.0963
  800MOL0     C10302   4.288   5.486   8.695 -0.0370  0.4558 -0.5296
  800MOL0     C10303   4.278   5.620   8.772 -0.1533 -0.2018 -0.8827
  800MOL0     C10304   4.394   5.625   8.875  0.1322 -0.8224  0.4592
  800MOL0     C10305   4.530   5.664   8.801  1.1269 -0.2720  0.5998
  800MOL0     C10306   4.649   5.630   8.884 -0.6185 -0.1544 -0.3514
  800MOL0    Cl10307   4.774   5.613   8.758  0.0156  0.3928  0.2116
  800MOL0     C10308   4.344   4.967   8.549 -0.2112  1.2922  0.1142
  800MOL0     C10309   4.394   4.837   8.577  0.4618 -0.0828 -1.1316
  800MOL0     O10310   4.530   4.604   8.511  0.2402  0.9450  0.3011
  800MOL0     C10311   4.494   4.394   8.805 -0.6495 -0.5318 -0.1670
  800MOL0     C10312   4.523   4.278   8.864 -0.0913 -0.8881  0.0544
  800MOL0     N10313   4.968   3.909   9.259  0.0001 -0.4987  0.1603
  800MOL0     N10314   5.015   3.919   9.375  0.2374  0.3963  0.3846
  800MOL0     C10315   6.112   4.450   9.044 -0.0792  0.2483 -0.2007
  800MOL0     C10316   6.207   4.550   9.062 -0.1778 -0.1996  0.0634
  800MOL0     C10317   6.563   4.739   9.226  0.9011 -0.2543  0.2511
  800MOL0     C10318   6.545   4.865   9.156 -0.0771 -0.2090 -0.1079
  800MOL0     C10319   6.650   4.951   9.132 -0.6063  0.9318 -0.0054
  800MOL0     C10320   6.780   4.920   9.179 -0.0996 -0.4604 -0.2640
  800MOL0     O10321   6.888   4.998   9.154  0.3982  0.1116  0.2858
  800MOL0     C10322   6.923   4.998   9.012 -0.7551 -0.3028 -0.1352
  800MOL0     C10323   6.948   5.141   8.953  0.3771  0.4963  0.3535
  800MOL0     C10324   7.048   5.220   9.037  0.2305  0.4880  0.3673
  800MOL0     C10325   7.078   5.359   8.988  0.1126 -0.1136 -1.0513
  800MOL0     C10326   7.185   5.408   9.066  0.5384 -0.1792  0.2369
  800MOL0     C10327   7.278   5.433   9.136 -0.4243 -0.1477  0.6414
  800MOL0     C10328   6.803   4.794   9.245  0.4682  0.1911  0.2207
  800MOL0     C10329   6.698   4.708   9.273 -0.2121  1.1270 -0.8181
  800MOL0     C10330   6.746   4.575   9.336 -0.6888  0.0514  0.1278
  800MOL0     H10331   6.121   4.668   9.365 -0.2649 -0.0021  0.4344
  800MOL0     H10332   5.947   4.495   9.334  0.6602  3.8066  0.0814
  800MOL0     H10333   5.803   4.331   9.270 -1.8971 -0.3431 -1.5454
  800MOL0     H10334   5.951   4.220   9.278 -0.3028 -0.8873  1.4601
  800MOL0     H10335   5.722   4.193   9.073  0.1769 -3.0501 -2.2033
  800MOL0     H10336   5.881   4.099   9.085  1.2449  0.9909  1.2731
  800MOL0     H10337   5.694   3.965   9.167 -3.2482 -1.3258  2.4276
  800MOL0     H10338   5.774   4.020   9.313  0.5191  0.7457 -0.4370
  800MOL0     H10339   5.628   4.212   9.325  0.0690 -1.4351 -0.0659
  800MOL0     H10340   5.529   4.156   9.193 -0.4773  3.1858  1.5095
  800MOL0     H10341   5.552   4.049   9.475 -3.8057 -1.4166  1.7855
  800MOL0     H10342   5.526   3.936   9.337 -0.9833 -0.3784  1.0645
  800MOL0     H10343   5.344   4.171   9.350 -0.0741 -0.7952 -0.5905
  800MOL0     H10344   5.328   4.011   9.288  0.0600  1.4687 -0.9527
  800MOL0     H10345   5.342   4.080   9.595 -0.8537  1.7992  0.2835
  800MOL0     H10346   5.304   3.927   9.528  1.9465  0.8803 -0.8273
  800MOL0     H10347   5.107   4.015   9.611  0.5886 -1.3088 -0.2137
  800MOL0     H10348   5.115   4.174   9.547 -0.3753 -0.8373  0.5731
  800MOL0     H10349   5.088   4.218   9.279 -3.8049  1.2443 -0.7005
  800MOL0     H10350   5.046   4.060   8.994 -0.6973  0.2423  0.0950
  800MOL0     H10351   4.951   4.192   9.069 -1.1821  0.3368  2.1130
  800MOL0     H10352   4.840   4.048   8.890 -0.8460  3.2667  1.4492
  800MOL0     H10353   4.863   3.906   8.979 -0.4863 -0.7919  1.0927
  800MOL0     H10354   4.713   3.997   9.153 -1.3271 -0.0072  0.7962
  800MOL0     H10355   4.699   4.154   9.071 -2.2584 -0.4175 -2.0365
  800MOL0     H10356   4.589   3.900   8.956  2.6168  0.2405 -1.5956
  800MOL0     H10357   4.498   4.039   9.015  0.8266 -1.7290  0.1109
  800MOL0     H10358   4.668   4.120   8.607 -1.3809 -1.0839 -0.9830
  800MOL0     H10359   4.718   4.382   8.431  1.2691 -3.5700 -2.5121
  800MOL0     H10360   4.544   4.380   8.386 -0.1589  0.0153 -1.5730
  800MOL0     H10361   4.621   4.227   8.410  0.6136 -0.0116 -0.0669
  800MOL0     H10362   4.107   4.662   8.568  0.7700 -0.8569 -0.1631
  800MOL0     H10363   4.017   4.894   8.495  0.2025  1.9440  0.0808
  800MOL0     H10364   4.105   5.201   8.674 -1.3227 -0.8109 -1.6771
  800MOL0     H10365   4.279   5.209   8.632 -0.3620 -0.2745  0.0292
  800MOL0     H10366   4.221   5.363   8.440  0.0275  1.4991  0.3801
  800MOL0     H10367   4.050   5.341   8.473  0.6255 -0.1668 -1.3400
  800MOL0     H10368   4.074   5.448   8.687  0.2855 -1.1201  0.9929
  800MOL0     H10369   4.130   5.559   8.570 -2.2206 -1.6408 -0.0071
  800MOL0     H10370   4.375   5.488   8.629  1.1402 -1.6128  0.8439
  800MOL0     H10371   4.313   5.409   8.769  3.6072 -0.2636 -2.2439
  800MOL0     H10372   4.274   5.708   8.708 -0.7556 -1.1433 -2.1990
  800MOL0     H10373   4.178   5.620   8.817  0.8839 -1.0816  1.5862
  800MOL0     H10374   4.383   5.536   8.937 -2.4947 -0.1754  1.0533
  800MOL0     H10375   4.392   5.712   8.942  1.5177 -0.8320  0.5316
  800MOL0     H10376   4.520   5.771   8.785  3.6209 -0.1249 -0.4530
  800MOL0     H10377   4.533   5.612   8.705 -0.0690 -0.3987  0.6175
  800MOL0     H10378   4.648   5.537   8.942  1.0873  1.4060  2.3921
  800MOL0     H10379   4.689   5.712   8.944 -1.4090 -0.9562  1.3334
  800MOL0     H10380   4.422   5.042   8.559  2.7787 -1.8543  7.2723
  800MOL0     H10381   4.499   4.838   8.604  0.5452  2.7822 -1.3244
  800MOL0     H10382   4.452   4.479   8.857  1.9287  1.1110 -0.6325
  800MOL0     H10383   4.505   4.249   8.967 -0.7298 -0.9231 -0.0616
  800MOL0     H10384   6.104   4.389   8.954 -0.9409 -0.6773  0.4757
  800MOL0     H10385   6.282   4.564   8.985  1.0623 -1.3982  1.0103
  800MOL0     H10386   6.449   4.897   9.116  1.0594  0.8471 -2.1359
  800MOL0     H10387   6.634   5.048   9.086  1.1215  1.6035  0.7032
  800MOL0     H10388   7.010   4.936   8.988  0.0432  0.0753  1.6518
  800MOL0     H10389   6.854   4.953   8.939 -0.4540 -0.5739 -0.2547
  800MOL0     H10390   6.847   5.183   8.952  0.3892  0.5434 -0.7289
  800MOL0     H10391   6.989   5.128   8.852  4.3646  1.3697  1.6685
  800MOL0     H10392   7.017   5.232   9.142 -0.7373 -0.4875  0.2118
  800MOL0     H10393   7.137   5.158   9.022 -1.1256 -1.3912 -0.1763
  800MOL0     H10394   6.988   5.419   9.009  0.6876  1.1241 -1.9678
  800MOL0     H10395   7.091   5.372   8.881 -0.1487  1.8218 -0.8946
  800MOL0     H10396   7.372   5.441   9.188 -0.4731 -1.7969  1.0630
  800MOL0     H10397   6.909   4.774   9.247  0.3764 -0.2643  2.7295
  800MOL0     H10398   6.738   4.508   9.250 -4.1251  0.6336 -0.1625
  800MOL0     H10399   6.851   4.585   9.366 -1.3007  1.9624  1.9175
  800MOL0     H10400   6.694   4.530   9.421  2.4444 -3.1142  0.5929
  801MOL0     O10401  11.497   0.493   7.996  0.4238  0.0762  0.5678
  801MOL0     C10402  11.610   0.493   7.951 -0.5343 -0.1394  0.6321
  801MOL0     O10403  11.637   0.485   7.811  0.6420  0.0858  0.0927
  801MOL0     C10404  11.547   0.501   7.704  0.5635 -0.1111 -0.2919
  801MOL0     C10405  11.438   0.415   7.688 -0.4217 -0.2962  0.4106
  801MOL0     C10406  11.345   0.429   7.587 -0.3526 -0.5742  0.4061
  801MOL0     C10407  11.357   0.539   7.500 -1.2737 -0.8161  0.3018
  801MOL0     O10408  11.282   0.578   7.395 -0.1286 -0.3661  0.0738
  801MOL0     C10409  11.146   0.529   7.380  1.3765 -0.9889 -0.9967
  801MOL0     C10410  11.050   0.618   7.306  0.4652 -0.2648 -0.5293
  801MOL0     C10411  11.027   0.756   7.362  0.2178  0.0185 -0.5318
  801MOL0     C10412  11.003   0.745   7.511 -0.2225  1.0545 -0.3246
  801MOL0     C10413  10.961   0.883   7.570 -0.2979 -0.2892  0.1910
  801MOL0     C10414  10.971   0.898   7.719  0.7288  0.0623 -0.6740
  801MOL0     C10415  10.876   0.808   7.777  0.6654 -0.3265 -0.0725
  801MOL0     C10416  10.847   0.851   7.925 -0.1783 -0.3289 -0.0392
  801MOL0     N10417  10.770   0.742   7.989 -0.3187  0.0669  0.5917
  801MOL0     C10418  10.826   0.658   8.074 -0.6872 -0.1585  0.1961
  801MOL0     C10419  10.738   0.559   8.088  0.5276 -0.2582 -0.1708
  801MOL0     C10420  10.759   0.444   8.182 -0.6095 -0.6823  0.3849
  801MOL0     C10421  10.894   0.368   8.154  0.6704  0.2179  0.3748
  801MOL0     C10422  10.915   0.244   8.243 -0.1082 -0.4514  0.0534
  801MOL0     C10423  10.996   0.129   8.181  0.6046 -0.0948  0.6890
  801MOL0     O10424  10.971   0.002   8.238  0.3212  0.4253 -0.9849
  801MOL0     C10425  10.995  -0.030   8.365 -1.0930  0.3172  0.3019
  801MOL0     C10426  11.030   0.049   8.469  0.4080 -0.1215 -0.7486
  801MOL0     C10427  11.061  -0.009   8.599 -0.2474  1.1390 -0.8200
  801MOL0     C10428  11.121   0.073   8.703 -0.3239  0.0266 -0.3021
  801MOL0     C10429  11.047  -0.158   8.618  0.9068 -0.5632  0.3565
  801MOL0     C10430  11.078  -0.222   8.750  0.3993  0.4197 -0.2487
  801MOL0     O10431  11.107  -0.158   8.856  0.1120  0.9221 -0.2221
  801MOL0     C10432  11.161  -0.230   8.959 -0.3524 -0.2133 -0.3969
  801MOL0     C10433  11.114  -0.220   9.095  0.5756  0.7261 -0.5167
  801MOL0     C10434  11.179  -0.282   9.197  0.3773  0.1299 -0.6723
  801MOL0     C10435  11.300  -0.351   9.173 -0.1993 -0.5467  0.1354
  801MOL0     O10436  11.374  -0.405   9.269 -0.1414  0.0519  0.0014
  801MOL0     C10437  11.375  -0.353   9.399  0.8543  0.0013 -0.1393
  801MOL0     C10438  11.469  -0.449   9.471 -1.0007  0.6525 -1.0610
  801MOL0     C10439  11.526  -0.410   9.611 -0.8162 -0.0912  0.2543
  801MOL0     C10440  11.420  -0.446   9.711 -0.5020 -0.3718 -0.1693
  801MOL0     C10441  11.447  -0.589   9.778  0.2634 -0.8972  0.5753
  801MOL0     C10442  11.357  -0.606   9.889 -0.0877 -0.1195  0.3646
  801MOL0     C10443  11.357  -0.754   9.938 -0.4021 -0.2134 -0.0199
  801MOL0     C10444  11.282  -0.787  10.072 -0.6390  0.5619 -0.0339
  801MOL0    Cl10445  11.106  -0.724  10.049  0.0506  0.1090 -0.1126
  801MOL0     C10446  11.360  -0.348   9.042 -0.4148 -0.3473 -1.8780
  801MOL0     C10447  11.282  -0.300   8.937  0.5015  0.5995  0.1081
  801MOL0     O10448  11.037  -0.335   8.754  0.1676  0.2468  0.5918
  801MOL0     C10449  11.019  -0.230   8.505 -0.4458 -0.2191 -0.2850
  801MOL0     C10450  11.002  -0.166   8.387  0.0498  0.4620  0.2750
  801MOL0     N10451  10.633   0.572   8.007 -0.2217 -0.4192 -0.1429
  801MOL0     N10452  10.648   0.693   7.942 -0.0886  1.1095 -0.3558
  801MOL0     C10453  11.471   0.625   7.510  0.0752  0.2150  0.0862
  801MOL0     C10454  11.565   0.608   7.609 -0.4705 -0.1431 -0.5268
  801MOL0     C10455  11.729   0.486   8.038  1.2552 -0.5809 -0.2232
  801MOL0     C10456  11.850   0.437   7.989  0.1526  0.8566  0.7801
  801MOL0     C10457  11.970   0.455   8.064 -0.4096 -0.4233  0.2013
  801MOL0     C10458  11.977   0.506   8.193  0.4914 -0.2291 -0.1522
  801MOL0     O10459  12.095   0.510   8.260  0.6216  0.2024 -1.3456
  801MOL0     C10460  12.082   0.528   8.404  0.5044 -0.1870  0.2725
  801MOL0     C10461  12.213   0.512   8.473 -0.3840 -0.7042  0.0939
  801MOL0     C10462  12.328   0.597   8.432  0.0900  0.2545 -0.3908
  801MOL0     C10463  12.364   0.718   8.514 -0.2788 -0.4093  0.1454
  801MOL0     C10464  12.479   0.797   8.469  0.2326  1.1790  0.4144
  801MOL0     C10465  12.565   0.877   8.440 -0.4737 -0.0329 -0.0674
  801MOL0     C10466  11.861   0.548   8.234  0.8457  0.4886  0.4595
  801MOL0     C10467  11.734   0.544   8.166  0.3410 -0.2286 -0.0456
  801MOL0     C10468  11.616   0.594   8.244 -0.5311 -0.7322 -0.3337
  801MOL0     H10469  11.418   0.322   7.741 -1.8440 -0.4925 -0.4029
  801MOL0     H10470  11.251   0.375   7.580 -0.2120 -0.7849  0.1153
  801MOL0     H10471  11.100   0.507   7.477  2.7988  2.7768  0.7392
  801MOL0     H10472  11.157   0.436   7.324  1.3840  0.1530 -2.9881
  801MOL0     H10473  11.070   0.618   7.199  0.8392 -4.2539 -0.6021
  801MOL0     H10474  10.960   0.556   7.319  2.1971 -2.7030  0.7620
  801MOL0     H10475  11.117   0.819   7.353  0.4687  0.1937  2.3464
  801MOL0     H10476  10.945   0.810   7.314  0.5552  2.0847  1.0396
  801MOL0     H10477  10.924   0.675   7.539  1.8937 -0.8159  1.2791
  801MOL0     H10478  11.096   0.714   7.559 -0.2126  2.3359  0.5145
  801MOL0     H10479  10.857   0.909   7.547 -0.0210  0.0355 -0.7575
  801MOL0     H10480  11.023   0.962   7.527 -0.7499 -0.3453 -0.5857
  801MOL0     H10481  11.070   0.871   7.755  0.7452  2.0567  0.9601
  801MOL0     H10482  10.946   0.998   7.756  0.1940 -0.8409  1.5922
  801MOL0     H10483  10.925   0.711   7.774 -1.8443 -1.7139  1.2386
  801MOL0     H10484  10.782   0.801   7.721  1.8280 -3.3941 -1.8633
  801MOL0     H10485  10.941   0.861   7.981  0.2831  1.0957 -1.0130
  801MOL0     H10486  10.784   0.940   7.928 -0.6434 -0.6666  2.7416
  801MOL0     H10487  10.928   0.657   8.113  0.1432 -3.4016 -1.6971
  801MOL0     H10488  10.688   0.367   8.150  2.9214 -3.8492 -0.4633
  801MOL0     H10489  10.748   0.491   8.281  0.2455 -0.7633  0.5246
  801MOL0     H10490  10.904   0.347   8.047  2.6023  0.8061  0.4084
  801MOL0     H10491  10.979   0.435   8.168  1.4797 -0.4120 -1.2666
  801MOL0     H10492  10.976   0.277   8.328 -1.7706  2.1630  0.3731
  801MOL0     H10493  10.819   0.207   8.279  0.3215 -2.0545 -0.3647
  801MOL0     H10494  10.977   0.118   8.074  0.0498  1.3555  0.6129
  801MOL0     H10495  11.104   0.150   8.181  0.4349  1.3211 -2.1738
  801MOL0     H10496  11.034   0.157   8.474  1.4949 -0.2050  0.9038
  801MOL0     H10497  11.044   0.082   8.779 -1.7757 -3.5746 -1.1288
  801MOL0     H10498  11.162   0.170   8.672 -0.0624 -0.1524 -0.5298
  801MOL0     H10499  11.209   0.028   8.750  0.7675  0.7747 -1.5524
  801MOL0     H10500  11.019  -0.180   9.129  1.1407  0.8308  1.0300
  801MOL0     H10501  11.140  -0.288   9.298  2.7174  0.3878  0.3150
  801MOL0     H10502  11.393  -0.246   9.407 -1.6562  0.5328 -0.7993
  801MOL0     H10503  11.278  -0.373   9.445  0.8521 -2.3154 -0.9877
  801MOL0     H10504  11.409  -0.539   9.486 -0.4324  0.6728  2.0278
  801MOL0     H10505  11.559  -0.462   9.411  0.8136  2.2263  1.1465
  801MOL0     H10506  11.548  -0.303   9.616  0.6414 -0.3595  0.0147
  801MOL0     H10507  11.611  -0.473   9.638 -1.7861 -0.4151  2.8241
  801MOL0     H10508  11.322  -0.446   9.663 -0.5817 -0.0382 -0.0189
  801MOL0     H10509  11.415  -0.364   9.784 -0.9084  1.1537 -1.8293
  801MOL0     H10510  11.415  -0.661   9.703 -3.3271 -0.0303  1.1011
  801MOL0     H10511  11.551  -0.603   9.809  0.9712  1.2899 -0.5978
  801MOL0     H10512  11.263  -0.592   9.835  1.1948  0.9163 -1.7214
  801MOL0     H10513  11.377  -0.535   9.969 -1.2172  1.5966 -0.8125
  801MOL0     H10514  11.463  -0.781   9.947 -0.9348 -2.2846  0.6139
  801MOL0     H10515  11.314  -0.816   9.859 -0.5972 -2.3944  1.6942
  801MOL0     H10516  11.321  -0.731  10.157 -0.0561 -0.6816  0.5436
  801MOL0     H10517  11.281  -0.895  10.093 -2.0567  0.7064  0.7042
  801MOL0     H10518  11.455  -0.396   9.023  1.5833  1.8552  1.4879
  801MOL0     H10519  11.325  -0.289   8.838 -2.6785 -0.9970 -1.6109
  801MOL0     H10520  10.995  -0.336   8.505 -1.0538 -0.0862  0.0880
  801MOL0     H10521  10.988  -0.239   8.307  0.1944 -2.6250  2.8701
  801MOL0     H10522  11.473   0.717   7.453 -0.4087  1.2495  1.6581
  801MOL0     H10523  11.639   0.686   7.621 -1.3991  1.2492 -3.1434
  801MOL0     H10524  11.845   0.389   7.892 -0.1989  0.1574  1.1434
  801MOL0     H10525  12.064   0.407   8.038  1.1501  2.5804 -0.1769
  801MOL0     H10526  12.055   0.633   8.418 -0.7004 -0.4738  0.2222
  801MOL0     H10527  12.002   0.466   8.446  1.3018 -0.2480  1.7921
  801MOL0     H10528  12.239   0.407   8.484 -0.6337 -0.5997  2.0909
  801MOL0     H10529  12.203   0.541   8.578 -1.0055  1.1797 -0.4359
  801MOL0     H10530  12.416   0.533   8.444  0.9233  1.6485  1.4428
  801MOL0     H10531  12.330   0.633   8.328  1.2588  2.3577  0.2886
  801MOL0     H10532  12.393   0.686   8.614  3.4489  0.9405 -0.3514
  801MOL0     H10533  12.278   0.785   8.524  1.8058  2.4776  0.0637
  801MOL0     H10534  12.643   0.945   8.414  2.1833 -3.2451 -1.3342
  801MOL0     H10535  11.850   0.572   8.339 -0.2011 -3.5975  1.4671
  801MOL0     H10536  11.638   0.679   8.310  0.1039 -0.1362 -1.2948
  801MOL0     H10537  11.534   0.625   8.179 -0.6819  2.0086  1.0101
  801MOL0     H10538  11.578   0.520   8.315 -0.6349  0.6962  1.1691
  802MOL0     O10539   4.041   4.943   3.082 -0.3455 -0.4572 -0.5065
  802MOL0     C10540   4.160   4.918   3.067  0.3121  0.0777 -0.3241
  802MOL0     O10541   4.207   4.804   3.001 -0.2106 -0.0682 -0.8307
  802MOL0     C10542   4.121   4.719   2.933 -0.9852 -0.4893 -0.0860
  802MOL0     C10543   4.046   4.770   2.827 -0.2033  0.3703  0.1416
  802MOL0     C10544   3.971   4.678   2.752 -0.5633  0.0817 -0.3821
  802MOL0     C10545   3.969   4.538   2.788 -0.6017  0.4576 -1.0276
  802MOL0     O10546   3.888   4.435   2.738  0.6621 -0.9449  0.6217
  802MOL0     C10547   3.767   4.480   2.667  0.2400  0.2756 -0.6101
  802MOL0     C10548   3.652   4.385   2.696  0.5730  0.4883 -0.4227
  802MOL0     C10549   3.675   4.240   2.637 -0.2866 -0.6352 -0.6255
  802MOL0     C10550   3.757   4.157   2.741  0.4874  0.1053 -0.4911
  802MOL0     C10551   3.718   4.001   2.755 -0.4143 -0.7112 -1.1686
  802MOL0     C10552   3.837   3.947   2.835  0.0670  0.1014  0.0376
  802MOL0     C10553   3.839   3.792   2.848 -0.4689  0.0882  0.1064
  802MOL0     C10554   3.886   3.711   2.726 -0.2616 -0.4320 -0.5382
  802MOL0     N10555   4.034   3.696   2.704 -0.1880  0.2676 -0.1421
  802MOL0     C10556   4.095   3.592   2.651 -0.8471 -0.3122 -0.4877
  802MOL0     C10557   4.230   3.616   2.645  0.6192 -0.3203  0.2478
  802MOL0     C10558   4.352   3.537   2.599  0.5115 -0.2348  0.0796
  802MOL0     C10559   4.495   3.581   2.646 -0.0658  0.3828  0.1704
  802MOL0     C10560   4.543   3.531   2.789  0.0875 -0.0396 -0.2267
  802MOL0     C10561   4.692   3.525   2.775 -0.9747  0.6833 -0.2215
  802MOL0     O10562   4.737   3.472   2.898  0.8553  0.4297  0.0536
  802MOL0     C10563   4.872   3.468   2.923  0.1067 -1.0219 -0.3204
  802MOL0     C10564   4.965   3.545   2.840 -0.1452 -0.5294  0.5052
  802MOL0     C10565   5.101   3.545   2.874  0.2805  0.4425 -0.5765
  802MOL0     C10566   5.187   3.624   2.771  0.8510 -0.1854 -0.3547
  802MOL0     C10567   5.157   3.466   2.983 -0.0688  0.6439 -0.1579
  802MOL0     C10568   5.292   3.480   3.045 -0.5562 -0.7454 -0.3588
  802MOL0     O10569   5.379   3.578   2.993 -0.2652  0.2938 -0.4465
  802MOL0     C10570   5.502   3.601   3.045  0.1842 -0.3755 -0.7012
  802MOL0     C10571   5.615   3.599   2.962  0.3958 -0.4235  0.1454
  802MOL0     C10572   5.737   3.651   3.011 -0.2345  0.7257  0.3766
  802MOL0     C10573   5.752   3.689   3.144  0.8896  0.7597 -0.0639
  802MOL0     O10574   5.875   3.733   3.196  0.7018  0.0458 -0.6572
  802MOL0     C10575   6.002   3.718   3.125  0.2488 -0.0660  0.7676
  802MOL0     C10576   6.130   3.685   3.211  0.0680 -0.4595  0.7417
  802MOL0     C10577   6.126   3.537   3.268 -0.8291  0.0550 -0.8196
  802MOL0     C10578   6.260   3.511   3.341 -0.3690 -0.8280  0.3886
  802MOL0     C10579   6.248   3.358   3.393  0.2005  0.6606  0.0312
  802MOL0     C10580   6.385   3.309   3.443  0.4816  0.2851 -0.4093
  802MOL0     C10581   6.439   3.398   3.555  0.9470 -0.3622 -0.2013
  802MOL0     C10582   6.549   3.322   3.626  0.0158 -0.9006  0.7765
  802MOL0    Cl10583   6.490   3.224   3.760  0.0335  0.1345  0.4425
  802MOL0     C10584   5.643   3.678   3.229 -0.9038 -0.2838  0.5583
  802MOL0     C10585   5.521   3.646   3.180  0.0838  0.2840  0.1037
  802MOL0     O10586   5.323   3.399   3.132  0.3068 -0.2840  0.3969
  802MOL0     C10587   5.058   3.392   3.057  0.1053  0.9695  0.1325
  802MOL0     C10588   4.920   3.398   3.029  1.2257 -0.4463 -0.0655
  802MOL0     N10589   4.236   3.748   2.694  0.6747  0.2343 -0.8946
  802MOL0     N10590   4.125   3.795   2.726  0.1234 -0.4826  0.4905
  802MOL0     C10591   4.042   4.495   2.897 -1.0088 -0.0875  0.5062
  802MOL0     C10592   4.112   4.590   2.970 -0.4469  0.9388 -0.1956
  802MOL0     C10593   4.255   4.977   3.162 -0.4593  0.4854  0.1277
  802MOL0     C10594   4.367   4.903   3.210  0.0685 -0.3152 -0.8122
  802MOL0     C10595   4.465   4.953   3.298  1.4521  0.5960  0.6432
  802MOL0     C10596   4.443   5.086   3.349 -0.0253 -1.4023 -0.0212
  802MOL0     O10597   4.555   5.146   3.416 -0.0747 -0.6241  0.2015
  802MOL0     C10598   4.529   5.165   3.555 -0.4389 -0.3182 -0.4195
  802MOL0     C10599   4.657   5.228   3.625 -0.1050  0.2987  0.1510
  802MOL0     C10600   4.694   5.363   3.582  0.0403 -0.8817 -0.1372
  802MOL0     C10601   4.737   5.365   3.436  0.6572  0.1003 -0.2238
  802MOL0     C10602   4.781   5.502   3.401 -1.0660  0.9671  0.0885
  802MOL0     C10603   4.834   5.603   3.372  0.5941 -1.3570 -0.1843
  802MOL0     C10604   4.321   5.144   3.332 -0.2911  0.2581 -0.1324
  802MOL0     C10605   4.233   5.098   3.227  0.4355 -0.1510 -0.3545
  802MOL0     C10606   4.100   5.173   3.212  0.0043 -0.2511 -0.1797
  802MOL0     H10607   4.061   4.875   2.804 -2.2006  0.8363  0.8100
  802MOL0     H10608   3.913   4.711   2.666  3.1977  0.2816 -3.0654
  802MOL0     H10609   3.775   4.472   2.558 -1.5611  2.0156 -0.9268
  802MOL0     H10610   3.740   4.581   2.699 -0.6798 -0.3713  0.7618
  802MOL0     H10611   3.623   4.384   2.802 -3.4842  0.1875 -1.3753
  802MOL0     H10612   3.570   4.427   2.637 -1.8631 -3.2902 -0.1291
  802MOL0     H10613   3.575   4.197   2.634  0.0338 -1.8934  2.4732
  802MOL0     H10614   3.715   4.240   2.535  2.0128  0.4513  0.1850
  802MOL0     H10615   3.861   4.162   2.708  0.7201 -4.8144 -1.2332
  802MOL0     H10616   3.757   4.187   2.847  3.0559 -2.8582  0.5195
  802MOL0     H10617   3.712   3.971   2.650 -1.1894  0.6645 -1.5432
  802MOL0     H10618   3.624   3.981   2.806  0.4087 -0.3750  0.5693
  802MOL0     H10619   3.928   3.980   2.783  0.0622  0.9436  0.5351
  802MOL0     H10620   3.849   3.996   2.932  2.2025  3.2297 -1.6142
  802MOL0     H10621   3.739   3.753   2.869 -0.4678 -0.3644 -0.7038
  802MOL0     H10622   3.902   3.757   2.930  0.5867  1.5304 -0.0525
  802MOL0     H10623   3.833   3.616   2.717  2.2948 -1.8181 -2.3000
  802MOL0     H10624   3.853   3.766   2.637  0.9817 -0.0088 -0.7508
  802MOL0     H10625   4.040   3.512   2.603  0.4468 -0.5856 -1.5936
  802MOL0     H10626   4.342   3.548   2.491 -1.2046  0.0349  0.2436
  802MOL0     H10627   4.343   3.431   2.624  1.0850 -0.4769 -0.7105
  802MOL0     H10628   4.563   3.539   2.572 -1.9410 -0.0296 -1.4160
  802MOL0     H10629   4.510   3.688   2.628  1.3248  0.1930  0.1450
  802MOL0     H10630   4.515   3.600   2.869 -2.3797  1.2562 -2.1056
  802MOL0     H10631   4.501   3.436   2.823 -2.7782  0.6255 -1.6677
  802MOL0     H10632   4.724   3.453   2.698  0.8559  1.2168  0.0060
  802MOL0     H10633   4.733   3.621   2.745  2.5492 -0.7642 -0.5987
  802MOL0     H10634   4.930   3.611   2.761  0.2302 -1.8275 -0.7850
  802MOL0     H10635   5.291   3.588   2.772  0.4990 -1.2304 -0.5606
  802MOL0     H10636   5.189   3.730   2.797  0.7006  0.3700 -2.4480
  802MOL0     H10637   5.153   3.601   2.670  2.1374 -0.2700 -0.7837
  802MOL0     H10638   5.618   3.584   2.855  0.5624  3.3879 -0.5507
  802MOL0     H10639   5.816   3.644   2.937  1.7943 -2.5775  2.5968
  802MOL0     H10640   5.988   3.635   3.056  0.3871 -1.8425  2.7752
  802MOL0     H10641   6.023   3.815   3.079 -0.4820  0.9491  2.4955
  802MOL0     H10642   6.215   3.680   3.141 -0.5201  1.5488 -0.1933
  802MOL0     H10643   6.143   3.760   3.289 -2.3327 -1.0305  1.7602
  802MOL0     H10644   6.108   3.470   3.183 -3.7786 -0.3075 -0.0024
  802MOL0     H10645   6.040   3.524   3.334  0.0707  0.1619  0.4017
  802MOL0     H10646   6.280   3.584   3.420 -1.0205 -0.0600 -0.1465
  802MOL0     H10647   6.344   3.529   3.272 -0.0753 -0.3418  0.8671
  802MOL0     H10648   6.165   3.348   3.463 -0.9237 -0.4070 -1.4142
  802MOL0     H10649   6.229   3.296   3.305 -1.6453  1.4877 -0.1990
  802MOL0     H10650   6.457   3.303   3.362  2.0571 -2.8463  1.0464
  802MOL0     H10651   6.372   3.207   3.479  1.5067  0.0305 -0.7238
  802MOL0     H10652   6.362   3.423   3.630  2.0481  3.1396 -0.0692
  802MOL0     H10653   6.478   3.488   3.508  0.1622  1.0923  1.7760
  802MOL0     H10654   6.612   3.403   3.664  1.0107 -1.2727 -0.0422
  802MOL0     H10655   6.606   3.262   3.555 -0.6688  0.0533 -0.6023
  802MOL0     H10656   5.639   3.700   3.336  0.7154  0.9839  0.3855
  802MOL0     H10657   5.437   3.668   3.245  0.0906  0.6197 -0.0007
  802MOL0     H10658   5.092   3.318   3.130 -1.0562  1.4212  1.1593
  802MOL0     H10659   4.859   3.332   3.089  0.2512  2.7363  2.7950
  802MOL0     H10660   4.037   4.390   2.924 -1.5105 -0.5289 -1.1594
  802MOL0     H10661   4.168   4.547   3.052 -0.2507  1.2315 -0.1750
  802MOL0     H10662   4.382   4.802   3.175  1.8017 -0.0910 -0.8286
  802MOL0     H10663   4.543   4.886   3.334 -0.9725 -1.1498  3.0575
  802MOL0     H10664   4.443   5.232   3.565  1.0184  2.0906 -2.6986
  802MOL0     H10665   4.515   5.068   3.603 -0.8553  0.0853  0.2961
  802MOL0     H10666   4.744   5.161   3.625  0.1692  0.6373 -0.7892
  802MOL0     H10667   4.624   5.238   3.729 -4.8457 -1.0472 -0.9821
  802MOL0     H10668   4.612   5.436   3.586  0.7148  0.0097 -1.7342
  802MOL0     H10669   4.778   5.397   3.643 -1.9723  3.2285  0.6754
  802MOL0     H10670   4.652   5.341   3.372  0.6818 -1.9938  0.4633
  802MOL0     H10671   4.814   5.289   3.424  0.9014  0.4683 -1.0078
  802MOL0     H10672   4.902   5.681   3.345 -1.1619 -0.1286 -1.2290
  802MOL0     H10673   4.306   5.239   3.382 -0.2547  1.9005 -3.0168
  802MOL0     H10674   4.087   5.186   3.104  0.9992  0.3303 -0.2409
  802MOL0     H10675   4.018   5.113   3.253 -0.1694  0.3498  0.3846
  802MOL0     H10676   4.095   5.276   3.250 -1.1066 -0.5751  0.6276
  803MOL0     O10677   9.420   8.267   7.100 -0.7911 -0.8548  0.6453
  803MOL0     C10678   9.393   8.249   6.979  0.9055  0.4113  0.7419
  803MOL0     O10679   9.480   8.220   6.877  0.1464  0.3876  0.2823
  803MOL0     C10680   9.612   8.189   6.907  0.4130 -0.3762 -0.1386
  803MOL0     C10681   9.688   8.203   6.791 -0.2692  0.5242  0.0405
  803MOL0     C10682   9.829   8.167   6.799  0.7685 -0.0493  0.3018
  803MOL0     C10683   9.889   8.111   6.910  0.8268 -0.3605  0.7166
  803MOL0     O10684  10.015   8.062   6.905  0.4527 -0.2660 -0.7482
  803MOL0     C10685  10.091   8.065   7.021  0.5888 -0.2613  0.3628
  803MOL0     C10686  10.234   8.112   6.992  0.6114 -0.9010  0.3960
  803MOL0     C10687  10.241   8.263   6.955 -0.2695  0.1373  0.4668
  803MOL0     C10688  10.375   8.347   6.977  0.3558  0.2915  0.5947
  803MOL0     C10689  10.360   8.499   6.937 -0.5724  0.0124  0.6473
  803MOL0     C10690  10.497   8.560   6.968  0.1418 -0.1412 -1.0760
  803MOL0     C10691  10.514   8.714   6.945  1.2254  1.1685 -0.2163
  803MOL0     C10692  10.663   8.755   6.941 -0.2767  0.0150  0.5843
  803MOL0     N10693  10.733   8.726   7.073 -0.8131  0.0759 -0.6091
  803MOL0     C10694  10.725   8.808   7.185 -0.3980  0.1181  1.1319
  803MOL0     C10695  10.774   8.740   7.289 -0.6113  0.7096  0.6210
  803MOL0     C10696  10.783   8.786   7.432 -0.7452  0.9053  1.1651
  803MOL0     C10697  10.896   8.866   7.477  0.0432 -0.1654  0.1688
  803MOL0     C10698  10.896   8.950   7.601  0.3471 -0.1567 -0.5204
  803MOL0     C10699  10.889   8.867   7.728 -0.1905  0.4926  0.6285
  803MOL0     O10700  10.837   8.956   7.823 -0.0352 -0.8455 -0.1321
  803MOL0     C10701  10.922   8.950   7.936  0.6837 -0.4501  0.5693
  803MOL0     C10702  11.054   8.985   7.932 -0.5033 -0.0099  0.1079
  803MOL0     C10703  11.129   8.959   8.048 -0.4043  0.8931 -0.1883
  803MOL0     C10704  11.284   8.974   8.035 -0.7820 -1.0035 -0.5903
  803MOL0     C10705  11.073   8.916   8.176  1.0359  1.1619  0.6408
  803MOL0     C10706  11.149   8.901   8.299  0.1741  0.0749  0.3150
  803MOL0     O10707  11.076   8.869   8.408 -0.7196  0.0669  0.0162
  803MOL0     C10708  11.136   8.864   8.526  0.8509 -0.0533 -1.6980
  803MOL0     C10709  11.187   8.747   8.574 -1.2329  0.6856  0.0824
  803MOL0     C10710  11.215   8.743   8.711  0.1282  0.2442  0.8170
  803MOL0     C10711  11.210   8.857   8.800  0.2792  0.1709 -0.0390
  803MOL0     O10712  11.256   8.846   8.931 -0.4796  0.2451 -0.1430
  803MOL0     C10713  11.216   8.940   9.037  0.1503  0.3621  0.2985
  803MOL0     C10714  11.102   8.886   9.133 -1.7056 -1.1677 -0.2925
  803MOL0     C10715  10.971   8.880   9.067  0.7200 -0.1068  0.1015
  803MOL0     C10716  10.931   8.731   9.024 -0.8711 -0.4533  0.1593
  803MOL0     C10717  10.799   8.739   8.941  0.3995 -0.4663  0.4905
  803MOL0     C10718  10.779   8.610   8.847  0.1005  0.4649  0.7451
  803MOL0     C10719  10.646   8.614   8.765 -0.3411 -0.0775  0.7805
  803MOL0     C10720  10.634   8.476   8.695 -0.0275 -0.3923  0.3581
  803MOL0    Cl10721  10.579   8.351   8.809 -0.2991 -0.2153 -0.2195
  803MOL0     C10722  11.171   8.980   8.750  0.2458  0.5123 -0.0666
  803MOL0     C10723  11.133   8.977   8.614  0.5078 -0.4965 -0.0964
  803MOL0     O10724  11.262   8.928   8.305 -0.4870 -0.0323  0.6866
  803MOL0     C10725  10.934   8.883   8.175 -0.1613  0.8938  0.2303
  803MOL0     C10726  10.871   8.898   8.053 -0.1281  0.8408 -0.5228
  803MOL0     N10727  10.815   8.619   7.237 -0.5070  0.5386 -0.5533
  803MOL0     N10728  10.793   8.608   7.107  0.0558  0.5676  0.4489
  803MOL0     C10729   9.802   8.094   7.022 -0.4693 -0.0065  0.8086
  803MOL0     C10730   9.669   8.131   7.017 -0.9879 -0.0432 -0.5879
  803MOL0     C10731   9.251   8.252   6.939 -0.2586  0.3748  0.0494
  803MOL0     C10732   9.164   8.332   7.018  0.1599 -0.5480  0.6028
  803MOL0     C10733   9.029   8.352   6.976 -0.1556 -0.7134 -0.1434
  803MOL0     C10734   8.973   8.289   6.870  0.9535 -1.2337 -0.1683
  803MOL0     O10735   8.845   8.328   6.833  0.1655 -0.1923 -0.1161
  803MOL0     C10736   8.787   8.272   6.713  0.1021 -0.0072 -0.0637
  803MOL0     C10737   8.658   8.337   6.663  0.0794 -1.5511  0.4668
  803MOL0     C10738   8.696   8.487   6.622  0.4873 -0.3716 -0.3280
  803MOL0     C10739   8.602   8.552   6.522  0.1602  0.4603 -0.1767
  803MOL0     C10740   8.628   8.505   6.388 -0.8503 -0.4364 -0.5552
  803MOL0     C10741   8.672   8.470   6.279 -0.2397  0.1419  0.5848
  803MOL0     C10742   9.058   8.212   6.795 -0.4024  0.0535 -0.1963
  803MOL0     C10743   9.192   8.179   6.834 -0.0816 -0.1410 -0.1083
  803MOL0     C10744   9.272   8.068   6.751 -0.2010  0.5477  0.6357
  803MOL0     H10745   9.642   8.244   6.702  2.6272  1.1345 -1.3192
  803MOL0     H10746   9.896   8.179   6.715  0.8793 -1.2344  0.2091
  803MOL0     H10747  10.104   7.968   7.070 -0.6256 -1.3144 -1.2944
  803MOL0     H10748  10.050   8.141   7.088  2.1829  1.4210 -0.4861
  803MOL0     H10749  10.307   8.110   7.073  0.3522 -2.2764  0.6179
  803MOL0     H10750  10.275   8.053   6.909 -0.5871 -1.1655 -0.0370
  803MOL0     H10751  10.214   8.277   6.850  3.6905 -0.0187 -0.7524
  803MOL0     H10752  10.163   8.315   7.012 -2.7454 -1.8597 -0.8927
  803MOL0     H10753  10.401   8.342   7.083  1.2201 -0.4321  0.3670
  803MOL0     H10754  10.455   8.306   6.914 -0.0479  1.7821 -0.9754
  803MOL0     H10755  10.270   8.537   6.987 -2.8485 -0.0173 -3.0446
  803MOL0     H10756  10.344   8.504   6.829  0.4757  2.1410  0.5513
  803MOL0     H10757  10.499   8.548   7.077  1.3702 -0.9473 -1.1689
  803MOL0     H10758  10.576   8.498   6.925  0.9249 -0.9940  1.3977
  803MOL0     H10759  10.471   8.768   7.031  2.7941  1.8407  0.1770
  803MOL0     H10760  10.454   8.751   6.861  3.2765  3.8348 -0.6545
  803MOL0     H10761  10.723   8.703   6.865  0.7595  0.2347  1.2303
  803MOL0     H10762  10.656   8.860   6.908  1.7654 -0.4842 -1.7590
  803MOL0     H10763  10.700   8.913   7.178  1.6750  0.5953  0.3430
  803MOL0     H10764  10.774   8.696   7.493  1.3677  0.2779  0.6387
  803MOL0     H10765  10.693   8.847   7.446 -0.7060  1.9836 -2.3053
  803MOL0     H10766  10.983   8.800   7.486  0.0664 -0.1749 -0.1172
  803MOL0     H10767  10.920   8.935   7.396 -1.0523 -1.0208 -0.9261
  803MOL0     H10768  10.996   8.994   7.592 -0.4983  1.4407 -3.6208
  803MOL0     H10769  10.818   9.026   7.609  0.7279  0.3624 -1.5457
  803MOL0     H10770  10.831   8.775   7.733  2.1096 -0.9876  1.9534
  803MOL0     H10771  10.985   8.817   7.745 -1.3881 -3.6467 -3.0496
  803MOL0     H10772  11.096   9.037   7.846  0.8213  1.3239  1.5101
  803MOL0     H10773  11.330   8.883   8.075 -0.4013 -0.9045 -0.7961
  803MOL0     H10774  11.327   9.055   8.094  0.1795 -0.3775 -2.0873
  803MOL0     H10775  11.318   8.986   7.932  1.5704  0.7560  0.2973
  803MOL0     H10776  11.198   8.661   8.509  0.3817 -0.7282  2.1008
  803MOL0     H10777  11.261   8.655   8.757  2.9426  0.7692 -0.7666
  803MOL0     H10778  11.302   8.948   9.104 -1.4446  1.8384  2.3000
  803MOL0     H10779  11.186   9.041   9.008  2.0035  1.1499  0.9454
  803MOL0     H10780  11.131   8.787   9.169  2.4756 -0.6790 -1.7458
  803MOL0     H10781  11.102   8.949   9.222  0.8717 -1.5710  0.0599
  803MOL0     H10782  10.966   8.950   8.983  1.6164  0.9186  0.8775
  803MOL0     H10783  10.899   8.916   9.142  1.3697  2.2668 -0.3387
  803MOL0     H10784  10.925   8.672   9.116 -1.2618  0.7038  0.8989
  803MOL0     H10785  11.003   8.693   8.952 -2.2060  0.6764 -1.8608
  803MOL0     H10786  10.717   8.734   9.013 -0.9297 -0.4955 -0.9826
  803MOL0     H10787  10.794   8.834   8.887  0.6849 -1.5559 -1.5397
  803MOL0     H10788  10.784   8.516   8.904  1.3699  0.0860  0.0373
  803MOL0     H10789  10.860   8.616   8.774  0.8139 -2.6061  1.1498
  803MOL0     H10790  10.651   8.702   8.701 -1.6324 -0.0300  0.7287
  803MOL0     H10791  10.553   8.621   8.823 -1.1343  0.4089 -0.5127
  803MOL0     H10792  10.725   8.434   8.652  1.3892  0.3460  2.4695
  803MOL0     H10793  10.561   8.494   8.616  0.8975 -2.9428 -1.1620
  803MOL0     H10794  11.157   9.069   8.811 -2.0802  0.4533 -0.4220
  803MOL0     H10795  11.100   9.069   8.567 -0.9989  0.4741  2.6578
  803MOL0     H10796  10.884   8.845   8.264 -1.2706  1.5624 -0.0776
  803MOL0     H10797  10.769   8.860   8.045  0.0648 -0.3074  1.6860
  803MOL0     H10798   9.840   8.050   7.113  1.4683 -1.6507 -0.6955
  803MOL0     H10799   9.607   8.111   7.104 -1.7430  0.1083 -1.0864
  803MOL0     H10800   9.195   8.388   7.106 -3.4687 -0.0011  1.6693
  803MOL0     H10801   8.967   8.416   7.038  0.5948  1.6615 -1.7139
  803MOL0     H10802   8.861   8.288   6.634  1.0276  2.4790  1.2411
  803MOL0     H10803   8.764   8.165   6.716 -0.5511  0.0879 -0.9729
  803MOL0     H10804   8.576   8.317   6.733 -1.7538 -0.3412 -1.2196
  803MOL0     H10805   8.613   8.290   6.575 -1.6987  2.9402 -1.3442
  803MOL0     H10806   8.685   8.539   6.717 -2.2600 -0.6988 -0.3958
  803MOL0     H10807   8.801   8.498   6.591  0.6213 -1.5576 -0.3388
  803MOL0     H10808   8.625   8.659   6.518 -2.6415  1.2527  1.8441
  803MOL0     H10809   8.496   8.540   6.546 -0.0296  1.3546 -0.5051
  803MOL0     H10810   8.722   8.457   6.186 -0.7933  3.2815 -0.2646
  803MOL0     H10811   9.026   8.150   6.712  0.4435 -0.7991  0.1005
  803MOL0     H10812   9.330   8.122   6.676 -4.4255  0.7331 -2.9491
  803MOL0     H10813   9.349   8.019   6.811  0.3803  0.5650 -0.0862
  803MOL0     H10814   9.212   7.994   6.696 -2.5630  2.3234  0.6639
  804MOL0     O10815  10.297   0.834   0.266 -0.3077 -0.6573  0.5502
  804MOL0     C10816  10.256   0.814   0.150  0.3746  0.5293 -0.9252
  804MOL0     O10817  10.216   0.900   0.053 -0.5255 -0.3394  0.2704
  804MOL0     C10818  10.217   1.028   0.088 -1.1199 -0.1145 -0.2763
  804MOL0     C10819  10.297   1.113   0.012 -0.1404  1.1549  0.1529
  804MOL0     C10820  10.292   1.253   0.027  0.4484 -0.2633 -0.2488
  804MOL0     C10821  10.211   1.314   0.113 -0.3719 -0.1088  0.0740
  804MOL0     O10822  10.228   1.451   0.107 -0.0794  0.3537  0.1360
  804MOL0     C10823  10.136   1.524   0.192  1.3650 -0.3833 -0.1043
  804MOL0     C10824  10.171   1.672   0.175  0.3009 -0.8584  0.2445
  804MOL0     C10825  10.127   1.740   0.301 -0.6623 -1.0345  0.1794
  804MOL0     C10826  10.114   1.893   0.282  0.4998  0.0451 -0.8924
  804MOL0     C10827  10.084   1.963   0.415 -0.0340 -0.2903  0.0232
  804MOL0     C10828  10.108   2.113   0.425  0.0712 -0.8429 -0.4198
  804MOL0     C10829  10.119   2.152   0.571 -0.3372  0.6046  0.4101
  804MOL0     C10830  10.147   2.296   0.591  0.0779  0.6316 -0.5029
  804MOL0     N10831  10.036   2.378   0.538 -0.3506 -0.6493 -0.2878
  804MOL0     C10832   9.909   2.387   0.588  0.1952 -0.2073  0.0130
  804MOL0     C10833   9.843   2.463   0.502 -0.1561 -0.5728  0.6831
  804MOL0     C10834   9.693   2.472   0.504 -0.2475  0.4436 -0.1752
  804MOL0     C10835   9.621   2.501   0.644  0.3904  0.1026 -0.2754
  804MOL0     C10836   9.678   2.617   0.733 -0.1908  0.9148  0.0114
  804MOL0     C10837   9.668   2.749   0.653 -0.7363  0.3643  0.0491
  804MOL0     O10838   9.537   2.782   0.633  0.6337 -0.0415 -0.1454
  804MOL0     C10839   9.513   2.870   0.531 -0.8082 -0.6555  0.0057
  804MOL0     C10840   9.474   2.824   0.406 -0.4881  0.7535  0.0229
  804MOL0     C10841   9.414   2.899   0.309  0.0454  0.4025  0.2561
  804MOL0     C10842   9.397   2.849   0.168 -0.1384 -0.7235  0.7192
  804MOL0     C10843   9.392   3.031   0.340  1.0233 -0.1649  0.6298
  804MOL0     C10844   9.299   3.111   0.246 -0.1613  0.2776 -0.1869
  804MOL0     O10845   9.189   3.059   0.194  0.4855 -0.3526  0.0412
  804MOL0     C10846   9.161   3.107   0.065 -0.5384 -0.8462 -0.0004
  804MOL0     C10847   9.115   3.232   0.037  0.2666 -0.3959 -0.8563
  804MOL0     C10848   9.071   3.259  -0.088  1.5509 -0.6570  1.0350
  804MOL0     C10849   9.093   3.176  -0.199  0.4151 -0.6437  0.0299
  804MOL0     O10850   9.052   3.221  -0.320 -0.2885 -0.4056  0.2346
  804MOL0     C10851   9.154   3.225  -0.429 -0.2636  0.8212 -0.7445
  804MOL0     C10852   9.225   3.358  -0.446  0.1835 -0.0128  0.1486
  804MOL0     C10853   9.334   3.398  -0.338 -0.3442 -0.7593 -0.3789
  804MOL0     C10854   9.450   3.308  -0.315 -0.2771  0.4999  0.5231
  804MOL0     C10855   9.465   3.246  -0.171  0.1398 -0.1571  0.1847
  804MOL0     C10856   9.613   3.208  -0.145 -0.1018  0.0120  0.0957
  804MOL0     C10857   9.617   3.165  -0.008  0.0304  0.4762 -1.6363
  804MOL0     C10858   9.748   3.099   0.028  0.1701 -0.5617 -0.3318
  804MOL0    Cl10859   9.862   3.237   0.031 -0.1764  0.1146  0.1080
  804MOL0     C10860   9.136   3.049  -0.170  0.1649  0.0297  0.1694
  804MOL0     C10861   9.162   3.019  -0.042  0.5891  0.0745  0.4267
  804MOL0     O10862   9.342   3.223   0.221 -0.4533 -0.0334 -0.1550
  804MOL0     C10863   9.439   3.088   0.460 -0.1654 -0.6183  0.4127
  804MOL0     C10864   9.498   3.007   0.557 -0.2783 -0.5027  0.0571
  804MOL0     N10865   9.929   2.507   0.407  0.0437 -0.9445 -0.1337
  804MOL0     N10866  10.047   2.457   0.428 -0.4461  0.8035 -0.0972
  804MOL0     C10867  10.126   1.235   0.189 -1.1679  0.6239 -0.6126
  804MOL0     C10868  10.130   1.090   0.183  0.1837 -0.7814 -0.2238
  804MOL0     C10869  10.247   0.677   0.126  0.1284 -0.6674 -0.4157
  804MOL0     C10870  10.365   0.606   0.123  0.1369 -0.9990  0.5919
  804MOL0     C10871  10.359   0.468   0.105  0.0716 -0.0043  0.7867
  804MOL0     C10872  10.241   0.402   0.063 -0.0479 -0.0360 -0.2111
  804MOL0     O10873  10.239   0.264   0.053  0.4469  0.7824  0.0871
  804MOL0     C10874  10.113   0.196   0.025  0.0525 -0.6504 -0.8756
  804MOL0     C10875  10.150   0.057  -0.019 -0.5011 -1.4491 -0.0131
  804MOL0     C10876  10.261  -0.015   0.052 -0.1155  0.1257 -0.6830
  804MOL0     C10877  10.226  -0.013   0.201  1.3287  1.3554  0.4409
  804MOL0     C10878  10.290  -0.117   0.278 -0.7618 -0.0061 -0.8446
  804MOL0     C10879  10.340  -0.212   0.339  0.7954 -0.1549  0.0770
  804MOL0     C10880  10.129   0.487   0.051 -0.4444 -0.2959 -0.6139
  804MOL0     C10881  10.120   0.619   0.089 -1.5490  0.1743  0.2086
  804MOL0     C10882   9.994   0.695   0.084  0.0615  0.1709 -0.2734
  804MOL0     H10883  10.360   1.058  -0.058 -0.4928  0.6886  0.2004
  804MOL0     H10884  10.347   1.309  -0.048 -1.1265  2.8151  0.7469
  804MOL0     H10885  10.150   1.495   0.297  1.7304  1.5699  0.4147
  804MOL0     H10886  10.033   1.504   0.161  1.6062 -2.1186  0.0934
  804MOL0     H10887  10.278   1.682   0.159 -0.1410  0.7424 -2.3574
  804MOL0     H10888  10.119   1.707   0.085  1.3182  1.7666  0.6143
  804MOL0     H10889  10.031   1.701   0.336 -1.6794  0.0316 -1.2679
  804MOL0     H10890  10.204   1.725   0.376  1.2418  2.3951 -0.8564
  804MOL0     H10891  10.211   1.910   0.233 -0.1790 -2.4722 -3.3859
  804MOL0     H10892  10.034   1.921   0.213 -1.8304  0.4116  1.7998
  804MOL0     H10893  10.140   1.917   0.497 -0.2172 -1.5252 -0.5262
  804MOL0     H10894   9.980   1.939   0.439 -0.0733 -2.1818 -1.7780
  804MOL0     H10895  10.195   2.139   0.364 -0.3521 -0.2033 -0.7597
  804MOL0     H10896  10.023   2.170   0.388  0.9386  1.7752  1.3301
  804MOL0     H10897  10.194   2.097   0.628 -0.7950  1.5062  1.9575
  804MOL0     H10898  10.026   2.143   0.628  0.1555 -0.3621  1.0847
  804MOL0     H10899  10.158   2.318   0.698 -0.5302 -0.0553 -0.2923
  804MOL0     H10900  10.239   2.316   0.535  0.5584 -0.3713 -0.1064
  804MOL0     H10901   9.859   2.339   0.671 -0.4890 -1.1927 -0.9424
  804MOL0     H10902   9.662   2.372   0.472  0.5472  0.2220 -0.2709
  804MOL0     H10903   9.668   2.545   0.427 -1.4379 -1.3033 -1.5355
  804MOL0     H10904   9.514   2.523   0.637  0.5852  2.0749  1.5593
  804MOL0     H10905   9.625   2.411   0.706 -1.0218  2.0011  2.8493
  804MOL0     H10906   9.610   2.626   0.818 -2.5664 -2.1224 -1.3495
  804MOL0     H10907   9.777   2.586   0.769 -0.1762 -0.0096 -0.7490
  804MOL0     H10908   9.713   2.827   0.715 -1.4314  0.2553  0.6903
  804MOL0     H10909   9.737   2.750   0.567  0.4841  0.5628  1.0022
  804MOL0     H10910   9.489   2.718   0.387 -0.4650  0.7900 -0.1600
  804MOL0     H10911   9.382   2.921   0.088 -1.5598 -4.3491 -2.5806
  804MOL0     H10912   9.308   2.785   0.163 -0.4585 -0.1857 -1.4196
  804MOL0     H10913   9.485   2.794   0.135 -1.2681 -1.7464 -0.7159
  804MOL0     H10914   9.101   3.289   0.128  2.9425 -0.5998 -0.2339
  804MOL0     H10915   9.021   3.353  -0.113  1.1219 -1.0842  0.2279
  804MOL0     H10916   9.222   3.140  -0.421 -0.5954  0.6969  0.9649
  804MOL0     H10917   9.108   3.194  -0.524  0.7018 -4.0904  0.1218
  804MOL0     H10918   9.282   3.358  -0.540 -1.1664 -0.4392 -0.7067
  804MOL0     H10919   9.153   3.437  -0.469  2.6566  1.7059 -2.4179
  804MOL0     H10920   9.276   3.403  -0.245  1.4317 -0.9521  0.7919
  804MOL0     H10921   9.377   3.495  -0.365 -0.1172 -0.6661  0.2984
  804MOL0     H10922   9.540   3.368  -0.335  2.1487 -2.7344  0.8951
  804MOL0     H10923   9.445   3.218  -0.379  0.5707 -1.6719  3.3204
  804MOL0     H10924   9.436   3.321  -0.097  1.1892  3.6656 -2.8806
  804MOL0     H10925   9.402   3.159  -0.151 -0.1473  0.5774  2.8639
  804MOL0     H10926   9.689   3.286  -0.160 -0.9698  0.8005 -0.3279
  804MOL0     H10927   9.621   3.130  -0.221 -2.5005 -0.5978  0.4011
  804MOL0     H10928   9.536   3.094   0.013  2.5362 -2.2211 -0.4128
  804MOL0     H10929   9.609   3.253   0.056  1.9648  1.5472 -2.7619
  804MOL0     H10930   9.778   3.023  -0.045  0.0459  0.6843 -1.7374
  804MOL0     H10931   9.745   3.045   0.123  2.1377  1.5053  0.9949
  804MOL0     H10932   9.135   2.975  -0.249  1.5186 -0.3306  0.4656
  804MOL0     H10933   9.190   2.921  -0.007 -0.1540 -0.1512  0.4184
  804MOL0     H10934   9.431   3.192   0.490 -0.7434  0.2807 -2.5690
  804MOL0     H10935   9.501   3.043   0.660 -2.0300  0.1150 -0.0734
  804MOL0     H10936  10.065   1.297   0.254 -2.2248  1.5948 -2.4384
  804MOL0     H10937  10.068   1.028   0.246 -0.5652  2.1388  2.1226
  804MOL0     H10938  10.453   0.660   0.156  0.8015 -1.5236 -0.3019
  804MOL0     H10939  10.454   0.419   0.126 -1.9418 -3.6938  2.2119
  804MOL0     H10940  10.058   0.204   0.119 -0.2982 -0.0415 -1.1292
  804MOL0     H10941  10.064   0.242  -0.062  0.7903 -0.0411 -0.9823
  804MOL0     H10942  10.174   0.063  -0.126  0.2993 -2.3115  0.1031
  804MOL0     H10943  10.068  -0.014  -0.019  0.5081 -2.6651 -0.6322
  804MOL0     H10944  10.272  -0.115   0.009 -1.1298 -0.1226 -0.3941
  804MOL0     H10945  10.361   0.031   0.049 -1.3888  3.1280 -0.9489
  804MOL0     H10946  10.118  -0.011   0.218  1.2577  0.4032  0.1799
  804MOL0     H10947  10.270   0.074   0.250 -2.4545  2.7967  1.6814
  804MOL0     H10948  10.394  -0.292   0.384 -1.0208 -1.4640  0.0238
  804MOL0     H10949  10.040   0.431   0.028 -2.4688  2.8419 -0.9259
  804MOL0     H10950  10.000   0.769   0.003  0.8303  1.3461  0.8131
  804MOL0     H10951   9.919   0.619   0.059  1.1171 -1.0622  0.2000
  804MOL0     H10952   9.966   0.735   0.182 -2.5932 -0.1979 -0.7936
  805MOL0     O10953   3.430   6.305   9.917 -0.1459  0.0339  0.4092
  805MOL0     C10954   3.342   6.240   9.978  0.8067 -0.7438 -0.2033
  805MOL0     O10955   3.227   6.195   9.922  0.3211  0.2813  0.0695
  805MOL0     C10956   3.215   6.212   9.786  1.1046 -0.1104 -1.1413
  805MOL0     C10957   3.267   6.128   9.690  0.6532 -0.0577 -0.4096
  805MOL0     C10958   3.246   6.155   9.549  0.3743  0.3145 -0.5682
  805MOL0     C10959   3.158   6.263   9.506  0.1493  0.2654 -0.5752
  805MOL0     O10960   3.097   6.272   9.381  0.1386 -0.7116  0.8437
  805MOL0     C10961   3.172   6.259   9.260 -0.2544  0.3734  0.0941
  805MOL0     C10962   3.105   6.338   9.151  0.0392 -0.3406  0.2289
  805MOL0     C10963   2.991   6.263   9.074 -0.0598  0.9337 -0.2917
  805MOL0     C10964   2.865   6.341   9.067 -1.5209 -0.4026  0.1083
  805MOL0     C10965   2.779   6.297   8.943 -0.5882  0.4019 -0.0076
  805MOL0     C10966   2.710   6.160   8.955 -0.2590 -0.5586  0.5108
  805MOL0     C10967   2.613   6.165   9.071 -0.2342  0.2927 -0.4853
  805MOL0     C10968   2.532   6.047   9.091  0.5037 -0.6359 -0.4441
  805MOL0     N10969   2.436   6.024   8.988  0.7475  0.1724 -0.1210
  805MOL0     C10970   2.449   5.971   8.861 -0.2364 -0.5587 -0.0403
  805MOL0     C10971   2.326   5.968   8.807  0.1734 -0.3272  0.8146
  805MOL0     C10972   2.302   5.909   8.671  0.6051 -0.3421  0.0714
  805MOL0     C10973   2.174   5.820   8.680  0.7790 -0.3645  0.4907
  805MOL0     C10974   2.143   5.749   8.541  0.6447 -0.9003  0.0906
  805MOL0     C10975   2.069   5.832   8.434 -0.3201 -0.4997  0.1180
  805MOL0     O10976   2.063   5.737   8.324  0.0133 -0.0380  0.5967
  805MOL0     C10977   2.049   5.773   8.193  0.1953  0.0796 -0.4131
  805MOL0     C10978   1.924   5.780   8.135  0.7328 -0.4362  0.6783
  805MOL0     C10979   1.903   5.819   8.004 -0.0034  0.0014 -0.2725
  805MOL0     C10980   1.763   5.813   7.949 -0.2548 -0.4964  0.0010
  805MOL0     C10981   2.014   5.860   7.919 -0.0638  0.7466  0.3159
  805MOL0     C10982   2.009   5.898   7.776  0.0869  0.1513 -0.3715
  805MOL0     O10983   2.109   5.989   7.741  0.8796  0.4685 -0.0236
  805MOL0     C10984   2.115   6.017   7.599  0.2434  0.5201 -0.5483
  805MOL0     C10985   2.154   5.919   7.501  0.6972 -0.5944 -0.3797
  805MOL0     C10986   2.155   5.957   7.368 -0.6079 -0.2786  0.2619
  805MOL0     C10987   2.118   6.087   7.322  0.7982 -0.4153  0.3652
  805MOL0     O10988   2.108   6.112   7.187  0.4440  0.0568 -0.4028
  805MOL0     C10989   2.208   6.068   7.099 -0.2074  0.1759  0.9090
  805MOL0     C10990   2.186   6.145   6.965  0.3819 -0.3396  0.0525
  805MOL0     C10991   2.282   6.095   6.860  0.7735 -0.5907  0.7924
  805MOL0     C10992   2.222   6.106   6.717  0.5197  0.0930  0.0452
  805MOL0     C10993   2.319   6.043   6.621 -0.3171  0.6171 -0.2316
  805MOL0     C10994   2.276   6.069   6.477 -0.0211 -0.2370 -0.5188
  805MOL0     C10995   2.162   5.975   6.429 -1.3110 -0.6721 -0.0192
  805MOL0     C10996   2.132   6.015   6.281  0.5034 -0.6547  0.5382
  805MOL0    Cl10997   2.259   5.949   6.165  0.1285  0.5183 -0.4349
  805MOL0     C10998   2.060   6.175   7.420  0.3636  0.0465  0.3548
  805MOL0     C10999   2.071   6.149   7.560  0.3950  0.8510  0.5014
  805MOL0     O11000   1.926   5.854   7.701  0.2428  0.4329  1.0031
  805MOL0     C11001   2.137   5.868   7.986 -0.1365 -0.3251  0.2707
  805MOL0     C11002   2.161   5.825   8.119  0.4897  0.0587  0.7553
  805MOL0     N11003   2.239   6.028   8.893 -0.2846  0.1566  0.1565
  805MOL0     N11004   2.301   6.048   8.999 -0.1742 -0.0420 -0.3439
  805MOL0     C11005   3.112   6.348   9.606  0.3317  0.3907 -0.6215
  805MOL0     C11006   3.138   6.326   9.744 -0.0992 -0.3307  0.2751
  805MOL0     C11007   3.375   6.220  10.120  0.5240 -0.1805  0.6577
  805MOL0     C11008   3.484   6.286  10.171  0.3508  0.6627  0.4907
  805MOL0     C11009   3.525   6.275  10.302 -0.6348 -0.4242 -0.2213
  805MOL0     C11010   3.455   6.195  10.388 -0.0759 -0.0523 -0.5614
  805MOL0     O11011   3.518   6.182  10.513 -0.1283  0.3674 -0.0996
  805MOL0     C11012   3.443   6.121  10.624 -0.7092  0.4574 -0.3843
  805MOL0     C11013   3.530   6.123  10.757  0.0844  0.1927  1.0118
  805MOL0     C11014   3.496   6.022  10.852 -0.2734  0.0239 -0.1960
  805MOL0     C11015   3.576   5.889  10.822  0.1252 -1.2128  0.1537
  805MOL0     C11016   3.714   5.920  10.856  0.2248 -0.5267  0.1492
  805MOL0     C11017   3.828   5.940  10.883  0.0073  0.4464 -0.5813
  805MOL0     C11018   3.340   6.126  10.346  1.7709  0.4992  0.4488
  805MOL0     C11019   3.298   6.137  10.212 -0.5037  0.5228 -0.5522
  805MOL0     C11020   3.181   6.061  10.169 -0.1211  0.3508 -0.5670
  805MOL0     H11021   3.336   6.057   9.734  1.3837  1.3083  0.7264
  805MOL0     H11022   3.287   6.082   9.480 -2.2059 -1.7659 -0.0712
  805MOL0     H11023   3.177   6.152   9.238  2.6095 -0.0053  1.9991
  805MOL0     H11024   3.278   6.275   9.280 -0.6027  0.6765  1.9920
  805MOL0     H11025   3.079   6.438   9.186 -2.0271 -0.4415 -0.8741
  805MOL0     H11026   3.181   6.356   9.075  1.9918  1.1538  2.3983
  805MOL0     H11027   3.029   6.244   8.973 -0.8765  3.3816 -1.1585
  805MOL0     H11028   2.976   6.167   9.122 -0.7696 -0.5497 -3.2704
  805MOL0     H11029   2.808   6.320   9.158 -4.9259 -0.6657 -1.9005
  805MOL0     H11030   2.883   6.447   9.047 -1.6951  0.0990  2.3463
  805MOL0     H11031   2.842   6.286   8.854 -0.9489  0.2138 -0.2415
  805MOL0     H11032   2.715   6.381   8.917 -0.2102  1.3006  1.8012
  805MOL0     H11033   2.655   6.139   8.863 -1.3705 -0.0227  1.0371
  805MOL0     H11034   2.794   6.090   8.965  0.5719 -0.3561 -3.4149
  805MOL0     H11035   2.544   6.248   9.055 -1.5647 -0.6796  0.0194
  805MOL0     H11036   2.653   6.182   9.172  0.8374 -1.8137 -0.4864
  805MOL0     H11037   2.593   5.957   9.104 -0.0620 -1.2762 -1.8840
  805MOL0     H11038   2.480   6.056   9.186 -0.2424 -1.0101 -0.8035
  805MOL0     H11039   2.540   5.931   8.819  0.0602  0.7694 -0.7318
  805MOL0     H11040   2.391   5.854   8.641  1.5482  1.1625 -0.0388
  805MOL0     H11041   2.282   5.986   8.596  1.6883 -0.6971 -0.5912
  805MOL0     H11042   2.184   5.741   8.756 -3.0951 -0.7956  0.7814
  805MOL0     H11043   2.085   5.872   8.717  0.3701 -0.0409 -0.8760
  805MOL0     H11044   2.236   5.711   8.498  0.9598 -0.2221  0.1632
  805MOL0     H11045   2.079   5.662   8.558 -0.8772  0.0181 -0.7427
  805MOL0     H11046   1.965   5.845   8.466 -0.7432  2.9506 -2.1754
  805MOL0     H11047   2.131   5.921   8.417 -0.7338  0.0881  1.6021
  805MOL0     H11048   1.833   5.750   8.188 -0.1850  1.4065  0.2362
  805MOL0     H11049   1.765   5.773   7.847  3.4361 -2.1054  0.5246
  805MOL0     H11050   1.725   5.914   7.935  3.7323  1.0489 -1.1572
  805MOL0     H11051   1.698   5.748   8.009 -0.1750 -0.3723  0.2211
  805MOL0     H11052   2.181   5.819   7.532 -0.0262 -0.1981  1.7668
  805MOL0     H11053   2.189   5.876   7.303  0.2018 -1.1255  1.6880
  805MOL0     H11054   2.307   6.092   7.138  0.3458  1.9356 -1.3687
  805MOL0     H11055   2.186   5.961   7.090 -2.0331  0.5327  0.7577
  805MOL0     H11056   2.087   6.114   6.931  0.5586 -1.1074  0.2183
  805MOL0     H11057   2.197   6.254   6.972 -0.0814  0.1242 -4.2320
  805MOL0     H11058   2.284   5.988   6.882 -0.4716 -1.0787 -1.2359
  805MOL0     H11059   2.383   6.136   6.870 -0.3149  2.1515  1.4740
  805MOL0     H11060   2.198   6.210   6.691 -1.3274 -0.2844  0.0778
  805MOL0     H11061   2.124   6.058   6.726  0.5629 -0.3738 -1.7858
  805MOL0     H11062   2.414   6.095   6.631 -0.4779  0.4693  3.6557
  805MOL0     H11063   2.325   5.944   6.666 -3.1094  0.9101  0.9780
  805MOL0     H11064   2.361   6.075   6.408  1.2494  1.2007  1.0922
  805MOL0     H11065   2.229   6.168   6.479 -1.3953 -0.8249 -1.5609
  805MOL0     H11066   2.076   5.985   6.495 -2.0667  0.1654 -1.1043
  805MOL0     H11067   2.199   5.872   6.435  1.2398  0.0722 -1.2720
  805MOL0     H11068   2.129   6.124   6.272 -2.0657 -0.7846 -1.5105
  805MOL0     H11069   2.035   5.979   6.244  1.2538 -1.2475 -0.9519
  805MOL0     H11070   2.031   6.271   7.376 -0.6629 -0.8006 -0.8957
  805MOL0     H11071   2.031   6.223   7.628  3.1606  0.5578  2.6558
  805MOL0     H11072   2.219   5.905   7.926 -1.5445  0.3293 -1.3109
  805MOL0     H11073   2.262   5.838   8.154  0.2177  1.3685  1.1227
  805MOL0     H11074   3.045   6.431   9.587  0.6067  1.5508  2.7313
  805MOL0     H11075   3.116   6.399   9.822  0.8664 -1.2249  1.4100
  805MOL0     H11076   3.548   6.348  10.109 -0.8111 -0.5974 -2.1341
  805MOL0     H11077   3.613   6.327  10.338  1.5863 -3.1858 -1.2836
  805MOL0     H11078   3.347   6.170  10.645 -0.9049 -0.7016  1.7165
  805MOL0     H11079   3.430   6.018  10.589 -2.3416 -0.3606  2.3060
  805MOL0     H11080   3.524   6.223  10.801 -0.3969  0.5772  0.0968
  805MOL0     H11081   3.635   6.109  10.730 -0.6082 -0.7394 -1.5306
  805MOL0     H11082   3.520   6.064  10.950 -1.4788  0.5036 -0.0865
  805MOL0     H11083   3.388   6.004  10.850 -0.4363  0.9234  0.0020
  805MOL0     H11084   3.551   5.860  10.720 -3.1496  0.1393  0.4533
  805MOL0     H11085   3.538   5.813  10.891 -2.2997  0.6656  1.0394
  805MOL0     H11086   3.930   5.959  10.911  0.5435 -1.4073 -1.1787
  805MOL0     H11087   3.283   6.063  10.413  1.1386 -0.6802 -1.1404
  805MOL0     H11088   3.120   6.024  10.252  1.9897 -1.8786  0.1106
  805MOL0     H11089   3.121   6.127  10.106 -0.2176  0.7094 -0.0989
  805MOL0     H11090   3.221   5.978  10.109  1.0454  2.0624 -2.2806
  806MOL0     O11091   7.837   7.522   4.322 -0.9653  0.7689  0.0736
  806MOL0     C11092   7.879   7.506   4.438  0.0038  0.1665 -0.1251
  806MOL0     O11093   7.803   7.511   4.552 -0.2396  0.0465 -0.2618
  806MOL0     C11094   7.664   7.536   4.555  0.6638  0.1482 -0.8991
  806MOL0     C11095   7.590   7.467   4.650  0.1392 -0.7765 -0.7125
  806MOL0     C11096   7.457   7.498   4.673  0.2003 -0.1096  0.0741
  806MOL0     C11097   7.389   7.596   4.595  0.2567 -1.1927 -0.0494
  806MOL0     O11098   7.257   7.639   4.605  0.3422  0.2679  0.6531
  806MOL0     C11099   7.180   7.586   4.716 -0.1213 -0.4716 -0.1739
  806MOL0     C11100   7.033   7.610   4.724  0.2953  0.5868  0.0800
  806MOL0     C11101   6.993   7.753   4.724  0.3503 -0.1671 -0.0299
  806MOL0     C11102   6.840   7.785   4.735  0.3983  0.2006  0.3226
  806MOL0     C11103   6.794   7.840   4.873  0.2291 -0.3472 -1.0012
  806MOL0     C11104   6.651   7.897   4.878 -0.4162 -1.6875  0.2104
  806MOL0     C11105   6.614   7.997   4.771 -0.6243 -0.8314 -0.2191
  806MOL0     C11106   6.665   8.140   4.799 -0.4049  0.3292  0.2119
  806MOL0     N11107   6.806   8.154   4.774 -0.6835 -0.7321 -0.1790
  806MOL0     C11108   6.893   8.199   4.875  1.2087  0.7292  0.2797
  806MOL0     C11109   7.016   8.191   4.816 -0.4517 -1.0372 -0.2377
  806MOL0     C11110   7.155   8.234   4.875  0.8588 -0.6302 -0.0794
  806MOL0     C11111   7.190   8.161   5.009 -0.6328 -0.5885  0.8686
  806MOL0     C11112   7.162   8.013   5.008 -0.9115  0.4901  0.5027
  806MOL0     C11113   7.236   7.940   5.119 -0.1824 -0.0270 -0.1276
  806MOL0     O11114   7.214   7.791   5.116  0.1209 -0.7772  1.4833
  806MOL0     C11115   7.109   7.735   5.171 -0.0674  0.5087 -0.3283
  806MOL0     C11116   7.116   7.595   5.194 -0.3928  0.9231 -0.3883
  806MOL0     C11117   7.004   7.528   5.258 -0.4278  0.1390 -0.1156
  806MOL0     C11118   7.015   7.379   5.268  0.0581  0.4672  0.6798
  806MOL0     C11119   6.894   7.610   5.309 -0.0307  0.1995  0.2909
  806MOL0     C11120   6.769   7.549   5.389  0.1808 -0.3899  0.7811
  806MOL0     O11121   6.639   7.571   5.353 -0.4649  0.4282 -0.1901
  806MOL0     C11122   6.544   7.483   5.396 -0.5125  1.0128 -0.3898
  806MOL0     C11123   6.419   7.530   5.367  0.1833 -0.4281 -0.7957
  806MOL0     C11124   6.303   7.457   5.394  0.3062  0.1918  1.1048
  806MOL0     C11125   6.310   7.331   5.459 -0.2035 -0.0718 -1.1315
  806MOL0     O11126   6.188   7.282   5.501 -0.4939 -0.2911 -0.0669
  806MOL0     C11127   6.178   7.192   5.615  0.3209  0.2692  0.6153
  806MOL0     C11128   6.032   7.204   5.659 -1.1379 -0.2555 -0.2755
  806MOL0     C11129   5.990   7.109   5.780  0.1565  0.0558 -0.2140
  806MOL0     C11130   6.095   7.105   5.891 -0.1236  0.0303 -0.9783
  806MOL0     C11131   6.208   6.987   5.870  0.5617 -1.2004  0.6451
  806MOL0     C11132   6.248   6.933   6.013 -0.6398 -0.3365 -0.6564
  806MOL0     C11133   6.342   6.808   6.001 -0.2627 -1.0906  0.5143
  806MOL0     C11134   6.364   6.735   6.130 -0.2489  0.5838 -0.5600
  806MOL0    Cl11135   6.395   6.863   6.264  0.1688  0.1321 -0.0588
  806MOL0     C11136   6.441   7.277   5.488  0.8730 -0.0035 -0.3045
  806MOL0     C11137   6.554   7.359   5.467  0.2794 -0.0344 -0.4345
  806MOL0     O11138   6.810   7.488   5.484  0.3883  0.7040  0.0283
  806MOL0     C11139   6.891   7.746   5.275 -0.1434 -1.0206  0.6171
  806MOL0     C11140   6.996   7.809   5.203 -0.2884  0.0182  1.2151
  806MOL0     N11141   7.005   8.153   4.685 -0.9052  0.5946 -0.8309
  806MOL0     N11142   6.882   8.139   4.661  0.2521  0.3348 -0.0846
  806MOL0     C11143   7.458   7.659   4.492  0.0227  0.9371 -0.0649
  806MOL0     C11144   7.589   7.629   4.475 -0.7288  0.1096  0.1287
  806MOL0     C11145   8.025   7.484   4.460 -0.1010 -0.2374 -0.7173
  806MOL0     C11146   8.065   7.488   4.590 -0.2822  0.0935 -0.8842
  806MOL0     C11147   8.199   7.484   4.627 -0.4985  0.1958  0.0072
  806MOL0     C11148   8.292   7.454   4.531  0.0676  1.0394  0.2523
  806MOL0     O11149   8.425   7.446   4.571 -0.7148 -0.2598  0.0830
  806MOL0     C11150   8.519   7.359   4.492 -0.4270  0.1727  0.1513
  806MOL0     C11151   8.642   7.325   4.577 -0.4055 -0.4275 -0.8289
  806MOL0     C11152   8.618   7.293   4.729  0.5344 -0.0981  0.9413
  806MOL0     C11153   8.563   7.146   4.743 -0.3357 -0.3777  0.7304
  806MOL0     C11154   8.415   7.122   4.716  0.4549 -0.7791  0.2472
  806MOL0     C11155   8.295   7.121   4.683  0.0469 -1.3654 -0.1517
  806MOL0     C11156   8.256   7.437   4.393 -0.2478  0.2729 -0.7338
  806MOL0     C11157   8.120   7.451   4.359 -0.3204  0.5769  1.0022
  806MOL0     C11158   8.086   7.440   4.212  0.7719 -0.0683  0.4148
  806MOL0     H11159   7.652   7.407   4.716  0.4257  1.9482  1.6878
  806MOL0     H11160   7.410   7.434   4.748  1.3954 -3.3178 -1.6906
  806MOL0     H11161   7.223   7.615   4.813  1.8112 -1.4166 -0.6923
  806MOL0     H11162   7.191   7.477   4.718 -0.9913 -0.5613  0.1331
  806MOL0     H11163   6.982   7.548   4.649 -0.4894 -0.0389  1.1164
  806MOL0     H11164   7.003   7.563   4.818  1.6716 -1.8393 -0.5832
  806MOL0     H11165   7.046   7.795   4.810  0.5925 -2.0804  0.8130
  806MOL0     H11166   7.039   7.806   4.641 -0.1035  1.5794  0.7834
  806MOL0     H11167   6.827   7.858   4.655  0.0008 -0.9717 -0.7233
  806MOL0     H11168   6.781   7.701   4.699 -0.3924  1.5031 -1.5572
  806MOL0     H11169   6.859   7.919   4.912  1.2729 -2.6050  2.2440
  806MOL0     H11170   6.804   7.766   4.952 -1.2800  2.4023  1.9934
  806MOL0     H11171   6.586   7.809   4.869  0.3506 -2.2663  0.2188
  806MOL0     H11172   6.632   7.943   4.976  2.1028  0.6432 -0.2736
  806MOL0     H11173   6.505   8.006   4.770 -0.6157 -0.7439 -1.2940
  806MOL0     H11174   6.639   7.970   4.668  1.4173  1.5929 -0.4712
  806MOL0     H11175   6.628   8.202   4.717  1.0089  0.9134 -0.0023
  806MOL0     H11176   6.641   8.176   4.900  0.6991 -1.7161  1.2829
  806MOL0     H11177   6.868   8.216   4.979  5.1228 -2.6677  2.0299
  806MOL0     H11178   7.163   8.343   4.887 -2.0026  0.0084 -2.5064
  806MOL0     H11179   7.225   8.190   4.805  0.0847 -1.1428 -0.5457
  806MOL0     H11180   7.298   8.170   5.028 -0.7537  1.8183  0.6856
  806MOL0     H11181   7.144   8.212   5.094 -1.5649  0.3169 -0.1537
  806MOL0     H11182   7.054   7.998   5.018 -1.3583  1.9371 -1.6137
  806MOL0     H11183   7.193   7.967   4.913  3.4457  1.0757  1.4324
  806MOL0     H11184   7.345   7.939   5.114  0.0608  1.5842  2.8643
  806MOL0     H11185   7.209   7.982   5.216  0.3303 -0.0345  0.0175
  806MOL0     H11186   7.202   7.536   5.163 -3.6614 -4.5924 -0.3637
  806MOL0     H11187   7.040   7.350   5.370  2.3246 -0.5013 -0.0922
  806MOL0     H11188   7.100   7.338   5.212 -0.4865 -1.8324  1.4420
  806MOL0     H11189   6.920   7.333   5.239  1.7555 -2.0526 -1.3931
  806MOL0     H11190   6.412   7.624   5.314  2.9693 -0.2755 -1.0245
  806MOL0     H11191   6.206   7.502   5.376 -0.5815 -1.3937  1.6548
  806MOL0     H11192   6.198   7.092   5.575 -0.6312  0.9237 -1.6618
  806MOL0     H11193   6.242   7.232   5.693 -0.4609  0.1148  1.3547
  806MOL0     H11194   6.002   7.305   5.688 -2.0970 -0.7518  0.5270
  806MOL0     H11195   5.960   7.179   5.580 -1.3308 -0.6310  0.0166
  806MOL0     H11196   5.968   7.009   5.741 -0.8587 -0.2842  1.1467
  806MOL0     H11197   5.896   7.155   5.811 -0.9047 -0.3644 -2.6191
  806MOL0     H11198   6.043   7.090   5.986 -0.6809  1.2877 -1.0698
  806MOL0     H11199   6.143   7.203   5.888 -1.7612  0.8470 -1.4619
  806MOL0     H11200   6.168   6.900   5.816  2.6043 -0.6121 -1.9998
  806MOL0     H11201   6.284   7.021   5.799  0.4383 -2.7214 -0.2514
  806MOL0     H11202   6.153   6.899   6.053  0.1618 -2.2209 -0.2673
  806MOL0     H11203   6.285   7.020   6.069 -0.5312  2.3460 -4.4425
  806MOL0     H11204   6.439   6.856   5.981 -0.3911 -1.0112  0.0619
  806MOL0     H11205   6.309   6.746   5.917  0.6830 -0.8894 -0.0275
  806MOL0     H11206   6.454   6.676   6.110 -1.0956 -1.1491  0.4872
  806MOL0     H11207   6.281   6.667   6.153 -1.3669  1.7378 -1.1179
  806MOL0     H11208   6.464   7.189   5.547  2.9214  0.6785 -0.0006
  806MOL0     H11209   6.651   7.325   5.503  1.0801 -0.1778 -2.5826
  806MOL0     H11210   6.799   7.794   5.308 -0.0626 -2.1447  2.6540
  806MOL0     H11211   6.977   7.916   5.198  2.1682  0.4530 -1.8594
  806MOL0     H11212   7.412   7.728   4.421  1.1994 -1.0772 -2.9761
  806MOL0     H11213   7.653   7.688   4.410  1.5804 -1.6492  0.6661
  806MOL0     H11214   7.993   7.499   4.671 -0.8690  1.8799 -1.5934
  806MOL0     H11215   8.224   7.483   4.733  1.1395 -0.2767 -0.3478
  806MOL0     H11216   8.452   7.275   4.469 -2.0502  1.5584 -0.4130
  806MOL0     H11217   8.538   7.404   4.395  0.1915 -1.1461 -0.3641
  806MOL0     H11218   8.718   7.403   4.563  1.5376 -2.4788 -2.5226
  806MOL0     H11219   8.699   7.240   4.538  1.0259  0.9803 -1.9475
  806MOL0     H11220   8.717   7.295   4.776  1.6183 -1.4738 -1.1288
  806MOL0     H11221   8.557   7.373   4.773 -2.7852 -1.5799 -0.6354
  806MOL0     H11222   8.579   7.115   4.847  0.0292  1.2562  1.1850
  806MOL0     H11223   8.630   7.075   4.692 -1.8086  0.2980 -2.4051
  806MOL0     H11224   8.193   7.127   4.651 -0.1208  2.6857  0.6925
  806MOL0     H11225   8.328   7.433   4.312  0.3628 -1.8273 -0.1738
  806MOL0     H11226   8.002   7.373   4.190  1.7130 -1.2760  0.4037
  806MOL0     H11227   8.071   7.543   4.177  2.4835 -0.6328 -2.2179
  806MOL0     H11228   8.173   7.401   4.160  0.0211 -1.5940  0.2477
  807MOL0     O11229   3.762   3.881   3.612 -0.0202  0.3202 -0.1657
  807MOL0     C11230   3.751   3.852   3.731 -0.4021 -0.2527 -0.2014
  807MOL0     O11231   3.633   3.788   3.783  0.5895  0.3866  0.1662
  807MOL0     C11232   3.516   3.795   3.709 -0.4653  0.8594 -0.8387
  807MOL0     C11233   3.459   3.917   3.680  0.1281 -0.2823 -0.4416
  807MOL0     C11234   3.336   3.915   3.610  0.3012 -0.0821 -0.9806
  807MOL0     C11235   3.280   3.795   3.559 -0.1500 -0.3834 -0.8956
  807MOL0     O11236   3.164   3.779   3.491  0.0925 -0.0214  0.3029
  807MOL0     C11237   3.094   3.908   3.477  0.5591 -0.7934 -0.4147
  807MOL0     C11238   2.954   3.886   3.419 -0.1674  0.1815  0.5059
  807MOL0     C11239   2.969   3.853   3.270 -0.5971  0.8998  0.8423
  807MOL0     C11240   2.829   3.832   3.216 -0.7486  0.1340  0.8211
  807MOL0     C11241   2.759   3.961   3.161  0.1451 -0.3453  0.0909
  807MOL0     C11242   2.629   3.922   3.081  1.1433  0.1529  0.7344
  807MOL0     C11243   2.642   3.840   2.947  0.5736  0.7368 -0.7934
  807MOL0     C11244   2.692   3.926   2.841 -0.1038 -1.0789  0.3935
  807MOL0     N11245   2.717   3.861   2.716 -0.0144  0.0387  0.0829
  807MOL0     C11246   2.796   3.752   2.713 -0.3120  0.3065  0.0266
  807MOL0     C11247   2.798   3.711   2.588  0.7890 -0.8752  1.2600
  807MOL0     C11248   2.879   3.602   2.517 -0.4277  0.6722  0.4566
  807MOL0     C11249   2.860   3.582   2.369  1.2118  0.2079  0.8811
  807MOL0     C11250   2.908   3.451   2.311 -0.1118  0.3875  0.5328
  807MOL0     C11251   2.872   3.446   2.156  0.2577 -0.3696 -1.4413
  807MOL0     O11252   2.885   3.312   2.107 -0.0684 -0.5814 -0.0134
  807MOL0     C11253   2.782   3.224   2.137  0.3695 -0.4429  1.0385
  807MOL0     C11254   2.654   3.237   2.083  0.0310  0.4169  0.7155
  807MOL0     C11255   2.556   3.135   2.095  0.4565 -0.1121 -0.4302
  807MOL0     C11256   2.428   3.149   2.012 -1.1486  0.0707 -0.2857
  807MOL0     C11257   2.578   3.029   2.179  0.1285  0.1013 -0.2081
  807MOL0     C11258   2.482   2.927   2.211 -0.3062  0.4532 -0.4029
  807MOL0     O11259   2.348   2.943   2.192  0.6238  0.1883 -0.2281
  807MOL0     C11260   2.269   2.831   2.208 -0.2194  0.4387 -0.1675
  807MOL0     C11261   2.231   2.804   2.341  0.0443 -0.1161 -0.0032
  807MOL0     C11262   2.139   2.704   2.370 -0.8207  0.3544 -0.4870
  807MOL0     C11263   2.082   2.630   2.273  0.4687 -0.3438 -0.0524
  807MOL0     O11264   1.998   2.522   2.294 -0.2410 -0.2095  0.1305
  807MOL0     C11265   2.014   2.447   2.416  0.6148 -0.8686  0.0988
  807MOL0     C11266   1.963   2.309   2.392 -0.3700 -0.7663  0.2350
  807MOL0     C11267   2.047   2.234   2.292  0.0262 -0.5317 -0.1252
  807MOL0     C11268   1.968   2.101   2.243 -0.0194  0.6505 -0.6763
  807MOL0     C11269   2.050   1.999   2.157 -0.1360 -0.0372  0.0142
  807MOL0     C11270   1.992   1.860   2.165  0.4920  0.8125 -0.3664
  807MOL0     C11271   2.069   1.760   2.064 -0.1006  1.0276 -0.0609
  807MOL0     C11272   2.191   1.680   2.135 -0.6632 -0.0458  0.5641
  807MOL0    Cl11273   2.283   1.591   2.006 -0.1954  0.0301  0.4381
  807MOL0     C11274   2.117   2.651   2.138 -0.3990 -0.5548  0.7316
  807MOL0     C11275   2.204   2.757   2.108 -0.4574  0.5147 -0.5246
  807MOL0     O11276   2.527   2.821   2.241  0.2085  0.0045 -0.8240
  807MOL0     C11277   2.704   3.020   2.243 -0.5158  0.6382 -0.8804
  807MOL0     C11278   2.802   3.115   2.223 -0.5986 -1.4142 -0.1954
  807MOL0     N11279   2.724   3.803   2.512  0.2176 -0.0388  0.1058
  807MOL0     N11280   2.676   3.894   2.592 -0.3480 -0.4672  0.4419
  807MOL0     C11281   3.342   3.672   3.587 -0.1809  0.8686 -0.7972
  807MOL0     C11282   3.467   3.675   3.653  0.7540  0.6951 -1.0046
  807MOL0     C11283   3.858   3.884   3.829  0.4078  0.1563  0.0038
  807MOL0     C11284   3.811   3.913   3.959  0.0098  0.7598 -0.7746
  807MOL0     C11285   3.894   3.952   4.065 -1.1578 -0.4914  0.0062
  807MOL0     C11286   4.028   3.961   4.035  0.5913  1.0454  0.0252
  807MOL0     O11287   4.116   3.994   4.133 -0.3704  0.2000 -0.8766
  807MOL0     C11288   4.100   3.955   4.266  0.1340  0.1366  0.6318
  807MOL0     C11289   4.110   3.801   4.271 -0.8852  0.6207 -0.6654
  807MOL0     C11290   4.235   3.738   4.215  0.2112 -0.1488 -0.3163
  807MOL0     C11291   4.366   3.800   4.272  0.1595  0.0260  0.4709
  807MOL0     C11292   4.476   3.711   4.235 -1.4953 -0.0143 -0.0741
  807MOL0     C11293   4.568   3.638   4.201  0.4613  0.0848 -0.3990
  807MOL0     C11294   4.076   3.938   3.913  0.0296 -0.4527  0.4499
  807MOL0     C11295   3.991   3.895   3.802  0.5536  0.0260 -0.1642
  807MOL0     C11296   4.056   3.851   3.674 -0.4138  0.3458  0.4917
  807MOL0     H11297   3.502   4.009   3.716  0.0755  0.1725 -1.4851
  807MOL0     H11298   3.288   4.012   3.597  2.0930  1.1775  1.0434
  807MOL0     H11299   3.147   3.976   3.409  0.6778 -1.1683 -0.7007
  807MOL0     H11300   3.081   3.940   3.581  2.9273  1.6554 -0.7411
  807MOL0     H11301   2.907   3.798   3.464 -3.3608 -0.6639 -3.7678
  807MOL0     H11302   2.887   3.972   3.427 -1.1985 -0.3653 -1.4915
  807MOL0     H11303   3.021   3.935   3.219  6.3753 -3.4754 -0.4361
  807MOL0     H11304   3.038   3.769   3.257 -0.0811  1.2718  1.1478
  807MOL0     H11305   2.828   3.751   3.141 -2.3081  0.0190  0.9302
  807MOL0     H11306   2.765   3.795   3.296 -1.2392  1.7207  1.1974
  807MOL0     H11307   2.827   4.022   3.101  2.9599 -0.0848  3.2747
  807MOL0     H11308   2.731   4.024   3.246 -1.0759 -0.0656 -0.4985
  807MOL0     H11309   2.569   3.858   3.146  0.9614 -1.8376 -1.2994
  807MOL0     H11310   2.565   4.011   3.071 -1.7631 -1.7900  0.8565
  807MOL0     H11311   2.545   3.798   2.920  0.5160  0.3636 -0.0301
  807MOL0     H11312   2.720   3.766   2.963  1.8523  2.1556 -0.1733
  807MOL0     H11313   2.639   4.020   2.829  1.5403  0.4497  3.6777
  807MOL0     H11314   2.786   3.965   2.881 -0.3003 -0.8519  0.6404
  807MOL0     H11315   2.842   3.698   2.795 -1.0786 -3.6486 -1.8915
  807MOL0     H11316   2.864   3.511   2.577 -2.9451  1.0207  0.4491
  807MOL0     H11317   2.983   3.635   2.512 -0.9910  2.2599 -3.4792
  807MOL0     H11318   2.753   3.594   2.348  1.4059 -0.4647 -0.6139
  807MOL0     H11319   2.913   3.657   2.309 -0.9450 -0.6309 -2.3159
  807MOL0     H11320   3.011   3.422   2.334 -1.4533 -4.1637  1.8540
  807MOL0     H11321   2.854   3.373   2.365 -0.6099 -0.9950 -1.8131
  807MOL0     H11322   2.772   3.490   2.153 -0.6269 -0.7518  5.4515
  807MOL0     H11323   2.947   3.512   2.112 -0.7962  2.8900  1.2118
  807MOL0     H11324   2.632   3.319   2.015  0.7785 -1.4814 -1.9997
  807MOL0     H11325   2.340   3.186   2.066 -0.7056  0.9059 -0.1043
  807MOL0     H11326   2.402   3.054   1.965 -3.7441  0.0782  0.9761
  807MOL0     H11327   2.447   3.225   1.936  0.0353 -3.0267 -3.3382
  807MOL0     H11328   2.272   2.864   2.421  2.1261 -0.6869 -0.5807
  807MOL0     H11329   2.115   2.690   2.475  1.6791 -3.4932 -0.2175
  807MOL0     H11330   2.117   2.448   2.452  0.4328  2.5093  0.7919
  807MOL0     H11331   1.961   2.494   2.499  2.9242  0.0822  1.1073
  807MOL0     H11332   1.982   2.266   2.491 -0.5477  2.2993  1.7196
  807MOL0     H11333   1.857   2.307   2.368  0.1657  2.8641 -3.6837
  807MOL0     H11334   2.146   2.223   2.336  0.5454  1.3189 -0.7027
  807MOL0     H11335   2.068   2.289   2.199 -1.7440 -2.3229 -1.6809
  807MOL0     H11336   1.877   2.129   2.188  0.1743  0.4763 -1.0920
  807MOL0     H11337   1.933   2.054   2.335  2.1007 -0.5521 -0.4432
  807MOL0     H11338   2.060   2.023   2.051 -0.4464 -1.0836 -0.2626
  807MOL0     H11339   2.151   1.993   2.200 -0.5868 -2.6067  0.9264
  807MOL0     H11340   1.886   1.872   2.142  0.4723 -0.8268 -1.2887
  807MOL0     H11341   1.990   1.817   2.265 -1.9150 -0.0700 -0.7198
  807MOL0     H11342   2.110   1.812   1.977  1.2201 -2.7131 -1.8593
  807MOL0     H11343   1.992   1.690   2.030 -3.3220  2.2719  3.8553
  807MOL0     H11344   2.148   1.616   2.213  0.2582 -0.1625  0.9791
  807MOL0     H11345   2.267   1.739   2.186  0.0239 -3.4790  4.0669
  807MOL0     H11346   2.099   2.573   2.064 -0.5687  1.2348 -1.2069
  807MOL0     H11347   2.238   2.789   2.009  1.6160  0.3372  0.0907
  807MOL0     H11348   2.717   2.940   2.314 -2.4077  1.2707  0.2666
  807MOL0     H11349   2.894   3.097   2.277 -0.2413 -2.0951 -1.0012
  807MOL0     H11350   3.297   3.581   3.547 -2.3498  0.0261  3.0754
  807MOL0     H11351   3.519   3.585   3.683 -1.6838 -0.6571 -0.4881
  807MOL0     H11352   3.709   3.882   3.981  1.3583 -4.3045 -0.6023
  807MOL0     H11353   3.860   3.965   4.167  0.1613 -4.0509  1.0176
  807MOL0     H11354   4.177   4.002   4.329  1.6493 -0.1316 -0.9391
  807MOL0     H11355   4.005   3.970   4.317  1.3043  1.7167  2.5408
  807MOL0     H11356   4.028   3.751   4.219 -0.8555  1.6513 -1.7465
  807MOL0     H11357   4.109   3.768   4.376  0.0656  0.9024 -0.5542
  807MOL0     H11358   4.231   3.631   4.236 -1.2286  0.3769  2.5110
  807MOL0     H11359   4.232   3.749   4.106  0.8497 -2.0018 -0.5488
  807MOL0     H11360   4.370   3.822   4.379 -0.2182 -1.2076  0.7637
  807MOL0     H11361   4.378   3.899   4.227  2.6578  0.7278  2.4501
  807MOL0     H11362   4.651   3.589   4.153  1.1817 -0.2029  1.0740
  807MOL0     H11363   4.183   3.945   3.893  0.4163  2.0455  2.7572
  807MOL0     H11364   4.165   3.854   3.673 -0.4057  3.0700 -1.7402
  807MOL0     H11365   4.030   3.746   3.659  0.1114  0.5171 -2.0461
  807MOL0     H11366   4.015   3.910   3.591 -2.2453  1.4310  2.0662
  808MOL0     O11367   8.613   6.458   6.012 -0.4883 -0.2139  0.4178
  808MOL0     C11368   8.686   6.420   6.098  0.2440  0.2729 -0.3823
  808MOL0     O11369   8.726   6.501   6.194 -0.0769  0.5433  0.0767
  808MOL0     C11370   8.749   6.639   6.181  0.5469 -0.2884 -0.6231
  808MOL0     C11371   8.684   6.724   6.263 -0.4777 -0.2856 -0.2779
  808MOL0     C11372   8.715   6.860   6.278 -0.8473  0.1530 -0.1240
  808MOL0     C11373   8.814   6.913   6.192  0.0339  0.5064  0.1903
  808MOL0     O11374   8.841   7.047   6.164 -0.1623  0.4078 -0.0380
  808MOL0     C11375   8.726   7.132   6.180  0.0636 -0.2567 -0.0468
  808MOL0     C11376   8.633   7.133   6.063  0.2955  0.2996 -0.3835
  808MOL0     C11377   8.694   7.176   5.940 -0.6923 -1.0750 -0.4850
  808MOL0     C11378   8.601   7.160   5.822 -0.1070  0.3689 -0.5109
  808MOL0     C11379   8.667   7.163   5.686 -0.1139 -0.2511  0.3412
  808MOL0     C11380   8.564   7.113   5.582 -1.1595 -0.3360 -0.0913
  808MOL0     C11381   8.629   7.085   5.445 -0.9115 -0.5123  0.1618
  808MOL0     C11382   8.744   6.983   5.447 -0.2120 -0.2901 -0.4217
  808MOL0     N11383   8.699   6.852   5.475  1.5061  0.6058 -0.0085
  808MOL0     C11384   8.684   6.783   5.598  0.6276 -0.4183 -0.5829
  808MOL0     C11385   8.619   6.663   5.563  0.0472  1.0203 -0.6508
  808MOL0     C11386   8.558   6.556   5.656 -1.0545  0.3770  0.5945
  808MOL0     C11387   8.406   6.563   5.673 -0.6061 -0.0021  0.0618
  808MOL0     C11388   8.359   6.639   5.793 -0.6571 -0.3168  0.1876
  808MOL0     C11389   8.206   6.642   5.789 -0.0893 -0.0062 -0.9056
  808MOL0     O11390   8.150   6.725   5.686 -0.0403  0.7429  0.0574
  808MOL0     C11391   8.179   6.856   5.685 -0.0012 -0.0617 -0.9212
  808MOL0     C11392   8.201   6.920   5.800  0.1838  0.1101 -0.8995
  808MOL0     C11393   8.224   7.057   5.801  0.1356  0.7175  0.5184
  808MOL0     C11394   8.247   7.106   5.941  1.1311  0.1855  0.0884
  808MOL0     C11395   8.229   7.133   5.682 -0.3362 -0.7457  0.0158
  808MOL0     C11396   8.235   7.279   5.691  0.6091 -0.1318  0.5561
  808MOL0     O11397   8.182   7.339   5.573  0.9816  0.4269 -1.1868
  808MOL0     C11398   8.146   7.471   5.592 -0.8768  0.4211 -0.5388
  808MOL0     C11399   8.022   7.502   5.644  0.6640 -1.0238  0.4744
  808MOL0     C11400   7.981   7.635   5.658 -0.6466  0.1041 -0.0147
  808MOL0     C11401   8.082   7.733   5.654  0.1614 -0.3689 -0.8075
  808MOL0     O11402   8.053   7.867   5.699  0.5423  0.8651  0.4477
  808MOL0     C11403   8.134   7.922   5.795  0.0785 -0.1461 -1.3921
  808MOL0     C11404   8.083   8.073   5.824 -1.3930  0.7173 -0.5151
  808MOL0     C11405   7.965   8.062   5.910 -0.3410  0.6619  0.2905
  808MOL0     C11406   7.926   8.204   5.953  0.1164 -1.0813 -0.9268
  808MOL0     C11407   7.776   8.205   5.991 -0.0195  0.2651 -0.0536
  808MOL0     C11408   7.687   8.234   5.864 -0.1389  0.7936  0.3561
  808MOL0     C11409   7.536   8.204   5.894 -0.7438 -1.1291 -0.2061
  808MOL0     C11410   7.477   8.061   5.877 -1.0930 -0.6952 -0.1737
  808MOL0    Cl11411   7.506   8.028   5.710  0.2955  0.2619 -0.2144
  808MOL0     C11412   8.213   7.704   5.607 -0.4805 -0.3626  0.1566
  808MOL0     C11413   8.245   7.573   5.583  0.9556  0.0699 -0.0045
  808MOL0     O11414   8.291   7.342   5.779 -0.7227 -0.5538 -1.0701
  808MOL0     C11415   8.207   7.065   5.561 -0.3796  0.0844  0.7075
  808MOL0     C11416   8.179   6.927   5.564  0.2652 -0.3496  1.2569
  808MOL0     N11417   8.594   6.660   5.422  0.5413  0.2069  0.3952
  808MOL0     N11418   8.648   6.771   5.381 -0.6207  0.8771  0.8710
  808MOL0     C11419   8.867   6.832   6.087 -0.0837 -0.1310 -0.1345
  808MOL0     C11420   8.836   6.697   6.089  0.1921  0.0479 -0.6158
  808MOL0     C11421   8.709   6.269   6.121 -0.2833 -0.0474  0.0499
  808MOL0     C11422   8.792   6.232   6.227 -0.3538 -0.1990  0.6866
  808MOL0     C11423   8.818   6.099   6.254 -0.2247  0.0798 -0.2425
  808MOL0     C11424   8.774   5.996   6.177  0.6112  0.7573 -0.0573
  808MOL0     O11425   8.796   5.869   6.228  1.0438  0.7460  0.0342
  808MOL0     C11426   8.747   5.745   6.167 -0.3040  0.3627  0.1497
  808MOL0     C11427   8.792   5.626   6.243 -0.4558 -0.3767 -0.0937
  808MOL0     C11428   8.944   5.611   6.272 -0.2164 -0.3831 -0.0553
  808MOL0     C11429   9.037   5.613   6.149  0.4057 -0.0553 -0.1357
  808MOL0     C11430   8.991   5.542   6.029  0.4501  1.5227 -0.2987
  808MOL0     C11431   8.943   5.481   5.933  0.4220 -0.6099  0.9799
  808MOL0     C11432   8.691   6.025   6.065 -0.3355 -0.3892  0.3108
  808MOL0     C11433   8.662   6.162   6.036  0.7172  1.0470 -0.1292
  808MOL0     C11434   8.566   6.168   5.914  0.6113 -0.1306 -0.1460
  808MOL0     H11435   8.610   6.677   6.328 -0.5987 -2.9664 -2.2276
  808MOL0     H11436   8.666   6.926   6.349  1.9443  2.0436  0.2131
  808MOL0     H11437   8.771   7.232   6.183 -0.3768 -0.0443 -0.3315
  808MOL0     H11438   8.673   7.111   6.274  0.6507  0.9185  0.5813
  808MOL0     H11439   8.598   7.030   6.051  2.9682 -0.6128 -0.9145
  808MOL0     H11440   8.547   7.199   6.078  0.7969  1.2679 -1.5871
  808MOL0     H11441   8.725   7.281   5.939 -2.6496 -0.4470  0.3946
  808MOL0     H11442   8.786   7.116   5.932 -1.3821 -2.4020  0.9183
  808MOL0     H11443   8.552   7.063   5.833  0.9095 -0.2020 -0.9178
  808MOL0     H11444   8.517   7.230   5.834  2.4477  3.5436  0.2392
  808MOL0     H11445   8.754   7.096   5.683  0.2216  0.1344  1.2721
  808MOL0     H11446   8.704   7.263   5.662 -2.7240  1.1785  1.7626
  808MOL0     H11447   8.519   7.018   5.611  0.8551 -1.3526 -0.1660
  808MOL0     H11448   8.488   7.191   5.569  0.8975  2.1424  1.7254
  808MOL0     H11449   8.666   7.183   5.412  1.9816 -0.9665  1.7455
  808MOL0     H11450   8.556   7.051   5.370 -1.0473  2.4083 -1.1692
  808MOL0     H11451   8.800   6.974   5.353  3.5775 -0.7921  1.6529
  808MOL0     H11452   8.827   7.020   5.509 -0.3128  0.6139 -0.8160
  808MOL0     H11453   8.690   6.826   5.698 -0.6078 -2.3375  0.3676
  808MOL0     H11454   8.605   6.539   5.753  1.2742  1.5717 -0.2403
  808MOL0     H11455   8.580   6.466   5.597  2.7317  1.8416 -0.4883
  808MOL0     H11456   8.365   6.596   5.578  2.8233 -0.7556 -1.8390
  808MOL0     H11457   8.370   6.460   5.684 -0.9540  0.1813  0.7315
  808MOL0     H11458   8.398   6.592   5.884  2.1663  2.8314  0.8072
  808MOL0     H11459   8.390   6.743   5.778  0.8403 -1.1760 -3.6644
  808MOL0     H11460   8.169   6.540   5.782  1.0222 -0.5501  0.6367
  808MOL0     H11461   8.158   6.664   5.884 -1.3472 -1.5216 -1.1481
  808MOL0     H11462   8.206   6.874   5.898  2.9038  0.5713 -0.7499
  808MOL0     H11463   8.352   7.103   5.974  0.8908 -2.9008  0.8260
  808MOL0     H11464   8.185   7.050   6.011 -0.2670 -0.5204 -1.6472
  808MOL0     H11465   8.210   7.209   5.943 -0.2502 -0.3073  0.9070
  808MOL0     H11466   7.954   7.418   5.661  2.1714 -2.9924 -2.3569
  808MOL0     H11467   7.883   7.645   5.703  0.2406 -0.9131  2.3839
  808MOL0     H11468   8.126   7.855   5.882  0.0442  0.4769 -0.9036
  808MOL0     H11469   8.235   7.925   5.753  0.5566 -2.3789 -0.5616
  808MOL0     H11470   8.167   8.119   5.878 -0.2189 -1.6324 -0.1606
  808MOL0     H11471   8.073   8.128   5.730  3.0395 -1.4414 -2.5857
  808MOL0     H11472   7.976   7.995   5.996  0.6201  0.2700 -0.1263
  808MOL0     H11473   7.890   8.014   5.846  0.5814  1.6836 -1.6387
  808MOL0     H11474   7.944   8.286   5.884 -0.9661  2.0469  2.2290
  808MOL0     H11475   7.994   8.234   6.034  0.1422 -0.5044 -1.1618
  808MOL0     H11476   7.749   8.124   6.059  0.9461 -2.2648 -2.4970
  808MOL0     H11477   7.769   8.298   6.049  0.5433 -0.3073  0.9557
  808MOL0     H11478   7.717   8.174   5.777 -0.7503  1.0242 -0.0224
  808MOL0     H11479   7.699   8.340   5.839 -1.0456  1.0066  0.7720
  808MOL0     H11480   7.480   8.270   5.827 -0.5124  1.8820  2.2945
  808MOL0     H11481   7.520   8.242   5.996  1.7897  1.2322 -0.5731
  808MOL0     H11482   7.368   8.071   5.886 -0.9159  1.6500 -0.0104
  808MOL0     H11483   7.521   7.980   5.936 -1.1469 -1.0759 -0.6473
  808MOL0     H11484   8.285   7.784   5.599 -0.0827 -0.2729  3.4359
  808MOL0     H11485   8.344   7.547   5.548  0.9453  0.8758 -0.6527
  808MOL0     H11486   8.213   7.117   5.466  0.3968  1.0110  1.2465
  808MOL0     H11487   8.164   6.868   5.474 -1.3486  1.1893  0.4635
  808MOL0     H11488   8.923   6.879   6.007 -0.2460  2.5576  1.2157
  808MOL0     H11489   8.872   6.618   6.024  1.8412 -1.5376  1.9993
  808MOL0     H11490   8.817   6.309   6.299  0.4636 -1.3241  1.6371
  808MOL0     H11491   8.896   6.087   6.328 -0.4504  1.0713  0.1701
  808MOL0     H11492   8.639   5.740   6.150 -0.1392 -2.3492 -0.6089
  808MOL0     H11493   8.800   5.739   6.071 -0.6223  1.1518 -0.0819
  808MOL0     H11494   8.753   5.546   6.181  1.0160 -2.1091  1.0875
  808MOL0     H11495   8.746   5.635   6.342  0.2127 -2.1572  0.4188
  808MOL0     H11496   8.982   5.686   6.341  0.9391  0.4136 -1.4946
  808MOL0     H11497   8.956   5.515   6.324 -3.0370  0.7593  2.9733
  808MOL0     H11498   9.123   5.558   6.186 -0.6216 -1.4821  0.2220
  808MOL0     H11499   9.061   5.712   6.110 -1.5280  0.7811  0.6492
  808MOL0     H11500   8.914   5.411   5.858  1.1072  0.3615 -0.2528
  808MOL0     H11501   8.641   5.953   6.001 -0.7097  1.5761 -1.7079
  808MOL0     H11502   8.467   6.127   5.936  0.8273  0.0566  1.2955
  808MOL0     H11503   8.561   6.274   5.888  0.4529 -0.3872 -1.2177
  808MOL0     H11504   8.606   6.114   5.828  0.7391  1.5768 -1.1924
  809MOL0     O11505   1.057  10.504   2.225  0.0715  0.1758  0.5553
  809MOL0     C11506   1.000  10.430   2.304 -0.6066  0.0737 -0.6763
  809MOL0     O11507   1.057  10.369   2.415 -0.2792  1.0301  1.0161
  809MOL0     C11508   1.190  10.393   2.447  0.8263 -0.6458  0.3665
  809MOL0     C11509   1.298  10.399   2.354  0.2792  0.6920  0.1683
  809MOL0     C11510   1.430  10.411   2.409 -0.0672 -0.1448  0.0482
  809MOL0     C11511   1.446  10.421   2.545  0.2880 -0.3818  0.3741
  809MOL0     O11512   1.574  10.441   2.599  0.2651  0.5733 -0.4191
  809MOL0     C11513   1.620  10.324   2.670  0.4364  0.2122 -0.7663
  809MOL0     C11514   1.782  10.329   2.678 -0.1357 -0.4453  0.3405
  809MOL0     C11515   1.824  10.343   2.528 -0.9448  0.1839 -0.7873
  809MOL0     C11516   1.978  10.333   2.509 -0.2356 -0.9211 -0.2030
  809MOL0     C11517   2.024  10.374   2.369 -0.1258  0.1842  0.1859
  809MOL0     C11518   2.174  10.350   2.340 -1.1828 -0.2448 -0.2179
  809MOL0     C11519   2.266  10.404   2.446 -0.3067 -0.4191 -0.1609
  809MOL0     C11520   2.258  10.548   2.475  0.2841 -0.2760 -0.2315
  809MOL0     N11521   2.393  10.604   2.513  0.4143  0.1257  0.3657
  809MOL0     C11522   2.404  10.721   2.583 -0.0814  0.1260 -0.5592
  809MOL0     C11523   2.533  10.765   2.587  0.7110 -0.0523  0.2936
  809MOL0     C11524   2.577  10.906   2.632  0.0900  0.2386  0.7318
  809MOL0     C11525   2.730  10.900   2.680 -0.3218 -0.4023  0.6530
  809MOL0     C11526   2.786  11.038   2.699  0.0214 -0.6045 -0.6369
  809MOL0     C11527   2.891  11.055   2.819  0.4715 -0.3289  0.2623
  809MOL0     O11528   2.982  10.942   2.848  0.0548 -0.1425  0.1590
  809MOL0     C11529   3.061  10.941   2.953 -1.0084  0.3158 -0.2928
  809MOL0     C11530   3.095  11.055   3.030 -0.3401 -0.1074 -0.2610
  809MOL0     C11531   3.205  11.065   3.117  0.7842 -0.0016  0.5634
  809MOL0     C11532   3.250  11.204   3.160  0.4694 -0.1940 -0.3215
  809MOL0     C11533   3.285  10.950   3.133 -0.0319 -0.6204 -0.2022
  809MOL0     C11534   3.418  10.940   3.218  0.9584 -0.3417  0.2436
  809MOL0     O11535   3.458  11.042   3.289 -0.5091  0.2607  0.3676
  809MOL0     C11536   3.523  11.011   3.404 -0.1045 -0.3239  0.5331
  809MOL0     C11537   3.662  11.021   3.424 -0.0954  0.0879  0.9086
  809MOL0     C11538   3.713  10.995   3.552 -0.0836 -0.6156  0.1515
  809MOL0     C11539   3.634  10.944   3.658 -0.4938  0.0938 -0.2944
  809MOL0     O11540   3.673  10.900   3.778 -0.5138  0.1502 -0.8332
  809MOL0     C11541   3.804  10.936   3.824 -0.3158  0.4548  0.6492
  809MOL0     C11542   3.803  11.082   3.863  0.6424 -0.8744 -1.0193
  809MOL0     C11543   3.904  11.124   3.969 -0.7698 -0.2269 -0.6654
  809MOL0     C11544   4.051  11.100   3.913  0.3258  0.1150  0.3738
  809MOL0     C11545   4.164  11.125   4.014 -1.1537  0.8546 -0.0626
  809MOL0     C11546   4.211  11.264   4.051  0.1367 -0.2346  0.3943
  809MOL0     C11547   4.291  11.341   3.942 -0.4416 -0.3113  0.9363
  809MOL0     C11548   4.401  11.279   3.847 -0.3431 -0.1354 -0.0737
  809MOL0    Cl11549   4.363  11.209   3.682 -0.0084 -0.2248  0.3812
  809MOL0     C11550   3.497  10.920   3.625 -0.4772  0.5323 -0.9834
  809MOL0     C11551   3.445  10.956   3.504  0.9965  0.0965  0.8165
  809MOL0     O11552   3.478  10.834   3.207 -0.1992  0.6233  0.2696
  809MOL0     C11553   3.250  10.833   3.060  0.3289  1.0147 -0.2975
  809MOL0     C11554   3.145  10.829   2.970 -1.1666 -0.4553 -0.0458
  809MOL0     N11555   2.600  10.674   2.513  0.6251  0.8353  0.5444
  809MOL0     N11556   2.520  10.578   2.466 -0.7286  0.2491 -0.4269
  809MOL0     C11557   1.337  10.432   2.634  0.1254 -0.2043  0.4470
  809MOL0     C11558   1.212  10.408   2.581 -0.7120  1.3748 -1.0029
  809MOL0     C11559   0.860  10.421   2.282  1.4564  0.7426  0.7340
  809MOL0     C11560   0.780  10.379   2.395 -0.3139  0.9578  1.2900
  809MOL0     C11561   0.649  10.348   2.381 -0.7827  0.6624  0.0976
  809MOL0     C11562   0.577  10.368   2.256 -0.4484  1.0964  0.3372
  809MOL0     O11563   0.446  10.331   2.235 -0.4899  1.2077 -0.2077
  809MOL0     C11564   0.352  10.302   2.339 -0.3247  0.1487 -0.5162
  809MOL0     C11565   0.325  10.423   2.432 -0.3079 -0.2800 -0.6609
  809MOL0     C11566   0.175  10.423   2.456 -0.0332 -0.4163 -0.3950
  809MOL0     C11567   0.134  10.526   2.568 -0.4146 -0.8303 -0.1239
  809MOL0     C11568   0.049  10.641   2.524 -0.4991  0.1886 -0.1105
  809MOL0     C11569  -0.014  10.730   2.489  0.3241  0.8032 -0.3999
  809MOL0     C11570   0.647  10.419   2.152  0.3314 -0.4847  0.4088
  809MOL0     C11571   0.788  10.442   2.157  0.1606  0.3827  0.4642
  809MOL0     C11572   0.854  10.464   2.025  0.5317  0.3063 -1.1452
  809MOL0     H11573   1.285  10.376   2.249 -0.0410 -2.0747  0.7222
  809MOL0     H11574   1.510  10.400   2.337  0.7230 -1.7374  1.1033
  809MOL0     H11575   1.599  10.232   2.614 -2.3153  1.1723 -1.4323
  809MOL0     H11576   1.580  10.318   2.771 -3.7707  2.0322 -2.1224
  809MOL0     H11577   1.810  10.422   2.728 -0.7394 -1.2136  2.1719
  809MOL0     H11578   1.827  10.237   2.716  0.8098 -0.5989 -1.0580
  809MOL0     H11579   1.786  10.249   2.486  1.2892 -1.5858  0.9384
  809MOL0     H11580   1.791  10.431   2.472  1.2471  1.9462  0.5285
  809MOL0     H11581   2.013  10.399   2.588  2.3496 -0.6893 -1.4271
  809MOL0     H11582   2.017  10.233   2.530  2.0242  0.2851  1.9158
  809MOL0     H11583   2.002  10.482   2.369 -2.3225 -0.2256  1.2111
  809MOL0     H11584   1.965  10.315   2.299  0.3075 -4.0226  3.0500
  809MOL0     H11585   2.187  10.241   2.333  1.0063  0.0784 -2.3856
  809MOL0     H11586   2.206  10.381   2.240 -2.2189 -1.1390 -0.8519
  809MOL0     H11587   2.366  10.381   2.409  0.3200  0.5868  0.8424
  809MOL0     H11588   2.248  10.353   2.541 -0.3872 -1.7872 -0.8883
  809MOL0     H11589   2.215  10.603   2.391 -1.6781 -1.5392 -0.1072
  809MOL0     H11590   2.194  10.570   2.561  4.1112 -0.0717  2.8410
  809MOL0     H11591   2.321  10.785   2.610 -0.5087 -0.9283  0.7431
  809MOL0     H11592   2.512  10.939   2.714 -1.1844 -2.5483  0.9290
  809MOL0     H11593   2.564  10.960   2.538 -1.4418 -1.3399 -0.0018
  809MOL0     H11594   2.751  10.846   2.773  2.4871  0.4258  0.5922
  809MOL0     H11595   2.788  10.851   2.601  2.0145  3.1144 -0.0560
  809MOL0     H11596   2.834  11.058   2.603 -1.6984  1.3970 -1.1445
  809MOL0     H11597   2.698  11.103   2.704 -0.0693 -0.5471 -2.5116
  809MOL0     H11598   2.951  11.140   2.785 -1.6976  0.6435 -1.3649
  809MOL0     H11599   2.822  11.073   2.902 -2.2239 -1.0712 -1.6827
  809MOL0     H11600   3.047  11.146   2.996 -0.1493 -0.0292 -0.3218
  809MOL0     H11601   3.276  11.213   3.266  2.1772 -1.9825 -0.5260
  809MOL0     H11602   3.188  11.287   3.125  0.6259 -0.7265 -1.9209
  809MOL0     H11603   3.343  11.228   3.107 -0.6739  1.7313 -1.5704
  809MOL0     H11604   3.723  11.033   3.334 -0.8599 -2.4967 -0.0430
  809MOL0     H11605   3.818  11.020   3.566 -0.9502  4.4943 -0.5102
  809MOL0     H11606   3.817  10.873   3.913  1.1054 -1.1565 -0.6220
  809MOL0     H11607   3.886  10.914   3.755 -0.1190  1.3872  0.5750
  809MOL0     H11608   3.825  11.144   3.775  3.4742 -2.1970 -1.3413
  809MOL0     H11609   3.701  11.100   3.897  1.6586 -1.5071  2.8308
  809MOL0     H11610   3.889  11.074   4.065  0.8017  0.6887  0.1013
  809MOL0     H11611   3.893  11.229   3.998 -3.0577 -0.9725  1.5433
  809MOL0     H11612   4.047  11.167   3.827  0.8409 -1.2894 -0.7874
  809MOL0     H11613   4.068  10.997   3.882  0.9613  0.1962  0.4572
  809MOL0     H11614   4.129  11.069   4.102  1.7735  1.9054  1.9193
  809MOL0     H11615   4.255  11.070   3.989 -1.6176 -1.3616  2.5742
  809MOL0     H11616   4.270  11.269   4.143  1.5390 -1.1422 -0.4243
  809MOL0     H11617   4.129  11.328   4.084  0.9862  1.8154 -1.2723
  809MOL0     H11618   4.351  11.415   3.997  4.4555 -3.5836  0.6058
  809MOL0     H11619   4.225  11.384   3.866  0.9925  1.1668  0.4823
  809MOL0     H11620   4.473  11.210   3.893  0.6767 -1.3044 -3.1962
  809MOL0     H11621   4.461  11.368   3.825  0.8951 -1.3824 -1.9997
  809MOL0     H11622   3.432  10.866   3.693  2.3025 -0.9848  0.6570
  809MOL0     H11623   3.337  10.962   3.502  0.8978  3.8408  3.8277
  809MOL0     H11624   3.302  10.738   3.070 -0.2108  0.7635  0.1358
  809MOL0     H11625   3.125  10.735   2.918 -0.5404 -1.7385  1.9269
  809MOL0     H11626   1.358  10.440   2.740  1.9692 -0.3855  0.1199
  809MOL0     H11627   1.134  10.397   2.656  0.0670 -0.9776 -0.4286
  809MOL0     H11628   0.829  10.370   2.492  3.3917 -0.5766 -0.5138
  809MOL0     H11629   0.592  10.340   2.473  0.5929 -1.9391  0.8087
  809MOL0     H11630   0.254  10.280   2.297  0.5442  1.6270 -3.5493
  809MOL0     H11631   0.379  10.215   2.401  0.8730 -0.4234 -1.7808
  809MOL0     H11632   0.369  10.519   2.404  1.3371 -1.0702 -0.8916
  809MOL0     H11633   0.381  10.406   2.525  1.2171 -0.9306 -1.6556
  809MOL0     H11634   0.123  10.453   2.365  1.1249  3.1717 -0.0398
  809MOL0     H11635   0.144  10.326   2.496  1.7944 -0.9693 -0.1976
  809MOL0     H11636   0.221  10.567   2.620 -1.6815  2.5613 -0.4100
  809MOL0     H11637   0.068  10.475   2.639 -1.7300  0.5143 -0.3327
  809MOL0     H11638  -0.070  10.821   2.478 -2.2267 -0.4686  1.1018
  809MOL0     H11639   0.587  10.428   2.063 -1.2318 -2.1255  1.2245
  809MOL0     H11640   0.776  10.453   1.949 -0.9336 -1.5257  0.5155
  809MOL0     H11641   0.887  10.568   2.013 -1.1289  0.9202 -0.5779
  809MOL0     H11642   0.949  10.411   2.009  2.0388  2.7954 -0.9755
  810MOL0     O11643  11.474   2.863   6.415 -0.0882  0.3009 -0.7440
  810MOL0     C11644  11.485   2.803   6.305 -0.5706 -1.4569  0.0732
  810MOL0     O11645  11.388   2.726   6.252 -0.2461  0.0798  0.4430
  810MOL0     C11646  11.266   2.744   6.300  0.2690 -0.9211  0.5416
  810MOL0     C11647  11.154   2.824   6.241 -0.3304 -0.0326 -0.2339
  810MOL0     C11648  11.038   2.857   6.317  0.2767  0.3944  0.0462
  810MOL0     C11649  11.018   2.788   6.434 -0.4395 -0.3976 -0.2272
  810MOL0     O11650  10.901   2.821   6.503 -0.2304 -0.4186 -0.8481
  810MOL0     C11651  10.935   2.902   6.619 -0.2379 -0.5389 -0.2845
  810MOL0     C11652  10.827   3.001   6.652 -0.0855  0.0559  0.0667
  810MOL0     C11653  10.685   2.934   6.666 -0.5467 -0.5239 -0.8222
  810MOL0     C11654  10.582   3.053   6.673 -0.5520 -0.5004  0.0822
  810MOL0     C11655  10.594   3.141   6.555 -0.2542  0.0030  0.2748
  810MOL0     C11656  10.466   3.229   6.534  0.2490  0.2381  0.6435
  810MOL0     C11657  10.414   3.229   6.391 -0.3883 -0.3036  0.4833
  810MOL0     C11658  10.282   3.300   6.361  0.4367  0.6422 -0.2433
  810MOL0     N11659  10.287   3.434   6.423  0.3392  0.3352  0.0119
  810MOL0     C11660  10.189   3.500   6.495  0.0666  0.1823  0.0963
  810MOL0     C11661  10.242   3.621   6.524  0.3788  0.1478 -0.5251
  810MOL0     C11662  10.170   3.727   6.598  0.3361 -1.0282 -0.0824
  810MOL0     C11663  10.212   3.740   6.742  0.2542  0.2011 -0.2259
  810MOL0     C11664  10.104   3.802   6.828  0.3342 -0.4032 -0.5170
  810MOL0     C11665  10.144   3.809   6.982 -0.0859  0.4700  0.2686
  810MOL0     O11666  10.204   3.685   7.004 -0.0129 -0.1560 -0.0215
  810MOL0     C11667  10.236   3.653   7.133 -0.8859 -0.1460  0.4511
  810MOL0     C11668  10.353   3.578   7.138 -0.2231 -0.2806 -0.7262
  810MOL0     C11669  10.417   3.555   7.257 -1.0955  1.3090  0.1657
  810MOL0     C11670  10.539   3.463   7.262 -0.3250  0.2252 -0.8085
  810MOL0     C11671  10.363   3.601   7.379  0.8736 -0.0346 -0.4670
  810MOL0     C11672  10.429   3.607   7.514 -0.3030  0.1453  0.0961
  810MOL0     O11673  10.349   3.618   7.620 -0.2499 -0.7574  0.4137
  810MOL0     C11674  10.401   3.611   7.750  0.5850  0.2257 -0.5986
  810MOL0     C11675  10.504   3.699   7.795  0.1558 -0.6893 -0.2385
  810MOL0     C11676  10.550   3.679   7.927 -0.1670 -0.2921 -0.9461
  810MOL0     C11677  10.478   3.597   8.018  0.7905 -0.8642  0.4260
  810MOL0     O11678  10.545   3.580   8.138  0.3715  0.0260 -0.6088
  810MOL0     C11679  10.469   3.545   8.258  1.1928 -0.2810  0.1635
  810MOL0     C11680  10.453   3.667   8.356  0.7123 -1.1617  0.6931
  810MOL0     C11681  10.425   3.603   8.485 -0.3079  0.3019 -0.6973
  810MOL0     C11682  10.386   3.712   8.587 -0.4942  0.4505  0.5510
  810MOL0     C11683  10.241   3.741   8.591 -0.6254  0.1682  0.5424
  810MOL0     C11684  10.213   3.836   8.713  0.3366 -0.6103  0.0611
  810MOL0     C11685  10.058   3.857   8.734 -0.5338 -0.2859  0.3365
  810MOL0     C11686  10.014   3.960   8.847  0.1406 -0.6467 -0.1788
  810MOL0    Cl11687  10.040   4.115   8.778  0.0796  0.1383  0.1428
  810MOL0     C11688  10.367   3.521   7.978  0.4682 -0.5009  0.4994
  810MOL0     C11689  10.339   3.523   7.837  0.0107 -0.4057 -1.0336
  810MOL0     O11690  10.551   3.605   7.510  0.1205  0.9296 -0.3500
  810MOL0     C11691  10.233   3.665   7.374 -0.3831 -0.1501  0.3381
  810MOL0     C11692  10.171   3.689   7.251 -0.4340  0.7608  0.3054
  810MOL0     N11693  10.364   3.634   6.467  0.4531  0.2636  0.0587
  810MOL0     N11694  10.389   3.517   6.409 -0.5026 -0.5211  0.3000
  810MOL0     C11695  11.118   2.698   6.486  0.0466 -0.7498  0.4275
  810MOL0     C11696  11.235   2.672   6.413  1.0069  0.6812  0.4030
  810MOL0     C11697  11.607   2.823   6.228 -0.8002  0.1576 -1.0705
  810MOL0     C11698  11.601   2.789   6.090  0.4772 -0.3778  0.0714
  810MOL0     C11699  11.706   2.815   6.003  0.8383 -0.4196  0.0365
  810MOL0     C11700  11.816   2.866   6.048 -0.5423  0.1364  0.5000
  810MOL0     O11701  11.917   2.902   5.956 -0.1783  1.1096 -0.4783
  810MOL0     C11702  12.050   2.931   6.000  0.9563 -0.0795  0.5922
  810MOL0     C11703  12.138   2.914   5.872 -0.1253  0.7467  0.3207
  810MOL0     C11704  12.125   2.774   5.812  0.1364 -0.1990 -0.8569
  810MOL0     C11705  12.217   2.676   5.879  0.0566 -0.4214 -0.4658
  810MOL0     C11706  12.207   2.540   5.822  0.1254 -0.0377  0.1271
  810MOL0     C11707  12.210   2.436   5.773 -0.0100  0.6021  0.8102
  810MOL0     C11708  11.839   2.885   6.189  0.8755  0.5313  0.7958
  810MOL0     C11709  11.732   2.871   6.280 -0.1194  1.0731 -0.1507
  810MOL0     C11710  11.762   2.912   6.424  0.0531  0.0417 -0.0268
  810MOL0     H11711  11.166   2.871   6.144 -1.3668  0.3644 -0.1773
  810MOL0     H11712  10.969   2.933   6.281  2.4790  3.0692  1.0789
  810MOL0     H11713  11.030   2.955   6.613  0.2637 -1.2154  1.1467
  810MOL0     H11714  10.951   2.839   6.707  3.4641  1.4601  0.6749
  810MOL0     H11715  10.855   3.051   6.745 -0.1466 -0.6108  0.4504
  810MOL0     H11716  10.827   3.068   6.565  1.6142  1.3322  0.9761
  810MOL0     H11717  10.673   2.850   6.596  3.0558 -0.6726 -1.4529
  810MOL0     H11718  10.674   2.887   6.764 -1.0553  1.5330  0.1507
  810MOL0     H11719  10.489   2.996   6.662 -0.8964 -0.2110  1.2976
  810MOL0     H11720  10.582   3.107   6.768  2.2900 -0.2579  0.0356
  810MOL0     H11721  10.608   3.075   6.469 -0.2839 -1.1251  1.1041
  810MOL0     H11722  10.680   3.208   6.554 -1.1591  1.2528  1.9291
  810MOL0     H11723  10.388   3.201   6.605 -1.1368  1.1460 -0.4831
  810MOL0     H11724  10.502   3.329   6.559  1.1264 -0.3847  1.9465
  810MOL0     H11725  10.417   3.128   6.349  1.0120  0.2356 -0.8499
  810MOL0     H11726  10.483   3.295   6.337 -0.0966  3.2847  4.6742
  810MOL0     H11727  10.266   3.307   6.253 -4.4309  1.1100  0.2841
  810MOL0     H11728  10.193   3.245   6.394  0.1320  1.9503  1.2630
  810MOL0     H11729  10.096   3.460   6.536  0.9796 -0.9739  1.1070
  810MOL0     H11730  10.061   3.713   6.596  0.0776  0.4801  1.2765
  810MOL0     H11731  10.187   3.818   6.539  2.5052 -0.4165  1.3938
  810MOL0     H11732  10.236   3.639   6.776  2.6477 -0.1776 -2.6716
  810MOL0     H11733  10.307   3.793   6.760  0.1528  0.0784  0.6981
  810MOL0     H11734  10.075   3.903   6.799 -0.5495 -0.9051 -1.4520
  810MOL0     H11735  10.011   3.745   6.819 -1.0463  1.7305 -0.4552
  810MOL0     H11736  10.213   3.891   7.001  1.0243 -0.5708  0.8792
  810MOL0     H11737  10.057   3.821   7.047 -2.0775  3.4602 -2.5808
  810MOL0     H11738  10.402   3.542   7.048  1.9220 -0.3053  0.3632
  810MOL0     H11739  10.568   3.433   7.363 -0.8029  0.1327 -0.6942
  810MOL0     H11740  10.623   3.512   7.212  0.0642 -0.0728 -0.4442
  810MOL0     H11741  10.521   3.374   7.203 -0.2984 -0.3549  0.0409
  810MOL0     H11742  10.548   3.770   7.727 -3.8183  1.0815 -1.2553
  810MOL0     H11743  10.638   3.727   7.966 -0.5844  1.7180 -2.3322
  810MOL0     H11744  10.367   3.513   8.236 -0.6829  3.5750  2.3704
  810MOL0     H11745  10.510   3.459   8.311 -1.7904 -1.1561  1.2278
  810MOL0     H11746  10.547   3.723   8.357  0.1792 -0.1958 -0.5193
  810MOL0     H11747  10.374   3.738   8.331 -0.0161 -2.0875  0.2721
  810MOL0     H11748  10.519   3.562   8.524 -1.2252 -0.7133  0.5406
  810MOL0     H11749  10.352   3.521   8.484 -0.5249  0.3462  2.2946
  810MOL0     H11750  10.444   3.804   8.580 -2.0617  1.4239 -0.4227
  810MOL0     H11751  10.409   3.682   8.690 -0.1958  1.3141  0.7432
  810MOL0     H11752  10.230   3.790   8.494  5.2538 -0.4389 -0.7783
  810MOL0     H11753  10.176   3.653   8.597 -1.2914  0.7155  2.0849
  810MOL0     H11754  10.259   3.933   8.690  0.7060 -0.5499  1.0033
  810MOL0     H11755  10.254   3.804   8.809 -0.0381 -0.8097  0.1528
  810MOL0     H11756  10.022   3.760   8.769  0.1744 -0.5329  0.4074
  810MOL0     H11757  10.008   3.901   8.648  0.3442 -0.2282 -0.1607
  810MOL0     H11758  10.066   3.943   8.942 -2.0134  0.8806  1.3500
  810MOL0     H11759   9.907   3.948   8.865 -0.0509  0.3839 -0.5770
  810MOL0     H11760  10.305   3.451   8.033 -0.1793 -0.1974  0.1542
  810MOL0     H11761  10.261   3.453   7.809 -2.2037  1.6747 -0.4433
  810MOL0     H11762  10.190   3.699   7.468 -2.2363 -2.2145  0.3327
  810MOL0     H11763  10.071   3.730   7.259 -1.7661 -2.5516  5.1081
  810MOL0     H11764  11.093   2.640   6.575 -0.5542 -1.3370 -0.1162
  810MOL0     H11765  11.294   2.590   6.452 -1.1484 -1.6349 -0.8401
  810MOL0     H11766  11.519   2.731   6.048  0.9178 -1.8625  1.1800
  810MOL0     H11767  11.686   2.791   5.899  0.8295  1.6088 -0.4807
  810MOL0     H11768  12.054   3.036   6.030  1.4196 -0.2592  1.1706
  810MOL0     H11769  12.080   2.867   6.083 -1.5186 -0.5580  1.2064
  810MOL0     H11770  12.242   2.932   5.902  1.7260 -1.8529 -3.6855
  810MOL0     H11771  12.118   2.992   5.798  0.3376 -0.7364 -1.4338
  810MOL0     H11772  12.026   2.727   5.812 -0.6213  1.2016 -3.4366
  810MOL0     H11773  12.163   2.769   5.710 -0.7298 -0.5778 -1.1658
  810MOL0     H11774  12.191   2.678   5.986  1.1112  0.6259 -0.2131
  810MOL0     H11775  12.316   2.721   5.877  0.0620 -0.3822  0.3778
  810MOL0     H11776  12.215   2.338   5.730 -0.4416  1.1002 -0.4029
  810MOL0     H11777  11.937   2.915   6.224  1.6620 -0.6422 -0.3347
  810MOL0     H11778  11.700   3.000   6.441  0.5374  0.8163 -2.0076
  810MOL0     H11779  11.744   2.831   6.495  0.1445  1.5497  1.7993
  810MOL0     H11780  11.866   2.943   6.439 -1.2102  2.9574  4.5034
  811MOL0     O11781   5.383   7.323   6.545  0.6421 -0.3521  0.9714
  811MOL0     C11782   5.361   7.435   6.595 -0.7546  0.4105 -0.1469
  811MOL0     O11783   5.438   7.544   6.560 -0.3282 -0.1347  0.1029
  811MOL0     C11784   5.542   7.530   6.477  0.1968  0.2509 -0.0124
  811MOL0     C11785   5.640   7.432   6.502  0.4912 -0.6177 -0.0848
  811MOL0     C11786   5.756   7.425   6.428  0.1573  0.9151  0.4194
  811MOL0     C11787   5.783   7.511   6.322 -0.6564 -0.0829 -0.4422
  811MOL0     O11788   5.878   7.509   6.222  0.5725  0.3937  0.4609
  811MOL0     C11789   5.980   7.410   6.250 -0.7666 -0.3628  0.1055
  811MOL0     C11790   6.078   7.414   6.137  0.3180 -0.3517  0.5621
  811MOL0     C11791   6.155   7.546   6.120  0.9547 -0.7066 -0.1444
  811MOL0     C11792   6.224   7.535   5.981  0.8902  0.9106 -0.5881
  811MOL0     C11793   6.331   7.639   5.969 -0.2976  0.3374 -0.0815
  811MOL0     C11794   6.332   7.716   5.838  1.0424  0.5493  0.1578
  811MOL0     C11795   6.395   7.630   5.726  0.5983 -0.4538  0.6629
  811MOL0     C11796   6.554   7.611   5.731  1.4408 -0.1750  0.0834
  811MOL0     N11797   6.623   7.741   5.725 -0.6351 -0.0175 -0.2679
  811MOL0     C11798   6.698   7.796   5.829  0.5989 -0.2745 -0.8623
  811MOL0     C11799   6.765   7.905   5.785  0.4215  0.0331 -0.3073
  811MOL0     C11800   6.855   8.011   5.846  0.1654 -0.3290  0.2127
  811MOL0     C11801   6.999   7.997   5.770 -0.2373 -0.3986 -0.0955
  811MOL0     C11802   7.080   7.870   5.815 -0.1337  0.1003  0.4682
  811MOL0     C11803   7.139   7.819   5.683  0.5134  0.0067  0.2962
  811MOL0     O11804   7.218   7.705   5.719 -0.3716 -0.2815  0.1391
  811MOL0     C11805   7.179   7.582   5.677 -0.0824 -0.2613 -0.1334
  811MOL0     C11806   7.273   7.502   5.612  0.3240 -0.1355 -0.2103
  811MOL0     C11807   7.240   7.370   5.578 -0.6832  0.7394 -0.3297
  811MOL0     C11808   7.345   7.296   5.498 -0.1424  0.7583 -0.5656
  811MOL0     C11809   7.116   7.320   5.614  0.5434 -0.4654  0.3316
  811MOL0     C11810   7.077   7.185   5.583  0.1797 -0.0855  0.6538
  811MOL0     O11811   6.953   7.177   5.524 -0.0790 -0.1444 -0.3214
  811MOL0     C11812   6.907   7.057   5.476  0.3131  0.6762 -0.9271
  811MOL0     C11813   6.921   6.926   5.540 -0.4162  0.8349  0.5107
  811MOL0     C11814   6.876   6.810   5.486 -0.2101 -0.0308 -0.4454
  811MOL0     C11815   6.797   6.818   5.367 -0.6693  0.8364  0.0286
  811MOL0     O11816   6.738   6.705   5.316  0.1032 -0.3347  0.6841
  811MOL0     C11817   6.749   6.582   5.386  0.4423  0.2380  0.0298
  811MOL0     C11818   6.678   6.484   5.285 -0.5226  0.8410 -0.4086
  811MOL0     C11819   6.638   6.353   5.345  0.4881  0.4891  0.6168
  811MOL0     C11820   6.746   6.263   5.401 -0.7476 -0.2637  0.2690
  811MOL0     C11821   6.683   6.149   5.481  0.2855 -0.6820  0.0866
  811MOL0     C11822   6.784   6.072   5.552  0.1491 -0.3335  0.5197
  811MOL0     C11823   6.717   5.967   5.639 -0.9894 -0.2345 -0.7773
  811MOL0     C11824   6.818   5.861   5.701  0.9807 -0.9478 -0.3517
  811MOL0    Cl11825   6.723   5.735   5.800 -0.3353 -0.1339  0.4884
  811MOL0     C11826   6.778   6.936   5.299 -0.4395 -0.6910 -0.7881
  811MOL0     C11827   6.835   7.059   5.359  0.6664 -0.3002  0.6822
  811MOL0     O11828   7.149   7.094   5.607 -0.2205  0.0962  1.0914
  811MOL0     C11829   7.025   7.398   5.683 -0.1269  0.3308 -0.4795
  811MOL0     C11830   7.059   7.529   5.713  0.2581  0.9007  0.3724
  811MOL0     N11831   6.722   7.915   5.647  0.1940 -0.1012 -0.6131
  811MOL0     N11832   6.650   7.814   5.612 -0.5214  0.4590 -1.5882
  811MOL0     C11833   5.688   7.615   6.304 -0.5971  0.4496 -0.3939
  811MOL0     C11834   5.572   7.628   6.388 -0.0811  0.3563  1.2606
  811MOL0     C11835   5.255   7.445   6.694  1.0149 -0.4818  0.0013
  811MOL0     C11836   5.154   7.350   6.683 -0.2521  0.0568  0.4748
  811MOL0     C11837   5.043   7.351   6.752 -0.1490  1.1581  0.2183
  811MOL0     C11838   5.021   7.445   6.856  0.5475 -1.3898  1.7925
  811MOL0     O11839   4.897   7.458   6.927  0.1330  0.2998  0.3971
  811MOL0     C11840   4.796   7.360   6.912 -1.0047  0.5619 -0.5705
  811MOL0     C11841   4.696   7.361   7.034 -0.1510 -0.2646 -0.4097
  811MOL0     C11842   4.766   7.343   7.169 -0.2603 -0.3731 -0.7425
  811MOL0     C11843   4.657   7.381   7.270 -0.4624  0.8803  0.6449
  811MOL0     C11844   4.687   7.331   7.406  0.6934 -0.3902 -0.1955
  811MOL0     C11845   4.709   7.287   7.516  0.1815 -0.2941  0.1396
  811MOL0     C11846   5.113   7.548   6.857  0.1188 -0.3660 -0.5981
  811MOL0     C11847   5.239   7.548   6.791  0.6174 -0.3042 -0.0039
  811MOL0     C11848   5.340   7.665   6.791 -0.1025  0.2805 -0.7115
  811MOL0     H11849   5.627   7.349   6.571 -1.0308 -0.2271  0.1314
  811MOL0     H11850   5.821   7.340   6.447 -0.4155  0.6892  1.4422
  811MOL0     H11851   5.935   7.311   6.237 -1.5667 -0.0623  0.4942
  811MOL0     H11852   6.032   7.427   6.345 -1.4238  1.3668  0.1859
  811MOL0     H11853   6.150   7.336   6.162  2.1157  0.0882 -2.6653
  811MOL0     H11854   6.023   7.388   6.046 -0.2870  0.0843  0.7945
  811MOL0     H11855   6.087   7.632   6.119 -3.0935 -3.4863 -4.3362
  811MOL0     H11856   6.226   7.557   6.202 -0.1863  0.5455  0.7238
  811MOL0     H11857   6.269   7.435   5.975 -1.4436 -0.2874  0.5258
  811MOL0     H11858   6.168   7.541   5.887  1.6418  1.7495 -1.0003
  811MOL0     H11859   6.431   7.600   5.990 -1.2578 -2.1784  0.2733
  811MOL0     H11860   6.315   7.723   6.037  0.1208  1.9914 -1.9454
  811MOL0     H11861   6.231   7.747   5.809  0.4855  0.3245  1.7761
  811MOL0     H11862   6.402   7.800   5.836  2.2866 -0.4473  0.2469
  811MOL0     H11863   6.364   7.680   5.634 -0.3367 -0.6268  0.8657
  811MOL0     H11864   6.364   7.525   5.717  1.5647 -0.7312  0.4812
  811MOL0     H11865   6.563   7.559   5.826  0.1094 -2.8929 -1.1559
  811MOL0     H11866   6.585   7.542   5.652  0.9872  1.3614 -1.4891
  811MOL0     H11867   6.709   7.749   5.926  0.6137 -2.2771 -1.7914
  811MOL0     H11868   6.872   7.992   5.952  0.6472 -0.7241  0.0696
  811MOL0     H11869   6.809   8.108   5.826 -0.0472 -0.2020  1.2993
  811MOL0     H11870   6.994   8.016   5.662  2.2752  0.9049 -0.0528
  811MOL0     H11871   7.045   8.090   5.806 -0.4382 -1.0217  1.8625
  811MOL0     H11872   7.167   7.898   5.875  1.7078  0.3537 -2.1456
  811MOL0     H11873   7.027   7.791   5.869  1.7586 -1.2859  0.4319
  811MOL0     H11874   7.063   7.789   5.609 -0.5114  4.6275 -0.8308
  811MOL0     H11875   7.193   7.902   5.637 -0.7134  1.0869  0.7784
  811MOL0     H11876   7.372   7.538   5.587  0.5512  0.9600  2.0046
  811MOL0     H11877   7.333   7.315   5.391 -1.4278  1.3651 -0.3321
  811MOL0     H11878   7.345   7.188   5.517  5.8608  0.9578  2.7896
  811MOL0     H11879   7.445   7.309   5.540 -1.0370  2.1474  1.2323
  811MOL0     H11880   6.972   6.924   5.636 -2.5857 -0.6031  1.7120
  811MOL0     H11881   6.897   6.716   5.536 -0.5125 -0.5521 -1.2633
  811MOL0     H11882   6.856   6.561   5.394  1.2466  1.7651 -4.1548
  811MOL0     H11883   6.699   6.596   5.482  0.1329 -0.3031 -0.0488
  811MOL0     H11884   6.585   6.520   5.239 -2.0950 -2.7471 -0.3353
  811MOL0     H11885   6.751   6.466   5.205  0.0883  2.9930 -0.4015
  811MOL0     H11886   6.573   6.301   5.275  1.1843  1.8338 -1.1262
  811MOL0     H11887   6.574   6.383   5.428  1.1081  0.5820  1.0658
  811MOL0     H11888   6.810   6.316   5.473 -2.1333  0.0255  1.3388
  811MOL0     H11889   6.817   6.233   5.324  1.7321  3.1207  0.9855
  811MOL0     H11890   6.606   6.181   5.552  0.8620  0.8479  0.0448
  811MOL0     H11891   6.637   6.075   5.414 -2.3294 -0.9986  2.0419
  811MOL0     H11892   6.847   6.130   5.620  2.1199  0.1499 -1.5986
  811MOL0     H11893   6.848   6.021   5.480  0.5316  3.5527 -2.1909
  811MOL0     H11894   6.646   5.908   5.579  2.6323 -2.0263 -3.7341
  811MOL0     H11895   6.674   6.027   5.720  0.7649  2.8909 -1.9911
  811MOL0     H11896   6.884   5.907   5.774  0.1173 -1.6349  0.9068
  811MOL0     H11897   6.874   5.810   5.623  1.1514  1.2414 -1.7412
  811MOL0     H11898   6.739   6.932   5.197  1.0706 -0.0128 -1.4330
  811MOL0     H11899   6.819   7.156   5.313  0.6401 -1.4998 -2.0270
  811MOL0     H11900   6.927   7.362   5.710  0.0263  1.9298  2.5815
  811MOL0     H11901   6.984   7.587   5.766 -0.0709 -0.8545  1.9369
  811MOL0     H11902   5.720   7.690   6.232 -0.1286  0.5472 -0.0878
  811MOL0     H11903   5.514   7.720   6.384 -0.3576  0.3366  3.4971
  811MOL0     H11904   5.175   7.268   6.614  1.8445  2.0889 -1.4945
  811MOL0     H11905   4.968   7.277   6.727  1.9884 -1.2298  0.4693
  811MOL0     H11906   4.741   7.368   6.818 -3.6371 -2.5019  0.5501
  811MOL0     H11907   4.840   7.260   6.902 -1.9626  0.2233 -1.5831
  811MOL0     H11908   4.623   7.283   7.010  0.2362  0.1781 -3.5505
  811MOL0     H11909   4.635   7.452   7.028  0.3970  0.1288 -0.1939
  811MOL0     H11910   4.798   7.239   7.180 -0.4066 -0.3052  0.5425
  811MOL0     H11911   4.854   7.408   7.181  0.0595 -1.1910  2.0592
  811MOL0     H11912   4.557   7.346   7.243 -0.4508 -0.9860  2.7316
  811MOL0     H11913   4.667   7.490   7.266  0.7056  0.7569 -0.2260
  811MOL0     H11914   4.729   7.248   7.614 -0.2433 -2.4788 -0.5799
  811MOL0     H11915   5.091   7.636   6.916  2.7124  1.8118 -2.5805
  811MOL0     H11916   5.335   7.728   6.701  0.1418 -0.6216 -1.3682
  811MOL0     H11917   5.322   7.719   6.884  1.8133  1.4892 -0.9815
  811MOL0     H11918   5.433   7.610   6.784 -1.6593 -2.3509 -2.2388
  812MOL0     O11919   2.208   0.855   5.217 -0.0820  0.2774 -0.4069
  812MOL0     C11920   2.203   0.912   5.111  0.6084 -0.0654  0.7602
  812MOL0     O11921   2.153   0.852   4.993  0.1095 -0.0445  0.3177
  812MOL0     C11922   2.126   0.718   4.984 -0.2726 -0.5196 -0.0150
  812MOL0     C11923   2.046   0.651   5.076 -0.0307  0.5782 -0.1708
  812MOL0     C11924   2.011   0.521   5.054 -0.3899 -0.3902 -0.1038
  812MOL0     C11925   2.063   0.439   4.945 -0.3031  0.2087  0.3804
  812MOL0     O11926   2.031   0.305   4.921 -0.4356 -0.1947  0.1109
  812MOL0     C11927   1.973   0.218   5.029 -0.1297  0.2385  0.3477
  812MOL0     C11928   2.050   0.201   5.151 -0.2037 -0.0373 -0.3083
  812MOL0     C11929   1.980   0.089   5.238 -0.3708  0.1351 -0.2783
  812MOL0     C11930   2.012   0.114   5.394 -0.5666 -0.4981  0.1468
  812MOL0     C11931   1.939   0.018   5.475  0.2350 -0.1300  0.1259
  812MOL0     C11932   1.984  -0.125   5.461 -0.3845  0.6547 -0.1471
  812MOL0     C11933   2.121  -0.159   5.523 -0.3232  0.0274  0.2570
  812MOL0     C11934   2.111  -0.147   5.680 -0.1451  0.5785 -0.4298
  812MOL0     N11935   2.011  -0.233   5.743  0.0055 -0.0792  0.1360
  812MOL0     C11936   1.907  -0.191   5.822 -0.2120 -0.4860  0.4421
  812MOL0     C11937   1.829  -0.292   5.841 -0.4512 -0.2276  0.3658
  812MOL0     C11938   1.707  -0.309   5.920 -1.0275  0.6898  0.4218
  812MOL0     C11939   1.613  -0.186   5.915 -0.3287  0.1663  0.3089
  812MOL0     C11940   1.478  -0.198   6.001 -0.6622  0.8716  1.0379
  812MOL0     C11941   1.491  -0.252   6.142  0.0002 -0.4049  0.0309
  812MOL0     O11942   1.566  -0.164   6.224  0.0650  0.0468 -0.0563
  812MOL0     C11943   1.536  -0.192   6.357 -1.0238  0.1982 -0.4189
  812MOL0     C11944   1.457  -0.101   6.428 -0.3732 -0.2189  0.3712
  812MOL0     C11945   1.446  -0.112   6.565 -0.4730 -0.5904 -0.2065
  812MOL0     C11946   1.359  -0.006   6.627 -0.6495  0.4339 -0.8346
  812MOL0     C11947   1.515  -0.213   6.634  0.3903  0.2009 -0.0742
  812MOL0     C11948   1.493  -0.224   6.774 -0.4387 -0.9238 -0.4885
  812MOL0     O11949   1.576  -0.162   6.853 -0.6642 -0.1726  0.8593
  812MOL0     C11950   1.549  -0.184   6.983 -0.2641  0.2130  0.4060
  812MOL0     C11951   1.632  -0.270   7.061  0.3671  0.4363 -0.3280
  812MOL0     C11952   1.600  -0.281   7.201  0.3595  0.1219 -0.3906
  812MOL0     C11953   1.501  -0.197   7.259 -1.2882 -0.0450 -0.2249
  812MOL0     O11954   1.460  -0.193   7.389 -0.1144 -0.0218  0.3143
  812MOL0     C11955   1.471  -0.318   7.452  0.5130  0.2922  0.0933
  812MOL0     C11956   1.419  -0.312   7.593 -1.0599 -0.1379 -0.0535
  812MOL0     C11957   1.281  -0.246   7.611 -0.8025 -0.0780  0.0107
  812MOL0     C11958   1.225  -0.270   7.758  0.6361 -0.1269  0.3459
  812MOL0     C11959   1.080  -0.212   7.776 -0.2611 -0.3961  1.1162
  812MOL0     C11960   0.986  -0.307   7.709 -0.5249 -0.2531 -0.1158
  812MOL0     C11961   0.836  -0.318   7.749  0.4622  0.7892 -0.2805
  812MOL0     C11962   0.829  -0.357   7.901 -0.2433  0.4535  0.0857
  812MOL0    Cl11963   0.670  -0.365   7.982  0.3195 -0.4368  0.6753
  812MOL0     C11964   1.430  -0.102   7.175  0.1943 -0.5677 -0.0569
  812MOL0     C11965   1.458  -0.090   7.042 -0.4999 -0.1153 -0.2045
  812MOL0     O11966   1.400  -0.304   6.802  0.1469 -0.7637 -0.5586
  812MOL0     C11967   1.584  -0.314   6.559 -0.5960 -0.8041 -0.7504
  812MOL0     C11968   1.589  -0.306   6.427 -0.5043 -0.3246  0.1234
  812MOL0     N11969   1.894  -0.404   5.783  0.3348 -0.2762  0.4618
  812MOL0     N11970   2.000  -0.371   5.727  0.7378 -0.6908 -0.7283
  812MOL0     C11971   2.154   0.495   4.859 -0.3898 -1.0439 -0.2640
  812MOL0     C11972   2.181   0.635   4.875 -0.4805  0.2819 -0.5415
  812MOL0     C11973   2.235   1.056   5.095 -0.1232  0.0330  0.2179
  812MOL0     C11974   2.192   1.117   4.975  0.2610 -0.3678  0.0682
  812MOL0     C11975   2.210   1.254   4.944 -0.2628 -0.9495  0.0492
  812MOL0     C11976   2.292   1.331   5.027 -0.4062 -0.0018 -0.2767
  812MOL0     O11977   2.319   1.464   5.009 -0.2050 -0.4133  0.9175
  812MOL0     C11978   2.392   1.491   4.887  0.8581  0.6507  0.1205
  812MOL0     C11979   2.531   1.543   4.916  0.3915 -1.0869 -0.5057
  812MOL0     C11980   2.543   1.695   4.966  0.1599 -0.1092  0.0142
  812MOL0     C11981   2.679   1.706   5.028 -0.3399 -0.7459 -0.1316
  812MOL0     C11982   2.784   1.746   4.933  0.1099 -0.2126 -0.5058
  812MOL0     C11983   2.863   1.772   4.845 -1.3083 -0.5642 -0.9656
  812MOL0     C11984   2.352   1.271   5.140  0.6555  0.0775  0.3305
  812MOL0     C11985   2.331   1.134   5.176  0.6966  0.3561  0.7854
  812MOL0     C11986   2.403   1.084   5.290 -0.0293 -0.3349  0.4140
  812MOL0     H11987   2.019   0.698   5.170 -0.7596  1.1391 -0.6508
  812MOL0     H11988   1.952   0.471   5.130  3.5751 -1.8974  2.2684
  812MOL0     H11989   1.964   0.122   4.978  2.5993  1.1482 -2.1433
  812MOL0     H11990   1.875   0.256   5.061  0.0683  1.2668 -0.2277
  812MOL0     H11991   2.153   0.170   5.131 -0.2390 -0.9539  0.8197
  812MOL0     H11992   2.063   0.292   5.210  1.1901 -0.7251  0.5131
  812MOL0     H11993   1.871   0.095   5.238 -0.4490  0.0390  2.6407
  812MOL0     H11994   2.031  -0.002   5.204  2.4424  1.2439  0.7113
  812MOL0     H11995   2.119   0.115   5.412 -0.3644  0.0842 -1.0102
  812MOL0     H11996   1.980   0.218   5.404  3.5936  1.3334 -2.8051
  812MOL0     H11997   1.835   0.035   5.447  1.0439  1.6139 -2.1083
  812MOL0     H11998   1.947   0.053   5.578  0.4954  0.7548 -0.1907
  812MOL0     H11999   1.911  -0.181   5.521 -0.7267  2.6543  1.3796
  812MOL0     H12000   1.981  -0.150   5.354  4.2870 -0.2465 -0.2808
  812MOL0     H12001   2.192  -0.084   5.489 -1.5461  0.8516 -0.5592
  812MOL0     H12002   2.145  -0.261   5.491 -5.7251 -1.0294 -1.4029
  812MOL0     H12003   2.208  -0.159   5.729 -1.0226  0.4638  1.3331
  812MOL0     H12004   2.089  -0.041   5.699 -2.8684 -0.3378  2.4402
  812MOL0     H12005   1.891  -0.093   5.866 -0.6291 -0.5067  0.3412
  812MOL0     H12006   1.739  -0.321   6.024  0.7831  1.1832 -0.0441
  812MOL0     H12007   1.654  -0.401   5.895  1.0462 -0.9777  1.7810
  812MOL0     H12008   1.663  -0.109   5.974  0.4382  0.3095 -0.5049
  812MOL0     H12009   1.601  -0.145   5.814  0.1370 -0.1900  0.1043
  812MOL0     H12010   1.440  -0.098   6.025 -0.3039  0.6994  2.4503
  812MOL0     H12011   1.400  -0.252   5.947  0.0092  1.0715 -0.1431
  812MOL0     H12012   1.386  -0.267   6.170 -0.7289  0.9743 -1.7440
  812MOL0     H12013   1.546  -0.346   6.129  1.5680  0.8092 -3.1647
  812MOL0     H12014   1.413  -0.012   6.384  0.8826 -0.3138 -1.1650
  812MOL0     H12015   1.336  -0.024   6.732  2.3895 -0.7123 -0.2664
  812MOL0     H12016   1.262   0.012   6.580 -0.1491  1.6105 -1.4906
  812MOL0     H12017   1.406   0.093   6.620  0.9747 -0.1947  0.5889
  812MOL0     H12018   1.725  -0.312   7.023  2.3989  3.6043  0.6765
  812MOL0     H12019   1.659  -0.350   7.261  1.2507 -0.2913 -1.7038
  812MOL0     H12020   1.402  -0.383   7.397 -0.6328  0.8294  0.8740
  812MOL0     H12021   1.570  -0.364   7.458 -0.2111 -1.1389  2.1530
  812MOL0     H12022   1.416  -0.413   7.635 -1.5098  0.1706  0.6906
  812MOL0     H12023   1.490  -0.253   7.653 -1.0629 -1.0991  0.9352
  812MOL0     H12024   1.208  -0.301   7.551 -0.1618 -0.2759 -0.5934
  812MOL0     H12025   1.279  -0.143   7.573  1.4548  0.6211  1.5820
  812MOL0     H12026   1.286  -0.222   7.835 -0.0369 -0.2492  0.9678
  812MOL0     H12027   1.220  -0.377   7.780  1.1153 -0.8562 -2.6549
  812MOL0     H12028   1.072  -0.218   7.885  3.5857  1.9489  1.7378
  812MOL0     H12029   1.066  -0.108   7.743  1.0020 -1.6010 -3.9671
  812MOL0     H12030   1.023  -0.407   7.733 -1.8031 -0.7288 -0.0382
  812MOL0     H12031   0.988  -0.291   7.600  2.0724  0.5699 -0.0140
  812MOL0     H12032   0.797  -0.406   7.698  1.7333 -1.1473  1.9054
  812MOL0     H12033   0.772  -0.233   7.724 -2.0315  0.0072  2.7561
  812MOL0     H12034   0.881  -0.273   7.950 -0.8110  1.5312 -1.1082
  812MOL0     H12035   0.886  -0.448   7.922 -2.2417 -0.6995  0.7966
  812MOL0     H12036   1.362  -0.032   7.223  0.2439 -0.7318  0.2543
  812MOL0     H12037   1.416  -0.023   6.969  2.8338  2.7583  0.2740
  812MOL0     H12038   1.626  -0.403   6.605 -0.2748  0.6773  2.0255
  812MOL0     H12039   1.644  -0.373   6.361 -0.3299 -0.4072  0.3532
  812MOL0     H12040   2.179   0.436   4.771  0.2153 -0.1786 -0.6829
  812MOL0     H12041   2.260   0.676   4.812  2.9246 -4.1324  0.3264
  812MOL0     H12042   2.142   1.059   4.898 -0.3995 -1.3327  1.1830
  812MOL0     H12043   2.170   1.308   4.859  2.2398  1.8101  0.4705
  812MOL0     H12044   2.400   1.403   4.823 -0.0140 -0.2103  1.1426
  812MOL0     H12045   2.344   1.574   4.835 -0.1948 -0.2109 -0.3187
  812MOL0     H12046   2.601   1.533   4.832  0.0812 -0.0892 -0.9015
  812MOL0     H12047   2.559   1.472   4.994 -2.7542 -0.5529  1.2844
  812MOL0     H12048   2.536   1.756   4.876 -0.0036 -1.1661 -0.7101
  812MOL0     H12049   2.476   1.712   5.051 -1.0779  1.0422 -1.1654
  812MOL0     H12050   2.725   1.609   5.052 -0.4271 -0.9954 -0.9554
  812MOL0     H12051   2.682   1.778   5.110 -3.6425  1.0782 -1.4184
  812MOL0     H12052   2.937   1.795   4.770 -1.2664 -2.3576 -1.5097
  812MOL0     H12053   2.426   1.328   5.197 -1.2443  2.2907  0.7245
  812MOL0     H12054   2.452   0.993   5.256  0.0798  0.9276 -3.2375
  812MOL0     H12055   2.489   1.138   5.332  1.1840 -1.2823 -0.7897
  812MOL0     H12056   2.339   1.064   5.377  1.7594 -0.4304  1.7766
  813MOL0     O12057   0.335   2.275   1.799  0.1663 -0.4761  0.0746
  813MOL0     C12058   0.357   2.246   1.681 -0.3584 -0.1164 -0.1025
  813MOL0     O12059   0.273   2.274   1.577 -0.1068  1.0846  0.0523
  813MOL0     C12060   0.152   2.310   1.614  0.2329  0.0127  0.3171
  813MOL0     C12061   0.066   2.222   1.678  0.1775  0.0255  0.3673
  813MOL0     C12062  -0.048   2.278   1.740 -0.4554  0.5325 -0.2795
  813MOL0     C12063  -0.086   2.412   1.737 -1.2849  0.8938  0.0309
  813MOL0     O12064  -0.205   2.443   1.804 -0.2527  0.5708 -0.2652
  813MOL0     C12065  -0.259   2.577   1.789  0.9479  1.4611  0.0954
  813MOL0     C12066  -0.395   2.567   1.846  0.7404 -0.2234 -0.1536
  813MOL0     C12067  -0.472   2.709   1.842  0.2406 -0.6565 -0.6743
  813MOL0     C12068  -0.592   2.699   1.946 -0.3457  0.4276 -0.0031
  813MOL0     C12069  -0.666   2.826   1.943  0.9531  0.2372  0.2824
  813MOL0     C12070  -0.810   2.819   2.007 -0.4558 -0.3077  0.1781
  813MOL0     C12071  -0.883   2.949   1.977  0.1921  0.6576 -1.0107
  813MOL0     C12072  -0.842   3.077   2.058 -0.3084  0.0275  0.2023
  813MOL0     N12073  -0.934   3.190   2.040  0.8431  0.0391  0.6261
  813MOL0     C12074  -0.911   3.300   1.956 -0.7713  0.9139  0.2577
  813MOL0     C12075  -1.015   3.383   1.973 -0.7522  1.3483 -0.8252
  813MOL0     C12076  -1.039   3.499   1.897 -0.7620 -0.0287 -0.0704
  813MOL0     C12077  -1.002   3.628   1.977  0.7888  0.7018 -0.5019
  813MOL0     C12078  -0.857   3.657   2.007 -1.0002 -0.0658 -0.4546
  813MOL0     C12079  -0.826   3.697   2.151  0.5700  0.7336 -0.3739
  813MOL0     O12080  -0.682   3.706   2.190 -0.7764 -0.3643  0.6845
  813MOL0     C12081  -0.603   3.596   2.184 -0.2159 -0.2541 -0.0090
  813MOL0     C12082  -0.461   3.623   2.178  0.2555 -0.1843 -0.6884
  813MOL0     C12083  -0.372   3.517   2.155 -0.2721  0.1907  0.2434
  813MOL0     C12084  -0.228   3.544   2.110 -0.7789  0.3747  0.2054
  813MOL0     C12085  -0.424   3.383   2.174  0.0984 -0.2587  0.4555
  813MOL0     C12086  -0.331   3.271   2.171  0.0472  0.3000 -0.4753
  813MOL0     O12087  -0.393   3.158   2.145  0.2317  0.1638 -1.0055
  813MOL0     C12088  -0.317   3.043   2.143  0.1984  1.2508  0.2086
  813MOL0     C12089  -0.205   3.030   2.062  0.1705 -0.8528  0.5242
  813MOL0     C12090  -0.127   2.915   2.070 -0.5128 -0.5516  0.1139
  813MOL0     C12091  -0.167   2.805   2.137 -0.5273  0.5929 -0.2168
  813MOL0     O12092  -0.098   2.683   2.142 -0.4349 -0.6357  0.3091
  813MOL0     C12093   0.035   2.666   2.098 -0.9509 -0.4377  0.1752
  813MOL0     C12094   0.086   2.530   2.128  0.6206  1.2278  0.2617
  813MOL0     C12095  -0.001   2.418   2.068 -0.3394 -0.3543  1.0431
  813MOL0     C12096  -0.050   2.344   2.190  0.8255 -0.9599  0.2495
  813MOL0     C12097  -0.130   2.222   2.146  0.5523 -0.5220 -0.0923
  813MOL0     C12098  -0.038   2.103   2.120 -0.3197 -0.8263  0.4779
  813MOL0     C12099  -0.110   1.988   2.063  0.3092  0.4147 -0.0673
  813MOL0     C12100  -0.025   1.854   2.043 -0.4494  0.6889  0.4807
  813MOL0    Cl12101   0.093   1.866   1.913 -0.1214  0.1180 -0.1383
  813MOL0     C12102  -0.283   2.812   2.218 -0.3436 -0.1317  0.5198
  813MOL0     C12103  -0.360   2.926   2.218  0.3602  0.0288 -0.2814
  813MOL0     O12104  -0.210   3.282   2.187 -0.5517 -0.1470  0.3370
  813MOL0     C12105  -0.560   3.359   2.189 -0.0587 -0.4865 -0.1014
  813MOL0     C12106  -0.652   3.467   2.197 -0.2566 -0.3986  0.6634
  813MOL0     N12107  -1.087   3.336   2.088  0.1696 -0.1570  0.0071
  813MOL0     N12108  -1.046   3.213   2.113 -0.1286  0.5619  0.8494
  813MOL0     C12109   0.006   2.495   1.675 -0.1498 -0.7134 -0.1949
  813MOL0     C12110   0.120   2.448   1.618 -0.4896 -0.2022 -0.4425
  813MOL0     C12111   0.499   2.196   1.651  0.2182  0.4663 -0.0944
  813MOL0     C12112   0.528   2.178   1.517 -0.3024  1.1416 -0.3802
  813MOL0     C12113   0.651   2.130   1.472 -0.1706 -0.1352 -0.3544
  813MOL0     C12114   0.754   2.106   1.564 -0.5198 -0.2170 -0.5905
  813MOL0     O12115   0.873   2.065   1.516 -0.0815 -0.1564 -0.3378
  813MOL0     C12116   0.956   2.168   1.463 -0.4386 -0.5521 -0.4976
  813MOL0     C12117   1.077   2.115   1.391 -0.5870 -0.1411  1.1213
  813MOL0     C12118   1.188   2.065   1.489  0.1486 -0.1203 -0.0374
  813MOL0     C12119   1.159   1.916   1.541 -0.1235  0.2585  0.0931
  813MOL0     C12120   1.288   1.861   1.593  1.2660 -0.2154  0.2690
  813MOL0     C12121   1.395   1.824   1.635 -0.7124 -0.9184 -0.2610
  813MOL0     C12122   0.734   2.135   1.699 -0.1454 -0.5131  0.9344
  813MOL0     C12123   0.604   2.180   1.741  0.0919 -0.0196 -0.6198
  813MOL0     C12124   0.589   2.217   1.884 -1.0457  0.2757  0.6362
  813MOL0     H12125   0.087   2.115   1.682  2.8145  0.2173 -3.3590
  813MOL0     H12126  -0.122   2.218   1.791  0.1592  1.6037  1.9950
  813MOL0     H12127  -0.273   2.607   1.685  0.1186 -1.0870 -0.5992
  813MOL0     H12128  -0.194   2.647   1.842  0.0060  0.8059  2.2225
  813MOL0     H12129  -0.446   2.492   1.784  0.6560 -1.5857  1.4684
  813MOL0     H12130  -0.388   2.533   1.950 -1.3094  2.8250  1.1174
  813MOL0     H12131  -0.402   2.780   1.887  0.1851 -1.1389  0.2007
  813MOL0     H12132  -0.493   2.738   1.739 -1.5447  2.3440  0.4019
  813MOL0     H12133  -0.648   2.608   1.921  0.7820 -1.6327  4.0585
  813MOL0     H12134  -0.543   2.693   2.043 -0.4708 -0.8354  0.0008
  813MOL0     H12135  -0.673   2.863   1.840 -2.5370  1.0119  0.6691
  813MOL0     H12136  -0.607   2.888   2.011  0.7944 -3.1431  3.8649
  813MOL0     H12137  -0.878   2.749   1.957 -3.0797  1.7376  0.6560
  813MOL0     H12138  -0.814   2.794   2.113 -1.3188  0.0895  0.2542
  813MOL0     H12139  -0.992   2.942   1.989  0.1851 -0.5621 -1.7034
  813MOL0     H12140  -0.871   2.967   1.870 -0.9378  0.9697 -1.1066
  813MOL0     H12141  -0.816   3.075   2.164 -0.0504  1.5874  0.1964
  813MOL0     H12142  -0.751   3.113   2.010 -0.2056  2.0934  1.7865
  813MOL0     H12143  -0.826   3.318   1.891 -0.3430 -0.7675  0.3113
  813MOL0     H12144  -1.137   3.514   1.850  0.0927 -1.4881 -2.5131
  813MOL0     H12145  -0.976   3.504   1.807 -0.2880  3.9324  0.2816
  813MOL0     H12146  -1.052   3.709   1.923  0.7871  0.3217 -1.0717
  813MOL0     H12147  -1.058   3.625   2.071 -0.7793  3.0289 -1.2781
  813MOL0     H12148  -0.806   3.564   1.980 -0.2335  0.6379 -1.5146
  813MOL0     H12149  -0.818   3.738   1.945  0.2576  0.2533  0.7038
  813MOL0     H12150  -0.876   3.791   2.177 -1.4238  0.3716 -2.5274
  813MOL0     H12151  -0.877   3.619   2.207 -4.0552  3.0176 -0.9451
  813MOL0     H12152  -0.432   3.727   2.171 -0.3169 -0.0416 -0.9831
  813MOL0     H12153  -0.219   3.652   2.098 -0.7567  0.1560 -2.2456
  813MOL0     H12154  -0.210   3.496   2.014  1.8848  0.0204  0.8202
  813MOL0     H12155  -0.148   3.511   2.177 -2.2280  0.4895  2.0806
  813MOL0     H12156  -0.173   3.121   2.011  1.4975 -2.2471 -1.2874
  813MOL0     H12157  -0.030   2.916   2.020 -0.4378  3.1130  0.0339
  813MOL0     H12158   0.030   2.667   1.988 -0.7178  1.7336  0.1508
  813MOL0     H12159   0.103   2.734   2.150 -5.1131  2.5077  2.2718
  813MOL0     H12160   0.186   2.518   2.084  0.9739  0.4793  1.2282
  813MOL0     H12161   0.097   2.513   2.236  0.1071  0.3137  0.1788
  813MOL0     H12162   0.053   2.363   1.991 -1.8996  0.1100 -0.4474
  813MOL0     H12163  -0.076   2.476   2.014 -0.1144 -0.8134  0.2239
  813MOL0     H12164  -0.109   2.412   2.252  0.1424 -0.5530 -0.8224
  813MOL0     H12165   0.032   2.304   2.251  0.2910 -5.1123 -1.3755
  813MOL0     H12166  -0.209   2.195   2.216 -2.1200  0.0293 -2.7020
  813MOL0     H12167  -0.180   2.251   2.053  0.0717 -0.3891  0.2073
  813MOL0     H12168  -0.005   2.071   2.220  0.9806  2.5314  1.2384
  813MOL0     H12169   0.052   2.126   2.063  0.9242 -2.8401  1.4937
  813MOL0     H12170  -0.148   2.016   1.964  0.6862  1.5136  0.0875
  813MOL0     H12171  -0.188   1.967   2.137 -0.3744 -0.7892 -1.0790
  813MOL0     H12172  -0.087   1.769   2.015  1.5208 -0.4892 -0.5241
  813MOL0     H12173   0.016   1.820   2.139 -0.2656 -1.0936 -0.2046
  813MOL0     H12174  -0.312   2.723   2.273 -2.3753 -0.5646 -1.0970
  813MOL0     H12175  -0.445   2.929   2.286  0.6037  1.3739  0.0028
  813MOL0     H12176  -0.602   3.262   2.212  0.4793 -0.2178  2.2717
  813MOL0     H12177  -0.759   3.462   2.210 -0.2282  1.4576  2.0427
  813MOL0     H12178  -0.005   2.602   1.664  0.8550 -0.4318  1.2728
  813MOL0     H12179   0.184   2.523   1.573  2.1781 -1.2779  1.2308
  813MOL0     H12180   0.452   2.181   1.440  0.7129 -0.3680 -1.4991
  813MOL0     H12181   0.664   2.116   1.365 -0.2733  2.6621 -0.8063
  813MOL0     H12182   0.888   2.226   1.400 -0.5728 -0.4265 -0.2416
  813MOL0     H12183   0.990   2.233   1.544  0.9960 -1.9838  0.1030
  813MOL0     H12184   1.124   2.196   1.335  1.8815 -1.9086  0.4386
  813MOL0     H12185   1.042   2.045   1.314 -0.9142  2.5449 -1.3337
  813MOL0     H12186   1.277   2.065   1.425 -1.8026  1.7737 -3.0622
  813MOL0     H12187   1.207   2.137   1.569  1.5679 -0.0265 -0.4345
  813MOL0     H12188   1.131   1.846   1.462  2.5611 -0.8340  0.0042
  813MOL0     H12189   1.085   1.921   1.622  3.2897  1.3045  3.4641
  813MOL0     H12190   1.500   1.818   1.656 -0.3159 -1.6649 -2.1984
  813MOL0     H12191   0.812   2.129   1.775  2.0395  0.6718 -1.0743
  813MOL0     H12192   0.521   2.145   1.931 -0.9050  1.3707  2.6326
  813MOL0     H12193   0.684   2.206   1.936  0.4794 -1.0360 -2.2544
  813MOL0     H12194   0.550   2.318   1.905 -0.3532  0.7516 -0.2916
  814MOL0     O12195   9.255   4.559   6.069  0.6803 -1.0851 -0.5566
  814MOL0     C12196   9.132   4.542   6.076 -0.3975  0.6321  0.2034
  814MOL0     O12197   9.053   4.599   6.167 -0.3040  0.5739 -0.4292
  814MOL0     C12198   9.063   4.725   6.220 -0.8247  0.1251 -0.7377
  814MOL0     C12199   8.988   4.756   6.335  0.5182  0.7400  0.6343
  814MOL0     C12200   9.010   4.870   6.415  0.9664  1.1988 -0.6382
  814MOL0     C12201   9.101   4.965   6.374 -1.1176  0.0768 -0.6113
  814MOL0     O12202   9.117   5.100   6.417 -0.1061  0.2864  0.4553
  814MOL0     C12203   9.049   5.144   6.536 -0.3929 -0.1730 -0.2070
  814MOL0     C12204   9.086   5.286   6.575 -0.5494  0.0016 -0.8592
  814MOL0     C12205   8.970   5.336   6.663 -0.7186  0.2663  0.3037
  814MOL0     C12206   8.967   5.491   6.679 -0.6547 -0.7606  1.0764
  814MOL0     C12207   8.910   5.530   6.816  0.6266  0.2730  1.1254
  814MOL0     C12208   9.016   5.503   6.928 -0.4027 -0.0736  0.5030
  814MOL0     C12209   8.952   5.479   7.064 -0.3073  0.1321 -0.9169
  814MOL0     C12210   9.058   5.448   7.172 -0.6431 -0.6159  0.2694
  814MOL0     N12211   9.131   5.568   7.228  0.4317 -0.0918  0.2997
  814MOL0     C12212   9.086   5.671   7.313  0.2601  0.1810  1.2253
  814MOL0     C12213   9.204   5.739   7.345  0.2138 -0.2653  0.2740
  814MOL0     C12214   9.213   5.852   7.434  0.0663  0.6070 -0.2313
  814MOL0     C12215   9.123   5.841   7.552  0.5419 -0.2570  0.2156
  814MOL0     C12216   9.150   5.720   7.641 -0.4977 -0.0678 -0.3708
  814MOL0     C12217   9.057   5.718   7.762  0.3420  0.4028 -0.6260
  814MOL0     O12218   9.034   5.852   7.832 -0.0460  0.0992  0.6812
  814MOL0     C12219   8.944   5.854   7.942  0.4505  0.4407  1.4089
  814MOL0     C12220   8.896   5.979   7.982 -0.3496  0.5524 -0.3299
  814MOL0     C12221   8.804   5.991   8.085  0.1107 -0.4189  1.5569
  814MOL0     C12222   8.766   6.132   8.118  1.1886  1.1388  0.7042
  814MOL0     C12223   8.737   5.874   8.134 -0.6944  0.4131  0.8751
  814MOL0     C12224   8.623   5.880   8.228 -0.1210  1.0087 -0.4630
  814MOL0     O12225   8.553   5.761   8.240 -0.3469  0.0008 -0.7595
  814MOL0     C12226   8.501   5.736   8.367  0.4281  0.0709 -1.0843
  814MOL0     C12227   8.366   5.772   8.394 -1.2355 -0.7206 -0.0066
  814MOL0     C12228   8.314   5.734   8.517  0.4915 -1.7124  0.0784
  814MOL0     C12229   8.389   5.658   8.608  0.5666 -0.2456 -0.2128
  814MOL0     O12230   8.337   5.627   8.732 -0.2688 -0.1724  0.0759
  814MOL0     C12231   8.332   5.731   8.828  0.1418  0.2347 -0.9350
  814MOL0     C12232   8.301   5.661   8.954 -0.7239  0.5052  0.7002
  814MOL0     C12233   8.161   5.612   8.964 -0.4927 -0.1539 -0.6320
  814MOL0     C12234   8.162   5.482   9.058 -0.3855 -0.4347  0.0173
  814MOL0     C12235   8.180   5.344   8.983  0.0032 -0.7012  0.0322
  814MOL0     C12236   8.062   5.298   8.903 -0.3389  0.2466  0.2281
  814MOL0     C12237   8.080   5.150   8.843 -0.4561  0.4448  0.0332
  814MOL0     C12238   7.956   5.058   8.854  0.6574 -0.2748 -0.1441
  814MOL0    Cl12239   7.836   5.145   8.762  0.2727 -0.1079  0.6464
  814MOL0     C12240   8.523   5.627   8.586  0.1630 -0.8139 -0.4164
  814MOL0     C12241   8.576   5.672   8.461  1.0394 -0.7073  0.0381
  814MOL0     O12242   8.615   5.974   8.304 -0.2924 -0.6468 -0.7872
  814MOL0     C12243   8.787   5.750   8.088 -0.1100  0.5111  0.1375
  814MOL0     C12244   8.882   5.737   7.991  0.6751 -0.0650  0.1717
  814MOL0     N12245   9.305   5.687   7.270  0.3305  0.2812 -0.3346
  814MOL0     N12246   9.264   5.595   7.198  0.2647 -0.5203 -0.7637
  814MOL0     C12247   9.184   4.943   6.260 -0.3887  0.0139  0.6225
  814MOL0     C12248   9.165   4.828   6.184 -0.3758  0.5355 -0.4150
  814MOL0     C12249   9.085   4.427   5.996  0.1204 -0.0265  0.2145
  814MOL0     C12250   8.976   4.349   6.050  0.0841  1.0491 -0.5289
  814MOL0     C12251   8.922   4.231   5.988 -0.7080 -0.5651 -0.0767
  814MOL0     C12252   8.978   4.198   5.863  0.5960 -0.3489  0.1426
  814MOL0     O12253   8.932   4.096   5.782 -1.0124  0.6287 -0.4534
  814MOL0     C12254   8.823   4.011   5.823 -0.2668 -0.1909 -0.0994
  814MOL0     C12255   8.816   3.887   5.733 -0.3734 -0.3063 -0.1162
  814MOL0     C12256   8.844   3.913   5.584 -0.4162  0.7226  0.0428
  814MOL0     C12257   8.843   3.780   5.506  0.1513 -0.5652 -0.7355
  814MOL0     C12258   8.907   3.798   5.378 -1.2750 -0.1552 -1.1230
  814MOL0     C12259   8.972   3.781   5.276  0.0370  0.7487  0.7358
  814MOL0     C12260   9.093   4.264   5.814  0.3092 -0.0053 -0.3048
  814MOL0     C12261   9.150   4.377   5.877  0.8322 -0.8335  0.8151
  814MOL0     C12262   9.271   4.429   5.805 -0.3957  0.2206  0.1034
  814MOL0     H12263   8.920   4.683   6.377  0.4587  0.6792  0.4318
  814MOL0     H12264   8.950   4.888   6.503  0.8432  0.8422 -0.6469
  814MOL0     H12265   9.054   5.076   6.622 -1.1165 -0.1402 -0.1338
  814MOL0     H12266   8.945   5.135   6.503 -1.1373 -1.4199  2.2768
  814MOL0     H12267   9.177   5.283   6.635 -1.0630  2.6855  0.1639
  814MOL0     H12268   9.098   5.352   6.488 -1.9262  1.6253  0.1262
  814MOL0     H12269   8.867   5.317   6.633 -0.4705  0.4586 -0.7149
  814MOL0     H12270   8.993   5.284   6.757  1.5820  0.5836 -0.0093
  814MOL0     H12271   9.066   5.535   6.662 -2.0341  2.1270 -0.1329
  814MOL0     H12272   8.903   5.539   6.605  2.1414  1.3527 -0.1906
  814MOL0     H12273   8.825   5.467   6.841  1.8103  0.1055  5.6249
  814MOL0     H12274   8.869   5.631   6.823 -3.0563 -0.7151 -2.4575
  814MOL0     H12275   9.091   5.432   6.892 -0.8705 -1.5508  2.3191
  814MOL0     H12276   9.084   5.589   6.929 -1.2832  0.6520 -0.1043
  814MOL0     H12277   8.887   5.393   7.048  0.9003 -0.6864 -1.5723
  814MOL0     H12278   8.888   5.561   7.098 -1.4774  0.4644 -3.6700
  814MOL0     H12279   9.016   5.409   7.265  0.6171 -1.2067  0.6080
  814MOL0     H12280   9.124   5.371   7.131  3.7339  1.3920  2.8297
  814MOL0     H12281   8.986   5.689   7.349 -0.4100 -2.1665  0.6886
  814MOL0     H12282   9.193   5.939   7.371 -2.6327 -0.9778 -1.7619
  814MOL0     H12283   9.315   5.855   7.474 -0.2655 -0.3976  0.7438
  814MOL0     H12284   9.132   5.933   7.612  1.6572  0.0937 -0.4661
  814MOL0     H12285   9.021   5.838   7.513  0.7703 -0.2244 -0.3899
  814MOL0     H12286   9.148   5.625   7.588 -0.7043 -0.0113 -0.4637
  814MOL0     H12287   9.253   5.719   7.680 -0.8510 -3.7174  0.7566
  814MOL0     H12288   8.956   5.688   7.731  0.4349  1.1954 -1.7551
  814MOL0     H12289   9.099   5.645   7.831 -1.0482  0.3632  0.2140
  814MOL0     H12290   8.945   6.061   7.930  1.6384 -0.5465 -0.2957
  814MOL0     H12291   8.796   6.148   8.222  2.8653 -0.9495  0.6019
  814MOL0     H12292   8.657   6.138   8.104  1.3346  0.3397 -1.0648
  814MOL0     H12293   8.821   6.208   8.062  1.9476  0.3321  0.3327
  814MOL0     H12294   8.306   5.822   8.318 -1.6487 -1.3354 -0.0980
  814MOL0     H12295   8.209   5.747   8.541  0.6722  0.4936 -0.0850
  814MOL0     H12296   8.428   5.784   8.836  0.3173 -0.1743 -0.2696
  814MOL0     H12297   8.250   5.802   8.812  0.5060  1.0997  0.8067
  814MOL0     H12298   8.371   5.577   8.964 -1.1938  0.3012  2.5937
  814MOL0     H12299   8.330   5.720   9.041 -0.7969 -1.1880  1.9037
  814MOL0     H12300   8.122   5.586   8.866 -3.3993  1.2903  0.0227
  814MOL0     H12301   8.095   5.693   8.999  0.5087  0.2299  0.4363
  814MOL0     H12302   8.071   5.471   9.117  1.7929 -2.4187  3.3154
  814MOL0     H12303   8.238   5.502   9.134 -0.5632  3.0346 -0.5289
  814MOL0     H12304   8.281   5.337   8.941  0.1423  4.0877 -1.0458
  814MOL0     H12305   8.187   5.277   9.070  1.1498 -2.6074 -1.4606
  814MOL0     H12306   8.040   5.362   8.817  0.1037  1.6900  1.1540
  814MOL0     H12307   7.982   5.312   8.977  0.4458 -0.9406  1.3593
  814MOL0     H12308   8.159   5.100   8.901 -1.7254  0.4727  1.8892
  814MOL0     H12309   8.112   5.167   8.740  0.1014  0.5443  0.2163
  814MOL0     H12310   7.918   5.050   8.956  1.4083  1.1066  0.2598
  814MOL0     H12311   7.989   4.966   8.805 -1.9258 -0.2787 -2.1379
  814MOL0     H12312   8.587   5.591   8.666 -0.6169  0.8628  1.0543
  814MOL0     H12313   8.682   5.670   8.439  1.0387 -0.5355  0.0152
  814MOL0     H12314   8.743   5.657   8.120 -3.5621  1.9401  0.0044
  814MOL0     H12315   8.916   5.639   7.958 -1.2843 -1.1078  1.0228
  814MOL0     H12316   9.256   5.019   6.232 -1.9329  0.6406 -1.8862
  814MOL0     H12317   9.212   4.799   6.091 -1.3698 -1.7150 -0.2896
  814MOL0     H12318   8.934   4.390   6.141  0.0245 -0.0160 -0.0564
  814MOL0     H12319   8.837   4.179   6.032 -2.1237  0.2271 -1.7439
  814MOL0     H12320   8.830   3.996   5.932  1.4748  0.8037 -0.0387
  814MOL0     H12321   8.730   4.066   5.806 -1.1231 -2.2242 -2.5361
  814MOL0     H12322   8.714   3.851   5.746 -0.8490  1.4813  1.6975
  814MOL0     H12323   8.888   3.811   5.765  0.2220  1.2091  2.4331
  814MOL0     H12324   8.771   3.977   5.533 -0.8307  1.2701  1.2864
  814MOL0     H12325   8.949   3.946   5.583 -0.7205  1.7336 -1.2464
  814MOL0     H12326   8.737   3.755   5.498 -1.0077  2.9809  1.2197
  814MOL0     H12327   8.890   3.699   5.562  2.0171 -1.2527 -3.1571
  814MOL0     H12328   9.020   3.744   5.187 -1.1314 -1.5218  0.9877
  814MOL0     H12329   9.140   4.225   5.724  0.8016  2.6304 -1.2951
  814MOL0     H12330   9.362   4.411   5.863 -1.0680  0.4281  1.2787
  814MOL0     H12331   9.284   4.408   5.699  0.8619  0.0286  0.2792
  814MOL0     H12332   9.255   4.538   5.804 -3.7509 -0.1553 -0.1282
  815MOL0     O12333   1.672   8.745   9.658  0.4279  0.5910 -0.9969
  815MOL0     C12334   1.587   8.698   9.728 -0.8136 -0.3955 -0.4207
  815MOL0     O12335   1.457   8.729   9.709  0.9378  1.0876 -0.3736
  815MOL0     C12336   1.429   8.829   9.626 -0.1825 -0.3443 -0.3174
  815MOL0     C12337   1.365   8.808   9.499 -0.5953 -0.2071  0.2927
  815MOL0     C12338   1.332   8.916   9.416 -0.1123  0.8168 -0.2535
  815MOL0     C12339   1.384   9.043   9.442  0.6599  0.1762 -0.3358
  815MOL0     O12340   1.363   9.156   9.368  0.3560 -0.1759 -0.0372
  815MOL0     C12341   1.307   9.132   9.232  0.1648 -1.0107 -0.7697
  815MOL0     C12342   1.308   9.264   9.153  0.5110  0.9802  0.6332
  815MOL0     C12343   1.193   9.348   9.201  0.2615  0.6788 -0.8381
  815MOL0     C12344   1.198   9.482   9.136 -0.4933  0.2609  0.7119
  815MOL0     C12345   1.066   9.563   9.153  0.3011  0.2726  0.4759
  815MOL0     C12346   1.051   9.682   9.060  0.2061  0.5476  0.4338
  815MOL0     C12347   0.953   9.785   9.118 -0.3111 -0.1528 -0.5336
  815MOL0     C12348   0.964   9.922   9.045  0.5301 -0.5237  0.4196
  815MOL0     N12349   0.876  10.023   9.100 -0.2575 -0.2639  0.3082
  815MOL0     C12350   0.743  10.014   9.082  0.2252 -0.1147  0.3327
  815MOL0     C12351   0.690  10.098   9.172  0.3963 -0.0795  0.1603
  815MOL0     C12352   0.546  10.106   9.208  0.0785 -0.8859 -0.8230
  815MOL0     C12353   0.450  10.164   9.097  0.0201 -0.7806  0.6601
  815MOL0     C12354   0.318  10.208   9.159 -0.0065 -1.4856  0.2160
  815MOL0     C12355   0.241  10.094   9.233 -0.3980  0.2042  0.3677
  815MOL0     O12356   0.137  10.144   9.321  0.0941 -0.1271 -0.3733
  815MOL0     C12357   0.157  10.224   9.437  0.0235  0.3874  0.3859
  815MOL0     C12358   0.272  10.277   9.476 -0.0086 -0.3193  0.0510
  815MOL0     C12359   0.285  10.348   9.595 -0.6010 -0.2223 -0.9340
  815MOL0     C12360   0.421  10.400   9.629 -0.6275  0.3019  0.5249
  815MOL0     C12361   0.170  10.358   9.673  0.6280  0.2677 -0.8656
  815MOL0     C12362   0.172  10.415   9.812 -0.2076  0.6797 -0.0020
  815MOL0     O12363   0.281  10.407   9.890  1.1286 -0.1870 -0.4069
  815MOL0     C12364   0.256  10.420  10.024  0.6089 -0.1090 -0.9778
  815MOL0     C12365   0.243  10.543  10.087  0.0980  0.5415 -0.7625
  815MOL0     C12366   0.229  10.570  10.224 -0.4812 -0.2592  0.8664
  815MOL0     C12367   0.229  10.457  10.312 -0.2289 -1.4971 -1.4492
  815MOL0     O12368   0.202  10.483  10.449  0.4658  0.1936  0.7977
  815MOL0     C12369   0.148  10.389  10.544 -0.1908 -0.5315 -0.3526
  815MOL0     C12370  -0.003  10.408  10.544 -0.6941 -0.4462  0.3625
  815MOL0     C12371  -0.077  10.373  10.413  0.2588  1.0250  0.2853
  815MOL0     C12372  -0.229  10.354  10.427 -0.8254 -0.4304  0.1961
  815MOL0     C12373  -0.280  10.248  10.319 -0.2400 -0.2950 -0.5566
  815MOL0     C12374  -0.258  10.288  10.169 -0.2138  0.6195  0.1416
  815MOL0     C12375  -0.350  10.203  10.070  0.3477 -0.6633  0.2245
  815MOL0     C12376  -0.328  10.235   9.922 -0.6512 -0.2284  0.2290
  815MOL0    Cl12377  -0.333  10.408   9.866 -0.1401 -0.7783  0.1043
  815MOL0     C12378   0.235  10.335  10.262 -0.1230  0.9054 -0.0280
  815MOL0     C12379   0.252  10.314  10.120  0.6485 -0.3064 -1.0774
  815MOL0     O12380   0.062  10.457   9.843  0.3096  0.3975 -0.1322
  815MOL0     C12381   0.046  10.319   9.620 -0.2418 -0.7897  0.5348
  815MOL0     C12382   0.038  10.250   9.503 -0.8780  0.4417 -0.7386
  815MOL0     N12383   0.795  10.155   9.239 -0.0821 -0.8579  0.4106
  815MOL0     N12384   0.903  10.106   9.198 -0.1032 -0.1336 -0.1397
  815MOL0     C12385   1.457   9.060   9.559 -1.2140  0.6468 -0.6976
  815MOL0     C12386   1.462   8.961   9.657 -0.8476 -0.2305 -0.1249
  815MOL0     C12387   1.630   8.597   9.824  0.7500  1.1023 -0.2649
  815MOL0     C12388   1.743   8.622   9.903  0.4440 -0.5262  0.2546
  815MOL0     C12389   1.799   8.524   9.984 -0.6563  0.8295 -0.2876
  815MOL0     C12390   1.729   8.407  10.019 -0.4342 -0.4959 -0.3269
  815MOL0     O12391   1.772   8.309  10.115 -0.1358  0.2541  0.4966
  815MOL0     C12392   1.839   8.355  10.233 -0.4104 -0.8921  0.7666
  815MOL0     C12393   1.965   8.268  10.268 -0.1377  0.6467  1.1431
  815MOL0     C12394   2.068   8.261  10.152  0.4318 -0.2551  0.3024
  815MOL0     C12395   2.063   8.119  10.100  0.0004  0.4040  0.4771
  815MOL0     C12396   2.115   8.019  10.199  0.6310 -1.1338 -0.6745
  815MOL0     C12397   2.168   7.941  10.275  0.8435  0.1303 -0.0631
  815MOL0     C12398   1.615   8.381   9.943  0.7435 -0.4529 -0.2663
  815MOL0     C12399   1.564   8.471   9.846  0.6369  1.0949 -0.3623
  815MOL0     C12400   1.450   8.415   9.758  0.5832  0.6737 -0.5772
  815MOL0     H12401   1.331   8.710   9.466  1.0900 -0.5612 -0.4652
  815MOL0     H12402   1.269   8.907   9.327 -1.1647 -1.7916  0.6710
  815MOL0     H12403   1.202   9.107   9.249  0.2003 -0.2413  0.7856
  815MOL0     H12404   1.356   9.054   9.173  2.5488 -0.6005  0.5428
  815MOL0     H12405   1.409   9.306   9.160  1.1796 -0.5044  0.3137
  815MOL0     H12406   1.282   9.234   9.051 -0.0370 -0.2783  1.1172
  815MOL0     H12407   1.098   9.299   9.179 -0.2544  1.3215 -0.1023
  815MOL0     H12408   1.201   9.364   9.309  2.3351  0.7640 -0.9576
  815MOL0     H12409   1.280   9.551   9.159  1.5183 -1.5200 -0.6400
  815MOL0     H12410   1.216   9.472   9.028 -1.2303  0.1166  0.6024
  815MOL0     H12411   1.055   9.603   9.254 -1.5864  0.1332  0.3485
  815MOL0     H12412   0.983   9.493   9.139  1.0434 -1.0570  2.3384
  815MOL0     H12413   1.151   9.716   9.034 -0.0287  0.8527 -0.0859
  815MOL0     H12414   1.014   9.651   8.961 -2.9220  2.3087  0.9084
  815MOL0     H12415   0.984   9.794   9.222  4.2944  1.9009 -1.8095
  815MOL0     H12416   0.849   9.753   9.105 -0.9363  1.5111  0.1396
  815MOL0     H12417   1.067   9.957   9.033  0.7098 -0.6550  1.5007
  815MOL0     H12418   0.923   9.902   8.945  0.2709 -1.6388  0.7400
  815MOL0     H12419   0.690   9.953   9.009 -1.4623  1.1276  0.4477
  815MOL0     H12420   0.526  10.163   9.299 -1.8264 -2.0926 -0.4407
  815MOL0     H12421   0.521  10.000   9.220 -4.0128 -0.1321 -1.3817
  815MOL0     H12422   0.496  10.254   9.055 -1.3325  0.9086  2.5951
  815MOL0     H12423   0.431  10.090   9.018  0.0077 -0.0556 -0.0353
  815MOL0     H12424   0.345  10.295   9.219  0.0973 -0.0147 -1.8853
  815MOL0     H12425   0.253  10.237   9.076 -4.0504 -1.1129  3.2025
  815MOL0     H12426   0.201  10.021   9.163  1.0302  0.3088 -0.6033
  815MOL0     H12427   0.318  10.044   9.292  0.3861  4.8431  3.9721
  815MOL0     H12428   0.366  10.258   9.426 -0.2152  0.5638 -0.6870
  815MOL0     H12429   0.499  10.400   9.553 -2.2607  2.1875 -1.2769
  815MOL0     H12430   0.439  10.344   9.721 -2.9768 -0.6313  0.5006
  815MOL0     H12431   0.403  10.503   9.660 -1.5564  0.9715 -2.0096
  815MOL0     H12432   0.238  10.630  10.023 -2.2305  1.7681  0.9886
  815MOL0     H12433   0.230  10.673  10.258 -1.1150  0.9965 -2.4641
  815MOL0     H12434   0.175  10.286  10.519  1.5473 -0.2533  0.2673
  815MOL0     H12435   0.199  10.405  10.639  0.0321  1.1621 -0.7178
  815MOL0     H12436  -0.043  10.342  10.622 -4.2297  0.9949 -0.0308
  815MOL0     H12437  -0.023  10.509  10.579  0.7484 -0.2991  0.8223
  815MOL0     H12438  -0.030  10.280  10.381 -1.4755  0.3955 -0.6027
  815MOL0     H12439  -0.053  10.442  10.332 -0.8954  3.0408  1.5836
  815MOL0     H12440  -0.271  10.453  10.407 -2.6873 -0.8986  1.4506
  815MOL0     H12441  -0.241  10.324  10.532 -1.6562  2.0984  0.8870
  815MOL0     H12442  -0.225  10.155  10.338  1.5581  0.3623 -2.1832
  815MOL0     H12443  -0.386  10.226  10.334  0.3898 -2.0530  1.9380
  815MOL0     H12444  -0.152  10.299  10.145 -0.2965  0.0972 -0.4683
  815MOL0     H12445  -0.294  10.391  10.157 -3.5775 -0.6250 -1.7119
  815MOL0     H12446  -0.451  10.231  10.100 -0.3305 -1.1859 -1.5036
  815MOL0     H12447  -0.333  10.097  10.090 -0.9067 -0.9814 -0.3460
  815MOL0     H12448  -0.395  10.170   9.867  0.4895 -3.2316  2.1128
  815MOL0     H12449  -0.227  10.199   9.897  0.0112  1.4757  0.3118
  815MOL0     H12450   0.241  10.251  10.331  1.0397  1.1073  0.1322
  815MOL0     H12451   0.277  10.213  10.091  0.3573  0.0393 -2.6522
  815MOL0     H12452  -0.047  10.332   9.674  0.8748 -0.2071  2.4359
  815MOL0     H12453  -0.050  10.196   9.470 -1.3731  1.8545 -1.8231
  815MOL0     H12454   1.496   9.161   9.573  0.2460  0.2023 -1.3745
  815MOL0     H12455   1.514   8.993   9.747 -1.4810  3.0836 -0.8043
  815MOL0     H12456   1.791   8.718   9.887 -2.0638  0.8947  0.7524
  815MOL0     H12457   1.899   8.542  10.023  0.3860 -2.4926 -1.0349
  815MOL0     H12458   1.871   8.459  10.222  0.4384 -1.0563  1.6246
  815MOL0     H12459   1.759   8.345  10.307 -2.0736 -1.1172 -0.9593
  815MOL0     H12460   1.946   8.171  10.315  0.1989 -0.3753 -0.7403
  815MOL0     H12461   2.025   8.327  10.338  2.3524  0.2886 -0.5470
  815MOL0     H12462   2.054   8.336  10.074 -0.2219 -0.5812  0.1055
  815MOL0     H12463   2.167   8.278  10.196 -0.5299  0.0973  2.4401
  815MOL0     H12464   2.128   8.101  10.014  0.0468  0.5907  0.4729
  815MOL0     H12465   1.964   8.086  10.066  0.5132 -0.5317 -0.1384
  815MOL0     H12466   2.212   7.869  10.342 -0.7340  1.8277  3.0407
  815MOL0     H12467   1.572   8.286   9.973 -0.1540 -0.1420 -0.5278
  815MOL0     H12468   1.477   8.317   9.719 -1.4801  0.4971 -1.6820
  815MOL0     H12469   1.357   8.401   9.815  1.0953  0.6756  0.2679
  815MOL0     H12470   1.409   8.470   9.673  0.9972 -1.3383 -2.1448
  816MOL0     O12471   0.146   1.525   0.805  0.1962 -0.5035  0.4944
  816MOL0     C12472   0.147   1.618   0.889  0.3427  0.2720  1.2503
  816MOL0     O12473   0.259   1.691   0.920  0.4912 -0.1100  0.1310
  816MOL0     C12474   0.368   1.682   0.841  1.6310  1.1673 -0.0657
  816MOL0     C12475   0.366   1.689   0.700  0.6801  0.1767  0.7624
  816MOL0     C12476   0.480   1.710   0.626  0.7149  1.8743 -1.0050
  816MOL0     C12477   0.608   1.722   0.686  0.3851  0.1818 -0.3334
  816MOL0     O12478   0.712   1.723   0.603  0.2252 -0.0276  1.2106
  816MOL0     C12479   0.806   1.613   0.612 -0.2617  0.9120  0.0954
  816MOL0     C12480   0.931   1.621   0.519  0.9612  0.2832 -0.9502
  816MOL0     C12481   0.895   1.661   0.376 -0.1706 -0.0911 -0.2827
  816MOL0     C12482   0.907   1.811   0.355 -0.2537  0.5863  0.4781
  816MOL0     C12483   0.935   1.831   0.206 -0.3910  0.3078 -0.2383
  816MOL0     C12484   0.963   1.975   0.170 -0.3572  0.3252  0.9121
  816MOL0     C12485   0.980   1.997   0.022 -1.1033  0.3404  0.2278
  816MOL0     C12486   1.121   1.967  -0.032 -0.5718  0.2411 -1.7837
  816MOL0     N12487   1.140   1.824  -0.067  0.1831  0.1626 -0.3829
  816MOL0     C12488   1.063   1.743  -0.149 -0.4797 -0.3881  1.1659
  816MOL0     C12489   1.133   1.622  -0.161  0.6627 -0.1431  0.1603
  816MOL0     C12490   1.093   1.498  -0.228  0.1935  0.1555  0.6131
  816MOL0     C12491   0.970   1.439  -0.155 -0.5262 -0.2027 -0.3452
  816MOL0     C12492   1.011   1.363  -0.026 -0.4513 -0.6935 -0.1692
  816MOL0     C12493   0.894   1.294   0.032  0.8286  0.2588 -0.4294
  816MOL0     O12494   0.934   1.199   0.136 -0.3774 -0.6400  0.4419
  816MOL0     C12495   0.847   1.125   0.208  0.4858 -0.1784  1.1385
  816MOL0     C12496   0.708   1.100   0.174  0.3975  0.2756 -1.3238
  816MOL0     C12497   0.637   1.010   0.248  0.2189 -0.5055 -0.3725
  816MOL0     C12498   0.488   1.041   0.248 -0.2390 -0.0051 -0.3369
  816MOL0     C12499   0.693   0.930   0.345 -0.0894  0.2198 -0.7581
  816MOL0     C12500   0.624   0.843   0.440  0.4699 -0.2666  0.1957
  816MOL0     O12501   0.683   0.798   0.563  0.0172 -0.8805  0.0438
  816MOL0     C12502   0.618   0.728   0.658 -0.0866  0.5384  1.0645
  816MOL0     C12503   0.505   0.775   0.717  0.1373  0.3003  0.1166
  816MOL0     C12504   0.441   0.707   0.818 -0.4270 -0.2369  0.7481
  816MOL0     C12505   0.495   0.588   0.868 -0.6444  0.4155  0.1647
  816MOL0     O12506   0.421   0.526   0.965 -0.5869  0.1723 -0.9604
  816MOL0     C12507   0.484   0.417   1.045  1.1571 -0.4377 -0.2138
  816MOL0     C12508   0.622   0.453   1.118 -0.5809  0.2408  0.3361
  816MOL0     C12509   0.705   0.325   1.123 -0.6071  0.2259 -0.2412
  816MOL0     C12510   0.858   0.358   1.114  0.7820 -0.6514  0.4972
  816MOL0     C12511   0.936   0.228   1.136 -0.8512 -0.3332  0.0381
  816MOL0     C12512   0.948   0.205   1.283 -0.6446  0.2365  0.4724
  816MOL0     C12513   1.069   0.122   1.317  0.0671  0.4529  0.0628
  816MOL0     C12514   1.069  -0.005   1.242 -0.3469  0.5741  0.3527
  816MOL0    Cl12515   1.228  -0.079   1.252  0.3122  0.3347 -0.2436
  816MOL0     C12516   0.601   0.533   0.800 -0.0240 -1.0975 -0.3758
  816MOL0     C12517   0.666   0.603   0.696  0.1503  0.1530 -0.6207
  816MOL0     O12518   0.525   0.789   0.392  0.0209 -0.0769  0.1598
  816MOL0     C12519   0.829   0.947   0.369  1.0220 -0.9857 -0.6605
  816MOL0     C12520   0.904   1.056   0.312  1.1363 -0.5237  0.9501
  816MOL0     N12521   1.235   1.619  -0.064  0.1545 -0.4900  0.5943
  816MOL0     N12522   1.242   1.741  -0.017 -0.0489 -0.6744 -0.0687
  816MOL0     C12523   0.613   1.700   0.820  0.3516 -0.2670  0.0589
  816MOL0     C12524   0.495   1.679   0.893 -0.3773  0.4488  0.2239
  816MOL0     C12525   0.017   1.654   0.954 -0.2679 -0.2360  0.0319
  816MOL0     C12526   0.028   1.692   1.090  0.7685  0.8518  0.2686
  816MOL0     C12527  -0.087   1.722   1.164 -0.0369 -0.5422 -0.8371
  816MOL0     C12528  -0.220   1.727   1.105  0.5461  0.4403  0.6263
  816MOL0     O12529  -0.343   1.733   1.161 -0.7710  0.0888 -0.7116
  816MOL0     C12530  -0.350   1.678   1.295 -0.3250  0.0899 -0.2176
  816MOL0     C12531  -0.498   1.671   1.338 -0.1899 -0.0186  0.6219
  816MOL0     C12532  -0.518   1.628   1.482  0.6783 -0.1858 -0.5424
  816MOL0     C12533  -0.471   1.488   1.506 -0.5981  0.3996  1.2275
  816MOL0     C12534  -0.540   1.447   1.625  0.0392  0.3063 -0.7589
  816MOL0     C12535  -0.582   1.429   1.736 -0.8135 -0.8870 -0.4723
  816MOL0     C12536  -0.221   1.691   0.969 -0.1293  0.3114  0.0638
  816MOL0     C12537  -0.109   1.657   0.898  0.2455  0.2479 -0.2963
  816MOL0     C12538  -0.146   1.615   0.750  0.0572  0.2272  0.6829
  816MOL0     H12539   0.267   1.680   0.655  0.5430 -1.1641  1.2753
  816MOL0     H12540   0.478   1.724   0.518 -0.8077 -0.3998 -1.3507
  816MOL0     H12541   0.752   1.521   0.588 -0.7453  0.7984  1.5004
  816MOL0     H12542   0.834   1.594   0.716 -1.3350 -0.6683  0.1290
  816MOL0     H12543   1.015   1.682   0.555  2.3256 -1.4018 -1.1300
  816MOL0     H12544   0.981   1.524   0.521 -0.7878 -0.6461 -0.0760
  816MOL0     H12545   0.971   1.618   0.310 -0.7601  0.4480 -1.3345
  816MOL0     H12546   0.796   1.627   0.347 -0.8576  0.8485  0.8954
  816MOL0     H12547   0.821   1.870   0.388  0.8212  2.3513  0.2552
  816MOL0     H12548   0.996   1.835   0.414 -0.8106 -1.4501  2.2579
  816MOL0     H12549   0.857   1.787   0.143 -3.0203  2.0861  1.6060
  816MOL0     H12550   1.030   1.784   0.178 -1.8570 -1.3142 -2.8929
  816MOL0     H12551   0.880   2.038   0.205 -2.0154 -1.2636  0.0216
  816MOL0     H12552   1.058   2.008   0.212 -0.0903  3.0744 -1.5087
  816MOL0     H12553   0.952   2.102   0.010  0.7158  0.8563  0.1842
  816MOL0     H12554   0.906   1.934  -0.028 -2.0669 -0.2459  2.2675
  816MOL0     H12555   1.136   2.023  -0.125  0.0867  3.2883  0.0285
  816MOL0     H12556   1.193   1.995   0.045 -0.2690 -0.7824 -1.6844
  816MOL0     H12557   0.963   1.771  -0.181 -0.3349  0.7623  1.6392
  816MOL0     H12558   1.176   1.427  -0.233  1.4084  1.6621 -1.9133
  816MOL0     H12559   1.054   1.526  -0.326 -1.1975  0.1640  1.1458
  816MOL0     H12560   0.889   1.512  -0.151 -1.0190 -0.6503 -1.4927
  816MOL0     H12561   0.921   1.372  -0.227  0.8542 -0.7897 -0.7660
  816MOL0     H12562   1.079   1.286  -0.065 -0.3100  0.5902 -2.6793
  816MOL0     H12563   1.060   1.426   0.048 -1.5700  1.1638 -0.9406
  816MOL0     H12564   0.831   1.373   0.073  0.2096  0.5125 -1.8155
  816MOL0     H12565   0.841   1.246  -0.051  0.6348 -1.0470  0.4321
  816MOL0     H12566   0.659   1.164   0.102  2.4916  1.8500 -1.4561
  816MOL0     H12567   0.480   1.150   0.245 -0.4451 -0.0376 -1.5967
  816MOL0     H12568   0.440   1.006   0.339  0.8209 -0.4864  0.0632
  816MOL0     H12569   0.460   1.002   0.150 -0.2055  0.0326 -0.3612
  816MOL0     H12570   0.452   0.864   0.683 -1.6221 -1.1558 -1.1446
  816MOL0     H12571   0.354   0.750   0.866 -1.2250 -3.8710  2.9900
  816MOL0     H12572   0.410   0.401   1.123  0.2634 -1.3936 -1.2148
  816MOL0     H12573   0.489   0.323   0.988  1.3908 -0.0853 -0.7873
  816MOL0     H12574   0.684   0.529   1.070  2.6723 -2.1734  0.3394
  816MOL0     H12575   0.608   0.495   1.218  0.8074 -2.9760  2.0237
  816MOL0     H12576   0.672   0.262   1.040 -1.2992  2.3109 -1.6063
  816MOL0     H12577   0.672   0.291   1.222 -1.0860  0.9938 -0.1299
  816MOL0     H12578   0.876   0.426   1.197 -0.2999 -2.8835  2.7245
  816MOL0     H12579   0.874   0.404   1.016 -4.1079 -0.7872 -0.6217
  816MOL0     H12580   0.893   0.138   1.091  0.5431 -0.5083 -1.0151
  816MOL0     H12581   1.036   0.237   1.095 -1.7379  1.3260 -1.9680
  816MOL0     H12582   0.853   0.168   1.321 -1.7297  3.3988  1.0844
  816MOL0     H12583   0.963   0.299   1.337 -1.4486 -0.6718  2.3750
  816MOL0     H12584   1.077   0.111   1.426 -2.8559 -0.0385  0.2855
  816MOL0     H12585   1.160   0.170   1.279  0.5932 -1.3549 -1.0935
  816MOL0     H12586   1.043   0.011   1.137 -2.4282 -2.6999  0.2530
  816MOL0     H12587   1.000  -0.080   1.280  2.0469 -0.9863  1.9200
  816MOL0     H12588   0.647   0.443   0.838 -0.8139 -0.6112  1.8802
  816MOL0     H12589   0.757   0.564   0.650  1.4615  0.0163  1.9187
  816MOL0     H12590   0.886   0.895   0.445  2.1873  0.5396 -0.4618
  816MOL0     H12591   1.007   1.077   0.339  0.3474  2.3616  2.1321
  816MOL0     H12592   0.705   1.681   0.874 -0.6113  0.6264  2.1067
  816MOL0     H12593   0.515   1.660   0.998  5.0829  0.4221 -0.5401
  816MOL0     H12594   0.123   1.675   1.140  2.5972 -2.9572 -3.8267
  816MOL0     H12595  -0.074   1.741   1.270  1.2433  4.5371 -1.6644
  816MOL0     H12596  -0.309   1.577   1.306  0.9696  0.7511  1.2991
  816MOL0     H12597  -0.291   1.750   1.352  0.9592 -1.3352  0.3311
  816MOL0     H12598  -0.550   1.595   1.279 -1.3966  1.4066 -0.2528
  816MOL0     H12599  -0.547   1.768   1.325 -0.9149  0.1949  4.0439
  816MOL0     H12600  -0.469   1.689   1.558  3.5138 -1.8556 -0.9008
  816MOL0     H12601  -0.626   1.629   1.498  0.6678  3.5395 -0.0146
  816MOL0     H12602  -0.363   1.478   1.517 -0.6851 -2.2961  0.4959
  816MOL0     H12603  -0.492   1.421   1.423  1.7617 -1.7028  2.1940
  816MOL0     H12604  -0.607   1.394   1.835  4.0172 -3.1744  0.2375
  816MOL0     H12605  -0.317   1.693   0.917 -0.5197  1.4767  0.7860
  816MOL0     H12606  -0.229   1.672   0.706 -0.5222 -0.3460  1.0166
  816MOL0     H12607  -0.062   1.620   0.680  0.2794  3.9063  0.9945
  816MOL0     H12608  -0.177   1.511   0.760 -1.7229  0.7245  0.8034
  817MOL0     O12609   9.445  10.720   1.232 -0.3043 -0.2064 -0.0694
  817MOL0     C12610   9.542  10.653   1.190  0.7113 -0.5433  0.2996
  817MOL0     O12611   9.546  10.596   1.071  0.6924 -0.1158 -0.0872
  817MOL0     C12612   9.468  10.647   0.967 -0.2951  0.1104 -1.1995
  817MOL0     C12613   9.448  10.551   0.867  0.3550  0.9033  0.7233
  817MOL0     C12614   9.360  10.589   0.756 -0.4707  0.6070 -1.0246
  817MOL0     C12615   9.338  10.719   0.730  0.9023 -0.7375  0.0744
  817MOL0     O12616   9.280  10.762   0.612  0.3427 -0.3755  0.5546
  817MOL0     C12617   9.310  10.699   0.486 -0.0462  0.0714 -0.0893
  817MOL0     C12618   9.291  10.801   0.374  0.0598  0.8571 -0.6919
  817MOL0     C12619   9.146  10.803   0.316  0.8276  0.2430 -0.5968
  817MOL0     C12620   9.129  10.897   0.194 -0.5312 -0.2380 -0.2326
  817MOL0     C12621   8.978  10.903   0.151  0.2631  0.5421  0.4453
  817MOL0     C12622   8.942  11.034   0.070  0.3526  0.3182 -0.8106
  817MOL0     C12623   8.959  11.019  -0.085 -0.0767 -0.0291  0.1488
  817MOL0     C12624   8.967  11.151  -0.151 -0.4829 -0.2006  0.3695
  817MOL0     N12625   9.018  11.137  -0.284 -0.5196 -1.0604 -0.4582
  817MOL0     C12626   8.963  11.078  -0.403 -0.3199  0.1507 -0.9906
  817MOL0     C12627   9.067  11.094  -0.492  0.0335 -0.8140 -0.2720
  817MOL0     C12628   9.057  11.063  -0.631 -0.5197 -0.0106 -0.1660
  817MOL0     C12629   8.960  11.154  -0.693 -0.1933  0.0408  0.5107
  817MOL0     C12630   8.920  11.102  -0.831 -0.4386 -0.3062 -0.2693
  817MOL0     C12631   8.796  11.166  -0.882  0.5079  0.0733  0.5671
  817MOL0     O12632   8.790  11.310  -0.892  0.5715  0.2710  0.1114
  817MOL0     C12633   8.675  11.379  -0.938 -0.5710  0.2442 -1.3402
  817MOL0     C12634   8.679  11.515  -0.942  0.2303 -0.1720  1.0678
  817MOL0     C12635   8.569  11.588  -0.993  0.0973  0.2681 -0.2527
  817MOL0     C12636   8.561  11.737  -0.970 -0.6053 -0.4192 -0.4109
  817MOL0     C12637   8.462  11.518  -1.058 -0.5470  0.5748 -1.0473
  817MOL0     C12638   8.340  11.577  -1.122  0.6388  0.5262  0.1580
  817MOL0     O12639   8.288  11.516  -1.235 -0.6567  0.0626  0.4046
  817MOL0     C12640   8.200  11.593  -1.310 -0.1511  0.1091  0.0994
  817MOL0     C12641   8.089  11.528  -1.369  0.3197  0.2858 -0.9830
  817MOL0     C12642   7.995  11.600  -1.443 -0.1602  0.1642 -0.1122
  817MOL0     C12643   8.004  11.736  -1.459  0.5157 -0.2618 -0.6362
  817MOL0     O12644   7.903  11.782  -1.540  0.3620 -0.0641  0.8774
  817MOL0     C12645   7.891  11.924  -1.533 -0.3071 -0.3658  0.5223
  817MOL0     C12646   7.763  11.979  -1.609 -1.6017  0.2521  0.1418
  817MOL0     C12647   7.630  11.944  -1.534  0.3583 -0.0056 -1.2060
  817MOL0     C12648   7.526  12.050  -1.575  0.5738  0.2201  0.1800
  817MOL0     C12649   7.390  12.012  -1.507 -0.6263  0.2602 -0.3635
  817MOL0     C12650   7.289  12.114  -1.545 -1.0952 -0.9523  0.5925
  817MOL0     C12651   7.150  12.082  -1.505  0.0139  0.7874 -0.3707
  817MOL0     C12652   7.074  12.217  -1.494 -0.4705 -0.8172  0.4159
  817MOL0    Cl12653   6.928  12.178  -1.413 -0.3054 -0.1567  0.6476
  817MOL0     C12654   8.110  11.805  -1.399 -0.4630  0.1012 -1.3471
  817MOL0     C12655   8.217  11.729  -1.329  0.0502 -0.7812  0.0120
  817MOL0     O12656   8.295  11.669  -1.056  0.6414  0.2341 -0.4169
  817MOL0     C12657   8.472  11.379  -1.061  0.5733 -0.0143 -0.7849
  817MOL0     C12658   8.569  11.311  -0.997  0.3475 -0.4794 -0.4315
  817MOL0     N12659   9.169  11.174  -0.438  0.2428 -0.3163 -0.2962
  817MOL0     N12660   9.138  11.195  -0.320 -0.1938 -0.8682 -0.4298
  817MOL0     C12661   9.346  10.803   0.838 -0.7516 -0.2355  0.2761
  817MOL0     C12662   9.406  10.770   0.953 -0.7688 -0.7833  0.2498
  817MOL0     C12663   9.657  10.635   1.276 -0.4061 -0.4294  0.3370
  817MOL0     C12664   9.771  10.568   1.228  0.0121  0.6562 -0.7908
  817MOL0     C12665   9.872  10.536   1.314  1.3253  0.2840  0.3924
  817MOL0     C12666   9.871  10.585   1.441 -0.3622 -0.1728 -0.2326
  817MOL0     O12667   9.965  10.540   1.524 -0.6864 -0.4746 -0.1813
  817MOL0     C12668   9.975  10.567   1.666  0.3440  0.7118  1.3512
  817MOL0     C12669   9.897  10.467   1.737 -0.3821  0.1809 -0.0663
  817MOL0     C12670   9.866  10.498   1.883 -0.2133 -0.4222 -0.5731
  817MOL0     C12671   9.730  10.429   1.921 -0.6692 -0.3955 -0.2401
  817MOL0     C12672   9.718  10.444   2.067 -0.1138  0.4044 -0.2541
  817MOL0     C12673   9.720  10.450   2.186 -0.6740 -0.6669  0.5550
  817MOL0     C12674   9.777  10.669   1.485  0.8768  0.0236  0.8395
  817MOL0     C12675   9.668  10.696   1.406  0.2130 -0.4120  0.1108
  817MOL0     C12676   9.568  10.798   1.466 -0.7872 -0.0293 -0.1356
  817MOL0     H12677   9.508  10.461   0.859  0.6356  1.0322  1.2671
  817MOL0     H12678   9.330  10.521   0.677 -3.0822  2.7823 -2.0630
  817MOL0     H12679   9.252  10.609   0.460  0.4688 -0.3838  0.3056
  817MOL0     H12680   9.417  10.678   0.481 -0.4836 -2.5501  0.0969
  817MOL0     H12681   9.305  10.899   0.420 -5.0165  0.2487  3.1105
  817MOL0     H12682   9.374  10.789   0.305  2.7516  1.1569  2.2357
  817MOL0     H12683   9.110  10.707   0.279 -0.6312  0.4861  0.1437
  817MOL0     H12684   9.080  10.848   0.391 -1.8475 -1.6425 -1.6685
  817MOL0     H12685   9.144  11.003   0.217  1.5747  0.0165 -2.4010
  817MOL0     H12686   9.194  10.871   0.111  0.5298  1.0537  0.1690
  817MOL0     H12687   8.910  10.896   0.237  0.5894  2.7126  0.9507
  817MOL0     H12688   8.957  10.818   0.086  1.7241 -0.2541  0.9651
  817MOL0     H12689   8.837  11.064   0.078  0.7743  1.9610 -0.9482
  817MOL0     H12690   9.004  11.121   0.095 -0.5359  2.0033 -3.9438
  817MOL0     H12691   8.872  10.959  -0.113 -0.3007 -0.3814  1.4892
  817MOL0     H12692   9.045  10.956  -0.112  0.4126  0.7232 -0.0735
  817MOL0     H12693   8.861  11.173  -0.167 -0.2207  0.0682 -1.2083
  817MOL0     H12694   9.026  11.224  -0.095 -0.1485  2.1978 -2.8114
  817MOL0     H12695   8.860  11.046  -0.417 -1.9256  1.5491  4.8077
  817MOL0     H12696   9.037  10.961  -0.662  0.6653  0.1381 -1.5332
  817MOL0     H12697   9.155  11.077  -0.678 -0.8105 -1.6728 -1.3498
  817MOL0     H12698   8.873  11.164  -0.628 -2.3069  1.7017 -2.3500
  817MOL0     H12699   9.011  11.250  -0.704  1.1300 -0.4525  1.9113
  817MOL0     H12700   8.998  11.103  -0.907  0.9811 -1.3938  1.1108
  817MOL0     H12701   8.886  11.000  -0.810 -1.5495  0.5756  2.7458
  817MOL0     H12702   8.771  11.124  -0.980  0.2899 -1.4149  1.2338
  817MOL0     H12703   8.713  11.136  -0.819 -1.2349  5.4090  1.2726
  817MOL0     H12704   8.760  11.572  -0.900  0.8502 -1.8802  2.2780
  817MOL0     H12705   8.486  11.766  -0.895  1.6107 -2.1107  2.7010
  817MOL0     H12706   8.558  11.801  -1.058 -0.6349  1.3289  0.8173
  817MOL0     H12707   8.655  11.772  -0.926  0.5630  0.9975 -3.7103
  817MOL0     H12708   8.079  11.421  -1.355  0.2370  0.2285 -1.4660
  817MOL0     H12709   7.908  11.558  -1.493 -0.2372  0.3021 -0.0956
  817MOL0     H12710   7.886  11.952  -1.428 -0.7652 -2.1448  1.0020
  817MOL0     H12711   7.980  11.965  -1.583 -0.7284  0.1409  0.1791
  817MOL0     H12712   7.786  12.085  -1.613 -1.6683  0.2767  0.3934
  817MOL0     H12713   7.757  11.945  -1.713 -0.4170 -0.4304  0.2758
  817MOL0     H12714   7.663  11.945  -1.430 -1.1488  1.3157 -0.7105
  817MOL0     H12715   7.593  11.843  -1.556 -0.9283  0.7390 -2.6848
  817MOL0     H12716   7.509  12.037  -1.682 -0.9115 -2.3420  0.6599
  817MOL0     H12717   7.554  12.152  -1.547 -2.1659  2.8283 -5.1452
  817MOL0     H12718   7.355  11.911  -1.532 -1.4773 -0.0293  1.7400
  817MOL0     H12719   7.399  12.013  -1.398  0.6382 -1.3164 -0.4161
  817MOL0     H12720   7.292  12.113  -1.654  2.3095 -1.0960  0.5914
  817MOL0     H12721   7.310  12.215  -1.510  1.5234 -1.0921 -0.3528
  817MOL0     H12722   7.159  12.039  -1.404 -2.7425  5.8956  2.4282
  817MOL0     H12723   7.108  12.023  -1.587  0.7292  1.2932 -1.1177
  817MOL0     H12724   7.053  12.260  -1.592 -1.5008 -0.6665  0.6974
  817MOL0     H12725   7.126  12.291  -1.431 -2.0674 -0.3191  1.2168
  817MOL0     H12726   8.120  11.912  -1.417 -0.3943  0.4417  0.5356
  817MOL0     H12727   8.313  11.766  -1.295 -1.0966 -0.2650  3.0096
  817MOL0     H12728   8.388  11.324  -1.104  1.3710 -1.8942 -0.0104
  817MOL0     H12729   8.564  11.202  -0.996 -0.2539 -0.4662 -1.0675
  817MOL0     H12730   9.303  10.902   0.830 -2.0486 -0.6874  1.3232
  817MOL0     H12731   9.408  10.846   1.030 -1.4246 -0.6332  0.1241
  817MOL0     H12732   9.779  10.545   1.122 -3.9509 -2.0406 -0.7311
  817MOL0     H12733   9.947  10.464   1.285  0.1869 -1.2791  1.1965
  817MOL0     H12734  10.080  10.544   1.685  0.5150  1.5002  1.4049
  817MOL0     H12735   9.959  10.673   1.690 -0.3837  1.4025 -1.6875
  817MOL0     H12736   9.952  10.372   1.733  2.0481  1.5047 -0.3144
  817MOL0     H12737   9.799  10.458   1.690 -1.0309  1.7281  0.9226
  817MOL0     H12738   9.946  10.455   1.944 -1.0586 -3.9325 -1.6853
  817MOL0     H12739   9.861  10.607   1.891 -0.2227 -0.3798 -1.1574
  817MOL0     H12740   9.740  10.323   1.897 -0.0506 -0.9509  2.1221
  817MOL0     H12741   9.658  10.488   1.865  1.3361  1.6971 -0.7730
  817MOL0     H12742   9.747  10.466   2.288  2.6446 -0.7062 -0.1952
  817MOL0     H12743   9.778  10.716   1.583  3.3700 -1.7591  1.7838
  817MOL0     H12744   9.559  10.888   1.403  0.4959 -0.3196 -0.7687
  817MOL0     H12745   9.477  10.737   1.465 -0.2812 -0.8504 -2.5040
  817MOL0     H12746   9.581  10.831   1.569 -1.1006  2.2189 -0.7571
  818MOL0     O12747   0.495   6.491  10.535  0.2592 -0.8651  0.4155
  818MOL0     C12748   0.555   6.577  10.469 -0.7289 -0.2741 -0.5830
  818MOL0     O12749   0.600   6.560  10.344  0.7575 -0.2873 -0.1392
  818MOL0     C12750   0.580   6.446  10.264  0.0705 -0.3839  0.5391
  818MOL0     C12751   0.573   6.466  10.125 -0.7927  0.3855 -0.1119
  818MOL0     C12752   0.547   6.357  10.036  0.0740 -0.2007  0.0649
  818MOL0     C12753   0.540   6.230  10.096  0.9220  0.4063  0.3563
  818MOL0     O12754   0.518   6.122  10.010  0.1690 -0.0858 -0.9099
  818MOL0     C12755   0.404   6.134   9.922 -0.0032  0.8508 -0.6440
  818MOL0     C12756   0.449   6.128   9.780 -0.7374 -0.2692  0.2404
  818MOL0     C12757   0.344   6.192   9.693  0.6322 -0.3321 -0.1851
  818MOL0     C12758   0.253   6.077   9.625  0.3932 -0.5407 -0.4658
  818MOL0     C12759   0.121   6.135   9.571 -0.1303 -0.2480  0.6817
  818MOL0     C12760   0.044   6.010   9.519  0.3391  0.6063 -0.1586
  818MOL0     C12761  -0.100   6.054   9.479 -0.5807  0.4751 -0.0743
  818MOL0     C12762  -0.160   5.968   9.363  0.2064 -0.5059 -0.0744
  818MOL0     N12763  -0.174   5.825   9.390 -0.1448  0.1099  0.0500
  818MOL0     C12764  -0.204   5.757   9.502  0.6884  0.6774 -0.1935
  818MOL0     C12765  -0.207   5.626   9.463 -0.0586  0.1608 -0.5346
  818MOL0     C12766  -0.227   5.517   9.568 -0.8612 -0.6060 -0.7378
  818MOL0     C12767  -0.366   5.517   9.621 -0.3833  0.7439  0.1975
  818MOL0     C12768  -0.400   5.442   9.750 -0.4476  0.7766 -1.3008
  818MOL0     C12769  -0.340   5.298   9.751 -0.3884  0.3025  0.3185
  818MOL0     O12770  -0.404   5.224   9.643 -1.0038 -0.5185  0.0448
  818MOL0     C12771  -0.353   5.098   9.608 -0.1744  0.0413  0.4301
  818MOL0     C12772  -0.244   5.032   9.670  0.5970 -0.6701  0.5866
  818MOL0     C12773  -0.207   4.892   9.645 -1.0028 -0.6594 -1.1821
  818MOL0     C12774  -0.081   4.841   9.714 -0.2207 -0.4523 -0.8841
  818MOL0     C12775  -0.288   4.818   9.564  0.4590  0.7471 -0.4566
  818MOL0     C12776  -0.270   4.670   9.534 -1.0550 -0.7920 -0.9072
  818MOL0     O12777  -0.323   4.616   9.423 -0.5914 -0.2526  0.2533
  818MOL0     C12778  -0.312   4.477   9.400 -1.1793 -0.8761 -0.1485
  818MOL0     C12779  -0.406   4.380   9.443 -0.3899 -0.3081  0.9573
  818MOL0     C12780  -0.384   4.241   9.404  0.6328 -0.6774  0.4696
  818MOL0     C12781  -0.281   4.194   9.320  0.3380  0.1851  0.2962
  818MOL0     O12782  -0.254   4.066   9.290 -0.2738  0.1075  0.4478
  818MOL0     C12783  -0.306   3.957   9.369 -0.0844  0.0370 -0.2133
  818MOL0     C12784  -0.275   3.809   9.326 -0.5278 -0.8739 -0.0619
  818MOL0     C12785  -0.130   3.759   9.308 -0.4368  0.3163 -0.7502
  818MOL0     C12786  -0.076   3.752   9.449 -0.0341  0.8961 -0.1759
  818MOL0     C12787   0.059   3.670   9.460 -0.6923 -0.2145 -0.2297
  818MOL0     C12788   0.182   3.732   9.381  0.3853 -0.3383  0.0648
  818MOL0     C12789   0.311   3.639   9.372  0.2723  0.0639 -0.6987
  818MOL0     C12790   0.386   3.646   9.239 -0.1730 -0.8235  0.4157
  818MOL0    Cl12791   0.431   3.815   9.201 -0.2154 -0.2435 -0.0637
  818MOL0     C12792  -0.199   4.297   9.276  0.4258 -0.6005 -0.2512
  818MOL0     C12793  -0.206   4.430   9.320  0.5889 -0.0394  0.1900
  818MOL0     O12794  -0.208   4.603   9.620 -0.8158 -0.5961 -0.5757
  818MOL0     C12795  -0.393   4.885   9.493 -0.7607  0.3014  0.3199
  818MOL0     C12796  -0.420   5.024   9.512 -0.2196 -0.1081  0.3248
  818MOL0     N12797  -0.177   5.615   9.332  0.1697  0.4578  0.3427
  818MOL0     N12798  -0.159   5.735   9.287 -0.0983 -0.6205  0.3085
  818MOL0     C12799   0.575   6.207  10.226  1.1113  0.6952  0.4276
  818MOL0     C12800   0.590   6.316  10.309  0.1957  0.2684 -0.6230
  818MOL0     C12801   0.582   6.708  10.530 -0.3194  0.0717  0.3000
  818MOL0     C12802   0.622   6.812  10.445 -1.6307  0.6645 -0.3970
  818MOL0     C12803   0.663   6.929  10.498  0.2180  0.0345 -0.5179
  818MOL0     C12804   0.667   6.959  10.640 -0.4156  0.1122 -1.1858
  818MOL0     O12805   0.721   7.082  10.693  0.7371 -0.1765 -0.2052
  818MOL0     C12806   0.657   7.118  10.813 -1.2762  0.6559 -0.4704
  818MOL0     C12807   0.693   7.263  10.836 -0.6947  0.2387  0.6096
  818MOL0     C12808   0.621   7.334  10.716 -0.2787 -1.1929  0.4608
  818MOL0     C12809   0.576   7.478  10.740  0.1034  0.2104 -0.0388
  818MOL0     C12810   0.684   7.538  10.809 -0.8794  0.1869 -0.2760
  818MOL0     C12811   0.774   7.599  10.862 -0.1119  0.5428  0.1232
  818MOL0     C12812   0.626   6.858  10.722  0.2343  0.1642  0.1955
  818MOL0     C12813   0.580   6.730  10.673 -0.4322 -0.2250 -0.8569
  818MOL0     C12814   0.537   6.631  10.772 -0.9165 -0.1449 -1.4458
  818MOL0     H12815   0.591   6.566  10.087  0.7600 -0.0847 -0.6837
  818MOL0     H12816   0.526   6.370   9.930  1.4701 -0.0895 -0.2096
  818MOL0     H12817   0.349   6.226   9.945 -1.2604 -0.7430  3.6869
  818MOL0     H12818   0.337   6.050   9.940 -1.4019  1.7448 -1.5170
  818MOL0     H12819   0.542   6.176   9.752 -1.6657  1.3351 -0.1998
  818MOL0     H12820   0.451   6.023   9.748  0.0516 -0.0668 -0.4136
  818MOL0     H12821   0.262   6.238   9.749 -0.1591  0.4864 -1.9516
  818MOL0     H12822   0.389   6.267   9.628  1.3816 -0.1724  0.4996
  818MOL0     H12823   0.309   6.020   9.550 -0.6495  0.2675 -1.9299
  818MOL0     H12824   0.221   6.005   9.700  1.4952  2.4358  3.1598
  818MOL0     H12825   0.145   6.202   9.489 -1.8213  1.2234  1.3277
  818MOL0     H12826   0.053   6.176   9.647 -1.2747 -2.1613  0.7541
  818MOL0     H12827   0.088   5.974   9.426 -2.3816  1.5601 -1.9540
  818MOL0     H12828   0.043   5.928   9.591  0.6420  1.1136  0.4331
  818MOL0     H12829  -0.108   6.157   9.443 -1.5586  1.0305  1.6205
  818MOL0     H12830  -0.169   6.057   9.564 -1.0498 -1.2736 -0.3571
  818MOL0     H12831  -0.257   6.011   9.338  0.1763  1.3962  2.7947
  818MOL0     H12832  -0.089   5.990   9.282  1.7148  0.8244  1.5078
  818MOL0     H12833  -0.225   5.801   9.599  4.0055 -0.2053  1.0305
  818MOL0     H12834  -0.149   5.525   9.644  0.1527  0.4179 -1.8487
  818MOL0     H12835  -0.200   5.421   9.524 -0.6811 -1.9255  2.0300
  818MOL0     H12836  -0.383   5.622   9.644  3.4251  1.4948  0.2315
  818MOL0     H12837  -0.433   5.485   9.541  1.9622  1.3092 -2.1209
  818MOL0     H12838  -0.364   5.493   9.840 -2.5727 -0.4780  0.3770
  818MOL0     H12839  -0.508   5.446   9.766 -0.3805  1.4759 -0.9851
  818MOL0     H12840  -0.232   5.300   9.733 -0.3726 -1.4572  0.0505
  818MOL0     H12841  -0.345   5.246   9.847  3.2448  1.6958  1.3927
  818MOL0     H12842  -0.195   5.086   9.751  0.2158 -0.8776  0.9572
  818MOL0     H12843  -0.021   4.769   9.657  0.2712 -0.5801 -0.2236
  818MOL0     H12844  -0.119   4.779   9.796  1.9178 -0.7808 -0.0783
  818MOL0     H12845  -0.029   4.924   9.763 -2.4401  0.0650  0.7555
  818MOL0     H12846  -0.489   4.419   9.502  0.2319  0.7901  1.1197
  818MOL0     H12847  -0.455   4.172   9.449 -1.1077  0.7038 -0.0826
  818MOL0     H12848  -0.263   3.961   9.469  1.4807 -2.0847 -0.7151
  818MOL0     H12849  -0.414   3.970   9.383  0.2096  3.4641 -0.4379
  818MOL0     H12850  -0.315   3.742   9.403  0.9330 -0.4808  1.0889
  818MOL0     H12851  -0.329   3.791   9.233 -4.5222  0.3781  1.8153
  818MOL0     H12852  -0.082   3.828   9.237  0.3832 -3.3761 -4.1127
  818MOL0     H12853  -0.133   3.657   9.271 -2.2758 -0.4721  1.3521
  818MOL0     H12854  -0.149   3.718   9.524  2.0455  1.6332  2.3539
  818MOL0     H12855  -0.052   3.853   9.484  1.6063  0.4785 -0.0520
  818MOL0     H12856   0.092   3.661   9.564 -3.2168 -0.3098  0.6310
  818MOL0     H12857   0.050   3.568   9.421  1.1439 -1.5555  2.4879
  818MOL0     H12858   0.211   3.824   9.432  0.0303  0.3490 -0.9485
  818MOL0     H12859   0.155   3.753   9.277 -3.8758  0.1680  1.0906
  818MOL0     H12860   0.283   3.534   9.391  2.3383 -0.2229  1.3100
  818MOL0     H12861   0.384   3.660   9.450  0.4921  1.2284 -1.2085
  818MOL0     H12862   0.321   3.612   9.158  2.2850  0.0777 -2.0835
  818MOL0     H12863   0.473   3.580   9.242 -1.0252 -1.9831  2.2103
  818MOL0     H12864  -0.112   4.262   9.221  1.8165  0.5643  1.1303
  818MOL0     H12865  -0.130   4.500   9.286  2.8675  0.2675  5.1772
  818MOL0     H12866  -0.457   4.825   9.428 -0.5896 -0.5892  0.9609
  818MOL0     H12867  -0.500   5.077   9.461 -1.5157 -3.3573 -1.2908
  818MOL0     H12868   0.584   6.104  10.259  1.4290  0.2494 -0.9839
  818MOL0     H12869   0.613   6.299  10.414  1.9718 -0.5184 -1.0995
  818MOL0     H12870   0.620   6.785  10.339 -0.7938 -0.3441 -0.1700
  818MOL0     H12871   0.691   6.998  10.419 -1.1628  0.6684 -0.4828
  818MOL0     H12872   0.550   7.099  10.806 -0.5598 -4.4628 -1.4728
  818MOL0     H12873   0.692   7.064  10.902  2.4821  1.4129 -1.2836
  818MOL0     H12874   0.800   7.270  10.813 -1.4554  0.1843 -3.7826
  818MOL0     H12875   0.665   7.314  10.929  1.5270  2.5076  0.1458
  818MOL0     H12876   0.675   7.340  10.621 -2.9066  0.5329 -1.0616
  818MOL0     H12877   0.532   7.280  10.682 -0.1381 -0.9872 -0.2482
  818MOL0     H12878   0.503   7.473  10.821  1.4411 -5.2821  1.2508
  818MOL0     H12879   0.537   7.542  10.660  1.0715  1.4779  0.4686
  818MOL0     H12880   0.851   7.651  10.917 -0.7160  1.7577 -0.1440
  818MOL0     H12881   0.635   6.852  10.830 -0.4453 -2.4175  0.1847
  818MOL0     H12882   0.613   6.554  10.786 -2.4468 -1.9331 -2.5063
  818MOL0     H12883   0.525   6.676  10.871 -1.1921  1.4443 -2.1751
  818MOL0     H12884   0.442   6.579  10.758 -2.2540  1.4563  0.8974
  819MOL0     O12885   7.904   1.839   7.945  0.2293  0.4239  0.7477
  819MOL0     C12886   8.003   1.901   7.909 -0.4274  0.2370  0.5387
  819MOL0     O12887   8.096   1.845   7.827  0.4163 -0.5135 -1.0498
  819MOL0     C12888   8.068   1.741   7.742 -1.1475  0.7596 -0.5692
  819MOL0     C12889   7.935   1.719   7.694  0.0948  0.1086 -0.8152
  819MOL0     C12890   7.916   1.619   7.599  0.1756 -0.0102 -0.5508
  819MOL0     C12891   8.018   1.530   7.559  0.8730  0.0808  0.0572
  819MOL0     O12892   8.015   1.427   7.464  0.2097 -0.1088 -0.6123
  819MOL0     C12893   7.894   1.409   7.390  0.1184  0.3948  0.1029
  819MOL0     C12894   7.888   1.507   7.267  0.3706  0.3898  0.8227
  819MOL0     C12895   7.759   1.479   7.177  0.5591  0.3271  0.0068
  819MOL0     C12896   7.797   1.500   7.028 -0.1551  1.1314 -0.1217
  819MOL0     C12897   7.677   1.524   6.942  0.3488  0.1060  0.0597
  819MOL0     C12898   7.719   1.538   6.798 -0.3880  0.7676  0.7738
  819MOL0     C12899   7.764   1.413   6.726  0.2074  0.4988  1.0334
  819MOL0     C12900   7.653   1.307   6.731  0.2899  1.0453  0.9802
  819MOL0     N12901   7.643   1.214   6.604 -0.3716 -1.7181  0.2623
  819MOL0     C12902   7.756   1.147   6.565 -0.1429 -0.3197 -0.3992
  819MOL0     C12903   7.704   1.051   6.483 -0.1249 -0.2399 -0.4034
  819MOL0     C12904   7.787   0.946   6.412 -0.0797 -1.2824  0.6843
  819MOL0     C12905   7.832   1.002   6.276 -0.1639 -0.0967  0.1435
  819MOL0     C12906   7.719   0.987   6.171 -0.1333  1.0651  0.3534
  819MOL0     C12907   7.756   1.052   6.039  0.8465 -0.2859 -0.3103
  819MOL0     O12908   7.645   1.055   5.957  0.0232  0.7409 -0.7079
  819MOL0     C12909   7.540   1.149   5.967 -0.1067  0.4105  0.1944
  819MOL0     C12910   7.421   1.119   5.889 -0.0840 -0.4824  0.1396
  819MOL0     C12911   7.306   1.203   5.903 -0.3784 -0.5432 -0.8089
  819MOL0     C12912   7.185   1.150   5.838 -0.4534 -1.2506  0.0033
  819MOL0     C12913   7.319   1.316   5.983 -0.1790 -0.3863 -0.6034
  819MOL0     C12914   7.208   1.409   6.011  0.6610 -0.3111 -0.4842
  819MOL0     O12915   7.201   1.457   6.131  0.4473 -0.2626  0.1060
  819MOL0     C12916   7.094   1.541   6.152  0.4853 -0.9946 -0.7261
  819MOL0     C12917   7.114   1.676   6.129  0.8067 -0.2098 -0.5820
  819MOL0     C12918   7.011   1.770   6.154  0.0449 -0.7337  0.3113
  819MOL0     C12919   6.888   1.729   6.209  0.0089 -0.7944  0.7455
  819MOL0     O12920   6.801   1.828   6.208 -0.4087 -0.1609 -0.6868
  819MOL0     C12921   6.671   1.793   6.175  0.3822  0.2981  0.0975
  819MOL0     C12922   6.572   1.905   6.161  0.3939 -0.6295  0.1489
  819MOL0     C12923   6.607   2.003   6.051  0.3847  1.4461 -0.2704
  819MOL0     C12924   6.481   2.098   6.034 -0.0028  0.4279 -0.5629
  819MOL0     C12925   6.513   2.214   5.943  1.3474 -0.1482 -0.1353
  819MOL0     C12926   6.497   2.171   5.794  0.2138  0.4366  0.0962
  819MOL0     C12927   6.486   2.291   5.695  0.2764 -0.9520 -0.0703
  819MOL0     C12928   6.527   2.255   5.551 -0.0525  0.0214 -0.0683
  819MOL0    Cl12929   6.418   2.130   5.471  0.0436  0.2539  0.0083
  819MOL0     C12930   6.872   1.595   6.238  1.4275 -0.3553  0.2362
  819MOL0     C12931   6.970   1.499   6.207 -0.1734  0.2998  0.1885
  819MOL0     O12932   7.151   1.449   5.916 -0.0960 -1.1096  0.1876
  819MOL0     C12933   7.442   1.345   6.056  0.0847  0.0835 -0.5040
  819MOL0     C12934   7.548   1.264   6.045  0.6240 -0.8416 -1.1644
  819MOL0     N12935   7.564   1.053   6.496  0.1469 -0.3730  0.0312
  819MOL0     N12936   7.534   1.150   6.569  0.8067  0.0780  0.3740
  819MOL0     C12937   8.151   1.558   7.603  0.6804  0.2907  0.3791
  819MOL0     C12938   8.178   1.662   7.695  0.2039  0.1176  0.2729
  819MOL0     C12939   8.022   2.047   7.960  0.0850 -0.9709  0.4076
  819MOL0     C12940   8.152   2.100   7.928  0.8376 -0.0329  0.1310
  819MOL0     C12941   8.198   2.221   7.971 -0.6458 -1.0914 -0.4243
  819MOL0     C12942   8.114   2.305   8.054  0.0080  0.1611  0.2266
  819MOL0     O12943   8.165   2.423   8.098 -0.1776 -0.3249  0.0047
  819MOL0     C12944   8.115   2.555   8.057 -0.0943 -0.3499 -0.7889
  819MOL0     C12945   7.966   2.597   8.104  0.3496 -0.0552 -0.4250
  819MOL0     C12946   7.994   2.682   8.237  0.2413 -0.7228  0.6393
  819MOL0     C12947   7.861   2.759   8.263 -0.9745  0.4054  0.0693
  819MOL0     C12948   7.885   2.878   8.339  0.7457  0.3866 -0.1680
  819MOL0     C12949   7.883   2.961   8.426 -0.2739 -1.3154 -0.1070
  819MOL0     C12950   7.990   2.246   8.095  0.1988  0.0286 -0.0167
  819MOL0     C12951   7.935   2.124   8.040  0.0002 -0.3000  0.2981
  819MOL0     C12952   7.796   2.066   8.080  0.9000 -0.1286  0.2311
  819MOL0     H12953   7.852   1.786   7.717  1.5598  1.9292 -0.5647
  819MOL0     H12954   7.815   1.606   7.562 -0.4962 -1.6509  1.6395
  819MOL0     H12955   7.808   1.415   7.458  0.6740 -3.0743  1.3376
  819MOL0     H12956   7.890   1.304   7.359  0.4843  0.8583 -1.6388
  819MOL0     H12957   7.884   1.611   7.299  0.2058 -0.3659  3.4778
  819MOL0     H12958   7.983   1.490   7.214  0.0746  2.3591 -0.4373
  819MOL0     H12959   7.722   1.376   7.185 -0.5125  0.6821 -0.1831
  819MOL0     H12960   7.681   1.551   7.205  1.7716  1.4458  0.6056
  819MOL0     H12961   7.866   1.585   7.026  2.9857 -1.2256 -2.6556
  819MOL0     H12962   7.853   1.412   6.996 -0.1855  1.6371 -1.6633
  819MOL0     H12963   7.622   1.612   6.975  0.8956  0.8866 -1.0692
  819MOL0     H12964   7.614   1.436   6.959  1.7726 -1.4524 -2.1800
  819MOL0     H12965   7.635   1.573   6.737 -0.0791 -3.2713 -2.3960
  819MOL0     H12966   7.805   1.605   6.796  0.6656 -0.5076 -1.6058
  819MOL0     H12967   7.856   1.380   6.777  2.0770  5.7725  1.7334
  819MOL0     H12968   7.786   1.445   6.624 -1.3356 -1.7956 -0.0996
  819MOL0     H12969   7.668   1.247   6.821 -1.6298  1.1929  1.4537
  819MOL0     H12970   7.553   1.347   6.752 -0.8050 -0.9660 -0.0951
  819MOL0     H12971   7.858   1.179   6.587 -0.5335  0.1808  0.8018
  819MOL0     H12972   7.723   0.858   6.400 -1.3576 -0.6975  2.5929
  819MOL0     H12973   7.878   0.927   6.468  0.4776  3.4101  1.7850
  819MOL0     H12974   7.871   1.104   6.272  1.1836 -0.5832  0.5372
  819MOL0     H12975   7.915   0.941   6.239  0.6377  0.7903  0.4546
  819MOL0     H12976   7.702   0.880   6.156 -2.2128  1.3010  0.6893
  819MOL0     H12977   7.627   1.027   6.214  0.4142  1.3010  1.3339
  819MOL0     H12978   7.791   1.154   6.055 -3.3084  1.1444  0.9348
  819MOL0     H12979   7.839   0.995   5.996  0.2966  0.1721 -2.0564
  819MOL0     H12980   7.435   1.028   5.831  1.7235 -0.7108  0.8880
  819MOL0     H12981   7.148   1.236   5.780 -0.2864 -1.1051  0.1128
  819MOL0     H12982   7.121   1.105   5.914  3.2910 -5.3349  1.1308
  819MOL0     H12983   7.209   1.065   5.773  1.7160 -3.0566  2.9360
  819MOL0     H12984   7.212   1.710   6.096 -0.5239  3.1376 -1.5257
  819MOL0     H12985   7.035   1.876   6.153  1.9347 -1.0964  1.6452
  819MOL0     H12986   6.673   1.744   6.077  2.9264 -0.2630  0.3654
  819MOL0     H12987   6.630   1.741   6.262  0.1627  5.6847  3.6912
  819MOL0     H12988   6.468   1.870   6.156  0.4864 -0.8939  0.0751
  819MOL0     H12989   6.578   1.974   6.246  0.6286  0.1380 -0.4815
  819MOL0     H12990   6.614   1.938   5.963 -2.7353 -2.1342  1.7846
  819MOL0     H12991   6.690   2.060   6.093  0.0431  0.8984  1.2406
  819MOL0     H12992   6.456   2.135   6.134 -2.4237  0.3100 -1.0713
  819MOL0     H12993   6.398   2.038   5.997  1.2330 -1.1599 -0.8568
  819MOL0     H12994   6.440   2.293   5.956  1.5667  0.4243 -2.0827
  819MOL0     H12995   6.616   2.246   5.960  0.4144  1.5068  3.3456
  819MOL0     H12996   6.409   2.110   5.775  1.1900 -0.8858 -0.2878
  819MOL0     H12997   6.583   2.113   5.760  2.2659  1.1899  3.4762
  819MOL0     H12998   6.539   2.381   5.725 -2.2120  1.3284 -2.0527
  819MOL0     H12999   6.379   2.314   5.689  0.3401 -0.1908  1.3773
  819MOL0     H13000   6.629   2.215   5.554  0.2856  0.9101  0.9361
  819MOL0     H13001   6.532   2.345   5.490 -0.2854  0.1796  0.1462
  819MOL0     H13002   6.772   1.575   6.273  0.5840  1.5195 -0.9051
  819MOL0     H13003   6.966   1.392   6.224  0.2964  0.0507 -1.1407
  819MOL0     H13004   7.464   1.432   6.117  2.2246 -0.5919 -0.2398
  819MOL0     H13005   7.639   1.297   6.095 -1.2973  0.9988  1.3918
  819MOL0     H13006   8.226   1.491   7.561 -0.2030 -0.7836  0.4952
  819MOL0     H13007   8.278   1.676   7.737  0.5470  0.8266 -0.7489
  819MOL0     H13008   8.223   2.041   7.871  0.1839 -0.5814 -0.1354
  819MOL0     H13009   8.296   2.262   7.950 -1.8617  2.0625 -0.4514
  819MOL0     H13010   8.188   2.628   8.093  0.4424  0.8122 -3.9552
  819MOL0     H13011   8.111   2.548   7.948 -1.6842  0.7249 -0.8238
  819MOL0     H13012   7.905   2.515   8.145 -1.3052  1.5095  0.4101
  819MOL0     H13013   7.920   2.659   8.026  1.5682  0.6467 -0.6164
  819MOL0     H13014   8.025   2.619   8.321  2.1623  2.8300  2.8365
  819MOL0     H13015   8.079   2.747   8.218  0.2018 -0.8886 -0.1504
  819MOL0     H13016   7.789   2.694   8.313 -0.8263 -0.5721 -0.9604
  819MOL0     H13017   7.822   2.802   8.170 -1.0241  1.5087  0.5757
  819MOL0     H13018   7.865   3.035   8.501 -2.8218 -0.5859 -1.3270
  819MOL0     H13019   7.933   2.299   8.171  1.0615  1.7505 -0.5014
  819MOL0     H13020   7.786   2.041   8.186 -0.1950  3.3205  1.0668
  819MOL0     H13021   7.725   2.149   8.068  0.3751 -0.4205  1.1963
  819MOL0     H13022   7.755   1.985   8.019  0.0244 -0.8369  1.7190
  820MOL0     O13023   2.076   3.498   4.299 -0.5534 -0.0040  0.3307
  820MOL0     C13024   2.126   3.580   4.377  0.3095 -0.3920  0.3750
  820MOL0     O13025   2.237   3.562   4.461 -0.6564 -0.3113  0.2516
  820MOL0     C13026   2.292   3.442   4.489 -0.2304  0.1003  0.1611
  820MOL0     C13027   2.210   3.331   4.509 -0.1745 -0.0926  0.2699
  820MOL0     C13028   2.262   3.210   4.550 -0.2976 -0.2554 -0.0977
  820MOL0     C13029   2.401   3.195   4.590  0.3832 -0.0419 -0.1646
  820MOL0     O13030   2.455   3.073   4.626  0.6880 -0.4277  0.3109
  820MOL0     C13031   2.402   2.955   4.562 -0.6838  0.0924  0.5037
  820MOL0     C13032   2.483   2.823   4.586 -1.0558 -0.5604 -0.3193
  820MOL0     C13033   2.421   2.697   4.527  0.3154  0.4362  0.2730
  820MOL0     C13034   2.525   2.586   4.510  0.0109  0.8084  0.6347
  820MOL0     C13035   2.615   2.601   4.395 -0.0897  0.4115  0.5179
  820MOL0     C13036   2.692   2.477   4.360  0.6022  1.0116  0.2602
  820MOL0     C13037   2.820   2.513   4.272 -0.2195  0.6050 -0.7434
  820MOL0     C13038   2.871   2.380   4.217 -0.0723  0.5226  0.2210
  820MOL0     N13039   2.942   2.310   4.327 -0.4566  0.0218  1.1106
  820MOL0     C13040   2.878   2.212   4.408  0.2607 -0.3391  0.6246
  820MOL0     C13041   2.963   2.196   4.506 -0.1151  0.5205  0.0171
  820MOL0     C13042   2.928   2.103   4.627 -0.6956 -0.3978  0.4909
  820MOL0     C13043   2.785   2.123   4.689  0.4013 -0.6600 -0.3728
  820MOL0     C13044   2.756   2.262   4.756 -0.7566 -0.2369  0.9011
  820MOL0     C13045   2.609   2.288   4.785 -0.0642 -0.4393  0.3924
  820MOL0     O13046   2.606   2.416   4.848 -0.1436 -0.0825 -0.4511
  820MOL0     C13047   2.479   2.460   4.874  0.8960 -0.9283 -0.0736
  820MOL0     C13048   2.367   2.399   4.832  0.3144  0.2301  0.6081
  820MOL0     C13049   2.247   2.476   4.820 -0.9959 -0.0029 -0.3474
  820MOL0     C13050   2.125   2.420   4.752 -0.2355  1.0391  0.0745
  820MOL0     C13051   2.241   2.610   4.872  0.5843  0.0505  0.3981
  820MOL0     C13052   2.112   2.687   4.880  0.5046  0.0920 -1.0882
  820MOL0     O13053   1.998   2.626   4.936 -0.4934  0.0963  0.6497
  820MOL0     C13054   1.890   2.705   4.961 -0.0048 -0.0997 -0.3686
  820MOL0     C13055   1.853   2.686   5.096 -0.6410 -0.3023 -0.8880
  820MOL0     C13056   1.739   2.752   5.137  0.2453 -0.1802 -0.2184
  820MOL0     C13057   1.673   2.843   5.048 -0.3489 -0.1576  0.0779
  820MOL0     O13058   1.558   2.909   5.086  0.0730  0.3189  0.1717
  820MOL0     C13059   1.539   2.929   5.228 -0.4832 -0.1122 -0.8029
  820MOL0     C13060   1.409   3.000   5.265 -0.7447 -0.0338  0.2733
  820MOL0     C13061   1.408   3.014   5.422  0.1887  0.2061 -0.1550
  820MOL0     C13062   1.317   3.138   5.459  0.5596 -0.8979 -0.2979
  820MOL0     C13063   1.338   3.168   5.603  0.3675  0.4398  0.5420
  820MOL0     C13064   1.272   3.061   5.691 -0.4780 -0.4227  1.2513
  820MOL0     C13065   1.312   3.074   5.838  0.7000  0.6237  0.3682
  820MOL0     C13066   1.314   2.940   5.923 -0.7957  0.3718  0.5000
  820MOL0    Cl13067   1.351   2.984   6.094 -0.3569  0.4573  0.3209
  820MOL0     C13068   1.711   2.852   4.920 -0.2239 -0.2400  0.1968
  820MOL0     C13069   1.817   2.777   4.869  0.1732 -0.5660 -0.7294
  820MOL0     O13070   2.115   2.799   4.844 -0.2765  0.2880  0.3374
  820MOL0     C13071   2.356   2.668   4.919 -0.5446  0.2295  0.9277
  820MOL0     C13072   2.471   2.595   4.928 -0.6336  0.4800 -1.4743
  820MOL0     N13073   3.073   2.276   4.494  0.3520 -0.0046  0.6415
  820MOL0     N13074   3.062   2.345   4.383 -0.0552  0.0530 -0.1589
  820MOL0     C13075   2.487   3.303   4.579 -0.3695  0.0520  0.7996
  820MOL0     C13076   2.432   3.421   4.523  0.7365 -0.2017  0.3540
  820MOL0     C13077   2.069   3.715   4.365  0.9030 -0.3658 -0.6342
  820MOL0     C13078   2.057   3.784   4.485 -0.4299 -0.1774  0.3587
  820MOL0     C13079   2.004   3.913   4.491  0.0003 -0.1461 -0.1227
  820MOL0     C13080   1.960   3.977   4.373  0.9452 -0.3227  1.0761
  820MOL0     O13081   1.917   4.107   4.390 -0.4070  0.1926 -0.7839
  820MOL0     C13082   1.876   4.178   4.274 -0.6401 -0.6044 -0.1421
  820MOL0     C13083   1.836   4.312   4.347 -0.0842 -0.0210  0.9380
  820MOL0     C13084   1.739   4.329   4.468  0.1503 -0.4827  1.3403
  820MOL0     C13085   1.602   4.271   4.450 -0.4459 -0.3926  0.1824
  820MOL0     C13086   1.548   4.287   4.318 -0.9717  0.7928 -0.0562
  820MOL0     C13087   1.519   4.301   4.209 -0.0602 -0.3674  1.1614
  820MOL0     C13088   1.970   3.906   4.248 -0.5880  0.0007 -0.0698
  820MOL0     C13089   2.030   3.773   4.247  0.0256 -0.1304 -0.2638
  820MOL0     C13090   2.052   3.709   4.109 -0.5488 -0.4184  0.5576
  820MOL0     H13091   2.103   3.350   4.501  0.0576  1.4220  0.3191
  820MOL0     H13092   2.195   3.126   4.566 -0.6339 -0.0067 -0.1916
  820MOL0     H13093   2.386   2.986   4.459 -0.9703  3.2640  1.4077
  820MOL0     H13094   2.307   2.945   4.615 -1.6322  1.1565 -0.9439
  820MOL0     H13095   2.579   2.840   4.537 -1.6967 -1.9584 -2.2207
  820MOL0     H13096   2.501   2.818   4.693 -1.4025  2.2373 -0.0643
  820MOL0     H13097   2.337   2.672   4.593  1.3806 -1.4994  0.9665
  820MOL0     H13098   2.371   2.717   4.432 -0.5971 -1.7558  0.2161
  820MOL0     H13099   2.576   2.564   4.604 -1.8511 -0.5673  1.3871
  820MOL0     H13100   2.469   2.497   4.479  3.3770 -2.3555  2.7354
  820MOL0     H13101   2.685   2.679   4.427  0.8967  0.6389 -2.0298
  820MOL0     H13102   2.557   2.628   4.306  3.5761  0.1233 -2.1499
  820MOL0     H13103   2.717   2.427   4.454  1.1522  0.8682  0.0391
  820MOL0     H13104   2.628   2.404   4.309  1.8002 -0.2431  0.4831
  820MOL0     H13105   2.902   2.547   4.336 -1.4304  2.3252 -0.0113
  820MOL0     H13106   2.808   2.578   4.184  0.7611 -0.3785 -1.6455
  820MOL0     H13107   2.784   2.326   4.178 -0.9644  1.0965  1.3531
  820MOL0     H13108   2.937   2.413   4.136  1.8884  0.1232  1.5706
  820MOL0     H13109   2.790   2.150   4.390  2.4812 -3.1954 -1.3101
  820MOL0     H13110   3.009   2.119   4.699 -0.4354  3.5150 -0.4372
  820MOL0     H13111   2.940   1.999   4.598 -2.7595 -0.7115  0.6124
  820MOL0     H13112   2.709   2.100   4.614  0.1808 -0.0367 -0.3493
  820MOL0     H13113   2.781   2.045   4.766 -0.0392 -1.0834 -0.8187
  820MOL0     H13114   2.812   2.270   4.849  0.2904 -1.0486  0.3474
  820MOL0     H13115   2.785   2.342   4.687  0.4580  0.2710  1.9691
  820MOL0     H13116   2.549   2.289   4.694 -2.8159 -0.9853  2.0916
  820MOL0     H13117   2.575   2.207   4.851  0.0513 -2.4125 -1.8138
  820MOL0     H13118   2.362   2.294   4.808 -0.6261  0.6129 -1.0644
  820MOL0     H13119   2.152   2.348   4.673 -2.4421 -0.3084  0.4735
  820MOL0     H13120   2.062   2.494   4.703 -0.3014  0.3027 -1.0001
  820MOL0     H13121   2.062   2.367   4.823  0.1971 -0.4895 -0.6352
  820MOL0     H13122   1.910   2.621   5.162 -0.3811 -0.8234 -1.6137
  820MOL0     H13123   1.709   2.738   5.240 -0.1139  0.5068 -0.2225
  820MOL0     H13124   1.532   2.835   5.283 -1.1098  1.2231  1.5838
  820MOL0     H13125   1.619   2.989   5.273 -0.0570 -0.4655 -1.0820
  820MOL0     H13126   1.415   3.099   5.219  1.3008 -0.5178 -0.6547
  820MOL0     H13127   1.318   2.956   5.225 -1.2486 -0.0914  1.4647
  820MOL0     H13128   1.509   3.021   5.465  0.7930 -2.7371 -0.8520
  820MOL0     H13129   1.346   2.929   5.451 -1.6957  1.9848  1.3343
  820MOL0     H13130   1.213   3.131   5.427  0.4491  2.7357 -1.1273
  820MOL0     H13131   1.350   3.229   5.408 -1.3588  0.1200  0.1733
  820MOL0     H13132   1.444   3.193   5.614  0.3900  0.0808  1.2516
  820MOL0     H13133   1.293   3.264   5.627 -2.8626  0.0504 -3.0120
  820MOL0     H13134   1.316   2.965   5.660  1.2776  1.4287 -2.6370
  820MOL0     H13135   1.166   3.060   5.666  0.0293 -2.1046 -1.1913
  820MOL0     H13136   1.240   3.139   5.889 -0.3111 -0.4785  0.3985
  820MOL0     H13137   1.413   3.114   5.846  0.0158  2.8933 -1.3656
  820MOL0     H13138   1.390   2.873   5.884  0.4191  2.9430 -1.9590
  820MOL0     H13139   1.218   2.887   5.917  0.5278 -2.0153 -1.0941
  820MOL0     H13140   1.644   2.903   4.852 -1.7787 -2.6883 -0.2297
  820MOL0     H13141   1.845   2.764   4.765 -1.4347 -0.1352 -1.2481
  820MOL0     H13142   2.351   2.771   4.951  0.4146  1.3352 -2.1216
  820MOL0     H13143   2.558   2.641   4.973 -2.4330  0.8954  1.8912
  820MOL0     H13144   2.594   3.300   4.596 -0.3010 -0.0399  0.3519
  820MOL0     H13145   2.492   3.511   4.515 -3.2067  2.5981 -0.6875
  820MOL0     H13146   2.081   3.745   4.583 -0.3419 -0.3894  0.2530
  820MOL0     H13147   1.984   3.962   4.585  3.3103 -3.1590  2.4506
  820MOL0     H13148   1.952   4.193   4.197 -0.6828 -1.4966 -0.3718
  820MOL0     H13149   1.785   4.145   4.223 -0.3080 -1.4255 -0.2156
  820MOL0     H13150   1.808   4.381   4.267  1.3096 -1.8917 -1.3206
  820MOL0     H13151   1.929   4.352   4.389  0.9709 -0.0764 -1.2247
  820MOL0     H13152   1.799   4.289   4.550  1.6051 -1.0299  0.0525
  820MOL0     H13153   1.735   4.436   4.489  1.1874 -0.0788 -0.3572
  820MOL0     H13154   1.530   4.302   4.526  0.0865 -0.9383  0.9409
  820MOL0     H13155   1.615   4.162   4.460  3.6717 -0.4832 -3.1519
  820MOL0     H13156   1.485   4.318   4.108 -0.8646 -2.9691  0.8965
  820MOL0     H13157   1.960   3.959   4.154 -0.9118 -2.2736 -1.4059
  820MOL0     H13158   2.048   3.780   4.026  2.3709  1.0721  1.5479
  820MOL0     H13159   2.140   3.647   4.091 -0.7380 -0.0921 -1.7535
  820MOL0     H13160   1.962   3.648   4.097 -1.4078  0.8727  0.1616
  821MOL0     O13161   0.976   9.456  11.303 -0.2941 -0.0613  0.3022
  821MOL0     C13162   0.903   9.511  11.383  0.1910 -0.1750 -0.1457
  821MOL0     O13163   0.914   9.510  11.521  0.2917  0.4769 -0.1709
  821MOL0     C13164   1.031   9.453  11.573  0.3909  0.4681 -0.4077
  821MOL0     C13165   1.020   9.343  11.663  0.9802 -0.3732 -0.1638
  821MOL0     C13166   1.132   9.283  11.725 -0.0610  0.0218  0.4157
  821MOL0     C13167   1.255   9.339  11.686 -1.6310 -0.4829 -0.1578
  821MOL0     O13168   1.374   9.281  11.750 -0.3873 -0.3969 -0.4766
  821MOL0     C13169   1.355   9.163  11.824 -1.1540  0.4013 -0.2095
  821MOL0     C13170   1.498   9.106  11.858  0.0401  0.6986  0.0581
  821MOL0     C13171   1.573   9.212  11.937  0.5433 -1.0699 -0.2952
  821MOL0     C13172   1.505   9.246  12.073  0.4076  0.3815  0.6757
  821MOL0     C13173   1.604   9.321  12.159 -0.5607 -0.8171  0.0532
  821MOL0     C13174   1.657   9.454  12.100 -0.1638  0.2609 -0.3516
  821MOL0     C13175   1.744   9.526  12.193  0.0659  0.2361 -0.3127
  821MOL0     C13176   1.795   9.654  12.130  0.9243  1.2300 -0.0681
  821MOL0     N13177   1.888   9.730  12.206 -0.1976 -0.1127 -0.9159
  821MOL0     C13178   1.858   9.817  12.304  0.9205  1.2249  0.8234
  821MOL0     C13179   1.965   9.890  12.337  0.0059 -0.1101 -0.8432
  821MOL0     C13180   1.982   9.995  12.445 -0.8026  0.4646 -0.1487
  821MOL0     C13181   2.078   9.960  12.557  0.0938  0.1893 -0.1130
  821MOL0     C13182   2.221   9.991  12.529  0.3408 -0.3681 -0.8362
  821MOL0     C13183   2.334   9.939  12.618 -0.1113 -0.3247  0.6916
  821MOL0     O13184   2.311   9.808  12.668  0.7596 -0.3337  0.0348
  821MOL0     C13185   2.247   9.783  12.783 -0.3063 -0.2302 -1.4723
  821MOL0     C13186   2.192   9.873  12.879  0.4238 -1.1158 -0.7836
  821MOL0     C13187   2.107   9.836  12.986 -0.7551  0.1382  0.2875
  821MOL0     C13188   2.037   9.943  13.055 -0.2794 -0.1047 -0.1705
  821MOL0     C13189   2.077   9.707  13.010  0.4565  1.1820 -0.0326
  821MOL0     C13190   1.992   9.654  13.125 -0.9801 -0.5150 -0.7274
  821MOL0     O13191   1.981   9.723  13.244  0.3587 -0.3244 -0.2360
  821MOL0     C13192   1.870   9.691  13.322 -0.0795 -0.7846  0.4788
  821MOL0     C13193   1.746   9.744  13.286 -0.2629  0.3326 -1.0870
  821MOL0     C13194   1.632   9.729  13.360  1.0660 -0.0863 -0.8095
  821MOL0     C13195   1.638   9.652  13.484  0.5923 -0.7821  1.6836
  821MOL0     O13196   1.538   9.592  13.552 -0.6861  0.4689  0.0844
  821MOL0     C13197   1.405   9.641  13.526  0.7508 -0.1391 -0.4662
  821MOL0     C13198   1.386   9.779  13.594 -1.1945  1.6928 -0.5503
  821MOL0     C13199   1.244   9.833  13.580  0.7011  0.6753  0.6281
  821MOL0     C13200   1.210   9.937  13.676 -0.5674  0.2132 -0.3122
  821MOL0     C13201   1.089  10.020  13.645 -0.4649  0.1604 -0.0378
  821MOL0     C13202   1.123  10.152  13.553  0.0289  0.1299 -0.6791
  821MOL0     C13203   1.224  10.148  13.438 -0.2678 -0.5209  1.0357
  821MOL0     C13204   1.250  10.291  13.391 -0.3767  0.1622 -0.3920
  821MOL0    Cl13205   1.376  10.357  13.496  0.1007 -0.0677 -0.3895
  821MOL0     C13206   1.756   9.601  13.513 -1.3243  0.9870  0.3550
  821MOL0     C13207   1.875   9.613  13.430  0.6825  0.7653 -0.2985
  821MOL0     O13208   1.934   9.543  13.102 -0.1124 -0.4638 -0.2391
  821MOL0     C13209   2.136   9.608  12.931  0.1049  0.1023  0.3453
  821MOL0     C13210   2.221   9.644  12.823 -0.3696 -0.7794 -0.3878
  821MOL0     N13211   2.070   9.847  12.252 -0.1051 -0.6299 -1.1449
  821MOL0     N13212   2.020   9.749  12.173  1.0490 -0.4494 -0.0654
  821MOL0     C13213   1.268   9.444  11.590 -0.3246 -0.6438 -0.5802
  821MOL0     C13214   1.159   9.504  11.539  0.7159 -0.3982  0.4464
  821MOL0     C13215   0.777   9.564  11.330 -0.2205  1.1292 -0.0382
  821MOL0     C13216   0.655   9.538  11.395  0.9768  0.6428  0.9139
  821MOL0     C13217   0.535   9.566  11.338 -0.6312  1.1664  0.8479
  821MOL0     C13218   0.530   9.646  11.222 -0.9313  1.1150 -0.0253
  821MOL0     O13219   0.411   9.680  11.170 -0.1958 -0.8155 -0.0038
  821MOL0     C13220   0.287   9.621  11.194 -0.7358 -0.4959 -0.3853
  821MOL0     C13221   0.167   9.709  11.138 -0.2552  0.5899 -0.7805
  821MOL0     C13222   0.171   9.724  10.987  0.3159 -1.0595 -0.3494
  821MOL0     C13223   0.051   9.814  10.937 -0.4611  0.6716 -0.1659
  821MOL0     C13224  -0.090   9.763  10.958  0.2033 -0.9416  0.6904
  821MOL0     C13225  -0.195   9.724  11.003  0.0171  0.0274  0.6359
  821MOL0     C13226   0.653   9.674  11.164 -0.7184  0.4905 -0.9078
  821MOL0     C13227   0.777   9.637  11.218 -0.5533 -0.7691 -0.1354
  821MOL0     C13228   0.894   9.666  11.130  0.1030 -0.0576  1.0184
  821MOL0     H13229   0.917   9.310  11.671  0.5988  0.1414 -2.3264
  821MOL0     H13230   1.119   9.198  11.791 -0.8593 -1.4686 -1.5668
  821MOL0     H13231   1.291   9.092  11.772 -1.1701  0.9476 -0.9634
  821MOL0     H13232   1.305   9.182  11.919  0.4270 -2.9829  1.5026
  821MOL0     H13233   1.492   9.008  11.906 -0.0602  0.5075 -0.3329
  821MOL0     H13234   1.550   9.088  11.763  1.3417 -1.3261  1.0921
  821MOL0     H13235   1.675   9.174  11.954  0.3189 -1.8741 -0.6579
  821MOL0     H13236   1.583   9.309  11.887  4.6777 -0.5269  1.2063
  821MOL0     H13237   1.420   9.313  12.058  0.5574  0.1682 -1.6216
  821MOL0     H13238   1.468   9.157  12.123 -0.1729  0.6980  0.8111
  821MOL0     H13239   1.683   9.257  12.199  0.3584 -0.0581 -0.4996
  821MOL0     H13240   1.549   9.352  12.248 -2.0266  2.2912 -1.8055
  821MOL0     H13241   1.708   9.423  12.008 -0.9691 -1.5877 -0.2123
  821MOL0     H13242   1.573   9.522  12.084  1.2963  1.6386 -2.8130
  821MOL0     H13243   1.822   9.459  12.228  0.6732  1.2204  0.2737
  821MOL0     H13244   1.682   9.556  12.279  0.1622  2.7171 -1.0242
  821MOL0     H13245   1.842   9.618  12.038  0.3745  0.0099  0.1028
  821MOL0     H13246   1.712   9.717  12.098 -0.2360 -0.4147 -0.4434
  821MOL0     H13247   1.763   9.827  12.355 -0.0211 -2.1169 -0.0872
  821MOL0     H13248   1.882  10.014  12.484 -1.5216 -0.8843 -1.2419
  821MOL0     H13249   2.022  10.083  12.394  0.0726 -0.2641 -0.7517
  821MOL0     H13250   2.060  10.007  12.654  1.1347 -0.3185  0.3465
  821MOL0     H13251   2.075   9.852  12.571  1.5396  0.3532  1.8251
  821MOL0     H13252   2.253   9.956  12.431  0.3490  0.1243 -1.0117
  821MOL0     H13253   2.248  10.097  12.519  1.7962 -0.7108 -0.7320
  821MOL0     H13254   2.428   9.932  12.562 -0.5472 -3.3421  0.1253
  821MOL0     H13255   2.356  10.005  12.702 -0.3628 -1.5055  1.7127
  821MOL0     H13256   2.220   9.977  12.864 -1.6694 -0.4236 -0.2266
  821MOL0     H13257   2.038  10.034  12.994  0.8242  0.5480  0.7781
  821MOL0     H13258   2.056   9.964  13.161  0.0623  1.1127 -0.4579
  821MOL0     H13259   1.932   9.914  13.067 -0.1548 -0.5494 -0.1650
  821MOL0     H13260   1.746   9.793  13.189  2.6177  0.4200 -1.1288
  821MOL0     H13261   1.538   9.769  13.323  0.0786 -1.0184  0.5483
  821MOL0     H13262   1.379   9.647  13.420  0.1789 -1.5750 -0.4276
  821MOL0     H13263   1.341   9.567  13.575 -0.9920  1.8782  0.4517
  821MOL0     H13264   1.402   9.769  13.701 -0.4214  0.0850 -0.7913
  821MOL0     H13265   1.454   9.852  13.549 -1.5747  1.7797 -0.9988
  821MOL0     H13266   1.184   9.745  13.605  4.2339 -1.8880  0.8587
  821MOL0     H13267   1.236   9.863  13.475 -0.6595  0.9793  0.7955
  821MOL0     H13268   1.299  10.000  13.683 -0.0825 -0.5910  1.2766
  821MOL0     H13269   1.204   9.888  13.774 -0.3143  0.4646 -0.1706
  821MOL0     H13270   1.015   9.955  13.596  1.6174 -0.2412 -2.9397
  821MOL0     H13271   1.051  10.058  13.740 -1.6148  2.6815 -1.4179
  821MOL0     H13272   1.142  10.239  13.618 -5.4325  2.6103 -1.8530
  821MOL0     H13273   1.028  10.180  13.507 -0.0538  0.4719 -0.3116
  821MOL0     H13274   1.184  10.096  13.351 -1.1097  2.7178 -0.6939
  821MOL0     H13275   1.317  10.099  13.466  1.2943  0.1477 -2.4358
  821MOL0     H13276   1.156  10.347  13.395 -0.7103 -0.3590 -0.8081
  821MOL0     H13277   1.293  10.263  13.294 -0.5927 -0.8363 -0.2110
  821MOL0     H13278   1.770   9.541  13.602  0.1375  2.5990  1.3070
  821MOL0     H13279   1.968   9.572  13.468 -1.2891 -3.0691  0.9760
  821MOL0     H13280   2.111   9.504  12.950 -0.8153  0.5035  1.5221
  821MOL0     H13281   2.257   9.560  12.764  1.3067 -1.6367  1.7378
  821MOL0     H13282   1.365   9.488  11.572 -0.2796 -0.2126  0.5872
  821MOL0     H13283   1.174   9.575  11.458  0.4938 -0.4030  0.4006
  821MOL0     H13284   0.656   9.484  11.489 -2.2414 -0.0319  0.6800
  821MOL0     H13285   0.453   9.514  11.386  0.3387  0.7132  2.0764
  821MOL0     H13286   0.285   9.520  11.150  1.6021 -0.1600 -1.4287
  821MOL0     H13287   0.267   9.614  11.301 -0.3961 -0.4401 -0.3160
  821MOL0     H13288   0.174   9.808  11.184 -1.7132  1.6081 -2.5862
  821MOL0     H13289   0.066   9.676  11.164 -1.0047  2.1305 -1.5314
  821MOL0     H13290   0.268   9.769  10.963 -1.6381  4.1336  0.2933
  821MOL0     H13291   0.154   9.623  10.948 -1.5042 -0.8160 -0.2656
  821MOL0     H13292   0.068   9.802  10.830  2.9057 -1.6313  0.4683
  821MOL0     H13293   0.076   9.913  10.975  0.0833  1.4929 -2.4793
  821MOL0     H13294  -0.300   9.706  11.015 -0.1284 -1.6734 -2.0785
  821MOL0     H13295   0.659   9.729  11.071 -3.5751 -0.7181 -1.9185
  821MOL0     H13296   0.869   9.728  11.044  2.9360  3.0630  2.2306
  821MOL0     H13297   0.955   9.735  11.190 -1.7038  3.0938 -0.4944
  821MOL0     H13298   0.949   9.577  11.100  0.1322 -0.8626  3.2862
  822MOL0     O13299  11.069   8.245   9.227 -0.1823 -0.0355  0.8609
  822MOL0     C13300  11.060   8.343   9.149 -0.6935 -0.5049  0.5404
  822MOL0     O13301  11.089   8.467   9.188 -0.5718 -0.3144 -0.4388
  822MOL0     C13302  11.123   8.480   9.318  0.0807 -0.9855 -0.3785
  822MOL0     C13303  11.252   8.440   9.359 -0.0674 -0.3121 -0.1770
  822MOL0     C13304  11.288   8.449   9.494  0.3143  0.5515 -0.1183
  822MOL0     C13305  11.190   8.492   9.584 -0.3330  0.3993  0.8787
  822MOL0     O13306  11.200   8.512   9.719  0.1956  0.0944 -0.2131
  822MOL0     C13307  11.323   8.494   9.798  0.3527  0.7235 -0.3547
  822MOL0     C13308  11.305   8.562   9.927 -0.2583 -0.1572 -0.5971
  822MOL0     C13309  11.393   8.495  10.032 -0.5423 -0.4049 -0.2545
  822MOL0     C13310  11.516   8.592  10.058 -0.4740 -0.2600 -0.3247
  822MOL0     C13311  11.597   8.547  10.177 -0.7222 -0.3534 -0.7219
  822MOL0     C13312  11.660   8.663  10.237 -0.1970  0.0183  0.5480
  822MOL0     C13313  11.746   8.625  10.350  0.2804 -0.2782  1.0421
  822MOL0     C13314  11.799   8.748  10.412 -0.6222 -0.3699 -0.0511
  822MOL0     N13315  11.901   8.719  10.514 -0.4621 -0.4386  0.1287
  822MOL0     C13316  11.899   8.747  10.650 -0.0617  0.0133 -0.2339
  822MOL0     C13317  12.019   8.706  10.698  0.5181  0.6650 -0.7345
  822MOL0     C13318  12.048   8.702  10.844 -0.2974  0.2707 -0.4530
  822MOL0     C13319  12.099   8.567  10.886 -0.1480  0.2260  0.0356
  822MOL0     C13320  12.021   8.439  10.847  0.7888 -0.3361 -0.5156
  822MOL0     C13321  12.083   8.316  10.909 -0.6283 -0.1174 -0.4813
  822MOL0     O13322  12.087   8.314  11.049  0.0725  0.0011  0.3051
  822MOL0     C13323  12.066   8.194  11.105 -0.2093  0.7418 -0.3936
  822MOL0     C13324  11.931   8.173  11.133  0.9454  0.0795  0.3975
  822MOL0     C13325  11.890   8.047  11.163  0.2722  0.2384  0.5153
  822MOL0     C13326  11.744   8.020  11.183 -0.5067  0.7235 -0.5644
  822MOL0     C13327  11.989   7.949  11.186  0.1823  0.4894  0.3828
  822MOL0     C13328  11.942   7.799  11.206  0.1758  0.4571 -0.0133
  822MOL0     O13329  11.841   7.732  11.156 -0.3521 -0.2313 -0.3625
  822MOL0     C13330  11.840   7.598  11.133 -0.6497 -0.7010 -0.2288
  822MOL0     C13331  11.721   7.541  11.101  0.5543  0.7004 -0.4810
  822MOL0     C13332  11.703   7.410  11.076  0.2299  1.5691 -0.7606
  822MOL0     C13333  11.806   7.317  11.088  0.3715 -0.4186 -0.4298
  822MOL0     O13334  11.795   7.179  11.077 -0.3844 -0.4991 -0.3476
  822MOL0     C13335  11.758   7.149  10.943 -0.2165 -0.3821  0.1861
  822MOL0     C13336  11.730   6.995  10.940 -0.2027  0.6218  0.5907
  822MOL0     C13337  11.591   6.955  10.981  1.0001 -0.8473 -0.2594
  822MOL0     C13338  11.555   6.816  10.963  0.5900  0.3980 -0.1612
  822MOL0     C13339  11.558   6.754  10.829  0.2886 -0.7925 -0.3157
  822MOL0     C13340  11.487   6.624  10.815 -0.4212 -0.2899  0.9347
  822MOL0     C13341  11.479   6.594  10.667 -0.6972  1.0534 -0.0573
  822MOL0     C13342  11.431   6.450  10.638 -1.3468 -0.0667  0.0635
  822MOL0    Cl13343  11.264   6.444  10.700 -0.2181 -0.5379  0.4135
  822MOL0     C13344  11.934   7.370  11.120  0.8383  0.8170  0.6326
  822MOL0     C13345  11.950   7.508  11.136 -0.0436 -0.4395 -0.4002
  822MOL0     O13346  12.026   7.744  11.279  0.9272  0.2725  0.3220
  822MOL0     C13347  12.128   7.971  11.172 -0.2297  0.1675 -0.1697
  822MOL0     C13348  12.169   8.095  11.122  0.7296  1.2563  0.2993
  822MOL0     N13349  12.084   8.636  10.596 -0.8318 -0.0407  0.4108
  822MOL0     N13350  12.021   8.661  10.485 -0.0171 -0.6994  0.6094
  822MOL0     C13351  11.061   8.533   9.543  0.7503 -0.3027 -0.7218
  822MOL0     C13352  11.027   8.529   9.410 -1.1253  0.3903 -0.4846
  822MOL0     C13353  11.022   8.322   9.005 -0.2088  1.1860  0.3408
  822MOL0     C13354  11.077   8.415   8.917  0.1273 -0.6937 -1.0472
  822MOL0     C13355  11.058   8.422   8.781  0.2113  0.5782  0.5915
  822MOL0     C13356  11.012   8.306   8.715  0.1688 -0.3591 -0.5769
  822MOL0     O13357  11.009   8.285   8.580  0.4259 -0.5632  0.3185
  822MOL0     C13358  11.052   8.393   8.483 -0.3731 -0.2449 -0.5966
  822MOL0     C13359  11.010   8.345   8.341  0.1545  0.0117 -0.7817
  822MOL0     C13360  11.042   8.455   8.239  0.0867 -0.0858 -0.4477
  822MOL0     C13361  11.106   8.399   8.112 -0.2611  1.0771  0.5806
  822MOL0     C13362  11.100   8.495   8.003  0.1433 -0.3506  0.7475
  822MOL0     C13363  11.107   8.576   7.912 -0.3768  0.5263  0.6817
  822MOL0     C13364  10.965   8.204   8.800 -0.4625 -0.1664 -0.5721
  822MOL0     C13365  10.962   8.214   8.938 -0.7820 -0.6157  0.4935
  822MOL0     C13366  10.883   8.113   9.013  0.6685 -0.1536  0.4761
  822MOL0     H13367  11.321   8.400   9.286  1.4522  1.5064  0.1860
  822MOL0     H13368  11.384   8.414   9.531 -0.3037 -0.0606  0.9301
  822MOL0     H13369  11.399   8.541   9.735 -0.3850  2.8963  0.2957
  822MOL0     H13370  11.338   8.385   9.804 -1.5356  0.4946  1.2574
  822MOL0     H13371  11.335   8.667   9.915  0.4826 -0.2347  0.4191
  822MOL0     H13372  11.201   8.574   9.961 -0.1167  2.3714 -0.8234
  822MOL0     H13373  11.330   8.470  10.118  0.3092 -1.9684 -0.0299
  822MOL0     H13374  11.422   8.395   9.997 -1.0271 -0.7518  0.3092
  822MOL0     H13375  11.584   8.600   9.973 -1.9830 -0.6864 -1.6329
  822MOL0     H13376  11.463   8.686  10.076  0.1875 -0.1181  1.0122
  822MOL0     H13377  11.674   8.474  10.150 -0.0807  1.1573 -3.2660
  822MOL0     H13378  11.523   8.504  10.245 -1.2694  0.8776 -0.5114
  822MOL0     H13379  11.729   8.707  10.164  0.0520 -4.6600 -2.4461
  822MOL0     H13380  11.585   8.735  10.271 -0.0287  0.0716  0.8073
  822MOL0     H13381  11.834   8.569  10.316 -0.4347  0.3864 -2.1757
  822MOL0     H13382  11.692   8.566  10.425  0.8949 -1.2905  0.7046
  822MOL0     H13383  11.855   8.799  10.333 -0.8865  1.7997  1.0767
  822MOL0     H13384  11.726   8.827  10.433  0.6526  1.3130 -1.5713
  822MOL0     H13385  11.815   8.779  10.710 -1.5369 -0.1149 -2.1502
  822MOL0     H13386  11.955   8.722  10.897  0.1988  3.6145 -0.6461
  822MOL0     H13387  12.120   8.782  10.865 -0.0672  0.0764 -0.4886
  822MOL0     H13388  12.203   8.563  10.851 -0.3340 -0.8628 -0.4597
  822MOL0     H13389  12.098   8.576  10.995  3.2918  0.0233  0.2042
  822MOL0     H13390  11.915   8.441  10.877  1.1909  0.0098  0.9704
  822MOL0     H13391  12.033   8.437  10.738 -0.1128  2.2075 -0.7128
  822MOL0     H13392  12.018   8.239  10.866 -2.4721  1.3394 -0.3897
  822MOL0     H13393  12.190   8.305  10.886 -1.2679 -3.2581 -2.6099
  822MOL0     H13394  11.863   8.257  11.119  0.3445 -0.8854 -3.7092
  822MOL0     H13395  11.698   8.117  11.202 -0.6639  0.9912 -2.2126
  822MOL0     H13396  11.727   7.963  11.276  0.1503 -0.5439 -1.1977
  822MOL0     H13397  11.689   7.979  11.098  1.8626 -0.9735 -1.3856
  822MOL0     H13398  11.628   7.597  11.097 -0.6628 -1.0642  1.1836
  822MOL0     H13399  11.601   7.377  11.056 -0.6353  1.3996  3.0631
  822MOL0     H13400  11.669   7.205  10.913 -0.6652 -0.4750  1.2910
  822MOL0     H13401  11.843   7.176  10.880 -0.7098 -0.3650 -0.4781
  822MOL0     H13402  11.748   6.958  10.838  0.4969 -0.2000  1.0052
  822MOL0     H13403  11.806   6.951  11.004 -0.9231 -1.0092  0.3795
  822MOL0     H13404  11.528   7.030  10.932  0.5432 -0.7879  0.4101
  822MOL0     H13405  11.577   6.975  11.087  1.0927  0.2112 -0.4327
  822MOL0     H13406  11.453   6.810  11.001  0.8008 -0.1197  0.3392
  822MOL0     H13407  11.613   6.759  11.036 -3.0405 -1.5557  1.4552
  822MOL0     H13408  11.520   6.828  10.758  0.5185  0.1311  0.4980
  822MOL0     H13409  11.664   6.734  10.809  0.3308 -2.0718  1.0348
  822MOL0     H13410  11.388   6.638  10.859  0.0856  0.3493  1.9019
  822MOL0     H13411  11.538   6.539  10.863  0.8522 -1.9056 -2.8353
  822MOL0     H13412  11.581   6.586  10.628 -1.0104 -3.3484 -0.4447
  822MOL0     H13413  11.412   6.662  10.613  0.4261  1.6314 -0.7559
  822MOL0     H13414  11.498   6.375  10.680 -1.6222 -0.6452 -0.4955
  822MOL0     H13415  11.442   6.449  10.529  1.4727  1.0020  0.2708
  822MOL0     H13416  12.017   7.306  11.149  0.0473 -0.2913  0.5320
  822MOL0     H13417  12.048   7.541  11.170  0.5020  0.0571 -2.3096
  822MOL0     H13418  12.195   7.888  11.191  0.2065  1.2213  3.6327
  822MOL0     H13419  12.272   8.098  11.088  0.9406 -3.3022 -0.0555
  822MOL0     H13420  10.981   8.573   9.605  0.6584 -1.1701 -0.2671
  822MOL0     H13421  10.934   8.558   9.362  0.6250  4.2412 -1.9667
  822MOL0     H13422  11.119   8.510   8.949  2.0205 -1.2978 -1.6058
  822MOL0     H13423  11.097   8.512   8.736 -0.9222 -0.4262 -2.6939
  822MOL0     H13424  11.007   8.485   8.519  2.9276  0.8885  1.1338
  822MOL0     H13425  11.161   8.407   8.491 -0.3955 -0.3456 -0.0091
  822MOL0     H13426  10.901   8.344   8.346  0.0029  4.3475  2.3522
  822MOL0     H13427  11.060   8.250   8.318 -1.6337 -0.6747 -2.0082
  822MOL0     H13428  10.952   8.512   8.213  2.1729  2.0309 -3.7711
  822MOL0     H13429  11.113   8.528   8.277  0.3368 -0.1279 -0.8343
  822MOL0     H13430  11.050   8.313   8.073 -2.1192  2.1170  0.8548
  822MOL0     H13431  11.212   8.379   8.133 -0.1136 -0.4519 -1.2895
  822MOL0     H13432  11.143   8.641   7.835  2.8166 -0.0621  1.5612
  822MOL0     H13433  10.910   8.126   8.750 -0.3613 -0.4928 -0.1794
  822MOL0     H13434  10.786   8.143   9.052  0.1837 -1.4626  0.3205
  822MOL0     H13435  10.851   8.023   8.959 -0.5102 -1.4190  3.1199
  822MOL0     H13436  10.946   8.079   9.096  2.5813 -0.8234 -1.1587
  823MOL0     O13437   1.591   2.957  10.178  0.1212 -0.1725 -1.2819
  823MOL0     C13438   1.548   2.961  10.063 -0.9545  0.1091 -0.7591
  823MOL0     O13439   1.417   2.951  10.028 -0.0852  0.5822  0.4130
  823MOL0     C13440   1.314   2.928  10.123  0.1988 -0.4416 -0.2964
  823MOL0     C13441   1.190   2.987  10.088  0.2465  0.1914 -0.1832
  823MOL0     C13442   1.084   2.987  10.181  0.5671 -0.0690 -0.2252
  823MOL0     C13443   1.109   2.942  10.309  0.4817 -0.5736 -0.1368
  823MOL0     O13444   1.017   2.932  10.416  0.1224 -0.2130  0.6574
  823MOL0     C13445   0.873   2.962  10.401 -0.1070  0.1799  0.3891
  823MOL0     C13446   0.795   2.825  10.378 -0.2792 -0.0564 -0.1766
  823MOL0     C13447   0.826   2.709  10.464 -0.5691 -0.3699  0.0386
  823MOL0     C13448   0.741   2.705  10.587 -0.4079  0.6436  0.4189
  823MOL0     C13449   0.841   2.666  10.699 -0.5641  0.2943  0.2848
  823MOL0     C13450   0.768   2.636  10.829  0.0415 -0.3390  0.4726
  823MOL0     C13451   0.866   2.595  10.945 -0.1353 -0.0244  0.1735
  823MOL0     C13452   0.922   2.455  10.949  0.3707  0.0948  1.1681
  823MOL0     N13453   1.032   2.416  10.849 -0.3543 -0.2616 -0.0506
  823MOL0     C13454   1.118   2.500  10.781 -0.2272 -0.7402 -0.6668
  823MOL0     C13455   1.187   2.416  10.691 -0.0671  1.2187  0.2999
  823MOL0     C13456   1.292   2.464  10.585 -0.8857  0.1219  0.3251
  823MOL0     C13457   1.237   2.514  10.454  0.3099  0.3127 -0.5152
  823MOL0     C13458   1.165   2.413  10.364  0.3472 -0.1197 -0.3385
  823MOL0     C13459   1.090   2.482  10.256  0.6823  0.1881 -0.5854
  823MOL0     O13460   1.068   2.388  10.148  0.0403  0.0021 -0.3235
  823MOL0     C13461   1.024   2.427  10.019  0.4867  0.1614 -0.0303
  823MOL0     C13462   0.949   2.547   9.999  0.2278 -0.2617  0.2314
  823MOL0     C13463   0.889   2.586   9.872  0.9870 -0.0739  0.5346
  823MOL0     C13464   0.812   2.712   9.875 -0.2543 -0.0584 -0.0717
  823MOL0     C13465   0.917   2.505   9.759 -0.5641  0.4796  0.6923
  823MOL0     C13466   0.877   2.542   9.625 -0.1845  0.5527  0.5945
  823MOL0     O13467   0.854   2.440   9.527  0.4956  0.1505 -0.9964
  823MOL0     C13468   0.850   2.477   9.392  0.6600 -0.6271 -0.0117
  823MOL0     C13469   0.727   2.546   9.341  0.4148 -0.1606  0.3439
  823MOL0     C13470   0.716   2.561   9.203 -0.5171  0.1775  0.3838
  823MOL0     C13471   0.821   2.524   9.117  0.6316 -0.3027 -0.1033
  823MOL0     O13472   0.819   2.531   8.978  0.3162 -0.4336 -0.5150
  823MOL0     C13473   0.693   2.552   8.904 -0.4839  0.0359 -0.8741
  823MOL0     C13474   0.741   2.552   8.760  0.0502 -0.4354  0.2470
  823MOL0     C13475   0.617   2.563   8.659  0.4000  0.2799 -0.5493
  823MOL0     C13476   0.664   2.608   8.522  0.1624  0.8248  0.3918
  823MOL0     C13477   0.554   2.645   8.417 -0.9543 -0.2002  0.1929
  823MOL0     C13478   0.417   2.585   8.438  0.3425  0.9247 -1.2024
  823MOL0     C13479   0.315   2.632   8.331 -0.4395  1.0600  0.3183
  823MOL0     C13480   0.275   2.778   8.318  0.0391 -0.7105 -0.3419
  823MOL0    Cl13481   0.198   2.829   8.473  0.4568 -0.0177  0.2069
  823MOL0     C13482   0.943   2.480   9.171 -0.0908 -0.6093 -0.8876
  823MOL0     C13483   0.953   2.448   9.305 -0.4291 -1.5271 -0.2396
  823MOL0     O13484   0.880   2.660   9.592 -0.0314  0.1492  0.2893
  823MOL0     C13485   0.982   2.381   9.785  0.2848 -0.1112 -0.0090
  823MOL0     C13486   1.029   2.344   9.910  0.4095  0.6960  0.1477
  823MOL0     N13487   1.139   2.288  10.707  0.2618 -0.0281 -0.5329
  823MOL0     N13488   1.045   2.284  10.802  0.1656 -0.2238  0.0660
  823MOL0     C13489   1.225   2.876  10.345  0.1065 -1.0338  0.6678
  823MOL0     C13490   1.325   2.876  10.245 -1.2398  1.0699  0.1326
  823MOL0     C13491   1.647   2.970   9.949  0.1819 -0.2999  0.0289
  823MOL0     C13492   1.598   2.953   9.817  0.4657 -0.4252 -0.4809
  823MOL0     C13493   1.683   2.956   9.708  0.0364 -0.2339  0.5250
  823MOL0     C13494   1.819   2.971   9.730  0.5856  0.0154  0.4380
  823MOL0     O13495   1.921   2.978   9.635 -0.1025  0.3468  0.4197
  823MOL0     C13496   1.896   2.963   9.496  0.8909  0.0141  0.3153
  823MOL0     C13497   1.834   3.095   9.431 -0.1322  0.1480 -0.6524
  823MOL0     C13498   1.781   3.086   9.293 -0.7512 -0.5072  0.3922
  823MOL0     C13499   1.888   3.028   9.199 -0.5568  0.6112 -0.9832
  823MOL0     C13500   1.830   3.010   9.069  0.6229 -0.4374  0.3935
  823MOL0     C13501   1.794   3.016   8.950 -0.1660  0.2294 -0.2060
  823MOL0     C13502   1.873   2.997   9.858 -0.4896  0.5006  0.5247
  823MOL0     C13503   1.786   2.997   9.967 -0.9506  0.5653  0.7328
  823MOL0     C13504   1.855   3.011  10.104 -0.1444 -0.9887 -0.5046
  823MOL0     H13505   1.160   3.012   9.987 -0.7291 -1.8696 -0.4656
  823MOL0     H13506   0.987   3.021  10.145 -0.6287 -1.5774  1.3684
  823MOL0     H13507   0.863   3.035  10.320 -0.0921 -0.1915  0.0503
  823MOL0     H13508   0.843   3.009  10.495  3.0910  0.3475  1.4465
  823MOL0     H13509   0.689   2.846  10.392 -1.3226 -4.4057 -0.0207
  823MOL0     H13510   0.804   2.799  10.272 -2.5903  1.8974 -0.9374
  823MOL0     H13511   0.800   2.622  10.402 -1.1562  0.8087 -1.4192
  823MOL0     H13512   0.935   2.709  10.478 -0.2782 -0.3373 -2.0086
  823MOL0     H13513   0.703   2.806  10.608  1.3809  1.1519  1.4595
  823MOL0     H13514   0.664   2.628  10.580  2.6436 -3.0920  3.4450
  823MOL0     H13515   0.911   2.747  10.720  0.0117 -0.4452  1.3208
  823MOL0     H13516   0.900   2.581  10.663 -2.3332 -0.2728 -1.4620
  823MOL0     H13517   0.722   2.728  10.866  0.2108  1.0950 -2.5457
  823MOL0     H13518   0.697   2.555  10.811 -1.5897  0.9839  0.7704
  823MOL0     H13519   0.813   2.607  11.039 -0.0384 -0.4195  0.2813
  823MOL0     H13520   0.951   2.663  10.937  1.4644 -1.6117  2.4120
  823MOL0     H13521   0.958   2.433  11.050 -1.4960 -1.3334  1.5869
  823MOL0     H13522   0.843   2.385  10.919 -0.1923  0.9708  0.5497
  823MOL0     H13523   1.149   2.602  10.801  0.7900 -1.3431  1.0299
  823MOL0     H13524   1.372   2.390  10.572  1.6309  2.4766  1.3230
  823MOL0     H13525   1.342   2.548  10.634 -0.5442 -1.7313  3.4326
  823MOL0     H13526   1.169   2.597  10.473  1.1423  0.8379  0.2117
  823MOL0     H13527   1.313   2.560  10.391  1.0637 -2.4957 -1.8380
  823MOL0     H13528   1.251   2.358  10.325  0.4495 -1.9267  2.1347
  823MOL0     H13529   1.114   2.336  10.423 -0.0629 -0.4124 -1.0735
  823MOL0     H13530   0.992   2.515  10.292  0.1445 -0.2813 -1.5802
  823MOL0     H13531   1.160   2.560  10.222  1.5178 -0.5615 -0.6194
  823MOL0     H13532   0.939   2.613  10.084 -0.5990  0.4515 -0.4040
  823MOL0     H13533   0.765   2.729   9.972  1.5471  4.3111  0.2710
  823MOL0     H13534   0.730   2.709   9.803 -0.4312  1.8891  0.0136
  823MOL0     H13535   0.879   2.796   9.853  1.5223 -1.3433  0.1689
  823MOL0     H13536   0.641   2.568   9.404 -0.2938 -2.1151  0.1133
  823MOL0     H13537   0.626   2.600   9.156  0.6833 -0.4742 -2.6734
  823MOL0     H13538   0.643   2.457   8.924  0.4423 -0.0322  1.4043
  823MOL0     H13539   0.643   2.645   8.932 -0.2647  0.3486 -1.5014
  823MOL0     H13540   0.807   2.638   8.747 -1.0513  0.0945 -2.4087
  823MOL0     H13541   0.791   2.457   8.738 -4.0446 -2.3117 -2.2427
  823MOL0     H13542   0.552   2.643   8.694  1.8178  1.2165  0.0386
  823MOL0     H13543   0.566   2.467   8.645  0.5132  0.4813 -2.6706
  823MOL0     H13544   0.731   2.528   8.491 -0.6250  0.5235 -0.6173
  823MOL0     H13545   0.724   2.699   8.533  0.6998  0.2758  2.4254
  823MOL0     H13546   0.534   2.753   8.414 -2.1272 -0.4003  0.3448
  823MOL0     H13547   0.586   2.616   8.317 -0.0444  2.6887 -0.4735
  823MOL0     H13548   0.371   2.619   8.532 -0.8785  3.1341 -2.5133
  823MOL0     H13549   0.427   2.477   8.426 -0.1079  1.1217 -3.9879
  823MOL0     H13550   0.225   2.578   8.360  0.5119 -0.5687  0.3485
  823MOL0     H13551   0.324   2.590   8.231 -0.6367  2.6982 -0.4319
  823MOL0     H13552   0.204   2.786   8.235 -0.8229 -2.7554  0.1250
  823MOL0     H13553   0.358   2.847   8.302 -2.0877  2.0426 -0.2009
  823MOL0     H13554   1.021   2.445   9.104  1.0223  0.6165 -0.2710
  823MOL0     H13555   1.037   2.396   9.351 -0.6116 -1.9641 -0.3955
  823MOL0     H13556   1.004   2.310   9.706  1.0133  4.0761 -4.0092
  823MOL0     H13557   1.080   2.250   9.928 -0.8396  0.1200  0.8605
  823MOL0     H13558   1.235   2.837  10.445  1.8720 -3.6867 -0.4400
  823MOL0     H13559   1.414   2.822  10.277 -2.4549 -1.7786 -0.9691
  823MOL0     H13560   1.491   2.948   9.798  0.0704  1.8294  0.6738
  823MOL0     H13561   1.647   2.948   9.606  1.3104 -0.0248  0.0373
  823MOL0     H13562   1.989   2.943   9.443  0.3108  2.5498 -1.8980
  823MOL0     H13563   1.826   2.879   9.486  1.1883 -0.2584  0.5243
  823MOL0     H13564   1.923   3.157   9.445  0.2695 -0.7333  0.9055
  823MOL0     H13565   1.749   3.135   9.487 -1.7322  0.4373 -3.1305
  823MOL0     H13566   1.698   3.014   9.294 -3.0260  1.9286  1.4420
  823MOL0     H13567   1.747   3.180   9.249 -0.5009 -2.0621 -3.4535
  823MOL0     H13568   1.941   2.937   9.230 -1.4054 -0.1200 -1.6299
  823MOL0     H13569   1.976   3.092   9.184  0.9369 -1.5602 -2.1043
  823MOL0     H13570   1.785   3.038   8.846  1.3601 -3.7780 -1.3721
  823MOL0     H13571   1.979   3.016   9.865 -0.1819  1.3512 -3.8463
  823MOL0     H13572   1.963   3.023  10.092 -0.0443 -2.6687 -1.7371
  823MOL0     H13573   1.810   3.100  10.148  0.0352 -1.1654  0.0420
  823MOL0     H13574   1.837   2.929  10.173  0.4838 -0.7250 -0.0209
  824MOL0     O13575   9.675   3.884   3.083  0.1562 -0.1002 -0.2551
  824MOL0     C13576   9.614   3.837   2.990 -0.6788  0.8736 -0.0968
  824MOL0     O13577   9.560   3.713   2.990  0.0284  0.4713 -0.0100
  824MOL0     C13578   9.594   3.610   3.079 -0.1977 -0.5584  0.1618
  824MOL0     C13579   9.696   3.612   3.182 -0.4374  0.9132  0.1356
  824MOL0     C13580   9.702   3.508   3.273  0.8124  0.3275  0.6067
  824MOL0     C13581   9.626   3.396   3.255  0.4583  0.7714 -0.0717
  824MOL0     O13582   9.648   3.296   3.353  0.4894 -0.1370  0.3480
  824MOL0     C13583   9.533   3.222   3.403  0.4843 -0.9589  1.4606
  824MOL0     C13584   9.432   3.297   3.488  0.5806 -0.7224  0.4236
  824MOL0     C13585   9.339   3.192   3.549 -0.6072 -0.6673  0.2958
  824MOL0     C13586   9.202   3.176   3.473 -0.0740  0.5152 -0.6376
  824MOL0     C13587   9.105   3.092   3.548  1.0215  0.7940 -0.3875
  824MOL0     C13588   9.160   2.963   3.614 -0.5043 -0.3341 -0.5606
  824MOL0     C13589   9.050   2.883   3.681  0.8570  0.3421 -0.3338
  824MOL0     C13590   9.093   2.823   3.812 -0.3497 -0.7814  0.5815
  824MOL0     N13591   8.970   2.764   3.866 -0.2750 -0.8653  0.1293
  824MOL0     C13592   8.934   2.631   3.861 -0.8857 -0.3227 -0.5354
  824MOL0     C13593   8.814   2.620   3.922 -0.8069  0.0886  0.3443
  824MOL0     C13594   8.727   2.500   3.933 -0.2389  0.4747  0.1799
  824MOL0     C13595   8.599   2.534   3.854  0.2586  0.8554 -0.1803
  824MOL0     C13596   8.614   2.547   3.699 -0.3833  0.1679  0.2717
  824MOL0     C13597   8.682   2.429   3.617  1.2466  0.4769 -0.7609
  824MOL0     O13598   8.594   2.322   3.658 -0.1899 -0.0936 -0.5066
  824MOL0     C13599   8.636   2.196   3.625  0.1661  0.8633  0.2877
  824MOL0     C13600   8.762   2.160   3.569 -0.4597 -0.0393 -0.8951
  824MOL0     C13601   8.786   2.020   3.537  0.8209 -0.6225 -0.4523
  824MOL0     C13602   8.929   1.996   3.503 -0.7324  0.0326 -0.9214
  824MOL0     C13603   8.674   1.926   3.547  0.6702 -0.2063  0.5707
  824MOL0     C13604   8.694   1.786   3.510  1.0274  0.4974  0.6468
  824MOL0     O13605   8.764   1.749   3.398  0.2079 -0.9094  0.1832
  824MOL0     C13606   8.736   1.635   3.328 -0.1762  0.2602 -0.2295
  824MOL0     C13607   8.617   1.617   3.260  0.2999 -0.2556  0.8652
  824MOL0     C13608   8.581   1.492   3.208 -0.5606  0.1257 -0.6088
  824MOL0     C13609   8.657   1.379   3.228  0.3364  0.1586 -0.4608
  824MOL0     O13610   8.626   1.255   3.171 -0.0092  0.1468 -0.2755
  824MOL0     C13611   8.489   1.245   3.120 -0.4438 -0.6765  0.0287
  824MOL0     C13612   8.455   1.096   3.104 -0.3671  0.0253  0.8356
  824MOL0     C13613   8.306   1.052   3.114 -0.6490  0.2114 -0.4326
  824MOL0     C13614   8.278   0.906   3.135  0.5989  0.2422  0.0633
  824MOL0     C13615   8.133   0.860   3.092 -0.1028 -0.5633  0.3731
  824MOL0     C13616   8.145   0.706   3.083  0.4592 -0.9952 -0.6596
  824MOL0     C13617   8.008   0.657   3.035  0.2918  0.0443  0.2584
  824MOL0     C13618   8.016   0.659   2.878 -0.2404  0.5139 -0.1112
  824MOL0    Cl13619   8.133   0.529   2.819 -0.1279  0.3976  0.2306
  824MOL0     C13620   8.783   1.399   3.297 -0.9026 -0.0392  0.8329
  824MOL0     C13621   8.821   1.524   3.345  0.6134  0.0316  0.6097
  824MOL0     O13622   8.655   1.706   3.597 -0.0172  0.2542 -0.6877
  824MOL0     C13623   8.547   1.970   3.608 -0.1551  0.4161 -0.6372
  824MOL0     C13624   8.536   2.101   3.643 -0.5270 -0.4324  0.1410
  824MOL0     N13625   8.777   2.743   3.970 -0.2099 -0.0716 -0.9819
  824MOL0     N13626   8.871   2.828   3.938  0.0851 -0.6584 -0.5553
  824MOL0     C13627   9.534   3.383   3.154  0.3326  0.2802  0.1024
  824MOL0     C13628   9.521   3.497   3.071  0.2216  0.3632 -0.0027
  824MOL0     C13629   9.577   3.924   2.881  0.5402 -0.3275 -0.7754
  824MOL0     C13630   9.655   4.037   2.860  0.2981  0.4725 -0.2967
  824MOL0     C13631   9.633   4.122   2.752  1.1793  0.0678  0.2097
  824MOL0     C13632   9.515   4.112   2.677 -0.9773 -0.0150 -0.1759
  824MOL0     O13633   9.471   4.187   2.575  0.3982  0.5510  0.2905
  824MOL0     C13634   9.504   4.326   2.573 -1.1865  0.3984 -0.1482
  824MOL0     C13635   9.634   4.372   2.511 -0.3872  0.0310  0.0207
  824MOL0     C13636   9.672   4.276   2.393 -0.5864 -0.1719 -0.4442
  824MOL0     C13637   9.569   4.277   2.285  0.4867  0.2874 -0.4650
  824MOL0     C13638   9.540   4.404   2.219  0.2758  0.7554  0.2269
  824MOL0     C13639   9.505   4.500   2.156 -0.2979  0.5182  0.2735
  824MOL0     C13640   9.425   4.005   2.707  0.1162  0.1795 -0.7721
  824MOL0     C13641   9.454   3.909   2.805 -0.1046 -0.3076 -0.1346
  824MOL0     C13642   9.349   3.797   2.834  0.4659 -0.0576  0.1093
  824MOL0     H13643   9.759   3.699   3.194 -1.0568  1.4025 -0.0624
  824MOL0     H13644   9.780   3.512   3.349  1.1577  0.5915  0.2450
  824MOL0     H13645   9.565   3.134   3.459 -0.3378 -2.6267 -0.5656
  824MOL0     H13646   9.491   3.164   3.320  2.3951 -1.3769  0.7329
  824MOL0     H13647   9.484   3.367   3.554  0.7197  0.8979 -1.2944
  824MOL0     H13648   9.373   3.369   3.431 -1.6301 -2.6600  0.1224
  824MOL0     H13649   9.389   3.096   3.562 -0.5491 -0.5914  0.6470
  824MOL0     H13650   9.337   3.230   3.652  1.4195  2.6068 -0.7268
  824MOL0     H13651   9.151   3.273   3.472  1.1418  1.1776 -0.4791
  824MOL0     H13652   9.219   3.145   3.370 -1.4940  2.0530 -1.3861
  824MOL0     H13653   9.028   3.074   3.472  0.6420  0.6286  0.0287
  824MOL0     H13654   9.041   3.152   3.614 -1.2857 -0.5396 -1.2914
  824MOL0     H13655   9.201   2.893   3.540 -1.6352 -0.3269 -1.2087
  824MOL0     H13656   9.238   2.986   3.687 -1.0965 -0.3592  0.0912
  824MOL0     H13657   9.014   2.805   3.613  1.0559  1.9332 -2.3584
  824MOL0     H13658   8.965   2.947   3.707  1.8537  1.6533 -0.1752
  824MOL0     H13659   9.169   2.744   3.809  0.2969 -0.1217 -1.1944
  824MOL0     H13660   9.128   2.902   3.879 -0.6089  0.4991 -0.7379
  824MOL0     H13661   8.979   2.547   3.810  1.2787 -1.8195  3.4236
  824MOL0     H13662   8.711   2.480   4.040  2.9687  1.0837  0.8695
  824MOL0     H13663   8.776   2.412   3.891 -2.2511  0.5693 -2.6359
  824MOL0     H13664   8.526   2.453   3.863  0.3727  0.6761 -0.8422
  824MOL0     H13665   8.554   2.629   3.882 -0.0909  0.5092  0.4623
  824MOL0     H13666   8.514   2.567   3.659  0.0829  2.3973  0.1153
  824MOL0     H13667   8.673   2.634   3.670  1.7492 -1.8492 -1.9930
  824MOL0     H13668   8.688   2.449   3.510  1.7371  0.5250 -0.7300
  824MOL0     H13669   8.783   2.409   3.656  0.9828 -3.0354 -1.4992
  824MOL0     H13670   8.851   2.221   3.569 -0.9336  0.7114  0.5582
  824MOL0     H13671   8.994   2.065   3.557 -3.0296  2.7419 -1.4212
  824MOL0     H13672   8.950   2.019   3.398  3.1958  0.7419 -0.1553
  824MOL0     H13673   8.962   1.893   3.524 -0.1765  0.0245 -1.7980
  824MOL0     H13674   8.551   1.703   3.248 -1.7064 -1.5160  2.4589
  824MOL0     H13675   8.490   1.483   3.151  0.1447 -3.9446 -1.3800
  824MOL0     H13676   8.418   1.276   3.197 -0.8088 -0.4678 -0.3932
  824MOL0     H13677   8.475   1.300   3.027 -0.0499  4.7200  2.7662
  824MOL0     H13678   8.489   1.066   3.004 -2.9172  3.6314 -1.3621
  824MOL0     H13679   8.509   1.043   3.184 -0.4913  1.3365  1.8156
  824MOL0     H13680   8.259   1.079   3.019  0.9507 -1.2854 -1.7156
  824MOL0     H13681   8.254   1.110   3.190 -0.0484  2.8556 -1.9234
  824MOL0     H13682   8.295   0.869   3.237  0.2384 -4.2468 -1.2821
  824MOL0     H13683   8.359   0.858   3.079  3.8593  3.6427  1.4005
  824MOL0     H13684   8.067   0.884   3.176  0.0082  0.4550  0.1902
  824MOL0     H13685   8.101   0.907   2.998 -0.8219  0.4229  1.0828
  824MOL0     H13686   8.176   0.662   3.178  4.8658  1.6491 -0.5937
  824MOL0     H13687   8.221   0.668   3.013  0.5261 -1.6078 -0.2653
  824MOL0     H13688   7.912   0.686   3.078 -0.4820 -0.7965 -0.8283
  824MOL0     H13689   8.003   0.550   3.058 -1.4465  0.2255  0.8669
  824MOL0     H13690   8.046   0.757   2.841 -0.9261 -0.0466 -2.3285
  824MOL0     H13691   7.914   0.645   2.839 -1.0505 -0.7016  2.2164
  824MOL0     H13692   8.833   1.305   3.312 -0.0501  0.0715 -1.0428
  824MOL0     H13693   8.907   1.534   3.410  0.1916 -1.4709  1.4247
  824MOL0     H13694   8.461   1.904   3.613 -0.1018  0.1324 -2.6514
  824MOL0     H13695   8.444   2.147   3.679  0.2305  0.6792  0.7271
  824MOL0     H13696   9.463   3.301   3.145  2.8952 -1.9963 -0.4613
  824MOL0     H13697   9.443   3.498   2.996  0.1599  0.7729  0.0677
  824MOL0     H13698   9.746   4.064   2.913  0.3200  0.9601 -0.5765
  824MOL0     H13699   9.709   4.197   2.734  0.7676  0.1396 -1.3986
  824MOL0     H13700   9.419   4.376   2.526 -1.4141 -1.7135 -2.1397
  824MOL0     H13701   9.516   4.356   2.678  0.4585 -0.7365  0.0323
  824MOL0     H13702   9.709   4.366   2.591 -0.4136 -1.5215 -0.0383
  824MOL0     H13703   9.630   4.480   2.495  0.0025  0.0864  0.2793
  824MOL0     H13704   9.773   4.296   2.357 -1.0830  2.7772 -0.4900
  824MOL0     H13705   9.676   4.172   2.425 -1.9184 -1.4104 -3.8436
  824MOL0     H13706   9.474   4.233   2.316  1.1334  0.1845  1.5175
  824MOL0     H13707   9.603   4.205   2.211  0.9372 -1.4985  1.3844
  824MOL0     H13708   9.459   4.588   2.116 -2.8025 -2.1225 -3.2807
  824MOL0     H13709   9.326   4.013   2.662 -0.9298  0.7856  1.4817
  824MOL0     H13710   9.336   3.780   2.941  1.8129  0.5267  0.3925
  824MOL0     H13711   9.249   3.822   2.798 -0.8416 -0.8240  2.9042
  824MOL0     H13712   9.376   3.704   2.783  3.0511  0.7464 -0.1233
  825MOL0     O13713   2.802   9.884   1.632  0.0261  0.6137 -0.3318
  825MOL0     C13714   2.730   9.789   1.648  0.5606 -0.4370 -0.6753
  825MOL0     O13715   2.678   9.714   1.545  0.4219  0.3126 -0.6606
  825MOL0     C13716   2.703   9.746   1.409  0.5421 -0.1722 -0.6879
  825MOL0     C13717   2.591   9.726   1.322 -0.1150 -0.5515  0.1367
  825MOL0     C13718   2.609   9.733   1.184  0.3015 -0.3062  0.2621
  825MOL0     C13719   2.736   9.752   1.126  1.0003  0.0021 -1.0887
  825MOL0     O13720   2.741   9.774   0.991 -0.0074  0.2116  0.9734
  825MOL0     C13721   2.859   9.798   0.916  0.2472  1.1600  0.3346
  825MOL0     C13722   2.918   9.671   0.875  1.0571 -0.0227  0.2115
  825MOL0     C13723   3.048   9.681   0.780 -0.0284 -0.6349  1.0278
  825MOL0     C13724   3.181   9.735   0.855 -0.1886  0.0064  0.7040
  825MOL0     C13725   3.288   9.763   0.752  0.4694 -0.0316 -0.1988
  825MOL0     C13726   3.402   9.850   0.796  0.4085 -0.6718 -0.1734
  825MOL0     C13727   3.498   9.781   0.892 -0.0890  0.3217  0.5860
  825MOL0     C13728   3.594   9.901   0.951 -0.0287  0.7376 -0.3649
  825MOL0     N13729   3.678   9.858   1.061 -0.0632 -0.7172 -0.1869
  825MOL0     C13730   3.645   9.840   1.190  0.3798 -0.8264 -0.0616
  825MOL0     C13731   3.760   9.822   1.256 -0.2396  1.3487  0.3144
  825MOL0     C13732   3.786   9.807   1.402  0.5179  0.2365  0.2122
  825MOL0     C13733   3.875   9.934   1.448 -0.0686  0.7787  0.3000
  825MOL0     C13734   3.857   9.985   1.589  0.0931 -0.1552 -0.9096
  825MOL0     C13735   3.912  10.131   1.619 -0.5796  0.2464 -0.0509
  825MOL0     O13736   4.044  10.163   1.553  0.3338 -0.2916 -0.0716
  825MOL0     C13737   4.167  10.118   1.592  0.5110  0.7884  0.1512
  825MOL0     C13738   4.277  10.145   1.509  0.0245  0.3257  0.6229
  825MOL0     C13739   4.407  10.109   1.546 -1.2364 -0.0914 -0.4635
  825MOL0     C13740   4.517  10.145   1.447  0.8654 -0.2773  0.1812
  825MOL0     C13741   4.435  10.041   1.674  0.2316 -0.1488  0.2234
  825MOL0     C13742   4.560   9.999   1.727  0.0115 -1.0126 -0.6529
  825MOL0     O13743   4.540   9.904   1.821 -1.2106  0.8195 -0.1854
  825MOL0     C13744   4.658   9.858   1.874 -0.2655  0.3919 -0.1377
  825MOL0     C13745   4.762   9.796   1.808 -0.4704  0.3390  0.5414
  825MOL0     C13746   4.885   9.762   1.871 -0.1661 -1.4666  0.1063
  825MOL0     C13747   4.890   9.774   2.011 -0.3675 -0.8957  0.1924
  825MOL0     O13748   5.001   9.740   2.090  0.0090  0.3386  0.7587
  825MOL0     C13749   5.121   9.692   2.028 -0.1709 -0.2289  0.1360
  825MOL0     C13750   5.198   9.801   1.943  1.2815  0.0086  0.7171
  825MOL0     C13751   5.252   9.900   2.034  0.5919 -0.0235 -0.3068
  825MOL0     C13752   5.361   9.984   1.967  0.4507  0.0553  0.0841
  825MOL0     C13753   5.431  10.102   2.058 -1.3219  0.7181  0.4579
  825MOL0     C13754   5.338  10.219   2.079  0.8732 -0.6295 -0.0286
  825MOL0     C13755   5.411  10.358   2.069 -0.0085 -0.5017 -0.2628
  825MOL0     C13756   5.415  10.441   1.930 -0.3876  0.1492 -0.6484
  825MOL0    Cl13757   5.241  10.487   1.874  0.0015  0.2302  0.1688
  825MOL0     C13758   4.782   9.815   2.088 -0.0120 -0.1317 -0.4843
  825MOL0     C13759   4.670   9.860   2.021 -0.0919 -0.4851  1.1154
  825MOL0     O13760   4.673  10.051   1.695  0.2521  0.3665 -0.1105
  825MOL0     C13761   4.315  10.004   1.741  0.3606  0.5075  0.3115
  825MOL0     C13762   4.183  10.049   1.714 -0.1876 -0.7842  0.2510
  825MOL0     N13763   3.854   9.798   1.154  0.5273  0.3386  0.4469
  825MOL0     N13764   3.800   9.829   1.041 -0.0788 -0.5500 -0.2048
  825MOL0     C13765   2.843   9.774   1.217 -0.6242  0.3244 -0.0290
  825MOL0     C13766   2.829   9.770   1.356 -0.0290  0.3610  0.3629
  825MOL0     C13767   2.693   9.747   1.781  0.9785 -0.0804  1.2002
  825MOL0     C13768   2.635   9.617   1.786  0.0078  0.1567 -1.7458
  825MOL0     C13769   2.589   9.570   1.913  0.0010  1.2824 -0.4233
  825MOL0     C13770   2.621   9.636   2.026 -0.2456 -0.1228 -0.2777
  825MOL0     O13771   2.591   9.582   2.147 -0.4348 -0.0154 -0.8098
  825MOL0     C13772   2.492   9.669   2.210 -0.3418  0.6309 -0.1138
  825MOL0     C13773   2.362   9.590   2.235 -1.0571  0.1924  0.0544
  825MOL0     C13774   2.260   9.579   2.126  0.1212  0.6919 -1.0997
  825MOL0     C13775   2.141   9.481   2.158 -0.5857 -0.5614 -0.2764
  825MOL0     C13776   2.076   9.536   2.275 -0.5887 -0.0429 -0.8146
  825MOL0     C13777   2.009   9.581   2.372  0.5528 -1.0354 -0.3302
  825MOL0     C13778   2.675   9.767   2.020  0.6853 -0.8398 -0.1912
  825MOL0     C13779   2.710   9.826   1.899  0.1784  0.5845 -0.2061
  825MOL0     C13780   2.749   9.975   1.901  0.3487 -0.1718  0.5221
  825MOL0     H13781   2.492   9.725   1.366 -0.6678 -1.3204 -1.1118
  825MOL0     H13782   2.523   9.720   1.120 -0.4227  0.7708  0.9820
  825MOL0     H13783   2.946   9.838   0.970  0.3709  0.0215  1.0258
  825MOL0     H13784   2.845   9.856   0.825  1.6113 -0.3086 -0.8675
  825MOL0     H13785   2.938   9.615   0.967 -2.0194 -0.1105  0.9112
  825MOL0     H13786   2.849   9.621   0.807  4.1841 -1.4241 -2.2132
  825MOL0     H13787   3.072   9.581   0.744  1.9981  0.1815 -0.0235
  825MOL0     H13788   3.037   9.737   0.687  2.0401  0.3947  1.3400
  825MOL0     H13789   3.149   9.829   0.900 -1.7909 -0.2965  0.2776
  825MOL0     H13790   3.211   9.654   0.922 -0.4637 -0.3894  0.3521
  825MOL0     H13791   3.231   9.817   0.675 -3.3464 -0.3193  2.1353
  825MOL0     H13792   3.328   9.668   0.716  0.5906 -0.2023  0.3812
  825MOL0     H13793   3.468   9.884   0.715  3.4939  0.4239  2.5609
  825MOL0     H13794   3.356   9.940   0.838  2.1481 -0.0010  0.3891
  825MOL0     H13795   3.571   9.713   0.845  0.8215 -0.1993  2.6128
  825MOL0     H13796   3.458   9.723   0.976 -1.8704  0.3462 -0.2134
  825MOL0     H13797   3.651   9.949   0.871 -1.4616  1.4677 -0.9850
  825MOL0     H13798   3.534   9.987   0.983 -0.5414  1.0725 -2.0953
  825MOL0     H13799   3.541   9.851   1.219  0.9962 -0.1083  1.9850
  825MOL0     H13800   3.845   9.715   1.411  1.2929  0.3324 -2.8440
  825MOL0     H13801   3.692   9.804   1.458  0.1574  1.0703 -0.3332
  825MOL0     H13802   3.978   9.911   1.420  0.0562  2.7903 -1.1010
  825MOL0     H13803   3.845  10.015   1.381 -0.4618 -1.5971 -2.5839
  825MOL0     H13804   3.750   9.992   1.607  0.2871  1.9656 -0.2122
  825MOL0     H13805   3.909   9.913   1.652 -2.0901 -0.6930  0.3502
  825MOL0     H13806   3.838  10.205   1.591  0.1826  2.1875  2.6729
  825MOL0     H13807   3.932  10.153   1.725 -0.1164 -1.1814  0.1878
  825MOL0     H13808   4.250  10.195   1.417  0.8336  1.7103  1.1167
  825MOL0     H13809   4.580  10.059   1.420  1.1805  0.1558 -0.4806
  825MOL0     H13810   4.565  10.232   1.491 -1.9170  3.0370 -2.7048
  825MOL0     H13811   4.473  10.178   1.353  1.2061  3.5473  1.2314
  825MOL0     H13812   4.763   9.780   1.701 -0.9524 -1.8649  0.8249
  825MOL0     H13813   4.971   9.727   1.814  2.7408  1.6247  2.1864
  825MOL0     H13814   5.187   9.646   2.102 -0.4691 -2.7476 -1.0657
  825MOL0     H13815   5.090   9.606   1.968  0.9770  0.0840 -0.9574
  825MOL0     H13816   5.274   9.750   1.883  0.6586  0.7886 -0.7921
  825MOL0     H13817   5.138   9.849   1.865  2.9773 -1.1509 -1.4266
  825MOL0     H13818   5.294   9.848   2.121 -0.9062 -0.7022  0.0499
  825MOL0     H13819   5.170   9.962   2.073 -2.4348 -4.2874  0.8143
  825MOL0     H13820   5.313  10.036   1.883  1.2200  0.1123 -0.3305
  825MOL0     H13821   5.438   9.916   1.929 -1.4659 -0.4100 -3.3710
  825MOL0     H13822   5.452  10.058   2.156  1.2524  0.5323 -0.1176
  825MOL0     H13823   5.528  10.128   2.016 -0.3274 -3.5570 -0.3370
  825MOL0     H13824   5.298  10.204   2.180 -1.2693 -0.6138 -0.8306
  825MOL0     H13825   5.251  10.210   2.013 -1.8656  1.9873  2.8782
  825MOL0     H13826   5.519  10.354   2.084 -0.1540  1.4309  1.7907
  825MOL0     H13827   5.374  10.422   2.149 -1.1780  1.8918 -2.5976
  825MOL0     H13828   5.474  10.382   1.859  1.9469 -0.6933  1.8137
  825MOL0     H13829   5.464  10.538   1.945 -2.7889  0.9111  4.2086
  825MOL0     H13830   4.779   9.826   2.196 -1.3831 -1.4084 -0.3717
  825MOL0     H13831   4.588   9.897   2.081 -1.5185  0.3465 -1.1850
  825MOL0     H13832   4.324   9.944   1.832  0.6611 -1.0886 -0.7293
  825MOL0     H13833   4.101  10.041   1.785  1.2367 -1.1342  1.9234
  825MOL0     H13834   2.945   9.782   1.181 -1.5244  0.6892 -2.6621
  825MOL0     H13835   2.914   9.797   1.416 -0.4934  1.1519  0.6706
  825MOL0     H13836   2.614   9.560   1.695  0.9880  0.9440 -2.4851
  825MOL0     H13837   2.542   9.474   1.931  1.3289  0.8856  1.1530
  825MOL0     H13838   2.525   9.711   2.305 -2.9242  4.1931 -0.6131
  825MOL0     H13839   2.472   9.755   2.145  1.4193  0.4369 -1.0067
  825MOL0     H13840   2.316   9.644   2.319  0.6462  1.5268  0.2078
  825MOL0     H13841   2.397   9.490   2.262 -1.4344 -0.6626 -2.4524
  825MOL0     H13842   2.231   9.680   2.094  0.9582  1.1642 -0.3972
  825MOL0     H13843   2.307   9.532   2.039  0.5517  0.5352 -0.7877
  825MOL0     H13844   2.163   9.374   2.164 -3.6869 -1.4665 -2.6092
  825MOL0     H13845   2.065   9.483   2.079  0.2286  1.8682 -1.0899
  825MOL0     H13846   1.945   9.600   2.456  1.0130  2.0138 -0.5724
  825MOL0     H13847   2.686   9.812   2.118 -2.4358  0.3825 -0.3180
  825MOL0     H13848   2.712  10.032   1.816 -0.1359  0.2706  1.0242
  825MOL0     H13849   2.701  10.024   1.986  1.7721  1.3686  0.4778
  825MOL0     H13850   2.858   9.986   1.899  0.1243  2.6350  0.8270
  826MOL0     O13851   7.335   1.301  10.152  0.2724  0.7861  0.1874
  826MOL0     C13852   7.294   1.187  10.159  0.3602 -0.0563 -0.4834
  826MOL0     O13853   7.365   1.073  10.135  0.4344  0.9775  0.0484
  826MOL0     C13854   7.487   1.071  10.077 -0.2200 -0.0561  0.1193
  826MOL0     C13855   7.572   1.174  10.032  0.0555 -0.1689 -0.0907
  826MOL0     C13856   7.695   1.145   9.963  0.2985 -0.9243  0.0975
  826MOL0     C13857   7.739   1.016   9.943 -0.2770 -0.4572  0.2800
  826MOL0     O13858   7.847   0.981   9.861 -1.2364  0.0481 -0.3669
  826MOL0     C13859   7.953   1.065   9.889  0.1297 -0.0689 -0.4465
  826MOL0     C13860   8.084   1.006   9.836  0.3488  0.2686 -0.3277
  826MOL0     C13861   8.097   0.858   9.884 -0.5857 -0.4219  0.0382
  826MOL0     C13862   8.243   0.801   9.867  0.4669  0.1197  0.2380
  826MOL0     C13863   8.248   0.644   9.872  0.2635 -0.2525  0.1498
  826MOL0     C13864   8.353   0.569   9.794  0.5882  0.0497 -0.2417
  826MOL0     C13865   8.331   0.419   9.791  0.7619 -0.2018  1.2350
  826MOL0     C13866   8.419   0.354   9.690  0.3600 -0.2501 -0.1929
  826MOL0     N13867   8.570   0.344   9.727 -0.0716  0.1850 -0.0489
  826MOL0     C13868   8.660   0.452   9.721  0.0317  0.4458  0.2201
  826MOL0     C13869   8.782   0.399   9.755  1.0282 -0.7945 -0.4100
  826MOL0     C13870   8.910   0.477   9.774  0.1810  0.7277  0.4941
  826MOL0     C13871   9.046   0.399   9.743  0.0485 -0.1173  0.1787
  826MOL0     C13872   9.164   0.423   9.832  0.9220 -0.1177  0.8633
  826MOL0     C13873   9.223   0.565   9.816 -0.8004  0.1425  0.2156
  826MOL0     O13874   9.320   0.589   9.921  0.0295 -0.7625  0.3190
  826MOL0     C13875   9.424   0.678   9.911  0.6098  0.3776  0.0545
  826MOL0     C13876   9.434   0.775   9.805 -0.5054  0.0971  0.4573
  826MOL0     C13877   9.545   0.870   9.790  0.1183  0.0215  0.3844
  826MOL0     C13878   9.546   0.966   9.685 -0.4506  0.2997  1.0921
  826MOL0     C13879   9.659   0.851   9.880  0.9009 -0.2754  0.8821
  826MOL0     C13880   9.780   0.940   9.869 -0.4329 -0.2637  0.4567
  826MOL0     O13881   9.847   0.957   9.994  0.4363 -0.1921 -0.1071
  826MOL0     C13882   9.976   1.012   9.987 -0.0173  0.6044  1.2185
  826MOL0     C13883  10.082   0.933  10.027 -0.2791  0.6765 -0.3381
  826MOL0     C13884  10.207   0.993  10.036  0.1174 -1.3555 -0.2629
  826MOL0     C13885  10.239   1.129  10.019  0.7714 -0.2838 -1.5191
  826MOL0     O13886  10.363   1.176  10.043 -0.5880 -0.0309  0.2077
  826MOL0     C13887  10.377   1.310  10.088 -0.3054  0.2761 -0.2528
  826MOL0     C13888  10.533   1.341  10.098 -0.3345  1.0627  0.0964
  826MOL0     C13889  10.610   1.257  10.205 -0.2886 -0.2578  0.3045
  826MOL0     C13890  10.759   1.290  10.197  0.9376 -0.2659 -1.0165
  826MOL0     C13891  10.834   1.199  10.296  0.2647 -0.6825  1.1699
  826MOL0     C13892  10.980   1.176  10.244 -0.0789 -1.3947  0.0733
  826MOL0     C13893  11.081   1.294  10.252  0.1775  0.7391 -0.4037
  826MOL0     C13894  11.106   1.343  10.381 -0.4020 -1.1882  0.0263
  826MOL0    Cl13895  11.231   1.471  10.378  0.3177  0.2088  0.0075
  826MOL0     C13896  10.128   1.210   9.985 -0.3868 -0.3769 -0.7676
  826MOL0     C13897   9.997   1.152   9.971  0.1323  0.1089  0.5684
  826MOL0     O13898   9.828   0.977   9.761  0.1130  0.0084 -0.6660
  826MOL0     C13899   9.647   0.753   9.980 -0.1940 -0.5813  0.1913
  826MOL0     C13900   9.537   0.666   9.996  0.0510  0.2284  0.0944
  826MOL0     N13901   8.768   0.264   9.771 -0.0112 -0.2469 -0.6409
  826MOL0     N13902   8.644   0.233   9.758 -0.0955 -0.2574  0.1496
  826MOL0     C13903   7.652   0.912   9.978  0.9067  0.2711 -0.7491
  826MOL0     C13904   7.530   0.937  10.035  0.2060  0.5025 -1.0398
  826MOL0     C13905   7.147   1.176  10.165  0.1351  0.3614 -0.7912
  826MOL0     C13906   7.062   1.262  10.091 -0.0390 -0.7162 -0.6157
  826MOL0     C13907   6.921   1.247  10.089  0.1757 -0.3266 -0.7353
  826MOL0     C13908   6.864   1.133  10.143  0.8462 -0.6160 -0.6041
  826MOL0     O13909   6.730   1.117  10.112 -0.0376  0.0222  0.6612
  826MOL0     C13910   6.642   1.032  10.195  0.0758 -0.1581  0.3790
  826MOL0     C13911   6.639   1.086  10.342 -0.4296 -0.2424  0.2561
  826MOL0     C13912   6.565   1.223  10.352  0.0655 -0.8727 -0.0307
  826MOL0     C13913   6.510   1.260  10.487 -0.8016 -0.2785  0.2324
  826MOL0     C13914   6.619   1.303  10.572  0.4778 -0.3200  0.1698
  826MOL0     C13915   6.710   1.348  10.639  1.3140 -0.2537 -0.6641
  826MOL0     C13916   6.941   1.057  10.223 -0.4352  0.3144 -0.4253
  826MOL0     C13917   7.081   1.084  10.244 -0.3018  0.7394  0.4509
  826MOL0     C13918   7.154   1.008  10.352 -0.9733  0.3911 -0.0947
  826MOL0     H13919   7.540   1.275  10.056  4.3129  0.8687  2.2970
  826MOL0     H13920   7.748   1.232   9.924  0.3406  0.6799  3.3791
  826MOL0     H13921   7.958   1.095   9.994  1.4267 -2.5668  0.2877
  826MOL0     H13922   7.950   1.161   9.836  1.9670  0.2416 -0.0875
  826MOL0     H13923   8.093   1.009   9.727 -0.8951 -2.7541 -0.5986
  826MOL0     H13924   8.160   1.071   9.882  0.3522  1.1016 -1.4581
  826MOL0     H13925   8.064   0.841   9.987 -3.6325  1.1521 -0.5542
  826MOL0     H13926   8.032   0.799   9.818  2.2148 -2.8426 -0.7374
  826MOL0     H13927   8.290   0.834   9.774 -1.1135  0.8188 -0.3506
  826MOL0     H13928   8.307   0.847   9.944 -1.5778  2.9809  0.4050
  826MOL0     H13929   8.150   0.602   9.849 -1.3089  1.3499  3.3617
  826MOL0     H13930   8.252   0.614   9.978 -2.2447  1.1353  0.6946
  826MOL0     H13931   8.349   0.607   9.691 -0.8912  0.4770 -0.0525
  826MOL0     H13932   8.456   0.590   9.824  0.2819  0.9614  0.2033
  826MOL0     H13933   8.228   0.404   9.757  0.3236 -2.0865  3.1248
  826MOL0     H13934   8.351   0.383   9.893 -1.2782  0.2252  1.8361
  826MOL0     H13935   8.375   0.259   9.659 -2.8760  1.5013 -1.4819
  826MOL0     H13936   8.420   0.419   9.602  0.6456  1.4686  1.0406
  826MOL0     H13937   8.650   0.556   9.688  2.6292  1.0554  1.1507
  826MOL0     H13938   8.909   0.521   9.875 -1.2242 -0.9234  1.2386
  826MOL0     H13939   8.900   0.553   9.696 -1.2396 -0.6464 -0.7160
  826MOL0     H13940   9.019   0.293   9.747 -1.8777  0.3590  1.3723
  826MOL0     H13941   9.078   0.407   9.639  0.5544 -4.3314 -0.1459
  826MOL0     H13942   9.144   0.395   9.936  2.7161 -2.2223  0.7277
  826MOL0     H13943   9.243   0.352   9.807  0.5604 -1.4816  3.2408
  826MOL0     H13944   9.281   0.556   9.723  0.8245 -2.8691  1.3563
  826MOL0     H13945   9.153   0.648   9.817  1.6086  2.3354  2.4734
  826MOL0     H13946   9.361   0.774   9.725  0.4827  0.2532 -0.4812
  826MOL0     H13947   9.446   0.989   9.646 -0.3541 -0.1505  0.5679
  826MOL0     H13948   9.611   0.914   9.613  0.4084 -3.4978  4.2923
  826MOL0     H13949   9.595   1.061   9.710 -1.1680  0.5784  1.4687
  826MOL0     H13950  10.063   0.828  10.048 -0.7340  1.1376  1.8268
  826MOL0     H13951  10.282   0.930  10.082 -1.7264 -2.7989  0.9262
  826MOL0     H13952  10.332   1.374  10.011  1.3642 -2.4753 -3.8113
  826MOL0     H13953  10.334   1.326  10.187 -0.5856 -0.6444 -0.2195
  826MOL0     H13954  10.576   1.328   9.998 -1.4629  1.9736 -0.5329
  826MOL0     H13955  10.536   1.448  10.120  0.6154  0.8874  0.9061
  826MOL0     H13956  10.586   1.154  10.179  2.4961 -0.1925 -3.3947
  826MOL0     H13957  10.573   1.276  10.306 -1.1868 -3.7582  0.7472
  826MOL0     H13958  10.773   1.397  10.217 -2.3319  0.2299 -0.7413
  826MOL0     H13959  10.786   1.267  10.094 -1.7422 -1.8791 -1.4550
  826MOL0     H13960  10.840   1.243  10.396  2.5860 -0.5233  1.0289
  826MOL0     H13961  10.792   1.098  10.289 -5.3131  1.3530 -0.1109
  826MOL0     H13962  10.987   1.139  10.142  0.2512  0.2373 -0.5244
  826MOL0     H13963  11.012   1.091  10.306 -2.3243 -2.5971 -0.2907
  826MOL0     H13964  11.035   1.380  10.202  2.6436  0.6523 -3.1232
  826MOL0     H13965  11.179   1.272  10.209 -0.3085 -0.5109 -0.9292
  826MOL0     H13966  11.163   1.273  10.442 -0.0039 -0.2709  0.7331
  826MOL0     H13967  11.019   1.383  10.435  0.5341 -2.3848  2.5747
  826MOL0     H13968  10.133   1.317   9.975 -0.3918 -0.1220  1.3721
  826MOL0     H13969   9.920   1.225   9.947  0.4737  0.6808  1.1719
  826MOL0     H13970   9.716   0.752  10.063 -2.2833 -0.4502  2.0414
  826MOL0     H13971   9.527   0.587  10.069  0.1027 -0.8749 -1.0631
  826MOL0     H13972   7.680   0.809   9.958  0.0712 -0.1402  0.1098
  826MOL0     H13973   7.473   0.847  10.055 -1.4996  1.6800 -0.4295
  826MOL0     H13974   7.111   1.345  10.042 -0.2923  1.4902  2.5685
  826MOL0     H13975   6.855   1.314  10.036  0.2480 -0.7656 -1.3840
  826MOL0     H13976   6.539   1.051  10.164 -0.2289 -0.7105  1.0177
  826MOL0     H13977   6.666   0.926  10.189  0.2742 -0.1088  0.2802
  826MOL0     H13978   6.743   1.104  10.369 -0.3332  1.7295 -1.1864
  826MOL0     H13979   6.579   1.020  10.406 -4.2328  1.2627 -1.4438
  826MOL0     H13980   6.639   1.300  10.326  0.2558 -0.7504  0.8283
  826MOL0     H13981   6.488   1.231  10.275  0.0677 -0.0892  0.0394
  826MOL0     H13982   6.457   1.176  10.533 -0.7017  1.0593  3.0313
  826MOL0     H13983   6.441   1.345  10.485  0.3220  0.6633  0.4125
  826MOL0     H13984   6.798   1.363  10.698  1.0224 -1.2728  0.0483
  826MOL0     H13985   6.883   0.983  10.277 -3.4103  4.2095  2.2631
  826MOL0     H13986   7.217   1.076  10.410 -2.0579 -0.6153  2.4194
  826MOL0     H13987   7.078   0.967  10.419 -0.9897  0.1546 -0.2575
  826MOL0     H13988   7.223   0.935  10.310 -1.5034 -0.0953 -0.1355
  827MOL0     O13989   7.722  10.115   6.368  0.0107  0.3147  0.0126
  827MOL0     C13990   7.654  10.217   6.354  0.3259 -0.1708  0.3025
  827MOL0     O13991   7.555  10.264   6.439  0.2756  0.5301 -0.1052
  827MOL0     C13992   7.505  10.182   6.536 -0.0987  0.0650 -0.5037
  827MOL0     C13993   7.383  10.120   6.505  0.0817 -0.5142 -0.4266
  827MOL0     C13994   7.319  10.028   6.587 -0.6299  0.1812 -0.8965
  827MOL0     C13995   7.395   9.984   6.702 -0.5030 -0.4762  0.4911
  827MOL0     O13996   7.333   9.904   6.785  0.9024  0.4835 -0.2829
  827MOL0     C13997   7.388   9.879   6.912  0.3563 -0.1766  0.5481
  827MOL0     C13998   7.274   9.813   6.990 -0.0696  0.3083  0.5239
  827MOL0     C13999   7.310   9.801   7.141  1.0270 -0.5061 -0.2940
  827MOL0     C14000   7.416   9.686   7.169 -0.4848 -0.1586  0.7768
  827MOL0     C14001   7.386   9.650   7.308  0.0807 -0.0754  1.1298
  827MOL0     C14002   7.499   9.554   7.364 -0.1318 -0.3677 -0.8020
  827MOL0     C14003   7.497   9.406   7.312  0.4154  0.5165 -0.2913
  827MOL0     C14004   7.618   9.355   7.224  0.2764  0.0164  0.5598
  827MOL0     N14005   7.630   9.437   7.101 -0.1154  0.0578 -0.8211
  827MOL0     C14006   7.712   9.552   7.079  0.3053  0.0071  0.4122
  827MOL0     C14007   7.703   9.587   6.952  1.3587  0.1365 -0.2347
  827MOL0     C14008   7.759   9.710   6.901 -0.3462 -0.4070 -0.4163
  827MOL0     C14009   7.866   9.684   6.798 -0.5840 -0.5629  0.2559
  827MOL0     C14010   7.927   9.815   6.739  0.0855  0.7537 -0.4388
  827MOL0     C14011   8.078   9.831   6.777  0.2769  0.3789  0.1169
  827MOL0     O14012   8.105   9.890   6.907  0.3930 -0.7086  0.1167
  827MOL0     C14013   8.243   9.889   6.945  0.1051  1.0231  1.0111
  827MOL0     C14014   8.323  10.008   6.963  0.7202 -0.2128  0.8030
  827MOL0     C14015   8.449  10.004   7.022 -0.1239  0.5152  0.1942
  827MOL0     C14016   8.527  10.127   7.047 -0.6961 -0.1643 -0.8908
  827MOL0     C14017   8.503   9.878   7.036 -0.5197  1.0118  0.3965
  827MOL0     C14018   8.644   9.862   7.062  0.3178 -0.7527  0.1012
  827MOL0     O14019   8.733   9.930   6.985  0.6172  0.1142 -0.3876
  827MOL0     C14020   8.869   9.929   7.000  1.2407  0.2631 -0.1858
  827MOL0     C14021   8.935  10.028   6.925  0.1491 -0.4915 -0.4276
  827MOL0     C14022   9.080  10.029   6.917 -0.2970 -0.6575 -0.4001
  827MOL0     C14023   9.144   9.938   7.003  0.2559  0.5867  0.9348
  827MOL0     O14024   9.283   9.912   6.987  0.3925  0.0705  0.2678
  827MOL0     C14025   9.356  10.024   7.036  0.1982 -0.0768 -0.9358
  827MOL0     C14026   9.500  10.030   6.991 -1.7193 -0.4902 -0.3811
  827MOL0     C14027   9.510  10.067   6.839 -0.6186  0.3222 -0.8619
  827MOL0     C14028   9.658  10.099   6.808 -0.9052 -0.1826 -0.0884
  827MOL0     C14029   9.676  10.131   6.653 -0.0814 -0.3609 -0.1286
  827MOL0     C14030   9.615  10.262   6.611 -0.1717 -0.6786  0.7322
  827MOL0     C14031   9.546  10.246   6.473  0.7236 -0.4810  0.3635
  827MOL0     C14032   9.524  10.380   6.404 -0.7768  0.2030  0.1654
  827MOL0    Cl14033   9.657  10.484   6.392  0.1824 -0.1577  0.0666
  827MOL0     C14034   9.073   9.841   7.084 -0.4882 -0.2410  0.1592
  827MOL0     C14035   8.937   9.833   7.075 -0.1650 -0.1708  1.6453
  827MOL0     O14036   8.671   9.799   7.160 -0.5448 -0.0804 -0.4554
  827MOL0     C14037   8.437   9.759   7.010  0.1600 -0.2106 -0.8040
  827MOL0     C14038   8.309   9.772   6.960  0.3531  0.8375 -1.1755
  827MOL0     N14039   7.607   9.496   6.902 -0.1158  0.2804 -0.3708
  827MOL0     N14040   7.570   9.414   6.992  0.1967 -0.0259  0.0459
  827MOL0     C14041   7.525  10.036   6.727  0.2062 -0.2961 -0.9560
  827MOL0     C14042   7.574  10.141   6.645 -0.0454  0.7390  0.2715
  827MOL0     C14043   7.651  10.277   6.215 -0.7995 -0.3853 -0.7027
  827MOL0     C14044   7.760  10.235   6.130  0.4738  0.6430  0.3577
  827MOL0     C14045   7.784  10.290   6.003  0.1279 -0.4781 -1.1905
  827MOL0     C14046   7.696  10.382   5.946  0.0497 -0.3937  1.0391
  827MOL0     O14047   7.704  10.451   5.824 -0.8657  0.0927  0.9009
  827MOL0     C14048   7.843  10.492   5.803 -1.1489 -0.2642 -0.6768
  827MOL0     C14049   7.852  10.631   5.737 -0.3590  0.3959  0.8798
  827MOL0     C14050   7.819  10.610   5.590 -0.6781  0.8507 -1.0688
  827MOL0     C14051   7.820  10.738   5.508  0.4824  0.0160  0.1560
  827MOL0     C14052   7.908  10.738   5.384  0.1354 -0.5488 -0.5185
  827MOL0     C14053   7.968  10.752   5.286 -0.0141  0.8258 -0.4843
  827MOL0     C14054   7.593  10.420   6.037 -0.1436  0.7886  0.3953
  827MOL0     C14055   7.564  10.377   6.168 -0.0852  0.8860  0.0092
  827MOL0     C14056   7.438  10.429   6.226 -0.1336 -0.8150  0.2015
  827MOL0     H14057   7.319  10.132   6.418 -0.6685 -4.9059 -0.6766
  827MOL0     H14058   7.226   9.984   6.551  0.2068 -0.6962 -2.0345
  827MOL0     H14059   7.416   9.969   6.967 -0.8386  0.0359  0.8498
  827MOL0     H14060   7.472   9.810   6.907  0.0433 -0.5878  0.8542
  827MOL0     H14061   7.185   9.874   6.974  1.6530  2.6727 -0.7212
  827MOL0     H14062   7.262   9.712   6.951  0.3717 -0.3991  2.1447
  827MOL0     H14063   7.355   9.899   7.163 -1.5870  0.2923  2.0612
  827MOL0     H14064   7.217   9.805   7.198  0.2961  0.4481 -1.4802
  827MOL0     H14065   7.405   9.605   7.097  2.5689  0.6673 -0.7994
  827MOL0     H14066   7.511   9.739   7.152 -2.1710  2.3303 -1.7308
  827MOL0     H14067   7.290   9.602   7.330  0.8599 -1.0925  2.5148
  827MOL0     H14068   7.376   9.742   7.367 -3.5572  0.6005 -0.2496
  827MOL0     H14069   7.598   9.591   7.335  1.6173 -2.3905  2.1159
  827MOL0     H14070   7.490   9.542   7.472  1.0588 -0.1747 -0.6774
  827MOL0     H14071   7.410   9.396   7.247  0.3470 -0.0039 -0.1231
  827MOL0     H14072   7.486   9.337   7.396  2.4343 -1.8158 -1.7968
  827MOL0     H14073   7.705   9.359   7.290  2.5161 -3.7603 -1.7916
  827MOL0     H14074   7.594   9.253   7.193 -2.1197  0.8926 -0.7878
  827MOL0     H14075   7.770   9.611   7.149  1.2808 -1.2793  0.7260
  827MOL0     H14076   7.804   9.773   6.979 -1.9523  0.3467 -0.0631
  827MOL0     H14077   7.680   9.768   6.852 -1.9675 -2.0829  0.1214
  827MOL0     H14078   7.946   9.620   6.836 -0.0175  0.3047  0.5558
  827MOL0     H14079   7.806   9.639   6.719 -0.2087 -1.2364  0.3462
  827MOL0     H14080   7.929   9.817   6.629  0.5640  1.0411 -0.4317
  827MOL0     H14081   7.882   9.910   6.770 -3.4779 -1.2760  1.1678
  827MOL0     H14082   8.126   9.733   6.772  1.6759  0.6618  4.4558
  827MOL0     H14083   8.111   9.903   6.701  0.1396 -1.6775 -2.0050
  827MOL0     H14084   8.286  10.108   6.943  2.4419  0.1662 -0.6969
  827MOL0     H14085   8.461  10.202   7.090  0.7112  1.8763 -2.1424
  827MOL0     H14086   8.570  10.164   6.954 -0.7686  2.8211  0.1616
  827MOL0     H14087   8.618  10.108   7.105  0.4484 -0.2656 -2.6412
  827MOL0     H14088   8.873  10.107   6.884 -0.6890  0.5820  2.5939
  827MOL0     H14089   9.136  10.101   6.857 -2.6088  0.8383 -0.8955
  827MOL0     H14090   9.307  10.121   7.023 -2.6346 -0.8993  2.2674
  827MOL0     H14091   9.377  10.004   7.141  3.0119 -0.7077 -1.5234
  827MOL0     H14092   9.550  10.107   7.051  2.9334 -3.6282  0.3229
  827MOL0     H14093   9.556   9.937   7.003 -0.5351  0.1770 -0.6043
  827MOL0     H14094   9.441  10.152   6.833 -0.1605  1.0425  2.3417
  827MOL0     H14095   9.477   9.980   6.783 -0.0643 -0.7275  0.3862
  827MOL0     H14096   9.713  10.008   6.835 -0.5796 -0.3639 -1.3152
  827MOL0     H14097   9.694  10.187   6.861  0.6370 -0.0941 -1.2100
  827MOL0     H14098   9.783  10.134   6.630 -0.1369  1.9130 -0.2886
  827MOL0     H14099   9.633  10.052   6.590  0.3029  0.6258 -1.6913
  827MOL0     H14100   9.692  10.339   6.610 -0.5552 -0.2619 -1.3292
  827MOL0     H14101   9.533  10.286   6.680 -2.1806 -5.5903  0.5198
  827MOL0     H14102   9.446  10.201   6.480  1.2288 -1.6595  0.1463
  827MOL0     H14103   9.602  10.179   6.407  2.5120  1.6645 -0.4096
  827MOL0     H14104   9.438  10.432   6.445 -0.2395  1.0853  0.2135
  827MOL0     H14105   9.501  10.346   6.302 -0.1972 -1.6442  0.6175
  827MOL0     H14106   9.140   9.771   7.133  2.1779  2.3772  0.5777
  827MOL0     H14107   8.891   9.747   7.122  0.6953 -2.0281 -0.7347
  827MOL0     H14108   8.486   9.663   7.021  0.5628  0.2906  2.6649
  827MOL0     H14109   8.240   9.689   6.947 -0.6934  1.1454  1.5304
  827MOL0     H14110   7.584  10.025   6.817 -1.1489  1.2209  0.1691
  827MOL0     H14111   7.668  10.190   6.669 -0.8608  1.5400  1.9833
  827MOL0     H14112   7.838  10.168   6.166  2.3777  2.6083  0.0906
  827MOL0     H14113   7.870  10.254   5.947 -0.1937 -4.3354  0.4635
  827MOL0     H14114   7.899  10.494   5.896 -2.7308  0.4872  0.3081
  827MOL0     H14115   7.885  10.418   5.735 -1.8627 -1.4225  0.1083
  827MOL0     H14116   7.945  10.688   5.743  1.6517 -1.7719 -4.3364
  827MOL0     H14117   7.772  10.687   5.785 -3.0298 -1.3592 -1.2276
  827MOL0     H14118   7.883  10.537   5.540 -0.0305 -0.2058  1.1683
  827MOL0     H14119   7.712  10.586   5.586 -0.7763  0.7877  0.8824
  827MOL0     H14120   7.840  10.815   5.583 -0.6964  1.3950 -0.8850
  827MOL0     H14121   7.716  10.754   5.477  0.4989  1.2171  0.6700
  827MOL0     H14122   8.030  10.779   5.203  1.6667  3.0126  1.3469
  827MOL0     H14123   7.525  10.495   5.998 -1.8206  0.8116  3.1177
  827MOL0     H14124   7.380  10.338   6.242  1.8249 -2.1026  0.3817
  827MOL0     H14125   7.440  10.468   6.328  1.5627 -2.9709  1.0642
  827MOL0     H14126   7.382  10.495   6.159 -0.7995  1.1967  2.6158
  828MOL0     O14127   8.540  10.114   7.732  0.7319  0.2077 -0.0499
  828MOL0     C14128   8.542  10.172   7.841 -0.9428  0.2584 -0.1338
  828MOL0     O14129   8.524  10.112   7.967  0.0155 -0.7317  0.1453
  828MOL0     C14130   8.471   9.992   7.969 -0.5099  0.8069  0.1352
  828MOL0     C14131   8.525   9.886   7.902  0.4630 -0.3506 -1.0467
  828MOL0     C14132   8.463   9.758   7.908  0.0837  1.1481  0.1477
  828MOL0     C14133   8.346   9.732   7.965 -0.8696 -1.2656 -0.1698
  828MOL0     O14134   8.297   9.603   7.953 -0.2870 -0.5033 -0.2747
  828MOL0     C14135   8.192   9.559   8.038  0.6441  0.5786 -0.0050
  828MOL0     C14136   8.065   9.577   7.955 -0.4659  0.0243  0.0382
  828MOL0     C14137   7.936   9.504   8.010 -0.1606 -1.0066  0.9027
  828MOL0     C14138   7.873   9.588   8.123 -0.1297 -0.3932 -0.1530
  828MOL0     C14139   7.797   9.490   8.215 -0.1681  0.2519  0.1284
  828MOL0     C14140   7.753   9.566   8.342  0.5516  0.7091  0.2205
  828MOL0     C14141   7.678   9.482   8.449  0.7361 -0.4840 -0.0936
  828MOL0     C14142   7.566   9.396   8.403 -0.3627 -0.3413 -0.1284
  828MOL0     N14143   7.492   9.338   8.516 -0.0110 -0.3666 -0.1239
  828MOL0     C14144   7.460   9.204   8.509 -0.4235 -0.1724 -0.5395
  828MOL0     C14145   7.398   9.175   8.629 -0.6739  0.3552  1.1069
  828MOL0     C14146   7.344   9.043   8.675  0.6102  0.2708 -0.7489
  828MOL0     C14147   7.406   8.982   8.808  0.2275  0.1776  0.8202
  828MOL0     C14148   7.557   8.963   8.805  0.0876 -1.0478  0.8034
  828MOL0     C14149   7.594   8.910   8.941  0.4758 -0.2971  0.6996
  828MOL0     O14150   7.737   8.911   8.954  0.0952 -0.1606 -0.6961
  828MOL0     C14151   7.791   8.834   9.052  0.4955 -0.1027 -0.4216
  828MOL0     C14152   7.924   8.811   9.043  0.8657  0.0395 -0.8485
  828MOL0     C14153   7.986   8.716   9.132 -0.1418  1.6058  0.4151
  828MOL0     C14154   8.137   8.707   9.111 -0.5920 -0.4920  1.0827
  828MOL0     C14155   7.915   8.670   9.245  0.1441  0.2872  0.0907
  828MOL0     C14156   7.978   8.594   9.357 -0.2131 -1.2357  0.1010
  828MOL0     O14157   8.116   8.606   9.378 -0.2488 -0.2328 -0.7251
  828MOL0     C14158   8.180   8.579   9.494  0.1807  0.0787  0.0346
  828MOL0     C14159   8.320   8.545   9.478  1.0905  1.6775 -0.4561
  828MOL0     C14160   8.388   8.507   9.593 -0.8147 -0.5607  0.9520
  828MOL0     C14161   8.324   8.490   9.711  0.2316 -0.1525  0.1429
  828MOL0     O14162   8.388   8.427   9.812  0.4244  0.8068  0.4285
  828MOL0     C14163   8.406   8.515   9.922 -0.7001 -0.3485 -0.1038
  828MOL0     C14164   8.558   8.523   9.970  0.2754 -0.1245 -0.4040
  828MOL0     C14165   8.657   8.558   9.863 -0.2655 -0.1425  1.5641
  828MOL0     C14166   8.800   8.557   9.913 -0.0156 -0.0580  1.3802
  828MOL0     C14167   8.883   8.618   9.803  0.2172  0.2232 -0.0116
  828MOL0     C14168   9.031   8.608   9.823  0.0193  0.2715  0.1591
  828MOL0     C14169   9.112   8.736   9.792 -0.1475  0.3904  0.2744
  828MOL0     C14170   9.259   8.682   9.800 -0.3136 -0.0450  0.1397
  828MOL0    Cl14171   9.371   8.787   9.708  0.1347 -0.4278 -0.2624
  828MOL0     C14172   8.193   8.519   9.729  0.6531 -0.1580 -0.7758
  828MOL0     C14173   8.118   8.575   9.627  0.2431  1.1366 -0.2261
  828MOL0     O14174   7.900   8.512   9.414  0.0229  0.9986  0.0390
  828MOL0     C14175   7.782   8.708   9.261  0.7804  0.1642 -0.8153
  828MOL0     C14176   7.713   8.777   9.163 -0.3488 -0.0570  0.3471
  828MOL0     N14177   7.395   9.292   8.702 -0.2288  0.0855 -0.5863
  828MOL0     N14178   7.453   9.384   8.639  0.8063  1.4466  0.0905
  828MOL0     C14179   8.290   9.834   8.037 -0.0437 -0.1064 -0.1326
  828MOL0     C14180   8.354   9.964   8.040  0.4218 -1.4749  0.0704
  828MOL0     C14181   8.579  10.314   7.835  0.4104 -1.0237 -0.4110
  828MOL0     C14182   8.488  10.390   7.907  0.2647  0.4850 -0.2804
  828MOL0     C14183   8.499  10.527   7.926 -0.6707  0.3870  0.9912
  828MOL0     C14184   8.604  10.594   7.863 -0.3623  0.1838 -0.3560
  828MOL0     O14185   8.616  10.726   7.868 -0.6205  0.2264 -0.2264
  828MOL0     C14186   8.691  10.791   7.767  0.9525 -0.6719  0.9749
  828MOL0     C14187   8.689  10.939   7.789  0.2184  0.2587 -0.0072
  828MOL0     C14188   8.762  11.007   7.675  0.5367 -1.6003 -0.2004
  828MOL0     C14189   8.921  11.025   7.706  0.5164 -0.0185 -0.5453
  828MOL0     C14190   8.962  11.146   7.639 -0.5972  0.5601  0.0858
  828MOL0     C14191   9.008  11.243   7.581  0.0156  0.0956 -0.0198
  828MOL0     C14192   8.701  10.514   7.789  0.3054 -0.2398 -0.5796
  828MOL0     C14193   8.692  10.379   7.776  0.7453 -1.2449  0.2387
  828MOL0     C14194   8.798  10.287   7.723  0.1356 -0.4020 -0.2643
  828MOL0     H14195   8.620   9.890   7.850  2.1618 -2.0237  1.6696
  828MOL0     H14196   8.526   9.696   7.844  3.0021  3.1412  0.8839
  828MOL0     H14197   8.183   9.613   8.133 -1.9956 -0.3477  0.3778
  828MOL0     H14198   8.196   9.450   8.052  2.5853  0.6123 -0.0444
  828MOL0     H14199   8.043   9.682   7.932 -1.1188  0.1730  1.2415
  828MOL0     H14200   8.082   9.528   7.859  0.2203 -1.1675  0.7471
  828MOL0     H14201   7.865   9.514   7.928  1.6928  0.6067 -0.6061
  828MOL0     H14202   7.958   9.400   8.036  0.2264 -0.9675  0.7388
  828MOL0     H14203   7.943   9.650   8.180 -2.3525  0.9625  1.2616
  828MOL0     H14204   7.801   9.658   8.079 -2.0294 -2.9499 -1.3571
  828MOL0     H14205   7.871   9.422   8.256 -0.3544  1.0110  1.8031
  828MOL0     H14206   7.710   9.447   8.164 -1.0152 -0.8040  2.3319
  828MOL0     H14207   7.842   9.599   8.397  0.8401 -0.2227  0.3320
  828MOL0     H14208   7.690   9.651   8.318 -0.2666  0.0170 -0.1369
  828MOL0     H14209   7.635   9.539   8.532 -5.7534 -1.4197 -2.2853
  828MOL0     H14210   7.747   9.412   8.498  2.6900  0.4309 -1.3792
  828MOL0     H14211   7.496   9.464   8.353 -0.3647  1.5471  2.2401
  828MOL0     H14212   7.592   9.317   8.333 -1.8034  2.0933 -3.7294
  828MOL0     H14213   7.476   9.138   8.423 -2.2385 -0.1363 -0.9406
  828MOL0     H14214   7.339   8.964   8.599  0.2562 -1.6305  1.1423
  828MOL0     H14215   7.241   9.064   8.704  0.8491 -1.2032  1.4457
  828MOL0     H14216   7.385   9.047   8.893  0.9841 -0.6599  1.6617
  828MOL0     H14217   7.340   8.896   8.820 -1.1455  1.5849  5.1271
  828MOL0     H14218   7.582   8.897   8.722  1.4539 -1.3586  1.4283
  828MOL0     H14219   7.600   9.061   8.781 -1.7449  0.1921  2.2658
  828MOL0     H14220   7.550   8.975   9.016 -1.6977 -0.9616  0.0653
  828MOL0     H14221   7.537   8.818   8.957  2.3972 -1.9362 -1.0690
  828MOL0     H14222   7.973   8.856   8.958  0.1213 -0.0525 -1.3349
  828MOL0     H14223   8.161   8.724   9.006 -2.8268  0.6927  0.6846
  828MOL0     H14224   8.182   8.610   9.135  0.0078  0.1126  2.5119
  828MOL0     H14225   8.198   8.774   9.171  2.0558 -2.4086  0.7068
  828MOL0     H14226   8.380   8.538   9.389  0.2243  0.0756 -0.9558
  828MOL0     H14227   8.495   8.490   9.582 -0.9739 -0.2267 -1.7734
  828MOL0     H14228   8.366   8.616   9.906 -0.6478 -0.0579  1.4235
  828MOL0     H14229   8.343   8.487  10.008 -3.0480  1.9802 -0.9288
  828MOL0     H14230   8.565   8.588  10.058 -0.4768 -0.9577  0.2901
  828MOL0     H14231   8.587   8.432  10.022 -1.3776  0.1443  1.0585
  828MOL0     H14232   8.635   8.654   9.815  2.0231 -1.7571 -3.4156
  828MOL0     H14233   8.651   8.485   9.783  0.2110  0.5008  0.9259
  828MOL0     H14234   8.818   8.455   9.946 -0.0591 -0.4591  0.2176
  828MOL0     H14235   8.806   8.621  10.001  3.3380 -0.6012  1.6857
  828MOL0     H14236   8.854   8.572   9.708 -0.1498 -0.6212  0.4931
  828MOL0     H14237   8.858   8.724   9.795  0.2609  0.2094 -0.3481
  828MOL0     H14238   9.064   8.537   9.747 -0.6122 -0.2833  0.3967
  828MOL0     H14239   9.045   8.566   9.923 -0.3954 -0.5614 -0.1259
  828MOL0     H14240   9.097   8.822   9.858  0.7122 -0.9359  2.3025
  828MOL0     H14241   9.089   8.763   9.688  2.9630 -2.6203 -1.3584
  828MOL0     H14242   9.269   8.580   9.763 -0.4615 -0.5797  1.5068
  828MOL0     H14243   9.285   8.683   9.906  0.9334 -2.2307 -0.0925
  828MOL0     H14244   8.142   8.491   9.820 -3.1196  0.3349 -2.5501
  828MOL0     H14245   8.018   8.614   9.640 -0.2048  0.5647 -1.7721
  828MOL0     H14246   7.717   8.697   9.347  0.4976 -2.7834 -1.3011
  828MOL0     H14247   7.609   8.807   9.166 -0.1506  0.6245  0.4564
  828MOL0     H14248   8.198   9.808   8.089  2.1158 -3.6854  2.3209
  828MOL0     H14249   8.302  10.040   8.096 -1.8065 -1.0493 -2.4083
  828MOL0     H14250   8.404  10.350   7.964  1.1938  0.5275  1.1786
  828MOL0     H14251   8.417  10.580   7.973  0.7880  2.1024  1.7306
  828MOL0     H14252   8.792  10.749   7.759  1.1596 -0.0832  0.3746
  828MOL0     H14253   8.635  10.772   7.675 -1.4330  1.5599  1.8572
  828MOL0     H14254   8.735  10.958   7.886  0.6722  0.4575 -0.2574
  828MOL0     H14255   8.586  10.975   7.783  0.0720 -0.3737 -1.7984
  828MOL0     H14256   8.753  10.950   7.582  0.1742  1.7257 -2.3670
  828MOL0     H14257   8.716  11.106   7.672  1.7332 -1.0061  0.4994
  828MOL0     H14258   8.984  10.941   7.675  0.2385  0.0265 -1.2565
  828MOL0     H14259   8.934  11.044   7.813  2.1153  0.4182 -0.7811
  828MOL0     H14260   9.042  11.323   7.518  0.9613 -2.3762 -2.8922
  828MOL0     H14261   8.782  10.566   7.739  2.6948 -2.4837  0.7247
  828MOL0     H14262   8.829  10.216   7.801  0.7367  0.0989 -0.0377
  828MOL0     H14263   8.754  10.236   7.636 -2.2764  1.4420 -0.2086
  828MOL0     H14264   8.884  10.340   7.680  1.3354 -0.8276  1.4967
  829MOL0     O14265   3.818   0.916  10.424  0.0541 -0.3958  0.0523
  829MOL0     C14266   3.723   0.908  10.495 -0.6120  0.5547 -0.8857
  829MOL0     O14267   3.654   0.792  10.522 -0.1574 -0.5824  0.8862
  829MOL0     C14268   3.692   0.677  10.458 -0.1061 -0.2156  0.8625
  829MOL0     C14269   3.595   0.596  10.396 -0.8115  0.2631 -1.1269
  829MOL0     C14270   3.626   0.457  10.375 -0.6788  0.4034  0.5455
  829MOL0     C14271   3.753   0.402  10.379 -0.0541 -1.0987  0.0872
  829MOL0     O14272   3.769   0.279  10.352 -0.1985 -0.9430  0.2844
  829MOL0     C14273   3.902   0.213  10.355  0.5889  0.0381 -0.0189
  829MOL0     C14274   3.870   0.081  10.286 -0.6404 -0.3779  0.6086
  829MOL0     C14275   3.847   0.082  10.135  0.3182  0.2053 -0.2565
  829MOL0     C14276   3.959   0.151  10.057 -0.4888  0.1738  0.5634
  829MOL0     C14277   3.964   0.107   9.913 -0.5951  0.9110  0.2638
  829MOL0     C14278   4.067   0.196   9.840  0.5989 -0.4029 -0.3072
  829MOL0     C14279   4.075   0.167   9.690  0.3580 -0.4554  0.8540
  829MOL0     C14280   3.958   0.229   9.593 -0.7360  0.4541 -1.1980
  829MOL0     N14281   3.976   0.222   9.448 -0.1168  0.1722 -0.4226
  829MOL0     C14282   3.889   0.279   9.365  0.2451  0.6269  0.2575
  829MOL0     C14283   3.953   0.269   9.246  1.1936 -0.2331  0.3757
  829MOL0     C14284   3.911   0.302   9.107  0.1781 -0.4410  0.1544
  829MOL0     C14285   3.796   0.209   9.057 -0.1626  0.1929 -0.9760
  829MOL0     C14286   3.664   0.228   9.136  0.1576  0.4736 -0.5105
  829MOL0     C14287   3.623   0.375   9.133 -0.3977 -0.2816  0.5535
  829MOL0     O14288   3.487   0.370   9.179 -0.3397 -0.6078  0.5705
  829MOL0     C14289   3.398   0.472   9.138  0.1799  0.4160 -0.0288
  829MOL0     C14290   3.431   0.595   9.076  0.7853  1.1620  0.4079
  829MOL0     C14291   3.340   0.694   9.063  0.3919  0.5416  0.8059
  829MOL0     C14292   3.387   0.824   9.004 -0.6632  0.3119  0.6515
  829MOL0     C14293   3.201   0.674   9.096  0.5962  0.0023  0.5830
  829MOL0     C14294   3.088   0.777   9.082 -1.3588  0.1369 -0.1890
  829MOL0     O14295   2.978   0.761   9.155  0.3403 -0.7255 -0.3234
  829MOL0     C14296   2.868   0.849   9.143  0.2515  0.0706  0.1312
  829MOL0     C14297   2.820   0.905   9.021  0.7584 -0.1537 -0.3348
  829MOL0     C14298   2.705   0.986   9.026  0.3820 -0.6605  0.5324
  829MOL0     C14299   2.653   1.021   9.149  0.1066  0.4351  0.6754
  829MOL0     O14300   2.551   1.110   9.152 -0.0589 -0.5722 -0.3243
  829MOL0     C14301   2.426   1.060   9.207 -0.3114  0.3627  0.6516
  829MOL0     C14302   2.332   1.177   9.208  0.1938 -0.7140 -1.0329
  829MOL0     C14303   2.225   1.167   9.306  0.5361  0.7138  0.4567
  829MOL0     C14304   2.208   1.311   9.367 -0.4024  0.6548  0.8229
  829MOL0     C14305   2.083   1.313   9.452  0.0487  0.5590  0.4071
  829MOL0     C14306   2.073   1.432   9.553  0.0365  0.6601  0.3938
  829MOL0     C14307   2.115   1.569   9.497 -0.2896  0.3171 -0.1189
  829MOL0     C14308   2.064   1.684   9.584 -0.1451 -0.3591  0.5216
  829MOL0    Cl14309   2.142   1.685   9.749  0.1366  0.4922  0.2677
  829MOL0     C14310   2.703   0.962   9.265  0.8148  0.0651  0.7220
  829MOL0     C14311   2.799   0.866   9.259  0.1250 -1.3026 -0.2817
  829MOL0     O14312   3.103   0.859   8.997 -0.1432 -0.1936  0.2493
  829MOL0     C14313   3.184   0.566   9.179 -0.2864  0.4113 -0.5203
  829MOL0     C14314   3.272   0.456   9.188  0.2240  0.5927 -0.7095
  829MOL0     N14315   4.083   0.214   9.257  0.7360 -0.6588 -0.5372
  829MOL0     N14316   4.089   0.185   9.384  1.1412  0.2434 -0.5347
  829MOL0     C14317   3.858   0.486  10.420  0.1101  0.1583  1.0452
  829MOL0     C14318   3.826   0.618  10.466 -0.8150  0.7323 -0.4732
  829MOL0     C14319   3.685   1.030  10.571  0.6044  0.2584 -0.4854
  829MOL0     C14320   3.612   1.018  10.688 -0.3140  0.2272  0.8108
  829MOL0     C14321   3.566   1.123  10.764 -0.5666  1.4110  0.0931
  829MOL0     C14322   3.598   1.252  10.734  0.2194  0.2264 -0.2623
  829MOL0     O14323   3.576   1.365  10.808  0.0302  0.0544 -0.4969
  829MOL0     C14324   3.570   1.348  10.949 -0.0254  0.4274  1.0797
  829MOL0     C14325   3.550   1.482  11.023  0.7733 -0.2918  1.6278
  829MOL0     C14326   3.406   1.538  10.987  0.1670 -0.3515  0.1883
  829MOL0     C14327   3.377   1.657  11.075  0.5223  0.4329 -0.0129
  829MOL0     C14328   3.444   1.776  11.023  0.3087  0.2686  0.0812
  829MOL0     C14329   3.484   1.873  10.959  0.1321  0.3687 -1.0299
  829MOL0     C14330   3.665   1.274  10.613  0.6782 -0.4651  0.3650
  829MOL0     C14331   3.704   1.162  10.528 -0.9690 -0.0229  0.8433
  829MOL0     C14332   3.767   1.187  10.393 -0.3433  0.0338 -0.1273
  829MOL0     H14333   3.491   0.628  10.389 -1.2631 -0.3647  1.4391
  829MOL0     H14334   3.557   0.376  10.351 -0.5088  1.2286 -3.3357
  829MOL0     H14335   3.945   0.201  10.455 -1.5119  2.6173  1.3431
  829MOL0     H14336   3.961   0.282  10.294 -0.9911  0.4394 -1.1569
  829MOL0     H14337   3.964   0.025  10.296  0.3647  1.3923  1.6939
  829MOL0     H14338   3.787   0.031  10.337 -0.2680  0.3834  2.0321
  829MOL0     H14339   3.840  -0.019  10.094  0.4855 -0.9622  2.4137
  829MOL0     H14340   3.758   0.138  10.102 -0.0527 -0.4300 -0.3482
  829MOL0     H14341   3.937   0.258  10.049 -1.6115 -0.1357 -0.9430
  829MOL0     H14342   4.056   0.144  10.107  1.7359 -0.9540 -3.4766
  829MOL0     H14343   3.867   0.118   9.863 -0.5886 -0.2738 -0.0431
  829MOL0     H14344   3.976  -0.001   9.904 -0.3846  0.8727  0.9638
  829MOL0     H14345   4.031   0.296   9.865 -1.2460 -1.0725 -0.1631
  829MOL0     H14346   4.167   0.191   9.884  1.3710  3.3012 -1.2642
  829MOL0     H14347   4.066   0.060   9.666 -2.7111 -0.1553  0.2325
  829MOL0     H14348   4.169   0.206   9.652  1.1782 -1.3111  1.9314
  829MOL0     H14349   3.861   0.183   9.616 -0.8944 -0.5445 -3.5363
  829MOL0     H14350   3.958   0.333   9.627 -0.7678  0.4404 -1.1553
  829MOL0     H14351   3.793   0.328   9.379 -2.1095 -2.9866 -1.6316
  829MOL0     H14352   3.997   0.290   9.040 -0.7162  0.4906 -1.1917
  829MOL0     H14353   3.891   0.408   9.091  0.7725 -0.8095 -4.0372
  829MOL0     H14354   3.777   0.227   8.951  2.0467 -1.1762 -1.6812
  829MOL0     H14355   3.836   0.109   9.074  1.9106  0.8189 -1.7906
  829MOL0     H14356   3.593   0.172   9.074  1.7270  1.1375 -3.0431
  829MOL0     H14357   3.657   0.166   9.226  1.0956 -0.9535 -1.3828
  829MOL0     H14358   3.678   0.441   9.201 -3.0966  0.0892  2.5444
  829MOL0     H14359   3.636   0.407   9.029  0.8446 -1.4799  0.2981
  829MOL0     H14360   3.537   0.607   9.056  1.2467  0.0477  1.9949
  829MOL0     H14361   3.496   0.826   8.993 -0.8780  1.0129 -2.1909
  829MOL0     H14362   3.357   0.905   9.071 -0.1576  0.9619  0.1190
  829MOL0     H14363   3.349   0.845   8.904  1.4377  3.1163  0.3059
  829MOL0     H14364   2.863   0.888   8.923  0.2993 -1.6788 -0.3011
  829MOL0     H14365   2.654   1.034   8.943  2.0503 -1.2805 -0.9038
  829MOL0     H14366   2.394   0.993   9.128  3.4764  0.3214 -1.0883
  829MOL0     H14367   2.440   1.015   9.306  0.1402 -1.3149 -0.1351
  829MOL0     H14368   2.398   1.262   9.228  1.5619 -2.0566  0.4920
  829MOL0     H14369   2.289   1.197   9.109  0.5810 -0.8132 -1.2225
  829MOL0     H14370   2.247   1.094   9.384 -0.8382 -1.6001 -1.1947
  829MOL0     H14371   2.135   1.140   9.251 -0.0605  1.4723  1.0271
  829MOL0     H14372   2.198   1.380   9.283  0.9754 -0.0467  0.0358
  829MOL0     H14373   2.296   1.329   9.430  1.8837 -1.8786 -1.3551
  829MOL0     H14374   1.995   1.325   9.387 -0.2977  0.8317  0.9151
  829MOL0     H14375   2.062   1.225   9.514  1.9330  0.6348  1.1964
  829MOL0     H14376   2.132   1.406   9.641  0.2742 -0.2639 -0.0274
  829MOL0     H14377   1.968   1.441   9.584  0.5250  1.5723  1.9198
  829MOL0     H14378   2.083   1.582   9.393 -1.7539 -1.3769  0.0775
  829MOL0     H14379   2.223   1.583   9.490 -0.4596  1.2881 -0.9289
  829MOL0     H14380   1.957   1.684   9.605 -0.1411  0.8448  0.5976
  829MOL0     H14381   2.089   1.773   9.526 -1.7949 -0.5139 -0.4815
  829MOL0     H14382   2.650   0.994   9.354  1.8007  0.6332  1.1182
  829MOL0     H14383   2.836   0.822   9.351  0.1951  1.9290  1.3511
  829MOL0     H14384   3.088   0.557   9.228  1.6811 -2.0560  3.4519
  829MOL0     H14385   3.238   0.370   9.244  0.8572 -0.0974 -1.3539
  829MOL0     H14386   3.963   0.458  10.423  0.4814  0.7438 -2.3469
  829MOL0     H14387   3.912   0.672  10.507 -0.2771  2.1005 -3.2145
  829MOL0     H14388   3.570   0.929  10.733 -0.2149  1.1352  2.7939
  829MOL0     H14389   3.509   1.110  10.856  1.2482 -2.4364  0.8734
  829MOL0     H14390   3.493   1.274  10.976  0.4191 -1.7091 -2.6916
  829MOL0     H14391   3.664   1.300  10.977 -0.6056 -0.7779  1.0566
  829MOL0     H14392   3.633   1.546  10.990 -0.9552  0.0873 -2.7875
  829MOL0     H14393   3.553   1.458  11.129  0.4862 -2.7064  1.1380
  829MOL0     H14394   3.407   1.569  10.882  0.0162  0.4430  0.4150
  829MOL0     H14395   3.338   1.455  11.007  5.1476 -4.6092  1.6614
  829MOL0     H14396   3.415   1.628  11.173 -1.1584 -0.9032  0.2887
  829MOL0     H14397   3.272   1.686  11.085  0.7352  0.7433  1.6121
  829MOL0     H14398   3.521   1.963  10.914 -0.5599  1.5913  0.7172
  829MOL0     H14399   3.678   1.373  10.572 -0.3840 -0.4323  0.0874
  829MOL0     H14400   3.780   1.294  10.371 -0.2480 -0.1125 -0.7987
  829MOL0     H14401   3.868   1.144  10.388  0.5861  2.0629 -0.0469
  829MOL0     H14402   3.708   1.154  10.307  1.1264 -1.0149 -0.7884
  830MOL0     O14403   8.758   2.166   8.748  0.0706  0.6972  0.0569
  830MOL0     C14404   8.707   2.127   8.643 -0.0731  0.1302  0.1334
  830MOL0     O14405   8.568   2.131   8.618  0.2282 -0.0632  0.3553
  830MOL0     C14406   8.495   2.200   8.707  0.2321 -0.3652 -0.7313
  830MOL0     C14407   8.508   2.338   8.708  0.7456 -0.7987  0.1248
  830MOL0     C14408   8.445   2.406   8.817  0.9950  0.2148 -0.1827
  830MOL0     C14409   8.356   2.351   8.915 -0.4746  0.1279 -0.0472
  830MOL0     O14410   8.271   2.414   9.004 -0.2181 -0.0205 -0.7444
  830MOL0     C14411   8.225   2.551   8.983  0.7697 -0.0188  0.2619
  830MOL0     C14412   8.323   2.657   9.029 -0.2228 -0.0212 -0.4322
  830MOL0     C14413   8.376   2.649   9.174 -0.1804  1.6538  0.5035
  830MOL0     C14414   8.259   2.690   9.272 -0.8281 -0.2246  0.0176
  830MOL0     C14415   8.276   2.687   9.426  0.3122  0.8241 -0.4966
  830MOL0     C14416   8.302   2.546   9.479 -0.4553 -0.1153 -0.2686
  830MOL0     C14417   8.305   2.552   9.636 -0.5934 -0.1180 -0.7615
  830MOL0     C14418   8.428   2.631   9.700 -0.0241  0.2321 -0.5604
  830MOL0     N14419   8.446   2.578   9.836  0.6800 -0.0786 -0.2350
  830MOL0     C14420   8.348   2.592   9.940  0.4487  0.0308 -0.0018
  830MOL0     C14421   8.404   2.534  10.055  0.0803  0.4721  0.4921
  830MOL0     C14422   8.332   2.529  10.189 -0.1042  0.2539 -0.2313
  830MOL0     C14423   8.421   2.577  10.315 -0.8325 -1.1202 -0.1555
  830MOL0     C14424   8.354   2.529  10.449 -0.1199 -0.2260  0.0911
  830MOL0     C14425   8.411   2.601  10.570  0.0046  0.5583  0.4797
  830MOL0     O14426   8.348   2.539  10.682  0.1233 -0.0925  0.1156
  830MOL0     C14427   8.411   2.525  10.803  0.4491  0.0544 -0.4449
  830MOL0     C14428   8.537   2.554  10.835  0.7254  0.2381  0.2668
  830MOL0     C14429   8.601   2.503  10.959 -0.4177 -0.0484 -0.4355
  830MOL0     C14430   8.748   2.530  10.981 -0.9748  0.8218 -0.4602
  830MOL0     C14431   8.513   2.458  11.066  0.0956 -0.1776 -0.0194
  830MOL0     C14432   8.552   2.411  11.204 -0.6556 -0.5130 -0.2367
  830MOL0     O14433   8.687   2.381  11.207 -0.1229 -0.0771 -0.1812
  830MOL0     C14434   8.734   2.313  11.312  0.1925 -0.0832 -1.0580
  830MOL0     C14435   8.690   2.177  11.341 -0.0215 -0.1307 -0.0843
  830MOL0     C14436   8.741   2.103  11.448 -0.1479 -0.1232 -0.3443
  830MOL0     C14437   8.850   2.152  11.524  0.2765 -0.0570 -0.9009
  830MOL0     O14438   8.903   2.071  11.629 -0.4990 -0.4095  0.1240
  830MOL0     C14439   9.036   2.102  11.682  0.9212 -0.9038  0.3823
  830MOL0     C14440   9.082   1.967  11.739  0.3913  0.4561 -0.1824
  830MOL0     C14441   9.229   1.975  11.775 -0.2929 -0.0490  0.0240
  830MOL0     C14442   9.316   1.963  11.651 -0.2422 -0.3238 -0.2969
  830MOL0     C14443   9.467   1.931  11.694  0.5582  0.9048 -0.1296
  830MOL0     C14444   9.474   1.798  11.766 -1.1432 -0.6489  0.1852
  830MOL0     C14445   9.618   1.753  11.784 -0.7204 -0.4524 -1.4206
  830MOL0     C14446   9.639   1.610  11.764  0.1829 -0.3340 -0.0126
  830MOL0    Cl14447   9.811   1.567  11.794  0.2402 -0.2522  0.5228
  830MOL0     C14448   8.899   2.280  11.490 -0.2504  0.6695 -0.2012
  830MOL0     C14449   8.845   2.360  11.384 -0.9398  0.6269  0.5781
  830MOL0     O14450   8.473   2.400  11.291  0.1873  0.7356 -0.3188
  830MOL0     C14451   8.382   2.448  11.036 -0.7300 -0.6087  0.9366
  830MOL0     C14452   8.329   2.484  10.910  0.2886  0.2291  0.2033
  830MOL0     N14453   8.531   2.496  10.016 -0.3898  0.1741  0.6761
  830MOL0     N14454   8.556   2.521   9.889 -0.2335 -0.3428  0.1443
  830MOL0     C14455   8.340   2.210   8.913  0.6681 -0.7731  0.1651
  830MOL0     C14456   8.414   2.141   8.807  0.3651  0.6495 -0.0459
  830MOL0     C14457   8.792   2.100   8.521 -0.2974 -0.7979  0.1602
  830MOL0     C14458   8.901   2.179   8.504  0.4126  0.8674 -0.5404
  830MOL0     C14459   8.978   2.180   8.392 -0.3481  0.1886 -0.2265
  830MOL0     C14460   8.950   2.094   8.283 -0.4643  0.6683 -0.7449
  830MOL0     O14461   9.015   2.083   8.167 -0.0480 -0.4421  0.3248
  830MOL0     C14462   9.100   2.195   8.122 -0.3427 -0.4151  0.2407
  830MOL0     C14463   9.101   2.199   7.968  0.0918 -0.5470  0.4918
  830MOL0     C14464   9.124   2.062   7.898 -0.3831  1.5077  0.3577
  830MOL0     C14465   9.149   2.060   7.750  1.1474 -0.9343  0.4780
  830MOL0     C14466   9.272   2.133   7.726 -0.0526 -0.8124  0.4529
  830MOL0     C14467   9.378   2.195   7.703 -0.3845 -0.0897  0.0743
  830MOL0     C14468   8.848   1.995   8.307  0.1042 -0.0658 -1.0325
  830MOL0     C14469   8.769   2.002   8.425 -0.2047  0.2056  0.1491
  830MOL0     C14470   8.654   1.899   8.442 -0.5186 -0.7411 -0.1599
  830MOL0     H14471   8.576   2.390   8.641 -0.1156 -0.1533 -0.2670
  830MOL0     H14472   8.468   2.512   8.824  2.0653 -0.0991  2.5436
  830MOL0     H14473   8.134   2.540   9.044  0.9834 -2.6632  0.2067
  830MOL0     H14474   8.174   2.577   8.890 -0.5909  0.3040  1.0502
  830MOL0     H14475   8.405   2.652   8.958  0.5176 -0.5789  0.4409
  830MOL0     H14476   8.262   2.748   9.023  1.3402  1.2189  1.3391
  830MOL0     H14477   8.395   2.543   9.191  0.5978  1.3366 -1.8706
  830MOL0     H14478   8.473   2.697   9.192  2.1690 -1.4184 -2.4565
  830MOL0     H14479   8.231   2.793   9.251 -2.9330 -0.2773  2.0637
  830MOL0     H14480   8.168   2.642   9.234 -2.9293  0.7609  3.3695
  830MOL0     H14481   8.182   2.704   9.479 -0.1083 -0.2644 -0.8557
  830MOL0     H14482   8.355   2.751   9.466  0.2763 -0.2604  1.4198
  830MOL0     H14483   8.242   2.458   9.457  2.9698 -3.8481  3.5704
  830MOL0     H14484   8.399   2.521   9.434 -2.0918 -0.0102 -4.2772
  830MOL0     H14485   8.314   2.445   9.654 -1.4772  0.1330  1.5413
  830MOL0     H14486   8.211   2.587   9.681 -1.2069 -2.0506 -0.4370
  830MOL0     H14487   8.522   2.623   9.645 -0.2225 -0.2323 -0.8331
  830MOL0     H14488   8.411   2.739   9.697 -1.6178  0.0020 -0.4252
  830MOL0     H14489   8.251   2.633   9.917  0.6427  0.7074  0.3674
  830MOL0     H14490   8.291   2.429  10.209 -2.7973  0.7904 -2.4050
  830MOL0     H14491   8.251   2.601  10.179  0.6360  1.1031 -0.1820
  830MOL0     H14492   8.523   2.540  10.300 -0.9920 -1.3997 -0.5400
  830MOL0     H14493   8.431   2.685  10.302  3.7839 -0.9834  2.2917
  830MOL0     H14494   8.245   2.532  10.437 -0.1898  0.6989  0.8750
  830MOL0     H14495   8.370   2.422  10.461  1.7815 -0.1946 -1.7237
  830MOL0     H14496   8.521   2.600  10.566  0.0142  0.1124 -4.0213
  830MOL0     H14497   8.383   2.707  10.577  1.2056  0.9009  0.3482
  830MOL0     H14498   8.597   2.607  10.762  0.9516 -0.4600 -0.0692
  830MOL0     H14499   8.810   2.439  10.988  2.5425  3.1391  1.9072
  830MOL0     H14500   8.765   2.592  11.069 -0.4608  0.1958 -0.1032
  830MOL0     H14501   8.796   2.581  10.897  4.9192 -2.1014  0.5793
  830MOL0     H14502   8.623   2.131  11.268  1.2039  0.6033 -1.7556
  830MOL0     H14503   8.717   1.999  11.466  0.8045 -0.4919 -1.1413
  830MOL0     H14504   9.093   2.137  11.596  0.6956  0.1096  0.6293
  830MOL0     H14505   9.037   2.181  11.758  0.8817 -0.7312  0.2033
  830MOL0     H14506   9.022   1.939  11.825 -0.3010 -1.2589 -1.1630
  830MOL0     H14507   9.070   1.879  11.675  0.7021 -1.3730  2.1457
  830MOL0     H14508   9.252   1.896  11.847  0.4642 -1.5122 -1.7252
  830MOL0     H14509   9.261   2.063  11.832  1.1307 -0.9891  0.7551
  830MOL0     H14510   9.315   2.057  11.596 -2.6111  0.3717  0.8081
  830MOL0     H14511   9.286   1.889  11.576  1.6405 -1.1554 -0.2892
  830MOL0     H14512   9.519   1.918  11.599 -1.0298  1.0160 -1.0490
  830MOL0     H14513   9.523   2.002  11.756  3.7053 -1.0762 -0.4548
  830MOL0     H14514   9.427   1.733  11.691  0.1534 -1.5450  0.1143
  830MOL0     H14515   9.423   1.792  11.862 -0.8844  2.4484  0.6202
  830MOL0     H14516   9.647   1.779  11.886 -1.1661 -1.3970 -1.0396
  830MOL0     H14517   9.684   1.810  11.718  0.0779  0.5195  0.1462
  830MOL0     H14518   9.604   1.585  11.663  1.5784  1.8675 -1.1335
  830MOL0     H14519   9.579   1.542  11.824  2.5157 -1.7590  0.8623
  830MOL0     H14520   8.974   2.335  11.545 -0.4815  0.6894  0.1047
  830MOL0     H14521   8.878   2.464  11.383 -1.0969  0.6971  1.4614
  830MOL0     H14522   8.308   2.406  11.103 -3.8972  3.0262  0.0398
  830MOL0     H14523   8.224   2.464  10.893  0.5378 -3.9799  2.3138
  830MOL0     H14524   8.287   2.150   8.987  0.4924  1.2431  1.7633
  830MOL0     H14525   8.400   2.033   8.802 -2.3230  0.8245  1.5483
  830MOL0     H14526   8.915   2.258   8.578  0.0867  4.0368 -3.6080
  830MOL0     H14527   9.062   2.247   8.401 -0.8476  0.5480  2.8721
  830MOL0     H14528   9.060   2.293   8.149  1.0816  0.3341 -0.2361
  830MOL0     H14529   9.199   2.189   8.169  0.1603  0.8792 -0.5900
  830MOL0     H14530   9.162   2.284   7.937 -0.8371  0.0007  0.1466
  830MOL0     H14531   8.999   2.224   7.941  1.4974  0.5999 -5.0333
  830MOL0     H14532   9.216   2.016   7.934 -0.5037 -0.0213 -1.1881
  830MOL0     H14533   9.037   2.002   7.925  1.0431 -1.5566 -1.4143
  830MOL0     H14534   9.058   2.097   7.703  0.3372 -2.1921  1.0120
  830MOL0     H14535   9.158   1.959   7.711 -3.1079 -1.4270  0.3189
  830MOL0     H14536   9.474   2.241   7.702  0.1711 -0.6696  4.8068
  830MOL0     H14537   8.836   1.928   8.222  1.6905 -0.0651 -1.2909
  830MOL0     H14538   8.616   1.895   8.545 -0.1069 -0.1863  0.0195
  830MOL0     H14539   8.573   1.929   8.375 -2.6936 -0.3526  2.4828
  830MOL0     H14540   8.690   1.801   8.410  0.2113 -0.3557 -0.5368
  831MOL0     O14541   1.476   4.753   2.084  0.5348  1.5300 -0.1259
  831MOL0     C14542   1.585   4.733   2.147  0.2370 -0.0591  0.5961
  831MOL0     O14543   1.705   4.795   2.125  0.1391  0.2779  0.3515
  831MOL0     C14544   1.695   4.899   2.041 -0.4241 -0.0000  0.4095
  831MOL0     C14545   1.764   4.877   1.917  0.5945  0.1578  0.1467
  831MOL0     C14546   1.767   4.974   1.819 -0.5464 -0.1189  0.1952
  831MOL0     C14547   1.688   5.086   1.828 -0.2475  0.1726 -0.9185
  831MOL0     O14548   1.688   5.185   1.733  0.1541  0.0371 -0.1425
  831MOL0     C14549   1.823   5.246   1.710  0.8085 -0.2708 -0.0752
  831MOL0     C14550   1.841   5.364   1.803 -0.4282 -0.6205  0.8713
  831MOL0     C14551   1.970   5.431   1.765  0.2618  0.1417 -0.5151
  831MOL0     C14552   2.012   5.526   1.879 -0.2311  0.3150  0.6064
  831MOL0     C14553   2.151   5.596   1.848  0.3588  0.5096  0.1830
  831MOL0     C14554   2.165   5.729   1.925 -0.7886  0.3556 -0.1968
  831MOL0     C14555   2.313   5.770   1.944 -0.1372  0.5559 -0.2881
  831MOL0     C14556   2.371   5.848   1.833  0.7398 -0.2012 -0.2968
  831MOL0     N14557   2.396   5.773   1.707  0.4600  0.6838  0.9890
  831MOL0     C14558   2.383   5.815   1.579  0.9884 -0.1581  0.9394
  831MOL0     C14559   2.445   5.725   1.505  0.0284  1.2562 -0.0572
  831MOL0     C14560   2.446   5.724   1.355 -0.9543  0.7313 -0.9164
  831MOL0     C14561   2.547   5.813   1.282 -0.3948  0.8872  0.5939
  831MOL0     C14562   2.497   5.870   1.149  0.3421 -0.1610 -0.0690
  831MOL0     C14563   2.611   5.949   1.077  0.5949  0.0012  0.3744
  831MOL0     O14564   2.563   6.020   0.954 -0.9407  0.4718 -0.5782
  831MOL0     C14565   2.546   5.948   0.836  0.5666  1.0473  0.4698
  831MOL0     C14566   2.462   6.014   0.743 -0.1251  0.2615 -0.3075
  831MOL0     C14567   2.441   5.972   0.610 -0.6568  0.1873 -0.0198
  831MOL0     C14568   2.356   6.049   0.513 -0.1039  0.1026  0.6728
  831MOL0     C14569   2.510   5.849   0.569 -0.3357  0.1467  0.3917
  831MOL0     C14570   2.498   5.776   0.439  0.6994 -0.6234 -0.4105
  831MOL0     O14571   2.604   5.702   0.400 -0.2097  0.6714 -0.4568
  831MOL0     C14572   2.577   5.583   0.335  0.3502  0.3030  0.0302
  831MOL0     C14573   2.679   5.551   0.247 -0.5743  0.1397 -0.7683
  831MOL0     C14574   2.670   5.438   0.158 -0.7939  0.2281 -0.1020
  831MOL0     C14575   2.563   5.342   0.165 -0.6129 -0.2004 -0.8826
  831MOL0     O14576   2.569   5.239   0.085 -0.9319  0.2475  1.0387
  831MOL0     C14577   2.501   5.120   0.120  0.7558  0.5474  0.1682
  831MOL0     C14578   2.557   5.002   0.032 -0.1429 -1.7413 -0.4589
  831MOL0     C14579   2.503   5.014  -0.116 -0.2041  0.3287  0.1021
  831MOL0     C14580   2.366   4.966  -0.133 -0.2747  0.5489 -0.6160
  831MOL0     C14581   2.319   4.976  -0.278  0.2819  0.4492 -0.2391
  831MOL0     C14582   2.198   4.891  -0.313  0.4239 -0.1614 -0.6414
  831MOL0     C14583   2.164   4.901  -0.458  0.1933 -0.3783  0.1701
  831MOL0     C14584   2.048   4.804  -0.496  0.1412 -0.2965 -0.2036
  831MOL0    Cl14585   2.018   4.831  -0.666 -0.1453  0.2932 -0.4709
  831MOL0     C14586   2.458   5.375   0.257  0.4189 -0.4781  1.4767
  831MOL0     C14587   2.465   5.491   0.340 -0.9945 -0.3161  0.6696
  831MOL0     O14588   2.389   5.781   0.382 -0.1041  0.2188 -0.1696
  831MOL0     C14589   2.593   5.787   0.661  0.1857  0.0677  0.1900
  831MOL0     C14590   2.616   5.841   0.783  0.1342  0.3271  0.3863
  831MOL0     N14591   2.509   5.628   1.584 -0.3246 -0.1864 -0.9225
  831MOL0     N14592   2.486   5.671   1.704  0.1521 -0.0618 -1.0086
  831MOL0     C14593   1.613   5.104   1.943  0.8770 -0.2321  0.5335
  831MOL0     C14594   1.611   5.011   2.047 -0.1035 -0.2947  0.4582
  831MOL0     C14595   1.568   4.629   2.257  0.1384  0.0473  0.8438
  831MOL0     C14596   1.665   4.518   2.260  0.7467 -0.1261  0.0785
  831MOL0     C14597   1.650   4.420   2.358  0.1028  0.7465  0.6490
  831MOL0     C14598   1.543   4.425   2.450 -0.8823 -0.6557  0.1849
  831MOL0     O14599   1.524   4.325   2.538  0.6337  0.0905 -0.0996
  831MOL0     C14600   1.540   4.359   2.678 -1.3930  0.4574  0.3299
  831MOL0     C14601   1.694   4.339   2.710 -0.6500 -0.6909  0.2488
  831MOL0     C14602   1.742   4.200   2.672 -0.9058 -0.3036 -0.8005
  831MOL0     C14603   1.846   4.162   2.781 -0.1340 -0.5730 -0.3420
  831MOL0     C14604   1.851   4.016   2.805 -0.1486 -0.2542  0.1649
  831MOL0     C14605   1.861   3.899   2.839 -0.7379 -0.0682 -0.5120
  831MOL0     C14606   1.453   4.530   2.458 -0.4870 -0.7855  0.7630
  831MOL0     C14607   1.470   4.636   2.359  0.1964 -0.2258 -0.2613
  831MOL0     C14608   1.382   4.761   2.380  0.5728  0.3176  0.4513
  831MOL0     H14609   1.822   4.786   1.915  1.9795  1.0015 -0.0909
  831MOL0     H14610   1.841   4.957   1.741 -1.1492  2.7463 -1.1284
  831MOL0     H14611   1.823   5.298   1.614  0.4999  1.7382  0.9581
  831MOL0     H14612   1.900   5.168   1.716  0.3360 -0.6472  1.8089
  831MOL0     H14613   1.764   5.431   1.766  1.0138 -0.3413 -1.9288
  831MOL0     H14614   1.849   5.330   1.907  1.9905  0.5457  1.1458
  831MOL0     H14615   2.050   5.360   1.744  2.8775  2.7324 -0.0246
  831MOL0     H14616   1.962   5.498   1.679  1.3975  0.8577 -0.0931
  831MOL0     H14617   1.926   5.592   1.877 -1.7145 -1.5552 -0.4491
  831MOL0     H14618   2.027   5.479   1.978 -0.3395  0.8633  0.8848
  831MOL0     H14619   2.154   5.615   1.741 -1.9144 -0.6650 -0.1540
  831MOL0     H14620   2.207   5.512   1.891 -0.2964  0.7201  1.4947
  831MOL0     H14621   2.115   5.806   1.867 -2.9331 -1.3634 -0.7624
  831MOL0     H14622   2.129   5.728   2.029 -2.2076  3.1387 -0.5782
  831MOL0     H14623   2.377   5.684   1.966  0.0450  1.4016  2.9448
  831MOL0     H14624   2.309   5.824   2.039  0.7459 -4.1244  2.7533
  831MOL0     H14625   2.293   5.921   1.805  2.1691  1.9047  0.9309
  831MOL0     H14626   2.454   5.912   1.865  0.2252 -1.2403  3.6338
  831MOL0     H14627   2.329   5.905   1.551  0.2407  0.0562  2.8986
  831MOL0     H14628   2.346   5.761   1.329 -3.9385 -2.8439  3.7760
  831MOL0     H14629   2.459   5.623   1.313  1.6386  2.6315 -5.4719
  831MOL0     H14630   2.564   5.892   1.356 -2.2011 -0.5937  2.7390
  831MOL0     H14631   2.638   5.753   1.273 -0.7945 -0.2394  3.1778
  831MOL0     H14632   2.461   5.787   1.088  1.4105 -0.8293  0.1841
  831MOL0     H14633   2.416   5.926   1.197 -1.1021 -3.1045  1.2297
  831MOL0     H14634   2.669   6.014   1.143 -0.0516 -0.8305  1.8053
  831MOL0     H14635   2.674   5.864   1.051 -3.5779 -3.7210  1.2401
  831MOL0     H14636   2.424   6.107   0.786  0.4132  0.1689  0.3955
  831MOL0     H14637   2.255   6.009   0.527 -0.2096 -0.8738 -2.3357
  831MOL0     H14638   2.398   6.025   0.416  0.2516  2.0415  0.3004
  831MOL0     H14639   2.361   6.156   0.535  0.4743  0.1519  0.2994
  831MOL0     H14640   2.771   5.607   0.247 -1.0343  1.0009  1.3287
  831MOL0     H14641   2.751   5.423   0.088  0.1381  1.4864  0.6734
  831MOL0     H14642   2.536   5.093   0.220 -0.7841  0.2981  0.6674
  831MOL0     H14643   2.392   5.127   0.123  0.5968 -1.6503  1.6889
  831MOL0     H14644   2.665   5.019   0.025 -0.6899  2.2783 -2.0183
  831MOL0     H14645   2.539   4.905   0.079  0.0420 -0.7373  1.8265
  831MOL0     H14646   2.573   4.956  -0.176  1.7352  0.9375  1.6664
  831MOL0     H14647   2.525   5.118  -0.143 -0.4816  0.9617  2.1397
  831MOL0     H14648   2.295   5.028  -0.077 -2.0391 -1.9469  0.1058
  831MOL0     H14649   2.357   4.860  -0.107 -1.7739  0.3484 -1.7997
  831MOL0     H14650   2.296   5.082  -0.293 -1.8326  0.0752  0.1613
  831MOL0     H14651   2.399   4.934  -0.341 -0.1715 -1.1214  0.1906
  831MOL0     H14652   2.115   4.921  -0.249  2.3188  1.3153  1.3125
  831MOL0     H14653   2.220   4.785  -0.296 -1.7847 -0.6313 -0.4896
  831MOL0     H14654   2.250   4.886  -0.525  0.4200  1.1868  0.0723
  831MOL0     H14655   2.131   5.004  -0.474  3.1252  0.3632 -2.0331
  831MOL0     H14656   1.958   4.833  -0.442  1.2537  2.6194  0.2290
  831MOL0     H14657   2.070   4.698  -0.478  0.2866 -0.2565 -0.1471
  831MOL0     H14658   2.365   5.325   0.234 -0.5238  1.8611 -0.2917
  831MOL0     H14659   2.386   5.509   0.412 -0.0808 -0.8063  1.8266
  831MOL0     H14660   2.641   5.693   0.637 -2.1947 -0.7367 -1.9157
  831MOL0     H14661   2.695   5.794   0.840  1.0571  0.6542 -0.5839
  831MOL0     H14662   1.545   5.189   1.946 -1.0135 -1.6575  0.1747
  831MOL0     H14663   1.556   5.022   2.139  0.3665  1.6306  0.5348
  831MOL0     H14664   1.734   4.499   2.179 -1.5560 -3.9113 -1.2427
  831MOL0     H14665   1.706   4.327   2.362 -2.1581 -0.7274  0.2082
  831MOL0     H14666   1.515   4.465   2.692  0.1534  0.4898  3.7697
  831MOL0     H14667   1.481   4.287   2.733  0.7639 -3.4592 -2.0057
  831MOL0     H14668   1.694   4.358   2.818 -1.9511  0.6831  0.0352
  831MOL0     H14669   1.748   4.418   2.659  0.3898 -1.4765  0.0994
  831MOL0     H14670   1.663   4.126   2.687 -0.0883 -0.3818  6.2229
  831MOL0     H14671   1.777   4.189   2.568 -0.0169  0.6641 -0.6237
  831MOL0     H14672   1.844   4.209   2.880  2.2778  1.8289 -1.2909
  831MOL0     H14673   1.946   4.185   2.741  0.3158  0.8962  1.4801
  831MOL0     H14674   1.870   3.795   2.862  1.2136  0.6694  2.6482
  831MOL0     H14675   1.368   4.535   2.525 -1.1197  0.0268 -0.0605
  831MOL0     H14676   1.323   4.745   2.470 -0.3654  1.7336  0.1252
  831MOL0     H14677   1.444   4.849   2.399 -0.7722  1.1809  1.0339
  831MOL0     H14678   1.305   4.783   2.305 -2.0347 -4.2883  1.3939
  832MOL0     O14679   7.991   9.135   7.490  0.1798 -0.3137  0.1802
  832MOL0     C14680   7.985   9.081   7.599 -0.1219 -0.8609 -1.4613
  832MOL0     O14681   7.904   8.975   7.625  0.1919  0.2776 -0.0466
  832MOL0     C14682   7.802   8.924   7.546 -0.4012 -0.5166 -0.0122
  832MOL0     C14683   7.754   8.792   7.578 -0.3663 -0.0415  0.1162
  832MOL0     C14684   7.638   8.733   7.518 -0.8861  0.2564 -0.9004
  832MOL0     C14685   7.559   8.815   7.433  0.1345  0.4881  0.8105
  832MOL0     O14686   7.439   8.780   7.374 -0.3617  0.2028 -0.2362
  832MOL0     C14687   7.392   8.646   7.386  0.1175  0.9647 -0.0383
  832MOL0     C14688   7.259   8.632   7.301 -0.5741 -0.7956 -0.0249
  832MOL0     C14689   7.283   8.631   7.148 -0.1473 -0.2220 -1.1015
  832MOL0     C14690   7.176   8.562   7.070  1.1355 -0.3095  1.0472
  832MOL0     C14691   7.167   8.581   6.916  0.2047 -0.5089 -0.2775
  832MOL0     C14692   7.289   8.547   6.842  0.3623  0.3553 -0.3260
  832MOL0     C14693   7.388   8.655   6.824  0.4522  0.0569 -0.1130
  832MOL0     C14694   7.506   8.616   6.735  1.1422 -0.2169  0.1294
  832MOL0     N14695   7.584   8.737   6.720 -0.1108 -0.1452 -0.2770
  832MOL0     C14696   7.547   8.864   6.686  0.2894 -0.5417 -0.0437
  832MOL0     C14697   7.655   8.941   6.696 -0.1565  0.0576  0.0064
  832MOL0     C14698   7.662   9.089   6.642  0.1417 -0.5835 -0.6500
  832MOL0     C14699   7.777   9.160   6.694 -0.0855 -0.5374  0.4553
  832MOL0     C14700   7.792   9.303   6.644 -0.2811 -0.5074 -0.0119
  832MOL0     C14701   7.940   9.359   6.666  0.3342  0.7549 -0.5255
  832MOL0     O14702   8.041   9.249   6.659  0.2408 -0.2538  0.2122
  832MOL0     C14703   8.164   9.275   6.713 -0.3002 -0.3643 -0.7004
  832MOL0     C14704   8.250   9.161   6.730  0.0513 -1.0839  0.4173
  832MOL0     C14705   8.376   9.172   6.787  0.3170  0.2001 -0.0653
  832MOL0     C14706   8.457   9.043   6.795 -0.0440 -0.3002  0.2153
  832MOL0     C14707   8.418   9.295   6.849 -0.2338 -0.6402 -0.1204
  832MOL0     C14708   8.548   9.304   6.926  1.0628  0.3518  1.0579
  832MOL0     O14709   8.594   9.434   6.918  0.0783 -0.2500  0.0664
  832MOL0     C14710   8.704   9.450   6.987  0.2179 -0.2224 -0.4264
  832MOL0     C14711   8.824   9.467   6.918  0.5524 -0.1979 -1.0308
  832MOL0     C14712   8.945   9.473   6.992  0.1570 -0.1869  0.3580
  832MOL0     C14713   8.943   9.482   7.132 -0.2578 -0.0027 -0.4863
  832MOL0     O14714   9.063   9.509   7.201 -0.5531  0.0485 -0.1950
  832MOL0     C14715   9.078   9.500   7.346 -0.0062  0.4210 -1.4925
  832MOL0     C14716   9.228   9.531   7.357 -0.1262  0.3802 -0.2151
  832MOL0     C14717   9.289   9.530   7.501  0.0882  0.2553  0.3532
  832MOL0     C14718   9.365   9.663   7.524  0.0678  1.4312  0.3330
  832MOL0     C14719   9.502   9.648   7.453 -0.2926  0.6920  0.0879
  832MOL0     C14720   9.599   9.746   7.511 -0.6393  0.4479  0.4429
  832MOL0     C14721   9.739   9.688   7.515  0.0108 -0.5974  1.0657
  832MOL0     C14722   9.816   9.707   7.643 -0.1863 -0.9626 -0.4715
  832MOL0    Cl14723   9.707   9.648   7.774 -0.0841 -0.3682 -0.2697
  832MOL0     C14724   8.824   9.482   7.203 -0.1243  0.6418  1.1225
  832MOL0     C14725   8.704   9.468   7.127 -0.1647 -0.0743  0.0036
  832MOL0     O14726   8.590   9.205   6.986 -0.1992  0.7829  0.6884
  832MOL0     C14727   8.338   9.407   6.819 -0.9546  0.1659  0.4959
  832MOL0     C14728   8.216   9.404   6.753 -0.1944 -0.2032  0.1246
  832MOL0     N14729   7.758   8.862   6.710 -0.3937  0.1927  0.6545
  832MOL0     N14730   7.718   8.739   6.721  0.6821  0.2517  0.1507
  832MOL0     C14731   7.597   8.948   7.413 -0.2859  0.1196 -0.3492
  832MOL0     C14732   7.717   8.998   7.464  0.5787  0.6742 -0.3922
  832MOL0     C14733   8.089   9.117   7.692  0.1965  0.2567 -0.6202
  832MOL0     C14734   8.202   9.190   7.646  0.1835 -0.6880  0.3553
  832MOL0     C14735   8.307   9.225   7.731 -0.2209 -0.2001  0.4352
  832MOL0     C14736   8.314   9.170   7.859  0.4494  0.0460  0.6180
  832MOL0     O14737   8.423   9.178   7.944 -0.6551 -0.0680 -0.3472
  832MOL0     C14738   8.525   9.262   7.899 -0.5211 -0.0278 -0.4522
  832MOL0     C14739   8.637   9.257   8.010 -0.0853  0.1396 -0.5390
  832MOL0     C14740   8.592   9.331   8.146  0.0822  0.3904 -0.5802
  832MOL0     C14741   8.562   9.485   8.139 -0.9036  0.2628  0.0585
  832MOL0     C14742   8.678   9.560   8.093 -0.5906 -0.2588 -0.4169
  832MOL0     C14743   8.767   9.639   8.060  0.7850 -0.0903 -0.5300
  832MOL0     C14744   8.206   9.098   7.905 -0.0487 -0.1350  0.2167
  832MOL0     C14745   8.088   9.074   7.833  0.4444  0.6762 -0.2064
  832MOL0     C14746   7.966   9.020   7.904 -0.5899 -0.2093  0.0257
  832MOL0     H14747   7.800   8.749   7.666 -1.0310 -1.4524 -0.2054
  832MOL0     H14748   7.596   8.638   7.549 -1.9100  0.5389 -1.3615
  832MOL0     H14749   7.372   8.625   7.491  1.4788 -1.1885 -0.1574
  832MOL0     H14750   7.461   8.566   7.357 -2.6254 -1.9500  0.9545
  832MOL0     H14751   7.204   8.547   7.342 -1.2100 -1.0476 -1.3358
  832MOL0     H14752   7.191   8.714   7.326 -0.0139 -0.1001 -0.7119
  832MOL0     H14753   7.309   8.732   7.115  2.9599  0.0028  1.5282
  832MOL0     H14754   7.378   8.578   7.135  0.5207  0.2194  1.3940
  832MOL0     H14755   7.177   8.454   7.090 -2.5935 -0.4166  1.2761
  832MOL0     H14756   7.078   8.590   7.109  0.8434 -1.5862  1.2684
  832MOL0     H14757   7.133   8.682   6.891  2.0084 -0.0273 -0.9199
  832MOL0     H14758   7.096   8.503   6.886 -1.2295  0.1180  1.3160
  832MOL0     H14759   7.344   8.459   6.878 -1.9401 -0.8859  0.3475
  832MOL0     H14760   7.262   8.517   6.740  1.7889 -2.6135  0.0708
  832MOL0     H14761   7.418   8.683   6.925 -1.7764 -2.5750  1.4077
  832MOL0     H14762   7.341   8.742   6.775  2.9043 -0.0272 -2.8625
  832MOL0     H14763   7.573   8.543   6.781  2.2447  1.3434  1.0906
  832MOL0     H14764   7.473   8.587   6.634 -3.5024  1.7703  0.8154
  832MOL0     H14765   7.449   8.908   6.669 -0.2747 -0.8125  2.1881
  832MOL0     H14766   7.566   9.134   6.668  1.0803  1.3275 -0.3429
  832MOL0     H14767   7.674   9.097   6.534 -2.7676 -0.4059 -1.0436
  832MOL0     H14768   7.779   9.149   6.803 -0.6487 -0.3176  0.4878
  832MOL0     H14769   7.865   9.102   6.663 -0.9473 -1.7674  0.2330
  832MOL0     H14770   7.785   9.303   6.534  0.5130 -4.6847 -0.2058
  832MOL0     H14771   7.707   9.368   6.667  0.4511  1.3784 -2.1900
  832MOL0     H14772   7.956   9.434   6.587 -0.6383  2.5848  0.9400
  832MOL0     H14773   7.937   9.396   6.769 -2.1831 -1.2397  0.2271
  832MOL0     H14774   8.210   9.070   6.686 -1.2668  0.5567 -2.0291
  832MOL0     H14775   8.565   9.061   6.793 -0.0808  0.0170 -1.9640
  832MOL0     H14776   8.435   8.973   6.713 -0.4107 -1.8435  1.5830
  832MOL0     H14777   8.415   8.999   6.885 -4.1628 -1.8201 -2.1676
  832MOL0     H14778   8.836   9.475   6.811  0.6298  0.3894 -0.9787
  832MOL0     H14779   9.035   9.494   6.935 -0.5576 -1.7141 -1.4531
  832MOL0     H14780   9.026   9.582   7.397  0.6043  1.6156 -2.7263
  832MOL0     H14781   9.050   9.403   7.390 -0.3714  1.0418 -0.3054
  832MOL0     H14782   9.297   9.470   7.298  2.9694  2.2940  1.2277
  832MOL0     H14783   9.251   9.628   7.312 -1.7844  1.5984  1.4468
  832MOL0     H14784   9.348   9.439   7.520  0.5933  0.2764 -1.0121
  832MOL0     H14785   9.210   9.521   7.577 -0.4176  2.4723  0.1515
  832MOL0     H14786   9.381   9.678   7.631  0.6309  0.5327  0.3901
  832MOL0     H14787   9.310   9.751   7.488 -1.9964  0.5007  1.0731
  832MOL0     H14788   9.536   9.546   7.469 -1.2836  0.2911 -0.2634
  832MOL0     H14789   9.490   9.657   7.345  2.8623  2.3402 -0.2301
  832MOL0     H14790   9.572   9.780   7.611 -0.5516 -0.6580  0.8543
  832MOL0     H14791   9.599   9.842   7.458 -2.9824  2.2216  3.3727
  832MOL0     H14792   9.798   9.713   7.426  0.5211 -1.8597  1.0317
  832MOL0     H14793   9.731   9.579   7.503 -2.4892 -0.5344  1.4967
  832MOL0     H14794   9.840   9.810   7.671 -1.6998  0.3655 -3.5965
  832MOL0     H14795   9.914   9.658   7.634  0.8010  0.9163 -0.3272
  832MOL0     H14796   8.824   9.494   7.311  1.4689  1.9472  1.0246
  832MOL0     H14797   8.614   9.468   7.187  0.0850 -0.6755  0.3830
  832MOL0     H14798   8.371   9.508   6.842  0.4003  0.0693 -0.7969
  832MOL0     H14799   8.155   9.492   6.737 -2.9565 -2.0787 -0.2084
  832MOL0     H14800   7.535   9.011   7.350 -1.4241  1.5625  2.0782
  832MOL0     H14801   7.742   9.101   7.441 -1.1889  1.3986  0.7236
  832MOL0     H14802   8.206   9.224   7.543  1.7826 -0.0076  0.6145
  832MOL0     H14803   8.382   9.291   7.689  0.9985 -0.4432  2.0893
  832MOL0     H14804   8.560   9.236   7.798  0.0190 -2.6789  0.3242
  832MOL0     H14805   8.493   9.366   7.893  0.9614  0.4034 -1.3660
  832MOL0     H14806   8.728   9.292   7.961 -0.7752 -0.1805 -2.0907
  832MOL0     H14807   8.666   9.155   8.037 -0.5202 -0.4069 -2.0473
  832MOL0     H14808   8.499   9.288   8.184 -1.8581  3.7139 -1.1883
  832MOL0     H14809   8.671   9.301   8.216  2.4544 -1.7285 -3.8732
  832MOL0     H14810   8.529   9.538   8.229 -0.8359  2.1932 -1.0065
  832MOL0     H14811   8.482   9.502   8.066 -0.8288 -0.6587 -0.2517
  832MOL0     H14812   8.847   9.703   8.028 -0.5595  1.0695 -1.6979
  832MOL0     H14813   8.214   9.068   8.009  3.2362 -2.4066 -0.5259
  832MOL0     H14814   7.976   9.043   8.011 -2.2239 -4.3175  1.2288
  832MOL0     H14815   7.875   9.062   7.860 -2.0283 -4.2440 -1.2298
  832MOL0     H14816   7.963   8.911   7.903 -3.8101 -0.5029  5.3207
  833MOL0     O14817   9.231   8.618   2.368 -0.8256 -0.2357  0.6642
  833MOL0     C14818   9.117   8.579   2.371  0.8200  0.3463  0.3664
  833MOL0     O14819   9.060   8.510   2.473 -0.4288 -0.3989 -0.1987
  833MOL0     C14820   9.114   8.471   2.587 -0.5667  0.2574  0.1779
  833MOL0     C14821   9.050   8.363   2.640 -0.7641 -0.1017  0.1466
  833MOL0     C14822   9.100   8.285   2.741  0.1039 -0.1934  0.4136
  833MOL0     C14823   9.221   8.326   2.805 -0.8161  0.0054 -0.2571
  833MOL0     O14824   9.272   8.249   2.908  0.1183  0.3117  0.0091
  833MOL0     C14825   9.394   8.293   2.966  0.2518 -0.6067 -0.0338
  833MOL0     C14826   9.435   8.200   3.077  0.0820 -0.0182 -0.4281
  833MOL0     C14827   9.578   8.230   3.110  0.1517  0.6269  0.5940
  833MOL0     C14828   9.630   8.119   3.207 -0.2638 -0.4620 -0.3703
  833MOL0     C14829   9.773   8.147   3.260  0.4681  0.4954  0.1306
  833MOL0     C14830   9.877   8.096   3.158  0.3365 -0.6705 -0.0880
  833MOL0     C14831  10.018   8.141   3.208  0.2674  1.1377  1.0428
  833MOL0     C14832  10.050   8.288   3.172  0.3070  1.2595 -0.2152
  833MOL0     N14833  10.190   8.314   3.154  0.5068 -0.6703  0.3863
  833MOL0     C14834  10.297   8.244   3.206 -0.5088 -0.3551  0.3399
  833MOL0     C14835  10.414   8.274   3.137  0.2177 -0.8472  0.6519
  833MOL0     C14836  10.550   8.209   3.164  0.4401 -0.4173  0.2378
  833MOL0     C14837  10.539   8.065   3.130  0.2285 -0.0230 -0.2376
  833MOL0     C14838  10.674   7.995   3.142  1.3321 -0.0253 -0.1753
  833MOL0     C14839  10.677   7.857   3.082 -0.0447  0.1332 -0.6472
  833MOL0     O14840  10.810   7.814   3.099  0.2833 -0.4171 -0.0681
  833MOL0     C14841  10.837   7.678   3.082  0.3224 -0.4656 -0.0267
  833MOL0     C14842  10.947   7.628   3.137  0.3784  1.0370 -0.2529
  833MOL0     C14843  10.967   7.488   3.133 -0.5195 -0.0634 -0.5558
  833MOL0     C14844  11.097   7.431   3.200  0.0551 -0.3719 -0.1007
  833MOL0     C14845  10.883   7.400   3.058 -0.0003  0.2817 -0.7782
  833MOL0     C14846  10.908   7.255   3.029 -0.7409  0.2277  1.3538
  833MOL0     O14847  11.035   7.207   3.047 -0.2472 -0.8080  0.0106
  833MOL0     C14848  11.086   7.097   2.981  0.1406 -0.1474 -0.6905
  833MOL0     C14849  11.009   6.990   2.943 -0.3282  0.4960  0.0182
  833MOL0     C14850  11.074   6.876   2.885  0.5733 -0.4725 -0.1927
  833MOL0     C14851  11.213   6.866   2.868  1.2287 -0.0820  0.8789
  833MOL0     O14852  11.265   6.752   2.819 -0.5882  0.3558  0.4917
  833MOL0     C14853  11.404   6.752   2.802 -0.5299 -1.2286 -0.0136
  833MOL0     C14854  11.449   6.634   2.726 -0.7850  0.5872 -0.2032
  833MOL0     C14855  11.592   6.580   2.776  0.6071  0.0361 -0.2721
  833MOL0     C14856  11.649   6.470   2.694 -0.3238  0.2967  0.1597
  833MOL0     C14857  11.795   6.432   2.739  0.0352  0.2350  0.3521
  833MOL0     C14858  11.861   6.337   2.634 -0.1403  0.4049 -0.1418
  833MOL0     C14859  11.974   6.254   2.696  0.6265 -0.5544  0.5469
  833MOL0     C14860  11.927   6.145   2.782  0.0727  0.6161  0.0302
  833MOL0    Cl14861  11.858   6.032   2.667 -0.3215  0.0934  0.0082
  833MOL0     C14862  11.281   6.988   2.914  0.7915  0.0455 -0.2160
  833MOL0     C14863  11.223   7.100   2.976 -0.1918 -0.2550 -0.3323
  833MOL0     O14864  10.815   7.193   2.982  0.9363  0.6097 -0.3042
  833MOL0     C14865  10.778   7.455   2.988 -0.2894 -0.5446  0.4426
  833MOL0     C14866  10.750   7.593   3.002  0.3906 -0.7697 -1.0829
  833MOL0     N14867  10.368   8.351   3.026 -0.1830 -0.1472 -0.2119
  833MOL0     N14868  10.244   8.382   3.040 -0.2141  1.5684  0.8596
  833MOL0     C14869   9.290   8.445   2.756  0.6385 -0.5943 -0.1243
  833MOL0     C14870   9.230   8.513   2.647  0.6890  0.5374  0.2041
  833MOL0     C14871   9.019   8.604   2.259 -0.1776 -0.0161  0.0985
  833MOL0     C14872   8.885   8.625   2.286  1.3100  0.6817  1.2688
  833MOL0     C14873   8.784   8.658   2.185  0.7468 -0.2945 -0.3051
  833MOL0     C14874   8.829   8.666   2.053 -0.6055  0.0868 -0.4951
  833MOL0     O14875   8.724   8.713   1.975 -0.0089  1.3508  0.6061
  833MOL0     C14876   8.751   8.748   1.846 -0.6884  0.4855 -0.1528
  833MOL0     C14877   8.839   8.878   1.847 -0.2078  0.4215  0.3263
  833MOL0     C14878   8.850   8.969   1.720  0.3039  0.6424  0.1278
  833MOL0     C14879   8.916   8.904   1.593 -0.4852  0.2077  0.1048
  833MOL0     C14880   8.932   9.002   1.483  0.3541  0.3249  0.0307
  833MOL0     C14881   8.956   9.086   1.397  0.2105  0.0635  0.1045
  833MOL0     C14882   8.974   8.649   2.027 -0.5873  0.1555  0.4790
  833MOL0     C14883   9.068   8.624   2.129 -0.3731  0.0686  1.1017
  833MOL0     C14884   9.213   8.624   2.084 -0.8452  0.2200 -0.8755
  833MOL0     H14885   8.966   8.342   2.574  0.3469  1.7703 -1.9769
  833MOL0     H14886   9.051   8.193   2.770  1.3273 -0.4282  1.8935
  833MOL0     H14887   9.376   8.387   3.017  0.9774  1.2740 -2.9715
  833MOL0     H14888   9.464   8.299   2.882  0.9786  0.1278  0.6219
  833MOL0     H14889   9.370   8.209   3.165  0.2307 -1.7147 -0.1253
  833MOL0     H14890   9.416   8.098   3.045 -2.4411  0.5497 -1.0060
  833MOL0     H14891   9.637   8.224   3.019 -1.4019 -1.5887 -0.3639
  833MOL0     H14892   9.592   8.329   3.154  0.5091  2.3775 -3.1383
  833MOL0     H14893   9.553   8.114   3.285  0.1026  0.9425  0.1087
  833MOL0     H14894   9.610   8.028   3.149 -1.0101 -0.6018  0.0872
  833MOL0     H14895   9.778   8.068   3.335  1.7561 -0.6897 -1.1430
  833MOL0     H14896   9.777   8.251   3.295  2.1230  1.4287 -2.4941
  833MOL0     H14897   9.873   7.987   3.166  0.8761 -0.5722  2.3703
  833MOL0     H14898   9.860   8.123   3.053 -0.1276 -1.7626 -0.3126
  833MOL0     H14899  10.084   8.075   3.150 -0.6747  1.0667  0.0106
  833MOL0     H14900  10.034   8.120   3.314  1.8365 -1.1896  0.4150
  833MOL0     H14901   9.992   8.313   3.082 -0.1099 -2.1364 -1.0077
  833MOL0     H14902  10.012   8.340   3.260 -4.2797  1.7554 -2.1921
  833MOL0     H14903  10.294   8.186   3.298  2.4616 -0.7710  0.2830
  833MOL0     H14904  10.591   8.213   3.265  0.6506  0.9260  0.1178
  833MOL0     H14905  10.628   8.241   3.095  3.1901 -2.5961  2.1163
  833MOL0     H14906  10.468   8.009   3.192  1.4227 -0.2135  1.0110
  833MOL0     H14907  10.500   8.055   3.029  0.0773  0.0920 -0.1907
  833MOL0     H14908  10.757   8.047   3.095  0.2857  2.3835  0.4648
  833MOL0     H14909  10.708   7.995   3.246  0.6984 -2.6350  0.0907
  833MOL0     H14910  10.605   7.797   3.138  1.6689 -0.4727  1.0002
  833MOL0     H14911  10.645   7.860   2.977  0.7782  0.8440 -0.8898
  833MOL0     H14912  11.019   7.692   3.188  0.0053  0.6835  0.7496
  833MOL0     H14913  11.169   7.423   3.118  0.2242  2.5396 -0.3593
  833MOL0     H14914  11.079   7.337   3.253 -4.6286  0.9706  1.2393
  833MOL0     H14915  11.129   7.500   3.279 -0.9132  0.2859 -0.2649
  833MOL0     H14916  10.901   6.979   2.943 -0.3634  0.7524 -1.2148
  833MOL0     H14917  11.004   6.799   2.858  0.4360 -1.2907  2.2586
  833MOL0     H14918  11.425   6.846   2.750 -0.7953 -0.6355  0.9259
  833MOL0     H14919  11.460   6.757   2.896  0.9843 -2.4237 -0.7936
  833MOL0     H14920  11.370   6.559   2.722 -0.4743  0.1744  1.0113
  833MOL0     H14921  11.469   6.665   2.623  0.2316 -0.4638 -0.3396
  833MOL0     H14922  11.585   6.542   2.878 -0.3444 -2.8141 -1.2835
  833MOL0     H14923  11.649   6.673   2.766  2.2841 -1.0102 -0.8670
  833MOL0     H14924  11.660   6.502   2.589 -1.3283  3.4419  0.8927
  833MOL0     H14925  11.587   6.380   2.689 -1.2743  0.9081  0.6172
  833MOL0     H14926  11.854   6.524   2.751  3.0520 -1.1624 -2.3914
  833MOL0     H14927  11.792   6.396   2.843  2.5794  2.6601  1.4109
  833MOL0     H14928  11.925   6.400   2.571  0.4158  3.1584  2.8945
  833MOL0     H14929  11.785   6.281   2.579  1.9483 -1.4150 -1.3117
  833MOL0     H14930  12.017   6.329   2.764  0.6211  1.7046 -1.8000
  833MOL0     H14931  12.048   6.220   2.623 -0.1513 -0.7481 -0.1574
  833MOL0     H14932  11.852   6.166   2.858  1.4809  1.2413  1.2930
  833MOL0     H14933  12.017   6.112   2.834  1.5425  2.5405 -1.1516
  833MOL0     H14934  11.389   6.999   2.900  1.2726 -1.8940  1.5858
  833MOL0     H14935  11.271   7.196   2.990 -0.4525 -0.0879 -0.5658
  833MOL0     H14936  10.715   7.393   2.926  0.6538  1.6994 -3.0452
  833MOL0     H14937  10.654   7.624   2.961  0.7719  1.0811 -0.6536
  833MOL0     H14938   9.382   8.485   2.797 -0.0980 -0.3169  1.3233
  833MOL0     H14939   9.268   8.602   2.599  3.9199 -0.6892  0.2448
  833MOL0     H14940   8.858   8.605   2.389 -2.6419  0.7362  0.4214
  833MOL0     H14941   8.685   8.689   2.215 -0.3157 -2.2251 -1.6325
  833MOL0     H14942   8.802   8.666   1.793  1.3818 -0.0893  2.5173
  833MOL0     H14943   8.663   8.766   1.784  0.5289 -0.9933 -2.4761
  833MOL0     H14944   8.944   8.851   1.865  0.3788  1.7411 -0.8979
  833MOL0     H14945   8.810   8.943   1.930 -1.3936 -1.7574  1.7315
  833MOL0     H14946   8.747   9.002   1.701  0.6784  0.7095 -2.0490
  833MOL0     H14947   8.908   9.057   1.750  0.9684  0.2201  0.1073
  833MOL0     H14948   8.857   8.824   1.546  1.0965 -1.7362  1.2617
  833MOL0     H14949   9.014   8.868   1.625  1.1997  2.6092 -1.9541
  833MOL0     H14950   8.971   9.161   1.322  0.9465  1.2772  1.4097
  833MOL0     H14951   9.008   8.688   1.932  1.0872  4.0858  2.4656
  833MOL0     H14952   9.268   8.718   2.095 -0.9563  0.3316 -1.2495
  833MOL0     H14953   9.268   8.547   2.137 -2.8518  0.4706  1.7766
  833MOL0     H14954   9.219   8.606   1.976 -0.4747  2.1650 -1.2242
  834MOL0     O14955   6.623   9.461   1.160 -0.2580  0.5827  0.5816
  834MOL0     C14956   6.562   9.508   1.254 -0.0659  0.4773  0.1848
  834MOL0     O14957   6.477   9.445   1.343 -0.3221  0.5687  0.1800
  834MOL0     C14958   6.430   9.331   1.300  0.2335  0.0056 -0.2067
  834MOL0     C14959   6.502   9.222   1.259  0.7506  0.3182  0.1507
  834MOL0     C14960   6.436   9.104   1.208  0.5575 -0.1059  0.2541
  834MOL0     C14961   6.294   9.084   1.216 -0.8668 -0.8724  0.0353
  834MOL0     O14962   6.224   8.975   1.171 -0.2277 -0.4176 -0.1173
  834MOL0     C14963   6.294   8.853   1.159  0.2630  0.4840  0.4550
  834MOL0     C14964   6.206   8.733   1.158  0.3106 -0.0882  0.4360
  834MOL0     C14965   6.120   8.696   1.037 -0.2886 -0.6920 -0.3664
  834MOL0     C14966   6.005   8.794   1.009 -0.6721  0.4101  0.2279
  834MOL0     C14967   5.935   8.769   0.877  0.8388 -0.7342 -0.2057
  834MOL0     C14968   5.799   8.843   0.868 -0.7456 -0.4808  0.3458
  834MOL0     C14969   5.810   8.995   0.902 -0.4141 -0.5768 -0.3289
  834MOL0     C14970   5.900   9.073   0.804 -0.3609 -0.3167 -0.2943
  834MOL0     N14971   5.914   9.223   0.808  1.5121  0.2086  0.5944
  834MOL0     C14972   5.844   9.300   0.904 -0.4892  0.1632  0.5610
  834MOL0     C14973   5.880   9.431   0.875 -0.6462  0.2287  0.3732
  834MOL0     C14974   5.828   9.559   0.930 -0.0516 -0.8166 -0.5125
  834MOL0     C14975   5.699   9.585   0.849  1.2591 -0.4684  0.9924
  834MOL0     C14976   5.621   9.678   0.941 -0.0807  0.6850  0.5033
  834MOL0     C14977   5.522   9.602   1.027 -0.0030  1.0059 -0.1673
  834MOL0     O14978   5.473   9.691   1.117 -0.0596 -0.1142 -0.2351
  834MOL0     C14979   5.421   9.644   1.232  0.0188  0.8831 -0.4360
  834MOL0     C14980   5.405   9.736   1.328  0.0787 -0.8316 -0.0758
  834MOL0     C14981   5.345   9.710   1.456 -0.6002  0.1342 -0.0980
  834MOL0     C14982   5.333   9.819   1.562  0.2034 -0.3005 -0.0025
  834MOL0     C14983   5.326   9.568   1.481 -0.5193 -0.6558  0.6451
  834MOL0     C14984   5.277   9.534   1.617 -0.3709 -0.0104  0.6196
  834MOL0     O14985   5.313   9.410   1.656  0.8652  0.4908 -0.4628
  834MOL0     C14986   5.315   9.404   1.794 -1.4500 -0.4732  1.3159
  834MOL0     C14987   5.424   9.450   1.857 -0.5012 -0.7720  0.3860
  834MOL0     C14988   5.430   9.439   1.992  0.6538  0.3641 -0.6967
  834MOL0     C14989   5.337   9.375   2.069 -0.0496 -0.0210  0.0881
  834MOL0     O14990   5.347   9.373   2.207  0.4575 -0.2507 -0.2166
  834MOL0     C14991   5.228   9.408   2.278  0.4025 -0.5719  0.5658
  834MOL0     C14992   5.262   9.391   2.421  0.0387  0.5055  0.3157
  834MOL0     C14993   5.360   9.497   2.477  0.5314 -0.2412  0.7893
  834MOL0     C14994   5.388   9.492   2.632 -0.3013 -0.8909  0.7762
  834MOL0     C14995   5.456   9.623   2.675  0.7230  0.4360  0.5115
  834MOL0     C14996   5.359   9.735   2.716 -0.8613 -0.3331  0.2872
  834MOL0     C14997   5.435   9.862   2.765  0.3417  0.7374  0.0349
  834MOL0     C14998   5.471   9.852   2.907 -1.0181 -0.7724 -0.5600
  834MOL0    Cl14999   5.537  10.010   2.940  0.2939 -0.1819 -0.4992
  834MOL0     C15000   5.217   9.317   2.005 -0.1063 -0.1430 -0.6573
  834MOL0     C15001   5.214   9.338   1.869 -0.4840 -1.2496 -0.5759
  834MOL0     O15002   5.197   9.605   1.675  0.0049 -0.9868 -0.5426
  834MOL0     C15003   5.357   9.470   1.391  0.1662 -0.3258 -0.2550
  834MOL0     C15004   5.398   9.506   1.264  0.4143 -0.3874 -0.0813
  834MOL0     N15005   5.961   9.422   0.762  0.2276  0.1611  1.2572
  834MOL0     N15006   5.979   9.298   0.725  0.1017  0.5469  0.7882
  834MOL0     C15007   6.227   9.197   1.263 -0.3556  0.4024 -0.2696
  834MOL0     C15008   6.291   9.317   1.298 -0.1895  0.2232 -0.2963
  834MOL0     C15009   6.607   9.648   1.287  0.5081 -0.0062 -0.3372
  834MOL0     C15010   6.537   9.719   1.387  0.0182  0.5890 -0.1248
  834MOL0     C15011   6.548   9.856   1.421  0.4408  0.0405 -0.2968
  834MOL0     C15012   6.628   9.928   1.336 -0.2748  0.1190  0.6149
  834MOL0     O15013   6.639  10.065   1.348  0.2845  0.7733  0.7202
  834MOL0     C15014   6.568  10.146   1.252  0.1343 -0.3626 -0.0502
  834MOL0     C15015   6.410  10.134   1.265 -0.1490 -0.1650 -0.1072
  834MOL0     C15016   6.331  10.219   1.169  0.6483  0.5424  1.0314
  834MOL0     C15017   6.184  10.166   1.167  1.2960 -0.1673  1.4660
  834MOL0     C15018   6.116  10.203   1.297 -0.0787  0.8212  0.2956
  834MOL0     C15019   6.055  10.214   1.397 -0.6684 -1.0940  0.3129
  834MOL0     C15020   6.694   9.867   1.221  1.3315  1.1033  0.1654
  834MOL0     C15021   6.687   9.728   1.200  0.2031 -0.2882 -0.6475
  834MOL0     C15022   6.757   9.681   1.079  0.2792  0.2110 -0.2943
  834MOL0     H15023   6.610   9.230   1.261  0.7153  0.9053  1.5833
  834MOL0     H15024   6.498   9.026   1.166 -0.1493  0.2447 -1.5086
  834MOL0     H15025   6.349   8.847   1.254 -1.0497 -0.3274  1.1916
  834MOL0     H15026   6.362   8.842   1.074  0.9691 -3.1433  1.3089
  834MOL0     H15027   6.271   8.646   1.170  0.9400 -0.5272 -4.2923
  834MOL0     H15028   6.142   8.738   1.247 -0.5641  1.9255 -0.2561
  834MOL0     H15029   6.185   8.691   0.949  0.4301  0.4126  0.0853
  834MOL0     H15030   6.070   8.600   1.051 -1.7675  0.4742  3.8822
  834MOL0     H15031   5.932   8.788   1.090 -0.1918 -1.7280  0.5757
  834MOL0     H15032   6.046   8.894   1.022  1.0903  0.0773 -2.0455
  834MOL0     H15033   5.910   8.663   0.879 -3.6813  0.1345 -0.6845
  834MOL0     H15034   5.989   8.809   0.790 -1.2989  3.1276  0.0014
  834MOL0     H15035   5.755   8.833   0.768 -2.6933 -0.7148  1.1713
  834MOL0     H15036   5.727   8.798   0.937 -1.7568  0.9054  0.2501
  834MOL0     H15037   5.851   9.016   1.002 -0.9285  0.8633 -0.4130
  834MOL0     H15038   5.711   9.040   0.893 -0.4158 -0.5894 -0.3742
  834MOL0     H15039   6.003   9.044   0.822 -0.4363 -0.9274 -0.8291
  834MOL0     H15040   5.862   9.048   0.705 -2.6208 -0.5119  0.5414
  834MOL0     H15041   5.778   9.253   0.977  1.3690 -2.6200  0.5858
  834MOL0     H15042   5.885   9.650   0.912 -1.2084  0.0492  0.0319
  834MOL0     H15043   5.814   9.543   1.037  0.1757  0.8699 -0.2098
  834MOL0     H15044   5.697   9.639   0.754 -2.1964 -0.4425  0.9516
  834MOL0     H15045   5.646   9.493   0.822 -2.9370  1.9160  0.1483
  834MOL0     H15046   5.687   9.726   1.014  0.9184 -0.9398  0.7106
  834MOL0     H15047   5.568   9.755   0.884 -1.3380  1.1921  2.2427
  834MOL0     H15048   5.433   9.564   0.976  1.4559 -1.6313 -0.9955
  834MOL0     H15049   5.573   9.516   1.073 -1.9860  0.2073  0.6255
  834MOL0     H15050   5.419   9.842   1.314  1.7688 -1.0451 -0.2306
  834MOL0     H15051   5.381   9.906   1.517 -0.0908  0.1279  0.5116
  834MOL0     H15052   5.379   9.795   1.658 -0.8550  1.9981  1.1318
  834MOL0     H15053   5.227   9.839   1.580 -0.2204 -2.4990  0.2676
  834MOL0     H15054   5.503   9.492   1.795 -1.7306 -1.1315 -1.4919
  834MOL0     H15055   5.507   9.488   2.051 -0.8110  0.9703  0.7961
  834MOL0     H15056   5.203   9.512   2.255 -0.8748 -0.7911  0.8902
  834MOL0     H15057   5.145   9.343   2.249 -0.3771  0.7544 -0.2966
  834MOL0     H15058   5.159   9.399   2.455 -0.9655  1.8351 -2.6874
  834MOL0     H15059   5.299   9.289   2.437 -0.8184  0.2917  0.9639
  834MOL0     H15060   5.323   9.598   2.456 -1.2984 -1.3675 -1.9378
  834MOL0     H15061   5.455   9.483   2.424 -0.7510 -5.1043 -0.6761
  834MOL0     H15062   5.454   9.408   2.653  0.0096 -0.8765 -0.1308
  834MOL0     H15063   5.297   9.467   2.688  1.1112 -2.9518  2.2785
  834MOL0     H15064   5.520   9.594   2.759 -0.1886 -0.8901  0.7715
  834MOL0     H15065   5.520   9.654   2.592  1.0360  1.2013  1.0244
  834MOL0     H15066   5.294   9.692   2.792 -3.9179  2.0005 -0.8095
  834MOL0     H15067   5.293   9.765   2.634 -0.0984 -0.2773 -0.3253
  834MOL0     H15068   5.363   9.944   2.754 -0.1820  0.0996 -1.4141
  834MOL0     H15069   5.521   9.875   2.699 -1.0158 -2.0182 -2.5006
  834MOL0     H15070   5.536   9.767   2.927 -2.0326 -1.3364  0.4309
  834MOL0     H15071   5.382   9.838   2.969  0.8534 -0.2231  2.4360
  834MOL0     H15072   5.147   9.260   2.065  0.5741 -0.3085 -0.0023
  834MOL0     H15073   5.124   9.308   1.817 -0.0804  0.1036 -2.1531
  834MOL0     H15074   5.351   9.366   1.421  0.8579  0.3922  2.7088
  834MOL0     H15075   5.405   9.417   1.204 -1.3219 -3.8208  4.2442
  834MOL0     H15076   6.119   9.205   1.260 -0.5488  0.1479  2.6755
  834MOL0     H15077   6.231   9.404   1.325 -1.0466  0.3595 -2.4666
  834MOL0     H15078   6.466   9.657   1.441 -0.0437  0.2306 -0.6051
  834MOL0     H15079   6.502   9.912   1.502  1.0891 -0.3115  0.3325
  834MOL0     H15080   6.588  10.252   1.270  3.5515 -0.7861 -0.7219
  834MOL0     H15081   6.615  10.135   1.154 -0.1297  0.8715 -0.3228
  834MOL0     H15082   6.390  10.167   1.368 -2.2983 -1.1413 -0.1436
  834MOL0     H15083   6.371  10.032   1.257  0.6072 -0.4005 -0.8260
  834MOL0     H15084   6.325  10.322   1.204  0.9867  1.0201 -0.2535
  834MOL0     H15085   6.374  10.223   1.069  0.7910  2.3969  1.1260
  834MOL0     H15086   6.163  10.062   1.141 -0.4581  0.8816 -1.9500
  834MOL0     H15087   6.136  10.222   1.086  4.7518  1.0058  0.0760
  834MOL0     H15088   5.993  10.234   1.482 -0.5669 -1.9037  0.5770
  834MOL0     H15089   6.747   9.921   1.143  0.8263  1.5240  0.1037
  834MOL0     H15090   6.821   9.753   1.027  0.8513 -0.2655 -0.2633
  834MOL0     H15091   6.816   9.591   1.096  0.7294  0.1706 -1.8897
  834MOL0     H15092   6.669   9.663   1.016 -1.4256  1.8444  1.4654
  835MOL0     O15093   4.639   2.104   6.006 -0.2095 -0.2570 -0.3166
  835MOL0     C15094   4.570   2.137   6.098 -0.2082  0.1624  0.6040
  835MOL0     O15095   4.592   2.096   6.225 -0.0148 -0.2605 -0.0941
  835MOL0     C15096   4.705   2.022   6.254 -0.4686  0.5878  1.6285
  835MOL0     C15097   4.742   1.915   6.175  0.4329  0.5964  0.0630
  835MOL0     C15098   4.842   1.824   6.211  0.5749 -0.6661  0.0170
  835MOL0     C15099   4.932   1.849   6.319  0.0397  0.2125 -0.5085
  835MOL0     O15100   5.033   1.772   6.372  0.4378 -0.5095  0.3002
  835MOL0     C15101   5.048   1.632   6.331  0.1990 -0.1750 -0.4818
  835MOL0     C15102   5.199   1.606   6.347 -0.2986  0.6866  0.0257
  835MOL0     C15103   5.248   1.621   6.499 -0.6280 -0.2803  0.7411
  835MOL0     C15104   5.156   1.556   6.601  0.0050  0.5587 -0.4175
  835MOL0     C15105   5.218   1.562   6.737 -0.2063 -0.2048  0.5951
  835MOL0     C15106   5.137   1.485   6.839 -0.7278  0.2508 -0.1089
  835MOL0     C15107   5.215   1.444   6.963  0.0643 -0.2352 -0.0661
  835MOL0     C15108   5.222   1.559   7.065 -0.3806 -0.4437  0.6079
  835MOL0     N15109   5.319   1.667   7.026 -0.2121 -0.4122 -0.7507
  835MOL0     C15110   5.448   1.645   7.002  0.4864  0.2930  0.5868
  835MOL0     C15111   5.493   1.754   6.937 -0.7483 -0.3915  0.2599
  835MOL0     C15112   5.644   1.767   6.896 -0.1173 -0.5707  0.1546
  835MOL0     C15113   5.659   1.748   6.747  0.2687  0.5854  0.5725
  835MOL0     C15114   5.582   1.845   6.648 -0.0439 -0.8019  0.2897
  835MOL0     C15115   5.630   1.819   6.499 -0.3388 -1.0726 -0.5895
  835MOL0     O15116   5.565   1.698   6.450 -0.7316 -0.5936 -0.2937
  835MOL0     C15117   5.572   1.670   6.317 -0.2249  0.0772 -0.7232
  835MOL0     C15118   5.555   1.545   6.293  0.4720  0.8502 -0.0152
  835MOL0     C15119   5.571   1.499   6.162  0.0447  0.8549 -0.1424
  835MOL0     C15120   5.543   1.355   6.154  0.3022 -0.0051 -0.1372
  835MOL0     C15121   5.586   1.588   6.056 -0.5057  0.3405 -0.0881
  835MOL0     C15122   5.589   1.547   5.907  0.7289 -0.2689 -0.1171
  835MOL0     O15123   5.555   1.646   5.820  0.6158 -0.4273 -0.5178
  835MOL0     C15124   5.561   1.639   5.687  0.4289  0.1504  0.7415
  835MOL0     C15125   5.677   1.692   5.623  1.1563 -0.0805  0.0230
  835MOL0     C15126   5.700   1.659   5.491  0.4270  0.7002 -0.2145
  835MOL0     C15127   5.606   1.593   5.413  0.5773 -1.3700  0.1693
  835MOL0     O15128   5.613   1.572   5.277 -0.2644  0.3073  0.1835
  835MOL0     C15129   5.705   1.655   5.202  0.5206  0.0965 -0.5073
  835MOL0     C15130   5.665   1.663   5.051  0.5063  0.4414 -0.2086
  835MOL0     C15131   5.522   1.721   5.032  0.0013  0.0907  0.2769
  835MOL0     C15132   5.498   1.745   4.879  0.2565 -0.9115 -0.4881
  835MOL0     C15133   5.364   1.807   4.852  0.0053  0.2603  0.5031
  835MOL0     C15134   5.354   1.811   4.699 -0.5978 -0.5946 -0.1248
  835MOL0     C15135   5.226   1.890   4.640 -1.0651  0.8769 -0.7315
  835MOL0     C15136   5.242   1.902   4.493 -0.8547 -0.4383  0.3872
  835MOL0    Cl15137   5.104   1.989   4.421  0.3198 -0.2958  0.1349
  835MOL0     C15138   5.491   1.534   5.479  0.5589 -0.0226  0.5104
  835MOL0     C15139   5.465   1.566   5.614  0.4731 -0.2770 -0.1338
  835MOL0     O15140   5.612   1.434   5.879 -0.0708  0.4256  0.3716
  835MOL0     C15141   5.603   1.719   6.080  0.7315 -0.2074  0.5830
  835MOL0     C15142   5.588   1.761   6.210 -0.3479 -0.2780  0.6590
  835MOL0     N15143   5.394   1.849   6.924 -0.1165  0.2959 -0.4221
  835MOL0     N15144   5.291   1.793   6.977  0.2356  0.3726  0.3918
  835MOL0     C15145   4.914   1.975   6.380  0.5458  0.3206 -0.8302
  835MOL0     C15146   4.800   2.051   6.359  0.5164  0.0050 -0.7885
  835MOL0     C15147   4.450   2.218   6.067  0.3415  0.4982  0.7696
  835MOL0     C15148   4.347   2.234   6.164  0.7557 -0.4751  0.1222
  835MOL0     C15149   4.214   2.263   6.118 -0.2500 -0.5039 -0.5315
  835MOL0     C15150   4.187   2.293   5.985 -0.3041 -0.5699  0.1097
  835MOL0     O15151   4.058   2.328   5.943 -0.1005 -0.2114 -0.9031
  835MOL0     C15152   3.937   2.288   6.017 -0.4841 -0.5294  0.3008
  835MOL0     C15153   3.918   2.138   6.036  0.0242 -0.0120  0.3896
  835MOL0     C15154   3.835   2.072   5.927  0.4837  0.4976  0.6117
  835MOL0     C15155   3.686   2.097   5.927  0.1393  1.0094 -0.7419
  835MOL0     C15156   3.630   2.055   5.805  0.2124  0.1367  0.1018
  835MOL0     C15157   3.574   2.032   5.697  0.9479 -0.2349 -0.2976
  835MOL0     C15158   4.291   2.292   5.889  0.0143 -0.2371  0.1896
  835MOL0     C15159   4.417   2.254   5.935 -0.0881 -0.8245 -0.2036
  835MOL0     C15160   4.519   2.262   5.823  0.0050  0.3576  0.6944
  835MOL0     H15161   4.664   1.895   6.102 -0.1730  2.3171  0.1969
  835MOL0     H15162   4.855   1.739   6.144 -2.8293  0.0648 -1.8094
  835MOL0     H15163   5.028   1.623   6.224 -1.4581  0.1847 -0.2325
  835MOL0     H15164   4.983   1.570   6.394  1.8416 -2.6714 -1.1259
  835MOL0     H15165   5.227   1.506   6.311 -0.4398 -0.2584  2.3906
  835MOL0     H15166   5.251   1.678   6.282 -0.3835  0.0257 -0.7953
  835MOL0     H15167   5.349   1.582   6.516 -0.9337 -1.4337  0.0320
  835MOL0     H15168   5.252   1.728   6.519  1.7420 -0.4303  1.4318
  835MOL0     H15169   5.053   1.593   6.597 -1.1163 -2.2153 -0.1156
  835MOL0     H15170   5.160   1.452   6.565  0.7742  0.1763  0.7068
  835MOL0     H15171   5.213   1.666   6.769 -2.0935 -0.6078  1.8191
  835MOL0     H15172   5.316   1.514   6.729 -0.8980 -1.7819  1.1148
  835MOL0     H15173   5.048   1.540   6.869  0.2148  1.4828  0.5416
  835MOL0     H15174   5.102   1.389   6.798 -1.4745  1.2315 -1.8939
  835MOL0     H15175   5.309   1.398   6.930 -0.8848 -1.5632 -1.0391
  835MOL0     H15176   5.161   1.365   7.015  1.8718 -1.3732  0.1718
  835MOL0     H15177   5.122   1.604   7.062  0.7490  2.1711 -1.2704
  835MOL0     H15178   5.236   1.521   7.167  3.2106 -0.5253  0.2082
  835MOL0     H15179   5.495   1.549   7.020 -0.5590  0.2875  3.8100
  835MOL0     H15180   5.711   1.693   6.942  0.2152 -0.0988  0.4377
  835MOL0     H15181   5.679   1.867   6.921  1.6869 -1.2602  0.5950
  835MOL0     H15182   5.767   1.752   6.733  0.4855  1.1146  2.2466
  835MOL0     H15183   5.636   1.644   6.723 -0.2813  1.0025 -0.8052
  835MOL0     H15184   5.474   1.831   6.636 -0.1274  0.8304 -1.3925
  835MOL0     H15185   5.596   1.948   6.683  1.0515 -0.2984 -1.5147
  835MOL0     H15186   5.600   1.900   6.432 -1.2623  0.0754  1.1443
  835MOL0     H15187   5.739   1.819   6.493 -0.1399 -3.3350  1.4634
  835MOL0     H15188   5.546   1.480   6.380 -2.7888  0.9529 -0.1830
  835MOL0     H15189   5.447   1.349   6.101  0.1073  1.7713 -0.0513
  835MOL0     H15190   5.529   1.311   6.253  1.2662  1.2485  0.5824
  835MOL0     H15191   5.613   1.289   6.102  0.1329  0.5265 -1.0560
  835MOL0     H15192   5.745   1.744   5.689 -2.3779  0.2232  3.8561
  835MOL0     H15193   5.798   1.687   5.453  1.4806  3.3692  3.7903
  835MOL0     H15194   5.695   1.754   5.248  1.7549 -1.2840  3.0816
  835MOL0     H15195   5.807   1.614   5.204  0.1329 -0.9116 -0.6086
  835MOL0     H15196   5.744   1.715   4.996  0.4224 -0.9272 -1.6794
  835MOL0     H15197   5.674   1.557   5.025 -0.1897 -0.1359  1.6976
  835MOL0     H15198   5.514   1.815   5.087  0.7818  1.4556 -1.8262
  835MOL0     H15199   5.447   1.656   5.078 -1.4208  0.6917 -1.1027
  835MOL0     H15200   5.495   1.652   4.822  0.0582  0.0109 -2.0237
  835MOL0     H15201   5.583   1.801   4.838 -2.1146  0.4882 -3.9056
  835MOL0     H15202   5.292   1.743   4.905 -0.7673 -0.5365 -1.4089
  835MOL0     H15203   5.348   1.902   4.903  1.0553  2.8018 -3.4407
  835MOL0     H15204   5.345   1.706   4.669 -1.8854 -1.0596  1.6678
  835MOL0     H15205   5.441   1.857   4.651 -0.6380 -1.7620 -1.3622
  835MOL0     H15206   5.208   1.989   4.684 -1.2962 -0.1603  1.6263
  835MOL0     H15207   5.142   1.823   4.662 -0.1205 -0.1160 -0.0876
  835MOL0     H15208   5.274   1.808   4.446  0.3046  0.1875 -0.1062
  835MOL0     H15209   5.327   1.968   4.476 -1.3724 -0.0412 -0.8160
  835MOL0     H15210   5.413   1.471   5.437 -1.0505  2.3109 -0.1785
  835MOL0     H15211   5.373   1.529   5.658  0.0518  2.1205  1.1828
  835MOL0     H15212   5.606   1.796   6.004 -0.8929  0.5468  1.2296
  835MOL0     H15213   5.600   1.868   6.222  1.1323 -0.2299 -0.9345
  835MOL0     H15214   4.984   2.001   6.460 -1.8972 -2.1497  2.4157
  835MOL0     H15215   4.796   2.131   6.432  2.1841  0.1058 -0.7585
  835MOL0     H15216   4.349   2.207   6.269  2.3088  1.2889  0.5876
  835MOL0     H15217   4.134   2.262   6.191  1.4223 -0.7887  1.4016
  835MOL0     H15218   3.939   2.335   6.116 -0.9924  0.2294 -0.0456
  835MOL0     H15219   3.856   2.337   5.962  0.3457 -0.0066 -0.4784
  835MOL0     H15220   3.859   2.118   6.126 -2.1596  0.0238 -0.9861
  835MOL0     H15221   4.015   2.086   6.033  0.8443  1.4032  1.2604
  835MOL0     H15222   3.876   2.095   5.828 -1.2753 -1.1234 -0.5716
  835MOL0     H15223   3.856   1.964   5.930 -0.6733  0.2683  1.4630
  835MOL0     H15224   3.657   2.202   5.927  1.0030  1.3461  1.9508
  835MOL0     H15225   3.628   2.054   6.010 -0.2907 -0.2451 -1.6628
  835MOL0     H15226   3.541   2.011   5.597  0.8719 -0.8667 -0.1439
  835MOL0     H15227   4.270   2.347   5.798 -1.6753 -0.2019  0.5727
  835MOL0     H15228   4.617   2.304   5.847  0.9632  0.5041 -2.8574
  835MOL0     H15229   4.524   2.159   5.784  1.8828  0.8112 -0.3869
  835MOL0     H15230   4.479   2.319   5.739  1.7397  0.6464  0.0142
  836MOL0     O15231  11.312  11.341   4.680 -0.1273  0.0676 -0.7683
  836MOL0     C15232  11.197  11.311   4.719  0.3781  0.2814  0.0133
  836MOL0     O15233  11.087  11.388   4.694 -0.4511  0.0287 -0.2549
  836MOL0     C15234  11.083  11.456   4.577 -1.1993  0.4617  0.4610
  836MOL0     C15235  11.019  11.583   4.568  0.2735  0.1740 -0.7551
  836MOL0     C15236  11.008  11.648   4.442 -0.2705 -0.3590 -0.8717
  836MOL0     C15237  11.064  11.597   4.331 -0.1716  0.3554 -0.0743
  836MOL0     O15238  11.048  11.639   4.202  0.8946 -0.5856  0.7557
  836MOL0     C15239  11.033  11.772   4.166  0.6545 -0.6698  0.1036
  836MOL0     C15240  11.153  11.852   4.204 -0.3253 -0.4301 -0.8594
  836MOL0     C15241  11.112  11.997   4.197  0.4022 -1.4866 -0.7623
  836MOL0     C15242  11.040  12.025   4.327 -0.1286  0.1954  0.1275
  836MOL0     C15243  11.011  12.181   4.347 -0.2965 -0.9824  0.3042
  836MOL0     C15244  11.104  12.261   4.434 -0.9651 -0.3031  0.4420
  836MOL0     C15245  11.033  12.386   4.481  0.5010  0.9759 -0.1168
  836MOL0     C15246  11.118  12.482   4.570  0.4242  0.0623  0.5926
  836MOL0     N15247  11.222  12.549   4.483  0.0576 -1.1264 -0.5020
  836MOL0     C15248  11.200  12.678   4.436 -0.3578 -0.6751 -0.5618
  836MOL0     C15249  11.316  12.716   4.374 -0.0534  0.5820  0.2765
  836MOL0     C15250  11.335  12.840   4.298 -0.1851 -0.0347  0.6677
  836MOL0     C15251  11.447  12.940   4.334  0.3168  0.3347  0.1016
  836MOL0     C15252  11.427  13.006   4.474  0.1629  0.3526 -0.3546
  836MOL0     C15253  11.480  13.147   4.471  0.0895  0.0109  0.3664
  836MOL0     O15254  11.621  13.132   4.433  0.4550  0.0447  0.5006
  836MOL0     C15255  11.702  13.231   4.466 -0.5268 -0.8686  0.1837
  836MOL0     C15256  11.782  13.211   4.582  0.4640 -0.3243 -0.6390
  836MOL0     C15257  11.873  13.301   4.623 -0.5511 -0.2781 -0.3095
  836MOL0     C15258  11.941  13.281   4.762  0.5439 -0.2521  0.6606
  836MOL0     C15259  11.907  13.415   4.540 -0.2955  0.7894 -0.6691
  836MOL0     C15260  11.994  13.534   4.574 -0.2360  0.0018  0.8821
  836MOL0     O15261  12.041  13.545   4.702 -0.9528  0.3203  0.3467
  836MOL0     C15262  12.106  13.665   4.733 -0.5026  0.1368  0.7212
  836MOL0     C15263  12.042  13.758   4.810  0.4318  0.0554  1.2032
  836MOL0     C15264  12.114  13.879   4.837  0.2887  0.4411 -0.0840
  836MOL0     C15265  12.241  13.909   4.785  0.2699 -0.8946  0.0384
  836MOL0     O15266  12.300  14.034   4.801  0.5463 -0.0834 -0.2726
  836MOL0     C15267  12.436  14.067   4.746  0.3127  0.1405  0.0940
  836MOL0     C15268  12.476  14.214   4.775 -0.6915  0.0915 -0.9320
  836MOL0     C15269  12.441  14.258   4.925  0.0287  0.2871 -0.4863
  836MOL0     C15270  12.543  14.206   5.033 -0.5052  0.3091 -0.6448
  836MOL0     C15271  12.521  14.279   5.167  0.3451  0.4596 -0.1935
  836MOL0     C15272  12.602  14.200   5.286 -0.0019  0.2146  0.0822
  836MOL0     C15273  12.561  14.265   5.418 -0.0748  0.1723  0.5780
  836MOL0     C15274  12.619  14.189   5.525 -1.2197  1.0485 -1.4689
  836MOL0    Cl15275  12.524  14.212   5.671  0.1472 -0.0840  0.1382
  836MOL0     C15276  12.297  13.813   4.700  0.1443 -0.5762 -0.4265
  836MOL0     C15277  12.243  13.683   4.692  0.3574  0.7956 -0.1953
  836MOL0     O15278  12.007  13.616   4.486  0.1085  0.4525  0.2944
  836MOL0     C15279  11.829  13.422   4.412  0.6118  0.6346  0.1060
  836MOL0     C15280  11.729  13.332   4.383  0.0876 -0.3587  0.4818
  836MOL0     N15281  11.412  12.611   4.400 -0.6448 -0.3746 -0.1009
  836MOL0     N15282  11.352  12.527   4.466  0.3004 -0.0831 -1.0920
  836MOL0     C15283  11.119  11.468   4.337 -0.2211 -0.1183 -0.2144
  836MOL0     C15284  11.128  11.399   4.457  0.0296  0.1250 -0.4302
  836MOL0     C15285  11.181  11.195   4.806 -0.1347  0.2570 -0.4216
  836MOL0     C15286  11.293  11.165   4.891 -0.1706  0.6975  0.3243
  836MOL0     C15287  11.293  11.048   4.964 -0.7186 -0.3692  1.2824
  836MOL0     C15288  11.172  10.970   4.976 -0.3374  0.0869 -1.0744
  836MOL0     O15289  11.182  10.863   5.067 -0.3589  0.7294 -0.1264
  836MOL0     C15290  11.101  10.747   5.060 -0.9208 -0.5363  0.1631
  836MOL0     C15291  11.030  10.747   5.198  1.0694  0.3675 -0.3982
  836MOL0     C15292  11.099  10.823   5.324 -0.6371 -0.5427 -0.0759
  836MOL0     C15293  11.243  10.755   5.352  0.2857 -0.5589  0.1059
  836MOL0     C15294  11.226  10.625   5.415 -0.3296 -0.2397  0.0834
  836MOL0     C15295  11.193  10.513   5.445  0.4904  0.3934  0.1572
  836MOL0     C15296  11.062  11.012   4.909 -0.5126  0.1887  0.6675
  836MOL0     C15297  11.065  11.109   4.812  0.2028 -0.9821 -0.1715
  836MOL0     C15298  10.934  11.131   4.735 -0.0961  0.7695 -0.1397
  836MOL0     H15299  10.973  11.626   4.656 -0.5617 -2.3975  0.1499
  836MOL0     H15300  10.957  11.744   4.443 -0.1901 -0.3049  1.1718
  836MOL0     H15301  10.945  11.810   4.219  1.6994  0.0110  1.4071
  836MOL0     H15302  11.017  11.799   4.061  0.0822 -1.6831 -0.0859
  836MOL0     H15303  11.184  11.815   4.302  1.2527  1.9674 -0.3563
  836MOL0     H15304  11.241  11.838   4.140  1.0146  0.9509  0.5915
  836MOL0     H15305  11.197  12.065   4.208 -0.2422 -0.4853 -1.7482
  836MOL0     H15306  11.047  12.025   4.113 -1.6114 -0.4479  1.0488
  836MOL0     H15307  10.943  11.974   4.330 -0.1036  0.0318 -1.3184
  836MOL0     H15308  11.078  11.991   4.424 -0.4998  1.8306  0.8732
  836MOL0     H15309  10.913  12.181   4.393 -0.3561  1.8019  0.3775
  836MOL0     H15310  11.007  12.222   4.245  3.0901  0.3574  0.5404
  836MOL0     H15311  11.139  12.197   4.515  0.1414 -0.9629 -0.5195
  836MOL0     H15312  11.200  12.271   4.383 -1.2576 -0.2786 -0.1063
  836MOL0     H15313  10.949  12.358   4.544 -0.6524  0.4737 -1.7983
  836MOL0     H15314  11.002  12.438   4.390  1.9805 -2.4201 -2.8239
  836MOL0     H15315  11.053  12.558   4.615  1.3497  2.8771 -2.4338
  836MOL0     H15316  11.168  12.424   4.648 -0.9395 -3.2697 -0.8096
  836MOL0     H15317  11.105  12.730   4.435 -0.3755 -0.3336  3.6010
  836MOL0     H15318  11.239  12.893   4.301 -0.8723 -1.2856  2.6620
  836MOL0     H15319  11.355  12.811   4.194  0.3542  3.2586 -0.2577
  836MOL0     H15320  11.539  12.882   4.326  0.6991  0.5387  2.4662
  836MOL0     H15321  11.457  13.024   4.264  0.4265  0.0230 -0.2611
  836MOL0     H15322  11.324  13.001   4.510  0.0253  0.9872 -0.6643
  836MOL0     H15323  11.490  12.947   4.543  3.2329  2.0053 -1.5527
  836MOL0     H15324  11.429  13.202   4.391 -2.1983 -2.4174  0.0203
  836MOL0     H15325  11.456  13.208   4.559  0.4603  0.5545  0.0963
  836MOL0     H15326  11.757  13.125   4.643  1.7737 -1.7452 -2.0331
  836MOL0     H15327  11.926  13.373   4.820  1.3575  0.6338 -0.4751
  836MOL0     H15328  12.047  13.254   4.758  0.8129  0.6221  1.4458
  836MOL0     H15329  11.877  13.211   4.816 -2.2498  1.4995 -0.1541
  836MOL0     H15330  11.941  13.743   4.845 -0.1490  1.3427  0.1477
  836MOL0     H15331  12.067  13.952   4.902  0.8231  1.5547 -0.9321
  836MOL0     H15332  12.514  14.000   4.784 -0.0902  0.1159  0.9181
  836MOL0     H15333  12.440  14.051   4.638 -0.9231  1.1187 -0.1213
  836MOL0     H15334  12.583  14.228   4.755 -0.4631 -0.9695 -0.5171
  836MOL0     H15335  12.425  14.284   4.709  1.7184  3.2752  0.2790
  836MOL0     H15336  12.340  14.226   4.952 -1.7510  4.1922 -1.7684
  836MOL0     H15337  12.444  14.367   4.927 -1.6668  0.3530  0.3170
  836MOL0     H15338  12.647  14.212   5.002 -0.1812 -1.2374  0.0581
  836MOL0     H15339  12.539  14.098   5.050  1.8376  0.3272  0.3597
  836MOL0     H15340  12.557  14.382   5.164  0.2021  0.4822 -1.7094
  836MOL0     H15341  12.414  14.275   5.189 -0.0240 -0.5171 -2.0315
  836MOL0     H15342  12.710  14.198   5.271 -0.2998 -1.3318 -2.4772
  836MOL0     H15343  12.576  14.093   5.285 -2.5438  0.7187 -2.8509
  836MOL0     H15344  12.452  14.260   5.423 -0.0753 -3.9023 -0.3494
  836MOL0     H15345  12.614  14.361   5.420  3.7297 -1.6310 -1.6538
  836MOL0     H15346  12.722  14.223   5.544 -0.1146 -2.6501 -0.0645
  836MOL0     H15347  12.618  14.083   5.501 -3.8792  0.9091 -0.9888
  836MOL0     H15348  12.392  13.837   4.655  0.7744  0.0798  1.1748
  836MOL0     H15349  12.294  13.596   4.650  0.6392  1.9701 -2.4772
  836MOL0     H15350  11.855  13.488   4.331 -0.7935  1.7434  0.5176
  836MOL0     H15351  11.675  13.327   4.289 -1.8861  3.8745  1.1502
  836MOL0     H15352  11.146  11.417   4.245  0.4211 -0.6045  0.2370
  836MOL0     H15353  11.178  11.303   4.448  1.4455  0.7511  0.4272
  836MOL0     H15354  11.386  11.220   4.878  0.0766  0.1611 -0.2614
  836MOL0     H15355  11.373  11.029   5.035 -0.8337  0.2380  1.5831
  836MOL0     H15356  11.039  10.760   4.971  1.5473  6.6207 -1.2410
  836MOL0     H15357  11.160  10.655   5.050  0.7733  0.6012 -1.0367
  836MOL0     H15358  11.013  10.645   5.233  0.1568  1.1828  1.6891
  836MOL0     H15359  10.929  10.787   5.182  1.6381  2.4559  0.8564
  836MOL0     H15360  11.111  10.930   5.304  2.6425  0.2347  4.6168
  836MOL0     H15361  11.026  10.816   5.405 -2.3003  4.2450 -0.8150
  836MOL0     H15362  11.305  10.812   5.421 -0.4571  1.0446 -0.5054
  836MOL0     H15363  11.307  10.737   5.265 -0.1068  1.7234 -0.7259
  836MOL0     H15364  11.165  10.413   5.471 -0.2985 -0.3329 -3.1086
  836MOL0     H15365  10.970  10.959   4.932 -0.1836 -1.2679 -1.1344
  836MOL0     H15366  10.855  11.058   4.755 -1.6997  1.8939 -1.9621
  836MOL0     H15367  10.899  11.232   4.757  1.6220  1.4627 -0.4226
  836MOL0     H15368  10.960  11.139   4.629 -3.4544  0.8013 -1.0690
  837MOL0     O15369   9.517  10.578   9.011 -0.4621 -0.0980  0.3260
  837MOL0     C15370   9.413  10.515   9.039 -0.0380 -0.0381 -0.3994
  837MOL0     O15371   9.296  10.571   9.057  0.0969  0.4572  0.2655
  837MOL0     C15372   9.300  10.707   9.054  0.0935 -1.5335 -0.5466
  837MOL0     C15373   9.320  10.773   9.172  0.2733 -0.4016 -0.9483
  837MOL0     C15374   9.328  10.911   9.180  0.3615 -0.1905  0.2398
  837MOL0     C15375   9.292  10.986   9.070 -0.0820 -0.5171  0.8652
  837MOL0     O15376   9.298  11.121   9.081  0.6159 -0.3040 -0.4426
  837MOL0     C15377   9.200  11.171   9.179 -0.5504  0.8409  0.6763
  837MOL0     C15378   9.181  11.316   9.148 -0.0981 -0.0380  0.0924
  837MOL0     C15379   9.044  11.376   9.195 -0.0638 -0.2980  0.0429
  837MOL0     C15380   9.025  11.368   9.349  0.3624  0.1288 -0.0098
  837MOL0     C15381   8.879  11.399   9.383 -1.0952 -0.4532  0.2619
  837MOL0     C15382   8.794  11.281   9.344  0.2095  0.2685  0.0510
  837MOL0     C15383   8.648  11.305   9.387 -0.1003 -0.1248 -0.0178
  837MOL0     C15384   8.585  11.447   9.352 -0.4754  1.3349 -0.4285
  837MOL0     N15385   8.471  11.466   9.439 -0.2736 -0.3959 -0.4190
  837MOL0     C15386   8.467  11.475   9.582 -0.3472 -0.2172  0.8097
  837MOL0     C15387   8.338  11.502   9.613 -0.1248 -0.1253  0.1114
  837MOL0     C15388   8.283  11.497   9.755 -1.0456  0.1735  0.8955
  837MOL0     C15389   8.242  11.355   9.808  0.7266 -0.2795  0.4434
  837MOL0     C15390   8.166  11.274   9.705  0.1579  0.4996  0.8090
  837MOL0     C15391   8.039  11.334   9.646 -0.2687  0.0324 -0.1329
  837MOL0     O15392   7.954  11.383   9.756 -0.0972  0.6991  0.3203
  837MOL0     C15393   7.849  11.466   9.707 -0.6208 -0.0925 -0.4715
  837MOL0     C15394   7.856  11.553   9.593  0.2681 -0.4306 -0.0518
  837MOL0     C15395   7.752  11.631   9.548  0.0911 -0.5478 -0.1234
  837MOL0     C15396   7.783  11.692   9.417  0.3289  0.5263 -0.7941
  837MOL0     C15397   7.633  11.634   9.625 -0.0103 -0.5622  0.0866
  837MOL0     C15398   7.517  11.729   9.586 -0.2897  0.5662  0.6407
  837MOL0     O15399   7.416  11.728   9.678  0.2733 -0.5281 -0.4216
  837MOL0     C15400   7.306  11.810   9.664  0.1076  0.0287 -0.2099
  837MOL0     C15401   7.316  11.938   9.619  0.4925 -0.8380 -0.8505
  837MOL0     C15402   7.208  12.026   9.594 -0.4170  0.1083  0.0729
  837MOL0     C15403   7.080  11.983   9.630 -0.2099  0.4151 -0.2110
  837MOL0     O15404   6.966  12.054   9.633 -0.3285 -0.0627  0.5705
  837MOL0     C15405   6.900  12.028   9.503 -0.4687 -0.1591 -0.4071
  837MOL0     C15406   6.971  12.098   9.384 -0.5219  0.8050  0.7725
  837MOL0     C15407   6.902  12.054   9.254 -0.9348 -1.0140  0.2335
  837MOL0     C15408   6.958  12.124   9.132 -0.0896  0.4315 -0.1520
  837MOL0     C15409   6.861  12.116   9.018  0.3108 -0.3589  0.6326
  837MOL0     C15410   6.914  12.200   8.906  0.0368  0.4864  1.0641
  837MOL0     C15411   6.816  12.201   8.790 -0.0739  0.1966 -0.5151
  837MOL0     C15412   6.850  12.266   8.657  0.0607  0.1151  0.6016
  837MOL0    Cl15413   6.937  12.416   8.699  0.2490 -0.1135  0.2012
  837MOL0     C15414   7.069  11.853   9.682  0.1981  1.2920  0.3143
  837MOL0     C15415   7.179  11.763   9.690 -0.6391 -0.2287  0.7328
  837MOL0     O15416   7.515  11.797   9.487  0.2480 -0.3920  0.2316
  837MOL0     C15417   7.636  11.561   9.749 -0.5229 -0.1698 -0.6078
  837MOL0     C15418   7.740  11.478   9.790  0.3808 -1.1277  0.7878
  837MOL0     N15419   8.268  11.530   9.497 -0.1990 -0.4792  0.1338
  837MOL0     N15420   8.351  11.513   9.396 -0.0605  0.1406 -0.4406
  837MOL0     C15421   9.264  10.926   8.951  0.4233  0.0201  0.7609
  837MOL0     C15422   9.265  10.782   8.936  0.6773 -0.1286 -0.1659
  837MOL0     C15423   9.421  10.366   9.047 -1.1049 -0.1201  0.0475
  837MOL0     C15424   9.301  10.286   9.062 -0.7065 -0.6306  0.4958
  837MOL0     C15425   9.304  10.153   9.066  0.1526 -0.3622 -0.3125
  837MOL0     C15426   9.424  10.088   9.058 -0.4297  0.5103  0.8183
  837MOL0     O15427   9.443   9.958   9.078 -0.0316  0.8271 -0.2400
  837MOL0     C15428   9.336   9.861   9.053 -0.9516 -0.0078  0.1464
  837MOL0     C15429   9.328   9.758   9.167 -0.4039 -0.2265  0.3338
  837MOL0     C15430   9.242   9.799   9.291 -0.1896 -0.7086  0.4883
  837MOL0     C15431   9.283   9.935   9.342  0.2793  0.2875 -0.6165
  837MOL0     C15432   9.254   9.958   9.482 -0.2377 -0.1675  0.4090
  837MOL0     C15433   9.233   9.970   9.603  0.2975 -0.4941 -0.2608
  837MOL0     C15434   9.540  10.157   9.045 -0.0324 -1.1732 -0.9760
  837MOL0     C15435   9.551  10.296   9.037 -0.7394 -0.1063 -0.0470
  837MOL0     C15436   9.689  10.352   9.005  0.4178  0.2579 -0.4670
  837MOL0     H15437   9.319  10.730   9.271 -0.5883  1.5997 -0.0312
  837MOL0     H15438   9.345  10.947   9.281  3.0331 -2.4912  0.7506
  837MOL0     H15439   9.234  11.162   9.283  0.3730  0.6513  0.3696
  837MOL0     H15440   9.107  11.113   9.174 -0.5113  0.8994 -1.0750
  837MOL0     H15441   9.264  11.373   9.192 -0.1264  1.8989 -2.1603
  837MOL0     H15442   9.181  11.335   9.040  3.3177  2.2370  0.3421
  837MOL0     H15443   9.026  11.481   9.169  1.8139 -0.0965 -0.5487
  837MOL0     H15444   8.970  11.319   9.137  0.5539 -1.5673  0.4706
  837MOL0     H15445   9.061  11.274   9.391  0.7359  0.1230 -0.3316
  837MOL0     H15446   9.092  11.437   9.401 -1.3303  0.3132  2.0286
  837MOL0     H15447   8.852  11.489   9.327 -1.3133 -0.2772  0.6444
  837MOL0     H15448   8.870  11.424   9.490  1.3781 -0.8303  0.6169
  837MOL0     H15449   8.798  11.248   9.240 -1.7456 -1.5503  0.4733
  837MOL0     H15450   8.830  11.193   9.400  2.7956  3.0409  3.1764
  837MOL0     H15451   8.653  11.297   9.496  1.2207  0.0539 -0.0513
  837MOL0     H15452   8.588  11.221   9.351 -0.4254  1.2893 -3.0322
  837MOL0     H15453   8.652  11.533   9.354  2.4598 -0.8174  0.0534
  837MOL0     H15454   8.550  11.441   9.249 -2.4257 -3.2826  0.2295
  837MOL0     H15455   8.548  11.459   9.652  0.5078  2.0348  0.3979
  837MOL0     H15456   8.195  11.561   9.753  0.8624  3.0005 -1.3849
  837MOL0     H15457   8.356  11.549   9.816  0.4166 -0.9867  0.2164
  837MOL0     H15458   8.336  11.305   9.834 -0.7233 -3.5115 -0.1096
  837MOL0     H15459   8.190  11.362   9.904  0.6559 -0.1381  0.3946
  837MOL0     H15460   8.224  11.258   9.614 -2.8927  0.0330 -1.2006
  837MOL0     H15461   8.166  11.166   9.725  1.3646  0.5634  1.2466
  837MOL0     H15462   8.079  11.414   9.582  2.7703 -3.0812 -2.5034
  837MOL0     H15463   7.987  11.261   9.583 -0.1169 -0.6606  0.5400
  837MOL0     H15464   7.955  11.562   9.550  1.5669 -2.5739  2.1799
  837MOL0     H15465   7.710  11.666   9.340  2.0348 -0.3681 -2.1570
  837MOL0     H15466   7.876  11.649   9.380  1.1557  0.9757  0.6730
  837MOL0     H15467   7.797  11.800   9.426 -0.9939  0.5730  1.3059
  837MOL0     H15468   7.409  11.988   9.595 -2.1431  4.6831 -0.9174
  837MOL0     H15469   7.240  12.128   9.579  2.0627 -0.0967  2.9039
  837MOL0     H15470   6.879  11.922   9.485 -0.1442 -0.0207 -1.6671
  837MOL0     H15471   6.798  12.066   9.510  1.0207  4.2278  2.8972
  837MOL0     H15472   6.957  12.205   9.398  1.3166  1.1234  0.4128
  837MOL0     H15473   7.076  12.071   9.370 -0.9469  0.3669 -2.2318
  837MOL0     H15474   6.796  12.074   9.271 -1.0096 -0.2367 -0.9927
  837MOL0     H15475   6.919  11.948   9.233  0.9163 -0.8156  0.5947
  837MOL0     H15476   7.056  12.083   9.106 -1.6077 -3.0097 -0.9459
  837MOL0     H15477   6.973  12.231   9.149 -1.1272  0.3429  1.4816
  837MOL0     H15478   6.852  12.014   8.978 -0.9798  0.7011 -2.0939
  837MOL0     H15479   6.757  12.145   9.037 -1.2594 -3.2203 -2.3735
  837MOL0     H15480   7.008  12.155   8.874 -0.9281  1.9214 -5.1255
  837MOL0     H15481   6.935  12.305   8.930 -0.6835  0.5383  1.4805
  837MOL0     H15482   6.727  12.250   8.831  0.5399  0.4482  0.5632
  837MOL0     H15483   6.783  12.098   8.773  0.0790  0.2211 -0.9635
  837MOL0     H15484   6.754  12.282   8.608  1.6546  3.1539 -1.8860
  837MOL0     H15485   6.910  12.203   8.591 -2.7587 -0.3538 -1.6830
  837MOL0     H15486   6.969  11.816   9.704  0.2444 -0.2898 -1.8481
  837MOL0     H15487   7.167  11.658   9.716  3.5293 -0.7589  1.1361
  837MOL0     H15488   7.554  11.551   9.819 -0.0238 -3.9269 -0.3740
  837MOL0     H15489   7.729  11.430   9.887 -1.8546  0.5936  1.4797
  837MOL0     H15490   9.248  10.985   8.861  2.3497 -0.7195 -0.1367
  837MOL0     H15491   9.250  10.728   8.843  2.3691 -0.2401 -0.3892
  837MOL0     H15492   9.208  10.340   9.073 -0.8126 -0.0860 -2.2957
  837MOL0     H15493   9.213  10.109   9.106  0.4503  2.3256  3.9664
  837MOL0     H15494   9.239   9.906   9.028 -0.6248  1.0675  0.7657
  837MOL0     H15495   9.363   9.804   8.964  0.8060  1.0316 -0.0217
  837MOL0     H15496   9.432   9.749   9.202 -0.7515  0.3170  1.5502
  837MOL0     H15497   9.307   9.658   9.127  0.5621 -1.6383  3.0532
  837MOL0     H15498   9.134   9.802   9.276 -0.3071  1.2288  1.4209
  837MOL0     H15499   9.264   9.722   9.365  0.8557  0.2196  1.1770
  837MOL0     H15500   9.251  10.023   9.286 -1.1384 -0.2904 -0.7583
  837MOL0     H15501   9.393   9.942   9.340  0.7144 -2.6944  2.7830
  837MOL0     H15502   9.218   9.979   9.709 -0.6544  0.9100 -0.4910
  837MOL0     H15503   9.629  10.099   9.021  0.6652 -0.1937 -0.7906
  837MOL0     H15504   9.769  10.280   9.019  2.1379  1.9429 -1.1454
  837MOL0     H15505   9.705  10.387   8.902  0.7033 -1.1232 -0.9090
  837MOL0     H15506   9.715  10.429   9.078  0.7081 -0.0467 -0.2474
  838MOL0     O15507   4.091   0.519   5.620 -0.1709 -0.0684 -0.4191
  838MOL0     C15508   4.144   0.574   5.714 -0.3355 -0.8130  0.2516
  838MOL0     O15509   4.089   0.679   5.779 -0.0288 -1.0879  0.0926
  838MOL0     C15510   3.995   0.742   5.701 -0.2599  0.6546  0.3939
  838MOL0     C15511   3.863   0.758   5.754  0.2513  0.5075  0.8752
  838MOL0     C15512   3.764   0.830   5.691  0.8913 -0.3850  1.2184
  838MOL0     C15513   3.805   0.905   5.578 -0.0112  0.4468 -0.0652
  838MOL0     O15514   3.716   0.992   5.509 -0.0877  0.1489 -0.3486
  838MOL0     C15515   3.575   0.984   5.533  0.8236 -0.3317 -0.0086
  838MOL0     C15516   3.513   1.066   5.424  0.7309 -0.9445  0.1881
  838MOL0     C15517   3.528   1.215   5.454 -0.1296  0.5359 -0.3984
  838MOL0     C15518   3.417   1.268   5.556  0.0029 -0.7247  0.7432
  838MOL0     C15519   3.427   1.412   5.593 -0.9281 -0.7546  0.2895
  838MOL0     C15520   3.453   1.513   5.475  0.5603 -1.0828 -0.0561
  838MOL0     C15521   3.415   1.656   5.511  0.4285 -0.0275  0.7604
  838MOL0     C15522   3.385   1.740   5.382  0.4038  0.3528  0.2744
  838MOL0     N15523   3.352   1.880   5.386  0.4693  0.3106  0.3643
  838MOL0     C15524   3.271   1.944   5.476 -0.0229 -0.2392  0.4047
  838MOL0     C15525   3.290   2.078   5.450 -0.5515  0.2875  0.0797
  838MOL0     C15526   3.264   2.194   5.543  0.5734 -0.3404 -1.3151
  838MOL0     C15527   3.112   2.234   5.548  0.3185  0.4039 -0.2922
  838MOL0     C15528   3.021   2.136   5.633  1.0881  0.2789  0.2440
  838MOL0     C15529   2.875   2.175   5.603 -0.2834 -0.2587 -0.0333
  838MOL0     O15530   2.790   2.084   5.667  0.2400  0.2056 -0.4397
  838MOL0     C15531   2.738   2.142   5.778 -0.2932  0.0052  1.2306
  838MOL0     C15532   2.670   2.263   5.784 -0.6245 -0.3774  0.2727
  838MOL0     C15533   2.615   2.318   5.895  0.5382 -0.1925 -0.7582
  838MOL0     C15534   2.548   2.453   5.887  0.7236  0.8566 -0.4133
  838MOL0     C15535   2.634   2.255   6.018  0.2949  0.8167 -0.2719
  838MOL0     C15536   2.573   2.291   6.154  0.7860  0.4335  0.4408
  838MOL0     O15537   2.576   2.209   6.257 -0.4320  0.5711  0.1848
  838MOL0     C15538   2.520   2.246   6.374 -0.4244  0.4618  0.1281
  838MOL0     C15539   2.421   2.163   6.430 -0.3761  0.0491 -0.5883
  838MOL0     C15540   2.358   2.205   6.546  0.4049  0.5037 -0.1637
  838MOL0     C15541   2.400   2.312   6.622  0.6963 -0.6841  0.2019
  838MOL0     O15542   2.331   2.328   6.734  0.7253  0.2658 -0.2684
  838MOL0     C15543   2.345   2.452   6.802 -0.4821 -0.5089  0.4836
  838MOL0     C15544   2.233   2.446   6.910  0.4975  0.5830  0.6892
  838MOL0     C15545   2.202   2.579   6.981  0.2197  0.0565  0.0571
  838MOL0     C15546   2.111   2.578   7.105  0.7610  0.4836  0.5975
  838MOL0     C15547   1.967   2.522   7.069 -0.5212  0.1486  0.7765
  838MOL0     C15548   1.875   2.515   7.195  0.1117  0.3514  0.1821
  838MOL0     C15549   1.830   2.648   7.244 -0.7362 -0.8898 -0.1907
  838MOL0     C15550   1.731   2.621   7.364  0.3201  0.5217 -1.2503
  838MOL0    Cl15551   1.828   2.584   7.515  0.0801  0.6340  0.1751
  838MOL0     C15552   2.501   2.394   6.573 -0.2835  0.7899 -0.0819
  838MOL0     C15553   2.556   2.360   6.446  0.0187 -0.0427 -0.2420
  838MOL0     O15554   2.519   2.400   6.163 -0.5145  0.6186 -1.5722
  838MOL0     C15555   2.698   2.128   6.017 -0.0621 -0.7821  0.8004
  838MOL0     C15556   2.750   2.073   5.900  0.4557 -0.4491  0.2437
  838MOL0     N15557   3.374   2.096   5.339 -0.7741  0.2569 -0.2437
  838MOL0     N15558   3.403   1.973   5.302 -0.1788 -0.2456 -0.2106
  838MOL0     C15559   3.932   0.902   5.527 -1.0099 -0.7285 -0.3682
  838MOL0     C15560   4.027   0.821   5.590 -0.7776  0.5430  0.4000
  838MOL0     C15561   4.264   0.515   5.754 -0.1681  0.5854 -0.1714
  838MOL0     C15562   4.273   0.380   5.733  0.1172  0.7984  0.1781
  838MOL0     C15563   4.392   0.309   5.744 -0.0754  0.2329 -0.2483
  838MOL0     C15564   4.503   0.364   5.809  0.2089  0.4847  0.2123
  838MOL0     O15565   4.610   0.282   5.828 -0.4244 -1.0258 -0.2047
  838MOL0     C15566   4.744   0.335   5.851 -0.3026 -0.7893 -0.1957
  838MOL0     C15567   4.754   0.358   6.000 -0.4369  0.6418  0.7179
  838MOL0     C15568   4.729   0.217   6.072  0.0271 -0.5101  0.6582
  838MOL0     C15569   4.759   0.224   6.220  0.4052  0.2134  0.7203
  838MOL0     C15570   4.720   0.100   6.289  0.9450  0.1328 -0.4863
  838MOL0     C15571   4.696  -0.011   6.331  0.3369 -0.1087  0.2469
  838MOL0     C15572   4.491   0.504   5.842  0.0609  0.2711  0.6732
  838MOL0     C15573   4.377   0.576   5.813 -0.0861  0.3187 -0.0896
  838MOL0     C15574   4.371   0.728   5.841  0.7860 -0.1696  0.3541
  838MOL0     H15575   3.851   0.709   5.850  2.5786  1.0884  1.5234
  838MOL0     H15576   3.663   0.816   5.727  0.5578 -4.6861 -0.7589
  838MOL0     H15577   3.534   1.008   5.631  2.4969  0.5128  0.5157
  838MOL0     H15578   3.550   0.879   5.515 -1.1646  0.1050 -0.0379
  838MOL0     H15579   3.570   1.041   5.334  0.6172 -0.8729  0.0956
  838MOL0     H15580   3.410   1.033   5.406  0.3357 -0.6460  1.7568
  838MOL0     H15581   3.627   1.234   5.497 -0.1595 -0.1041 -0.0288
  838MOL0     H15582   3.530   1.267   5.358  0.2770 -1.8437 -1.7733
  838MOL0     H15583   3.316   1.266   5.513 -0.7669  0.7844  2.3396
  838MOL0     H15584   3.403   1.208   5.646 -1.5961  0.2616  1.2056
  838MOL0     H15585   3.513   1.423   5.660 -1.3251  0.5758  0.6010
  838MOL0     H15586   3.334   1.445   5.640 -0.4385  2.7473 -0.8867
  838MOL0     H15587   3.554   1.516   5.433  0.4021  0.1585 -0.3778
  838MOL0     H15588   3.380   1.480   5.402 -0.5479  4.4605 -1.8829
  838MOL0     H15589   3.498   1.694   5.571  0.3700 -0.1029  0.8896
  838MOL0     H15590   3.332   1.668   5.581 -0.2053  1.9500 -0.2468
  838MOL0     H15591   3.470   1.730   5.313 -1.2058  0.3905 -1.8064
  838MOL0     H15592   3.306   1.679   5.338  0.4681  0.1151  0.4856
  838MOL0     H15593   3.226   1.896   5.562  0.5645 -2.1431 -0.2859
  838MOL0     H15594   3.320   2.280   5.505 -0.6315  0.6053 -1.0307
  838MOL0     H15595   3.293   2.171   5.646 -3.6699 -1.0071 -0.0912
  838MOL0     H15596   3.103   2.337   5.584 -3.0276 -0.3523  1.4212
  838MOL0     H15597   3.074   2.222   5.446 -1.0915 -1.9458  0.4321
  838MOL0     H15598   3.032   2.032   5.604 -0.6678 -0.2929  1.4427
  838MOL0     H15599   3.037   2.141   5.741  1.2146 -0.0964  0.2443
  838MOL0     H15600   2.868   2.281   5.630  0.4514 -0.2291  0.0570
  838MOL0     H15601   2.862   2.177   5.494  1.2862  1.4055 -0.2421
  838MOL0     H15602   2.656   2.317   5.692 -1.8971 -1.8092 -0.4131
  838MOL0     H15603   2.452   2.465   5.938  2.2605  1.8351  2.4315
  838MOL0     H15604   2.524   2.459   5.780 -2.4803  0.2434  0.1640
  838MOL0     H15605   2.611   2.539   5.913 -1.0374  2.0056  0.2496
  838MOL0     H15606   2.389   2.070   6.384 -0.8024  0.2094 -0.6263
  838MOL0     H15607   2.277   2.149   6.592 -1.3000  1.5745 -1.7144
  838MOL0     H15608   2.441   2.459   6.853  0.4992 -4.0176 -0.6273
  838MOL0     H15609   2.334   2.540   6.737 -1.2674 -1.2395 -0.4063
  838MOL0     H15610   2.144   2.403   6.864  1.9220  0.6326 -2.3332
  838MOL0     H15611   2.254   2.366   6.982 -0.0699  0.6184  0.8950
  838MOL0     H15612   2.147   2.633   6.902  0.3213  0.1056  0.0197
  838MOL0     H15613   2.293   2.632   7.008 -1.3075  1.7631  2.2532
  838MOL0     H15614   2.120   2.678   7.149 -0.4347  1.9372 -2.2019
  838MOL0     H15615   2.155   2.509   7.178 -1.8585 -1.4922  0.4324
  838MOL0     H15616   1.919   2.592   7.000  0.4308  0.3063  0.2553
  838MOL0     H15617   1.965   2.422   7.026  1.0346  0.6792 -0.6705
  838MOL0     H15618   1.918   2.448   7.269 -1.3399 -3.3450 -2.0180
  838MOL0     H15619   1.782   2.469   7.160 -1.4080  3.7370 -0.6315
  838MOL0     H15620   1.782   2.710   7.169  0.2091 -0.4244 -0.4299
  838MOL0     H15621   1.913   2.709   7.283 -1.8516  1.2977 -1.0743
  838MOL0     H15622   1.663   2.536   7.353 -1.4504  1.4072  1.8135
  838MOL0     H15623   1.676   2.714   7.379  3.1625  2.6533 -2.8676
  838MOL0     H15624   2.533   2.475   6.638 -1.5218  0.1519  1.3709
  838MOL0     H15625   2.632   2.423   6.401 -1.2913  2.9738  1.4502
  838MOL0     H15626   2.696   2.058   6.100  1.1295 -0.9786  0.6831
  838MOL0     H15627   2.796   1.975   5.897  2.0675  0.2445  1.2091
  838MOL0     H15628   3.968   0.952   5.438  1.4418  0.9278  1.4225
  838MOL0     H15629   4.129   0.820   5.553 -0.4200 -2.3592  1.2305
  838MOL0     H15630   4.195   0.320   5.688  0.0818  0.8588  0.1585
  838MOL0     H15631   4.396   0.205   5.715  3.1084  0.1328  0.2385
  838MOL0     H15632   4.811   0.261   5.805 -1.3399 -0.8602 -1.6636
  838MOL0     H15633   4.752   0.426   5.790 -0.5966  0.1246  1.0922
  838MOL0     H15634   4.681   0.431   6.037  1.6292  0.7388  5.3104
  838MOL0     H15635   4.851   0.406   6.017 -1.0664  2.9925 -1.7541
  838MOL0     H15636   4.624   0.187   6.075 -1.0268  2.7698  0.3309
  838MOL0     H15637   4.787   0.138   6.023 -1.4207 -1.4045  0.3535
  838MOL0     H15638   4.702   0.309   6.258 -1.3237 -0.4781 -0.1973
  838MOL0     H15639   4.866   0.242   6.234  1.0569 -2.6605  0.1584
  838MOL0     H15640   4.697  -0.109   6.375  4.9515  0.7298  2.5269
  838MOL0     H15641   4.579   0.554   5.881  0.2843 -1.3452  2.3660
  838MOL0     H15642   4.468   0.773   5.862  1.3224 -1.1069 -0.0597
  838MOL0     H15643   4.351   0.775   5.744 -0.2072 -1.2972 -0.0189
  838MOL0     H15644   4.296   0.759   5.915  2.5175  2.5641  1.1169
  839MOL0     O15645   6.861   1.287   7.722 -0.3066  0.7489  0.2312
  839MOL0     C15646   6.953   1.356   7.674  0.0058  0.5297  0.4805
  839MOL0     O15647   6.990   1.341   7.543  0.3000 -0.0167  0.6733
  839MOL0     C15648   7.013   1.214   7.499 -0.4333  0.1342 -0.6894
  839MOL0     C15649   6.905   1.124   7.478 -0.4634 -0.2460  0.2100
  839MOL0     C15650   6.936   0.991   7.438  0.1347  0.6380 -0.6383
  839MOL0     C15651   7.070   0.944   7.444 -1.1270 -0.1925  0.1459
  839MOL0     O15652   7.099   0.811   7.403 -0.7204  0.5644 -0.1883
  839MOL0     C15653   7.037   0.703   7.477 -0.8390 -0.4746  0.1985
  839MOL0     C15654   7.080   0.694   7.625 -1.5041  0.4774 -0.1997
  839MOL0     C15655   7.226   0.721   7.639 -0.2764 -0.1094 -0.5923
  839MOL0     C15656   7.244   0.777   7.784 -0.7820  0.0494 -0.3030
  839MOL0     C15657   7.394   0.795   7.816 -0.7652  0.5336 -0.4387
  839MOL0     C15658   7.476   0.660   7.793 -0.7587  0.1100  0.0263
  839MOL0     C15659   7.620   0.692   7.843  0.1319  0.1545  0.1425
  839MOL0     C15660   7.718   0.578   7.825 -0.8881 -0.3396  0.4719
  839MOL0     N15661   7.859   0.620   7.833  0.5355 -0.2395  0.4805
  839MOL0     C15662   7.916   0.708   7.925 -0.4932 -0.5411  0.1933
  839MOL0     C15663   8.031   0.750   7.859  0.4810  0.0552  0.6151
  839MOL0     C15664   8.129   0.854   7.894 -0.2325 -1.0518  0.3185
  839MOL0     C15665   8.268   0.783   7.918  1.1332  0.8583 -0.1798
  839MOL0     C15666   8.382   0.884   7.915 -1.0769  0.3578  0.8362
  839MOL0     C15667   8.514   0.810   7.936  0.3988  0.1782 -0.0160
  839MOL0     O15668   8.634   0.892   7.950 -0.0468 -0.0184  0.6201
  839MOL0     C15669   8.740   0.812   7.915  0.0188  1.1128 -0.2323
  839MOL0     C15670   8.799   0.744   8.016 -0.6442 -0.2862  0.4990
  839MOL0     C15671   8.925   0.684   7.990  1.2052 -0.2562 -0.5028
  839MOL0     C15672   8.999   0.610   8.103  0.1534  0.7571 -0.5226
  839MOL0     C15673   8.968   0.674   7.862 -0.3640 -0.7574  0.2413
  839MOL0     C15674   9.092   0.600   7.822 -0.4038  0.5471  1.3482
  839MOL0     O15675   9.172   0.668   7.737 -0.1957 -0.4605  0.1871
  839MOL0     C15676   9.295   0.632   7.714 -0.2828 -0.0802  0.2539
  839MOL0     C15677   9.333   0.530   7.626  0.3474  0.3732  0.9540
  839MOL0     C15678   9.470   0.506   7.613 -0.6052  0.1420 -0.7993
  839MOL0     C15679   9.570   0.576   7.686 -0.1719 -0.3323  0.2154
  839MOL0     O15680   9.710   0.548   7.674  0.3279 -0.3980  0.1960
  839MOL0     C15681   9.803   0.582   7.777  0.1583  0.3636 -0.4154
  839MOL0     C15682   9.897   0.695   7.745  0.3618 -0.2555 -0.6331
  839MOL0     C15683   9.984   0.664   7.621  0.4825  0.3411 -0.5469
  839MOL0     C15684   9.947   0.752   7.503  0.4663 -0.3754  0.3504
  839MOL0     C15685  10.038   0.729   7.375  0.4194 -0.1866  0.1223
  839MOL0     C15686   9.956   0.775   7.248 -0.7505 -0.2137 -0.1667
  839MOL0     C15687  10.037   0.814   7.129  0.9122 -0.1770 -1.2468
  839MOL0     C15688   9.953   0.835   7.009 -0.5035  0.4400  0.6972
  839MOL0    Cl15689  10.069   0.813   6.859 -0.0952 -0.1313 -0.2316
  839MOL0     C15690   9.528   0.685   7.763 -0.3601 -0.3125  0.8778
  839MOL0     C15691   9.392   0.712   7.780 -0.9897 -0.1415  0.5536
  839MOL0     O15692   9.122   0.495   7.880  0.4649  0.1903 -0.5913
  839MOL0     C15693   8.898   0.742   7.761 -0.4017 -0.3613  0.2584
  839MOL0     C15694   8.789   0.814   7.790 -0.8463  0.3443  0.4160
  839MOL0     N15695   8.043   0.674   7.741 -0.8444 -0.7392 -0.4739
  839MOL0     N15696   7.937   0.613   7.720 -0.1913  0.3530  0.3127
  839MOL0     C15697   7.171   1.028   7.486  0.0025 -0.4241  0.4119
  839MOL0     C15698   7.143   1.162   7.504 -0.6996 -0.0721  0.0808
  839MOL0     C15699   7.011   1.468   7.747 -0.2487 -0.6420  0.4309
  839MOL0     C15700   6.986   1.488   7.887  1.1340 -0.0152 -0.1701
  839MOL0     C15701   7.025   1.598   7.964 -0.1024 -0.0014  0.2322
  839MOL0     C15702   7.099   1.694   7.903  0.6618  0.1391  1.2351
  839MOL0     O15703   7.145   1.800   7.981  0.2557  0.2084 -0.1239
  839MOL0     C15704   7.208   1.920   7.920  0.0016  0.5006  0.9176
  839MOL0     C15705   7.285   1.980   8.031 -0.7710  0.0610 -0.8377
  839MOL0     C15706   7.329   2.121   7.987  0.0942 -0.7851  0.3840
  839MOL0     C15707   7.403   2.178   8.106 -0.6094  0.7134  0.0425
  839MOL0     C15708   7.458   2.313   8.073 -0.0063  0.1328 -0.6701
  839MOL0     C15709   7.502   2.426   8.046  0.9132  0.2198 -1.0967
  839MOL0     C15710   7.117   1.688   7.762 -1.6872 -0.9235 -0.6592
  839MOL0     C15711   7.076   1.579   7.687 -0.0871  0.9033 -0.2588
  839MOL0     C15712   7.102   1.583   7.542 -1.0540 -0.2185  0.4706
  839MOL0     H15713   6.804   1.163   7.477  0.4197  2.2488 -0.4978
  839MOL0     H15714   6.854   0.923   7.419  0.8511 -1.0954  2.0243
  839MOL0     H15715   7.081   0.619   7.422 -0.7159  1.2096 -2.4439
  839MOL0     H15716   6.929   0.702   7.462 -0.9992 -2.6801  0.9995
  839MOL0     H15717   7.027   0.775   7.676  0.3009  0.6170  1.5306
  839MOL0     H15718   7.047   0.607   7.683 -0.8581  0.3489 -0.0158
  839MOL0     H15719   7.282   0.628   7.630  0.4193  0.0405  1.6523
  839MOL0     H15720   7.266   0.794   7.567  3.8000 -1.3321  0.1756
  839MOL0     H15721   7.194   0.875   7.787 -0.1155  0.3656  0.8870
  839MOL0     H15722   7.201   0.711   7.859  0.4909  1.2935  1.5988
  839MOL0     H15723   7.404   0.812   7.923 -1.4161 -2.3580  0.1672
  839MOL0     H15724   7.450   0.878   7.772  2.0540  0.1260  2.0899
  839MOL0     H15725   7.431   0.577   7.847 -0.8647 -0.7812 -1.3690
  839MOL0     H15726   7.485   0.633   7.687  1.0581  3.3716 -0.7992
  839MOL0     H15727   7.616   0.714   7.950 -0.3290 -0.5918  0.2870
  839MOL0     H15728   7.647   0.773   7.775 -1.2859 -1.0430 -1.9393
  839MOL0     H15729   7.699   0.490   7.888  0.1523  1.1479  3.0066
  839MOL0     H15730   7.703   0.547   7.721 -0.4982 -0.0489  0.3279
  839MOL0     H15731   7.883   0.748   8.020 -1.0789 -3.7816  1.4939
  839MOL0     H15732   8.098   0.917   7.978 -0.5934  3.2599 -2.7001
  839MOL0     H15733   8.126   0.914   7.802 -1.7009 -4.6087 -2.1793
  839MOL0     H15734   8.273   0.726   8.011  4.1523  2.8387  1.0007
  839MOL0     H15735   8.290   0.718   7.833  1.4809  0.4873  0.1933
  839MOL0     H15736   8.389   0.940   7.821  0.5059 -0.7695  0.2594
  839MOL0     H15737   8.371   0.958   7.995  1.5573  1.0646  0.6288
  839MOL0     H15738   8.500   0.747   8.025  1.7467  0.8087  0.6754
  839MOL0     H15739   8.522   0.740   7.853  0.9361 -0.8212  0.8531
  839MOL0     H15740   8.760   0.734   8.117 -1.6895  0.2799  0.1669
  839MOL0     H15741   8.956   0.633   8.201  1.2249 -2.1881  0.7647
  839MOL0     H15742   9.103   0.642   8.093  1.3390 -2.0104  1.8084
  839MOL0     H15743   9.002   0.501   8.090  1.5999  0.3801  2.2373
  839MOL0     H15744   9.257   0.479   7.568  1.0338  0.1437  0.2419
  839MOL0     H15745   9.518   0.427   7.556 -1.7928 -0.4070 -1.0529
  839MOL0     H15746   9.757   0.613   7.871  0.4698  1.5904 -0.6477
  839MOL0     H15747   9.848   0.487   7.807 -0.3056  0.6220  1.2207
  839MOL0     H15748   9.837   0.786   7.735  2.8245  2.0008  2.8655
  839MOL0     H15749   9.951   0.720   7.837 -2.1522  1.1170  0.5581
  839MOL0     H15750   9.986   0.557   7.599  0.9172 -0.0666  1.3174
  839MOL0     H15751  10.089   0.692   7.634  0.4638  1.5036 -2.4315
  839MOL0     H15752   9.960   0.860   7.513  2.2770 -0.3262 -1.6403
  839MOL0     H15753   9.841   0.746   7.477  1.0827 -0.7849 -2.4129
  839MOL0     H15754  10.126   0.794   7.379 -0.1149  0.5403  0.4242
  839MOL0     H15755  10.071   0.625   7.371  0.2009 -0.2405 -0.3444
  839MOL0     H15756   9.906   0.867   7.277  1.2023 -0.1703  3.6717
  839MOL0     H15757   9.886   0.695   7.220 -0.2224 -0.8656  0.3435
  839MOL0     H15758  10.119   0.744   7.113  0.6541 -0.2796 -2.1405
  839MOL0     H15759  10.072   0.917   7.146 -4.0716  1.6249 -0.0401
  839MOL0     H15760   9.916   0.938   7.011  1.1977  1.1411 -0.8708
  839MOL0     H15761   9.872   0.762   6.998  0.3868 -0.7336  1.7101
  839MOL0     H15762   9.591   0.755   7.817 -2.3429  1.5926  0.8290
  839MOL0     H15763   9.366   0.799   7.840 -0.3844 -0.7115  1.6684
  839MOL0     H15764   8.934   0.722   7.661 -0.1737 -1.4939  0.5504
  839MOL0     H15765   8.730   0.867   7.716  0.0457 -1.6427 -1.8263
  839MOL0     H15766   7.274   0.992   7.492  0.0037 -0.4124  0.4698
  839MOL0     H15767   7.221   1.218   7.553 -1.5057 -0.8783  2.4186
  839MOL0     H15768   6.932   1.402   7.924 -3.4802  1.3292 -2.9060
  839MOL0     H15769   6.997   1.606   8.069 -0.3742 -0.7244  0.2248
  839MOL0     H15770   7.277   1.903   7.838  1.9468 -1.2524  2.8130
  839MOL0     H15771   7.136   1.996   7.886  1.7267  1.5872 -0.4768
  839MOL0     H15772   7.369   1.911   8.045 -1.2982 -0.8773 -2.0736
  839MOL0     H15773   7.225   1.982   8.122 -2.5555  0.4090 -1.9650
  839MOL0     H15774   7.398   2.109   7.903  0.4861 -2.2924  0.9018
  839MOL0     H15775   7.244   2.182   7.953  0.6565 -1.3412 -2.2341
  839MOL0     H15776   7.480   2.112   8.148 -0.2363  2.0927  1.6501
  839MOL0     H15777   7.325   2.189   8.182 -0.0254 -2.1991  1.2134
  839MOL0     H15778   7.553   2.520   8.029  1.0442  0.1857 -0.8929
  839MOL0     H15779   7.162   1.770   7.707 -3.2815 -0.7748 -1.8355
  839MOL0     H15780   7.009   1.592   7.486 -1.1115 -1.0104  0.4298
  839MOL0     H15781   7.170   1.665   7.517 -0.6668 -0.1234  1.7334
  839MOL0     H15782   7.162   1.496   7.514 -2.2384 -1.6781  2.2625
  840MOL0     O15783   5.437   0.341   7.177  0.3113  0.6300 -0.1157
  840MOL0     C15784   5.424   0.405   7.276  0.0443  0.2697 -0.7346
  840MOL0     O15785   5.481   0.527   7.287 -0.2043 -0.3054 -0.4096
  840MOL0     C15786   5.596   0.556   7.221  0.0007  0.7096  0.1720
  840MOL0     C15787   5.596   0.681   7.162 -0.5919  0.6559  0.0634
  840MOL0     C15788   5.713   0.723   7.094  0.5401  0.3689  0.3481
  840MOL0     C15789   5.835   0.643   7.083  0.1955  0.1448  0.4142
  840MOL0     O15790   5.950   0.678   7.005 -0.0365  0.4156  0.0861
  840MOL0     C15791   6.009   0.802   7.048 -0.2694 -0.5114 -0.2663
  840MOL0     C15792   6.067   0.789   7.193 -0.2670  0.8043  0.3609
  840MOL0     C15793   6.124   0.923   7.247  0.0869  0.4522 -0.1661
  840MOL0     C15794   6.037   1.036   7.217 -0.1065 -0.8025 -0.3851
  840MOL0     C15795   6.071   1.153   7.305 -0.2312 -0.2324  0.2539
  840MOL0     C15796   5.996   1.271   7.271 -0.1427 -0.9808  0.2059
  840MOL0     C15797   6.046   1.379   7.372 -0.4957 -0.3215 -0.4305
  840MOL0     C15798   5.943   1.451   7.452  0.2756 -0.5689  0.3065
  840MOL0     N15799   5.876   1.560   7.375  0.0760  0.2834 -0.1881
  840MOL0     C15800   5.926   1.690   7.346  0.0807 -0.3387 -0.7349
  840MOL0     C15801   5.856   1.746   7.247  0.5619  0.1419  0.0645
  840MOL0     C15802   5.890   1.864   7.176  0.0099 -0.1784 -0.5012
  840MOL0     C15803   6.004   1.827   7.082 -0.1164  0.6516 -0.0779
  840MOL0     C15804   6.057   1.951   7.010 -0.5188 -0.6358 -0.0590
  840MOL0     C15805   6.188   1.911   6.938  1.1170 -0.3597  0.0120
  840MOL0     O15806   6.161   1.820   6.826 -0.7458  0.4646  0.1174
  840MOL0     C15807   6.140   1.864   6.701 -1.1683 -0.0300  0.3550
  840MOL0     C15808   6.062   1.977   6.664 -0.6894  0.5699 -0.0148
  840MOL0     C15809   6.051   2.013   6.529 -0.3277  1.1451 -0.0211
  840MOL0     C15810   5.990   2.143   6.498  0.0537  0.1685 -0.0724
  840MOL0     C15811   6.123   1.933   6.435  0.5929 -0.1338  0.2685
  840MOL0     C15812   6.121   1.970   6.289  0.0051 -0.6765  0.3542
  840MOL0     O15813   5.998   2.000   6.236  0.6835 -0.4662 -0.5263
  840MOL0     C15814   5.986   1.995   6.097 -0.5030  0.2631 -0.1414
  840MOL0     C15815   6.081   2.046   6.001 -0.3506  0.7928  0.2964
  840MOL0     C15816   6.064   2.032   5.865 -0.6437 -0.9028 -0.2303
  840MOL0     C15817   5.947   1.978   5.816 -0.2115 -0.2003 -0.4275
  840MOL0     O15818   5.910   1.980   5.683  0.1969  0.1589  0.3433
  840MOL0     C15819   5.992   2.054   5.594  0.2729 -1.1489  0.9012
  840MOL0     C15820   5.916   2.047   5.451 -0.5916 -0.5222 -0.1465
  840MOL0     C15821   5.991   2.062   5.321  0.0503  1.1302 -1.0977
  840MOL0     C15822   6.059   2.201   5.321  0.1175  0.0452 -0.4299
  840MOL0     C15823   6.128   2.223   5.185 -0.3359 -0.2443  0.5509
  840MOL0     C15824   6.197   2.360   5.188  0.2787  0.6652  0.0575
  840MOL0     C15825   6.267   2.376   5.050  0.3247 -0.0302 -0.2213
  840MOL0     C15826   6.341   2.505   5.053 -0.2430 -0.5562  0.0917
  840MOL0    Cl15827   6.445   2.523   4.908 -0.1868 -0.3982  0.0490
  840MOL0     C15828   5.854   1.923   5.907 -0.5407 -0.7048 -1.2264
  840MOL0     C15829   5.874   1.930   6.041  0.1813 -0.7235 -0.0999
  840MOL0     O15830   6.229   1.955   6.228 -0.1544  0.0848  0.4698
  840MOL0     C15831   6.194   1.822   6.476 -0.8624 -0.3736 -0.0907
  840MOL0     C15832   6.208   1.791   6.614  1.7940  0.1805  0.3888
  840MOL0     N15833   5.759   1.652   7.216  0.0992 -0.5064 -1.2384
  840MOL0     N15834   5.782   1.541   7.283 -0.0077 -0.7499  0.4299
  840MOL0     C15835   5.824   0.518   7.155 -0.4315  0.5255  1.0669
  840MOL0     C15836   5.709   0.476   7.216 -1.2461 -0.4785 -0.3152
  840MOL0     C15837   5.330   0.362   7.386  0.0229 -0.5631  0.8395
  840MOL0     C15838   5.355   0.405   7.516 -0.4067  0.0662  0.6060
  840MOL0     C15839   5.266   0.366   7.611 -0.0075 -0.2085 -0.0399
  840MOL0     C15840   5.152   0.282   7.581  0.0712 -0.2972  1.0846
  840MOL0     O15841   5.066   0.240   7.676 -0.1035  0.3182 -0.1000
  840MOL0     C15842   4.930   0.253   7.642  0.9788 -0.6957 -0.5348
  840MOL0     C15843   4.846   0.302   7.764  0.7954 -0.7559  0.5669
  840MOL0     C15844   4.883   0.244   7.905 -0.6090 -0.3914  0.1973
  840MOL0     C15845   4.791   0.292   8.015  0.1666 -0.3342 -0.0415
  840MOL0     C15846   4.661   0.223   8.041  0.3684 -0.4694 -0.0837
  840MOL0     C15847   4.554   0.167   8.050 -0.7190  0.3193 -0.3513
  840MOL0     C15848   5.133   0.228   7.449  0.1467 -0.4642 -0.9145
  840MOL0     C15849   5.225   0.264   7.356  0.4296  0.1902  0.1121
  840MOL0     C15850   5.195   0.212   7.219  0.1899  0.0663  0.4359
  840MOL0     H15851   5.504   0.738   7.163 -0.8668  0.4612 -3.0712
  840MOL0     H15852   5.706   0.808   7.027 -2.3584 -1.4765 -1.9752
  840MOL0     H15853   5.935   0.882   7.042  0.6925  0.3512 -0.9655
  840MOL0     H15854   6.082   0.833   6.973  0.3919 -1.7329 -0.1479
  840MOL0     H15855   5.980   0.762   7.253  0.5399 -3.2241  0.0134
  840MOL0     H15856   6.140   0.707   7.193 -0.2538  0.7351 -2.1008
  840MOL0     H15857   6.118   0.912   7.356 -3.2085 -0.9914 -0.3529
  840MOL0     H15858   6.222   0.954   7.210  0.3960  0.8575  0.9447
  840MOL0     H15859   6.044   1.059   7.110  1.8702 -2.4627 -0.6925
  840MOL0     H15860   5.936   1.003   7.242  0.0408 -1.5518 -0.7416
  840MOL0     H15861   6.177   1.180   7.297 -1.2159  5.5166  2.2293
  840MOL0     H15862   6.040   1.120   7.405 -0.7045  1.6235  0.7470
  840MOL0     H15863   6.018   1.305   7.170 -2.3731 -1.0161 -0.3416
  840MOL0     H15864   5.888   1.255   7.286  0.3926 -3.1123  2.3699
  840MOL0     H15865   6.100   1.460   7.324 -0.8622  1.6452  2.2474
  840MOL0     H15866   6.112   1.331   7.445 -0.7250  0.5559  0.3693
  840MOL0     H15867   5.872   1.385   7.502 -0.2915 -0.9587 -0.9759
  840MOL0     H15868   5.998   1.510   7.526  0.3824 -0.3159  0.0249
  840MOL0     H15869   6.017   1.730   7.392 -1.2572  0.6820  1.1693
  840MOL0     H15870   5.922   1.942   7.245  0.8822  0.0391 -1.1245
  840MOL0     H15871   5.803   1.908   7.126  1.1952  2.5244 -0.4084
  840MOL0     H15872   6.081   1.771   7.136 -2.6947 -3.1156  0.0511
  840MOL0     H15873   5.968   1.760   7.004 -1.7053  1.2632  0.0951
  840MOL0     H15874   5.979   1.987   6.942 -0.1380  2.2018  0.8934
  840MOL0     H15875   6.068   2.033   7.081 -2.5971  0.8122 -1.2857
  840MOL0     H15876   6.243   2.000   6.905  0.3628 -0.0822 -0.5256
  840MOL0     H15877   6.243   1.862   7.019  0.0977 -0.7264  0.4950
  840MOL0     H15878   6.006   2.030   6.740 -1.2672 -2.1310  1.5548
  840MOL0     H15879   5.896   2.137   6.442  0.4700  0.3156 -0.7967
  840MOL0     H15880   6.060   2.208   6.445 -1.5338  1.8480 -0.2069
  840MOL0     H15881   5.978   2.208   6.586 -0.2652 -0.2899  0.2270
  840MOL0     H15882   6.169   2.095   6.044 -1.0432  0.2629  2.4548
  840MOL0     H15883   6.137   2.070   5.794 -2.9401  0.0030 -2.2352
  840MOL0     H15884   6.002   2.159   5.623 -3.2855 -0.9758  2.0443
  840MOL0     H15885   6.088   2.007   5.572  0.3837  0.1079 -1.5710
  840MOL0     H15886   5.870   1.948   5.441 -1.1836 -0.1339 -1.5540
  840MOL0     H15887   5.832   2.117   5.448 -0.3793  0.1445  4.0655
  840MOL0     H15888   5.928   2.049   5.232  0.1086  1.9418 -1.2677
  840MOL0     H15889   6.071   1.988   5.313  0.8733  1.7329  0.8072
  840MOL0     H15890   6.125   2.199   5.408 -1.0507  1.8012  0.5493
  840MOL0     H15891   5.986   2.280   5.338  0.2789  0.8651 -3.0176
  840MOL0     H15892   6.204   2.147   5.168  0.9465  1.2187 -0.5253
  840MOL0     H15893   6.057   2.232   5.102 -0.8500 -0.5711  0.9502
  840MOL0     H15894   6.267   2.370   5.272 -2.9877 -0.9740  3.2777
  840MOL0     H15895   6.132   2.446   5.210  0.7047  1.1782 -0.6417
  840MOL0     H15896   6.184   2.391   4.980 -0.6000  1.6350  1.1590
  840MOL0     H15897   6.324   2.288   5.021  1.9769  0.5814  1.0008
  840MOL0     H15898   6.404   2.516   5.142 -0.2400  4.0451 -0.2146
  840MOL0     H15899   6.262   2.580   5.050  0.4423  0.2180  0.6613
  840MOL0     H15900   5.759   1.888   5.868 -1.3014 -0.2135  0.1072
  840MOL0     H15901   5.806   1.884   6.112 -0.7356  1.1063  0.2637
  840MOL0     H15902   6.254   1.768   6.404  0.2573  1.7388 -0.8252
  840MOL0     H15903   6.275   1.712   6.647 -1.8797 -3.2644  0.3224
  840MOL0     H15904   5.902   0.445   7.135  2.3398  3.9719 -2.3567
  840MOL0     H15905   5.698   0.380   7.266 -2.0608 -0.9314 -1.3361
  840MOL0     H15906   5.440   0.465   7.546 -0.0623  0.5490 -1.2136
  840MOL0     H15907   5.290   0.393   7.714 -2.1571 -0.0974  0.4857
  840MOL0     H15908   4.911   0.322   7.559 -1.0975 -2.3239 -1.4970
  840MOL0     H15909   4.892   0.155   7.612 -0.2062 -0.6928  0.8709
  840MOL0     H15910   4.738   0.300   7.745  0.8405 -1.7106  0.3894
  840MOL0     H15911   4.879   0.406   7.762 -0.7531 -0.2290  0.5173
  840MOL0     H15912   4.883   0.135   7.899  0.0243 -0.3101 -1.8978
  840MOL0     H15913   4.984   0.267   7.941 -0.6001 -0.3216  0.1272
  840MOL0     H15914   4.766   0.398   8.003 -2.0205 -0.9523 -1.6920
  840MOL0     H15915   4.845   0.281   8.109 -1.3491  1.3010  1.0755
  840MOL0     H15916   4.454   0.130   8.064 -0.5209  0.3604  1.3371
  840MOL0     H15917   5.053   0.160   7.422  0.0952  0.2244 -2.6236
  840MOL0     H15918   5.096   0.167   7.222 -0.3656  0.8392 -2.9379
  840MOL0     H15919   5.200   0.294   7.147 -1.8310 -0.9620 -0.9552
  840MOL0     H15920   5.262   0.135   7.181  0.4381  0.8567 -0.7955
  841MOL0     O15921   1.381   8.174   9.456  0.2201 -0.4308 -0.1496
  841MOL0     C15922   1.391   8.052   9.431 -0.1637  0.0552  0.0541
  841MOL0     O15923   1.434   8.000   9.314  0.2357 -0.0447  0.0075
  841MOL0     C15924   1.544   8.066   9.267 -0.5550  0.0643 -0.7261
  841MOL0     C15925   1.549   8.201   9.215  0.1940  0.3502 -0.5060
  841MOL0     C15926   1.674   8.262   9.170 -0.4453  0.1895  0.2521
  841MOL0     C15927   1.793   8.194   9.188  0.6910 -1.3335 -0.0994
  841MOL0     O15928   1.915   8.256   9.157  0.1782 -0.4893  0.1111
  841MOL0     C15929   1.947   8.383   9.215 -0.2757 -0.3789 -0.7211
  841MOL0     C15930   2.054   8.378   9.333  0.6253 -0.0266  0.2396
  841MOL0     C15931   1.995   8.309   9.448  0.4538  0.0782 -0.1553
  841MOL0     C15932   1.913   8.401   9.547 -0.0674  0.5506 -0.8611
  841MOL0     C15933   1.820   8.310   9.638 -0.4982  0.4550 -0.4492
  841MOL0     C15934   1.899   8.195   9.713 -0.4907 -0.5003 -0.3256
  841MOL0     C15935   1.809   8.084   9.768 -0.0308 -0.1251 -0.2438
  841MOL0     C15936   1.748   7.999   9.656 -0.5846 -0.4301  1.5050
  841MOL0     N15937   1.667   7.889   9.726 -0.8663  0.1709 -0.3491
  841MOL0     C15938   1.588   7.899   9.843 -0.1918  0.3073  0.1773
  841MOL0     C15939   1.530   7.781   9.857  0.7100  0.5697 -0.2119
  841MOL0     C15940   1.427   7.751   9.961  0.0482  0.0564 -0.7542
  841MOL0     C15941   1.463   7.624  10.040 -0.5252 -0.0021  0.9484
  841MOL0     C15942   1.516   7.649  10.182 -0.2450 -0.2046 -0.3417
  841MOL0     C15943   1.603   7.550  10.247 -0.5864  0.5822  0.2684
  841MOL0     O15944   1.527   7.437  10.300 -0.8343  0.0728  0.1711
  841MOL0     C15945   1.552   7.311  10.247 -0.2902  0.5627  0.0936
  841MOL0     C15946   1.495   7.207  10.311 -0.1530  0.5056  0.3748
  841MOL0     C15947   1.492   7.075  10.262  0.4339 -0.8772  0.3806
  841MOL0     C15948   1.398   6.985  10.339  0.2258 -0.2090  0.1442
  841MOL0     C15949   1.558   7.046  10.137  0.0100 -1.0078  0.7801
  841MOL0     C15950   1.550   6.922  10.052 -0.4527 -0.0248  0.5668
  841MOL0     O15951   1.651   6.901   9.965 -0.0128 -0.4649 -0.6275
  841MOL0     C15952   1.640   6.827   9.853 -0.7004 -0.1420  0.5813
  841MOL0     C15953   1.515   6.789   9.802 -0.8642 -0.3172 -0.5596
  841MOL0     C15954   1.515   6.721   9.677  0.4146  0.2928 -0.1770
  841MOL0     C15955   1.637   6.703   9.612 -1.5867  0.0146 -0.6022
  841MOL0     O15956   1.632   6.665   9.479 -0.4094 -0.5955 -0.5466
  841MOL0     C15957   1.535   6.567   9.430  0.2281 -0.4167 -0.0247
  841MOL0     C15958   1.535   6.428   9.499 -0.7371  0.7077  0.9357
  841MOL0     C15959   1.472   6.329   9.399 -0.4684  0.5135  0.8257
  841MOL0     C15960   1.413   6.219   9.484  0.4443 -0.3820 -0.5940
  841MOL0     C15961   1.390   6.082   9.419 -0.5316  0.0164  0.6288
  841MOL0     C15962   1.341   5.976   9.526 -0.3904  0.1916  0.5603
  841MOL0     C15963   1.257   5.867   9.446 -0.2914 -0.3133 -0.4773
  841MOL0     C15964   1.182   5.785   9.544  0.2464  0.3450  0.4002
  841MOL0    Cl15965   1.094   5.659   9.458 -0.0687 -0.1909 -0.1093
  841MOL0     C15966   1.763   6.741   9.667  0.5160  0.4478 -0.1577
  841MOL0     C15967   1.760   6.806   9.791 -0.1300 -0.2385  0.6568
  841MOL0     O15968   1.451   6.853  10.076  0.6349  0.3471  0.8211
  841MOL0     C15969   1.635   7.148  10.090  0.2675 -0.2613  0.0799
  841MOL0     C15970   1.627   7.284  10.134  0.0660 -0.2843 -0.0333
  841MOL0     N15971   1.570   7.702   9.758  0.1198  1.0434  0.2180
  841MOL0     N15972   1.645   7.763   9.680 -0.8402  0.5011  0.1028
  841MOL0     C15973   1.790   8.072   9.255  0.6128  0.3500  0.9287
  841MOL0     C15974   1.668   8.004   9.286 -0.4136  0.4810 -0.6081
  841MOL0     C15975   1.325   7.945   9.510 -0.1773 -0.2192  0.0311
  841MOL0     C15976   1.322   7.806   9.457 -0.3263 -0.8801 -0.4684
  841MOL0     C15977   1.268   7.699   9.529  0.0925 -0.7157 -0.3113
  841MOL0     C15978   1.208   7.730   9.651 -0.0241 -0.0432 -0.5903
  841MOL0     O15979   1.155   7.632   9.734  0.6717  0.0448 -0.1729
  841MOL0     C15980   1.119   7.492   9.696 -0.3880 -0.6655 -0.4316
  841MOL0     C15981   1.007   7.493   9.596 -0.0875 -1.0052  0.3646
  841MOL0     C15982   0.880   7.522   9.665 -0.0010  0.1493 -0.0516
  841MOL0     C15983   0.788   7.524   9.551 -0.4067 -0.1535 -0.1477
  841MOL0     C15984   0.657   7.510   9.618  0.3367 -0.5885 -0.0963
  841MOL0     C15985   0.540   7.507   9.662 -0.4321 -0.0376 -0.5495
  841MOL0     C15986   1.209   7.857   9.702  0.4920 -0.6570  0.1412
  841MOL0     C15987   1.255   7.970   9.635  0.5574 -0.6920  0.2104
  841MOL0     C15988   1.213   8.106   9.684 -0.5224 -0.7009 -0.4128
  841MOL0     H15989   1.452   8.249   9.216 -0.1321 -0.0415  3.2015
  841MOL0     H15990   1.680   8.356   9.116  0.5329 -0.2971 -0.5246
  841MOL0     H15991   1.861   8.445   9.241  1.7097  2.7154 -1.0207
  841MOL0     H15992   1.998   8.439   9.136  1.8452  0.9394  1.4539
  841MOL0     H15993   2.135   8.319   9.290 -0.8832  0.5188 -3.8305
  841MOL0     H15994   2.083   8.482   9.353 -0.5341  0.0095  1.9326
  841MOL0     H15995   1.931   8.225   9.418  1.3183 -1.2082  1.4326
  841MOL0     H15996   2.082   8.265   9.498  0.4354  0.0835 -0.1186
  841MOL0     H15997   1.996   8.448   9.601  1.0573 -0.1097 -1.9426
  841MOL0     H15998   1.851   8.473   9.492 -0.4758  0.1960 -0.8740
  841MOL0     H15999   1.740   8.266   9.578 -1.0766  1.0963 -0.1543
  841MOL0     H16000   1.770   8.370   9.715  0.2166  0.8000 -0.2430
  841MOL0     H16001   1.965   8.152   9.637 -0.0597  0.6916 -0.6485
  841MOL0     H16002   1.948   8.230   9.804 -3.5578 -0.4982  1.4679
  841MOL0     H16003   1.738   8.129   9.838  1.0684  0.8814  0.2420
  841MOL0     H16004   1.867   8.018   9.833 -0.9921  1.6808  2.6503
  841MOL0     H16005   1.680   8.049   9.586  1.1203 -0.4698 -0.2434
  841MOL0     H16006   1.826   7.961   9.589 -2.2858 -1.9175  0.2325
  841MOL0     H16007   1.564   7.985   9.905 -2.6667 -1.9987  2.6898
  841MOL0     H16008   1.343   7.726   9.896  1.3176 -5.6360 -0.6769
  841MOL0     H16009   1.409   7.839  10.024 -1.2824 -0.2155 -0.7123
  841MOL0     H16010   1.364   7.578  10.042  0.3534 -2.7392 -3.4369
  841MOL0     H16011   1.530   7.555   9.988  2.9667  2.4434  1.8593
  841MOL0     H16012   1.580   7.737  10.168 -2.5924  1.6756  0.1945
  841MOL0     H16013   1.439   7.671  10.256  1.7419  2.1075  1.1962
  841MOL0     H16014   1.681   7.531  10.172 -1.6074  0.4129 -0.7808
  841MOL0     H16015   1.671   7.589  10.324  0.4078  0.6269 -0.6108
  841MOL0     H16016   1.438   7.219  10.403  2.2971 -2.2083  2.4656
  841MOL0     H16017   1.313   6.969  10.272  2.2432  0.5444 -2.7928
  841MOL0     H16018   1.359   7.024  10.434  2.4315  1.1790  0.5497
  841MOL0     H16019   1.467   6.901  10.350 -1.0285 -1.0404  2.0999
  841MOL0     H16020   1.419   6.820   9.844  0.1154  6.2176 -2.0691
  841MOL0     H16021   1.413   6.689   9.655 -0.2012  0.2260  2.3931
  841MOL0     H16022   1.433   6.603   9.445 -0.0367 -1.7692  1.7523
  841MOL0     H16023   1.551   6.551   9.323 -0.5898 -1.7750  0.0397
  841MOL0     H16024   1.634   6.388   9.523 -0.8751 -2.0844 -2.3115
  841MOL0     H16025   1.482   6.444   9.594 -0.4183  3.0050  0.7910
  841MOL0     H16026   1.557   6.288   9.345 -1.1065  1.3584 -0.8758
  841MOL0     H16027   1.392   6.379   9.343 -1.2293 -2.7294 -1.1954
  841MOL0     H16028   1.314   6.254   9.514  1.2598  3.3693 -1.7960
  841MOL0     H16029   1.475   6.200   9.572  0.2111  1.3456 -0.0374
  841MOL0     H16030   1.325   6.102   9.334  1.6621 -0.2565 -1.2211
  841MOL0     H16031   1.485   6.045   9.380 -0.9310  0.6305 -1.0005
  841MOL0     H16032   1.275   6.016   9.604 -2.8346 -1.6569 -0.4260
  841MOL0     H16033   1.425   5.922   9.570 -2.5187 -3.1361  0.8246
  841MOL0     H16034   1.332   5.801   9.401  1.1941  0.7886  0.3120
  841MOL0     H16035   1.192   5.913   9.372  0.9318  4.4774  1.0377
  841MOL0     H16036   1.112   5.851   9.597 -0.9055 -0.9709  0.5577
  841MOL0     H16037   1.252   5.746   9.618 -1.7618 -0.6851  1.8441
  841MOL0     H16038   1.853   6.728   9.608  0.2091 -2.1811 -0.1627
  841MOL0     H16039   1.846   6.853   9.839  1.6466  0.7592 -3.1130
  841MOL0     H16040   1.680   7.116   9.997 -1.1961  1.4004 -1.2549
  841MOL0     H16041   1.679   7.357  10.073  0.4535 -2.4439 -2.4851
  841MOL0     H16042   1.887   8.023   9.264  0.6732 -1.2917 -4.9743
  841MOL0     H16043   1.661   7.907   9.336 -2.7607  0.9534  0.1348
  841MOL0     H16044   1.378   7.785   9.366 -2.1619 -2.4016 -1.3156
  841MOL0     H16045   1.274   7.595   9.500 -0.9333 -0.9074  0.1121
  841MOL0     H16046   1.206   7.449   9.645 -0.3079  0.9244 -1.6879
  841MOL0     H16047   1.084   7.433   9.782  1.6205  0.0500  0.9418
  841MOL0     H16048   1.012   7.393   9.552  3.2307 -2.0191  2.6391
  841MOL0     H16049   1.026   7.566   9.517 -2.3398 -0.6676  0.0730
  841MOL0     H16050   0.857   7.451   9.745  0.5733  0.1157  0.0872
  841MOL0     H16051   0.881   7.619   9.716  0.9340  1.3064 -2.1430
  841MOL0     H16052   0.800   7.431   9.495  1.2555 -0.1787  0.2002
  841MOL0     H16053   0.802   7.616   9.495  0.6007  0.8654  1.6721
  841MOL0     H16054   0.449   7.498   9.718 -0.5253  0.4630 -0.6159
  841MOL0     H16055   1.160   7.852   9.799 -0.6366 -1.5517 -0.4495
  841MOL0     H16056   1.152   8.107   9.775 -2.1455 -1.9245 -1.4357
  841MOL0     H16057   1.307   8.153   9.713 -2.3122  2.8690  0.1884
  841MOL0     H16058   1.174   8.171   9.606 -0.1861  0.6544  0.5040
  842MOL0     O16059   8.774   1.001   6.736  0.1731  0.5298 -0.0581
  842MOL0     C16060   8.653   1.000   6.743 -0.1593 -0.3488  0.4237
  842MOL0     O16061   8.570   1.091   6.683  0.3678  0.6271  0.4776
  842MOL0     C16062   8.617   1.175   6.592 -0.6844  0.4428  0.3421
  842MOL0     C16063   8.571   1.310   6.595 -0.4658 -0.3478 -1.0052
  842MOL0     C16064   8.607   1.391   6.492  0.3429  0.7945 -0.3514
  842MOL0     C16065   8.717   1.358   6.409  0.0826  0.0358  0.6951
  842MOL0     O16066   8.754   1.458   6.318  0.1912  0.0441 -0.0311
  842MOL0     C16067   8.899   1.475   6.287  0.1282 -0.2650  0.2541
  842MOL0     C16068   8.933   1.622   6.257  0.6799 -0.2389 -0.5847
  842MOL0     C16069   9.087   1.652   6.253  0.6039  0.7344  0.2585
  842MOL0     C16070   9.103   1.797   6.200  0.3239  0.1083 -0.2333
  842MOL0     C16071   9.073   1.902   6.307 -0.2777 -0.2279  0.0397
  842MOL0     C16072   9.138   2.038   6.269  0.1137 -0.5188 -0.6583
  842MOL0     C16073   9.115   2.138   6.383  0.8866  0.1866  0.0261
  842MOL0     C16074   9.153   2.280   6.331  0.3798 -0.3944  0.1601
  842MOL0     N16075   9.121   2.373   6.440 -0.2087  0.0025  0.0774
  842MOL0     C16076   9.150   2.504   6.427  0.7290  0.0234  0.0736
  842MOL0     C16077   9.097   2.570   6.528  0.6932  0.6614  0.1139
  842MOL0     C16078   9.113   2.713   6.583 -0.5598  0.7085  0.3214
  842MOL0     C16079   9.034   2.750   6.711 -0.0308 -0.1238  0.2598
  842MOL0     C16080   9.090   2.721   6.850 -0.7076 -0.2822  0.2909
  842MOL0     C16081   8.999   2.709   6.974  1.0773 -0.3339  0.4358
  842MOL0     O16082   9.084   2.691   7.091  0.3338 -0.4613  0.3192
  842MOL0     C16083   9.035   2.644   7.214  0.6564  0.4313 -0.8910
  842MOL0     C16084   9.120   2.632   7.329 -0.0564 -0.1171  0.3510
  842MOL0     C16085   9.072   2.589   7.452  0.1194 -0.4512  0.3240
  842MOL0     C16086   9.179   2.558   7.560  0.4016 -0.6879  0.5583
  842MOL0     C16087   8.931   2.558   7.460 -0.6532  0.6069  0.4035
  842MOL0     C16088   8.869   2.527   7.585 -0.2298  0.3836  0.5992
  842MOL0     O16089   8.761   2.440   7.572  1.0630  0.2782 -0.3500
  842MOL0     C16090   8.710   2.399   7.692 -0.3443  0.3831  0.1751
  842MOL0     C16091   8.749   2.273   7.748  0.0170  0.2621 -0.2897
  842MOL0     C16092   8.699   2.236   7.867  0.2119  0.4604  0.0199
  842MOL0     C16093   8.608   2.317   7.940 -0.0176 -0.0021 -0.4474
  842MOL0     O16094   8.550   2.268   8.056 -0.5415 -0.3597 -0.5470
  842MOL0     C16095   8.633   2.258   8.171  1.0608  0.1823 -0.0355
  842MOL0     C16096   8.598   2.367   8.278  0.1090 -0.4042  0.3067
  842MOL0     C16097   8.458   2.445   8.268  0.3311 -0.3941  0.2651
  842MOL0     C16098   8.460   2.538   8.383  0.3918 -1.5377  0.2436
  842MOL0     C16099   8.366   2.666   8.355 -0.0146  0.1494 -0.2790
  842MOL0     C16100   8.372   2.775   8.470  0.0403 -0.8189  0.2612
  842MOL0     C16101   8.241   2.856   8.487 -0.0527 -0.3418 -1.0227
  842MOL0     C16102   8.269   2.959   8.597  0.0227 -0.6852  0.1542
  842MOL0    Cl16103   8.114   3.034   8.631 -0.4577 -0.2682 -0.3547
  842MOL0     C16104   8.577   2.440   7.893 -0.1676  0.1115  0.4277
  842MOL0     C16105   8.629   2.482   7.770  0.7798 -0.7235  0.6441
  842MOL0     O16106   8.900   2.582   7.688  0.0273 -0.8468  0.9683
  842MOL0     C16107   8.853   2.556   7.343 -0.7017  0.6051 -1.1830
  842MOL0     C16108   8.905   2.619   7.233  0.5593  1.2878  0.0162
  842MOL0     N16109   9.045   2.469   6.610  0.4068 -0.1859 -0.7986
  842MOL0     N16110   9.044   2.360   6.546 -0.0552  1.0562  0.5035
  842MOL0     C16111   8.772   1.233   6.412  0.2888  0.3212 -0.2721
  842MOL0     C16112   8.712   1.139   6.497 -0.8659 -0.2518  0.6252
  842MOL0     C16113   8.583   0.898   6.825  0.8714  0.7165 -0.3485
  842MOL0     C16114   8.456   0.858   6.795 -0.2642  0.1672  0.2408
  842MOL0     C16115   8.398   0.753   6.865  0.1609 -0.7065 -0.4018
  842MOL0     C16116   8.447   0.693   6.975  0.9938  0.2435  0.1175
  842MOL0     O16117   8.373   0.604   7.043 -0.5579 -0.0610  0.4686
  842MOL0     C16118   8.357   0.649   7.180  0.5574  0.0859  0.2298
  842MOL0     C16119   8.256   0.566   7.258  0.5348 -0.3755  0.1560
  842MOL0     C16120   8.192   0.641   7.376 -0.3630 -0.1816 -0.3062
  842MOL0     C16121   8.292   0.712   7.469 -0.2528 -0.0316  0.1398
  842MOL0     C16122   8.376   0.606   7.535  0.5196  0.4086 -0.3228
  842MOL0     C16123   8.464   0.538   7.581  1.1117 -0.9399 -0.8592
  842MOL0     C16124   8.581   0.728   7.004 -0.0436 -0.0064  0.4732
  842MOL0     C16125   8.653   0.829   6.936  0.3273  1.0714 -0.2985
  842MOL0     C16126   8.785   0.860   6.991 -0.8106  0.2699 -0.3122
  842MOL0     H16127   8.497   1.333   6.671  0.6046  1.8337 -0.5664
  842MOL0     H16128   8.555   1.487   6.495 -1.0009  0.0635  0.6487
  842MOL0     H16129   8.931   1.415   6.202  0.1466  0.7080 -0.4359
  842MOL0     H16130   8.957   1.440   6.373  0.6273 -0.2022 -0.0573
  842MOL0     H16131   8.882   1.661   6.168 -0.0194  1.2494  0.4285
  842MOL0     H16132   8.898   1.683   6.341  0.9130 -1.7456  0.6528
  842MOL0     H16133   9.140   1.640   6.348 -2.2383 -0.5018  1.8271
  842MOL0     H16134   9.127   1.586   6.176  1.0005  0.0861  1.0002
  842MOL0     H16135   9.208   1.804   6.172  0.7380 -1.5660  0.7395
  842MOL0     H16136   9.051   1.816   6.106  0.7671  1.1646 -0.2793
  842MOL0     H16137   9.114   1.872   6.404 -0.9818  1.3356  0.8539
  842MOL0     H16138   8.967   1.915   6.327 -0.1783  1.8854 -0.5847
  842MOL0     H16139   9.247   2.036   6.261  0.0005 -0.7213 -2.8250
  842MOL0     H16140   9.106   2.074   6.171 -1.7247 -1.0283 -0.2685
  842MOL0     H16141   9.169   2.121   6.476 -0.7341  0.5698  1.0798
  842MOL0     H16142   9.006   2.146   6.396  0.6780 -0.2373 -1.2870
  842MOL0     H16143   9.262   2.283   6.320  0.7882 -0.8691  3.1845
  842MOL0     H16144   9.100   2.294   6.237  3.6067  0.9805 -1.6121
  842MOL0     H16145   9.197   2.549   6.341  0.0566  1.6615  0.5318
  842MOL0     H16146   9.098   2.788   6.505 -0.8928 -0.6270 -0.9513
  842MOL0     H16147   9.218   2.711   6.610 -0.4924  0.6218  0.0611
  842MOL0     H16148   9.023   2.858   6.704  3.3722  0.2822 -0.7501
  842MOL0     H16149   8.934   2.705   6.710  0.3948 -1.1200  0.3831
  842MOL0     H16150   9.138   2.623   6.840  0.5962  0.2267  1.2957
  842MOL0     H16151   9.166   2.796   6.873 -0.0043 -1.1490  0.8445
  842MOL0     H16152   8.925   2.790   6.981 -0.1658 -1.1529 -2.0153
  842MOL0     H16153   8.947   2.618   6.945 -4.6784  2.6529 -0.1530
  842MOL0     H16154   9.220   2.665   7.304 -1.1395  5.0395  1.4967
  842MOL0     H16155   9.268   2.524   7.507  1.1500  0.7786  0.8539
  842MOL0     H16156   9.141   2.481   7.627  0.9480 -2.3425 -0.9410
  842MOL0     H16157   9.196   2.649   7.617 -1.3373  0.3051 -0.4020
  842MOL0     H16158   8.809   2.210   7.683 -1.1779 -0.5992 -0.5968
  842MOL0     H16159   8.730   2.138   7.900  3.1435  0.2295 -2.9221
  842MOL0     H16160   8.616   2.160   8.215 -1.4256  1.5630  2.4160
  842MOL0     H16161   8.737   2.266   8.139  1.6607 -2.9059  0.8301
  842MOL0     H16162   8.583   2.321   8.376 -2.9558  1.6943  0.9828
  842MOL0     H16163   8.678   2.442   8.278 -0.9333  0.7932 -1.2239
  842MOL0     H16164   8.372   2.377   8.271  0.2177 -0.2272  1.1189
  842MOL0     H16165   8.464   2.484   8.166  1.7319 -1.2212  0.0143
  842MOL0     H16166   8.562   2.576   8.391  0.7098 -1.9526 -1.4643
  842MOL0     H16167   8.428   2.492   8.477  1.3330  0.6150  1.7050
  842MOL0     H16168   8.396   2.721   8.266 -2.9102  0.9586 -0.8406
  842MOL0     H16169   8.263   2.630   8.344  0.1067 -0.0258 -0.8591
  842MOL0     H16170   8.450   2.848   8.447  0.1320  0.5550  4.1946
  842MOL0     H16171   8.390   2.716   8.560 -0.0183 -1.1435  0.0644
  842MOL0     H16172   8.153   2.793   8.502 -1.0677  1.3417  0.4711
  842MOL0     H16173   8.204   2.904   8.396  1.8874 -1.1702 -2.3445
  842MOL0     H16174   8.344   3.036   8.578 -1.9039  1.6234  1.4285
  842MOL0     H16175   8.303   2.915   8.691  0.7981  0.7041  0.5541
  842MOL0     H16176   8.502   2.496   7.947 -0.6902 -2.1535  2.2129
  842MOL0     H16177   8.608   2.586   7.746  1.9547 -0.1926  1.7550
  842MOL0     H16178   8.749   2.524   7.348 -1.1002  2.0639  0.9251
  842MOL0     H16179   8.835   2.619   7.150  0.9109 -0.7188 -0.3426
  842MOL0     H16180   8.844   1.195   6.340  0.7657 -1.3279  1.0185
  842MOL0     H16181   8.758   1.041   6.489  2.8699  1.3700 -0.5255
  842MOL0     H16182   8.404   0.903   6.711  1.1805 -0.3674 -0.9663
  842MOL0     H16183   8.297   0.729   6.834 -0.5778  0.9924  0.5781
  842MOL0     H16184   8.451   0.658   7.234  0.6187  2.9223 -0.1890
  842MOL0     H16185   8.322   0.752   7.180  1.0935  0.4419 -3.8985
  842MOL0     H16186   8.301   0.471   7.285  1.8781 -1.0009 -3.7240
  842MOL0     H16187   8.174   0.547   7.188  1.4411  2.6409 -1.9508
  842MOL0     H16188   8.131   0.723   7.336  0.6987  0.6547 -0.2694
  842MOL0     H16189   8.136   0.575   7.442 -1.6452  0.0766 -1.0936
  842MOL0     H16190   8.234   0.770   7.541  1.3605 -2.1746  3.3730
  842MOL0     H16191   8.356   0.784   7.416 -0.8450  1.1296  0.9648
  842MOL0     H16192   8.555   0.487   7.605  0.3164 -1.0648  2.3202
  842MOL0     H16193   8.618   0.692   7.099 -3.7171 -2.8515  1.0625
  842MOL0     H16194   8.787   0.966   7.017 -0.5908  0.0119  0.7837
  842MOL0     H16195   8.820   0.802   7.077  1.3147 -0.7692 -1.7759
  842MOL0     H16196   8.855   0.843   6.909 -4.0040  1.3499 -3.4907
  843MOL0     O16197   5.900   6.244   7.252  0.5106  0.6375  0.2994
  843MOL0     C16198   5.929   6.296   7.139 -1.0744 -0.0414 -0.6162
  843MOL0     O16199   5.860   6.289   7.030 -0.3181 -0.0698  0.3902
  843MOL0     C16200   5.750   6.201   7.042 -0.0057  0.3546 -0.1869
  843MOL0     C16201   5.634   6.249   7.100  0.3789 -0.0478 -0.1670
  843MOL0     C16202   5.517   6.175   7.115  0.6738  0.2396  0.5530
  843MOL0     C16203   5.525   6.038   7.069 -0.2895 -0.5343  0.9847
  843MOL0     O16204   5.413   5.960   7.097 -0.9178 -0.0853  0.0800
  843MOL0     C16205   5.428   5.817   7.100  0.1433 -0.4472  0.3991
  843MOL0     C16206   5.312   5.734   7.168 -0.7538  0.8506 -0.2688
  843MOL0     C16207   5.354   5.588   7.194  0.4949 -0.4624  0.4292
  843MOL0     C16208   5.272   5.529   7.312  0.1845  0.0785  0.5715
  843MOL0     C16209   5.312   5.383   7.344  0.7811 -0.5543 -0.0811
  843MOL0     C16210   5.218   5.316   7.441  0.2598  0.4419  1.1405
  843MOL0     C16211   5.236   5.165   7.460 -0.0187  0.7758 -0.9069
  843MOL0     C16212   5.187   5.075   7.351  0.2057 -0.2586  0.0563
  843MOL0     N16213   5.050   5.106   7.321 -0.1256 -0.2280 -0.0099
  843MOL0     C16214   4.944   5.056   7.394 -0.4213 -0.2405  0.6917
  843MOL0     C16215   4.839   5.096   7.322  0.4323 -1.3014 -0.3594
  843MOL0     C16216   4.698   5.069   7.360  0.1786  0.1116 -0.0413
  843MOL0     C16217   4.652   4.923   7.337  0.8151  0.0718  0.1897
  843MOL0     C16218   4.653   4.846   7.469  0.2012  0.1477 -0.3405
  843MOL0     C16219   4.593   4.708   7.472  0.2103  0.2416 -0.9862
  843MOL0     O16220   4.568   4.648   7.349 -0.7634  0.6177  0.8532
  843MOL0     C16221   4.530   4.509   7.336  0.5987  0.8231  1.0645
  843MOL0     C16222   4.515   4.431   7.451  0.0957 -0.8867  0.1546
  843MOL0     C16223   4.468   4.299   7.450 -0.1593  0.2646  0.7585
  843MOL0     C16224   4.436   4.228   7.581 -0.1704  0.6057 -0.5441
  843MOL0     C16225   4.418   4.246   7.321 -0.8135  0.2045 -0.9182
  843MOL0     C16226   4.339   4.117   7.304 -0.9322 -0.2096 -0.1769
  843MOL0     O16227   4.378   4.039   7.203  0.0509  0.9881 -0.1254
  843MOL0     C16228   4.331   3.912   7.202  0.1072 -0.0740 -0.2879
  843MOL0     C16229   4.263   3.875   7.089 -0.3964  0.0691  0.2973
  843MOL0     C16230   4.224   3.740   7.070 -0.6868  0.1488  0.2846
  843MOL0     C16231   4.270   3.639   7.163 -0.0743 -0.5496  0.4457
  843MOL0     O16232   4.250   3.508   7.136 -0.3501  0.4650  0.4593
  843MOL0     C16233   4.306   3.399   7.213  0.0551  0.2266  0.0831
  843MOL0     C16234   4.278   3.264   7.142 -0.0497 -0.0607 -0.6130
  843MOL0     C16235   4.294   3.141   7.226  0.7430 -0.3699 -0.5371
  843MOL0     C16236   4.202   3.142   7.352 -0.2560 -0.1953  0.1726
  843MOL0     C16237   4.201   3.013   7.431  0.0449 -0.3075  0.0545
  843MOL0     C16238   4.127   2.888   7.372  0.2442 -0.0765  0.5194
  843MOL0     C16239   3.978   2.922   7.344  0.8164 -0.1121 -0.7167
  843MOL0     C16240   3.915   2.940   7.485 -0.5769 -0.0324 -0.3713
  843MOL0    Cl16241   3.919   2.789   7.585 -0.0805  0.1537  0.1544
  843MOL0     C16242   4.342   3.674   7.281 -0.2377  0.0867  1.4345
  843MOL0     C16243   4.368   3.810   7.295  0.3513  0.3829 -0.8634
  843MOL0     O16244   4.236   4.097   7.371  0.5431 -0.2870  0.0575
  843MOL0     C16245   4.437   4.329   7.207  0.2660  0.2708  0.9382
  843MOL0     C16246   4.492   4.453   7.211  0.7538  0.4536  0.3244
  843MOL0     N16247   4.874   5.178   7.217 -0.2280  0.7788  0.4140
  843MOL0     N16248   5.005   5.169   7.209  0.0944  0.2166 -0.2652
  843MOL0     C16249   5.650   5.988   7.017  0.7511  0.1789  0.6787
  843MOL0     C16250   5.757   6.066   6.992  0.3011  0.1563  0.7083
  843MOL0     C16251   6.057   6.368   7.132  1.0008  0.8996  0.2380
  843MOL0     C16252   6.109   6.438   7.243 -0.4267  0.9857  0.1978
  843MOL0     C16253   6.221   6.514   7.245  0.0383  0.0320  0.1802
  843MOL0     C16254   6.290   6.529   7.123 -0.2443 -1.3627  0.0149
  843MOL0     O16255   6.402   6.617   7.122 -0.4327 -0.6518 -0.4606
  843MOL0     C16256   6.494   6.610   7.011 -0.6471 -0.2927 -0.2745
  843MOL0     C16257   6.628   6.679   7.049 -0.1493  0.5407 -0.0100
  843MOL0     C16258   6.628   6.829   7.016  0.2147 -0.2554 -0.6811
  843MOL0     C16259   6.674   6.857   6.865 -0.4016 -1.0759 -0.6402
  843MOL0     C16260   6.812   6.816   6.827  0.6109 -0.2233 -0.4035
  843MOL0     C16261   6.915   6.779   6.794 -0.0140 -0.7186  0.0134
  843MOL0     C16262   6.236   6.477   7.008 -0.1464  0.4907  0.4057
  843MOL0     C16263   6.129   6.388   7.006  0.2633  0.5037  0.5079
  843MOL0     C16264   6.096   6.315   6.880  0.3710  0.6919  0.2424
  843MOL0     H16265   5.635   6.354   7.127  0.9990  0.4550 -1.9660
  843MOL0     H16266   5.427   6.226   7.149 -0.4596 -1.7071  0.6251
  843MOL0     H16267   5.521   5.776   7.140  1.2731 -1.9863 -3.3190
  843MOL0     H16268   5.451   5.791   6.996 -0.3562 -1.6838  0.5685
  843MOL0     H16269   5.285   5.776   7.265 -1.1310 -2.7039  1.3156
  843MOL0     H16270   5.218   5.737   7.112 -0.8521 -0.8537 -0.2649
  843MOL0     H16271   5.344   5.541   7.096  1.7100  4.0027 -2.1385
  843MOL0     H16272   5.458   5.588   7.226  1.4006  1.0701 -2.1905
  843MOL0     H16273   5.280   5.587   7.404  4.2030 -1.8709  1.6800
  843MOL0     H16274   5.167   5.532   7.280 -0.3284  1.0982  2.2462
  843MOL0     H16275   5.416   5.394   7.376  1.5617  1.8563 -3.0329
  843MOL0     H16276   5.323   5.327   7.251  3.6304 -3.0266  1.5598
  843MOL0     H16277   5.219   5.356   7.542  1.7775 -0.8102  1.6568
  843MOL0     H16278   5.124   5.346   7.392  0.8892  1.3236  0.4274
  843MOL0     H16279   5.179   5.132   7.547  2.3336 -3.4187 -0.6920
  843MOL0     H16280   5.342   5.146   7.480  0.4596  2.9493 -1.1209
  843MOL0     H16281   5.247   5.090   7.260  0.6295 -0.5664  0.2826
  843MOL0     H16282   5.204   4.971   7.381  2.1621 -0.5247 -1.7039
  843MOL0     H16283   4.949   4.976   7.467  1.4112 -1.4293 -0.6493
  843MOL0     H16284   4.638   5.129   7.291  0.4962  2.9742  1.9790
  843MOL0     H16285   4.670   5.107   7.458  2.2674  0.1162  0.5949
  843MOL0     H16286   4.546   4.911   7.313  1.2618 -3.8074 -0.5022
  843MOL0     H16287   4.709   4.875   7.257  0.1843 -1.3026  0.5234
  843MOL0     H16288   4.760   4.842   7.487  0.3009  2.5896 -0.1228
  843MOL0     H16289   4.614   4.904   7.553 -0.7104  0.3203 -0.8586
  843MOL0     H16290   4.654   4.655   7.546 -0.8043  0.5442  0.1050
  843MOL0     H16291   4.496   4.708   7.524  0.0149 -0.6443 -1.3333
  843MOL0     H16292   4.540   4.484   7.542 -0.3270  2.1579 -1.3876
  843MOL0     H16293   4.331   4.198   7.583  0.3304 -1.1852  0.5460
  843MOL0     H16294   4.448   4.301   7.661 -1.7137  0.9024 -0.5539
  843MOL0     H16295   4.499   4.139   7.593 -1.8764 -0.3915  1.5877
  843MOL0     H16296   4.236   3.955   7.021  1.5482  0.2626 -0.2929
  843MOL0     H16297   4.175   3.718   6.975 -1.3431 -1.4333  0.9550
  843MOL0     H16298   4.414   3.415   7.227 -0.0384  3.6525 -1.8543
  843MOL0     H16299   4.252   3.401   7.308 -1.7788  0.2595 -0.9229
  843MOL0     H16300   4.185   3.267   7.085  0.2718  2.6941 -1.1181
  843MOL0     H16301   4.351   3.256   7.062  0.9040  2.3024 -0.0725
  843MOL0     H16302   4.399   3.131   7.255  1.0311  0.2677 -1.3193
  843MOL0     H16303   4.272   3.054   7.163  1.4002  0.5526 -2.1065
  843MOL0     H16304   4.096   3.157   7.330 -0.3098  0.3249  0.7951
  843MOL0     H16305   4.251   3.212   7.420  0.2796 -0.5359  0.1487
  843MOL0     H16306   4.302   2.973   7.440  0.6320  0.5817 -1.9771
  843MOL0     H16307   4.160   3.034   7.530  1.6386  0.2717  0.6111
  843MOL0     H16308   4.133   2.790   7.420  2.6932 -1.2764 -1.9473
  843MOL0     H16309   4.185   2.883   7.280 -0.3937  1.6601 -0.0100
  843MOL0     H16310   3.934   2.835   7.296  0.7148  0.4105 -1.5903
  843MOL0     H16311   3.948   3.003   7.277 -0.7880 -0.4052 -0.3836
  843MOL0     H16312   3.808   2.951   7.464 -1.1239 -1.3263  1.4423
  843MOL0     H16313   3.953   3.027   7.539  4.5471 -3.5683  2.5946
  843MOL0     H16314   4.360   3.597   7.355 -0.7727 -1.3742  0.1174
  843MOL0     H16315   4.428   3.835   7.382 -0.2241  2.6345 -1.0422
  843MOL0     H16316   4.401   4.290   7.112  1.7176 -2.4518  1.3989
  843MOL0     H16317   4.493   4.513   7.121 -0.4771 -0.5896 -0.4198
  843MOL0     H16318   5.657   5.885   6.986 -0.5935  0.4840 -0.7942
  843MOL0     H16319   5.847   6.030   6.943 -1.2424 -1.1924 -1.2640
  843MOL0     H16320   6.040   6.444   7.328  0.4172  2.1020  0.8240
  843MOL0     H16321   6.240   6.579   7.330 -2.7866  1.3940 -0.1348
  843MOL0     H16322   6.526   6.507   6.990  1.8913  0.5691 -1.0139
  843MOL0     H16323   6.452   6.646   6.916  4.8253  3.0586 -1.8458
  843MOL0     H16324   6.699   6.625   6.986 -2.4493 -0.3854 -2.0135
  843MOL0     H16325   6.657   6.663   7.153  0.9851 -1.5341 -0.5972
  843MOL0     H16326   6.530   6.878   7.024  1.3348  1.8923  0.9157
  843MOL0     H16327   6.693   6.859   7.098 -1.9397 -0.7485  1.3108
  843MOL0     H16328   6.656   6.965   6.861 -0.7229 -0.7661  3.9070
  843MOL0     H16329   6.609   6.818   6.787 -3.0767  2.7489 -0.5764
  843MOL0     H16330   7.014   6.751   6.762  0.6151 -1.0995  2.1619
  843MOL0     H16331   6.286   6.499   6.914 -0.5210  1.3540  0.3950
  843MOL0     H16332   6.087   6.209   6.903 -0.7845  0.7372  0.0338
  843MOL0     H16333   6.004   6.360   6.842  0.5079  1.0748  0.3553
  843MOL0     H16334   6.180   6.336   6.813 -0.1370 -0.3161 -0.7305
  844MOL0     O16335   3.499   7.105   7.773 -0.0744  0.2297  0.3352
  844MOL0     C16336   3.547   7.170   7.680  0.8294 -0.7392 -0.8637
  844MOL0     O16337   3.674   7.212   7.669 -1.1177  0.2969 -0.2036
  844MOL0     C16338   3.774   7.166   7.747  0.5006 -1.1518  0.5955
  844MOL0     C16339   3.764   7.160   7.888 -0.8338  0.6808 -0.3817
  844MOL0     C16340   3.874   7.099   7.958  0.1923 -0.3062 -0.2158
  844MOL0     C16341   3.979   7.040   7.885  0.2170  0.1016  0.9029
  844MOL0     O16342   4.091   6.983   7.945 -0.5726  0.1119  0.5853
  844MOL0     C16343   4.075   6.889   8.049  0.0709  0.7146 -0.0913
  844MOL0     C16344   4.206   6.861   8.133  0.3496  0.1264  0.0023
  844MOL0     C16345   4.197   6.741   8.235  1.0050 -0.4343  0.0342
  844MOL0     C16346   4.163   6.596   8.177  0.2456  0.7735 -0.7687
  844MOL0     C16347   4.274   6.512   8.117 -0.1433  0.2315 -0.6453
  844MOL0     C16348   4.359   6.454   8.225  0.2572 -0.2126 -0.2296
  844MOL0     C16349   4.474   6.366   8.165  1.3634 -0.6583 -0.0422
  844MOL0     C16350   4.581   6.470   8.095 -0.2215  0.2720 -0.0943
  844MOL0     N16351   4.621   6.423   7.968  0.8263  0.3324  0.6637
  844MOL0     C16352   4.682   6.513   7.879 -0.2922 -0.3289 -0.2092
  844MOL0     C16353   4.726   6.440   7.763  0.1604 -0.4657 -0.4521
  844MOL0     C16354   4.824   6.471   7.658 -1.0005 -0.8713 -0.2556
  844MOL0     C16355   4.833   6.623   7.643  0.3552  0.2443 -0.1417
  844MOL0     C16356   4.964   6.682   7.695  0.0763 -0.1436 -0.2149
  844MOL0     C16357   5.080   6.646   7.593  0.5134  0.1600  0.9474
  844MOL0     O16358   5.200   6.725   7.621  0.5978 -0.7448 -0.0124
  844MOL0     C16359   5.294   6.687   7.719  0.0805  0.0382 -0.2674
  844MOL0     C16360   5.283   6.589   7.824 -0.4593 -0.6741  0.0171
  844MOL0     C16361   5.392   6.559   7.904 -0.1493 -0.0733  0.7972
  844MOL0     C16362   5.367   6.464   8.009  1.3182  0.6201  0.3678
  844MOL0     C16363   5.521   6.625   7.896  0.9014  0.3862 -1.2286
  844MOL0     C16364   5.649   6.601   7.979  0.3601  0.2033 -0.5663
  844MOL0     O16365   5.757   6.693   7.953 -0.0354  0.3946  0.4844
  844MOL0     C16366   5.873   6.665   8.005 -0.7497 -0.6082 -0.3943
  844MOL0     C16367   5.939   6.546   7.996  0.5876 -0.9796 -0.1319
  844MOL0     C16368   6.076   6.531   8.037  0.0108 -0.4217 -1.6338
  844MOL0     C16369   6.141   6.648   8.082 -0.2524  0.3290  0.5358
  844MOL0     O16370   6.277   6.643   8.099 -0.1272  0.2267 -0.6352
  844MOL0     C16371   6.358   6.704   7.995 -0.0079 -0.4507 -0.9475
  844MOL0     C16372   6.486   6.643   7.977 -0.1043 -0.5830  0.5219
  844MOL0     C16373   6.578   6.718   7.879  0.3864  0.1343 -0.3277
  844MOL0     C16374   6.732   6.709   7.927 -0.1771  0.2968  0.6315
  844MOL0     C16375   6.774   6.812   8.028  0.1316 -0.1434 -0.2948
  844MOL0     C16376   6.705   6.952   8.026  0.0377  0.6869  0.8006
  844MOL0     C16377   6.752   7.043   8.144 -0.5484 -0.0474  0.2043
  844MOL0     C16378   6.674   7.174   8.146 -0.4401  0.4599 -0.3490
  844MOL0    Cl16379   6.503   7.158   8.151  0.4072 -0.4157  0.5200
  844MOL0     C16380   6.072   6.768   8.093  0.2719 -0.0299  0.7835
  844MOL0     C16381   5.942   6.780   8.051 -0.7021  0.3320  0.5365
  844MOL0     O16382   5.645   6.516   8.071  0.0993 -0.1939  0.9907
  844MOL0     C16383   5.525   6.719   7.793 -0.6313 -0.3798 -0.1118
  844MOL0     C16384   5.417   6.749   7.708  0.1107 -0.6419  0.4510
  844MOL0     N16385   4.685   6.308   7.793  0.2828  0.0415  0.3908
  844MOL0     N16386   4.627   6.301   7.901  0.1661 -0.2905 -0.7924
  844MOL0     C16387   3.967   7.028   7.742 -0.1119  0.4006  0.4192
  844MOL0     C16388   3.867   7.091   7.672 -0.3169  0.1804 -1.0624
  844MOL0     C16389   3.452   7.200   7.566  0.1829 -0.4819 -0.4451
  844MOL0     C16390   3.311   7.221   7.602  1.0690  0.4631 -0.7794
  844MOL0     C16391   3.219   7.235   7.501 -0.7306  0.2795 -0.4107
  844MOL0     C16392   3.262   7.255   7.365 -0.1958  0.2150 -1.2303
  844MOL0     O16393   3.176   7.262   7.256 -0.2161 -0.1101 -0.3638
  844MOL0     C16394   3.160   7.402   7.208  0.5380 -0.6216  0.0443
  844MOL0     C16395   3.172   7.393   7.050 -0.3462 -0.2883 -0.1631
  844MOL0     C16396   3.045   7.457   6.988 -0.5322 -0.4780  1.0044
  844MOL0     C16397   3.005   7.371   6.875 -1.0609  1.4474 -0.3145
  844MOL0     C16398   2.894   7.434   6.792 -1.4405 -0.6989 -0.5982
  844MOL0     C16399   2.800   7.483   6.733  0.2778 -0.9338  0.0752
  844MOL0     C16400   3.397   7.240   7.337 -1.1443 -0.3703  0.0255
  844MOL0     C16401   3.491   7.213   7.430 -0.2926 -1.0162  0.1191
  844MOL0     C16402   3.638   7.192   7.390 -0.3340 -0.5127 -0.0174
  844MOL0     H16403   3.694   7.203   7.959 -1.3086 -0.0366 -0.4144
  844MOL0     H16404   3.871   7.106   8.067 -0.8138  3.9075 -0.3603
  844MOL0     H16405   4.048   6.791   8.007  1.7577 -0.5230  1.5727
  844MOL0     H16406   3.999   6.941   8.107 -1.9977 -0.3858 -1.6861
  844MOL0     H16407   4.287   6.846   8.062 -1.7971  0.6273 -2.7536
  844MOL0     H16408   4.239   6.954   8.179  0.7679  0.8541 -1.6854
  844MOL0     H16409   4.298   6.732   8.277  1.5046 -1.5434 -1.3479
  844MOL0     H16410   4.133   6.759   8.322 -0.5904  0.1779 -1.2233
  844MOL0     H16411   4.133   6.531   8.260  1.4470  2.9927  1.5397
  844MOL0     H16412   4.078   6.609   8.110 -2.7163  1.3059  2.8355
  844MOL0     H16413   4.332   6.574   8.049  1.3340 -3.0325 -2.5599
  844MOL0     H16414   4.219   6.429   8.072 -0.4621 -0.6598  1.2562
  844MOL0     H16415   4.411   6.532   8.282  0.2987 -0.4692  0.0851
  844MOL0     H16416   4.305   6.385   8.290 -1.0478  1.8722  1.0005
  844MOL0     H16417   4.439   6.286   8.100 -0.0932  1.0392 -1.4530
  844MOL0     H16418   4.523   6.315   8.249  2.6010  2.9049  1.6014
  844MOL0     H16419   4.536   6.568   8.076 -0.0022  0.6950  1.4301
  844MOL0     H16420   4.674   6.473   8.151 -0.3934 -5.1064  1.0626
  844MOL0     H16421   4.697   6.619   7.898 -0.6337  0.2329 -2.7172
  844MOL0     H16422   4.783   6.433   7.564 -1.4289 -1.4139  0.1402
  844MOL0     H16423   4.914   6.420   7.691 -1.3364 -1.1972  0.1751
  844MOL0     H16424   4.814   6.656   7.541  1.0591 -3.2223 -1.5289
  844MOL0     H16425   4.747   6.676   7.685  0.1088  0.9161 -1.4427
  844MOL0     H16426   4.950   6.789   7.711 -4.8669 -0.1854 -2.4411
  844MOL0     H16427   4.998   6.643   7.791  0.4559 -1.0443 -0.6915
  844MOL0     H16428   5.090   6.537   7.596  0.0790  0.1138  0.9313
  844MOL0     H16429   5.051   6.672   7.490  0.8361 -0.5459  0.6746
  844MOL0     H16430   5.182   6.552   7.838  0.1106 -3.3453 -2.0668
  844MOL0     H16431   5.426   6.371   8.001 -1.7470 -1.8052  3.0822
  844MOL0     H16432   5.262   6.434   8.017  1.3417  0.4515  0.0370
  844MOL0     H16433   5.395   6.514   8.102  4.3886  2.5486 -1.4181
  844MOL0     H16434   5.878   6.465   7.958  0.5136 -0.2550 -1.6312
  844MOL0     H16435   6.133   6.438   8.033 -0.7225 -1.2704  2.7583
  844MOL0     H16436   6.302   6.712   7.902 -0.1207  1.5979 -0.7410
  844MOL0     H16437   6.363   6.809   8.024  3.2814 -0.4804 -1.0280
  844MOL0     H16438   6.522   6.643   8.080 -0.6717 -1.4671  0.7363
  844MOL0     H16439   6.484   6.538   7.947 -1.7587 -0.9945  1.8681
  844MOL0     H16440   6.541   6.820   7.872 -0.3099  0.0721  1.7207
  844MOL0     H16441   6.584   6.671   7.780 -1.4134 -0.3035 -0.2516
  844MOL0     H16442   6.793   6.735   7.839  0.8783  1.6030  1.7040
  844MOL0     H16443   6.770   6.611   7.956 -1.3565 -1.0325 -2.0226
  844MOL0     H16444   6.760   6.763   8.125  0.2673 -1.3756 -0.8767
  844MOL0     H16445   6.880   6.836   8.015 -0.5793  2.8771 -1.4646
  844MOL0     H16446   6.600   6.935   8.054  0.1075  0.9088  1.2122
  844MOL0     H16447   6.714   7.002   7.929 -3.0201 -1.5497 -0.8068
  844MOL0     H16448   6.854   7.078   8.122 -1.8493  3.3810 -1.1130
  844MOL0     H16449   6.753   6.995   8.242  0.5118 -2.4227 -0.8814
  844MOL0     H16450   6.693   7.242   8.062 -3.2265  1.1967 -0.4927
  844MOL0     H16451   6.712   7.222   8.237  0.2085  1.0704 -0.9228
  844MOL0     H16452   6.128   6.860   8.109  1.2382 -0.4793  0.0976
  844MOL0     H16453   5.897   6.879   8.044 -1.2711  0.0445  0.0217
  844MOL0     H16454   5.623   6.762   7.773  0.1746 -0.9704  2.1944
  844MOL0     H16455   5.414   6.833   7.640 -4.6051  0.8388  2.1296
  844MOL0     H16456   4.042   6.979   7.680 -1.2695 -1.8420  0.6738
  844MOL0     H16457   3.869   7.078   7.564  2.6234  1.3509 -1.2346
  844MOL0     H16458   3.270   7.223   7.703  0.2334  2.0128 -1.1183
  844MOL0     H16459   3.116   7.212   7.524 -0.9366  0.2765 -1.3321
  844MOL0     H16460   3.067   7.445   7.246  2.2244  2.5789  0.9336
  844MOL0     H16461   3.233   7.478   7.235  0.4412 -0.6415  0.3721
  844MOL0     H16462   3.186   7.286   7.034 -1.1978 -0.1935 -1.7343
  844MOL0     H16463   3.261   7.445   7.012 -1.5726  2.9054  1.0178
  844MOL0     H16464   2.954   7.466   7.048 -0.2485  0.2436  1.3466
  844MOL0     H16465   3.074   7.553   6.945  1.3412 -1.6857 -0.5964
  844MOL0     H16466   2.973   7.273   6.910  1.6244  0.8390  0.7386
  844MOL0     H16467   3.094   7.359   6.812  0.8453  0.8318  2.2821
  844MOL0     H16468   2.716   7.518   6.675 -0.9335  1.7697  3.1612
  844MOL0     H16469   3.430   7.244   7.233 -0.7150 -0.4989  0.1550
  844MOL0     H16470   3.643   7.149   7.290 -1.0107  0.8163 -0.6516
  844MOL0     H16471   3.675   7.294   7.381  0.6772 -1.0487 -2.6690
  844MOL0     H16472   3.702   7.136   7.458  0.3281 -0.1814 -0.3617
  845MOL0     O16473   1.028   5.101  10.261 -0.0187  0.0125  0.4812
  845MOL0     C16474   1.139   5.053  10.247  0.5320  0.5357 -0.7234
  845MOL0     O16475   1.179   4.965  10.150  0.4132  0.2373 -0.4733
  845MOL0     C16476   1.094   4.935  10.049 -0.4920  0.3474  0.7396
  845MOL0     C16477   1.008   5.030   9.988  0.4975  0.7470 -0.5398
  845MOL0     C16478   0.931   4.993   9.873  0.0813 -1.2331  0.1365
  845MOL0     C16479   0.937   4.863   9.823  0.2497  0.1922 -0.6160
  845MOL0     O16480   0.863   4.818   9.712 -0.5976  0.4966  0.0176
  845MOL0     C16481   0.783   4.904   9.642 -0.4936  0.4020 -0.0763
  845MOL0     C16482   0.705   4.835   9.533 -0.6637 -0.1819  0.1295
  845MOL0     C16483   0.640   4.700   9.560 -0.3203 -0.1927  0.5483
  845MOL0     C16484   0.536   4.708   9.679  0.5047 -0.8636  0.5455
  845MOL0     C16485   0.420   4.604   9.669 -0.5658  0.2738  0.3719
  845MOL0     C16486   0.351   4.584   9.805 -0.3488  0.0896 -0.1562
  845MOL0     C16487   0.237   4.680   9.816 -0.0784 -1.2151 -0.4274
  845MOL0     C16488   0.209   4.703   9.964 -0.0371 -0.1092  0.1313
  845MOL0     N16489   0.321   4.775  10.034 -0.3642  0.2174 -0.0777
  845MOL0     C16490   0.400   4.881   9.999 -0.2437 -0.2413 -0.6453
  845MOL0     C16491   0.512   4.859  10.074 -0.4347 -0.2410 -0.1166
  845MOL0     C16492   0.631   4.942  10.071  0.4389 -0.8609 -0.1896
  845MOL0     C16493   0.629   5.082  10.133  1.8488  0.6061  0.3382
  845MOL0     C16494   0.692   5.066  10.271 -0.2879 -0.3175 -0.1685
  845MOL0     C16495   0.724   5.203  10.337 -0.2898 -0.1898 -0.7484
  845MOL0     O16496   0.601   5.283  10.329 -0.7386  0.0755 -0.3869
  845MOL0     C16497   0.564   5.360  10.434 -0.3099 -0.2480  0.0770
  845MOL0     C16498   0.649   5.418  10.533  0.3859  0.3531  0.6497
  845MOL0     C16499   0.594   5.493  10.633 -0.2310 -0.1205 -0.9050
  845MOL0     C16500   0.692   5.564  10.731 -0.3570  1.1097 -0.1020
  845MOL0     C16501   0.457   5.508  10.654  1.0075 -1.0983 -0.2533
  845MOL0     C16502   0.392   5.578  10.768 -0.2182 -0.5920  0.2992
  845MOL0     O16503   0.441   5.552  10.896 -0.0698 -0.0769 -0.3198
  845MOL0     C16504   0.407   5.625  11.009  0.0041 -0.2742  0.2763
  845MOL0     C16505   0.421   5.573  11.137  0.4049  1.1817  0.3879
  845MOL0     C16506   0.380   5.637  11.256  0.0407  0.3377  0.2936
  845MOL0     C16507   0.343   5.772  11.242 -0.0301 -0.2263  0.0112
  845MOL0     O16508   0.306   5.836  11.354  0.4634  0.6189  0.3161
  845MOL0     C16509   0.210   5.937  11.345  0.2713 -0.0887  0.6685
  845MOL0     C16510   0.144   5.949  11.482 -1.3088  0.0962  0.4044
  845MOL0     C16511   0.243   5.995  11.599 -0.0313  0.1007  0.3085
  845MOL0     C16512   0.324   6.128  11.563 -0.4967 -0.3273  0.0374
  845MOL0     C16513   0.416   6.164  11.684  0.5094 -0.0874 -0.1202
  845MOL0     C16514   0.459   6.303  11.667  0.8338 -0.1473 -0.3834
  845MOL0     C16515   0.557   6.345  11.772  0.1061 -0.7190 -0.3866
  845MOL0     C16516   0.495   6.395  11.900  1.5447  0.4809 -0.1985
  845MOL0    Cl16517   0.464   6.565  11.888  0.2611 -0.0652 -0.0895
  845MOL0     C16518   0.340   5.836  11.111  1.0843 -0.6142 -0.6674
  845MOL0     C16519   0.364   5.758  11.004  0.0564  0.2436  0.5678
  845MOL0     O16520   0.295   5.646  10.743  0.1999 -0.1215  0.2431
  845MOL0     C16521   0.370   5.445  10.561  0.2914 -0.3309  0.7722
  845MOL0     C16522   0.423   5.378  10.445 -0.2232 -0.0411 -0.5385
  845MOL0     N16523   0.496   4.756  10.160 -0.6312 -0.3604 -0.0511
  845MOL0     N16524   0.376   4.707  10.139 -0.3659 -0.7111 -0.3224
  845MOL0     C16525   1.019   4.770   9.884  0.3346  0.0304  0.3323
  845MOL0     C16526   1.097   4.803   9.994  0.5804  1.4292 -0.1321
  845MOL0     C16527   1.249   5.111  10.335  0.0539 -0.8409  0.1361
  845MOL0     C16528   1.373   5.125  10.277 -1.0063 -0.3374  1.4132
  845MOL0     C16529   1.481   5.172  10.357 -0.2885 -0.1845  1.3412
  845MOL0     C16530   1.463   5.210  10.488  0.3180  0.4244 -0.3562
  845MOL0     O16531   1.568   5.255  10.566 -0.0993  0.8516  0.5155
  845MOL0     C16532   1.650   5.144  10.594 -0.0315  0.1490  0.2727
  845MOL0     C16533   1.792   5.178  10.549  0.3818 -0.5371  0.5756
  845MOL0     C16534   1.895   5.086  10.604 -0.2293  0.2516  0.0659
  845MOL0     C16535   2.037   5.108  10.559 -0.4451 -1.3062  1.1588
  845MOL0     C16536   2.092   5.224  10.623 -0.3624 -0.9367  0.4281
  845MOL0     C16537   2.156   5.316  10.671  0.4099  0.2742  0.0574
  845MOL0     C16538   1.342   5.195  10.550  0.0006 -0.4211 -1.2413
  845MOL0     C16539   1.237   5.139  10.481  0.5095 -0.2866 -0.4152
  845MOL0     C16540   1.101   5.122  10.549  0.0948 -0.1690 -0.3345
  845MOL0     H16541   1.015   5.132  10.026 -0.2360  0.8412 -0.6273
  845MOL0     H16542   0.880   5.082   9.838  1.3179  0.3045  2.0166
  845MOL0     H16543   0.841   4.988   9.603 -0.8167  1.2608  1.2231
  845MOL0     H16544   0.714   4.951   9.713  1.0692  0.3330  1.5612
  845MOL0     H16545   0.621   4.904   9.522 -0.7253 -0.1820  0.5575
  845MOL0     H16546   0.769   4.824   9.445  2.6608 -2.8228  2.5703
  845MOL0     H16547   0.576   4.673   9.476 -1.0999 -0.2714  1.1641
  845MOL0     H16548   0.715   4.623   9.584 -0.0397  0.0487  0.4582
  845MOL0     H16549   0.587   4.690   9.773 -3.4341 -1.3885  2.8090
  845MOL0     H16550   0.491   4.808   9.683 -1.2363 -1.6491  3.1777
  845MOL0     H16551   0.470   4.510   9.642 -3.0312 -0.5552 -1.6739
  845MOL0     H16552   0.347   4.628   9.592  0.1642  3.7497  0.6152
  845MOL0     H16553   0.297   4.489   9.807 -2.1271  0.9840 -2.0285
  845MOL0     H16554   0.417   4.586   9.893 -0.9753  2.4527  0.3384
  845MOL0     H16555   0.154   4.627   9.769 -0.4478 -2.1451  1.2122
  845MOL0     H16556   0.243   4.781   9.773 -1.5927 -1.5799 -1.5514
  845MOL0     H16557   0.116   4.760   9.972  2.1533  3.7854  0.7568
  845MOL0     H16558   0.196   4.611  10.020 -2.3431  1.2047  1.9143
  845MOL0     H16559   0.401   4.945   9.911 -1.7901  0.8646  0.0886
  845MOL0     H16560   0.650   4.970   9.967  3.1439  1.1452  0.7386
  845MOL0     H16561   0.720   4.887  10.105  3.9115  4.1830 -0.1295
  845MOL0     H16562   0.682   5.155  10.071 -0.3264  1.0615 -1.1245
  845MOL0     H16563   0.524   5.110  10.145  0.9475 -0.8590 -2.9496
  845MOL0     H16564   0.629   5.002  10.333 -0.8537  1.5017  1.2374
  845MOL0     H16565   0.788   5.013  10.263  0.1058  0.3908 -0.2785
  845MOL0     H16566   0.758   5.200  10.441 -2.7040 -0.8283  0.0989
  845MOL0     H16567   0.807   5.246  10.280 -2.1462  2.1956 -1.8462
  845MOL0     H16568   0.757   5.409  10.523  0.6332  4.2276 -2.5898
  845MOL0     H16569   0.695   5.512  10.827 -1.1606  0.4612 -0.4175
  845MOL0     H16570   0.659   5.664  10.759  3.4775  2.4180  0.2823
  845MOL0     H16571   0.789   5.570  10.682 -0.6065 -0.1599 -0.8050
  845MOL0     H16572   0.484   5.485  11.149  0.8496  1.4982  0.4071
  845MOL0     H16573   0.399   5.572  11.341  1.2449 -0.8149 -0.8085
  845MOL0     H16574   0.265   6.027  11.316 -0.4568  0.2114  0.2087
  845MOL0     H16575   0.136   5.919  11.267  1.3462  1.0987 -0.6846
  845MOL0     H16576   0.064   6.020  11.458 -0.7512  0.4527 -0.4203
  845MOL0     H16577   0.100   5.851  11.503 -0.4450  0.0645  2.3248
  845MOL0     H16578   0.311   5.910  11.609  1.0430  0.7616 -1.0650
  845MOL0     H16579   0.186   6.006  11.692 -0.4130 -1.9546  0.3599
  845MOL0     H16580   0.250   6.209  11.556 -1.3846 -0.7647  2.8199
  845MOL0     H16581   0.381   6.127  11.470  0.9937  0.7245  0.9024
  845MOL0     H16582   0.384   6.137  11.785 -0.3796 -2.0370 -0.8615
  845MOL0     H16583   0.504   6.100  11.675  0.3908 -0.6002  1.8411
  845MOL0     H16584   0.363   6.356  11.676 -1.7371 -4.1929 -1.2031
  845MOL0     H16585   0.494   6.318  11.565  2.7610  0.8512  0.3790
  845MOL0     H16586   0.635   6.413  11.738  0.5679  0.0479  2.0431
  845MOL0     H16587   0.615   6.258  11.803  0.2488 -1.0256 -1.4727
  845MOL0     H16588   0.555   6.365  11.986 -0.7976 -0.8869  1.0813
  845MOL0     H16589   0.402   6.339  11.915  2.9942 -2.1399 -0.4488
  845MOL0     H16590   0.293   5.933  11.095 -0.2495 -1.2710 -0.8693
  845MOL0     H16591   0.357   5.811  10.909 -1.0426 -0.4908  0.2063
  845MOL0     H16592   0.263   5.447  10.580  0.3236  1.1710  0.9096
  845MOL0     H16593   0.349   5.345  10.372 -1.6288 -0.7506  1.1450
  845MOL0     H16594   1.026   4.665   9.856 -1.1612 -0.3497  1.2485
  845MOL0     H16595   1.157   4.721  10.034 -0.0914  1.1210  0.2526
  845MOL0     H16596   1.380   5.123  10.169 -2.1765  4.4561  1.0085
  845MOL0     H16597   1.573   5.190  10.302 -0.7632  3.3227  1.4334
  845MOL0     H16598   1.658   5.131  10.703  0.6171  0.9738  0.3374
  845MOL0     H16599   1.615   5.050  10.551  2.1619  0.6927 -3.0759
  845MOL0     H16600   1.806   5.285  10.565 -1.9395  0.2076 -1.6928
  845MOL0     H16601   1.790   5.172  10.440 -0.9355 -0.4227  0.5728
  845MOL0     H16602   1.891   5.099  10.713  0.5175 -0.9994  0.2572
  845MOL0     H16603   1.870   4.983  10.578  0.7537  0.0821 -0.2341
  845MOL0     H16604   2.043   5.108  10.450  1.8970 -2.0719  1.2148
  845MOL0     H16605   2.102   5.024  10.586  0.8939 -1.4296 -1.9429
  845MOL0     H16606   2.214   5.398  10.709 -1.2187  1.1631  0.7559
  845MOL0     H16607   1.339   5.206  10.658  3.2470  0.8604 -1.1694
  845MOL0     H16608   1.051   5.026  10.530  0.4262 -0.8094  1.7232
  845MOL0     H16609   1.125   5.108  10.655  2.3312 -0.1848 -0.8009
  845MOL0     H16610   1.024   5.199  10.546 -2.4345 -2.5098 -0.2827
  846MOL0     O16611   1.383  10.607   8.066  0.6721  0.6015  0.1580
  846MOL0     C16612   1.426  10.645   8.172  0.5421  0.6079  0.5178
  846MOL0     O16613   1.412  10.580   8.290 -0.0293  0.5654  0.2292
  846MOL0     C16614   1.322  10.474   8.297  0.1042 -0.6155  0.0747
  846MOL0     C16615   1.208  10.448   8.220 -0.5027  0.1992  0.2371
  846MOL0     C16616   1.133  10.335   8.246 -0.9186  0.6095  0.6528
  846MOL0     C16617   1.169  10.246   8.349 -0.3550 -0.0412  0.6335
  846MOL0     O16618   1.103  10.128   8.381 -0.1241  1.0036 -0.0162
  846MOL0     C16619   0.993  10.081   8.306 -0.8234  0.6036  0.2707
  846MOL0     C16620   1.029  10.040   8.165 -0.4653 -0.7175 -0.6426
  846MOL0     C16621   1.127   9.922   8.159 -0.9350 -0.1057  0.0084
  846MOL0     C16622   1.126   9.849   8.023  0.0472 -0.3457  0.7538
  846MOL0     C16623   1.215   9.730   8.012 -0.1222  0.0859  0.1019
  846MOL0     C16624   1.149   9.664   7.898 -0.4188 -0.0138  0.8252
  846MOL0     C16625   1.245   9.557   7.847 -1.3307  0.1798  0.3570
  846MOL0     C16626   1.193   9.469   7.727  1.3443  0.0005  0.8239
  846MOL0     N16627   1.299   9.385   7.676 -0.9365  0.0833  0.1508
  846MOL0     C16628   1.293   9.252   7.659 -0.0297  0.0399 -0.6390
  846MOL0     C16629   1.408   9.221   7.597 -0.8199  0.8101 -0.2270
  846MOL0     C16630   1.452   9.080   7.589 -0.0113 -0.2599  0.2002
  846MOL0     C16631   1.567   9.035   7.683 -0.0814  0.5468  0.6367
  846MOL0     C16632   1.529   8.975   7.816 -0.0413 -0.6867 -0.3272
  846MOL0     C16633   1.616   9.030   7.931 -0.1132 -0.3590 -0.5821
  846MOL0     O16634   1.564   8.992   8.053  0.2728  0.0808  0.0705
  846MOL0     C16635   1.595   9.056   8.169  1.1004  0.2089 -0.8727
  846MOL0     C16636   1.717   9.115   8.191  0.3776 -0.9464  0.0639
  846MOL0     C16637   1.765   9.159   8.314 -0.2984  0.7236 -0.1775
  846MOL0     C16638   1.904   9.190   8.330 -0.3994 -0.1254  0.5447
  846MOL0     C16639   1.676   9.152   8.418  0.5195  0.1429  0.4391
  846MOL0     C16640   1.703   9.202   8.551 -0.4264 -0.0595 -0.5014
  846MOL0     O16641   1.637   9.135   8.652 -0.0748 -0.6915  0.3568
  846MOL0     C16642   1.683   9.133   8.779  0.1956  0.4752  0.7512
  846MOL0     C16643   1.815   9.161   8.809  0.8519 -0.4659  0.0147
  846MOL0     C16644   1.861   9.147   8.937 -0.0157  0.2295  0.3589
  846MOL0     C16645   1.773   9.115   9.041  1.1519  0.2976 -0.4413
  846MOL0     O16646   1.825   9.075   9.166  0.0553 -0.3657  0.0468
  846MOL0     C16647   1.742   9.058   9.280 -0.2690 -0.3205  0.1359
  846MOL0     C16648   1.833   9.057   9.409 -0.5092 -0.6369 -0.3468
  846MOL0     C16649   1.880   8.909   9.443 -0.9661  0.4838 -0.2654
  846MOL0     C16650   1.992   8.909   9.553  0.0237  0.1213  0.7807
  846MOL0     C16651   2.020   8.776   9.622  1.1763  0.1825  0.9749
  846MOL0     C16652   2.115   8.801   9.737  0.7172 -0.3664  0.2101
  846MOL0     C16653   2.138   8.678   9.823  0.2870 -0.3736 -0.2060
  846MOL0     C16654   2.251   8.584   9.775 -0.7671 -0.3727  0.7057
  846MOL0    Cl16655   2.257   8.439   9.891  0.1094 -0.3048  0.3656
  846MOL0     C16656   1.639   9.092   9.008  1.4795  0.0182 -0.0669
  846MOL0     C16657   1.594   9.109   8.883 -0.4073 -0.4199  0.1808
  846MOL0     O16658   1.763   9.302   8.569 -0.5901 -0.7755  0.4348
  846MOL0     C16659   1.546   9.086   8.409 -0.5383  0.4668  0.1742
  846MOL0     C16660   1.509   9.031   8.284 -0.4621  0.5840 -0.4086
  846MOL0     N16661   1.482   9.330   7.568 -0.6682 -0.9574 -0.0352
  846MOL0     N16662   1.409   9.436   7.600  0.4335  0.3559 -0.0602
  846MOL0     C16663   1.275  10.281   8.429  0.4669 -0.6775 -0.0642
  846MOL0     C16664   1.352  10.394   8.404  0.3248  0.6337  0.2276
  846MOL0     C16665   1.482  10.779   8.181  0.1185  0.5986  0.4967
  846MOL0     C16666   1.497  10.835   8.306  0.4662 -0.3347  0.1792
  846MOL0     C16667   1.564  10.961   8.332  0.8566 -0.2894  0.4734
  846MOL0     C16668   1.627  11.019   8.229  0.0422  0.8800 -0.5624
  846MOL0     O16669   1.708  11.128   8.252  0.8680  0.9310 -0.3784
  846MOL0     C16670   1.733  11.225   8.149 -0.1625  0.3238  0.1467
  846MOL0     C16671   1.797  11.350   8.204  0.0225  0.3287 -0.4971
  846MOL0     C16672   1.698  11.408   8.316 -0.5035  0.2925 -0.4688
  846MOL0     C16673   1.727  11.547   8.347 -0.3336 -0.8001 -0.3367
  846MOL0     C16674   1.626  11.588   8.451  0.7445 -0.7578 -0.7089
  846MOL0     C16675   1.537  11.619   8.531  0.5684 -0.4005  0.4904
  846MOL0     C16676   1.619  10.960   8.100 -0.7548 -0.4951 -0.0009
  846MOL0     C16677   1.538  10.857   8.074 -0.7367  0.2151  0.4255
  846MOL0     C16678   1.538  10.813   7.928 -0.4301  0.0188  0.2872
  846MOL0     H16679   1.176  10.515   8.141 -2.4407  2.8395  3.0497
  846MOL0     H16680   1.063  10.307   8.168 -1.8559 -2.4521  2.4324
  846MOL0     H16681   0.929  10.171   8.307 -0.0712  1.3108 -2.9795
  846MOL0     H16682   0.950   9.992   8.352  2.0958 -1.5544 -0.9208
  846MOL0     H16683   0.947  10.004   8.103  1.0643 -3.1020 -1.4466
  846MOL0     H16684   1.078  10.120   8.109 -1.3272 -0.5532 -1.1756
  846MOL0     H16685   1.228   9.960   8.177 -1.4903  1.5431 -0.1593
  846MOL0     H16686   1.117   9.851   8.241  1.1760 -0.4432  0.0382
  846MOL0     H16687   1.026   9.806   8.033  0.3061 -0.4497  3.9366
  846MOL0     H16688   1.138   9.918   7.938 -1.3883 -2.8858 -1.6810
  846MOL0     H16689   1.205   9.654   8.089 -1.3123 -1.9495 -1.9096
  846MOL0     H16690   1.315   9.766   7.986 -0.2759  0.5151  0.0914
  846MOL0     H16691   1.054   9.619   7.929 -0.9188 -0.0390 -0.6306
  846MOL0     H16692   1.137   9.722   7.806  2.0019 -1.1532 -0.2960
  846MOL0     H16693   1.276   9.498   7.934 -0.2723  0.1546 -0.0193
  846MOL0     H16694   1.326   9.617   7.805 -0.1176 -2.0219 -0.6195
  846MOL0     H16695   1.107   9.406   7.752  0.7127  0.7849  0.7077
  846MOL0     H16696   1.142   9.533   7.654 -0.0757 -0.3275  1.4943
  846MOL0     H16697   1.210   9.190   7.691  1.8521 -1.2011  2.2120
  846MOL0     H16698   1.485   9.071   7.485 -1.0231  2.2263 -0.4113
  846MOL0     H16699   1.364   9.017   7.605  0.3689 -0.4315  1.7881
  846MOL0     H16700   1.628   8.963   7.628 -0.1449 -1.3384  2.8612
  846MOL0     H16701   1.633   9.120   7.700  0.5870 -0.2188  2.0422
  846MOL0     H16702   1.424   8.984   7.845 -0.7236 -2.5805 -1.9331
  846MOL0     H16703   1.528   8.865   7.808  0.4470 -0.7053 -0.1504
  846MOL0     H16704   1.723   9.012   7.920  0.1929  0.8465  0.2140
  846MOL0     H16705   1.595   9.138   7.938 -0.3836 -0.4967  1.1202
  846MOL0     H16706   1.791   9.129   8.113  1.6395  1.4945  1.5702
  846MOL0     H16707   1.927   9.277   8.268  2.4230 -0.9049  0.3653
  846MOL0     H16708   1.959   9.108   8.283  1.5023  1.8593 -0.9106
  846MOL0     H16709   1.945   9.208   8.430  1.2020 -0.6916  0.0230
  846MOL0     H16710   1.895   9.183   8.739  0.7260 -0.9665 -0.2922
  846MOL0     H16711   1.970   9.148   8.936  0.0624 -0.6234 -2.6950
  846MOL0     H16712   1.673   9.143   9.277  0.1031  0.1165  2.1750
  846MOL0     H16713   1.690   8.962   9.284 -2.1612  0.6191 -0.5598
  846MOL0     H16714   1.932   9.103   9.404 -0.9484  0.2366 -1.4122
  846MOL0     H16715   1.774   9.107   9.485 -4.2137 -0.2231 -3.2343
  846MOL0     H16716   1.922   8.858   9.356  0.2088 -0.0018  0.5587
  846MOL0     H16717   1.793   8.855   9.481 -1.8560  2.7816  1.2259
  846MOL0     H16718   1.977   8.979   9.636  4.1968  0.0001  1.8512
  846MOL0     H16719   2.085   8.945   9.509 -0.2514  0.7641  0.7138
  846MOL0     H16720   1.925   8.729   9.649 -0.5264 -1.2167 -5.6333
  846MOL0     H16721   2.063   8.694   9.563  0.3032 -1.6003  2.7253
  846MOL0     H16722   2.080   8.870   9.814  1.5030 -0.2332  0.4597
  846MOL0     H16723   2.219   8.825   9.712  1.0426 -1.0987  0.8240
  846MOL0     H16724   2.047   8.619   9.826  2.2239 -3.5624  1.5369
  846MOL0     H16725   2.159   8.696   9.929  1.8202 -1.4484 -0.2943
  846MOL0     H16726   2.347   8.636   9.781 -1.1149  0.5611 -1.2252
  846MOL0     H16727   2.248   8.563   9.668 -1.2206  0.0558  0.6301
  846MOL0     H16728   1.563   9.050   9.073  0.6175  2.0696  0.3287
  846MOL0     H16729   1.490   9.080   8.868  0.1854 -3.8237  1.7416
  846MOL0     H16730   1.479   9.062   8.491  0.7078 -0.3375  0.9923
  846MOL0     H16731   1.425   8.963   8.275 -1.6543  2.1060 -1.4599
  846MOL0     H16732   1.303  10.217   8.513  3.2841 -0.2790 -0.5764
  846MOL0     H16733   1.445  10.418   8.453  2.8974 -2.7150 -2.4977
  846MOL0     H16734   1.468  10.786   8.398 -2.6513  1.8919  0.5289
  846MOL0     H16735   1.587  10.996   8.432  3.9089 -2.4831  0.6740
  846MOL0     H16736   1.799  11.183   8.072 -0.4074  1.0490 -0.4750
  846MOL0     H16737   1.645  11.257   8.092  0.4580  1.1166 -0.3851
  846MOL0     H16738   1.803  11.418   8.119  1.7670 -0.0646 -0.7340
  846MOL0     H16739   1.895  11.339   8.252 -0.0625  1.1886 -0.1178
  846MOL0     H16740   1.593  11.396   8.287 -0.3077 -2.2156 -0.3328
  846MOL0     H16741   1.703  11.349   8.408  0.5926 -2.5588 -2.2457
  846MOL0     H16742   1.716  11.607   8.256  2.6763 -2.0457 -1.6868
  846MOL0     H16743   1.828  11.555   8.388 -0.3102 -0.6651 -0.4195
  846MOL0     H16744   1.457  11.645   8.597 -1.2097 -0.5031 -1.5110
  846MOL0     H16745   1.660  11.011   8.013 -2.9651 -0.2690 -0.9803
  846MOL0     H16746   1.435  10.823   7.890  0.3554  0.5118 -1.8297
  846MOL0     H16747   1.608  10.864   7.861  0.6643 -0.2863  1.1760
  846MOL0     H16748   1.561  10.707   7.928 -1.2686 -0.1742 -0.1921
  847MOL0     O16749  10.022   9.243   0.941 -0.4367 -0.3147  0.5033
  847MOL0     C16750  10.134   9.294   0.905  0.1773 -0.2662 -0.1578
  847MOL0     O16751  10.200   9.388   0.962  1.2035 -0.4642 -0.2776
  847MOL0     C16752  10.160   9.421   1.094  0.3824  0.5945 -0.2849
  847MOL0     C16753  10.038   9.491   1.122  0.2177  0.4775  1.0372
  847MOL0     C16754  10.018   9.534   1.252  0.0020  0.5618 -0.1699
  847MOL0     C16755  10.105   9.505   1.357  0.4665 -0.1886  0.8582
  847MOL0     O16756  10.058   9.541   1.485 -0.3866  0.1932 -0.2735
  847MOL0     C16757  10.148   9.550   1.593 -1.2464  0.3721  0.0738
  847MOL0     C16758  10.168   9.414   1.676 -0.0439 -0.3616 -0.1399
  847MOL0     C16759  10.252   9.430   1.809  0.4671  0.1382  0.4264
  847MOL0     C16760  10.390   9.485   1.769 -0.0056  0.0623  0.0910
  847MOL0     C16761  10.468   9.505   1.893  0.5906  0.0069 -0.6610
  847MOL0     C16762  10.616   9.521   1.852 -0.7130 -0.1305 -0.5534
  847MOL0     C16763  10.700   9.569   1.968 -0.0671 -0.2370 -0.1327
  847MOL0     C16764  10.649   9.531   2.106 -0.2057  0.0712 -0.6258
  847MOL0     N16765  10.694   9.633   2.195 -0.8160 -0.8414 -0.4754
  847MOL0     C16766  10.819   9.683   2.211 -0.4464  0.0720  0.5096
  847MOL0     C16767  10.805   9.794   2.293 -0.5490  0.4795 -0.3063
  847MOL0     C16768  10.921   9.874   2.357  0.1451  0.0104  0.0227
  847MOL0     C16769  10.928  10.009   2.283  0.3668  0.2453  0.1215
  847MOL0     C16770  11.056  10.072   2.333 -0.2365  0.2811 -0.1735
  847MOL0     C16771  11.077  10.208   2.275  0.6390 -0.0249  1.3221
  847MOL0     O16772  10.988  10.315   2.326 -0.1699 -0.0895 -0.3560
  847MOL0     C16773  11.025  10.360   2.449  0.6410 -0.1140  0.2791
  847MOL0     C16774  10.910  10.388   2.522  0.1014 -0.4111  0.7606
  847MOL0     C16775  10.919  10.453   2.646 -0.1907  0.0038 -0.1668
  847MOL0     C16776  10.786  10.473   2.729 -0.4306 -0.5445 -0.8574
  847MOL0     C16777  11.048  10.500   2.691 -0.5573  0.2144  0.8203
  847MOL0     C16778  11.073  10.574   2.819 -0.3514  0.1787  0.1740
  847MOL0     O16779  11.194  10.552   2.873 -0.2263  0.7017  0.2529
  847MOL0     C16780  11.238  10.642   2.969 -0.2056  0.0188 -0.0317
  847MOL0     C16781  11.214  10.638   3.111  0.3350  0.6557  1.0828
  847MOL0     C16782  11.270  10.730   3.197 -0.1139  0.7484 -0.4468
  847MOL0     C16783  11.360  10.823   3.151  0.3348 -0.1996 -0.0667
  847MOL0     O16784  11.416  10.919   3.233  0.0740 -0.5255 -0.1169
  847MOL0     C16785  11.394  10.916   3.374 -0.1777 -0.3863  0.5018
  847MOL0     C16786  11.259  10.991   3.399  0.1843  0.2428 -0.3806
  847MOL0     C16787  11.231  11.018   3.545 -0.4158  0.0315  0.0941
  847MOL0     C16788  11.309  11.130   3.598  0.3849 -0.0197  0.1927
  847MOL0     C16789  11.260  11.188   3.723 -0.2391  0.3003  1.0963
  847MOL0     C16790  11.248  11.097   3.842 -0.4046  0.2473  0.3884
  847MOL0     C16791  11.203  11.173   3.963  0.1572 -0.0638  0.8178
  847MOL0     C16792  11.188  11.090   4.091  0.2177 -0.2080  0.2134
  847MOL0    Cl16793  11.081  10.950   4.060 -0.6194  0.0762 -0.4285
  847MOL0     C16794  11.387  10.835   3.011  0.7487  0.8443  0.0128
  847MOL0     C16795  11.321  10.747   2.926  1.0206 -0.2902 -0.9465
  847MOL0     O16796  10.991  10.655   2.866  0.1909 -0.0903 -0.0241
  847MOL0     C16797  11.157  10.468   2.608 -0.2355 -0.8227 -0.0495
  847MOL0     C16798  11.146  10.398   2.489  0.2835 -0.3667  0.3735
  847MOL0     N16799  10.671   9.801   2.317  0.0624  0.3198 -0.5043
  847MOL0     N16800  10.606   9.712   2.257  0.2054  0.6446 -0.5095
  847MOL0     C16801  10.233   9.452   1.321 -0.4786  0.4591  0.1685
  847MOL0     C16802  10.255   9.411   1.190 -0.4230 -1.0570 -0.0360
  847MOL0     C16803  10.205   9.239   0.783 -0.0174  0.0420  0.4512
  847MOL0     C16804  10.285   9.325   0.716 -0.6823  0.2443  0.8332
  847MOL0     C16805  10.347   9.301   0.588 -0.1942 -0.7079 -0.9172
  847MOL0     C16806  10.341   9.183   0.527  0.3174  0.1197 -0.3050
  847MOL0     O16807  10.406   9.145   0.409  0.3126 -0.0313 -0.0705
  847MOL0     C16808  10.518   9.226   0.370  0.5503  0.0944 -0.8324
  847MOL0     C16809  10.597   9.154   0.267  0.4670  0.7485 -0.6481
  847MOL0     C16810  10.741   9.142   0.300 -0.1081  1.0113 -0.7431
  847MOL0     C16811  10.803   9.082   0.172 -0.7876 -0.2639 -0.2116
  847MOL0     C16812  10.955   9.105   0.183  0.5268  0.7306  0.1162
  847MOL0     C16813  11.073   9.123   0.199  0.0563  0.4276  0.1909
  847MOL0     C16814  10.258   9.089   0.592 -0.7593  0.0269  0.4303
  847MOL0     C16815  10.195   9.111   0.719 -0.1340  0.3025 -0.3433
  847MOL0     C16816  10.142   8.990   0.785  0.2467 -0.8389 -0.4716
  847MOL0     H16817   9.967   9.504   1.041  1.0427 -1.6247 -0.1217
  847MOL0     H16818   9.917   9.567   1.273 -1.3431 -2.7993 -0.8202
  847MOL0     H16819  10.109   9.622   1.665  5.1807  1.2249  3.4112
  847MOL0     H16820  10.244   9.589   1.558 -2.4705  1.1558 -2.7060
  847MOL0     H16821  10.066   9.379   1.694  0.1639 -1.7932 -1.5056
  847MOL0     H16822  10.220   9.337   1.618  0.3956 -0.9340  0.9966
  847MOL0     H16823  10.208   9.495   1.886  1.4792 -0.4136  1.4867
  847MOL0     H16824  10.261   9.326   1.839  2.5001  0.5751  1.4567
  847MOL0     H16825  10.437   9.415   1.699 -1.2625 -0.2369 -0.4868
  847MOL0     H16826  10.386   9.582   1.718 -1.3550  0.6235  1.1916
  847MOL0     H16827  10.453   9.422   1.962  1.1110  2.5481  2.7560
  847MOL0     H16828  10.438   9.595   1.948 -0.2569  1.8033 -3.7980
  847MOL0     H16829  10.656   9.421   1.829  2.2616  0.7932  0.1623
  847MOL0     H16830  10.627   9.584   1.764 -0.6909  2.3348  1.1257
  847MOL0     H16831  10.698   9.678   1.953 -3.0374 -0.4993 -2.7114
  847MOL0     H16832  10.801   9.527   1.964 -0.1882 -0.5559  0.2036
  847MOL0     H16833  10.542   9.519   2.125  0.0093 -1.1022 -0.0491
  847MOL0     H16834  10.688   9.435   2.140  0.0162  0.0341 -0.9773
  847MOL0     H16835  10.908   9.635   2.170 -1.1503 -0.8696  0.0434
  847MOL0     H16836  11.018   9.823   2.365  0.2587  0.4668  2.4402
  847MOL0     H16837  10.898   9.907   2.459 -1.0664 -1.2524  0.1916
  847MOL0     H16838  10.921   9.975   2.179 -1.3313  1.4660 -0.2146
  847MOL0     H16839  10.840  10.072   2.295  1.1141  1.5537 -0.9706
  847MOL0     H16840  11.057  10.071   2.442 -3.5123  0.1655 -0.0463
  847MOL0     H16841  11.140  10.009   2.302 -0.5680 -1.1757  1.7576
  847MOL0     H16842  11.179  10.247   2.284  0.8257 -0.0535 -0.4220
  847MOL0     H16843  11.054  10.195   2.169 -1.3168  1.2318  1.5347
  847MOL0     H16844  10.807  10.368   2.495 -0.5826 -0.1243  2.9400
  847MOL0     H16845  10.709  10.398   2.708  0.5804 -2.8979  2.8669
  847MOL0     H16846  10.751  10.576   2.718 -0.4318  0.1019  3.4981
  847MOL0     H16847  10.817  10.473   2.834  0.8469  4.2731 -0.9766
  847MOL0     H16848  11.142  10.576   3.163  0.8181 -0.2360  0.7105
  847MOL0     H16849  11.250  10.732   3.303  1.9491  0.1372 -0.0014
  847MOL0     H16850  11.414  10.820   3.422  3.4635 -0.9751 -1.7360
  847MOL0     H16851  11.483  10.969   3.410  0.2605  0.5111 -1.7398
  847MOL0     H16852  11.263  11.088   3.348  1.0767  0.6939  0.5110
  847MOL0     H16853  11.181  10.926   3.358  1.3084 -0.4900 -1.4251
  847MOL0     H16854  11.241  10.926   3.602 -2.5119  0.5217  1.3509
  847MOL0     H16855  11.124  11.038   3.558 -0.2928 -0.1965  1.5738
  847MOL0     H16856  11.314  11.203   3.516  0.7784 -1.0782 -0.7461
  847MOL0     H16857  11.410  11.090   3.605  0.3941  0.1633  1.3365
  847MOL0     H16858  11.321  11.275   3.746  0.0816  0.1813  0.6975
  847MOL0     H16859  11.160  11.229   3.706 -0.8129 -0.7484  1.8225
  847MOL0     H16860  11.348  11.058   3.863  0.7956  3.0615  0.3720
  847MOL0     H16861  11.184  11.011   3.821  0.6267 -0.1706 -1.1193
  847MOL0     H16862  11.110  11.224   3.938  0.4268 -0.1481 -0.4378
  847MOL0     H16863  11.280  11.248   3.987  0.9919 -1.2171  1.8889
  847MOL0     H16864  11.147  11.163   4.162  0.9350  1.0507 -0.6223
  847MOL0     H16865  11.286  11.061   4.128  0.6949  1.2908  0.1981
  847MOL0     H16866  11.441  10.924   2.980 -0.5951  2.0169  0.9124
  847MOL0     H16867  11.340  10.754   2.819 -1.4730 -2.3483 -1.6282
  847MOL0     H16868  11.247  10.521   2.635  0.3860 -0.6275 -2.2620
  847MOL0     H16869  11.240  10.377   2.440  0.0163  0.6848 -0.6520
  847MOL0     H16870  10.328   9.457   1.372  0.4416  1.2522 -1.5222
  847MOL0     H16871  10.349   9.361   1.169 -0.7146 -2.7747  2.3813
  847MOL0     H16872  10.285   9.426   0.756  1.6726 -0.5797  3.1580
  847MOL0     H16873  10.411   9.381   0.553  2.2947 -0.8093  2.7730
  847MOL0     H16874  10.484   9.324   0.334 -0.4672 -0.5774 -1.7421
  847MOL0     H16875  10.579   9.247   0.459  1.5385  1.7737 -1.8315
  847MOL0     H16876  10.594   9.209   0.172  1.5806 -0.6257 -1.5252
  847MOL0     H16877  10.562   9.051   0.252 -0.8607  0.3177  3.9909
  847MOL0     H16878  10.786   9.241   0.309  0.5290  0.7836 -1.2729
  847MOL0     H16879  10.752   9.083   0.391  0.6708  0.4096 -1.2138
  847MOL0     H16880  10.777   9.144   0.086  1.2093  2.1850  0.8339
  847MOL0     H16881  10.779   8.979   0.142  1.0676 -0.2743 -1.9288
  847MOL0     H16882  11.176   9.147   0.217  1.0128 -1.6804 -1.9817
  847MOL0     H16883  10.245   8.987   0.558 -0.1689  0.5858 -1.5917
  847MOL0     H16884  10.054   8.953   0.731  0.4602 -1.1939 -0.5793
  847MOL0     H16885  10.222   8.916   0.792  0.6863 -0.3758 -0.5348
  847MOL0     H16886  10.115   9.018   0.887 -3.3086 -0.0650 -1.4668
  848MOL0     O16887   8.915  10.317   7.143 -0.3119 -0.1863 -0.3681
  848MOL0     C16888   8.883  10.242   7.233  0.2826 -0.5028  0.1709
  848MOL0     O16889   8.963  10.142   7.289 -0.4282 -0.0090 -0.5103
  848MOL0     C16890   9.098  10.161   7.297 -0.1581  0.7167  0.7017
  848MOL0     C16891   9.166  10.053   7.352 -1.1201  0.1528  0.9150
  848MOL0     C16892   9.306  10.056   7.387 -0.7497  0.8201 -0.3273
  848MOL0     C16893   9.370  10.176   7.355  0.1223  1.2676 -0.6112
  848MOL0     O16894   9.503  10.168   7.362  0.3452  0.0552  0.3074
  848MOL0     C16895   9.585  10.269   7.389 -0.4822  0.8375  0.1083
  848MOL0     C16896   9.700  10.202   7.471  0.1879  0.2217 -0.0012
  848MOL0     C16897   9.655  10.140   7.606  0.5432 -1.1452 -0.2094
  848MOL0     C16898   9.780  10.114   7.696 -0.0560 -0.8046  0.3501
  848MOL0     C16899   9.746  10.048   7.830 -0.1307  0.8010 -0.4745
  848MOL0     C16900   9.715  10.147   7.939  0.4775 -0.1291  0.0012
  848MOL0     C16901   9.642  10.092   8.066 -1.0615 -0.2567  0.2514
  848MOL0     C16902   9.730   9.981   8.140  0.1442  0.1474  0.2261
  848MOL0     N16903   9.690   9.954   8.280  0.0399  0.6629  0.3557
  848MOL0     C16904   9.727  10.020   8.388 -0.2975  0.0453 -0.0228
  848MOL0     C16905   9.654   9.977   8.491 -0.2988 -0.7046  0.2874
  848MOL0     C16906   9.637  10.020   8.627 -0.6436  0.0974 -0.6132
  848MOL0     C16907   9.518  10.117   8.639 -0.8590  0.0390  1.0626
  848MOL0     C16908   9.569  10.260   8.610 -0.0286  0.2643  0.5908
  848MOL0     C16909   9.457  10.357   8.598  0.3032  0.4503 -0.3859
  848MOL0     O16910   9.478  10.501   8.585 -0.0705 -0.8020 -0.0711
  848MOL0     C16911   9.525  10.549   8.466  0.3859  0.1741 -0.3602
  848MOL0     C16912   9.498  10.478   8.346 -0.4629 -0.3589 -0.6715
  848MOL0     C16913   9.560  10.514   8.224 -0.1575  0.7837  0.3135
  848MOL0     C16914   9.515  10.434   8.099  1.0332 -0.6673 -0.3151
  848MOL0     C16915   9.650  10.631   8.222 -0.6779  0.1796 -0.1214
  848MOL0     C16916   9.720  10.670   8.098 -0.9394  0.0831 -0.1782
  848MOL0     O16917   9.758  10.802   8.088 -0.3946 -0.5510 -0.5135
  848MOL0     C16918   9.796  10.860   7.963  0.3029 -0.6832  0.2402
  848MOL0     C16919   9.860  10.994   7.968  0.7987  0.9584  0.7725
  848MOL0     C16920   9.910  11.060   7.854 -0.1385 -0.4983  0.2777
  848MOL0     C16921   9.880  11.006   7.733  0.6240 -0.1994  0.8317
  848MOL0     O16922   9.942  11.068   7.635  0.0715 -0.5166 -0.8923
  848MOL0     C16923   9.892  11.066   7.500  0.3495 -1.3750  0.4439
  848MOL0     C16924   9.761  11.153   7.512  0.1666 -0.5613  0.3770
  848MOL0     C16925   9.733  11.212   7.369 -1.1204  0.0288  0.5235
  848MOL0     C16926   9.711  11.099   7.263  0.1562  0.0025  0.4484
  848MOL0     C16927   9.671  11.155   7.132  0.8371 -0.5031  0.9422
  848MOL0     C16928   9.591  11.051   7.047 -0.0162 -0.1446 -0.1628
  848MOL0     C16929   9.501  11.103   6.942  0.1672  0.2840 -0.1503
  848MOL0     C16930   9.355  11.116   6.980  0.3099 -0.1073  0.5296
  848MOL0    Cl16931   9.282  10.957   7.015  0.0201 -0.9649  0.3581
  848MOL0     C16932   9.798  10.885   7.725  0.0908 -0.0062  0.1797
  848MOL0     C16933   9.760  10.814   7.840 -0.3558  0.5785 -0.0767
  848MOL0     O16934   9.741  10.588   8.008 -0.7391  0.4629 -0.4173
  848MOL0     C16935   9.674  10.693   8.346  0.0060 -0.4557 -0.3768
  848MOL0     C16936   9.619  10.653   8.467 -0.7162  0.5522 -0.5348
  848MOL0     N16937   9.574   9.871   8.440  0.6119 -0.7739  0.4863
  848MOL0     N16938   9.604   9.854   8.314  0.2082  0.3780  0.0887
  848MOL0     C16939   9.298  10.281   7.300  0.7405  0.4762  1.0916
  848MOL0     C16940   9.163  10.275   7.270  0.4934  0.7739  0.4529
  848MOL0     C16941   8.752  10.246   7.299  0.1267  0.6210 -0.3948
  848MOL0     C16942   8.690  10.130   7.354 -0.2875 -0.6377  0.2674
  848MOL0     C16943   8.565  10.129   7.415  1.1277  0.0626 -0.6614
  848MOL0     C16944   8.479  10.246   7.408  1.0039  0.6286 -0.0388
  848MOL0     O16945   8.345  10.251   7.435 -0.0774  0.0100  0.0750
  848MOL0     C16946   8.282  10.132   7.485 -0.0543 -0.1924  0.7912
  848MOL0     C16947   8.142  10.166   7.534  0.1352  0.1052  0.6199
  848MOL0     C16948   8.061  10.046   7.596  0.1494 -0.0335  0.2023
  848MOL0     C16949   8.120  10.000   7.733 -0.3763  0.7141 -0.6220
  848MOL0     C16950   8.129  10.108   7.832 -0.2970 -0.4177 -0.6466
  848MOL0     C16951   8.136  10.213   7.893  0.0394 -0.2096 -0.1272
  848MOL0     C16952   8.536  10.362   7.357  0.3931  1.6124 -0.7822
  848MOL0     C16953   8.665  10.362   7.299 -0.6731  0.5792  0.9393
  848MOL0     C16954   8.713  10.498   7.249 -0.3908 -0.6051 -0.6354
  848MOL0     H16955   9.117   9.960   7.381  0.2085 -0.4471  1.3208
  848MOL0     H16956   9.361   9.968   7.419  2.0283  3.2736  2.3308
  848MOL0     H16957   9.545  10.349   7.451 -1.8243 -0.1216  0.5339
  848MOL0     H16958   9.630  10.302   7.295  3.4594 -0.8740  1.1918
  848MOL0     H16959   9.744  10.130   7.400  2.6932 -1.3523  2.9287
  848MOL0     H16960   9.790  10.262   7.490 -0.4206  1.9556 -2.0987
  848MOL0     H16961   9.581  10.200   7.660  0.6434 -0.0907 -1.2262
  848MOL0     H16962   9.610  10.044   7.580 -1.2471  0.2148 -2.6097
  848MOL0     H16963   9.859  10.056   7.648 -1.2678 -0.6178 -1.9983
  848MOL0     H16964   9.810  10.214   7.729 -1.3091 -0.3393  0.1565
  848MOL0     H16965   9.826   9.983   7.865 -1.6332 -0.1656  1.3574
  848MOL0     H16966   9.652   9.992   7.817  0.3147  0.1564 -0.9578
  848MOL0     H16967   9.806  10.192   7.980  1.3135 -0.8256 -1.0348
  848MOL0     H16968   9.647  10.225   7.904 -1.6364 -1.5702  0.7466
  848MOL0     H16969   9.548  10.046   8.036  0.7201 -3.5960 -0.7507
  848MOL0     H16970   9.633  10.179   8.132 -2.2407  0.0956 -0.3486
  848MOL0     H16971   9.714   9.888   8.084  0.2930 -0.6542  1.4909
  848MOL0     H16972   9.838   9.996   8.134  0.3143 -1.4084 -2.0257
  848MOL0     H16973   9.805  10.096   8.390 -1.1826  0.9592  1.2252
  848MOL0     H16974   9.734  10.062   8.654  1.0556 -4.5600  1.6796
  848MOL0     H16975   9.608   9.935   8.690 -1.6252 -1.5318 -3.0932
  848MOL0     H16976   9.437  10.082   8.575  0.6162 -1.1927 -0.2119
  848MOL0     H16977   9.497  10.121   8.747  1.4296  0.4974  1.5407
  848MOL0     H16978   9.642  10.292   8.684  1.5880  4.3281 -2.4021
  848MOL0     H16979   9.615  10.246   8.512  1.3924  0.7966  1.1582
  848MOL0     H16980   9.385  10.317   8.526  0.7823 -1.7588  0.2813
  848MOL0     H16981   9.409  10.350   8.697 -1.1736 -0.8593 -1.1362
  848MOL0     H16982   9.425  10.398   8.352 -3.7938  2.5513  3.5927
  848MOL0     H16983   9.494  10.511   8.024  2.6167 -1.2903 -1.4570
  848MOL0     H16984   9.433  10.365   8.118  1.4456 -0.4271  2.7804
  848MOL0     H16985   9.595  10.375   8.053  0.3420 -1.3960 -0.5853
  848MOL0     H16986   9.868  11.049   8.061  0.4705 -2.0093  2.6681
  848MOL0     H16987   9.979  11.144   7.846 -0.1605 -0.5551 -0.6116
  848MOL0     H16988   9.969  11.108   7.434 -1.4047  2.1047  0.4253
  848MOL0     H16989   9.882  10.966   7.455  2.6765 -1.9566  1.0679
  848MOL0     H16990   9.684  11.082   7.542  0.1876 -1.5183 -1.6605
  848MOL0     H16991   9.767  11.226   7.593 -0.6567  0.9828 -0.9001
  848MOL0     H16992   9.827  11.259   7.338  1.3978 -1.2956  5.2781
  848MOL0     H16993   9.648  11.280   7.372 -0.4928  0.8600 -0.1346
  848MOL0     H16994   9.629  11.032   7.290 -1.5439  0.5097 -2.9079
  848MOL0     H16995   9.799  11.038   7.242 -0.2348  0.3543 -2.7449
  848MOL0     H16996   9.609  11.246   7.132  0.6855 -0.5545 -1.3747
  848MOL0     H16997   9.763  11.177   7.077  0.6612  0.6074  1.0577
  848MOL0     H16998   9.534  10.980   7.108 -0.8790 -2.2572 -3.1908
  848MOL0     H16999   9.664  10.986   6.998  2.3460  2.6800 -0.6300
  848MOL0     H17000   9.503  11.039   6.853 -2.5391 -1.8519  1.1518
  848MOL0     H17001   9.535  11.201   6.910 -1.8572  1.2335  0.3986
  848MOL0     H17002   9.304  11.158   6.893 -0.7101  0.0070  1.1651
  848MOL0     H17003   9.341  11.181   7.067  1.3341  0.2831  0.4223
  848MOL0     H17004   9.781  10.826   7.635 -0.2594  0.0378  0.2136
  848MOL0     H17005   9.699  10.724   7.833  2.3413 -1.5065  0.9503
  848MOL0     H17006   9.748  10.772   8.357 -0.6015 -0.0881  1.4146
  848MOL0     H17007   9.641  10.705   8.559  0.2658  0.0923 -0.4979
  848MOL0     H17008   9.343  10.372   7.262  0.5952 -0.3708 -1.3259
  848MOL0     H17009   9.109  10.365   7.242 -0.6112 -0.5302 -1.8659
  848MOL0     H17010   8.735  10.034   7.332  1.0437  0.1186 -0.4251
  848MOL0     H17011   8.520  10.046   7.468  1.4976  0.2723 -0.0064
  848MOL0     H17012   8.266  10.057   7.406 -5.5845  0.1144  1.2606
  848MOL0     H17013   8.334  10.084   7.568 -1.7660 -0.8807  1.5140
  848MOL0     H17014   8.091  10.214   7.450 -0.4221  1.9362  1.9510
  848MOL0     H17015   8.155  10.251   7.601 -0.9573 -0.2559  1.3056
  848MOL0     H17016   7.965  10.091   7.621 -1.1700 -0.7287 -3.1596
  848MOL0     H17017   8.055   9.962   7.527 -0.0069 -2.2096  2.7103
  848MOL0     H17018   8.224   9.969   7.720 -1.0287 -1.1830 -1.6414
  848MOL0     H17019   8.052   9.935   7.789 -0.8612  3.3282  2.0918
  848MOL0     H17020   8.124  10.295   7.961 -1.9057 -0.7138  0.2003
  848MOL0     H17021   8.466  10.445   7.352  1.6615  2.6952 -1.1810
  848MOL0     H17022   8.814  10.511   7.290 -0.0275  0.5760 -1.8157
  848MOL0     H17023   8.717  10.515   7.141  1.0622 -0.7419 -0.6320
  848MOL0     H17024   8.645  10.564   7.304 -2.7371 -2.9971 -0.4939
  849MOL0     O17025   5.942   0.439   8.650  0.2438 -0.0347 -0.0737
  849MOL0     C17026   6.015   0.381   8.575 -0.5673  0.2924  0.5974
  849MOL0     O17027   6.092   0.265   8.610  0.3773  1.1281 -0.4891
  849MOL0     C17028   6.136   0.245   8.741 -0.7759 -0.1406 -0.2056
  849MOL0     C17029   6.125   0.334   8.841  0.3295 -0.9109 -0.4981
  849MOL0     C17030   6.182   0.322   8.966 -0.6843 -0.0277 -0.0717
  849MOL0     C17031   6.247   0.198   9.003 -0.8682 -0.6638 -0.9859
  849MOL0     O17032   6.322   0.193   9.123  0.7657  1.0008  0.1954
  849MOL0     C17033   6.303   0.065   9.194  0.2791 -0.3727 -0.9272
  849MOL0     C17034   6.284   0.116   9.337  0.5429  0.2856  0.0725
  849MOL0     C17035   6.290   0.003   9.440  0.1040 -0.4267  0.4794
  849MOL0     C17036   6.421  -0.075   9.453 -0.5460  1.0668 -0.9919
  849MOL0     C17037   6.534   0.020   9.492 -0.7103 -0.7901  0.0501
  849MOL0     C17038   6.664  -0.042   9.533 -0.0160 -0.0504 -0.5013
  849MOL0     C17039   6.664  -0.153   9.632  0.0454 -0.3264  0.3113
  849MOL0     C17040   6.613  -0.106   9.779 -0.6798 -0.2415  0.3832
  849MOL0     N17041   6.687   0.013   9.838  0.2887 -0.3629 -0.1399
  849MOL0     C17042   6.628   0.128   9.885 -0.5001 -0.0933 -0.5711
  849MOL0     C17043   6.733   0.213   9.914  0.0341 -0.9602  0.7767
  849MOL0     C17044   6.722   0.360   9.944  0.8071  0.5282 -0.3756
  849MOL0     C17045   6.665   0.451   9.827 -0.1225 -0.6708 -0.4337
  849MOL0     C17046   6.635   0.595   9.877 -0.9917  0.4189  0.0502
  849MOL0     C17047   6.611   0.687   9.767  0.7919  0.7940  0.0452
  849MOL0     O17048   6.507   0.628   9.683 -0.0182 -0.7182 -0.5589
  849MOL0     C17049   6.515   0.672   9.557 -0.2175 -1.0314 -0.2228
  849MOL0     C17050   6.478   0.576   9.464 -1.9388  0.6343  0.0785
  849MOL0     C17051   6.469   0.613   9.329  0.4199  0.4708  0.3349
  849MOL0     C17052   6.422   0.494   9.233  0.7946 -0.0465 -1.0671
  849MOL0     C17053   6.505   0.742   9.289  0.0512 -0.2334 -0.5796
  849MOL0     C17054   6.497   0.786   9.149  0.7228 -0.0150 -0.2642
  849MOL0     O17055   6.594   0.885   9.100 -0.9352 -0.7404 -0.5957
  849MOL0     C17056   6.566   0.958   8.986 -0.1412 -0.3405  0.8267
  849MOL0     C17057   6.676   0.991   8.904  0.5663 -0.2007 -0.2466
  849MOL0     C17058   6.642   1.060   8.786  0.9131  0.1999 -0.3250
  849MOL0     C17059   6.510   1.088   8.746 -0.1635 -0.1843  0.4931
  849MOL0     O17060   6.494   1.138   8.616 -0.2668  1.0010  0.3459
  849MOL0     C17061   6.361   1.173   8.571  0.2551 -0.2856  0.2442
  849MOL0     C17062   6.343   1.204   8.424 -0.3890 -0.0631  0.8250
  849MOL0     C17063   6.416   1.115   8.328 -0.2259  0.4614 -0.2217
  849MOL0     C17064   6.389   1.154   8.179 -0.2479 -0.1251  0.3962
  849MOL0     C17065   6.503   1.130   8.083  0.0498  0.0035  0.3150
  849MOL0     C17066   6.481   1.214   7.955 -0.2481 -0.6042 -0.0318
  849MOL0     C17067   6.569   1.163   7.836 -0.6110 -0.1820 -0.2441
  849MOL0     C17068   6.537   1.219   7.693 -0.0154 -0.1373 -1.1001
  849MOL0    Cl17069   6.374   1.143   7.666  0.4549 -0.2402 -0.1029
  849MOL0     C17070   6.404   1.046   8.831  0.4905 -0.3302  0.3091
  849MOL0     C17071   6.434   0.983   8.950 -0.0232 -0.1619  0.9096
  849MOL0     O17072   6.399   0.739   9.082  0.4056 -0.6167 -0.8339
  849MOL0     C17073   6.560   0.825   9.387  0.4865 -0.4328  0.0983
  849MOL0     C17074   6.552   0.801   9.517 -0.3560  0.0040 -0.8271
  849MOL0     N17075   6.853   0.146   9.879  0.7717 -0.2276  0.1677
  849MOL0     N17076   6.828   0.030   9.839 -0.5055  0.0661 -0.3940
  849MOL0     C17077   6.249   0.094   8.906 -0.3970 -0.3725 -0.1529
  849MOL0     C17078   6.192   0.117   8.784 -0.1446  0.4475 -0.1368
  849MOL0     C17079   6.017   0.404   8.422 -0.2078 -0.3723  0.3168
  849MOL0     C17080   6.138   0.363   8.356 -0.0696 -0.7785 -0.2082
  849MOL0     C17081   6.160   0.388   8.216 -0.6421  1.0234  0.0608
  849MOL0     C17082   6.070   0.462   8.145 -0.1736  0.5976  0.7168
  849MOL0     O17083   6.053   0.472   8.009  0.0117  0.1028  0.1708
  849MOL0     C17084   6.162   0.444   7.931  0.0795 -0.5311 -0.1377
  849MOL0     C17085   6.135   0.491   7.781  0.7126  0.0128  0.0611
  849MOL0     C17086   6.250   0.483   7.676 -0.3597 -0.6820 -0.6865
  849MOL0     C17087   6.216   0.561   7.544  0.4127 -0.2059  0.2440
  849MOL0     C17088   6.130   0.473   7.463  0.4650 -0.0259 -0.0170
  849MOL0     C17089   6.038   0.405   7.410 -1.2177  0.5931 -1.0265
  849MOL0     C17090   5.954   0.518   8.204  0.3545  0.7860 -0.1304
  849MOL0     C17091   5.932   0.478   8.342  0.3597 -1.7399  0.4441
  849MOL0     C17092   5.813   0.551   8.411  0.3876  0.2800 -1.0134
  849MOL0     H17093   6.076   0.428   8.821  0.6990 -0.7653 -0.7273
  849MOL0     H17094   6.174   0.405   9.036 -1.6495  0.2335 -0.4822
  849MOL0     H17095   6.385  -0.004   9.171  0.1937 -0.4290 -1.0662
  849MOL0     H17096   6.210   0.014   9.166 -0.5962  0.3376  0.5448
  849MOL0     H17097   6.359   0.191   9.364  0.2991  1.7321 -2.9212
  849MOL0     H17098   6.184   0.159   9.343  1.3277  2.1939  0.1954
  849MOL0     H17099   6.246   0.043   9.531 -0.2310 -1.1295  0.6373
  849MOL0     H17100   6.215  -0.075   9.422  0.0393 -1.0620  3.0925
  849MOL0     H17101   6.405  -0.147   9.534  0.9100 -0.7659 -2.2423
  849MOL0     H17102   6.433  -0.144   9.369 -1.2069 -0.2772 -0.0230
  849MOL0     H17103   6.478   0.078   9.566 -3.7594 -0.3565 -2.3487
  849MOL0     H17104   6.558   0.078   9.402  2.6176 -2.0399  0.0254
  849MOL0     H17105   6.707  -0.084   9.442  1.2107 -0.4433  0.2442
  849MOL0     H17106   6.739   0.026   9.575  3.0252 -5.0843  3.3421
  849MOL0     H17107   6.770  -0.176   9.645  0.5237 -0.0792 -2.5706
  849MOL0     H17108   6.612  -0.241   9.592 -2.0568  1.4317 -1.1116
  849MOL0     H17109   6.509  -0.074   9.786 -0.1189  1.2088  4.2489
  849MOL0     H17110   6.608  -0.196   9.840  0.4800 -0.8338 -0.3553
  849MOL0     H17111   6.521   0.140   9.894 -0.6956 -0.0723 -2.6034
  849MOL0     H17112   6.819   0.398   9.975  0.8115  1.2598 -1.2316
  849MOL0     H17113   6.656   0.354  10.031 -0.0117 -2.3840 -1.0828
  849MOL0     H17114   6.740   0.461   9.748  0.0586 -0.0623 -0.1883
  849MOL0     H17115   6.585   0.392   9.779 -0.8973 -3.4420  3.6880
  849MOL0     H17116   6.542   0.581   9.934 -1.1449  0.8138 -0.0991
  849MOL0     H17117   6.727   0.622   9.929  0.9680 -1.7880 -2.0051
  849MOL0     H17118   6.573   0.783   9.804 -2.0490 -0.3711  0.3309
  849MOL0     H17119   6.701   0.692   9.704  2.1011  1.4423  1.8802
  849MOL0     H17120   6.466   0.472   9.492  0.9826 -1.3065 -4.6740
  849MOL0     H17121   6.395   0.409   9.296  0.7327  1.6244  1.2935
  849MOL0     H17122   6.495   0.456   9.161 -0.4294 -3.7470 -0.5735
  849MOL0     H17123   6.332   0.520   9.176  0.0002 -0.6407 -0.1262
  849MOL0     H17124   6.782   0.980   8.927  1.2313 -0.7441 -3.1282
  849MOL0     H17125   6.720   1.117   8.737  2.9168 -1.3503  0.9010
  849MOL0     H17126   6.291   1.090   8.587  3.9986 -3.8023  0.1217
  849MOL0     H17127   6.325   1.257   8.631  1.9937  0.4908  0.2355
  849MOL0     H17128   6.238   1.210   8.393 -0.4408  0.0834  1.0236
  849MOL0     H17129   6.374   1.308   8.409  0.4580 -0.6316 -1.8758
  849MOL0     H17130   6.371   1.017   8.343 -0.8819  0.7087 -0.5403
  849MOL0     H17131   6.524   1.122   8.344 -0.1314  0.9238 -1.0156
  849MOL0     H17132   6.347   1.255   8.175 -2.6089 -0.5565  5.6050
  849MOL0     H17133   6.309   1.089   8.143 -0.8050 -0.4065  2.0491
  849MOL0     H17134   6.595   1.170   8.127  0.7239  0.0685 -1.1016
  849MOL0     H17135   6.510   1.021   8.072  2.6753  0.0701  0.5007
  849MOL0     H17136   6.504   1.319   7.972  0.1979 -0.4311 -1.6349
  849MOL0     H17137   6.374   1.211   7.932 -0.1335  1.1453 -0.9129
  849MOL0     H17138   6.569   1.054   7.826  5.9517 -0.6499  0.2361
  849MOL0     H17139   6.677   1.179   7.848 -0.5751  1.0654 -1.8986
  849MOL0     H17140   6.590   1.171   7.611 -1.0670 -1.3412 -1.1006
  849MOL0     H17141   6.526   1.328   7.690 -0.6983 -0.2015 -1.1541
  849MOL0     H17142   6.299   1.068   8.815 -0.1919 -2.6370  1.2115
  849MOL0     H17143   6.347   0.965   9.012  1.1520 -1.4235  2.2550
  849MOL0     H17144   6.592   0.922   9.351 -0.7099  0.3469  1.0558
  849MOL0     H17145   6.569   0.877   9.594  0.4947 -1.4032  0.4276
  849MOL0     H17146   6.289  -0.003   8.934 -1.8650 -0.6851  1.0014
  849MOL0     H17147   6.196   0.036   8.713  0.5550  1.1393 -0.9142
  849MOL0     H17148   6.220   0.310   8.403  1.1342  0.4655 -0.8413
  849MOL0     H17149   6.252   0.349   8.174 -0.9208 -0.2417  0.6025
  849MOL0     H17150   6.250   0.504   7.960 -0.1518 -0.4002  0.3054
  849MOL0     H17151   6.173   0.336   7.935 -2.9956 -0.9607 -1.1464
  849MOL0     H17152   6.112   0.597   7.794 -2.8819 -0.8774  2.6188
  849MOL0     H17153   6.045   0.443   7.743  0.7462  0.0986 -0.1314
  849MOL0     H17154   6.325   0.543   7.728 -0.0236  1.3946 -3.3585
  849MOL0     H17155   6.294   0.386   7.651  2.8687  1.0988 -2.5461
  849MOL0     H17156   6.307   0.590   7.490  0.8087 -2.3744 -0.3522
  849MOL0     H17157   6.167   0.658   7.562  2.7805  1.7177 -2.7667
  849MOL0     H17158   5.953   0.358   7.365 -0.6631  1.0823 -2.6601
  849MOL0     H17159   5.889   0.572   8.135  1.0981  2.9417  0.7674
  849MOL0     H17160   5.833   0.588   8.512 -0.3639 -2.8756  0.4187
  849MOL0     H17161   5.777   0.638   8.356  0.8532  0.7813 -0.5334
  849MOL0     H17162   5.729   0.482   8.419 -1.3178  2.3373 -0.2439
  850MOL0     O17163   1.383   0.599   2.526 -0.0957 -0.6954  0.0232
  850MOL0     C17164   1.458   0.620   2.430 -0.4027 -0.6526  0.2687
  850MOL0     O17165   1.531   0.523   2.372  0.4212 -0.1006  0.4696
  850MOL0     C17166   1.541   0.389   2.406  0.7228  1.0135 -0.0094
  850MOL0     C17167   1.453   0.317   2.486  0.0747  0.5379 -0.8267
  850MOL0     C17168   1.488   0.184   2.527 -0.3204 -0.0477 -0.2875
  850MOL0     C17169   1.613   0.131   2.495  0.7106  0.5166  0.0436
  850MOL0     O17170   1.629   0.002   2.534 -0.3064 -0.1371  0.3137
  850MOL0     C17171   1.754  -0.050   2.517 -0.1793 -0.3320 -0.2290
  850MOL0     C17172   1.750  -0.194   2.566 -0.6103  0.2598 -0.3973
  850MOL0     C17173   1.759  -0.207   2.715  0.3806 -0.7370  0.2139
  850MOL0     C17174   1.824  -0.345   2.757  0.7069 -1.6928 -0.6298
  850MOL0     C17175   1.872  -0.339   2.912  0.4717  0.1909  0.6184
  850MOL0     C17176   1.924  -0.483   2.942 -0.7229  0.1736  0.2445
  850MOL0     C17177   1.816  -0.581   2.987 -0.8527  0.6554  0.1485
  850MOL0     C17178   1.715  -0.542   3.092  0.7241  0.0144  0.4688
  850MOL0     N17179   1.770  -0.494   3.219 -0.1932  0.0948 -0.9531
  850MOL0     C17180   1.702  -0.416   3.311 -0.6991 -1.1259 -0.3717
  850MOL0     C17181   1.758  -0.450   3.425 -0.5104 -0.6104 -1.8352
  850MOL0     C17182   1.712  -0.423   3.571 -1.5335  0.5549 -0.3467
  850MOL0     C17183   1.828  -0.387   3.657 -0.0536  0.6555 -0.3283
  850MOL0     C17184   1.911  -0.248   3.640  1.1325 -0.4509 -0.4404
  850MOL0     C17185   2.047  -0.281   3.589  0.5941  0.2149 -0.5181
  850MOL0     O17186   2.126  -0.154   3.581  0.2918 -0.7882 -0.0576
  850MOL0     C17187   2.098  -0.080   3.474  0.6903 -0.1726  0.1444
  850MOL0     C17188   2.038  -0.123   3.358 -0.1982 -0.0577  0.1743
  850MOL0     C17189   2.015  -0.025   3.260  0.2846 -0.0717 -0.4958
  850MOL0     C17190   1.951  -0.074   3.137  0.9872 -0.0200  0.1648
  850MOL0     C17191   2.047   0.113   3.283 -1.1470 -0.4804  0.3489
  850MOL0     C17192   2.031   0.223   3.183 -1.1133  0.5136  0.8970
  850MOL0     O17193   2.060   0.353   3.225 -0.0785 -0.3663  1.4327
  850MOL0     C17194   2.036   0.458   3.137 -0.6438 -0.6020  0.7572
  850MOL0     C17195   2.107   0.457   3.019 -0.2228 -0.1560  0.0564
  850MOL0     C17196   2.114   0.576   2.942 -0.6868 -0.8741  0.1622
  850MOL0     C17197   2.045   0.690   2.983  0.5482 -0.3941  0.0653
  850MOL0     O17198   2.039   0.813   2.927  0.5900  0.1035  0.2484
  850MOL0     C17199   2.135   0.855   2.832  1.0618 -0.5319  0.2726
  850MOL0     C17200   2.279   0.857   2.880 -1.2224 -0.5752  0.0554
  850MOL0     C17201   2.311   0.998   2.941 -0.4311  0.3082 -0.3472
  850MOL0     C17202   2.340   1.113   2.843  0.4898 -0.2907 -0.0289
  850MOL0     C17203   2.482   1.171   2.862  0.1776 -0.0706  1.2364
  850MOL0     C17204   2.510   1.272   2.740 -0.7409  0.1389 -0.2251
  850MOL0     C17205   2.595   1.390   2.782  0.2231 -0.5026  0.4903
  850MOL0     C17206   2.728   1.338   2.843  0.0510 -0.4520 -0.0615
  850MOL0    Cl17207   2.788   1.187   2.759 -0.4332  0.0746 -0.2107
  850MOL0     C17208   1.967   0.687   3.097 -0.2342 -0.5317 -0.5103
  850MOL0     C17209   1.961   0.574   3.174  0.1801  0.2685 -0.2122
  850MOL0     O17210   1.999   0.194   3.067  0.3688 -1.0256 -0.0134
  850MOL0     C17211   2.106   0.148   3.403  0.1060  0.1022 -0.2162
  850MOL0     C17212   2.127   0.052   3.501  0.2176  0.2229  0.2826
  850MOL0     N17213   1.857  -0.535   3.399 -0.5930  0.9491 -0.2864
  850MOL0     N17214   1.872  -0.559   3.275  0.0964 -0.3053  0.2118
  850MOL0     C17215   1.701   0.204   2.413  0.0970  0.3855  0.4517
  850MOL0     C17216   1.667   0.336   2.377  0.0534 -0.9848  0.0805
  850MOL0     C17217   1.493   0.751   2.378 -0.1381 -0.0142  0.2849
  850MOL0     C17218   1.624   0.774   2.314 -0.7816 -0.6998  0.1686
  850MOL0     C17219   1.668   0.906   2.280  0.4789  0.3256  0.3777
  850MOL0     C17220   1.576   1.012   2.290  0.0773  0.2027 -0.3311
  850MOL0     O17221   1.621   1.143   2.275 -0.0653  0.0557 -0.4116
  850MOL0     C17222   1.547   1.258   2.323  0.6630  0.3974 -0.3516
  850MOL0     C17223   1.634   1.384   2.329 -0.3292  0.4966 -0.1863
  850MOL0     C17224   1.621   1.473   2.200 -0.4452  0.1246  0.1562
  850MOL0     C17225   1.738   1.569   2.192 -0.1039 -1.1657  0.3230
  850MOL0     C17226   1.723   1.650   2.066 -0.5848 -0.5489 -0.0023
  850MOL0     C17227   1.700   1.715   1.964 -0.5370 -0.4049 -0.9466
  850MOL0     C17228   1.446   0.982   2.340 -0.5216 -1.1677 -0.1954
  850MOL0     C17229   1.402   0.858   2.381  0.6870  0.2405  0.1172
  850MOL0     C17230   1.260   0.832   2.430  0.4446 -0.3514 -0.5231
  850MOL0     H17231   1.357   0.350   2.523  0.8145  1.3911  0.3872
  850MOL0     H17232   1.418   0.128   2.588 -1.1816 -1.3630 -2.3811
  850MOL0     H17233   1.814   0.005   2.591  0.2519  1.2385 -1.6838
  850MOL0     H17234   1.805  -0.033   2.422  1.0990 -0.5550  0.3793
  850MOL0     H17235   1.672  -0.258   2.523 -0.7522 -2.7473  3.6467
  850MOL0     H17236   1.838  -0.240   2.520 -0.7092 -0.8727  0.5030
  850MOL0     H17237   1.824  -0.130   2.758 -0.9628  0.4524  0.1875
  850MOL0     H17238   1.660  -0.191   2.760 -0.2142  2.5105 -1.8614
  850MOL0     H17239   1.751  -0.424   2.738 -2.6799  1.2696 -0.8960
  850MOL0     H17240   1.919  -0.350   2.702  2.0122  0.2232  1.2734
  850MOL0     H17241   1.797  -0.300   2.982 -2.2624  2.1176 -3.0289
  850MOL0     H17242   1.944  -0.258   2.924 -2.0992  2.5188  1.6286
  850MOL0     H17243   1.977  -0.528   2.857 -0.2358  1.9173 -0.4232
  850MOL0     H17244   2.005  -0.484   3.015 -1.0084 -1.3703  0.5642
  850MOL0     H17245   1.868  -0.669   3.026 -0.9997  1.2631  1.7731
  850MOL0     H17246   1.760  -0.614   2.898  0.4885  4.8219 -2.5425
  850MOL0     H17247   1.654  -0.456   3.064 -1.5748 -1.6055  0.1995
  850MOL0     H17248   1.649  -0.626   3.115  2.6921 -1.6811  0.3036
  850MOL0     H17249   1.621  -0.345   3.296 -2.3619 -3.1235 -1.3714
  850MOL0     H17250   1.656  -0.507   3.614 -0.5440  0.0990  0.0781
  850MOL0     H17251   1.637  -0.344   3.564 -2.9234 -0.4583  2.0298
  850MOL0     H17252   1.798  -0.401   3.761 -1.1027 -1.7345 -0.8718
  850MOL0     H17253   1.907  -0.462   3.644 -0.7341 -0.2965  0.8135
  850MOL0     H17254   1.851  -0.188   3.571 -1.6368 -2.0406  0.3966
  850MOL0     H17255   1.925  -0.190   3.732  1.4020  2.8715 -2.4206
  850MOL0     H17256   2.107  -0.336   3.662  0.4233 -0.3018 -0.7621
  850MOL0     H17257   2.038  -0.332   3.493  0.2568  1.4906 -1.1965
  850MOL0     H17258   1.993  -0.220   3.340 -1.6065  0.5962  0.0538
  850MOL0     H17259   2.015  -0.046   3.052 -0.0712  0.9287 -0.3380
  850MOL0     H17260   1.847  -0.046   3.124  0.7430 -0.0751  1.8044
  850MOL0     H17261   1.961  -0.183   3.137 -1.5758 -0.3298 -1.2127
  850MOL0     H17262   2.162   0.371   2.983  1.0745  0.8569 -0.4791
  850MOL0     H17263   2.175   0.578   2.852 -1.0887 -2.9298 -0.2300
  850MOL0     H17264   2.142   0.787   2.746 -0.5440 -0.1776 -0.1898
  850MOL0     H17265   2.103   0.956   2.804 -0.8486  0.7305  5.8001
  850MOL0     H17266   2.287   0.785   2.962 -1.3348 -0.0751  0.5120
  850MOL0     H17267   2.348   0.834   2.799 -0.6474 -0.5572  0.5292
  850MOL0     H17268   2.398   0.986   3.007 -0.4713 -1.6137 -0.5966
  850MOL0     H17269   2.233   1.034   3.010 -3.3132  0.0462 -3.2246
  850MOL0     H17270   2.278   1.200   2.866  2.0160  1.1300 -1.0204
  850MOL0     H17271   2.318   1.084   2.740 -1.7257 -0.4506  0.4557
  850MOL0     H17272   2.487   1.225   2.957  0.3141  0.1592  1.0982
  850MOL0     H17273   2.551   1.086   2.857 -0.9886 -0.9794 -0.5365
  850MOL0     H17274   2.411   1.308   2.710  0.7755  1.5528 -4.1089
  850MOL0     H17275   2.542   1.226   2.646 -0.9945 -2.9080  1.0792
  850MOL0     H17276   2.541   1.459   2.848 -0.0100  0.8729 -1.0696
  850MOL0     H17277   2.621   1.446   2.691 -1.8438 -2.5975 -1.4990
  850MOL0     H17278   2.711   1.304   2.946  3.9961 -2.7242  0.0295
  850MOL0     H17279   2.803   1.413   2.867  0.1777 -1.0758  1.6405
  850MOL0     H17280   1.915   0.774   3.136 -0.6417 -1.8869  2.1816
  850MOL0     H17281   1.926   0.573   3.276  0.8158  1.2925  0.0231
  850MOL0     H17282   2.124   0.249   3.436 -0.7216  0.4053 -0.6564
  850MOL0     H17283   2.164   0.082   3.599 -1.1950 -2.1507  1.6330
  850MOL0     H17284   1.804   0.177   2.394  0.0887  0.6079  0.0751
  850MOL0     H17285   1.745   0.391   2.325 -1.1357  0.5946 -0.0999
  850MOL0     H17286   1.696   0.693   2.302 -0.1823  0.2080 -3.2914
  850MOL0     H17287   1.764   0.915   2.230 -0.3226 -1.4873 -1.6395
  850MOL0     H17288   1.463   1.275   2.255 -0.9401 -1.4771  1.0589
  850MOL0     H17289   1.533   1.235   2.429  1.0712  3.4577  0.4574
  850MOL0     H17290   1.738   1.351   2.336 -0.4395  0.0179 -0.7279
  850MOL0     H17291   1.602   1.442   2.416  2.3640 -0.5854  1.6725
  850MOL0     H17292   1.630   1.406   2.114  1.2647  0.5616 -0.0322
  850MOL0     H17293   1.534   1.540   2.192 -1.4475 -0.4452  4.0396
  850MOL0     H17294   1.834   1.519   2.203  1.9740  2.9557  4.6493
  850MOL0     H17295   1.729   1.639   2.276 -0.7817  0.5268 -1.1053
  850MOL0     H17296   1.697   1.785   1.883  1.5826  3.7452  2.1550
  850MOL0     H17297   1.386   1.068   2.369 -0.8133 -1.9410  1.6608
  850MOL0     H17298   1.252   0.802   2.535  3.5604 -0.4924 -0.2415
  850MOL0     H17299   1.194   0.917   2.413  1.3866  0.2919 -1.0096
  850MOL0     H17300   1.222   0.752   2.366  0.9709 -0.0404 -1.2404
  851MOL0     O17301   6.025   0.038   1.273 -0.5470  0.1731  0.6039
  851MOL0     C17302   5.998  -0.066   1.329 -0.2534  0.1426 -0.3521
  851MOL0     O17303   6.066  -0.126   1.431 -0.5806 -0.0054 -0.3301
  851MOL0     C17304   6.192  -0.069   1.457  0.2847  0.5461 -0.6863
  851MOL0     C17305   6.223   0.061   1.499  0.0530 -0.2165  0.6804
  851MOL0     C17306   6.354   0.112   1.497 -0.0868  0.2357  0.3613
  851MOL0     C17307   6.462   0.044   1.452  0.0462  1.1059  0.0850
  851MOL0     O17308   6.585   0.099   1.478 -0.4156  0.2075  0.9674
  851MOL0     C17309   6.705   0.038   1.410 -0.0018 -0.6735 -0.9438
  851MOL0     C17310   6.825   0.116   1.460  0.1686 -0.7517 -0.5635
  851MOL0     C17311   6.840   0.101   1.615 -0.0327 -0.6100  0.3751
  851MOL0     C17312   6.923   0.211   1.676  0.1299 -0.2247 -0.1534
  851MOL0     C17313   6.956   0.186   1.838  0.8761 -0.1650  0.6334
  851MOL0     C17314   7.057   0.074   1.857  0.8370 -0.3402  0.2372
  851MOL0     C17315   7.074   0.061   2.012  0.4054 -0.8983 -0.2780
  851MOL0     C17316   7.156  -0.067   2.058 -0.7919 -0.1664 -0.4124
  851MOL0     N17317   7.106  -0.197   2.033  0.5623  0.3700 -0.0304
  851MOL0     C17318   7.024  -0.267   2.120  0.3508 -0.4169 -0.4423
  851MOL0     C17319   7.000  -0.386   2.051  0.5623 -0.4634  0.0877
  851MOL0     C17320   6.931  -0.510   2.083  0.1985  0.3344  0.7332
  851MOL0     C17321   6.791  -0.512   1.998 -0.8344 -0.5356 -0.9240
  851MOL0     C17322   6.702  -0.634   2.044 -0.8395  0.4557  0.1449
  851MOL0     C17323   6.575  -0.665   1.960 -0.7687  0.0142 -0.0038
  851MOL0     O17324   6.513  -0.537   1.932 -0.1827  0.0798 -0.1870
  851MOL0     C17325   6.413  -0.530   1.832 -1.1899  0.8230  0.1553
  851MOL0     C17326   6.312  -0.430   1.846 -0.5484  0.0792  0.0195
  851MOL0     C17327   6.217  -0.412   1.748 -1.0968  1.0333 -0.7787
  851MOL0     C17328   6.111  -0.329   1.789  0.0863 -0.6086  0.4123
  851MOL0     C17329   6.210  -0.495   1.635  0.6270 -0.3297 -0.9305
  851MOL0     C17330   6.106  -0.492   1.529  0.2283  0.3336  0.9498
  851MOL0     O17331   6.131  -0.555   1.412  0.8151  0.4373  0.0776
  851MOL0     C17332   6.028  -0.564   1.325 -0.1418 -0.0840 -0.2534
  851MOL0     C17333   6.042  -0.514   1.196 -0.1382 -0.6946  0.2213
  851MOL0     C17334   5.931  -0.516   1.098  0.8527  0.3960  0.0522
  851MOL0     C17335   5.806  -0.574   1.136 -0.4100 -0.2894  0.8662
  851MOL0     O17336   5.696  -0.595   1.051  0.3438 -0.3229  0.0907
  851MOL0     C17337   5.684  -0.525   0.924  1.1238 -0.0198 -0.1144
  851MOL0     C17338   5.544  -0.536   0.884 -0.6763  0.3967 -0.3275
  851MOL0     C17339   5.546  -0.581   0.735 -0.2685  0.4954 -0.1664
  851MOL0     C17340   5.410  -0.645   0.686 -0.2515 -1.0034 -0.8359
  851MOL0     C17341   5.304  -0.535   0.676  0.0822 -0.3232 -0.3932
  851MOL0     C17342   5.188  -0.588   0.605 -0.2991  0.7372  0.6197
  851MOL0     C17343   5.099  -0.485   0.531 -1.0428  0.3382  0.3094
  851MOL0     C17344   4.998  -0.430   0.623 -0.9781  0.6523 -0.0473
  851MOL0    Cl17345   5.063  -0.296   0.715  0.0816 -0.4354 -0.2864
  851MOL0     C17346   5.804  -0.633   1.255  0.1365 -0.8440 -0.1452
  851MOL0     C17347   5.905  -0.619   1.353  0.5568  0.0137  0.4226
  851MOL0     O17348   6.002  -0.428   1.555 -0.5973 -0.3063 -0.5413
  851MOL0     C17349   6.317  -0.583   1.607  0.6573  0.0723  0.6617
  851MOL0     C17350   6.411  -0.613   1.711  0.5408  0.3999  0.2305
  851MOL0     N17351   7.071  -0.381   1.933  0.3258 -0.1697 -0.5135
  851MOL0     N17352   7.148  -0.277   1.927 -0.6745 -0.1548  0.0664
  851MOL0     C17353   6.436  -0.090   1.416 -0.6918  0.2275  0.3316
  851MOL0     C17354   6.309  -0.153   1.426  0.6913 -0.6204  1.9833
  851MOL0     C17355   5.880  -0.151   1.283 -0.1429 -0.8105 -0.4621
  851MOL0     C17356   5.806  -0.237   1.377 -0.8989  0.7763 -0.0609
  851MOL0     C17357   5.693  -0.292   1.338  0.3186  1.7565  1.3387
  851MOL0     C17358   5.629  -0.267   1.213 -0.3416 -0.5178 -0.7087
  851MOL0     O17359   5.505  -0.312   1.172 -0.3342  0.6702 -0.3041
  851MOL0     C17360   5.449  -0.416   1.253 -0.5465 -0.2157 -0.6689
  851MOL0     C17361   5.317  -0.475   1.199 -0.1366  0.6477 -0.3864
  851MOL0     C17362   5.212  -0.363   1.188  0.5479  1.4523  0.0131
  851MOL0     C17363   5.081  -0.396   1.121 -0.3928 -0.1027 -0.7980
  851MOL0     C17364   4.978  -0.292   1.139  1.2897  0.4086  1.0483
  851MOL0     C17365   4.907  -0.192   1.149  0.0763  0.4688 -0.3811
  851MOL0     C17366   5.704  -0.195   1.130  0.6777 -0.2905  0.7828
  851MOL0     C17367   5.827  -0.139   1.152  0.0274  0.4435 -1.0564
  851MOL0     C17368   5.923  -0.099   1.038 -0.4554  0.2089  0.1997
  851MOL0     H17369   6.145   0.133   1.525 -0.0654 -0.6754  1.6337
  851MOL0     H17370   6.379   0.210   1.536 -1.1071  0.1020  1.4377
  851MOL0     H17371   6.695   0.055   1.302 -2.0352  0.0749 -0.6754
  851MOL0     H17372   6.710  -0.069   1.434  0.4152 -0.5583 -0.5123
  851MOL0     H17373   6.919   0.084   1.414  0.6254  0.9825 -0.9040
  851MOL0     H17374   6.816   0.223   1.444 -2.0109 -0.6017  1.1074
  851MOL0     H17375   6.750   0.092   1.676  0.6285 -1.4942  1.2450
  851MOL0     H17376   6.906   0.016   1.634  2.3248  0.8999 -0.5521
  851MOL0     H17377   7.016   0.213   1.618  0.5881 -2.0132  0.4443
  851MOL0     H17378   6.878   0.310   1.665  2.8658  0.9103 -2.3618
  851MOL0     H17379   6.861   0.164   1.888 -0.5527  2.9554 -0.3959
  851MOL0     H17380   6.986   0.283   1.879 -2.0358  0.1016  2.4414
  851MOL0     H17381   7.019  -0.022   1.820 -3.0664  0.9680  0.3846
  851MOL0     H17382   7.153   0.106   1.815  1.3358 -0.9815  0.8513
  851MOL0     H17383   6.976   0.056   2.061  0.3636 -1.5245 -0.4109
  851MOL0     H17384   7.131   0.149   2.043 -0.3676  0.1469 -1.7399
  851MOL0     H17385   7.246  -0.052   1.998  0.0073  5.3574  1.6268
  851MOL0     H17386   7.188  -0.055   2.162 -2.1484  2.0885 -0.1897
  851MOL0     H17387   7.003  -0.243   2.223  0.5138  0.7937 -0.6815
  851MOL0     H17388   6.909  -0.521   2.190  1.8317 -0.3561  1.0313
  851MOL0     H17389   6.979  -0.604   2.054 -2.8885 -0.7481 -1.4739
  851MOL0     H17390   6.736  -0.420   2.023 -1.2165 -1.3410  1.5180
  851MOL0     H17391   6.810  -0.513   1.891  4.7801  1.7220 -0.3009
  851MOL0     H17392   6.769  -0.719   2.030  2.0805  2.1386  2.6276
  851MOL0     H17393   6.676  -0.626   2.150 -1.1976  1.4807 -0.0119
  851MOL0     H17394   6.611  -0.709   1.867 -2.7250  2.1432 -1.8900
  851MOL0     H17395   6.511  -0.735   2.015  0.9806 -0.4221  1.5741
  851MOL0     H17396   6.299  -0.377   1.940 -3.7308  0.3221 -0.4536
  851MOL0     H17397   6.139  -0.248   1.857  0.4786 -0.4877  0.1048
  851MOL0     H17398   6.029  -0.389   1.830 -0.4310 -0.0015  0.2718
  851MOL0     H17399   6.071  -0.270   1.706  3.6093 -0.8346 -1.6194
  851MOL0     H17400   6.140  -0.478   1.167  0.1341 -2.8350 -1.8181
  851MOL0     H17401   5.946  -0.481   0.997  0.1313 -0.5853 -0.4077
  851MOL0     H17402   5.703  -0.417   0.930 -1.8542  0.8405 -2.8759
  851MOL0     H17403   5.752  -0.558   0.845  1.9790  1.2797  0.0430
  851MOL0     H17404   5.487  -0.615   0.934  2.1440 -1.7476 -0.3013
  851MOL0     H17405   5.505  -0.436   0.905 -1.6705  0.0407 -0.3847
  851MOL0     H17406   5.617  -0.664   0.732  0.4299  1.0939 -2.3295
  851MOL0     H17407   5.572  -0.503   0.662 -1.9334  0.7650 -0.5255
  851MOL0     H17408   5.381  -0.723   0.758  0.5289  1.1443  1.9710
  851MOL0     H17409   5.428  -0.691   0.588 -4.2565 -1.6394 -1.4450
  851MOL0     H17410   5.285  -0.508   0.781  5.9750  0.3302  0.8234
  851MOL0     H17411   5.347  -0.449   0.625 -1.6675  0.8218 -0.0451
  851MOL0     H17412   5.119  -0.648   0.665 -3.5193  1.1775 -2.3187
  851MOL0     H17413   5.221  -0.664   0.534 -0.2397  1.6518 -0.3615
  851MOL0     H17414   5.049  -0.535   0.447 -0.1833 -3.0404  1.6271
  851MOL0     H17415   5.174  -0.415   0.493 -0.4709  1.1936  2.8273
  851MOL0     H17416   4.985  -0.504   0.703  2.5877  1.0906  1.1198
  851MOL0     H17417   4.905  -0.398   0.574 -1.7909  0.7171  1.4823
  851MOL0     H17418   5.711  -0.684   1.280  0.4654 -0.1547  2.8904
  851MOL0     H17419   5.874  -0.657   1.450  1.3623 -1.7592  0.0119
  851MOL0     H17420   6.329  -0.642   1.517  1.0966  0.0194  0.7527
  851MOL0     H17421   6.488  -0.688   1.692 -1.5972 -2.0811  0.7600
  851MOL0     H17422   6.513  -0.153   1.371  0.7756  3.0883 -1.4562
  851MOL0     H17423   6.315  -0.257   1.393  1.2494  0.4341 -1.6866
  851MOL0     H17424   5.847  -0.259   1.475 -1.0021  2.5784  0.4163
  851MOL0     H17425   5.656  -0.355   1.418 -0.5263  2.8779  1.8549
  851MOL0     H17426   5.515  -0.501   1.273 -3.5406 -2.0243  2.8917
  851MOL0     H17427   5.446  -0.376   1.355  0.4989 -1.6903 -0.0229
  851MOL0     H17428   5.282  -0.562   1.257  1.3951 -0.3712 -0.9085
  851MOL0     H17429   5.339  -0.517   1.101  0.2130 -0.8344  0.2933
  851MOL0     H17430   5.190  -0.340   1.293  1.9373  1.0101  0.4241
  851MOL0     H17431   5.260  -0.279   1.137  1.2702  1.4656  0.6856
  851MOL0     H17432   5.049  -0.496   1.153 -0.1617 -0.3664 -1.3701
  851MOL0     H17433   5.089  -0.402   1.012 -0.4131  0.4871 -0.8318
  851MOL0     H17434   4.850  -0.102   1.162 -3.9842 -1.2731 -3.5889
  851MOL0     H17435   5.668  -0.165   1.032  2.9062 -2.3577 -0.7812
  851MOL0     H17436   5.933   0.010   1.040  0.4816  0.2676 -2.8221
  851MOL0     H17437   6.023  -0.139   1.056 -0.5860  0.2293  1.0186
  851MOL0     H17438   5.891  -0.135   0.940  1.9545  1.7295 -1.2602
  852MOL0     O17439   8.288   3.434   5.447  0.3077  0.6488  0.2757
  852MOL0     C17440   8.369   3.453   5.538 -0.2094  0.3066  0.0087
  852MOL0     O17441   8.513   3.447   5.535 -0.1467  0.1049  0.3255
  852MOL0     C17442   8.572   3.405   5.415  0.6440 -0.8491  0.6495
  852MOL0     C17443   8.553   3.281   5.355  0.1245 -0.0371  0.6391
  852MOL0     C17444   8.607   3.255   5.233  0.2180  0.0060  0.1258
  852MOL0     C17445   8.683   3.347   5.165  0.6083  0.6580 -0.2300
  852MOL0     O17446   8.731   3.290   5.053 -0.4530  0.9732 -0.0651
  852MOL0     C17447   8.726   3.369   4.933  0.4451  0.4801  0.2904
  852MOL0     C17448   8.855   3.443   4.913  0.3391 -0.0760  0.2192
  852MOL0     C17449   8.972   3.337   4.910  0.3523 -0.3582  0.5783
  852MOL0     C17450   9.112   3.396   4.880  0.5608 -1.1636 -0.8283
  852MOL0     C17451   9.216   3.314   4.950 -0.4113 -0.4884  0.4201
  852MOL0     C17452   9.218   3.339   5.104  0.4849 -0.2629 -0.0995
  852MOL0     C17453   9.331   3.257   5.160 -0.4995  0.5036  0.0801
  852MOL0     C17454   9.358   3.243   5.313  0.9161  0.7274 -1.2269
  852MOL0     N17455   9.367   3.365   5.385 -0.4451 -0.0332 -0.2486
  852MOL0     C17456   9.250   3.433   5.440 -1.0224  0.1038 -0.2381
  852MOL0     C17457   9.304   3.546   5.499 -0.4010  0.3345 -0.0145
  852MOL0     C17458   9.235   3.672   5.544 -0.9497  0.4120  0.2835
  852MOL0     C17459   9.309   3.745   5.659  0.8316 -0.4328  1.3085
  852MOL0     C17460   9.253   3.871   5.714  0.8669 -0.1522 -0.1308
  852MOL0     C17461   9.292   4.007   5.658  1.0494  0.8325 -0.4258
  852MOL0     O17462   9.196   4.035   5.554 -0.1140  0.0005 -0.8305
  852MOL0     C17463   9.234   4.134   5.475 -0.9600 -0.4955  1.1020
  852MOL0     C17464   9.149   4.161   5.370 -0.6269 -0.7392  0.1506
  852MOL0     C17465   9.169   4.261   5.269  0.1469  0.9765  1.0560
  852MOL0     C17466   9.063   4.264   5.159  0.9454 -0.4839 -0.0816
  852MOL0     C17467   9.279   4.345   5.287  0.1432  0.5027 -0.6611
  852MOL0     C17468   9.302   4.460   5.195 -0.0141 -0.3941 -0.5647
  852MOL0     O17469   9.207   4.534   5.136  0.3720 -0.5888  0.1392
  852MOL0     C17470   9.230   4.611   5.021  0.2117  0.2324  1.3948
  852MOL0     C17471   9.350   4.609   4.943  1.0110 -0.3516 -0.4490
  852MOL0     C17472   9.365   4.705   4.832 -0.3166  0.4076  0.2451
  852MOL0     C17473   9.252   4.788   4.790 -1.1518  0.8681  0.7937
  852MOL0     O17474   9.255   4.872   4.687  0.0936 -1.0544  0.1868
  852MOL0     C17475   9.375   4.886   4.602  0.1023 -0.8514 -0.2007
  852MOL0     C17476   9.362   5.006   4.510 -0.0618  0.1092  0.6910
  852MOL0     C17477   9.409   5.135   4.594 -0.2099  0.8885 -0.2303
  852MOL0     C17478   9.413   5.252   4.496 -0.2765  0.9098 -0.4924
  852MOL0     C17479   9.460   5.374   4.575  0.7212 -0.0333 -0.0844
  852MOL0     C17480   9.372   5.420   4.693  0.2050  0.7406  0.0066
  852MOL0     C17481   9.242   5.505   4.647  0.4061  0.2037 -0.6978
  852MOL0     C17482   9.182   5.585   4.760 -0.4609  0.5875  1.2799
  852MOL0    Cl17483   9.160   5.481   4.904 -0.0290  0.4442 -0.0611
  852MOL0     C17484   9.134   4.781   4.871  0.0126 -1.0185  1.1082
  852MOL0     C17485   9.123   4.690   4.975 -0.9300  0.4533 -0.1786
  852MOL0     O17486   9.422   4.485   5.190 -0.8869  0.1718  0.9352
  852MOL0     C17487   9.372   4.320   5.397 -0.1458 -0.0241 -0.3511
  852MOL0     C17488   9.355   4.218   5.491 -0.3477  0.1859 -1.2429
  852MOL0     N17489   9.441   3.532   5.498  0.0519 -0.7115 -0.7271
  852MOL0     N17490   9.476   3.420   5.445  0.0563  0.4600  0.3265
  852MOL0     C17491   8.701   3.474   5.226  0.2764  0.3655 -0.3046
  852MOL0     C17492   8.639   3.505   5.344  1.0048 -0.5247  0.2387
  852MOL0     C17493   8.316   3.501   5.670  0.1653  0.8699 -0.6537
  852MOL0     C17494   8.393   3.603   5.727  1.2405  0.9326  0.1923
  852MOL0     C17495   8.385   3.635   5.872  0.8985  0.4549  0.4064
  852MOL0     C17496   8.281   3.581   5.946  0.2315 -0.7097 -0.1564
  852MOL0     O17497   8.260   3.636   6.068 -0.0618 -0.2131 -0.3394
  852MOL0     C17498   8.126   3.640   6.127 -0.1581 -0.3342  0.1669
  852MOL0     C17499   8.123   3.737   6.246 -0.9842 -0.5287 -0.1765
  852MOL0     C17500   8.117   3.890   6.198  0.1866 -0.1865  0.6446
  852MOL0     C17501   8.244   3.939   6.121  0.1165 -0.1890 -0.0504
  852MOL0     C17502   8.260   4.080   6.086  0.1424 -0.3898 -0.2341
  852MOL0     C17503   8.284   4.195   6.063 -0.7721  0.5514  0.3532
  852MOL0     C17504   8.189   3.485   5.888 -0.6207 -0.6125  0.3175
  852MOL0     C17505   8.212   3.445   5.753  1.3403 -0.7032  0.1509
  852MOL0     C17506   8.126   3.336   5.709 -0.7571 -0.0174 -0.2412
  852MOL0     H17507   8.494   3.207   5.409  1.0866 -2.1086 -1.0003
  852MOL0     H17508   8.608   3.151   5.202  0.9797  0.7152 -2.5296
  852MOL0     H17509   8.637   3.433   4.927  0.4032  0.2911 -2.2844
  852MOL0     H17510   8.741   3.309   4.842  0.8141  1.8875 -0.6189
  852MOL0     H17511   8.859   3.501   4.821  1.9737  0.9722  0.9043
  852MOL0     H17512   8.872   3.515   4.994  1.6886  1.9473 -1.7435
  852MOL0     H17513   8.977   3.302   5.013  3.5856  0.4574  0.7995
  852MOL0     H17514   8.959   3.257   4.837  2.6457 -1.9823  1.8458
  852MOL0     H17515   9.124   3.383   4.772  1.3855 -0.9467 -0.7723
  852MOL0     H17516   9.125   3.500   4.912  1.0447 -1.8201  1.2328
  852MOL0     H17517   9.315   3.334   4.907 -0.4932 -2.1478 -0.6511
  852MOL0     H17518   9.198   3.207   4.933 -1.1118 -0.5450  1.4472
  852MOL0     H17519   9.245   3.445   5.115  1.0266 -0.5213  1.2151
  852MOL0     H17520   9.122   3.308   5.147  0.8257 -2.8017 -1.0033
  852MOL0     H17521   9.428   3.295   5.127 -0.6327  0.1704 -0.7089
  852MOL0     H17522   9.312   3.151   5.142 -0.9352  0.4411  0.8659
  852MOL0     H17523   9.276   3.192   5.363  0.9770  1.3606 -0.4611
  852MOL0     H17524   9.451   3.188   5.328 -0.3359 -1.3230 -0.6641
  852MOL0     H17525   9.144   3.413   5.426 -0.7443 -0.3468 -1.8983
  852MOL0     H17526   9.134   3.645   5.579 -0.3642 -0.6762  1.1879
  852MOL0     H17527   9.217   3.743   5.463  0.0779 -1.4213 -1.6443
  852MOL0     H17528   9.307   3.676   5.744  0.0073 -0.0290  1.6277
  852MOL0     H17529   9.410   3.774   5.626 -1.1675  3.7045 -2.2414
  852MOL0     H17530   9.144   3.870   5.703  0.3811  2.8847  2.8266
  852MOL0     H17531   9.263   3.862   5.822  1.6405 -0.5351 -0.2298
  852MOL0     H17532   9.283   4.085   5.733  0.4411 -1.8300  2.5018
  852MOL0     H17533   9.397   3.994   5.629  1.4046 -0.4809  1.2726
  852MOL0     H17534   9.073   4.087   5.349  0.0493 -2.5175  3.3093
  852MOL0     H17535   9.090   4.329   5.075 -1.3333 -1.7836 -1.9363
  852MOL0     H17536   8.966   4.290   5.201  1.3380 -1.1611  1.3232
  852MOL0     H17537   9.045   4.168   5.109 -1.6648  0.8695 -1.9660
  852MOL0     H17538   9.430   4.540   4.971 -2.3512 -4.1668  0.7910
  852MOL0     H17539   9.460   4.703   4.781  0.5566 -2.5311  1.7903
  852MOL0     H17540   9.471   4.897   4.653 -0.6392  1.7719  0.7658
  852MOL0     H17541   9.379   4.791   4.548  2.6955 -0.5574 -0.6683
  852MOL0     H17542   9.419   4.998   4.417  2.1225 -0.6319  2.0188
  852MOL0     H17543   9.256   5.025   4.497 -0.8687 -2.9581  1.8780
  852MOL0     H17544   9.495   5.108   4.656 -0.2331  1.3243 -0.0042
  852MOL0     H17545   9.323   5.150   4.659 -1.1402 -0.1096 -1.1996
  852MOL0     H17546   9.316   5.271   4.449 -0.0048  2.4358 -0.4883
  852MOL0     H17547   9.479   5.229   4.412 -0.6683  1.9188 -1.0953
  852MOL0     H17548   9.559   5.348   4.614  0.9462  1.3098  0.3035
  852MOL0     H17549   9.471   5.464   4.513 -1.0395  1.2478  1.3645
  852MOL0     H17550   9.435   5.485   4.754  2.6585 -0.8829 -0.6792
  852MOL0     H17551   9.350   5.328   4.747  1.4094  0.1366 -0.5053
  852MOL0     H17552   9.159   5.441   4.616 -1.2598  1.4237  1.0424
  852MOL0     H17553   9.276   5.565   4.562  1.3258 -0.4238 -0.7953
  852MOL0     H17554   9.089   5.623   4.718  0.4277  3.8975  2.0706
  852MOL0     H17555   9.248   5.666   4.793  0.5190 -0.0524  0.9680
  852MOL0     H17556   9.052   4.845   4.843  2.1422  1.2225 -0.4331
  852MOL0     H17557   9.028   4.694   5.028 -0.8127 -0.1361  0.0901
  852MOL0     H17558   9.463   4.379   5.398  1.8090 -2.7660  2.2495
  852MOL0     H17559   9.438   4.211   5.560  0.2284 -0.6427 -1.9945
  852MOL0     H17560   8.758   3.549   5.172  0.2730  0.2867 -0.4193
  852MOL0     H17561   8.643   3.603   5.392  1.9499 -1.4086  2.0392
  852MOL0     H17562   8.477   3.642   5.670  1.5055 -1.3054 -1.0718
  852MOL0     H17563   8.456   3.705   5.915  0.8556  0.8664 -0.1844
  852MOL0     H17564   8.060   3.662   6.043  2.7762  0.4080 -2.1017
  852MOL0     H17565   8.107   3.539   6.164  1.1838 -2.3397 -4.0185
  852MOL0     H17566   8.218   3.725   6.299 -0.9474 -0.3645 -0.2045
  852MOL0     H17567   8.039   3.712   6.310  0.9465  0.0791  2.7730
  852MOL0     H17568   8.039   3.909   6.124  0.7798 -0.5574 -0.0910
  852MOL0     H17569   8.105   3.958   6.283 -1.9057  0.7638 -0.3314
  852MOL0     H17570   8.268   3.877   6.034  0.1953  1.2444 -1.0901
  852MOL0     H17571   8.322   3.922   6.196  0.9015 -1.7340 -1.1584
  852MOL0     H17572   8.302   4.301   6.058  1.0861  0.2657  0.1143
  852MOL0     H17573   8.109   3.437   5.944 -1.4240  1.1221  0.6950
  852MOL0     H17574   8.026   3.378   5.696 -0.3200  0.4923 -2.1357
  852MOL0     H17575   8.176   3.295   5.621  0.6456  2.1327 -0.5106
  852MOL0     H17576   8.098   3.276   5.797 -3.2459  1.4604  0.0571
  853MOL0     O17577  10.682   3.150   8.874 -0.5373 -0.3583 -0.2783
  853MOL0     C17578  10.756   3.053   8.869 -0.0457  0.0286 -0.1581
  853MOL0     O17579  10.724   2.923   8.903  0.6290 -0.0092  0.1971
  853MOL0     C17580  10.604   2.909   8.965 -0.3964 -1.3756  0.0660
  853MOL0     C17581  10.499   2.845   8.904 -0.6733  0.1353  0.5715
  853MOL0     C17582  10.371   2.822   8.963  0.8335  0.0899  0.1669
  853MOL0     C17583  10.351   2.866   9.089  0.4455  0.1782  0.0152
  853MOL0     O17584  10.221   2.856   9.137  0.6094  0.4398 -0.1079
  853MOL0     C17585  10.182   2.910   9.263  0.2688  0.2630 -0.2777
  853MOL0     C17586  10.157   3.064   9.246 -0.0379 -0.0854  0.4095
  853MOL0     C17587  10.039   3.101   9.140 -0.5357 -0.3287 -0.1403
  853MOL0     C17588   9.899   3.068   9.199 -0.6664  0.1381  0.7393
  853MOL0     C17589   9.788   3.084   9.089  0.7158 -0.9157 -0.3865
  853MOL0     C17590   9.641   3.051   9.118 -0.9171  0.3697 -0.7789
  853MOL0     C17591   9.599   2.898   9.137  0.0652  0.0659  0.3161
  853MOL0     C17592   9.602   2.825   9.002  0.6465 -0.9758 -0.2391
  853MOL0     N17593   9.522   2.701   9.009 -0.5736  0.4613  0.4070
  853MOL0     C17594   9.576   2.579   9.037 -0.7701 -0.8088  0.6190
  853MOL0     C17595   9.465   2.491   9.041  0.3317 -0.2263 -0.0763
  853MOL0     C17596   9.456   2.343   9.064  0.5558 -0.3770 -0.5284
  853MOL0     C17597   9.575   2.283   9.137  0.4992 -0.6287  0.7245
  853MOL0     C17598   9.610   2.348   9.272  0.3142  0.2113 -0.0028
  853MOL0     C17599   9.727   2.274   9.334 -0.3419 -0.0428 -0.2589
  853MOL0     O17600   9.773   2.350   9.450  0.4122 -0.8993  0.2831
  853MOL0     C17601   9.880   2.304   9.526  0.7254 -0.1921  0.1772
  853MOL0     C17602   9.974   2.225   9.474 -0.1081  0.2268  0.9562
  853MOL0     C17603  10.104   2.197   9.525  0.1215 -0.2563  0.2553
  853MOL0     C17604  10.203   2.132   9.432 -0.0510  0.1792 -1.2230
  853MOL0     C17605  10.121   2.234   9.661  0.6157 -0.3347  0.1194
  853MOL0     C17606  10.244   2.205   9.745 -0.2649 -0.3674 -0.2020
  853MOL0     O17607  10.223   2.231   9.878  0.2202  0.1308  0.9581
  853MOL0     C17608  10.327   2.249   9.965  0.1206  0.2370  0.6255
  853MOL0     C17609  10.461   2.190   9.967 -0.5646  0.0606  1.0877
  853MOL0     C17610  10.567   2.228  10.043  0.0877  0.2363  0.2705
  853MOL0     C17611  10.548   2.339  10.127 -0.5640 -0.4522  0.0102
  853MOL0     O17612  10.654   2.385  10.204 -0.8491 -0.5482  0.0637
  853MOL0     C17613  10.635   2.397  10.341  0.3270 -0.6873 -0.1799
  853MOL0     C17614  10.760   2.353  10.423  1.2587  0.5164 -0.1913
  853MOL0     C17615  10.776   2.200  10.418  0.0510  0.3884  0.2703
  853MOL0     C17616  10.874   2.165  10.530 -0.2078 -0.4906 -0.2512
  853MOL0     C17617  10.924   2.026  10.504 -0.1160  0.0652 -0.4770
  853MOL0     C17618  10.981   1.950  10.625 -0.4004  0.1992 -0.6051
  853MOL0     C17619  10.969   1.795  10.614 -0.1248 -0.1285 -0.1989
  853MOL0     C17620  11.060   1.722  10.724 -0.0429 -0.1171 -0.5933
  853MOL0    Cl17621  11.059   1.558  10.681 -0.0481  0.1404  0.2193
  853MOL0     C17622  10.419   2.395  10.143 -0.4297 -0.2098 -0.4502
  853MOL0     C17623  10.317   2.358  10.060  0.3434  0.6554  0.7985
  853MOL0     O17624  10.338   2.144   9.702 -0.5974 -0.1432  0.3375
  853MOL0     C17625  10.021   2.318   9.718  0.1552 -0.1014 -0.8597
  853MOL0     C17626   9.906   2.353   9.652 -0.7557 -0.0376 -0.4875
  853MOL0     N17627   9.350   2.568   9.012  0.6764  0.6080  0.5702
  853MOL0     N17628   9.385   2.692   8.995 -0.1993  0.2127  0.4842
  853MOL0     C17629  10.460   2.935   9.156  0.5088  0.1460  0.3150
  853MOL0     C17630  10.580   2.956   9.090 -0.1579  0.1575  0.0425
  853MOL0     C17631  10.896   3.082   8.833  0.8502  0.2127 -0.1550
  853MOL0     C17632  10.952   3.205   8.860 -0.2637 -0.7097 -0.6484
  853MOL0     C17633  11.088   3.234   8.823 -0.0294  0.5112 -0.8104
  853MOL0     C17634  11.166   3.131   8.783  0.1293 -0.5749 -0.8606
  853MOL0     O17635  11.300   3.141   8.753 -0.5710  0.0991 -0.0573
  853MOL0     C17636  11.332   3.153   8.611  0.0682 -0.8000  0.3581
  853MOL0     C17637  11.345   3.298   8.565  0.2028  0.1599 -0.9864
  853MOL0     C17638  11.362   3.304   8.415  0.7269  0.0912  0.4432
  853MOL0     C17639  11.384   3.454   8.376 -0.6714 -1.3687  0.1030
  853MOL0     C17640  11.355   3.487   8.236 -0.1810  1.0948 -0.5074
  853MOL0     C17641  11.330   3.509   8.122 -0.4484 -0.4638  0.3328
  853MOL0     C17642  11.109   3.007   8.756 -0.0806  0.3465 -0.2301
  853MOL0     C17643  10.976   2.981   8.776 -0.6396 -0.3981  0.4603
  853MOL0     C17644  10.940   2.837   8.762  0.5698 -0.0754  0.2507
  853MOL0     H17645  10.522   2.809   8.805 -0.2310 -0.4517  0.8828
  853MOL0     H17646  10.285   2.792   8.904 -0.3263 -2.0671  2.7245
  853MOL0     H17647  10.247   2.897   9.351 -0.1217  0.4673  0.0468
  853MOL0     H17648  10.087   2.871   9.302 -1.2261  4.3111  0.5743
  853MOL0     H17649  10.126   3.095   9.346 -3.7650 -2.0221  0.0126
  853MOL0     H17650  10.253   3.111   9.224 -0.5078  0.5913 -0.2648
  853MOL0     H17651  10.034   3.208   9.122 -1.6760 -0.7179 -2.4954
  853MOL0     H17652  10.067   3.040   9.053  1.8952  2.3775 -1.4184
  853MOL0     H17653   9.904   2.963   9.230  2.4851 -0.2776 -0.7290
  853MOL0     H17654   9.894   3.131   9.287 -2.2266  1.2221 -0.0770
  853MOL0     H17655   9.818   3.027   9.001  2.4142 -0.6455 -0.0173
  853MOL0     H17656   9.793   3.189   9.059  2.6376 -1.2837 -1.4980
  853MOL0     H17657   9.615   3.113   9.205 -0.2873 -0.1151 -0.2305
  853MOL0     H17658   9.578   3.086   9.036 -2.4667 -0.6589 -0.0859
  853MOL0     H17659   9.494   2.903   9.166 -0.0952  4.6894 -0.2502
  853MOL0     H17660   9.661   2.842   9.207 -0.7503  1.4244  2.2233
  853MOL0     H17661   9.543   2.886   8.932  2.4684 -0.9784 -1.8468
  853MOL0     H17662   9.702   2.803   8.966  0.6750 -0.2566 -0.6195
  853MOL0     H17663   9.681   2.562   9.058 -0.2712  1.2720  0.0646
  853MOL0     H17664   9.442   2.303   8.964 -0.1295  2.1266 -1.5067
  853MOL0     H17665   9.368   2.340   9.130  0.1502 -0.4039 -1.0699
  853MOL0     H17666   9.558   2.177   9.158 -1.8897  0.0253  2.6421
  853MOL0     H17667   9.662   2.290   9.072 -0.7833 -0.0655 -0.9930
  853MOL0     H17668   9.630   2.453   9.251 -0.1959  0.9515  2.7977
  853MOL0     H17669   9.517   2.349   9.329  0.6233  1.7644  0.5141
  853MOL0     H17670   9.700   2.173   9.366 -1.4108  0.6406  1.0976
  853MOL0     H17671   9.804   2.265   9.257 -0.9880 -2.6187 -0.7047
  853MOL0     H17672   9.962   2.193   9.371 -2.9905 -2.3118  1.9697
  853MOL0     H17673  10.184   2.172   9.332  1.8626  0.2733 -1.5832
  853MOL0     H17674  10.192   2.023   9.428 -1.8734  0.2399  0.4743
  853MOL0     H17675  10.305   2.160   9.457  0.7023 -3.0419 -0.2318
  853MOL0     H17676  10.474   2.112   9.893 -1.2795  2.6565 -2.0334
  853MOL0     H17677  10.666   2.183  10.043  0.6346  1.2099  3.2260
  853MOL0     H17678  10.624   2.504  10.362 -0.2184 -0.4791 -1.4465
  853MOL0     H17679  10.552   2.338  10.381  1.9729 -1.4264  2.4075
  853MOL0     H17680  10.855   2.403  10.399  1.4110  0.4346  0.2179
  853MOL0     H17681  10.739   2.381  10.527 -1.2487 -1.2899 -0.1284
  853MOL0     H17682  10.818   2.177  10.320 -0.5305  0.1980  0.0681
  853MOL0     H17683  10.685   2.144  10.437  0.4835 -0.4219 -0.0276
  853MOL0     H17684  10.816   2.161  10.623 -2.4704 -2.5468 -1.6191
  853MOL0     H17685  10.952   2.239  10.552 -1.8672  0.8154  1.6917
  853MOL0     H17686  10.836   1.965  10.480 -0.9388  0.6931  0.7972
  853MOL0     H17687  10.996   2.029  10.422 -0.9488  1.9311 -1.1991
  853MOL0     H17688  10.915   1.979  10.707 -0.0225  1.1072 -0.6040
  853MOL0     H17689  11.083   1.982  10.650  0.0844 -2.0741  0.5321
  853MOL0     H17690  10.995   1.771  10.510  1.3171  1.7942 -0.3442
  853MOL0     H17691  10.869   1.757  10.637  0.0705  0.4387  1.7459
  853MOL0     H17692  11.007   1.727  10.820 -1.0693 -1.9898 -1.0111
  853MOL0     H17693  11.160   1.767  10.725 -0.7587  1.8512 -3.6568
  853MOL0     H17694  10.396   2.484  10.201 -3.8933 -1.8729  0.9711
  853MOL0     H17695  10.215   2.396  10.063 -0.7103 -1.9430  0.6527
  853MOL0     H17696  10.041   2.372   9.810  1.6035  0.6515 -1.5925
  853MOL0     H17697   9.829   2.416   9.695 -2.0905 -2.5608  1.0439
  853MOL0     H17698  10.435   2.976   9.254 -2.0666 -1.4120  0.4086
  853MOL0     H17699  10.657   3.011   9.143 -1.4691  3.4222 -1.2075
  853MOL0     H17700  10.887   3.286   8.893  0.1973 -0.9706  1.0192
  853MOL0     H17701  11.136   3.331   8.818  0.7178  0.2490  0.6760
  853MOL0     H17702  11.428   3.106   8.591 -0.0788  0.2489 -3.7905
  853MOL0     H17703  11.258   3.100   8.550 -0.3773 -1.4903  1.4814
  853MOL0     H17704  11.418   3.355   8.622  0.0284  2.9412 -3.3164
  853MOL0     H17705  11.251   3.351   8.583  0.6832  1.3457 -1.8599
  853MOL0     H17706  11.454   3.252   8.387 -0.1492 -2.0177  1.2832
  853MOL0     H17707  11.276   3.271   8.356  0.1132 -0.2922  1.5309
  853MOL0     H17708  11.490   3.479   8.374 -0.4372 -2.0443 -4.0094
  853MOL0     H17709  11.323   3.515   8.444 -0.2624  1.2310 -1.7193
  853MOL0     H17710  11.306   3.514   8.018  1.0294 -2.4814 -0.1686
  853MOL0     H17711  11.173   2.924   8.729  1.0708  0.4817  1.9201
  853MOL0     H17712  11.002   2.784   8.689  1.1952  0.9053  0.0556
  853MOL0     H17713  10.964   2.789   8.858 -0.3462 -1.5058 -0.2020
  853MOL0     H17714  10.834   2.816   8.744  0.1897  1.9682 -0.1348
  854MOL0     O17715   2.173  11.069   0.911 -0.3480  0.3342  0.0876
  854MOL0     C17716   2.212  10.971   0.852 -0.3885 -0.5726 -0.3437
  854MOL0     O17717   2.228  10.842   0.903 -0.1717 -0.0685 -0.1068
  854MOL0     C17718   2.158  10.814   1.018 -0.3145  0.3330 -0.9738
  854MOL0     C17719   2.021  10.822   1.022 -0.1830 -0.3054  0.0419
  854MOL0     C17720   1.952  10.806   1.141 -0.5438 -0.4453  0.4892
  854MOL0     C17721   2.021  10.771   1.254  0.6822 -0.2988  1.0084
  854MOL0     O17722   1.958  10.755   1.372  0.3064  0.4214 -0.0331
  854MOL0     C17723   1.856  10.853   1.391 -0.2931 -0.3199 -0.4203
  854MOL0     C17724   1.839  10.875   1.541  1.2492  0.1999 -0.1799
  854MOL0     C17725   1.971  10.928   1.594  0.3221  0.8637 -0.4737
  854MOL0     C17726   1.961  10.989   1.737 -0.1514 -0.5710  0.8925
  854MOL0     C17727   2.102  11.047   1.789  0.3513 -0.4146 -0.7848
  854MOL0     C17728   2.175  10.959   1.884 -0.4538 -0.3125 -0.1234
  854MOL0     C17729   2.106  10.935   2.010  0.4700 -0.3732 -0.3663
  854MOL0     C17730   2.207  10.912   2.130 -0.3112 -0.9210 -0.2609
  854MOL0     N17731   2.149  10.866   2.250 -0.2574 -0.8334 -0.1947
  854MOL0     C17732   2.028  10.803   2.269  0.3645  0.9560 -0.0139
  854MOL0     C17733   1.998  10.810   2.399  1.7906  0.1709  0.2959
  854MOL0     C17734   1.870  10.775   2.472  0.6578  0.6210  0.1162
  854MOL0     C17735   1.757  10.880   2.449  0.3912  0.2483 -0.5130
  854MOL0     C17736   1.616  10.835   2.497 -0.9816 -0.7242 -0.7915
  854MOL0     C17737   1.606  10.766   2.635 -0.0316 -0.6720  0.4354
  854MOL0     O17738   1.511  10.824   2.729 -0.1908  0.3810 -0.1097
  854MOL0     C17739   1.382  10.836   2.694  0.2242  0.8934  0.3360
  854MOL0     C17740   1.293  10.876   2.790  0.3371  0.7879 -0.3801
  854MOL0     C17741   1.158  10.901   2.762 -0.5722  1.1271 -0.4972
  854MOL0     C17742   1.079  10.989   2.850 -0.0792  0.0025 -0.2035
  854MOL0     C17743   1.108  10.845   2.651  0.3408 -0.1762  0.6705
  854MOL0     C17744   0.961  10.848   2.605 -0.0930  0.1645  0.4544
  854MOL0     O17745   0.910  10.746   2.531  0.4825 -0.3773  0.4711
  854MOL0     C17746   0.796  10.756   2.464 -0.5115 -0.1852  0.7737
  854MOL0     C17747   0.678  10.792   2.528 -0.9051 -0.5766  0.6058
  854MOL0     C17748   0.555  10.806   2.468  0.0506 -0.2004 -0.8675
  854MOL0     C17749   0.543  10.784   2.329  0.5619  0.6829  0.8245
  854MOL0     O17750   0.414  10.798   2.272 -0.7565  0.4112  0.2668
  854MOL0     C17751   0.387  10.716   2.160 -0.5819 -0.3890  0.8797
  854MOL0     C17752   0.243  10.667   2.151  0.1418  0.2645 -0.5333
  854MOL0     C17753   0.133  10.777   2.182 -0.5117 -0.1304 -0.3044
  854MOL0     C17754   0.128  10.884   2.069  0.1969 -0.1690  0.5959
  854MOL0     C17755  -0.004  10.959   2.064 -0.5551 -0.3231  0.3310
  854MOL0     C17756  -0.058  11.010   2.201 -0.4389 -0.4865 -0.6303
  854MOL0     C17757  -0.168  11.115   2.194 -0.1830  0.4896 -1.2276
  854MOL0     C17758  -0.280  11.083   2.103  0.3121  0.1265 -0.2978
  854MOL0    Cl17759  -0.237  11.133   1.943 -0.2318 -0.1182 -0.1041
  854MOL0     C17760   0.663  10.748   2.253  0.7215 -0.0630 -0.1816
  854MOL0     C17761   0.786  10.727   2.325  0.3479  0.2240  0.0517
  854MOL0     O17762   0.897  10.947   2.637 -0.0946 -0.8772  0.5055
  854MOL0     C17763   1.187  10.764   2.565  1.0334  0.6832 -0.3286
  854MOL0     C17764   1.322  10.764   2.584  0.9028 -0.3396  0.1802
  854MOL0     N17765   2.100  10.863   2.459  1.0739 -0.4927  0.4462
  854MOL0     N17766   2.189  10.901   2.377  0.1084  0.4381  0.3962
  854MOL0     C17767   2.162  10.763   1.258  0.1737  0.4209  0.0925
  854MOL0     C17768   2.228  10.790   1.138  0.4756 -0.2913 -0.2665
  854MOL0     C17769   2.236  10.987   0.707 -0.1963 -0.9402 -0.3442
  854MOL0     C17770   2.348  10.916   0.660  0.8326 -1.2216  0.0753
  854MOL0     C17771   2.399  10.931   0.529  0.6688 -0.5588 -0.8540
  854MOL0     C17772   2.344  11.016   0.442  0.3823 -0.9554  0.9514
  854MOL0     O17773   2.396  11.025   0.314  1.0859 -0.5705 -0.1575
  854MOL0     C17774   2.388  11.139   0.234 -0.7417  0.1007  0.8726
  854MOL0     C17775   2.460  11.254   0.302  0.9171 -0.4509  1.0915
  854MOL0     C17776   2.469  11.395   0.244 -0.7158  0.0155  0.4468
  854MOL0     C17777   2.343  11.455   0.205  0.1132 -0.5867  0.8648
  854MOL0     C17778   2.256  11.469   0.312 -0.3152 -0.4634 -0.2777
  854MOL0     C17779   2.190  11.457   0.411 -0.3881 -0.2846 -0.3305
  854MOL0     C17780   2.231  11.089   0.482 -0.2565  0.4567  0.8088
  854MOL0     C17781   2.176  11.074   0.613 -0.0434  0.2392 -0.2261
  854MOL0     C17782   2.072  11.167   0.663 -0.0669 -0.0208  0.1501
  854MOL0     H17783   1.965  10.838   0.930  0.3386  1.8004  0.0337
  854MOL0     H17784   1.845  10.821   1.148 -0.8190 -2.0335 -0.0454
  854MOL0     H17785   1.766  10.805   1.350  0.9397 -3.9614  0.7032
  854MOL0     H17786   1.876  10.946   1.337  0.3474 -0.3793 -0.2913
  854MOL0     H17787   1.761  10.950   1.555  0.9197 -0.2431  0.4366
  854MOL0     H17788   1.808  10.779   1.585 -0.6096  0.0477 -1.7237
  854MOL0     H17789   2.034  10.839   1.601 -1.5166 -0.4080  0.4874
  854MOL0     H17790   2.002  11.010   1.528  2.4485  1.9321  1.6786
  854MOL0     H17791   1.892  11.074   1.732  1.9127  1.1549 -0.5380
  854MOL0     H17792   1.911  10.921   1.806 -0.8079 -1.9183 -0.8421
  854MOL0     H17793   2.074  11.136   1.846  0.6198  1.9389 -3.9872
  854MOL0     H17794   2.165  11.069   1.702  0.3588 -2.3234 -1.3198
  854MOL0     H17795   2.199  10.864   1.834  0.7029  0.2412 -0.6707
  854MOL0     H17796   2.277  10.999   1.895 -0.4830  0.6585 -2.7795
  854MOL0     H17797   2.043  10.847   1.994  0.4046 -0.4274  0.1785
  854MOL0     H17798   2.042  11.020   2.036 -0.9826 -1.8061  0.9887
  854MOL0     H17799   2.277  10.832   2.105 -0.4244 -1.2127  0.3245
  854MOL0     H17800   2.259  11.007   2.147  1.1855 -1.5297 -1.2648
  854MOL0     H17801   1.958  10.777   2.190  1.3797  0.0764 -0.6514
  854MOL0     H17802   1.891  10.756   2.578 -0.5821  0.9775  0.4395
  854MOL0     H17803   1.829  10.680   2.434  0.5918  0.8840 -0.4763
  854MOL0     H17804   1.782  10.976   2.494 -1.6309  0.5384  0.0994
  854MOL0     H17805   1.749  10.905   2.343  1.2903  2.0344 -0.2000
  854MOL0     H17806   1.552  10.924   2.500 -0.0901 -0.0946 -0.4053
  854MOL0     H17807   1.578  10.764   2.422 -0.5770 -1.0409 -0.6974
  854MOL0     H17808   1.596  10.657   2.629  0.2599 -0.6263 -1.6580
  854MOL0     H17809   1.699  10.800   2.680 -0.9878  1.1005  1.1557
  854MOL0     H17810   1.330  10.915   2.884 -2.7734  1.4563  0.7074
  854MOL0     H17811   0.991  10.942   2.893 -0.0895  1.0874  1.0215
  854MOL0     H17812   1.052  11.092   2.826  0.6573  0.8629  2.3149
  854MOL0     H17813   1.133  11.017   2.941 -0.3885  5.7801 -1.4250
  854MOL0     H17814   0.680  10.811   2.635 -0.7140  0.6190  0.3952
  854MOL0     H17815   0.466  10.839   2.520  0.1718  1.9719 -1.9463
  854MOL0     H17816   0.420  10.776   2.075 -1.9046 -1.4581 -0.4498
  854MOL0     H17817   0.441  10.622   2.149  0.3606  0.3408 -1.3928
  854MOL0     H17818   0.240  10.616   2.054  3.2730 -0.5361 -0.3174
  854MOL0     H17819   0.220  10.584   2.218  1.5251 -0.0760 -0.4582
  854MOL0     H17820   0.161  10.831   2.273 -2.0514 -0.6595  0.5348
  854MOL0     H17821   0.037  10.729   2.206 -0.2578 -1.8563 -2.4465
  854MOL0     H17822   0.145  10.831   1.975  3.0452 -0.0004  0.9237
  854MOL0     H17823   0.210  10.953   2.093 -0.2080  0.5657 -0.1169
  854MOL0     H17824  -0.003  11.047   1.999 -1.8597 -1.6131 -1.5322
  854MOL0     H17825  -0.085  10.895   2.026 -1.3141  0.6783  0.2132
  854MOL0     H17826   0.017  11.063   2.261 -1.3896  0.2887 -0.0945
  854MOL0     H17827  -0.083  10.921   2.260 -2.3473 -1.8122 -3.2736
  854MOL0     H17828  -0.124  11.210   2.162  1.6706  0.5226  1.1228
  854MOL0     H17829  -0.215  11.115   2.292  1.3880 -0.0533 -0.4294
  854MOL0     H17830  -0.369  11.134   2.140  0.8970  0.7488  0.2756
  854MOL0     H17831  -0.301  10.976   2.109 -1.0938  0.4151  0.1307
  854MOL0     H17832   0.650  10.719   2.150 -4.4481  0.1329  0.1422
  854MOL0     H17833   0.883  10.702   2.282  0.3264  0.7253 -0.2965
  854MOL0     H17834   1.142  10.715   2.480 -0.9382  0.1451  0.9564
  854MOL0     H17835   1.386  10.707   2.517  2.4100  1.5292 -0.0462
  854MOL0     H17836   2.219  10.727   1.343  1.4630  0.7851 -0.5814
  854MOL0     H17837   2.336  10.795   1.136  0.4474  4.1158 -1.4605
  854MOL0     H17838   2.404  10.845   0.719  2.8945 -1.2862 -1.8407
  854MOL0     H17839   2.488  10.879   0.493  0.6062 -0.7549 -0.7294
  854MOL0     H17840   2.439  11.109   0.143 -1.0248  1.2831  0.3077
  854MOL0     H17841   2.281  11.159   0.219 -0.6478 -0.3997 -0.5670
  854MOL0     H17842   2.560  11.219   0.329  3.4819  3.2051 -2.3783
  854MOL0     H17843   2.412  11.267   0.399  0.5962  2.9997  0.5796
  854MOL0     H17844   2.515  11.457   0.321  1.3794 -3.2387  2.0242
  854MOL0     H17845   2.540  11.402   0.161 -1.8370  1.3041 -0.4435
  854MOL0     H17846   2.293  11.388   0.134 -2.0181  1.3466  0.3766
  854MOL0     H17847   2.362  11.546   0.146  0.8526  0.6005  2.8548
  854MOL0     H17848   2.122  11.470   0.492  0.2425  2.0379 -0.0952
  854MOL0     H17849   2.190  11.160   0.411  1.4251 -0.3577 -1.0589
  854MOL0     H17850   2.039  11.239   0.587 -2.3829 -3.0983 -2.0133
  854MOL0     H17851   1.988  11.112   0.708 -1.4465  1.1662 -0.8758
  854MOL0     H17852   2.105  11.228   0.748  1.6370 -0.4714 -0.1601
  855MOL0     O17853   3.181  10.059   7.779 -0.0144 -0.5142  0.0555
  855MOL0     C17854   3.159  10.095   7.895  0.2867 -0.1665 -0.0308
  855MOL0     O17855   3.185  10.221   7.952  0.5943 -0.4938 -0.0420
  855MOL0     C17856   3.244  10.320   7.877 -0.5685 -0.4831 -0.4188
  855MOL0     C17857   3.370  10.299   7.832 -0.8441 -0.6514  0.1438
  855MOL0     C17858   3.431  10.411   7.762 -0.3755 -0.3774 -0.1675
  855MOL0     C17859   3.355  10.530   7.741  0.4171  0.2849  0.5589
  855MOL0     O17860   3.422  10.619   7.665  0.6501 -0.0390  0.2175
  855MOL0     C17861   3.387  10.757   7.693 -0.6514  0.4292 -0.2059
  855MOL0     C17862   3.311  10.810   7.577  0.1110  0.6806 -0.3681
  855MOL0     C17863   3.338  10.746   7.448  0.4517 -0.2672 -0.0521
  855MOL0     C17864   3.293  10.829   7.328 -0.2702  0.2538  0.0357
  855MOL0     C17865   3.338  10.777   7.190  0.2884  0.0307  0.4176
  855MOL0     C17866   3.498  10.777   7.185  0.3522  0.1668 -1.3951
  855MOL0     C17867   3.544  10.737   7.051 -0.2114 -0.1172 -1.0426
  855MOL0     C17868   3.504  10.820   6.919 -1.2754 -0.7125 -0.7186
  855MOL0     N17869   3.548  10.963   6.909 -0.3023 -0.6123  0.5384
  855MOL0     C17870   3.671  11.005   6.874  0.2609  0.2428  1.4024
  855MOL0     C17871   3.683  11.133   6.904 -0.8292 -0.3587 -0.2255
  855MOL0     C17872   3.803  11.228   6.886  0.1909  0.4522  0.3253
  855MOL0     C17873   3.766  11.344   6.793 -0.2048 -0.2870 -0.5562
  855MOL0     C17874   3.878  11.453   6.817  0.2524  0.2786  0.3120
  855MOL0     C17875   3.845  11.577   6.739 -1.4371 -1.1350  1.0025
  855MOL0     O17876   3.857  11.565   6.596 -0.2910 -0.0971  0.3937
  855MOL0     C17877   3.805  11.663   6.516  0.1651  0.5041  1.1857
  855MOL0     C17878   3.775  11.785   6.566 -0.7359 -0.3609 -0.1048
  855MOL0     C17879   3.728  11.889   6.483  0.7620 -0.3879  0.0683
  855MOL0     C17880   3.717  12.022   6.545  0.0444  0.3077  0.7655
  855MOL0     C17881   3.694  11.858   6.355 -0.0605 -0.1332  1.2939
  855MOL0     C17882   3.645  11.960   6.261  0.5954  0.2092  1.0409
  855MOL0     O17883   3.561  12.044   6.311  0.4652  0.2591  0.6645
  855MOL0     C17884   3.492  12.120   6.221  0.1382  0.3341  0.3534
  855MOL0     C17885   3.531  12.233   6.139  0.1018 -0.6075  0.6300
  855MOL0     C17886   3.442  12.291   6.048 -0.6708  0.6443 -0.6461
  855MOL0     C17887   3.313  12.239   6.028 -0.4133  0.5570 -0.1806
  855MOL0     O17888   3.228  12.295   5.937  0.6585 -0.4894  0.2353
  855MOL0     C17889   3.208  12.440   5.931 -0.3936 -0.4768 -1.2173
  855MOL0     C17890   3.099  12.485   5.821  0.6507 -0.3370  0.1510
  855MOL0     C17891   3.062  12.633   5.812 -0.5838 -0.5243 -0.4924
  855MOL0     C17892   2.961  12.656   5.921  0.3249 -0.3442 -0.4519
  855MOL0     C17893   2.920  12.801   5.932 -0.3014 -0.6627 -0.6022
  855MOL0     C17894   2.821  12.830   6.038  0.2849  0.1891 -0.3772
  855MOL0     C17895   2.681  12.776   6.012  0.6993 -0.1636 -0.1664
  855MOL0     C17896   2.578  12.885   5.962 -0.5766 -0.0950 -0.2251
  855MOL0    Cl17897   2.637  12.946   5.816  0.1837 -0.0541  0.3874
  855MOL0     C17898   3.274  12.131   6.106  1.1284  0.8869 -0.5434
  855MOL0     C17899   3.362  12.069   6.196  0.3176  0.2911  0.1676
  855MOL0     O17900   3.701  11.964   6.144  0.1454 -0.2882  0.1861
  855MOL0     C17901   3.744  11.733   6.296 -0.8639 -2.1096  0.1885
  855MOL0     C17902   3.793  11.643   6.380  0.2262  0.2018  0.5104
  855MOL0     N17903   3.565  11.164   6.973 -0.7937  0.0631  0.0238
  855MOL0     N17904   3.490  11.071   6.982  0.6529 -0.2745  0.1870
  855MOL0     C17905   3.229  10.537   7.790  0.0780 -0.3178  1.1714
  855MOL0     C17906   3.166  10.433   7.857 -0.2764  0.6606  0.1170
  855MOL0     C17907   3.093   9.994   7.977  0.3204  0.0554 -0.6528
  855MOL0     C17908   3.007   9.901   7.909 -0.4179 -0.1252 -0.8721
  855MOL0     C17909   2.941   9.795   7.977  0.0415  0.4680  0.2492
  855MOL0     C17910   2.946   9.794   8.112  0.1254 -0.2843  0.6059
  855MOL0     O17911   2.889   9.699   8.192 -0.6467  0.0972 -0.3290
  855MOL0     C17912   2.749   9.673   8.171  0.3746  0.5241  0.1454
  855MOL0     C17913   2.720   9.574   8.280 -0.8482  0.1827 -0.6665
  855MOL0     C17914   2.570   9.537   8.291  0.0658  0.2855 -0.5418
  855MOL0     C17915   2.549   9.412   8.393 -0.2870 -0.8254 -0.2603
  855MOL0     C17916   2.590   9.445   8.532 -0.8984 -0.6132  0.0441
  855MOL0     C17917   2.609   9.494   8.646  0.0495  0.1475  0.1993
  855MOL0     C17918   3.024   9.884   8.181  0.1560  0.0937  0.2719
  855MOL0     C17919   3.104   9.978   8.120 -0.5831  0.6656  0.4861
  855MOL0     C17920   3.203  10.048   8.210 -0.0447 -0.0271 -0.4596
  855MOL0     H17921   3.430  10.211   7.853  1.5721 -0.3879 -4.4483
  855MOL0     H17922   3.537  10.407   7.739  1.7933  0.4323  6.9920
  855MOL0     H17923   3.477  10.819   7.705 -0.9569  0.4591  2.3745
  855MOL0     H17924   3.333  10.775   7.786 -0.4666 -1.0141  0.2007
  855MOL0     H17925   3.205  10.810   7.605  0.3607  3.4753  1.0275
  855MOL0     H17926   3.334  10.917   7.583 -0.7821  0.8542  0.1684
  855MOL0     H17927   3.447  10.733   7.446  0.6841  0.7531  2.4392
  855MOL0     H17928   3.296  10.645   7.443  1.0714 -0.6509  1.7216
  855MOL0     H17929   3.184  10.842   7.334 -0.2505  0.5233 -0.1706
  855MOL0     H17930   3.337  10.929   7.337 -3.6881  2.0457 -1.0916
  855MOL0     H17931   3.311  10.854   7.116  0.5390  0.5095  0.8242
  855MOL0     H17932   3.282  10.683   7.182  1.7000 -1.3916  4.5996
  855MOL0     H17933   3.541  10.875   7.206 -0.2047  0.1762 -0.2371
  855MOL0     H17934   3.529  10.710   7.266  2.2828  2.0079 -0.5012
  855MOL0     H17935   3.513  10.634   7.030  2.2049 -1.3951  1.1050
  855MOL0     H17936   3.652  10.719   7.053 -0.4921 -1.9207  0.8919
  855MOL0     H17937   3.549  10.766   6.836 -0.9736 -0.8186 -0.4886
  855MOL0     H17938   3.396  10.817   6.901 -1.9660 -3.0273  2.7386
  855MOL0     H17939   3.745  10.943   6.823  0.2800  1.0074  0.4544
  855MOL0     H17940   3.888  11.176   6.842 -1.1553  0.9436 -3.1140
  855MOL0     H17941   3.850  11.257   6.981  1.0220 -1.6320  0.6178
  855MOL0     H17942   3.766  11.290   6.698 -0.4033 -3.1754  0.9465
  855MOL0     H17943   3.666  11.381   6.817  1.3244  3.0497  1.2991
  855MOL0     H17944   3.887  11.474   6.924 -0.9472  0.8188  0.3321
  855MOL0     H17945   3.971  11.420   6.770  1.2389 -0.3665  2.5757
  855MOL0     H17946   3.742  11.607   6.759 -1.1160  0.3625  0.4969
  855MOL0     H17947   3.912  11.655   6.775  2.6246 -3.2569 -1.2646
  855MOL0     H17948   3.783  11.808   6.671 -0.2224  4.2802 -0.9779
  855MOL0     H17949   3.780  12.014   6.634  0.8257 -1.5305  0.1021
  855MOL0     H17950   3.612  12.046   6.567 -0.0448  1.6842 -0.9487
  855MOL0     H17951   3.747  12.099   6.474  1.5666 -0.2613  0.7591
  855MOL0     H17952   3.631  12.273   6.150  0.6990 -0.6874 -3.1516
  855MOL0     H17953   3.485  12.367   5.983  0.2026  1.7725  1.1893
  855MOL0     H17954   3.164  12.471   6.026 -3.2536 -2.5985 -1.7228
  855MOL0     H17955   3.300  12.497   5.915 -0.3208 -0.8259 -2.0998
  855MOL0     H17956   3.129  12.443   5.724  3.0174  1.4083  0.0558
  855MOL0     H17957   3.009  12.425   5.840  1.8410 -2.5704 -0.8520
  855MOL0     H17958   3.020  12.648   5.712 -2.1803 -2.9056 -0.2726
  855MOL0     H17959   3.149  12.697   5.828 -0.4023 -0.8961  0.0250
  855MOL0     H17960   3.001  12.633   6.021  2.2319  0.8140 -0.9014
  855MOL0     H17961   2.873  12.598   5.894 -1.3111  1.5817  0.5150
  855MOL0     H17962   3.007  12.858   5.967 -1.3934  2.3552 -2.4104
  855MOL0     H17963   2.891  12.845   5.836  0.3023 -2.3958 -1.6186
  855MOL0     H17964   2.825  12.937   6.059  0.2728  0.7439 -2.9831
  855MOL0     H17965   2.853  12.773   6.126 -3.0904 -1.2619  0.1027
  855MOL0     H17966   2.635  12.735   6.102 -2.5591 -0.2873 -1.7477
  855MOL0     H17967   2.677  12.700   5.934  0.1975  1.7239 -2.0911
  855MOL0     H17968   2.577  12.967   6.034  0.6110  0.3811 -0.7304
  855MOL0     H17969   2.475  12.848   5.949 -0.9221  0.5245  0.6380
  855MOL0     H17970   3.171  12.096   6.114  1.6684 -0.5318  0.6729
  855MOL0     H17971   3.319  12.003   6.271 -0.8046  0.0230 -0.6741
  855MOL0     H17972   3.732  11.713   6.190  2.1388 -0.2754 -0.6221
  855MOL0     H17973   3.809  11.540   6.351 -2.3488 -1.3647  3.9155
  855MOL0     H17974   3.177  10.632   7.778  1.1257 -0.0226 -1.9617
  855MOL0     H17975   3.066  10.453   7.895 -0.5747  0.8571 -0.7311
  855MOL0     H17976   2.988   9.913   7.803  2.2323 -0.6370 -1.4712
  855MOL0     H17977   2.880   9.716   7.934  1.5261 -1.9668  2.2828
  855MOL0     H17978   2.695   9.768   8.175 -0.8847 -0.0912 -1.2075
  855MOL0     H17979   2.725   9.623   8.077 -1.6740 -1.4271  1.6136
  855MOL0     H17980   2.760   9.625   8.369 -1.7734 -4.3615  2.7438
  855MOL0     H17981   2.788   9.489   8.268  0.8843  1.7578 -2.8054
  855MOL0     H17982   2.511   9.623   8.324  0.5865 -0.9928  4.5984
  855MOL0     H17983   2.536   9.498   8.194  0.5149  1.2704 -1.1072
  855MOL0     H17984   2.618   9.336   8.357  4.2263  1.0735  3.3780
  855MOL0     H17985   2.448   9.372   8.387 -0.6383  0.2019 -2.4206
  855MOL0     H17986   2.604   9.528   8.747 -0.2557  0.1181  0.1950
  855MOL0     H17987   3.020   9.866   8.288 -2.7364 -0.3534  0.1611
  855MOL0     H17988   3.272  10.114   8.157  2.4107 -0.3488  2.1154
  855MOL0     H17989   3.154  10.114   8.282  0.9417  1.0215 -0.7297
  855MOL0     H17990   3.264   9.981   8.271 -1.5157  0.4395  1.6411
  856MOL0     O17991   9.723   7.407   0.110 -0.5866  0.1536 -0.1690
  856MOL0     C17992   9.656   7.425   0.008 -0.1682  0.3486 -0.6452
  856MOL0     O17993   9.640   7.557  -0.051  0.4261  0.3577  0.7432
  856MOL0     C17994   9.689   7.671   0.002 -0.1842 -0.1126  0.3659
  856MOL0     C17995   9.704   7.704   0.129  0.0115  0.4438  0.0508
  856MOL0     C17996   9.741   7.836   0.177 -0.1017  0.3068 -0.0779
  856MOL0     C17997   9.762   7.937   0.085  0.5937  0.7744 -0.2935
  856MOL0     O17998   9.796   8.068   0.107 -0.7504 -0.2036  0.5251
  856MOL0     C17999   9.907   8.088   0.201 -0.3196  0.8234  0.1534
  856MOL0     C18000   9.887   8.214   0.284  0.1363 -0.0454 -0.6281
  856MOL0     C18001   9.781   8.190   0.387 -0.2104 -0.4111  0.5001
  856MOL0     C18002   9.754   8.313   0.472  1.2659  0.4167  0.2102
  856MOL0     C18003   9.622   8.310   0.543 -0.6780  0.3080 -0.1343
  856MOL0     C18004   9.606   8.212   0.664 -0.9022 -0.4591 -0.1348
  856MOL0     C18005   9.481   8.251   0.753  0.3721 -0.2968 -0.4513
  856MOL0     C18006   9.466   8.169   0.877  0.2246  0.2714 -0.2470
  856MOL0     N18007   9.409   8.037   0.855  0.0270  0.3574  0.7461
  856MOL0     C18008   9.279   8.015   0.880 -0.8419  0.2516 -0.3387
  856MOL0     C18009   9.274   7.882   0.923 -0.8418 -0.5753  0.5211
  856MOL0     C18010   9.146   7.814   0.959  0.2840 -0.3991 -0.3992
  856MOL0     C18011   9.038   7.802   0.857 -0.7185 -0.4112 -0.2755
  856MOL0     C18012   8.892   7.796   0.908  0.2826  1.4647 -0.9389
  856MOL0     C18013   8.864   7.688   1.004 -0.2759 -0.4767 -0.5967
  856MOL0     O18014   8.894   7.553   0.958  0.4551 -0.6627 -0.2315
  856MOL0     C18015   8.889   7.444   1.050 -0.4155  0.3561 -0.1509
  856MOL0     C18016   8.941   7.326   1.012 -0.4003  0.4071  0.1537
  856MOL0     C18017   8.952   7.222   1.102  0.5790  0.6457  0.5069
  856MOL0     C18018   9.013   7.094   1.049 -0.0857 -0.5451  0.4500
  856MOL0     C18019   8.912   7.233   1.241 -1.0053  0.1266 -0.6309
  856MOL0     C18020   8.937   7.123   1.345  0.7043 -0.1217  0.5892
  856MOL0     O18021   9.012   7.014   1.308  0.1841 -0.0378 -0.7164
  856MOL0     C18022   9.020   6.901   1.386  0.3561 -0.2319 -0.4252
  856MOL0     C18023   9.149   6.837   1.384  0.3581  1.1549 -0.9058
  856MOL0     C18024   9.167   6.727   1.463  0.2518 -1.4519  0.3715
  856MOL0     C18025   9.072   6.684   1.554 -0.6575 -0.4348 -0.9821
  856MOL0     O18026   9.086   6.566   1.618  0.5468  0.4384 -0.6805
  856MOL0     C18027   9.218   6.510   1.636 -0.1953  0.5078  0.9687
  856MOL0     C18028   9.207   6.418   1.756 -0.0449  0.1261  0.3662
  856MOL0     C18029   9.320   6.322   1.740 -0.4548  0.0856 -0.4575
  856MOL0     C18030   9.337   6.205   1.840 -0.1860  0.5550  0.9329
  856MOL0     C18031   9.472   6.119   1.834  0.4695 -0.8930  0.2949
  856MOL0     C18032   9.455   5.995   1.926 -0.0423  0.1571  0.3052
  856MOL0     C18033   9.595   5.928   1.933 -0.8057 -0.3653 -1.2630
  856MOL0     C18034   9.594   5.822   2.045  0.1779 -1.2949 -0.3075
  856MOL0    Cl18035   9.500   5.678   1.980  0.3864 -0.3505 -0.6751
  856MOL0     C18036   8.959   6.756   1.564  0.6476  0.9100 -0.2467
  856MOL0     C18037   8.934   6.862   1.482 -0.2128 -0.4721 -0.5955
  856MOL0     O18038   8.886   7.139   1.455  0.3001  0.8999 -0.1485
  856MOL0     C18039   8.855   7.356   1.276  0.4632  0.8227  0.7583
  856MOL0     C18040   8.842   7.456   1.177 -0.4704 -0.0548 -0.0949
  856MOL0     N18041   9.405   7.833   0.914 -0.8884  0.6757  0.0756
  856MOL0     N18042   9.484   7.927   0.878  0.2834  1.1053  1.0838
  856MOL0     C18043   9.741   7.901  -0.050 -0.6736 -0.1139  0.0881
  856MOL0     C18044   9.708   7.772  -0.087 -0.3604 -0.7258  0.7063
  856MOL0     C18045   9.583   7.312  -0.054 -0.0259  0.2476 -0.3077
  856MOL0     C18046   9.469   7.342  -0.139 -0.4756 -0.1027  0.2742
  856MOL0     C18047   9.400   7.248  -0.211  0.5362 -0.4034  0.1525
  856MOL0     C18048   9.452   7.129  -0.225  0.4965  0.6327  0.1735
  856MOL0     O18049   9.400   7.051  -0.325 -0.4641 -0.4741 -0.0767
  856MOL0     C18050   9.439   6.912  -0.352  0.0941 -0.0937 -0.4870
  856MOL0     C18051   9.562   6.904  -0.446  0.7120  0.0084 -0.3309
  856MOL0     C18052   9.613   6.757  -0.472 -0.1027 -1.3803 -0.2988
  856MOL0     C18053   9.731   6.765  -0.568 -0.8564  0.8324  0.3003
  856MOL0     C18054   9.753   6.632  -0.637  0.2969  0.6863 -0.9424
  856MOL0     C18055   9.786   6.529  -0.696 -0.2193  1.5602 -0.3334
  856MOL0     C18056   9.546   7.091  -0.135 -0.4152 -0.4242  0.1036
  856MOL0     C18057   9.622   7.178  -0.060  0.7003 -0.1743 -0.8455
  856MOL0     C18058   9.718   7.119   0.035  0.7892  0.2456  0.2922
  856MOL0     H18059   9.693   7.625   0.203  0.7414  1.1715  0.9726
  856MOL0     H18060   9.770   7.854   0.280 -0.2262  1.1087 -0.1744
  856MOL0     H18061   9.992   8.103   0.134  1.5373  0.2960  2.2847
  856MOL0     H18062   9.931   8.008   0.272 -0.8482  0.6047  0.0936
  856MOL0     H18063   9.986   8.233   0.326  0.1226 -0.6790 -0.3026
  856MOL0     H18064   9.865   8.302   0.223  1.7021 -0.9921 -2.7023
  856MOL0     H18065   9.688   8.179   0.331  0.5494 -1.6291 -0.5718
  856MOL0     H18066   9.799   8.096   0.441  0.8189 -1.8809 -2.2026
  856MOL0     H18067   9.836   8.334   0.541  0.7494  1.3733  0.5511
  856MOL0     H18068   9.755   8.400   0.405  2.0272  0.5569  0.4006
  856MOL0     H18069   9.550   8.278   0.467  1.2640  0.2295 -2.0297
  856MOL0     H18070   9.604   8.416   0.563  2.8921  0.8943  0.6224
  856MOL0     H18071   9.589   8.114   0.618 -1.2615 -0.9672  1.0413
  856MOL0     H18072   9.699   8.217   0.720  1.6081  4.6704 -3.9330
  856MOL0     H18073   9.392   8.254   0.689 -2.2281 -0.5119  2.8957
  856MOL0     H18074   9.510   8.353   0.781  1.7994  0.1435 -3.2315
  856MOL0     H18075   9.560   8.170   0.934 -0.8768  2.1128  1.6695
  856MOL0     H18076   9.390   8.207   0.945  0.1203 -0.9532  0.3516
  856MOL0     H18077   9.198   8.086   0.892  0.1959  1.2421  1.1714
  856MOL0     H18078   9.096   7.874   1.035  0.7191  0.2845 -0.6460
  856MOL0     H18079   9.164   7.714   1.000 -2.3159 -0.4594  0.7422
  856MOL0     H18080   9.045   7.895   0.801  4.2843 -0.8155 -0.7210
  856MOL0     H18081   9.066   7.720   0.791  2.0577  0.6239 -0.4850
  856MOL0     H18082   8.858   7.889   0.955 -4.0548 -1.0125  1.4066
  856MOL0     H18083   8.831   7.786   0.818 -0.3754 -1.6578 -0.2577
  856MOL0     H18084   8.918   7.705   1.098 -0.9350 -1.8323  0.0521
  856MOL0     H18085   8.758   7.703   1.029 -0.5767  0.0505 -2.0838
  856MOL0     H18086   8.992   7.334   0.917 -0.1090  2.0008  0.4054
  856MOL0     H18087   8.936   7.016   1.055 -1.1560  0.3901 -0.5375
  856MOL0     H18088   9.115   7.079   1.085  0.3151 -2.5793 -1.3922
  856MOL0     H18089   9.025   7.103   0.941 -1.4710 -0.9345  0.2389
  856MOL0     H18090   9.219   6.871   1.308  1.2576 -0.1176 -0.6642
  856MOL0     H18091   9.260   6.673   1.450  1.5603  0.1054  2.7095
  856MOL0     H18092   9.237   6.442   1.552 -0.4275  0.5797  0.8557
  856MOL0     H18093   9.299   6.581   1.653  1.9023 -1.1441 -1.3444
  856MOL0     H18094   9.214   6.480   1.846  0.1621 -0.6116  0.8676
  856MOL0     H18095   9.115   6.359   1.758  0.7368 -1.2681 -1.5849
  856MOL0     H18096   9.409   6.384   1.732 -0.5681  0.0849 -2.2966
  856MOL0     H18097   9.302   6.267   1.647  0.3959  2.7298 -2.3042
  856MOL0     H18098   9.257   6.133   1.821  1.0547 -0.9773  1.2820
  856MOL0     H18099   9.314   6.245   1.939  1.4472 -2.4757  2.6703
  856MOL0     H18100   9.490   6.095   1.729  0.4448 -0.7203  0.2506
  856MOL0     H18101   9.556   6.184   1.856 -0.9074  0.3470  2.2515
  856MOL0     H18102   9.394   5.921   1.873  0.6175  0.5020 -0.9858
  856MOL0     H18103   9.411   6.017   2.023  1.0253 -0.2153  0.8912
  856MOL0     H18104   9.664   6.006   1.966 -2.0293 -0.2485  1.2832
  856MOL0     H18105   9.627   5.875   1.843 -0.2836  1.9581 -2.5265
  856MOL0     H18106   9.555   5.864   2.138  1.2119  1.2070 -0.9420
  856MOL0     H18107   9.692   5.780   2.071 -0.2489 -2.1994 -0.0990
  856MOL0     H18108   8.885   6.713   1.630  1.4833  0.8749  0.6842
  856MOL0     H18109   8.831   6.894   1.469  0.1189  0.8349 -0.1551
  856MOL0     H18110   8.826   7.377   1.379  2.9226  0.2355  1.6431
  856MOL0     H18111   8.802   7.551   1.212  0.3650  0.0418  0.6209
  856MOL0     H18112   9.757   7.980  -0.123  1.4298  0.1293  0.7278
  856MOL0     H18113   9.683   7.759  -0.192 -0.4008  0.2184  0.5910
  856MOL0     H18114   9.447   7.449  -0.140  0.7573  0.1807  0.8475
  856MOL0     H18115   9.319   7.293  -0.267  0.1402  0.6485  1.5080
  856MOL0     H18116   9.461   6.858  -0.260 -3.3999  1.2245  1.3269
  856MOL0     H18117   9.348   6.875  -0.400  0.1180  1.8530 -2.1564
  856MOL0     H18118   9.637   6.975  -0.409  1.3035 -0.5101 -0.5186
  856MOL0     H18119   9.532   6.953  -0.539  0.7989 -1.4071 -1.1310
  856MOL0     H18120   9.648   6.711  -0.379 -0.3554 -1.3105 -0.1664
  856MOL0     H18121   9.523   6.704  -0.505  0.1055 -1.1771 -1.2213
  856MOL0     H18122   9.829   6.795  -0.528 -0.2255 -1.1210  0.3601
  856MOL0     H18123   9.716   6.826  -0.658  0.2920 -0.5052 -0.8536
  856MOL0     H18124   9.805   6.425  -0.715  0.7935  1.2406  1.9775
  856MOL0     H18125   9.572   6.986  -0.126  0.1076 -0.1478  2.1626
  856MOL0     H18126   9.819   7.163   0.036 -0.5696  3.7630 -1.4866
  856MOL0     H18127   9.675   7.134   0.134  0.1363 -0.7166  0.1670
  856MOL0     H18128   9.732   7.011   0.023  1.3163  0.4522 -1.1955
  857MOL0     O18129   9.663   5.290   5.333  0.2245  0.2687  0.2608
  857MOL0     C18130   9.747   5.215   5.287  0.2894  0.2247 -0.5036
  857MOL0     O18131   9.730   5.081   5.257  0.1250  0.7711 -0.4850
  857MOL0     C18132   9.637   4.998   5.329 -0.5326 -0.3188  0.2900
  857MOL0     C18133   9.615   5.016   5.470 -0.3065 -0.2326  0.5824
  857MOL0     C18134   9.527   4.932   5.538  1.1529 -0.1950  0.0182
  857MOL0     C18135   9.450   4.842   5.466  1.2087 -0.5523 -0.0967
  857MOL0     O18136   9.351   4.774   5.535  0.9297  0.5235 -0.1023
  857MOL0     C18137   9.257   4.680   5.477 -0.3607  0.1009 -0.2049
  857MOL0     C18138   9.128   4.672   5.546 -1.0068  0.7693 -0.8265
  857MOL0     C18139   9.046   4.550   5.497 -1.2008 -0.4502 -0.2254
  857MOL0     C18140   8.938   4.517   5.591  0.7026 -0.0184  0.5723
  857MOL0     C18141   8.867   4.388   5.533  0.3726  0.4802  1.4628
  857MOL0     C18142   8.717   4.382   5.567  0.1371  0.2581 -0.5811
  857MOL0     C18143   8.700   4.392   5.719 -0.7568 -0.5331 -0.1441
  857MOL0     C18144   8.566   4.370   5.760 -0.1437  0.5041 -0.5694
  857MOL0     N18145   8.562   4.377   5.903  0.1060  0.0582 -0.3251
  857MOL0     C18146   8.573   4.500   5.974 -0.0421  0.0711 -0.3020
  857MOL0     C18147   8.587   4.450   6.108  0.4899  0.0253 -0.5435
  857MOL0     C18148   8.587   4.523   6.236  0.4106  1.6008 -0.3348
  857MOL0     C18149   8.517   4.446   6.349 -0.4957  0.3377  0.2506
  857MOL0     C18150   8.543   4.502   6.489  0.0200 -0.0725 -0.9729
  857MOL0     C18151   8.435   4.457   6.583  0.7155  0.2487  0.5802
  857MOL0     O18152   8.408   4.320   6.586  0.1649 -0.0243  0.0888
  857MOL0     C18153   8.481   4.221   6.648  0.9367  0.4502 -0.5615
  857MOL0     C18154   8.444   4.092   6.625  0.5222  0.0720  1.1735
  857MOL0     C18155   8.516   3.986   6.671 -0.4261 -0.4005  0.6328
  857MOL0     C18156   8.470   3.849   6.632 -0.5536  1.0038  0.2590
  857MOL0     C18157   8.633   4.012   6.752 -0.2483 -0.0206 -0.7571
  857MOL0     C18158   8.724   3.906   6.809 -1.1346 -0.1684  0.3555
  857MOL0     O18159   8.830   3.958   6.884 -0.4754  0.6193 -0.4857
  857MOL0     C18160   8.897   3.862   6.959 -0.1803 -0.8293 -0.5065
  857MOL0     C18161   8.901   3.870   7.100  0.9671  0.2636  0.0288
  857MOL0     C18162   8.965   3.777   7.173  0.3655 -0.0387  0.0768
  857MOL0     C18163   9.030   3.664   7.107  0.2487  0.4625 -0.2286
  857MOL0     O18164   9.089   3.550   7.161  0.5437 -0.3133  0.1759
  857MOL0     C18165   9.082   3.549   7.308  0.4005  0.0854  0.4170
  857MOL0     C18166   9.172   3.438   7.368 -0.0651 -0.2291  0.2897
  857MOL0     C18167   9.327   3.459   7.356  0.2874  0.6157  0.2876
  857MOL0     C18168   9.400   3.341   7.419 -0.0259  0.3938 -0.1990
  857MOL0     C18169   9.551   3.334   7.398 -0.4894  0.9722 -0.0731
  857MOL0     C18170   9.611   3.287   7.259 -0.5961  0.2120 -1.1264
  857MOL0     C18171   9.772   3.307   7.238  0.1803 -0.2781  0.2871
  857MOL0     C18172   9.826   3.454   7.253 -0.8534 -0.7284  0.0699
  857MOL0    Cl18173   9.745   3.562   7.136 -0.5496  0.2036  0.5116
  857MOL0     C18174   9.025   3.660   6.971  0.8233  0.6674  0.8270
  857MOL0     C18175   8.968   3.761   6.898  0.2127  0.1188  0.3902
  857MOL0     O18176   8.723   3.789   6.764 -0.0490  0.5552  0.6509
  857MOL0     C18177   8.672   4.151   6.764 -0.4408  0.8377 -0.4902
  857MOL0     C18178   8.591   4.254   6.719 -0.9582  1.1300 -0.1235
  857MOL0     N18179   8.603   4.313   6.095 -0.3044 -0.8484 -0.1669
  857MOL0     N18180   8.578   4.270   5.980 -0.2387 -0.3993  0.0964
  857MOL0     C18181   9.477   4.816   5.335  1.1395 -0.3419  0.3623
  857MOL0     C18182   9.569   4.890   5.269  0.2530 -0.0611  0.3417
  857MOL0     C18183   9.856   5.277   5.214  0.4151 -0.8789  0.0096
  857MOL0     C18184   9.911   5.219   5.095  0.1690 -0.0604 -0.7554
  857MOL0     C18185  10.010   5.282   5.021  0.2964 -0.7165  0.1304
  857MOL0     C18186  10.043   5.417   5.038 -0.6844 -0.0229  0.7579
  857MOL0     O18187  10.127   5.475   4.942 -0.0670  0.2808  0.6123
  857MOL0     C18188  10.240   5.394   4.897 -0.0139 -0.4173  0.2416
  857MOL0     C18189  10.329   5.493   4.820  0.0362 -0.5910 -1.1125
  857MOL0     C18190  10.454   5.418   4.776 -0.2212  0.1159  0.9006
  857MOL0     C18191  10.543   5.391   4.889 -0.7542 -0.1209 -0.2407
  857MOL0     C18192  10.677   5.352   4.838  0.6702 -0.3678 -0.0236
  857MOL0     C18193  10.777   5.330   4.779 -0.2489  0.5134 -0.5866
  857MOL0     C18194   9.982   5.486   5.143 -0.2881  0.1875  0.9405
  857MOL0     C18195   9.904   5.414   5.240 -0.6210 -0.3888 -0.4081
  857MOL0     C18196   9.871   5.482   5.373  0.8563 -0.2983  0.6634
  857MOL0     H18197   9.664   5.101   5.517 -0.6664 -0.5080  1.4797
  857MOL0     H18198   9.517   4.961   5.642 -2.8409 -0.5214 -0.1107
  857MOL0     H18199   9.298   4.579   5.482 -4.0761 -1.5012  2.0577
  857MOL0     H18200   9.237   4.703   5.372 -0.7465 -2.8356 -0.8458
  857MOL0     H18201   9.150   4.653   5.652  0.7854 -2.3931 -1.6428
  857MOL0     H18202   9.084   4.772   5.542 -1.4482  0.6062 -0.2634
  857MOL0     H18203   9.014   4.545   5.393 -1.5756  1.2623 -0.2262
  857MOL0     H18204   9.110   4.461   5.501 -0.5781  0.0288  2.1197
  857MOL0     H18205   8.968   4.502   5.695 -1.8746  1.2062  1.6003
  857MOL0     H18206   8.869   4.602   5.594 -1.6098 -1.5789 -2.6361
  857MOL0     H18207   8.908   4.291   5.562 -1.9894 -1.3960 -0.9044
  857MOL0     H18208   8.863   4.382   5.424 -0.3387 -1.2276  1.5447
  857MOL0     H18209   8.657   4.459   5.517 -1.2008 -0.3207  0.0870
  857MOL0     H18210   8.674   4.294   5.517 -1.3875  1.0047 -0.6339
  857MOL0     H18211   8.732   4.491   5.753 -1.3086 -0.3961 -0.0157
  857MOL0     H18212   8.774   4.331   5.773  2.8461  2.0435 -1.7585
  857MOL0     H18213   8.510   4.451   5.712  0.2867  0.4771 -1.1381
  857MOL0     H18214   8.527   4.278   5.716  0.2680  0.4898 -0.9123
  857MOL0     H18215   8.552   4.601   5.938 -0.1004  0.1909  0.0653
  857MOL0     H18216   8.534   4.617   6.222  0.4977  1.6125 -0.5942
  857MOL0     H18217   8.690   4.543   6.267  0.1373  1.7670  0.4898
  857MOL0     H18218   8.411   4.443   6.322 -0.1661 -0.3577 -1.0096
  857MOL0     H18219   8.561   4.346   6.345  0.8626  0.9545 -1.3486
  857MOL0     H18220   8.645   4.483   6.522 -0.2735 -2.9163 -1.4459
  857MOL0     H18221   8.533   4.610   6.472  3.7181  0.7640  1.1795
  857MOL0     H18222   8.450   4.484   6.688 -0.7774 -1.0114  1.1620
  857MOL0     H18223   8.347   4.511   6.546  2.7485  2.1488 -1.8199
  857MOL0     H18224   8.364   4.073   6.554 -0.5088  1.0470  2.0440
  857MOL0     H18225   8.550   3.806   6.570  2.4128  2.5046  2.7229
  857MOL0     H18226   8.377   3.849   6.576 -1.4473  0.9302  1.6978
  857MOL0     H18227   8.469   3.780   6.717 -1.2356 -0.8110 -1.1627
  857MOL0     H18228   8.863   3.956   7.153  4.0922  1.7470  0.0729
  857MOL0     H18229   8.943   3.780   7.280  2.5961 -0.0488  0.5715
  857MOL0     H18230   9.115   3.640   7.358 -1.2717  0.0070  1.7823
  857MOL0     H18231   8.977   3.530   7.333 -0.5494 -0.0700 -3.1226
  857MOL0     H18232   9.159   3.423   7.475 -0.8464  0.6433  0.3325
  857MOL0     H18233   9.151   3.344   7.316  0.4862 -0.7826  1.0594
  857MOL0     H18234   9.356   3.556   7.398 -2.1081  1.1826  0.7670
  857MOL0     H18235   9.352   3.457   7.250 -3.1103  0.2462 -0.6156
  857MOL0     H18236   9.352   3.252   7.378  0.2128  0.5598 -0.8522
  857MOL0     H18237   9.380   3.338   7.526 -0.4130  0.7164 -0.2604
  857MOL0     H18238   9.580   3.439   7.409  1.6157  0.3602  0.6858
  857MOL0     H18239   9.607   3.276   7.472 -0.6388  1.2103  0.2275
  857MOL0     H18240   9.565   3.344   7.178 -0.2025 -1.9602 -2.9778
  857MOL0     H18241   9.579   3.183   7.246 -0.6118  0.0160  0.2865
  857MOL0     H18242   9.794   3.271   7.137 -1.2423 -1.6357  0.4178
  857MOL0     H18243   9.820   3.238   7.308 -1.3252 -0.3647  1.2879
  857MOL0     H18244   9.935   3.464   7.249 -1.0069  1.2607 -0.3417
  857MOL0     H18245   9.807   3.502   7.349 -1.0578  0.2178 -0.4346
  857MOL0     H18246   9.064   3.579   6.909 -3.4965 -0.8340 -0.3165
  857MOL0     H18247   8.985   3.751   6.791 -0.4242 -0.0076  0.2924
  857MOL0     H18248   8.757   4.188   6.821 -0.6640  0.7799 -0.1140
  857MOL0     H18249   8.623   4.357   6.718 -1.1013  1.1755 -0.0705
  857MOL0     H18250   9.437   4.735   5.274  4.1960 -2.0811  0.4929
  857MOL0     H18251   9.594   4.862   5.167 -0.1908 -0.5056  0.3530
  857MOL0     H18252   9.877   5.120   5.068 -0.2984 -0.8529  2.3156
  857MOL0     H18253  10.048   5.239   4.928 -0.5258 -2.1971  0.4591
  857MOL0     H18254  10.302   5.353   4.977  3.5250 -0.2865 -2.2052
  857MOL0     H18255  10.200   5.316   4.831 -1.0136  1.1495 -1.0888
  857MOL0     H18256  10.346   5.583   4.881  0.7946  0.6368 -3.0427
  857MOL0     H18257  10.276   5.520   4.728 -1.3351 -0.9327 -0.4521
  857MOL0     H18258  10.426   5.320   4.737  4.5826 -0.5048 -1.7871
  857MOL0     H18259  10.503   5.459   4.687  1.2551 -3.9283 -0.3538
  857MOL0     H18260  10.494   5.313   4.949  2.3232 -0.4928  2.0072
  857MOL0     H18261  10.538   5.478   4.956 -0.1361 -1.4182  1.5588
  857MOL0     H18262  10.871   5.291   4.746 -1.3027 -2.0719 -0.8197
  857MOL0     H18263  10.000   5.591   5.166  0.1689  1.1661 -3.1253
  857MOL0     H18264   9.968   5.502   5.419 -0.5132 -0.4005  3.7897
  857MOL0     H18265   9.817   5.576   5.361 -0.1415 -1.0415 -1.1031
  857MOL0     H18266   9.814   5.430   5.450  0.1322  2.7743  2.3452
  858MOL0     O18267   1.821  10.349   6.366  0.5009 -0.1355 -0.0503
  858MOL0     C18268   1.802  10.251   6.295  0.4100 -0.3723 -0.7359
  858MOL0     O18269   1.902  10.151   6.260  0.0345  0.2479  0.3497
  858MOL0     C18270   2.035  10.202   6.244  0.6218 -0.0518  0.3957
  858MOL0     C18271   2.136  10.106   6.218 -0.5843  0.7355  0.5210
  858MOL0     C18272   2.269  10.141   6.183 -0.8511 -0.6970  0.3064
  858MOL0     C18273   2.304  10.278   6.184  0.3538  0.2641 -0.9055
  858MOL0     O18274   2.430  10.324   6.147  0.5621 -0.4428  0.2970
  858MOL0     C18275   2.459  10.466   6.135 -0.7050  0.1174 -0.0033
  858MOL0     C18276   2.574  10.494   6.049  0.2636 -0.3916  0.4938
  858MOL0     C18277   2.535  10.487   5.895 -1.1754  0.1102 -0.1563
  858MOL0     C18278   2.653  10.525   5.806 -0.0624 -0.4694 -0.3858
  858MOL0     C18279   2.609  10.534   5.651 -1.3789 -0.2541  0.6227
  858MOL0     C18280   2.729  10.582   5.566 -0.4619  0.4859  0.7044
  858MOL0     C18281   2.684  10.710   5.497 -0.4408  0.5637  0.8567
  858MOL0     C18282   2.791  10.783   5.404 -0.2420  0.2310 -0.1340
  858MOL0     N18283   2.739  10.914   5.361 -0.8487 -0.0403 -0.0891
  858MOL0     C18284   2.667  10.944   5.242 -0.3328 -0.4498  0.1670
  858MOL0     C18285   2.652  11.076   5.236  0.9811  0.8452 -0.2666
  858MOL0     C18286   2.570  11.154   5.132 -0.0195 -0.0091 -0.0839
  858MOL0     C18287   2.412  11.126   5.140 -0.1867  0.1011 -0.6802
  858MOL0     C18288   2.330  11.253   5.138 -0.8140  0.2503  0.4111
  858MOL0     C18289   2.327  11.338   5.007 -0.6089  0.3177  0.5780
  858MOL0     O18290   2.267  11.271   4.899  0.0936 -0.3566  0.5786
  858MOL0     C18291   2.203  11.355   4.804 -0.2440 -0.6539  1.1213
  858MOL0     C18292   2.111  11.297   4.717  1.4286 -0.1509  0.9779
  858MOL0     C18293   2.048  11.379   4.618  0.1484 -0.0175 -0.4293
  858MOL0     C18294   1.968  11.301   4.511 -0.5670 -0.0764 -0.4180
  858MOL0     C18295   2.071  11.521   4.613 -0.6266  0.8043  0.4149
  858MOL0     C18296   2.009  11.611   4.511  0.0607  0.2093 -0.3667
  858MOL0     O18297   2.076  11.722   4.483 -0.3183 -0.4661  0.1513
  858MOL0     C18298   2.007  11.835   4.460  0.0128 -0.1246 -0.5016
  858MOL0     C18299   2.002  11.888   4.333  0.2712 -0.8871 -0.0511
  858MOL0     C18300   1.943  12.012   4.304  0.4264 -0.6676  0.8913
  858MOL0     C18301   1.886  12.084   4.409  0.3682 -0.1063 -0.5418
  858MOL0     O18302   1.838  12.214   4.400  0.0960  1.0558  0.3400
  858MOL0     C18303   1.882  12.307   4.293 -0.4952  0.4231  0.2447
  858MOL0     C18304   1.812  12.265   4.162 -0.1541  0.0705  0.6111
  858MOL0     C18305   1.902  12.287   4.039  0.7950  0.8635 -0.3877
  858MOL0     C18306   1.820  12.258   3.911 -0.2413  0.6826  0.8802
  858MOL0     C18307   1.911  12.269   3.790  0.1987 -0.1816 -0.4077
  858MOL0     C18308   1.916  12.417   3.747 -0.3022  0.2490  0.1129
  858MOL0     C18309   1.991  12.438   3.613 -0.3678 -0.1653 -0.3025
  858MOL0     C18310   1.916  12.371   3.501  0.4909  0.2984  0.7518
  858MOL0    Cl18311   2.000  12.436   3.352  0.5097  0.9267 -0.6082
  858MOL0     C18312   1.880  12.023   4.536  0.5820 -0.4180  0.4900
  858MOL0     C18313   1.940  11.902   4.564  0.5184  0.0041  0.2198
  858MOL0     O18314   1.889  11.594   4.484  0.7095 -0.2976  0.3148
  858MOL0     C18315   2.158  11.578   4.711 -0.4864 -0.3419 -0.2300
  858MOL0     C18316   2.229  11.495   4.794  0.6757 -0.3079 -0.2915
  858MOL0     N18317   2.703  11.125   5.359 -0.1566  0.3730 -0.6339
  858MOL0     N18318   2.763  11.028   5.425 -0.2121  1.0580  0.2761
  858MOL0     C18319   2.205  10.370   6.226 -0.2285 -0.1504  0.4280
  858MOL0     C18320   2.072  10.331   6.248 -0.7668 -0.3173  0.6282
  858MOL0     C18321   1.654  10.210   6.286  0.0280  0.0426  0.0434
  858MOL0     C18322   1.615  10.081   6.292  0.4010 -0.8009 -1.0252
  858MOL0     C18323   1.484  10.047   6.286  1.0860  1.0613  0.0315
  858MOL0     C18324   1.378  10.139   6.262 -0.3264 -0.2009 -0.2059
  858MOL0     O18325   1.246  10.089   6.257  0.4699 -0.4939  1.1581
  858MOL0     C18326   1.158  10.150   6.158  0.2935  0.3973  0.5239
  858MOL0     C18327   1.021  10.083   6.172 -0.6876 -0.0717  0.4559
  858MOL0     C18328   0.914  10.192   6.163 -0.9932 -0.6192 -0.1520
  858MOL0     C18329   0.773  10.131   6.162  0.1362 -0.4360  0.1956
  858MOL0     C18330   0.742  10.076   6.030  0.1587 -0.0500 -0.5269
  858MOL0     C18331   0.723  10.030   5.921 -0.6521 -0.6937  0.2018
  858MOL0     C18332   1.426  10.270   6.250  0.1024 -0.0914 -0.4221
  858MOL0     C18333   1.555  10.311   6.265  0.4563 -0.3214 -0.0978
  858MOL0     C18334   1.575  10.458   6.265 -0.1062  0.1018 -0.4539
  858MOL0     H18335   2.100  10.004   6.211 -1.3583  1.0307  0.0710
  858MOL0     H18336   2.342  10.068   6.148  0.8116  1.2752 -0.5384
  858MOL0     H18337   2.478  10.505   6.235 -2.0751 -1.7106  1.0446
  858MOL0     H18338   2.367  10.510   6.094 -1.6723 -0.4705  1.4440
  858MOL0     H18339   2.596  10.600   6.065 -2.2628 -0.1119  2.8193
  858MOL0     H18340   2.660  10.433   6.077  0.8086 -2.1661 -4.1610
  858MOL0     H18341   2.520  10.381   5.872  0.7982 -0.9062  2.6601
  858MOL0     H18342   2.453  10.554   5.868 -0.6603  1.0459  0.5701
  858MOL0     H18343   2.694  10.620   5.842  0.9114 -0.7701 -0.6680
  858MOL0     H18344   2.721  10.440   5.820 -1.5457 -1.5217  0.8167
  858MOL0     H18345   2.524  10.603   5.644  0.4709  2.0690 -0.4474
  858MOL0     H18346   2.580  10.432   5.628  2.0248 -1.2836  0.3369
  858MOL0     H18347   2.814  10.614   5.627  0.4477  1.4165 -0.9872
  858MOL0     H18348   2.758  10.504   5.494 -0.4045  0.1965  1.0352
  858MOL0     H18349   2.650  10.787   5.567 -0.7926  1.0369  0.1878
  858MOL0     H18350   2.599  10.680   5.434  2.2960 -1.5789 -2.1057
  858MOL0     H18351   2.882  10.809   5.459  0.0844 -2.8062  0.9487
  858MOL0     H18352   2.810  10.724   5.314  0.7064  0.8079 -0.3357
  858MOL0     H18353   2.649  10.863   5.172  0.0359 -1.3687  1.1096
  858MOL0     H18354   2.599  11.138   5.028 -1.6150 -1.2439 -0.3888
  858MOL0     H18355   2.590  11.260   5.154  0.7866 -0.2338  0.2825
  858MOL0     H18356   2.385  11.071   5.049  1.5849  1.1711 -1.9154
  858MOL0     H18357   2.383  11.059   5.222 -1.1765  3.1101  1.5861
  858MOL0     H18358   2.225  11.226   5.143 -1.1181  0.7573 -1.9453
  858MOL0     H18359   2.349  11.321   5.221  1.3900  3.8605 -2.6989
  858MOL0     H18360   2.268  11.428   5.024 -0.2329  1.2465 -2.5423
  858MOL0     H18361   2.433  11.362   4.993  0.3817 -4.1643 -1.7939
  858MOL0     H18362   2.097  11.189   4.726  0.2712 -0.0038  1.0801
  858MOL0     H18363   1.992  11.343   4.413  0.8676 -1.2142 -0.6027
  858MOL0     H18364   1.861  11.322   4.509 -0.5093  0.2416 -0.2533
  858MOL0     H18365   1.986  11.193   4.512 -0.4041 -0.0465 -0.0876
  858MOL0     H18366   2.048  11.823   4.260  0.7663  1.6814 -2.1861
  858MOL0     H18367   1.957  12.040   4.200 -0.1462 -0.4065  0.8777
  858MOL0     H18368   1.863  12.410   4.324 -0.7850  0.5602 -0.3703
  858MOL0     H18369   1.990  12.296   4.283 -0.7704 -3.2712  0.0132
  858MOL0     H18370   1.784  12.160   4.174  2.3491 -0.6122  1.0102
  858MOL0     H18371   1.723  12.325   4.142 -1.7078 -2.2964 -0.0188
  858MOL0     H18372   1.985  12.215   4.043  1.5449  1.5998 -2.1006
  858MOL0     H18373   1.927  12.393   4.032  2.3477  0.5107 -0.5608
  858MOL0     H18374   1.736  12.325   3.890  1.6035  2.8106 -0.1391
  858MOL0     H18375   1.784  12.154   3.909  0.7481  0.3255 -0.9153
  858MOL0     H18376   2.011  12.226   3.799  0.8341  1.1724 -0.7259
  858MOL0     H18377   1.858  12.209   3.715 -0.6658 -1.9600  1.5392
  858MOL0     H18378   1.961  12.475   3.828 -3.8476 -0.0190  2.4588
  858MOL0     H18379   1.816  12.450   3.718  0.4346 -0.6492 -4.1334
  858MOL0     H18380   2.092  12.396   3.615 -0.1078  0.2829 -2.2132
  858MOL0     H18381   1.995  12.545   3.593  2.8984  0.2074  1.5916
  858MOL0     H18382   1.812  12.404   3.503  0.0073 -0.6455 -2.7620
  858MOL0     H18383   1.915  12.262   3.511 -4.3142 -0.0856 -1.4730
  858MOL0     H18384   1.836  12.089   4.610 -1.2759  1.6210 -2.2343
  858MOL0     H18385   1.952  11.868   4.666 -0.3484 -1.2027 -0.0484
  858MOL0     H18386   2.171  11.686   4.707 -1.8541 -0.1449  0.0704
  858MOL0     H18387   2.307  11.539   4.856  2.0235 -2.1267 -0.6215
  858MOL0     H18388   2.226  10.474   6.245  1.1197 -0.0816 -1.1928
  858MOL0     H18389   1.999  10.410   6.244 -0.4130 -0.0422 -2.4094
  858MOL0     H18390   1.690  10.011   6.327 -1.2721 -1.8738  0.6173
  858MOL0     H18391   1.458   9.942   6.302  1.1860  0.8902 -0.8534
  858MOL0     H18392   1.141  10.256   6.178 -0.4620  0.0532  1.8171
  858MOL0     H18393   1.198  10.145   6.056 -1.2908  0.2093 -0.1163
  858MOL0     H18394   1.009  10.038   6.271  0.4932 -2.7147 -0.5043
  858MOL0     H18395   1.019  10.017   6.085 -0.6852  0.1490  0.2865
  858MOL0     H18396   0.917  10.265   6.244 -0.4163  0.2707 -0.9497
  858MOL0     H18397   0.921  10.252   6.072 -2.7030  0.4394  0.3487
  858MOL0     H18398   0.699  10.209   6.184 -1.6387 -2.3199  1.2155
  858MOL0     H18399   0.766  10.058   6.243  0.3242  0.1633  0.7611
  858MOL0     H18400   0.688   9.994   5.826 -0.9549 -1.5203  0.6143
  858MOL0     H18401   1.346  10.341   6.231  0.3362  0.3317  0.1618
  858MOL0     H18402   1.477  10.506   6.259 -0.4808 -0.5629  0.2364
  858MOL0     H18403   1.619  10.490   6.361  0.8436 -0.4213 -0.6999
  858MOL0     H18404   1.644  10.496   6.189  0.3328 -1.1624 -0.6983
  859MOL0     O18405   9.165   8.577   8.277 -0.7166  0.1857 -0.2907
  859MOL0     C18406   9.123   8.487   8.343  0.4250  0.1242  0.0710
  859MOL0     O18407   9.198   8.389   8.387 -0.0403  0.3582 -0.1366
  859MOL0     C18408   9.330   8.395   8.375  0.4515 -0.7786 -0.0680
  859MOL0     C18409   9.412   8.418   8.489  0.0817 -0.9271  0.3031
  859MOL0     C18410   9.552   8.413   8.464  0.1696 -0.4840  0.3736
  859MOL0     C18411   9.608   8.393   8.333  0.3750  0.1237 -0.6473
  859MOL0     O18412   9.747   8.391   8.326  0.0720  0.2308  0.3460
  859MOL0     C18413   9.810   8.445   8.217 -1.4420 -0.0916  0.3553
  859MOL0     C18414   9.885   8.573   8.269  0.4322 -0.1024  1.2677
  859MOL0     C18415   9.993   8.614   8.172 -0.6521  0.6100  0.4137
  859MOL0     C18416   9.924   8.717   8.075 -0.4784 -0.5173  0.9639
  859MOL0     C18417  10.022   8.774   7.970  0.3903 -0.2753 -0.1212
  859MOL0     C18418  10.148   8.838   8.012 -0.3675 -0.1230  0.3844
  859MOL0     C18419  10.132   8.981   8.066 -0.3855  0.6004  0.4105
  859MOL0     C18420  10.062   9.074   7.968 -0.7464 -0.4683 -0.3439
  859MOL0     N18421  10.069   9.214   8.004 -0.6740 -0.1724  0.3208
  859MOL0     C18422  10.014   9.311   7.929  0.5515 -0.0341 -0.6624
  859MOL0     C18423  10.052   9.434   7.980  0.0885  0.4619  0.2090
  859MOL0     C18424  10.035   9.567   7.922  0.6242  1.0222  0.1602
  859MOL0     C18425  10.165   9.636   7.887  0.1637  0.0925  0.4555
  859MOL0     C18426  10.140   9.783   7.888  0.1363 -0.4794  0.3363
  859MOL0     C18427  10.131   9.834   8.033  0.3738  1.4555 -0.2159
  859MOL0     O18428  10.131   9.978   8.042  0.0679 -0.2960  0.3329
  859MOL0     C18429  10.080  10.039   8.152 -0.4406 -0.3230  0.3020
  859MOL0     C18430  10.031  10.164   8.139  0.1707  0.0732  0.0789
  859MOL0     C18431  10.011  10.243   8.255 -0.5360  0.2478  0.7979
  859MOL0     C18432   9.958  10.378   8.239 -0.2659  0.0869 -0.2128
  859MOL0     C18433  10.039  10.201   8.385 -0.1445 -0.2373  0.2224
  859MOL0     C18434  10.013  10.284   8.509 -1.1219 -0.6659  0.1093
  859MOL0     O18435  10.059  10.414   8.511 -0.2823 -0.4525  0.3392
  859MOL0     C18436  10.016  10.497   8.614  0.1117 -0.1589 -0.0078
  859MOL0     C18437   9.883  10.519   8.657 -0.0993  0.9549  0.3205
  859MOL0     C18438   9.858  10.598   8.766  0.3702  0.1090  0.2594
  859MOL0     C18439   9.964  10.671   8.829  0.2519  0.2577  0.2966
  859MOL0     O18440   9.956  10.740   8.948 -0.2498 -0.3322 -0.4013
  859MOL0     C18441   9.824  10.740   9.019  0.5978  0.5315 -0.4513
  859MOL0     C18442   9.837  10.803   9.157  0.3063  0.7809  0.1149
  859MOL0     C18443   9.848  10.952   9.152 -0.5973  0.2167  0.6376
  859MOL0     C18444   9.712  11.023   9.150 -0.4397  0.5501  0.8887
  859MOL0     C18445   9.709  11.173   9.195 -0.2600 -0.4418 -0.4912
  859MOL0     C18446   9.769  11.276   9.091  0.8873  0.3877  0.6983
  859MOL0     C18447   9.666  11.328   8.991  0.3824  0.1186 -0.8827
  859MOL0     C18448   9.533  11.368   9.044 -0.3227 -0.4206  0.3412
  859MOL0    Cl18449   9.567  11.493   9.167 -0.1261 -0.3328 -0.0268
  859MOL0     C18450  10.093  10.646   8.790  0.2338  0.5267 -0.0940
  859MOL0     C18451  10.121  10.559   8.681 -0.1622 -0.0389 -0.3074
  859MOL0     O18452   9.975  10.224   8.611  0.2449 -0.5371 -0.0017
  859MOL0     C18453  10.093  10.075   8.392 -0.4413 -0.3554 -0.1612
  859MOL0     C18454  10.110   9.993   8.279  0.6402  0.6485 -0.4701
  859MOL0     N18455  10.126   9.392   8.093 -0.1539  0.0191 -0.0996
  859MOL0     N18456  10.144   9.266   8.099 -1.4175  0.0840  1.0258
  859MOL0     C18457   9.522   8.370   8.221  0.1774 -0.4746 -0.5837
  859MOL0     C18458   9.387   8.373   8.245 -0.0700  0.9900 -1.2071
  859MOL0     C18459   8.969   8.482   8.361 -0.1509  0.4568  0.3274
  859MOL0     C18460   8.889   8.566   8.281  1.7818  0.3497 -0.3096
  859MOL0     C18461   8.752   8.572   8.292 -0.4575 -0.3819 -0.5802
  859MOL0     C18462   8.690   8.499   8.389  0.1939  0.1353 -0.3901
  859MOL0     O18463   8.562   8.491   8.424  0.1737  0.1538  0.2166
  859MOL0     C18464   8.492   8.398   8.353  0.8642 -0.6028 -0.6198
  859MOL0     C18465   8.344   8.454   8.328  0.2433 -0.2475 -0.3291
  859MOL0     C18466   8.254   8.461   8.459  0.2124  0.0295 -0.0978
  859MOL0     C18467   8.273   8.597   8.520 -0.5734 -0.9527  1.2732
  859MOL0     C18468   8.192   8.610   8.634  0.3424  0.3797 -0.4624
  859MOL0     C18469   8.146   8.603   8.748  0.3476 -0.3646 -0.7961
  859MOL0     C18470   8.766   8.415   8.467 -0.4469 -0.5393  0.3338
  859MOL0     C18471   8.908   8.409   8.466 -0.1278 -0.8781 -0.1281
  859MOL0     C18472   8.966   8.348   8.592 -1.1872  0.1732  0.0451
  859MOL0     H18473   9.375   8.429   8.590 -0.0159  0.2459  0.1542
  859MOL0     H18474   9.628   8.424   8.541  0.4723  0.2298 -0.0243
  859MOL0     H18475   9.747   8.476   8.133  1.8959  0.6500 -2.0878
  859MOL0     H18476   9.876   8.369   8.175  0.0158  0.3833  1.7107
  859MOL0     H18477   9.813   8.653   8.289 -1.6124 -1.5112 -0.0477
  859MOL0     H18478   9.927   8.545   8.366  1.0992 -0.5154  0.8667
  859MOL0     H18479  10.072   8.660   8.231 -0.7244  0.9020  0.2855
  859MOL0     H18480  10.029   8.528   8.116  0.0705 -2.0731  4.5767
  859MOL0     H18481   9.840   8.662   8.032 -0.1176 -0.9979  0.8579
  859MOL0     H18482   9.884   8.805   8.125  0.4855  0.4971  0.0109
  859MOL0     H18483   9.978   8.836   7.891  2.0627  2.3070  0.8361
  859MOL0     H18484  10.059   8.687   7.915 -0.5808 -1.6112  1.2626
  859MOL0     H18485  10.191   8.777   8.092 -0.3684  0.4212  0.8062
  859MOL0     H18486  10.218   8.838   7.927 -0.7608 -1.5303  0.0386
  859MOL0     H18487  10.235   9.013   8.078  1.2755 -3.7156 -0.3066
  859MOL0     H18488  10.077   8.981   8.160 -1.0422  1.4876  0.0327
  859MOL0     H18489  10.099   9.067   7.865  1.6318  1.5749  0.2409
  859MOL0     H18490   9.957   9.045   7.977 -0.9592  0.5839  0.8379
  859MOL0     H18491   9.963   9.299   7.835  0.7749 -1.3531 -0.6394
  859MOL0     H18492   9.970   9.627   7.987 -0.5866  0.5979 -0.6405
  859MOL0     H18493   9.977   9.570   7.830  1.3195 -0.3618 -0.3556
  859MOL0     H18494  10.241   9.612   7.961  1.6555  4.5885  0.6495
  859MOL0     H18495  10.204   9.612   7.788  0.5673 -1.0967  0.8750
  859MOL0     H18496  10.234   9.828   7.853 -0.1686 -1.2818 -1.6194
  859MOL0     H18497  10.057   9.811   7.822  1.9197  0.3407 -1.7077
  859MOL0     H18498  10.040   9.796   8.079 -0.9177  1.6741 -2.4516
  859MOL0     H18499  10.208   9.783   8.091 -1.7972 -0.0109  1.5391
  859MOL0     H18500  10.014  10.201   8.038 -0.7260 -1.6993 -0.4745
  859MOL0     H18501  10.041  10.451   8.237 -2.0821  2.2702 -0.0797
  859MOL0     H18502   9.903  10.409   8.328  3.5223 -0.0378  2.4129
  859MOL0     H18503   9.913  10.406   8.144  1.0378  4.2582  0.1569
  859MOL0     H18504   9.803  10.461   8.614 -0.8997  2.4266 -0.2415
  859MOL0     H18505   9.753  10.615   8.791  0.1167 -0.6987 -0.2158
  859MOL0     H18506   9.749  10.798   8.964 -0.0415 -1.8712 -2.2924
  859MOL0     H18507   9.782  10.640   9.031 -0.5757  0.8159 -1.8545
  859MOL0     H18508   9.744  10.782   9.210  2.1839  0.1701  3.4328
  859MOL0     H18509   9.911  10.758   9.224 -3.0626 -3.1382  1.5995
  859MOL0     H18510   9.902  10.983   9.062  0.9230 -1.5841  0.8594
  859MOL0     H18511   9.902  10.969   9.246  0.5250 -0.4212  0.1331
  859MOL0     H18512   9.648  10.966   9.218 -2.3413 -1.3225 -2.1979
  859MOL0     H18513   9.660  11.005   9.055  2.4691 -0.1047 -0.7122
  859MOL0     H18514   9.607  11.199   9.227 -1.3915 -2.6653 -2.0622
  859MOL0     H18515   9.760  11.181   9.292 -0.8975 -2.4674  0.0661
  859MOL0     H18516   9.846  11.226   9.032  2.2341  0.6002  2.2253
  859MOL0     H18517   9.815  11.359   9.144  1.9819  0.8103 -0.8516
  859MOL0     H18518   9.658  11.245   8.921  1.9350  0.8469 -2.0003
  859MOL0     H18519   9.717  11.410   8.938  0.4733  1.1354  0.6920
  859MOL0     H18520   9.481  11.279   9.081 -1.2152  1.2476  3.4386
  859MOL0     H18521   9.480  11.408   8.957  0.5439  1.1497  0.5024
  859MOL0     H18522  10.182  10.697   8.826  0.7341 -0.1490 -0.3659
  859MOL0     H18523  10.220  10.546   8.641 -0.6223  1.0479 -1.8916
  859MOL0     H18524  10.134  10.042   8.487 -2.7158 -2.5518  0.1919
  859MOL0     H18525  10.163   9.899   8.287 -1.3917 -0.4055  4.8559
  859MOL0     H18526   9.551   8.331   8.125 -1.5795  0.3826 -1.5163
  859MOL0     H18527   9.313   8.356   8.168 -1.0649  4.3336 -1.1304
  859MOL0     H18528   8.923   8.637   8.206 -0.4169  1.8526  0.0159
  859MOL0     H18529   8.691   8.634   8.227  0.1751  0.3898 -0.4440
  859MOL0     H18530   8.546   8.369   8.262  1.0981 -5.9930  0.9284
  859MOL0     H18531   8.493   8.302   8.405 -1.1697 -1.5373 -2.1443
  859MOL0     H18532   8.315   8.380   8.253  0.0280 -0.0740 -0.4174
  859MOL0     H18533   8.354   8.548   8.273  0.9017 -0.7104 -1.0166
  859MOL0     H18534   8.146   8.458   8.440  0.5399  2.1235 -2.9986
  859MOL0     H18535   8.286   8.382   8.528 -0.5044  1.4470  1.9381
  859MOL0     H18536   8.251   8.682   8.455  0.2429 -2.1218 -0.6037
  859MOL0     H18537   8.375   8.624   8.549  0.4680  2.1046 -4.0143
  859MOL0     H18538   8.103   8.588   8.845 -0.5998  2.4115 -0.6723
  859MOL0     H18539   8.703   8.352   8.530 -2.1026 -1.0758 -1.7408
  859MOL0     H18540   8.914   8.256   8.621 -0.9416 -0.0621 -0.2554
  859MOL0     H18541   9.071   8.318   8.586 -1.0460  0.7244 -0.3762
  859MOL0     H18542   8.959   8.415   8.678  0.5203 -0.5533  0.7868
  860MOL0     O18543   3.706   9.239   0.877  0.3820  0.7014 -0.3454
  860MOL0     C18544   3.736   9.351   0.887 -0.3963  0.1058  0.5943
  860MOL0     O18545   3.650   9.451   0.901  0.4038  0.3470  0.1710
  860MOL0     C18546   3.524   9.420   0.932  0.0703  0.0599  0.2375
  860MOL0     C18547   3.432   9.370   0.828 -0.3450 -0.6876 -0.4724
  860MOL0     C18548   3.298   9.366   0.861  0.0492  0.1463 -1.5897
  860MOL0     C18549   3.251   9.382   0.994  0.9159 -0.7253  0.2345
  860MOL0     O18550   3.122   9.334   1.013 -0.3926  0.4746 -0.2535
  860MOL0     C18551   3.059   9.357   1.133  0.3717  0.3401 -0.5995
  860MOL0     C18552   2.912   9.329   1.106  0.0906  0.8745  0.2647
  860MOL0     C18553   2.814   9.359   1.216 -0.4879 -1.0438 -0.0078
  860MOL0     C18554   2.837   9.290   1.352  0.7314  1.0628 -0.2045
  860MOL0     C18555   2.702   9.241   1.422  0.1796 -0.2467  0.3644
  860MOL0     C18556   2.594   9.350   1.438 -0.8177  0.0851  0.2096
  860MOL0     C18557   2.474   9.290   1.509  0.7426  0.2127  0.2495
  860MOL0     C18558   2.353   9.372   1.495 -0.5826 -0.6704 -1.1994
  860MOL0     N18559   2.256   9.354   1.604 -0.2014 -0.6402  0.5553
  860MOL0     C18560   2.169   9.244   1.627 -0.2944  0.0411 -0.7274
  860MOL0     C18561   2.103   9.267   1.745 -0.1794 -0.8158  0.3181
  860MOL0     C18562   1.990   9.194   1.811 -0.2323 -0.1509  0.1742
  860MOL0     C18563   2.008   9.175   1.967 -0.8303  0.7007  0.6737
  860MOL0     C18564   2.127   9.070   1.987 -0.6216  0.6768  0.4423
  860MOL0     C18565   2.195   9.061   2.119 -0.5196 -0.0271 -1.2639
  860MOL0     O18566   2.132   8.996   2.226 -0.1773 -0.9002  0.8037
  860MOL0     C18567   2.206   8.979   2.339 -0.2473  0.0260 -0.3867
  860MOL0     C18568   2.335   9.013   2.354 -0.5293 -0.2288  0.1536
  860MOL0     C18569   2.408   8.982   2.464 -0.4340  0.7018  0.1188
  860MOL0     C18570   2.561   9.020   2.453  0.3950  0.5709  0.0089
  860MOL0     C18571   2.349   8.917   2.575 -0.4877  0.0282  0.5872
  860MOL0     C18572   2.418   8.888   2.705 -1.3507  0.4924 -1.0330
  860MOL0     O18573   2.559   8.869   2.689  0.0622  0.5073  0.0791
  860MOL0     C18574   2.646   8.829   2.785 -0.0824 -0.0671  0.5483
  860MOL0     C18575   2.629   8.717   2.858 -0.1282  1.2237 -0.1011
  860MOL0     C18576   2.721   8.683   2.959  0.3050  0.5988 -0.1338
  860MOL0     C18577   2.826   8.768   2.992  0.1515 -0.7630 -0.4608
  860MOL0     O18578   2.900   8.732   3.097  0.3402 -0.5056 -0.3416
  860MOL0     C18579   2.998   8.826   3.153 -0.0404 -0.1170 -0.8309
  860MOL0     C18580   3.085   8.751   3.256  0.3129  0.5034 -0.5002
  860MOL0     C18581   3.212   8.823   3.305 -1.2227  0.1677 -0.1862
  860MOL0     C18582   3.268   8.743   3.431 -0.2154 -0.0112 -0.4020
  860MOL0     C18583   3.410   8.786   3.457 -0.4499 -0.6263 -0.4909
  860MOL0     C18584   3.414   8.928   3.521 -0.1165 -0.0703 -0.4090
  860MOL0     C18585   3.560   8.939   3.578  0.4970  0.0051  0.7128
  860MOL0     C18586   3.586   9.075   3.630  0.2260 -1.6087  0.1663
  860MOL0    Cl18587   3.754   9.087   3.675 -0.3800  0.0307 -0.2731
  860MOL0     C18588   2.843   8.884   2.914  0.4193  0.0614 -0.2574
  860MOL0     C18589   2.749   8.920   2.808 -0.6367 -0.1949 -0.2518
  860MOL0     O18590   2.353   8.857   2.803 -0.5227  0.8474  0.0381
  860MOL0     C18591   2.203   8.893   2.568 -0.8646  0.2106  0.5603
  860MOL0     C18592   2.140   8.924   2.451  0.3894 -0.4500 -0.2144
  860MOL0     N18593   2.167   9.384   1.795 -0.0868 -0.2100 -0.1599
  860MOL0     N18594   2.253   9.437   1.712 -0.6555 -0.6540  0.8084
  860MOL0     C18595   3.344   9.420   1.094  0.0431  0.0247 -0.6697
  860MOL0     C18596   3.478   9.443   1.061  0.5422 -0.1362 -0.3717
  860MOL0     C18597   3.881   9.380   0.916 -0.6698  0.0873  0.3975
  860MOL0     C18598   3.911   9.477   1.005 -0.7975  0.5135  0.6286
  860MOL0     C18599   4.045   9.503   1.034 -0.1261  0.0992  0.2997
  860MOL0     C18600   4.156   9.422   0.993  0.8257 -0.3424  0.2691
  860MOL0     O18601   4.286   9.458   1.031  1.0314  0.4721 -0.0418
  860MOL0     C18602   4.396   9.364   1.031  0.2417  0.1872 -0.2105
  860MOL0     C18603   4.495   9.385   1.146 -0.5034  0.3241 -0.3168
  860MOL0     C18604   4.411   9.345   1.272 -0.3477  0.0057 -0.3370
  860MOL0     C18605   4.510   9.325   1.390 -0.3433  0.4944  0.0540
  860MOL0     C18606   4.583   9.444   1.437 -0.4955  0.1169 -0.3953
  860MOL0     C18607   4.626   9.542   1.477 -0.1733 -1.0754  0.1764
  860MOL0     C18608   4.117   9.325   0.905  0.5218 -0.6766 -0.5197
  860MOL0     C18609   3.983   9.303   0.858 -0.4942 -0.4495 -0.0538
  860MOL0     C18610   3.961   9.213   0.735 -0.2715 -0.1346  0.1917
  860MOL0     H18611   3.461   9.327   0.733  0.5421 -3.1743  0.8262
  860MOL0     H18612   3.228   9.333   0.785 -1.5916 -0.0280 -0.0659
  860MOL0     H18613   3.079   9.460   1.164 -1.0365  0.8698 -1.3532
  860MOL0     H18614   3.094   9.285   1.207 -0.2432  0.7639  0.1121
  860MOL0     H18615   2.888   9.392   1.020  0.9404  0.6377 -0.1620
  860MOL0     H18616   2.899   9.224   1.079 -1.5940  1.1070  0.1129
  860MOL0     H18617   2.822   9.465   1.240 -1.5855 -1.0854  0.6099
  860MOL0     H18618   2.712   9.349   1.178  0.0059  0.0041 -1.7115
  860MOL0     H18619   2.907   9.207   1.338 -0.1628  0.2298  0.2341
  860MOL0     H18620   2.883   9.353   1.428  4.1249 -1.5653  0.1708
  860MOL0     H18621   2.731   9.200   1.520  3.4595 -2.5850 -1.3958
  860MOL0     H18622   2.665   9.165   1.353  0.2345 -0.9767  1.1156
  860MOL0     H18623   2.644   9.425   1.500  1.1703  0.1875 -1.3911
  860MOL0     H18624   2.559   9.384   1.340  0.4039 -2.6907 -1.3229
  860MOL0     H18625   2.503   9.267   1.612 -1.8480 -0.6203  0.8811
  860MOL0     H18626   2.446   9.193   1.466 -3.7311  0.3979  2.1082
  860MOL0     H18627   2.387   9.476   1.482  1.3103 -0.8899  1.2382
  860MOL0     H18628   2.297   9.343   1.405 -0.9547 -0.1990 -1.1215
  860MOL0     H18629   2.174   9.157   1.562  2.4752 -1.5147  1.3211
  860MOL0     H18630   1.986   9.095   1.766 -2.0536 -0.7246  1.4620
  860MOL0     H18631   1.892   9.239   1.789 -0.0233 -0.6502 -1.9895
  860MOL0     H18632   2.015   9.270   2.022  1.2545 -0.5468  2.7658
  860MOL0     H18633   1.920   9.126   2.010  0.0775 -3.5690 -1.7842
  860MOL0     H18634   2.078   8.973   1.975 -4.3146  2.3930  0.3913
  860MOL0     H18635   2.211   9.099   1.923  1.5235 -3.6642  0.9414
  860MOL0     H18636   2.278   8.995   2.091 -0.6726 -0.7689 -0.0539
  860MOL0     H18637   2.217   9.163   2.151 -1.0364 -0.3810  0.3173
  860MOL0     H18638   2.382   9.059   2.267 -0.2680  0.7585  0.7955
  860MOL0     H18639   2.612   8.929   2.422 -1.1660  0.4957 -2.6924
  860MOL0     H18640   2.613   9.043   2.546  3.1639 -1.2730 -0.9635
  860MOL0     H18641   2.572   9.105   2.385 -0.9702  0.6747 -0.1266
  860MOL0     H18642   2.556   8.640   2.837  2.7616 -1.7845  0.1081
  860MOL0     H18643   2.688   8.598   3.018  2.3635 -0.0602  0.1389
  860MOL0     H18644   3.054   8.872   3.071 -0.4418 -0.7197 -1.4498
  860MOL0     H18645   2.944   8.911   3.197  0.4508 -0.8038  1.1942
  860MOL0     H18646   3.013   8.733   3.337 -0.0837  1.8883 -0.5152
  860MOL0     H18647   3.110   8.650   3.223 -1.2091  0.2231 -0.8834
  860MOL0     H18648   3.202   8.929   3.329  0.3731 -0.0183  1.4845
  860MOL0     H18649   3.290   8.820   3.228 -1.8907 -0.6830 -0.8570
  860MOL0     H18650   3.259   8.634   3.431  0.0523 -0.0470  0.6121
  860MOL0     H18651   3.208   8.776   3.517  0.2022 -0.2650 -0.0057
  860MOL0     H18652   3.447   8.706   3.521 -1.7139 -1.9516 -1.3546
  860MOL0     H18653   3.487   8.796   3.380  0.8510  0.0598  0.8472
  860MOL0     H18654   3.332   8.941   3.593 -3.4729  0.8388 -4.0142
  860MOL0     H18655   3.411   9.008   3.446  3.4030  0.8073  0.2412
  860MOL0     H18656   3.633   8.926   3.498  1.1923  0.5460  1.2499
  860MOL0     H18657   3.576   8.865   3.658 -0.4399  1.0671  1.9351
  860MOL0     H18658   3.510   9.107   3.703 -2.8694 -0.5546 -3.2080
  860MOL0     H18659   3.575   9.143   3.545  0.3325 -6.1316 -3.8237
  860MOL0     H18660   2.919   8.960   2.934  3.7313 -2.5946 -1.8460
  860MOL0     H18661   2.759   9.015   2.756  1.4183 -0.5074 -0.5050
  860MOL0     H18662   2.140   8.846   2.643 -2.5012  1.6600  0.1427
  860MOL0     H18663   2.035   8.898   2.449 -0.0916  1.4351 -0.5460
  860MOL0     H18664   3.313   9.452   1.193  3.3616  0.3063  0.4020
  860MOL0     H18665   3.548   9.484   1.134  0.8069 -2.7316  0.9590
  860MOL0     H18666   3.843   9.547   1.054  0.7608  3.1880 -0.8030
  860MOL0     H18667   4.074   9.588   1.096 -1.4987  0.3426  0.6421
  860MOL0     H18668   4.361   9.261   1.024  2.4548 -0.5954 -0.7386
  860MOL0     H18669   4.454   9.399   0.945 -1.3327  2.6233 -0.3775
  860MOL0     H18670   4.526   9.490   1.155  1.9646 -0.4481  1.1243
  860MOL0     H18671   4.585   9.325   1.130 -0.6959  0.3246 -1.5108
  860MOL0     H18672   4.337   9.422   1.299  2.6923  3.3278 -0.7879
  860MOL0     H18673   4.361   9.249   1.258 -0.7329 -0.2946  2.4640
  860MOL0     H18674   4.596   9.270   1.349  2.1545  3.8246  0.4382
  860MOL0     H18675   4.467   9.260   1.467  1.2101 -2.2887 -1.2532
  860MOL0     H18676   4.666   9.639   1.500  1.4333 -1.0511 -2.3267
  860MOL0     H18677   4.198   9.272   0.857  0.4429 -1.5853  0.3288
  860MOL0     H18678   3.902   9.124   0.760 -0.7673  0.5230  1.4798
  860MOL0     H18679   3.919   9.277   0.656  0.1149  1.5896  1.3243
  860MOL0     H18680   4.055   9.180   0.690 -0.5522  0.0089 -0.5184
  861MOL0     O18681   1.278   3.403   3.809 -0.4236 -0.5079 -0.6203
  861MOL0     C18682   1.262   3.472   3.908 -0.7381 -0.1713  0.5091
  861MOL0     O18683   1.279   3.611   3.901 -0.4502  0.8362 -0.6026
  861MOL0     C18684   1.315   3.656   3.777  0.5896 -0.0601  0.1785
  861MOL0     C18685   1.452   3.673   3.763  0.6218  0.0435 -0.6099
  861MOL0     C18686   1.497   3.722   3.637  1.1463 -1.4237  0.4828
  861MOL0     C18687   1.403   3.753   3.531 -0.3102  0.4106 -0.7654
  861MOL0     O18688   1.441   3.804   3.412  0.7148  0.0541 -0.0371
  861MOL0     C18689   1.434   3.711   3.301 -0.3667 -0.0033  0.5162
  861MOL0     C18690   1.300   3.731   3.217 -0.1940  0.6341  0.3836
  861MOL0     C18691   1.244   3.870   3.214  0.2642 -0.9249 -0.3161
  861MOL0     C18692   1.101   3.883   3.156 -0.6026 -0.1022  0.0469
  861MOL0     C18693   1.095   3.987   3.050 -0.3586  0.1625 -0.2855
  861MOL0     C18694   1.156   3.939   2.914 -0.1958  0.0577 -0.2939
  861MOL0     C18695   1.131   4.052   2.814 -0.4076  0.6972  0.8214
  861MOL0     C18696   1.000   4.047   2.723 -0.5480 -0.1767  0.3554
  861MOL0     N18697   0.987   4.176   2.635  0.1078  0.3812 -0.0620
  861MOL0     C18698   1.079   4.208   2.537 -0.6349  1.0172 -0.0832
  861MOL0     C18699   1.037   4.329   2.494  0.0983  0.1910 -0.2323
  861MOL0     C18700   1.108   4.414   2.388  0.1762 -0.9738  0.4828
  861MOL0     C18701   1.001   4.478   2.296 -0.0901 -0.1811 -0.5100
  861MOL0     C18702   0.897   4.383   2.239  0.9708  0.8333 -0.6120
  861MOL0     C18703   0.782   4.439   2.168  0.1640 -0.6431  0.0259
  861MOL0     O18704   0.814   4.481   2.038  0.1776 -0.1069  1.2248
  861MOL0     C18705   0.799   4.612   2.018  0.0529  0.2513  1.0329
  861MOL0     C18706   0.916   4.687   1.980 -1.2452 -0.6222  0.1229
  861MOL0     C18707   0.924   4.833   1.971  0.8386 -0.1415 -0.0322
  861MOL0     C18708   1.049   4.903   1.923  0.3208  0.2206 -0.0526
  861MOL0     C18709   0.795   4.900   1.976  0.1659 -0.7186  0.4322
  861MOL0     C18710   0.786   5.042   1.975  0.7069 -0.6868 -0.0102
  861MOL0     O18711   0.692   5.098   2.064 -0.3315  0.6154  0.5021
  861MOL0     C18712   0.669   5.225   2.048 -1.0419  0.3616 -0.6922
  861MOL0     C18713   0.542   5.265   2.020 -0.6738 -0.7334  0.1866
  861MOL0     C18714   0.523   5.405   1.998  0.0417  0.5691 -0.5180
  861MOL0     C18715   0.633   5.499   2.004  0.4261 -0.3413  0.5288
  861MOL0     O18716   0.601   5.630   1.986  0.1440 -0.0131  0.2814
  861MOL0     C18717   0.689   5.727   2.037 -0.5180  0.8993 -0.2513
  861MOL0     C18718   0.615   5.861   2.026  0.4979 -0.8265  1.3512
  861MOL0     C18719   0.486   5.873   2.106  0.6539  0.1855  0.8069
  861MOL0     C18720   0.404   5.992   2.066 -0.1473  0.4926 -0.9001
  861MOL0     C18721   0.422   6.114   2.149  0.0516  0.9166 -0.3404
  861MOL0     C18722   0.314   6.215   2.114  0.1957 -0.8896 -0.0192
  861MOL0     C18723   0.187   6.187   2.199 -0.2516  0.2007  0.3402
  861MOL0     C18724   0.062   6.255   2.137  0.5391 -1.2291  0.8656
  861MOL0    Cl18725  -0.034   6.370   2.247  0.1225 -0.4915 -0.3226
  861MOL0     C18726   0.766   5.456   2.038  0.7582  0.1953  0.9201
  861MOL0     C18727   0.774   5.319   2.066 -0.1349  0.7819 -0.4726
  861MOL0     O18728   0.845   5.107   1.893 -0.3939  0.7726  0.9790
  861MOL0     C18729   0.680   4.825   1.984  0.1676  0.6035  0.9419
  861MOL0     C18730   0.679   4.684   2.008  0.4281  0.4458  0.0143
  861MOL0     N18731   0.921   4.366   2.560  0.8345 -0.1593  0.2508
  861MOL0     N18732   0.897   4.284   2.656 -0.4995  0.2405 -0.3141
  861MOL0     C18733   1.263   3.733   3.558  0.5774 -0.2661  0.4007
  861MOL0     C18734   1.221   3.684   3.679  0.2901  0.3586  0.5808
  861MOL0     C18735   1.230   3.397   4.031 -0.6222  0.1600 -0.1370
  861MOL0     C18736   1.124   3.302   4.031  0.4037  0.3957 -0.6184
  861MOL0     C18737   1.088   3.244   4.160 -0.4010  0.7638  0.6226
  861MOL0     C18738   1.147   3.283   4.280 -0.0462  0.6402 -0.1484
  861MOL0     O18739   1.119   3.229   4.409  0.3777 -0.3264  0.0685
  861MOL0     C18740   1.219   3.136   4.449 -0.2665 -0.4512  0.0777
  861MOL0     C18741   1.245   3.154   4.591  0.0167 -0.7168 -0.1228
  861MOL0     C18742   1.376   3.095   4.626  0.0126  0.4619 -1.0187
  861MOL0     C18743   1.379   2.946   4.646  0.4264 -0.8776 -0.0748
  861MOL0     C18744   1.379   2.859   4.526  0.4196  0.2374 -0.3255
  861MOL0     C18745   1.362   2.790   4.427 -0.6050  0.6869  0.2899
  861MOL0     C18746   1.254   3.377   4.276  1.0308  0.3715 -0.2439
  861MOL0     C18747   1.296   3.432   4.152  0.1453 -0.8076 -0.0536
  861MOL0     C18748   1.398   3.543   4.159  0.5183  0.1597 -0.3632
  861MOL0     H18749   1.511   3.667   3.854 -2.3111  3.8926  1.8713
  861MOL0     H18750   1.603   3.743   3.628  1.2334 -2.5835 -1.9905
  861MOL0     H18751   1.459   3.607   3.324  0.7837 -0.0812 -0.9423
  861MOL0     H18752   1.513   3.750   3.236  0.4251  1.8849  2.4877
  861MOL0     H18753   1.319   3.694   3.116  0.0740  0.5810  0.4512
  861MOL0     H18754   1.221   3.657   3.235 -1.3825  2.0572  1.2280
  861MOL0     H18755   1.233   3.899   3.319 -6.0682 -1.0408 -0.5446
  861MOL0     H18756   1.314   3.935   3.160 -0.5091 -1.3431 -1.8972
  861MOL0     H18757   1.082   3.790   3.102  1.6730 -0.5047 -0.1304
  861MOL0     H18758   1.025   3.889   3.235 -0.0895 -1.1644  0.6471
  861MOL0     H18759   1.135   4.077   3.099 -1.9794  0.1004  1.2681
  861MOL0     H18760   0.990   4.010   3.029 -1.1085 -2.5157  0.1853
  861MOL0     H18761   1.263   3.929   2.931 -0.5752 -1.8226  1.3136
  861MOL0     H18762   1.109   3.844   2.889 -0.6627 -0.3644  1.9252
  861MOL0     H18763   1.216   4.053   2.745 -1.3539  5.9556 -0.6714
  861MOL0     H18764   1.124   4.145   2.870 -1.0946  0.2740  1.4474
  861MOL0     H18765   1.008   3.961   2.656 -0.4686  0.2422 -0.1768
  861MOL0     H18766   0.909   4.036   2.783  0.9302  0.7469  2.9531
  861MOL0     H18767   1.169   4.156   2.506 -0.2201  1.1846  0.8075
  861MOL0     H18768   1.153   4.346   2.315 -2.9053  0.5093 -3.1665
  861MOL0     H18769   1.173   4.495   2.421 -1.9502  1.0421 -0.0340
  861MOL0     H18770   0.955   4.558   2.354  1.2405 -0.6363  1.2712
  861MOL0     H18771   1.062   4.519   2.214  0.0721  1.3337  0.3399
  861MOL0     H18772   0.948   4.312   2.173  0.1676  0.3582 -0.7293
  861MOL0     H18773   0.859   4.316   2.318  3.0090 -0.4027 -0.6160
  861MOL0     H18774   0.700   4.368   2.161 -0.8951  0.6802 -2.4171
  861MOL0     H18775   0.735   4.515   2.231 -2.8296 -1.0652 -1.5180
  861MOL0     H18776   0.995   4.614   1.988 -2.4357 -1.8079  1.5702
  861MOL0     H18777   1.064   4.991   1.986  1.2908 -0.7945  1.1679
  861MOL0     H18778   1.045   4.938   1.819  1.9549 -0.0387 -0.2159
  861MOL0     H18779   1.131   4.831   1.929  0.2669  0.2332  0.9352
  861MOL0     H18780   0.468   5.188   1.998 -0.5490 -0.3488 -1.8219
  861MOL0     H18781   0.425   5.451   1.991  0.1103  0.4006 -4.7404
  861MOL0     H18782   0.714   5.700   2.141  0.0048 -0.8900 -0.7962
  861MOL0     H18783   0.785   5.724   1.985 -0.7314  1.0435 -0.6578
  861MOL0     H18784   0.678   5.948   2.047 -0.1187  0.1610 -0.6547
  861MOL0     H18785   0.598   5.868   1.918  0.3923 -2.9835  1.1804
  861MOL0     H18786   0.506   5.881   2.214  0.9302  1.7251  0.6723
  861MOL0     H18787   0.442   5.774   2.096  1.7663 -0.1246 -1.8991
  861MOL0     H18788   0.295   5.981   2.056 -0.2751  0.3258  0.4736
  861MOL0     H18789   0.433   6.015   1.963  1.4273 -1.1845 -0.8846
  861MOL0     H18790   0.420   6.105   2.258 -3.4251  3.0011 -0.0617
  861MOL0     H18791   0.517   6.155   2.114  1.4352 -0.4118  1.6723
  861MOL0     H18792   0.280   6.203   2.011 -0.7776  1.1243  0.0243
  861MOL0     H18793   0.362   6.309   2.141 -1.1718 -0.2079  0.1595
  861MOL0     H18794   0.211   6.222   2.299  2.8693 -0.6909  0.0123
  861MOL0     H18795   0.166   6.079   2.204  0.5301 -0.0322 -0.8483
  861MOL0     H18796   0.006   6.174   2.088 -0.2702  0.0582 -0.3881
  861MOL0     H18797   0.097   6.320   2.056 -1.1589 -2.5919 -1.0835
  861MOL0     H18798   0.856   5.513   2.060  1.9935 -1.7668  1.1595
  861MOL0     H18799   0.872   5.280   2.089 -0.5564 -1.6762 -2.4113
  861MOL0     H18800   0.587   4.879   1.966 -0.6242 -1.1727 -0.5757
  861MOL0     H18801   0.590   4.623   2.012  1.2584 -0.7764  0.4898
  861MOL0     H18802   1.201   3.754   3.472  0.9472 -0.3114  0.1184
  861MOL0     H18803   1.123   3.665   3.722  0.2630 -0.3497  0.2171
  861MOL0     H18804   1.079   3.277   3.935  0.0805 -1.1017 -0.1026
  861MOL0     H18805   0.995   3.188   4.159  0.2634 -0.3572 -0.5354
  861MOL0     H18806   1.174   3.038   4.431 -3.0144  0.6436  0.4706
  861MOL0     H18807   1.311   3.145   4.391  0.6533  1.3103  1.6857
  861MOL0     H18808   1.161   3.125   4.655 -4.1938  0.6664 -4.3960
  861MOL0     H18809   1.268   3.258   4.612  1.7741 -1.0281 -0.3757
  861MOL0     H18810   1.457   3.119   4.557  0.9435 -2.0653 -0.9338
  861MOL0     H18811   1.404   3.129   4.727 -0.8488  0.9208 -0.9267
  861MOL0     H18812   1.287   2.912   4.695 -1.4216  0.5722 -2.3268
  861MOL0     H18813   1.465   2.921   4.709  0.4029  0.9760  0.7483
  861MOL0     H18814   1.343   2.750   4.329 -2.5313 -0.1789  0.9685
  861MOL0     H18815   1.312   3.394   4.366 -0.3530  0.2608  0.7023
  861MOL0     H18816   1.452   3.520   4.252  0.6080  0.8905 -0.2334
  861MOL0     H18817   1.473   3.537   4.080  0.6736  0.0011 -0.2031
  861MOL0     H18818   1.345   3.639   4.161  1.5870  0.7815  2.0159
  862MOL0     O18819   4.175   0.097   3.998 -0.3506  0.8010 -0.2295
  862MOL0     C18820   4.161   0.216   3.958 -0.6740 -0.7360  0.7729
  862MOL0     O18821   4.240   0.324   4.001  0.4019  0.5988 -0.0385
  862MOL0     C18822   4.357   0.287   4.076  0.9934 -0.7040  0.7800
  862MOL0     C18823   4.372   0.313   4.216  0.0280 -0.3694  0.5703
  862MOL0     C18824   4.492   0.275   4.282  0.0347  0.4365 -0.1717
  862MOL0     C18825   4.585   0.187   4.221  0.1090 -0.0860 -0.6273
  862MOL0     O18826   4.686   0.128   4.288 -0.4057  0.2362  0.0270
  862MOL0     C18827   4.723   0.171   4.418 -0.8001 -0.4727  0.7230
  862MOL0     C18828   4.795   0.312   4.426  0.7962  1.0442  0.2966
  862MOL0     C18829   4.931   0.322   4.352  0.5815  0.0087 -0.6512
  862MOL0     C18830   4.978   0.467   4.344 -1.2201  0.3167 -0.6238
  862MOL0     C18831   5.133   0.479   4.343 -0.6795 -0.4769 -0.4720
  862MOL0     C18832   5.206   0.437   4.212 -0.4086 -1.1367  0.3897
  862MOL0     C18833   5.215   0.542   4.099  0.3601 -0.1773 -0.2433
  862MOL0     C18834   5.097   0.514   4.002 -0.1931 -0.3663  0.4594
  862MOL0     N18835   5.100   0.580   3.871 -0.2582  0.5513 -1.1044
  862MOL0     C18836   5.027   0.541   3.765 -0.1382 -0.3607 -0.1917
  862MOL0     C18837   5.062   0.623   3.661 -0.8129 -0.3882 -0.9584
  862MOL0     C18838   5.007   0.617   3.525 -0.2092 -0.1697 -0.4630
  862MOL0     C18839   5.033   0.481   3.461 -0.5709  0.2458 -0.0271
  862MOL0     C18840   4.945   0.439   3.341 -0.2289 -0.2613  0.7871
  862MOL0     C18841   4.789   0.444   3.387 -0.4837 -0.3341 -0.3216
  862MOL0     O18842   4.761   0.357   3.504  0.9875  0.0626 -0.4812
  862MOL0     C18843   4.737   0.222   3.491  0.6157 -0.6522 -0.8511
  862MOL0     C18844   4.724   0.155   3.614 -0.1903  0.0458  0.3375
  862MOL0     C18845   4.703   0.020   3.625  1.2107  0.7860  0.4427
  862MOL0     C18846   4.713  -0.048   3.754 -0.4064 -0.4006 -0.8989
  862MOL0     C18847   4.681  -0.066   3.509  1.1827  0.0322 -0.7419
  862MOL0     C18848   4.671  -0.225   3.510  0.7927 -1.5826  0.1467
  862MOL0     O18849   4.650  -0.263   3.380 -0.7633 -0.2279 -0.6487
  862MOL0     C18850   4.658  -0.398   3.362 -0.5033 -0.1529 -0.1588
  862MOL0     C18851   4.788  -0.443   3.321  0.7642  0.4993  0.5101
  862MOL0     C18852   4.799  -0.575   3.276  0.1927  0.5667  0.1498
  862MOL0     C18853   4.692  -0.662   3.283 -0.0419  0.9016 -0.3678
  862MOL0     O18854   4.693  -0.793   3.229 -0.5729  0.2073  0.1372
  862MOL0     C18855   4.698  -0.882   3.342 -0.2489 -0.4606 -0.2166
  862MOL0     C18856   4.743  -1.009   3.277  0.5605 -0.5803  0.4072
  862MOL0     C18857   4.727  -1.135   3.361  0.7442 -0.1545  0.1919
  862MOL0     C18858   4.833  -1.124   3.470 -0.7898 -0.6051 -0.1777
  862MOL0     C18859   4.863  -1.263   3.537  0.0739  0.2212 -0.8591
  862MOL0     C18860   4.895  -1.382   3.444 -1.8573 -0.0827 -0.5843
  862MOL0     C18861   4.920  -1.505   3.533  0.3689  0.0854 -0.4328
  862MOL0     C18862   5.021  -1.603   3.466  0.8723 -0.4392  0.9240
  862MOL0    Cl18863   5.049  -1.757   3.564  0.1606 -0.0183  0.1617
  862MOL0     C18864   4.564  -0.620   3.318 -0.3687  0.3719  0.6705
  862MOL0     C18865   4.547  -0.477   3.352 -0.5093  0.3954 -0.5241
  862MOL0     O18866   4.681  -0.291   3.609  0.3531  0.7418 -0.1212
  862MOL0     C18867   4.683  -0.002   3.382 -0.3573 -0.2317 -0.2903
  862MOL0     C18868   4.706   0.142   3.380 -0.5920 -0.3345 -0.1194
  862MOL0     N18869   5.150   0.717   3.704  0.4469  0.7679  0.1548
  862MOL0     N18870   5.173   0.686   3.832  0.0547  0.1752  0.3701
  862MOL0     C18871   4.565   0.150   4.082  0.1186 -0.6890  0.1264
  862MOL0     C18872   4.452   0.198   4.012 -0.0057  0.9169  0.3604
  862MOL0     C18873   4.065   0.246   3.850 -0.0072  0.6310 -0.3637
  862MOL0     C18874   4.089   0.364   3.779 -0.2161 -0.3699  0.1968
  862MOL0     C18875   4.015   0.401   3.673 -0.3226  0.5912  0.2115
  862MOL0     C18876   3.895   0.333   3.633 -0.3509  0.2561 -0.5018
  862MOL0     O18877   3.819   0.382   3.538  0.7420  0.3171  0.1036
  862MOL0     C18878   3.790   0.527   3.537  0.7039  0.1982 -0.1900
  862MOL0     C18879   3.632   0.539   3.538  0.6820 -0.6504 -0.1572
  862MOL0     C18880   3.588   0.667   3.599  0.2942  0.4294 -0.1097
  862MOL0     C18881   3.627   0.795   3.523  0.2854 -0.5440  0.6362
  862MOL0     C18882   3.623   0.917   3.607 -0.7845 -0.1578  0.1511
  862MOL0     C18883   3.610   1.026   3.662  0.2319 -0.6509 -0.0753
  862MOL0     C18884   3.865   0.221   3.707  0.6097  0.1238  0.2089
  862MOL0     C18885   3.948   0.173   3.811 -1.0650  0.0610  0.2501
  862MOL0     C18886   3.892   0.060   3.903  0.2912 -0.5449  0.5539
  862MOL0     H18887   4.285   0.354   4.265 -1.7011  0.0051 -2.5508
  862MOL0     H18888   4.499   0.299   4.388  0.5049  0.9588 -0.3165
  862MOL0     H18889   4.800   0.100   4.450 -1.3405 -0.4415  2.1365
  862MOL0     H18890   4.643   0.144   4.487 -0.7229  0.5614  1.2463
  862MOL0     H18891   4.734   0.395   4.389 -2.9413 -0.1090  3.2706
  862MOL0     H18892   4.811   0.338   4.531 -0.3707 -0.8299  0.9776
  862MOL0     H18893   4.999   0.272   4.421  0.1380  2.1839  1.4763
  862MOL0     H18894   4.931   0.268   4.256  0.6695  1.5955 -1.5879
  862MOL0     H18895   4.950   0.523   4.254  1.3504  0.7966 -1.2298
  862MOL0     H18896   4.937   0.519   4.430  2.4629 -0.7178  2.0088
  862MOL0     H18897   5.171   0.420   4.426  0.9241  1.3433  0.1729
  862MOL0     H18898   5.149   0.586   4.360  0.7778 -0.9167  1.2113
  862MOL0     H18899   5.302   0.395   4.243 -0.6475 -1.0556  1.2774
  862MOL0     H18900   5.160   0.347   4.171 -1.6366 -0.1892 -0.3601
  862MOL0     H18901   5.306   0.527   4.039 -0.9096  0.1108 -2.3598
  862MOL0     H18902   5.225   0.645   4.135  2.5782 -0.0306 -1.0771
  862MOL0     H18903   5.115   0.409   3.978  2.0440  0.2875 -0.9793
  862MOL0     H18904   5.003   0.530   4.055  0.1822 -1.5589  1.5341
  862MOL0     H18905   4.966   0.452   3.757  1.5256 -1.6640  0.8473
  862MOL0     H18906   5.051   0.693   3.460  1.5126 -1.6872 -1.1730
  862MOL0     H18907   4.901   0.642   3.530  0.4357  3.1795 -0.6522
  862MOL0     H18908   5.141   0.470   3.448  0.4375  0.5186  5.6716
  862MOL0     H18909   4.999   0.410   3.537  0.8495 -0.1390  0.2783
  862MOL0     H18910   4.971   0.507   3.259  7.4124 -0.6970  2.0917
  862MOL0     H18911   4.979   0.337   3.319 -1.1697 -0.6915  1.2610
  862MOL0     H18912   4.752   0.545   3.408  0.9006  0.0137  0.6062
  862MOL0     H18913   4.734   0.418   3.296  2.5456  2.0098 -3.0376
  862MOL0     H18914   4.739   0.211   3.706  0.4431 -0.5501  0.6011
  862MOL0     H18915   4.802  -0.111   3.752 -0.2469 -0.2341  0.2993
  862MOL0     H18916   4.634  -0.125   3.757 -0.1596 -0.6240 -0.0138
  862MOL0     H18917   4.718   0.021   3.838  0.4831 -0.8263 -0.5970
  862MOL0     H18918   4.873  -0.376   3.315  0.8555  0.2570 -1.3599
  862MOL0     H18919   4.893  -0.609   3.234 -0.4724  0.7633 -1.5973
  862MOL0     H18920   4.766  -0.851   3.423  0.0694 -0.2244 -0.5732
  862MOL0     H18921   4.597  -0.894   3.382  0.6441 -0.8058  2.1558
  862MOL0     H18922   4.683  -1.026   3.187 -1.0610 -1.6510  1.6421
  862MOL0     H18923   4.846  -0.984   3.248  0.4930  3.0609  2.7245
  862MOL0     H18924   4.755  -1.221   3.299 -0.3441  0.8471 -1.8256
  862MOL0     H18925   4.624  -1.149   3.396  0.1460  3.2742  0.1902
  862MOL0     H18926   4.794  -1.058   3.549 -1.4071 -1.1192 -0.0437
  862MOL0     H18927   4.924  -1.080   3.429  0.8216 -0.3602  3.3241
  862MOL0     H18928   4.945  -1.245   3.607  0.8323  0.0381 -1.6724
  862MOL0     H18929   4.765  -1.286   3.579 -0.3644  1.3506 -1.2168
  862MOL0     H18930   4.974  -1.340   3.381 -2.8756  2.4564 -0.2988
  862MOL0     H18931   4.799  -1.406   3.396 -2.7213 -1.5025  1.7037
  862MOL0     H18932   4.824  -1.549   3.562 -0.3465  2.6364  1.3991
  862MOL0     H18933   4.962  -1.468   3.626  0.7109 -1.3392  0.0047
  862MOL0     H18934   5.110  -1.540   3.468  1.3451 -1.1111  2.8557
  862MOL0     H18935   4.998  -1.624   3.361  0.9391  0.2811  0.7601
  862MOL0     H18936   4.483  -0.691   3.304  1.5111 -1.7023 -0.1981
  862MOL0     H18937   4.444  -0.445   3.368  0.5663  3.5864  0.7626
  862MOL0     H18938   4.676  -0.051   3.285 -1.9900 -1.5189  0.4379
  862MOL0     H18939   4.711   0.187   3.282 -0.2386  0.0062  0.0537
  862MOL0     H18940   4.643   0.087   4.042 -0.3181 -0.4256 -1.2063
  862MOL0     H18941   4.431   0.155   3.915  2.1615 -0.9581  0.6475
  862MOL0     H18942   4.168   0.433   3.807 -1.9601  1.2363  1.4535
  862MOL0     H18943   4.040   0.493   3.621 -1.2878  1.2031  0.7992
  862MOL0     H18944   3.838   0.583   3.618  0.9225  2.2883 -1.6713
  862MOL0     H18945   3.829   0.571   3.445  0.5017  1.3699  0.2651
  862MOL0     H18946   3.587   0.454   3.590 -0.5890 -1.1656 -1.9937
  862MOL0     H18947   3.607   0.532   3.432  1.6897 -0.8754 -0.3904
  862MOL0     H18948   3.479   0.675   3.606  0.1126 -1.1584 -0.7250
  862MOL0     H18949   3.622   0.674   3.703 -0.7164  3.1853  0.1150
  862MOL0     H18950   3.547   0.819   3.452 -0.3782  0.8886  1.8021
  862MOL0     H18951   3.727   0.796   3.478 -0.5647  0.1753 -1.3477
  862MOL0     H18952   3.587   1.109   3.725  2.1686 -1.6044  1.9941
  862MOL0     H18953   3.762   0.187   3.703  1.5360 -3.6732  2.8777
  862MOL0     H18954   3.964  -0.020   3.921  1.3685 -0.2672 -2.1314
  862MOL0     H18955   3.880   0.095   4.007  0.3784  1.9273 -0.2027
  862MOL0     H18956   3.797   0.020   3.867 -0.6147  1.7345  0.2828
  863MOL0     O18957   5.901   3.145   1.330 -0.0156  0.2643 -0.1598
  863MOL0     C18958   5.790   3.104   1.299 -0.6272  0.3521 -0.5501
  863MOL0     O18959   5.723   2.998   1.366  0.2483  0.2145 -0.4135
  863MOL0     C18960   5.759   2.936   1.481  0.5092  0.2236 -0.2395
  863MOL0     C18961   5.854   2.995   1.583  0.8425  0.7224  1.3899
  863MOL0     C18962   5.885   2.909   1.692  0.1930 -0.2188  0.1768
  863MOL0     C18963   5.834   2.777   1.707  1.0240  0.0026 -0.3101
  863MOL0     O18964   5.867   2.693   1.812  0.2430 -0.5236  0.1317
  863MOL0     C18965   5.915   2.753   1.938 -0.9870 -1.0615  0.8670
  863MOL0     C18966   5.915   2.652   2.046  0.2923 -0.7579 -1.0907
  863MOL0     C18967   5.961   2.706   2.186  0.4245 -0.0643 -0.7231
  863MOL0     C18968   6.102   2.644   2.225  0.1587  0.0770  0.6779
  863MOL0     C18969   6.141   2.651   2.367  0.2110  0.3529 -0.1542
  863MOL0     C18970   6.173   2.791   2.407  0.5140 -0.4285 -0.3614
  863MOL0     C18971   6.262   2.786   2.533  0.4516  0.3844  0.1148
  863MOL0     C18972   6.298   2.924   2.571  0.1597  0.3319  0.0161
  863MOL0     N18973   6.415   2.976   2.507 -1.1626  0.2345 -0.4779
  863MOL0     C18974   6.425   3.017   2.376 -0.5871  0.2103  0.0314
  863MOL0     C18975   6.558   3.042   2.351  0.2204  0.6309  0.2381
  863MOL0     C18976   6.606   3.079   2.212  0.4003  0.2412 -0.5995
  863MOL0     C18977   6.735   3.005   2.191 -0.3016 -0.2579  0.3865
  863MOL0     C18978   6.789   3.030   2.055  0.9525 -0.2978 -0.7055
  863MOL0     C18979   6.933   2.992   2.041  0.3004 -0.8260  0.6705
  863MOL0     O18980   7.019   3.063   2.125 -0.9481 -0.2638 -0.0602
  863MOL0     C18981   7.138   3.124   2.070  0.1536  0.3374  0.2110
  863MOL0     C18982   7.211   3.091   1.948 -0.0568 -0.7324 -0.0423
  863MOL0     C18983   7.336   3.157   1.905  0.8021  0.0061  0.4642
  863MOL0     C18984   7.400   3.128   1.767  0.1420 -0.0271 -0.6383
  863MOL0     C18985   7.390   3.256   1.993  0.2267 -0.5759 -0.4828
  863MOL0     C18986   7.526   3.328   1.996  0.8717 -0.2791  0.5853
  863MOL0     O18987   7.552   3.417   2.098  0.7887 -0.3509 -0.4453
  863MOL0     C18988   7.674   3.477   2.091  0.6406  0.4792  0.4980
  863MOL0     C18989   7.712   3.578   1.995 -0.1164  1.0632  0.7015
  863MOL0     C18990   7.845   3.616   1.977  0.0028  0.7945 -0.2029
  863MOL0     C18991   7.941   3.558   2.065 -0.2670  0.0843 -0.5026
  863MOL0     O18992   8.083   3.571   2.053  0.7200  0.1907  0.2278
  863MOL0     C18993   8.132   3.654   1.953 -0.2975 -0.0185 -0.4857
  863MOL0     C18994   8.281   3.676   1.992 -0.6872 -0.0442  0.5063
  863MOL0     C18995   8.315   3.761   2.110 -0.4266 -1.0420 -0.0606
  863MOL0     C18996   8.395   3.889   2.073 -0.5037 -0.2297 -0.7339
  863MOL0     C18997   8.472   3.957   2.188  0.5335 -0.8200 -0.0470
  863MOL0     C18998   8.551   4.078   2.144  1.1048  0.8033 -0.1860
  863MOL0     C18999   8.585   4.165   2.269  0.1580 -0.2008  0.9857
  863MOL0     C19000   8.724   4.251   2.233  0.8875  0.4218 -0.8970
  863MOL0    Cl19001   8.702   4.334   2.082 -0.1130  0.2376 -0.0772
  863MOL0     C19002   7.905   3.465   2.160 -0.6877 -0.4552  0.4339
  863MOL0     C19003   7.775   3.427   2.178 -0.4714  0.8421  0.7172
  863MOL0     O19004   7.613   3.288   1.916  0.1843 -1.0837  0.0957
  863MOL0     C19005   7.312   3.291   2.108 -0.0757  0.2503  0.4198
  863MOL0     C19006   7.195   3.225   2.147 -0.0174  0.1437  0.4729
  863MOL0     N19007   6.622   3.006   2.470 -0.1758  0.7266  0.2862
  863MOL0     N19008   6.539   2.979   2.563 -0.3339  0.5957  0.0376
  863MOL0     C19009   5.743   2.733   1.612  0.8671  0.3358  0.3003
  863MOL0     C19010   5.698   2.811   1.502  0.1267  0.7096 -0.0428
  863MOL0     C19011   5.707   3.178   1.192  0.6604  0.2881  0.3564
  863MOL0     C19012   5.584   3.124   1.174  0.6859 -0.0126 -0.5926
  863MOL0     C19013   5.497   3.161   1.076 -0.2038  0.4146 -0.3352
  863MOL0     C19014   5.535   3.272   0.988  0.1715 -0.6228 -0.1523
  863MOL0     O19015   5.460   3.320   0.877  0.1711  0.6429  0.0051
  863MOL0     C19016   5.320   3.283   0.842 -0.9251 -0.1684 -1.2578
  863MOL0     C19017   5.230   3.348   0.935  0.2462  0.0441 -0.0868
  863MOL0     C19018   5.197   3.491   0.921 -0.0906 -0.1900  0.0351
  863MOL0     C19019   5.321   3.581   0.931 -0.3861 -0.0936  0.2157
  863MOL0     C19020   5.282   3.723   0.947 -0.0796  0.2022 -0.8669
  863MOL0     C19021   5.244   3.840   0.941 -1.1178 -0.5141  0.6294
  863MOL0     C19022   5.663   3.313   0.998 -0.2229 -0.0773  0.0494
  863MOL0     C19023   5.747   3.287   1.105  0.1954 -0.0903  0.0939
  863MOL0     C19024   5.891   3.350   1.101  0.3198  0.1272 -0.2207
  863MOL0     H19025   5.880   3.099   1.568  1.8400  0.1584 -1.5487
  863MOL0     H19026   5.953   2.951   1.766  1.1795 -1.9084  0.2786
  863MOL0     H19027   5.846   2.832   1.967  0.0043 -0.8195  2.7233
  863MOL0     H19028   6.017   2.790   1.927 -1.5514 -0.3137 -3.4537
  863MOL0     H19029   5.811   2.622   2.062  0.2612 -0.5399 -0.8790
  863MOL0     H19030   5.972   2.563   2.018  0.7101 -2.4398  4.0372
  863MOL0     H19031   5.967   2.815   2.189 -5.1290  0.4956  0.2378
  863MOL0     H19032   5.888   2.677   2.262 -0.6365 -1.1878 -2.0944
  863MOL0     H19033   6.110   2.537   2.203  5.6503  0.4819 -0.5312
  863MOL0     H19034   6.189   2.682   2.171 -0.4639 -0.2138 -0.5609
  863MOL0     H19035   6.223   2.584   2.392  0.6915  0.4780 -1.3128
  863MOL0     H19036   6.056   2.623   2.428  1.4038  0.4887  1.6372
  863MOL0     H19037   6.220   2.853   2.329 -3.3499  2.0187 -0.9988
  863MOL0     H19038   6.075   2.836   2.424 -0.1826 -2.6490  2.0346
  863MOL0     H19039   6.346   2.722   2.505 -2.1741 -2.7705 -1.2561
  863MOL0     H19040   6.203   2.732   2.607 -1.1988  1.9165  0.0009
  863MOL0     H19041   6.222   2.996   2.540  0.3173  0.8975  0.9019
  863MOL0     H19042   6.307   2.931   2.680  0.1493 -1.9528  0.2153
  863MOL0     H19043   6.341   3.029   2.308  0.0348 -0.6399 -0.9158
  863MOL0     H19044   6.616   3.188   2.219  1.1624  0.2156 -1.0993
  863MOL0     H19045   6.528   3.046   2.143 -0.0022  2.2346 -1.1759
  863MOL0     H19046   6.803   3.037   2.271  1.1368 -1.0785 -0.4590
  863MOL0     H19047   6.722   2.896   2.195 -0.1801 -0.2961 -0.1523
  863MOL0     H19048   6.727   2.965   1.993  0.8564 -0.6900 -0.2085
  863MOL0     H19049   6.784   3.137   2.031  0.2434  0.4060  2.1319
  863MOL0     H19050   6.955   2.886   2.055 -0.0263 -0.8875  0.7159
  863MOL0     H19051   6.972   3.018   1.942  0.4742  3.3999  1.6650
  863MOL0     H19052   7.188   3.001   1.892  3.0210 -1.6086 -0.1241
  863MOL0     H19053   7.505   3.104   1.786 -0.8845 -1.6597  4.7069
  863MOL0     H19054   7.398   3.211   1.696  2.2713 -0.5725 -1.4115
  863MOL0     H19055   7.351   3.041   1.723 -0.1820  0.1261 -0.5810
  863MOL0     H19056   7.643   3.625   1.926  0.1623  2.4373  1.3095
  863MOL0     H19057   7.880   3.686   1.902  2.2346 -0.3935 -0.3327
  863MOL0     H19058   8.126   3.607   1.855 -1.7571 -2.1286  0.5427
  863MOL0     H19059   8.075   3.747   1.949 -0.6452 -0.1879  0.3035
  863MOL0     H19060   8.330   3.583   2.021 -3.7959 -1.5563  1.3907
  863MOL0     H19061   8.323   3.720   1.901  0.6467 -0.2632  0.9975
  863MOL0     H19062   8.383   3.706   2.176  1.3610  1.4649  0.3398
  863MOL0     H19063   8.225   3.790   2.164 -1.1655  1.9220 -2.5608
  863MOL0     H19064   8.340   3.967   2.020  1.5896  2.3658  0.6571
  863MOL0     H19065   8.471   3.862   1.999  1.9265  1.5315  0.9639
  863MOL0     H19066   8.399   3.992   2.261  1.3143  0.1861  0.2681
  863MOL0     H19067   8.533   3.890   2.250  0.5431 -0.2896  0.5292
  863MOL0     H19068   8.491   4.133   2.071 -1.1068 -0.9622  0.1788
  863MOL0     H19069   8.642   4.048   2.092  0.8774  2.1514 -1.4493
  863MOL0     H19070   8.606   4.098   2.352  3.0857  0.1809  0.6567
  863MOL0     H19071   8.494   4.217   2.301 -0.3441 -2.1704  2.9998
  863MOL0     H19072   8.809   4.183   2.224  0.3030 -0.3069 -1.1272
  863MOL0     H19073   8.744   4.320   2.315  2.0866 -2.5015  1.4622
  863MOL0     H19074   7.977   3.413   2.222 -0.4464 -1.5405 -0.7256
  863MOL0     H19075   7.743   3.358   2.256 -2.0039  0.8869  0.1568
  863MOL0     H19076   7.339   3.369   2.178 -0.7705  1.8729 -1.0448
  863MOL0     H19077   7.145   3.258   2.237 -2.1847  0.6685 -0.8502
  863MOL0     H19078   5.700   2.634   1.624  1.1382 -0.1506 -2.1752
  863MOL0     H19079   5.634   2.767   1.426  1.0162 -2.1150  0.7119
  863MOL0     H19080   5.552   3.029   1.216  0.1774  0.4279  0.0365
  863MOL0     H19081   5.395   3.124   1.067  0.2065 -1.0698  0.7958
  863MOL0     H19082   5.308   3.321   0.740 -1.0194 -1.4846 -1.7624
  863MOL0     H19083   5.309   3.174   0.846  1.1418 -0.3911  0.2401
  863MOL0     H19084   5.263   3.337   1.039 -0.8482  0.3577  0.3085
  863MOL0     H19085   5.137   3.293   0.920 -0.7206  0.9559  2.1018
  863MOL0     H19086   5.149   3.509   0.824 -2.0030  0.4155  1.0408
  863MOL0     H19087   5.132   3.511   1.007 -0.2819  2.0722 -0.5659
  863MOL0     H19088   5.372   3.565   0.835 -3.8496 -3.1805 -1.4079
  863MOL0     H19089   5.386   3.543   1.010  0.7056 -3.6534 -2.1359
  863MOL0     H19090   5.205   3.937   0.919  1.2486  0.4082  0.1425
  863MOL0     H19091   5.701   3.379   0.920 -0.6049 -0.1272 -0.1814
  863MOL0     H19092   5.929   3.375   1.201 -2.7737  2.0769  0.6452
  863MOL0     H19093   5.960   3.282   1.051  1.4068  0.2571  1.0336
  863MOL0     H19094   5.893   3.446   1.048 -1.2718  2.1664  3.0691
  864MOL0     O19095   6.647   9.932   2.056 -0.2339 -0.3733 -0.1224
  864MOL0     C19096   6.605   9.855   1.974 -0.4414 -0.0936  0.2661
  864MOL0     O19097   6.679   9.759   1.913  0.1545  0.4778  0.4656
  864MOL0     C19098   6.811   9.728   1.947 -0.2344 -0.2079 -0.5984
  864MOL0     C19099   6.894   9.699   1.836 -0.6861  0.4149  0.5471
  864MOL0     C19100   7.031   9.664   1.862  0.8851  0.7730 -0.5388
  864MOL0     C19101   7.075   9.651   1.999  0.2140 -0.2563 -0.1990
  864MOL0     O19102   7.206   9.615   2.021  0.2012 -1.0050 -0.0434
  864MOL0     C19103   7.244   9.523   2.122 -0.5788 -0.4480  0.1256
  864MOL0     C19104   7.390   9.500   2.102 -1.1758 -0.5557 -0.1108
  864MOL0     C19105   7.443   9.415   1.982  0.4631  0.5592 -0.0826
  864MOL0     C19106   7.414   9.267   2.015 -0.2755  1.5621  0.5569
  864MOL0     C19107   7.474   9.187   1.899  0.0530  0.6094  0.3094
  864MOL0     C19108   7.497   9.043   1.946  0.8807  0.5020 -0.4173
  864MOL0     C19109   7.368   8.964   1.977 -0.1189 -0.4255 -0.1562
  864MOL0     C19110   7.281   8.930   1.865  0.8736 -0.1012 -0.6661
  864MOL0     N19111   7.205   9.043   1.794  0.6876  0.5903 -0.1439
  864MOL0     C19112   7.119   9.125   1.861  1.0162  0.3973 -0.3082
  864MOL0     C19113   7.068   9.216   1.783 -0.6607  0.3009 -0.2436
  864MOL0     C19114   6.956   9.313   1.816 -0.0443  0.3232 -0.6958
  864MOL0     C19115   6.817   9.283   1.750 -0.5592 -0.4734 -0.2016
  864MOL0     C19116   6.716   9.393   1.760 -0.5178  0.5854 -0.3288
  864MOL0     C19117   6.667   9.432   1.903 -0.1699  0.3469 -0.6939
  864MOL0     O19118   6.592   9.327   1.973  0.1177 -0.2096  0.3577
  864MOL0     C19119   6.525   9.337   2.093  0.6265 -0.2526 -0.2982
  864MOL0     C19120   6.452   9.223   2.128 -0.1543  0.1824  0.7226
  864MOL0     C19121   6.359   9.234   2.229  0.4643 -0.9808  0.5003
  864MOL0     C19122   6.276   9.108   2.249  0.0173  0.9093 -1.4052
  864MOL0     C19123   6.366   9.354   2.317  0.5583  0.4077  0.4453
  864MOL0     C19124   6.261   9.385   2.424 -0.2169 -0.0255  0.4217
  864MOL0     O19125   6.213   9.281   2.498  0.4024 -0.3468 -0.5598
  864MOL0     C19126   6.105   9.298   2.582 -0.1652 -0.1427 -0.4957
  864MOL0     C19127   6.000   9.215   2.572 -0.4767 -0.5472  0.0857
  864MOL0     C19128   5.891   9.226   2.665  0.0916  0.8579 -0.2453
  864MOL0     C19129   5.896   9.328   2.765 -0.0658 -0.5544 -0.5446
  864MOL0     O19130   5.792   9.350   2.855 -0.0032 -0.2017  0.4664
  864MOL0     C19131   5.763   9.230   2.932 -0.3061 -0.4467  0.1188
  864MOL0     C19132   5.625   9.254   2.994  0.0763 -0.4998  0.7973
  864MOL0     C19133   5.573   9.130   3.062  0.9160  0.8651  0.0795
  864MOL0     C19134   5.454   9.154   3.163  0.9303  0.4637 -0.5691
  864MOL0     C19135   5.353   9.038   3.205 -0.4401  0.8060 -1.1104
  864MOL0     C19136   5.415   8.908   3.253 -0.8318  0.7384 -0.2877
  864MOL0     C19137   5.313   8.796   3.295  0.9863 -0.5478  0.2734
  864MOL0     C19138   5.354   8.655   3.321 -0.1916 -0.0840 -1.2772
  864MOL0    Cl19139   5.484   8.661   3.458  0.0974 -0.3337  0.0705
  864MOL0     C19140   6.012   9.401   2.781 -0.5607 -0.8009  0.0693
  864MOL0     C19141   6.114   9.394   2.687 -0.0210  0.0107 -1.0184
  864MOL0     O19142   6.230   9.504   2.436 -0.3600  0.6776 -0.5166
  864MOL0     C19143   6.455   9.447   2.285  0.3230  0.8750 -0.0021
  864MOL0     C19144   6.539   9.443   2.174 -0.0962 -0.9616 -1.2782
  864MOL0     N19145   7.130   9.195   1.657 -0.2751 -0.1792 -0.3827
  864MOL0     N19146   7.212   9.093   1.665  0.5982  1.0768  0.0628
  864MOL0     C19147   6.978   9.673   2.102  0.0271  0.2848  0.2250
  864MOL0     C19148   6.848   9.713   2.080 -0.7159  0.5093 -0.1300
  864MOL0     C19149   6.462   9.863   1.929  0.8634 -0.7742  0.2528
  864MOL0     C19150   6.435   9.911   1.799 -0.5707 -0.0299 -0.2374
  864MOL0     C19151   6.298   9.940   1.767 -0.5238 -0.0685  1.1596
  864MOL0     C19152   6.197   9.908   1.850 -0.0639  0.0186  0.6793
  864MOL0     O19153   6.063   9.924   1.801  0.0304 -0.4495  0.0590
  864MOL0     C19154   5.959   9.849   1.869  0.2381 -0.0256 -0.4527
  864MOL0     C19155   5.827   9.880   1.798 -0.4845 -0.4052  0.8099
  864MOL0     C19156   5.848   9.882   1.645  0.0775 -0.2109 -0.3484
  864MOL0     C19157   5.710   9.881   1.581  0.0762 -0.0998  0.1539
  864MOL0     C19158   5.729   9.945   1.449 -0.0125 -0.1532 -0.0284
  864MOL0     C19159   5.742  10.007   1.349 -0.5622  0.0491  0.2805
  864MOL0     C19160   6.224   9.858   1.976  1.1907 -0.2852 -0.9382
  864MOL0     C19161   6.354   9.841   2.022  0.6744 -0.2131 -0.6296
  864MOL0     C19162   6.376   9.787   2.157 -0.1347  0.0258 -0.8550
  864MOL0     H19163   6.859   9.692   1.734  2.1880  2.5597 -0.7194
  864MOL0     H19164   7.107   9.639   1.789  4.4835  2.5210  2.2403
  864MOL0     H19165   7.188   9.430   2.109 -0.7933  0.0155 -3.2472
  864MOL0     H19166   7.224   9.565   2.221 -0.2004  1.0525 -0.4014
  864MOL0     H19167   7.442   9.596   2.100  6.1629 -3.7917  0.8069
  864MOL0     H19168   7.440   9.462   2.191 -1.7673  0.0210  0.4800
  864MOL0     H19169   7.394   9.441   1.887 -1.5141  0.3190  0.8126
  864MOL0     H19170   7.549   9.435   1.967  0.2693 -0.4488 -3.8798
  864MOL0     H19171   7.461   9.246   2.112  1.4002  1.6361 -0.2048
  864MOL0     H19172   7.306   9.253   2.010 -0.2614  1.3593  0.7817
  864MOL0     H19173   7.570   9.223   1.861 -0.2767  3.1882  1.7245
  864MOL0     H19174   7.412   9.186   1.809  0.4693 -0.2949  0.0174
  864MOL0     H19175   7.540   8.989   1.861  1.0455  1.5874 -1.0471
  864MOL0     H19176   7.558   9.044   2.036 -2.1677  0.9579  1.7983
  864MOL0     H19177   7.301   9.012   2.050 -3.6007  0.4930 -3.5921
  864MOL0     H19178   7.406   8.870   2.017  1.5416 -0.0860 -0.8518
  864MOL0     H19179   7.326   8.862   1.792  3.0192 -1.7350  1.9400
  864MOL0     H19180   7.198   8.873   1.907  0.0761  0.5375 -1.3355
  864MOL0     H19181   7.089   9.101   1.962 -0.7668  1.2960 -0.5798
  864MOL0     H19182   6.989   9.399   1.756 -1.2383  1.4836  0.2686
  864MOL0     H19183   6.942   9.326   1.923  0.3816  3.3859 -0.9251
  864MOL0     H19184   6.830   9.271   1.642  2.0568  2.2212 -0.3374
  864MOL0     H19185   6.774   9.193   1.794  0.8001 -0.4460  1.3196
  864MOL0     H19186   6.760   9.476   1.703 -0.5244 -0.8555 -2.5514
  864MOL0     H19187   6.628   9.349   1.711  0.6621 -0.7068 -1.3496
  864MOL0     H19188   6.757   9.439   1.965 -0.6489  0.7951 -0.0336
  864MOL0     H19189   6.614   9.527   1.896  0.3088  0.7567  0.8630
  864MOL0     H19190   6.459   9.135   2.066  2.5182 -1.0355  2.5402
  864MOL0     H19191   6.302   9.061   2.344  0.9714  0.0913 -2.0647
  864MOL0     H19192   6.275   9.036   2.167 -0.7274  2.6344 -2.9842
  864MOL0     H19193   6.172   9.144   2.256 -0.0162  0.6414 -0.4279
  864MOL0     H19194   5.992   9.147   2.488  0.3165  1.5780 -1.8116
  864MOL0     H19195   5.815   9.149   2.650 -0.0646  1.0691 -0.5414
  864MOL0     H19196   5.761   9.139   2.872  2.3705 -2.3908  2.6596
  864MOL0     H19197   5.843   9.206   3.002 -1.0244 -4.5932 -0.2056
  864MOL0     H19198   5.647   9.339   3.059  1.3316  1.6129 -2.2011
  864MOL0     H19199   5.556   9.280   2.913 -0.7836 -0.7997  1.4139
  864MOL0     H19200   5.658   9.082   3.112  1.4267  1.5386 -0.1086
  864MOL0     H19201   5.542   9.065   2.980  3.6468 -1.3037  0.6192
  864MOL0     H19202   5.399   9.226   3.101  0.2575  0.3790 -0.0741
  864MOL0     H19203   5.489   9.210   3.250  2.0503 -0.0305 -0.6821
  864MOL0     H19204   5.299   9.087   3.287  0.5437  0.4623 -0.2274
  864MOL0     H19205   5.286   9.013   3.122 -1.3537 -0.5087 -0.0106
  864MOL0     H19206   5.487   8.918   3.335 -0.8767 -1.3922  0.0621
  864MOL0     H19207   5.466   8.868   3.165  1.3683 -2.6189  2.2628
  864MOL0     H19208   5.228   8.788   3.226  1.5653  0.7251 -0.6269
  864MOL0     H19209   5.272   8.820   3.394  0.8913  0.1335  0.0731
  864MOL0     H19210   5.391   8.598   3.235 -1.4462 -3.6042  0.3564
  864MOL0     H19211   5.272   8.594   3.359  1.0947 -1.4460 -0.5969
  864MOL0     H19212   6.025   9.474   2.860 -0.8288 -0.3302 -0.3180
  864MOL0     H19213   6.202   9.457   2.699 -1.6658  2.5092 -1.2752
  864MOL0     H19214   6.468   9.535   2.347  0.4816  0.4502  0.5732
  864MOL0     H19215   6.608   9.520   2.143 -1.1620 -0.1814 -1.7867
  864MOL0     H19216   7.023   9.661   2.200  0.7134  0.1354 -0.1077
  864MOL0     H19217   6.789   9.735   2.168 -0.3769  1.4844 -0.1288
  864MOL0     H19218   6.520   9.932   1.735 -0.3359  0.1933  0.1472
  864MOL0     H19219   6.257   9.982   1.676 -1.8125 -3.0882  0.2137
  864MOL0     H19220   5.995   9.746   1.870  1.9498  0.5251 -1.2786
  864MOL0     H19221   5.957   9.879   1.974 -2.3748 -1.9371  0.1386
  864MOL0     H19222   5.779   9.969   1.839  1.5399  1.2813 -0.2996
  864MOL0     H19223   5.765   9.792   1.818 -0.2465 -0.2132  2.6140
  864MOL0     H19224   5.906   9.969   1.611  1.8202 -0.5438  1.6211
  864MOL0     H19225   5.899   9.793   1.607  0.1090 -0.0321 -0.7334
  864MOL0     H19226   5.648   9.953   1.635  1.6815  1.1942  0.3614
  864MOL0     H19227   5.661   9.784   1.567  0.9461 -0.6136  0.5924
  864MOL0     H19228   5.756  10.057   1.255  2.4600 -3.3032 -1.2974
  864MOL0     H19229   6.147   9.833   2.048  1.9841  1.9152  0.7702
  864MOL0     H19230   6.479   9.758   2.178 -0.9472 -1.4005  1.6420
  864MOL0     H19231   6.341   9.856   2.234  0.6664 -2.8209  2.3159
  864MOL0     H19232   6.321   9.692   2.169  1.4022 -1.1887 -2.7630
  865MOL0     O19233   8.647   5.050   9.410 -0.3470 -0.1151 -0.3875
  865MOL0     C19234   8.734   4.999   9.338 -0.0876  0.1046  0.8395
  865MOL0     O19235   8.846   5.061   9.294 -0.0307  0.6234 -0.1767
  865MOL0     C19236   8.890   5.181   9.335  0.2630 -0.8686  0.0519
  865MOL0     C19237   8.909   5.229   9.467 -1.0098  0.2141 -0.2100
  865MOL0     C19238   8.968   5.346   9.499 -0.0588 -0.8949 -0.9453
  865MOL0     C19239   8.994   5.443   9.404 -0.0860  0.7917 -0.0882
  865MOL0     O19240   9.059   5.557   9.414 -0.5802 -1.6158 -0.0470
  865MOL0     C19241   9.091   5.617   9.542 -0.0099 -0.4637 -0.2711
  865MOL0     C19242   9.097   5.768   9.544  0.3772 -0.0454  0.2637
  865MOL0     C19243   8.962   5.845   9.521 -0.3868 -0.3684 -0.0862
  865MOL0     C19244   8.987   6.002   9.514  0.0726  0.8891  0.0763
  865MOL0     C19245   8.950   6.073   9.645  0.6171  0.3468  0.6745
  865MOL0     C19246   8.790   6.095   9.658 -0.2575 -0.6642  0.3622
  865MOL0     C19247   8.770   6.173   9.787 -0.4187  0.3309  1.0156
  865MOL0     C19248   8.771   6.327   9.759  0.7510  0.2379 -0.1011
  865MOL0     N19249   8.634   6.375   9.722 -0.2612  0.2919  0.0226
  865MOL0     C19250   8.521   6.377   9.808  0.7935 -0.1107 -0.1585
  865MOL0     C19251   8.422   6.429   9.735  1.0051  0.3930 -0.8787
  865MOL0     C19252   8.283   6.467   9.784  0.2556  0.1475 -0.0218
  865MOL0     C19253   8.278   6.623   9.807 -0.4175  0.3156  0.2750
  865MOL0     C19254   8.131   6.673   9.841 -0.3579  0.1229 -0.4015
  865MOL0     C19255   8.110   6.822   9.834  0.8063 -0.0841 -1.1755
  865MOL0     O19256   7.989   6.862   9.896 -1.1899  0.3991  0.1850
  865MOL0     C19257   7.964   6.991   9.913 -0.4230 -0.1454  0.0091
  865MOL0     C19258   7.972   7.092   9.815 -0.0086 -0.5032 -0.0131
  865MOL0     C19259   7.932   7.222   9.843 -0.4125  0.8955  0.7797
  865MOL0     C19260   7.942   7.326   9.732 -0.3176 -0.4321 -0.3030
  865MOL0     C19261   7.893   7.259   9.976 -1.2868 -0.0047 -0.0958
  865MOL0     C19262   7.845   7.392  10.017  0.4478 -0.0587  0.3573
  865MOL0     O19263   7.882   7.419  10.145 -0.1179  0.0506 -0.1195
  865MOL0     C19264   7.843   7.537  10.209  0.4204 -0.0390 -0.5499
  865MOL0     C19265   7.818   7.510  10.345  0.4665 -0.7035 -0.1094
  865MOL0     C19266   7.802   7.614  10.429  0.2379 -0.1430 -0.0634
  865MOL0     C19267   7.786   7.750  10.390 -0.1977  0.4917 -0.5378
  865MOL0     O19268   7.760   7.852  10.482  0.0213 -0.7274  0.4629
  865MOL0     C19269   7.785   7.988  10.434 -0.3894  0.1819 -0.0215
  865MOL0     C19270   7.807   8.076  10.565  0.8664  0.0812  0.4504
  865MOL0     C19271   7.950   8.060  10.626  0.9377 -0.0051 -0.1603
  865MOL0     C19272   7.965   8.141  10.757  0.8958 -1.0528 -0.8536
  865MOL0     C19273   8.108   8.140  10.810 -0.8866  0.4029  0.0077
  865MOL0     C19274   8.121   8.253  10.917  0.6814  0.1514 -0.1332
  865MOL0     C19275   8.261   8.278  10.974  0.1582  0.6635  0.6123
  865MOL0     C19276   8.310   8.161  11.057  0.4614  0.3605 -0.5531
  865MOL0    Cl19277   8.206   8.127  11.205  0.1192  0.4366 -0.1079
  865MOL0     C19278   7.800   7.778  10.251 -0.2622 -0.0737 -0.5371
  865MOL0     C19279   7.823   7.672  10.158  0.2623  0.8128  0.2862
  865MOL0     O19280   7.770   7.456   9.943  0.1501 -0.3515 -0.0322
  865MOL0     C19281   7.901   7.168  10.079 -0.6840 -0.6440  0.4553
  865MOL0     C19282   7.929   7.036  10.039 -0.0721  0.1574 -0.4062
  865MOL0     N19283   8.469   6.462   9.608  0.4216 -0.3103 -0.0920
  865MOL0     N19284   8.594   6.427   9.606 -0.3562 -0.3230 -1.0021
  865MOL0     C19285   8.970   5.400   9.268  0.2549 -0.4413 -0.2135
  865MOL0     C19286   8.925   5.268   9.236  0.0086 -0.3933  0.5346
  865MOL0     C19287   8.715   4.857   9.301  0.6798  0.2467 -0.7996
  865MOL0     C19288   8.807   4.806   9.201  0.3226  0.1895  0.0638
  865MOL0     C19289   8.794   4.675   9.156  0.1739  0.8844  0.1432
  865MOL0     C19290   8.691   4.590   9.192  0.7510 -0.3674  0.7015
  865MOL0     O19291   8.665   4.466   9.145  0.2299  0.6434  0.0527
  865MOL0     C19292   8.577   4.471   9.033  0.2699  0.6123 -0.9126
  865MOL0     C19293   8.530   4.330   8.995  0.2947  0.2869  0.2054
  865MOL0     C19294   8.442   4.259   9.096 -0.4760  0.1456 -0.7104
  865MOL0     C19295   8.291   4.277   9.087 -0.5678 -0.3909  0.8861
  865MOL0     C19296   8.233   4.219   8.969 -0.4339  0.9394 -0.7901
  865MOL0     C19297   8.175   4.161   8.880 -0.7789 -0.1742 -0.1897
  865MOL0     C19298   8.601   4.646   9.277 -0.2897  0.7382  0.3152
  865MOL0     C19299   8.607   4.768   9.336 -0.6641  0.2088  0.5436
  865MOL0     C19300   8.511   4.809   9.426  0.0477 -0.5106  0.5210
  865MOL0     H19301   8.892   5.163   9.551  0.6679 -0.1855 -0.1391
  865MOL0     H19302   8.989   5.363   9.604  2.2925  1.1970 -1.6626
  865MOL0     H19303   9.189   5.580   9.573  0.1284 -0.1719 -0.3544
  865MOL0     H19304   9.017   5.581   9.613 -1.0488  1.4587 -0.3194
  865MOL0     H19305   9.147   5.780   9.641  1.2135 -4.5777  0.6302
  865MOL0     H19306   9.159   5.806   9.462 -0.3656 -0.2890 -0.4208
  865MOL0     H19307   8.921   5.814   9.424  2.4995  0.8422 -1.8109
  865MOL0     H19308   8.902   5.817   9.608  1.1085  1.6775  1.6958
  865MOL0     H19309   9.093   6.012   9.493 -0.0990 -1.6352 -2.7184
  865MOL0     H19310   8.923   6.055   9.442  1.7296  1.4051 -1.0571
  865MOL0     H19311   8.990   6.175   9.634 -0.0919  0.5348 -0.2270
  865MOL0     H19312   8.995   6.023   9.731 -1.2715 -2.7050  0.0207
  865MOL0     H19313   8.750   6.144   9.569  0.0360 -2.2598 -0.6982
  865MOL0     H19314   8.739   5.999   9.671 -0.5645 -0.9011 -2.1264
  865MOL0     H19315   8.849   6.155   9.860 -0.6424  0.5473  1.3100
  865MOL0     H19316   8.679   6.145   9.840 -0.5931  1.6901  1.4612
  865MOL0     H19317   8.803   6.384   9.847 -1.9975  1.9645 -0.1014
  865MOL0     H19318   8.846   6.370   9.691  0.1108  1.8521  0.1618
  865MOL0     H19319   8.513   6.341   9.910  0.5613  2.3369  0.7540
  865MOL0     H19320   8.259   6.412   9.875 -3.0203  0.3743 -0.6119
  865MOL0     H19321   8.211   6.442   9.706  1.8352  0.0534 -1.4955
  865MOL0     H19322   8.349   6.659   9.881 -1.6491  3.8662 -0.0243
  865MOL0     H19323   8.300   6.681   9.717  0.1308 -1.6294 -0.8940
  865MOL0     H19324   8.069   6.615   9.772  2.4622 -0.3357 -2.7317
  865MOL0     H19325   8.109   6.639   9.943  2.5532  2.2874  1.0860
  865MOL0     H19326   8.188   6.875   9.890 -0.3706 -0.0774  0.5457
  865MOL0     H19327   8.107   6.861   9.733  1.4911  3.2468 -0.0233
  865MOL0     H19328   8.013   7.049   9.724  3.2230 -3.0904  2.4097
  865MOL0     H19329   7.836   7.343   9.713 -0.5547  2.4625  2.7036
  865MOL0     H19330   7.983   7.283   9.640 -0.2438 -1.7081  0.3060
  865MOL0     H19331   7.981   7.422   9.767 -0.9471  0.2762 -1.4936
  865MOL0     H19332   7.799   7.413  10.389  1.6127 -0.9522 -0.1244
  865MOL0     H19333   7.797   7.587  10.534  1.3954 -2.8766 -0.6354
  865MOL0     H19334   7.884   7.979  10.389 -0.7271 -0.4111 -0.6664
  865MOL0     H19335   7.706   8.035  10.375 -0.7944  0.1029  0.4555
  865MOL0     H19336   7.782   8.179  10.540 -0.3230  0.6822  3.6022
  865MOL0     H19337   7.738   8.029  10.636 -0.0249  1.4739  0.5370
  865MOL0     H19338   8.021   8.103  10.555  0.1137  1.6274 -0.0322
  865MOL0     H19339   7.970   7.955  10.651  1.2772  0.2989  0.8399
  865MOL0     H19340   7.910   8.107  10.846 -2.2102  4.1172 -0.3882
  865MOL0     H19341   7.936   8.246  10.753  1.3650 -0.4194  4.6769
  865MOL0     H19342   8.136   8.037  10.835 -2.1897  0.0864  0.2034
  865MOL0     H19343   8.177   8.162  10.728  0.2846  2.1753  1.3940
  865MOL0     H19344   8.060   8.229  11.004 -0.4600  0.3359 -0.8673
  865MOL0     H19345   8.086   8.346  10.871 -1.3113 -0.2556  0.4949
  865MOL0     H19346   8.259   8.368  11.037  0.6228  0.4321  0.9596
  865MOL0     H19347   8.330   8.305  10.893  3.6359  0.7636  3.3608
  865MOL0     H19348   8.416   8.167  11.085  0.6375  1.5593 -1.3824
  865MOL0     H19349   8.295   8.071  10.995  1.8957  1.1942 -2.2089
  865MOL0     H19350   7.783   7.875  10.205  1.7420  0.2273 -0.7253
  865MOL0     H19351   7.836   7.703  10.054  0.4824  2.2435  0.7136
  865MOL0     H19352   7.860   7.182  10.179  1.8192  0.5007  1.4121
  865MOL0     H19353   7.929   6.960  10.117  0.1138  2.0652  1.5181
  865MOL0     H19354   8.984   5.473   9.189 -0.0295 -1.9827 -1.7604
  865MOL0     H19355   8.902   5.250   9.132 -0.8923 -3.6100  1.1794
  865MOL0     H19356   8.885   4.864   9.154 -0.3503 -0.0570 -1.4141
  865MOL0     H19357   8.851   4.637   9.071  1.1516 -0.0194  1.1739
  865MOL0     H19358   8.481   4.515   9.063 -0.3198 -0.1791 -1.5909
  865MOL0     H19359   8.624   4.524   8.950  1.1469  1.9366  0.3688
  865MOL0     H19360   8.620   4.270   8.977  0.6076  0.5064  1.0027
  865MOL0     H19361   8.480   4.349   8.900 -0.0796  0.1886  0.3844
  865MOL0     H19362   8.457   4.151   9.092  1.5375  0.1555  2.8002
  865MOL0     H19363   8.472   4.278   9.200 -0.7074 -1.9872 -0.2166
  865MOL0     H19364   8.253   4.377   9.111  0.1662 -0.3719  2.0488
  865MOL0     H19365   8.245   4.221   9.168  0.7187 -0.8683  1.3167
  865MOL0     H19366   8.167   4.092   8.799  1.0350 -0.5838 -0.0705
  865MOL0     H19367   8.509   4.588   9.285 -1.4668  2.5892  0.8016
  865MOL0     H19368   8.558   4.859   9.511 -0.6100  1.2002 -0.0706
  865MOL0     H19369   8.436   4.876   9.383  0.3244  0.2866  1.2499
  865MOL0     H19370   8.444   4.724   9.443 -0.4001 -0.0907  0.8688
  866MOL0     O19371   0.988   8.652   3.860  0.4832 -0.1780  0.2371
  866MOL0     C19372   1.095   8.666   3.923 -0.4279 -0.1053  0.1676
  866MOL0     O19373   1.178   8.564   3.955  0.0912 -0.1043 -0.5155
  866MOL0     C19374   1.152   8.436   3.933  0.1063  0.1360  0.4022
  866MOL0     C19375   1.043   8.372   3.990 -0.4650  0.5880  0.4552
  866MOL0     C19376   1.010   8.243   3.953  0.2438 -0.2819 -0.3661
  866MOL0     C19377   1.088   8.174   3.858  1.0174 -0.3295  0.1636
  866MOL0     O19378   1.064   8.043   3.821  0.9834 -1.1960  0.4874
  866MOL0     C19379   0.940   7.983   3.870 -0.2756 -0.0863  0.2390
  866MOL0     C19380   0.903   7.841   3.814 -0.6946 -0.5331 -1.1352
  866MOL0     C19381   1.003   7.727   3.849  0.2993  0.9000 -0.1295
  866MOL0     C19382   0.992   7.600   3.757 -0.5609 -0.4108 -1.2054
  866MOL0     C19383   1.109   7.506   3.787 -0.5192  0.2449  0.5786
  866MOL0     C19384   1.088   7.373   3.719 -0.5878  0.2465 -0.9136
  866MOL0     C19385   1.212   7.274   3.737 -0.6810 -0.6246 -0.3054
  866MOL0     C19386   1.176   7.130   3.693  0.5135  0.5620 -0.4456
  866MOL0     N19387   1.299   7.048   3.705  0.7888  0.1411 -0.2869
  866MOL0     C19388   1.391   7.020   3.607 -0.7432  0.6219  1.2567
  866MOL0     C19389   1.486   6.942   3.664 -0.7453  0.1868  0.4099
  866MOL0     C19390   1.604   6.882   3.589  1.4375  0.4812 -0.6153
  866MOL0     C19391   1.608   6.733   3.613 -0.4029 -0.1400 -0.5493
  866MOL0     C19392   1.714   6.661   3.532  0.0012 -0.2878 -0.2802
  866MOL0     C19393   1.856   6.723   3.538 -0.5965 -0.3508  1.5141
  866MOL0     O19394   1.952   6.682   3.443  0.9102  0.4820 -0.1993
  866MOL0     C19395   2.007   6.558   3.448 -1.0325 -0.0507 -0.5868
  866MOL0     C19396   1.973   6.452   3.546 -1.3391 -0.3702 -0.8631
  866MOL0     C19397   2.047   6.333   3.554  0.7235 -0.7275 -0.4853
  866MOL0     C19398   1.990   6.227   3.650  0.5628 -0.2536  0.4947
  866MOL0     C19399   2.151   6.316   3.459 -0.8560  0.0890  0.0434
  866MOL0     C19400   2.236   6.202   3.470 -0.1206 -0.0144  0.6173
  866MOL0     O19401   2.298   6.193   3.582 -0.3650 -0.4008  0.5231
  866MOL0     C19402   2.417   6.121   3.589  0.8211  0.1625 -1.0867
  866MOL0     C19403   2.501   6.095   3.484 -0.9449 -0.6784  0.1739
  866MOL0     C19404   2.630   6.038   3.503  0.1518  0.0677 -0.8219
  866MOL0     C19405   2.682   6.019   3.640 -0.5653  0.0500  0.4472
  866MOL0     O19406   2.812   5.971   3.658  0.0170 -0.4225  0.6919
  866MOL0     C19407   2.902   5.933   3.557 -0.6002  0.5631 -0.2993
  866MOL0     C19408   2.869   5.795   3.494 -0.6431  0.1357  0.6610
  866MOL0     C19409   2.977   5.752   3.398 -0.7191 -0.3088  0.8857
  866MOL0     C19410   2.978   5.597   3.382 -0.3281 -0.7209 -0.6544
  866MOL0     C19411   3.088   5.557   3.288  0.1478  0.1384 -0.3263
  866MOL0     C19412   3.091   5.404   3.293 -0.7454 -0.2579 -0.3043
  866MOL0     C19413   3.219   5.350   3.216  0.1972  0.2467 -0.5387
  866MOL0     C19414   3.208   5.373   3.060  0.2411 -0.0410  0.6839
  866MOL0    Cl19415   3.042   5.317   3.004 -0.2032 -0.0097  0.1292
  866MOL0     C19416   2.602   6.060   3.745 -0.3745 -0.0209  0.0407
  866MOL0     C19417   2.469   6.103   3.720  0.3960  0.4175 -0.3410
  866MOL0     O19418   2.234   6.120   3.374  0.0636  0.5707  0.4128
  866MOL0     C19419   2.180   6.420   3.359  0.0395 -0.4516  0.2690
  866MOL0     C19420   2.112   6.541   3.358  0.0374  0.7713 -0.4063
  866MOL0     N19421   1.446   6.927   3.792  0.7370 -0.2379  0.2420
  866MOL0     N19422   1.335   6.984   3.815  0.4057  0.3426 -0.0471
  866MOL0     C19423   1.193   8.236   3.805 -0.1988 -0.5236 -0.2024
  866MOL0     C19424   1.226   8.367   3.837  0.5053  0.0722 -0.1135
  866MOL0     C19425   1.145   8.805   3.956  0.1283 -0.6420  0.4376
  866MOL0     C19426   1.284   8.825   3.946 -1.1994  0.2139 -0.5303
  866MOL0     C19427   1.340   8.955   3.954 -0.4473  1.0548  0.0402
  866MOL0     C19428   1.262   9.060   3.986 -0.7341 -0.8038  1.1198
  866MOL0     O19429   1.306   9.190   4.009 -0.8379  0.0535  0.3770
  866MOL0     C19430   1.452   9.224   4.003  0.3011 -0.2138  1.1466
  866MOL0     C19431   1.510   9.214   4.149  1.6327  0.0153  0.4623
  866MOL0     C19432   1.658   9.210   4.154  0.2961  0.4463  0.5872
  866MOL0     C19433   1.698   9.255   4.296  1.1997 -0.2954 -0.0867
  866MOL0     C19434   1.833   9.217   4.336  0.3949 -0.4959  0.7329
  866MOL0     C19435   1.938   9.174   4.372 -0.2232  0.1688 -1.1379
  866MOL0     C19436   1.129   9.039   4.010  0.5737  0.1443 -0.2746
  866MOL0     C19437   1.071   8.917   3.994  0.7843  0.7832 -1.1012
  866MOL0     C19438   0.927   8.896   4.028 -0.2697 -0.0225  0.4393
  866MOL0     H19439   0.989   8.429   4.065  0.3529  0.3036  1.2857
  866MOL0     H19440   0.923   8.199   4.003 -0.3758  2.5949  1.2871
  866MOL0     H19441   0.859   8.055   3.856 -0.1692 -0.3133 -1.8026
  866MOL0     H19442   0.949   7.964   3.978 -1.6050 -2.4770 -0.0016
  866MOL0     H19443   0.797   7.827   3.835 -0.6097 -0.1470 -0.3987
  866MOL0     H19444   0.903   7.846   3.705 -2.1840 -3.9974 -1.4150
  866MOL0     H19445   1.096   7.775   3.818 -0.4863  2.0293 -0.8525
  866MOL0     H19446   1.004   7.700   3.955 -2.6461 -0.9491 -0.4618
  866MOL0     H19447   0.901   7.538   3.754  0.2802 -2.0279  2.2476
  866MOL0     H19448   1.000   7.636   3.654 -1.2183  2.1299 -0.4574
  866MOL0     H19449   1.121   7.493   3.895 -0.1745 -2.5584  0.2694
  866MOL0     H19450   1.204   7.545   3.751 -0.3800  0.9292  1.6323
  866MOL0     H19451   1.002   7.321   3.763  0.6490  0.1432  1.5588
  866MOL0     H19452   1.070   7.385   3.612  1.3195  0.2465 -1.2615
  866MOL0     H19453   1.242   7.276   3.842 -1.2489  0.9455 -0.1418
  866MOL0     H19454   1.289   7.321   3.675 -1.4853  1.5154  0.2469
  866MOL0     H19455   1.095   7.089   3.756  1.3361 -2.0325 -0.9631
  866MOL0     H19456   1.131   7.130   3.593 -0.4454 -1.1975 -0.0646
  866MOL0     H19457   1.372   7.051   3.505 -1.9255  0.8129  1.5215
  866MOL0     H19458   1.693   6.928   3.633  0.3705  2.7769 -0.7097
  866MOL0     H19459   1.595   6.903   3.482 -1.6861  1.2592 -0.2923
  866MOL0     H19460   1.625   6.714   3.719 -0.0760 -2.0275 -0.9144
  866MOL0     H19461   1.508   6.691   3.598 -1.2262  0.9831  1.4161
  866MOL0     H19462   1.712   6.554   3.551  0.0043 -0.1059  0.7910
  866MOL0     H19463   1.686   6.670   3.426 -0.4121  0.6371 -0.1078
  866MOL0     H19464   1.854   6.829   3.513  2.0639  0.1625  3.1045
  866MOL0     H19465   1.889   6.720   3.642 -0.8191  1.4222  1.6636
  866MOL0     H19466   1.881   6.458   3.605 -1.0607  1.1395 -0.5250
  866MOL0     H19467   2.065   6.151   3.674  0.7179  0.1252  1.2244
  866MOL0     H19468   1.908   6.184   3.592  1.5951 -0.0194 -1.2226
  866MOL0     H19469   1.957   6.265   3.747 -0.9988  0.2659 -0.2077
  866MOL0     H19470   2.477   6.115   3.379  0.4044  0.2900  0.0282
  866MOL0     H19471   2.694   6.002   3.423  0.7731 -1.0418  0.1467
  866MOL0     H19472   2.915   6.012   3.482  0.0221 -0.5339 -1.3836
  866MOL0     H19473   2.997   5.918   3.609 -0.3160 -1.5875 -1.3610
  866MOL0     H19474   2.856   5.717   3.569  1.7130 -0.9813 -0.0115
  866MOL0     H19475   2.776   5.796   3.436 -0.7840 -0.8225  0.8473
  866MOL0     H19476   3.076   5.777   3.437  1.5206 -0.1127 -4.1731
  866MOL0     H19477   2.965   5.812   3.308 -1.4748  2.6330  2.7971
  866MOL0     H19478   2.876   5.568   3.354 -0.9620  0.6429  0.1229
  866MOL0     H19479   3.006   5.561   3.481  1.6619  4.5826  1.0434
  866MOL0     H19480   3.076   5.609   3.193  3.4931  1.0571 -0.3571
  866MOL0     H19481   3.190   5.584   3.317  0.6368 -2.7967  1.0313
  866MOL0     H19482   2.994   5.361   3.268 -0.8763 -1.5713  2.1778
  866MOL0     H19483   3.097   5.374   3.398  3.1583  2.0358  0.3499
  866MOL0     H19484   3.231   5.244   3.239  2.2315  0.5922  0.2141
  866MOL0     H19485   3.313   5.399   3.243 -0.2358  0.5050  0.5455
  866MOL0     H19486   3.292   5.325   3.010 -0.0570 -0.3866  0.5126
  866MOL0     H19487   3.223   5.480   3.040  0.9572 -0.4120 -0.9084
  866MOL0     H19488   2.643   6.070   3.845  1.4664 -1.5456 -0.4940
  866MOL0     H19489   2.409   6.136   3.804 -0.5516 -3.6777  0.8190
  866MOL0     H19490   2.269   6.412   3.297  0.9480  1.2661  1.2949
  866MOL0     H19491   2.150   6.620   3.293  0.4220  1.8169  1.0519
  866MOL0     H19492   1.243   8.172   3.734  2.3573 -0.7905  1.7065
  866MOL0     H19493   1.298   8.420   3.775 -0.8032 -0.4368 -2.1492
  866MOL0     H19494   1.345   8.742   3.912 -1.4325  0.3645 -1.3326
  866MOL0     H19495   1.446   8.965   3.936 -0.7512  4.1622 -0.5473
  866MOL0     H19496   1.509   9.159   3.936 -0.6758  0.0738  0.0049
  866MOL0     H19497   1.474   9.323   3.963 -0.8182 -0.0623  0.8744
  866MOL0     H19498   1.473   9.118   4.186 -1.6728  0.1160 -2.1368
  866MOL0     H19499   1.474   9.300   4.206 -1.3272  0.6432 -2.1224
  866MOL0     H19500   1.685   9.111   4.117 -0.9305  0.3537 -0.1005
  866MOL0     H19501   1.693   9.291   4.089 -1.9735  0.2744 -0.9774
  866MOL0     H19502   1.628   9.213   4.370  0.5991 -1.4567 -1.2786
  866MOL0     H19503   1.688   9.364   4.300  0.0992 -0.3965  0.2916
  866MOL0     H19504   2.023   9.120   4.410 -2.7063 -2.4545  1.1606
  866MOL0     H19505   1.075   9.126   4.045  1.5385  0.4782  0.4209
  866MOL0     H19506   0.890   8.985   4.079  0.7611  1.8911 -1.9084
  866MOL0     H19507   0.870   8.886   3.935 -2.0170  2.0299  1.2273
  866MOL0     H19508   0.915   8.820   4.106  1.4291 -2.6214 -1.6374
  867MOL0     O19509   0.181   7.702   6.222  0.7842 -0.0521  0.8482
  867MOL0     C19510   0.117   7.782   6.296  0.1512  1.5659 -1.3023
  867MOL0     O19511   0.174   7.874   6.367 -0.3621 -0.6771 -0.3026
  867MOL0     C19512   0.302   7.898   6.346 -0.4738 -0.6270 -0.9624
  867MOL0     C19513   0.338   8.012   6.282  0.2474 -0.1199  0.1154
  867MOL0     C19514   0.474   8.027   6.243 -0.8691  0.3945  0.4328
  867MOL0     C19515   0.582   7.955   6.306  0.4046 -0.2659  0.9916
  867MOL0     O19516   0.713   7.952   6.269  0.3296 -0.0936 -0.6764
  867MOL0     C19517   0.741   8.028   6.149  0.1007 -0.0434  0.4096
  867MOL0     C19518   0.887   8.011   6.120 -0.2203 -0.3774  0.6159
  867MOL0     C19519   0.918   8.103   5.997  0.0682 -0.1713 -0.5444
  867MOL0     C19520   1.037   8.191   6.016  0.4104  0.6951 -0.2998
  867MOL0     C19521   1.116   8.226   5.890  0.2326 -0.2416  0.2963
  867MOL0     C19522   1.179   8.361   5.907 -1.7420  0.0860 -0.9233
  867MOL0     C19523   1.257   8.406   5.786 -0.2690  0.0574 -0.1956
  867MOL0     C19524   1.351   8.303   5.708  1.4387  0.3582 -0.5742
  867MOL0     N19525   1.464   8.264   5.795 -0.0984 -0.3002  0.5292
  867MOL0     C19526   1.596   8.303   5.791 -0.3428 -0.2026  0.2398
  867MOL0     C19527   1.660   8.221   5.883  0.2793  0.2731 -0.2594
  867MOL0     C19528   1.806   8.213   5.916 -0.8782 -0.0419  0.2098
  867MOL0     C19529   1.847   8.232   6.060 -0.2922  0.1364  0.0846
  867MOL0     C19530   2.000   8.254   6.045  0.3490 -0.1457 -0.9970
  867MOL0     C19531   2.041   8.311   6.185  0.2119 -0.0151  0.3841
  867MOL0     O19532   2.179   8.364   6.176  0.2717  0.2380 -0.0032
  867MOL0     C19533   2.233   8.438   6.276  0.1247  1.0243 -0.3915
  867MOL0     C19534   2.359   8.478   6.253 -0.1657  0.3177  1.1496
  867MOL0     C19535   2.437   8.548   6.340  0.6178  0.4095  0.8309
  867MOL0     C19536   2.586   8.562   6.299  0.5851  0.3927  0.2512
  867MOL0     C19537   2.379   8.590   6.459 -1.0578 -0.0949 -0.8422
  867MOL0     C19538   2.454   8.666   6.559 -0.8705  0.7863  0.6626
  867MOL0     O19539   2.466   8.621   6.687  0.6947  0.8343 -0.0620
  867MOL0     C19540   2.565   8.658   6.784  0.3038  0.4942 -0.5895
  867MOL0     C19541   2.541   8.627   6.913 -0.4443 -0.4129  0.5633
  867MOL0     C19542   2.635   8.664   7.012 -0.7908 -0.3598 -0.2559
  867MOL0     C19543   2.754   8.738   6.991  0.6751 -0.2291 -0.9067
  867MOL0     O19544   2.814   8.790   7.102  1.3562  0.1880  0.0771
  867MOL0     C19545   2.863   8.922   7.085  0.0570  0.8712 -0.1100
  867MOL0     C19546   2.958   8.959   7.196 -0.6631 -0.2843 -0.3517
  867MOL0     C19547   3.046   9.084   7.148  1.0210 -0.0032 -0.3453
  867MOL0     C19548   3.154   9.136   7.249  0.2983 -0.0765  1.0383
  867MOL0     C19549   3.103   9.256   7.335 -0.1653 -0.1682  0.0232
  867MOL0     C19550   3.065   9.212   7.477 -0.1807 -0.6922 -0.2531
  867MOL0     C19551   3.067   9.333   7.579 -1.0885  0.9719 -0.0860
  867MOL0     C19552   3.036   9.284   7.727  0.3462 -0.4897  1.3297
  867MOL0    Cl19553   3.175   9.224   7.803 -0.4549 -0.1650 -0.1321
  867MOL0     C19554   2.782   8.759   6.852  0.6130  0.3015 -0.5073
  867MOL0     C19555   2.687   8.728   6.750  0.9398 -0.4501 -0.7940
  867MOL0     O19556   2.502   8.769   6.513 -0.4223 -0.3119  0.8189
  867MOL0     C19557   2.242   8.564   6.487  0.9638 -0.0951  0.3666
  867MOL0     C19558   2.176   8.474   6.392 -0.0461  0.1124 -0.9820
  867MOL0     N19559   1.565   8.129   5.930  0.4183  0.4340  0.3292
  867MOL0     N19560   1.450   8.154   5.874  0.1452 -0.4368 -0.2182
  867MOL0     C19561   0.533   7.851   6.387 -1.1753 -0.5362  0.1814
  867MOL0     C19562   0.399   7.825   6.409 -0.3457  0.7718  0.0373
  867MOL0     C19563  -0.027   7.757   6.321  0.4641  0.1914 -0.2535
  867MOL0     C19564  -0.067   7.629   6.365 -0.3507 -0.3027 -0.9508
  867MOL0     C19565  -0.203   7.614   6.398  0.0763 -0.7935  0.3704
  867MOL0     C19566  -0.296   7.718   6.399 -0.4186  0.3740 -0.3154
  867MOL0     O19567  -0.426   7.693   6.434 -0.3775 -0.6920 -0.1191
  867MOL0     C19568  -0.530   7.740   6.341 -0.5978  0.1476 -0.1524
  867MOL0     C19569  -0.559   7.638   6.231 -0.0952 -0.3968  0.5950
  867MOL0     C19570  -0.591   7.495   6.298  0.3081 -0.1149 -0.1174
  867MOL0     C19571  -0.472   7.394   6.324  0.2263  1.1937 -0.3123
  867MOL0     C19572  -0.362   7.407   6.229 -0.4699 -0.4270  0.3836
  867MOL0     C19573  -0.267   7.408   6.148  0.1565  0.2529 -0.6570
  867MOL0     C19574  -0.259   7.838   6.336  0.0786  0.0682 -0.1686
  867MOL0     C19575  -0.125   7.865   6.303 -1.1840 -0.0802 -0.5623
  867MOL0     C19576  -0.093   7.992   6.239 -0.2729  0.2156 -0.1381
  867MOL0     H19577   0.264   8.084   6.250 -0.0664 -1.2823 -1.9271
  867MOL0     H19578   0.503   8.087   6.157  1.6455  0.1878  1.0420
  867MOL0     H19579   0.720   8.134   6.165 -1.4399 -0.1174 -0.8903
  867MOL0     H19580   0.684   7.987   6.065 -0.5497  0.3844  0.6377
  867MOL0     H19581   0.944   8.048   6.206 -0.0517 -1.2300  0.8909
  867MOL0     H19582   0.919   7.907   6.104 -0.2096 -0.5567  1.6868
  867MOL0     H19583   0.929   8.053   5.900 -0.7102 -0.3735 -0.5358
  867MOL0     H19584   0.833   8.171   5.987  2.2458  3.0258  0.9773
  867MOL0     H19585   1.013   8.281   6.072  1.7187 -0.2739  1.9877
  867MOL0     H19586   1.110   8.134   6.075 -1.8269 -0.1798  1.7660
  867MOL0     H19587   1.053   8.228   5.801  0.4448 -0.5616  0.1372
  867MOL0     H19588   1.199   8.155   5.884  0.8288  0.1683  2.6296
  867MOL0     H19589   1.090   8.425   5.914 -1.4178  0.3607  1.5976
  867MOL0     H19590   1.239   8.375   5.997  0.2565  3.5704 -2.5671
  867MOL0     H19591   1.321   8.493   5.801  0.1187  0.7512 -4.7226
  867MOL0     H19592   1.183   8.460   5.726 -1.4133  0.7550  1.7324
  867MOL0     H19593   1.294   8.220   5.665  0.2536  1.1579 -0.6147
  867MOL0     H19594   1.385   8.357   5.619 -1.9267 -2.5675 -4.0279
  867MOL0     H19595   1.639   8.391   5.743  0.2211 -1.5574 -1.8697
  867MOL0     H19596   1.854   8.293   5.859  0.0967  1.6648  3.2161
  867MOL0     H19597   1.837   8.113   5.882  0.3402  0.7999 -1.2579
  867MOL0     H19598   1.795   8.313   6.113  1.8210  1.9780 -0.4728
  867MOL0     H19599   1.834   8.140   6.116 -1.8628  0.4773  0.3387
  867MOL0     H19600   2.067   8.172   6.022 -2.2841 -2.0074 -2.5717
  867MOL0     H19601   2.024   8.341   5.984 -1.1586  0.8352 -0.2884
  867MOL0     H19602   1.967   8.384   6.218 -2.4742 -2.1793 -0.4317
  867MOL0     H19603   2.038   8.234   6.263  2.2518  2.0148  2.6231
  867MOL0     H19604   2.401   8.457   6.155  1.1401 -0.7438  1.9008
  867MOL0     H19605   2.605   8.645   6.230  2.2360  0.4731  0.7524
  867MOL0     H19606   2.609   8.468   6.249  3.3059  0.6297  0.9157
  867MOL0     H19607   2.659   8.566   6.381  0.3789  0.1465  0.4470
  867MOL0     H19608   2.448   8.580   6.940 -1.3539  0.0792 -1.4976
  867MOL0     H19609   2.593   8.643   7.109  2.3702  1.7941  1.7651
  867MOL0     H19610   2.926   8.930   6.995  1.4555 -1.9516  0.5272
  867MOL0     H19611   2.786   8.999   7.075  0.9778  1.5586 -3.2785
  867MOL0     H19612   2.902   8.990   7.284  2.4043  1.9773  0.9882
  867MOL0     H19613   3.017   8.870   7.219  1.1215  0.9989  0.2878
  867MOL0     H19614   2.973   9.158   7.117  1.0197  0.9819  1.8256
  867MOL0     H19615   3.096   9.058   7.054 -0.7689 -1.2939 -0.9905
  867MOL0     H19616   3.232   9.178   7.185  1.2140  1.6888  3.1778
  867MOL0     H19617   3.204   9.061   7.311  0.1010 -0.6550  0.5096
  867MOL0     H19618   3.185   9.328   7.338  0.0244 -0.1322 -3.0110
  867MOL0     H19619   3.024   9.312   7.284  0.7649  0.1114 -1.1659
  867MOL0     H19620   3.126   9.125   7.504  0.9018  0.1835  0.1705
  867MOL0     H19621   2.968   9.162   7.470 -0.9932  0.8418 -0.2588
  867MOL0     H19622   2.994   9.403   7.537  0.1194  2.1081 -0.3661
  867MOL0     H19623   3.160   9.390   7.574 -0.0523 -0.6939 -0.3262
  867MOL0     H19624   2.967   9.199   7.735 -0.3324  0.0611  1.4281
  867MOL0     H19625   2.991   9.365   7.785 -0.5814  0.8239 -1.1123
  867MOL0     H19626   2.866   8.814   6.811  0.6822  1.2296  0.8066
  867MOL0     H19627   2.718   8.747   6.648  2.5852  1.0044 -0.0699
  867MOL0     H19628   2.194   8.602   6.576 -1.5233  2.4276 -1.8490
  867MOL0     H19629   2.073   8.446   6.414  0.2296  0.7846  1.3804
  867MOL0     H19630   0.608   7.795   6.442 -2.2169 -1.8237  0.3298
  867MOL0     H19631   0.383   7.748   6.484  0.9418 -0.2306 -0.6629
  867MOL0     H19632  -0.006   7.544   6.393 -2.3242 -1.0039  1.6098
  867MOL0     H19633  -0.230   7.515   6.436  2.0616 -2.2741 -1.7816
  867MOL0     H19634  -0.623   7.747   6.398  0.3302 -3.1706  2.0554
  867MOL0     H19635  -0.504   7.836   6.295 -0.2594 -0.1211 -0.5290
  867MOL0     H19636  -0.484   7.639   6.151 -0.2705 -1.7777  0.3982
  867MOL0     H19637  -0.654   7.673   6.189 -0.1564  0.2542  1.2473
  867MOL0     H19638  -0.637   7.519   6.394  1.2830 -1.6229  0.7770
  867MOL0     H19639  -0.654   7.442   6.226  1.4898 -0.9563 -0.5636
  867MOL0     H19640  -0.507   7.291   6.319 -0.0871  1.3544 -2.3375
  867MOL0     H19641  -0.433   7.426   6.421  1.3196  0.7923 -0.6062
  867MOL0     H19642  -0.183   7.395   6.083 -0.2856 -0.8514 -1.0309
  867MOL0     H19643  -0.329   7.920   6.324 -1.3026 -0.8819  0.9486
  867MOL0     H19644  -0.108   8.077   6.306 -3.8069 -0.8698  0.6903
  867MOL0     H19645   0.002   8.002   6.186 -0.5409  0.3323 -0.6130
  867MOL0     H19646  -0.170   8.014   6.164 -0.5567  0.0052  0.0871
  868MOL0     O19647   4.642   0.257   0.053  0.7122  0.6909 -1.0568
  868MOL0     C19648   4.585   0.222   0.157 -0.9926  0.2219  0.9537
  868MOL0     O19649   4.642   0.241   0.283  0.1515 -0.2018  0.5629
  868MOL0     C19650   4.765   0.301   0.289  0.5881 -0.3253  0.2741
  868MOL0     C19651   4.782   0.417   0.362  0.2824  0.2794 -0.8273
  868MOL0     C19652   4.910   0.471   0.376  0.1864  0.0118  0.6403
  868MOL0     C19653   5.025   0.415   0.312  1.1964  0.8267 -0.0783
  868MOL0     O19654   5.141   0.485   0.336  0.5944  0.4187  0.7389
  868MOL0     C19655   5.213   0.533   0.222  0.0553 -0.0424  0.7101
  868MOL0     C19656   5.365   0.550   0.247 -0.0981 -0.6716  0.4276
  868MOL0     C19657   5.444   0.433   0.294 -0.9474  0.4463 -0.8267
  868MOL0     C19658   5.590   0.465   0.337 -0.7501  0.8837  0.2862
  868MOL0     C19659   5.651   0.342   0.413 -0.0094  0.7776 -0.1370
  868MOL0     C19660   5.730   0.252   0.328 -1.1393  0.7845  0.1638
  868MOL0     C19661   5.761   0.118   0.390 -0.4240 -0.0012  0.4014
  868MOL0     C19662   5.885   0.128   0.479 -0.7357  0.6200 -0.2022
  868MOL0     N19663   6.006   0.091   0.400 -0.1553  0.6316 -0.0129
  868MOL0     C19664   6.033  -0.043   0.372 -0.3338 -0.7015 -0.4293
  868MOL0     C19665   6.168  -0.039   0.329  0.4554  0.7913  0.4559
  868MOL0     C19666   6.250  -0.162   0.311 -1.1471 -0.2558 -0.4414
  868MOL0     C19667   6.336  -0.155   0.183  0.1836  0.2639  0.0548
  868MOL0     C19668   6.439  -0.267   0.196  0.3531  1.0346 -0.0085
  868MOL0     C19669   6.489  -0.290   0.052  0.5235  0.9148  0.7252
  868MOL0     O19670   6.403  -0.381  -0.011 -0.2687  0.0450  0.3321
  868MOL0     C19671   6.371  -0.369  -0.147 -0.1073 -0.7988  0.4083
  868MOL0     C19672   6.255  -0.435  -0.191 -0.7016  0.9108  0.2125
  868MOL0     C19673   6.219  -0.432  -0.325 -0.1681  0.3594  0.1223
  868MOL0     C19674   6.100  -0.500  -0.376 -0.0663 -0.7434 -0.5586
  868MOL0     C19675   6.303  -0.356  -0.427  0.0319  0.3378 -0.3261
  868MOL0     C19676   6.267  -0.351  -0.581  0.8398 -1.2391 -0.5968
  868MOL0     O19677   6.360  -0.274  -0.648  0.7461 -0.1104  0.2433
  868MOL0     C19678   6.348  -0.269  -0.788  0.0476  0.1970 -0.2792
  868MOL0     C19679   6.312  -0.377  -0.875 -0.3118  0.0271 -0.1390
  868MOL0     C19680   6.313  -0.361  -1.016 -0.0461  0.5126 -0.5151
  868MOL0     C19681   6.361  -0.243  -1.075 -0.1600 -0.1088 -0.1953
  868MOL0     O19682   6.339  -0.249  -1.206 -0.3132 -0.6498  0.5979
  868MOL0     C19683   6.253  -0.140  -1.248  1.7689  0.7342  0.9032
  868MOL0     C19684   6.236  -0.142  -1.404  0.6541 -0.4129  0.3789
  868MOL0     C19685   6.182  -0.272  -1.452 -0.3923 -1.0152  1.4603
  868MOL0     C19686   6.202  -0.278  -1.608 -0.0227 -0.9818 -0.1539
  868MOL0     C19687   6.168  -0.412  -1.683 -0.1468  0.3696  0.2880
  868MOL0     C19688   6.212  -0.399  -1.835  0.5829 -0.6211 -0.9525
  868MOL0     C19689   6.186  -0.533  -1.911  0.7004 -0.4622 -0.5081
  868MOL0     C19690   6.119  -0.516  -2.044  1.0018  0.0743 -0.0817
  868MOL0    Cl19691   6.206  -0.406  -2.151 -0.1816  0.6498  0.2013
  868MOL0     C19692   6.397  -0.133  -0.990  0.0491  0.4874  0.7125
  868MOL0     C19693   6.394  -0.150  -0.847 -0.0846  0.4350 -0.0276
  868MOL0     O19694   6.170  -0.403  -0.632  0.7270  0.0183 -0.2789
  868MOL0     C19695   6.413  -0.283  -0.372  0.6518  0.5781  1.0494
  868MOL0     C19696   6.440  -0.283  -0.235 -0.0734 -0.1719  0.1378
  868MOL0     N19697   6.211   0.092   0.320  0.3260 -0.4264  0.1841
  868MOL0     N19698   6.117   0.164   0.353  0.3172  0.4840 -0.8854
  868MOL0     C19699   5.006   0.297   0.233  0.1183  0.8478  0.3138
  868MOL0     C19700   4.876   0.244   0.224 -0.4376  0.1186  0.2124
  868MOL0     C19701   4.442   0.178   0.132 -0.2725 -0.0328  0.1089
  868MOL0     C19702   4.392   0.191  -0.003 -1.0189  0.7223  0.4898
  868MOL0     C19703   4.271   0.126  -0.035  0.2869 -0.4005 -0.7917
  868MOL0     C19704   4.208   0.040   0.060  0.0970  0.8265  0.7952
  868MOL0     O19705   4.099  -0.029   0.019  0.1756  0.3545 -0.2764
  868MOL0     C19706   4.048  -0.018  -0.114  0.4060 -0.4633  0.6304
  868MOL0     C19707   3.950  -0.134  -0.139  0.1166 -0.1454  0.0885
  868MOL0     C19708   3.929  -0.160  -0.289  1.6838  0.1560  0.0975
  868MOL0     C19709   3.817  -0.272  -0.288 -0.5836 -0.1122 -0.0098
  868MOL0     C19710   3.682  -0.229  -0.249  0.1299 -0.4139  0.6669
  868MOL0     C19711   3.567  -0.203  -0.209  0.3699  0.0490  0.6293
  868MOL0     C19712   4.246   0.040   0.193 -0.2444 -0.6354  0.3421
  868MOL0     C19713   4.365   0.116   0.230 -0.3506 -0.1023  0.5074
  868MOL0     C19714   4.421   0.070   0.365  0.0024  0.8014 -0.5322
  868MOL0     H19715   4.702   0.463   0.420  2.0918  0.8691  1.3661
  868MOL0     H19716   4.924   0.560   0.437 -3.2724 -0.4930  2.4309
  868MOL0     H19717   5.169   0.628   0.190 -0.6802 -0.4859  0.3830
  868MOL0     H19718   5.205   0.461   0.140 -0.6029  0.0739  0.6654
  868MOL0     H19719   5.412   0.582   0.154 -2.1767 -3.3217 -1.7241
  868MOL0     H19720   5.371   0.623   0.328  1.3217 -0.0767 -0.1808
  868MOL0     H19721   5.390   0.383   0.376 -0.2308  0.8313 -0.1104
  868MOL0     H19722   5.467   0.356   0.220  1.8763  1.7188 -1.3800
  868MOL0     H19723   5.663   0.478   0.257 -0.9937 -1.2517 -0.3213
  868MOL0     H19724   5.592   0.557   0.397 -0.2137 -0.4119  2.3607
  868MOL0     H19725   5.573   0.284   0.465  0.5771  2.2853  2.6801
  868MOL0     H19726   5.721   0.373   0.491 -0.1434  1.1677 -0.1664
  868MOL0     H19727   5.670   0.212   0.245 -0.2334 -3.2355  1.2040
  868MOL0     H19728   5.814   0.314   0.296 -2.6873  2.0898 -1.5654
  868MOL0     H19729   5.780   0.035   0.320 -4.4485 -1.4730  0.8111
  868MOL0     H19730   5.677   0.094   0.455 -1.2989  0.8957 -0.3697
  868MOL0     H19731   5.922   0.229   0.499  1.0823  0.7909 -3.7766
  868MOL0     H19732   5.864   0.067   0.567  0.5133  0.8868  0.3098
  868MOL0     H19733   5.956  -0.117   0.391 -3.0984  1.1911 -3.1498
  868MOL0     H19734   6.181  -0.246   0.297 -1.3184  0.2485 -2.9365
  868MOL0     H19735   6.316  -0.179   0.397 -1.9061  0.2776  0.2693
  868MOL0     H19736   6.261  -0.177   0.106 -1.6383 -1.4605  2.1635
  868MOL0     H19737   6.379  -0.057   0.165  3.0034 -0.6655  1.1069
  868MOL0     H19738   6.529  -0.238   0.251  1.5798 -1.0735 -0.7598
  868MOL0     H19739   6.395  -0.357   0.240  2.1873 -1.4214 -2.7441
  868MOL0     H19740   6.498  -0.193   0.002  0.5464  1.5961  2.0102
  868MOL0     H19741   6.585  -0.341   0.046  0.0611  0.1440 -0.5262
  868MOL0     H19742   6.196  -0.497  -0.124  1.0580 -0.3560  0.6351
  868MOL0     H19743   6.060  -0.562  -0.295  1.0751 -0.6071  0.1398
  868MOL0     H19744   6.121  -0.574  -0.453 -0.9707 -1.2551 -0.3237
  868MOL0     H19745   6.025  -0.431  -0.416 -1.4399 -0.2561  2.5290
  868MOL0     H19746   6.279  -0.473  -0.838  0.2919 -0.7828 -1.5950
  868MOL0     H19747   6.280  -0.446  -1.075  2.5654 -2.9505  2.5419
  868MOL0     H19748   6.152  -0.141  -1.208  0.6931  3.4331 -1.3421
  868MOL0     H19749   6.296  -0.043  -1.219  0.6330  1.3800  0.4671
  868MOL0     H19750   6.168  -0.065  -1.442 -0.8085 -2.0539 -0.4581
  868MOL0     H19751   6.332  -0.123  -1.452  0.4597  0.1717  0.2138
  868MOL0     H19752   6.073  -0.278  -1.445 -0.6822  1.9152  0.7506
  868MOL0     H19753   6.231  -0.359  -1.407 -0.8296 -2.5611 -0.8280
  868MOL0     H19754   6.307  -0.264  -1.634  0.4211 -3.1085  0.2973
  868MOL0     H19755   6.150  -0.199  -1.663  0.6534  1.1993  2.1158
  868MOL0     H19756   6.213  -0.500  -1.635  1.2525  1.2534  0.6557
  868MOL0     H19757   6.061  -0.431  -1.689 -0.3949  1.3974  1.1740
  868MOL0     H19758   6.315  -0.363  -1.839  0.6860 -0.4010  1.6231
  868MOL0     H19759   6.164  -0.312  -1.881  1.9595  1.5682  1.4536
  868MOL0     H19760   6.134  -0.608  -1.852 -1.4743 -0.0367 -1.7746
  868MOL0     H19761   6.284  -0.577  -1.933  1.8265  1.8678 -0.5399
  868MOL0     H19762   6.020  -0.472  -2.030  0.9599  0.6605 -1.9812
  868MOL0     H19763   6.111  -0.617  -2.084  4.5714 -0.4157  0.1026
  868MOL0     H19764   6.413  -0.035  -1.033  1.0626 -0.1316 -0.3725
  868MOL0     H19765   6.419  -0.071  -0.777 -3.1137 -0.1905  1.9772
  868MOL0     H19766   6.494  -0.236  -0.426  1.7892 -3.4068 -1.0475
  868MOL0     H19767   6.527  -0.229  -0.199 -1.8465  4.2189 -1.5037
  868MOL0     H19768   5.090   0.250   0.183 -0.7648 -0.4411  0.0094
  868MOL0     H19769   4.860   0.159   0.158  2.3227 -2.8640  2.9861
  868MOL0     H19770   4.445   0.227  -0.091  0.3701 -0.2215  0.8929
  868MOL0     H19771   4.239   0.139  -0.138 -1.1933  1.1503 -0.1871
  868MOL0     H19772   4.006   0.081  -0.132  4.9585  1.7551  0.6865
  868MOL0     H19773   4.127  -0.043  -0.186  0.0482 -0.9449  0.3981
  868MOL0     H19774   3.865  -0.113  -0.074  2.0805  1.1852  2.3897
  868MOL0     H19775   3.996  -0.227  -0.104  1.5983 -0.4069 -2.3369
  868MOL0     H19776   3.903  -0.068  -0.341  2.0843  0.6227  0.7098
  868MOL0     H19777   4.023  -0.195  -0.332  3.5607  5.5810 -0.9465
  868MOL0     H19778   3.851  -0.353  -0.223  0.6963 -0.1006 -0.6337
  868MOL0     H19779   3.827  -0.321  -0.386  5.1361  1.5688 -0.6491
  868MOL0     H19780   3.469  -0.171  -0.183 -1.3308 -3.7798 -0.3503
  868MOL0     H19781   4.190  -0.016   0.267 -4.3887  3.1795  0.5106
  868MOL0     H19782   4.437   0.155   0.431 -0.6122 -0.7371  1.7039
  868MOL0     H19783   4.349   0.011   0.422  0.8177  0.9924  0.7207
  868MOL0     H19784   4.521   0.027   0.352  0.1142  0.7977  0.3014
  869MOL0     O19785   1.138   6.984   1.499 -0.6375 -0.2962 -0.2769
  869MOL0     C19786   1.054   7.047   1.567 -0.3920  0.5626  0.4904
  869MOL0     O19787   1.042   7.047   1.705 -0.2362 -0.0090  0.0517
  869MOL0     C19788   1.127   6.965   1.779  0.2192  0.6729  1.0311
  869MOL0     C19789   1.094   6.844   1.835  0.8842 -1.0058 -0.6487
  869MOL0     C19790   1.192   6.768   1.902  0.5127  0.4375 -0.2008
  869MOL0     C19791   1.325   6.818   1.916  0.0098  0.2868 -0.7740
  869MOL0     O19792   1.425   6.770   1.998 -0.7170 -0.1234  0.1038
  869MOL0     C19793   1.382   6.660   2.088  0.6833 -0.1292 -0.1248
  869MOL0     C19794   1.502   6.633   2.183  0.2397  0.4375  0.4617
  869MOL0     C19795   1.468   6.519   2.280  0.7243  1.0649 -0.2999
  869MOL0     C19796   1.581   6.504   2.378  0.7368  0.1748  0.1521
  869MOL0     C19797   1.540   6.408   2.490  1.1059 -1.3929  0.2965
  869MOL0     C19798   1.474   6.277   2.452  0.1923 -0.9890  0.4654
  869MOL0     C19799   1.572   6.205   2.350 -0.6593  0.2260 -0.1502
  869MOL0     C19800   1.540   6.057   2.333 -0.7812  0.5364 -0.2068
  869MOL0     N19801   1.429   6.046   2.241 -0.4152  0.4866  0.4030
  869MOL0     C19802   1.444   6.034   2.105 -0.2217 -0.8968 -0.5515
  869MOL0     C19803   1.319   6.018   2.061  0.0314 -1.3846 -0.7411
  869MOL0     C19804   1.275   6.002   1.919  0.2092  0.9640 -0.2995
  869MOL0     C19805   1.282   6.134   1.840 -0.2741  0.5571 -0.5736
  869MOL0     C19806   1.412   6.220   1.854 -0.7340  0.4571  0.4673
  869MOL0     C19807   1.384   6.360   1.787  0.0331 -0.1036  0.4959
  869MOL0     O19808   1.257   6.424   1.819  0.6526  0.5512  0.2679
  869MOL0     C19809   1.199   6.497   1.723 -0.3605 -0.1781 -0.3209
  869MOL0     C19810   1.059   6.499   1.732 -0.4918 -0.1854  0.1332
  869MOL0     C19811   0.979   6.555   1.635  0.2619 -0.1367 -0.3408
  869MOL0     C19812   0.830   6.539   1.635  0.4953  0.3220 -0.2327
  869MOL0     C19813   1.037   6.616   1.526 -0.3134 -0.4811 -0.6304
  869MOL0     C19814   0.967   6.683   1.415  0.0851  0.6053 -0.4567
  869MOL0     O19815   0.999   6.636   1.290  0.7189 -0.2862 -0.4405
  869MOL0     C19816   0.983   6.727   1.191  0.1893  0.9026  0.5723
  869MOL0     C19817   0.857   6.738   1.129 -0.2689 -0.4206  0.4749
  869MOL0     C19818   0.857   6.826   1.022 -0.5238  0.3271  0.3516
  869MOL0     C19819   0.974   6.905   0.985  0.3836 -0.2711 -0.3546
  869MOL0     O19820   0.958   6.970   0.865 -0.1479 -0.6295 -0.0417
  869MOL0     C19821   0.994   7.115   0.871  0.0991 -0.1237  1.2820
  869MOL0     C19822   0.873   7.201   0.907  0.2040  0.4815  0.3828
  869MOL0     C19823   0.769   7.180   0.793 -0.9296 -0.4782 -1.5396
  869MOL0     C19824   0.633   7.149   0.860  0.0138 -0.0164 -0.1795
  869MOL0     C19825   0.521   7.119   0.756 -0.1977 -0.2385  0.6375
  869MOL0     C19826   0.403   7.055   0.815  0.1127  0.6448 -0.3342
  869MOL0     C19827   0.403   6.905   0.793 -0.3691 -0.8733  0.1209
  869MOL0     C19828   0.529   6.842   0.847 -0.0943  0.1933  0.6625
  869MOL0    Cl19829   0.530   6.661   0.821  0.1790  0.1491  0.2931
  869MOL0     C19830   1.093   6.892   1.045 -0.2947  0.6003  0.0952
  869MOL0     C19831   1.098   6.805   1.151 -0.5655  0.5522 -0.4301
  869MOL0     O19832   0.874   6.753   1.450  0.1510  0.3994 -0.3383
  869MOL0     C19833   1.178   6.630   1.526  0.3872 -0.0139  0.5318
  869MOL0     C19834   1.260   6.564   1.616  0.0900  0.2421 -0.1418
  869MOL0     N19835   1.229   6.029   2.167 -0.2517  0.2507 -0.3008
  869MOL0     N19836   1.293   6.048   2.273  0.0969 -0.1423 -0.1282
  869MOL0     C19837   1.353   6.939   1.859  0.3937  0.1304  0.1839
  869MOL0     C19838   1.261   7.010   1.789  1.4456  0.1466  0.2578
  869MOL0     C19839   0.939   7.100   1.493  0.2083 -0.2169  0.8162
  869MOL0     C19840   0.912   7.045   1.366 -0.0396  0.6768 -0.2076
  869MOL0     C19841   0.811   7.093   1.289 -0.6580  0.3332 -0.3766
  869MOL0     C19842   0.718   7.190   1.338 -0.4249  0.5108  0.5628
  869MOL0     O19843   0.628   7.234   1.250 -0.1817  0.2829 -0.2489
  869MOL0     C19844   0.581   7.372   1.266  0.2457 -0.2475  0.4519
  869MOL0     C19845   0.532   7.438   1.133 -0.0609 -0.1200 -0.2361
  869MOL0     C19846   0.393   7.374   1.091  0.6736 -0.0494 -0.7081
  869MOL0     C19847   0.255   7.416   1.154 -0.3582 -0.1801  0.0871
  869MOL0     C19848   0.224   7.554   1.136  0.3835  0.2114  0.0699
  869MOL0     C19849   0.180   7.669   1.104 -0.4801  0.1985 -0.4875
  869MOL0     C19850   0.750   7.247   1.456 -1.2475 -0.1458 -0.0080
  869MOL0     C19851   0.863   7.216   1.533  0.3701  0.3565 -0.1610
  869MOL0     C19852   0.890   7.286   1.655 -0.2038 -0.2044 -0.9466
  869MOL0     H19853   0.998   6.795   1.832 -1.7665  3.4432  1.5532
  869MOL0     H19854   1.165   6.670   1.940 -0.6283 -0.1297 -2.3288
  869MOL0     H19855   1.365   6.566   2.034  1.0808  0.1777 -0.8097
  869MOL0     H19856   1.291   6.687   2.141  0.5553  1.1062 -0.9356
  869MOL0     H19857   1.591   6.606   2.124 -0.9661 -1.2629 -0.6600
  869MOL0     H19858   1.521   6.725   2.238 -0.6695  0.9808 -0.1103
  869MOL0     H19859   1.372   6.531   2.331  0.7912 -1.3142  0.5046
  869MOL0     H19860   1.452   6.427   2.223  1.3053  0.7185  0.0770
  869MOL0     H19861   1.669   6.472   2.320 -0.0666  0.5947 -1.3629
  869MOL0     H19862   1.596   6.603   2.421 -2.1481  1.0945 -0.7504
  869MOL0     H19863   1.466   6.456   2.554  2.8239  0.1979  1.1902
  869MOL0     H19864   1.639   6.411   2.538  1.0230 -2.2658  0.5395
  869MOL0     H19865   1.449   6.230   2.548 -0.0293 -0.5588  0.6215
  869MOL0     H19866   1.379   6.304   2.405  1.9375  3.1649 -1.1015
  869MOL0     H19867   1.676   6.224   2.378 -0.9531  2.1535 -0.2339
  869MOL0     H19868   1.567   6.256   2.253  0.3471  1.9880  0.6673
  869MOL0     H19869   1.635   6.008   2.312 -0.1984  0.6186  1.9494
  869MOL0     H19870   1.507   6.007   2.425 -0.4900  0.7369  0.0099
  869MOL0     H19871   1.546   6.036   2.068  0.7240 -1.2826  1.8651
  869MOL0     H19872   1.173   5.964   1.918  0.3582  0.4916  0.9373
  869MOL0     H19873   1.346   5.932   1.874  1.9647  1.2107  1.9390
  869MOL0     H19874   1.272   6.132   1.732  0.1267  2.0249 -0.6555
  869MOL0     H19875   1.197   6.184   1.888  0.2217  1.8218 -0.9745
  869MOL0     H19876   1.435   6.241   1.959 -2.7118 -0.3870  1.1350
  869MOL0     H19877   1.500   6.178   1.805 -0.3129  0.9202  0.8193
  869MOL0     H19878   1.473   6.424   1.798  3.0392 -4.1000  2.0181
  869MOL0     H19879   1.382   6.332   1.682  0.3132 -0.4048  0.5682
  869MOL0     H19880   1.010   6.448   1.814 -0.2244  3.1103  2.5302
  869MOL0     H19881   0.793   6.500   1.540 -1.1094 -2.4532  1.4212
  869MOL0     H19882   0.776   6.634   1.645  0.8899  0.7583 -1.9328
  869MOL0     H19883   0.799   6.466   1.710 -3.9910  2.4110  0.2865
  869MOL0     H19884   0.770   6.687   1.169  0.5609 -2.4828 -0.2079
  869MOL0     H19885   0.773   6.836   0.953  0.7020  0.5497 -1.1581
  869MOL0     H19886   1.072   7.132   0.947  1.1140  2.3346 -0.1918
  869MOL0     H19887   1.028   7.145   0.772 -2.6020 -0.2713  0.2467
  869MOL0     H19888   0.834   7.189   1.008 -0.5607  2.4014  0.3553
  869MOL0     H19889   0.909   7.304   0.901  0.3639  0.3751 -0.6660
  869MOL0     H19890   0.810   7.108   0.722 -0.6745 -0.4783 -1.3923
  869MOL0     H19891   0.761   7.273   0.735 -0.2263 -1.8690 -3.9806
  869MOL0     H19892   0.600   7.227   0.929 -0.2154  0.1285 -0.4483
  869MOL0     H19893   0.639   7.069   0.934  1.4694  0.2138 -0.0149
  869MOL0     H19894   0.479   7.216   0.726 -1.9945 -0.3052  2.6895
  869MOL0     H19895   0.559   7.065   0.669 -1.8475  2.6390 -2.0735
  869MOL0     H19896   0.306   7.094   0.785 -1.6698 -2.9196  0.2795
  869MOL0     H19897   0.414   7.070   0.923 -3.9081  2.2318  0.0241
  869MOL0     H19898   0.413   6.890   0.685  1.0558 -1.9931  0.3761
  869MOL0     H19899   0.309   6.865   0.832  1.3553 -2.6602  2.7525
  869MOL0     H19900   0.522   6.851   0.955 -0.1478 -1.0311  0.7830
  869MOL0     H19901   0.622   6.883   0.807  0.0743  0.3097  1.1758
  869MOL0     H19902   1.185   6.938   1.008 -0.6270 -0.4043 -2.1828
  869MOL0     H19903   1.191   6.801   1.208 -0.5215  2.9332 -0.2489
  869MOL0     H19904   1.227   6.684   1.446  0.3405 -3.4840 -2.1337
  869MOL0     H19905   1.369   6.559   1.616  0.3887  3.3440 -3.0268
  869MOL0     H19906   1.451   6.984   1.862  0.8636 -0.9192  2.1560
  869MOL0     H19907   1.278   7.107   1.744 -2.4012  0.5340 -0.7317
  869MOL0     H19908   0.976   6.966   1.329  0.6387  0.8445  0.5712
  869MOL0     H19909   0.789   7.055   1.189  0.5925  0.0172 -0.5449
  869MOL0     H19910   0.509   7.383   1.347 -0.1125  2.2708 -0.1387
  869MOL0     H19911   0.660   7.440   1.299 -1.6825  0.7101  3.4538
  869MOL0     H19912   0.596   7.431   1.045  2.3863 -2.3318  1.5786
  869MOL0     H19913   0.522   7.544   1.157 -3.0355 -0.7123  1.7346
  869MOL0     H19914   0.377   7.393   0.984 -1.2457 -1.6213 -0.7535
  869MOL0     H19915   0.396   7.270   1.123  1.4123  0.2033  0.0614
  869MOL0     H19916   0.240   7.388   1.258 -0.9128 -2.2791 -0.5154
  869MOL0     H19917   0.169   7.372   1.104 -1.2158  0.8239  0.6549
  869MOL0     H19918   0.153   7.771   1.087  0.5296  0.3102 -1.5183
  869MOL0     H19919   0.692   7.335   1.485 -0.6335  0.7669 -1.4740
  869MOL0     H19920   0.996   7.299   1.681 -0.0016 -1.4672 -1.0735
  869MOL0     H19921   0.840   7.383   1.655  2.3856  1.2386  0.0842
  869MOL0     H19922   0.841   7.233   1.737 -0.1053  0.9296 -0.1342
  870MOL0     O19923   2.935   3.926  10.125 -0.4139 -0.1090  0.4124
  870MOL0     C19924   3.032   3.957  10.055 -0.0457 -0.7862  0.1700
  870MOL0     O19925   3.159   4.004  10.094 -0.2987 -0.2278 -0.0444
  870MOL0     C19926   3.214   3.973  10.215 -0.5701  0.5417 -1.1269
  870MOL0     C19927   3.302   3.865  10.219  0.6747  1.3644  0.8589
  870MOL0     C19928   3.369   3.835  10.335  0.1640 -0.1919 -0.3105
  870MOL0     C19929   3.344   3.913  10.448  0.4083 -0.2594  0.4383
  870MOL0     O19930   3.400   3.875  10.569  0.5978  0.1637 -0.0680
  870MOL0     C19931   3.495   3.963  10.622 -1.2078 -0.7401  0.1147
  870MOL0     C19932   3.620   3.885  10.654 -0.2166  0.3165  0.6434
  870MOL0     C19933   3.721   3.950  10.748  0.0961  0.0820 -0.4627
  870MOL0     C19934   3.815   3.845  10.812  0.4081  0.5239  0.0439
  870MOL0     C19935   3.940   3.912  10.870  0.0962  0.2356  1.0871
  870MOL0     C19936   4.042   3.833  10.944  0.5511 -0.0341  0.2315
  870MOL0     C19937   4.134   3.931  11.024 -0.9066 -0.2958 -0.9506
  870MOL0     C19938   4.227   3.834  11.114  0.1793  0.1836 -0.2677
  870MOL0     N19939   4.143   3.766  11.218  0.0870 -0.2497  0.3396
  870MOL0     C19940   4.086   3.643  11.221 -0.0618 -0.2530  0.0744
  870MOL0     C19941   4.000   3.633  11.332 -0.9324 -0.8171  0.5950
  870MOL0     C19942   3.910   3.514  11.354 -0.5380  0.3697 -0.1716
  870MOL0     C19943   3.771   3.532  11.311  0.1187  0.2877  1.0269
  870MOL0     C19944   3.758   3.555  11.161  0.5037  0.2036 -0.0676
  870MOL0     C19945   3.600   3.568  11.132 -0.8625 -1.0931  0.2219
  870MOL0     O19946   3.587   3.596  10.991 -0.4591 -0.3857 -0.7616
  870MOL0     C19947   3.472   3.565  10.928 -0.4213  0.4327 -0.5262
  870MOL0     C19948   3.349   3.553  10.990 -0.2882 -0.3480 -0.0732
  870MOL0     C19949   3.233   3.538  10.918  0.4298  0.1221 -0.6352
  870MOL0     C19950   3.114   3.531  11.005 -0.2975 -0.9175  0.0332
  870MOL0     C19951   3.239   3.499  10.784  0.4330 -0.1370  0.3861
  870MOL0     C19952   3.121   3.480  10.695  0.4632 -0.0307 -0.4976
  870MOL0     O19953   3.129   3.497  10.557 -0.0607  0.3418  0.2845
  870MOL0     C19954   3.003   3.517  10.492  0.1504  1.3711 -0.6773
  870MOL0     C19955   2.937   3.397  10.442 -0.2081 -0.7957  0.2588
  870MOL0     C19956   2.814   3.410  10.378  0.1678  0.0414  0.4016
  870MOL0     C19957   2.755   3.531  10.349  0.1627 -0.0480  0.0109
  870MOL0     O19958   2.637   3.524  10.278 -0.2823  0.0145  0.7388
  870MOL0     C19959   2.571   3.648  10.247  1.4900  0.5855 -0.5962
  870MOL0     C19960   2.470   3.628  10.132  0.2102  0.0194 -0.1158
  870MOL0     C19961   2.406   3.496  10.126  0.5009  0.1318 -1.4456
  870MOL0     C19962   2.283   3.501  10.039  0.5478 -0.3902 -1.1316
  870MOL0     C19963   2.186   3.386  10.075  0.4466 -0.4282 -0.1332
  870MOL0     C19964   2.092   3.337   9.960  0.2560 -0.6207  0.3864
  870MOL0     C19965   2.017   3.454   9.897  0.3339  0.8415 -0.5628
  870MOL0     C19966   1.910   3.414   9.800  0.1246 -0.7362  0.1783
  870MOL0    Cl19967   1.994   3.323   9.670  0.2380 -0.3493  0.5121
  870MOL0     C19968   2.812   3.643  10.401  0.5508 -0.8132  0.3262
  870MOL0     C19969   2.931   3.636  10.485  0.0559  0.0654  0.7748
  870MOL0     O19970   3.020   3.439  10.749  0.2016  0.4307  0.0008
  870MOL0     C19971   3.357   3.516  10.722 -1.0392 -0.0504  0.0933
  870MOL0     C19972   3.478   3.548  10.788 -0.3057  1.1904 -1.0402
  870MOL0     N19973   4.002   3.763  11.379  0.6901 -0.2333 -0.2553
  870MOL0     N19974   4.099   3.836  11.323 -0.3130  0.2894  0.8240
  870MOL0     C19975   3.262   4.020  10.440  0.6997 -0.2758  0.0838
  870MOL0     C19976   3.199   4.050  10.327 -0.4647  0.5809  0.1338
  870MOL0     C19977   3.002   3.932   9.909 -0.0069  0.5027 -0.4824
  870MOL0     C19978   3.112   3.940   9.826  0.0768  0.0807 -0.6438
  870MOL0     C19979   3.126   3.908   9.688  0.3417  0.7326 -0.7115
  870MOL0     C19980   3.004   3.881   9.616  0.2322  0.5030 -0.1716
  870MOL0     O19981   3.006   3.861   9.475 -0.3022 -0.2945  0.1591
  870MOL0     C19982   3.124   3.900   9.394  0.6717  0.0217 -0.3959
  870MOL0     C19983   3.091   3.910   9.243  0.2133  0.1273 -0.5309
  870MOL0     C19984   3.190   4.000   9.177 -0.5226  0.6973  0.7413
  870MOL0     C19985   3.157   4.036   9.035 -0.2814 -0.5145  0.2229
  870MOL0     C19986   3.254   4.105   8.967 -0.5092  0.4372  0.5307
  870MOL0     C19987   3.356   4.145   8.918 -0.3407 -0.1862 -0.2979
  870MOL0     C19988   2.883   3.878   9.695 -1.1683  0.2312 -0.5557
  870MOL0     C19989   2.873   3.909   9.834 -0.2232  0.4914 -0.0447
  870MOL0     C19990   2.738   3.920   9.908 -0.3946  0.1829  0.5924
  870MOL0     H19991   3.320   3.803  10.132 -1.8986  1.3332  0.2525
  870MOL0     H19992   3.445   3.759  10.336 -1.0027 -1.4100  0.8941
  870MOL0     H19993   3.442   4.008  10.706 -0.4832  1.0287 -0.3361
  870MOL0     H19994   3.535   4.039  10.554 -0.6630  0.0619  1.3005
  870MOL0     H19995   3.579   3.799  10.710  0.0243 -0.4649 -0.3495
  870MOL0     H19996   3.667   3.855  10.560 -0.7860 -0.4691  0.5948
  870MOL0     H19997   3.787   4.012  10.687 -1.4541  2.8303  0.4911
  870MOL0     H19998   3.674   4.009  10.826 -1.8131 -2.5337  0.5133
  870MOL0     H19999   3.757   3.797  10.891  1.2651  3.2732  2.5180
  870MOL0     H20000   3.847   3.768  10.742 -2.4362 -1.5345  0.8255
  870MOL0     H20001   3.898   3.993  10.930 -2.8949  0.0091 -0.5418
  870MOL0     H20002   3.998   3.958  10.789 -0.3014 -3.7083 -1.7651
  870MOL0     H20003   3.986   3.773  11.017 -1.0168  0.1312 -0.7681
  870MOL0     H20004   4.094   3.770  10.871 -2.0760 -0.4424 -1.4629
  870MOL0     H20005   4.074   3.981  11.100  1.3421 -2.2731  2.3360
  870MOL0     H20006   4.178   4.006  10.958 -0.3306  4.7207  4.3497
  870MOL0     H20007   4.279   3.764  11.048  1.1077  0.1358  0.4955
  870MOL0     H20008   4.303   3.898  11.159  1.6831 -1.7799  0.1401
  870MOL0     H20009   4.108   3.564  11.150  0.0952 -1.0782  1.0091
  870MOL0     H20010   3.923   3.502  11.462 -1.6118 -1.2077 -0.1837
  870MOL0     H20011   3.956   3.428  11.303 -1.6953 -0.1584 -0.3532
  870MOL0     H20012   3.715   3.441  11.333 -0.5813  0.4648  0.0251
  870MOL0     H20013   3.735   3.618  11.369 -1.0739  1.2670 -1.0871
  870MOL0     H20014   3.807   3.651  11.141  2.0102  0.3968  3.6194
  870MOL0     H20015   3.810   3.478  11.105  3.8376  1.9362  0.4031
  870MOL0     H20016   3.550   3.473  11.157 -1.7808  0.1001  3.3637
  870MOL0     H20017   3.568   3.649  11.198 -1.2705 -0.3894 -0.8018
  870MOL0     H20018   3.354   3.561  11.098  0.8229  0.7120 -0.1945
  870MOL0     H20019   3.141   3.553  11.108  0.5587 -3.0060  0.3177
  870MOL0     H20020   3.073   3.429  11.010 -2.6521  0.0242  1.3164
  870MOL0     H20021   3.038   3.597  10.962 -1.5711  0.3449  3.8283
  870MOL0     H20022   2.988   3.301  10.446  1.5965  0.0312 -1.3273
  870MOL0     H20023   2.753   3.326  10.347 -0.4523  0.8209 -0.5529
  870MOL0     H20024   2.520   3.687  10.336  0.4692 -2.2116  0.1301
  870MOL0     H20025   2.646   3.721  10.215  1.7003 -0.2670 -2.1320
  870MOL0     H20026   2.393   3.706  10.133  0.3336  0.1793  2.5040
  870MOL0     H20027   2.531   3.644  10.042  0.0187  0.6557 -0.1382
  870MOL0     H20028   2.373   3.474  10.228 -3.1448  2.2820 -1.9782
  870MOL0     H20029   2.468   3.416  10.084  0.5677  0.2786 -1.6314
  870MOL0     H20030   2.312   3.483   9.935 -0.6595  0.3897 -1.6266
  870MOL0     H20031   2.222   3.590  10.054 -0.3824 -0.8864 -1.8828
  870MOL0     H20032   2.249   3.301  10.104 -0.1900 -0.4418  1.2492
  870MOL0     H20033   2.119   3.404  10.159 -0.8922 -2.1691 -0.7621
  870MOL0     H20034   2.021   3.261   9.996 -3.6965  3.0440  1.0919
  870MOL0     H20035   2.164   3.287   9.895  1.1906  0.0854  0.8467
  870MOL0     H20036   2.088   3.515   9.841  1.5568  0.2868  0.3496
  870MOL0     H20037   1.977   3.510   9.982  0.9255 -1.1164  1.0834
  870MOL0     H20038   1.863   3.501   9.754  0.8941  1.0115  2.4930
  870MOL0     H20039   1.834   3.346   9.841 -0.6658  1.1561  1.9901
  870MOL0     H20040   2.756   3.736  10.394 -3.5445 -3.1377 -1.2792
  870MOL0     H20041   2.984   3.723  10.524  0.4988  0.6687 -1.0387
  870MOL0     H20042   3.365   3.508  10.614 -2.2758 -0.7026  0.0378
  870MOL0     H20043   3.562   3.553  10.719 -0.0303  0.8387 -0.7338
  870MOL0     H20044   3.242   4.079  10.529  1.4032  1.5392 -0.9137
  870MOL0     H20045   3.117   4.122  10.330 -1.1414  0.0239 -2.4956
  870MOL0     H20046   3.211   3.968   9.862 -1.1418  0.8605  2.3684
  870MOL0     H20047   3.221   3.919   9.637  0.6565 -0.2930 -0.3698
  870MOL0     H20048   3.172   3.992   9.431  1.6611  0.0074 -1.5921
  870MOL0     H20049   3.190   3.814   9.408 -0.1824 -1.4279 -4.1143
  870MOL0     H20050   2.991   3.947   9.220 -0.0214 -1.3499 -2.0922
  870MOL0     H20051   3.104   3.810   9.200 -0.1227  0.6194 -1.7918
  870MOL0     H20052   3.184   4.091   9.238 -1.3939  1.0006  0.2144
  870MOL0     H20053   3.289   3.954   9.172 -1.1077 -0.6349  1.1589
  870MOL0     H20054   3.072   4.103   9.053 -0.9461 -1.2246 -0.1735
  870MOL0     H20055   3.132   3.940   8.989 -1.0000 -1.2301  2.0239
  870MOL0     H20056   3.440   4.197   8.877  0.3274 -0.1827  1.0329
  870MOL0     H20057   2.795   3.850   9.638  0.6677 -2.9060 -2.1018
  870MOL0     H20058   2.658   3.898   9.836  0.3372 -0.8003  0.0491
  870MOL0     H20059   2.738   3.845   9.987  1.7445  2.0697  2.5249
  870MOL0     H20060   2.721   4.018   9.953  3.9577  1.0807  0.7243
  871MOL0     O20061   6.431   3.880   6.253 -0.3213  0.6523 -0.1440
  871MOL0     C20062   6.400   3.806   6.348 -0.7145 -0.1805 -0.3847
  871MOL0     O20063   6.490   3.744   6.425  0.0329 -0.0814 -0.0306
  871MOL0     C20064   6.611   3.802   6.432  0.5623 -0.1833 -0.8319
  871MOL0     C20065   6.633   3.918   6.511  1.0490  0.4454  0.2559
  871MOL0     C20066   6.762   3.975   6.507 -0.4506 -0.8051 -0.0283
  871MOL0     C20067   6.874   3.917   6.436 -0.0460 -0.2921  0.7533
  871MOL0     O20068   7.004   3.971   6.443 -0.1818  0.0227  0.2390
  871MOL0     C20069   7.034   4.094   6.372  0.3132 -0.0112  0.1387
  871MOL0     C20070   7.186   4.109   6.383  1.0810  0.6622 -0.0311
  871MOL0     C20071   7.254   4.097   6.515  0.2702 -0.6650 -0.2984
  871MOL0     C20072   7.395   4.163   6.513  0.6608  0.6283  0.0817
  871MOL0     C20073   7.449   4.187   6.658 -1.0688 -0.7751 -0.0640
  871MOL0     C20074   7.588   4.247   6.652 -0.2000 -0.9016  0.1193
  871MOL0     C20075   7.674   4.217   6.777  0.2271 -0.7174 -0.2664
  871MOL0     C20076   7.631   4.300   6.912  0.2032 -0.0449  0.1727
  871MOL0     N20077   7.507   4.240   6.978 -0.8907 -0.2778 -0.0094
  871MOL0     C20078   7.381   4.280   6.976  0.7517 -1.1168 -0.2872
  871MOL0     C20079   7.313   4.173   7.024 -0.3788 -0.2949 -0.0524
  871MOL0     C20080   7.173   4.171   7.057 -0.4310  0.5949 -0.2450
  871MOL0     C20081   7.093   4.052   7.018  0.8050  0.1729  0.7009
  871MOL0     C20082   7.107   3.997   6.872  0.7791  0.0552  0.0100
  871MOL0     C20083   6.980   3.917   6.841  0.3363  0.1499  0.2758
  871MOL0     O20084   6.868   4.000   6.831  0.2492 -0.4833  0.1780
  871MOL0     C20085   6.762   3.930   6.870  0.8056 -1.3225  0.1623
  871MOL0     C20086   6.716   3.809   6.817  0.2483 -0.5620  0.5473
  871MOL0     C20087   6.584   3.758   6.844  0.7736  0.8238  0.7374
  871MOL0     C20088   6.540   3.640   6.767  0.0668 -0.0409  0.4617
  871MOL0     C20089   6.508   3.811   6.947 -0.5074  0.4357  1.0759
  871MOL0     C20090   6.371   3.762   6.978  0.1022  0.9632  0.0256
  871MOL0     O20091   6.291   3.859   7.030 -0.2435  0.5469 -0.4147
  871MOL0     C20092   6.160   3.829   7.075 -0.5037 -0.0532  0.0653
  871MOL0     C20093   6.053   3.778   6.996 -0.1478  0.6392  0.8575
  871MOL0     C20094   5.929   3.744   7.049  0.2078  0.1484 -0.5618
  871MOL0     C20095   5.898   3.765   7.187  0.6191  0.4270  0.4652
  871MOL0     O20096   5.776   3.736   7.245  0.1751  0.3699 -0.3979
  871MOL0     C20097   5.672   3.705   7.148  0.0989  0.1201  0.0458
  871MOL0     C20098   5.543   3.763   7.199 -0.2762  0.5937 -0.1251
  871MOL0     C20099   5.539   3.916   7.187  0.2190  1.9963  0.3970
  871MOL0     C20100   5.408   3.961   7.252 -0.0853  0.1918 -0.3189
  871MOL0     C20101   5.415   4.105   7.262 -0.1094 -0.3131 -0.0972
  871MOL0     C20102   5.304   4.160   7.333  0.4106  0.1447  0.1327
  871MOL0     C20103   5.314   4.305   7.366 -0.4407  0.4860 -0.1442
  871MOL0     C20104   5.325   4.391   7.241  0.2265 -0.3662  0.3589
  871MOL0    Cl20105   5.379   4.555   7.288  0.0666  0.0417  0.5583
  871MOL0     C20106   5.998   3.823   7.263 -0.3118 -0.1858 -0.2048
  871MOL0     C20107   6.129   3.854   7.210 -0.3764  0.9235  0.3971
  871MOL0     O20108   6.336   3.640   6.973  0.0170  0.6320 -0.3314
  871MOL0     C20109   6.569   3.918   7.022  0.7432 -0.5237  0.7143
  871MOL0     C20110   6.686   3.978   6.980  0.7795 -0.6953 -0.5367
  871MOL0     N20111   7.405   4.072   7.044  0.4029 -0.7721  0.4887
  871MOL0     N20112   7.518   4.116   7.024 -0.0598  0.1137 -0.2439
  871MOL0     C20113   6.850   3.805   6.354 -0.2478 -0.0474  0.2128
  871MOL0     C20114   6.720   3.752   6.348  0.1950 -0.2661  0.0198
  871MOL0     C20115   6.255   3.786   6.377 -0.6811  0.6990  0.0936
  871MOL0     C20116   6.214   3.726   6.493 -0.1156  0.0970  0.3179
  871MOL0     C20117   6.083   3.697   6.527 -0.6228 -0.0996 -0.4063
  871MOL0     C20118   5.982   3.754   6.450  0.6940  0.1193  0.2881
  871MOL0     O20119   5.853   3.764   6.502  0.2298 -0.1607  0.5225
  871MOL0     C20120   5.735   3.724   6.431  0.3802  0.0871 -0.3299
  871MOL0     C20121   5.694   3.574   6.433  0.2400  0.2015  0.7988
  871MOL0     C20122   5.549   3.565   6.455  0.9337 -0.3931 -0.5015
  871MOL0     C20123   5.501   3.429   6.402 -1.0334 -0.2316 -0.7570
  871MOL0     C20124   5.579   3.310   6.462 -0.0194 -0.1411 -0.2459
  871MOL0     C20125   5.635   3.211   6.496 -0.2682 -0.5141  0.6060
  871MOL0     C20126   6.021   3.816   6.332 -0.4807  0.0634 -0.0517
  871MOL0     C20127   6.151   3.832   6.287 -0.6861 -0.0308 -0.0392
  871MOL0     C20128   6.174   3.900   6.149  0.0024  0.8650 -0.3889
  871MOL0     H20129   6.564   3.974   6.574 -1.8298 -0.6176 -1.7785
  871MOL0     H20130   6.779   4.071   6.553 -0.8496 -0.5109 -0.4929
  871MOL0     H20131   6.987   4.182   6.418 -0.8922 -1.0050  0.8805
  871MOL0     H20132   6.999   4.077   6.270 -2.7167 -0.1107  1.0775
  871MOL0     H20133   7.231   4.041   6.310  3.7118  0.2622  1.8083
  871MOL0     H20134   7.212   4.204   6.336  1.7240  0.3332 -0.3697
  871MOL0     H20135   7.193   4.165   6.575  0.4841 -0.2520 -0.5424
  871MOL0     H20136   7.258   3.998   6.562  0.9163 -0.0034  1.0778
  871MOL0     H20137   7.464   4.102   6.454  0.4483  1.3387 -0.9227
  871MOL0     H20138   7.385   4.262   6.466  0.5575 -0.5168 -2.4700
  871MOL0     H20139   7.452   4.091   6.711  1.6528 -0.5440  0.3325
  871MOL0     H20140   7.384   4.258   6.711  0.1044 -1.2247  2.0943
  871MOL0     H20141   7.642   4.207   6.566  0.5157 -0.8877  0.5533
  871MOL0     H20142   7.594   4.355   6.633  0.1093 -1.4477 -3.7148
  871MOL0     H20143   7.774   4.255   6.754 -1.7871  2.9619 -4.4079
  871MOL0     H20144   7.687   4.110   6.796  4.1859 -1.1524 -3.9783
  871MOL0     H20145   7.707   4.291   6.990  0.7787  4.2241  0.3181
  871MOL0     H20146   7.610   4.406   6.895  1.1978  0.1928  0.3742
  871MOL0     H20147   7.352   4.384   6.972  1.2961 -0.5735  4.3816
  871MOL0     H20148   7.124   4.264   7.028 -0.2038  0.6181 -0.5516
  871MOL0     H20149   7.178   4.160   7.166 -0.5747 -2.1895 -0.4582
  871MOL0     H20150   7.135   3.964   7.067 -0.3020 -1.4630 -1.1357
  871MOL0     H20151   6.989   4.055   7.053  0.7511  1.3747  0.4805
  871MOL0     H20152   7.124   4.079   6.803 -0.3889 -0.3595 -0.8094
  871MOL0     H20153   7.190   3.926   6.863 -0.1790 -0.8689 -2.2803
  871MOL0     H20154   7.006   3.876   6.743  1.8000  0.8045  0.3642
  871MOL0     H20155   6.970   3.831   6.908 -2.8065 -0.7101 -1.1241
  871MOL0     H20156   6.773   3.758   6.740  1.2529  2.2880 -0.7534
  871MOL0     H20157   6.579   3.542   6.795  0.7097 -0.4129 -1.5258
  871MOL0     H20158   6.576   3.658   6.665  1.4458  1.0503  1.1111
  871MOL0     H20159   6.432   3.624   6.775  0.3731 -2.6994  0.1548
  871MOL0     H20160   6.062   3.765   6.888  0.0208 -1.7989  1.1159
  871MOL0     H20161   5.863   3.712   6.969 -1.5710  0.3628  0.7526
  871MOL0     H20162   5.685   3.756   7.053 -0.6794  0.1127 -0.0767
  871MOL0     H20163   5.651   3.598   7.144 -2.6975  0.6143 -0.8112
  871MOL0     H20164   5.465   3.713   7.140 -0.8180  0.3161  0.8005
  871MOL0     H20165   5.517   3.729   7.300  0.4582 -0.7766 -0.3743
  871MOL0     H20166   5.528   3.941   7.081  0.1587  1.8512  0.3683
  871MOL0     H20167   5.629   3.968   7.220  1.0854  2.4952 -2.4971
  871MOL0     H20168   5.392   3.910   7.347 -1.9654  0.2190 -0.5869
  871MOL0     H20169   5.317   3.929   7.200 -1.1854  1.4819  0.7359
  871MOL0     H20170   5.513   4.122   7.308  0.3133  1.0024 -1.4077
  871MOL0     H20171   5.421   4.149   7.162 -0.0039  0.1662  0.1175
  871MOL0     H20172   5.295   4.120   7.434 -3.3922 -0.1045 -0.1623
  871MOL0     H20173   5.208   4.137   7.285  0.4650 -1.9255  0.9392
  871MOL0     H20174   5.396   4.316   7.437 -2.0210  0.2234  1.7982
  871MOL0     H20175   5.229   4.340   7.426  1.1492 -0.4162  2.8269
  871MOL0     H20176   5.221   4.400   7.206  0.2777 -0.1366  0.2626
  871MOL0     H20177   5.397   4.352   7.168  0.1193 -1.9519  1.0697
  871MOL0     H20178   5.985   3.841   7.369  2.5518 -0.6480  0.3113
  871MOL0     H20179   6.214   3.894   7.265  0.0907  2.1193 -1.1252
  871MOL0     H20180   6.511   3.962   7.103  0.8545  0.7471  0.1362
  871MOL0     H20181   6.720   4.069   7.029 -1.1336  1.0956 -2.2703
  871MOL0     H20182   6.927   3.758   6.294 -1.4869 -0.3604 -1.1901
  871MOL0     H20183   6.701   3.680   6.269  1.6901  1.7456 -2.3224
  871MOL0     H20184   6.287   3.695   6.567  0.3247  1.7946  0.6345
  871MOL0     H20185   6.055   3.644   6.618 -1.4013  0.7392 -0.1473
  871MOL0     H20186   5.658   3.790   6.471  2.8065  1.8452  1.8103
  871MOL0     H20187   5.737   3.769   6.332 -0.9691 -0.5016 -0.6423
  871MOL0     H20188   5.736   3.536   6.526 -2.3975 -0.7396  1.6721
  871MOL0     H20189   5.732   3.519   6.346  1.1647  2.2249 -0.1521
  871MOL0     H20190   5.519   3.588   6.558  4.1805 -3.2906  1.3312
  871MOL0     H20191   5.510   3.643   6.389  3.0258  1.1119 -0.0564
  871MOL0     H20192   5.512   3.440   6.294 -2.4818 -1.5487 -1.0711
  871MOL0     H20193   5.394   3.425   6.426 -0.8214 -1.2187  0.0511
  871MOL0     H20194   5.683   3.117   6.510  0.8108  0.1372  1.4884
  871MOL0     H20195   5.941   3.865   6.278  1.2521  1.9911 -0.9834
  871MOL0     H20196   6.236   3.837   6.086  1.8912  3.1065 -0.8923
  871MOL0     H20197   6.080   3.916   6.095 -1.0364  0.0494  1.0780
  871MOL0     H20198   6.228   3.995   6.150 -2.7902  2.6409 -2.3912
  872MOL0     O20199   0.381   9.552   9.610 -0.6066 -0.2682 -0.6871
  872MOL0     C20200   0.477   9.491   9.670 -0.6071 -0.0311  0.2177
  872MOL0     O20201   0.578   9.428   9.602 -0.8258  0.4700  0.0637
  872MOL0     C20202   0.566   9.431   9.465 -0.3460 -0.2561  1.3779
  872MOL0     C20203   0.664   9.489   9.383  0.0974 -0.1331 -0.0050
  872MOL0     C20204   0.656   9.498   9.249 -0.0164 -1.0558 -0.0599
  872MOL0     C20205   0.562   9.436   9.176  0.7448  0.7333  0.8176
  872MOL0     O20206   0.552   9.425   9.041  0.0202  0.0225 -0.6680
  872MOL0     C20207   0.605   9.542   8.970  0.5433 -0.3149  0.0977
  872MOL0     C20208   0.750   9.494   8.910 -0.6476 -0.4192  0.5796
  872MOL0     C20209   0.745   9.378   8.808 -0.2117 -0.3408 -0.3183
  872MOL0     C20210   0.887   9.334   8.761 -0.4580 -0.0888  0.6708
  872MOL0     C20211   0.879   9.234   8.651 -0.9501  0.0550 -0.2123
  872MOL0     C20212   0.800   9.107   8.678  0.2779 -0.3740  0.1049
  872MOL0     C20213   0.837   8.994   8.576  0.7529  0.2382 -0.3829
  872MOL0     C20214   0.729   8.884   8.580 -0.4940 -0.2176  0.4206
  872MOL0     N20215   0.756   8.772   8.485 -0.3771  0.8653 -0.9639
  872MOL0     C20216   0.838   8.777   8.375  0.4519  0.7559  0.3984
  872MOL0     C20217   0.844   8.640   8.336 -0.3931  0.4057  0.3500
  872MOL0     C20218   0.930   8.582   8.229  0.4212 -0.2185  0.1010
  872MOL0     C20219   0.836   8.540   8.114  0.2094 -0.2034 -0.9886
  872MOL0     C20220   0.911   8.527   7.976 -1.1691 -1.0793  0.5913
  872MOL0     C20221   0.816   8.464   7.872 -0.7669  0.1706 -0.7084
  872MOL0     O20222   0.889   8.433   7.758 -0.3029  0.3368  0.2247
  872MOL0     C20223   0.823   8.351   7.673  0.2198  0.1704  0.2660
  872MOL0     C20224   0.911   8.294   7.575  0.6111 -0.1016  0.2253
  872MOL0     C20225   0.861   8.189   7.494 -0.8809 -0.2511 -0.0511
  872MOL0     C20226   0.972   8.125   7.414 -0.2495  0.6109  0.0389
  872MOL0     C20227   0.723   8.161   7.499  0.3637  0.8560 -0.4157
  872MOL0     C20228   0.668   8.048   7.424  0.8019 -0.2064 -0.4689
  872MOL0     O20229   0.554   7.986   7.478  0.1685 -0.8127  0.3036
  872MOL0     C20230   0.507   7.879   7.420  1.1011 -0.0666  0.4576
  872MOL0     C20231   0.589   7.769   7.382 -0.1515 -0.3485 -0.1163
  872MOL0     C20232   0.518   7.667   7.320 -0.1255  0.4953  0.0853
  872MOL0     C20233   0.387   7.679   7.281 -1.0197 -0.0160  0.6415
  872MOL0     O20234   0.335   7.559   7.235 -0.1721 -0.0035  0.4892
  872MOL0     C20235   0.220   7.565   7.154  0.2830  0.7248 -0.6432
  872MOL0     C20236   0.210   7.419   7.110  0.7697  0.6398 -0.1924
  872MOL0     C20237   0.330   7.385   7.023  0.3339 -1.6050  0.2968
  872MOL0     C20238   0.321   7.253   6.960  0.3746  0.7174 -0.0370
  872MOL0     C20239   0.261   7.268   6.819  0.5477 -0.3813 -0.5138
  872MOL0     C20240   0.288   7.132   6.748 -0.1624 -0.2217 -0.3846
  872MOL0     C20241   0.234   7.131   6.602  0.0183  0.4336 -0.0532
  872MOL0     C20242   0.309   7.210   6.501 -0.4308 -0.5520  0.3264
  872MOL0    Cl20243   0.243   7.365   6.476  0.0471  0.0417  0.2915
  872MOL0     C20244   0.312   7.782   7.327  0.7362 -0.3870  0.4973
  872MOL0     C20245   0.369   7.889   7.396 -0.9249  0.5362  0.7306
  872MOL0     O20246   0.710   8.026   7.315  0.1646  0.5455  0.1037
  872MOL0     C20247   0.631   8.235   7.573 -0.4130  0.0984 -0.1425
  872MOL0     C20248   0.680   8.334   7.658  0.7364  0.0303 -0.4340
  872MOL0     N20249   0.750   8.570   8.407  0.3621 -0.2285  0.2668
  872MOL0     N20250   0.703   8.645   8.500 -0.4302 -1.2809  0.4325
  872MOL0     C20251   0.460   9.368   9.252  0.8425 -0.4204  0.0845
  872MOL0     C20252   0.462   9.366   9.395  0.0956 -0.8921 -0.5536
  872MOL0     C20253   0.497   9.504   9.812 -0.5273 -1.3286 -0.2349
  872MOL0     C20254   0.622   9.472   9.870  0.3976 -0.1500 -0.4659
  872MOL0     C20255   0.648   9.477  10.011 -0.9239 -0.7909 -0.2547
  872MOL0     C20256   0.539   9.499  10.101  1.6587  0.2755  0.2501
  872MOL0     O20257   0.567   9.516  10.231 -0.5528 -0.0215 -0.1655
  872MOL0     C20258   0.466   9.501  10.328 -0.2751 -0.8713 -1.3781
  872MOL0     C20259   0.527   9.532  10.466 -0.3178  0.7576 -0.6696
  872MOL0     C20260   0.449   9.510  10.590  0.6333  0.0140 -0.2461
  872MOL0     C20261   0.521   9.488  10.719 -0.6264  0.1851  0.4297
  872MOL0     C20262   0.597   9.616  10.750  0.1930  0.2742 -0.3922
  872MOL0     C20263   0.649   9.722  10.779  0.0139 -1.0179 -0.1650
  872MOL0     C20264   0.410   9.506  10.045  0.5471  0.2134  0.6088
  872MOL0     C20265   0.383   9.510   9.909 -0.0836 -0.4321 -0.5744
  872MOL0     C20266   0.242   9.528   9.863 -0.3135  0.0825 -0.6116
  872MOL0     H20267   0.736   9.541   9.445  0.4668 -1.2542  0.5281
  872MOL0     H20268   0.732   9.557   9.198 -1.2298 -1.2735 -2.2335
  872MOL0     H20269   0.632   9.631   9.027 -1.7415  0.3928  0.1769
  872MOL0     H20270   0.531   9.567   8.894  2.1608  0.7456 -1.2097
  872MOL0     H20271   0.798   9.582   8.866 -2.2192 -0.2875 -1.0062
  872MOL0     H20272   0.821   9.469   8.989 -0.7474 -2.1641  0.1470
  872MOL0     H20273   0.690   9.295   8.852  1.5188 -0.1081  2.5591
  872MOL0     H20274   0.682   9.416   8.726 -1.2052  0.8855  0.9630
  872MOL0     H20275   0.936   9.424   8.723 -1.4055  0.3324  0.4014
  872MOL0     H20276   0.954   9.301   8.841 -2.1120 -1.9252  1.3690
  872MOL0     H20277   0.985   9.213   8.632 -0.8308  0.6374 -0.2044
  872MOL0     H20278   0.825   9.275   8.566 -0.6976  0.6733 -0.0809
  872MOL0     H20279   0.810   9.061   8.777  0.0754  0.2963  0.4420
  872MOL0     H20280   0.696   9.136   8.664  0.3435 -0.9275 -1.8202
  872MOL0     H20281   0.931   8.956   8.617 -0.4046 -0.4236  1.7858
  872MOL0     H20282   0.842   9.036   8.475  0.6651 -2.7219 -1.7159
  872MOL0     H20283   0.733   8.857   8.686  1.8624  2.0787  1.0207
  872MOL0     H20284   0.630   8.929   8.567  0.0785  0.7139 -0.9511
  872MOL0     H20285   0.886   8.865   8.333 -0.9845  0.8455 -1.1280
  872MOL0     H20286   0.985   8.496   8.269  0.5303  0.4667  1.4920
  872MOL0     H20287   1.000   8.653   8.185 -1.1066  0.8656 -0.6388
  872MOL0     H20288   0.794   8.442   8.138  0.4529 -0.2508 -0.7548
  872MOL0     H20289   0.752   8.609   8.103  0.0532 -0.4102 -1.1130
  872MOL0     H20290   0.954   8.625   7.955 -1.3440 -1.4407 -1.7029
  872MOL0     H20291   0.996   8.460   7.991 -0.7803 -0.1747  2.8131
  872MOL0     H20292   0.777   8.371   7.915  2.3552 -0.8336  0.2288
  872MOL0     H20293   0.729   8.522   7.841  0.1656  0.4974 -2.8560
  872MOL0     H20294   1.017   8.317   7.582  0.4945  0.2242  0.9439
  872MOL0     H20295   0.953   8.017   7.408 -1.9426  0.8288  0.9716
  872MOL0     H20296   1.066   8.127   7.471 -0.0851  0.3085 -0.2147
  872MOL0     H20297   0.991   8.168   7.315 -0.6598  1.6326  0.3907
  872MOL0     H20298   0.694   7.749   7.400 -0.1546  0.7223  1.1564
  872MOL0     H20299   0.566   7.571   7.303  1.0397  0.9937  0.4308
  872MOL0     H20300   0.126   7.594   7.203  0.6407 -0.6056  0.9133
  872MOL0     H20301   0.247   7.640   7.079  1.8976  0.2823 -0.5329
  872MOL0     H20302   0.204   7.362   7.204  1.1833  2.1783  0.8093
  872MOL0     H20303   0.114   7.400   7.062  2.1832 -1.2078 -2.4886
  872MOL0     H20304   0.424   7.404   7.075  1.0405 -0.2183 -1.3962
  872MOL0     H20305   0.342   7.463   6.947  1.6160 -1.7820  0.3039
  872MOL0     H20306   0.258   7.189   7.022  2.4752  1.4639  3.0885
  872MOL0     H20307   0.415   7.196   6.963 -0.2140 -0.3105 -0.6905
  872MOL0     H20308   0.155   7.295   6.821  0.9697  1.3728 -0.2218
  872MOL0     H20309   0.318   7.342   6.762  1.6045  0.9107  2.0488
  872MOL0     H20310   0.252   7.046   6.805  0.6989 -3.1538 -3.8761
  872MOL0     H20311   0.394   7.104   6.750 -0.2436 -0.9295  4.3567
  872MOL0     H20312   0.132   7.171   6.603  0.2212  0.9759  2.2541
  872MOL0     H20313   0.233   7.026   6.568  1.5667  0.0513  0.9804
  872MOL0     H20314   0.286   7.166   6.403  0.4483  1.2964 -0.7451
  872MOL0     H20315   0.416   7.200   6.522 -0.2298  2.4744  1.2099
  872MOL0     H20316   0.205   7.778   7.308  0.0028  0.2720  3.8640
  872MOL0     H20317   0.318   7.982   7.420 -1.0251  1.7581 -3.4241
  872MOL0     H20318   0.525   8.214   7.568 -0.7858  0.2567  3.8789
  872MOL0     H20319   0.605   8.389   7.714 -1.3246 -2.3624 -0.6563
  872MOL0     H20320   0.380   9.314   9.203  1.6484 -1.0906 -0.5089
  872MOL0     H20321   0.389   9.297   9.436 -0.6002 -0.5898 -1.2563
  872MOL0     H20322   0.705   9.456   9.802  0.3246 -1.6734 -0.2296
  872MOL0     H20323   0.751   9.456  10.035 -0.6588  0.5483 -0.1521
  872MOL0     H20324   0.379   9.567  10.320  0.3669 -0.1861 -3.3211
  872MOL0     H20325   0.417   9.403  10.334 -5.5974  1.4413 -0.9633
  872MOL0     H20326   0.560   9.637  10.464  3.3317 -0.2335 -0.4372
  872MOL0     H20327   0.605   9.455  10.469 -1.1714 -0.1172 -0.2161
  872MOL0     H20328   0.394   9.604  10.599 -1.7331 -1.4413  2.0188
  872MOL0     H20329   0.387   9.422  10.569  1.7419 -1.4334  2.1412
  872MOL0     H20330   0.588   9.403  10.702 -0.7598  0.5397 -2.4793
  872MOL0     H20331   0.447   9.467  10.796 -1.3502  0.2575 -0.2284
  872MOL0     H20332   0.704   9.813  10.789 -2.1511  0.7726 -3.0845
  872MOL0     H20333   0.328   9.501  10.117 -2.2510  2.7770 -2.1187
  872MOL0     H20334   0.223   9.634   9.844 -0.3699 -0.0394 -1.2803
  872MOL0     H20335   0.212   9.463   9.780  1.1883 -1.6479  0.1199
  872MOL0     H20336   0.170   9.481   9.930 -2.0393  1.9966 -1.0365
  873MOL0     O20337   8.644   2.606   5.945 -0.0780 -0.0054 -0.2140
  873MOL0     C20338   8.583   2.586   5.840  0.4489 -0.0276 -0.1157
  873MOL0     O20339   8.464   2.517   5.829 -0.2300  1.5872  0.1834
  873MOL0     C20340   8.421   2.449   5.947 -0.8980 -1.3712  0.6297
  873MOL0     C20341   8.389   2.512   6.061  0.1871  0.4100 -0.5104
  873MOL0     C20342   8.343   2.440   6.172  0.1181  0.2185  0.7014
  873MOL0     C20343   8.304   2.308   6.172  0.1909  0.4434 -0.0055
  873MOL0     O20344   8.236   2.248   6.275 -0.3136 -0.6422 -0.5822
  873MOL0     C20345   8.278   2.115   6.309 -0.8787 -0.7470  0.6610
  873MOL0     C20346   8.307   2.128   6.460  0.4003  0.2522 -0.6898
  873MOL0     C20347   8.346   2.002   6.540  0.0477 -0.5041  0.4456
  873MOL0     C20348   8.391   2.042   6.677 -0.0198  0.7878  0.0754
  873MOL0     C20349   8.279   2.123   6.751 -0.5166  0.1802 -0.6908
  873MOL0     C20350   8.316   2.123   6.903  0.0918  0.3403  0.6633
  873MOL0     C20351   8.196   2.153   6.986  0.3710  0.4993 -1.1696
  873MOL0     C20352   8.144   2.301   6.961 -0.1140  0.5846 -0.0246
  873MOL0     N20353   8.026   2.325   7.046 -0.3410  0.2877  0.5457
  873MOL0     C20354   7.906   2.272   7.030 -0.7674 -0.3369 -0.1029
  873MOL0     C20355   7.831   2.324   7.131 -0.8182  0.1113  0.4742
  873MOL0     C20356   7.684   2.300   7.157 -0.0532 -0.3098 -0.1981
  873MOL0     C20357   7.612   2.434   7.167 -0.0042 -0.3958 -0.3442
  873MOL0     C20358   7.613   2.487   7.313 -0.1519  0.2445 -0.0785
  873MOL0     C20359   7.572   2.634   7.345 -0.1622 -0.4201  0.5689
  873MOL0     O20360   7.620   2.730   7.245  0.5489 -0.6223  0.6741
  873MOL0     C20361   7.669   2.848   7.299  0.2742  0.6962 -0.9761
  873MOL0     C20362   7.775   2.905   7.244  0.3624  0.3078  1.0873
  873MOL0     C20363   7.821   3.034   7.286  0.0709  0.4386 -0.0631
  873MOL0     C20364   7.952   3.097   7.228 -0.4806  1.0127  0.6880
  873MOL0     C20365   7.756   3.095   7.393  0.4621  0.5279 -0.5791
  873MOL0     C20366   7.785   3.234   7.449 -0.3962  0.0742 -0.2727
  873MOL0     O20367   7.822   3.332   7.357 -1.1388  0.5606  0.2317
  873MOL0     C20368   7.823   3.458   7.390  0.3107 -0.7873  0.0874
  873MOL0     C20369   7.713   3.531   7.360  0.2940  0.2239 -1.2755
  873MOL0     C20370   7.696   3.671   7.384 -0.2123 -0.7073  1.0751
  873MOL0     C20371   7.795   3.737   7.462  0.5265 -0.1179  0.2824
  873MOL0     O20372   7.770   3.863   7.504 -0.9398  0.0375 -0.1363
  873MOL0     C20373   7.862   3.936   7.586 -0.8503  0.0843  0.3613
  873MOL0     C20374   7.783   4.063   7.620 -0.1476  0.4876 -0.0823
  873MOL0     C20375   7.870   4.145   7.717  0.2084  0.2002  0.3664
  873MOL0     C20376   7.807   4.279   7.752  0.0361  1.5270  0.4796
  873MOL0     C20377   7.903   4.349   7.843  0.9534  1.2618 -0.2124
  873MOL0     C20378   7.867   4.501   7.866 -0.0382  0.2419  0.7512
  873MOL0     C20379   7.984   4.592   7.935 -0.2481  0.1509  0.1285
  873MOL0     C20380   8.002   4.537   8.068  0.8287  0.4623  1.1873
  873MOL0    Cl20381   7.863   4.566   8.185 -0.2687  0.4368  0.0303
  873MOL0     C20382   7.905   3.667   7.505 -0.2705 -0.0699  1.6269
  873MOL0     C20383   7.920   3.530   7.467  0.4227  0.2994 -0.2415
  873MOL0     O20384   7.756   3.260   7.568 -0.6522 -0.1417  0.4589
  873MOL0     C20385   7.667   3.017   7.472 -0.2435  0.5129  0.0351
  873MOL0     C20386   7.620   2.901   7.422  0.5554  0.0731  0.0480
  873MOL0     N20387   7.919   2.386   7.218  0.3368 -0.1980  0.8751
  873MOL0     N20388   8.038   2.377   7.161  0.4935 -0.2937 -0.7163
  873MOL0     C20389   8.352   2.245   6.059  0.2241  0.4471  0.0801
  873MOL0     C20390   8.403   2.314   5.946  0.6353  0.4771 -1.2883
  873MOL0     C20391   8.637   2.651   5.711 -0.4271  0.2784  0.6406
  873MOL0     C20392   8.562   2.646   5.586  1.0105 -0.0712  0.7161
  873MOL0     C20393   8.612   2.687   5.461  0.0001  0.0769 -0.3273
  873MOL0     C20394   8.742   2.725   5.437  0.3083 -0.8192 -0.0576
  873MOL0     O20395   8.790   2.743   5.309  0.0397 -0.7055  0.9996
  873MOL0     C20396   8.690   2.748   5.209 -0.4220  0.0999  0.0925
  873MOL0     C20397   8.740   2.780   5.069 -0.3896  0.8781  0.7879
  873MOL0     C20398   8.619   2.789   4.972  0.0497 -0.4515  0.4170
  873MOL0     C20399   8.523   2.671   4.960 -0.3021 -0.4370 -0.3220
  873MOL0     C20400   8.435   2.677   4.839  1.0199 -0.0097 -0.2377
  873MOL0     C20401   8.372   2.683   4.739 -0.2230 -0.3952 -0.1787
  873MOL0     C20402   8.821   2.742   5.555  1.2397 -0.0223 -0.0390
  873MOL0     C20403   8.770   2.699   5.683 -0.4069  0.2437 -0.1721
  873MOL0     C20404   8.879   2.692   5.794  0.7324 -0.6140 -0.1417
  873MOL0     H20405   8.398   2.618   6.083 -1.6811  0.3030  1.0186
  873MOL0     H20406   8.299   2.489   6.259 -1.4145  1.0192 -0.4681
  873MOL0     H20407   8.377   2.092   6.269 -0.8637  0.8565 -0.3021
  873MOL0     H20408   8.209   2.033   6.286  0.5221 -1.9946  0.7304
  873MOL0     H20409   8.383   2.205   6.474 -0.4917  0.5557  4.7459
  873MOL0     H20410   8.211   2.163   6.499 -0.4117 -2.1886 -0.2726
  873MOL0     H20411   8.251   1.948   6.547 -0.1706  0.0848  2.6686
  873MOL0     H20412   8.418   1.947   6.479  1.3778  1.8699 -0.2485
  873MOL0     H20413   8.412   1.950   6.732 -3.3389 -0.1615  0.0060
  873MOL0     H20414   8.487   2.093   6.679 -0.1404  1.2229 -2.2980
  873MOL0     H20415   8.180   2.078   6.740 -1.2417  1.0074  1.7108
  873MOL0     H20416   8.291   2.225   6.715  1.3159  1.7260  3.5920
  873MOL0     H20417   8.346   2.019   6.924 -0.6387  0.4237  2.2390
  873MOL0     H20418   8.397   2.195   6.921  0.6894  0.1924 -1.2402
  873MOL0     H20419   8.229   2.144   7.089  1.7575 -2.4814 -1.7524
  873MOL0     H20420   8.125   2.071   6.966 -2.1480  1.9701  1.0972
  873MOL0     H20421   8.225   2.370   6.985  1.4608 -1.4370  0.7666
  873MOL0     H20422   8.131   2.309   6.852  1.5396 -2.8016 -0.6091
  873MOL0     H20423   7.860   2.217   6.948 -1.0864 -0.5526  0.2201
  873MOL0     H20424   7.665   2.238   7.245 -0.0620 -0.4803 -0.3205
  873MOL0     H20425   7.649   2.243   7.071  1.0975 -0.5937 -0.4969
  873MOL0     H20426   7.650   2.506   7.093  0.5537  0.8846  1.1272
  873MOL0     H20427   7.506   2.428   7.141 -0.6292  1.9142  1.3558
  873MOL0     H20428   7.538   2.431   7.368 -0.4255  2.8995  2.4384
  873MOL0     H20429   7.711   2.470   7.358  0.0010 -3.4055 -1.4030
  873MOL0     H20430   7.462   2.636   7.344 -0.1556  0.1411 -0.1179
  873MOL0     H20431   7.608   2.653   7.446  1.5463  1.8289 -0.3805
  873MOL0     H20432   7.835   2.850   7.172 -1.1596 -0.8564  0.6581
  873MOL0     H20433   7.925   3.169   7.150  1.8171  1.9154  0.6621
  873MOL0     H20434   7.993   3.013   7.171 -1.4565  0.9008  0.1199
  873MOL0     H20435   8.021   3.134   7.304  1.4027  1.2943 -1.0433
  873MOL0     H20436   7.635   3.479   7.305 -1.4252  2.2822 -0.8806
  873MOL0     H20437   7.609   3.727   7.351  2.1026  1.5803 -1.6860
  873MOL0     H20438   7.881   3.886   7.681  0.0840 -1.3694 -0.5518
  873MOL0     H20439   7.959   3.962   7.542 -0.6974 -0.3973  0.4101
  873MOL0     H20440   7.738   4.117   7.536 -2.3226 -1.3774 -0.2243
  873MOL0     H20441   7.698   4.027   7.679  0.9015 -1.0442  0.5478
  873MOL0     H20442   7.960   4.158   7.657 -0.0932  0.1610 -0.0997
  873MOL0     H20443   7.884   4.087   7.809 -4.1900 -0.0603  1.1002
  873MOL0     H20444   7.710   4.265   7.800  0.3508 -2.2756  0.3022
  873MOL0     H20445   7.789   4.335   7.660  0.7632 -2.1617 -2.1393
  873MOL0     H20446   7.911   4.291   7.936  0.5942 -3.3347 -2.7511
  873MOL0     H20447   8.003   4.339   7.798  0.5927 -1.5589 -0.5761
  873MOL0     H20448   7.772   4.514   7.919 -1.0889 -2.3455 -0.2906
  873MOL0     H20449   7.847   4.538   7.765  0.3236 -2.9510 -0.6095
  873MOL0     H20450   7.963   4.699   7.927 -1.5245 -0.0506  0.4822
  873MOL0     H20451   8.072   4.567   7.875 -2.2936 -1.3898 -2.4536
  873MOL0     H20452   8.091   4.576   8.118  0.2722  1.8357  1.1775
  873MOL0     H20453   8.027   4.431   8.069  0.6767  0.4253  2.0762
  873MOL0     H20454   7.986   3.720   7.552 -2.0452  1.6682  2.8863
  873MOL0     H20455   8.012   3.479   7.494  0.5989 -0.1874 -1.6649
  873MOL0     H20456   7.631   3.047   7.570  1.4184  2.8053  0.0325
  873MOL0     H20457   7.528   2.863   7.464 -0.5913 -0.6033 -2.8368
  873MOL0     H20458   8.347   2.136   6.065  0.3071  0.4814  0.9697
  873MOL0     H20459   8.432   2.267   5.853  1.5017 -0.7942 -0.3969
  873MOL0     H20460   8.466   2.595   5.583  1.2094 -0.4178 -0.3697
  873MOL0     H20461   8.552   2.663   5.374  3.6018 -0.2445 -2.9254
  873MOL0     H20462   8.639   2.652   5.202 -0.3035  0.1413 -2.7118
  873MOL0     H20463   8.613   2.824   5.224 -1.0818 -0.4911 -0.2292
  873MOL0     H20464   8.823   2.714   5.039 -1.6594 -0.4543  0.0953
  873MOL0     H20465   8.784   2.880   5.070 -2.3512  1.8539 -1.5454
  873MOL0     H20466   8.570   2.887   4.973  0.5652 -0.1001  3.9279
  873MOL0     H20467   8.664   2.793   4.873  1.4586  0.2039  1.0612
  873MOL0     H20468   8.466   2.658   5.052 -2.9511 -2.0592 -2.0364
  873MOL0     H20469   8.583   2.585   4.930  1.5045  2.0538 -4.9562
  873MOL0     H20470   8.328   2.689   4.641  2.0813 -2.2682 -1.4265
  873MOL0     H20471   8.923   2.779   5.546  0.8394  1.0703 -0.1916
  873MOL0     H20472   8.826   2.731   5.882 -0.0273 -2.0895  0.1007
  873MOL0     H20473   8.919   2.590   5.795 -1.5055 -1.5589 -0.1737
  873MOL0     H20474   8.965   2.757   5.776  1.9468 -1.9003  0.7774
  874MOL0     O20475   1.867   8.260   2.641 -0.2594 -0.3245  0.0746
  874MOL0     C20476   1.983   8.278   2.670  0.1543  0.1471 -0.2601
  874MOL0     O20477   2.057   8.382   2.614  0.6896  0.3598 -0.3238
  874MOL0     C20478   2.002   8.467   2.522 -0.5140  0.2064 -0.9865
  874MOL0     C20479   1.931   8.571   2.581 -0.0181  1.0781 -0.5027
  874MOL0     C20480   1.860   8.664   2.497  1.2518  0.5103 -0.6212
  874MOL0     C20481   1.859   8.647   2.356 -0.5869  0.4881 -0.2316
  874MOL0     O20482   1.766   8.703   2.274  0.0003  0.3624  0.0728
  874MOL0     C20483   1.733   8.839   2.291 -0.0073 -0.0976  0.4072
  874MOL0     C20484   1.600   8.843   2.368  0.4388  0.4627 -0.0051
  874MOL0     C20485   1.471   8.860   2.286 -0.1117  0.3506  0.3945
  874MOL0     C20486   1.493   8.861   2.131 -0.2560 -0.0012  0.3719
  874MOL0     C20487   1.358   8.885   2.057  0.6690  0.2244 -0.4875
  874MOL0     C20488   1.345   8.838   1.913  0.2376 -1.1522 -0.7669
  874MOL0     C20489   1.234   8.902   1.822  0.6399 -0.4402 -0.0340
  874MOL0     C20490   1.091   8.865   1.863 -0.1165  0.0086  0.5335
  874MOL0     N20491   0.991   8.909   1.758  0.3240  0.1067 -1.0136
  874MOL0     C20492   0.922   8.821   1.678  0.3161 -0.2949 -1.1249
  874MOL0     C20493   0.858   8.896   1.584 -0.2408 -0.6280  0.1915
  874MOL0     C20494   0.763   8.850   1.475 -0.7015 -0.5782 -0.3792
  874MOL0     C20495   0.664   8.750   1.515 -0.1051 -0.0350 -0.4555
  874MOL0     C20496   0.550   8.736   1.416 -0.2208 -0.1265  0.5491
  874MOL0     C20497   0.587   8.672   1.282 -1.1324  0.4525  1.6683
  874MOL0     O20498   0.466   8.659   1.204 -0.5308 -0.5236  0.2432
  874MOL0     C20499   0.486   8.664   1.063  0.4092  0.6226 -0.0816
  874MOL0     C20500   0.580   8.584   0.996  0.4502 -1.0631  0.8631
  874MOL0     C20501   0.590   8.581   0.854 -0.3616  0.2619 -1.1675
  874MOL0     C20502   0.668   8.469   0.806  0.1237  0.8829  1.2173
  874MOL0     C20503   0.515   8.670   0.780  1.0025  0.2512 -0.3480
  874MOL0     C20504   0.523   8.696   0.633 -0.3708 -0.5712 -0.2883
  874MOL0     O20505   0.540   8.596   0.543 -0.7491  0.0951  0.1153
  874MOL0     C20506   0.519   8.616   0.412 -0.3380 -0.0478  0.7927
  874MOL0     C20507   0.598   8.705   0.343 -0.0898  0.4112  0.1676
  874MOL0     C20508   0.583   8.730   0.200 -1.0323  0.1639 -0.6150
  874MOL0     C20509   0.498   8.646   0.128  0.4980 -0.2219 -0.4619
  874MOL0     O20510   0.471   8.664  -0.004 -0.0930  0.5502 -1.1735
  874MOL0     C20511   0.557   8.742  -0.080  0.2684 -0.2416  0.7022
  874MOL0     C20512   0.552   8.713  -0.236  0.4675  0.9629  0.2001
  874MOL0     C20513   0.422   8.727  -0.316  0.3163  0.6815  0.0688
  874MOL0     C20514   0.356   8.586  -0.333  0.1014  0.4124  0.5809
  874MOL0     C20515   0.204   8.611  -0.370 -1.0986 -0.0841 -0.8666
  874MOL0     C20516   0.145   8.479  -0.426 -0.8051  0.7589 -0.2558
  874MOL0     C20517  -0.006   8.477  -0.455 -0.4156 -0.0335 -1.3395
  874MOL0     C20518  -0.042   8.341  -0.524 -0.1785 -0.6328  0.5679
  874MOL0    Cl20519  -0.065   8.211  -0.412 -0.1566 -0.2047 -0.2311
  874MOL0     C20520   0.420   8.554   0.199 -0.3923 -0.1897  0.0113
  874MOL0     C20521   0.427   8.540   0.335  0.3295  0.2514 -0.2515
  874MOL0     O20522   0.511   8.817   0.603 -0.2464 -0.1684 -0.0555
  874MOL0     C20523   0.432   8.762   0.850  1.4389 -0.2380 -0.0168
  874MOL0     C20524   0.421   8.757   0.987 -0.1187  0.2591 -0.5727
  874MOL0     N20525   0.883   9.030   1.617 -0.0307  0.0819  0.3265
  874MOL0     N20526   0.968   9.039   1.708  0.2250  0.0038 -0.1229
  874MOL0     C20527   1.941   8.550   2.295 -0.7295  0.3484 -0.3976
  874MOL0     C20528   2.013   8.460   2.382 -0.1404 -0.4520  0.1674
  874MOL0     C20529   2.044   8.183   2.770  0.4544  0.6167  0.1780
  874MOL0     C20530   2.180   8.156   2.743  0.4033  0.1061  0.3490
  874MOL0     C20531   2.247   8.050   2.812  0.2997  0.6368  0.1350
  874MOL0     C20532   2.179   7.975   2.915 -1.0551 -0.0663  0.0859
  874MOL0     O20533   2.237   7.876   2.991  0.4400  0.2036 -0.5199
  874MOL0     C20534   2.359   7.811   2.953 -0.5403 -0.5238 -0.0175
  874MOL0     C20535   2.358   7.710   3.062 -0.2411 -0.0378  0.7515
  874MOL0     C20536   2.366   7.770   3.199  0.0557  0.4057 -1.0441
  874MOL0     C20537   2.359   7.676   3.326  0.0711 -0.1016 -0.2052
  874MOL0     C20538   2.486   7.603   3.341 -0.2142  0.3630  0.0031
  874MOL0     C20539   2.587   7.537   3.364  0.1763  0.0060  0.3261
  874MOL0     C20540   2.051   8.021   2.949  0.0866 -0.1488 -0.7454
  874MOL0     C20541   1.984   8.113   2.871 -0.7024 -0.0382  0.1369
  874MOL0     C20542   1.845   8.141   2.912  0.2275 -0.6214  0.3437
  874MOL0     H20543   1.905   8.583   2.686 -1.1221 -1.1419 -0.4648
  874MOL0     H20544   1.794   8.739   2.540 -0.6712 -1.0672 -0.6743
  874MOL0     H20545   1.741   8.895   2.198  2.9051 -0.1194  0.5459
  874MOL0     H20546   1.808   8.882   2.359 -0.3789  2.0867 -0.4887
  874MOL0     H20547   1.583   8.754   2.429  0.9516 -0.2002 -0.8140
  874MOL0     H20548   1.611   8.929   2.435  0.4245  0.1786  0.3672
  874MOL0     H20549   1.408   8.774   2.311  1.0094 -1.2122 -1.7990
  874MOL0     H20550   1.424   8.953   2.319 -0.6800 -0.5887  2.4210
  874MOL0     H20551   1.562   8.935   2.089 -0.7110 -0.5515 -1.4122
  874MOL0     H20552   1.519   8.759   2.104 -2.0268 -0.0288 -1.4235
  874MOL0     H20553   1.337   8.992   2.061  3.3451  0.9402 -2.5465
  874MOL0     H20554   1.279   8.835   2.114 -0.0540  0.0601 -1.6147
  874MOL0     H20555   1.444   8.850   1.868  1.9447 -2.8082  2.2453
  874MOL0     H20556   1.328   8.730   1.908 -1.0954 -0.9579 -0.8077
  874MOL0     H20557   1.258   8.861   1.724 -0.4007  1.5535 -1.1865
  874MOL0     H20558   1.235   9.011   1.828 -3.5682 -0.2549 -0.0808
  874MOL0     H20559   1.082   8.758   1.885  1.3390  0.2040  2.3771
  874MOL0     H20560   1.063   8.911   1.958  1.2639 -0.6011  1.2774
  874MOL0     H20561   0.909   8.714   1.690 -2.9427  0.2033  1.5031
  874MOL0     H20562   0.816   8.801   1.392 -3.5531 -1.7712 -1.6229
  874MOL0     H20563   0.709   8.936   1.434  0.1398  0.6688  1.0239
  874MOL0     H20564   0.711   8.656   1.544 -0.4712 -0.7132 -1.9492
  874MOL0     H20565   0.613   8.788   1.604 -0.7169 -1.3235 -0.2420
  874MOL0     H20566   0.475   8.677   1.469  0.4138 -0.0790  1.5315
  874MOL0     H20567   0.493   8.827   1.398 -2.0201 -1.6392 -2.1393
  874MOL0     H20568   0.654   8.733   1.220 -1.2637 -1.2453 -0.2647
  874MOL0     H20569   0.636   8.576   1.301  0.2701  0.1634 -2.3461
  874MOL0     H20570   0.632   8.512   1.057  1.8009  0.3238  1.4121
  874MOL0     H20571   0.691   8.471   0.699  1.8389 -2.3834  1.3849
  874MOL0     H20572   0.604   8.381   0.811 -2.1654  1.9275 -3.6083
  874MOL0     H20573   0.766   8.453   0.854  0.2100 -1.5475  0.3595
  874MOL0     H20574   0.673   8.755   0.403 -0.7336  1.1786  0.3562
  874MOL0     H20575   0.641   8.811   0.157  0.9461 -1.7615 -1.7676
  874MOL0     H20576   0.537   8.850  -0.071  0.3008 -0.2052  0.3371
  874MOL0     H20577   0.660   8.719  -0.051  0.6434 -2.4998 -1.9798
  874MOL0     H20578   0.612   8.798  -0.271  0.5502  1.1049  0.6884
  874MOL0     H20579   0.618   8.631  -0.264  0.2735  0.7032  0.5036
  874MOL0     H20580   0.440   8.783  -0.408  0.3411 -1.4321 -1.2812
  874MOL0     H20581   0.344   8.780  -0.260 -0.5681 -0.8283  0.3247
  874MOL0     H20582   0.371   8.523  -0.245 -2.5125 -0.3142  0.5806
  874MOL0     H20583   0.398   8.535  -0.421  0.4177  0.2499  0.8226
  874MOL0     H20584   0.145   8.641  -0.283 -2.9789 -2.4363 -1.2225
  874MOL0     H20585   0.211   8.691  -0.444  1.7409  0.7892  0.1986
  874MOL0     H20586   0.160   8.405  -0.346 -0.5857  2.9804  1.8664
  874MOL0     H20587   0.195   8.448  -0.518  0.9814 -0.7028  1.1398
  874MOL0     H20588  -0.018   8.561  -0.524  5.0095  1.8102 -0.5302
  874MOL0     H20589  -0.048   8.491  -0.355 -2.7061  0.4610 -2.3066
  874MOL0     H20590   0.045   8.314  -0.586 -0.0728 -0.0391  0.4484
  874MOL0     H20591  -0.129   8.346  -0.591  0.8740  0.4150 -0.8050
  874MOL0     H20592   0.340   8.500   0.149 -1.0585  0.1058  0.7460
  874MOL0     H20593   0.356   8.471   0.381  0.2935 -1.4101 -2.6506
  874MOL0     H20594   0.369   8.827   0.792  2.7426  0.2289 -0.9481
  874MOL0     H20595   0.342   8.816   1.032  0.3061  2.0284 -1.9953
  874MOL0     H20596   1.918   8.519   2.194 -0.7843  1.0953 -0.6210
  874MOL0     H20597   2.067   8.372   2.346  2.0145  1.5927 -1.9798
  874MOL0     H20598   2.228   8.219   2.669 -3.1989  0.9202 -1.5145
  874MOL0     H20599   2.345   8.028   2.770  0.4072 -0.0010  0.7025
  874MOL0     H20600   2.356   7.770   2.852 -1.3372  1.2038 -0.7451
  874MOL0     H20601   2.442   7.881   2.964 -1.4773  0.6281  0.0300
  874MOL0     H20602   2.438   7.637   3.052 -0.7394 -0.3704 -1.2378
  874MOL0     H20603   2.267   7.652   3.042 -0.1384 -0.3152  1.0800
  874MOL0     H20604   2.458   7.826   3.219 -0.2083  0.4154  0.2825
  874MOL0     H20605   2.279   7.831   3.226  1.1131  0.2505  3.6950
  874MOL0     H20606   2.271   7.612   3.321 -0.6750  0.5990  2.4659
  874MOL0     H20607   2.351   7.744   3.411 -1.3723 -0.9427  0.3717
  874MOL0     H20608   2.675   7.477   3.379  1.0404  0.6020 -1.8785
  874MOL0     H20609   1.992   7.978   3.029  0.5856 -1.5162 -1.0871
  874MOL0     H20610   1.824   8.102   3.012  0.9313  1.6899  1.4653
  874MOL0     H20611   1.826   8.248   2.921 -1.0697 -0.7954 -0.2042
  874MOL0     H20612   1.765   8.104   2.847 -3.3901  2.9953  2.2963
  875MOL0     O20613   5.380   4.128   8.339 -0.0257  0.7257 -0.0919
  875MOL0     C20614   5.466   4.081   8.261  0.0287 -0.6713  0.5214
  875MOL0     O20615   5.475   3.949   8.228  0.3834  0.4752 -0.2891
  875MOL0     C20616   5.402   3.853   8.282 -0.3140  0.9356  0.4225
  875MOL0     C20617   5.371   3.745   8.200 -0.2214 -0.4281  0.5093
  875MOL0     C20618   5.303   3.629   8.251  0.3848 -1.1989  0.0689
  875MOL0     C20619   5.258   3.635   8.389 -0.0099 -0.2469 -0.2486
  875MOL0     O20620   5.192   3.538   8.455  0.4245 -0.4756  0.6140
  875MOL0     C20621   5.149   3.412   8.393  0.6877  0.0453 -0.5350
  875MOL0     C20622   5.029   3.437   8.294 -0.4647  0.0283  0.0703
  875MOL0     C20623   4.958   3.304   8.261  0.5698  0.6212  1.1495
  875MOL0     C20624   5.043   3.181   8.241  0.7589 -0.5951 -0.2926
  875MOL0     C20625   4.980   3.074   8.161 -0.2123  0.0447 -0.1364
  875MOL0     C20626   4.987   3.103   8.009  0.7381  0.1323  0.1964
  875MOL0     C20627   4.899   2.993   7.942  0.3167  0.5866 -0.6874
  875MOL0     C20628   4.970   2.856   7.922 -0.2348  0.4497 -0.0459
  875MOL0     N20629   4.900   2.757   7.838  0.2255 -0.4460 -0.2285
  875MOL0     C20630   4.796   2.674   7.873 -0.5469 -0.1970  0.4189
  875MOL0     C20631   4.767   2.605   7.761  0.4435  0.3591  0.2842
  875MOL0     C20632   4.654   2.502   7.743  0.0558 -0.0308  0.4374
  875MOL0     C20633   4.566   2.538   7.618  0.3939  0.0790  0.5393
  875MOL0     C20634   4.436   2.452   7.605  0.3244 -0.9383  0.7291
  875MOL0     C20635   4.429   2.389   7.465  0.6355 -0.2542  0.0671
  875MOL0     O20636   4.298   2.338   7.447  0.9576  0.5348  0.3984
  875MOL0     C20637   4.269   2.292   7.327 -0.3514 -0.2675  0.0543
  875MOL0     C20638   4.348   2.277   7.208  0.7316 -0.1365  0.0197
  875MOL0     C20639   4.298   2.225   7.093  0.1846  0.0153 -0.1225
  875MOL0     C20640   4.391   2.217   6.977  0.2466  0.2931 -0.1040
  875MOL0     C20641   4.159   2.172   7.088  0.5724 -0.1816 -0.2376
  875MOL0     C20642   4.107   2.088   6.985  1.0019  0.3214  0.2086
  875MOL0     O20643   3.970   2.073   6.971  0.4313 -0.1821  0.6020
  875MOL0     C20644   3.911   1.969   6.902  0.5849  1.3307  0.5504
  875MOL0     C20645   3.818   1.893   6.966  0.9231  0.0217  0.0220
  875MOL0     C20646   3.744   1.790   6.897 -0.2867 -0.3629 -0.7133
  875MOL0     C20647   3.761   1.768   6.765 -0.3356  0.6349  0.7690
  875MOL0     O20648   3.679   1.676   6.706 -0.5843 -0.6582  0.0181
  875MOL0     C20649   3.726   1.607   6.590 -0.1021  0.3728  1.1197
  875MOL0     C20650   3.604   1.511   6.538 -0.0918  0.1984 -0.0633
  875MOL0     C20651   3.631   1.443   6.400  0.6133  0.8406 -0.7868
  875MOL0     C20652   3.678   1.299   6.436  0.2946 -0.1808  0.1031
  875MOL0     C20653   3.695   1.221   6.299 -0.3305  0.4960 -0.5750
  875MOL0     C20654   3.778   1.093   6.324  0.1459 -0.1027  0.7382
  875MOL0     C20655   3.827   1.018   6.202  0.5321 -0.0746  0.1576
  875MOL0     C20656   3.957   1.080   6.137  1.1278  0.0951 -0.1480
  875MOL0    Cl20657   4.036   0.964   6.014  0.1596 -0.1880 -0.1504
  875MOL0     C20658   3.863   1.839   6.707  0.2353 -0.2785  0.4904
  875MOL0     C20659   3.943   1.933   6.778  0.4323  0.3110 -0.6427
  875MOL0     O20660   4.186   2.015   6.922  0.1261  0.0315 -0.4115
  875MOL0     C20661   4.079   2.195   7.202  0.6156  0.1419 -0.7039
  875MOL0     C20662   4.132   2.261   7.311 -0.8283  0.2649  0.3994
  875MOL0     N20663   4.845   2.644   7.658 -0.1304  0.0772  0.0441
  875MOL0     N20664   4.922   2.738   7.706  0.0254 -0.1649 -0.2394
  875MOL0     C20665   5.289   3.746   8.470  0.7216  0.0023  0.2494
  875MOL0     C20666   5.365   3.852   8.422 -1.0229  1.0101 -0.8415
  875MOL0     C20667   5.577   4.178   8.205 -0.3872  0.9647  0.3300
  875MOL0     C20668   5.700   4.119   8.183 -0.6138 -0.1699 -0.2044
  875MOL0     C20669   5.808   4.195   8.147  0.3301  0.1395  0.9570
  875MOL0     C20670   5.804   4.337   8.157  0.1268 -0.3186 -0.0537
  875MOL0     O20671   5.908   4.422   8.136  0.9869  0.0643  0.7235
  875MOL0     C20672   6.036   4.365   8.092 -0.7393  1.1139  0.2352
  875MOL0     C20673   6.141   4.471   8.057  0.3732  0.9278  0.0596
  875MOL0     C20674   6.266   4.393   8.011 -0.3930 -0.9494  0.0206
  875MOL0     C20675   6.352   4.492   7.929 -0.2316 -0.3637  0.0296
  875MOL0     C20676   6.498   4.469   7.929  0.5865 -0.0845 -0.6400
  875MOL0     C20677   6.606   4.435   7.947 -0.3192  0.0232 -0.5118
  875MOL0     C20678   5.677   4.388   8.191  0.1209  0.0137  0.0983
  875MOL0     C20679   5.563   4.314   8.207 -0.2046  0.1867 -0.6960
  875MOL0     C20680   5.441   4.393   8.242 -0.5141  0.0419  0.0246
  875MOL0     H20681   5.410   3.747   8.098 -2.3300  3.9409 -0.5013
  875MOL0     H20682   5.301   3.541   8.188  1.0226 -0.7314 -0.6116
  875MOL0     H20683   5.112   3.340   8.465 -0.9805  0.0785 -1.3159
  875MOL0     H20684   5.233   3.357   8.350  2.0922  2.8921 -1.7032
  875MOL0     H20685   4.955   3.512   8.323 -0.1732  0.9338 -1.4455
  875MOL0     H20686   5.071   3.474   8.200  1.7616 -4.8786 -1.2064
  875MOL0     H20687   4.892   3.280   8.345 -1.9894  3.3417  0.0879
  875MOL0     H20688   4.902   3.327   8.170  1.2582  1.3389  0.9012
  875MOL0     H20689   5.144   3.198   8.203  0.3303 -1.6475 -2.0024
  875MOL0     H20690   5.047   3.138   8.342 -4.2899 -0.4157  0.2413
  875MOL0     H20691   4.875   3.050   8.183 -0.1936 -0.8425 -0.9575
  875MOL0     H20692   5.046   2.987   8.166 -0.2956 -0.0684 -0.9773
  875MOL0     H20693   4.938   3.198   7.987 -1.1484 -0.2143  2.5127
  875MOL0     H20694   5.089   3.102   7.970 -0.4471  1.5388 -3.3401
  875MOL0     H20695   4.865   3.037   7.847  1.2259  0.9895 -0.8315
  875MOL0     H20696   4.807   2.979   8.001  0.6283 -2.6896 -0.7782
  875MOL0     H20697   5.072   2.874   7.885  0.2577 -0.0740  1.0051
  875MOL0     H20698   4.979   2.813   8.022 -1.0795  0.3843  0.0086
  875MOL0     H20699   4.749   2.656   7.969 -1.3858  0.8734  0.2385
  875MOL0     H20700   4.596   2.501   7.835 -0.5321 -3.3137  0.1420
  875MOL0     H20701   4.699   2.403   7.731 -0.6595 -0.2188 -0.8749
  875MOL0     H20702   4.531   2.641   7.613  0.3809  0.0434 -0.4746
  875MOL0     H20703   4.615   2.521   7.521 -2.0214 -0.7057 -0.6195
  875MOL0     H20704   4.432   2.368   7.675  0.1418 -1.7527 -0.2362
  875MOL0     H20705   4.346   2.510   7.623  0.0608 -1.3870  0.8784
  875MOL0     H20706   4.443   2.470   7.392  1.4646  0.3552  0.8881
  875MOL0     H20707   4.507   2.315   7.448  2.9426  1.5980  1.8913
  875MOL0     H20708   4.449   2.317   7.211 -0.0913  2.1021  0.2627
  875MOL0     H20709   4.483   2.273   6.995  0.9833 -1.2010  0.9851
  875MOL0     H20710   4.340   2.255   6.888  0.7244  0.6324 -0.2430
  875MOL0     H20711   4.423   2.114   6.962  1.0824  0.5673 -0.2463
  875MOL0     H20712   3.785   1.916   7.067 -1.5905  1.4430 -1.0479
  875MOL0     H20713   3.653   1.743   6.932 -0.9185  0.9949 -0.4891
  875MOL0     H20714   3.752   1.670   6.504 -0.0219  0.1909  1.0104
  875MOL0     H20715   3.816   1.553   6.622  0.5770 -0.0480 -1.2785
  875MOL0     H20716   3.572   1.439   6.614 -0.3701  0.2861 -0.0937
  875MOL0     H20717   3.524   1.585   6.525  0.9898  1.3378 -0.3274
  875MOL0     H20718   3.710   1.491   6.341  2.2277 -1.1245 -0.3263
  875MOL0     H20719   3.540   1.430   6.342  0.9770 -0.8738 -1.0259
  875MOL0     H20720   3.603   1.246   6.496  1.7616 -0.5760  1.6736
  875MOL0     H20721   3.772   1.298   6.491  0.3368  0.0122  0.0345
  875MOL0     H20722   3.598   1.189   6.260 -0.1046 -0.7610 -0.1539
  875MOL0     H20723   3.753   1.291   6.240  1.3659 -1.3212 -1.1662
  875MOL0     H20724   3.710   1.027   6.379 -0.6545 -0.4091 -0.5729
  875MOL0     H20725   3.863   1.127   6.384 -0.2799 -2.0987  2.6098
  875MOL0     H20726   3.742   1.012   6.133  1.8121 -0.5154 -1.4560
  875MOL0     H20727   3.850   0.913   6.222  0.0578 -0.0071  1.1000
  875MOL0     H20728   4.032   1.109   6.211  2.5649 -0.6476 -1.2656
  875MOL0     H20729   3.937   1.178   6.091 -1.4743 -0.4973 -0.4714
  875MOL0     H20730   3.889   1.820   6.604  0.9954  2.2776  0.1319
  875MOL0     H20731   4.037   1.958   6.730  1.6731 -2.7458 -0.0404
  875MOL0     H20732   3.973   2.174   7.206  0.3206  1.6553  0.4559
  875MOL0     H20733   4.067   2.279   7.397 -1.7719 -4.1422  0.8796
  875MOL0     H20734   5.267   3.734   8.576 -0.0796 -2.1335 -0.1061
  875MOL0     H20735   5.407   3.921   8.494 -2.1813 -0.7515  1.6948
  875MOL0     H20736   5.705   4.011   8.195 -0.5697  0.0360  2.0003
  875MOL0     H20737   5.900   4.145   8.120  0.7678  2.2836 -1.9270
  875MOL0     H20738   6.076   4.310   8.177  2.3459 -4.0451 -3.9421
  875MOL0     H20739   6.030   4.296   8.007 -1.7169  0.6450  0.6699
  875MOL0     H20740   6.168   4.524   8.149  1.2951  0.0507  0.3132
  875MOL0     H20741   6.109   4.539   7.977 -0.0745  1.6012  0.7963
  875MOL0     H20742   6.322   4.345   8.093 -1.7391 -0.4088  1.2943
  875MOL0     H20743   6.236   4.304   7.955 -1.4001 -0.8464  0.3798
  875MOL0     H20744   6.336   4.592   7.970 -0.9922 -1.0011  1.3441
  875MOL0     H20745   6.308   4.511   7.831  1.4872  4.9808 -0.0347
  875MOL0     H20746   6.706   4.397   7.950 -0.3957 -0.4313 -2.4108
  875MOL0     H20747   5.677   4.497   8.188  1.4496  0.0420  0.7000
  875MOL0     H20748   5.446   4.497   8.208 -1.5863  0.9725  2.4694
  875MOL0     H20749   5.348   4.350   8.204  0.7316 -1.2266 -1.7464
  875MOL0     H20750   5.437   4.388   8.352  1.3901 -0.2950  0.1114
  876MOL0     O20751  11.515   9.401   6.963 -0.1600 -0.8622  0.2926
  876MOL0     C20752  11.558   9.520   6.955 -0.0909 -0.2848 -0.9862
  876MOL0     O20753  11.489   9.631   6.928 -0.4638 -0.5464 -0.0763
  876MOL0     C20754  11.360   9.608   6.895  0.2685 -0.2178 -0.2763
  876MOL0     C20755  11.330   9.539   6.776  0.5329  0.6743  0.0509
  876MOL0     C20756  11.192   9.523   6.742  0.0183 -0.6986  0.2389
  876MOL0     C20757  11.095   9.578   6.833  0.7115  0.2390  0.1700
  876MOL0     O20758  10.966   9.562   6.812 -0.3008 -0.3640 -0.1171
  876MOL0     C20759  10.907   9.654   6.718  1.2646  1.0129  0.5209
  876MOL0     C20760  10.931   9.617   6.576  0.9549  0.3070 -0.6185
  876MOL0     C20761  10.831   9.682   6.477 -0.2719 -0.1682 -0.3603
  876MOL0     C20762  10.682   9.645   6.492 -0.3382 -0.1019 -0.5062
  876MOL0     C20763  10.606   9.691   6.370 -0.3646  1.0479 -0.3847
  876MOL0     C20764  10.459   9.649   6.381  0.8156 -0.6290 -0.7464
  876MOL0     C20765  10.403   9.666   6.238  0.0029  1.1652 -0.2677
  876MOL0     C20766  10.322   9.537   6.197 -0.3649  0.0005 -0.9415
  876MOL0     N20767  10.212   9.569   6.104 -0.0721  0.7579  0.1573
  876MOL0     C20768  10.186   9.678   6.026  0.5952  0.5170 -0.1236
  876MOL0     C20769  10.076   9.655   5.946 -0.1382  0.0959 -0.3057
  876MOL0     C20770  10.013   9.738   5.839 -0.6265 -0.0435  0.2366
  876MOL0     C20771   9.883   9.802   5.894  0.4010  0.2916  0.5071
  876MOL0     C20772   9.763   9.711   5.920 -0.4543  0.7435 -0.2233
  876MOL0     C20773   9.730   9.630   5.791 -0.6815  0.9058  0.2211
  876MOL0     O20774   9.603   9.568   5.798 -1.1295 -0.3888  0.5798
  876MOL0     C20775   9.596   9.428   5.819 -0.2562 -0.3568 -0.4872
  876MOL0     C20776   9.485   9.365   5.761  1.3955  0.3939  0.0735
  876MOL0     C20777   9.467   9.225   5.766 -0.3627  0.1719  0.0778
  876MOL0     C20778   9.348   9.160   5.695  0.1436 -0.9554  0.3343
  876MOL0     C20779   9.560   9.149   5.851  0.5146 -0.4127 -0.3405
  876MOL0     C20780   9.556   9.005   5.873  0.3062 -0.0747  0.3998
  876MOL0     O20781   9.620   8.942   5.975  0.4785 -0.0795 -0.5363
  876MOL0     C20782   9.594   8.812   5.987  1.0065 -0.4492  0.6455
  876MOL0     C20783   9.459   8.752   6.012 -0.2478 -0.2126 -0.2230
  876MOL0     C20784   9.449   8.617   5.991  0.8271 -0.5178 -1.3299
  876MOL0     C20785   9.555   8.535   5.971  0.2269  0.2178  0.4037
  876MOL0     O20786   9.548   8.397   5.953 -0.4871  0.6805 -0.4721
  876MOL0     C20787   9.438   8.331   5.892 -0.1566 -1.0103  0.3708
  876MOL0     C20788   9.433   8.339   5.747 -0.0311 -0.6878  0.0466
  876MOL0     C20789   9.553   8.291   5.666  0.0153 -0.0286 -0.2888
  876MOL0     C20790   9.523   8.191   5.556  0.1222  0.3618 -0.1892
  876MOL0     C20791   9.495   8.267   5.430  0.1095  0.4150  0.1138
  876MOL0     C20792   9.355   8.326   5.427  0.1474 -0.6285 -0.0191
  876MOL0     C20793   9.242   8.233   5.391  0.2194 -0.1625 -0.4235
  876MOL0     C20794   9.123   8.302   5.338 -1.0882  0.5283  0.6136
  876MOL0    Cl20795   9.149   8.396   5.188 -0.2240  0.0693  0.1203
  876MOL0     C20796   9.676   8.588   5.946  0.0016 -0.4809 -0.5105
  876MOL0     C20797   9.702   8.725   5.956 -0.0121 -0.4126 -0.0910
  876MOL0     O20798   9.497   8.941   5.783  0.8153 -0.4921  0.3321
  876MOL0     C20799   9.674   9.218   5.907  0.2278  0.2025 -0.6269
  876MOL0     C20800   9.685   9.352   5.890  0.4228 -0.6785  0.1224
  876MOL0     N20801  10.037   9.522   5.972  0.4755 -0.0190 -0.2646
  876MOL0     N20802  10.118   9.475   6.066 -0.1246  1.1271 -0.3010
  876MOL0     C20803  11.124   9.633   6.955 -0.2614 -0.1059 -0.6424
  876MOL0     C20804  11.257   9.658   6.983  0.4586 -0.8998  0.2637
  876MOL0     C20805  11.703   9.537   6.992  0.6302 -0.9537  0.2181
  876MOL0     C20806  11.736   9.637   7.091 -0.1186  0.0025  0.3785
  876MOL0     C20807  11.867   9.648   7.138 -0.1567 -0.0386 -0.3982
  876MOL0     C20808  11.963   9.564   7.083  0.0068  0.1904  0.2043
  876MOL0     O20809  12.085   9.574   7.152  0.4733 -0.3024 -0.5275
  876MOL0     C20810  12.209   9.578   7.090 -0.2846  0.0281  0.9993
  876MOL0     C20811  12.320   9.594   7.188 -0.1578 -0.9673 -0.9960
  876MOL0     C20812  12.359   9.464   7.261  0.1959 -0.6136 -0.5208
  876MOL0     C20813  12.486   9.478   7.340 -0.6071 -0.6054  0.0744
  876MOL0     C20814  12.499   9.361   7.433 -0.2095 -0.1385  0.5884
  876MOL0     C20815  12.505   9.265   7.505  1.1318  0.3373  0.0003
  876MOL0     C20816  11.932   9.461   6.995 -0.1126 -0.0426 -0.1079
  876MOL0     C20817  11.805   9.451   6.946  0.9792 -0.2479  0.3806
  876MOL0     C20818  11.782   9.348   6.844 -0.0699 -0.0875  0.2521
  876MOL0     H20819  11.416   9.494   6.727  1.0724  0.2311  1.3540
  876MOL0     H20820  11.158   9.463   6.658 -0.1566 -3.2242  1.9934
  876MOL0     H20821  10.943   9.757   6.731 -0.9525  1.7430  1.2066
  876MOL0     H20822  10.801   9.665   6.742  0.6468 -4.0684  1.1218
  876MOL0     H20823  11.034   9.632   6.542  1.7495 -2.5116  0.2990
  876MOL0     H20824  10.929   9.508   6.566  3.0171  0.2986 -1.4828
  876MOL0     H20825  10.847   9.790   6.478  0.0805 -0.1754 -1.9013
  876MOL0     H20826  10.859   9.646   6.377  1.5166 -1.2387  0.4703
  876MOL0     H20827  10.670   9.538   6.507  0.8944 -0.3610 -1.1817
  876MOL0     H20828  10.632   9.688   6.579  1.4402  1.4356 -0.1672
  876MOL0     H20829  10.658   9.653   6.283 -1.1507  2.3525 -1.4680
  876MOL0     H20830  10.598   9.800   6.362 -0.2868  1.1842  1.1095
  876MOL0     H20831  10.460   9.543   6.407 -0.2087 -0.5635 -0.3757
  876MOL0     H20832  10.405   9.704   6.459 -0.7002 -2.1526 -0.6798
  876MOL0     H20833  10.479   9.670   6.160 -0.0278 -3.3796 -0.7758
  876MOL0     H20834  10.331   9.749   6.230 -1.7404 -0.4393 -2.7942
  876MOL0     H20835  10.404   9.472   6.164  0.5591  0.0165  1.1742
  876MOL0     H20836  10.284   9.495   6.290  1.2784  5.6459  2.7739
  876MOL0     H20837  10.233   9.775   6.027 -0.0501  0.8543  2.4039
  876MOL0     H20838   9.998   9.667   5.757 -0.0582  1.1286 -0.9120
  876MOL0     H20839  10.084   9.816   5.811  0.2271 -0.3876  1.3797
  876MOL0     H20840   9.905   9.859   5.984 -0.5070 -0.3566  1.1481
  876MOL0     H20841   9.844   9.871   5.817 -0.9222 -0.0404  0.8553
  876MOL0     H20842   9.784   9.640   6.001 -0.1785  1.8687  0.7085
  876MOL0     H20843   9.670   9.759   5.952 -1.0542  0.4460 -1.4581
  876MOL0     H20844   9.716   9.699   5.707 -3.2448 -1.8610 -1.8538
  876MOL0     H20845   9.809   9.555   5.786  0.4143  2.0648 -0.5900
  876MOL0     H20846   9.423   9.433   5.704  1.7151 -0.5162 -1.3999
  876MOL0     H20847   9.272   9.233   5.665 -0.4425 -0.1060  3.4899
  876MOL0     H20848   9.291   9.092   5.760  0.0827 -0.6922  0.5591
  876MOL0     H20849   9.383   9.096   5.613  1.8059 -2.3490  2.0355
  876MOL0     H20850   9.374   8.809   6.048  1.0843  1.8369 -0.1142
  876MOL0     H20851   9.353   8.571   6.017  1.1871  0.0142  1.1615
  876MOL0     H20852   9.453   8.226   5.919 -1.9185 -0.9765  1.6353
  876MOL0     H20853   9.343   8.360   5.938  0.1463 -0.5754  0.7328
  876MOL0     H20854   9.344   8.280   5.725  0.6693 -0.8265 -2.9067
  876MOL0     H20855   9.410   8.442   5.718 -2.6525 -0.9007  1.0922
  876MOL0     H20856   9.618   8.245   5.741 -1.1930  1.7219  1.9707
  876MOL0     H20857   9.606   8.379   5.628  0.7443 -0.9075 -1.3500
  876MOL0     H20858   9.447   8.121   5.592  0.1302  0.2374 -0.4076
  876MOL0     H20859   9.616   8.134   5.542 -0.5302 -0.8330  0.2399
  876MOL0     H20860   9.570   8.344   5.411  1.9304 -0.5174  2.8332
  876MOL0     H20861   9.514   8.197   5.349 -2.3193 -1.3367  0.9232
  876MOL0     H20862   9.365   8.398   5.345 -1.5261 -0.5275 -0.1668
  876MOL0     H20863   9.326   8.382   5.516  0.8491 -0.2533 -0.0214
  876MOL0     H20864   9.220   8.172   5.479  0.7666  1.9041  1.2498
  876MOL0     H20865   9.267   8.159   5.315 -2.9389 -1.8066  0.0059
  876MOL0     H20866   9.080   8.360   5.420  0.2707 -0.9010  2.4111
  876MOL0     H20867   9.048   8.226   5.313  0.9483 -1.8678  1.3354
  876MOL0     H20868   9.751   8.524   5.901  4.0775  1.4760  2.8455
  876MOL0     H20869   9.794   8.773   5.925  0.4503 -1.0455  0.2686
  876MOL0     H20870   9.739   9.161   5.973 -1.1937  0.3008  0.9414
  876MOL0     H20871   9.768   9.404   5.936  1.1788 -1.8549  0.1510
  876MOL0     H20872  11.042   9.669   7.017 -0.2928 -1.3139  0.0414
  876MOL0     H20873  11.294   9.705   7.074  1.9184 -3.0066  0.8565
  876MOL0     H20874  11.669   9.713   7.130  0.6175 -0.3312  2.3960
  876MOL0     H20875  11.910   9.719   7.209  4.9760 -2.4084 -0.7081
  876MOL0     H20876  12.231   9.488   7.031  0.8300  1.8253 -1.5123
  876MOL0     H20877  12.213   9.665   7.023 -3.1632  0.7827  1.6630
  876MOL0     H20878  12.292   9.669   7.262 -1.6627  0.7521 -3.1762
  876MOL0     H20879  12.414   9.617   7.137  0.3995 -3.2958 -1.1396
  876MOL0     H20880  12.268   9.439   7.316 -1.5451 -0.1158 -3.0048
  876MOL0     H20881  12.382   9.382   7.191 -1.9763 -1.6414 -0.1044
  876MOL0     H20882  12.476   9.564   7.407 -1.6586 -1.2523  0.7851
  876MOL0     H20883  12.565   9.480   7.265 -1.7021 -1.6432 -1.1735
  876MOL0     H20884  12.501   9.175   7.563  2.0921  1.4071  1.7873
  876MOL0     H20885  11.997   9.382   6.960 -0.2555 -0.0118 -0.4508
  876MOL0     H20886  11.712   9.389   6.770 -0.4607  0.5912  0.9809
  876MOL0     H20887  11.877   9.334   6.791 -0.3195 -0.4218 -0.1130
  876MOL0     H20888  11.744   9.249   6.868 -0.2832  0.0027  0.2881
  877MOL0     O20889  10.108   4.954   6.840 -1.4292 -0.1636 -0.2254
  877MOL0     C20890  10.202   5.030   6.868 -0.2885  0.5978 -0.3972
  877MOL0     O20891  10.206   5.169   6.848  0.6695  0.6643 -0.1533
  877MOL0     C20892  10.108   5.206   6.762  0.3069 -0.4070  0.8986
  877MOL0     C20893  10.070   5.149   6.639 -0.3649  0.3525  0.2073
  877MOL0     C20894   9.981   5.212   6.555 -0.3965  0.9916 -0.0502
  877MOL0     C20895   9.933   5.337   6.587 -0.2696 -0.7709  0.1809
  877MOL0     O20896   9.848   5.424   6.514 -0.4223  1.1045  0.8513
  877MOL0     C20897   9.769   5.378   6.399 -0.7113  0.2311  0.4169
  877MOL0     C20898   9.850   5.393   6.269 -0.3605  0.9744  0.5151
  877MOL0     C20899   9.907   5.536   6.255 -0.3094 -0.2277  0.0511
  877MOL0     C20900   9.794   5.642   6.264  0.6780  0.0940 -0.6360
  877MOL0     C20901   9.830   5.777   6.199 -0.0516  0.0818  0.4034
  877MOL0     C20902   9.726   5.882   6.233  0.1003  1.0685 -0.1830
  877MOL0     C20903   9.758   5.933   6.366 -0.5137 -0.7442  0.3407
  877MOL0     C20904   9.676   6.054   6.407 -0.7120  0.1717  0.3954
  877MOL0     N20905   9.670   6.084   6.555  0.0764 -0.0743  1.0324
  877MOL0     C20906   9.761   6.038   6.648  0.7931  0.1397 -0.0550
  877MOL0     C20907   9.724   6.094   6.765  0.6811  0.3708  0.2060
  877MOL0     C20908   9.795   6.052   6.885  0.4801 -0.8199 -0.3577
  877MOL0     C20909   9.734   6.121   7.012 -0.3418  0.4516 -0.6485
  877MOL0     C20910   9.612   6.065   7.079  0.0099 -0.2387 -0.2710
  877MOL0     C20911   9.594   6.106   7.224 -0.0037  0.1665  0.1807
  877MOL0     O20912   9.719   6.065   7.284  0.1416  0.5672 -0.6656
  877MOL0     C20913   9.715   6.026   7.414 -0.1465  0.1609 -0.6986
  877MOL0     C20914   9.769   6.096   7.512  0.5423  0.0805 -0.6958
  877MOL0     C20915   9.765   6.055   7.653 -0.2443  0.9250 -0.0033
  877MOL0     C20916   9.845   6.130   7.754  0.2415  0.6575  0.0628
  877MOL0     C20917   9.691   5.941   7.681  0.5270  0.0290 -0.3750
  877MOL0     C20918   9.674   5.889   7.816 -0.2470 -0.0710 -0.0480
  877MOL0     O20919   9.550   5.840   7.844 -0.1591 -0.1061  0.2610
  877MOL0     C20920   9.519   5.780   7.962 -0.1327  0.2552 -1.3004
  877MOL0     C20921   9.604   5.738   8.066 -0.0805 -0.3622 -0.3706
  877MOL0     C20922   9.557   5.698   8.194  0.5806 -0.5219 -0.4614
  877MOL0     C20923   9.414   5.703   8.214 -0.2137  0.2713 -0.9473
  877MOL0     O20924   9.349   5.663   8.324  0.1850  0.0308  0.1349
  877MOL0     C20925   9.425   5.649   8.447 -0.1795  0.3212  0.2125
  877MOL0     C20926   9.338   5.635   8.569 -0.3139  0.0369 -0.0168
  877MOL0     C20927   9.403   5.571   8.685  0.6248  0.4219 -0.2500
  877MOL0     C20928   9.302   5.570   8.787  0.4526 -0.3477 -0.0872
  877MOL0     C20929   9.352   5.508   8.919 -0.4884 -0.2866  0.4738
  877MOL0     C20930   9.253   5.518   9.042 -0.3370  0.1639  0.5268
  877MOL0     C20931   9.254   5.665   9.110  0.4460  0.1783 -0.3490
  877MOL0     C20932   9.394   5.714   9.153  1.1741  0.3490 -1.2275
  877MOL0    Cl20933   9.512   5.594   9.218 -0.2936  0.6834  0.1632
  877MOL0     C20934   9.331   5.728   8.111  0.1521  0.8337 -0.3983
  877MOL0     C20935   9.383   5.770   7.991  0.3372 -0.9474 -0.9002
  877MOL0     O20936   9.774   5.878   7.891 -0.2256 -0.1669 -0.4937
  877MOL0     C20937   9.627   5.869   7.583  0.3750 -0.2352  0.8028
  877MOL0     C20938   9.646   5.906   7.445  0.6099  0.0577  0.2506
  877MOL0     N20939   9.610   6.172   6.748  0.7423  0.2441 -0.1997
  877MOL0     N20940   9.581   6.168   6.624 -1.1927  0.5110  0.7999
  877MOL0     C20941   9.976   5.399   6.702  0.7871 -1.0303  0.9956
  877MOL0     C20942  10.058   5.332   6.786  0.3079 -0.2366 -0.5628
  877MOL0     C20943  10.317   4.979   6.950  0.6836 -0.1180  1.0062
  877MOL0     C20944  10.399   5.075   7.012  0.0617  0.0222 -0.6701
  877MOL0     C20945  10.489   5.029   7.105  0.9179  0.2050  0.2854
  877MOL0     C20946  10.491   4.902   7.151 -0.6604  0.3119 -0.7888
  877MOL0     O20947  10.597   4.867   7.238  0.5716  0.1553 -0.3131
  877MOL0     C20948  10.644   4.729   7.261  1.1274 -0.5196 -0.0745
  877MOL0     C20949  10.781   4.740   7.339  0.1386  0.0437 -0.2388
  877MOL0     C20950  10.759   4.810   7.475  0.3849 -0.8501 -0.1956
  877MOL0     C20951  10.782   4.965   7.461 -0.5791  0.1075 -0.8424
  877MOL0     C20952  10.748   5.026   7.596 -0.0270 -0.0295  1.2963
  877MOL0     C20953  10.720   5.051   7.710 -0.1640 -0.2509  0.2862
  877MOL0     C20954  10.410   4.809   7.088 -0.2954 -0.0219  0.6810
  877MOL0     C20955  10.330   4.844   6.980 -0.9916  1.3124  0.2883
  877MOL0     C20956  10.273   4.722   6.913  0.5773  0.5324  0.1683
  877MOL0     H20957  10.112   5.050   6.622  1.5300  1.0288  0.6818
  877MOL0     H20958   9.975   5.154   6.464  2.7143 -1.1724  0.9407
  877MOL0     H20959   9.685   5.446   6.383 -0.2063  0.4082 -1.8654
  877MOL0     H20960   9.739   5.273   6.403  1.6790 -0.5933 -1.0640
  877MOL0     H20961   9.937   5.327   6.277  1.2346  3.0999  1.7453
  877MOL0     H20962   9.787   5.362   6.184  0.6270 -0.2340  0.2007
  877MOL0     H20963   9.986   5.553   6.329 -1.3241  0.4576  1.0153
  877MOL0     H20964   9.944   5.548   6.153  0.0705  0.0380  0.2164
  877MOL0     H20965   9.704   5.603   6.215 -1.3095  4.5762 -1.0066
  877MOL0     H20966   9.779   5.653   6.372  2.2066 -1.7792 -0.1627
  877MOL0     H20967   9.835   5.748   6.094 -3.3012  0.0512  0.1632
  877MOL0     H20968   9.930   5.811   6.228  0.8624 -1.4635 -0.8043
  877MOL0     H20969   9.725   5.966   6.162  2.4140  3.7511  2.6524
  877MOL0     H20970   9.627   5.836   6.231 -0.2671  1.4523  3.4964
  877MOL0     H20971   9.860   5.973   6.368 -1.1671  0.9977  1.4839
  877MOL0     H20972   9.742   5.855   6.440 -1.4246 -0.9733 -0.0822
  877MOL0     H20973   9.725   6.136   6.352  0.5779 -2.7013 -3.1614
  877MOL0     H20974   9.576   6.039   6.365  0.0395 -2.5206 -0.5967
  877MOL0     H20975   9.842   5.966   6.640 -0.0698 -0.6904 -1.9134
  877MOL0     H20976   9.900   6.081   6.868  0.0848  0.6505 -0.4420
  877MOL0     H20977   9.800   5.943   6.886  2.2464 -0.8060 -1.8642
  877MOL0     H20978   9.815   6.107   7.083 -2.9112  0.9792  2.6297
  877MOL0     H20979   9.720   6.228   6.994 -0.7485  0.6185  0.5740
  877MOL0     H20980   9.536   6.080   7.002  0.4791 -0.8477 -0.8718
  877MOL0     H20981   9.632   5.958   7.090  2.3722  0.2984  1.5182
  877MOL0     H20982   9.587   6.214   7.239 -0.6319  0.5232 -2.2495
  877MOL0     H20983   9.511   6.053   7.272 -1.2054  2.2231  0.4913
  877MOL0     H20984   9.822   6.186   7.481  2.7598 -1.4565 -1.6191
  877MOL0     H20985   9.782   6.169   7.835  3.2115  0.4690  2.6707
  877MOL0     H20986   9.897   6.217   7.715  0.3368  0.0257 -1.2658
  877MOL0     H20987   9.917   6.063   7.803 -2.8606 -4.1875 -1.2458
  877MOL0     H20988   9.710   5.729   8.043 -0.4729 -1.9266 -1.8658
  877MOL0     H20989   9.640   5.678   8.260  2.3041 -1.9083 -2.8901
  877MOL0     H20990   9.491   5.563   8.438 -3.0832 -2.0269 -0.2858
  877MOL0     H20991   9.476   5.743   8.467 -2.0803  1.0462  2.0204
  877MOL0     H20992   9.301   5.733   8.600  0.7291 -0.2333  2.2682
  877MOL0     H20993   9.264   5.569   8.523  1.5668 -0.1376 -3.0222
  877MOL0     H20994   9.482   5.636   8.722  1.9153 -1.4747  0.5195
  877MOL0     H20995   9.434   5.469   8.659 -0.3025  0.4775 -1.6853
  877MOL0     H20996   9.219   5.513   8.745  1.0246 -1.0255 -0.3176
  877MOL0     H20997   9.267   5.673   8.796  1.0508 -0.3065  2.3862
  877MOL0     H20998   9.369   5.402   8.898 -0.1508 -0.4095  1.3341
  877MOL0     H20999   9.450   5.553   8.935 -0.8323  0.3087  0.9218
  877MOL0     H21000   9.276   5.435   9.109  2.8945 -0.2806 -0.9441
  877MOL0     H21001   9.159   5.488   8.996 -0.1301 -0.0594  0.2485
  877MOL0     H21002   9.189   5.667   9.199  2.8651 -0.3109  1.5280
  877MOL0     H21003   9.205   5.744   9.052 -2.2522 -1.3944 -0.4144
  877MOL0     H21004   9.383   5.809   9.207 -1.1517  1.3402 -3.2819
  877MOL0     H21005   9.438   5.763   9.065  1.5364  2.0141 -0.1672
  877MOL0     H21006   9.227   5.728   8.140 -0.5825 -2.5659 -2.4783
  877MOL0     H21007   9.311   5.807   7.918  2.0461  5.4962  0.0922
  877MOL0     H21008   9.582   5.774   7.611  0.3606 -0.2868  0.6061
  877MOL0     H21009   9.590   5.848   7.373  2.6286 -4.4317  1.8978
  877MOL0     H21010   9.944   5.501   6.719 -0.0812 -0.8149 -1.5905
  877MOL0     H21011  10.093   5.386   6.874 -0.0726 -0.8979  0.0041
  877MOL0     H21012  10.398   5.181   6.990 -1.8952  0.0115 -0.8207
  877MOL0     H21013  10.568   5.084   7.154  2.8918 -2.0837 -0.1500
  877MOL0     H21014  10.565   4.684   7.322  4.3123 -3.0291  2.6036
  877MOL0     H21015  10.658   4.666   7.172  0.6280  2.1349 -2.1586
  877MOL0     H21016  10.853   4.799   7.282  0.4909  0.5142  0.6768
  877MOL0     H21017  10.817   4.637   7.354 -0.1292 -0.1764 -1.0804
  877MOL0     H21018  10.661   4.789   7.518 -0.0359 -1.1094 -1.2386
  877MOL0     H21019  10.832   4.779   7.550  1.1810  2.1751  0.4317
  877MOL0     H21020  10.734   5.017   7.378 -2.0108  1.0049  0.4891
  877MOL0     H21021  10.889   4.989   7.450  0.4194 -0.3374  4.8003
  877MOL0     H21022  10.715   5.072   7.815 -1.6738 -0.1371  0.2213
  877MOL0     H21023  10.412   4.706   7.123 -1.4110  0.8768  3.7852
  877MOL0     H21024  10.169   4.710   6.946  0.4067  1.1110 -0.1384
  877MOL0     H21025  10.274   4.737   6.805  1.0150 -0.6186  0.0021
  877MOL0     H21026  10.317   4.625   6.936 -0.7345  0.2052  1.4329
  878MOL0     O21027   4.259   3.140  11.350  0.0679 -0.8135  0.1281
  878MOL0     C21028   4.150   3.092  11.367 -0.0255  0.1668 -1.0601
  878MOL0     O21029   4.122   2.998  11.460  0.5430 -0.1990 -0.2721
  878MOL0     C21030   4.218   2.978  11.558 -0.1528  0.8808  0.5165
  878MOL0     C21031   4.202   3.032  11.686  0.0381 -0.2697  0.6992
  878MOL0     C21032   4.310   3.042  11.775 -0.1973 -0.5283  0.2421
  878MOL0     C21033   4.428   2.984  11.740 -0.7027  0.2684 -0.0332
  878MOL0     O21034   4.542   3.012  11.820 -0.0120  0.7319 -0.1325
  878MOL0     C21035   4.679   2.967  11.774  1.9837  0.5189 -0.3516
  878MOL0     C21036   4.778   2.991  11.885 -0.9758  0.3134 -0.6157
  878MOL0     C21037   4.763   2.897  12.009  0.0817 -0.1321 -0.1003
  878MOL0     C21038   4.892   2.880  12.092 -0.4663  0.5472 -0.5621
  878MOL0     C21039   4.875   2.749  12.178  0.2453  0.3598  0.1988
  878MOL0     C21040   4.979   2.752  12.295  0.6264 -0.6551  0.0322
  878MOL0     C21041   4.980   2.628  12.381  0.4190  0.6886 -0.5957
  878MOL0     C21042   5.073   2.653  12.500 -0.2039  0.0320  0.3227
  878MOL0     N21043   5.051   2.562  12.609 -0.6971  0.0264  1.0012
  878MOL0     C21044   5.090   2.567  12.741  0.7277 -0.7548  0.3159
  878MOL0     C21045   5.060   2.456  12.811 -0.1117  0.3118  1.5402
  878MOL0     C21046   5.113   2.410  12.945  1.1342 -0.0254 -0.1760
  878MOL0     C21047   5.055   2.494  13.057  0.3721 -0.3069 -0.0927
  878MOL0     C21048   5.074   2.435  13.200 -0.6235  0.7195 -0.0061
  878MOL0     C21049   4.992   2.523  13.297 -1.0232 -0.3909  0.0482
  878MOL0     O21050   5.004   2.469  13.424  0.1258 -0.2016  0.0051
  878MOL0     C21051   5.077   2.515  13.525  0.4617 -0.7911 -0.7473
  878MOL0     C21052   5.030   2.479  13.647  0.7328 -0.0992  0.7320
  878MOL0     C21053   5.085   2.513  13.765  0.2260 -0.3328 -0.9073
  878MOL0     C21054   5.042   2.456  13.895  0.5333 -0.0733  0.7273
  878MOL0     C21055   5.195   2.613  13.761  0.2509 -0.3641 -1.2015
  878MOL0     C21056   5.265   2.674  13.884 -0.3460  1.0478  0.1085
  878MOL0     O21057   5.207   2.647  14.009 -0.0511 -0.0776 -0.0901
  878MOL0     C21058   5.227   2.727  14.125 -0.8353 -0.1076  0.2078
  878MOL0     C21059   5.120   2.731  14.222 -0.0489 -0.2597 -0.0090
  878MOL0     C21060   5.131   2.817  14.330 -0.0237 -0.3306  0.2634
  878MOL0     C21061   5.251   2.892  14.345  0.4971  0.0535 -0.1648
  878MOL0     O21062   5.272   2.952  14.468  0.2267 -0.1013 -0.2480
  878MOL0     C21063   5.173   3.012  14.548 -0.8092 -1.1202 -0.8829
  878MOL0     C21064   5.222   3.086  14.666  0.0604  0.5028 -1.0428
  878MOL0     C21065   5.279   3.005  14.778  0.4506 -0.5508  0.3659
  878MOL0     C21066   5.176   2.933  14.859 -0.3913 -0.3578 -0.3313
  878MOL0     C21067   5.239   2.871  14.975  0.4558  0.3412 -0.3009
  878MOL0     C21068   5.127   2.793  15.064 -1.2403 -0.1501 -0.5355
  878MOL0     C21069   4.997   2.875  15.105 -0.5620 -0.1007  0.3896
  878MOL0     C21070   4.917   2.788  15.200  0.6413 -0.4473  0.2174
  878MOL0    Cl21071   4.832   2.911  15.308 -0.2766 -0.0103 -0.0361
  878MOL0     C21072   5.351   2.884  14.255 -0.1648  0.0925 -0.0268
  878MOL0     C21073   5.344   2.811  14.138 -0.3933  0.8060 -0.4363
  878MOL0     O21074   5.374   2.729  13.865 -0.2161  0.1396 -0.6447
  878MOL0     C21075   5.239   2.650  13.638 -0.1775 -0.2212 -0.3896
  878MOL0     C21076   5.188   2.594  13.522  0.5053  0.2230  0.1504
  878MOL0     N21077   4.986   2.384  12.716  0.3453  0.2423 -0.1097
  878MOL0     N21078   4.985   2.443  12.599  0.4672  0.4308 -0.4018
  878MOL0     C21079   4.435   2.900  11.625 -0.1812 -1.1925  0.7921
  878MOL0     C21080   4.333   2.900  11.533 -0.5856  0.2320 -0.5754
  878MOL0     C21081   4.029   3.119  11.281 -0.7193  0.2038  1.1913
  878MOL0     C21082   3.907   3.150  11.337  0.0233 -0.1683 -0.0705
  878MOL0     C21083   3.799   3.178  11.260 -0.4030 -0.8467  0.5362
  878MOL0     C21084   3.810   3.169  11.118  0.3550 -1.1185 -0.0667
  878MOL0     O21085   3.696   3.196  11.049  0.3403 -0.2141 -0.4549
  878MOL0     C21086   3.696   3.208  10.907 -0.2334  0.0909 -0.2728
  878MOL0     C21087   3.666   3.080  10.833 -0.5434 -0.7604 -0.5607
  878MOL0     C21088   3.633   3.091  10.683 -0.1088  0.4713  0.0198
  878MOL0     C21089   3.489   3.153  10.670 -0.3582  0.6801  1.2991
  878MOL0     C21090   3.414   3.116  10.549 -0.1087  0.5783  0.0987
  878MOL0     C21091   3.381   3.094  10.436  0.2626  0.5582 -1.0380
  878MOL0     C21092   3.932   3.132  11.062  0.2835 -0.1393  0.0632
  878MOL0     C21093   4.044   3.120  11.141  0.4231 -0.9548 -0.0613
  878MOL0     C21094   4.160   3.074  11.071 -0.4149 -1.5640  0.5883
  878MOL0     H21095   4.108   3.084  11.703  1.3588  2.9067 -0.8886
  878MOL0     H21096   4.295   3.102  11.865 -0.7141  1.9402 -1.3732
  878MOL0     H21097   4.707   3.016  11.680  1.2905 -0.6721 -1.1995
  878MOL0     H21098   4.677   2.860  11.753  2.4207  0.1224  1.4926
  878MOL0     H21099   4.878   2.968  11.848 -0.1837  2.1372  0.2704
  878MOL0     H21100   4.781   3.097  11.915  1.6641  0.0190  0.3998
  878MOL0     H21101   4.681   2.940  12.066 -1.4081 -2.0885 -0.6377
  878MOL0     H21102   4.722   2.799  11.982  0.9289 -1.1918  2.1765
  878MOL0     H21103   4.989   2.874  12.042  0.9033 -0.2139  2.0685
  878MOL0     H21104   4.906   2.964  12.161  0.3647 -1.5885  2.0196
  878MOL0     H21105   4.891   2.660  12.116  0.8586  0.2945  0.4527
  878MOL0     H21106   4.775   2.735  12.220 -0.0223  0.2175 -0.4687
  878MOL0     H21107   5.072   2.764  12.239  1.4887  1.3722  1.7938
  878MOL0     H21108   4.966   2.841  12.356  0.4807  0.2442 -1.2741
  878MOL0     H21109   5.019   2.560  12.304  0.4659 -0.1396  0.1518
  878MOL0     H21110   4.884   2.598  12.422  0.1692  1.2494 -0.7654
  878MOL0     H21111   5.177   2.658  12.465  0.6069  1.1633  2.6928
  878MOL0     H21112   5.053   2.752  12.543 -1.4414 -0.1567  0.2211
  878MOL0     H21113   5.154   2.647  12.778  0.9449 -2.2172  3.4206
  878MOL0     H21114   5.222   2.416  12.949  1.0587  1.2975  0.7492
  878MOL0     H21115   5.079   2.308  12.966  0.5163 -0.0076 -1.0414
  878MOL0     H21116   5.108   2.590  13.059 -1.7747  0.9632 -0.6008
  878MOL0     H21117   4.948   2.509  13.041  0.1865  0.7106  1.7373
  878MOL0     H21118   5.047   2.329  13.202  3.4530 -0.4793 -0.0048
  878MOL0     H21119   5.177   2.420  13.233  0.4757 -3.7882 -4.2852
  878MOL0     H21120   5.036   2.623  13.298 -1.3007 -0.2696  0.3370
  878MOL0     H21121   4.888   2.520  13.261 -0.5156 -3.8220 -1.5932
  878MOL0     H21122   4.963   2.393  13.641  1.4003 -0.5412 -1.2381
  878MOL0     H21123   5.123   2.413  13.954 -1.5704 -2.4521  2.0631
  878MOL0     H21124   4.964   2.385  13.865 -3.6362  3.0580  3.1302
  878MOL0     H21125   4.990   2.533  13.952  1.3071  1.7924 -0.9825
  878MOL0     H21126   5.035   2.664  14.212  1.2148 -2.2508  1.5203
  878MOL0     H21127   5.060   2.830  14.412 -0.0619  0.4450  0.1203
  878MOL0     H21128   5.129   3.090  14.484 -0.1480  1.9220  2.0748
  878MOL0     H21129   5.099   2.943  14.591 -1.2042  0.0359  0.3704
  878MOL0     H21130   5.299   3.160  14.641  0.0725  0.3567 -1.4528
  878MOL0     H21131   5.129   3.132  14.701  1.3263  1.7157  0.8968
  878MOL0     H21132   5.336   3.069  14.847 -1.1351  0.0409  1.1815
  878MOL0     H21133   5.356   2.934  14.747  0.6948 -1.5130  2.8915
  878MOL0     H21134   5.119   2.860  14.800  3.1823 -3.6364 -0.0789
  878MOL0     H21135   5.101   3.004  14.896 -0.3511 -0.8625  0.7439
  878MOL0     H21136   5.328   2.815  14.944  2.1748  3.5835 -1.7184
  878MOL0     H21137   5.290   2.939  15.045  0.1468  0.2992 -0.0297
  878MOL0     H21138   5.177   2.759  15.154 -1.6689 -0.2567 -0.3343
  878MOL0     H21139   5.103   2.713  14.992 -1.1410 -1.4289  0.7971
  878MOL0     H21140   4.943   2.914  15.018  0.8536  1.3386  0.1028
  878MOL0     H21141   5.023   2.964  15.163 -1.5563  0.9651 -0.7423
  878MOL0     H21142   4.974   2.723  15.266 -0.3273 -1.3772  0.1622
  878MOL0     H21143   4.845   2.728  15.142 -0.3201  1.5704 -0.7965
  878MOL0     H21144   5.443   2.938  14.278  1.1172 -2.7979  2.2390
  878MOL0     H21145   5.428   2.826  14.071  0.0162  1.0106  0.1032
  878MOL0     H21146   5.313   2.729  13.627 -0.6096  0.1028 -0.9979
  878MOL0     H21147   5.236   2.610  13.426  1.4382  3.9295  1.0648
  878MOL0     H21148   4.523   2.848  11.588  0.8831  0.9085  0.1966
  878MOL0     H21149   4.337   2.840  11.442 -1.7790 -2.6216  1.0997
  878MOL0     H21150   3.895   3.153  11.445 -0.1607  0.2838 -0.0978
  878MOL0     H21151   3.714   3.216  11.316 -0.5722  0.2098 -0.3846
  878MOL0     H21152   3.621   3.278  10.870  2.5139  2.4996 -1.6482
  878MOL0     H21153   3.788   3.253  10.870 -0.4183  2.8939  2.3370
  878MOL0     H21154   3.584   3.042  10.893  1.3462  0.4081  3.0747
  878MOL0     H21155   3.752   3.015  10.851  1.0950  1.8035  1.6611
  878MOL0     H21156   3.705   3.143  10.619  1.8703 -4.0205 -1.7927
  878MOL0     H21157   3.653   2.990  10.645  4.2696  2.1952 -3.1093
  878MOL0     H21158   3.490   3.262  10.670 -0.5570  0.6837  1.6746
  878MOL0     H21159   3.421   3.117  10.747  0.5531 -2.2591  0.8900
  878MOL0     H21160   3.340   3.085  10.337 -0.7053  0.8601 -0.6818
  878MOL0     H21161   3.929   3.099  10.959 -0.8302 -2.7702  0.8461
  878MOL0     H21162   4.143   3.075  10.962 -1.5354  0.8527  0.7153
  878MOL0     H21163   4.244   3.137  11.099  2.1641 -3.2816 -2.5458
  878MOL0     H21164   4.184   2.973  11.104  0.6394 -2.1295 -1.7169
  879MOL0     O21165   1.366   0.758   0.030  0.4341 -0.2571 -0.5823
  879MOL0     C21166   1.319   0.861   0.079  0.1411 -0.1025 -0.2683
  879MOL0     O21167   1.305   0.973   0.007 -0.6940 -0.1201  0.4905
  879MOL0     C21168   1.384   1.006  -0.103  0.1986  0.0422  0.2381
  879MOL0     C21169   1.518   0.948  -0.127  0.5512 -0.7948  0.2374
  879MOL0     C21170   1.592   0.991  -0.240 -0.6138 -0.1083 -0.2359
  879MOL0     C21171   1.522   1.079  -0.328 -0.4155  0.4016  0.4033
  879MOL0     O21172   1.593   1.126  -0.430  0.2159 -0.6128  0.3625
  879MOL0     C21173   1.601   1.047  -0.553 -0.4144  0.1924 -0.1256
  879MOL0     C21174   1.728   1.066  -0.622  0.5987 -0.0854 -0.0351
  879MOL0     C21175   1.843   1.010  -0.536 -0.7315  0.3247 -0.3297
  879MOL0     C21176   1.975   1.070  -0.602  0.1828 -0.3276 -0.0881
  879MOL0     C21177   2.090   1.020  -0.524 -0.4103  1.0694 -0.3419
  879MOL0     C21178   2.134   0.869  -0.537 -1.2514  0.2461 -1.1567
  879MOL0     C21179   2.278   0.850  -0.468  0.2474  0.6656 -0.4817
  879MOL0     C21180   2.337   0.712  -0.489  0.1644  0.1577  0.0595
  879MOL0     N21181   2.294   0.607  -0.396 -1.2748  0.0845 -0.0466
  879MOL0     C21182   2.348   0.583  -0.268 -0.2451  0.5711  0.1976
  879MOL0     C21183   2.261   0.503  -0.206  0.0243 -0.3683 -0.2281
  879MOL0     C21184   2.272   0.453  -0.058  0.1919  0.1403 -0.3167
  879MOL0     C21185   2.131   0.409  -0.008  0.5157 -1.1207 -0.4623
  879MOL0     C21186   2.074   0.286  -0.083  0.0541 -0.3421  0.7572
  879MOL0     C21187   2.044   0.173   0.010 -0.9913  0.0980  0.1539
  879MOL0     O21188   1.958   0.205   0.120  0.3082  0.3849  0.2824
  879MOL0     C21189   1.903   0.106   0.197 -0.3635 -0.7089 -0.1733
  879MOL0     C21190   1.932  -0.024   0.180 -0.3444  0.7438  0.2524
  879MOL0     C21191   1.865  -0.130   0.254 -0.0964 -0.4950  0.1343
  879MOL0     C21192   1.877  -0.277   0.229  0.2474  0.3763  0.2667
  879MOL0     C21193   1.772  -0.090   0.350  0.4297 -0.1894 -0.4809
  879MOL0     C21194   1.696  -0.187   0.429 -0.0585 -1.1921 -0.4152
  879MOL0     O21195   1.563  -0.150   0.428 -0.7125  0.3100 -0.5975
  879MOL0     C21196   1.470  -0.200   0.516  0.0752  0.5881  0.0503
  879MOL0     C21197   1.471  -0.336   0.564 -0.1881  0.3947 -0.2384
  879MOL0     C21198   1.370  -0.391   0.651 -0.1644 -0.9609  0.8371
  879MOL0     C21199   1.275  -0.298   0.699  0.6626  0.4045 -0.4357
  879MOL0     O21200   1.183  -0.332   0.788  0.1164  0.1776  0.8325
  879MOL0     C21201   1.215  -0.302   0.918 -0.2180 -0.2732 -1.1011
  879MOL0     C21202   1.199  -0.413   1.019  0.4093  0.1067 -0.6245
  879MOL0     C21203   1.061  -0.469   1.036 -0.0509 -0.0480  0.1866
  879MOL0     C21204   0.966  -0.377   1.101  0.5341 -0.0582 -0.0674
  879MOL0     C21205   0.832  -0.438   1.149 -0.9754  1.2106 -1.0328
  879MOL0     C21206   0.716  -0.334   1.150 -0.3553  0.3657 -0.5846
  879MOL0     C21207   0.656  -0.307   1.017  1.1119  1.0234  0.1591
  879MOL0     C21208   0.549  -0.200   1.023  0.1617  0.0410 -0.1001
  879MOL0    Cl21209   0.591  -0.020   1.043  0.0780 -0.2997  0.3455
  879MOL0     C21210   1.272  -0.166   0.646 -0.6309  1.0541  0.4337
  879MOL0     C21211   1.372  -0.122   0.555  0.1655 -0.1878 -0.3083
  879MOL0     O21212   1.747  -0.275   0.491 -0.6884  0.5771  0.0248
  879MOL0     C21213   1.742   0.050   0.371 -0.4767  0.1747  0.4200
  879MOL0     C21214   1.809   0.150   0.299 -0.0979 -0.4104  0.0060
  879MOL0     N21215   2.152   0.482  -0.293 -0.5937  0.3578  0.3826
  879MOL0     N21216   2.177   0.532  -0.409 -1.1773  0.2980 -0.9435
  879MOL0     C21217   1.385   1.124  -0.307 -0.0151  0.4676 -0.1886
  879MOL0     C21218   1.320   1.091  -0.194  0.7399  0.0116  1.0720
  879MOL0     C21219   1.249   0.847   0.209  0.4519 -0.5885 -0.0037
  879MOL0     C21220   1.182   0.729   0.250 -0.8866  0.3942 -0.4042
  879MOL0     C21221   1.147   0.713   0.385 -0.3228  0.4680  0.4432
  879MOL0     C21222   1.171   0.808   0.475 -0.4106 -0.2278  0.4572
  879MOL0     O21223   1.114   0.791   0.602  0.4192 -0.2360  0.8254
  879MOL0     C21224   1.153   0.877   0.712 -0.4124  0.1402  0.2292
  879MOL0     C21225   1.050   0.981   0.730 -0.4672 -0.5218  0.3685
  879MOL0     C21226   0.964   0.969   0.860  0.2123 -0.0421 -0.6982
  879MOL0     C21227   0.831   0.896   0.850  0.4722  0.1741  0.0796
  879MOL0     C21228   0.764   0.933   0.982  0.1368  0.3447  0.4882
  879MOL0     C21229   0.712   0.976   1.083  0.1310  0.1791  0.2535
  879MOL0     C21230   1.218   0.935   0.428  0.5398  0.1163  0.0246
  879MOL0     C21231   1.259   0.951   0.302 -0.7459  0.6539 -0.0656
  879MOL0     C21232   1.313   1.091   0.269  1.0275  0.3972  0.2709
  879MOL0     H21233   1.561   0.873  -0.061  2.0759  0.2624  0.5116
  879MOL0     H21234   1.695   0.956  -0.245  0.4616  2.4089  1.7310
  879MOL0     H21235   1.518   1.090  -0.608 -1.8455  3.2990  3.9502
  879MOL0     H21236   1.596   0.941  -0.525  2.3882  0.2190  0.7522
  879MOL0     H21237   1.728   0.998  -0.708  2.0734  0.9778 -0.9176
  879MOL0     H21238   1.748   1.172  -0.635 -1.1950  0.4949  1.5345
  879MOL0     H21239   1.827   1.044  -0.433 -0.9348  1.7609 -0.8015
  879MOL0     H21240   1.855   0.902  -0.542  4.1004  0.7067 -0.9744
  879MOL0     H21241   1.981   1.032  -0.705 -0.6824 -1.3912  0.2308
  879MOL0     H21242   1.976   1.179  -0.593  2.2142 -0.1060 -2.0486
  879MOL0     H21243   2.070   1.045  -0.419 -2.1248 -0.5052 -0.2372
  879MOL0     H21244   2.176   1.080  -0.556  0.3608 -0.6439 -1.6175
  879MOL0     H21245   2.060   0.812  -0.480 -2.8309  1.5361 -1.8304
  879MOL0     H21246   2.142   0.834  -0.640 -0.9318  2.4963 -1.9641
  879MOL0     H21247   2.266   0.876  -0.362 -1.8491 -0.0711 -0.4996
  879MOL0     H21248   2.343   0.925  -0.514 -2.4208  1.2937 -3.5993
  879MOL0     H21249   2.314   0.692  -0.594 -1.5224  0.0904  0.4170
  879MOL0     H21250   2.445   0.721  -0.472  0.5267 -1.8597 -0.8918
  879MOL0     H21251   2.441   0.616  -0.223  1.2116 -2.4211 -0.3923
  879MOL0     H21252   2.304   0.535   0.007  2.9090 -0.4007 -0.8542
  879MOL0     H21253   2.350   0.377  -0.051  0.1392 -0.0238 -1.2870
  879MOL0     H21254   2.123   0.403   0.101 -0.4239 -0.5942 -0.4950
  879MOL0     H21255   2.059   0.489  -0.027 -0.6207 -1.8983  0.4689
  879MOL0     H21256   1.987   0.341  -0.121  1.5366  1.4869 -0.1926
  879MOL0     H21257   2.137   0.254  -0.168  2.6015 -1.0412  2.7822
  879MOL0     H21258   1.996   0.098  -0.054  0.1646  0.8514 -1.6773
  879MOL0     H21259   2.140   0.130   0.039 -0.0725  0.1401 -2.5555
  879MOL0     H21260   2.010  -0.051   0.109  2.8599  3.0090  2.6073
  879MOL0     H21261   1.884  -0.338   0.319 -4.2688 -0.5472  0.2044
  879MOL0     H21262   1.964  -0.298   0.166 -0.1571 -1.2803  0.2038
  879MOL0     H21263   1.785  -0.316   0.184  0.6368 -0.7340  0.3952
  879MOL0     H21264   1.546  -0.408   0.533 -0.1187 -0.1615  1.1179
  879MOL0     H21265   1.383  -0.496   0.677  1.7252 -1.3735 -1.4173
  879MOL0     H21266   1.320  -0.272   0.927 -0.0301 -1.2057  0.0178
  879MOL0     H21267   1.150  -0.222   0.953 -1.8704 -1.2895 -1.7195
  879MOL0     H21268   1.258  -0.500   0.988 -2.4037 -1.1689 -2.8327
  879MOL0     H21269   1.234  -0.368   1.113 -0.8975 -0.4330  0.1543
  879MOL0     H21270   1.070  -0.559   1.099  1.4924 -1.3691 -1.8098
  879MOL0     H21271   1.031  -0.505   0.937 -1.6255 -0.2059  0.6933
  879MOL0     H21272   0.938  -0.296   1.033  2.0356  1.6419  1.2566
  879MOL0     H21273   1.008  -0.328   1.189 -3.9616  1.0898  1.7375
  879MOL0     H21274   0.809  -0.530   1.095  1.3156  0.1744 -0.3316
  879MOL0     H21275   0.847  -0.467   1.253 -3.6621  3.4051  0.1178
  879MOL0     H21276   0.750  -0.238   1.189  2.4610 -0.4809 -0.7303
  879MOL0     H21277   0.642  -0.385   1.212  0.9875 -2.4729 -1.1344
  879MOL0     H21278   0.627  -0.399   0.965 -0.4295  2.2831 -1.3166
  879MOL0     H21279   0.727  -0.270   0.943  1.4777 -1.9292 -1.1335
  879MOL0     H21280   0.471  -0.234   1.092  0.4659 -2.6456 -0.9662
  879MOL0     H21281   0.492  -0.194   0.931  0.9459  2.2513 -0.5121
  879MOL0     H21282   1.183  -0.111   0.675 -2.9095 -0.5407 -2.9832
  879MOL0     H21283   1.368  -0.024   0.508 -0.5021 -0.7786 -1.5186
  879MOL0     H21284   1.665   0.076   0.443 -0.2402  0.9254  0.4093
  879MOL0     H21285   1.777   0.254   0.303 -2.1251 -0.8553 -2.2158
  879MOL0     H21286   1.336   1.196  -0.372 -1.3219 -1.3152 -1.2831
  879MOL0     H21287   1.214   1.116  -0.194  0.5680 -0.6187 -0.1172
  879MOL0     H21288   1.165   0.649   0.178 -4.0311  2.3055 -1.9666
  879MOL0     H21289   1.102   0.616   0.403  0.8247 -0.4658 -1.4126
  879MOL0     H21290   1.148   0.815   0.802 -0.6205  1.7507  1.3825
  879MOL0     H21291   1.255   0.918   0.708  0.5012 -1.5003  3.4131
  879MOL0     H21292   0.981   0.980   0.645  0.3545 -1.0845 -0.3080
  879MOL0     H21293   1.103   1.076   0.739  0.7664 -1.1584 -0.0337
  879MOL0     H21294   1.025   0.935   0.945 -0.2573 -1.8354 -1.0235
  879MOL0     H21295   0.941   1.074   0.875  1.6032  0.3769 -1.3373
  879MOL0     H21296   0.844   0.787   0.842 -1.8743 -0.4563  2.9740
  879MOL0     H21297   0.772   0.932   0.766 -2.1533 -0.7887  1.3778
  879MOL0     H21298   0.665   1.032   1.162  2.3626  1.0774  1.0310
  879MOL0     H21299   1.217   1.018   0.498  2.7481  1.4822 -1.4330
  879MOL0     H21300   1.241   1.135   0.199  1.1067  2.7169  1.5486
  879MOL0     H21301   1.329   1.156   0.355  1.2495  0.9325 -0.1706
  879MOL0     H21302   1.401   1.095   0.203  0.7669  2.0970 -0.0236
  880MOL0     O21303   0.429   1.361   7.840 -0.0294  0.5512  0.7135
  880MOL0     C21304   0.522   1.414   7.782 -0.1494  0.4556 -0.8248
  880MOL0     O21305   0.609   1.505   7.833  0.3683 -0.4671 -0.5631
  880MOL0     C21306   0.586   1.549   7.968  1.2296  0.6324  0.3027
  880MOL0     C21307   0.553   1.471   8.078  0.7882 -0.0170 -0.3190
  880MOL0     C21308   0.539   1.530   8.203 -0.7220 -0.8038 -1.0800
  880MOL0     C21309   0.553   1.668   8.210  0.8358  0.9662  0.0957
  880MOL0     O21310   0.540   1.724   8.335  0.6780  0.7519 -0.0446
  880MOL0     C21311   0.629   1.674   8.438  0.2129  0.4455  0.7596
  880MOL0     C21312   0.715   1.784   8.500  0.0193  0.6551  0.0657
  880MOL0     C21313   0.815   1.754   8.608  0.2878 -0.3206 -0.1752
  880MOL0     C21314   0.764   1.656   8.706 -0.0094  0.4971 -0.5863
  880MOL0     C21315   0.850   1.653   8.825 -0.7934  0.1557 -0.9353
  880MOL0     C21316   0.992   1.591   8.787 -0.8077 -0.5601 -0.3919
  880MOL0     C21317   1.066   1.566   8.919 -0.1461  0.4638 -0.8925
  880MOL0     C21318   1.220   1.558   8.917  0.4458 -0.7202  0.6819
  880MOL0     N21319   1.287   1.460   8.828 -0.2035 -1.0621  0.0863
  880MOL0     C21320   1.423   1.442   8.819 -0.6056 -0.3785 -0.6426
  880MOL0     C21321   1.436   1.354   8.724 -0.2656  0.0202  0.5164
  880MOL0     C21322   1.561   1.340   8.643 -0.3551  0.8160 -0.6846
  880MOL0     C21323   1.674   1.267   8.730  0.2313 -1.1562  0.0363
  880MOL0     C21324   1.801   1.285   8.645 -0.0872  0.3367 -0.8766
  880MOL0     C21325   1.932   1.241   8.720 -0.3161  0.1122  0.3472
  880MOL0     O21326   1.937   1.103   8.724  0.0174  0.8246  0.1975
  880MOL0     C21327   1.994   1.028   8.629 -0.1410  0.3453  0.0559
  880MOL0     C21328   2.043   1.083   8.499  0.7467 -0.0434 -0.1486
  880MOL0     C21329   2.080   1.002   8.392  0.2156  0.1011  0.9364
  880MOL0     C21330   2.136   1.067   8.265  1.0590  0.3232  0.0784
  880MOL0     C21331   2.077   0.859   8.405 -0.7127 -0.1911 -0.0744
  880MOL0     C21332   2.127   0.758   8.296  0.2420 -1.0552 -0.3975
  880MOL0     O21333   2.116   0.628   8.335 -0.5543  0.4875  0.8793
  880MOL0     C21334   2.150   0.527   8.249  0.5838  0.2972 -0.0436
  880MOL0     C21335   2.049   0.442   8.190  0.1254 -1.0148 -0.0858
  880MOL0     C21336   2.085   0.346   8.095 -0.4901 -0.0402 -0.2656
  880MOL0     C21337   2.219   0.315   8.072 -0.5340  0.5538  0.7253
  880MOL0     O21338   2.256   0.204   7.996 -0.1159 -0.2513 -0.6441
  880MOL0     C21339   2.395   0.214   7.948 -0.5317  0.0516  0.5191
  880MOL0     C21340   2.403   0.122   7.824 -0.0135 -0.0107 -0.0033
  880MOL0     C21341   2.407  -0.030   7.839  0.4103  0.7052 -0.7798
  880MOL0     C21342   2.437  -0.102   7.710 -0.2425  0.0567 -0.1356
  880MOL0     C21343   2.444  -0.239   7.727  0.1806  1.0887 -0.6865
  880MOL0     C21344   2.429  -0.317   7.596  0.5666  0.2395  0.1565
  880MOL0     C21345   2.406  -0.472   7.611 -0.2917 -0.5153  0.8366
  880MOL0     C21346   2.346  -0.532   7.483  0.6552 -0.4292  0.1040
  880MOL0    Cl21347   2.466  -0.551   7.339  0.3047  0.2357 -0.0888
  880MOL0     C21348   2.320   0.391   8.144 -0.0717  1.2446  0.5390
  880MOL0     C21349   2.283   0.500   8.225 -0.3741  0.2662 -0.1406
  880MOL0     O21350   2.163   0.803   8.189 -0.6836  0.2251  0.0668
  880MOL0     C21351   2.030   0.808   8.528 -0.5621  0.1061 -0.2372
  880MOL0     C21352   1.987   0.884   8.641 -0.5056 -0.6221  0.1346
  880MOL0     N21353   1.314   1.302   8.682 -0.1603  0.3247  0.4898
  880MOL0     N21354   1.230   1.359   8.756  0.1515  0.6989  1.0929
  880MOL0     C21355   0.583   1.746   8.100  1.0541 -1.3693 -0.0799
  880MOL0     C21356   0.605   1.688   7.979 -0.1424  0.5921  0.2472
  880MOL0     C21357   0.540   1.378   7.640  0.1106  0.1630 -0.2900
  880MOL0     C21358   0.578   1.482   7.545 -0.1723 -0.0636 -0.4000
  880MOL0     C21359   0.603   1.448   7.410 -0.4449  0.9403  0.2197
  880MOL0     C21360   0.579   1.321   7.366  0.0587 -0.1970  0.2581
  880MOL0     O21361   0.597   1.306   7.227  0.0021 -0.3595 -0.0132
  880MOL0     C21362   0.563   1.168   7.176 -0.2766 -0.5468 -0.0722
  880MOL0     C21363   0.571   1.151   7.025 -0.5681  0.0158 -0.7354
  880MOL0     C21364   0.463   1.221   6.938 -0.2828 -0.2771  0.0278
  880MOL0     C21365   0.474   1.373   6.935  0.7481  0.1681 -0.3958
  880MOL0     C21366   0.571   1.423   6.844 -0.2320 -0.3456  0.0581
  880MOL0     C21367   0.660   1.446   6.759  0.2822  0.1210 -0.5545
  880MOL0     C21368   0.534   1.218   7.454  0.3364 -0.4076 -0.5810
  880MOL0     C21369   0.519   1.245   7.589 -0.3894 -0.8838 -0.0046
  880MOL0     C21370   0.502   1.123   7.674  0.1342 -0.2567 -0.8472
  880MOL0     H21371   0.557   1.363   8.067  1.3680 -0.2899  2.1692
  880MOL0     H21372   0.534   1.481   8.299  1.8505  1.5515  0.4340
  880MOL0     H21373   0.696   1.597   8.399 -3.0777 -2.3682  0.1635
  880MOL0     H21374   0.569   1.638   8.521 -0.8427 -2.5062 -1.1220
  880MOL0     H21375   0.767   1.826   8.413  1.8292  1.0615  1.2738
  880MOL0     H21376   0.657   1.869   8.537  2.2815  2.8007 -0.9874
  880MOL0     H21377   0.906   1.733   8.551  1.3894 -0.1269  1.4341
  880MOL0     H21378   0.837   1.844   8.666 -0.4915  0.6296 -1.2931
  880MOL0     H21379   0.671   1.697   8.746  1.3629 -0.9856  5.0471
  880MOL0     H21380   0.752   1.556   8.663 -2.2943  0.8879 -1.0044
  880MOL0     H21381   0.795   1.595   8.899 -1.7619  1.1941 -0.8119
  880MOL0     H21382   0.866   1.747   8.878 -0.7617 -2.3137  3.9904
  880MOL0     H21383   0.975   1.499   8.732 -0.5382  0.0829 -1.5913
  880MOL0     H21384   1.047   1.671   8.736 -2.7595  0.0269 -1.6673
  880MOL0     H21385   1.030   1.472   8.964  0.0382  1.4181  1.4249
  880MOL0     H21386   1.037   1.644   8.991 -0.5122 -0.5746  0.1240
  880MOL0     H21387   1.258   1.661   8.911  0.8548 -0.6582  3.1059
  880MOL0     H21388   1.257   1.523   9.015  1.2979 -2.7106 -0.2951
  880MOL0     H21389   1.496   1.507   8.866  0.6677 -2.7523  0.8936
  880MOL0     H21390   1.603   1.431   8.600  3.1596 -1.6816 -3.0528
  880MOL0     H21391   1.539   1.276   8.558 -0.6020  0.5743 -0.4432
  880MOL0     H21392   1.687   1.309   8.830 -1.4583  1.3021 -0.6835
  880MOL0     H21393   1.649   1.161   8.742 -1.3465 -0.7400  0.5362
  880MOL0     H21394   1.780   1.225   8.557  0.0524  0.2340 -0.8402
  880MOL0     H21395   1.821   1.385   8.606  2.0556 -1.1968 -4.0891
  880MOL0     H21396   2.020   1.274   8.664 -0.2643 -0.9392 -0.2217
  880MOL0     H21397   1.932   1.268   8.826 -1.0413  1.7542 -0.0400
  880MOL0     H21398   2.041   1.191   8.490  4.7313  0.1448 -0.6013
  880MOL0     H21399   2.115   1.174   8.268 -1.6980 -0.1220 -1.1356
  880MOL0     H21400   2.092   1.036   8.170 -1.8265  5.4244 -0.5476
  880MOL0     H21401   2.246   1.065   8.263  1.0624 -1.0205 -2.3501
  880MOL0     H21402   1.950   0.477   8.215  1.3599  2.3548  0.6406
  880MOL0     H21403   2.012   0.294   8.033 -0.1198  0.6673 -1.3435
  880MOL0     H21404   2.416   0.317   7.921  0.4531 -0.3170 -0.1674
  880MOL0     H21405   2.471   0.178   8.019 -1.8112 -1.5887  1.1238
  880MOL0     H21406   2.319   0.140   7.757 -0.5760  2.5112  1.2267
  880MOL0     H21407   2.494   0.147   7.767 -0.2102  2.8784  0.7668
  880MOL0     H21408   2.309  -0.061   7.876 -1.2659  0.8231 -4.6014
  880MOL0     H21409   2.482  -0.062   7.912 -0.1173 -2.2545 -1.4138
  880MOL0     H21410   2.527  -0.053   7.673  0.3468 -2.5906 -2.5682
  880MOL0     H21411   2.348  -0.074   7.652 -0.1624 -0.8727 -0.7324
  880MOL0     H21412   2.533  -0.281   7.776  0.4942  0.7917 -1.4964
  880MOL0     H21413   2.364  -0.270   7.795 -0.3070 -0.4420 -1.8954
  880MOL0     H21414   2.519  -0.296   7.537 -1.0343 -0.5674 -2.7778
  880MOL0     H21415   2.344  -0.275   7.543 -0.7217 -1.0790  1.1089
  880MOL0     H21416   2.327  -0.502   7.682  0.3195 -1.0320  1.3113
  880MOL0     H21417   2.503  -0.517   7.633  0.4717  0.9021  0.4836
  880MOL0     H21418   2.257  -0.477   7.449  2.3036  3.3305  1.2990
  880MOL0     H21419   2.300  -0.628   7.508  0.5473 -1.3036 -3.0035
  880MOL0     H21420   2.426   0.372   8.131 -0.5751 -0.2110 -2.3122
  880MOL0     H21421   2.356   0.564   8.274 -1.5913  0.7726  1.0484
  880MOL0     H21422   2.029   0.703   8.553  2.3444  0.4079  1.6006
  880MOL0     H21423   1.950   0.845   8.735 -0.5661 -2.6999 -0.6841
  880MOL0     H21424   0.592   1.854   8.109  1.4777 -1.4294  0.2225
  880MOL0     H21425   0.626   1.744   7.888  1.0560 -1.5009 -0.8516
  880MOL0     H21426   0.580   1.585   7.577  3.2109 -0.1169 -0.0439
  880MOL0     H21427   0.643   1.515   7.334 -1.2782  2.3365  0.9837
  880MOL0     H21428   0.613   1.083   7.223 -1.5532 -2.9495 -2.7468
  880MOL0     H21429   0.458   1.152   7.202  0.2485 -2.1885  1.1551
  880MOL0     H21430   0.561   1.043   7.011  1.1880 -0.3165  0.2200
  880MOL0     H21431   0.665   1.185   6.980  0.3285  3.6629  3.2067
  880MOL0     H21432   0.474   1.177   6.838 -0.8731  0.4699 -0.3771
  880MOL0     H21433   0.361   1.190   6.962 -0.2853  0.5735  1.1662
  880MOL0     H21434   0.503   1.416   7.031  3.0835 -3.0808  0.4933
  880MOL0     H21435   0.372   1.398   6.904 -0.7529 -2.5278  1.9716
  880MOL0     H21436   0.726   1.479   6.681  0.9080 -3.2775 -1.6563
  880MOL0     H21437   0.503   1.124   7.410 -0.0731 -0.6405  0.1964
  880MOL0     H21438   0.394   1.123   7.688 -0.2028  1.8889 -2.7771
  880MOL0     H21439   0.536   1.035   7.620  0.4648 -1.1778  0.8011
  880MOL0     H21440   0.556   1.112   7.769 -1.4946  0.6018  0.2213
  881MOL0     O21441   5.058   2.648   4.452  0.3180  0.2111  0.3052
  881MOL0     C21442   4.953   2.643   4.511 -0.4059  0.6284 -0.1519
  881MOL0     O21443   4.909   2.736   4.602  0.2617  0.4958 -0.1346
  881MOL0     C21444   4.998   2.809   4.672 -1.1702 -0.7690  1.4804
  881MOL0     C21445   5.133   2.764   4.702 -0.0586  0.9350 -0.8473
  881MOL0     C21446   5.222   2.846   4.769  0.0817  0.1252 -0.0729
  881MOL0     C21447   5.181   2.976   4.807  0.4708 -0.8231 -0.1458
  881MOL0     O21448   5.267   3.066   4.867  0.0485  0.2639  0.0867
  881MOL0     C21449   5.237   3.202   4.893  0.5679  0.5355  0.7582
  881MOL0     C21450   5.354   3.270   4.965  0.0238  0.4599  0.4126
  881MOL0     C21451   5.341   3.236   5.115 -0.4750  0.8030 -0.1314
  881MOL0     C21452   5.478   3.282   5.184  0.2571  0.3761 -0.2769
  881MOL0     C21453   5.484   3.233   5.329  0.7704 -0.8711  0.3323
  881MOL0     C21454   5.598   3.302   5.407  0.8447 -0.1934  0.1207
  881MOL0     C21455   5.588   3.302   5.564  0.4295 -0.3733 -0.4558
  881MOL0     C21456   5.631   3.436   5.633  0.9916  0.0817  0.7767
  881MOL0     N21457   5.776   3.442   5.623  0.3601 -0.3380 -0.0461
  881MOL0     C21458   5.841   3.499   5.521 -0.6133 -0.7028  0.4677
  881MOL0     C21459   5.969   3.502   5.560 -0.4189 -0.0430  0.0697
  881MOL0     C21460   6.085   3.550   5.482  0.1652 -0.3928  0.0748
  881MOL0     C21461   6.160   3.441   5.411  0.0199 -0.5464 -0.1479
  881MOL0     C21462   6.284   3.491   5.327  0.3962  0.4054  0.1754
  881MOL0     C21463   6.289   3.438   5.176  0.3714 -0.7270 -0.3184
  881MOL0     O21464   6.169   3.478   5.105 -0.0484 -0.0523 -0.0555
  881MOL0     C21465   6.183   3.491   4.969 -0.2050  0.1060  0.5278
  881MOL0     C21466   6.284   3.578   4.911 -0.0687  0.3261 -0.3187
  881MOL0     C21467   6.305   3.598   4.775  0.3503 -0.4552 -0.1159
  881MOL0     C21468   6.397   3.706   4.741 -0.1240  0.1330  0.0902
  881MOL0     C21469   6.217   3.529   4.685  0.4370 -0.3537  0.8564
  881MOL0     C21470   6.233   3.536   4.536 -0.2100  0.8325 -0.4795
  881MOL0     O21471   6.117   3.504   4.459 -0.6002 -0.3557 -0.2427
  881MOL0     C21472   6.103   3.516   4.323  0.4220  0.2067 -0.8888
  881MOL0     C21473   5.987   3.450   4.283  0.2836  0.7058 -0.4684
  881MOL0     C21474   5.948   3.442   4.146  0.5897  0.1015 -0.2797
  881MOL0     C21475   6.036   3.505   4.055 -1.2487  0.0766 -0.2171
  881MOL0     O21476   6.005   3.479   3.919 -0.0724 -0.5351 -0.5669
  881MOL0     C21477   6.067   3.543   3.805 -0.1651 -0.1939 -0.1733
  881MOL0     C21478   5.991   3.489   3.686 -0.1568  0.2784  0.8290
  881MOL0     C21479   5.841   3.521   3.685 -0.2188 -0.7568  0.5265
  881MOL0     C21480   5.822   3.669   3.634 -0.3556  0.0749  0.8746
  881MOL0     C21481   5.674   3.713   3.673 -0.9599  0.8784  0.2973
  881MOL0     C21482   5.663   3.858   3.637  0.4430 -0.4159  0.4246
  881MOL0     C21483   5.558   3.935   3.719  0.6428 -0.0846 -0.4632
  881MOL0     C21484   5.413   3.895   3.702  0.8378  0.4720 -0.0895
  881MOL0    Cl21485   5.302   4.019   3.773  0.6594  0.1257  0.0401
  881MOL0     C21486   6.152   3.572   4.100 -0.4463  0.6837  0.0630
  881MOL0     C21487   6.189   3.575   4.234 -0.1212  0.5413  1.0988
  881MOL0     O21488   6.345   3.566   4.493 -0.2103  0.6725 -0.2815
  881MOL0     C21489   6.113   3.446   4.738  0.3371  0.0276  0.1666
  881MOL0     C21490   6.094   3.432   4.878 -0.8039  0.3276 -0.8466
  881MOL0     N21491   5.983   3.450   5.686 -0.3198 -0.6959  1.1561
  881MOL0     N21492   5.865   3.416   5.720 -0.4990  0.0880 -0.6335
  881MOL0     C21493   5.052   3.010   4.781  0.1609  0.1895 -1.3408
  881MOL0     C21494   4.961   2.934   4.712  1.0515  0.2322 -1.4711
  881MOL0     C21495   4.863   2.529   4.477  0.0783  0.4016  0.2411
  881MOL0     C21496   4.734   2.539   4.527 -0.1017 -0.0216  0.5612
  881MOL0     C21497   4.638   2.436   4.491  0.7556  0.7614 -0.5173
  881MOL0     C21498   4.677   2.316   4.422  0.5162 -0.7493 -0.7158
  881MOL0     O21499   4.591   2.221   4.382  0.6789 -0.5194 -0.4063
  881MOL0     C21500   4.454   2.225   4.430  0.4402  0.1430 -0.4348
  881MOL0     C21501   4.389   2.094   4.380 -0.2029  0.4199 -0.6523
  881MOL0     C21502   4.239   2.076   4.412 -0.4986 -1.6278  0.4086
  881MOL0     C21503   4.183   1.941   4.372 -0.4275  0.2904  0.3096
  881MOL0     C21504   4.039   1.938   4.402  0.4267  0.7718 -0.0517
  881MOL0     C21505   3.914   1.934   4.398  0.1736 -0.6204 -0.2041
  881MOL0     C21506   4.812   2.305   4.389  0.0664 -0.0397 -0.2924
  881MOL0     C21507   4.904   2.415   4.403 -0.0659 -0.3801  0.2159
  881MOL0     C21508   5.045   2.394   4.335  0.7994 -1.5722 -0.1092
  881MOL0     H21509   5.170   2.667   4.669 -0.4204 -0.1955  1.8612
  881MOL0     H21510   5.327   2.818   4.774  0.7663  2.1727 -1.4980
  881MOL0     H21511   5.146   3.196   4.953  1.6425 -3.6945  2.2875
  881MOL0     H21512   5.210   3.263   4.806 -0.1659 -1.4851 -0.4975
  881MOL0     H21513   5.448   3.248   4.915  0.3213  0.2041  1.0741
  881MOL0     H21514   5.345   3.377   4.942  2.0302  0.4369 -0.6670
  881MOL0     H21515   5.259   3.291   5.163 -0.6353 -0.0333  0.5833
  881MOL0     H21516   5.327   3.130   5.137 -0.5805  0.2680 -2.5076
  881MOL0     H21517   5.558   3.242   5.120  0.8630  0.6410  0.3003
  881MOL0     H21518   5.475   3.391   5.191  0.9107  0.4108 -0.4276
  881MOL0     H21519   5.499   3.125   5.337 -0.0436 -0.8630  3.4211
  881MOL0     H21520   5.393   3.265   5.380  1.2498  0.0986  0.6117
  881MOL0     H21521   5.685   3.259   5.356  0.2552 -0.1431 -0.9563
  881MOL0     H21522   5.611   3.407   5.382  3.5806 -1.0775 -2.8241
  881MOL0     H21523   5.647   3.215   5.594  1.2866  0.3377 -0.0357
  881MOL0     H21524   5.483   3.283   5.589 -0.2328  2.4929 -0.7380
  881MOL0     H21525   5.584   3.518   5.579 -0.3772 -1.2627 -0.1360
  881MOL0     H21526   5.606   3.437   5.740 -4.1272 -0.4476 -0.2005
  881MOL0     H21527   5.804   3.559   5.439 -0.2414 -1.1301 -0.0236
  881MOL0     H21528   6.154   3.615   5.536  0.5410 -3.5809  3.8520
  881MOL0     H21529   6.038   3.607   5.401 -1.3884 -2.1983 -0.3702
  881MOL0     H21530   6.194   3.363   5.480 -2.0272 -2.1105 -0.7945
  881MOL0     H21531   6.095   3.379   5.348 -1.3987  1.7049 -0.9990
  881MOL0     H21532   6.280   3.600   5.324  1.6411  0.4482 -0.2707
  881MOL0     H21533   6.371   3.449   5.378  0.2232 -0.6228 -0.3456
  881MOL0     H21534   6.385   3.473   5.135  1.6694 -3.2152  0.3675
  881MOL0     H21535   6.287   3.329   5.172  0.0085 -0.6997 -3.6537
  881MOL0     H21536   6.352   3.627   4.979  0.1206  0.4596 -0.6021
  881MOL0     H21537   6.475   3.680   4.668  0.9193  1.9388  0.5304
  881MOL0     H21538   6.447   3.748   4.828 -1.4742 -1.8668  1.9316
  881MOL0     H21539   6.343   3.791   4.699 -0.9192  0.0488  0.9132
  881MOL0     H21540   5.914   3.404   4.347 -0.3904  0.8643 -1.1075
  881MOL0     H21541   5.855   3.404   4.106  0.3832  1.1095 -0.7568
  881MOL0     H21542   6.064   3.652   3.820  4.0473  0.2011 -0.8674
  881MOL0     H21543   6.175   3.527   3.802 -0.0069 -0.2356  2.5788
  881MOL0     H21544   6.036   3.528   3.594 -2.6983 -2.8444 -1.9848
  881MOL0     H21545   6.000   3.380   3.690  1.2487  0.3691  0.5701
  881MOL0     H21546   5.805   3.510   3.787 -1.3983  0.3440  0.2589
  881MOL0     H21547   5.788   3.462   3.609  1.3849  0.9076 -2.0115
  881MOL0     H21548   5.834   3.684   3.527 -1.4099 -3.5025  0.1257
  881MOL0     H21549   5.899   3.738   3.669  1.0819  0.0136 -1.9212
  881MOL0     H21550   5.598   3.655   3.619 -0.6760 -0.4346  1.2830
  881MOL0     H21551   5.654   3.697   3.779  2.2340 -1.7665  0.6410
  881MOL0     H21552   5.639   3.876   3.532 -0.1819 -0.5141  0.5426
  881MOL0     H21553   5.750   3.917   3.668  0.7425 -1.1006  0.8956
  881MOL0     H21554   5.571   4.042   3.698 -0.9766  0.0380 -0.9977
  881MOL0     H21555   5.575   3.925   3.826 -0.2812  2.6372  0.0152
  881MOL0     H21556   5.400   3.805   3.763 -0.2902  0.6061 -0.1003
  881MOL0     H21557   5.392   3.863   3.599 -2.5516  0.6254  0.4421
  881MOL0     H21558   6.221   3.617   4.029 -1.1275  1.5249 -0.0717
  881MOL0     H21559   6.287   3.603   4.271 -1.7135  0.3705  6.2398
  881MOL0     H21560   6.035   3.412   4.670  0.7731  0.6273 -0.6454
  881MOL0     H21561   6.019   3.372   4.928  0.6142 -0.8329 -0.0073
  881MOL0     H21562   5.014   3.106   4.814 -0.7746 -0.6115 -0.0012
  881MOL0     H21563   4.864   2.981   4.716  1.3204  0.7681  1.4867
  881MOL0     H21564   4.698   2.622   4.588  2.9587  1.6540  0.2949
  881MOL0     H21565   4.532   2.438   4.515  0.5558 -1.8034 -0.9085
  881MOL0     H21566   4.444   2.219   4.538 -4.2544  1.8451 -0.5435
  881MOL0     H21567   4.398   2.314   4.402 -0.9386 -1.1698 -2.1118
  881MOL0     H21568   4.439   2.019   4.442 -0.3825 -1.1204 -2.2904
  881MOL0     H21569   4.406   2.088   4.273 -1.1024  1.1959 -0.8572
  881MOL0     H21570   4.243   2.097   4.520  0.1993 -1.7588  0.4154
  881MOL0     H21571   4.196   2.156   4.352  0.9290 -0.1463  1.2812
  881MOL0     H21572   4.222   1.848   4.416 -0.8485 -0.7064 -1.3424
  881MOL0     H21573   4.194   1.932   4.263 -1.6957  3.2177 -0.1541
  881MOL0     H21574   3.809   1.946   4.381  0.7045  1.3142 -2.6226
  881MOL0     H21575   4.847   2.210   4.351 -1.0853 -0.4390 -0.3761
  881MOL0     H21576   5.068   2.479   4.271  1.5975 -0.9383  0.9859
  881MOL0     H21577   5.122   2.405   4.412 -1.2515  3.8015  1.6158
  881MOL0     H21578   5.040   2.297   4.285 -1.7093 -2.8061  2.2924
  882MOL0     O21579   9.192   1.901   9.782 -0.0019 -0.0124  0.0034
  882MOL0     C21580   9.264   1.996   9.778  1.1355 -0.0579  0.7748
  882MOL0     O21581   9.308   2.058   9.661 -0.3558  0.5082  0.0033
  882MOL0     C21582   9.261   2.026   9.537  0.0881 -0.0356  0.1056
  882MOL0     C21583   9.126   1.993   9.503 -0.0555  0.4998 -0.1766
  882MOL0     C21584   9.091   1.961   9.367  0.2901 -1.6810  0.3041
  882MOL0     C21585   9.180   1.970   9.259  0.3326 -0.4486  0.3505
  882MOL0     O21586   9.147   1.941   9.135  0.6750  0.8820 -0.1363
  882MOL0     C21587   9.033   2.012   9.080  0.1372  0.2529  0.5536
  882MOL0     C21588   8.982   1.939   8.950  0.2502 -0.1570 -0.6686
  882MOL0     C21589   9.092   1.931   8.842  1.4431  0.3622 -0.1182
  882MOL0     C21590   9.132   2.060   8.782 -0.4734 -0.3580 -0.1608
  882MOL0     C21591   9.262   2.037   8.700 -1.0379  0.0018  0.4203
  882MOL0     C21592   9.284   2.132   8.591  0.3807 -0.1409  0.2006
  882MOL0     C21593   9.429   2.132   8.547 -0.3913  0.4158 -0.4981
  882MOL0     C21594   9.505   2.238   8.629 -0.3305 -0.2241  0.3059
  882MOL0     N21595   9.644   2.265   8.575 -0.0767 -0.0775  0.3305
  882MOL0     C21596   9.751   2.173   8.569 -0.4459 -0.6505 -1.1340
  882MOL0     C21597   9.851   2.258   8.534 -0.4929  0.0490 -0.0277
  882MOL0     C21598  10.000   2.213   8.513  0.5747  0.4865  0.1607
  882MOL0     C21599  10.052   2.242   8.368 -0.4916 -0.7491 -0.7087
  882MOL0     C21600  10.200   2.203   8.361 -0.6668 -0.0523 -0.3715
  882MOL0     C21601  10.241   2.167   8.222  0.3663  0.2300 -0.6710
  882MOL0     O21602  10.178   2.038   8.189  0.2098 -0.1096  0.1296
  882MOL0     C21603  10.208   1.986   8.069 -0.0165  0.2046  0.4057
  882MOL0     C21604  10.141   1.874   8.036  0.5341 -0.7893  0.7075
  882MOL0     C21605  10.156   1.826   7.899 -0.3744 -0.0465 -0.3322
  882MOL0     C21606  10.074   1.719   7.858  0.7768  0.5228  0.0987
  882MOL0     C21607  10.276   1.859   7.824  0.2593  0.0216 -0.1488
  882MOL0     C21608  10.310   1.796   7.700 -0.0212  0.3526 -0.3794
  882MOL0     O21609  10.337   1.878   7.601  0.2891  0.1835  0.3303
  882MOL0     C21610  10.367   1.809   7.483 -0.4585  0.3759  0.1439
  882MOL0     C21611  10.261   1.757   7.400 -0.7556 -0.2553  0.0740
  882MOL0     C21612  10.284   1.682   7.283 -0.4490 -0.0330  0.9953
  882MOL0     C21613  10.412   1.655   7.238  0.7647 -0.1810 -0.0608
  882MOL0     O21614  10.414   1.576   7.125 -0.2152 -0.2842 -0.2763
  882MOL0     C21615  10.533   1.559   7.050 -0.6317 -0.7375 -0.5291
  882MOL0     C21616  10.538   1.665   6.941  0.5045  0.0093  0.4097
  882MOL0     C21617  10.622   1.631   6.824  0.1603  0.5764  0.5973
  882MOL0     C21618  10.651   1.736   6.726  0.7036 -1.1202  1.1650
  882MOL0     C21619  10.755   1.691   6.621  0.0975  0.3380 -0.1755
  882MOL0     C21620  10.783   1.804   6.522 -0.3604  0.5598  0.7846
  882MOL0     C21621  10.877   1.759   6.413  1.0149  0.8058  0.6579
  882MOL0     C21622  11.021   1.785   6.428 -0.1151  0.6985 -0.7452
  882MOL0    Cl21623  11.085   1.724   6.569  0.1002 -0.2926  0.3567
  882MOL0     C21624  10.521   1.719   7.311 -0.1730 -0.6408 -0.5150
  882MOL0     C21625  10.495   1.784   7.430 -0.4829 -0.6142  0.9884
  882MOL0     O21626  10.298   1.669   7.697  0.1075 -0.0035  0.0140
  882MOL0     C21627  10.351   1.966   7.870 -0.4350  0.3405  0.2113
  882MOL0     C21628  10.321   2.027   7.990 -0.1515 -0.4299 -0.4686
  882MOL0     N21629   9.808   2.391   8.525  0.0460  0.3682 -0.1796
  882MOL0     N21630   9.685   2.386   8.550 -0.2874  0.3793  0.3702
  882MOL0     C21631   9.312   2.013   9.294 -0.0796  0.3097  0.2035
  882MOL0     C21632   9.347   2.036   9.429 -0.0344  0.2065  0.3274
  882MOL0     C21633   9.334   2.032   9.907 -0.4293 -0.3388  0.1519
  882MOL0     C21634   9.260   2.036  10.021  0.3313 -0.9480  0.2855
  882MOL0     C21635   9.321   2.035  10.148  0.3483 -0.3677 -0.2512
  882MOL0     C21636   9.462   2.042  10.153 -0.3363  0.1366 -0.6311
  882MOL0     O21637   9.524   2.054  10.277  0.3946  0.1849  0.0079
  882MOL0     C21638   9.652   2.004  10.304 -0.3456 -0.1866  0.4336
  882MOL0     C21639   9.647   1.853  10.316 -0.5179  0.4247  0.3606
  882MOL0     C21640   9.739   1.803  10.427 -0.1326 -0.4633 -0.2171
  882MOL0     C21641   9.748   1.645  10.420 -0.7238 -1.6669  0.3657
  882MOL0     C21642   9.653   1.567  10.498 -0.2051  0.2770 -0.1818
  882MOL0     C21643   9.565   1.520  10.570  0.1363  0.7581  0.8751
  882MOL0     C21644   9.533   2.048  10.037 -0.2334  0.2312  0.0867
  882MOL0     C21645   9.472   2.039   9.915 -0.1361  0.5714  0.4622
  882MOL0     C21646   9.561   2.038   9.791  0.5797 -0.2875 -0.0098
  882MOL0     H21647   9.052   1.984   9.582 -0.0693  0.0521 -0.2366
  882MOL0     H21648   8.984   1.944   9.361  0.0627 -0.9345  1.8124
  882MOL0     H21649   9.070   2.111   9.052 -0.8312  0.2776 -0.7317
  882MOL0     H21650   8.950   2.024   9.151 -0.5992 -1.6261  0.0890
  882MOL0     H21651   8.950   1.837   8.971  0.3852 -0.0141  0.2780
  882MOL0     H21652   8.901   2.007   8.922  0.3268  1.7259  3.0058
  882MOL0     H21653   9.183   1.882   8.877  0.8878 -1.4717 -1.0599
  882MOL0     H21654   9.061   1.868   8.758  2.8136  0.7107 -0.9149
  882MOL0     H21655   9.058   2.095   8.709  0.0899  0.6469 -0.2734
  882MOL0     H21656   9.158   2.139   8.854  0.7711 -1.5160  0.7090
  882MOL0     H21657   9.266   1.938   8.654  0.3466  1.5868 -3.2663
  882MOL0     H21658   9.347   2.035   8.769  0.2465  1.4044 -1.0553
  882MOL0     H21659   9.250   2.089   8.497  7.5603 -2.1489 -2.1633
  882MOL0     H21660   9.250   2.234   8.610  1.7919  0.4381 -0.2409
  882MOL0     H21661   9.424   2.162   8.442  2.3758 -0.8696 -1.0994
  882MOL0     H21662   9.477   2.034   8.552 -0.9739  0.0920 -1.1175
  882MOL0     H21663   9.453   2.334   8.634  0.9476  0.4733  0.4775
  882MOL0     H21664   9.505   2.207   8.734  2.6024  1.4977  0.9322
  882MOL0     H21665   9.761   2.068   8.595 -0.6291 -0.0889  1.4580
  882MOL0     H21666  10.011   2.105   8.530  0.8553  0.1012 -2.0875
  882MOL0     H21667  10.058   2.276   8.580  0.8907 -0.0782  0.4239
  882MOL0     H21668   9.996   2.188   8.291  0.5915 -2.7254 -0.1745
  882MOL0     H21669  10.042   2.350   8.358  2.2165 -0.1930  1.3933
  882MOL0     H21670  10.248   2.295   8.395 -2.0460  0.7208 -0.4244
  882MOL0     H21671  10.231   2.124   8.430 -0.4804  0.0403 -0.3485
  882MOL0     H21672  10.202   2.239   8.150 -0.5085  1.2352  0.7669
  882MOL0     H21673  10.349   2.163   8.206  0.1481 -2.3811 -2.0255
  882MOL0     H21674  10.068   1.829   8.103 -0.0671 -1.6511 -0.4860
  882MOL0     H21675  10.044   1.729   7.754 -0.8908  0.1396  0.5093
  882MOL0     H21676   9.989   1.705   7.925  0.3997  0.7132 -0.3359
  882MOL0     H21677  10.137   1.631   7.869  2.4116  1.8341  2.1460
  882MOL0     H21678  10.161   1.757   7.442  0.0404 -0.7203  2.1015
  882MOL0     H21679  10.200   1.640   7.229 -0.5250  0.5631  0.6346
  882MOL0     H21680  10.620   1.570   7.114  0.1491  0.4788 -1.7472
  882MOL0     H21681  10.535   1.463   6.997 -1.5003 -1.5618  0.8665
  882MOL0     H21682  10.437   1.685   6.904 -0.2190 -1.1481  1.6613
  882MOL0     H21683  10.578   1.754   6.990  0.1308  1.3336 -1.5579
  882MOL0     H21684  10.565   1.564   6.759 -0.7685 -0.0314  1.9897
  882MOL0     H21685  10.712   1.581   6.862  2.3721  2.8127 -1.3190
  882MOL0     H21686  10.684   1.825   6.780  0.2201  1.4487 -2.4311
  882MOL0     H21687  10.561   1.765   6.671  0.9738 -4.0245 -1.0364
  882MOL0     H21688  10.846   1.669   6.677  0.2018  3.6226  1.1746
  882MOL0     H21689  10.715   1.605   6.566  0.4014  1.3682 -2.1246
  882MOL0     H21690  10.843   1.881   6.572  1.6047  1.8088 -3.0748
  882MOL0     H21691  10.690   1.835   6.473  0.2444  3.4011  1.2531
  882MOL0     H21692  10.843   1.811   6.323  0.3038 -1.4179 -0.4170
  882MOL0     H21693  10.861   1.652   6.397 -1.0154  1.0392  0.8913
  882MOL0     H21694  11.052   1.890   6.424 -0.1347  0.9346  2.4237
  882MOL0     H21695  11.067   1.737   6.342 -0.5382 -1.1967  0.0325
  882MOL0     H21696  10.622   1.716   7.273  0.9928  1.9282  1.9676
  882MOL0     H21697  10.579   1.827   7.484 -3.2171 -0.2487  5.4382
  882MOL0     H21698  10.446   1.969   7.817  0.8390 -0.8628  2.3278
  882MOL0     H21699  10.390   2.102   8.030 -0.3478 -2.3577  4.0906
  882MOL0     H21700   9.393   2.029   9.224  0.3633  0.9560  0.8557
  882MOL0     H21701   9.446   2.062   9.465 -0.0941  1.7983 -0.5655
  882MOL0     H21702   9.153   2.020  10.025 -0.4768  3.0810 -0.8947
  882MOL0     H21703   9.265   2.037  10.241 -1.2335 -2.5388 -1.0749
  882MOL0     H21704   9.719   2.029  10.222  1.2904  0.0729  1.8103
  882MOL0     H21705   9.688   2.048  10.397  1.7556  0.6292 -0.7142
  882MOL0     H21706   9.677   1.812  10.219  0.4913  2.4575 -0.2329
  882MOL0     H21707   9.554   1.804  10.345  0.1825  0.4223  2.9196
  882MOL0     H21708   9.836   1.853  10.432 -1.1446  1.4730  2.8085
  882MOL0     H21709   9.694   1.838  10.520  2.5976  1.3378  0.5382
  882MOL0     H21710   9.849   1.621  10.453 -0.1213  0.1118 -0.0734
  882MOL0     H21711   9.740   1.615  10.315 -1.6207 -1.7674  0.4521
  882MOL0     H21712   9.487   1.473  10.626 -2.3081  1.9385 -1.2988
  882MOL0     H21713   9.641   2.044  10.022 -0.7144 -0.7323 -4.6783
  882MOL0     H21714   9.533   2.126   9.731  2.5590  1.3857  1.3835
  882MOL0     H21715   9.663   2.065   9.820  0.1253  0.5356  0.8757
  882MOL0     H21716   9.556   1.938   9.749 -2.9930 -1.5925  2.9268
  883MOL0     O21717   9.757  10.924   4.862  0.4972 -0.7974  0.0387
  883MOL0     C21718   9.828  10.846   4.801 -0.0504 -0.7657 -0.8346
  883MOL0     O21719   9.809  10.798   4.678  0.0344 -0.2770  0.0951
  883MOL0     C21720   9.715  10.842   4.591  0.3596  0.5236  0.1347
  883MOL0     C21721   9.686  10.980   4.575  0.7124  0.1847  0.5372
  883MOL0     C21722   9.580  11.027   4.495 -0.3338  0.3052  0.1071
  883MOL0     C21723   9.504  10.930   4.421 -0.9426 -0.4370  0.9036
  883MOL0     O21724   9.417  10.994   4.333  0.0861 -0.4345 -0.6305
  883MOL0     C21725   9.355  10.895   4.244 -0.5130 -0.7827  0.2337
  883MOL0     C21726   9.270  10.969   4.151 -0.2653  0.3622  0.1637
  883MOL0     C21727   9.132  11.014   4.190  0.0077  0.5172  1.3063
  883MOL0     C21728   9.036  10.894   4.224 -0.2325 -0.5607 -0.4151
  883MOL0     C21729   8.915  10.943   4.307  0.3053  0.1112 -0.4387
  883MOL0     C21730   8.821  11.038   4.228 -0.0134  0.5630  0.2379
  883MOL0     C21731   8.710  11.092   4.317  0.0129  0.4423 -0.0632
  883MOL0     C21732   8.602  11.148   4.225  0.1093 -0.3509  0.0536
  883MOL0     N21733   8.498  11.212   4.312  0.4801 -0.0021  0.8055
  883MOL0     C21734   8.487  11.217   4.448 -0.4898  0.3579 -0.2259
  883MOL0     C21735   8.395  11.307   4.464  0.0649 -0.4896  0.4010
  883MOL0     C21736   8.345  11.343   4.606  0.6628  0.2400  0.7628
  883MOL0     C21737   8.320  11.489   4.631  1.5323 -1.0108 -0.5191
  883MOL0     C21738   8.235  11.506   4.759  0.2166  0.1037 -0.2591
  883MOL0     C21739   8.089  11.458   4.744 -0.1394 -0.2944 -0.0447
  883MOL0     O21740   8.011  11.506   4.848 -0.4555  0.0706 -0.0560
  883MOL0     C21741   7.875  11.504   4.848  1.1631 -0.4823 -0.7557
  883MOL0     C21742   7.817  11.560   4.959  0.0832 -0.1930 -0.6712
  883MOL0     C21743   7.678  11.572   4.986  0.0513  0.1312  0.1658
  883MOL0     C21744   7.629  11.635   5.117  0.2801 -0.7234  0.6799
  883MOL0     C21745   7.589  11.534   4.873 -1.0263  0.3267 -0.5423
  883MOL0     C21746   7.444  11.550   4.869  0.7240 -0.2824  0.1512
  883MOL0     O21747   7.371  11.482   4.779  0.0744  0.2094 -0.2019
  883MOL0     C21748   7.237  11.482   4.790 -0.3801 -0.0064  0.2978
  883MOL0     C21749   7.187  11.360   4.820 -0.0339 -0.5649  0.2594
  883MOL0     C21750   7.059  11.350   4.867 -0.5408  0.5716  1.0286
  883MOL0     C21751   6.976  11.458   4.876 -0.0022  1.5916  0.0086
  883MOL0     O21752   6.838  11.429   4.899  0.0804 -0.0489 -0.5150
  883MOL0     C21753   6.736  11.484   4.812  0.1067 -1.2552 -0.1313
  883MOL0     C21754   6.644  11.578   4.881 -0.3998  0.5902  0.8262
  883MOL0     C21755   6.691  11.669   4.992 -0.3713  0.0888 -0.2107
  883MOL0     C21756   6.583  11.772   5.022 -0.0542 -0.5058 -0.1973
  883MOL0     C21757   6.630  11.871   5.121 -0.1071 -0.5502 -0.1535
  883MOL0     C21758   6.531  11.994   5.131 -0.6385  0.8920 -1.4353
  883MOL0     C21759   6.574  12.075   5.253  0.0470 -0.1154 -0.6174
  883MOL0     C21760   6.546  12.214   5.241  0.0566  0.7984 -0.4648
  883MOL0    Cl21761   6.464  12.277   5.395  0.1673 -0.1321  0.0255
  883MOL0     C21762   7.031  11.577   4.844  0.7775 -0.0454  0.3546
  883MOL0     C21763   7.161  11.599   4.799 -0.4149  0.4183  0.8838
  883MOL0     O21764   7.396  11.607   4.967 -0.0482  0.1439 -0.3602
  883MOL0     C21765   7.650  11.473   4.760  0.2422 -0.0540 -1.1623
  883MOL0     C21766   7.794  11.462   4.737 -0.1219 -0.1508 -0.6230
  883MOL0     N21767   8.332  11.341   4.347 -0.7545  0.0959 -0.2847
  883MOL0     N21768   8.393  11.283   4.248 -0.1416  0.0133 -0.1836
  883MOL0     C21769   9.525  10.797   4.455 -0.2264 -0.1533 -0.3671
  883MOL0     C21770   9.631  10.751   4.534 -0.8178  0.2587 -0.0209
  883MOL0     C21771   9.948  10.786   4.881 -0.5016  0.6321  0.1137
  883MOL0     C21772   9.999  10.671   4.828  0.7604 -0.4350 -0.1450
  883MOL0     C21773  10.107  10.609   4.882  0.2556  0.4955 -0.6547
  883MOL0     C21774  10.172  10.663   4.989  0.4088  0.5428  0.2128
  883MOL0     O21775  10.294  10.608   5.032  0.1727  0.7511  0.5616
  883MOL0     C21776  10.350  10.500   4.955 -1.0420 -1.1897 -0.2302
  883MOL0     C21777  10.502  10.496   5.005  0.3250 -0.5787  0.1296
  883MOL0     C21778  10.598  10.602   4.949 -0.4160  0.1258 -0.7688
  883MOL0     C21779  10.583  10.656   4.802  0.9243  0.5827  0.8605
  883MOL0     C21780  10.591  10.559   4.690  0.5035 -0.1455  0.0828
  883MOL0     C21781  10.610  10.493   4.591  0.0930  0.1824 -0.3669
  883MOL0     C21782  10.134  10.787   5.029  0.3686  0.2371 -0.6302
  883MOL0     C21783  10.015  10.852   4.986 -0.6757  0.0388  0.2376
  883MOL0     C21784   9.981  10.992   5.037  0.6821 -0.0334 -0.2223
  883MOL0     H21785   9.759  11.037   4.632 -0.9366  1.6124  1.3162
  883MOL0     H21786   9.568  11.135   4.486  5.2309  1.1658 -0.3451
  883MOL0     H21787   9.294  10.824   4.300  0.6965  0.7788  3.8356
  883MOL0     H21788   9.431  10.840   4.188 -1.4195 -1.9352  0.1002
  883MOL0     H21789   9.331  11.053   4.115 -0.8820  0.3614 -0.9286
  883MOL0     H21790   9.260  10.899   4.068  0.6970  1.5595 -1.0028
  883MOL0     H21791   9.128  11.081   4.277 -1.8785  4.2868 -1.4102
  883MOL0     H21792   9.099  11.056   4.095  2.2254 -0.6411 -0.0523
  883MOL0     H21793   8.989  10.855   4.134 -1.6760  0.6599 -0.2299
  883MOL0     H21794   9.088  10.807   4.264  2.0661  0.5659 -0.7734
  883MOL0     H21795   8.947  11.001   4.393  2.1832  0.8860 -1.6009
  883MOL0     H21796   8.859  10.852   4.332 -0.0169  1.2525  3.6112
  883MOL0     H21797   8.871  11.121   4.176  1.4544 -0.5206 -0.1414
  883MOL0     H21798   8.766  10.973   4.159 -1.3998  3.0526 -1.1406
  883MOL0     H21799   8.754  11.171   4.380 -1.2309  0.2517  1.0916
  883MOL0     H21800   8.672  11.017   4.387  0.9529  0.4693  0.5051
  883MOL0     H21801   8.647  11.226   4.163 -0.8325 -0.1719 -0.4310
  883MOL0     H21802   8.573  11.068   4.157 -0.0765 -1.4635  1.3932
  883MOL0     H21803   8.545  11.169   4.526 -0.7567 -1.1350 -0.9067
  883MOL0     H21804   8.409  11.298   4.682 -0.3214 -2.8951 -0.1007
  883MOL0     H21805   8.252  11.285   4.614  0.6331 -0.2094 -1.9104
  883MOL0     H21806   8.412  11.546   4.646  0.6305  0.4311 -0.2371
  883MOL0     H21807   8.265  11.525   4.544  0.3456  1.1688  1.0378
  883MOL0     H21808   8.283  11.449   4.838 -0.7875  0.4030  0.5896
  883MOL0     H21809   8.231  11.610   4.792  0.3253  0.0781 -0.1661
  883MOL0     H21810   8.048  11.493   4.648  0.3587  2.6977  0.7425
  883MOL0     H21811   8.088  11.349   4.755 -1.8053 -0.4117 -1.0073
  883MOL0     H21812   7.887  11.604   5.030 -1.6457  0.7906  0.4965
  883MOL0     H21813   7.570  11.556   5.164 -4.3581  1.1371 -1.4196
  883MOL0     H21814   7.577  11.731   5.111 -0.7091 -1.3340 -1.6390
  883MOL0     H21815   7.717  11.665   5.176  1.1565  1.4476 -1.5408
  883MOL0     H21816   7.252  11.274   4.826  0.8898  0.0346 -0.8961
  883MOL0     H21817   7.017  11.249   4.866  2.2428 -0.6773 -0.2792
  883MOL0     H21818   6.777  11.542   4.728 -2.4684 -0.2837 -0.8242
  883MOL0     H21819   6.677  11.406   4.764  1.5823 -1.7984 -1.1642
  883MOL0     H21820   6.596  11.642   4.807 -1.8099  0.6103  1.7072
  883MOL0     H21821   6.566  11.508   4.912 -1.2075  0.7948 -0.6729
  883MOL0     H21822   6.783  11.716   4.956 -1.4785  2.2125 -0.3588
  883MOL0     H21823   6.717  11.611   5.081 -0.1252  1.2147  0.4607
  883MOL0     H21824   6.487  11.722   5.042 -0.3142  0.2573  0.5463
  883MOL0     H21825   6.576  11.831   4.930  1.0234 -2.3498 -1.5264
  883MOL0     H21826   6.645  11.833   5.222 -1.7747  0.1883  0.4171
  883MOL0     H21827   6.731  11.910   5.106 -0.5692  1.1230  0.8270
  883MOL0     H21828   6.429  11.964   5.158 -1.5014  3.9646 -0.9207
  883MOL0     H21829   6.537  12.050   5.036 -1.7772 -0.5740 -2.4167
  883MOL0     H21830   6.683  12.073   5.252  0.0483 -1.2664 -2.2929
  883MOL0     H21831   6.541  12.036   5.350 -0.2315  1.1978 -0.1713
  883MOL0     H21832   6.482  12.240   5.156 -2.0014  0.0728  0.8023
  883MOL0     H21833   6.633  12.277   5.222 -1.2856  2.4786 -1.3111
  883MOL0     H21834   6.971  11.667   4.857  1.2379  0.5756 -1.5394
  883MOL0     H21835   7.207  11.692   4.767 -0.8957  0.1264 -0.7741
  883MOL0     H21836   7.586  11.462   4.673  0.6387  2.2771 -1.8387
  883MOL0     H21837   7.832  11.434   4.640 -0.7575 -0.9912 -0.6387
  883MOL0     H21838   9.442  10.735   4.423 -0.2349 -0.2231 -0.2104
  883MOL0     H21839   9.652  10.648   4.564 -3.8283  0.1469  2.0994
  883MOL0     H21840   9.954  10.618   4.744 -3.0250  1.6517  0.3258
  883MOL0     H21841  10.125  10.507   4.849  2.1654  0.9843 -1.2319
  883MOL0     H21842  10.298  10.406   4.977  1.0433 -2.2570  0.5038
  883MOL0     H21843  10.354  10.521   4.848 -0.0579  1.4483  0.2438
  883MOL0     H21844  10.542  10.399   4.974  2.1807  0.5393 -1.1446
  883MOL0     H21845  10.506  10.507   5.114 -1.7663  1.4906  0.0601
  883MOL0     H21846  10.591  10.693   5.009 -0.4474 -0.0857 -0.4475
  883MOL0     H21847  10.695  10.551   4.949 -1.3895 -1.8665  0.4796
  883MOL0     H21848  10.659  10.733   4.783 -1.5431  2.8962 -0.3602
  883MOL0     H21849  10.484  10.702   4.793  0.1893 -0.8426  1.4508
  883MOL0     H21850  10.630  10.429   4.507 -2.7749  0.9512 -1.7856
  883MOL0     H21851  10.190  10.834   5.109  1.5830 -2.3942  0.1647
  883MOL0     H21852  10.060  11.044   5.091 -1.3578  2.9669  0.1480
  883MOL0     H21853   9.958  11.045   4.944 -0.1233 -0.3841 -0.2316
  883MOL0     H21854   9.892  11.000   5.100  0.7555  1.0919 -0.2346
  884MOL0     O21855   9.741   2.963   7.613  0.7157 -0.2998 -0.9697
  884MOL0     C21856   9.636   3.022   7.647 -0.9372  1.0823  0.3390
  884MOL0     O21857   9.620   3.108   7.749 -0.1940 -0.1774 -0.0951
  884MOL0     C21858   9.725   3.127   7.835  0.3314  0.3333 -0.5945
  884MOL0     C21859   9.835   3.194   7.792 -0.8031 -0.2714 -0.1971
  884MOL0     C21860   9.947   3.189   7.877 -0.4408  1.1072 -0.3473
  884MOL0     C21861   9.951   3.125   8.003 -0.0283 -0.9189  0.2918
  884MOL0     O21862  10.076   3.127   8.061 -0.5449 -0.3491 -0.0284
  884MOL0     C21863  10.087   3.050   8.184 -0.2839 -0.7073  0.3807
  884MOL0     C21864  10.229   3.016   8.229  0.0537  0.5966 -0.0468
  884MOL0     C21865  10.338   2.966   8.126 -0.2109  0.1854 -1.1680
  884MOL0     C21866  10.295   2.859   8.029  0.3716  0.4796  0.5801
  884MOL0     C21867  10.406   2.849   7.919 -0.1093  0.5286 -0.1736
  884MOL0     C21868  10.340   2.785   7.796  0.7829  0.2134 -0.7290
  884MOL0     C21869  10.436   2.724   7.683  1.0482 -0.2141  0.5314
  884MOL0     C21870  10.494   2.582   7.706  0.5119  0.1033  0.1213
  884MOL0     N21871  10.390   2.487   7.727  0.4140  0.0065  0.0009
  884MOL0     C21872  10.291   2.465   7.638 -0.1637  0.0634  0.8363
  884MOL0     C21873  10.218   2.364   7.697 -0.1394  0.6517  0.0539
  884MOL0     C21874  10.077   2.312   7.659 -1.5458  0.0160 -0.1584
  884MOL0     C21875  10.012   2.218   7.749 -0.0154 -0.9320  0.4964
  884MOL0     C21876   9.866   2.175   7.705 -1.0419 -0.1944 -0.7605
  884MOL0     C21877   9.852   2.108   7.569  0.3596 -0.0243 -0.3258
  884MOL0     O21878   9.727   2.031   7.569  0.0363 -0.2305  0.4004
  884MOL0     C21879   9.711   1.923   7.647  0.3670 -0.3237  0.3472
  884MOL0     C21880   9.788   1.813   7.623  1.0208  0.1480 -0.0708
  884MOL0     C21881   9.750   1.690   7.677  0.2418  0.2958  0.2017
  884MOL0     C21882   9.825   1.568   7.627  0.3385  0.0526  0.2755
  884MOL0     C21883   9.631   1.682   7.755  0.6312  0.5125  0.1267
  884MOL0     C21884   9.576   1.556   7.815 -0.1016  0.4313 -0.4445
  884MOL0     O21885   9.438   1.559   7.854 -0.3747  0.4606  0.9217
  884MOL0     C21886   9.377   1.443   7.912 -1.1029 -0.6234  0.6752
  884MOL0     C21887   9.424   1.302   7.905  0.7204  0.4838 -0.1047
  884MOL0     C21888   9.355   1.195   7.967 -0.1931  0.2192  0.2202
  884MOL0     C21889   9.230   1.227   8.025  0.6964 -0.4400  0.3313
  884MOL0     O21890   9.155   1.123   8.083  0.3621  0.2755  0.2972
  884MOL0     C21891   9.089   1.037   7.990  0.3833  0.3750 -0.5073
  884MOL0     C21892   9.039   1.107   7.863 -0.2958  0.4686 -0.0535
  884MOL0     C21893   8.910   1.176   7.888  0.0168 -0.3554  0.0930
  884MOL0     C21894   8.873   1.240   7.753 -0.1946  0.7549  0.1549
  884MOL0     C21895   8.743   1.312   7.762 -0.0320 -0.0013  0.1321
  884MOL0     C21896   8.620   1.216   7.739 -0.6351  0.4383  0.9149
  884MOL0     C21897   8.569   1.200   7.590 -0.1596  0.4139  0.2630
  884MOL0     C21898   8.489   1.072   7.594  0.1360 -0.1813 -0.9375
  884MOL0    Cl21899   8.432   1.032   7.434 -0.0534  0.3499  0.1934
  884MOL0     C21900   9.178   1.355   8.023 -0.3070  0.3423  0.2737
  884MOL0     C21901   9.254   1.464   7.977 -0.0864 -0.3549 -0.9301
  884MOL0     O21902   9.655   1.462   7.834 -0.2517 -0.3471  0.5811
  884MOL0     C21903   9.553   1.792   7.776  0.5453 -0.0910 -0.4177
  884MOL0     C21904   9.601   1.914   7.726  0.2748 -0.4072  0.7758
  884MOL0     N21905  10.273   2.328   7.818  0.9505 -0.8017  0.4117
  884MOL0     N21906  10.375   2.402   7.835  0.0481  0.3897 -0.1062
  884MOL0     C21907   9.833   3.062   8.044  0.2648 -0.8007 -0.4059
  884MOL0     C21908   9.723   3.061   7.965  0.2172  0.0313  0.5568
  884MOL0     C21909   9.505   2.986   7.574 -0.3752 -0.0818 -0.4333
  884MOL0     C21910   9.385   3.020   7.644 -0.4297  0.1820  0.4995
  884MOL0     C21911   9.261   3.000   7.580 -0.2530 -0.1681 -0.0460
  884MOL0     C21912   9.237   2.966   7.444 -0.4792 -0.3384  0.1806
  884MOL0     O21913   9.110   2.963   7.392 -0.5863 -0.2663  0.0455
  884MOL0     C21914   9.039   3.089   7.414 -0.0070 -0.3498  0.3934
  884MOL0     C21915   8.896   3.081   7.387  1.0078 -0.3299 -0.5830
  884MOL0     C21916   8.803   3.026   7.492 -0.6705 -0.1089  0.5338
  884MOL0     C21917   8.766   2.880   7.488 -0.3348  0.7566  0.0431
  884MOL0     C21918   8.634   2.851   7.551  0.2713 -0.7584 -0.8955
  884MOL0     C21919   8.526   2.832   7.590  0.3677 -0.9146 -0.3538
  884MOL0     C21920   9.356   2.925   7.379  0.5108  0.1564 -0.2179
  884MOL0     C21921   9.492   2.931   7.439  0.8568 -0.3448  0.5383
  884MOL0     C21922   9.616   2.881   7.365  0.0002 -0.7264 -0.2308
  884MOL0     H21923   9.833   3.259   7.705 -1.1236 -0.5412 -0.3947
  884MOL0     H21924  10.037   3.243   7.850 -0.2071  1.4276  0.9749
  884MOL0     H21925  10.040   2.951   8.182  1.5203 -1.5979  0.3546
  884MOL0     H21926  10.044   3.107   8.267 -0.6356 -2.4077  1.4305
  884MOL0     H21927  10.260   3.103   8.288 -1.6219  0.2543  1.4405
  884MOL0     H21928  10.231   2.930   8.297 -1.6555 -0.4767 -1.2713
  884MOL0     H21929  10.376   3.050   8.066 -0.2594  0.2116 -1.1614
  884MOL0     H21930  10.425   2.927   8.179 -1.3800 -0.3196  0.4538
  884MOL0     H21931  10.301   2.755   8.062 -0.5002 -0.0662 -0.8713
  884MOL0     H21932  10.199   2.881   7.982  0.7407 -1.2289 -1.0883
  884MOL0     H21933  10.494   2.796   7.955  0.1812 -0.9586 -2.8431
  884MOL0     H21934  10.445   2.949   7.895  0.1859 -0.0967 -2.5954
  884MOL0     H21935  10.282   2.700   7.832  1.5314  0.4318  1.0954
  884MOL0     H21936  10.275   2.860   7.750 -2.7934 -1.4454  1.2212
  884MOL0     H21937  10.516   2.795   7.658  1.1068  0.0347  1.3830
  884MOL0     H21938  10.372   2.719   7.595  0.4410  3.3592  0.6293
  884MOL0     H21939  10.559   2.535   7.631  1.6470  1.3404  0.2994
  884MOL0     H21940  10.555   2.593   7.796 -1.9564  0.2796  1.8716
  884MOL0     H21941  10.272   2.513   7.542 -2.3053 -0.6229  0.8605
  884MOL0     H21942  10.095   2.262   7.564 -0.2039  4.1277 -2.2702
  884MOL0     H21943  10.002   2.391   7.645 -3.1426 -1.6141 -1.1811
  884MOL0     H21944  10.074   2.128   7.754  1.6823  0.1740 -0.1715
  884MOL0     H21945  10.000   2.252   7.852  0.4689  1.4419 -0.1705
  884MOL0     H21946   9.831   2.109   7.785 -1.1657  0.6442 -0.1052
  884MOL0     H21947   9.795   2.258   7.705 -0.5860  0.2371 -2.4173
  884MOL0     H21948   9.849   2.184   7.491  2.2330  1.6496  1.1089
  884MOL0     H21949   9.936   2.041   7.547  0.9860  0.5434  0.2551
  884MOL0     H21950   9.868   1.811   7.549 -0.9200 -1.8252 -2.2538
  884MOL0     H21951   9.762   1.479   7.628  1.5339 -0.8635 -1.2189
  884MOL0     H21952   9.910   1.557   7.695 -0.3393  1.9907  1.5204
  884MOL0     H21953   9.867   1.579   7.526 -1.9812 -0.5114 -0.8164
  884MOL0     H21954   9.518   1.282   7.855  0.8320  1.5497 -0.3490
  884MOL0     H21955   9.401   1.098   7.982 -1.1371 -0.0838  1.2213
  884MOL0     H21956   9.154   0.951   7.972  0.7211  0.3263  0.7989
  884MOL0     H21957   9.009   0.982   8.039  1.0588 -0.7901 -0.6815
  884MOL0     H21958   9.102   1.177   7.808 -2.5180  0.2657 -3.1067
  884MOL0     H21959   9.008   1.029   7.793  0.5446  0.6592 -0.6464
  884MOL0     H21960   8.916   1.251   7.967 -0.0506  0.1766 -0.4031
  884MOL0     H21961   8.843   1.097   7.922 -0.6999  0.6244  0.9919
  884MOL0     H21962   8.867   1.167   7.672  1.7517  1.4680 -0.6977
  884MOL0     H21963   8.956   1.310   7.738  1.8709 -1.2865  1.3530
  884MOL0     H21964   8.722   1.353   7.861 -2.9735  1.0351 -0.8213
  884MOL0     H21965   8.743   1.388   7.682  0.7280 -1.4581 -1.3167
  884MOL0     H21966   8.533   1.248   7.798 -0.5607  0.0005  1.2646
  884MOL0     H21967   8.649   1.119   7.780  1.4823  0.3341 -0.6415
  884MOL0     H21968   8.659   1.179   7.530 -0.9534 -2.2773 -0.1041
  884MOL0     H21969   8.508   1.282   7.550  0.4955  0.6851 -0.2067
  884MOL0     H21970   8.399   1.100   7.650  1.3637 -0.3263  1.2203
  884MOL0     H21971   8.535   0.991   7.652  0.2618  1.7376  1.8097
  884MOL0     H21972   9.085   1.372   8.076 -0.6985  0.2822 -0.3798
  884MOL0     H21973   9.202   1.559   7.972 -1.9031 -1.2098  0.6525
  884MOL0     H21974   9.480   1.802   7.856 -1.2164 -0.6231 -1.8980
  884MOL0     H21975   9.543   2.003   7.748  0.4752  0.0320 -0.4159
  884MOL0     H21976   9.835   3.024   8.145  1.0948  2.3785  0.8921
  884MOL0     H21977   9.623   3.026   7.991  0.3860 -0.4605  0.5458
  884MOL0     H21978   9.387   3.066   7.742  1.4442  1.7820 -0.2279
  884MOL0     H21979   9.178   3.034   7.641 -0.8471  4.2292 -2.8735
  884MOL0     H21980   9.061   3.118   7.517  4.8273  3.0515 -1.2448
  884MOL0     H21981   9.078   3.154   7.335  1.8579 -2.7498 -0.7940
  884MOL0     H21982   8.866   3.031   7.294 -0.4384 -0.8403  0.1346
  884MOL0     H21983   8.858   3.184   7.383 -4.1716 -1.9382 -0.2280
  884MOL0     H21984   8.842   3.058   7.590  2.9509 -0.6149 -0.5993
  884MOL0     H21985   8.711   3.086   7.487  0.3429  1.4012 -1.4852
  884MOL0     H21986   8.844   2.828   7.545  0.4645 -0.1302 -1.7772
  884MOL0     H21987   8.762   2.832   7.390  1.6821  2.4078 -0.9082
  884MOL0     H21988   8.427   2.831   7.630  0.6927  0.8605  0.5809
  884MOL0     H21989   9.358   2.890   7.276  4.1025 -1.7846  0.3624
  884MOL0     H21990   9.680   2.963   7.331  2.0531 -2.4191 -0.7027
  884MOL0     H21991   9.678   2.814   7.426  0.3199 -0.9729 -0.8165
  884MOL0     H21992   9.579   2.833   7.274 -3.9782  1.4417  0.0484
  885MOL0     O21993   5.296  10.343   5.150 -0.0460 -0.6645  0.2778
  885MOL0     C21994   5.193  10.412   5.174 -0.4332 -0.0435  0.4094
  885MOL0     O21995   5.106  10.386   5.274 -0.6458 -0.7053 -0.4550
  885MOL0     C21996   5.152  10.294   5.354 -0.6294  0.3283 -0.3535
  885MOL0     C21997   5.244  10.330   5.456 -0.6184  0.6453 -0.3165
  885MOL0     C21998   5.275  10.225   5.546  0.0318 -0.3377 -0.4283
  885MOL0     C21999   5.227  10.091   5.532  0.1819  0.2371  0.7225
  885MOL0     O22000   5.252   9.996   5.624  0.1911  0.5172 -0.0832
  885MOL0     C22001   5.327  10.021   5.745  0.5079 -0.0091  0.1957
  885MOL0     C22002   5.236  10.064   5.854  0.4889 -0.0333 -0.3251
  885MOL0     C22003   5.152   9.939   5.907 -0.3357 -0.6640 -0.0010
  885MOL0     C22004   5.041   9.974   6.010 -0.3856  0.0703 -0.4820
  885MOL0     C22005   5.101  10.025   6.145 -0.2334  0.2020  0.7397
  885MOL0     C22006   5.174   9.928   6.230 -0.2748 -0.5352  0.4599
  885MOL0     C22007   5.073   9.826   6.295 -0.0030 -0.0789 -0.6690
  885MOL0     C22008   5.100   9.680   6.296 -0.6820 -0.0888 -0.8923
  885MOL0     N22009   5.088   9.633   6.155  0.0544  0.2250 -1.2232
  885MOL0     C22010   5.183   9.624   6.053  0.6102  0.4644 -0.3469
  885MOL0     C22011   5.103   9.578   5.951 -0.4618  0.4308  0.1096
  885MOL0     C22012   5.132   9.526   5.816 -0.3384  0.4469  0.4042
  885MOL0     C22013   5.115   9.622   5.707  1.4058  0.1930 -0.1981
  885MOL0     C22014   5.086   9.541   5.580  0.8005 -0.4790 -0.6123
  885MOL0     C22015   5.051   9.633   5.457 -0.7441  0.3050 -0.4747
  885MOL0     O22016   4.916   9.688   5.481 -0.1882 -0.7312 -0.2161
  885MOL0     C22017   4.876   9.784   5.401 -0.6256  0.3018  0.7569
  885MOL0     C22018   4.810   9.887   5.451  0.2823 -0.4717  0.2088
  885MOL0     C22019   4.768   9.998   5.378  0.1096 -0.2520 -0.1975
  885MOL0     C22020   4.673  10.098   5.451 -0.2608 -0.0403 -0.6545
  885MOL0     C22021   4.798  10.014   5.241 -0.5488 -0.4346  0.5233
  885MOL0     C22022   4.767  10.135   5.153 -0.5431  0.6277  0.9360
  885MOL0     O22023   4.719  10.245   5.208  0.2643  0.1577  0.9455
  885MOL0     C22024   4.630  10.328   5.140 -0.0775  0.0123  1.1691
  885MOL0     C22025   4.665  10.405   5.023 -0.9129 -0.4186 -0.4561
  885MOL0     C22026   4.600  10.512   4.973  0.2149  0.1894 -0.1033
  885MOL0     C22027   4.470  10.536   5.033 -0.0861  0.7671 -0.5667
  885MOL0     O22028   4.373  10.622   4.986 -0.6600  0.4027  0.4483
  885MOL0     C22029   4.393  10.762   5.018  0.6709 -0.2146 -0.1394
  885MOL0     C22030   4.322  10.793   5.150 -0.5549  0.3214 -0.2331
  885MOL0     C22031   4.167  10.793   5.155 -0.2164 -0.1333 -0.6001
  885MOL0     C22032   4.118  10.894   5.263  0.3989 -0.7609  0.6136
  885MOL0     C22033   3.976  10.869   5.312  0.9646 -0.0600  0.1288
  885MOL0     C22034   3.950  10.724   5.366  0.5319  0.2199 -0.5043
  885MOL0     C22035   3.810  10.720   5.430  0.4339  0.3801 -0.1739
  885MOL0     C22036   3.771  10.585   5.493  0.4794  0.4365  0.6116
  885MOL0    Cl22037   3.769  10.454   5.374  0.3999 -0.5621  0.2204
  885MOL0     C22038   4.444  10.459   5.148  0.5776  0.0142  0.0055
  885MOL0     C22039   4.517  10.360   5.210 -0.1062  0.8750 -2.0182
  885MOL0     O22040   4.802  10.121   5.033  0.9004 -0.6493 -0.5310
  885MOL0     C22041   4.858   9.895   5.180 -0.4055 -0.7250 -0.3768
  885MOL0     C22042   4.899   9.784   5.263 -0.4475 -1.3115  0.1689
  885MOL0     N22043   4.975   9.555   6.001  0.0575  0.3693  0.7047
  885MOL0     N22044   4.974   9.582   6.124  0.8643 -0.1990  0.1984
  885MOL0     C22045   5.131  10.067   5.433 -1.1991 -0.1640  0.4187
  885MOL0     C22046   5.105  10.164   5.340 -0.8220  0.2304 -0.3797
  885MOL0     C22047   5.158  10.535   5.101 -0.9215 -0.4485  1.1816
  885MOL0     C22048   5.030  10.599   5.107 -0.4587  0.2588 -0.4079
  885MOL0     C22049   4.986  10.706   5.028 -0.1429 -0.2580  0.4553
  885MOL0     C22050   5.075  10.762   4.936 -0.1807 -0.6982  0.9824
  885MOL0     O22051   5.052  10.867   4.855  0.1086  0.2238  0.0899
  885MOL0     C22052   4.949  10.969   4.901  0.3756  0.1041 -0.1122
  885MOL0     C22053   4.990  11.029   5.037  0.1044  0.2177  0.8890
  885MOL0     C22054   5.085  11.153   4.996  0.5512 -0.3119 -0.1325
  885MOL0     C22055   5.157  11.203   5.114  0.1875 -0.1380 -0.6273
  885MOL0     C22056   5.282  11.273   5.081 -0.1770 -0.4742  0.1678
  885MOL0     C22057   5.375  11.323   5.035 -0.3385  0.6022  0.7276
  885MOL0     C22058   5.197  10.701   4.920  0.4352  0.0591  0.1421
  885MOL0     C22059   5.243  10.594   5.000 -0.3411  0.7333  0.3399
  885MOL0     C22060   5.381  10.533   4.972  0.5527  0.3001  0.1611
  885MOL0     H22061   5.277  10.431   5.476 -1.1001  1.0077 -1.2899
  885MOL0     H22062   5.339  10.262   5.626  2.8414 -1.3410 -2.0549
  885MOL0     H22063   5.399  10.102   5.727 -0.0046  0.5398  0.5649
  885MOL0     H22064   5.387   9.932   5.761  3.6564  1.5059 -2.0898
  885MOL0     H22065   5.291  10.103   5.940 -0.9050  0.8442  0.2014
  885MOL0     H22066   5.163  10.133   5.811 -0.7430 -1.2598 -0.2842
  885MOL0     H22067   5.099   9.898   5.821  0.5389 -4.5622  1.1131
  885MOL0     H22068   5.220   9.861   5.943 -1.2387 -1.9614 -0.9844
  885MOL0     H22069   4.968  10.044   5.970  0.7371  0.0550 -2.7253
  885MOL0     H22070   4.986   9.884   6.040 -0.5370 -0.3423 -1.9148
  885MOL0     H22071   5.009  10.068   6.187 -1.0436  0.2557 -1.0032
  885MOL0     H22072   5.176  10.103   6.131  1.0770 -1.5462 -3.5303
  885MOL0     H22073   5.257   9.882   6.176  1.0315  1.0632  1.0347
  885MOL0     H22074   5.222   9.981   6.313 -1.0724  4.1871 -1.7795
  885MOL0     H22075   4.979   9.841   6.240 -0.1338 -0.6635 -0.6135
  885MOL0     H22076   5.057   9.844   6.401  1.4127 -0.2863 -0.4054
  885MOL0     H22077   5.201   9.670   6.337 -0.5992  2.0377 -0.4840
  885MOL0     H22078   5.022   9.637   6.360 -0.1671  1.4257  0.8452
  885MOL0     H22079   5.287   9.656   6.055  0.7442  0.0059  0.5874
  885MOL0     H22080   5.082   9.430   5.800 -0.7381  0.6659  0.3363
  885MOL0     H22081   5.241   9.514   5.821 -0.6499 -3.6049  1.0792
  885MOL0     H22082   5.038   9.697   5.730  1.4186 -0.1266  0.9751
  885MOL0     H22083   5.209   9.676   5.691  0.2542  2.9852  1.7546
  885MOL0     H22084   5.172   9.482   5.548 -0.2446 -2.0342 -0.6311
  885MOL0     H22085   4.996   9.479   5.585 -1.0615  1.6575 -3.7791
  885MOL0     H22086   5.133   9.703   5.441  1.7290 -2.3079 -0.0188
  885MOL0     H22087   5.050   9.571   5.367 -0.3091  0.4575 -0.5862
  885MOL0     H22088   4.796   9.887   5.559  4.0669 -1.1702  0.8308
  885MOL0     H22089   4.576  10.094   5.401 -0.0514  0.2213 -1.0922
  885MOL0     H22090   4.707  10.202   5.452  1.3967 -0.5410  0.2838
  885MOL0     H22091   4.654  10.062   5.553  0.8883 -1.0077 -0.7523
  885MOL0     H22092   4.764  10.383   4.985 -0.8688  1.7034 -1.7138
  885MOL0     H22093   4.640  10.576   4.894  2.9383 -2.3035 -0.9252
  885MOL0     H22094   4.497  10.795   5.022  0.9320 -0.4330 -2.8864
  885MOL0     H22095   4.370  10.817   4.926  3.2823 -2.9624 -2.6549
  885MOL0     H22096   4.355  10.724   5.229  0.0208  1.2905  0.4023
  885MOL0     H22097   4.344  10.896   5.180 -4.1143  1.7540 -2.0323
  885MOL0     H22098   4.131  10.690   5.157  0.5355 -0.4773 -2.5722
  885MOL0     H22099   4.141  10.832   5.056  3.9163  0.3300 -1.6876
  885MOL0     H22100   4.128  10.997   5.227 -0.1332 -0.8824  0.0914
  885MOL0     H22101   4.175  10.883   5.356  2.8139 -1.1924 -0.8425
  885MOL0     H22102   3.938  10.941   5.385 -2.5968 -1.4881 -0.0819
  885MOL0     H22103   3.913  10.879   5.223  5.2112 -0.1785 -3.1892
  885MOL0     H22104   4.028  10.699   5.439  2.6957  0.1490 -2.7104
  885MOL0     H22105   3.954  10.657   5.280 -2.1500  0.2639 -0.7550
  885MOL0     H22106   3.725  10.750   5.367 -0.4035 -0.6110  0.4560
  885MOL0     H22107   3.814  10.793   5.511  1.1548 -0.8164  0.9144
  885MOL0     H22108   3.668  10.589   5.530  0.2488 -1.9031  0.4319
  885MOL0     H22109   3.827  10.555   5.582 -0.0956 -0.1773  0.7766
  885MOL0     H22110   4.346  10.472   5.194  0.9672 -0.8424  1.1028
  885MOL0     H22111   4.472  10.302   5.290 -2.1342  0.1544 -3.5965
  885MOL0     H22112   4.882   9.895   5.074  2.2456  0.2520  0.1449
  885MOL0     H22113   4.945   9.696   5.218 -2.0904 -1.3840 -1.4832
  885MOL0     H22114   5.096   9.964   5.426  1.4896 -1.1292  0.1449
  885MOL0     H22115   5.040  10.152   5.254  0.2365  0.0289 -1.1741
  885MOL0     H22116   4.970  10.568   5.192  1.3738 -2.1582  0.1014
  885MOL0     H22117   4.892  10.758   5.042  0.1760  0.4817 -0.1269
  885MOL0     H22118   4.932  11.046   4.825  3.1055  1.2351  0.2852
  885MOL0     H22119   4.855  10.916   4.915 -0.0583  0.2318 -2.1622
  885MOL0     H22120   5.048  10.958   5.098 -0.9688 -0.1972  1.4631
  885MOL0     H22121   4.897  11.064   5.083  0.3422  1.5229  0.4086
  885MOL0     H22122   5.155  11.127   4.916 -0.1846 -0.3195 -0.7868
  885MOL0     H22123   5.020  11.236   4.967  1.3878  0.8719  1.2021
  885MOL0     H22124   5.178  11.132   5.195 -0.3416 -0.1754 -0.5208
  885MOL0     H22125   5.097  11.274   5.170 -1.1012 -0.0319 -2.0802
  885MOL0     H22126   5.468  11.363   4.999  0.5355 -0.9538  1.1687
  885MOL0     H22127   5.258  10.745   4.842  0.4244  1.0636  0.6824
  885MOL0     H22128   5.444  10.545   5.061 -1.2129 -0.9417  1.6518
  885MOL0     H22129   5.361  10.427   4.956  0.3541  0.1293  1.4319
  885MOL0     H22130   5.418  10.573   4.877 -2.1023  2.1246 -0.1980
  886MOL0     O22131   6.556   9.447   9.024  0.4847 -0.4938  0.0592
  886MOL0     C22132   6.464   9.364   9.012 -0.6796  0.1430 -0.0621
  886MOL0     O22133   6.398   9.329   8.894  0.6216  0.5095 -0.1570
  886MOL0     C22134   6.439   9.394   8.778  0.0426  0.5967 -0.4733
  886MOL0     C22135   6.360   9.492   8.713 -0.0630 -0.1090  0.0585
  886MOL0     C22136   6.418   9.565   8.604  0.1350 -0.3130 -0.1879
  886MOL0     C22137   6.560   9.546   8.574  0.4817  0.1404 -0.4808
  886MOL0     O22138   6.628   9.619   8.480 -0.1848  0.9147  0.0155
  886MOL0     C22139   6.594   9.757   8.454  0.5745 -0.1092  0.3277
  886MOL0     C22140   6.718   9.830   8.509  0.5251  0.0536 -0.0592
  886MOL0     C22141   6.695   9.982   8.513 -1.0034  0.2994 -0.1429
  886MOL0     C22142   6.728  10.052   8.381  0.4383 -0.0647 -0.4820
  886MOL0     C22143   6.651  10.177   8.390 -0.6000 -0.2010  0.9234
  886MOL0     C22144   6.705  10.269   8.276 -0.1323  0.1591 -0.4446
  886MOL0     C22145   6.627  10.398   8.299  0.0228  0.2519 -0.1533
  886MOL0     C22146   6.684  10.496   8.202 -0.1037 -0.3991 -0.3154
  886MOL0     N22147   6.584  10.540   8.101  0.5005  0.9760  1.0419
  886MOL0     C22148   6.544  10.473   7.992 -0.0984  1.0124  0.0855
  886MOL0     C22149   6.471  10.562   7.915  1.4087  0.1226 -0.3132
  886MOL0     C22150   6.420  10.534   7.778 -0.2032 -0.5143  0.9938
  886MOL0     C22151   6.286  10.592   7.739  0.0553 -0.4141  0.2534
  886MOL0     C22152   6.171  10.495   7.747  0.2439  0.0181 -0.0609
  886MOL0     C22153   6.156  10.409   7.876  0.3516  0.3401  0.0343
  886MOL0     O22154   6.230  10.286   7.871  0.8659 -0.5301  0.1803
  886MOL0     C22155   6.210  10.204   7.979  0.9792  0.3571  0.4207
  886MOL0     C22156   6.281  10.084   7.979  0.3536 -0.1405 -0.3617
  886MOL0     C22157   6.286   9.995   8.084  1.8342 -0.5902 -0.4344
  886MOL0     C22158   6.391   9.882   8.091 -0.6139 -0.3565 -0.1518
  886MOL0     C22159   6.199  10.019   8.199 -0.6321 -0.7429  0.2892
  886MOL0     C22160   6.193   9.939   8.327  1.0752  0.8021  0.6750
  886MOL0     O22161   6.149  10.007   8.435  0.2108  0.2297 -0.3918
  886MOL0     C22162   6.136   9.927   8.548 -0.4109 -1.2846  0.0172
  886MOL0     C22163   6.027   9.837   8.566  0.4756 -0.2096  0.3623
  886MOL0     C22164   6.026   9.760   8.684 -0.1492  0.9185 -0.2013
  886MOL0     C22165   6.135   9.767   8.770  0.5382  0.5984  0.5712
  886MOL0     O22166   6.131   9.682   8.878 -0.2982  0.8203  0.0996
  886MOL0     C22167   6.234   9.692   8.976 -0.8300 -0.5056 -1.3605
  886MOL0     C22168   6.202   9.585   9.085 -0.1233  0.4158  0.3501
  886MOL0     C22169   6.264   9.617   9.230  0.4132  0.0226  0.4641
  886MOL0     C22170   6.163   9.692   9.310  0.1815 -0.3943  0.1945
  886MOL0     C22171   6.215   9.727   9.457  0.2033  0.3124  0.2567
  886MOL0     C22172   6.238   9.594   9.537  1.0152 -0.3082 -0.1859
  886MOL0     C22173   6.276   9.618   9.680 -0.7012 -0.3320 -1.0736
  886MOL0     C22174   6.356   9.497   9.729 -0.2549 -0.0020  0.0282
  886MOL0    Cl22175   6.262   9.356   9.765  0.3120  0.3805  0.2708
  886MOL0     C22176   6.245   9.851   8.741  0.1687 -0.1465 -0.2476
  886MOL0     C22177   6.248   9.924   8.629  0.1095  0.3094 -0.2416
  886MOL0     O22178   6.220   9.817   8.321 -1.6333  0.4163 -0.3054
  886MOL0     C22179   6.113  10.134   8.196  0.2377  0.4873  0.0540
  886MOL0     C22180   6.120  10.228   8.094 -0.1839 -0.7026 -0.1338
  886MOL0     N22181   6.464  10.683   7.991  0.2592 -0.4240 -0.0725
  886MOL0     N22182   6.522  10.661   8.103 -0.4553  0.6251 -0.1236
  886MOL0     C22183   6.630   9.445   8.638  0.0065  0.6421  0.2550
  886MOL0     C22184   6.571   9.363   8.739 -0.6106 -0.3102  0.7837
  886MOL0     C22185   6.425   9.284   9.134 -0.2659  0.2361 -1.3902
  886MOL0     C22186   6.310   9.197   9.126  0.9081  0.0539 -0.6163
  886MOL0     C22187   6.270   9.123   9.237  0.3920  0.6044 -0.4850
  886MOL0     C22188   6.347   9.098   9.353  0.3943 -0.9952  0.1610
  886MOL0     O22189   6.322   9.018   9.470 -0.5486  0.1308  0.1234
  886MOL0     C22190   6.207   8.932   9.460 -0.4124 -0.4699 -0.8366
  886MOL0     C22191   6.195   8.824   9.574  0.0770  0.0755 -0.4023
  886MOL0     C22192   6.126   8.887   9.694  0.7119  0.1250 -0.1527
  886MOL0     C22193   6.091   8.787   9.805 -0.6872 -0.3222 -0.6284
  886MOL0     C22194   6.201   8.729   9.881  0.2815 -0.0718 -0.0091
  886MOL0     C22195   6.308   8.716   9.938  0.3152  0.5125 -0.7766
  886MOL0     C22196   6.461   9.175   9.361  0.4139  0.0267  0.3611
  886MOL0     C22197   6.500   9.273   9.259  0.5762 -0.0093 -0.2826
  886MOL0     C22198   6.624   9.339   9.286 -0.1446 -0.4238 -0.0806
  886MOL0     H22199   6.261   9.506   8.754 -0.2822 -2.0334  0.2806
  886MOL0     H22200   6.361   9.649   8.565 -0.0504 -0.9812 -1.4306
  886MOL0     H22201   6.511   9.797   8.513  0.4727 -0.2354  0.2693
  886MOL0     H22202   6.583   9.778   8.347  0.1107  0.2288  0.4359
  886MOL0     H22203   6.742   9.804   8.612  0.0916  1.7597  0.4981
  886MOL0     H22204   6.802   9.802   8.445  1.4803 -0.9264  1.5691
  886MOL0     H22205   6.595  10.006   8.549  0.4289  2.8156  2.5383
  886MOL0     H22206   6.760  10.022   8.591 -0.0779  0.2956 -0.8968
  886MOL0     H22207   6.837  10.065   8.379  0.3130  1.1974  0.3677
  886MOL0     H22208   6.698   9.996   8.292 -0.0046 -1.3943  0.4584
  886MOL0     H22209   6.676  10.216   8.489  0.0603  0.7101  0.4098
  886MOL0     H22210   6.543  10.165   8.377 -0.5099 -0.4430  0.3650
  886MOL0     H22211   6.813  10.282   8.268  0.4173 -1.8077  2.4329
  886MOL0     H22212   6.676  10.225   8.180  0.1276 -1.5250  0.2231
  886MOL0     H22213   6.632  10.425   8.405  0.8637 -1.3292  0.2505
  886MOL0     H22214   6.525  10.378   8.266 -0.5938 -0.6731  2.1182
  886MOL0     H22215   6.727  10.585   8.250 -1.1405 -0.3003  0.4630
  886MOL0     H22216   6.758  10.452   8.134  0.4178  2.1464 -1.5200
  886MOL0     H22217   6.569  10.373   7.957  0.8188  1.1177  0.4133
  886MOL0     H22218   6.426  10.426   7.765 -1.9097 -0.3409 -2.2030
  886MOL0     H22219   6.498  10.575   7.712  0.1252  0.8916  2.1844
  886MOL0     H22220   6.272  10.695   7.773  1.8672  0.2534 -0.8492
  886MOL0     H22221   6.282  10.601   7.630  1.9004  2.3882  0.2957
  886MOL0     H22222   6.073  10.545   7.748  0.3437  0.5134  4.1621
  886MOL0     H22223   6.170  10.429   7.660  0.3898 -0.9113  0.6285
  886MOL0     H22224   6.180  10.468   7.965 -0.8369  1.7915 -0.5730
  886MOL0     H22225   6.050  10.383   7.884  0.2655  1.2611  3.0680
  886MOL0     H22226   6.350  10.066   7.897  2.7717 -0.8581  1.6760
  886MOL0     H22227   6.461   9.898   8.173  1.9546  2.6890 -2.6590
  886MOL0     H22228   6.453   9.895   8.001 -2.1104  1.4144 -0.9980
  886MOL0     H22229   6.344   9.784   8.101 -1.2338  0.0725  1.4388
  886MOL0     H22230   5.955   9.840   8.485 -1.0096  1.3863  1.6613
  886MOL0     H22231   5.946   9.687   8.687 -0.2975  0.8918 -2.6923
  886MOL0     H22232   6.336   9.671   8.941  0.2281  1.4073  0.3948
  886MOL0     H22233   6.241   9.793   9.016  1.9456 -1.3047  0.4201
  886MOL0     H22234   6.096   9.576   9.109  0.5885 -1.8641  3.1934
  886MOL0     H22235   6.234   9.488   9.044 -0.0734 -0.4623  2.3544
  886MOL0     H22236   6.353   9.680   9.231  1.8513 -1.9081  2.1308
  886MOL0     H22237   6.281   9.519   9.276 -0.0938 -0.5300 -0.4734
  886MOL0     H22238   6.071   9.633   9.323 -1.1353  1.6200  0.5740
  886MOL0     H22239   6.137   9.784   9.257 -1.1807 -0.0075  1.4622
  886MOL0     H22240   6.315   9.770   9.447  1.3760 -1.8532  1.8183
  886MOL0     H22241   6.144   9.791   9.510  2.0785  0.2704  3.0243
  886MOL0     H22242   6.326   9.540   9.501  3.6707  0.8115  3.8899
  886MOL0     H22243   6.147   9.533   9.538  2.5372 -2.7996 -1.9454
  886MOL0     H22244   6.187   9.634   9.742 -0.4413  0.4025 -0.8726
  886MOL0     H22245   6.341   9.705   9.693  0.8798 -1.7619  1.6278
  886MOL0     H22246   6.402   9.537   9.820 -0.5820  2.4255 -0.7881
  886MOL0     H22247   6.445   9.490   9.665 -0.2190  1.1662 -0.0715
  886MOL0     H22248   6.320   9.872   8.817  0.3088  0.6460 -0.5909
  886MOL0     H22249   6.346   9.967   8.609  0.3996  0.1456  0.7481
  886MOL0     H22250   6.054  10.159   8.284 -3.6712 -1.4658 -1.7649
  886MOL0     H22251   6.058  10.317   8.100 -0.3421 -0.8091 -0.1776
  886MOL0     H22252   6.734   9.427   8.614 -0.4250 -0.2700 -1.0842
  886MOL0     H22253   6.630   9.289   8.793  1.2570 -0.4145 -1.2177
  886MOL0     H22254   6.248   9.194   9.037 -1.5101 -0.5217  0.9786
  886MOL0     H22255   6.169   9.083   9.232  0.2693  0.9717 -1.1533
  886MOL0     H22256   6.115   8.992   9.465 -0.4686 -0.6763  1.7464
  886MOL0     H22257   6.210   8.888   9.360 -1.4012 -1.1073 -0.6052
  886MOL0     H22258   6.293   8.784   9.604  0.1788  0.3751 -0.3310
  886MOL0     H22259   6.124   8.744   9.552 -2.4153  1.6165  1.4986
  886MOL0     H22260   6.188   8.964   9.741 -2.3772  4.3105 -2.2795
  886MOL0     H22261   6.037   8.945   9.669  0.3560 -0.0876  0.5834
  886MOL0     H22262   6.041   8.697   9.767  2.2443 -2.1032 -0.5471
  886MOL0     H22263   6.031   8.850   9.871 -0.2388  1.1284 -1.5558
  886MOL0     H22264   6.409   8.726   9.973 -0.5311  1.9401  1.4579
  886MOL0     H22265   6.519   9.155   9.451 -0.8936  1.4128  1.5651
  886MOL0     H22266   6.600   9.445   9.302  3.3590  1.0866 -3.3705
  886MOL0     H22267   6.664   9.301   9.380 -1.3343  0.0369  0.6405
  886MOL0     H22268   6.695   9.322   9.205  1.0960  1.5623  0.5233
  887MOL0     O22269   0.437   9.939   6.779  0.7597  0.0376  0.3062
  887MOL0     C22270   0.325   9.896   6.819  0.1149 -0.2425 -0.3963
  887MOL0     O22271   0.255   9.947   6.927 -0.4418 -0.2945 -0.1603
  887MOL0     C22272   0.321  10.029   7.017  0.6843  0.0040  0.2519
  887MOL0     C22273   0.239  10.125   7.073  0.3472 -0.1770  0.6550
  887MOL0     C22274   0.282  10.206   7.183  0.0823 -0.5119 -0.3767
  887MOL0     C22275   0.412  10.183   7.240  0.9836  0.4733 -0.2049
  887MOL0     O22276   0.447  10.250   7.353  0.4118 -0.9688  0.1805
  887MOL0     C22277   0.547  10.355   7.333  1.0658  0.6555 -0.4804
  887MOL0     C22278   0.507  10.478   7.417  0.5561  0.5782  0.2820
  887MOL0     C22279   0.376  10.558   7.385 -0.6584 -0.7060  0.6148
  887MOL0     C22280   0.267  10.546   7.496 -0.3667  0.0881  0.7144
  887MOL0     C22281   0.290  10.645   7.615  0.4285  0.1405 -0.3439
  887MOL0     C22282   0.212  10.586   7.721  0.1139  1.4428 -0.2953
  887MOL0     C22283   0.214  10.689   7.840  0.3072 -1.4891  0.1137
  887MOL0     C22284   0.349  10.731   7.907  0.1977 -0.8875 -0.2309
  887MOL0     N22285   0.416  10.837   7.818 -0.6574 -0.2797 -0.7093
  887MOL0     C22286   0.367  10.954   7.758 -0.0637  0.2225 -0.4207
  887MOL0     C22287   0.472  11.007   7.685 -0.6351  0.9560 -0.1373
  887MOL0     C22288   0.451  11.125   7.602 -0.3464  0.1318 -0.6222
  887MOL0     C22289   0.423  11.243   7.696 -0.3628  0.0630 -0.2600
  887MOL0     C22290   0.397  11.368   7.612  0.2980  0.2311 -0.0244
  887MOL0     C22291   0.383  11.478   7.716  0.2000  0.9843 -1.3978
  887MOL0     O22292   0.458  11.461   7.840 -0.5748  0.1847 -0.3149
  887MOL0     C22293   0.578  11.523   7.842 -0.1369  0.1512  0.8370
  887MOL0     C22294   0.656  11.506   7.958  0.0927  0.2814  0.3248
  887MOL0     C22295   0.785  11.555   7.961  0.5953 -0.1499 -1.0989
  887MOL0     C22296   0.872  11.527   8.086 -0.5370 -0.0839 -0.0908
  887MOL0     C22297   0.843  11.627   7.858  0.4076 -0.6408  0.3206
  887MOL0     C22298   0.978  11.674   7.847 -0.0299  0.1927 -0.6555
  887MOL0     O22299   1.028  11.642   7.727 -0.0709  0.4442 -0.3583
  887MOL0     C22300   1.140  11.696   7.675  0.6156 -0.0390 -1.1431
  887MOL0     C22301   1.210  11.806   7.735 -0.2253 -0.4414 -0.7624
  887MOL0     C22302   1.326  11.859   7.675 -1.0116  0.2797 -0.1515
  887MOL0     C22303   1.376  11.792   7.564  0.6177  0.7530  0.6646
  887MOL0     O22304   1.505  11.823   7.517 -0.3792  0.4083 -0.2366
  887MOL0     C22305   1.535  11.804   7.377 -0.3362  0.1141 -0.2245
  887MOL0     C22306   1.642  11.900   7.335 -0.0055 -0.1097 -0.1485
  887MOL0     C22307   1.761  11.909   7.423 -0.1358  0.4196  0.1995
  887MOL0     C22308   1.864  11.988   7.350 -0.9843 -0.2972  0.0054
  887MOL0     C22309   1.998  11.996   7.428  0.2380  0.6918 -0.2745
  887MOL0     C22310   2.060  11.848   7.423  0.3174 -0.0739 -0.0316
  887MOL0     C22311   2.208  11.852   7.470 -0.4707 -0.5404 -0.5173
  887MOL0     C22312   2.292  11.739   7.406  0.4244  0.3499  0.4984
  887MOL0    Cl22313   2.453  11.718   7.471  0.1106 -0.2670 -0.0753
  887MOL0     C22314   1.305  11.688   7.501  0.6656 -0.3779 -0.0949
  887MOL0     C22315   1.192  11.632   7.556 -0.0043 -0.1041  0.4351
  887MOL0     O22316   1.036  11.716   7.946 -0.6143 -0.0034 -0.1277
  887MOL0     C22317   0.752  11.656   7.752 -0.2596 -0.5118  0.0409
  887MOL0     C22318   0.623  11.604   7.744 -0.7565 -0.1488  0.5336
  887MOL0     N22319   0.583  10.925   7.701  0.6833  0.4003  0.2424
  887MOL0     N22320   0.551  10.824   7.780  0.3194 -0.0965 -0.4197
  887MOL0     C22321   0.490  10.069   7.195  0.4426 -0.4509  0.4988
  887MOL0     C22322   0.450   9.995   7.079  0.0105 -0.8109 -0.8176
  887MOL0     C22323   0.245   9.828   6.714 -0.2291  0.4192  0.4491
  887MOL0     C22324   0.106   9.842   6.717  0.9359 -0.5731  0.3144
  887MOL0     C22325   0.030   9.769   6.628 -0.0772  0.9146  0.1574
  887MOL0     C22326   0.093   9.693   6.524 -0.1349 -0.2620  0.7850
  887MOL0     O22327   0.025   9.631   6.421 -0.2916 -0.3399  0.4678
  887MOL0     C22328  -0.116   9.638   6.417 -0.4203  0.4335 -0.3943
  887MOL0     C22329  -0.163   9.626   6.268  0.3851 -0.4886 -0.0235
  887MOL0     C22330  -0.307   9.674   6.237 -1.1145  0.3265 -0.6422
  887MOL0     C22331  -0.340   9.671   6.089  0.7902  0.4458  0.1100
  887MOL0     C22332  -0.478   9.721   6.076  0.3041  0.0944  0.0821
  887MOL0     C22333  -0.587   9.778   6.076 -0.0482  0.0621 -0.2223
  887MOL0     C22334   0.229   9.692   6.518 -0.9772  0.9671 -0.0515
  887MOL0     C22335   0.305   9.750   6.616  0.4991  0.2722  0.6443
  887MOL0     C22336   0.450   9.704   6.621 -0.1894  1.1556  0.1243
  887MOL0     H22337   0.137  10.126   7.038  0.0570 -1.4849  1.4108
  887MOL0     H22338   0.216  10.281   7.224 -1.8972 -3.3081  1.9410
  887MOL0     H22339   0.544  10.380   7.226 -1.6443  1.5826 -0.2591
  887MOL0     H22340   0.639  10.312   7.371 -1.7525 -4.3547  1.5556
  887MOL0     H22341   0.494  10.427   7.513  1.2541 -1.5038 -0.6683
  887MOL0     H22342   0.591  10.547   7.427  2.2385 -1.0757 -1.6223
  887MOL0     H22343   0.402  10.664   7.376 -1.8695 -0.5288 -1.5977
  887MOL0     H22344   0.330  10.515   7.296  3.9222 -4.3343 -0.3670
  887MOL0     H22345   0.175  10.575   7.444  0.1920 -1.3936 -1.2421
  887MOL0     H22346   0.263  10.444   7.538  0.2476 -0.2857 -0.1185
  887MOL0     H22347   0.266  10.751   7.600 -0.1577  0.1635  0.6731
  887MOL0     H22348   0.394  10.631   7.647  1.1285  1.0459 -2.0875
  887MOL0     H22349   0.108  10.576   7.689  0.7711  2.2151 -2.9333
  887MOL0     H22350   0.259  10.493   7.754  1.1827  2.0071 -0.1995
  887MOL0     H22351   0.157  10.647   7.923  0.5028 -3.4824 -0.6905
  887MOL0     H22352   0.163  10.777   7.801  1.0964 -0.6860  0.8364
  887MOL0     H22353   0.322  10.780   8.000 -1.8019 -2.5364  0.1430
  887MOL0     H22354   0.412  10.646   7.935 -1.5083 -1.8395  0.8918
  887MOL0     H22355   0.262  10.981   7.763 -1.6599 -4.7385 -0.8113
  887MOL0     H22356   0.371  11.092   7.535 -1.0513  0.1530  0.1857
  887MOL0     H22357   0.532  11.153   7.534  0.3499  0.1592  0.1982
  887MOL0     H22358   0.339  11.224   7.763  0.6644 -0.2162  0.9984
  887MOL0     H22359   0.517  11.255   7.751 -1.9821 -0.9473  2.9892
  887MOL0     H22360   0.485  11.388   7.549  1.4703 -1.7648  0.8656
  887MOL0     H22361   0.310  11.356   7.547 -0.9889 -1.4667  1.8876
  887MOL0     H22362   0.390  11.580   7.676  0.4442  2.4314  1.9561
  887MOL0     H22363   0.277  11.473   7.741  0.4043 -1.8807 -0.8428
  887MOL0     H22364   0.608  11.446   8.035  0.2479 -0.7135 -0.3399
  887MOL0     H22365   0.870  11.623   8.139  0.2580  0.6298 -1.3056
  887MOL0     H22366   0.978  11.510   8.064 -1.1252 -1.2947 -2.2585
  887MOL0     H22367   0.824  11.453   8.150  0.3271 -0.0242  0.6549
  887MOL0     H22368   1.173  11.866   7.817  2.9733  1.1485 -0.3228
  887MOL0     H22369   1.384  11.943   7.714  0.0124  0.3686 -1.7630
  887MOL0     H22370   1.581  11.705   7.371  1.3790  0.8188  0.4696
  887MOL0     H22371   1.457  11.809   7.301 -0.1083 -3.6590 -0.9008
  887MOL0     H22372   1.679  11.869   7.236  0.5690  0.8124 -0.2325
  887MOL0     H22373   1.605  12.000   7.315  3.2158  0.7242 -2.8911
  887MOL0     H22374   1.797  11.807   7.442 -1.5871 -0.1467  0.0274
  887MOL0     H22375   1.728  11.944   7.521  1.7138  1.0309  0.6424
  887MOL0     H22376   1.835  12.093   7.344  2.5185  0.7786 -0.3602
  887MOL0     H22377   1.877  11.939   7.253 -0.6404 -2.0468  0.8941
  887MOL0     H22378   2.062  12.068   7.376  0.6054 -1.7733 -3.5920
  887MOL0     H22379   1.981  12.015   7.534 -0.3783 -2.4067  0.2561
  887MOL0     H22380   2.065  11.791   7.329  1.1071  1.0400 -0.6914
  887MOL0     H22381   2.010  11.784   7.496  4.9230 -0.5257  3.0839
  887MOL0     H22382   2.219  11.834   7.577 -0.2324  1.7596 -0.0986
  887MOL0     H22383   2.249  11.951   7.446 -2.2452  0.0692 -1.1286
  887MOL0     H22384   2.293  11.763   7.299  0.6020  0.0473  0.4308
  887MOL0     H22385   2.234  11.646   7.412  1.9948 -0.8132 -1.2648
  887MOL0     H22386   1.350  11.645   7.412  0.4190 -1.9302  0.4940
  887MOL0     H22387   1.129  11.553   7.516  1.0788 -0.5703 -0.4264
  887MOL0     H22388   0.789  11.713   7.668  1.3443  1.8670  2.2190
  887MOL0     H22389   0.573  11.635   7.653  0.0758 -0.0755  0.0923
  887MOL0     H22390   0.580  10.038   7.247  1.1748 -0.4949 -0.7526
  887MOL0     H22391   0.504   9.918   7.025 -0.8034 -1.2070 -1.0839
  887MOL0     H22392   0.060   9.904   6.795  4.0418  1.1950  0.8921
  887MOL0     H22393  -0.078   9.775   6.636 -0.4640 -1.0879 -2.2376
  887MOL0     H22394  -0.158   9.573   6.494 -0.3754  0.8931  0.0243
  887MOL0     H22395  -0.148   9.739   6.445  0.3054  0.3568  0.7435
  887MOL0     H22396  -0.168   9.522   6.233  0.1924 -0.2553 -0.7106
  887MOL0     H22397  -0.095   9.678   6.199 -0.7602  4.5660  2.2318
  887MOL0     H22398  -0.380   9.623   6.300  2.9331 -2.1905  2.5694
  887MOL0     H22399  -0.308   9.780   6.262  1.1315  0.6873 -1.8196
  887MOL0     H22400  -0.343   9.569   6.049  1.4605 -0.8965  3.2200
  887MOL0     H22401  -0.264   9.731   6.039 -0.3454  2.2511  0.4718
  887MOL0     H22402  -0.673   9.833   6.105  0.6174  0.1208  1.8228
  887MOL0     H22403   0.273   9.638   6.435 -0.1593  0.5461  0.6319
  887MOL0     H22404   0.482   9.617   6.562 -0.7289 -0.3024  1.8980
  887MOL0     H22405   0.517   9.786   6.594  0.2968  0.8127  0.2783
  887MOL0     H22406   0.479   9.674   6.722  0.3899 -1.1492 -0.6549
  888MOL0     O22407   6.881   3.260   5.165  0.1708  0.2412 -0.1573
  888MOL0     C22408   6.782   3.200   5.128  0.8664  0.7746  0.5808
  888MOL0     O22409   6.665   3.258   5.089 -0.5456 -0.7971 -0.2232
  888MOL0     C22410   6.680   3.389   5.058 -0.4863 -0.5123 -0.9572
  888MOL0     C22411   6.687   3.497   5.150  0.8804  0.8078  0.5394
  888MOL0     C22412   6.676   3.635   5.115 -0.1823  0.0962  0.6701
  888MOL0     C22413   6.682   3.669   4.981  0.2180 -0.4457 -0.7434
  888MOL0     O22414   6.683   3.806   4.932  0.3792  0.1355 -0.6106
  888MOL0     C22415   6.647   3.901   5.029  0.9227 -1.5532 -0.2542
  888MOL0     C22416   6.622   4.032   4.957 -0.7460 -0.3526  0.3923
  888MOL0     C22417   6.621   4.150   5.055  0.6723 -0.6010  0.2999
  888MOL0     C22418   6.557   4.271   4.980 -0.7000  0.0085  0.1968
  888MOL0     C22419   6.619   4.399   5.028  0.3805  0.2586 -0.2336
  888MOL0     C22420   6.552   4.507   4.950 -0.1570 -0.1460  0.0855
  888MOL0     C22421   6.623   4.640   4.974 -0.9194 -0.2469 -0.7446
  888MOL0     C22422   6.548   4.757   4.904 -0.1375  0.0321 -0.5273
  888MOL0     N22423   6.582   4.884   4.973 -0.6913 -0.7869 -0.1648
  888MOL0     C22424   6.664   4.932   5.068 -0.1825  0.2684  0.5786
  888MOL0     C22425   6.645   5.066   5.083 -0.0199 -0.3138 -1.3722
  888MOL0     C22426   6.710   5.147   5.201  0.1639  0.3727  0.2510
  888MOL0     C22427   6.843   5.196   5.160  0.2242  0.1330  0.3555
  888MOL0     C22428   6.829   5.308   5.057 -0.3086 -1.0812  0.1985
  888MOL0     C22429   6.883   5.440   5.121  0.1966 -0.3668  0.2088
  888MOL0     O22430   6.953   5.511   5.008 -0.1959  0.4709 -0.4792
  888MOL0     C22431   6.996   5.645   5.009  1.0188  0.0858  0.3667
  888MOL0     C22432   7.086   5.692   4.917  0.2963  0.2365  0.2916
  888MOL0     C22433   7.134   5.825   4.924 -0.2457 -0.3274  0.1387
  888MOL0     C22434   7.243   5.862   4.837  0.4068  0.5981 -0.1190
  888MOL0     C22435   7.080   5.920   5.014  0.1368  0.6286 -0.5648
  888MOL0     C22436   7.126   6.057   5.024  0.1747 -0.2650 -0.6440
  888MOL0     O22437   7.119   6.100   5.157 -0.8575  0.7618  0.0629
  888MOL0     C22438   7.166   6.226   5.179  0.7227 -0.9493 -0.1098
  888MOL0     C22439   7.284   6.247   5.258  0.7570  0.0949 -0.3602
  888MOL0     C22440   7.333   6.381   5.293  0.4853  0.3655 -0.5547
  888MOL0     C22441   7.257   6.489   5.248  0.0356  0.1423 -0.5592
  888MOL0     O22442   7.297   6.616   5.297 -0.1234 -0.0558 -0.8462
  888MOL0     C22443   7.210   6.736   5.287  0.3087 -0.1684 -0.2276
  888MOL0     C22444   7.289   6.850   5.345 -0.4325 -0.1794  0.1301
  888MOL0     C22445   7.222   6.984   5.287  0.9008 -0.6090 -0.1084
  888MOL0     C22446   7.236   7.003   5.133  0.9601  0.2073 -0.3452
  888MOL0     C22447   7.372   7.045   5.097  0.6820  0.5166 -0.3829
  888MOL0     C22448   7.380   7.035   4.944  0.1378 -1.0697  0.5624
  888MOL0     C22449   7.509   6.975   4.908 -0.5036  0.4652 -0.4612
  888MOL0     C22450   7.526   6.976   4.754  0.1555  0.7739 -0.1631
  888MOL0    Cl22451   7.575   7.127   4.662 -0.2047  0.5237 -0.1949
  888MOL0     C22452   7.145   6.470   5.180  0.6524  0.4188  0.3784
  888MOL0     C22453   7.103   6.341   5.138  0.4249  0.5554  0.7888
  888MOL0     O22454   7.156   6.124   4.926  0.0883 -0.6453  0.1404
  888MOL0     C22455   6.981   5.870   5.098 -0.6675  0.5142  0.0674
  888MOL0     C22456   6.940   5.734   5.101  0.4000 -1.2614 -0.3182
  888MOL0     N22457   6.556   5.109   4.998  0.6061 -0.8047 -0.1553
  888MOL0     N22458   6.520   5.002   4.935 -0.0242 -0.5845  0.1605
  888MOL0     C22459   6.678   3.568   4.888 -0.5167  0.2904  0.8475
  888MOL0     C22460   6.669   3.429   4.923  0.5017  1.1162  0.2565
  888MOL0     C22461   6.790   3.046   5.143 -0.6221 -0.3280 -0.0746
  888MOL0     C22462   6.913   2.988   5.169 -0.1841 -0.7385  0.1497
  888MOL0     C22463   6.922   2.850   5.178  1.2382  0.1452 -0.8229
  888MOL0     C22464   6.805   2.766   5.183 -0.0398  0.5267 -0.9718
  888MOL0     O22465   6.818   2.640   5.230 -0.1911 -0.4615 -0.4043
  888MOL0     C22466   6.733   2.534   5.180  0.1660  0.8010 -0.8023
  888MOL0     C22467   6.799   2.416   5.257  0.2882 -0.6720  0.0816
  888MOL0     C22468   6.764   2.282   5.207 -0.9008  0.7944 -0.2213
  888MOL0     C22469   6.610   2.273   5.199  1.2295  0.5544  0.0091
  888MOL0     C22470   6.572   2.136   5.152 -0.4054 -0.8129 -0.2414
  888MOL0     C22471   6.544   2.023   5.107 -0.2620 -0.2134 -0.4275
  888MOL0     C22472   6.683   2.824   5.142 -0.0396  0.7258 -0.5216
  888MOL0     C22473   6.678   2.960   5.104  0.6966 -0.4414  0.0277
  888MOL0     C22474   6.557   3.018   5.041  0.1516  0.2349  0.4605
  888MOL0     H22475   6.700   3.466   5.253  1.0880 -1.5882 -0.1450
  888MOL0     H22476   6.680   3.699   5.202  1.8050 -3.0485  3.1238
  888MOL0     H22477   6.723   3.916   5.106  0.9556 -1.3680 -0.3227
  888MOL0     H22478   6.558   3.871   5.086 -0.8553  0.6866 -1.6796
  888MOL0     H22479   6.698   4.050   4.881 -0.3539 -4.6922 -0.5343
  888MOL0     H22480   6.522   4.025   4.913 -0.7777  3.5427 -0.4334
  888MOL0     H22481   6.561   4.127   5.144  0.3483  1.1579  0.5764
  888MOL0     H22482   6.722   4.171   5.092  0.1068 -0.2686  1.7277
  888MOL0     H22483   6.574   4.263   4.872 -1.9304 -2.3314  0.1163
  888MOL0     H22484   6.449   4.279   4.995 -1.2001  0.1866 -2.8070
  888MOL0     H22485   6.729   4.400   5.024  0.4298 -1.6187  0.0443
  888MOL0     H22486   6.600   4.419   5.134 -0.8095  0.3605 -0.4538
  888MOL0     H22487   6.569   4.484   4.844 -0.1993 -2.2042  0.4852
  888MOL0     H22488   6.445   4.519   4.968 -0.8513 -3.6436 -0.9979
  888MOL0     H22489   6.729   4.630   4.952 -1.1249 -3.2535 -0.8068
  888MOL0     H22490   6.609   4.655   5.081 -0.6047  0.2693 -0.7729
  888MOL0     H22491   6.581   4.769   4.800  0.9086 -0.1830 -0.2306
  888MOL0     H22492   6.438   4.757   4.911 -0.3654  4.4070 -1.1807
  888MOL0     H22493   6.736   4.872   5.122  1.2582  1.0225 -0.4436
  888MOL0     H22494   6.722   5.082   5.288  1.4541 -0.4786 -0.5285
  888MOL0     H22495   6.643   5.227   5.234 -0.8812  0.6889 -2.4289
  888MOL0     H22496   6.898   5.228   5.249 -0.9391 -0.5302  1.3360
  888MOL0     H22497   6.888   5.115   5.101 -0.4877 -0.6787  0.9121
  888MOL0     H22498   6.889   5.282   4.969 -0.0548  1.7024 -0.5562
  888MOL0     H22499   6.725   5.325   5.028 -2.0772 -1.9679  5.0978
  888MOL0     H22500   6.801   5.501   5.160 -0.5759 -2.1518  1.5431
  888MOL0     H22501   6.959   5.418   5.197  0.9809  2.7482  0.4731
  888MOL0     H22502   7.134   5.624   4.846 -2.2781 -0.5465 -0.8106
  888MOL0     H22503   7.192   5.921   4.761 -0.1112 -0.5995 -0.7335
  888MOL0     H22504   7.294   5.780   4.785 -1.7722 -0.1226 -1.2665
  888MOL0     H22505   7.309   5.932   4.889 -2.6713  1.4621  2.9940
  888MOL0     H22506   7.345   6.160   5.276  0.7021  0.1926  0.3322
  888MOL0     H22507   7.428   6.384   5.345 -1.2309 -1.5370  3.0728
  888MOL0     H22508   7.186   6.750   5.181 -2.2410  0.3196  0.3566
  888MOL0     H22509   7.126   6.715   5.353 -0.3616 -0.8837 -1.2650
  888MOL0     H22510   7.303   6.850   5.453 -1.1478  2.5871  0.2836
  888MOL0     H22511   7.393   6.839   5.312 -0.2019 -1.0436  1.1087
  888MOL0     H22512   7.267   7.072   5.335  1.4602 -1.6339  1.3339
  888MOL0     H22513   7.117   6.987   5.315  1.0467  0.0734  0.4071
  888MOL0     H22514   7.170   7.086   5.102 -0.8402  0.3138  3.2159
  888MOL0     H22515   7.210   6.915   5.074  0.0513  0.5407 -0.4651
  888MOL0     H22516   7.401   7.145   5.131 -0.1866  1.5211 -2.4129
  888MOL0     H22517   7.446   6.974   5.134  0.9604  0.7553 -0.4868
  888MOL0     H22518   7.367   7.129   4.890 -2.2974 -0.6776  1.6993
  888MOL0     H22519   7.299   6.981   4.895  1.4526 -1.2975 -1.4858
  888MOL0     H22520   7.513   6.874   4.950  2.7882  0.4742 -0.4372
  888MOL0     H22521   7.600   7.025   4.944  1.4567 -2.3242 -1.2667
  888MOL0     H22522   7.437   6.933   4.708  1.0845 -0.2149 -1.0996
  888MOL0     H22523   7.608   6.906   4.737 -1.3978 -1.3762  0.6719
  888MOL0     H22524   7.092   6.553   5.134  1.9878  0.2632 -1.5637
  888MOL0     H22525   7.020   6.335   5.068  0.1159  1.4963  1.0485
  888MOL0     H22526   6.940   5.931   5.178 -2.4682 -2.2609  1.4271
  888MOL0     H22527   6.856   5.716   5.167  0.3354  0.1580  0.0076
  888MOL0     H22528   6.655   3.585   4.783 -1.3117 -0.4978  0.8840
  888MOL0     H22529   6.663   3.349   4.851  0.0104 -2.1229  3.5744
  888MOL0     H22530   7.004   3.047   5.173  0.8858 -2.3130 -0.1575
  888MOL0     H22531   7.014   2.802   5.206  1.1263  0.5858  0.3451
  888MOL0     H22532   6.630   2.550   5.213  0.8212  1.3114  1.1681
  888MOL0     H22533   6.737   2.526   5.071 -2.2229 -1.3766 -0.8291
  888MOL0     H22534   6.767   2.438   5.359  2.5918  1.1985  0.4875
  888MOL0     H22535   6.907   2.424   5.239  0.1417 -2.2625 -1.8596
  888MOL0     H22536   6.796   2.271   5.103 -2.3899 -1.0827 -0.5611
  888MOL0     H22537   6.804   2.205   5.273 -2.6076  0.8425  0.9452
  888MOL0     H22538   6.552   2.342   5.137 -2.5993 -2.2984  0.0110
  888MOL0     H22539   6.555   2.283   5.293  1.6276 -0.9606  0.4411
  888MOL0     H22540   6.517   1.928   5.066  1.6187 -1.7335  1.5772
  888MOL0     H22541   6.589   2.771   5.135  0.2026  0.2067 -0.0337
  888MOL0     H22542   6.575   3.071   4.947 -1.1341 -1.7418 -0.9597
  888MOL0     H22543   6.477   2.946   5.028  0.1366  0.5029 -1.1853
  888MOL0     H22544   6.510   3.084   5.114 -3.7403 -0.9134 -0.7627
  889MOL0     O22545   2.141  10.675   7.758 -0.4503 -0.0051  0.4495
  889MOL0     C22546   2.023  10.653   7.766  0.3409 -0.2560  0.5590
  889MOL0     O22547   1.933  10.751   7.794  0.0675 -0.0376  0.5640
  889MOL0     C22548   1.977  10.865   7.858  1.0185  0.1820  0.0658
  889MOL0     C22549   2.046  10.857   7.972 -0.0550 -0.7487 -0.1228
  889MOL0     C22550   2.091  10.972   8.034 -0.2488  0.0345  0.5604
  889MOL0     C22551   2.054  11.098   7.988  0.1166  0.1247 -0.2403
  889MOL0     O22552   2.076  11.222   8.047  0.0036 -0.1501  0.3311
  889MOL0     C22553   2.178  11.228   8.136 -1.2109 -0.9136 -0.6128
  889MOL0     C22554   2.183  11.363   8.211  0.1121  0.0244 -0.4257
  889MOL0     C22555   2.302  11.359   8.301  0.7688 -0.4940 -0.2659
  889MOL0     C22556   2.420  11.447   8.251 -0.4611 -0.2890  0.1984
  889MOL0     C22557   2.535  11.441   8.358 -0.4429 -0.8597  0.2426
  889MOL0     C22558   2.536  11.568   8.443 -0.1172 -0.1956  0.7179
  889MOL0     C22559   2.570  11.693   8.371 -1.2135 -0.7480 -0.6471
  889MOL0     C22560   2.554  11.816   8.469  1.0013 -0.3238 -0.4126
  889MOL0     N22561   2.432  11.824   8.551 -0.7996 -0.3539  0.8493
  889MOL0     C22562   2.305  11.809   8.493 -0.8940  0.5106 -0.8904
  889MOL0     C22563   2.222  11.787   8.600  0.5206  0.2868  0.1590
  889MOL0     C22564   2.072  11.774   8.587 -0.5923  0.0625  0.7766
  889MOL0     C22565   2.013  11.917   8.614 -0.0387 -0.2233  1.0530
  889MOL0     C22566   1.873  11.928   8.552  0.5226  0.0704 -0.3002
  889MOL0     C22567   1.767  11.865   8.642 -0.8834  0.1228 -0.6325
  889MOL0     O22568   1.731  11.963   8.737 -0.1787 -0.2519 -0.2946
  889MOL0     C22569   1.642  11.937   8.839  0.6546  0.3227 -0.7183
  889MOL0     C22570   1.573  11.824   8.854  0.8209  0.5649 -0.7245
  889MOL0     C22571   1.485  11.797   8.960 -0.5143 -0.3061  0.1426
  889MOL0     C22572   1.426  11.665   8.958  0.0368  0.3133  0.1376
  889MOL0     C22573   1.456  11.896   9.053 -0.3037 -0.3170  0.1133
  889MOL0     C22574   1.359  11.881   9.162 -0.0531 -0.7456  0.4245
  889MOL0     O22575   1.373  11.972   9.271  0.2120  0.3401  0.4076
  889MOL0     C22576   1.283  11.943   9.367 -0.3764  0.2557  0.4733
  889MOL0     C22577   1.196  12.041   9.427 -0.1063 -0.2443  0.3730
  889MOL0     C22578   1.089  12.002   9.508  0.2284  0.1253  0.2615
  889MOL0     C22579   1.061  11.866   9.522  0.0201  0.9307 -1.1423
  889MOL0     O22580   0.937  11.846   9.577  0.0480  0.3944  0.4008
  889MOL0     C22581   0.864  11.749   9.501 -0.3427  0.3671 -0.6167
  889MOL0     C22582   0.717  11.725   9.550 -0.1316 -0.3055 -0.1955
  889MOL0     C22583   0.719  11.676   9.698  0.3058  0.6548  0.5189
  889MOL0     C22584   0.578  11.636   9.740 -1.3956  0.0557 -0.2233
  889MOL0     C22585   0.574  11.555   9.872 -0.3964  0.5632  0.2470
  889MOL0     C22586   0.665  11.604   9.993  0.5261  0.5212 -0.1540
  889MOL0     C22587   0.646  11.747  10.034  0.4092 -1.0345  0.0917
  889MOL0     C22588   0.536  11.776  10.130  0.1445 -0.3387  0.0706
  889MOL0    Cl22589   0.609  11.742  10.290 -0.1479 -0.2929 -0.5873
  889MOL0     C22590   1.152  11.769   9.494  0.0246 -0.2108 -0.4862
  889MOL0     C22591   1.259  11.808   9.408  0.3826  0.4948  0.0065
  889MOL0     O22592   1.262  11.799   9.143 -0.9866  0.1000  0.3133
  889MOL0     C22593   1.524  12.020   9.037 -0.2688 -0.2036  1.1852
  889MOL0     C22594   1.612  12.039   8.930 -0.7851  0.6961  0.0929
  889MOL0     N22595   2.299  11.798   8.720 -0.9180 -0.0924  0.6418
  889MOL0     N22596   2.427  11.815   8.688 -0.2225 -0.6692 -0.3976
  889MOL0     C22597   1.982  11.106   7.859 -0.1132  0.0209 -0.3649
  889MOL0     C22598   1.940  10.985   7.801  0.2425  0.1588  0.9632
  889MOL0     C22599   1.962  10.521   7.730 -0.6389  0.3904 -0.4618
  889MOL0     C22600   1.892  10.461   7.829 -0.3360  0.5407 -0.1441
  889MOL0     C22601   1.831  10.333   7.801  0.7694  0.5531  0.8263
  889MOL0     C22602   1.845  10.271   7.671  0.9543  0.3650 -0.4961
  889MOL0     O22603   1.797  10.144   7.668  0.9485  0.5887 -0.7327
  889MOL0     C22604   1.789  10.068   7.551 -0.4150 -0.6303  0.8835
  889MOL0     C22605   1.646  10.027   7.512 -0.0434 -0.7699  0.1793
  889MOL0     C22606   1.571  10.157   7.490  0.3078 -0.2149  0.2308
  889MOL0     C22607   1.423  10.146   7.481 -0.8890  0.4927  0.6706
  889MOL0     C22608   1.348  10.274   7.455  0.2725  0.3931 -0.6962
  889MOL0     C22609   1.280  10.365   7.430 -0.5663  0.0844  0.1150
  889MOL0     C22610   1.901  10.345   7.574 -0.2152  0.8502  0.1019
  889MOL0     C22611   1.966  10.461   7.602  0.8858 -0.7142 -0.8903
  889MOL0     C22612   2.027  10.544   7.481  0.4888 -0.4180  0.3231
  889MOL0     H22613   2.074  10.762   8.017 -1.7471 -1.7203 -1.0203
  889MOL0     H22614   2.152  10.944   8.119 -1.6614 -2.3771  0.8815
  889MOL0     H22615   2.262  11.218   8.066  0.3225  1.5615  0.7240
  889MOL0     H22616   2.176  11.154   8.217  2.1502  1.5260  2.0354
  889MOL0     H22617   2.192  11.443   8.138  1.8051  1.0180  0.8115
  889MOL0     H22618   2.090  11.379   8.268  1.6651  3.2353  1.4513
  889MOL0     H22619   2.271  11.399   8.398  0.9001 -0.0040 -0.4221
  889MOL0     H22620   2.348  11.260   8.314  2.7102  0.4252  0.2456
  889MOL0     H22621   2.447  11.409   8.152 -1.8821  0.6915 -0.6122
  889MOL0     H22622   2.387  11.550   8.239  0.4166  0.0769  0.8634
  889MOL0     H22623   2.630  11.440   8.303 -1.4368 -2.6235 -1.5706
  889MOL0     H22624   2.553  11.354   8.422  3.1522 -1.4644 -1.3203
  889MOL0     H22625   2.439  11.576   8.494 -0.0016  1.8720  0.6758
  889MOL0     H22626   2.621  11.551   8.510  0.5197 -0.0051 -0.0236
  889MOL0     H22627   2.504  11.707   8.284 -0.0835  2.1668 -1.1473
  889MOL0     H22628   2.671  11.683   8.331 -0.4977  1.5941  0.4222
  889MOL0     H22629   2.643  11.827   8.532  1.1414  1.7569 -0.9022
  889MOL0     H22630   2.550  11.904   8.405 -0.7137 -1.1759 -1.5750
  889MOL0     H22631   2.286  11.806   8.387 -1.5742  0.8853 -0.7834
  889MOL0     H22632   2.030  11.698   8.654  3.0622 -2.1965  0.7837
  889MOL0     H22633   2.049  11.748   8.484 -4.0249 -0.0707  1.4619
  889MOL0     H22634   2.009  11.947   8.719 -0.2755 -1.1375  1.3164
  889MOL0     H22635   2.084  11.984   8.565  0.5090 -1.2828  0.3679
  889MOL0     H22636   1.842  12.029   8.525  2.4390  0.1735 -2.4790
  889MOL0     H22637   1.865  11.880   8.454  0.2217  0.7470 -0.6054
  889MOL0     H22638   1.687  11.828   8.577 -1.2978 -3.9842  1.8525
  889MOL0     H22639   1.824  11.781   8.683  2.8498  1.8544 -1.8295
  889MOL0     H22640   1.589  11.738   8.790 -1.4465 -0.5486  0.0750
  889MOL0     H22641   1.326  11.683   8.917  0.8692  1.1330 -1.6747
  889MOL0     H22642   1.425  11.621   9.058  0.7057 -0.9723 -0.4000
  889MOL0     H22643   1.489  11.599   8.897 -0.4591 -1.0395  1.0421
  889MOL0     H22644   1.228  12.144   9.416 -1.2416  0.1069  0.2767
  889MOL0     H22645   1.025  12.080   9.549 -0.2313  0.6220 -1.3426
  889MOL0     H22646   0.875  11.776   9.395  2.2137 -1.2184 -0.8470
  889MOL0     H22647   0.921  11.657   9.516  0.0878  1.2175  4.4523
  889MOL0     H22648   0.665  11.821   9.548  1.2302  0.4425 -1.1597
  889MOL0     H22649   0.670  11.658   9.476  1.3582 -2.0046  0.3222
  889MOL0     H22650   0.758  11.750   9.767  0.1666 -1.7065  3.3315
  889MOL0     H22651   0.785  11.589   9.701  1.5002  1.4099 -1.6924
  889MOL0     H22652   0.527  11.575   9.665 -0.4487 -1.5810  0.3998
  889MOL0     H22653   0.530  11.732   9.760 -2.1699 -0.3714  0.0007
  889MOL0     H22654   0.472  11.580   9.905  0.4832  1.2100  2.6677
  889MOL0     H22655   0.573  11.449   9.846 -2.0165  1.1022 -2.3268
  889MOL0     H22656   0.767  11.589   9.956  0.3339  0.0978 -0.5263
  889MOL0     H22657   0.662  11.543  10.083  0.3497  0.2309 -0.3561
  889MOL0     H22658   0.628  11.813   9.948 -1.9318  0.2032  1.4292
  889MOL0     H22659   0.744  11.784  10.066  0.2132  0.9358 -1.3309
  889MOL0     H22660   0.457  11.704  10.106  1.0533 -1.2608 -0.2151
  889MOL0     H22661   0.507  11.881  10.125 -0.1157 -0.3453  1.2173
  889MOL0     H22662   1.132  11.664   9.512 -1.4878 -0.0557 -1.0802
  889MOL0     H22663   1.319  11.724   9.376  0.4265  0.9264 -1.0714
  889MOL0     H22664   1.493  12.101   9.101 -4.0275  1.5217 -2.3599
  889MOL0     H22665   1.660  12.135   8.915  0.5747  0.3379  1.8641
  889MOL0     H22666   1.952  11.201   7.815 -1.6413 -1.8190 -3.6712
  889MOL0     H22667   1.867  10.983   7.721  1.6693  0.0189 -0.3976
  889MOL0     H22668   1.866  10.509   7.922 -0.1849 -1.4236  0.9773
  889MOL0     H22669   1.780  10.275   7.878  2.3347 -2.2038 -0.0812
  889MOL0     H22670   1.836  10.105   7.459 -1.4965 -2.8136 -0.6450
  889MOL0     H22671   1.847   9.979   7.577  6.1103  2.1340 -1.7514
  889MOL0     H22672   1.595   9.975   7.594  1.0122  1.9149  2.7635
  889MOL0     H22673   1.652   9.963   7.424  0.6307  1.9063 -1.8623
  889MOL0     H22674   1.593  10.232   7.566 -3.7673  2.7845 -1.1925
  889MOL0     H22675   1.601  10.209   7.399  0.0336  0.7094  0.6522
  889MOL0     H22676   1.391  10.103   7.577  0.0268  0.6440  1.0527
  889MOL0     H22677   1.395  10.070   7.407 -1.5454 -1.6634  2.9782
  889MOL0     H22678   1.215  10.450   7.417  2.1419  1.9514 -2.5439
  889MOL0     H22679   1.895  10.318   7.469 -4.1002  1.6855 -0.0355
  889MOL0     H22680   1.998  10.649   7.473  2.5102  0.0574 -2.3680
  889MOL0     H22681   2.136  10.548   7.490  0.9075 -2.2230 -2.4226
  889MOL0     H22682   2.009  10.500   7.382 -0.1521 -2.1662  1.1825
  890MOL0     O22683   2.524   2.295   2.372 -0.2347  0.1452  0.4618
  890MOL0     C22684   2.555   2.284   2.488 -0.4512 -0.4150  0.4369
  890MOL0     O22685   2.500   2.208   2.585  0.2276  0.5687 -0.5725
  890MOL0     C22686   2.373   2.154   2.557 -0.3729 -0.5651 -0.3454
  890MOL0     C22687   2.367   2.038   2.495 -0.0840  0.0407  0.0650
  890MOL0     C22688   2.246   1.965   2.500  0.7438  0.4266 -0.8370
  890MOL0     C22689   2.143   2.000   2.584  0.4358  0.3157  0.3135
  890MOL0     O22690   2.030   1.915   2.586 -0.3570  0.0556 -0.5194
  890MOL0     C22691   1.910   1.958   2.656  0.4178 -0.1962  0.9955
  890MOL0     C22692   1.811   1.842   2.658  0.2211 -0.4549 -0.3195
  890MOL0     C22693   1.677   1.880   2.712 -0.0349 -0.3667  0.1017
  890MOL0     C22694   1.603   1.770   2.801  0.3500  0.5049  0.3072
  890MOL0     C22695   1.553   1.657   2.707 -0.5285  1.0961 -0.0780
  890MOL0     C22696   1.471   1.539   2.784  0.3217 -0.8658 -0.7864
  890MOL0     C22697   1.350   1.602   2.856  0.6895 -1.2069 -0.6987
  890MOL0     C22698   1.235   1.508   2.903  0.9143  0.3801  0.1059
  890MOL0     N22699   1.128   1.594   2.959  0.4317  0.2368  0.0027
  890MOL0     C22700   1.021   1.610   2.888  0.3679 -0.1100  0.5217
  890MOL0     C22701   0.951   1.707   2.956 -0.2159 -0.3560 -0.3566
  890MOL0     C22702   0.820   1.766   2.935  0.9114  0.3969 -0.3613
  890MOL0     C22703   0.766   1.739   2.791 -0.0054 -0.6961  0.3409
  890MOL0     C22704   0.639   1.827   2.767 -0.3580  0.3358  0.5790
  890MOL0     C22705   0.546   1.782   2.646  0.0247  0.1258  0.0562
  890MOL0     O22706   0.613   1.806   2.525  0.0405  0.7424  0.3496
  890MOL0     C22707   0.592   1.928   2.474 -0.3061  0.1394 -0.5099
  890MOL0     C22708   0.477   1.959   2.398 -0.0714  0.6768 -0.1806
  890MOL0     C22709   0.452   2.090   2.360 -0.9535 -0.6622  0.3055
  890MOL0     C22710   0.323   2.122   2.285  0.8270  0.0389  0.1777
  890MOL0     C22711   0.546   2.199   2.393 -0.6658 -0.3906 -0.7643
  890MOL0     C22712   0.526   2.351   2.380  0.7034  0.1508 -0.1873
  890MOL0     O22713   0.396   2.388   2.364 -0.0966  0.1371 -0.0814
  890MOL0     C22714   0.389   2.525   2.353  0.1520 -1.4710 -0.1631
  890MOL0     C22715   0.394   2.582   2.231  0.6483  0.5260 -0.4076
  890MOL0     C22716   0.375   2.715   2.213 -0.4273 -1.1201  0.0979
  890MOL0     C22717   0.356   2.799   2.316 -0.1943  0.0146  0.2360
  890MOL0     O22718   0.326   2.931   2.312  0.5156  0.1356  0.4459
  890MOL0     C22719   0.312   3.001   2.186 -0.4427  0.1934 -0.3279
  890MOL0     C22720   0.263   3.139   2.231 -0.1982 -0.3586  0.0847
  890MOL0     C22721   0.391   3.219   2.267 -0.1876  0.7260 -0.4576
  890MOL0     C22722   0.342   3.363   2.288  0.8492 -0.5746  0.2307
  890MOL0     C22723   0.269   3.395   2.425  0.0451  0.5198 -0.8241
  890MOL0     C22724   0.242   3.540   2.435 -0.3859  0.1675  0.7336
  890MOL0     C22725   0.164   3.562   2.556 -0.5613  0.6321 -0.6685
  890MOL0     C22726   0.088   3.691   2.535 -0.3019  1.1660 -0.6610
  890MOL0    Cl22727  -0.010   3.730   2.673 -0.0841  0.1427 -0.2235
  890MOL0     C22728   0.367   2.748   2.448 -0.1499 -0.3696  0.3692
  890MOL0     C22729   0.378   2.613   2.466 -0.5764 -0.4408  0.1255
  890MOL0     O22730   0.621   2.423   2.371 -0.9199 -0.1070  0.6952
  890MOL0     C22731   0.667   2.161   2.461 -0.4630  0.2530  0.4136
  890MOL0     C22732   0.683   2.028   2.504  0.1896  1.0142 -0.3340
  890MOL0     N22733   1.025   1.744   3.066 -0.3232 -0.7071 -0.0461
  890MOL0     N22734   1.133   1.676   3.066  0.8677  0.3761  0.5000
  890MOL0     C22735   2.151   2.120   2.658 -0.4258 -0.6534  0.2463
  890MOL0     C22736   2.266   2.196   2.635 -0.4185  0.8442 -0.5189
  890MOL0     C22737   2.694   2.330   2.525  0.6522 -0.8525 -0.6356
  890MOL0     C22738   2.731   2.323   2.659  0.2393  0.1966 -1.4304
  890MOL0     C22739   2.856   2.334   2.698 -0.2611  0.4136  0.2649
  890MOL0     C22740   2.958   2.381   2.614  0.1197  0.4449  0.3828
  890MOL0     O22741   3.093   2.408   2.631 -0.7862 -0.1527 -0.1059
  890MOL0     C22742   3.161   2.351   2.750  0.9612  0.5124  0.2413
  890MOL0     C22743   3.308   2.391   2.735  0.2667 -0.5070 -0.0999
  890MOL0     C22744   3.396   2.371   2.863 -0.1332  0.1729 -0.2609
  890MOL0     C22745   3.520   2.448   2.865 -0.4073 -0.2065  0.8087
  890MOL0     C22746   3.608   2.420   2.979 -0.4106  0.0573  0.1233
  890MOL0     C22747   3.686   2.383   3.058 -0.0410 -0.1006 -0.4560
  890MOL0     C22748   2.914   2.415   2.481 -0.3254 -0.5086 -1.0447
  890MOL0     C22749   2.786   2.387   2.432  0.3523  0.4886 -0.7310
  890MOL0     C22750   2.756   2.407   2.285 -1.2409 -0.0107  0.5356
  890MOL0     H22751   2.455   2.009   2.438  0.0016  2.9105 -1.4716
  890MOL0     H22752   2.243   1.883   2.430 -0.6065 -0.1078 -0.1887
  890MOL0     H22753   1.862   2.039   2.599  1.9304 -1.1847 -1.9242
  890MOL0     H22754   1.914   1.998   2.757 -1.4745 -0.9544  1.4083
  890MOL0     H22755   1.808   1.795   2.560  1.0185  1.1947 -1.1711
  890MOL0     H22756   1.862   1.774   2.727  1.2470 -0.9332 -1.5193
  890MOL0     H22757   1.682   1.948   2.798 -0.5756  0.5352 -0.5632
  890MOL0     H22758   1.613   1.925   2.635 -1.8409 -3.1688 -0.1663
  890MOL0     H22759   1.662   1.740   2.888  0.4193  1.0354  0.4413
  890MOL0     H22760   1.521   1.825   2.847  0.3590  0.3226  0.5397
  890MOL0     H22761   1.640   1.606   2.664  0.6494  1.1076  2.1115
  890MOL0     H22762   1.478   1.703   2.642 -1.8752 -1.5772 -0.5522
  890MOL0     H22763   1.432   1.465   2.714  2.1729  0.2096 -3.0899
  890MOL0     H22764   1.545   1.499   2.854  2.9664  3.3585 -0.8053
  890MOL0     H22765   1.311   1.669   2.779 -1.8325 -1.7479  0.0197
  890MOL0     H22766   1.372   1.670   2.939 -3.1762  0.7431 -1.0405
  890MOL0     H22767   1.209   1.443   2.819  1.0622  1.2501 -0.6267
  890MOL0     H22768   1.261   1.438   2.984 -1.1703 -1.1431 -0.4687
  890MOL0     H22769   0.984   1.570   2.794  0.3377 -0.3765  0.6456
  890MOL0     H22770   0.840   1.873   2.949  1.8395  0.2260 -0.3153
  890MOL0     H22771   0.754   1.723   3.011  0.8006  0.2036 -0.5643
  890MOL0     H22772   0.831   1.763   2.707 -2.1417  2.2425 -0.6259
  890MOL0     H22773   0.744   1.632   2.793  1.7092 -1.1477 -1.9350
  890MOL0     H22774   0.581   1.822   2.860  0.2175 -2.4567  0.8767
  890MOL0     H22775   0.670   1.931   2.753  2.1536 -0.2751  1.0844
  890MOL0     H22776   0.529   1.674   2.655 -1.0084  0.0577 -2.1253
  890MOL0     H22777   0.451   1.836   2.653  0.7601  1.5058 -0.2022
  890MOL0     H22778   0.415   1.877   2.365  1.7589 -0.4410 -0.9398
  890MOL0     H22779   0.252   2.175   2.350  0.0550 -1.1798  0.3657
  890MOL0     H22780   0.272   2.035   2.243 -0.1191  0.9976 -0.7392
  890MOL0     H22781   0.337   2.183   2.196 -0.5578 -0.2438 -0.2541
  890MOL0     H22782   0.399   2.528   2.137 -0.9670 -2.6857  1.1530
  890MOL0     H22783   0.386   2.761   2.115 -0.7142  0.3260  0.7255
  890MOL0     H22784   0.406   2.996   2.130 -0.1961 -0.8065  0.1482
  890MOL0     H22785   0.234   2.954   2.125 -1.2489  3.1479 -1.7763
  890MOL0     H22786   0.222   3.186   2.141 -1.2518 -0.1157  0.6733
  890MOL0     H22787   0.183   3.129   2.305  0.1652  0.2530  0.5794
  890MOL0     H22788   0.469   3.211   2.191  1.9768  0.9847  1.6134
  890MOL0     H22789   0.439   3.173   2.354 -0.9044 -1.4593 -1.1494
  890MOL0     H22790   0.287   3.394   2.199  0.6028 -0.4263  0.4349
  890MOL0     H22791   0.434   3.422   2.289  2.1848 -2.4840 -1.5994
  890MOL0     H22792   0.174   3.344   2.441 -0.5155  2.3879  2.9000
  890MOL0     H22793   0.339   3.368   2.504  2.6685  2.1117 -2.4401
  890MOL0     H22794   0.198   3.577   2.343  1.2494 -3.0147 -1.5179
  890MOL0     H22795   0.339   3.591   2.439  0.0526 -0.5905 -0.0024
  890MOL0     H22796   0.234   3.585   2.637  0.0450  2.3662 -1.6309
  890MOL0     H22797   0.112   3.472   2.589 -0.3596  1.2720  1.5457
  890MOL0     H22798   0.035   3.672   2.441 -0.3752  0.2640 -0.4474
  890MOL0     H22799   0.144   3.784   2.528  2.6325 -0.4249 -0.0098
  890MOL0     H22800   0.366   2.813   2.536 -0.1386 -0.4384  0.4198
  890MOL0     H22801   0.372   2.569   2.565 -1.6612 -1.7541 -0.4956
  890MOL0     H22802   0.756   2.221   2.476 -0.3031 -0.2100  1.3508
  890MOL0     H22803   0.773   2.001   2.559 -1.6150 -1.7402  1.5506
  890MOL0     H22804   2.083   2.149   2.736  1.0105 -0.3232  1.4247
  890MOL0     H22805   2.278   2.295   2.678  1.7409  0.2511  0.4077
  890MOL0     H22806   2.666   2.282   2.735  0.2607  1.4899 -0.6941
  890MOL0     H22807   2.880   2.310   2.801 -0.9775  0.0883  0.3644
  890MOL0     H22808   3.128   2.390   2.846 -0.0884 -0.1421  0.1649
  890MOL0     H22809   3.148   2.242   2.754 -3.1562  0.7603 -1.7016
  890MOL0     H22810   3.317   2.492   2.693 -2.2362 -1.6277 -3.8732
  890MOL0     H22811   3.350   2.331   2.653 -2.2038  0.2168 -2.0108
  890MOL0     H22812   3.339   2.403   2.950  0.0899  2.5394 -0.9049
  890MOL0     H22813   3.425   2.266   2.867 -2.3277 -0.6270 -2.5964
  890MOL0     H22814   3.499   2.555   2.865  0.8617  0.1148  3.5247
  890MOL0     H22815   3.586   2.416   2.783 -1.2920  0.7663 -0.3080
  890MOL0     H22816   3.754   2.345   3.132  1.4420  1.4116 -0.9760
  890MOL0     H22817   2.981   2.432   2.397 -1.0315  1.4777 -1.2683
  890MOL0     H22818   2.738   2.315   2.228 -1.1091  0.3828 -0.1571
  890MOL0     H22819   2.664   2.466   2.272 -0.1626  1.9401  1.3111
  890MOL0     H22820   2.851   2.453   2.256 -1.4259  2.2725  3.1440
  891MOL0     O22821  11.294   2.492   6.671 -0.2549 -1.2496  1.0529
  891MOL0     C22822  11.365   2.406   6.725  0.5560  0.6163  0.4451
  891MOL0     O22823  11.313   2.300   6.789  0.3098 -0.7058 -0.4538
  891MOL0     C22824  11.177   2.301   6.816 -0.3736  0.2383  0.2986
  891MOL0     C22825  11.101   2.187   6.776 -0.1489  0.3040  0.5396
  891MOL0     C22826  10.958   2.179   6.801  0.1336  0.1990 -0.4275
  891MOL0     C22827  10.896   2.290   6.870  0.0140  0.0459 -0.1651
  891MOL0     O22828  10.773   2.299   6.917 -0.5964  0.1371  0.0111
  891MOL0     C22829  10.667   2.197   6.885  0.3255 -0.2773 -0.2341
  891MOL0     C22830  10.526   2.234   6.929 -0.2196 -0.2400  0.7320
  891MOL0     C22831  10.494   2.380   6.924 -0.0281 -0.4525  0.7966
  891MOL0     C22832  10.450   2.406   6.772  0.5231  0.7969 -0.1307
  891MOL0     C22833  10.439   2.550   6.748  0.0688  0.2050  0.0875
  891MOL0     C22834  10.335   2.620   6.831 -0.4774 -0.5196 -0.6022
  891MOL0     C22835  10.356   2.773   6.796  1.0917 -0.5787 -0.0266
  891MOL0     C22836  10.251   2.860   6.870 -0.1257 -0.4864  0.8613
  891MOL0     N22837  10.263   3.008   6.871 -1.0021 -0.1531 -0.0111
  891MOL0     C22838  10.174   3.098   6.815 -0.1602  0.3763  0.5215
  891MOL0     C22839  10.199   3.212   6.872  0.3447  0.3715 -0.5100
  891MOL0     C22840  10.137   3.344   6.838  0.1561  0.6259  0.6029
  891MOL0     C22841   9.996   3.360   6.907  0.1185 -0.8549 -0.4305
  891MOL0     C22842   9.893   3.440   6.814 -0.4289 -0.0811 -1.1984
  891MOL0     C22843   9.831   3.355   6.700  0.1240  1.0235  0.1300
  891MOL0     O22844   9.706   3.387   6.638 -0.0963  0.6786  0.2389
  891MOL0     C22845   9.691   3.467   6.524  0.7145 -0.5206 -0.5737
  891MOL0     C22846   9.763   3.579   6.502 -0.1912 -0.4668  0.4577
  891MOL0     C22847   9.747   3.667   6.404  0.2854  0.9082  0.5339
  891MOL0     C22848   9.835   3.789   6.401 -0.2376 -0.1765 -0.0721
  891MOL0     C22849   9.638   3.651   6.311 -0.6626 -0.0045 -1.2881
  891MOL0     C22850   9.605   3.748   6.204  0.9033 -0.0324 -0.1461
  891MOL0     O22851   9.715   3.824   6.153  1.1599  0.3334  0.2575
  891MOL0     C22852   9.709   3.913   6.051 -0.1326 -0.4412  0.0315
  891MOL0     C22853   9.644   3.883   5.926  0.2749  0.3810  1.2804
  891MOL0     C22854   9.645   3.974   5.816 -0.4662  0.5934 -0.3625
  891MOL0     C22855   9.698   4.105   5.841  0.1719  0.4534  0.2076
  891MOL0     O22856   9.697   4.199   5.741  0.0161 -0.7896 -0.0963
  891MOL0     C22857   9.788   4.305   5.741 -0.5431 -0.1817  0.0763
  891MOL0     C22858   9.798   4.359   5.595  0.3870  0.2686  1.1482
  891MOL0     C22859   9.865   4.504   5.603  0.4465 -0.9902  0.2902
  891MOL0     C22860   9.856   4.574   5.460  0.2692  0.0514 -1.1955
  891MOL0     C22861   9.949   4.688   5.449  0.2343  0.2188  0.2023
  891MOL0     C22862   9.916   4.815   5.532  1.2504  0.3210 -0.0449
  891MOL0     C22863   9.994   4.935   5.482  0.4566  0.1435  0.0380
  891MOL0     C22864   9.994   5.042   5.592  0.1697  1.0194 -0.4336
  891MOL0    Cl22865  10.078   5.179   5.521  0.4518  0.2124 -0.0289
  891MOL0     C22866   9.763   4.125   5.961  1.3813 -0.6274 -0.3299
  891MOL0     C22867   9.778   4.029   6.067  0.3207 -0.3048  0.0923
  891MOL0     O22868   9.485   3.765   6.169  0.7595 -0.9539  0.6004
  891MOL0     C22869   9.557   3.543   6.339  0.8518  0.1272 -0.5052
  891MOL0     C22870   9.589   3.442   6.434  0.3655 -0.2098 -0.6446
  891MOL0     N22871  10.320   3.207   6.941  0.1609 -0.5819 -0.3315
  891MOL0     N22872  10.351   3.080   6.946  0.2839  0.5876 -0.2093
  891MOL0     C22873  10.975   2.403   6.899  0.8499 -0.0214 -0.4053
  891MOL0     C22874  11.113   2.410   6.878  0.2724 -0.1853  0.7018
  891MOL0     C22875  11.511   2.397   6.709  0.7778  0.0494  0.2555
  891MOL0     C22876  11.569   2.269   6.680  0.3293  0.2683 -0.1962
  891MOL0     C22877  11.706   2.269   6.671 -0.2227 -0.0833 -0.3513
  891MOL0     C22878  11.787   2.387   6.680  0.8011  0.0436  0.5385
  891MOL0     O22879  11.925   2.401   6.680  0.0283 -0.6344  0.3629
  891MOL0     C22880  12.006   2.280   6.670 -0.7085  0.3281  0.0412
  891MOL0     C22881  12.017   2.221   6.531  0.4559  0.2893  0.4539
  891MOL0     C22882  12.021   2.075   6.533 -0.7720  0.2964  0.1963
  891MOL0     C22883  12.069   2.018   6.400  0.3472  1.0908  0.1664
  891MOL0     C22884  12.150   1.887   6.421  0.2823 -0.0575  0.5706
  891MOL0     C22885  12.215   1.787   6.427 -0.6555 -0.8936 -0.5393
  891MOL0     C22886  11.724   2.506   6.700 -0.0520  0.6637  0.2176
  891MOL0     C22887  11.586   2.516   6.706 -0.0220 -0.8657 -0.2616
  891MOL0     C22888  11.521   2.651   6.703  1.3745  0.2067 -0.4735
  891MOL0     H22889  11.152   2.096   6.747 -1.8099 -0.2569 -0.7832
  891MOL0     H22890  10.911   2.082   6.793 -1.7087  1.0983 -0.9054
  891MOL0     H22891  10.693   2.098   6.923 -0.4226  0.0236  1.1344
  891MOL0     H22892  10.677   2.199   6.776  1.3773  2.7481 -0.1571
  891MOL0     H22893  10.453   2.173   6.875  0.5693  2.1845 -3.5056
  891MOL0     H22894  10.516   2.208   7.035  0.9124  1.5381  1.3061
  891MOL0     H22895  10.408   2.387   6.991  0.7205  0.3278  1.7147
  891MOL0     H22896  10.578   2.445   6.954  1.6196 -1.3375 -1.5577
  891MOL0     H22897  10.530   2.374   6.705 -0.2946 -1.9309  0.0914
  891MOL0     H22898  10.351   2.369   6.743  0.9529 -1.3756  1.0007
  891MOL0     H22899  10.413   2.573   6.644 -0.0724 -1.6739 -0.3431
  891MOL0     H22900  10.537   2.598   6.758  0.4749 -0.6095  0.1595
  891MOL0     H22901  10.238   2.590   6.791 -1.5584  1.0456  0.7245
  891MOL0     H22902  10.350   2.598   6.937 -0.6495 -4.2625 -1.2244
  891MOL0     H22903  10.345   2.792   6.688  2.2697 -0.8205 -0.2045
  891MOL0     H22904  10.460   2.791   6.825  1.7293 -1.0743 -1.8321
  891MOL0     H22905  10.154   2.836   6.823 -0.3167  2.3759 -0.4359
  891MOL0     H22906  10.253   2.818   6.971 -0.8021 -1.3957  0.5073
  891MOL0     H22907  10.094   3.075   6.745  0.2652  0.8821 -0.1431
  891MOL0     H22908  10.126   3.351   6.729  1.7404 -0.7820  0.3146
  891MOL0     H22909  10.193   3.430   6.875  1.3256 -0.4707  1.4759
  891MOL0     H22910   9.949   3.268   6.944 -0.6411 -0.0183  0.7636
  891MOL0     H22911  10.004   3.422   6.996 -1.0594 -2.2334  0.6866
  891MOL0     H22912   9.803   3.459   6.874 -0.6001  2.7459 -2.2068
  891MOL0     H22913   9.940   3.535   6.788  1.5783  0.0129  2.1929
  891MOL0     H22914   9.906   3.353   6.620 -1.9704  0.1867 -1.9478
  891MOL0     H22915   9.824   3.250   6.728 -2.1724  0.9252 -0.5786
  891MOL0     H22916   9.835   3.594   6.582 -1.6402  0.9007  1.5611
  891MOL0     H22917   9.873   3.814   6.501  0.3202 -1.7156  0.1220
  891MOL0     H22918   9.781   3.883   6.384  0.1676  0.1906  0.6107
  891MOL0     H22919   9.911   3.773   6.324  2.0759  1.2748  1.7624
  891MOL0     H22920   9.587   3.791   5.915 -0.5001  0.9742  0.1857
  891MOL0     H22921   9.600   3.946   5.721 -0.7069 -0.6321  0.0908
  891MOL0     H22922   9.738   4.389   5.791 -1.1899 -0.2396 -0.4553
  891MOL0     H22923   9.892   4.289   5.771  1.1125  3.2986 -2.9584
  891MOL0     H22924   9.865   4.302   5.530 -1.0413 -0.9618  0.6973
  891MOL0     H22925   9.697   4.359   5.554  1.0340  1.1231 -0.5491
  891MOL0     H22926   9.970   4.501   5.636  1.0589 -1.8909 -1.5560
  891MOL0     H22927   9.800   4.563   5.667 -0.0863  1.5915 -2.4047
  891MOL0     H22928   9.757   4.619   5.447  0.0647 -0.4556 -1.3995
  891MOL0     H22929   9.884   4.498   5.387  1.2283 -3.2212  2.2916
  891MOL0     H22930  10.049   4.650   5.471  0.5436  1.4244  0.9721
  891MOL0     H22931   9.953   4.717   5.344 -0.0306 -1.9097 -0.4549
  891MOL0     H22932   9.940   4.795   5.636 -1.5217 -1.5569  0.3711
  891MOL0     H22933   9.809   4.838   5.526  1.2097  0.4285  0.9926
  891MOL0     H22934   9.945   4.970   5.391 -0.7578 -1.6886 -0.0421
  891MOL0     H22935  10.097   4.912   5.453 -0.6355 -2.4210 -2.1677
  891MOL0     H22936  10.044   5.005   5.682  2.8852 -0.7096 -2.4761
  891MOL0     H22937   9.892   5.069   5.620  0.2964  0.3852  0.7007
  891MOL0     H22938   9.786   4.227   5.989  0.4339 -1.0343  2.2210
  891MOL0     H22939   9.835   4.061   6.154 -2.1787  2.4815  0.8664
  891MOL0     H22940   9.476   3.520   6.270  1.5765  0.4674 -1.4968
  891MOL0     H22941   9.521   3.360   6.452  1.9971 -1.3483  0.6337
  891MOL0     H22942  10.917   2.472   6.960  0.0266  0.3609 -1.6017
  891MOL0     H22943  11.171   2.494   6.915 -1.2391  0.8369  0.8610
  891MOL0     H22944  11.507   2.180   6.668  0.0288  0.2010  1.5717
  891MOL0     H22945  11.757   2.178   6.640  0.4343  0.3940 -0.7127
  891MOL0     H22946  12.113   2.293   6.690 -0.5627  0.8069 -0.9974
  891MOL0     H22947  11.962   2.202   6.734 -1.7337  0.2698 -0.7073
  891MOL0     H22948  12.108   2.256   6.481 -0.5691  0.2965 -1.5031
  891MOL0     H22949  11.928   2.257   6.478  0.7649  2.5815  1.3710
  891MOL0     H22950  12.101   2.040   6.599 -0.3536  3.4243  1.5594
  891MOL0     H22951  11.927   2.031   6.564 -0.3515 -1.1027 -0.4286
  891MOL0     H22952  12.139   2.086   6.350  1.6553  0.4897  1.1348
  891MOL0     H22953  11.984   1.991   6.336  2.0192 -1.6500 -1.0513
  891MOL0     H22954  12.279   1.704   6.448  0.4213  0.0868  0.1896
  891MOL0     H22955  11.794   2.586   6.724  0.3782  1.6753 -3.7417
  891MOL0     H22956  11.451   2.663   6.786  0.6767  1.7195 -1.2309
  891MOL0     H22957  11.596   2.731   6.709 -1.0643  2.5556  1.5889
  891MOL0     H22958  11.466   2.666   6.609 -0.7030  2.0108  0.9373
  892MOL0     O22959   5.876   5.178  10.063  0.2150  0.7851 -0.3434
  892MOL0     C22960   5.855   5.264  10.152  0.3558  0.0249  0.9469
  892MOL0     O22961   5.805   5.240  10.273 -0.2437 -0.7349  0.2381
  892MOL0     C22962   5.776   5.113  10.309  0.2853 -0.4939 -0.5906
  892MOL0     C22963   5.653   5.058  10.274 -1.3961  0.7301 -0.9083
  892MOL0     C22964   5.606   4.946  10.342 -0.5142 -0.1552  0.0355
  892MOL0     C22965   5.685   4.894  10.447 -0.0503  0.2287  0.7881
  892MOL0     O22966   5.648   4.797  10.535 -0.3455  0.0232 -0.0633
  892MOL0     C22967   5.580   4.689  10.478 -0.8095 -0.4240  0.3529
  892MOL0     C22968   5.607   4.556  10.547  0.1368 -2.1367  0.6473
  892MOL0     C22969   5.605   4.585  10.697 -0.7803  0.0328 -1.1712
  892MOL0     C22970   5.573   4.455  10.781 -0.1123 -0.1038  0.5242
  892MOL0     C22971   5.562   4.489  10.936 -0.6677 -0.3863 -0.5991
  892MOL0     C22972   5.559   4.358  11.015  0.2462  0.1589  0.1967
  892MOL0     C22973   5.542   4.384  11.163  0.1921 -0.9626 -0.5160
  892MOL0     C22974   5.540   4.261  11.253 -0.3048 -0.2868  0.5475
  892MOL0     N22975   5.660   4.179  11.275  0.5042  0.0297  0.5378
  892MOL0     C22976   5.741   4.198  11.386  0.3488  0.8977 -1.0831
  892MOL0     C22977   5.835   4.100  11.374 -0.5619  0.3343 -0.3397
  892MOL0     C22978   5.930   4.070  11.482  0.3758  0.4292 -0.2296
  892MOL0     C22979   5.906   3.956  11.583  0.0189  1.2089 -0.0065
  892MOL0     C22980   5.844   3.822  11.529 -0.2874  0.1072 -0.1469
  892MOL0     C22981   5.888   3.701  11.621 -0.4915  0.3479 -0.4061
  892MOL0     O22982   5.836   3.699  11.755  0.3159 -0.1673  0.4549
  892MOL0     C22983   5.712   3.647  11.777 -0.4646  0.0397 -0.0382
  892MOL0     C22984   5.688   3.592  11.907 -1.0394 -0.7109 -1.1611
  892MOL0     C22985   5.563   3.537  11.935  0.6410  0.2799  0.0406
  892MOL0     C22986   5.546   3.475  12.073  0.3456  0.3571 -0.4110
  892MOL0     C22987   5.457   3.523  11.840 -0.6964 -0.2148 -0.4509
  892MOL0     C22988   5.326   3.472  11.865  0.7349  0.5164  0.0862
  892MOL0     O22989   5.263   3.487  11.993  0.0953  0.3260  0.7573
  892MOL0     C22990   5.161   3.417  12.044  0.1809  0.7786  0.8963
  892MOL0     C22991   5.068   3.489  12.119  0.5976  0.5266 -0.5771
  892MOL0     C22992   4.952   3.413  12.158 -0.1000 -1.0672  1.4476
  892MOL0     C22993   4.919   3.290  12.110 -0.1692 -0.2258  0.1344
  892MOL0     O22994   4.803   3.216  12.136 -0.9463 -0.0418 -0.5240
  892MOL0     C22995   4.695   3.273  12.207  0.1857 -0.6169  0.0113
  892MOL0     C22996   4.602   3.162  12.271  1.6690 -0.2916 -0.0274
  892MOL0     C22997   4.519   3.240  12.383 -0.1160  0.9857 -0.7545
  892MOL0     C22998   4.576   3.196  12.521 -0.0208 -0.9730  0.2169
  892MOL0     C22999   4.475   3.230  12.632 -0.1654 -0.1181 -0.3423
  892MOL0     C23000   4.548   3.291  12.756  0.8078 -0.6426 -0.4312
  892MOL0     C23001   4.647   3.198  12.824 -0.2851  0.1298 -0.0426
  892MOL0     C23002   4.641   3.196  12.974 -0.5820  0.3468 -0.4409
  892MOL0    Cl23003   4.725   3.351  13.023  0.5084 -0.0137 -0.4740
  892MOL0     C23004   5.021   3.223  12.044 -0.5238 -0.4417  0.8944
  892MOL0     C23005   5.148   3.285  12.016  0.2302  0.4905 -0.4595
  892MOL0     O23006   5.271   3.415  11.767 -0.5984 -0.1569 -0.2548
  892MOL0     C23007   5.486   3.571  11.710  0.5103 -0.0941 -0.8933
  892MOL0     C23008   5.611   3.634  11.676  0.2362  1.4894 -0.4218
  892MOL0     N23009   5.817   4.041  11.257  0.1600  0.4430  0.2622
  892MOL0     N23010   5.711   4.082  11.201 -0.3222  0.5309  0.6033
  892MOL0     C23011   5.807   4.946  10.479  0.8280 -0.6627  0.7896
  892MOL0     C23012   5.852   5.057  10.412 -0.6337  0.1828 -0.1156
  892MOL0     C23013   5.852   5.408  10.102  0.2028  0.2721 -0.7347
  892MOL0     C23014   5.827   5.437   9.971  0.6141 -0.2171  0.7331
  892MOL0     C23015   5.831   5.570   9.921 -0.2057  0.3621 -0.2505
  892MOL0     C23016   5.862   5.672  10.005 -0.3274  0.2276 -0.1317
  892MOL0     O23017   5.866   5.804   9.961  0.3315  0.1027  0.6723
  892MOL0     C23018   5.876   5.831   9.822  0.8703 -0.2146 -0.1104
  892MOL0     C23019   5.876   5.978   9.795 -0.1043 -0.2835 -0.5758
  892MOL0     C23020   5.942   6.013   9.657  0.3971 -1.2008  0.4605
  892MOL0     C23021   5.907   6.168   9.624  0.3580 -0.4012 -0.6195
  892MOL0     C23022   5.971   6.261   9.721  0.2862 -0.0334  0.2101
  892MOL0     C23023   6.032   6.320   9.811  0.1687 -0.3581 -0.1775
  892MOL0     C23024   5.876   5.647  10.143  0.1306  0.2830  0.8987
  892MOL0     C23025   5.873   5.513  10.195 -0.0074  0.4545  0.1382
  892MOL0     C23026   5.902   5.498  10.345 -0.0789  0.1986 -0.6442
  892MOL0     H23027   5.597   5.098  10.190  1.4905  0.7821 -2.9183
  892MOL0     H23028   5.518   4.885  10.318  0.9520 -2.5266  0.3378
  892MOL0     H23029   5.609   4.678  10.373 -0.0911 -0.9995  0.6044
  892MOL0     H23030   5.474   4.709  10.463 -0.5054  0.5971 -0.5440
  892MOL0     H23031   5.516   4.506  10.512 -1.9016  1.5002  0.1475
  892MOL0     H23032   5.698   4.508  10.511  0.9138  1.1807 -2.3312
  892MOL0     H23033   5.698   4.631  10.730 -0.0758 -2.6566  1.0496
  892MOL0     H23034   5.523   4.653  10.723  0.8960  1.3919  0.8764
  892MOL0     H23035   5.475   4.415  10.753  0.2796 -1.8355  1.5215
  892MOL0     H23036   5.655   4.384  10.771  2.7417  2.9187  0.5253
  892MOL0     H23037   5.479   4.554  10.963  1.7949  1.5116  3.2874
  892MOL0     H23038   5.657   4.539  10.958 -0.3093 -1.6657  0.9867
  892MOL0     H23039   5.483   4.288  10.979  1.4570 -0.0647 -2.1013
  892MOL0     H23040   5.655   4.309  10.996  1.1358  1.8747  0.0646
  892MOL0     H23041   5.446   4.435  11.173  0.5160 -0.4017 -0.1830
  892MOL0     H23042   5.601   4.468  11.201 -0.7608  0.5744 -2.2999
  892MOL0     H23043   5.516   4.295  11.354  0.2549 -1.6731  1.1819
  892MOL0     H23044   5.450   4.207  11.222  0.1575  0.5140 -2.4971
  892MOL0     H23045   5.730   4.279  11.458  0.6299 -1.3545  1.6552
  892MOL0     H23046   5.949   4.165  11.533 -0.4973 -0.3031  1.5229
  892MOL0     H23047   6.029   4.051  11.439  0.5141  0.7803 -0.0757
  892MOL0     H23048   6.003   3.933  11.628  0.1348  1.1814 -0.2667
  892MOL0     H23049   5.840   3.985  11.666  0.1437  1.4055  0.0256
  892MOL0     H23050   5.736   3.829  11.521 -0.3902 -1.3898 -0.3170
  892MOL0     H23051   5.887   3.808  11.429  1.2014 -0.6793  0.5594
  892MOL0     H23052   5.876   3.612  11.559  0.5841 -0.2466  0.2064
  892MOL0     H23053   5.995   3.716  11.641 -0.6665 -0.2495  1.0893
  892MOL0     H23054   5.758   3.611  11.988 -2.3126  0.7619 -0.3476
  892MOL0     H23055   5.491   3.541  12.140 -0.8453 -1.5058  0.5493
  892MOL0     H23056   5.631   3.448  12.135 -0.0584  2.8535  1.3531
  892MOL0     H23057   5.492   3.380  12.065 -1.0145  1.0715  0.0374
  892MOL0     H23058   5.085   3.595  12.132 -0.5692  1.1292 -3.2589
  892MOL0     H23059   4.878   3.478  12.205  0.0494  0.7485 -0.6604
  892MOL0     H23060   4.748   3.329  12.285  2.3683 -0.5968 -1.4239
  892MOL0     H23061   4.638   3.344  12.146 -1.9250 -2.3060 -0.1238
  892MOL0     H23062   4.529   3.129  12.196 -0.8443 -0.5397  2.3918
  892MOL0     H23063   4.660   3.077  12.308 -0.2497 -2.5473 -1.8774
  892MOL0     H23064   4.418   3.205  12.360  0.6584 -0.9223 -1.5378
  892MOL0     H23065   4.522   3.349  12.374 -0.4532  1.3501  2.4261
  892MOL0     H23066   4.676   3.238  12.536  0.8770 -2.4415 -1.2279
  892MOL0     H23067   4.597   3.089  12.515  0.2636 -1.1307  2.8086
  892MOL0     H23068   4.401   3.302  12.596 -3.3348 -2.4071  1.1044
  892MOL0     H23069   4.423   3.140  12.666  1.1867 -0.0766  2.0614
  892MOL0     H23070   4.471   3.313  12.831  0.5593 -3.5525  0.2875
  892MOL0     H23071   4.582   3.390  12.725 -1.3452 -0.2760 -1.8255
  892MOL0     H23072   4.750   3.222  12.797 -0.3394 -0.5525 -0.9076
  892MOL0     H23073   4.628   3.097  12.786 -0.6062 -0.2130  0.9979
  892MOL0     H23074   4.686   3.100  13.003 -0.8951  0.5880  0.8866
  892MOL0     H23075   4.541   3.196  13.018  0.6210 -2.9856  2.7857
  892MOL0     H23076   5.009   3.121  12.009  0.8244  0.2975 -2.0734
  892MOL0     H23077   5.222   3.223  11.966  2.2139  1.4559  1.1395
  892MOL0     H23078   5.416   3.586  11.628  0.6871  3.9550 -0.4916
  892MOL0     H23079   5.621   3.666  11.572  0.7417 -1.9178 -1.5376
  892MOL0     H23080   5.875   4.916  10.559  1.2421  0.9027  1.0677
  892MOL0     H23081   5.938   5.116  10.443 -0.9631  1.0546 -0.8286
  892MOL0     H23082   5.811   5.360   9.897 -0.6031  1.6748 -1.0699
  892MOL0     H23083   5.817   5.591   9.816  3.9418 -1.2737 -1.3609
  892MOL0     H23084   5.969   5.780   9.794  1.7349  0.0839  2.0222
  892MOL0     H23085   5.787   5.798   9.766 -0.4773  0.1136  1.7596
  892MOL0     H23086   5.946   6.018   9.870  0.8317 -1.3419 -0.8512
  892MOL0     H23087   5.778   6.021   9.815  0.4677 -0.2071  2.6958
  892MOL0     H23088   6.050   5.995   9.656  0.9136  1.3593  1.4879
  892MOL0     H23089   5.896   5.948   9.582  2.2319 -1.0129 -0.9009
  892MOL0     H23090   5.799   6.180   9.637  0.7362  2.4062  0.8013
  892MOL0     H23091   5.949   6.188   9.525  2.9897 -5.2373 -0.7408
  892MOL0     H23092   6.087   6.361   9.893  1.7612 -2.0169 -0.3317
  892MOL0     H23093   5.892   5.738  10.200 -1.6150  1.9740 -1.1349
  892MOL0     H23094   5.969   5.416  10.371 -3.0909 -1.8150  1.3485
  892MOL0     H23095   5.932   5.594  10.390 -0.3138  0.3781 -0.8705
  892MOL0     H23096   5.809   5.473  10.396  0.3440 -1.5461 -0.6684
  893MOL0     O23097   8.398   4.973   0.066 -0.0418 -0.3461  0.2834
  893MOL0     C23098   8.317   4.914  -0.003  0.5164  0.0964  0.3809
  893MOL0     O23099   8.229   4.818   0.042  0.2099 -0.2319 -0.1125
  893MOL0     C23100   8.222   4.792   0.174  0.3881  0.0233 -0.1528
  893MOL0     C23101   8.287   4.681   0.228  0.8357  0.0172 -0.6390
  893MOL0     C23102   8.280   4.668   0.365 -0.3465  0.1286  0.7984
  893MOL0     C23103   8.214   4.766   0.446  0.3124 -0.9788 -0.1569
  893MOL0     O23104   8.222   4.759   0.584  0.4438 -0.7505 -0.0836
  893MOL0     C23105   8.322   4.680   0.640 -0.4495 -0.8719  0.3231
  893MOL0     C23106   8.374   4.724   0.786 -0.0286 -0.1113 -0.0155
  893MOL0     C23107   8.377   4.877   0.798  0.5826  0.2703  0.1868
  893MOL0     C23108   8.469   4.934   0.899  0.4871  1.4580 -0.0215
  893MOL0     C23109   8.471   5.082   0.906 -0.1720  0.6728  0.7440
  893MOL0     C23110   8.584   5.154   0.969  0.0017  0.9285 -0.0881
  893MOL0     C23111   8.596   5.119   1.120 -0.4619 -0.2826 -0.3322
  893MOL0     C23112   8.646   5.241   1.205 -0.0672 -0.2899 -0.2491
  893MOL0     N23113   8.554   5.358   1.187 -0.2911  0.7150 -0.8712
  893MOL0     C23114   8.587   5.484   1.228  0.2566 -0.1316 -0.0533
  893MOL0     C23115   8.476   5.557   1.209 -0.4091  0.0234 -0.0742
  893MOL0     C23116   8.461   5.708   1.215 -0.6321 -0.2473 -0.8079
  893MOL0     C23117   8.407   5.754   1.352  0.1404  0.1367  0.2016
  893MOL0     C23118   8.262   5.725   1.362  0.0576  1.1513 -0.0557
  893MOL0     C23119   8.199   5.753   1.502  0.1931 -0.5636 -0.0498
  893MOL0     O23120   8.059   5.800   1.488  0.2528  0.9567 -0.1167
  893MOL0     C23121   8.032   5.929   1.447 -0.0607  0.2199  0.1999
  893MOL0     C23122   8.118   6.036   1.420 -0.9327  0.4437  0.6191
  893MOL0     C23123   8.067   6.168   1.374 -1.1432  0.6323 -0.6622
  893MOL0     C23124   8.170   6.277   1.348  0.5802 -0.6107 -0.0114
  893MOL0     C23125   7.926   6.183   1.365  0.0876 -0.5890  0.6376
  893MOL0     C23126   7.867   6.311   1.335 -0.0114  0.7001  0.2213
  893MOL0     O23127   7.934   6.424   1.366 -0.4104 -1.0291  0.3172
  893MOL0     C23128   7.895   6.546   1.318  0.2619 -0.3154 -0.7211
  893MOL0     C23129   7.805   6.567   1.213 -0.3680  0.6418 -0.5013
  893MOL0     C23130   7.769   6.697   1.164  0.7881 -0.4803  0.1499
  893MOL0     C23131   7.823   6.812   1.236  0.2275  0.2261 -1.3041
  893MOL0     O23132   7.785   6.931   1.188  0.9480 -0.3568  0.2458
  893MOL0     C23133   7.873   7.047   1.198  0.4470  0.9043  0.3892
  893MOL0     C23134   7.863   7.127   1.069 -0.2050 -0.8425 -0.3695
  893MOL0     C23135   7.945   7.060   0.955  0.7889 -0.4703 -0.0799
  893MOL0     C23136   8.091   7.108   0.960 -0.5064  0.5841  0.9667
  893MOL0     C23137   8.188   7.002   0.930 -0.4460 -0.6031 -0.0614
  893MOL0     C23138   8.167   6.916   0.803  0.3579 -0.1144 -0.5633
  893MOL0     C23139   8.287   6.854   0.746  0.2967 -0.4729 -0.0204
  893MOL0     C23140   8.324   6.727   0.824 -1.0158  0.0101 -0.2750
  893MOL0    Cl23141   8.420   6.636   0.715  0.1601 -0.0413 -0.0067
  893MOL0     C23142   7.922   6.794   1.347 -0.3587  0.2661  0.7529
  893MOL0     C23143   7.951   6.661   1.381 -0.1096 -0.3205  0.7895
  893MOL0     O23144   7.749   6.302   1.293 -0.0610 -0.7929 -0.4978
  893MOL0     C23145   7.848   6.077   1.407 -0.1320  0.3587 -0.3869
  893MOL0     C23146   7.896   5.949   1.435  0.9612 -0.0212  0.0245
  893MOL0     N23147   8.370   5.468   1.168 -0.1344  0.7574 -0.6577
  893MOL0     N23148   8.425   5.355   1.156  0.3053 -0.3574 -0.3111
  893MOL0     C23149   8.134   4.866   0.388 -0.7638 -0.1314  0.0630
  893MOL0     C23150   8.146   4.881   0.248  0.3224 -0.3812  0.5642
  893MOL0     C23151   8.313   4.970  -0.139 -0.2860  1.0106 -0.2158
  893MOL0     C23152   8.423   5.027  -0.201 -0.4987 -0.4688  0.8346
  893MOL0     C23153   8.429   5.046  -0.340  0.6981  0.5088  0.7923
  893MOL0     C23154   8.313   5.045  -0.419 -0.2279  0.2633 -0.1196
  893MOL0     O23155   8.296   5.090  -0.548 -0.4751  0.1545 -0.0753
  893MOL0     C23156   8.407   5.092  -0.629  0.4187 -0.7226  0.4231
  893MOL0     C23157   8.443   5.244  -0.660 -0.1377  0.1324 -0.1428
  893MOL0     C23158   8.340   5.348  -0.612  0.7761 -0.6746 -0.5955
  893MOL0     C23159   8.375   5.502  -0.629 -0.0495 -0.4234  0.3262
  893MOL0     C23160   8.272   5.581  -0.560  0.5655 -1.3259  0.2700
  893MOL0     C23161   8.206   5.658  -0.502  0.7271 -0.3964 -0.6372
  893MOL0     C23162   8.194   5.013  -0.342 -0.1887 -0.0706  0.4793
  893MOL0     C23163   8.194   4.964  -0.212 -0.5352  0.2852  0.9212
  893MOL0     C23164   8.056   4.931  -0.150 -0.1803 -0.8160 -0.2248
  893MOL0     H23165   8.337   4.610   0.163 -0.3921  0.4911 -2.1546
  893MOL0     H23166   8.330   4.577   0.399 -2.0288 -0.5358  1.6348
  893MOL0     H23167   8.410   4.698   0.578 -0.8658 -0.3207 -0.1234
  893MOL0     H23168   8.295   4.577   0.613  1.1556 -1.2634  0.1321
  893MOL0     H23169   8.302   4.683   0.857 -0.6333  1.4186  0.2914
  893MOL0     H23170   8.472   4.682   0.809 -0.4209  0.0542  2.1785
  893MOL0     H23171   8.398   4.920   0.700  2.5266 -0.6562  0.1359
  893MOL0     H23172   8.278   4.917   0.818  0.1425 -1.1128  0.9196
  893MOL0     H23173   8.445   4.888   0.995  4.3275 -2.2899 -0.5140
  893MOL0     H23174   8.571   4.894   0.886  0.6165  1.6742  0.3104
  893MOL0     H23175   8.386   5.120   0.964 -0.7867 -0.3346  0.5140
  893MOL0     H23176   8.482   5.130   0.808  0.8293 -0.2637  0.3835
  893MOL0     H23177   8.671   5.132   0.908 -2.2443 -0.4628 -3.0282
  893MOL0     H23178   8.569   5.260   0.950 -0.4835  0.3695 -3.3346
  893MOL0     H23179   8.662   5.034   1.139 -0.4736 -0.0823  0.7036
  893MOL0     H23180   8.493   5.097   1.150 -1.2022 -0.5130 -2.8812
  893MOL0     H23181   8.628   5.216   1.310  0.9180 -0.2018 -0.0510
  893MOL0     H23182   8.750   5.263   1.181 -0.5350 -0.7475 -3.0575
  893MOL0     H23183   8.683   5.524   1.258  1.9947 -3.0497 -1.2780
  893MOL0     H23184   8.398   5.746   1.134 -0.2119 -0.5371 -1.2770
  893MOL0     H23185   8.562   5.748   1.206 -0.8502  0.5231  0.0369
  893MOL0     H23186   8.469   5.695   1.420  1.4758 -2.6099 -3.0998
  893MOL0     H23187   8.421   5.860   1.372 -1.2019  0.1615  1.0859
  893MOL0     H23188   8.207   5.783   1.287 -1.4219  0.5247  0.5094
  893MOL0     H23189   8.242   5.621   1.336 -0.5834  2.0909 -3.8811
  893MOL0     H23190   8.197   5.656   1.553  0.3496 -0.0172  1.0157
  893MOL0     H23191   8.252   5.824   1.566 -0.7955 -1.2934  1.6658
  893MOL0     H23192   8.223   6.024   1.443 -0.2353  1.6313 -1.6233
  893MOL0     H23193   8.268   6.229   1.355  0.8652  0.1593  2.0018
  893MOL0     H23194   8.179   6.358   1.421  1.8021  0.1714 -0.9851
  893MOL0     H23195   8.150   6.323   1.251 -1.9522 -0.2898  0.6002
  893MOL0     H23196   7.780   6.482   1.150  1.5942  0.9892 -1.8271
  893MOL0     H23197   7.715   6.724   1.074  3.0214  1.5021 -0.7130
  893MOL0     H23198   7.847   7.109   1.284  2.7907  0.0906  1.7866
  893MOL0     H23199   7.976   7.025   1.227 -0.1293 -0.7175  1.3193
  893MOL0     H23200   7.756   7.120   1.047 -0.3281  0.8811 -0.4416
  893MOL0     H23201   7.890   7.231   1.086  1.3057 -1.1699 -0.6064
  893MOL0     H23202   7.905   7.103   0.862 -1.2710  0.7990  1.3342
  893MOL0     H23203   7.938   6.951   0.955 -0.8687 -0.3899  1.1501
  893MOL0     H23204   8.113   7.159   1.054 -0.8690  3.1910 -0.2679
  893MOL0     H23205   8.103   7.177   0.875 -1.3755 -0.8592 -0.3783
  893MOL0     H23206   8.291   7.036   0.917  0.4223 -2.9567  0.1623
  893MOL0     H23207   8.185   6.936   1.017 -0.9505 -2.1565 -1.2131
  893MOL0     H23208   8.110   6.971   0.728 -4.3502 -2.4485  0.8966
  893MOL0     H23209   8.106   6.831   0.837 -0.5053  0.3225 -0.9981
  893MOL0     H23210   8.361   6.934   0.742  1.5098 -1.6002 -1.1799
  893MOL0     H23211   8.268   6.811   0.647 -1.6753  3.6384 -1.6720
  893MOL0     H23212   8.236   6.671   0.857 -1.1066  0.2488 -0.1064
  893MOL0     H23213   8.379   6.750   0.916 -1.5304  2.3018 -0.4668
  893MOL0     H23214   7.953   6.885   1.399 -1.5292  1.3885 -0.4500
  893MOL0     H23215   8.020   6.629   1.459 -0.1271  1.0378  1.3878
  893MOL0     H23216   7.741   6.095   1.404  0.2898  3.9602  0.6848
  893MOL0     H23217   7.831   5.865   1.459  2.7458 -2.0227 -1.7042
  893MOL0     H23218   8.071   4.934   0.445 -0.0227  1.4437 -0.9413
  893MOL0     H23219   8.083   4.958   0.205 -1.2444 -1.2065  1.2964
  893MOL0     H23220   8.510   5.055  -0.143 -0.2436  1.1383 -0.2441
  893MOL0     H23221   8.519   5.076  -0.392  0.4701 -2.3309 -1.4689
  893MOL0     H23222   8.493   5.038  -0.586  0.8545  1.2333  2.1539
  893MOL0     H23223   8.382   5.031  -0.716  3.8360 -1.7693  0.0295
  893MOL0     H23224   8.472   5.252  -0.765  2.3480 -2.5431  0.2049
  893MOL0     H23225   8.535   5.269  -0.606  0.9507 -1.4629 -1.1787
  893MOL0     H23226   8.251   5.343  -0.676 -1.0258 -1.7183  1.8021
  893MOL0     H23227   8.301   5.335  -0.510 -0.2011 -2.2092 -1.1332
  893MOL0     H23228   8.383   5.538  -0.732 -0.3868  4.0339  1.6639
  893MOL0     H23229   8.469   5.510  -0.575 -0.6608 -0.4573  1.4242
  893MOL0     H23230   8.147   5.725  -0.443  0.6355 -1.1144  0.0983
  893MOL0     H23231   8.103   5.012  -0.401 -0.3825  1.6056  0.7164
  893MOL0     H23232   8.039   4.988  -0.058  0.4333  0.8535 -1.0951
  893MOL0     H23233   7.971   4.943  -0.219 -0.5743 -1.6079  0.1045
  893MOL0     H23234   8.049   4.827  -0.118 -2.2502 -0.6870 -0.1103
  894MOL0     O23235   8.194   1.227   0.823 -0.0184 -1.1368 -0.1306
  894MOL0     C23236   8.176   1.308   0.737 -1.0406 -0.5707 -0.2674
  894MOL0     O23237   8.143   1.279   0.607 -0.0093 -0.1280 -0.3923
  894MOL0     C23238   8.117   1.144   0.574 -0.0214 -1.2812 -0.2852
  894MOL0     C23239   7.999   1.115   0.517  0.5835  0.6890 -0.0351
  894MOL0     C23240   7.978   0.984   0.478  0.4597  0.7324  0.3978
  894MOL0     C23241   8.073   0.887   0.500 -0.9273 -0.6828 -0.0679
  894MOL0     O23242   8.051   0.760   0.465  0.3760 -0.4428 -0.4248
  894MOL0     C23243   8.154   0.687   0.399  0.5595 -0.4670 -0.0067
  894MOL0     C23244   8.132   0.539   0.387 -0.3627  0.1562 -0.7720
  894MOL0     C23245   8.012   0.506   0.304 -0.9831 -0.1729 -0.4783
  894MOL0     C23246   8.012   0.350   0.309 -0.5980  0.6111 -0.1801
  894MOL0     C23247   7.911   0.300   0.204  0.2963  1.6974 -0.6146
  894MOL0     C23248   7.912   0.147   0.195 -0.5245 -0.1987 -0.3523
  894MOL0     C23249   7.812   0.081   0.094  0.5152  0.4873  0.2779
  894MOL0     C23250   7.658   0.074   0.139 -0.5478 -0.6485 -0.2055
  894MOL0     N23251   7.565   0.077   0.031  1.1713 -0.2993  0.6613
  894MOL0     C23252   7.556  -0.034  -0.051  0.2086 -0.4433 -0.6562
  894MOL0     C23253   7.488   0.013  -0.164  0.1841 -1.1149 -0.2980
  894MOL0     C23254   7.465  -0.054  -0.301 -0.2486 -0.0740 -0.9288
  894MOL0     C23255   7.525  -0.199  -0.290 -0.5817  0.7990 -0.4905
  894MOL0     C23256   7.526  -0.265  -0.429  0.1829  0.4524  0.1792
  894MOL0     C23257   7.577  -0.405  -0.430  0.3476  0.0347 -0.9592
  894MOL0     O23258   7.709  -0.419  -0.371  0.5566  1.2861 -0.1663
  894MOL0     C23259   7.790  -0.521  -0.425  0.7640 -0.2128  0.5040
  894MOL0     C23260   7.753  -0.655  -0.422  0.2487  0.4698  0.5220
  894MOL0     C23261   7.832  -0.756  -0.475 -0.1602 -0.4459  0.2771
  894MOL0     C23262   7.771  -0.903  -0.474  0.1297  0.2118  0.2486
  894MOL0     C23263   7.953  -0.718  -0.538  0.5967 -0.9025  0.9604
  894MOL0     C23264   8.052  -0.808  -0.606  0.0726 -0.0306  0.5963
  894MOL0     O23265   8.042  -0.944  -0.591 -0.3439 -0.0287 -0.4622
  894MOL0     C23266   8.132  -1.012  -0.667 -0.0789 -0.4405 -0.1831
  894MOL0     C23267   8.116  -1.041  -0.808  0.5630  0.7726  0.6373
  894MOL0     C23268   8.206  -1.103  -0.878 -0.3706  0.1739 -0.0010
  894MOL0     C23269   8.331  -1.149  -0.811 -0.0190 -0.3858  0.1375
  894MOL0     O23270   8.424  -1.237  -0.863 -0.1864 -0.1745 -0.0642
  894MOL0     C23271   8.415  -1.273  -1.002 -1.3516  0.4104  0.0641
  894MOL0     C23272   8.485  -1.156  -1.072 -0.5826 -0.0684 -0.4246
  894MOL0     C23273   8.462  -1.143  -1.224  1.5981  0.4649 -0.1611
  894MOL0     C23274   8.517  -1.273  -1.299  0.7093  0.5781  1.6519
  894MOL0     C23275   8.515  -1.249  -1.453  0.4673 -0.0507 -0.3151
  894MOL0     C23276   8.556  -1.375  -1.527 -0.0359 -0.4617 -0.1601
  894MOL0     C23277   8.516  -1.356  -1.676  0.4827 -0.0347 -0.8063
  894MOL0     C23278   8.563  -1.223  -1.737 -0.4046 -0.5015 -0.0338
  894MOL0    Cl23279   8.598  -1.249  -1.909  0.0971  0.0416  0.0893
  894MOL0     C23280   8.343  -1.122  -0.676 -1.1802 -0.1556 -0.1836
  894MOL0     C23281   8.250  -1.044  -0.608 -0.3555 -0.3555  0.9032
  894MOL0     O23282   8.146  -0.749  -0.656  0.1129  0.6112 -0.1554
  894MOL0     C23283   7.980  -0.575  -0.552 -0.3777  0.3119 -0.1020
  894MOL0     C23284   7.902  -0.479  -0.487 -0.4822 -0.1640 -0.2325
  894MOL0     N23285   7.438   0.143  -0.140  0.2876 -0.1848 -0.5612
  894MOL0     N23286   7.479   0.175  -0.015  0.4147  0.4469  0.8170
  894MOL0     C23287   8.191   0.924   0.570 -0.7733  0.4228  0.3630
  894MOL0     C23288   8.221   1.054   0.589 -0.7442 -0.6206 -0.1819
  894MOL0     C23289   8.162   1.454   0.771 -0.2048  0.3276  0.0711
  894MOL0     C23290   8.151   1.550   0.662 -0.2841  0.0024  0.6835
  894MOL0     C23291   8.120   1.691   0.686  0.0308 -0.9057  0.3587
  894MOL0     C23292   8.084   1.722   0.817 -0.2557  0.2339  0.1230
  894MOL0     O23293   8.026   1.840   0.843 -0.0655  0.0777 -0.5462
  894MOL0     C23294   8.118   1.946   0.873  0.3760 -0.1053 -0.4363
  894MOL0     C23295   8.169   1.939   1.025 -0.6982 -0.2113 -0.3749
  894MOL0     C23296   8.237   2.068   1.069 -0.3861 -0.0715  0.0329
  894MOL0     C23297   8.286   2.056   1.207  0.1799  0.3605  0.5434
  894MOL0     C23298   8.178   2.032   1.301  0.0567  0.3256  0.1779
  894MOL0     C23299   8.091   2.016   1.391 -0.8154 -0.5886  0.2374
  894MOL0     C23300   8.098   1.631   0.922 -0.4166  0.5416  1.1008
  894MOL0     C23301   8.142   1.500   0.900  0.5982 -0.1995  1.2634
  894MOL0     C23302   8.111   1.411   1.020 -0.5593  0.4050  0.0686
  894MOL0     H23303   7.924   1.192   0.509 -0.1740  0.0507  0.7519
  894MOL0     H23304   7.886   0.956   0.428  1.3789  3.0492 -2.9671
  894MOL0     H23305   8.247   0.706   0.454  0.8422 -0.1219 -0.6021
  894MOL0     H23306   8.162   0.730   0.299 -0.3565 -0.4825 -0.0942
  894MOL0     H23307   8.217   0.503   0.329 -0.0113 -0.6737  0.2349
  894MOL0     H23308   8.130   0.503   0.490  0.7251 -1.7752 -1.3709
  894MOL0     H23309   7.915   0.536   0.344 -0.1854  1.5055  0.3197
  894MOL0     H23310   8.027   0.547   0.204  0.4738 -3.2340 -1.6151
  894MOL0     H23311   8.114   0.316   0.290 -1.2118 -0.6241 -1.4262
  894MOL0     H23312   7.982   0.310   0.407  2.0779  0.8104  0.8081
  894MOL0     H23313   7.948   0.347   0.112  1.5411  1.0580 -0.4624
  894MOL0     H23314   7.807   0.326   0.221 -1.3478 -3.5140 -1.0277
  894MOL0     H23315   8.008   0.103   0.167 -0.1737  0.6797 -0.5705
  894MOL0     H23316   7.879   0.114   0.294 -1.8419 -0.9847 -1.0210
  894MOL0     H23317   7.841  -0.022   0.069 -1.9979 -0.3968  0.7728
  894MOL0     H23318   7.815   0.136  -0.001 -1.6552 -5.1083 -3.5931
  894MOL0     H23319   7.637   0.007   0.223 -2.1910  3.1496  2.7349
  894MOL0     H23320   7.642   0.168   0.194  0.9083 -0.6652  0.2815
  894MOL0     H23321   7.610  -0.127  -0.032 -0.7276 -0.5280  2.0694
  894MOL0     H23322   7.501   0.005  -0.385  0.1236  1.4308  0.2390
  894MOL0     H23323   7.356  -0.058  -0.310 -0.2493 -0.9433 -0.6876
  894MOL0     H23324   7.630  -0.195  -0.260 -0.6989 -1.1175  0.2572
  894MOL0     H23325   7.476  -0.260  -0.215  2.4751  0.0844  1.0635
  894MOL0     H23326   7.432  -0.253  -0.482  0.6242 -0.1999 -0.7885
  894MOL0     H23327   7.602  -0.217  -0.491 -0.9889 -0.1641 -1.8424
  894MOL0     H23328   7.501  -0.469  -0.383  2.3465 -0.6109  1.6269
  894MOL0     H23329   7.588  -0.445  -0.531 -2.0992 -1.2006 -0.8226
  894MOL0     H23330   7.660  -0.685  -0.375  0.3314  0.7086  0.8391
  894MOL0     H23331   7.832  -0.974  -0.419 -1.5297  0.8490  3.1106
  894MOL0     H23332   7.757  -0.940  -0.576 -2.5800 -0.5293  0.8117
  894MOL0     H23333   7.675  -0.905  -0.422  0.6903  2.8093  1.5799
  894MOL0     H23334   8.029  -1.014  -0.867  1.6620 -1.3989 -2.2361
  894MOL0     H23335   8.191  -1.127  -0.983  0.8623 -2.0128  0.2818
  894MOL0     H23336   8.471  -1.367  -1.008  0.8924  1.6886  0.0926
  894MOL0     H23337   8.313  -1.291  -1.039 -2.0076  1.7202  1.1556
  894MOL0     H23338   8.452  -1.055  -1.048  0.6038  0.1035  0.6006
  894MOL0     H23339   8.592  -1.158  -1.048 -0.6707  1.6586  0.2465
  894MOL0     H23340   8.499  -1.048  -1.261 -0.0993  2.2541  2.3440
  894MOL0     H23341   8.355  -1.133  -1.243  1.0246  0.1081  2.4038
  894MOL0     H23342   8.453  -1.360  -1.283 -2.1392  2.5119  1.5750
  894MOL0     H23343   8.616  -1.305  -1.264  1.7180  2.2196  0.4127
  894MOL0     H23344   8.417  -1.205  -1.469  0.4315  1.3246  2.8767
  894MOL0     H23345   8.597  -1.181  -1.479  1.0259 -1.0269 -1.2390
  894MOL0     H23346   8.502  -1.464  -1.494 -2.1019  1.4470  1.9010
  894MOL0     H23347   8.664  -1.396  -1.529  0.3602  1.4908 -0.8122
  894MOL0     H23348   8.407  -1.361  -1.682  0.1873  1.0467  2.0463
  894MOL0     H23349   8.565  -1.433  -1.737  5.7465  1.5631  0.8846
  894MOL0     H23350   8.656  -1.192  -1.689 -2.1526  0.9525  2.6685
  894MOL0     H23351   8.492  -1.142  -1.721 -0.0606 -0.8044  4.2910
  894MOL0     H23352   8.430  -1.161  -0.624 -2.4737 -2.2839  0.4940
  894MOL0     H23353   8.262  -1.021  -0.502  3.8882  0.6468  0.3932
  894MOL0     H23354   8.069  -0.536  -0.600 -2.1493  2.5042 -1.7941
  894MOL0     H23355   7.932  -0.375  -0.496  1.8691 -0.6898  0.6836
  894MOL0     H23356   8.268   0.853   0.598  0.1603  2.0621  2.1832
  894MOL0     H23357   8.312   1.088   0.638 -0.0016  0.3738 -2.1570
  894MOL0     H23358   8.167   1.511   0.562  0.3996  0.2265  0.7017
  894MOL0     H23359   8.107   1.762   0.605  2.1641 -1.8537 -0.8885
  894MOL0     H23360   8.200   1.942   0.800 -0.9712  1.6913 -2.1670
  894MOL0     H23361   8.076   2.047   0.868 -0.8288 -0.5492  0.4856
  894MOL0     H23362   8.237   1.854   1.033 -3.8127 -3.1278 -2.2515
  894MOL0     H23363   8.085   1.903   1.083 -1.0753 -1.2197 -1.5043
  894MOL0     H23364   8.328   2.086   1.011 -0.7407  1.6220 -0.0649
  894MOL0     H23365   8.167   2.152   1.072 -0.0589  0.1854  1.4514
  894MOL0     H23366   8.349   2.143   1.230  0.5915  0.2137  0.0024
  894MOL0     H23367   8.346   1.964   1.206 -0.1461  0.0260  3.3376
  894MOL0     H23368   8.032   1.999   1.479  0.3669  0.5017  1.2990
  894MOL0     H23369   8.068   1.659   1.022  0.7371 -2.8847  2.5466
  894MOL0     H23370   8.204   1.366   1.058 -0.3732  2.4331  2.2155
  894MOL0     H23371   8.066   1.467   1.102  1.6341 -0.2092  1.7949
  894MOL0     H23372   8.041   1.331   0.994 -0.9574  0.0610  2.0784
  895MOL0     O23373   7.438   2.707   8.618  0.2825  0.0135 -0.6791
  895MOL0     C23374   7.490   2.696   8.508  0.1099  0.7282  0.1016
  895MOL0     O23375   7.511   2.576   8.446 -0.0641 -0.1897 -0.1629
  895MOL0     C23376   7.497   2.462   8.519  1.0204 -0.4782 -0.4909
  895MOL0     C23377   7.441   2.362   8.437 -0.2092  0.4171  0.1659
  895MOL0     C23378   7.395   2.240   8.489  0.0779  0.1468 -0.0421
  895MOL0     C23379   7.430   2.213   8.623  0.6406  0.8113 -0.8299
  895MOL0     O23380   7.423   2.086   8.676  0.1809 -0.9423  0.4564
  895MOL0     C23381   7.306   2.005   8.645 -0.4032 -0.5026  0.0248
  895MOL0     C23382   7.272   1.905   8.760  0.0252  0.1996  0.6469
  895MOL0     C23383   7.261   1.972   8.893  0.2910 -0.4803 -1.4663
  895MOL0     C23384   7.381   1.969   8.994  0.1373 -0.2562 -0.2816
  895MOL0     C23385   7.348   2.018   9.147 -0.6731  0.1387  0.8319
  895MOL0     C23386   7.333   2.166   9.153  0.8888  0.6041 -0.0119
  895MOL0     C23387   7.247   2.216   9.266  0.3964  0.6673 -0.7131
  895MOL0     C23388   7.271   2.150   9.404 -0.1828 -0.1800  0.6939
  895MOL0     N23389   7.218   2.237   9.506 -0.5716  0.2689  0.8056
  895MOL0     C23390   7.124   2.206   9.599  0.3286 -0.4068 -0.0144
  895MOL0     C23391   7.121   2.317   9.679 -0.5307  0.7647  0.5400
  895MOL0     C23392   7.025   2.336   9.795 -0.6073  0.2588 -0.3301
  895MOL0     C23393   6.885   2.342   9.746  0.0329 -0.0386  0.2039
  895MOL0     C23394   6.791   2.328   9.859  0.2410 -0.1166 -0.0707
  895MOL0     C23395   6.788   2.195   9.924  0.1641  0.8244  0.0936
  895MOL0     O23396   6.671   2.187  10.001 -0.1206 -0.4636 -0.2169
  895MOL0     C23397   6.550   2.146   9.946 -0.2840 -0.1815 -0.3108
  895MOL0     C23398   6.436   2.230   9.973  1.0202  0.2384  0.5539
  895MOL0     C23399   6.313   2.203   9.913  0.7542 -0.9390  0.2851
  895MOL0     C23400   6.203   2.300   9.932  0.3439 -0.1076  0.4368
  895MOL0     C23401   6.310   2.087   9.826  0.1491 -1.2129  0.7406
  895MOL0     C23402   6.188   2.034   9.762 -0.4088  0.1628 -0.1299
  895MOL0     O23403   6.195   1.987   9.628 -0.4717 -0.6780  0.0172
  895MOL0     C23404   6.076   1.945   9.574  0.0488 -1.1583 -1.4191
  895MOL0     C23405   6.020   2.012   9.466 -1.4423  1.3516 -0.1175
  895MOL0     C23406   5.889   1.977   9.416  0.5223  0.8324  0.3080
  895MOL0     C23407   5.821   1.869   9.484  0.7204  0.1361  0.4073
  895MOL0     O23408   5.701   1.813   9.447 -0.3470 -0.3285  0.5527
  895MOL0     C23409   5.597   1.898   9.381  0.4192 -0.2681  0.3972
  895MOL0     C23410   5.468   1.832   9.364  0.1665 -0.6631 -1.0349
  895MOL0     C23411   5.411   1.778   9.501 -0.0446 -0.5044 -0.0556
  895MOL0     C23412   5.272   1.730   9.468  0.1253  0.3554 -0.4236
  895MOL0     C23413   5.191   1.732   9.596 -0.2112  0.0012  0.2873
  895MOL0     C23414   5.063   1.667   9.563  1.3674 -0.2097  0.0003
  895MOL0     C23415   4.985   1.644   9.692  0.1892  0.6779  0.6931
  895MOL0     C23416   4.834   1.678   9.668 -0.0660 -0.2063 -0.8710
  895MOL0    Cl23417   4.775   1.612   9.513 -0.2070 -0.7371  0.2577
  895MOL0     C23418   5.883   1.800   9.592 -0.0583 -1.8426  0.5198
  895MOL0     C23419   6.016   1.836   9.630 -0.4624 -0.4147 -0.7405
  895MOL0     O23420   6.090   2.037   9.830  0.6964 -0.7487 -0.9909
  895MOL0     C23421   6.422   2.005   9.804  0.0524 -0.1144  0.0700
  895MOL0     C23422   6.541   2.035   9.866  0.0410 -0.1204 -0.6738
  895MOL0     N23423   7.207   2.409   9.633  0.1596 -0.3661 -0.3413
  895MOL0     N23424   7.269   2.357   9.532 -0.1209 -0.1360  0.2265
  895MOL0     C23425   7.496   2.305   8.706 -0.3577 -0.2984  0.0387
  895MOL0     C23426   7.518   2.435   8.651  0.0793  0.5401 -0.3808
  895MOL0     C23427   7.495   2.818   8.426  0.6366 -0.4803 -0.3648
  895MOL0     C23428   7.482   2.944   8.488  0.1026 -0.9841  0.9633
  895MOL0     C23429   7.493   3.068   8.419  0.4873  0.2492 -1.2250
  895MOL0     C23430   7.506   3.063   8.286 -0.0382 -0.8927  0.6399
  895MOL0     O23431   7.497   3.175   8.207 -0.3925 -0.1477  0.0280
  895MOL0     C23432   7.525   3.315   8.247  0.9236 -0.1124  0.2950
  895MOL0     C23433   7.649   3.369   8.199  0.1257 -0.0378  0.6232
  895MOL0     C23434   7.757   3.298   8.272  0.7791  0.0451 -1.2108
  895MOL0     C23435   7.888   3.339   8.206  0.0825  0.6073 -0.0548
  895MOL0     C23436   8.001   3.267   8.258 -0.3438  0.6159 -0.2185
  895MOL0     C23437   8.095   3.209   8.304 -0.6258 -0.8315  0.7535
  895MOL0     C23438   7.506   2.945   8.225 -0.8269 -0.3345  0.5573
  895MOL0     C23439   7.500   2.823   8.284  0.0197 -0.1257  0.4323
  895MOL0     C23440   7.493   2.706   8.190  0.7164  1.1816 -0.1875
  895MOL0     H23441   7.421   2.388   8.334  0.4821  0.0684 -0.0595
  895MOL0     H23442   7.350   2.162   8.428 -1.2477  1.0205 -0.2317
  895MOL0     H23443   7.335   1.943   8.559 -0.5521 -1.0874  0.3906
  895MOL0     H23444   7.227   2.067   8.602  2.9920  2.0983 -3.1556
  895MOL0     H23445   7.184   1.842   8.746  2.2046 -2.5487 -2.2919
  895MOL0     H23446   7.353   1.832   8.773 -0.7655 -0.4885  1.8502
  895MOL0     H23447   7.232   2.078   8.885 -1.3624 -0.7870 -0.1297
  895MOL0     H23448   7.178   1.927   8.949 -0.2121 -0.2563 -2.0117
  895MOL0     H23449   7.420   1.867   8.989  1.0267  0.1115 -1.4645
  895MOL0     H23450   7.464   2.033   8.962 -0.8493  1.3014  0.1742
  895MOL0     H23451   7.433   1.993   9.211  1.8030  0.0355 -2.2407
  895MOL0     H23452   7.263   1.962   9.187 -0.0184 -1.6147 -0.1380
  895MOL0     H23453   7.430   2.216   9.157 -0.2981  3.1407 -1.2001
  895MOL0     H23454   7.287   2.204   9.062  2.1185 -1.1090 -1.4142
  895MOL0     H23455   7.145   2.206   9.226  1.4210  2.3404 -4.1382
  895MOL0     H23456   7.270   2.323   9.269  1.4943  0.4598 -1.2563
  895MOL0     H23457   7.225   2.052   9.387  0.0950  0.1446 -2.4866
  895MOL0     H23458   7.379   2.148   9.417 -0.3356 -1.2871  1.9684
  895MOL0     H23459   7.067   2.115   9.616  0.2027 -0.1939  0.7514
  895MOL0     H23460   7.056   2.421   9.855  1.2538 -1.2798  1.0077
  895MOL0     H23461   7.027   2.250   9.863 -0.4309  0.7040  0.2347
  895MOL0     H23462   6.866   2.444   9.712 -1.7146 -0.2952  0.3391
  895MOL0     H23463   6.874   2.271   9.663  0.1520 -2.0061  1.7939
  895MOL0     H23464   6.826   2.400   9.934  2.4859 -1.5709  0.3586
  895MOL0     H23465   6.688   2.351   9.830  0.5307  2.2336  0.5054
  895MOL0     H23466   6.797   2.118   9.848  1.4651  2.2625 -1.2802
  895MOL0     H23467   6.872   2.188   9.995  0.7701 -3.3535 -0.8310
  895MOL0     H23468   6.449   2.320  10.033 -1.0329  0.2626  1.0116
  895MOL0     H23469   6.238   2.383   9.993  1.5028 -0.7162  0.6178
  895MOL0     H23470   6.116   2.246   9.971 -2.0351  3.1340 -0.0221
  895MOL0     H23471   6.177   2.330   9.830  0.3083  6.3006  1.9161
  895MOL0     H23472   6.075   2.100   9.435 -0.6474  0.6828 -0.6701
  895MOL0     H23473   5.824   2.026   9.344  1.7444 -0.0963 -1.5086
  895MOL0     H23474   5.593   1.996   9.429 -1.1264  0.8652 -1.8878
  895MOL0     H23475   5.631   1.906   9.277 -1.3508  1.0766 -0.1180
  895MOL0     H23476   5.406   1.908   9.314 -0.4110 -0.0143  0.5845
  895MOL0     H23477   5.484   1.748   9.296  1.3676 -0.3353 -1.1805
  895MOL0     H23478   5.414   1.845   9.587  0.6195 -1.7131  0.9111
  895MOL0     H23479   5.470   1.691   9.532  3.2081  0.5781 -2.6564
  895MOL0     H23480   5.270   1.631   9.423 -0.5661  1.5793 -3.3043
  895MOL0     H23481   5.229   1.788   9.386  0.4432  0.2056 -0.6977
  895MOL0     H23482   5.249   1.684   9.676  1.2056  2.1105  0.6206
  895MOL0     H23483   5.177   1.836   9.627 -1.5147 -0.7879  2.6309
  895MOL0     H23484   5.087   1.568   9.524 -1.5643 -0.4737 -1.4157
  895MOL0     H23485   5.003   1.717   9.487  3.4914 -0.6623 -2.1095
  895MOL0     H23486   5.020   1.703   9.777  1.6587  0.8253  0.0122
  895MOL0     H23487   4.991   1.537   9.717  0.9123  1.3669  3.9845
  895MOL0     H23488   4.830   1.787   9.660  2.4177 -0.1144 -1.7494
  895MOL0     H23489   4.763   1.650   9.747  0.8592  2.6953  1.1617
  895MOL0     H23490   5.846   1.705   9.627  1.1328 -2.4765  0.1320
  895MOL0     H23491   6.060   1.775   9.709 -1.3601 -0.4305 -0.2333
  895MOL0     H23492   6.416   1.916   9.742  0.7974 -0.3628  0.3434
  895MOL0     H23493   6.634   1.980   9.854  0.1738  0.2557 -1.4511
  895MOL0     H23494   7.508   2.277   8.810 -0.3612  0.4518  0.2517
  895MOL0     H23495   7.548   2.518   8.714 -0.3398 -0.2251  0.8796
  895MOL0     H23496   7.454   2.940   8.593 -0.2655 -0.0806  0.9117
  895MOL0     H23497   7.512   3.159   8.475  0.8193  0.5513 -1.8208
  895MOL0     H23498   7.440   3.369   8.205  0.9949 -1.1096 -1.2257
  895MOL0     H23499   7.526   3.324   8.356 -2.5260 -3.0276  0.7829
  895MOL0     H23500   7.674   3.476   8.203  2.5683 -0.4294 -1.6123
  895MOL0     H23501   7.650   3.350   8.092 -6.0439  0.5358  0.1306
  895MOL0     H23502   7.765   3.328   8.377 -1.6421  0.8202 -1.1758
  895MOL0     H23503   7.748   3.190   8.259  1.2719 -0.0966 -0.4197
  895MOL0     H23504   7.906   3.446   8.219 -1.5033  0.7136  1.7021
  895MOL0     H23505   7.884   3.309   8.101  5.3124 -0.5502 -0.2139
  895MOL0     H23506   8.180   3.149   8.331 -0.7782 -2.3852 -1.9010
  895MOL0     H23507   7.514   2.954   8.117 -1.1412  0.5210  0.5969
  895MOL0     H23508   7.407   2.641   8.211  1.9768  0.2142  2.4486
  895MOL0     H23509   7.496   2.730   8.083  3.7916 -1.9960 -1.0036
  895MOL0     H23510   7.580   2.648   8.221 -1.1553 -1.2442  0.8707
  896MOL0     O23511   1.635   1.609   9.436 -1.0042 -0.1594  1.0279
  896MOL0     C23512   1.650   1.624   9.557  0.2546  0.3529 -0.1623
  896MOL0     O23513   1.637   1.743   9.634 -0.2063 -0.1006 -0.2104
  896MOL0     C23514   1.610   1.858   9.571  0.1622  0.7915 -0.0046
  896MOL0     C23515   1.677   1.976   9.600 -0.5053 -0.3646 -0.6372
  896MOL0     C23516   1.637   2.096   9.534 -0.1813 -0.3364  0.3201
  896MOL0     C23517   1.532   2.106   9.444  0.2957  0.1025  0.4153
  896MOL0     O23518   1.500   2.228   9.381  0.3353  0.2689  0.3588
  896MOL0     C23519   1.386   2.231   9.285  0.2101  0.0400 -0.2844
  896MOL0     C23520   1.327   2.368   9.286  0.1071 -0.3431 -0.0904
  896MOL0     C23521   1.417   2.479   9.236 -0.0984  0.1344 -0.9366
  896MOL0     C23522   1.433   2.475   9.083  0.2260 -0.6029 -0.3468
  896MOL0     C23523   1.327   2.555   9.007 -0.4376  0.1803  0.7384
  896MOL0     C23524   1.304   2.518   8.858 -0.6351 -0.3034 -0.1856
  896MOL0     C23525   1.207   2.388   8.845 -1.3088 -0.2668 -0.6127
  896MOL0     C23526   1.065   2.421   8.785 -0.0305 -0.0421  0.4910
  896MOL0     N23527   1.054   2.426   8.636 -0.5668 -0.5430 -0.2749
  896MOL0     C23528   0.998   2.325   8.559 -0.1116  0.6686 -0.2658
  896MOL0     C23529   0.990   2.373   8.433 -0.0114  0.6347  1.0986
  896MOL0     C23530   0.907   2.316   8.319  0.2974 -0.2864  0.4062
  896MOL0     C23531   0.766   2.280   8.376 -0.1946  0.4414  0.3066
  896MOL0     C23532   0.725   2.152   8.314 -0.0850  0.3803 -0.3600
  896MOL0     C23533   0.583   2.100   8.337  0.0757  0.0069  0.2101
  896MOL0     O23534   0.482   2.192   8.285 -0.9971 -0.1416  0.1212
  896MOL0     C23535   0.352   2.150   8.293 -0.7633  0.5934  0.0207
  896MOL0     C23536   0.249   2.242   8.268  0.2479  0.2448  0.4660
  896MOL0     C23537   0.111   2.210   8.267  0.4059  0.2927 -0.0286
  896MOL0     C23538   0.015   2.322   8.235  0.0015 -0.4388  0.5726
  896MOL0     C23539   0.079   2.075   8.293  0.6580  0.3642 -0.0299
  896MOL0     C23540  -0.074   2.022   8.285  0.1277  0.3413  0.1777
  896MOL0     O23541  -0.174   2.100   8.242  0.0411 -0.1266 -0.0366
  896MOL0     C23542  -0.273   2.044   8.176 -0.0719 -0.4196  0.1502
  896MOL0     C23543  -0.259   1.962   8.061 -0.0392 -0.5978  0.1555
  896MOL0     C23544  -0.376   1.924   7.992  0.2191  0.4974  0.1625
  896MOL0     C23545  -0.500   1.952   8.036  0.5108 -0.2506  0.3642
  896MOL0     O23546  -0.623   1.938   7.973 -0.6199  1.0121  0.8105
  896MOL0     C23547  -0.647   1.793   7.959 -1.3346  0.3969 -0.7420
  896MOL0     C23548  -0.777   1.740   7.922  0.0002 -0.1712  1.1412
  896MOL0     C23549  -0.902   1.785   8.008  0.0149 -0.1489  1.0020
  896MOL0     C23550  -0.906   1.703   8.131  0.1147  0.1865 -1.0194
  896MOL0     C23551  -1.031   1.738   8.226 -0.4212  0.4262 -0.7340
  896MOL0     C23552  -1.153   1.652   8.198  0.2974 -0.2588  0.0677
  896MOL0     C23553  -1.261   1.692   8.293  0.1830 -0.2239 -0.8285
  896MOL0     C23554  -1.374   1.587   8.299  1.0312  0.5641 -0.2138
  896MOL0    Cl23555  -1.444   1.541   8.134 -0.3197 -0.1324 -0.4012
  896MOL0     C23556  -0.515   2.018   8.158  0.8602  1.0537 -0.6614
  896MOL0     C23557  -0.405   2.067   8.225  0.1596  0.2704 -0.6111
  896MOL0     O23558  -0.090   1.906   8.325 -0.0936 -0.0852 -0.9250
  896MOL0     C23559   0.183   1.983   8.320 -0.1670  0.5555 -0.1855
  896MOL0     C23560   0.315   2.020   8.324 -0.3592 -0.6590 -0.3653
  896MOL0     N23561   1.063   2.494   8.434  1.0649  0.4090 -1.0136
  896MOL0     N23562   1.094   2.525   8.557 -0.1321 -0.5041  0.7896
  896MOL0     C23563   1.463   1.985   9.418  0.0017 -0.3483  1.0489
  896MOL0     C23564   1.510   1.864   9.475 -0.3763 -0.2701  0.0773
  896MOL0     C23565   1.695   1.500   9.637  0.1632  0.2300  0.4090
  896MOL0     C23566   1.759   1.532   9.759  0.2100  0.4859 -0.8745
  896MOL0     C23567   1.811   1.420   9.842  0.4700 -0.1760 -0.0471
  896MOL0     C23568   1.804   1.292   9.793 -0.2606 -0.0846  0.3777
  896MOL0     O23569   1.864   1.191   9.864 -0.7767 -0.2123 -0.6776
  896MOL0     C23570   1.997   1.219   9.913 -0.2572  0.3701  0.2781
  896MOL0     C23571   2.063   1.079   9.926 -0.2368  0.0353  0.0282
  896MOL0     C23572   2.081   1.029   9.778 -0.0928 -0.4738  0.0202
  896MOL0     C23573   2.180   0.913   9.764 -0.3642  0.4639 -0.5963
  896MOL0     C23574   2.160   0.845   9.634  0.4974 -0.8439 -0.0790
  896MOL0     C23575   2.129   0.808   9.523 -0.1571 -0.2094 -0.1809
  896MOL0     C23576   1.745   1.264   9.671 -0.3734 -0.5828 -1.0113
  896MOL0     C23577   1.681   1.360   9.597  0.3251  0.5848  0.5718
  896MOL0     C23578   1.597   1.308   9.474 -0.0647 -0.1941  0.4525
  896MOL0     H23579   1.763   1.977   9.665 -2.0523  0.0280  1.5249
  896MOL0     H23580   1.686   2.190   9.560  1.2695 -1.2143  0.8979
  896MOL0     H23581   1.302   2.165   9.308 -0.5013  1.4768  1.4349
  896MOL0     H23582   1.433   2.209   9.189  2.7724  1.2859  0.5976
  896MOL0     H23583   1.225   2.373   9.248 -0.0708  1.8689  0.5750
  896MOL0     H23584   1.312   2.386   9.393 -0.0926  0.7303 -0.2914
  896MOL0     H23585   1.386   2.581   9.259 -3.0411 -0.8837  0.0257
  896MOL0     H23586   1.516   2.463   9.281 -0.4735  1.5212  0.4488
  896MOL0     H23587   1.532   2.512   9.057 -1.1328  2.0854 -2.1190
  896MOL0     H23588   1.421   2.377   9.036  4.5498  0.5452 -4.6242
  896MOL0     H23589   1.367   2.657   9.002  0.3475 -0.1904 -2.6898
  896MOL0     H23590   1.235   2.552   9.066 -0.3339  4.2344  1.4483
  896MOL0     H23591   1.247   2.596   8.806  0.4189 -1.2141 -2.8790
  896MOL0     H23592   1.398   2.496   8.806 -1.5535 -1.0430 -1.5936
  896MOL0     H23593   1.210   2.326   8.935 -3.6992 -0.7066 -0.7852
  896MOL0     H23594   1.264   2.329   8.772 -0.1673 -0.7793  0.6525
  896MOL0     H23595   0.997   2.345   8.823  0.0425  0.5748  1.9477
  896MOL0     H23596   1.031   2.518   8.824 -1.9072 -0.5669  0.2650
  896MOL0     H23597   0.958   2.232   8.598  0.8409  0.6992  0.8281
  896MOL0     H23598   0.960   2.231   8.275 -0.7404 -0.0393 -1.4732
  896MOL0     H23599   0.894   2.372   8.225  2.2040 -0.7588 -0.1736
  896MOL0     H23600   0.766   2.278   8.485  0.2605  0.1240  0.3012
  896MOL0     H23601   0.696   2.360   8.349 -0.5995  0.1122  0.3629
  896MOL0     H23602   0.745   2.161   8.206  0.1662 -0.3894 -0.3819
  896MOL0     H23603   0.788   2.072   8.353 -0.0572 -0.7613 -2.5515
  896MOL0     H23604   0.573   2.010   8.275  1.7725  2.0879 -3.4427
  896MOL0     H23605   0.572   2.087   8.445 -0.6269  3.2648  0.6588
  896MOL0     H23606   0.282   2.342   8.245  0.4823  0.0740  0.0360
  896MOL0     H23607  -0.058   2.327   8.317  0.8952 -2.0025  1.5168
  896MOL0     H23608  -0.042   2.304   8.143 -0.3493  0.2168  0.6587
  896MOL0     H23609   0.067   2.417   8.226  2.8525 -1.9678 -0.1643
  896MOL0     H23610  -0.159   1.953   8.022  0.1179 -2.1857  0.8207
  896MOL0     H23611  -0.375   1.882   7.892 -0.8187  3.1877 -1.0877
  896MOL0     H23612  -0.573   1.756   7.887  1.3674  3.4922  0.1938
  896MOL0     H23613  -0.617   1.745   8.053 -0.6661 -1.7195 -1.9734
  896MOL0     H23614  -0.794   1.756   7.815  2.1278  2.7654  1.1175
  896MOL0     H23615  -0.777   1.631   7.928  0.5236 -0.5119 -2.5361
  896MOL0     H23616  -0.995   1.776   7.951  1.0838  1.2578 -1.0991
  896MOL0     H23617  -0.897   1.889   8.043 -0.5216  0.5362 -0.8239
  896MOL0     H23618  -0.817   1.709   8.195 -2.4360 -0.5239  2.8999
  896MOL0     H23619  -0.908   1.595   8.108 -0.6344 -0.5201  2.0234
  896MOL0     H23620  -1.003   1.721   8.331 -0.0083 -1.6196 -1.1188
  896MOL0     H23621  -1.058   1.843   8.221 -0.3950  0.4605 -0.2044
  896MOL0     H23622  -1.136   1.545   8.215 -1.1366 -0.4438  0.4951
  896MOL0     H23623  -1.197   1.673   8.100 -0.0040 -0.2525  0.2043
  896MOL0     H23624  -1.306   1.783   8.254 -2.6802 -0.5130  1.4745
  896MOL0     H23625  -1.226   1.698   8.396  0.5263  0.4291 -0.9832
  896MOL0     H23626  -1.455   1.634   8.356  1.5991 -1.8359  2.8722
  896MOL0     H23627  -1.343   1.499   8.356 -0.4951  0.0543 -0.1310
  896MOL0     H23628  -0.612   2.036   8.204  0.1482 -0.5228 -1.4593
  896MOL0     H23629  -0.416   2.134   8.309  0.1539  0.5904 -0.8627
  896MOL0     H23630   0.154   1.881   8.343  2.4196 -0.1123  0.4228
  896MOL0     H23631   0.389   1.947   8.355  0.7996  0.5892 -0.1290
  896MOL0     H23632   1.391   1.991   9.337  2.8042  1.9515 -1.5111
  896MOL0     H23633   1.446   1.780   9.453  0.0146 -0.0083 -2.3341
  896MOL0     H23634   1.777   1.630   9.803  1.1967 -0.1845  0.3032
  896MOL0     H23635   1.852   1.439   9.941 -0.1551 -0.3538  0.2502
  896MOL0     H23636   2.060   1.271   9.841  0.6713 -1.5842 -0.3854
  896MOL0     H23637   1.999   1.271  10.009  0.3558  1.7121 -0.4306
  896MOL0     H23638   2.002   1.007   9.981 -1.9501  0.9417 -0.6009
  896MOL0     H23639   2.165   1.090   9.965 -0.4030  1.6587  0.0893
  896MOL0     H23640   1.986   1.003   9.731 -0.2224 -0.6727  0.3850
  896MOL0     H23641   2.123   1.112   9.721 -1.2564  0.9242  1.1016
  896MOL0     H23642   2.161   0.844   9.846 -0.4063  0.7381 -0.3733
  896MOL0     H23643   2.284   0.944   9.775 -0.6207  1.2444 -0.2698
  896MOL0     H23644   2.120   0.793   9.417 -1.6551  0.2159 -0.1246
  896MOL0     H23645   1.747   1.160   9.640  1.0746 -1.3332  1.3498
  896MOL0     H23646   1.647   1.325   9.378  0.6305 -0.8231  0.6977
  896MOL0     H23647   1.581   1.200   9.478  2.0590 -0.5080  2.4836
  896MOL0     H23648   1.500   1.358   9.483  1.2439  2.1323  3.2098
  897MOL0     O23649   7.315   1.102   4.168  0.2024 -0.1721  0.4726
  897MOL0     C23650   7.419   1.034   4.176  0.1568 -0.6565 -0.0655
  897MOL0     O23651   7.539   1.084   4.204  0.4420 -0.0641 -0.2591
  897MOL0     C23652   7.558   1.218   4.214  0.3037 -0.9118  0.1620
  897MOL0     C23653   7.614   1.293   4.113  0.8662  0.1263 -0.5295
  897MOL0     C23654   7.626   1.428   4.124  0.0234 -0.0946  0.8092
  897MOL0     C23655   7.591   1.497   4.237 -0.9141  0.4038  0.3067
  897MOL0     O23656   7.621   1.625   4.268 -0.8605  0.3917  0.1486
  897MOL0     C23657   7.680   1.716   4.168  0.1455 -0.4851 -0.3114
  897MOL0     C23658   7.693   1.853   4.249 -1.8811 -0.5724  0.2070
  897MOL0     C23659   7.721   1.970   4.150 -1.2737 -0.1218 -0.0149
  897MOL0     C23660   7.777   2.082   4.230  0.1217  0.1137 -0.8627
  897MOL0     C23661   7.830   2.193   4.137  0.3497  0.1156  0.3741
  897MOL0     C23662   7.918   2.171   4.012  0.5659  0.2211  0.5836
  897MOL0     C23663   8.040   2.091   4.040 -0.7334 -0.2478  0.2843
  897MOL0     C23664   8.166   2.133   3.984 -0.1472  0.4732  0.0945
  897MOL0     N23665   8.240   2.229   4.059 -0.1521  0.5790  0.0360
  897MOL0     C23666   8.268   2.221   4.191 -0.0018  0.1388 -0.0879
  897MOL0     C23667   8.352   2.325   4.214  0.0286  0.1070  0.1625
  897MOL0     C23668   8.394   2.384   4.347 -0.0371 -0.9143 -0.2655
  897MOL0     C23669   8.512   2.318   4.424  0.2837  0.2479  0.5516
  897MOL0     C23670   8.488   2.166   4.444 -0.7805  0.7600 -0.2511
  897MOL0     C23671   8.569   2.107   4.556 -0.1280 -0.3808 -0.2709
  897MOL0     O23672   8.712   2.106   4.526 -0.3578 -0.3115 -0.1898
  897MOL0     C23673   8.780   2.047   4.623 -0.9438 -0.5643 -0.1712
  897MOL0     C23674   8.801   1.914   4.610  0.0556 -0.0228  0.2509
  897MOL0     C23675   8.879   1.842   4.711 -0.4705 -0.9537 -0.2122
  897MOL0     C23676   8.903   1.691   4.685  0.1542  0.3691  0.0003
  897MOL0     C23677   8.939   1.914   4.813  0.2242 -0.3811 -0.8864
  897MOL0     C23678   9.039   1.852   4.905  0.0212 -0.4055 -0.2219
  897MOL0     O23679   9.104   1.943   4.988  0.7154 -0.2710 -0.6984
  897MOL0     C23680   9.199   1.908   5.086 -1.0900  0.7237  0.2368
  897MOL0     C23681   9.313   1.823   5.058  0.4818  0.5178 -0.6359
  897MOL0     C23682   9.413   1.806   5.162 -0.1614 -0.0735 -0.0707
  897MOL0     C23683   9.399   1.863   5.290 -0.7361 -0.3394  0.4601
  897MOL0     O23684   9.504   1.846   5.372 -0.0484  0.6683 -0.4999
  897MOL0     C23685   9.518   1.940   5.484  0.5186 -0.1303  0.4915
  897MOL0     C23686   9.635   2.033   5.458 -0.4837 -0.7141  0.1652
  897MOL0     C23687   9.606   2.135   5.352 -0.5765  0.2793 -0.1455
  897MOL0     C23688   9.736   2.209   5.328 -0.8245 -0.4045 -0.1215
  897MOL0     C23689   9.706   2.356   5.272  0.2751  0.7804 -0.1775
  897MOL0     C23690   9.590   2.368   5.156  0.8125  0.0113  0.4842
  897MOL0     C23691   9.625   2.292   5.020  0.0796  0.2257  0.3012
  897MOL0     C23692   9.672   2.391   4.910  0.0336  0.4929 -0.2709
  897MOL0    Cl23693   9.826   2.485   4.953  0.0035 -0.0026 -0.2549
  897MOL0     C23694   9.283   1.942   5.311 -0.0729  0.7321 -0.6369
  897MOL0     C23695   9.187   1.966   5.213  0.0528  0.2869 -0.2038
  897MOL0     O23696   9.053   1.733   4.908 -0.7240  0.7142  0.0302
  897MOL0     C23697   8.910   2.054   4.824  0.0808  0.4658 -0.6702
  897MOL0     C23698   8.832   2.111   4.738  0.4190 -0.2468 -0.4288
  897MOL0     N23699   8.374   2.394   4.100  0.7912 -0.0433  0.5930
  897MOL0     N23700   8.310   2.336   4.007  0.3242  0.1399  0.6338
  897MOL0     C23701   7.532   1.431   4.347 -0.4703 -0.0352 -0.3501
  897MOL0     C23702   7.511   1.298   4.329 -0.5809  0.0453 -0.2090
  897MOL0     C23703   7.418   0.890   4.129  0.3793 -0.1172  1.0457
  897MOL0     C23704   7.537   0.832   4.097 -0.0559  0.3162 -0.2263
  897MOL0     C23705   7.550   0.694   4.073  0.0123  0.2644  0.6954
  897MOL0     C23706   7.434   0.606   4.068 -0.9948 -0.0982  0.2463
  897MOL0     O23707   7.434   0.464   4.062  0.3361 -0.0148 -0.0943
  897MOL0     C23708   7.555   0.395   4.039 -1.0551  1.0867 -0.3582
  897MOL0     C23709   7.575   0.369   3.888 -0.0115  0.0353  0.1689
  897MOL0     C23710   7.471   0.269   3.842 -0.4304  0.0599 -0.1018
  897MOL0     C23711   7.319   0.321   3.832 -0.1365  0.6259 -0.6957
  897MOL0     C23712   7.317   0.425   3.729 -0.0873 -0.0268  0.5389
  897MOL0     C23713   7.323   0.506   3.636  0.5740  0.5509 -0.6436
  897MOL0     C23714   7.314   0.666   4.080  0.0052 -0.8487 -0.3743
  897MOL0     C23715   7.303   0.801   4.118  0.3440  0.3315  0.1409
  897MOL0     C23716   7.166   0.859   4.136  0.5837  0.3573  0.7204
  897MOL0     H23717   7.644   1.241   4.022  2.4729  0.6139 -0.3221
  897MOL0     H23718   7.673   1.487   4.045  0.4408  0.8473  1.7478
  897MOL0     H23719   7.607   1.736   4.088 -2.3254 -1.1918  1.6510
  897MOL0     H23720   7.773   1.676   4.127 -0.7454 -0.5275 -2.4721
  897MOL0     H23721   7.604   1.879   4.308 -2.9809 -4.3463  0.4798
  897MOL0     H23722   7.775   1.823   4.314 -0.0363  2.3312 -0.6205
  897MOL0     H23723   7.793   1.941   4.073 -0.5921 -1.2075  0.9937
  897MOL0     H23724   7.629   2.003   4.099 -1.2939  0.0992  0.1606
  897MOL0     H23725   7.707   2.120   4.304 -0.2074 -0.2174 -0.9991
  897MOL0     H23726   7.859   2.036   4.285 -1.5599 -2.9227 -0.6891
  897MOL0     H23727   7.886   2.260   4.203 -1.7014  0.5476  1.7679
  897MOL0     H23728   7.748   2.249   4.092 -0.1350  0.5945  1.7968
  897MOL0     H23729   7.860   2.116   3.938  0.9651  0.5088  0.0540
  897MOL0     H23730   7.945   2.268   3.969  3.2008  0.0113  1.5469
  897MOL0     H23731   8.025   1.987   4.007  2.2040 -0.6843  0.0790
  897MOL0     H23732   8.053   2.077   4.148  0.3107  0.4842  0.2647
  897MOL0     H23733   8.220   2.038   3.989  0.1114  0.6062 -0.2146
  897MOL0     H23734   8.150   2.168   3.882 -4.9809  0.8650  0.7315
  897MOL0     H23735   8.230   2.145   4.259 -1.6049  0.4212 -0.6179
  897MOL0     H23736   8.304   2.405   4.405 -0.0145 -0.0832 -0.5134
  897MOL0     H23737   8.434   2.484   4.325 -0.5038 -1.0770 -2.0390
  897MOL0     H23738   8.609   2.322   4.375  0.1765 -1.0334  0.1953
  897MOL0     H23739   8.525   2.370   4.519  1.3635 -0.7423  0.9685
  897MOL0     H23740   8.383   2.148   4.467 -1.0469  0.2316 -1.7513
  897MOL0     H23741   8.512   2.109   4.354 -0.4271 -1.8173  1.3702
  897MOL0     H23742   8.541   2.166   4.644 -0.2582 -0.1545 -0.4652
  897MOL0     H23743   8.535   2.003   4.557  1.1964 -0.8796 -1.9301
  897MOL0     H23744   8.761   1.861   4.524  2.2491 -1.0132 -0.2442
  897MOL0     H23745   9.007   1.678   4.652 -0.1534 -2.2291 -0.1421
  897MOL0     H23746   8.841   1.665   4.599  0.8191  0.2134 -0.4443
  897MOL0     H23747   8.882   1.631   4.774  1.5209 -0.9718 -0.5294
  897MOL0     H23748   9.308   1.784   4.957 -2.0616 -1.0633  0.0101
  897MOL0     H23749   9.490   1.734   5.140  0.5508  0.3377  1.0140
  897MOL0     H23750   9.430   2.005   5.492  1.0773  0.4945  1.9156
  897MOL0     H23751   9.550   1.878   5.568  2.8795  0.1821 -0.0836
  897MOL0     H23752   9.669   2.076   5.553  2.1449 -1.0656 -0.5512
  897MOL0     H23753   9.727   1.981   5.428 -0.6396 -0.9707  0.1235
  897MOL0     H23754   9.532   2.206   5.392  1.9621  2.8559  0.3157
  897MOL0     H23755   9.575   2.095   5.255  0.6781  2.2415 -1.4231
  897MOL0     H23756   9.789   2.151   5.251  1.3871  1.4509 -0.1340
  897MOL0     H23757   9.808   2.223   5.409  0.9252  1.0358 -1.8030
  897MOL0     H23758   9.693   2.427   5.354  0.0015  0.2785  0.2169
  897MOL0     H23759   9.798   2.388   5.222 -0.5361  1.9615 -0.9769
  897MOL0     H23760   9.585   2.464   5.105 -1.6374 -0.4621 -0.2826
  897MOL0     H23761   9.490   2.341   5.192  0.6056 -2.0509 -1.4266
  897MOL0     H23762   9.537   2.232   4.997  1.6663 -2.0912 -0.1268
  897MOL0     H23763   9.703   2.216   5.034 -0.5258 -0.4096  0.2574
  897MOL0     H23764   9.592   2.456   4.874 -1.3679 -0.7263  0.5243
  897MOL0     H23765   9.701   2.319   4.833  0.3882 -1.1175  1.2845
  897MOL0     H23766   9.255   1.985   5.407 -1.4457 -0.9700 -0.2279
  897MOL0     H23767   9.096   2.020   5.236 -0.7791 -1.8843  2.1420
  897MOL0     H23768   8.956   2.121   4.895 -0.3667  1.5050 -1.3302
  897MOL0     H23769   8.826   2.219   4.752 -0.6855 -0.4329  0.8543
  897MOL0     H23770   7.484   1.476   4.433 -1.7446  0.1591 -1.1378
  897MOL0     H23771   7.442   1.252   4.400  0.5397 -0.8410  0.3446
  897MOL0     H23772   7.630   0.888   4.095 -0.6571  1.4306  1.1410
  897MOL0     H23773   7.651   0.654   4.074  0.3338  0.9297  3.6253
  897MOL0     H23774   7.644   0.448   4.073  0.7542 -0.5420 -2.2395
  897MOL0     H23775   7.562   0.301   4.094 -1.3747 -0.0043 -2.0999
  897MOL0     H23776   7.675   0.328   3.871  1.7908  4.2027 -0.3567
  897MOL0     H23777   7.573   0.469   3.843 -2.4016  1.1053  2.3618
  897MOL0     H23778   7.497   0.234   3.742 -1.3127 -0.0074 -0.3114
  897MOL0     H23779   7.464   0.181   3.906 -2.1436  1.1765  1.3368
  897MOL0     H23780   7.276   0.367   3.921 -1.0695 -1.0797 -0.2205
  897MOL0     H23781   7.271   0.228   3.797  0.1950 -0.0528  0.5805
  897MOL0     H23782   7.346   0.576   3.558 -0.7274  0.9911 -0.6646
  897MOL0     H23783   7.227   0.601   4.082  0.9317 -2.1446  0.0321
  897MOL0     H23784   7.151   0.959   4.093  2.5132  0.1139 -0.6428
  897MOL0     H23785   7.093   0.794   4.087  2.6673 -1.3034 -0.3474
  897MOL0     H23786   7.144   0.865   4.243  0.2197 -3.7096  1.0313
  898MOL0     O23787   4.329   1.775   6.424  0.9990  0.2751 -0.0380
  898MOL0     C23788   4.258   1.686   6.373  0.3943 -0.3411  0.5648
  898MOL0     O23789   4.207   1.575   6.439 -0.1820 -0.3576  0.2795
  898MOL0     C23790   4.217   1.569   6.577  1.0396  1.2726  0.3943
  898MOL0     C23791   4.275   1.460   6.640 -0.0920 -0.2029  0.3047
  898MOL0     C23792   4.289   1.463   6.778  0.1873  0.3945 -0.5443
  898MOL0     C23793   4.269   1.575   6.859  0.8157  0.4178 -1.0141
  898MOL0     O23794   4.317   1.585   6.983 -0.2760 -0.0348 -0.1301
  898MOL0     C23795   4.307   1.716   7.055 -0.1229 -0.3107  0.8828
  898MOL0     C23796   4.360   1.701   7.198 -0.0445 -0.4716 -0.0999
  898MOL0     C23797   4.318   1.817   7.284  0.5270  0.0020  0.2649
  898MOL0     C23798   4.392   1.811   7.418 -0.5779  0.4511 -0.1154
  898MOL0     C23799   4.368   1.937   7.495  0.7982 -0.6070 -0.9750
  898MOL0     C23800   4.413   1.930   7.643  0.4369  0.3313  0.1938
  898MOL0     C23801   4.292   1.950   7.735  0.2170 -1.0141  0.9470
  898MOL0     C23802   4.315   1.942   7.883  1.4807  0.4384  0.7894
  898MOL0     N23803   4.407   2.044   7.937  0.2800 -0.1951 -0.0699
  898MOL0     C23804   4.493   2.018   8.042  0.5037 -0.2959 -0.5240
  898MOL0     C23805   4.554   2.140   8.058 -0.9896 -0.4604  0.7505
  898MOL0     C23806   4.646   2.166   8.176 -0.0057 -0.7962  0.2138
  898MOL0     C23807   4.580   2.213   8.306  0.8842 -0.2920  0.0057
  898MOL0     C23808   4.469   2.325   8.289 -0.1968 -0.5571 -0.0569
  898MOL0     C23809   4.457   2.400   8.427 -0.2134 -0.6674  0.4416
  898MOL0     O23810   4.568   2.486   8.453  0.3657  0.4899  0.1268
  898MOL0     C23811   4.558   2.613   8.405  0.2229 -0.5368 -0.5326
  898MOL0     C23812   4.655   2.702   8.460  0.1600 -0.1869  0.2441
  898MOL0     C23813   4.673   2.837   8.410 -0.0427  0.3340  0.0090
  898MOL0     C23814   4.798   2.910   8.462  0.2071  0.3628  0.8201
  898MOL0     C23815   4.581   2.889   8.316  0.0036 -0.8267  0.3581
  898MOL0     C23816   4.574   3.032   8.274 -0.4096  0.1810  0.7138
  898MOL0     O23817   4.505   3.053   8.162 -0.0027 -0.2971 -0.4522
  898MOL0     C23818   4.527   3.169   8.095  0.3952  0.3987  0.3768
  898MOL0     C23819   4.607   3.156   7.983  0.2322 -0.4202 -0.1951
  898MOL0     C23820   4.645   3.278   7.921 -0.3185 -0.7686 -0.8135
  898MOL0     C23821   4.604   3.403   7.972  0.3612 -0.0429  0.5101
  898MOL0     O23822   4.642   3.516   7.913 -0.1466  0.1719 -0.4062
  898MOL0     C23823   4.543   3.557   7.820  0.5358  0.7122  1.0845
  898MOL0     C23824   4.606   3.654   7.728 -0.2775 -0.2851 -0.7843
  898MOL0     C23825   4.663   3.787   7.787  0.3235 -0.6919  0.3488
  898MOL0     C23826   4.554   3.873   7.861  0.8433 -0.2586  0.1636
  898MOL0     C23827   4.611   4.013   7.885  0.2421  0.3347  0.1722
  898MOL0     C23828   4.534   4.085   7.985 -0.4396 -0.4558 -0.1059
  898MOL0     C23829   4.607   4.221   8.022 -0.2905 -0.1067 -0.1202
  898MOL0     C23830   4.511   4.312   8.085 -0.5501  0.5451 -0.2761
  898MOL0    Cl23831   4.580   4.476   8.106  0.4327 -0.2933  0.2667
  898MOL0     C23832   4.542   3.414   8.096 -0.2347  0.4911 -0.6370
  898MOL0     C23833   4.499   3.291   8.160 -0.3210 -0.2998  0.5301
  898MOL0     O23834   4.626   3.111   8.347  0.6371 -0.0876  0.5538
  898MOL0     C23835   4.479   2.800   8.271 -0.0139  0.4749 -0.7855
  898MOL0     C23836   4.473   2.666   8.312  0.6665  0.1102  1.2580
  898MOL0     N23837   4.513   2.231   7.965 -0.5969  0.6379 -0.0029
  898MOL0     N23838   4.417   2.170   7.893 -0.5501  0.3564  0.3254
  898MOL0     C23839   4.199   1.678   6.788 -0.0478 -0.1686  0.3814
  898MOL0     C23840   4.177   1.677   6.652  0.3581  0.9507 -0.6295
  898MOL0     C23841   4.219   1.715   6.231  0.3929  0.3059  0.0299
  898MOL0     C23842   4.264   1.835   6.171 -0.4715  0.2171  0.6991
  898MOL0     C23843   4.222   1.880   6.045  0.1653 -0.5353 -0.4844
  898MOL0     C23844   4.155   1.791   5.967  0.3069  0.1746 -0.3883
  898MOL0     O23845   4.110   1.816   5.841 -0.1947 -0.1130  0.5339
  898MOL0     C23846   4.136   1.943   5.784  0.1246  0.7539  0.2659
  898MOL0     C23847   4.280   1.936   5.730 -0.5379  0.5650 -0.7356
  898MOL0     C23848   4.320   1.803   5.653  0.6188  0.3044 -0.3552
  898MOL0     C23849   4.470   1.782   5.609  0.3362 -0.4549  0.3962
  898MOL0     C23850   4.563   1.812   5.720  0.8077  0.1940  0.7532
  898MOL0     C23851   4.643   1.824   5.807 -0.7504 -0.5977  0.3302
  898MOL0     C23852   4.135   1.658   6.013 -0.4243  0.1295  0.1616
  898MOL0     C23853   4.163   1.621   6.147  0.4581 -0.1165 -0.0234
  898MOL0     C23854   4.126   1.476   6.188  0.4401 -0.2852 -0.0644
  898MOL0     H23855   4.310   1.384   6.571 -1.3390 -0.1887 -0.3799
  898MOL0     H23856   4.328   1.372   6.824  0.3758  0.1261 -1.2234
  898MOL0     H23857   4.206   1.758   7.058 -0.9871 -1.7634 -2.6148
  898MOL0     H23858   4.378   1.788   7.016  1.3279 -1.9148  0.4602
  898MOL0     H23859   4.324   1.613   7.252 -4.9209  1.8492  0.9760
  898MOL0     H23860   4.469   1.698   7.191  0.0879  0.2465  1.3235
  898MOL0     H23861   4.350   1.914   7.245 -1.4493  1.2380  1.5488
  898MOL0     H23862   4.208   1.823   7.288  0.3972  0.1030 -1.9085
  898MOL0     H23863   4.357   1.727   7.479 -0.5393  0.7650  0.3479
  898MOL0     H23864   4.500   1.810   7.403 -0.5807  1.9106 -0.4484
  898MOL0     H23865   4.261   1.954   7.491  0.5937 -2.0606 -2.4923
  898MOL0     H23866   4.414   2.020   7.441 -2.1756  2.5916  1.0245
  898MOL0     H23867   4.440   1.825   7.657  0.5103  0.2606 -0.4589
  898MOL0     H23868   4.502   1.991   7.656  2.2776 -2.0112 -0.7757
  898MOL0     H23869   4.228   1.864   7.715  1.4111 -1.7017 -0.0316
  898MOL0     H23870   4.237   2.035   7.695  0.9807 -0.3005  1.3702
  898MOL0     H23871   4.221   1.959   7.938  0.4569 -0.7444 -0.5114
  898MOL0     H23872   4.362   1.846   7.904 -1.3805 -1.4616 -0.8208
  898MOL0     H23873   4.502   1.926   8.098  1.5076  1.7376  2.9832
  898MOL0     H23874   4.710   2.250   8.148  1.5422 -2.0431 -0.1639
  898MOL0     H23875   4.704   2.075   8.196  1.1549 -0.0051  0.5749
  898MOL0     H23876   4.536   2.130   8.361 -2.4540  1.3919  0.1307
  898MOL0     H23877   4.657   2.250   8.375  0.2101 -3.7373  2.8795
  898MOL0     H23878   4.501   2.393   8.209  0.0939 -1.7433 -0.9899
  898MOL0     H23879   4.370   2.288   8.263  0.2980 -0.3060 -2.5861
  898MOL0     H23880   4.364   2.453   8.450 -1.3881 -2.2046 -0.5802
  898MOL0     H23881   4.459   2.322   8.503  3.4813 -1.5029 -0.3396
  898MOL0     H23882   4.727   2.664   8.532 -1.1015 -1.7085  0.7492
  898MOL0     H23883   4.873   2.908   8.383  1.2735 -0.7518  1.8379
  898MOL0     H23884   4.835   2.851   8.546 -1.8180 -2.0272  0.1769
  898MOL0     H23885   4.771   3.009   8.501 -1.6967  1.0484 -1.9245
  898MOL0     H23886   4.625   3.052   7.959  3.2390  0.0316 -0.3281
  898MOL0     H23887   4.711   3.277   7.834  0.3315 -0.9964 -0.3228
  898MOL0     H23888   4.509   3.471   7.762  1.3016 -0.7016  2.6493
  898MOL0     H23889   4.459   3.598   7.876  0.2190  1.1099  0.3207
  898MOL0     H23890   4.686   3.598   7.680 -1.0881 -1.1119 -1.2128
  898MOL0     H23891   4.537   3.670   7.644 -0.2207 -1.7594 -1.1198
  898MOL0     H23892   4.703   3.841   7.701 -2.0605 -1.1678 -1.1519
  898MOL0     H23893   4.736   3.765   7.866  0.8531  1.5490  0.5634
  898MOL0     H23894   4.549   3.828   7.961 -0.6599  3.4723  1.9497
  898MOL0     H23895   4.462   3.876   7.802  0.9745  0.8450  0.0033
  898MOL0     H23896   4.713   3.997   7.921 -0.8320 -2.4056  2.2958
  898MOL0     H23897   4.627   4.059   7.786  0.4586  1.4688  0.7185
  898MOL0     H23898   4.528   4.031   8.081 -0.5892  1.5301  1.0489
  898MOL0     H23899   4.440   4.110   7.935  0.8140 -0.8894 -2.8729
  898MOL0     H23900   4.638   4.262   7.926  0.3775 -0.0186  0.1259
  898MOL0     H23901   4.701   4.211   8.077 -1.1267  0.3638  1.4646
  898MOL0     H23902   4.488   4.265   8.181  0.4465  1.6971  0.5542
  898MOL0     H23903   4.414   4.320   8.035 -1.3703 -0.4638  1.0889
  898MOL0     H23904   4.534   3.518   8.124  0.8795  0.1347  1.1682
  898MOL0     H23905   4.442   3.264   8.249 -1.0595 -2.4260 -0.4985
  898MOL0     H23906   4.402   2.840   8.206 -2.8430 -3.5431 -0.2778
  898MOL0     H23907   4.393   2.609   8.266  2.2235 -1.1353 -0.0495
  898MOL0     H23908   4.169   1.768   6.840  0.1829 -1.2914  2.6213
  898MOL0     H23909   4.132   1.766   6.608  0.1690  0.3973 -1.5841
  898MOL0     H23910   4.331   1.899   6.228 -0.4920 -0.6974  1.7911
  898MOL0     H23911   4.255   1.979   6.017 -1.1843 -0.4704 -2.0257
  898MOL0     H23912   4.077   1.949   5.693 -1.7698  0.2263  1.4080
  898MOL0     H23913   4.123   2.035   5.842 -2.0768 -0.2655  1.5181
  898MOL0     H23914   4.346   1.958   5.814 -2.3972 -1.2089  1.3071
  898MOL0     H23915   4.276   2.020   5.660 -0.7948  0.2029 -1.1639
  898MOL0     H23916   4.305   1.713   5.713 -2.1011 -0.0753 -1.4787
  898MOL0     H23917   4.260   1.797   5.563 -1.9214 -2.7227  1.3368
  898MOL0     H23918   4.491   1.849   5.524 -0.0581  2.7725  2.6371
  898MOL0     H23919   4.492   1.680   5.578  1.1982 -0.1782  0.0669
  898MOL0     H23920   4.691   1.859   5.897  0.8345 -1.6053 -0.0779
  898MOL0     H23921   4.088   1.582   5.952 -1.3302 -0.3037  1.3468
  898MOL0     H23922   4.202   1.416   6.239  0.4806 -1.3070 -1.2659
  898MOL0     H23923   4.039   1.477   6.254  0.1667 -1.3946 -0.3877
  898MOL0     H23924   4.104   1.408   6.104 -3.6646 -0.6315  1.0695
  899MOL0     O23925   5.834   2.593   4.740 -0.0208 -0.4246  0.6068
  899MOL0     C23926   5.731   2.556   4.687  1.3957  0.4962  0.7063
  899MOL0     O23927   5.690   2.426   4.698  0.1586 -0.2258 -0.0036
  899MOL0     C23928   5.692   2.349   4.812 -0.1675  0.2617 -0.9700
  899MOL0     C23929   5.736   2.389   4.941  0.1964  0.4906  0.4141
  899MOL0     C23930   5.719   2.310   5.055  1.4364 -0.2065 -0.8129
  899MOL0     C23931   5.649   2.190   5.038  0.0697  0.8273 -0.1038
  899MOL0     O23932   5.616   2.098   5.137  0.3345 -0.4059 -0.9193
  899MOL0     C23933   5.488   2.130   5.192  0.3450 -0.8504 -0.1510
  899MOL0     C23934   5.438   2.009   5.283  0.7272 -0.9388 -0.7043
  899MOL0     C23935   5.461   2.036   5.442 -0.3195  0.2451  0.1502
  899MOL0     C23936   5.394   1.934   5.533  0.7818 -0.2183 -0.2286
  899MOL0     C23937   5.394   1.983   5.676  0.8272  0.9463  0.5353
  899MOL0     C23938   5.281   1.918   5.763 -0.0860  1.0344  0.6759
  899MOL0     C23939   5.279   1.958   5.910  0.4821  0.3533  0.4578
  899MOL0     C23940   5.164   1.889   5.984  1.1281  0.1849 -1.2517
  899MOL0     N23941   5.132   1.747   5.967  0.4223 -0.7256 -0.2907
  899MOL0     C23942   5.211   1.642   5.985 -0.1800  1.1908  0.0914
  899MOL0     C23943   5.124   1.540   5.958  0.2451 -0.1833 -0.5753
  899MOL0     C23944   5.158   1.392   5.969  0.4425  0.2258 -0.2119
  899MOL0     C23945   5.085   1.321   6.083 -0.5074 -0.9633  0.6839
  899MOL0     C23946   5.128   1.179   6.100 -0.2322  0.8145 -0.2970
  899MOL0     C23947   5.056   1.104   6.210  0.7448  0.8609  0.6413
  899MOL0     O23948   5.109   1.146   6.335 -0.6102 -0.2345  0.1065
  899MOL0     C23949   5.078   1.061   6.442  0.7176  0.5678  0.7415
  899MOL0     C23950   4.964   0.978   6.461 -0.9223  0.6003 -0.1287
  899MOL0     C23951   4.946   0.912   6.584  0.3715 -0.4158  0.9139
  899MOL0     C23952   4.817   0.840   6.601  0.2418  0.1533 -0.4151
  899MOL0     C23953   5.049   0.921   6.681  0.2415  0.6491  0.0395
  899MOL0     C23954   5.059   0.846   6.810  0.7963  0.4904  0.3455
  899MOL0     O23955   5.125   0.899   6.917 -0.2836 -0.6557 -0.3527
  899MOL0     C23956   5.113   0.844   7.043 -0.0280  0.2949  0.3779
  899MOL0     C23957   5.222   0.795   7.108 -0.9064 -0.2080  0.2773
  899MOL0     C23958   5.221   0.749   7.240  0.9909 -1.1371  0.1693
  899MOL0     C23959   5.102   0.748   7.308  0.9670  0.1708 -0.3834
  899MOL0     O23960   5.113   0.726   7.439  0.3743  0.7349  0.4971
  899MOL0     C23961   4.993   0.721   7.519  0.6212  0.0766  0.4162
  899MOL0     C23962   5.035   0.693   7.665  0.7839 -0.2413  1.0985
  899MOL0     C23963   5.104   0.827   7.718 -0.1498  1.1061  0.2220
  899MOL0     C23964   5.228   0.793   7.810  0.1729  0.0806  0.4255
  899MOL0     C23965   5.185   0.737   7.948  0.4516  0.2793  0.1760
  899MOL0     C23966   5.311   0.686   8.025  0.9816 -0.0269 -0.3002
  899MOL0     C23967   5.406   0.800   8.079  0.0330 -0.4891  0.4260
  899MOL0     C23968   5.549   0.765   8.036 -0.2197  0.2205 -0.1468
  899MOL0    Cl23969   5.594   0.609   8.135 -0.1155  0.0423  0.0085
  899MOL0     C23970   4.991   0.800   7.244 -0.8774 -0.7566  0.5864
  899MOL0     C23971   4.991   0.853   7.114 -0.6648  0.8723 -0.0455
  899MOL0     O23972   5.016   0.732   6.811 -0.1900 -0.4880 -0.2622
  899MOL0     C23973   5.157   1.010   6.661 -0.2663  0.1428  0.0501
  899MOL0     C23974   5.170   1.074   6.538  0.5217 -0.1447 -0.4457
  899MOL0     N23975   4.997   1.588   5.932  0.4721  0.2907  0.1835
  899MOL0     N23976   5.003   1.715   5.934 -0.1215 -0.9416 -0.2311
  899MOL0     C23977   5.613   2.150   4.907 -0.3610 -0.2163  0.0426
  899MOL0     C23978   5.638   2.223   4.795  0.4435  0.7344  0.6595
  899MOL0     C23979   5.661   2.646   4.594 -0.2449  0.0307 -0.4625
  899MOL0     C23980   5.523   2.609   4.568 -0.0147  0.1440  0.1996
  899MOL0     C23981   5.437   2.682   4.494 -0.5893  0.3439  0.2938
  899MOL0     C23982   5.485   2.803   4.439 -0.1674  1.1386  1.2577
  899MOL0     O23983   5.406   2.893   4.368 -0.2028  0.0708 -0.7446
  899MOL0     C23984   5.269   2.865   4.325  0.0973  0.2930 -0.0638
  899MOL0     C23985   5.241   2.907   4.183 -0.3277 -0.5520 -0.1431
  899MOL0     C23986   5.252   2.792   4.085  0.0731  0.0253  0.2352
  899MOL0     C23987   5.241   2.821   3.935  0.2845 -0.0725  0.0809
  899MOL0     C23988   5.329   2.928   3.887 -0.4470  1.0273 -0.0224
  899MOL0     C23989   5.389   3.024   3.848 -0.5828 -0.3405 -0.5622
  899MOL0     C23990   5.615   2.838   4.461 -0.2165  1.0272  0.4519
  899MOL0     C23991   5.708   2.758   4.531 -0.1723  0.4927 -0.3373
  899MOL0     C23992   5.843   2.828   4.562 -0.1238 -0.3538  0.6574
  899MOL0     H23993   5.778   2.488   4.950  4.1340 -0.4295 -3.9260
  899MOL0     H23994   5.748   2.350   5.152  2.4971 -1.9030 -0.3751
  899MOL0     H23995   5.403   2.159   5.130  0.0405 -1.4122  0.0036
  899MOL0     H23996   5.506   2.219   5.254  1.3900  0.0510 -1.6550
  899MOL0     H23997   5.332   1.998   5.257  0.6051  0.8814 -1.0928
  899MOL0     H23998   5.496   1.919   5.262  1.9161  0.0403 -1.7410
  899MOL0     H23999   5.568   2.035   5.463  0.1935 -3.7605 -1.7841
  899MOL0     H24000   5.422   2.135   5.466 -1.5648 -0.5949  1.7865
  899MOL0     H24001   5.293   1.927   5.492  0.5233  1.2256  0.0950
  899MOL0     H24002   5.439   1.834   5.524 -0.9425 -0.9507 -1.0376
  899MOL0     H24003   5.376   2.091   5.675 -1.1175  0.6525 -0.7244
  899MOL0     H24004   5.493   1.958   5.716 -0.5097 -3.4479  1.6516
  899MOL0     H24005   5.185   1.933   5.712  0.9668  0.8578 -1.5008
  899MOL0     H24006   5.279   1.809   5.762 -1.3683  1.0411  0.2635
  899MOL0     H24007   5.263   2.066   5.907 -2.9257 -0.0197  0.6910
  899MOL0     H24008   5.374   1.936   5.959  1.1419 -0.1740 -1.0157
  899MOL0     H24009   5.176   1.901   6.092  2.9062  0.0007 -1.3980
  899MOL0     H24010   5.076   1.942   5.947 -0.2180 -1.4415 -0.5540
  899MOL0     H24011   5.316   1.633   6.009  0.4292  0.4077 -2.5568
  899MOL0     H24012   5.267   1.385   5.975  0.9143  1.0989 -4.4407
  899MOL0     H24013   5.114   1.347   5.879  0.2608  0.9003 -0.4679
  899MOL0     H24014   5.105   1.365   6.181 -2.5751 -3.6022  2.4478
  899MOL0     H24015   4.977   1.320   6.068 -0.4487 -2.3578  0.1571
  899MOL0     H24016   5.111   1.135   6.001  0.5228 -1.6107  0.5889
  899MOL0     H24017   5.234   1.175   6.126 -0.6248  0.7464  1.4161
  899MOL0     H24018   4.948   1.121   6.208  0.4583 -0.6200  1.6439
  899MOL0     H24019   5.076   0.997   6.196  1.4804  0.6002  3.0982
  899MOL0     H24020   4.886   0.978   6.385 -1.1006 -3.8376 -0.2106
  899MOL0     H24021   4.759   0.849   6.693 -1.9723  2.2061 -1.9093
  899MOL0     H24022   4.837   0.733   6.593  0.5330  0.2326 -0.7676
  899MOL0     H24023   4.737   0.855   6.529 -0.1538 -0.8669 -0.2127
  899MOL0     H24024   5.312   0.796   7.048 -0.8291  2.6663  0.3316
  899MOL0     H24025   5.307   0.709   7.292  0.9052 -1.8178 -0.1923
  899MOL0     H24026   4.948   0.820   7.509 -1.3420 -0.9978 -3.6988
  899MOL0     H24027   4.930   0.641   7.479  0.4012 -0.2895  1.4675
  899MOL0     H24028   4.941   0.677   7.719 -0.8046  0.2559 -1.3341
  899MOL0     H24029   5.088   0.598   7.679 -1.2361 -1.8873 -1.5107
  899MOL0     H24030   5.030   0.871   7.786  1.0055  0.5774  1.9079
  899MOL0     H24031   5.127   0.900   7.641  0.6908  0.1854 -0.4212
  899MOL0     H24032   5.298   0.878   7.809  1.0854 -0.6480  1.0754
  899MOL0     H24033   5.289   0.718   7.759  0.6267 -0.8671  2.2785
  899MOL0     H24034   5.129   0.812   8.004 -0.7082 -0.9041  0.6310
  899MOL0     H24035   5.121   0.650   7.931  2.7873 -0.9887 -3.1372
  899MOL0     H24036   5.358   0.604   7.970  0.2898 -0.3221 -0.4586
  899MOL0     H24037   5.269   0.626   8.107 -1.1098  0.1827 -1.1473
  899MOL0     H24038   5.400   0.810   8.188  1.5094  2.2455  0.3654
  899MOL0     H24039   5.380   0.901   8.045  1.3539  0.0249  0.9046
  899MOL0     H24040   5.614   0.846   8.072 -2.1998  1.1384  1.5496
  899MOL0     H24041   5.563   0.751   7.928 -1.0613  1.1721 -0.3977
  899MOL0     H24042   4.898   0.810   7.300  0.0271 -0.3042  2.0554
  899MOL0     H24043   4.904   0.891   7.062 -0.9001 -1.8072 -1.8161
  899MOL0     H24044   5.235   1.014   6.736 -0.5433 -0.4254  0.3667
  899MOL0     H24045   5.245   1.151   6.525  0.0833  0.0468 -2.0223
  899MOL0     H24046   5.560   2.057   4.888 -0.8119 -0.1317  0.8449
  899MOL0     H24047   5.620   2.190   4.693  1.7716 -1.1881  1.0042
  899MOL0     H24048   5.482   2.520   4.614 -1.5985  1.9797  2.5822
  899MOL0     H24049   5.331   2.661   4.486 -0.4156 -1.8410  2.5904
  899MOL0     H24050   5.251   2.757   4.330  1.3966  0.0898  0.4211
  899MOL0     H24051   5.200   2.916   4.393  0.9473 -0.0242  1.0392
  899MOL0     H24052   5.310   2.988   4.159  0.6606 -1.7427 -1.5299
  899MOL0     H24053   5.141   2.950   4.188  0.4674  1.2618  1.4518
  899MOL0     H24054   5.350   2.745   4.099  0.7868  1.3390 -0.2512
  899MOL0     H24055   5.179   2.715   4.112  1.0803 -1.2930 -0.6824
  899MOL0     H24056   5.140   2.858   3.913  0.9056  2.3875  1.0342
  899MOL0     H24057   5.261   2.726   3.885 -0.3968 -1.6402  2.6244
  899MOL0     H24058   5.453   3.102   3.813  0.0311 -0.8380 -0.5797
  899MOL0     H24059   5.646   2.932   4.416 -0.0150  2.1554  2.7629
  899MOL0     H24060   5.927   2.760   4.582  0.5222  0.1603 -0.2093
  899MOL0     H24061   5.878   2.891   4.479  0.4270  0.3597  1.4053
  899MOL0     H24062   5.824   2.887   4.652  2.1760 -1.0820  1.7142
  900MOL0     O24063   9.219   3.929   8.308  0.0792  0.0732 -0.7508
  900MOL0     C24064   9.160   4.036   8.338 -1.0936  0.2876  0.0965
  900MOL0     O24065   9.139   4.070   8.472 -0.6323 -0.1089  0.0661
  900MOL0     C24066   9.218   4.008   8.569 -0.8022  0.4982 -0.3288
  900MOL0     C24067   9.358   4.034   8.576  0.1604 -0.2037  0.5313
  900MOL0     C24068   9.431   3.980   8.679  0.2303 -0.0811  0.0275
  900MOL0     C24069   9.370   3.887   8.765 -0.3807 -0.1947 -0.2006
  900MOL0     O24070   9.425   3.835   8.881  0.0166 -0.0131 -0.1524
  900MOL0     C24071   9.542   3.901   8.939 -0.5082  0.5744  0.5082
  900MOL0     C24072   9.505   4.039   9.005 -0.1970 -0.0739  0.1185
  900MOL0     C24073   9.382   4.012   9.105  0.4387  0.6136  0.3818
  900MOL0     C24074   9.339   4.147   9.172  0.0608 -0.0112 -0.9555
  900MOL0     C24075   9.229   4.123   9.277  0.2224  0.7306  0.4382
  900MOL0     C24076   9.269   4.148   9.421  0.5600  0.3145 -0.5436
  900MOL0     C24077   9.150   4.157   9.521  0.2434  0.3383  0.3834
  900MOL0     C24078   9.194   4.227   9.652  0.3839  0.1048 -0.2004
  900MOL0     N24079   9.285   4.138   9.727 -0.0944  0.2537  0.0555
  900MOL0     C24080   9.250   4.030   9.805 -0.2989 -0.2155  0.2572
  900MOL0     C24081   9.358   3.996   9.869  0.5548  1.0819  0.1843
  900MOL0     C24082   9.359   3.887   9.975  0.1533 -0.3996 -0.6266
  900MOL0     C24083   9.483   3.793   9.982 -0.2264 -0.7495 -0.3812
  900MOL0     C24084   9.483   3.677   9.887  1.1456 -0.2634 -0.7039
  900MOL0     C24085   9.596   3.578   9.915  0.5556  1.0986  1.4650
  900MOL0     O24086   9.723   3.640   9.922  0.5991  0.6146  0.0715
  900MOL0     C24087   9.806   3.618   9.815 -0.3246 -0.2241  0.7472
  900MOL0     C24088   9.930   3.559   9.839  0.1256 -0.5513  0.1455
  900MOL0     C24089  10.032   3.546   9.737  0.3650  0.4764 -0.8230
  900MOL0     C24090  10.158   3.464   9.791  0.7459 -1.4418 -0.0115
  900MOL0     C24091  10.001   3.586   9.606  0.8327 -0.2424 -0.0981
  900MOL0     C24092  10.099   3.572   9.496 -0.0021  0.0993 -0.1227
  900MOL0     O24093  10.043   3.557   9.372 -0.7265  0.0888  0.2833
  900MOL0     C24094  10.129   3.539   9.263  0.7386  1.1028  0.1543
  900MOL0     C24095  10.194   3.414   9.254  0.5568  0.7556  0.2238
  900MOL0     C24096  10.285   3.389   9.149 -0.0479  0.6618  0.3107
  900MOL0     C24097  10.313   3.491   9.058  0.4523  1.1092 -0.9905
  900MOL0     O24098  10.396   3.489   8.952 -0.4044 -0.0621  0.1467
  900MOL0     C24099  10.429   3.366   8.880 -0.2871  0.4175  0.0272
  900MOL0     C24100  10.319   3.323   8.783  0.1459  0.6328  0.1079
  900MOL0     C24101  10.195   3.249   8.846  0.3929  0.3278  0.0345
  900MOL0     C24102  10.126   3.152   8.748  0.2062 -0.3343 -0.3154
  900MOL0     C24103   9.980   3.126   8.792 -0.7545 -0.5440 -0.5186
  900MOL0     C24104   9.897   3.074   8.661 -0.3294 -0.0840 -0.1974
  900MOL0     C24105   9.875   3.180   8.544 -0.9894 -0.3865 -0.7585
  900MOL0     C24106   9.769   3.142   8.438 -0.3129  0.3634 -0.0609
  900MOL0    Cl24107   9.779   2.964   8.398  0.3121 -0.0414  0.1266
  900MOL0     C24108  10.255   3.625   9.073 -1.0434  0.3626 -0.0527
  900MOL0     C24109  10.154   3.636   9.171  0.4400  0.3338  0.0857
  900MOL0     O24110  10.219   3.583   9.515  0.4020  0.5553  0.5186
  900MOL0     C24111   9.865   3.634   9.585 -1.4178  0.2706  0.2492
  900MOL0     C24112   9.773   3.663   9.686  0.5675 -0.1722 -0.9512
  900MOL0     N24113   9.460   4.080   9.829 -0.8373  0.3665 -0.3016
  900MOL0     N24114   9.418   4.166   9.744 -1.0903 -0.4088 -0.3082
  900MOL0     C24115   9.239   3.853   8.753  0.4536  1.2686 -0.0729
  900MOL0     C24116   9.161   3.905   8.650 -0.8936  0.0201  0.3752
  900MOL0     C24117   9.106   4.130   8.238  0.6644 -0.3950  0.5295
  900MOL0     C24118   9.059   4.262   8.281  0.2225 -0.2616 -0.8670
  900MOL0     C24119   9.010   4.356   8.196 -0.0700  0.6734 -0.3107
  900MOL0     C24120   9.004   4.329   8.061  0.2443  0.0929  0.3233
  900MOL0     O24121   8.949   4.415   7.967 -0.3219  0.7506 -0.2999
  900MOL0     C24122   8.829   4.478   8.000  0.5530  0.4453 -1.1021
  900MOL0     C24123   8.758   4.548   7.888 -0.2702  0.1613 -1.0069
  900MOL0     C24124   8.678   4.448   7.791  0.6487 -0.3972  0.4111
  900MOL0     C24125   8.604   4.530   7.682  0.0909  0.0360  0.1835
  900MOL0     C24126   8.587   4.439   7.567 -0.3876  0.2514 -0.1699
  900MOL0     C24127   8.572   4.375   7.467 -0.2957 -0.2712  1.2819
  900MOL0     C24128   9.042   4.204   8.023 -0.3298 -0.3991  0.5458
  900MOL0     C24129   9.094   4.100   8.101  0.5775  0.3031 -1.2887
  900MOL0     C24130   9.132   3.967   8.038  0.5830 -0.6217  0.4631
  900MOL0     H24131   9.403   4.102   8.505  3.6232 -0.9452  1.7992
  900MOL0     H24132   9.533   4.016   8.691 -0.7100  2.6243  0.6663
  900MOL0     H24133   9.629   3.912   8.874  2.7622 -1.4154  4.1244
  900MOL0     H24134   9.561   3.829   9.019 -1.8093 -0.1495  0.2054
  900MOL0     H24135   9.594   4.074   9.058 -1.0226 -0.2795  1.6934
  900MOL0     H24136   9.466   4.109   8.931 -0.1145  0.9129  0.9941
  900MOL0     H24137   9.296   3.966   9.056  0.0598  0.4328  1.1888
  900MOL0     H24138   9.409   3.949   9.191  0.7206  3.5489  2.6027
  900MOL0     H24139   9.431   4.189   9.214 -0.7392  0.0859  0.8062
  900MOL0     H24140   9.294   4.214   9.097 -0.7060 -1.8553 -2.2217
  900MOL0     H24141   9.187   4.024   9.256 -0.5427  1.3044 -0.8282
  900MOL0     H24142   9.154   4.202   9.264  1.5879  1.9366 -0.3564
  900MOL0     H24143   9.331   4.065   9.456  2.0145  1.0981 -1.1460
  900MOL0     H24144   9.330   4.239   9.428  0.7432  0.0714  1.2788
  900MOL0     H24145   9.117   4.054   9.540  1.9494 -0.3635 -0.2628
  900MOL0     H24146   9.075   4.217   9.470  1.5262  0.8665 -0.9564
  900MOL0     H24147   9.251   4.317   9.626 -1.4938  1.1390 -0.9027
  900MOL0     H24148   9.108   4.264   9.709  0.4449 -1.0932  0.7012
  900MOL0     H24149   9.153   3.988   9.828  1.5547 -3.1407  3.5276
  900MOL0     H24150   9.276   3.821   9.949  1.0555 -1.8379 -0.0460
  900MOL0     H24151   9.335   3.918  10.077  1.1197 -1.9498  0.1119
  900MOL0     H24152   9.578   3.846   9.970 -1.4548  1.4973 -0.8115
  900MOL0     H24153   9.499   3.754  10.083  1.1034 -1.0441 -0.6902
  900MOL0     H24154   9.386   3.629   9.899  1.5463 -0.6185  1.5861
  900MOL0     H24155   9.491   3.719   9.787  1.9438 -1.0655 -0.9902
  900MOL0     H24156   9.577   3.519  10.005  0.7351 -0.0583  0.7701
  900MOL0     H24157   9.589   3.499   9.840  1.3552  3.0597 -0.7938
  900MOL0     H24158   9.953   3.539   9.944 -1.2402  1.7622  0.9519
  900MOL0     H24159  10.188   3.500   9.890  1.1380  1.6819 -1.1460
  900MOL0     H24160  10.250   3.476   9.732  0.0760 -1.9217 -1.1836
  900MOL0     H24161  10.143   3.356   9.790  1.5813 -1.5971  1.4656
  900MOL0     H24162  10.176   3.325   9.314 -1.0562  0.1372 -1.0947
  900MOL0     H24163  10.337   3.296   9.130  2.1349  1.6991  0.9394
  900MOL0     H24164  10.512   3.383   8.811 -2.6752  0.5140 -3.0213
  900MOL0     H24165  10.450   3.287   8.953 -1.2156 -1.4308 -1.6220
  900MOL0     H24166  10.282   3.412   8.731 -0.5438 -0.1052 -0.6852
  900MOL0     H24167  10.367   3.247   8.720  0.7380  0.6416  0.5409
  900MOL0     H24168  10.119   3.325   8.864 -0.2037 -0.6817  2.0712
  900MOL0     H24169  10.209   3.194   8.939 -1.3929  1.4188  0.9873
  900MOL0     H24170  10.174   3.054   8.740 -0.1726 -0.5975  0.5202
  900MOL0     H24171  10.132   3.207   8.654  0.3165  0.3723  0.0977
  900MOL0     H24172   9.984   3.038   8.857  1.1516 -0.7700 -0.8696
  900MOL0     H24173   9.935   3.215   8.836 -3.1861 -2.5459  1.3704
  900MOL0     H24174   9.797   3.044   8.693 -0.6973 -2.2848 -3.0875
  900MOL0     H24175   9.947   2.981   8.632  1.5075  0.2289  1.6799
  900MOL0     H24176   9.973   3.185   8.495  0.9322  1.3474  2.8311
  900MOL0     H24177   9.859   3.276   8.594 -2.0491 -1.8508  1.9935
  900MOL0     H24178   9.787   3.198   8.346  2.6483  1.3569  0.9966
  900MOL0     H24179   9.669   3.163   8.479 -0.4993  1.5165 -1.0674
  900MOL0     H24180  10.292   3.708   9.013  3.1936  0.9701  2.9053
  900MOL0     H24181  10.105   3.732   9.185 -4.2405 -1.8370  0.7658
  900MOL0     H24182   9.837   3.652   9.481 -0.9997  1.8354  0.3750
  900MOL0     H24183   9.672   3.697   9.665  0.2919 -1.2567 -1.4510
  900MOL0     H24184   9.187   3.777   8.810 -1.8811  1.9465 -1.1466
  900MOL0     H24185   9.059   3.872   8.631 -1.3583  1.7302 -0.2745
  900MOL0     H24186   9.065   4.283   8.388  0.6173  2.1608 -1.2994
  900MOL0     H24187   8.978   4.448   8.244 -2.6197 -0.8955  1.2431
  900MOL0     H24188   8.763   4.405   8.050  1.9949 -1.2731 -1.5903
  900MOL0     H24189   8.846   4.555   8.075 -1.5881  0.0075 -0.0970
  900MOL0     H24190   8.843   4.583   7.828 -0.4302 -0.6246 -1.7153
  900MOL0     H24191   8.698   4.635   7.917  1.7112  1.7059 -1.2953
  900MOL0     H24192   8.760   4.394   7.743  1.2281  0.7032  0.1433
  900MOL0     H24193   8.609   4.385   7.849 -0.6798  1.6520  1.1641
  900MOL0     H24194   8.654   4.622   7.651 -1.0494  0.3438 -0.8365
  900MOL0     H24195   8.501   4.558   7.708 -0.2402  0.6210 -1.6131
  900MOL0     H24196   8.566   4.305   7.386  0.5793  0.3411  0.6634
  900MOL0     H24197   9.031   4.172   7.920 -1.0836 -0.9544  0.7949
  900MOL0     H24198   9.131   3.979   7.929  3.9032 -0.8831  0.3013
  900MOL0     H24199   9.227   3.926   8.073  1.1873  1.3547  1.2898
  900MOL0     H24200   9.051   3.904   8.076 -0.6763  0.8167  0.3098
  901MOL0     O24201   3.964  10.292   3.014  0.8523 -1.0738  0.1125
  901MOL0     C24202   4.014  10.402   3.052 -0.6252  0.8384  0.1655
  901MOL0     O24203   3.973  10.480   3.154  0.0959 -0.1888 -0.1149
  901MOL0     C24204   3.848  10.447   3.195  0.0208  0.0415 -0.4922
  901MOL0     C24205   3.829  10.321   3.257  0.8412  0.3959 -0.1622
  901MOL0     C24206   3.705  10.278   3.314  0.4454  0.0607  0.6211
  901MOL0     C24207   3.591  10.368   3.308  0.1540  0.3153  0.1736
  901MOL0     O24208   3.466  10.349   3.371 -0.3213 -0.4279 -0.3276
  901MOL0     C24209   3.416  10.215   3.400  0.6432 -0.0587 -0.8658
  901MOL0     C24210   3.303  10.221   3.499 -0.2914 -0.4628  0.3462
  901MOL0     C24211   3.219  10.094   3.491 -0.2354  1.0099 -0.7348
  901MOL0     C24212   3.122  10.087   3.611  0.7129 -0.2492  0.0937
  901MOL0     C24213   3.002   9.996   3.586  0.6165  0.2256 -0.3868
  901MOL0     C24214   3.037   9.847   3.549 -0.3865  0.2284 -0.2914
  901MOL0     C24215   2.907   9.764   3.528 -0.8900  0.5192  0.5616
  901MOL0     C24216   2.935   9.617   3.476 -0.1403  0.5235  0.9957
  901MOL0     N24217   2.973   9.629   3.326  0.1849  1.7827 -0.0229
  901MOL0     C24218   2.893   9.611   3.212  0.0070  0.4603 -0.3320
  901MOL0     C24219   2.981   9.632   3.108 -0.6862  0.2395  0.1803
  901MOL0     C24220   2.944   9.629   2.966  0.0234 -0.1275 -0.3163
  901MOL0     C24221   3.013   9.506   2.883  0.6380 -0.1656  0.1823
  901MOL0     C24222   2.975   9.363   2.933 -0.0707 -0.0213 -0.7001
  901MOL0     C24223   3.063   9.255   2.877 -0.5948  0.5712  0.3609
  901MOL0     O24224   3.064   9.267   2.725  0.1622 -0.7382 -0.2526
  901MOL0     C24225   3.104   9.157   2.648  0.6614  0.2506 -0.7229
  901MOL0     C24226   3.122   9.180   2.515  0.2678 -0.7527  0.0376
  901MOL0     C24227   3.192   9.090   2.434  0.0473 -0.1569 -0.3438
  901MOL0     C24228   3.223   9.137   2.291  0.3552  0.5489 -0.1792
  901MOL0     C24229   3.213   8.955   2.484  0.2046  0.0281 -0.1466
  901MOL0     C24230   3.277   8.844   2.397 -0.0722 -0.6208 -0.3463
  901MOL0     O24231   3.309   8.725   2.462  0.5702  0.0598  0.0205
  901MOL0     C24232   3.311   8.597   2.401  0.1380  0.8637  0.6500
  901MOL0     C24233   3.265   8.483   2.470  0.2903  0.0197 -0.6129
  901MOL0     C24234   3.294   8.356   2.421 -0.0007  0.0339  0.2259
  901MOL0     C24235   3.345   8.334   2.290 -0.4773 -0.0728  0.1347
  901MOL0     O24236   3.361   8.202   2.250  0.2144 -0.2084 -0.3414
  901MOL0     C24237   3.409   8.162   2.124  0.7681 -0.3750 -0.0836
  901MOL0     C24238   3.381   8.014   2.094 -0.9368  0.4178 -0.1980
  901MOL0     C24239   3.472   7.923   2.174 -0.1744  0.0609  0.2602
  901MOL0     C24240   3.414   7.778   2.196  0.0907 -0.3293 -0.0743
  901MOL0     C24241   3.384   7.710   2.062 -0.1243 -0.2950  0.5202
  901MOL0     C24242   3.278   7.593   2.070 -0.4398  1.6476 -2.0667
  901MOL0     C24243   3.311   7.497   2.186  0.6659  0.4037 -0.9756
  901MOL0     C24244   3.226   7.371   2.179 -0.4255 -0.0584  0.1178
  901MOL0    Cl24245   3.259   7.269   2.036  0.0814 -0.5430  0.6322
  901MOL0     C24246   3.372   8.444   2.210 -0.3450 -0.1724  0.2461
  901MOL0     C24247   3.363   8.571   2.272  0.7704  0.1666  0.2877
  901MOL0     O24248   3.281   8.851   2.278 -0.7513  0.5137  0.4331
  901MOL0     C24249   3.181   8.928   2.617  0.3906  0.2422  0.5895
  901MOL0     C24250   3.125   9.025   2.704 -1.5968  0.1693  0.3232
  901MOL0     N24251   3.111   9.642   3.160 -0.2082 -0.1688  0.2771
  901MOL0     N24252   3.097   9.648   3.286 -0.5383  0.3072 -0.3855
  901MOL0     C24253   3.613  10.494   3.247  0.5028 -1.3038  0.0501
  901MOL0     C24254   3.738  10.525   3.192 -0.9042 -0.4515  1.0275
  901MOL0     C24255   4.148  10.435   2.995 -0.7397 -0.5242 -0.5749
  901MOL0     C24256   4.184  10.389   2.862  0.6247  0.2049 -0.3270
  901MOL0     C24257   4.317  10.412   2.815  1.1193 -0.1637  0.4633
  901MOL0     C24258   4.404  10.470   2.891 -0.8121 -0.3592 -0.1365
  901MOL0     O24259   4.528  10.477   2.841 -0.0908  0.7500  0.0156
  901MOL0     C24260   4.605  10.594   2.866 -0.3906  0.0936  0.0675
  901MOL0     C24261   4.745  10.580   2.803  0.7283 -0.0884  0.9265
  901MOL0     C24262   4.841  10.686   2.860 -0.3166  0.3422  0.5094
  901MOL0     C24263   4.878  10.794   2.757  1.2310  0.0845  0.0905
  901MOL0     C24264   4.991  10.765   2.655  0.5154 -0.3450  0.4473
  901MOL0     C24265   5.076  10.727   2.577  0.8099 -0.1771  0.3587
  901MOL0     C24266   4.369  10.526   3.016 -0.1540  0.6966 -0.2386
  901MOL0     C24267   4.243  10.512   3.072  0.0884 -0.0584  0.1520
  901MOL0     C24268   4.233  10.588   3.198 -0.7773 -1.1732 -0.4243
  901MOL0     H24269   3.922  10.267   3.272  0.7429  0.1239 -0.5076
  901MOL0     H24270   3.696  10.173   3.341 -4.3157 -0.3043 -1.4007
  901MOL0     H24271   3.499  10.156   3.439  0.1757  0.3771  0.8716
  901MOL0     H24272   3.375  10.176   3.306  0.1253  2.3552 -1.7194
  901MOL0     H24273   3.339  10.227   3.602 -1.8888  1.8130  0.8685
  901MOL0     H24274   3.233  10.304   3.480 -0.5712 -0.7603  0.0599
  901MOL0     H24275   3.168  10.088   3.394  1.1678  0.3582 -1.4751
  901MOL0     H24276   3.287  10.008   3.503 -0.7572  0.8926  1.9233
  901MOL0     H24277   3.173  10.063   3.705 -1.5680 -0.1556  1.4497
  901MOL0     H24278   3.079  10.187   3.623 -2.4313 -1.4121 -0.5252
  901MOL0     H24279   2.934  10.028   3.507  0.5494 -2.0311 -1.3248
  901MOL0     H24280   2.950   9.989   3.681  0.8401 -1.5469 -0.3503
  901MOL0     H24281   3.108   9.845   3.466  0.6890  0.1306  0.6045
  901MOL0     H24282   3.085   9.792   3.630 -0.2992 -0.8958 -1.0724
  901MOL0     H24283   2.837   9.816   3.462 -1.9909 -0.9878  0.4795
  901MOL0     H24284   2.850   9.757   3.621 -1.7247 -0.2614  0.0144
  901MOL0     H24285   3.014   9.575   3.539 -1.4032 -1.7127  1.1944
  901MOL0     H24286   2.841   9.568   3.500 -1.7995  2.0616 -1.8592
  901MOL0     H24287   2.788   9.595   3.193  0.1003 -0.8181  0.1470
  901MOL0     H24288   2.976   9.721   2.916  1.5518 -0.6253 -0.3007
  901MOL0     H24289   2.837   9.612   2.951 -0.2605  1.5800 -0.4034
  901MOL0     H24290   3.001   9.508   2.774  0.3904 -3.6526  0.0377
  901MOL0     H24291   3.119   9.503   2.908  0.6842 -1.7063 -0.0992
  901MOL0     H24292   2.999   9.366   3.040  2.1715  1.6765 -1.1573
  901MOL0     H24293   2.870   9.340   2.914  0.4664 -1.7611 -1.8362
  901MOL0     H24294   3.164   9.272   2.917 -1.5059  4.5507  1.4682
  901MOL0     H24295   3.028   9.156   2.906 -0.1797 -0.5406 -2.6498
  901MOL0     H24296   3.089   9.277   2.481  1.2960 -1.1097 -2.1395
  901MOL0     H24297   3.295   9.078   2.235 -0.3596 -0.8855  0.3704
  901MOL0     H24298   3.258   9.240   2.299 -1.7245  1.3298 -0.2897
  901MOL0     H24299   3.137   9.133   2.223  0.7172 -1.1799 -0.5719
  901MOL0     H24300   3.239   8.493   2.575 -0.0222 -0.3469 -0.6520
  901MOL0     H24301   3.286   8.266   2.481  1.3893 -0.2335  0.0469
  901MOL0     H24302   3.359   8.220   2.045 -1.0128 -3.3128 -1.3071
  901MOL0     H24303   3.515   8.187   2.127  0.5778  0.5340 -0.5596
  901MOL0     H24304   3.278   7.978   2.093 -2.0105  3.2372 -0.1045
  901MOL0     H24305   3.411   7.991   1.991 -2.6128 -1.8799 -0.2482
  901MOL0     H24306   3.486   7.971   2.272  1.1064 -0.7074  0.4794
  901MOL0     H24307   3.571   7.918   2.130  0.5117  2.6034  1.3541
  901MOL0     H24308   3.318   7.771   2.249 -0.9636 -2.0493 -2.0820
  901MOL0     H24309   3.487   7.719   2.251 -2.7144 -4.4413 -0.3412
  901MOL0     H24310   3.350   7.777   1.983 -2.2263 -0.3947  1.2623
  901MOL0     H24311   3.478   7.663   2.031 -0.6087 -1.2137  0.4187
  901MOL0     H24312   3.280   7.532   1.979 -1.1450 -0.2983 -0.8293
  901MOL0     H24313   3.176   7.627   2.089 -2.1651 -2.7081 -2.5158
  901MOL0     H24314   3.279   7.545   2.279 -0.8164  2.3833 -2.4122
  901MOL0     H24315   3.417   7.471   2.187  0.8507  1.1506  0.0749
  901MOL0     H24316   3.121   7.401   2.176 -1.1342 -2.5005 -1.2126
  901MOL0     H24317   3.235   7.318   2.274 -2.6413  0.0866  0.4653
  901MOL0     H24318   3.410   8.437   2.109  0.4118 -3.1627  0.6532
  901MOL0     H24319   3.405   8.653   2.214 -4.3989  3.3066  0.3308
  901MOL0     H24320   3.179   8.827   2.656  0.1413  1.1862  3.2112
  901MOL0     H24321   3.114   8.995   2.808  2.7803  0.7244  1.1661
  901MOL0     H24322   3.533  10.567   3.241 -0.5910 -2.5134 -0.4740
  901MOL0     H24323   3.752  10.626   3.153  1.6502 -0.9741  0.3965
  901MOL0     H24324   4.110  10.344   2.797  0.2943 -0.0474  0.2188
  901MOL0     H24325   4.345  10.386   2.714  2.8999  1.2342  0.5629
  901MOL0     H24326   4.561  10.680   2.816  0.4185 -0.5575 -1.8345
  901MOL0     H24327   4.625  10.617   2.971  0.9415  1.5326 -0.4745
  901MOL0     H24328   4.737  10.587   2.694 -0.0469 -4.1167  0.5467
  901MOL0     H24329   4.783  10.479   2.823  0.0169 -0.8874 -1.3695
  901MOL0     H24330   4.799  10.743   2.943 -0.7255  0.8810 -0.0577
  901MOL0     H24331   4.924  10.626   2.896  0.4246  0.6767 -0.5866
  901MOL0     H24332   4.892  10.887   2.813  0.8166 -0.3907  1.0078
  901MOL0     H24333   4.787  10.804   2.697 -0.8615 -2.6244  2.4871
  901MOL0     H24334   5.143  10.692   2.501  0.7339  0.8354 -0.2038
  901MOL0     H24335   4.450  10.579   3.064  1.0176 -0.4842 -0.8247
  901MOL0     H24336   4.318  10.656   3.203 -1.2856  0.0053 -4.3288
  901MOL0     H24337   4.140  10.646   3.199  0.2275  0.5012  1.0177
  901MOL0     H24338   4.229  10.529   3.289  0.7729  2.8110  2.5050
  902MOL0     O24339   5.602   6.039   1.767  0.5105  0.8118 -0.5328
  902MOL0     C24340   5.515   5.971   1.806 -0.7997  0.4462  0.8456
  902MOL0     O24341   5.519   5.893   1.922 -0.1336 -0.4797  0.2633
  902MOL0     C24342   5.634   5.898   1.992 -0.5371 -0.0030  0.0804
  902MOL0     C24343   5.730   5.822   1.930 -0.8650  0.2401 -1.4539
  902MOL0     C24344   5.858   5.807   1.984 -0.7964  0.7377 -0.6676
  902MOL0     C24345   5.886   5.869   2.113  0.4972 -1.2195 -0.1545
  902MOL0     O24346   6.003   5.838   2.174  0.7573 -0.8065 -0.1737
  902MOL0     C24347   6.033   5.900   2.301  0.8192 -0.7090  0.1906
  902MOL0     C24348   6.179   5.867   2.333 -0.6042  0.3656 -0.8659
  902MOL0     C24349   6.205   5.731   2.399 -0.1931 -0.0648 -0.5140
  902MOL0     C24350   6.355   5.677   2.384  0.9264  0.5851  0.7791
  902MOL0     C24351   6.463   5.782   2.415 -0.5923 -0.0860 -0.8220
  902MOL0     C24352   6.598   5.713   2.403 -0.0392  0.7790 -0.3148
  902MOL0     C24353   6.705   5.807   2.455 -0.1034  0.4423  0.2502
  902MOL0     C24354   6.841   5.730   2.467  0.2546  1.0267 -0.4263
  902MOL0     N24355   6.961   5.813   2.485 -1.1480  0.0029 -0.1464
  902MOL0     C24356   6.969   5.947   2.489 -0.0965  0.3419  0.7229
  902MOL0     C24357   7.107   5.973   2.469  0.3150 -0.2347  0.1447
  902MOL0     C24358   7.179   6.100   2.451 -0.4585 -0.2707  0.3917
  902MOL0     C24359   7.271   6.122   2.577 -0.1505  0.5125 -0.3608
  902MOL0     C24360   7.357   6.245   2.549 -0.6066 -0.7771 -0.0101
  902MOL0     C24361   7.422   6.295   2.676 -0.2473  0.1402  0.0984
  902MOL0     O24362   7.491   6.415   2.647 -0.0388 -0.4571  0.8503
  902MOL0     C24363   7.581   6.456   2.745  0.1185  0.2726 -0.7202
  902MOL0     C24364   7.567   6.425   2.887 -0.7075 -0.0390 -0.2678
  902MOL0     C24365   7.661   6.467   2.985 -0.6514  0.2267  0.4323
  902MOL0     C24366   7.637   6.442   3.130  0.1397  0.7379 -0.0191
  902MOL0     C24367   7.777   6.546   2.937 -0.2875 -0.3195 -1.1436
  902MOL0     C24368   7.875   6.607   3.023 -0.1569 -0.5715  0.4422
  902MOL0     O24369   7.907   6.741   2.999 -0.5404  0.4867 -0.5448
  902MOL0     C24370   7.985   6.804   3.096 -0.0140  0.4139  0.7035
  902MOL0     C24371   8.122   6.765   3.118  0.1487  0.1175  0.5620
  902MOL0     C24372   8.202   6.834   3.206 -0.7804  0.3402 -0.7939
  902MOL0     C24373   8.163   6.948   3.266  0.2535  1.0121 -0.5577
  902MOL0     O24374   8.260   7.017   3.344  0.5918 -0.5844 -0.0807
  902MOL0     C24375   8.274   7.157   3.308  0.0712  0.0608  0.7171
  902MOL0     C24376   8.296   7.250   3.428  0.5728  0.3187  0.3636
  902MOL0     C24377   8.161   7.252   3.509  0.1358 -0.0295  0.1861
  902MOL0     C24378   8.065   7.348   3.455  1.0248  0.6407 -0.0856
  902MOL0     C24379   7.939   7.386   3.544  0.0423 -0.2124  0.8709
  902MOL0     C24380   7.878   7.277   3.630  0.5742  0.6822  0.3976
  902MOL0     C24381   7.762   7.331   3.710  0.1463 -1.0968 -0.1320
  902MOL0     C24382   7.813   7.421   3.831  0.5791 -0.0353 -0.9819
  902MOL0    Cl24383   7.895   7.319   3.958 -0.3242 -0.1669 -0.2661
  902MOL0     C24384   8.033   6.993   3.256  0.9540  0.4456 -0.8385
  902MOL0     C24385   7.952   6.922   3.167 -0.2461 -0.2059 -0.0501
  902MOL0     O24386   7.929   6.531   3.106  0.2335  0.1155 -0.5524
  902MOL0     C24387   7.794   6.572   2.801  0.2980  0.3936  1.1095
  902MOL0     C24388   7.689   6.532   2.710 -0.1010  0.6018  0.9772
  902MOL0     N24389   7.173   5.854   2.467 -1.3629  0.6936  0.7561
  902MOL0     N24390   7.082   5.757   2.471 -0.1768  0.7582  0.1249
  902MOL0     C24391   5.783   5.949   2.172  0.5187  1.2759 -0.5026
  902MOL0     C24392   5.658   5.966   2.113  0.4610  0.4404 -0.4491
  902MOL0     C24393   5.376   5.978   1.742  0.5317 -0.0734 -0.3423
  902MOL0     C24394   5.260   5.955   1.828 -0.8858 -0.2052  0.3918
  902MOL0     C24395   5.132   5.978   1.779 -0.4698  0.4731  0.5340
  902MOL0     C24396   5.108   6.005   1.640 -0.4009  0.1874  0.7339
  902MOL0     O24397   4.984   6.041   1.583  0.1957 -0.4021  0.5717
  902MOL0     C24398   4.872   6.022   1.669 -0.5974  0.6682  0.0539
  902MOL0     C24399   4.756   6.037   1.569  0.3791 -0.1155  0.0085
  902MOL0     C24400   4.628   5.996   1.647 -0.3625 -0.0113 -0.4021
  902MOL0     C24401   4.507   6.022   1.569 -0.6836 -0.6985  0.0848
  902MOL0     C24402   4.491   5.925   1.468 -0.2695  0.3231 -0.1375
  902MOL0     C24403   4.456   5.824   1.402 -0.6435  0.0269 -0.3433
  902MOL0     C24404   5.221   6.010   1.558  0.1448 -1.2566  0.3097
  902MOL0     C24405   5.354   5.999   1.608 -0.2642  0.0323  0.1919
  902MOL0     C24406   5.462   6.010   1.502 -0.2666 -0.6653 -0.2669
  902MOL0     H24407   5.716   5.772   1.835  0.5328 -2.6605 -0.2451
  902MOL0     H24408   5.928   5.737   1.939 -0.1935  0.7678  0.1924
  902MOL0     H24409   5.974   5.860   2.384  0.1644  2.1980  1.2470
  902MOL0     H24410   6.017   6.007   2.288 -2.7106 -0.9691  1.3074
  902MOL0     H24411   6.236   5.881   2.241  0.2776  2.0862 -0.0923
  902MOL0     H24412   6.213   5.942   2.405 -3.1104 -1.0982  2.1062
  902MOL0     H24413   6.173   5.737   2.503  0.3697  0.6136 -0.3728
  902MOL0     H24414   6.138   5.657   2.355 -3.5606  2.6034 -0.2666
  902MOL0     H24415   6.375   5.591   2.449  0.9787 -2.3561 -2.7933
  902MOL0     H24416   6.377   5.640   2.284 -1.6806  0.4390  0.1985
  902MOL0     H24417   6.456   5.819   2.518  2.4370 -3.8366  0.9974
  902MOL0     H24418   6.455   5.865   2.345  1.3460 -1.0103 -2.2215
  902MOL0     H24419   6.592   5.623   2.465 -2.7099  1.4306  0.5091
  902MOL0     H24420   6.600   5.682   2.298 -2.4656  0.8897 -0.4523
  902MOL0     H24421   6.684   5.857   2.550  1.3604 -0.8425  1.2943
  902MOL0     H24422   6.712   5.885   2.378 -4.6119 -0.4405 -1.3858
  902MOL0     H24423   6.839   5.668   2.558  5.2845  0.5556 -0.3155
  902MOL0     H24424   6.858   5.674   2.375 -3.8733 -1.1661 -0.0481
  902MOL0     H24425   6.889   6.017   2.469  0.0412 -0.3121 -2.6459
  902MOL0     H24426   7.101   6.175   2.440 -3.5501 -2.9161  2.3965
  902MOL0     H24427   7.247   6.085   2.367 -0.3226  0.3788  0.3853
  902MOL0     H24428   7.209   6.135   2.666  2.1729  1.1100  1.2634
  902MOL0     H24429   7.335   6.034   2.595  0.4544  0.6498 -1.6980
  902MOL0     H24430   7.439   6.234   2.477  0.1902  2.6337  0.2427
  902MOL0     H24431   7.298   6.329   2.513 -0.9601 -0.6586  0.8199
  902MOL0     H24432   7.346   6.302   2.753  0.5938  1.4850  0.8400
  902MOL0     H24433   7.491   6.219   2.713  0.1095  1.5581  2.6027
  902MOL0     H24434   7.483   6.368   2.926  1.5110 -2.9235  0.7370
  902MOL0     H24435   7.727   6.420   3.189  0.1046 -1.9355 -0.7964
  902MOL0     H24436   7.582   6.348   3.138  0.4497  0.6644  1.5998
  902MOL0     H24437   7.584   6.527   3.173 -2.0478  0.3745 -1.8157
  902MOL0     H24438   8.156   6.681   3.058  1.2742  0.2388  1.0091
  902MOL0     H24439   8.306   6.805   3.222 -1.8459 -2.9154  1.3516
  902MOL0     H24440   8.354   7.166   3.234 -2.0722  0.7435 -1.7035
  902MOL0     H24441   8.190   7.196   3.249  0.5790 -0.1396 -0.1465
  902MOL0     H24442   8.376   7.195   3.479  0.5349 -0.9265 -0.8584
  902MOL0     H24443   8.342   7.347   3.411  1.9375 -0.6438 -1.8721
  902MOL0     H24444   8.186   7.280   3.612  3.1057  0.5049 -0.6118
  902MOL0     H24445   8.116   7.153   3.515  1.4220 -0.8866 -2.5537
  902MOL0     H24446   8.030   7.293   3.367  3.0855 -1.3183  0.2285
  902MOL0     H24447   8.112   7.439   3.417 -0.2687  0.5155 -2.1663
  902MOL0     H24448   7.962   7.464   3.616  1.1345 -0.0779  0.3936
  902MOL0     H24449   7.859   7.413   3.474  0.8075 -0.3648 -0.0858
  902MOL0     H24450   7.955   7.250   3.703  1.6456 -0.0076 -0.9347
  902MOL0     H24451   7.859   7.183   3.578  1.8432 -0.0157  1.1329
  902MOL0     H24452   7.688   7.257   3.743 -0.9624 -0.2900 -0.7478
  902MOL0     H24453   7.706   7.397   3.644 -0.4246  0.1910  1.5596
  902MOL0     H24454   7.735   7.478   3.880  0.8420  0.6271 -1.3202
  902MOL0     H24455   7.882   7.496   3.791 -0.3637  0.2807 -2.0908
  902MOL0     H24456   7.993   7.084   3.301  0.5485 -0.3859  0.5428
  902MOL0     H24457   7.855   6.970   3.163  0.6094  1.5123 -0.9512
  902MOL0     H24458   7.881   6.621   2.758  1.3250 -2.2893 -0.0725
  902MOL0     H24459   7.701   6.567   2.608 -0.7683 -1.9359 -0.0500
  902MOL0     H24460   5.803   6.003   2.264  0.7805 -1.3676  1.1071
  902MOL0     H24461   5.587   6.026   2.169  2.2480  2.8508 -0.6286
  902MOL0     H24462   5.275   5.931   1.933  1.3391 -2.5657 -0.3693
  902MOL0     H24463   5.052   5.989   1.851  0.6746 -1.5854  2.2271
  902MOL0     H24464   4.868   5.925   1.719 -4.3470  1.2045  1.1072
  902MOL0     H24465   4.866   6.104   1.741  0.6323 -0.3140  1.3370
  902MOL0     H24466   4.778   5.996   1.470 -0.9456 -2.1655  0.5149
  902MOL0     H24467   4.753   6.145   1.553  1.4481 -0.1740 -0.6879
  902MOL0     H24468   4.629   5.890   1.677  0.2810 -0.5216 -2.0872
  902MOL0     H24469   4.627   6.035   1.749 -0.0514 -1.0261  0.0083
  902MOL0     H24470   4.522   6.118   1.518  0.3204 -0.2820  1.1144
  902MOL0     H24471   4.422   6.038   1.635 -1.8823  1.0665 -1.7712
  902MOL0     H24472   4.429   5.736   1.348  0.6237 -1.4601  1.3074
  902MOL0     H24473   5.200   6.042   1.457  0.7404  0.4929  0.7086
  902MOL0     H24474   5.425   6.011   1.399 -0.0451  3.9466 -0.5334
  902MOL0     H24475   5.506   6.107   1.529  0.8540 -0.8381 -1.3883
  902MOL0     H24476   5.524   5.920   1.499 -0.3275 -0.7318  0.3821
  903MOL0     O24477   1.772  10.572   2.172  0.5039  0.3498  0.0268
  903MOL0     C24478   1.745  10.636   2.071 -0.1754  0.1029 -0.1245
  903MOL0     O24479   1.805  10.629   1.942 -0.2377  0.9542 -0.2109
  903MOL0     C24480   1.907  10.547   1.913  0.1524  0.4646 -0.1816
  903MOL0     C24481   1.936  10.427   1.978  0.8642  0.1809 -0.7105
  903MOL0     C24482   2.043  10.349   1.952 -1.1322 -0.0600  0.4105
  903MOL0     C24483   2.142  10.388   1.866 -0.8950 -0.5031 -0.4353
  903MOL0     O24484   2.247  10.307   1.838 -0.7631 -0.2366  0.5045
  903MOL0     C24485   2.349  10.339   1.742 -0.3690 -0.0035  0.7464
  903MOL0     C24486   2.473  10.395   1.820 -0.6698  0.2666  0.3149
  903MOL0     C24487   2.447  10.536   1.874 -0.9667 -0.1131  0.1545
  903MOL0     C24488   2.582  10.593   1.943  0.1768  0.5665 -0.4786
  903MOL0     C24489   2.549  10.718   2.031  0.2083 -0.0752  0.0597
  903MOL0     C24490   2.682  10.791   2.079 -0.2077  0.1311 -0.5942
  903MOL0     C24491   2.658  10.912   2.177  0.4882 -0.4770  0.0515
  903MOL0     C24492   2.765  10.904   2.295  1.0166 -0.4123  1.7164
  903MOL0     N24493   2.905  10.902   2.262  0.1124  0.2441  0.4367
  903MOL0     C24494   3.003  10.893   2.361 -0.2371  0.1352 -0.0941
  903MOL0     C24495   3.116  10.946   2.308 -0.3118  0.1205 -1.7045
  903MOL0     C24496   3.257  10.979   2.348  0.2890 -0.1461  0.7884
  903MOL0     C24497   3.310  10.893   2.460 -0.5126 -0.7076  0.2482
  903MOL0     C24498   3.264  10.946   2.586  0.7484 -0.3686  0.0400
  903MOL0     C24499   3.346  11.056   2.639 -0.6018 -0.4485 -0.0791
  903MOL0     O24500   3.458  10.994   2.704  0.0277  0.4410 -0.9406
  903MOL0     C24501   3.570  11.070   2.718  0.0287 -0.1083 -0.4471
  903MOL0     C24502   3.637  11.060   2.836  0.1412  0.3894 -0.0978
  903MOL0     C24503   3.750  11.140   2.875 -0.1313  0.3256  0.2797
  903MOL0     C24504   3.812  11.122   3.016  0.0475  0.0494  0.0011
  903MOL0     C24505   3.814  11.217   2.769  0.0096  0.5370 -0.3451
  903MOL0     C24506   3.951  11.282   2.786  0.2990 -0.1041  0.0100
  903MOL0     O24507   4.004  11.324   2.669 -0.0791  0.3273  0.3015
  903MOL0     C24508   4.134  11.366   2.656  0.2094  0.5067  0.4610
  903MOL0     C24509   4.160  11.434   2.546 -0.6722 -1.0006 -0.3549
  903MOL0     C24510   4.288  11.470   2.507  0.5018 -0.0596  0.7722
  903MOL0     C24511   4.399  11.420   2.581 -0.6718 -0.7491  0.2191
  903MOL0     O24512   4.535  11.437   2.553  0.0640  0.5987 -0.2090
  903MOL0     C24513   4.571  11.453   2.418 -1.9667 -0.3289  0.8170
  903MOL0     C24514   4.726  11.447   2.412  1.0027  0.4628 -0.5139
  903MOL0     C24515   4.788  11.464   2.277 -0.1230 -0.5862 -0.4625
  903MOL0     C24516   4.773  11.601   2.225  0.1065 -0.1854 -0.1463
  903MOL0     C24517   4.852  11.710   2.298  0.0740  0.8138 -0.4543
  903MOL0     C24518   4.805  11.847   2.252  0.0717 -0.4134  1.3508
  903MOL0     C24519   4.858  11.885   2.107  0.2510  1.1109 -0.9753
  903MOL0     C24520   4.744  11.929   2.016 -0.6686 -0.0770  0.2650
  903MOL0    Cl24521   4.815  11.922   1.845  0.0993  0.5241  0.1912
  903MOL0     C24522   4.365  11.366   2.706 -0.6646  0.6870  0.1204
  903MOL0     C24523   4.244  11.322   2.735  0.9406 -0.8886 -0.4730
  903MOL0     O24524   3.982  11.327   2.895 -0.2976 -0.6730  0.2629
  903MOL0     C24525   3.735  11.230   2.649  0.2859  0.1799 -0.3348
  903MOL0     C24526   3.625  11.161   2.620 -0.0058  0.0352  0.1485
  903MOL0     N24527   3.076  11.012   2.194 -1.5027 -0.6011  0.5102
  903MOL0     N24528   2.958  10.977   2.164 -0.5822  0.3140  0.3432
  903MOL0     C24529   2.110  10.506   1.789  0.1216 -0.6127 -0.4954
  903MOL0     C24530   1.991  10.580   1.810 -0.8152  0.1018  0.5397
  903MOL0     C24531   1.610  10.709   2.081  0.8769  0.2025 -0.3299
  903MOL0     C24532   1.518  10.674   2.185 -0.0142  0.8990  0.0942
  903MOL0     C24533   1.394  10.736   2.181  0.4245  0.2596 -0.4135
  903MOL0     C24534   1.360  10.824   2.079 -0.5383 -0.6394  0.1947
  903MOL0     O24535   1.239  10.886   2.060  0.1195 -0.5276  0.4869
  903MOL0     C24536   1.132  10.800   2.083 -0.5166 -0.4746  0.3737
  903MOL0     C24537   1.005  10.887   2.067 -0.0262  0.4075  0.3196
  903MOL0     C24538   0.991  11.009   2.153 -0.3116  0.3622 -0.4089
  903MOL0     C24539   0.843  11.051   2.174 -1.1303  0.8850 -0.0436
  903MOL0     C24540   0.767  11.057   2.055 -0.2510  0.3966  0.7624
  903MOL0     C24541   0.691  11.054   1.957  0.7254  0.5183 -0.9511
  903MOL0     C24542   1.447  10.858   1.975 -0.4890  0.6785  0.1383
  903MOL0     C24543   1.576  10.799   1.978  0.5189 -1.1701 -0.0532
  903MOL0     C24544   1.668  10.876   1.893 -0.1922 -0.2747  0.5637
  903MOL0     H24545   1.868  10.391   2.055  0.5779  0.5825 -0.7695
  903MOL0     H24546   2.062  10.267   2.021  4.3478 -0.6211 -1.2580
  903MOL0     H24547   2.326  10.415   1.666  1.6516  0.7841  0.8560
  903MOL0     H24548   2.385  10.246   1.698 -1.6289  0.1998 -0.7938
  903MOL0     H24549   2.511  10.321   1.891 -0.0028 -0.9879 -1.2893
  903MOL0     H24550   2.550  10.391   1.741 -1.3916 -2.5032 -0.3606
  903MOL0     H24551   2.419  10.593   1.785  4.7348  1.1698 -1.1818
  903MOL0     H24552   2.358  10.531   1.939 -2.1255 -4.0579 -1.4307
  903MOL0     H24553   2.627  10.512   2.001 -1.8578 -1.9488 -2.1554
  903MOL0     H24554   2.647  10.608   1.856  1.1233 -1.4370 -0.1749
  903MOL0     H24555   2.497  10.688   2.122  2.0034 -0.9999  0.8271
  903MOL0     H24556   2.483  10.791   1.982 -2.3455 -0.8926  2.0438
  903MOL0     H24557   2.763  10.728   2.119 -1.7424 -3.2624 -2.3841
  903MOL0     H24558   2.721  10.834   1.986 -0.6776 -0.0228 -0.8608
  903MOL0     H24559   2.558  10.909   2.222  0.2757  0.4969 -0.3326
  903MOL0     H24560   2.669  11.008   2.125 -0.1969  0.1345  0.9986
  903MOL0     H24561   2.732  10.989   2.356 -1.8371 -0.1826  0.0169
  903MOL0     H24562   2.748  10.827   2.371  1.3061  0.5672  2.8168
  903MOL0     H24563   3.005  10.847   2.459 -1.3425 -0.3734 -0.3020
  903MOL0     H24564   3.250  11.085   2.373 -1.0457 -0.3424  1.3282
  903MOL0     H24565   3.319  10.970   2.258 -1.1814  3.3668 -0.7400
  903MOL0     H24566   3.283  10.788   2.442 -1.2341 -0.2199 -1.7963
  903MOL0     H24567   3.418  10.908   2.448 -0.1090 -3.1435  0.3673
  903MOL0     H24568   3.160  10.980   2.575  1.5274  1.6657 -2.0378
  903MOL0     H24569   3.261  10.861   2.654 -1.6284 -2.0217 -1.9591
  903MOL0     H24570   3.362  11.124   2.555 -3.5582 -1.9952 -2.0670
  903MOL0     H24571   3.288  11.118   2.708  0.1112  2.0055 -1.5658
  903MOL0     H24572   3.593  10.994   2.910 -0.2837 -1.7330 -2.1398
  903MOL0     H24573   3.845  11.219   3.054 -0.4884  1.0738 -2.0222
  903MOL0     H24574   3.902  11.062   2.998  0.9632  1.8131 -1.5730
  903MOL0     H24575   3.755  11.077   3.098 -0.7872 -0.8705 -1.0524
  903MOL0     H24576   4.073  11.457   2.485 -1.8397  0.7962  1.8586
  903MOL0     H24577   4.311  11.516   2.411 -0.3757 -0.4700  0.3526
  903MOL0     H24578   4.524  11.367   2.369 -0.6988  0.1960 -1.5111
  903MOL0     H24579   4.547  11.548   2.368  0.2844  0.6053  1.3723
  903MOL0     H24580   4.769  11.514   2.488  0.0235  1.0736 -0.4856
  903MOL0     H24581   4.762  11.352   2.453  2.7741  0.6636 -1.4662
  903MOL0     H24582   4.739  11.387   2.217 -1.3829 -0.3730  0.2639
  903MOL0     H24583   4.898  11.457   2.274 -0.0133 -0.4269  1.5256
  903MOL0     H24584   4.670  11.639   2.229  0.2112  0.0027  1.3918
  903MOL0     H24585   4.804  11.593   2.121  0.4631  0.1609 -0.0677
  903MOL0     H24586   4.835  11.698   2.406  3.4051 -0.0141  0.0859
  903MOL0     H24587   4.961  11.708   2.285  0.0157 -0.0482 -0.9187
  903MOL0     H24588   4.848  11.920   2.322 -0.5086  1.9660 -0.6211
  903MOL0     H24589   4.696  11.853   2.255 -0.0283 -1.5985  0.4688
  903MOL0     H24590   4.910  11.804   2.056  3.7746  0.4759  3.0318
  903MOL0     H24591   4.931  11.965   2.122  0.1570  1.0263  0.0065
  903MOL0     H24592   4.700  12.026   2.041 -2.2108 -1.0786  1.6494
  903MOL0     H24593   4.663  11.855   2.019  0.5019 -1.4320 -0.3984
  903MOL0     H24594   4.457  11.340   2.758 -0.6936 -0.0296 -0.1740
  903MOL0     H24595   4.228  11.256   2.820 -1.2629 -1.8864 -1.5551
  903MOL0     H24596   3.777  11.301   2.578  0.2516  1.6033  0.9962
  903MOL0     H24597   3.587  11.172   2.519  3.6713 -1.5740 -1.5733
  903MOL0     H24598   2.174  10.555   1.716 -2.7708  1.5698 -1.7757
  903MOL0     H24599   1.974  10.677   1.765 -1.0841 -0.3449 -0.3287
  903MOL0     H24600   1.540  10.603   2.265  0.4529  1.3437  0.3640
  903MOL0     H24601   1.337  10.710   2.270 -0.2238  0.6718 -0.6994
  903MOL0     H24602   1.130  10.716   2.013  3.5555 -0.6660  0.2405
  903MOL0     H24603   1.130  10.762   2.185  0.9110  0.8604  0.9353
  903MOL0     H24604   0.921  10.817   2.077  2.1350 -2.5475 -0.7167
  903MOL0     H24605   1.012  10.906   1.960 -1.0448 -1.3371 -0.1011
  903MOL0     H24606   1.042  10.990   2.248  0.8161  1.5701 -0.7416
  903MOL0     H24607   1.053  11.088   2.109 -0.8142  0.0668 -1.6798
  903MOL0     H24608   0.849  11.148   2.224  1.5145 -0.3343  2.2364
  903MOL0     H24609   0.793  10.979   2.240 -2.9955  0.9239 -1.3418
  903MOL0     H24610   0.611  11.063   1.887 -0.6184  0.4614  0.5075
  903MOL0     H24611   1.419  10.929   1.898 -1.0535  1.0232  0.6580
  903MOL0     H24612   1.748  10.904   1.963 -1.0696 -0.4044  1.6454
  903MOL0     H24613   1.719  10.822   1.813  1.4461 -1.4945  2.3508
  903MOL0     H24614   1.630  10.975   1.864 -1.9859 -1.0308  0.2110
  904MOL0     O24615  10.031   6.415   4.377 -0.8117  0.9043 -0.3320
  904MOL0     C24616   9.940   6.488   4.328 -0.0390  0.5713 -0.1567
  904MOL0     O24617   9.944   6.623   4.304  0.7379  0.1904  0.2176
  904MOL0     C24618  10.062   6.693   4.325 -0.7286  0.7467  0.7077
  904MOL0     C24619  10.181   6.655   4.260 -0.1878 -0.5988 -0.2351
  904MOL0     C24620  10.303   6.724   4.291 -0.2441 -0.2809  0.6414
  904MOL0     C24621  10.302   6.827   4.382 -0.5294  0.4526  0.5023
  904MOL0     O24622  10.413   6.899   4.399 -0.1332  0.5219 -0.4579
  904MOL0     C24623  10.500   6.853   4.505  0.7271  0.1972  0.1145
  904MOL0     C24624  10.524   6.964   4.622 -0.3054  0.3205 -0.5169
  904MOL0     C24625  10.613   7.085   4.578 -0.5468 -0.2525 -0.5009
  904MOL0     C24626  10.574   7.216   4.644  0.8703 -0.8111  0.2022
  904MOL0     C24627  10.601   7.208   4.794  0.6787  0.0149 -0.3763
  904MOL0     C24628  10.547   7.331   4.860 -0.0343 -0.0713  0.0844
  904MOL0     C24629  10.483   7.302   4.993  0.0669 -0.9332  0.7939
  904MOL0     C24630  10.408   7.426   5.062  0.4716  0.8833  0.0594
  904MOL0     N24631  10.267   7.434   5.021  0.1421 -0.3039 -0.4020
  904MOL0     C24632  10.219   7.445   4.895 -0.3790  0.5858 -0.6149
  904MOL0     C24633  10.087   7.426   4.904  0.6176 -0.7941 -0.8476
  904MOL0     C24634   9.989   7.430   4.797 -0.1436  0.7982  0.1720
  904MOL0     C24635   9.961   7.287   4.739 -0.0792  0.4503 -0.3019
  904MOL0     C24636   9.864   7.285   4.620  0.1902  0.2135 -0.0913
  904MOL0     C24637   9.873   7.159   4.538  0.7537 -0.3523  0.2741
  904MOL0     O24638   9.865   7.039   4.615  0.4516 -0.7085 -0.0178
  904MOL0     C24639   9.735   6.995   4.641  0.2064 -0.4617 -0.0052
  904MOL0     C24640   9.665   7.018   4.760  0.0143 -0.2490 -0.5936
  904MOL0     C24641   9.541   6.954   4.782  0.5271 -0.3832  1.2311
  904MOL0     C24642   9.480   6.981   4.926  0.2500  0.4212 -1.3326
  904MOL0     C24643   9.485   6.873   4.683 -0.3959  0.2259 -0.5430
  904MOL0     C24644   9.352   6.819   4.701  0.5898 -0.4520 -0.5950
  904MOL0     O24645   9.318   6.702   4.630 -0.2501  0.0647  0.1260
  904MOL0     C24646   9.202   6.638   4.646  0.9045 -0.0034  0.1406
  904MOL0     C24647   9.082   6.711   4.605  0.1767  0.8409  0.4542
  904MOL0     C24648   8.960   6.631   4.614 -0.6345 -0.4633  0.1157
  904MOL0     C24649   8.959   6.502   4.663  0.2826  0.2701  0.0288
  904MOL0     O24650   8.836   6.440   4.655  0.1445 -0.3622 -0.9553
  904MOL0     C24651   8.813   6.315   4.718  0.0681  0.1711  0.0103
  904MOL0     C24652   8.666   6.270   4.701  0.0579 -0.0674  0.5343
  904MOL0     C24653   8.630   6.162   4.802 -0.7091  0.5067  0.8224
  904MOL0     C24654   8.486   6.117   4.781  1.0295 -0.3388 -0.3227
  904MOL0     C24655   8.438   6.020   4.888 -0.2891  0.0755  0.3837
  904MOL0     C24656   8.285   6.009   4.898  0.4045  0.9107 -0.2093
  904MOL0     C24657   8.203   6.138   4.901 -0.0439 -0.0338 -0.5735
  904MOL0     C24658   8.060   6.099   4.963 -0.7164 -0.6676 -0.5164
  904MOL0    Cl24659   7.983   5.978   4.860  0.0615  0.0032  0.1563
  904MOL0     C24660   9.076   6.436   4.708 -0.1604 -0.3064 -0.2389
  904MOL0     C24661   9.202   6.506   4.695 -0.0371  0.2568  0.2060
  904MOL0     O24662   9.269   6.871   4.782 -0.3699 -0.4830  0.6335
  904MOL0     C24663   9.560   6.834   4.572  0.1118 -0.2826  0.7672
  904MOL0     C24664   9.678   6.908   4.551 -0.9279 -0.2223  0.4345
  904MOL0     N24665  10.059   7.429   5.041 -0.0935 -0.8697 -0.4103
  904MOL0     N24666  10.171   7.421   5.118 -0.2851  0.9911  0.1144
  904MOL0     C24667  10.181   6.869   4.444 -0.0388  1.0246 -0.7502
  904MOL0     C24668  10.062   6.799   4.420 -0.0735 -0.0249  1.1104
  904MOL0     C24669   9.817   6.417   4.304 -0.0912  0.3196 -0.3769
  904MOL0     C24670   9.700   6.471   4.350 -0.3212 -1.4308 -0.2913
  904MOL0     C24671   9.583   6.422   4.342 -1.0001 -0.1290 -1.0871
  904MOL0     C24672   9.564   6.294   4.289 -0.4671  0.9388 -1.2947
  904MOL0     O24673   9.440   6.227   4.289  0.5694  0.5718  0.8649
  904MOL0     C24674   9.317   6.287   4.340  0.3448  0.2344 -0.1707
  904MOL0     C24675   9.221   6.162   4.352  0.5378 -0.1591 -0.5776
  904MOL0     C24676   9.091   6.185   4.437 -0.9874  0.2314 -0.7604
  904MOL0     C24677   8.980   6.073   4.405  0.0713  0.3524 -0.6825
  904MOL0     C24678   9.032   5.938   4.419 -0.2817  0.1987  0.9329
  904MOL0     C24679   9.082   5.826   4.433 -1.2269 -0.3320  0.8390
  904MOL0     C24680   9.680   6.228   4.234 -0.1312 -0.6808  0.4188
  904MOL0     C24681   9.806   6.292   4.245 -0.1400 -0.2985  0.4219
  904MOL0     C24682   9.935   6.212   4.191  1.0868 -0.6548 -1.0033
  904MOL0     H24683  10.176   6.574   4.188 -0.3037  0.1335 -1.0609
  904MOL0     H24684  10.390   6.692   4.235 -1.6526  0.5383 -2.1512
  904MOL0     H24685  10.595   6.816   4.465  0.7480 -1.8078  1.8581
  904MOL0     H24686  10.449   6.769   4.553 -0.3330  0.5839 -0.2948
  904MOL0     H24687  10.425   6.990   4.660 -1.8370 -2.9663 -1.8667
  904MOL0     H24688  10.572   6.916   4.708  1.0345  1.1576 -0.7740
  904MOL0     H24689  10.718   7.058   4.595 -0.3878  1.0302  0.7054
  904MOL0     H24690  10.593   7.109   4.473  2.1235  2.9485 -0.4594
  904MOL0     H24691  10.626   7.298   4.593  2.2494 -2.9709 -2.1262
  904MOL0     H24692  10.470   7.236   4.619  1.3884 -0.3254 -1.8530
  904MOL0     H24693  10.709   7.215   4.811  0.3854 -0.0141  1.7573
  904MOL0     H24694  10.576   7.114   4.844  3.3751 -0.3487  0.4552
  904MOL0     H24695  10.632   7.399   4.871  1.2576 -1.5316 -0.5567
  904MOL0     H24696  10.475   7.381   4.794  1.1740  0.7015 -0.7085
  904MOL0     H24697  10.554   7.260   5.065  2.7242 -2.3262 -2.3453
  904MOL0     H24698  10.415   7.218   4.978 -1.7956  0.5430  0.5666
  904MOL0     H24699  10.413   7.415   5.171  2.6324  0.6355 -0.0146
  904MOL0     H24700  10.459   7.520   5.042  1.5076  0.2362 -0.4293
  904MOL0     H24701  10.272   7.484   4.808 -0.6592  3.9961  0.5699
  904MOL0     H24702  10.010   7.512   4.728  0.4885  0.4526 -0.0542
  904MOL0     H24703   9.900   7.447   4.859  0.1630 -2.1551  1.6057
  904MOL0     H24704  10.053   7.233   4.718  0.6854  0.9991  1.4963
  904MOL0     H24705   9.907   7.237   4.821  0.8865  0.1020  0.1274
  904MOL0     H24706   9.766   7.285   4.670  1.3374 -3.4002  2.4927
  904MOL0     H24707   9.882   7.372   4.556 -0.8018 -0.5615 -1.4838
  904MOL0     H24708   9.792   7.170   4.466  1.4432  1.0248 -0.3270
  904MOL0     H24709   9.963   7.169   4.477 -0.0563  1.5745 -0.7044
  904MOL0     H24710   9.699   7.090   4.833  0.5223  1.1693 -2.1792
  904MOL0     H24711   9.432   7.079   4.922  3.0909  1.9905 -0.3792
  904MOL0     H24712   9.559   6.995   5.001 -0.1119  0.8554 -1.0283
  904MOL0     H24713   9.412   6.902   4.957  0.1934  0.1722 -2.0634
  904MOL0     H24714   9.082   6.802   4.547 -1.3092  0.5189 -0.0954
  904MOL0     H24715   8.864   6.674   4.587  0.3179  1.7665  0.0442
  904MOL0     H24716   8.879   6.237   4.679  0.2624 -0.8419  2.2459
  904MOL0     H24717   8.824   6.323   4.826  0.3036 -1.6214  0.1468
  904MOL0     H24718   8.601   6.358   4.701  1.7450  1.3137 -1.9649
  904MOL0     H24719   8.676   6.225   4.601 -0.0444  2.8991 -0.8959
  904MOL0     H24720   8.651   6.207   4.899  1.5713  2.2018 -0.3603
  904MOL0     H24721   8.685   6.072   4.775 -1.5493  0.4031 -0.6261
  904MOL0     H24722   8.473   6.066   4.685  0.1226  3.1998 -2.2613
  904MOL0     H24723   8.418   6.200   4.761  2.1137  0.5723 -0.3339
  904MOL0     H24724   8.472   5.917   4.873 -0.2283  0.4348 -2.3052
  904MOL0     H24725   8.479   6.056   4.983 -0.0343 -2.3111  1.2562
  904MOL0     H24726   8.276   5.958   4.995 -1.2086  1.9413  0.2310
  904MOL0     H24727   8.232   5.943   4.829 -0.5948 -0.9126  2.1429
  904MOL0     H24728   8.197   6.194   4.806  1.8830  2.7117  0.7853
  904MOL0     H24729   8.248   6.214   4.965 -0.5917 -0.0738 -0.1304
  904MOL0     H24730   8.005   6.193   4.964  2.5004  1.3707  0.1772
  904MOL0     H24731   8.064   6.066   5.067 -2.4121 -1.2374 -0.6052
  904MOL0     H24732   9.062   6.333   4.740 -4.5078  0.2997  0.4344
  904MOL0     H24733   9.291   6.446   4.712 -0.8395 -0.8539  0.6246
  904MOL0     H24734   9.519   6.756   4.509  1.2642 -1.2404  1.1542
  904MOL0     H24735   9.737   6.881   4.464  0.6565 -0.0058  1.4060
  904MOL0     H24736  10.179   6.955   4.511  0.1765  1.0130 -0.7281
  904MOL0     H24737   9.967   6.830   4.461 -0.8153  1.6585 -1.6060
  904MOL0     H24738   9.717   6.570   4.392  1.0805 -2.0713  0.7061
  904MOL0     H24739   9.499   6.486   4.366 -0.2021  0.3186  0.7054
  904MOL0     H24740   9.341   6.313   4.443 -0.4254 -0.3783  0.1777
  904MOL0     H24741   9.280   6.368   4.276  2.5003  1.1236 -0.3769
  904MOL0     H24742   9.277   6.089   4.411 -0.0983 -0.5606 -0.4535
  904MOL0     H24743   9.197   6.134   4.249 -1.7056  1.0900 -0.4585
  904MOL0     H24744   9.121   6.196   4.541  1.8791 -0.3898 -1.4343
  904MOL0     H24745   9.042   6.278   4.409 -1.5428  1.0797  2.6530
  904MOL0     H24746   8.968   6.083   4.297  3.6058  0.9020 -1.1456
  904MOL0     H24747   8.892   6.092   4.467  0.8818  1.4506  0.1730
  904MOL0     H24748   9.136   5.735   4.451  0.5211  0.1761 -1.3815
  904MOL0     H24749   9.673   6.129   4.191  2.0693 -0.7342  0.0567
  904MOL0     H24750   9.983   6.274   4.114 -0.9714  0.7351 -1.2642
  904MOL0     H24751  10.003   6.186   4.272 -2.4406 -0.6102  2.2250
  904MOL0     H24752   9.908   6.119   4.140  0.6858 -0.7249 -0.6634
  905MOL0     O24753   6.908   5.792   4.023  0.2968  0.4839  0.4065
  905MOL0     C24754   6.829   5.834   3.933 -0.8536  0.7945 -0.0947
  905MOL0     O24755   6.861   5.949   3.871  0.3313 -0.2756  0.0357
  905MOL0     C24756   6.993   5.986   3.871 -0.1166 -1.5071 -0.3611
  905MOL0     C24757   7.041   6.058   3.979  0.1325  0.1043  0.6415
  905MOL0     C24758   7.180   6.080   4.002 -0.1453  0.2414  0.6015
  905MOL0     C24759   7.262   6.050   3.889 -0.3297 -0.6371  0.2170
  905MOL0     O24760   7.396   6.083   3.891 -0.1505  0.1645  0.2435
  905MOL0     C24761   7.451   6.174   3.985 -0.2755 -0.5206  0.5298
  905MOL0     C24762   7.603   6.192   3.960  0.6366 -0.0128  0.7662
  905MOL0     C24763   7.657   6.281   3.853  0.0997  0.5839  0.5692
  905MOL0     C24764   7.639   6.230   3.711 -0.7161 -1.0781  0.0825
  905MOL0     C24765   7.657   6.341   3.608 -0.2650 -0.3640  1.4310
  905MOL0     C24766   7.629   6.302   3.463  0.1494 -0.0156 -0.2589
  905MOL0     C24767   7.480   6.286   3.429  0.6666 -0.4567  0.3092
  905MOL0     C24768   7.381   6.396   3.467  0.9326  0.0825 -0.3726
  905MOL0     N24769   7.240   6.368   3.447  0.4960 -0.0804  0.9295
  905MOL0     C24770   7.146   6.331   3.544 -0.3353  0.6712  0.9001
  905MOL0     C24771   7.024   6.332   3.487  0.1179 -0.6628 -0.9373
  905MOL0     C24772   6.901   6.282   3.562  0.0209  0.7623  0.4388
  905MOL0     C24773   6.808   6.207   3.478  0.7831  1.3446  0.4933
  905MOL0     C24774   6.857   6.055   3.482  1.2800 -0.1060 -0.0878
  905MOL0     C24775   6.764   5.967   3.399 -0.5466 -0.3939 -0.4168
  905MOL0     O24776   6.647   5.961   3.473 -0.2495 -0.6173  0.8181
  905MOL0     C24777   6.541   5.889   3.421  0.0145  0.4418 -0.2973
  905MOL0     C24778   6.417   5.903   3.477  0.1928 -0.8227 -0.0275
  905MOL0     C24779   6.309   5.818   3.449  0.9001  0.2921  0.2592
  905MOL0     C24780   6.186   5.808   3.534  0.3787  0.5463  0.4743
  905MOL0     C24781   6.326   5.719   3.353 -0.4582 -0.1938  0.8018
  905MOL0     C24782   6.240   5.605   3.323  0.4962  0.3599  0.4823
  905MOL0     O24783   6.144   5.620   3.225 -0.3465  0.2718 -0.2908
  905MOL0     C24784   6.065   5.510   3.201 -0.3009 -1.1398 -0.0344
  905MOL0     C24785   6.085   5.421   3.093 -0.0376 -1.0588 -0.2959
  905MOL0     C24786   5.997   5.324   3.057 -0.0145  0.4411  0.4879
  905MOL0     C24787   5.879   5.310   3.130 -0.3183  0.0359  0.7759
  905MOL0     O24788   5.789   5.215   3.100  0.1900  0.3128 -0.4666
  905MOL0     C24789   5.794   5.102   3.198 -0.3159  0.3369 -0.8434
  905MOL0     C24790   5.728   4.967   3.151 -0.3075 -0.0273 -0.2136
  905MOL0     C24791   5.594   4.995   3.083  0.7953  0.3475 -0.5351
  905MOL0     C24792   5.483   5.028   3.184 -0.5063  0.8890 -0.1891
  905MOL0     C24793   5.431   4.920   3.285  0.0619 -0.0524  0.1762
  905MOL0     C24794   5.380   4.797   3.205  0.1607  0.6408 -0.1588
  905MOL0     C24795   5.345   4.699   3.317  0.1611  0.4174  0.4666
  905MOL0     C24796   5.335   4.556   3.250 -0.2426  0.5049  0.5686
  905MOL0    Cl24797   5.214   4.544   3.113  0.2622 -0.6554 -0.0699
  905MOL0     C24798   5.869   5.383   3.251  0.5277  1.0478  0.1282
  905MOL0     C24799   5.954   5.488   3.280 -0.8730  0.2065  0.2441
  905MOL0     O24800   6.264   5.504   3.382 -0.3717  0.3591  0.7061
  905MOL0     C24801   6.448   5.702   3.292  0.1437  0.8970  1.1844
  905MOL0     C24802   6.550   5.787   3.324  0.4298 -0.2072  0.0634
  905MOL0     N24803   7.039   6.340   3.354 -0.4252 -0.2411 -0.0833
  905MOL0     N24804   7.165   6.370   3.331  0.2979  0.0990 -0.8782
  905MOL0     C24805   7.213   5.985   3.773  0.4690  0.2361 -0.3314
  905MOL0     C24806   7.074   5.951   3.773  0.0616 -0.4637  0.6590
  905MOL0     C24807   6.709   5.765   3.892 -0.0034 -0.4328  1.1483
  905MOL0     C24808   6.664   5.763   3.758 -0.6926 -0.3192 -0.8469
  905MOL0     C24809   6.553   5.686   3.719  0.0484  0.4954  0.4006
  905MOL0     C24810   6.472   5.613   3.812 -0.8013 -1.0358 -0.7781
  905MOL0     O24811   6.366   5.541   3.762  0.3422  0.9032 -0.6989
  905MOL0     C24812   6.307   5.454   3.852 -0.0806  1.5704 -0.7504
  905MOL0     C24813   6.206   5.361   3.777 -0.4258 -0.8709  0.0005
  905MOL0     C24814   6.088   5.435   3.718 -0.2016 -0.4683 -0.7123
  905MOL0     C24815   5.972   5.349   3.668 -0.2497  0.3809  0.3926
  905MOL0     C24816   5.878   5.303   3.768  0.0161  0.2842  0.5401
  905MOL0     C24817   5.786   5.270   3.838  0.3313 -0.2358 -1.3976
  905MOL0     C24818   6.510   5.626   3.939 -0.3390  0.3534 -0.6147
  905MOL0     C24819   6.617   5.702   3.988 -0.2212  0.3651  0.7131
  905MOL0     C24820   6.635   5.709   4.131 -0.3769 -0.5488  0.1094
  905MOL0     H24821   6.973   6.071   4.063 -1.9419 -2.7407 -0.4497
  905MOL0     H24822   7.214   6.143   4.083  1.6971  1.3309 -0.9348
  905MOL0     H24823   7.438   6.139   4.088 -2.1638  1.6620  1.1085
  905MOL0     H24824   7.406   6.273   3.976  0.0042 -0.3106  1.3778
  905MOL0     H24825   7.649   6.227   4.053 -2.2852  1.2064  1.8842
  905MOL0     H24826   7.644   6.091   3.953 -1.7306 -1.2364  2.7030
  905MOL0     H24827   7.612   6.379   3.871  1.7702  1.3528  0.7142
  905MOL0     H24828   7.763   6.289   3.875 -0.5065  1.3534  3.5673
  905MOL0     H24829   7.713   6.154   3.686 -0.7241 -2.2023  3.0968
  905MOL0     H24830   7.545   6.177   3.691 -1.1069 -0.4521  0.2232
  905MOL0     H24831   7.763   6.370   3.610  0.3499 -2.2545 -0.1691
  905MOL0     H24832   7.600   6.430   3.633  0.9330  1.1094 -0.7990
  905MOL0     H24833   7.672   6.384   3.406 -0.3974 -0.8475 -1.9582
  905MOL0     H24834   7.680   6.206   3.449 -0.4635 -0.2739 -0.8048
  905MOL0     H24835   7.438   6.192   3.466  2.3409 -1.4715 -0.2512
  905MOL0     H24836   7.471   6.299   3.320 -1.1935  1.1163  0.5786
  905MOL0     H24837   7.402   6.420   3.572 -1.6572 -1.4587  0.6035
  905MOL0     H24838   7.404   6.480   3.401 -1.8589  0.3271 -1.1716
  905MOL0     H24839   7.157   6.301   3.648 -2.3245 -3.3209  0.1576
  905MOL0     H24840   6.839   6.366   3.596 -1.0968 -0.2600  1.0284
  905MOL0     H24841   6.913   6.217   3.649  1.2587 -1.5548 -1.3832
  905MOL0     H24842   6.704   6.215   3.508  0.7638 -0.3094  0.9708
  905MOL0     H24843   6.805   6.249   3.377 -3.1966  3.5130  1.2924
  905MOL0     H24844   6.963   6.057   3.454  1.1620  2.0302 -0.5998
  905MOL0     H24845   6.859   6.014   3.584  1.7059  0.0422 -0.0313
  905MOL0     H24846   6.761   6.000   3.295  1.0752  2.0569  0.2096
  905MOL0     H24847   6.810   5.868   3.399 -0.6724 -0.6124 -4.5304
  905MOL0     H24848   6.409   5.982   3.552 -0.6967  0.0672 -1.0222
  905MOL0     H24849   6.209   5.783   3.638  1.0730  2.2160  0.7450
  905MOL0     H24850   6.118   5.731   3.495 -1.0711  1.6692  0.6909
  905MOL0     H24851   6.138   5.905   3.521  0.8101  0.5463 -1.2564
  905MOL0     H24852   6.172   5.451   3.035  0.4920 -1.6850  0.1677
  905MOL0     H24853   6.018   5.263   2.970  0.3909 -2.6462  2.5884
  905MOL0     H24854   5.898   5.080   3.222  0.1081  2.4456 -0.5635
  905MOL0     H24855   5.753   5.139   3.292  2.2833 -1.2324  1.0361
  905MOL0     H24856   5.802   4.922   3.083 -1.3511 -3.0098  0.4892
  905MOL0     H24857   5.709   4.887   3.222 -0.0874 -0.3717 -0.5388
  905MOL0     H24858   5.557   4.914   3.019 -0.9988  0.6425  0.0762
  905MOL0     H24859   5.584   5.088   3.027 -2.8655  2.2382  2.7704
  905MOL0     H24860   5.394   5.062   3.131 -0.2319  0.7457 -0.7502
  905MOL0     H24861   5.522   5.112   3.242 -1.4024  1.2514 -0.0945
  905MOL0     H24862   5.522   4.897   3.342 -0.6373 -0.4715  1.1325
  905MOL0     H24863   5.355   4.971   3.345  0.8932  2.0718 -0.4645
  905MOL0     H24864   5.460   4.746   3.150 -0.5626  0.7165 -1.3304
  905MOL0     H24865   5.297   4.816   3.136  0.0688 -1.4552 -0.6883
  905MOL0     H24866   5.251   4.744   3.351 -0.0883  2.2729 -2.2763
  905MOL0     H24867   5.419   4.695   3.397  0.2611 -3.9983  0.4170
  905MOL0     H24868   5.306   4.479   3.322 -0.9520  0.1239 -0.1062
  905MOL0     H24869   5.431   4.522   3.211 -1.3838 -0.6129 -1.4095
  905MOL0     H24870   5.776   5.365   3.305  1.9438  1.4532  2.9022
  905MOL0     H24871   5.944   5.550   3.369 -2.8334 -2.4903  2.0265
  905MOL0     H24872   6.460   5.620   3.221 -0.9398  0.9110  0.9625
  905MOL0     H24873   6.643   5.769   3.272 -1.3111 -0.9575 -3.0638
  905MOL0     H24874   7.277   5.967   3.687 -1.0407  0.7499 -1.6161
  905MOL0     H24875   7.037   5.898   3.686 -0.9879  0.4441  0.5257
  905MOL0     H24876   6.729   5.817   3.689 -2.0170  0.9667 -1.1281
  905MOL0     H24877   6.519   5.691   3.616 -0.0648  0.4873  0.4381
  905MOL0     H24878   6.378   5.389   3.903 -1.1520  2.9845  2.8211
  905MOL0     H24879   6.261   5.508   3.935 -2.9562 -2.4463  0.5539
  905MOL0     H24880   6.163   5.290   3.848 -3.9945  1.4443  0.4500
  905MOL0     H24881   6.248   5.303   3.694  0.8017 -0.4687  0.3210
  905MOL0     H24882   6.041   5.493   3.798  1.3042  0.7898 -0.7010
  905MOL0     H24883   6.121   5.502   3.638 -1.8253  1.2624 -0.0185
  905MOL0     H24884   6.009   5.262   3.614  0.2717 -0.9583  2.7828
  905MOL0     H24885   5.893   5.401   3.612 -0.9465 -2.2940 -1.2940
  905MOL0     H24886   5.712   5.240   3.910  0.1394 -0.4819 -1.6966
  905MOL0     H24887   6.453   5.565   4.008 -3.2126 -2.1562 -4.8272
  905MOL0     H24888   6.714   5.638   4.157 -0.2412 -1.1975 -1.8751
  905MOL0     H24889   6.666   5.811   4.156 -1.3178 -0.7133  2.1361
  905MOL0     H24890   6.540   5.684   4.179 -0.3659 -0.4963  0.1588
  906MOL0     O24891   1.498   4.774   9.457  0.2135 -0.3472 -0.3123
  906MOL0     C24892   1.444   4.858   9.386 -0.4389  0.4997 -0.4789
  906MOL0     O24893   1.501   4.972   9.340 -0.1535 -0.0149  0.5549
  906MOL0     C24894   1.638   4.979   9.350 -0.2601 -0.0852 -0.3012
  906MOL0     C24895   1.696   4.989   9.480  0.3301 -0.0198 -0.3719
  906MOL0     C24896   1.835   5.013   9.488 -0.8657  0.3039  0.5044
  906MOL0     C24897   1.914   5.019   9.372 -0.0677 -0.1721 -0.0975
  906MOL0     O24898   2.049   5.043   9.378  0.5298  0.5991  0.0262
  906MOL0     C24899   2.109   5.044   9.508  0.2920  0.2490 -0.4088
  906MOL0     C24900   2.264   5.064   9.496  0.5205  0.2626 -0.7175
  906MOL0     C24901   2.314   5.181   9.404 -0.1768  0.6495  0.1909
  906MOL0     C24902   2.263   5.317   9.440 -0.2091  0.6487 -0.0156
  906MOL0     C24903   2.324   5.429   9.351 -0.4192  0.0458 -0.5062
  906MOL0     C24904   2.285   5.566   9.386  0.5738 -0.1135 -0.7816
  906MOL0     C24905   2.372   5.674   9.324  0.8121 -0.5203  0.1155
  906MOL0     C24906   2.336   5.720   9.183 -0.4784 -0.6732  0.4687
  906MOL0     N24907   2.277   5.625   9.097  0.8479 -0.7438  0.1233
  906MOL0     C24908   2.141   5.597   9.088  0.3911  1.5843  0.6481
  906MOL0     C24909   2.147   5.503   8.991  0.4248 -0.2362  0.3901
  906MOL0     C24910   2.021   5.444   8.936 -0.7554 -0.0564 -0.1611
  906MOL0     C24911   2.009   5.488   8.789 -0.4149  0.8010  0.2243
  906MOL0     C24912   1.894   5.414   8.720  0.5395 -0.0710 -0.4259
  906MOL0     C24913   1.874   5.449   8.577 -0.1476 -0.7299 -0.0366
  906MOL0     O24914   1.789   5.566   8.568 -0.2478  1.0420  0.2868
  906MOL0     C24915   1.713   5.586   8.456  0.3731 -0.8944 -0.5613
  906MOL0     C24916   1.703   5.521   8.342  0.3386  0.4379  0.5223
  906MOL0     C24917   1.625   5.545   8.235 -0.1076  0.4290 -0.1158
  906MOL0     C24918   1.622   5.447   8.129 -0.4053  1.0740 -1.0013
  906MOL0     C24919   1.544   5.659   8.242 -0.4781 -0.1736  0.3930
  906MOL0     C24920   1.441   5.700   8.140  0.1564  0.3673  0.3130
  906MOL0     O24921   1.388   5.831   8.162 -0.8642  0.1862 -0.3372
  906MOL0     C24922   1.337   5.905   8.057  0.0746 -1.1491  0.2353
  906MOL0     C24923   1.222   5.981   8.093  0.1836 -0.1917 -0.4294
  906MOL0     C24924   1.151   6.052   7.993  0.0964  0.8430  0.0214
  906MOL0     C24925   1.205   6.066   7.856 -1.0228  0.4453 -0.5895
  906MOL0     O24926   1.152   6.157   7.768  0.6711 -0.1296  0.7131
  906MOL0     C24927   1.064   6.263   7.810  0.1542  0.1779 -0.9522
  906MOL0     C24928   0.919   6.211   7.801 -0.0019  0.9176 -0.0061
  906MOL0     C24929   0.822   6.334   7.785  0.4717  0.4855 -0.0872
  906MOL0     C24930   0.677   6.284   7.805 -0.0108  0.2008  0.2782
  906MOL0     C24931   0.569   6.377   7.758  0.3909 -0.1291 -0.1538
  906MOL0     C24932   0.574   6.494   7.863 -0.2449 -0.1012 -0.3058
  906MOL0     C24933   0.454   6.594   7.848  0.4390  0.0569  0.0203
  906MOL0     C24934   0.451   6.701   7.962  0.8820 -0.2931  0.3371
  906MOL0    Cl24935   0.389   6.633   8.117 -0.0316 -0.2043 -0.3210
  906MOL0     C24936   1.313   5.987   7.820  0.2177 -0.6013 -0.2939
  906MOL0     C24937   1.367   5.899   7.919  1.0030  0.2156  0.0013
  906MOL0     O24938   1.408   5.629   8.050  0.3407  0.3327 -0.0106
  906MOL0     C24939   1.559   5.745   8.349  0.5395 -0.2666 -0.2528
  906MOL0     C24940   1.639   5.705   8.458  0.6102  0.2957  0.0772
  906MOL0     N24941   2.270   5.483   8.942 -0.7616  0.3030  0.2806
  906MOL0     N24942   2.347   5.549   9.013  0.4091  0.4037  0.9275
  906MOL0     C24943   1.854   5.001   9.245  0.8385  0.3622  0.7415
  906MOL0     C24944   1.717   4.984   9.238  0.3213 -0.4504 -0.3475
  906MOL0     C24945   1.306   4.831   9.352  0.1820  1.1560  0.6654
  906MOL0     C24946   1.277   4.834   9.215 -0.1071 -0.2920  0.0186
  906MOL0     C24947   1.144   4.805   9.171 -0.9249 -0.6572  0.7781
  906MOL0     C24948   1.046   4.763   9.260 -0.3828 -0.5920 -0.0712
  906MOL0     O24949   0.913   4.748   9.225  0.0892 -0.6155 -0.6073
  906MOL0     C24950   0.882   4.698   9.093  0.2368  0.4704 -0.4390
  906MOL0     C24951   0.731   4.671   9.117 -0.4649  0.5905  0.1920
  906MOL0     C24952   0.688   4.547   9.203 -0.3211 -0.3252 -0.1899
  906MOL0     C24953   0.535   4.525   9.163  0.2760  0.2154 -0.4291
  906MOL0     C24954   0.484   4.404   9.222  0.8556 -0.4193 -0.3768
  906MOL0     C24955   0.472   4.289   9.264  0.3085 -0.4823  0.0027
  906MOL0     C24956   1.081   4.758   9.390  0.1092 -0.2518 -0.2737
  906MOL0     C24957   1.211   4.782   9.442  1.6014  0.4582  0.1827
  906MOL0     C24958   1.225   4.773   9.595 -0.2179 -0.3965  0.3147
  906MOL0     H24959   1.627   4.989   9.563 -0.2449  2.4108 -0.7637
  906MOL0     H24960   1.881   5.031   9.584  0.2497 -0.0140  0.0379
  906MOL0     H24961   2.087   4.951   9.561 -0.3739 -0.5603 -2.0220
  906MOL0     H24962   2.067   5.121   9.573 -2.1641 -0.5590 -0.9218
  906MOL0     H24963   2.302   5.066   9.599 -2.7494 -0.7045  0.6708
  906MOL0     H24964   2.297   4.968   9.456 -0.8723 -0.6360  0.1735
  906MOL0     H24965   2.423   5.192   9.409 -0.1898  1.9260 -1.3525
  906MOL0     H24966   2.298   5.153   9.300 -0.7726 -2.4608  1.0144
  906MOL0     H24967   2.154   5.312   9.429 -0.4182  0.7453  1.6838
  906MOL0     H24968   2.299   5.329   9.543 -0.7531  0.9373  0.1498
  906MOL0     H24969   2.303   5.416   9.244  4.2143  0.4782 -1.6644
  906MOL0     H24970   2.430   5.412   9.371 -0.5677  1.0718  1.3550
  906MOL0     H24971   2.181   5.592   9.364  0.8769  2.0638  0.1081
  906MOL0     H24972   2.300   5.570   9.494 -1.8381 -0.9032 -0.3626
  906MOL0     H24973   2.472   5.631   9.320  1.0444 -0.0003  0.2952
  906MOL0     H24974   2.380   5.760   9.392  1.8690 -0.9894  0.5958
  906MOL0     H24975   2.261   5.799   9.184 -2.1595 -2.2197  0.4567
  906MOL0     H24976   2.426   5.755   9.130 -0.2558  0.1261  1.3428
  906MOL0     H24977   2.051   5.614   9.147  0.2041 -2.0659  1.6666
  906MOL0     H24978   1.936   5.486   8.992  2.3060  1.6739  3.7152
  906MOL0     H24979   2.021   5.335   8.941  1.3529 -0.1979 -1.8738
  906MOL0     H24980   1.987   5.595   8.794 -0.7474  0.7696 -0.5156
  906MOL0     H24981   2.103   5.459   8.741 -0.0585  0.8132  0.8886
  906MOL0     H24982   1.935   5.312   8.722  1.4504  0.2960  0.5004
  906MOL0     H24983   1.804   5.420   8.782  0.2471 -2.2652 -0.5487
  906MOL0     H24984   1.975   5.469   8.542 -0.6197 -1.3635 -1.8630
  906MOL0     H24985   1.825   5.361   8.532 -0.9541 -1.0211  1.3319
  906MOL0     H24986   1.762   5.432   8.325  0.1520  0.6244 -1.3965
  906MOL0     H24987   1.710   5.383   8.123 -1.7251 -0.9167 -0.1158
  906MOL0     H24988   1.615   5.494   8.031 -0.1210  1.6102 -0.7690
  906MOL0     H24989   1.530   5.388   8.134 -1.5144  2.7072 -1.1195
  906MOL0     H24990   1.193   5.984   8.198 -0.4635  2.2138 -0.6054
  906MOL0     H24991   1.067   6.108   8.032 -1.4323  0.2245 -2.2082
  906MOL0     H24992   1.093   6.298   7.910  1.6063 -1.4696 -0.7377
  906MOL0     H24993   1.080   6.345   7.741  0.2466  0.5656 -0.4776
  906MOL0     H24994   0.926   6.153   7.709  4.1434 -1.5571  1.5512
  906MOL0     H24995   0.891   6.138   7.878  1.1225 -0.3329 -0.7430
  906MOL0     H24996   0.821   6.386   7.688 -0.6313  2.4771  0.9229
  906MOL0     H24997   0.842   6.412   7.859 -0.1186 -1.2884  2.0334
  906MOL0     H24998   0.671   6.251   7.910 -2.6137 -2.7869 -0.6118
  906MOL0     H24999   0.666   6.190   7.750  2.6126 -1.4668  2.3751
  906MOL0     H25000   0.577   6.419   7.657  1.3336  1.5499  0.5607
  906MOL0     H25001   0.471   6.329   7.759  0.5311 -0.4188 -0.3349
  906MOL0     H25002   0.661   6.559   7.854  0.0598 -0.3605  0.6435
  906MOL0     H25003   0.561   6.460   7.966 -1.3711  1.0439 -0.0480
  906MOL0     H25004   0.364   6.533   7.845 -0.4015  1.2789 -1.0795
  906MOL0     H25005   0.457   6.651   7.754 -1.2140 -0.5952 -0.4590
  906MOL0     H25006   0.371   6.772   7.938  2.5748  1.1292 -1.5195
  906MOL0     H25007   0.550   6.745   7.974  0.9739 -0.0607 -1.0643
  906MOL0     H25008   1.353   5.987   7.719  0.1559  1.5176 -0.3460
  906MOL0     H25009   1.443   5.828   7.887  0.9926  0.6329 -0.9950
  906MOL0     H25010   1.500   5.836   8.353 -0.9973 -1.1282 -1.8353
  906MOL0     H25011   1.619   5.768   8.544  2.4824 -1.9888  2.3424
  906MOL0     H25012   1.911   4.997   9.153  0.5434 -0.0015  0.5704
  906MOL0     H25013   1.675   4.964   9.140 -0.0182  1.4377 -0.6372
  906MOL0     H25014   1.356   4.861   9.145  2.7834  3.8791  4.1847
  906MOL0     H25015   1.114   4.807   9.067  1.3466 -0.7229  0.0702
  906MOL0     H25016   0.901   4.780   9.023 -0.5200  2.8164  1.9309
  906MOL0     H25017   0.948   4.615   9.064  1.1968  0.0798  2.5905
  906MOL0     H25018   0.696   4.655   9.015 -1.2746  1.1486  0.3768
  906MOL0     H25019   0.694   4.765   9.159 -1.5436 -0.6306  2.1215
  906MOL0     H25020   0.754   4.463   9.181  0.3348 -0.8192  3.1753
  906MOL0     H25021   0.693   4.578   9.307 -0.2776  0.9389 -0.5491
  906MOL0     H25022   0.518   4.514   9.055 -3.2707  0.8718 -0.0447
  906MOL0     H25023   0.471   4.610   9.188  0.2332  0.6211 -1.8452
  906MOL0     H25024   0.460   4.193   9.309  4.4293 -0.8013  0.8654
  906MOL0     H25025   0.998   4.735   9.456 -0.3284 -0.0935 -0.7651
  906MOL0     H25026   1.147   4.721   9.651 -2.5193  2.1096 -0.3843
  906MOL0     H25027   1.320   4.721   9.614  0.4323  1.0987  1.3722
  906MOL0     H25028   1.220   4.878   9.626  0.1261 -0.1508 -0.4349
  907MOL0     O25029   5.025   6.315  11.274 -0.3549 -0.9651 -0.5455
  907MOL0     C25030   5.125   6.249  11.259 -0.1097 -0.4689  0.2987
  907MOL0     O25031   5.134   6.113  11.262 -0.1272  0.3828  0.7765
  907MOL0     C25032   5.013   6.052  11.285  0.6262  0.0543  0.1002
  907MOL0     C25033   5.007   5.949  11.378 -0.0759 -0.4391 -1.5561
  907MOL0     C25034   4.891   5.885  11.409  0.0502  0.1493 -0.0262
  907MOL0     C25035   4.778   5.910  11.331  1.4825 -0.4573  0.4291
  907MOL0     O25036   4.663   5.835  11.338 -0.2969 -0.2698 -0.3579
  907MOL0     C25037   4.626   5.786  11.468 -0.0223 -0.9080 -0.8073
  907MOL0     C25038   4.479   5.738  11.460 -0.6568 -0.2125 -0.5423
  907MOL0     C25039   4.463   5.628  11.350 -0.4098 -0.1483  0.2359
  907MOL0     C25040   4.494   5.486  11.396 -0.3165 -0.2063  0.3905
  907MOL0     C25041   4.434   5.378  11.301  0.4526 -0.0119 -0.7174
  907MOL0     C25042   4.478   5.236  11.331 -0.1900  0.5198 -0.5200
  907MOL0     C25043   4.443   5.180  11.480 -0.0125  0.5429  0.4272
  907MOL0     C25044   4.460   5.028  11.491 -0.7878  0.0476 -0.0960
  907MOL0     N25045   4.603   4.992  11.477  0.5118  1.1994  0.1650
  907MOL0     C25046   4.705   4.994  11.567  0.2090 -0.6670  0.2933
  907MOL0     C25047   4.803   4.931  11.516 -0.5728 -0.5840  0.1496
  907MOL0     C25048   4.929   4.896  11.584 -0.1353  0.4481  0.1619
  907MOL0     C25049   5.056   4.935  11.507 -0.1887 -0.3410  0.1292
  907MOL0     C25050   5.080   5.084  11.506 -0.3959  0.0647 -0.5058
  907MOL0     C25051   5.213   5.132  11.465 -1.1836  0.8229 -0.1563
  907MOL0     O25052   5.265   5.097  11.337 -0.5735 -0.1424 -0.5112
  907MOL0     C25053   5.373   5.166  11.295  0.4062  0.3284 -1.0997
  907MOL0     C25054   5.470   5.220  11.386 -0.6175 -0.0406 -0.0590
  907MOL0     C25055   5.585   5.287  11.336  0.2667 -0.4768 -0.2222
  907MOL0     C25056   5.694   5.309  11.435  0.5483  0.0916  0.0482
  907MOL0     C25057   5.597   5.326  11.200  0.4256  0.0336  0.1482
  907MOL0     C25058   5.707   5.419  11.141  0.7140 -0.4184 -0.1503
  907MOL0     O25059   5.713   5.420  11.006  0.0330 -0.2545  0.6519
  907MOL0     C25060   5.784   5.521  10.941  0.2839 -0.4823 -0.5267
  907MOL0     C25061   5.908   5.485  10.888 -1.4880 -0.5410  0.1817
  907MOL0     C25062   5.998   5.583  10.832  0.9400  0.9523  0.5799
  907MOL0     C25063   5.955   5.716  10.823  1.0933 -0.1447 -0.2304
  907MOL0     O25064   6.048   5.807  10.781 -0.3697  0.6122 -0.1816
  907MOL0     C25065   6.029   5.952  10.815  0.1157  0.1334 -0.0200
  907MOL0     C25066   6.133   6.048  10.748  0.3442  0.3586  0.2471
  907MOL0     C25067   6.261   5.972  10.716  0.2083  0.1469  0.0373
  907MOL0     C25068   6.367   6.077  10.704  0.2335 -0.2426 -0.5233
  907MOL0     C25069   6.490   6.020  10.646 -0.4510  0.6120  0.0463
  907MOL0     C25070   6.617   6.104  10.677  0.5086 -0.9075 -1.0414
  907MOL0     C25071   6.749   6.057  10.605  0.1277  0.5959 -0.1255
  907MOL0     C25072   6.834   5.945  10.676 -0.7338 -0.5674  1.3192
  907MOL0    Cl25073   6.959   5.908  10.545  0.2144 -0.2728  0.0890
  907MOL0     C25074   5.832   5.747  10.871  0.7057 -0.0431  0.8661
  907MOL0     C25075   5.734   5.652  10.916 -0.1584 -0.4095  0.1039
  907MOL0     O25076   5.792   5.475  11.213  0.4128  0.5509  0.2280
  907MOL0     C25077   5.501   5.269  11.113 -0.5424  0.0286 -1.6381
  907MOL0     C25078   5.392   5.196  11.162 -1.2716  0.3064  0.4478
  907MOL0     N25079   4.781   4.917  11.381  1.1008  0.7876  0.2878
  907MOL0     N25080   4.660   4.945  11.359 -1.0646  0.4041  0.3867
  907MOL0     C25081   4.781   5.997  11.228  0.9594  0.4091 -0.0572
  907MOL0     C25082   4.896   6.070  11.211  0.2071  0.6257  0.5322
  907MOL0     C25083   5.244   6.324  11.221  0.3783  0.0723  0.3187
  907MOL0     C25084   5.368   6.254  11.230 -0.9194 -0.2341 -0.1307
  907MOL0     C25085   5.489   6.323  11.203 -0.0962  0.0662 -0.4461
  907MOL0     C25086   5.488   6.460  11.175 -0.2338 -0.6058  0.0561
  907MOL0     O25087   5.604   6.530  11.184  0.2710 -0.7629  0.2937
  907MOL0     C25088   5.718   6.486  11.111  1.4698  0.8337  0.9363
  907MOL0     C25089   5.694   6.469  10.963 -0.1120 -1.1246 -0.7682
  907MOL0     C25090   5.650   6.601  10.902  0.8235  0.2830  0.3323
  907MOL0     C25091   5.736   6.734  10.922  0.6538  0.8751  0.0561
  907MOL0     C25092   5.661   6.806  11.020 -0.4260  0.4233 -0.5908
  907MOL0     C25093   5.594   6.858  11.102 -0.8082 -0.7118 -0.4676
  907MOL0     C25094   5.367   6.526  11.154  1.3705  0.7862  0.3280
  907MOL0     C25095   5.245   6.463  11.178  0.4530 -0.0503  0.5182
  907MOL0     C25096   5.130   6.551  11.150  0.1931  0.8783 -1.1674
  907MOL0     H25097   5.092   5.934  11.443 -0.1728  1.9253 -0.8055
  907MOL0     H25098   4.885   5.806  11.483  2.7432  0.0487  0.1941
  907MOL0     H25099   4.619   5.868  11.540  1.6158 -1.2628 -0.2042
  907MOL0     H25100   4.679   5.700  11.510  0.0412 -1.7773 -2.5775
  907MOL0     H25101   4.459   5.688  11.555  2.1302  0.9505  0.7821
  907MOL0     H25102   4.407   5.820  11.454 -1.6395 -1.1448 -2.1143
  907MOL0     H25103   4.364   5.645  11.307  0.0705  1.1023 -0.4494
  907MOL0     H25104   4.532   5.645  11.267  0.4076 -1.5627  0.5953
  907MOL0     H25105   4.603   5.482  11.390 -0.3637 -0.7092 -0.3327
  907MOL0     H25106   4.474   5.477  11.503 -2.2672  0.9606  0.1706
  907MOL0     H25107   4.441   5.403  11.194  0.6759 -0.2455 -0.7594
  907MOL0     H25108   4.326   5.377  11.317  0.4263  0.7608 -0.7767
  907MOL0     H25109   4.436   5.168  11.256 -0.2857  1.6496 -1.5149
  907MOL0     H25110   4.586   5.236  11.313 -0.0294  5.0226 -0.6388
  907MOL0     H25111   4.335   5.192  11.491 -0.1385  0.3657 -0.4819
  907MOL0     H25112   4.507   5.222  11.557  2.1345 -2.0284  0.2067
  907MOL0     H25113   4.423   4.998  11.589  1.0177  0.9873  0.9457
  907MOL0     H25114   4.408   4.964  11.419  1.0751 -2.3706  0.5604
  907MOL0     H25115   4.696   5.033  11.668  0.4671  0.5971 -0.1508
  907MOL0     H25116   4.934   4.787  11.593  2.2518  0.6799  4.0888
  907MOL0     H25117   4.929   4.929  11.688 -0.8900 -0.5476  0.4977
  907MOL0     H25118   5.152   4.893  11.535  1.0468 -0.1574 -3.3354
  907MOL0     H25119   5.042   4.907  11.402 -0.8260 -1.5007  0.5039
  907MOL0     H25120   5.007   5.134  11.442 -1.1497  0.2741  0.4775
  907MOL0     H25121   5.058   5.134  11.602 -0.1937  1.4079 -1.1284
  907MOL0     H25122   5.204   5.240  11.481  0.9019  1.1932 -1.1249
  907MOL0     H25123   5.287   5.096  11.536 -0.9281  0.5883 -0.5383
  907MOL0     H25124   5.462   5.215  11.494  1.0214  4.5954  0.5379
  907MOL0     H25125   5.671   5.250  11.524 -0.0023 -0.4558 -0.4397
  907MOL0     H25126   5.716   5.410  11.469  1.8863  0.5642 -2.0458
  907MOL0     H25127   5.787   5.271  11.391  0.8661  1.5289 -0.5692
  907MOL0     H25128   5.931   5.379  10.882 -0.2867 -0.3021  0.3602
  907MOL0     H25129   6.094   5.560  10.789  3.2144  2.8789  4.1180
  907MOL0     H25130   5.932   5.989  10.781 -0.0222  0.7651  1.0191
  907MOL0     H25131   6.028   5.967  10.923 -0.5406 -0.8478  0.1246
  907MOL0     H25132   6.087   6.102  10.665 -1.4738  1.9283  2.1909
  907MOL0     H25133   6.155   6.130  10.817 -0.2371  0.7311 -0.0030
  907MOL0     H25134   6.248   5.918  10.622  0.7248 -1.2715  0.7495
  907MOL0     H25135   6.285   5.907  10.800  0.9452 -0.4587 -0.6291
  907MOL0     H25136   6.376   6.100  10.811  2.2176 -1.3087 -0.4086
  907MOL0     H25137   6.330   6.159  10.641 -1.6708 -0.9339 -0.3553
  907MOL0     H25138   6.511   5.917  10.677  0.9625 -0.6684 -4.3986
  907MOL0     H25139   6.464   6.012  10.540 -0.8188 -0.8871  0.2234
  907MOL0     H25140   6.625   6.105  10.787 -1.4040 -1.3549 -0.8594
  907MOL0     H25141   6.594   6.207  10.648  1.8873  0.0336  0.9246
  907MOL0     H25142   6.821   6.134  10.576  1.2265 -0.8423 -1.3894
  907MOL0     H25143   6.717   6.020  10.507 -0.9408  0.2131  0.3554
  907MOL0     H25144   6.768   5.858  10.677 -1.6216 -0.0772 -1.7782
  907MOL0     H25145   6.867   5.981  10.773  1.0548 -0.5297  0.7204
  907MOL0     H25146   5.792   5.847  10.857  0.3395 -0.3481 -0.3894
  907MOL0     H25147   5.638   5.689  10.950  1.1532  4.4088 -0.6126
  907MOL0     H25148   5.509   5.286  11.006 -1.3131 -1.6668 -1.9965
  907MOL0     H25149   5.306   5.159  11.107  0.9189 -2.6880 -1.2639
  907MOL0     H25150   4.693   6.003  11.166  2.2280  1.4118 -1.8601
  907MOL0     H25151   4.901   6.150  11.138  2.6488  0.1266  0.0766
  907MOL0     H25152   5.382   6.152  11.263  1.5902 -0.1872 -0.8636
  907MOL0     H25153   5.583   6.273  11.223 -0.4620 -1.9139 -3.1304
  907MOL0     H25154   5.800   6.557  11.123  1.5908  0.6469  1.2285
  907MOL0     H25155   5.747   6.394  11.162 -0.1804 -0.2184  0.0886
  907MOL0     H25156   5.623   6.387  10.948  1.7931 -2.5030 -2.9221
  907MOL0     H25157   5.789   6.427  10.926  2.3936 -0.6163  4.1797
  907MOL0     H25158   5.629   6.586  10.795 -2.4530  0.4324  0.8468
  907MOL0     H25159   5.546   6.626  10.926  0.3031  0.0042 -1.4728
  907MOL0     H25160   5.749   6.790  10.829 -0.2318 -0.1419 -0.7051
  907MOL0     H25161   5.831   6.713  10.972  2.0481  3.1633 -1.4563
  907MOL0     H25162   5.553   6.912  11.185  2.7245  0.8984  0.4252
  907MOL0     H25163   5.379   6.627  11.118  0.3058  0.6163 -0.5494
  907MOL0     H25164   5.083   6.588  11.241  0.2883  2.5855 -1.7839
  907MOL0     H25165   5.161   6.638  11.091  0.1871  1.7131  0.0178
  907MOL0     H25166   5.061   6.494  11.087 -1.9394  1.2818  0.6877
  908MOL0     O25167   6.237   6.677   5.588  0.2955  0.3943 -0.4573
  908MOL0     C25168   6.337   6.733   5.540  0.3521 -0.6656 -0.6393
  908MOL0     O25169   6.459   6.740   5.597  0.6795 -0.4671 -0.7290
  908MOL0     C25170   6.510   6.646   5.682  0.4739  0.3951 -0.0279
  908MOL0     C25171   6.482   6.506   5.665 -0.4353 -0.7102  0.3345
  908MOL0     C25172   6.560   6.417   5.739 -0.5362 -0.1304  0.1847
  908MOL0     C25173   6.674   6.461   5.818  0.1936  0.6038  0.3575
  908MOL0     O25174   6.755   6.381   5.891  0.0497  0.7556 -0.4663
  908MOL0     C25175   6.685   6.309   5.990  0.0592 -0.2688 -0.1381
  908MOL0     C25176   6.776   6.232   6.081  0.3801  0.1251  0.4507
  908MOL0     C25177   6.856   6.128   6.010 -0.8629  0.4160  0.1530
  908MOL0     C25178   6.996   6.119   6.074 -0.3882  0.3456  0.0872
  908MOL0     C25179   7.098   6.028   6.005 -0.0149  0.4680  0.3210
  908MOL0     C25180   7.238   6.050   6.057  0.6339  0.6314 -1.3319
  908MOL0     C25181   7.254   6.008   6.205 -0.2360 -0.1735 -0.8436
  908MOL0     C25182   7.409   5.993   6.223  0.1509  0.5650  0.1936
  908MOL0     N25183   7.440   5.972   6.362 -0.5308 -0.2394  0.0583
  908MOL0     C25184   7.559   6.000   6.420 -0.3252 -0.3405 -0.3044
  908MOL0     C25185   7.535   5.984   6.554 -0.4583 -0.0152 -0.2597
  908MOL0     C25186   7.644   6.000   6.653  0.1300 -1.0793 -0.1659
  908MOL0     C25187   7.773   5.929   6.625 -0.7053  0.0671  0.1236
  908MOL0     C25188   7.764   5.783   6.593 -0.3180  0.4406 -0.0751
  908MOL0     C25189   7.835   5.740   6.463 -0.4336  0.5092 -0.0711
  908MOL0     O25190   7.980   5.765   6.460  0.3371 -0.4772  0.0233
  908MOL0     C25191   8.052   5.766   6.346  0.3675 -0.1081 -0.6064
  908MOL0     C25192   8.187   5.739   6.365 -0.1229 -0.3383 -0.3461
  908MOL0     C25193   8.270   5.706   6.259 -0.6769 -0.1124  0.2738
  908MOL0     C25194   8.415   5.669   6.307  0.0970  0.0381  1.2010
  908MOL0     C25195   8.223   5.712   6.122 -0.0913 -0.9151  0.5330
  908MOL0     C25196   8.297   5.680   6.000 -0.2837 -0.0667 -1.3269
  908MOL0     O25197   8.226   5.688   5.880 -0.5555  0.2528 -0.3918
  908MOL0     C25198   8.291   5.663   5.761  0.0382  1.2621 -0.0068
  908MOL0     C25199   8.249   5.576   5.662  0.3751 -0.3552 -0.2165
  908MOL0     C25200   8.305   5.565   5.542 -0.7417  1.3239 -1.0427
  908MOL0     C25201   8.417   5.643   5.510 -0.2994  0.3477  0.8789
  908MOL0     O25202   8.497   5.641   5.397  0.2221  0.7106 -0.7571
  908MOL0     C25203   8.487   5.513   5.332  0.1238 -0.1768  0.6126
  908MOL0     C25204   8.589   5.493   5.213  0.7410 -2.0436  0.8143
  908MOL0     C25205   8.585   5.344   5.183 -0.1823  0.5393  0.3205
  908MOL0     C25206   8.689   5.338   5.064 -0.3403  1.1253  0.1396
  908MOL0     C25207   8.664   5.214   4.974  1.0426 -0.3426  0.0774
  908MOL0     C25208   8.753   5.213   4.854  0.1279 -0.0603  0.1772
  908MOL0     C25209   8.905   5.181   4.877  0.7141  0.0881  0.5260
  908MOL0     C25210   8.994   5.203   4.758 -0.8741  0.1635 -0.0360
  908MOL0    Cl25211   8.949   5.082   4.632  0.0220  0.2803 -0.3083
  908MOL0     C25212   8.452   5.745   5.610  0.3796  0.4006  0.6445
  908MOL0     C25213   8.392   5.756   5.729  0.3942  0.0974  0.5864
  908MOL0     O25214   8.412   5.637   6.015  0.1692  0.7969 -0.0995
  908MOL0     C25215   8.083   5.739   6.109  0.6597 -0.2249 -0.2332
  908MOL0     C25216   7.997   5.779   6.215  0.1222  0.1477 -0.2839
  908MOL0     N25217   7.402   5.939   6.576  0.5965 -0.3194  0.1191
  908MOL0     N25218   7.352   5.938   6.461 -0.3317  0.1505 -0.4215
  908MOL0     C25219   6.698   6.601   5.819 -0.2385  0.1539 -0.9064
  908MOL0     C25220   6.618   6.689   5.753  1.1632 -0.2323  0.0360
  908MOL0     C25221   6.332   6.826   5.417  0.3026 -0.1221 -0.9559
  908MOL0     C25222   6.433   6.923   5.390 -0.7595 -0.5681 -0.2107
  908MOL0     C25223   6.424   7.020   5.289  0.0394  0.4541 -0.5836
  908MOL0     C25224   6.318   7.026   5.202  0.0004 -0.9843 -0.5864
  908MOL0     O25225   6.298   7.112   5.091 -0.3651 -0.6379 -0.0204
  908MOL0     C25226   6.309   7.255   5.104  0.3260 -1.0598 -0.6893
  908MOL0     C25227   6.351   7.314   4.975 -0.8434 -0.1811 -0.0591
  908MOL0     C25228   6.380   7.468   4.977  0.2120 -0.0992 -0.5435
  908MOL0     C25229   6.422   7.524   4.843 -0.8580  0.8172  0.0048
  908MOL0     C25230   6.564   7.490   4.815  0.2128  0.5373 -0.1055
  908MOL0     C25231   6.669   7.442   4.777 -0.2636  0.2912  0.6850
  908MOL0     C25232   6.214   6.938   5.241  0.5421  0.2288  0.0060
  908MOL0     C25233   6.213   6.840   5.344  0.4453  0.9367 -0.5366
  908MOL0     C25234   6.088   6.751   5.369  0.3109 -0.1106 -0.0265
  908MOL0     H25235   6.407   6.458   5.603  0.2235 -3.8475  1.7505
  908MOL0     H25236   6.518   6.318   5.752  2.3497 -1.4525  0.2754
  908MOL0     H25237   6.620   6.234   5.942 -0.8899  0.4538 -0.0146
  908MOL0     H25238   6.620   6.380   6.042 -0.8770 -1.1959  0.0008
  908MOL0     H25239   6.846   6.306   6.122 -0.7521  0.2866  2.1558
  908MOL0     H25240   6.715   6.187   6.160  0.5824 -2.1835 -0.6357
  908MOL0     H25241   6.801   6.033   6.009  0.7486 -0.5590 -1.3568
  908MOL0     H25242   6.867   6.140   5.902 -0.5708  0.2407  0.1603
  908MOL0     H25243   7.031   6.220   6.051 -1.9890  0.7849 -0.6325
  908MOL0     H25244   6.984   6.103   6.181  0.3275 -2.3069 -0.1670
  908MOL0     H25245   7.090   6.046   5.898 -1.5195  0.5849  0.4326
  908MOL0     H25246   7.065   5.925   6.025 -0.6399  0.4296 -0.8370
  908MOL0     H25247   7.308   5.992   5.996  3.3752  0.7861  1.4721
  908MOL0     H25248   7.274   6.153   6.059  1.4249  0.3507 -0.8796
  908MOL0     H25249   7.211   5.908   6.215 -0.9978  0.1018 -1.2432
  908MOL0     H25250   7.213   6.074   6.281 -1.2528  1.1685 -2.4800
  908MOL0     H25251   7.453   5.914   6.163 -0.1476  0.8421 -0.3961
  908MOL0     H25252   7.451   6.090   6.193  0.4026  0.4790  0.2735
  908MOL0     H25253   7.655   6.020   6.374  0.3790 -0.0234  1.2237
  908MOL0     H25254   7.607   5.968   6.751 -3.5264  2.0950 -0.3054
  908MOL0     H25255   7.661   6.107   6.668  0.1476 -1.4159  2.8393
  908MOL0     H25256   7.822   5.990   6.548 -0.0457  2.1581  2.0997
  908MOL0     H25257   7.832   5.934   6.717  0.9427 -3.9978 -0.5347
  908MOL0     H25258   7.809   5.725   6.675 -1.3276  2.7895  2.2867
  908MOL0     H25259   7.657   5.762   6.586 -0.2450  0.3505 -0.9926
  908MOL0     H25260   7.826   5.632   6.451 -1.1039  0.4557  0.8339
  908MOL0     H25261   7.780   5.782   6.378  0.1982 -1.0817 -1.3038
  908MOL0     H25262   8.233   5.735   6.463  1.2499 -0.8214 -0.9872
  908MOL0     H25263   8.483   5.753   6.322 -1.2799  1.5783 -0.6545
  908MOL0     H25264   8.472   5.613   6.232 -1.2417  0.3907 -0.1272
  908MOL0     H25265   8.412   5.622   6.406  2.6170  1.8541  2.2258
  908MOL0     H25266   8.159   5.517   5.679 -0.6037  1.0915 -0.2166
  908MOL0     H25267   8.259   5.496   5.472 -0.2406  0.9002 -0.9604
  908MOL0     H25268   8.509   5.433   5.403 -0.9231 -0.5439  0.5445
  908MOL0     H25269   8.386   5.508   5.289  1.1485 -0.8433 -1.8877
  908MOL0     H25270   8.548   5.543   5.125  3.0046 -3.5634 -1.2176
  908MOL0     H25271   8.686   5.540   5.234  1.0246 -0.4727 -3.2472
  908MOL0     H25272   8.484   5.314   5.156  0.2500  1.6394 -2.9523
  908MOL0     H25273   8.628   5.285   5.264  0.0670  0.4167  0.1020
  908MOL0     H25274   8.793   5.342   5.097  0.6555 -0.4217 -2.4293
  908MOL0     H25275   8.682   5.432   5.007 -1.0193  1.0033  0.0190
  908MOL0     H25276   8.661   5.123   5.034  0.0875 -0.4735 -0.1551
  908MOL0     H25277   8.566   5.229   4.929  0.4101 -1.9025  0.8947
  908MOL0     H25278   8.737   5.310   4.805  2.2446 -1.4215 -3.5425
  908MOL0     H25279   8.711   5.143   4.781 -1.4237  1.7349 -0.7412
  908MOL0     H25280   8.903   5.075   4.905  0.4009  0.4673  2.0453
  908MOL0     H25281   8.936   5.239   4.965 -1.2235  2.2286 -0.0885
  908MOL0     H25282   9.098   5.186   4.787 -0.1153  2.4436 -1.1648
  908MOL0     H25283   8.984   5.303   4.716  1.2449  0.8475  0.9871
  908MOL0     H25284   8.539   5.807   5.591  0.7162 -0.1376  0.4060
  908MOL0     H25285   8.407   5.833   5.805  2.1475 -0.1065  0.4824
  908MOL0     H25286   8.034   5.729   6.012 -2.2295  1.2161  0.9650
  908MOL0     H25287   7.893   5.802   6.196 -0.1893 -0.4664  0.5980
  908MOL0     H25288   6.770   6.634   5.893 -1.2754 -2.4510  1.4711
  908MOL0     H25289   6.623   6.797   5.750  2.1314 -0.2962 -1.4850
  908MOL0     H25290   6.528   6.919   5.443  1.1862  0.3542 -3.3350
  908MOL0     H25291   6.505   7.086   5.260  0.2809  0.7163  0.6271
  908MOL0     H25292   6.211   7.297   5.125  0.2482 -0.7457 -1.6626
  908MOL0     H25293   6.381   7.282   5.182 -0.6029  1.3624 -0.5979
  908MOL0     H25294   6.267   7.291   4.910 -2.3230 -0.5948  1.8916
  908MOL0     H25295   6.439   7.260   4.938  1.0334  2.8340 -0.3760
  908MOL0     H25296   6.286   7.515   5.008 -0.0267 -1.3048  0.6848
  908MOL0     H25297   6.458   7.479   5.054  1.9237 -2.2761 -1.8391
  908MOL0     H25298   6.404   7.632   4.839 -2.3714  0.6138  0.9022
  908MOL0     H25299   6.363   7.484   4.760 -2.3394  3.6349 -0.4333
  908MOL0     H25300   6.759   7.391   4.749  0.3686  0.7180  1.8464
  908MOL0     H25301   6.139   6.942   5.162 -0.9051 -0.0176  1.3096
  908MOL0     H25302   6.008   6.774   5.298 -0.6484 -0.1076  1.0254
  908MOL0     H25303   6.109   6.644   5.365  2.4677  0.2759 -0.5371
  908MOL0     H25304   6.044   6.775   5.467 -0.4706  0.4011 -0.4930
  909MOL0     O25305   8.504   0.733   2.045  0.4968  0.3983 -0.5698
  909MOL0     C25306   8.446   0.826   2.090  0.3707  0.2572 -0.3832
  909MOL0     O25307   8.332   0.819   2.172  0.6230 -0.1079 -0.0125
  909MOL0     C25308   8.262   0.700   2.185 -0.4667 -0.7827  0.6608
  909MOL0     C25309   8.166   0.678   2.084 -0.1047 -0.2405 -0.1117
  909MOL0     C25310   8.103   0.555   2.078  0.9963  0.5966  0.0412
  909MOL0     C25311   8.145   0.444   2.161  0.4418 -0.1987  0.8266
  909MOL0     O25312   8.096   0.317   2.141  0.0724 -0.0570  0.1625
  909MOL0     C25313   8.020   0.284   2.030 -0.5611  1.1070  0.6969
  909MOL0     C25314   8.035   0.139   1.998  0.6638 -0.0725  0.2193
  909MOL0     C25315   8.182   0.092   1.961 -0.1996  0.7184 -0.4401
  909MOL0     C25316   8.250   0.021   2.074 -0.3368 -0.1907  0.1963
  909MOL0     C25317   8.400   0.038   2.068  0.4713 -0.2011 -0.4956
  909MOL0     C25318   8.448  -0.029   1.936 -1.2799  0.4557 -0.2787
  909MOL0     C25319   8.596   0.003   1.924 -0.4325  0.1090  0.0269
  909MOL0     C25320   8.681  -0.069   2.029  0.4589 -0.6687  0.0218
  909MOL0     N25321   8.696  -0.205   1.981 -0.5101  0.2887  0.0308
  909MOL0     C25322   8.801  -0.238   1.896 -0.0877  0.1237 -0.7362
  909MOL0     C25323   8.795  -0.377   1.893 -0.0081  0.5772  0.1125
  909MOL0     C25324   8.879  -0.482   1.824 -0.6403 -0.2794  0.8163
  909MOL0     C25325   8.801  -0.591   1.748 -0.3625 -0.7501  0.3854
  909MOL0     C25326   8.896  -0.664   1.661 -0.6623 -0.2109 -0.5110
  909MOL0     C25327   8.833  -0.736   1.548  0.3692 -0.5953  0.4899
  909MOL0     O25328   8.937  -0.771   1.458  0.7796 -0.5047 -0.5318
  909MOL0     C25329   8.901  -0.812   1.335  0.4734 -0.0821 -0.3314
  909MOL0     C25330   8.997  -0.821   1.229 -0.2641 -0.4309 -0.2940
  909MOL0     C25331   8.953  -0.836   1.096  0.0665 -0.1389 -0.9407
  909MOL0     C25332   9.059  -0.814   0.987 -0.5859 -0.4406 -0.6974
  909MOL0     C25333   8.811  -0.842   1.067 -0.1612  0.4916  0.8812
  909MOL0     C25334   8.755  -0.832   0.928  0.1160  0.2379  0.5412
  909MOL0     O25335   8.622  -0.801   0.916 -0.1622  0.2393 -0.1400
  909MOL0     C25336   8.558  -0.819   0.796 -0.2234  0.4717  0.1606
  909MOL0     C25337   8.447  -0.735   0.792  0.3388  0.9479  0.0857
  909MOL0     C25338   8.372  -0.723   0.677 -0.2794 -0.9094 -0.0411
  909MOL0     C25339   8.401  -0.804   0.567  0.9270 -0.0071  0.0617
  909MOL0     O25340   8.323  -0.823   0.457  0.6875  0.2145 -0.0499
  909MOL0     C25341   8.204  -0.753   0.443  0.2712 -0.2894 -0.6300
  909MOL0     C25342   8.167  -0.760   0.291 -0.0144  1.1572  0.1806
  909MOL0     C25343   8.216  -0.637   0.208 -0.5762 -0.1552 -0.3383
  909MOL0     C25344   8.369  -0.633   0.215 -0.4711  0.7755 -0.1941
  909MOL0     C25345   8.438  -0.509   0.166 -0.1985  0.4479 -0.8844
  909MOL0     C25346   8.420  -0.492   0.015 -0.0148 -1.6902  0.4961
  909MOL0     C25347   8.443  -0.348  -0.028 -0.3512  0.3700  0.6879
  909MOL0     C25348   8.586  -0.343  -0.096 -0.4879 -0.1526  0.0646
  909MOL0    Cl25349   8.594  -0.434  -0.251 -0.0573 -0.2215 -0.2551
  909MOL0     C25350   8.506  -0.895   0.577 -0.6866  0.1213 -0.1265
  909MOL0     C25351   8.590  -0.907   0.687  0.1989 -0.2787 -1.1998
  909MOL0     O25352   8.819  -0.861   0.828 -1.6144 -0.1658 -0.4018
  909MOL0     C25353   8.727  -0.863   1.175  0.6617  1.0403 -0.4682
  909MOL0     C25354   8.764  -0.851   1.308  0.4437 -0.5170 -0.0119
  909MOL0     N25355   8.683  -0.413   1.959  0.5354  0.2843  0.2295
  909MOL0     N25356   8.624  -0.316   2.015 -0.3497 -0.2158  0.2877
  909MOL0     C25357   8.237   0.471   2.260 -0.3565  0.6978 -0.1378
  909MOL0     C25358   8.311   0.593   2.265  0.6511 -0.0418 -0.4990
  909MOL0     C25359   8.494   0.963   2.056  0.4740 -0.2604 -0.0108
  909MOL0     C25360   8.406   1.066   2.071 -0.0138 -0.8032  0.5482
  909MOL0     C25361   8.444   1.199   2.057  0.5264  0.1709 -0.2278
  909MOL0     C25362   8.573   1.230   2.013  0.2552 -0.2949 -0.1434
  909MOL0     O25363   8.640   1.352   1.985  0.1277 -0.1196  0.2350
  909MOL0     C25364   8.592   1.465   2.068  0.7716 -0.6143  0.0432
  909MOL0     C25365   8.548   1.576   1.977 -0.6613 -0.6619 -0.3362
  909MOL0     C25366   8.665   1.652   1.913  0.2668  1.4123  0.4042
  909MOL0     C25367   8.628   1.790   1.855 -0.3061 -0.1249  0.0278
  909MOL0     C25368   8.596   1.880   1.969 -0.9605  0.2224 -0.2366
  909MOL0     C25369   8.576   1.945   2.070  0.6990 -0.6289 -0.0155
  909MOL0     C25370   8.659   1.123   1.983 -0.0665  0.7544  0.9074
  909MOL0     C25371   8.622   0.990   2.010 -0.1034 -0.7789  0.2684
  909MOL0     C25372   8.722   0.880   1.983  0.5356 -0.0576  0.3143
  909MOL0     H25373   8.140   0.760   2.018  0.1556  1.7723  2.1214
  909MOL0     H25374   8.042   0.541   1.990  0.1669 -1.0434  0.8426
  909MOL0     H25375   8.063   0.334   1.942  2.7693 -2.0584  0.2573
  909MOL0     H25376   7.917   0.315   2.046 -0.5042  0.6519  2.0060
  909MOL0     H25377   8.001   0.077   2.082  3.2500 -2.8106 -0.5861
  909MOL0     H25378   7.980   0.119   1.905  2.4473 -2.1531 -0.4787
  909MOL0     H25379   8.174   0.020   1.880 -0.0301  0.4735 -0.2433
  909MOL0     H25380   8.247   0.174   1.929 -1.9111  1.7621 -1.3646
  909MOL0     H25381   8.210   0.064   2.166  0.3392  0.1948  0.3177
  909MOL0     H25382   8.201  -0.076   2.061 -2.7407  1.2307 -2.6728
  909MOL0     H25383   8.441  -0.009   2.157  0.6639 -0.2203 -0.5951
  909MOL0     H25384   8.413   0.147   2.063 -3.1669  0.3320 -1.4889
  909MOL0     H25385   8.443  -0.138   1.930  2.9655  0.1758 -2.8429
  909MOL0     H25386   8.387  -0.019   1.846 -0.6433 -3.8709 -1.4575
  909MOL0     H25387   8.622   0.109   1.928 -1.0421  0.2255  2.4604
  909MOL0     H25388   8.626  -0.034   1.826 -0.9354  3.1868 -1.3955
  909MOL0     H25389   8.774  -0.019   2.056  0.8777 -2.3430  1.9452
  909MOL0     H25390   8.641  -0.061   2.131 -2.1140 -1.7372 -0.8067
  909MOL0     H25391   8.875  -0.175   1.847  0.7792 -1.6385 -1.7922
  909MOL0     H25392   8.939  -0.538   1.897  0.7288  2.5548  2.0311
  909MOL0     H25393   8.950  -0.436   1.756  0.3348 -0.6743  1.5464
  909MOL0     H25394   8.746  -0.648   1.824 -4.3483  2.4950  0.3042
  909MOL0     H25395   8.723  -0.535   1.696  1.1917  0.3834 -0.7925
  909MOL0     H25396   8.972  -0.596   1.623  0.4633  0.3548  2.4508
  909MOL0     H25397   8.941  -0.742   1.724 -0.6842 -2.3488 -2.9793
  909MOL0     H25398   8.786  -0.830   1.578 -1.5174 -1.2286 -3.7530
  909MOL0     H25399   8.765  -0.661   1.507  0.9527 -0.5360 -0.3991
  909MOL0     H25400   9.103  -0.809   1.251 -0.4952 -0.2445  0.7626
  909MOL0     H25401   9.064  -0.906   0.928  0.8375 -1.0939  0.3770
  909MOL0     H25402   9.158  -0.794   1.029 -1.2621  0.8790  0.3374
  909MOL0     H25403   9.034  -0.731   0.920 -0.6142 -3.1854 -4.4181
  909MOL0     H25404   8.419  -0.690   0.887 -0.3430 -1.2153  0.9610
  909MOL0     H25405   8.282  -0.668   0.701  0.8460  0.7172  0.6290
  909MOL0     H25406   8.126  -0.807   0.498  1.5409  1.4984  3.2956
  909MOL0     H25407   8.210  -0.648   0.473  1.1167 -0.7954  1.0770
  909MOL0     H25408   8.203  -0.857   0.257  2.0110  0.8636  2.8992
  909MOL0     H25409   8.058  -0.768   0.279  0.1788 -2.6677 -0.2730
  909MOL0     H25410   8.173  -0.546   0.249 -0.9646  0.2448 -1.5927
  909MOL0     H25411   8.183  -0.644   0.104 -2.1342 -1.5514  0.2090
  909MOL0     H25412   8.406  -0.720   0.162 -2.4371  2.0003 -3.9345
  909MOL0     H25413   8.388  -0.644   0.322 -0.1389  2.4935 -0.0384
  909MOL0     H25414   8.401  -0.430   0.231  1.8402 -0.9747  2.2435
  909MOL0     H25415   8.542  -0.521   0.198 -1.0444 -0.1551  1.8571
  909MOL0     H25416   8.315  -0.497  -0.013  0.6442  2.0550 -3.6670
  909MOL0     H25417   8.478  -0.569  -0.036  1.0375 -0.9119  0.4660
  909MOL0     H25418   8.438  -0.280   0.058  2.2610 -0.4810  1.6228
  909MOL0     H25419   8.371  -0.324  -0.107 -0.7925  0.8310  1.2216
  909MOL0     H25420   8.660  -0.384  -0.027 -0.5153 -0.3007  0.0065
  909MOL0     H25421   8.631  -0.245  -0.115 -0.4281 -0.1148  0.3868
  909MOL0     H25422   8.509  -0.969   0.498 -1.4070 -0.9718  0.8304
  909MOL0     H25423   8.667  -0.983   0.689 -1.2941 -1.8512  1.0957
  909MOL0     H25424   8.623  -0.880   1.150  1.5113 -0.2589 -3.7578
  909MOL0     H25425   8.683  -0.856   1.380  0.2246  2.5553  0.0922
  909MOL0     H25426   8.267   0.385   2.320 -2.7764 -0.7318 -0.8038
  909MOL0     H25427   8.393   0.606   2.335  0.2139 -2.6463  0.6062
  909MOL0     H25428   8.303   1.048   2.099  0.1701 -1.7953  0.6305
  909MOL0     H25429   8.370   1.276   2.077 -1.0335 -1.5425  0.9454
  909MOL0     H25430   8.517   1.437   2.143 -0.7332 -0.0790 -1.2032
  909MOL0     H25431   8.665   1.507   2.137 -2.0533  0.9032  2.3456
  909MOL0     H25432   8.486   1.647   2.032 -0.2311 -1.1619  0.8553
  909MOL0     H25433   8.485   1.536   1.898 -2.2892  2.4794 -0.7616
  909MOL0     H25434   8.740   1.671   1.990  2.4767  1.5222 -1.6644
  909MOL0     H25435   8.713   1.596   1.832 -2.0151 -1.5284  0.9168
  909MOL0     H25436   8.539   1.785   1.791  1.3210  0.1334 -2.3855
  909MOL0     H25437   8.713   1.827   1.798 -0.8339 -1.1841 -1.5082
  909MOL0     H25438   8.557   1.998   2.161  2.3385  0.9518 -0.5354
  909MOL0     H25439   8.763   1.139   1.955  1.1942  0.9699  5.0666
  909MOL0     H25440   8.691   0.829   1.892 -0.3725  1.9287 -0.5636
  909MOL0     H25441   8.818   0.926   1.956  1.4928 -2.7789 -1.3326
  909MOL0     H25442   8.742   0.810   2.065  0.7830 -0.4633 -0.0928
  910MOL0     O25443   7.778  10.324   4.645  0.2545  0.1546  0.2785
  910MOL0     C25444   7.803  10.436   4.674 -0.1463 -0.1194 -0.0451
  910MOL0     O25445   7.726  10.546   4.639 -0.0487  0.3907  0.0069
  910MOL0     C25446   7.599  10.518   4.593 -0.0226 -0.6932 -0.3565
  910MOL0     C25447   7.495  10.519   4.682  0.2657  1.0983  0.7471
  910MOL0     C25448   7.364  10.505   4.627  0.1963 -0.7283  0.1914
  910MOL0     C25449   7.335  10.493   4.492 -0.3740 -0.6119 -0.7061
  910MOL0     O25450   7.209  10.491   4.439 -0.6901  0.5432  0.5571
  910MOL0     C25451   7.110  10.466   4.537 -0.9681  0.3187 -0.6335
  910MOL0     C25452   6.981  10.450   4.456 -0.1970 -0.7931 -0.0767
  910MOL0     C25453   6.932  10.584   4.406 -0.7620  0.2243  0.1583
  910MOL0     C25454   6.786  10.572   4.371  0.8813 -0.1008 -0.7880
  910MOL0     C25455   6.693  10.570   4.498 -0.0507 -0.3391  0.3616
  910MOL0     C25456   6.554  10.560   4.454  0.8182 -1.0271 -1.3020
  910MOL0     C25457   6.505  10.419   4.412  0.5392 -1.0344 -0.3565
  910MOL0     C25458   6.495  10.315   4.521  0.5253  0.4183 -0.0059
  910MOL0     N25459   6.624  10.246   4.539  1.2447 -0.2698  0.1803
  910MOL0     C25460   6.685  10.171   4.436  0.5093  0.1312  0.2953
  910MOL0     C25461   6.776  10.108   4.502  0.8093  0.3015 -0.7392
  910MOL0     C25462   6.876  10.010   4.447  0.0262 -0.0378  0.0240
  910MOL0     C25463   6.833   9.866   4.451  0.3141  0.3966 -0.1260
  910MOL0     C25464   6.878   9.792   4.580 -0.6259  0.2978  1.1122
  910MOL0     C25465   6.782   9.816   4.700 -0.0991  0.6873  0.5212
  910MOL0     O25466   6.842   9.763   4.815 -0.3093  0.4834  0.4990
  910MOL0     C25467   6.807   9.813   4.937 -0.4332  0.3774  0.7326
  910MOL0     C25468   6.794   9.952   4.969 -0.6049  0.2960 -0.5367
  910MOL0     C25469   6.740  10.002   5.082  0.2617 -0.1152 -0.6293
  910MOL0     C25470   6.725  10.152   5.070 -0.5146  1.0387  0.1479
  910MOL0     C25471   6.700   9.917   5.183 -0.0246 -0.6423 -0.1987
  910MOL0     C25472   6.654   9.977   5.319 -0.8404  0.1590  0.0481
  910MOL0     O25473   6.640  10.110   5.333 -0.0594 -0.1024 -0.4812
  910MOL0     C25474   6.586  10.162   5.447 -0.1185 -0.0546  0.4568
  910MOL0     C25475   6.617  10.125   5.581 -0.0711  1.2845 -0.1552
  910MOL0     C25476   6.585  10.204   5.693 -0.1055  0.3471 -0.1723
  910MOL0     C25477   6.519  10.327   5.667  0.4276 -0.0291 -0.0609
  910MOL0     O25478   6.494  10.418   5.766 -0.1242  0.4491  0.1532
  910MOL0     C25479   6.605  10.449   5.843 -0.5930 -0.9308 -0.6561
  910MOL0     C25480   6.564  10.433   5.988 -0.1797  1.1337 -0.6259
  910MOL0     C25481   6.678  10.472   6.087 -0.5959 -0.3907 -0.7620
  910MOL0     C25482   6.658  10.413   6.221 -0.2586  0.5253 -0.0677
  910MOL0     C25483   6.779  10.429   6.299  0.1829 -0.2954  0.5468
  910MOL0     C25484   6.776  10.359   6.434  0.2212  0.4377  0.3355
  910MOL0     C25485   6.874  10.417   6.539  0.1027 -1.3873 -0.1925
  910MOL0     C25486   6.885  10.320   6.672 -0.8171  0.1152  1.0154
  910MOL0    Cl25487   6.735  10.294   6.762 -0.4650 -0.2880  0.1717
  910MOL0     C25488   6.483  10.351   5.538  0.3688 -0.3826  0.6193
  910MOL0     C25489   6.507  10.274   5.428  0.9902  0.1243 -0.3539
  910MOL0     O25490   6.616   9.893   5.397 -0.5906  0.5281  0.4462
  910MOL0     C25491   6.719   9.772   5.159  1.1488 -0.3694 -0.5534
  910MOL0     C25492   6.761   9.725   5.040  0.7633 -0.3878 -0.0300
  910MOL0     N25493   6.774  10.139   4.642  0.7655 -0.1825  0.0586
  910MOL0     N25494   6.678  10.223   4.655 -0.0328  0.1695 -0.2237
  910MOL0     C25495   7.445  10.503   4.405  1.0759  0.6264 -0.7193
  910MOL0     C25496   7.574  10.502   4.458 -0.1200 -0.9712 -0.0663
  910MOL0     C25497   7.936  10.457   4.737 -0.1684  0.0580 -0.1918
  910MOL0     C25498   8.019  10.342   4.741  0.9669 -0.0315  0.8369
  910MOL0     C25499   8.146  10.349   4.787 -0.3521  1.0556  0.4061
  910MOL0     C25500   8.199  10.466   4.831  0.4053  0.0796 -0.0900
  910MOL0     O25501   8.331  10.477   4.863 -0.2599 -0.7237  1.0913
  910MOL0     C25502   8.395  10.374   4.940 -0.0941  0.0706 -0.2992
  910MOL0     C25503   8.401  10.436   5.080 -0.4706 -0.3605  0.1075
  910MOL0     C25504   8.451  10.585   5.087 -0.3758 -0.1467  0.6046
  910MOL0     C25505   8.605  10.594   5.096  0.3004  0.2400 -0.0406
  910MOL0     C25506   8.681  10.544   4.985 -0.6800 -0.0350  0.4199
  910MOL0     C25507   8.744  10.486   4.898  0.0777  0.1864 -0.4070
  910MOL0     C25508   8.118  10.576   4.842  0.5503  0.0706  0.2604
  910MOL0     C25509   7.989  10.573   4.797 -0.2830 -0.0414  0.3818
  910MOL0     C25510   7.921  10.708   4.795 -0.1679  0.2252  0.1171
  910MOL0     H25511   7.519  10.543   4.785 -1.4332 -1.6670  1.9113
  910MOL0     H25512   7.290  10.520   4.706  0.5405 -1.8148  0.7426
  910MOL0     H25513   7.092  10.557   4.595 -2.8835  1.1585 -2.3953
  910MOL0     H25514   7.124  10.377   4.598 -3.0411  0.6585  0.4411
  910MOL0     H25515   6.996  10.385   4.369 -2.0881 -1.5120  0.1037
  910MOL0     H25516   6.913  10.393   4.519 -2.8816  1.0682 -1.1060
  910MOL0     H25517   6.956  10.668   4.472  3.7670 -0.7664  0.1046
  910MOL0     H25518   6.990  10.596   4.314 -6.1781  0.8472 -3.6646
  910MOL0     H25519   6.756  10.659   4.312 -0.2668  0.4815  0.5764
  910MOL0     H25520   6.767  10.491   4.300 -2.6506 -0.1718  0.0284
  910MOL0     H25521   6.696  10.657   4.565 -2.0582  0.6321 -0.7314
  910MOL0     H25522   6.722  10.483   4.558 -4.0579 -1.7119  0.6182
  910MOL0     H25523   6.489  10.602   4.532 -1.0470 -2.4074 -2.0287
  910MOL0     H25524   6.522  10.623   4.371 -4.3305 -0.2218  0.9004
  910MOL0     H25525   6.562  10.383   4.325  0.9564  0.3701 -0.6878
  910MOL0     H25526   6.401  10.431   4.380  0.7055 -0.0426 -0.5583
  910MOL0     H25527   6.448  10.357   4.610 -0.5761  4.0357 -2.0958
  910MOL0     H25528   6.433  10.235   4.480  2.1806 -0.5627 -0.7129
  910MOL0     H25529   6.657  10.173   4.331 -2.4289  1.8629  0.9922
  910MOL0     H25530   6.979  10.029   4.477  0.7245 -0.6946 -1.8069
  910MOL0     H25531   6.882  10.021   4.339 -0.7277  0.7702  0.0484
  910MOL0     H25532   6.723   9.863   4.447  0.2794 -2.5746  0.2655
  910MOL0     H25533   6.876   9.821   4.361 -1.1698 -0.3302 -0.5134
  910MOL0     H25534   6.885   9.685   4.558 -0.0642  0.5452  0.0137
  910MOL0     H25535   6.981   9.825   4.593 -1.0545  1.0946  2.7357
  910MOL0     H25536   6.758   9.923   4.700  0.0898  0.7440  2.2237
  910MOL0     H25537   6.693   9.760   4.670  0.5448 -0.3381  0.4859
  910MOL0     H25538   6.837  10.015   4.892  0.5029 -1.2785 -1.2767
  910MOL0     H25539   6.640  10.193   5.126 -0.8432 -1.1845  1.3518
  910MOL0     H25540   6.697  10.170   4.965  0.1120 -1.7407 -0.5758
  910MOL0     H25541   6.822  10.191   5.103  0.5353 -1.9913  0.9263
  910MOL0     H25542   6.671  10.033   5.603 -2.2754 -0.6403 -2.2468
  910MOL0     H25543   6.611  10.164   5.791  0.6286  0.7857 -0.1765
  910MOL0     H25544   6.696  10.392   5.826 -0.9438 -1.4902 -0.6729
  910MOL0     H25545   6.620  10.556   5.823 -0.7286 -0.9573 -0.9140
  910MOL0     H25546   6.473  10.494   5.997 -0.7222  0.4271 -1.1728
  910MOL0     H25547   6.545  10.327   6.006 -0.6112  0.6566 -3.4279
  910MOL0     H25548   6.676  10.582   6.088 -2.0790 -0.3658 -1.7873
  910MOL0     H25549   6.773  10.443   6.040 -0.1284  1.0496 -0.7627
  910MOL0     H25550   6.643  10.305   6.216 -1.5251  0.5673  1.8131
  910MOL0     H25551   6.573  10.461   6.270 -1.3281 -2.2145  0.9703
  910MOL0     H25552   6.853  10.382   6.234 -1.4130 -1.7253 -0.3242
  910MOL0     H25553   6.800  10.535   6.312  1.5693 -0.6676  1.5987
  910MOL0     H25554   6.822  10.260   6.421  0.8392  0.3559  2.7386
  910MOL0     H25555   6.675  10.358   6.475  0.8598 -1.8726  2.0461
  910MOL0     H25556   6.847  10.520   6.561 -0.7731 -1.8526  1.0522
  910MOL0     H25557   6.980  10.431   6.514  0.1125 -0.6313  0.2502
  910MOL0     H25558   6.953  10.373   6.740 -1.6085  0.4249  1.5891
  910MOL0     H25559   6.923  10.226   6.631 -0.2112  1.4578 -1.7104
  910MOL0     H25560   6.438  10.450   5.536 -0.9017 -0.9438  0.6977
  910MOL0     H25561   6.461  10.295   5.332 -0.9253  1.9904  0.9066
  910MOL0     H25562   6.689   9.701   5.236 -1.3693  0.9657 -0.1821
  910MOL0     H25563   6.765   9.618   5.023  1.1013 -0.5333  0.9152
  910MOL0     H25564   7.420  10.506   4.300 -0.0846 -1.3586 -0.5653
  910MOL0     H25565   7.656  10.485   4.389  1.1020  0.0077  1.0659
  910MOL0     H25566   7.987  10.247   4.700  1.1011  1.7506 -4.0271
  910MOL0     H25567   8.222  10.281   4.749  1.1304  2.7713  0.1972
  910MOL0     H25568   8.341  10.280   4.951 -0.0343  0.3152  2.7617
  910MOL0     H25569   8.491  10.347   4.893  0.0610 -0.1535  0.1437
  910MOL0     H25570   8.461  10.370   5.143 -3.0630 -0.1703  3.0191
  910MOL0     H25571   8.299  10.436   5.121 -0.8997  3.0161 -0.6706
  910MOL0     H25572   8.429  10.643   4.997  3.2676  1.4745  0.5691
  910MOL0     H25573   8.403  10.627   5.176 -0.0036 -3.3765  2.4875
  910MOL0     H25574   8.622  10.539   5.190 -0.2079  3.1298  1.8665
  910MOL0     H25575   8.628  10.700   5.108  1.1074  0.7285 -4.3600
  910MOL0     H25576   8.803  10.446   4.818 -0.5311  0.4076 -0.9813
  910MOL0     H25577   8.159  10.664   4.891  2.6005 -1.9971  2.5568
  910MOL0     H25578   7.905  10.746   4.694 -4.1063 -0.9555  0.0967
  910MOL0     H25579   7.822  10.706   4.842 -1.2157  0.7926 -1.9242
  910MOL0     H25580   7.985  10.781   4.844 -1.8416  0.3122  2.3361
  911MOL0     O25581   9.849   9.601   7.029  0.0644  0.0905 -0.4004
  911MOL0     C25582   9.841   9.539   6.924  0.2102  0.0399  0.2867
  911MOL0     O25583   9.940   9.527   6.827 -0.1281 -0.0796  0.2096
  911MOL0     C25584  10.060   9.567   6.854 -0.0490 -0.1231 -0.7578
  911MOL0     C25585  10.129   9.515   6.962 -0.2607  0.0553 -0.3170
  911MOL0     C25586  10.269   9.534   6.974  0.6709 -0.4691  1.0745
  911MOL0     C25587  10.345   9.600   6.878 -0.0243 -0.9090 -0.4496
  911MOL0     O25588  10.482   9.622   6.905  0.1971 -0.4240  0.0474
  911MOL0     C25589  10.522   9.757   6.936  0.4941 -0.8250 -0.9756
  911MOL0     C25590  10.651   9.752   7.029 -0.1809  0.0855  0.5310
  911MOL0     C25591  10.604   9.737   7.169  0.3292 -0.1060 -0.2268
  911MOL0     C25592  10.715   9.659   7.263  0.0551 -0.6797  1.1571
  911MOL0     C25593  10.693   9.678   7.409 -0.0719  0.0562  0.1887
  911MOL0     C25594  10.777   9.585   7.495  0.1841  0.3277 -0.2886
  911MOL0     C25595  10.760   9.611   7.646  0.3807  0.2616 -0.1580
  911MOL0     C25596  10.627   9.566   7.708  0.8889 -0.8226  1.1008
  911MOL0     N25597  10.596   9.620   7.843 -0.1265  0.3800  0.0076
  911MOL0     C25598  10.684   9.601   7.953  0.0816  0.7296  0.2847
  911MOL0     C25599  10.656   9.704   8.029  0.5908 -0.3282  0.9583
  911MOL0     C25600  10.738   9.750   8.155  0.6461  0.7925  0.3730
  911MOL0     C25601  10.770   9.900   8.164  0.1881 -0.4045  1.3694
  911MOL0     C25602  10.858   9.967   8.053 -0.3101 -0.4263  0.2449
  911MOL0     C25603  10.836  10.118   8.049 -0.1189 -0.1006  0.5729
  911MOL0     O25604  10.901  10.173   7.928 -1.1023  0.2651 -0.2749
  911MOL0     C25605  10.835  10.161   7.801 -0.3028 -0.1491  0.6600
  911MOL0     C25606  10.889  10.230   7.690  0.6230 -0.0910  0.1749
  911MOL0     C25607  10.838  10.239   7.561  1.0008 -0.9938 -0.2123
  911MOL0     C25608  10.924  10.311   7.454  0.0101  0.6421 -0.5921
  911MOL0     C25609  10.728  10.161   7.542 -0.5314 -0.1119 -0.8764
  911MOL0     C25610  10.681  10.130   7.414  1.0531 -0.4678 -0.1034
  911MOL0     O25611  10.670  10.238   7.329  0.7178 -0.1545  0.5396
  911MOL0     C25612  10.651  10.209   7.200 -0.7200 -0.2215 -0.0835
  911MOL0     C25613  10.755  10.210   7.107 -0.2246 -0.7653  0.3991
  911MOL0     C25614  10.731  10.170   6.978  0.6363  1.4836 -0.0368
  911MOL0     C25615  10.595  10.158   6.931 -0.8239 -0.0495  0.0614
  911MOL0     O25616  10.576  10.135   6.793  0.4757 -1.0750 -0.3318
  911MOL0     C25617  10.670  10.184   6.697 -0.0695  0.8865 -1.0461
  911MOL0     C25618  10.752  10.066   6.653 -0.9796 -0.7419  0.8921
  911MOL0     C25619  10.850  10.086   6.528 -0.0852  0.2618  0.0098
  911MOL0     C25620  10.778  10.092   6.394 -0.8562 -0.4061 -0.0094
  911MOL0     C25621  10.887  10.132   6.300 -0.3291 -0.1997  0.2644
  911MOL0     C25622  10.833  10.178   6.162  0.4163 -0.3333  0.1548
  911MOL0     C25623  10.947  10.185   6.062 -0.1657  0.6541 -0.3221
  911MOL0     C25624  10.904  10.266   5.932  0.9692 -0.0010  0.3667
  911MOL0    Cl25625  10.772  10.191   5.828 -0.5029 -0.0409 -0.3246
  911MOL0     C25626  10.486  10.169   7.018 -0.3461  0.6265 -0.7880
  911MOL0     C25627  10.517  10.195   7.158  0.5830 -0.3719  0.1051
  911MOL0     O25628  10.659  10.015   7.380 -0.7238 -0.1948  0.3928
  911MOL0     C25629  10.668  10.087   7.646  0.0819  0.1941 -0.6467
  911MOL0     C25630  10.720  10.088   7.778  1.2012 -0.0841  1.1087
  911MOL0     N25631  10.528   9.762   7.984  0.1329  0.5550  1.4384
  911MOL0     N25632  10.498   9.718   7.863 -0.6582 -0.3001 -0.4542
  911MOL0     C25633  10.266   9.666   6.775 -0.1327 -0.2737  0.7981
  911MOL0     C25634  10.123   9.652   6.763  0.3795  0.6227  0.2439
  911MOL0     C25635   9.705   9.480   6.892 -0.0012 -0.8053  0.1886
  911MOL0     C25636   9.686   9.403   6.778  0.1577  0.0963  0.4992
  911MOL0     C25637   9.564   9.328   6.749 -0.4900 -0.0572 -0.1454
  911MOL0     C25638   9.450   9.354   6.828  0.3160  0.4030  0.6114
  911MOL0     O25639   9.320   9.312   6.795 -0.2293 -0.0240  0.1960
  911MOL0     C25640   9.291   9.245   6.674 -0.1230 -0.0673  0.2538
  911MOL0     C25641   9.147   9.196   6.671 -0.8178 -0.3028  0.3931
  911MOL0     C25642   9.035   9.295   6.699 -0.7879  0.3260 -0.6190
  911MOL0     C25643   8.895   9.244   6.655  0.1920  0.5214 -0.6265
  911MOL0     C25644   8.864   9.235   6.506 -0.3953  0.3142  0.0810
  911MOL0     C25645   8.827   9.233   6.392  1.1601  0.4303  0.7761
  911MOL0     C25646   9.465   9.438   6.943  1.0196  0.2371  0.5448
  911MOL0     C25647   9.586   9.491   6.982 -0.1308  0.5575 -0.8439
  911MOL0     C25648   9.578   9.569   7.114  0.1073  0.6890  0.0243
  911MOL0     H25649  10.083   9.439   7.023 -2.4914  1.2959 -0.3359
  911MOL0     H25650  10.330   9.506   7.060 -0.0041  3.3840  3.0584
  911MOL0     H25651  10.440   9.817   6.976 -1.1311 -2.8779 -1.0565
  911MOL0     H25652  10.567   9.796   6.844  2.3311 -3.1891 -1.1835
  911MOL0     H25653  10.703   9.660   7.000 -5.4275 -3.1365 -0.0406
  911MOL0     H25654  10.720   9.837   7.026 -0.7666  0.5567  0.3384
  911MOL0     H25655  10.586   9.839   7.206  1.2909  0.4131 -1.1324
  911MOL0     H25656  10.515   9.676   7.184  1.2831 -1.3808  0.4656
  911MOL0     H25657  10.708   9.551   7.250  1.8554 -0.6553 -0.2724
  911MOL0     H25658  10.815   9.694   7.236  0.1551 -1.8696 -0.0924
  911MOL0     H25659  10.588   9.673   7.439 -0.0369  0.7657  0.4654
  911MOL0     H25660  10.721   9.781   7.435  1.4358 -0.3193  0.1509
  911MOL0     H25661  10.748   9.479   7.494  1.4244 -0.0289 -1.0851
  911MOL0     H25662  10.885   9.585   7.475  0.4921 -0.2916  1.2104
  911MOL0     H25663  10.760   9.720   7.651  0.6330  0.2620 -0.1989
  911MOL0     H25664  10.842   9.570   7.706  2.2750  1.2009 -1.9866
  911MOL0     H25665  10.540   9.599   7.649  1.5221 -0.5340  0.3026
  911MOL0     H25666  10.619   9.457   7.714  0.0860 -0.8603 -0.0975
  911MOL0     H25667  10.769   9.534   7.945 -1.3188 -1.0310 -0.3499
  911MOL0     H25668  10.826   9.686   8.162 -0.0109 -0.1645  0.0661
  911MOL0     H25669  10.681   9.717   8.243  0.8589 -2.8983 -0.7195
  911MOL0     H25670  10.673   9.950   8.167  0.6193  0.8290 -1.4451
  911MOL0     H25671  10.836   9.910   8.250  1.9206 -1.1885  0.1818
  911MOL0     H25672  10.964   9.940   8.059 -0.0815 -0.1707 -1.9137
  911MOL0     H25673  10.821   9.926   7.958  0.1027 -3.6931  1.3435
  911MOL0     H25674  10.730  10.143   8.052 -0.2076 -0.5133  0.8619
  911MOL0     H25675  10.882  10.174   8.131 -1.1300  1.2051  0.2801
  911MOL0     H25676  10.983  10.280   7.709  0.9317 -0.2198 -0.9501
  911MOL0     H25677  10.877  10.403   7.418 -0.7078  0.2782 -0.5987
  911MOL0     H25678  10.943  10.245   7.368 -2.0770  2.5142 -2.6188
  911MOL0     H25679  11.020  10.334   7.501 -0.5961  1.0750  0.4585
  911MOL0     H25680  10.860  10.227   7.129  0.4476 -0.9959 -2.3291
  911MOL0     H25681  10.819  10.160   6.914 -1.6904  0.5625 -3.3277
  911MOL0     H25682  10.607  10.225   6.618 -0.5169  0.1683 -1.0655
  911MOL0     H25683  10.740  10.255   6.743 -0.9623  0.5534  0.9390
  911MOL0     H25684  10.810  10.021   6.733  2.8727 -1.4403 -1.9925
  911MOL0     H25685  10.678   9.989   6.627 -0.3974 -1.0563  0.1389
  911MOL0     H25686  10.919  10.001   6.527 -2.5544 -1.8695  0.1217
  911MOL0     H25687  10.903  10.180   6.547  0.7310  0.8008 -4.0642
  911MOL0     H25688  10.700  10.167   6.403  0.1429  0.5182  1.2281
  911MOL0     H25689  10.734   9.995   6.366 -0.8627 -0.1561 -0.9019
  911MOL0     H25690  10.957  10.202   6.347  2.6576 -1.0380 -2.5107
  911MOL0     H25691  10.952  10.045   6.286  2.3603  1.6501  0.4350
  911MOL0     H25692  10.791  10.278   6.171 -0.7336 -0.7528 -0.3452
  911MOL0     H25693  10.763  10.101   6.126  0.9159 -2.2616  2.9409
  911MOL0     H25694  10.984  10.083   6.044  0.8092  0.3389  2.8196
  911MOL0     H25695  11.034  10.240   6.099  0.6872 -1.2942  0.7445
  911MOL0     H25696  10.991  10.279   5.868 -0.2587  1.3642 -1.1068
  911MOL0     H25697  10.855  10.360   5.960  0.8429 -0.5094  1.9779
  911MOL0     H25698  10.386  10.141   6.988  0.4137  0.4490 -3.3682
  911MOL0     H25699  10.429  10.207   7.221  0.0520  1.3091 -0.8815
  911MOL0     H25700  10.583  10.020   7.638  2.0181 -2.4308 -0.7920
  911MOL0     H25701  10.654  10.047   7.854 -1.8629  1.5494 -0.4887
  911MOL0     H25702  10.310   9.731   6.701 -2.8141  1.5249  0.6291
  911MOL0     H25703  10.072   9.692   6.676  0.3177  0.4523  0.2027
  911MOL0     H25704   9.771   9.394   6.712  0.7274  1.1454  1.0691
  911MOL0     H25705   9.549   9.269   6.659  0.9813 -2.0585  0.8389
  911MOL0     H25706   9.303   9.321   6.596  1.7226 -1.4326 -0.8586
  911MOL0     H25707   9.351   9.160   6.642  0.5575  0.1716  0.8710
  911MOL0     H25708   9.128   9.123   6.749  1.2464 -0.1864  1.0786
  911MOL0     H25709   9.130   9.157   6.570 -1.5449 -1.1522  0.8329
  911MOL0     H25710   9.039   9.312   6.807 -1.7191  1.3091 -0.7185
  911MOL0     H25711   9.046   9.393   6.652  0.6791 -0.6483 -2.4598
  911MOL0     H25712   8.817   9.307   6.701  1.3254  0.3836  1.6266
  911MOL0     H25713   8.879   9.145   6.699  2.0002 -0.7334 -2.6169
  911MOL0     H25714   8.785   9.250   6.295 -1.0415 -1.7817  1.2356
  911MOL0     H25715   9.371   9.462   6.993  2.0188 -2.2926  4.0014
  911MOL0     H25716   9.642   9.536   7.196 -0.1375 -1.3628 -0.5628
  911MOL0     H25717   9.598   9.676   7.099  1.2699  0.4204 -0.4925
  911MOL0     H25718   9.478   9.560   7.157 -0.7996 -0.1667 -2.1069
  912MOL0     O25719   1.577   2.655   2.850  0.0948 -0.9409 -0.6447
  912MOL0     C25720   1.687   2.665   2.800  0.2199 -0.5016 -0.4837
  912MOL0     O25721   1.796   2.585   2.835 -0.4408  0.1322 -0.1105
  912MOL0     C25722   1.802   2.546   2.965 -0.0263  0.4874  0.2011
  912MOL0     C25723   1.774   2.627   3.079  0.0583 -0.7170  0.1914
  912MOL0     C25724   1.786   2.579   3.210  0.2380 -0.2386  0.2191
  912MOL0     C25725   1.825   2.453   3.234 -0.9106 -0.0172  0.3630
  912MOL0     O25726   1.842   2.397   3.354 -0.0743 -0.4422  0.1031
  912MOL0     C25727   1.730   2.412   3.443  0.3149 -1.0467 -0.4859
  912MOL0     C25728   1.789   2.431   3.581 -0.0167 -0.3792  0.4110
  912MOL0     C25729   1.843   2.296   3.632 -0.1123 -0.4625  0.5988
  912MOL0     C25730   1.888   2.292   3.778 -1.0037 -0.5144  0.1112
  912MOL0     C25731   1.937   2.157   3.823  0.1773  0.3106 -0.2934
  912MOL0     C25732   1.942   2.145   3.978 -0.2120  0.3765 -0.2720
  912MOL0     C25733   1.997   2.012   4.022 -0.5855  0.6067  0.4652
  912MOL0     C25734   1.891   1.893   4.001 -0.3520 -0.1795 -0.3928
  912MOL0     N25735   1.948   1.775   4.057 -0.1686 -0.0349 -0.1754
  912MOL0     C25736   2.072   1.731   4.025 -0.1648  0.5062 -0.7007
  912MOL0     C25737   2.082   1.612   4.096  0.2540 -0.4584 -0.1797
  912MOL0     C25738   2.210   1.537   4.133 -0.8481 -0.3167 -0.4603
  912MOL0     C25739   2.300   1.488   4.020  0.8579 -0.2101  0.1956
  912MOL0     C25740   2.226   1.402   3.919  0.1480  0.3826  0.5578
  912MOL0     C25741   2.319   1.317   3.830  0.2596  0.5581  0.0069
  912MOL0     O25742   2.345   1.391   3.703  0.0663 -0.1741 -0.1523
  912MOL0     C25743   2.440   1.345   3.613 -0.6324 -0.4063  0.3369
  912MOL0     C25744   2.467   1.422   3.507 -0.3655 -0.7886 -0.1774
  912MOL0     C25745   2.548   1.385   3.405 -0.0667 -0.0773  1.3195
  912MOL0     C25746   2.535   1.473   3.283 -0.3947 -1.1718 -0.0812
  912MOL0     C25747   2.631   1.266   3.415  0.1989 -0.7494 -0.2989
  912MOL0     C25748   2.721   1.226   3.298  0.2402  0.4260  0.1761
  912MOL0     O25749   2.779   1.117   3.319 -0.5654  0.6266  0.5827
  912MOL0     C25750   2.853   1.060   3.223  0.0842 -0.5791 -0.4363
  912MOL0     C25751   2.990   1.073   3.250 -0.5971 -0.2078  0.0004
  912MOL0     C25752   3.077   1.030   3.150  0.3260 -0.3248 -0.1326
  912MOL0     C25753   3.036   0.948   3.039  0.5871 -0.8929  0.4798
  912MOL0     O25754   3.121   0.923   2.931  0.1800 -0.3783  0.2800
  912MOL0     C25755   3.072   0.918   2.801 -0.0577 -0.7130 -0.7954
  912MOL0     C25756   3.182   0.916   2.699 -0.4427 -0.3982  0.4385
  912MOL0     C25757   3.258   1.053   2.707 -0.1276  0.2499 -0.2469
  912MOL0     C25758   3.337   1.070   2.587 -0.4309 -0.8869 -0.0037
  912MOL0     C25759   3.258   1.126   2.465  0.0753 -0.2753 -0.3334
  912MOL0     C25760   3.235   1.275   2.472  0.0625 -0.7556  0.2997
  912MOL0     C25761   3.156   1.324   2.346  0.3929 -0.7070 -0.1197
  912MOL0     C25762   3.137   1.479   2.349  0.5307 -1.1751  0.7537
  912MOL0    Cl25763   3.277   1.581   2.381  0.0883  0.6256 -0.0685
  912MOL0     C25764   2.889   0.925   3.028 -1.1402  0.2112  0.0106
  912MOL0     C25765   2.801   0.990   3.117 -0.2963  0.1288  0.3217
  912MOL0     O25766   2.738   1.291   3.201  0.1077 -0.3640  0.0906
  912MOL0     C25767   2.603   1.188   3.532  0.9873 -1.1056  0.1936
  912MOL0     C25768   2.505   1.224   3.627  0.3344  0.4167 -0.1350
  912MOL0     N25769   1.977   1.600   4.176  0.9597  0.4325  0.1815
  912MOL0     N25770   1.895   1.700   4.152  0.2023 -0.7232 -0.8272
  912MOL0     C25771   1.868   2.380   3.125  0.5701  0.7252  0.9551
  912MOL0     C25772   1.843   2.419   2.990  0.2652  0.2927 -0.1566
  912MOL0     C25773   1.690   2.729   2.664 -0.1551  0.1006  1.2183
  912MOL0     C25774   1.821   2.747   2.609 -0.6793  0.2044  0.9707
  912MOL0     C25775   1.841   2.811   2.492 -0.1445  0.0697  0.4491
  912MOL0     C25776   1.732   2.862   2.423 -0.1931 -0.3935  0.6434
  912MOL0     O25777   1.745   2.939   2.311 -0.1033  0.1189 -0.3654
  912MOL0     C25778   1.881   2.966   2.255 -0.1233 -0.8042 -0.3693
  912MOL0     C25779   1.932   3.098   2.329 -0.2758  0.2958 -0.6192
  912MOL0     C25780   2.084   3.127   2.325 -0.2773  0.2919 -0.5453
  912MOL0     C25781   2.141   3.238   2.408 -0.1511 -0.0629 -0.2666
  912MOL0     C25782   2.111   3.374   2.374  0.0900 -0.2103 -0.4605
  912MOL0     C25783   2.088   3.474   2.314  0.1315 -0.8045 -0.1504
  912MOL0     C25784   1.598   2.842   2.464 -0.4119  0.8336 -0.1003
  912MOL0     C25785   1.576   2.776   2.587  1.2993  0.3824  0.2741
  912MOL0     C25786   1.432   2.768   2.617  0.4331 -0.0016 -0.8876
  912MOL0     H25787   1.734   2.727   3.063 -0.6096 -0.9749  0.2228
  912MOL0     H25788   1.770   2.644   3.296  1.3728  0.9916 -0.4643
  912MOL0     H25789   1.677   2.316   3.444  1.1758 -1.5316 -0.7101
  912MOL0     H25790   1.658   2.493   3.432  1.9995  0.6774  0.5204
  912MOL0     H25791   1.862   2.511   3.572  0.5940 -1.0338 -0.7180
  912MOL0     H25792   1.716   2.466   3.655  0.6030  3.3950 -0.5424
  912MOL0     H25793   1.773   2.213   3.625 -1.8195  1.0223 -3.9627
  912MOL0     H25794   1.933   2.279   3.572  1.9123  2.1677  2.5930
  912MOL0     H25795   1.965   2.367   3.796 -0.9755 -0.8693  1.5880
  912MOL0     H25796   1.802   2.317   3.841 -1.7119 -3.0848  0.2768
  912MOL0     H25797   2.040   2.137   3.793  0.7187 -3.5128  3.2037
  912MOL0     H25798   1.867   2.080   3.788  1.0766  0.5606 -2.8537
  912MOL0     H25799   2.000   2.223   4.028  0.7850 -1.3184  1.3303
  912MOL0     H25800   1.838   2.155   4.013 -0.2496  0.3210 -0.3684
  912MOL0     H25801   2.013   2.026   4.129  0.2173  0.7830  0.3253
  912MOL0     H25802   2.089   1.981   3.972 -0.0561  1.1718  1.0724
  912MOL0     H25803   1.798   1.918   4.053  0.0863  0.1554  0.2456
  912MOL0     H25804   1.872   1.874   3.895  0.8218 -0.7329 -0.5148
  912MOL0     H25805   2.143   1.783   3.961 -0.2418  1.8405  0.2623
  912MOL0     H25806   2.191   1.457   4.205  1.3741 -0.3653  0.1687
  912MOL0     H25807   2.274   1.597   4.198  0.4654 -2.3990  0.2788
  912MOL0     H25808   2.344   1.569   3.961  2.9317  0.7985  2.9091
  912MOL0     H25809   2.386   1.432   4.060 -0.5616 -2.1902  0.6463
  912MOL0     H25810   2.185   1.323   3.984 -1.2222  2.1457  1.9234
  912MOL0     H25811   2.146   1.434   3.852 -0.7196 -2.0867  0.3002
  912MOL0     H25812   2.415   1.301   3.881  0.5805  1.5834 -0.2475
  912MOL0     H25813   2.281   1.215   3.814 -0.8837  0.8741  0.5939
  912MOL0     H25814   2.406   1.512   3.502  1.9673  0.9182  0.4727
  912MOL0     H25815   2.467   1.559   3.291  0.0080 -0.5175 -2.7819
  912MOL0     H25816   2.503   1.411   3.199 -0.4675  1.2768 -1.9867
  912MOL0     H25817   2.628   1.525   3.256 -0.5998  1.5398  3.5941
  912MOL0     H25818   3.036   1.122   3.334  3.9018  0.2381 -2.4480
  912MOL0     H25819   3.182   1.057   3.150  0.2888 -0.0760 -1.8066
  912MOL0     H25820   3.010   0.829   2.784  1.7129 -1.8102 -1.9058
  912MOL0     H25821   3.006   1.002   2.780  0.5981  0.5669  1.8773
  912MOL0     H25822   3.246   0.831   2.722  1.5084  0.6901 -0.6672
  912MOL0     H25823   3.134   0.912   2.600 -1.3009  2.7495  0.6073
  912MOL0     H25824   3.307   1.049   2.804  1.6711  2.6118 -0.9717
  912MOL0     H25825   3.193   1.141   2.713  2.4247  2.4206 -2.0747
  912MOL0     H25826   3.386   0.978   2.555  1.3354  0.6250 -1.9606
  912MOL0     H25827   3.424   1.131   2.611  2.3623 -3.1861 -3.2881
  912MOL0     H25828   3.321   1.118   2.375  1.8451  1.8678  0.5998
  912MOL0     H25829   3.166   1.069   2.452 -1.3080  1.5595  1.0153
  912MOL0     H25830   3.331   1.327   2.463 -1.7187  2.5924 -0.8711
  912MOL0     H25831   3.195   1.311   2.567  2.6812 -0.1516  1.2803
  912MOL0     H25832   3.057   1.278   2.355 -0.0277  0.1935 -0.0760
  912MOL0     H25833   3.208   1.289   2.256 -0.5619 -0.3079 -0.8333
  912MOL0     H25834   3.061   1.505   2.422  2.7899  0.5508  2.6427
  912MOL0     H25835   3.098   1.501   2.249  2.4627  0.4064  0.2774
  912MOL0     H25836   2.836   0.891   2.939 -2.9818 -1.0034  1.4845
  912MOL0     H25837   2.693   0.995   3.111 -0.4885  1.7356  3.5011
  912MOL0     H25838   2.655   1.093   3.544  4.5706  0.9450  3.1509
  912MOL0     H25839   2.480   1.154   3.706 -1.3041 -1.4085 -2.1426
  912MOL0     H25840   1.905   2.280   3.147  2.0030  1.4480  2.0207
  912MOL0     H25841   1.869   2.354   2.907 -2.0322  1.1541 -1.6352
  912MOL0     H25842   1.911   2.724   2.664  1.0180 -0.1726 -1.7672
  912MOL0     H25843   1.941   2.832   2.455 -0.2252 -0.4052 -0.0542
  912MOL0     H25844   1.945   2.878   2.264 -0.6511 -1.2281 -0.7078
  912MOL0     H25845   1.884   2.987   2.148 -0.6917 -1.4552 -0.5214
  912MOL0     H25846   1.899   3.089   2.433 -0.7983  3.3022 -0.4630
  912MOL0     H25847   1.882   3.180   2.277 -0.0729  1.2524  0.6475
  912MOL0     H25848   2.142   3.040   2.357  1.4243  2.0519  1.4307
  912MOL0     H25849   2.109   3.161   2.224 -1.2722 -0.9097 -1.2266
  912MOL0     H25850   2.250   3.231   2.412  0.0174  2.3660  1.4288
  912MOL0     H25851   2.114   3.219   2.513  1.0749  0.4780  0.1612
  912MOL0     H25852   2.072   3.569   2.268  1.9679  0.4358  1.6320
  912MOL0     H25853   1.528   2.873   2.388 -0.1320 -0.0384 -0.7290
  912MOL0     H25854   1.359   2.800   2.543  0.3627  0.8553 -0.4579
  912MOL0     H25855   1.407   2.664   2.640  0.3142  0.6661  2.6224
  912MOL0     H25856   1.413   2.825   2.709  2.0024 -0.3301 -0.3174
  913MOL0     O25857   2.438   6.920   4.083 -0.7202  0.5019 -0.6116
  913MOL0     C25858   2.382   6.984   4.175  0.5836 -0.1736  0.2051
  913MOL0     O25859   2.450   7.052   4.281 -0.5179 -0.3090  0.1681
  913MOL0     C25860   2.583   7.094   4.279 -1.2303  1.2819  0.7229
  913MOL0     C25861   2.653   7.131   4.160 -0.0848 -0.1034 -0.4145
  913MOL0     C25862   2.775   7.198   4.174 -0.1762 -0.7052 -0.7804
  913MOL0     C25863   2.835   7.213   4.304  0.7693 -0.0105 -0.4896
  913MOL0     O25864   2.963   7.261   4.313  0.5512  0.5044  0.2965
  913MOL0     C25865   3.047   7.176   4.396  0.4590  0.2966 -0.7264
  913MOL0     C25866   3.187   7.155   4.356  0.2281  0.4522 -0.0767
  913MOL0     C25867   3.263   7.279   4.372 -0.3816 -0.9467 -0.2927
  913MOL0     C25868   3.404   7.271   4.308 -0.2926  0.7376 -0.8550
  913MOL0     C25869   3.502   7.378   4.369  0.5159 -0.2707  0.8973
  913MOL0     C25870   3.637   7.372   4.308 -0.9337  0.2434  1.1095
  913MOL0     C25871   3.729   7.491   4.352 -0.2896 -0.1953 -0.6279
  913MOL0     C25872   3.815   7.530   4.228  1.3084 -0.2142  0.4066
  913MOL0     N25873   3.946   7.591   4.270  0.5615 -0.0737  1.0523
  913MOL0     C25874   4.042   7.542   4.354 -0.4493 -0.7077  0.4446
  913MOL0     C25875   4.125   7.643   4.377 -0.4503  0.3563 -0.4102
  913MOL0     C25876   4.263   7.636   4.444 -0.2112 -0.0444 -0.4923
  913MOL0     C25877   4.310   7.762   4.510 -0.0829 -0.0826 -0.1547
  913MOL0     C25878   4.221   7.820   4.624  0.3923 -0.2295 -0.7421
  913MOL0     C25879   4.237   7.971   4.650  0.4691 -0.2390  0.7300
  913MOL0     O25880   4.157   8.059   4.564 -0.1447  0.6019 -0.0335
  913MOL0     C25881   4.208   8.084   4.441 -0.3941 -0.8287 -0.2063
  913MOL0     C25882   4.147   8.052   4.321 -0.4228 -1.0236  1.1841
  913MOL0     C25883   4.201   8.084   4.193 -0.4860 -0.5071 -0.1056
  913MOL0     C25884   4.122   8.037   4.073  0.0028 -0.9804  0.2482
  913MOL0     C25885   4.328   8.159   4.181  0.2196 -0.2576  0.9847
  913MOL0     C25886   4.383   8.195   4.047 -0.0764 -0.1240 -0.2382
  913MOL0     O25887   4.294   8.200   3.937  0.0163 -0.7181  1.1090
  913MOL0     C25888   4.344   8.263   3.828 -0.8443  0.0859 -1.2176
  913MOL0     C25889   4.302   8.385   3.794 -0.3607  0.0116 -0.1453
  913MOL0     C25890   4.352   8.445   3.675  0.2725  0.3111 -0.1467
  913MOL0     C25891   4.449   8.373   3.596 -0.1248 -0.4932 -0.5367
  913MOL0     O25892   4.494   8.429   3.478 -0.3531  0.0914 -0.5120
  913MOL0     C25893   4.398   8.475   3.384 -0.6133  0.3506 -0.3352
  913MOL0     C25894   4.441   8.464   3.239 -0.3164  0.0690  0.5288
  913MOL0     C25895   4.545   8.563   3.213 -0.0439  0.2435  0.5429
  913MOL0     C25896   4.619   8.524   3.087 -0.6318  0.1358  0.3673
  913MOL0     C25897   4.546   8.584   2.967  0.0925  0.0327 -1.1994
  913MOL0     C25898   4.583   8.511   2.846 -0.0230  0.1635  0.2509
  913MOL0     C25899   4.730   8.528   2.796 -0.0715 -0.0432 -0.2886
  913MOL0     C25900   4.786   8.677   2.781 -0.0084  0.6074  0.2221
  913MOL0    Cl25901   4.682   8.778   2.681  0.2222  0.0893  0.2009
  913MOL0     C25902   4.503   8.256   3.640 -0.5737  0.0534 -0.2095
  913MOL0     C25903   4.447   8.201   3.756 -0.1594 -0.5656 -0.2658
  913MOL0     O25904   4.501   8.243   4.049  0.0646  0.6403  0.3969
  913MOL0     C25905   4.396   8.177   4.305  0.1932 -0.4665 -0.2557
  913MOL0     C25906   4.327   8.161   4.428 -0.3510  0.3835  0.4052
  913MOL0     N25907   4.076   7.746   4.306 -0.1247 -0.1609  0.1247
  913MOL0     N25908   3.971   7.718   4.242  0.2840  0.0365 -0.9097
  913MOL0     C25909   2.763   7.177   4.419  0.4999  0.5433  0.1384
  913MOL0     C25910   2.641   7.114   4.402  0.2225 -0.1193  0.2549
  913MOL0     C25911   2.230   6.986   4.175 -0.1532 -0.7417  0.1399
  913MOL0     C25912   2.172   7.112   4.202  0.3939  0.2852  0.1295
  913MOL0     C25913   2.036   7.123   4.204 -0.4952  0.2723 -0.6402
  913MOL0     C25914   1.953   7.011   4.181  0.3677 -0.4831 -0.6435
  913MOL0     O25915   1.819   7.033   4.179  0.0314  0.3095  0.7903
  913MOL0     C25916   1.766   7.041   4.042 -0.6116  1.2360  0.4817
  913MOL0     C25917   1.668   7.165   4.019 -0.0393  0.0209 -1.1285
  913MOL0     C25918   1.546   7.167   4.120 -0.3263 -0.8200 -0.0588
  913MOL0     C25919   1.457   7.283   4.094 -0.1779 -0.9768 -0.0556
  913MOL0     C25920   1.335   7.264   4.173 -0.8345 -0.4862 -0.0935
  913MOL0     C25921   1.239   7.238   4.246  0.3042 -0.3277  0.3638
  913MOL0     C25922   2.011   6.883   4.171 -0.4342 -0.5043 -0.1936
  913MOL0     C25923   2.144   6.871   4.158 -1.2241 -0.0381 -1.0293
  913MOL0     C25924   2.213   6.736   4.137 -0.0512 -0.3492 -0.1021
  913MOL0     H25925   2.625   7.112   4.057 -0.4475  0.1036 -0.3562
  913MOL0     H25926   2.828   7.231   4.085  1.4309 -0.1770  0.3155
  913MOL0     H25927   3.000   7.079   4.415  3.5458 -1.3639 -0.9337
  913MOL0     H25928   3.056   7.218   4.497  2.7928  0.2978 -0.8839
  913MOL0     H25929   3.239   7.081   4.418  2.3523  1.9795  0.0773
  913MOL0     H25930   3.177   7.118   4.254  1.3623 -1.2499  0.3763
  913MOL0     H25931   3.210   7.357   4.317  0.5423 -1.2410 -1.6546
  913MOL0     H25932   3.258   7.315   4.475 -0.6870 -0.0230 -0.6165
  913MOL0     H25933   3.453   7.179   4.341  0.1862  1.0748 -0.6169
  913MOL0     H25934   3.385   7.277   4.200 -0.3441  0.5032 -0.8605
  913MOL0     H25935   3.501   7.361   4.477 -1.8862  1.2196  1.2002
  913MOL0     H25936   3.473   7.483   4.367 -0.8807 -0.5578  2.8784
  913MOL0     H25937   3.693   7.286   4.348  0.0695  0.9297  1.2137
  913MOL0     H25938   3.631   7.361   4.200  2.4982 -0.0244  0.8419
  913MOL0     H25939   3.801   7.485   4.434 -1.4762  5.3773  1.2683
  913MOL0     H25940   3.666   7.574   4.387  0.1887 -0.5998  1.2922
  913MOL0     H25941   3.826   7.436   4.173 -2.3398 -2.1411  2.5923
  913MOL0     H25942   3.759   7.599   4.165  2.6634  2.5338  2.0491
  913MOL0     H25943   4.054   7.442   4.394 -1.6476 -1.3522 -0.7180
  913MOL0     H25944   4.339   7.605   4.372  0.6721 -2.0666  1.1891
  913MOL0     H25945   4.252   7.555   4.517  0.5910 -0.8769 -1.2720
  913MOL0     H25946   4.413   7.749   4.543 -0.1299  1.3620  0.6763
  913MOL0     H25947   4.314   7.841   4.435 -2.9484 -0.9116 -1.3227
  913MOL0     H25948   4.114   7.798   4.616  0.2378 -0.0778  0.7314
  913MOL0     H25949   4.255   7.765   4.712 -0.4116 -2.1324 -1.5513
  913MOL0     H25950   4.203   7.994   4.752  0.5480 -3.4482  1.5747
  913MOL0     H25951   4.345   7.980   4.636  0.7698 -1.9152  1.7456
  913MOL0     H25952   4.061   7.988   4.343  0.5154 -3.3595 -1.4265
  913MOL0     H25953   4.072   8.122   4.027  4.6642  1.6401 -0.6962
  913MOL0     H25954   4.050   7.964   4.109  0.7357 -1.1858  1.3550
  913MOL0     H25955   4.187   7.984   4.003 -1.7590 -2.1425 -0.5636
  913MOL0     H25956   4.243   8.439   3.867 -0.6265 -0.3879 -0.0612
  913MOL0     H25957   4.319   8.543   3.643 -2.9618 -1.2795 -2.2024
  913MOL0     H25958   4.307   8.421   3.411 -1.0405  1.2945  0.1557
  913MOL0     H25959   4.366   8.579   3.397 -4.8361 -1.0492  2.0308
  913MOL0     H25960   4.478   8.362   3.223  0.1758 -0.0753  2.3243
  913MOL0     H25961   4.352   8.479   3.178  1.1721  1.7414 -1.3764
  913MOL0     H25962   4.616   8.578   3.295  1.1436 -0.1847 -0.3726
  913MOL0     H25963   4.489   8.656   3.201 -1.1308 -0.6162 -1.5800
  913MOL0     H25964   4.627   8.416   3.075 -0.1269  0.0152  1.6642
  913MOL0     H25965   4.717   8.567   3.108 -1.3188  2.2199 -0.3176
  913MOL0     H25966   4.438   8.583   2.978  0.1710  1.9984  0.1560
  913MOL0     H25967   4.562   8.692   2.967 -0.1118  0.0721 -2.0377
  913MOL0     H25968   4.531   8.569   2.770 -0.2700 -1.7510 -1.1097
  913MOL0     H25969   4.540   8.410   2.849 -2.1493  0.8804 -2.1941
  913MOL0     H25970   4.740   8.494   2.693  0.1368  0.3765 -0.4085
  913MOL0     H25971   4.800   8.474   2.861  0.0779  1.8264  1.2168
  913MOL0     H25972   4.888   8.681   2.742 -0.4972  0.1625 -1.1541
  913MOL0     H25973   4.786   8.735   2.874  1.7123 -0.6295  1.0587
  913MOL0     H25974   4.564   8.190   3.578 -2.3844 -1.6030 -0.3249
  913MOL0     H25975   4.471   8.104   3.799  0.2333  0.4348  1.9190
  913MOL0     H25976   4.496   8.218   4.301  1.4109 -3.2824 -0.7074
  913MOL0     H25977   4.350   8.193   4.530 -0.5686 -0.2230  0.6504
  913MOL0     H25978   2.796   7.179   4.522 -1.3194  3.9576  0.8149
  913MOL0     H25979   2.584   7.084   4.489  2.2492 -1.7777  1.0713
  913MOL0     H25980   2.221   7.205   4.228 -2.4422  1.1586  3.0368
  913MOL0     H25981   1.979   7.214   4.214 -1.5880 -0.2274 -2.0049
  913MOL0     H25982   1.849   7.049   3.970 -1.8885  1.5063 -1.0199
  913MOL0     H25983   1.723   6.947   4.007  1.9514  0.6553 -1.4506
  913MOL0     H25984   1.617   7.160   3.923 -0.7968 -2.2805 -0.6763
  913MOL0     H25985   1.715   7.263   4.028 -2.3905  1.2008 -0.8199
  913MOL0     H25986   1.489   7.074   4.126 -0.9013 -0.5658 -1.2159
  913MOL0     H25987   1.592   7.188   4.217 -1.9612  2.4962  0.1516
  913MOL0     H25988   1.442   7.287   3.986 -0.5780  1.6823  0.0177
  913MOL0     H25989   1.486   7.388   4.108 -3.6853  0.2431 -0.7951
  913MOL0     H25990   1.152   7.223   4.307  1.2305  1.8403  2.3483
  913MOL0     H25991   1.961   6.788   4.150 -0.7954 -0.0855 -1.2998
  913MOL0     H25992   2.127   6.678   4.103 -1.3888  1.2292  0.4198
  913MOL0     H25993   2.278   6.760   4.052 -0.6992 -2.5895 -1.3081
  913MOL0     H25994   2.263   6.701   4.227 -0.6925  1.4314  1.0018
  914MOL0     O25995   0.295   4.135   2.370 -0.0674 -0.6772 -0.3639
  914MOL0     C25996   0.335   4.125   2.255 -0.0849  0.9694  0.0311
  914MOL0     O25997   0.438   4.046   2.203  0.3038  0.2377 -0.5530
  914MOL0     C25998   0.503   3.992   2.306  0.0759  1.5245 -0.2221
  914MOL0     C25999   0.618   4.050   2.345 -0.7808 -0.1031  0.3976
  914MOL0     C26000   0.702   3.993   2.435  0.5955  0.1800  0.2536
  914MOL0     C26001   0.673   3.868   2.494 -0.6024  0.2617 -0.0009
  914MOL0     O26002   0.762   3.826   2.590  0.5622 -0.1541 -0.6119
  914MOL0     C26003   0.717   3.728   2.687 -0.3629  0.3008 -0.0007
  914MOL0     C26004   0.836   3.680   2.775 -0.7268 -0.4006  0.9178
  914MOL0     C26005   0.953   3.642   2.687 -0.0953  0.0704  0.2447
  914MOL0     C26006   1.045   3.536   2.755 -1.3412 -0.6306 -0.6172
  914MOL0     C26007   0.986   3.403   2.771 -0.5334  0.6742  0.1013
  914MOL0     C26008   1.096   3.296   2.738 -0.0571 -0.9588  0.0269
  914MOL0     C26009   1.058   3.156   2.771 -0.2926  0.2997  0.1426
  914MOL0     C26010   1.175   3.049   2.740  1.2380 -1.0428 -0.1457
  914MOL0     N26011   1.275   3.062   2.839 -0.3130 -0.7403  0.1483
  914MOL0     C26012   1.285   2.965   2.943  0.0545 -0.2110 -0.3030
  914MOL0     C26013   1.397   2.994   3.012 -0.5392 -0.4936  0.2249
  914MOL0     C26014   1.456   2.910   3.128 -0.0042 -0.2271  0.2388
  914MOL0     C26015   1.357   2.923   3.242 -0.1373 -0.3485  1.3135
  914MOL0     C26016   1.415   2.895   3.383 -0.3291 -0.1946  0.7549
  914MOL0     C26017   1.508   2.772   3.381 -0.6317 -1.0651  0.1637
  914MOL0     O26018   1.525   2.712   3.519  0.1406 -0.0971 -0.0631
  914MOL0     C26019   1.617   2.756   3.608  0.1033  0.3519 -0.2327
  914MOL0     C26020   1.616   2.680   3.719 -0.0873  0.0455  0.1964
  914MOL0     C26021   1.696   2.703   3.832  0.9347 -0.2729  0.3543
  914MOL0     C26022   1.674   2.619   3.945 -0.6026  0.3318 -0.5579
  914MOL0     C26023   1.803   2.798   3.819 -0.9603  0.2570 -0.4072
  914MOL0     C26024   1.888   2.840   3.923 -0.4895 -0.4923 -0.5344
  914MOL0     O26025   1.973   2.949   3.900  0.8771  0.6451 -0.7425
  914MOL0     C26026   2.078   2.979   3.979  0.5946  0.4719  0.1192
  914MOL0     C26027   2.179   2.876   3.991 -0.7630 -0.2037  0.4145
  914MOL0     C26028   2.302   2.908   4.055 -0.1240  0.6421  0.3038
  914MOL0     C26029   2.315   3.029   4.120 -0.0115  0.6307 -0.2542
  914MOL0     O26030   2.438   3.045   4.170  0.1682  0.3073 -0.1952
  914MOL0     C26031   2.486   3.179   4.198  0.5629 -1.1496  0.5543
  914MOL0     C26032   2.628   3.171   4.251  0.4395 -0.5534 -0.7773
  914MOL0     C26033   2.696   3.306   4.246 -0.1410 -0.8516  0.6827
  914MOL0     C26034   2.848   3.304   4.272 -0.0840 -0.4945  0.2800
  914MOL0     C26035   2.895   3.447   4.235 -0.4913 -0.9028 -0.1135
  914MOL0     C26036   3.047   3.467   4.246  1.0191  0.1587 -0.4687
  914MOL0     C26037   3.090   3.480   4.393  0.7413  0.4461  0.6821
  914MOL0     C26038   3.234   3.533   4.400  0.0670 -0.2553 -0.1413
  914MOL0    Cl26039   3.356   3.424   4.328  0.0674  0.4311  0.0534
  914MOL0     C26040   2.212   3.128   4.111 -0.3958  0.1865 -0.2311
  914MOL0     C26041   2.091   3.103   4.031  0.0396 -0.3562 -0.9490
  914MOL0     O26042   1.913   2.758   4.005  0.3288  0.1062  0.0913
  914MOL0     C26043   1.806   2.878   3.700  0.1296  0.5767 -0.3813
  914MOL0     C26044   1.717   2.854   3.599  0.7968 -0.6876 -0.2647
  914MOL0     N26045   1.462   3.096   2.945 -0.8872 -0.9051  0.0306
  914MOL0     N26046   1.391   3.125   2.838 -0.8205 -0.1275  0.3840
  914MOL0     C26047   0.549   3.808   2.464  0.7232 -0.2926 -0.0952
  914MOL0     C26048   0.471   3.872   2.359  0.6745  0.4222 -0.2178
  914MOL0     C26049   0.235   4.177   2.159 -0.0548  0.8589  0.8645
  914MOL0     C26050   0.282   4.266   2.064 -0.9316 -1.0572 -0.1695
  914MOL0     C26051   0.203   4.309   1.959 -0.6416  0.6626  0.2271
  914MOL0     C26052   0.081   4.244   1.941 -0.1239  0.9570  0.7206
  914MOL0     O26053  -0.002   4.280   1.837 -0.2135  0.4070 -0.0929
  914MOL0     C26054  -0.061   4.411   1.852  0.2065  0.1487 -0.5302
  914MOL0     C26055  -0.218   4.401   1.871 -0.3023  0.3569  1.0609
  914MOL0     C26056  -0.279   4.384   1.732 -0.2850  0.4366  0.0569
  914MOL0     C26057  -0.418   4.428   1.732  0.6300 -0.3125 -0.0860
  914MOL0     C26058  -0.480   4.406   1.602 -0.7539 -0.8587  0.0025
  914MOL0     C26059  -0.524   4.399   1.493 -0.3826  1.0296 -0.4867
  914MOL0     C26060   0.036   4.149   2.035  0.2316 -0.2868  0.7558
  914MOL0     C26061   0.111   4.114   2.139  0.5527 -0.5086 -0.9603
  914MOL0     C26062   0.065   4.025   2.246  0.3816  0.0480 -0.4706
  914MOL0     H26063   0.660   4.125   2.279  1.4184 -3.0345 -1.7940
  914MOL0     H26064   0.797   4.044   2.446 -0.7525  3.1701 -0.9372
  914MOL0     H26065   0.668   3.643   2.639 -2.7347  0.5287  1.8327
  914MOL0     H26066   0.650   3.777   2.758 -1.0076 -1.9377  1.0328
  914MOL0     H26067   0.876   3.753   2.845  1.4840 -0.7345  0.0859
  914MOL0     H26068   0.789   3.604   2.838 -2.3361 -1.4335 -1.3914
  914MOL0     H26069   0.910   3.592   2.599 -0.9967  1.1973  0.0175
  914MOL0     H26070   1.015   3.720   2.642 -3.2709  2.1136 -0.9244
  914MOL0     H26071   1.143   3.530   2.708 -1.3928 -4.9307 -0.5955
  914MOL0     H26072   1.055   3.557   2.862 -3.7833 -1.1097 -0.2217
  914MOL0     H26073   0.895   3.383   2.713  0.6781 -0.5673 -1.4843
  914MOL0     H26074   0.954   3.387   2.874 -2.5813  1.9371 -0.2734
  914MOL0     H26075   1.125   3.303   2.633  0.8107  2.3508  0.3768
  914MOL0     H26076   1.189   3.323   2.789 -0.2198 -0.2677 -0.0218
  914MOL0     H26077   0.973   3.135   2.705  0.4520  1.7720 -1.3769
  914MOL0     H26078   1.043   3.150   2.879 -1.7342 -0.8099 -0.1014
  914MOL0     H26079   1.132   2.948   2.739 -0.7756 -0.2608  1.1396
  914MOL0     H26080   1.212   3.074   2.640  1.2315  1.4012  0.3897
  914MOL0     H26081   1.219   2.879   2.949 -3.4704  2.2146 -1.0105
  914MOL0     H26082   1.551   2.953   3.160 -0.2355 -0.5554  1.4189
  914MOL0     H26083   1.473   2.806   3.101  1.1311  0.8695 -3.9341
  914MOL0     H26084   1.310   3.021   3.242 -0.3827 -0.4621  2.1830
  914MOL0     H26085   1.274   2.853   3.225  1.7738 -2.4438 -0.0210
  914MOL0     H26086   1.474   2.986   3.400 -1.4644  0.4523  1.3612
  914MOL0     H26087   1.340   2.881   3.462 -2.3924  0.5106 -0.9706
  914MOL0     H26088   1.465   2.697   3.315  0.2709 -1.4212 -0.0311
  914MOL0     H26089   1.606   2.796   3.340 -1.3417  1.4944 -0.2048
  914MOL0     H26090   1.541   2.602   3.726  1.1577 -1.1735  0.3582
  914MOL0     H26091   1.601   2.538   3.935  2.0285 -2.4186  0.8555
  914MOL0     H26092   1.639   2.677   4.031 -1.8555 -2.1046  0.6927
  914MOL0     H26093   1.770   2.574   3.971 -0.2441 -0.0852 -2.4751
  914MOL0     H26094   2.167   2.778   3.945 -0.2217  0.4886 -1.2618
  914MOL0     H26095   2.393   2.853   4.034  0.9964  3.2515 -2.5013
  914MOL0     H26096   2.486   3.215   4.095  1.5590 -3.4170 -0.2986
  914MOL0     H26097   2.415   3.225   4.267  0.7845  0.7046 -0.3825
  914MOL0     H26098   2.629   3.131   4.352 -0.8930  1.8879  0.3148
  914MOL0     H26099   2.679   3.094   4.192 -0.1767 -2.4031  0.9935
  914MOL0     H26100   2.647   3.373   4.317  2.4675  1.4474  0.4843
  914MOL0     H26101   2.696   3.344   4.144  3.2932 -1.8853  0.1875
  914MOL0     H26102   2.895   3.228   4.210 -0.9625 -0.0819 -0.9260
  914MOL0     H26103   2.864   3.280   4.378 -0.7375  3.2268  1.3680
  914MOL0     H26104   2.866   3.462   4.131 -1.2769 -1.9297 -0.0602
  914MOL0     H26105   2.847   3.529   4.289 -0.1601 -1.0141  0.3527
  914MOL0     H26106   3.066   3.562   4.195  0.9543 -1.4296 -3.7287
  914MOL0     H26107   3.109   3.396   4.191  0.0617  0.2251 -1.6624
  914MOL0     H26108   3.086   3.380   4.438  0.3354 -0.1966 -0.7269
  914MOL0     H26109   3.025   3.553   4.442  1.8339  2.9592 -1.3700
  914MOL0     H26110   3.268   3.551   4.503 -1.4845 -1.2671  0.5844
  914MOL0     H26111   3.238   3.631   4.352  2.5288  0.1409  0.6984
  914MOL0     H26112   2.216   3.226   4.157  1.0533  0.1547 -0.2438
  914MOL0     H26113   1.997   3.157   4.034 -0.7504 -1.6161  2.4396
  914MOL0     H26114   1.879   2.956   3.680  2.7831 -0.9138  2.6202
  914MOL0     H26115   1.714   2.913   3.508 -1.1648 -0.0998  0.1340
  914MOL0     H26116   0.536   3.706   2.498  0.5543 -0.5623 -0.9611
  914MOL0     H26117   0.389   3.820   2.312  1.2769 -0.3621 -0.4208
  914MOL0     H26118   0.379   4.313   2.076 -1.7402  0.2293  1.6012
  914MOL0     H26119   0.233   4.387   1.889 -3.2875  1.4698 -0.1206
  914MOL0     H26120  -0.025   4.468   1.938 -1.9471 -0.7126  1.0068
  914MOL0     H26121  -0.028   4.478   1.773  1.8943  2.4618  1.9485
  914MOL0     H26122  -0.252   4.492   1.920  1.5590 -0.1404  3.4639
  914MOL0     H26123  -0.244   4.317   1.936 -2.1585 -1.8450 -2.1951
  914MOL0     H26124  -0.226   4.453   1.666 -1.3530  2.3508  1.0998
  914MOL0     H26125  -0.274   4.282   1.695 -1.8751  0.4667 -0.2997
  914MOL0     H26126  -0.441   4.532   1.759  0.4151  0.5604 -3.1972
  914MOL0     H26127  -0.471   4.366   1.805  0.3139  1.3651  1.2023
  914MOL0     H26128  -0.531   4.390   1.386  1.4975 -1.0400 -0.5201
  914MOL0     H26129  -0.064   4.109   2.022  0.3237 -0.3839  0.3372
  914MOL0     H26130   0.015   4.079   2.326  1.9012  1.1972 -0.2617
  914MOL0     H26131  -0.010   3.964   2.194  1.7194 -2.5033  0.3959
  914MOL0     H26132   0.140   3.950   2.275  3.5040  2.3235 -2.0727
  915MOL0     O26133   0.103  11.477   8.824 -0.4739  0.8058 -0.6973
  915MOL0     C26134   0.121  11.444   8.938  0.2980 -0.1385 -0.0131
  915MOL0     O26135   0.079  11.511   9.044  0.3473 -0.2811  0.2180
  915MOL0     C26136  -0.011  11.611   9.032 -0.0208 -0.0702 -0.4490
  915MOL0     C26137  -0.151  11.584   9.033  0.7642 -0.7009  0.1272
  915MOL0     C26138  -0.244  11.690   9.019  0.3985 -0.4489 -0.4258
  915MOL0     C26139  -0.198  11.825   9.014  0.6367  0.2733  0.2140
  915MOL0     O26140  -0.279  11.941   9.007  0.3419 -0.0803 -0.1618
  915MOL0     C26141  -0.413  11.936   8.943 -0.3507 -0.1790  0.3697
  915MOL0     C26142  -0.542  11.951   9.035  0.0846 -1.1862 -0.1759
  915MOL0     C26143  -0.570  11.822   9.120 -0.0575 -1.6065  0.3271
  915MOL0     C26144  -0.701  11.835   9.204 -0.4500  0.6669  0.1856
  915MOL0     C26145  -0.702  11.718   9.296 -0.6424  0.2943  0.1725
  915MOL0     C26146  -0.699  11.575   9.230 -0.1711 -0.4572 -0.2886
  915MOL0     C26147  -0.810  11.552   9.136  1.0197 -0.1282 -0.0777
  915MOL0     C26148  -0.801  11.408   9.085  0.8410 -0.2454 -0.2672
  915MOL0     N26149  -0.898  11.385   8.972  0.2083  0.8456  0.1848
  915MOL0     C26150  -1.015  11.320   8.959  0.3112  0.2094 -0.4537
  915MOL0     C26151  -1.056  11.327   8.831 -0.8833 -0.6148  0.7671
  915MOL0     C26152  -1.171  11.261   8.753  0.4254 -0.1778  0.1948
  915MOL0     C26153  -1.217  11.130   8.818  0.1346 -0.8427 -0.5842
  915MOL0     C26154  -1.197  11.016   8.721  0.5047 -0.1459 -0.0725
  915MOL0     C26155  -1.057  10.982   8.681 -0.4320 -0.3043  0.5055
  915MOL0     O26156  -1.057  10.841   8.663  0.0033  0.2630  0.4392
  915MOL0     C26157  -0.986  10.772   8.761 -0.1705  0.5800  1.1735
  915MOL0     C26158  -0.875  10.705   8.711 -0.7162  0.5502 -0.7001
  915MOL0     C26159  -0.807  10.612   8.793  0.0317 -0.6145  0.7354
  915MOL0     C26160  -0.680  10.558   8.733 -0.6816 -0.0845 -0.1531
  915MOL0     C26161  -0.854  10.590   8.923 -0.3406 -0.7526  0.6036
  915MOL0     C26162  -0.788  10.516   9.023  0.6682 -0.1994 -0.2280
  915MOL0     O26163  -0.650  10.509   9.025  0.7336 -0.7243 -0.2145
  915MOL0     C26164  -0.596  10.434   9.120 -0.4241  0.2961  0.3161
  915MOL0     C26165  -0.527  10.490   9.231 -0.1293 -0.4862  0.1378
  915MOL0     C26166  -0.471  10.406   9.329  0.0360  0.3305 -0.2978
  915MOL0     C26167  -0.481  10.262   9.319 -0.3409 -0.5495  0.3781
  915MOL0     O26168  -0.444  10.175   9.415  0.0877  0.4745  0.4938
  915MOL0     C26169  -0.344  10.224   9.503 -0.4447 -0.1022 -0.4550
  915MOL0     C26170  -0.274  10.112   9.580  0.9551  0.3860 -0.3768
  915MOL0     C26171  -0.216  10.006   9.477 -0.2566 -0.0584 -0.5460
  915MOL0     C26172  -0.082   9.938   9.539  0.1367  1.2372 -0.3346
  915MOL0     C26173  -0.020   9.846   9.433 -0.3676 -0.6701 -0.0444
  915MOL0     C26174   0.113   9.774   9.481  0.6578 -0.1619  0.5559
  915MOL0     C26175   0.134   9.640   9.407 -0.3762 -0.1132  0.1460
  915MOL0     C26176   0.184   9.651   9.260 -0.1671  0.0843 -0.1276
  915MOL0    Cl26177   0.321   9.759   9.235  0.1277  0.2249  0.3027
  915MOL0     C26178  -0.534  10.214   9.204 -0.3743  0.3945  0.4838
  915MOL0     C26179  -0.596  10.296   9.104  0.5956 -1.2280 -0.3682
  915MOL0     O26180  -0.866  10.451   9.094 -0.2100  0.3308 -0.1215
  915MOL0     C26181  -0.972  10.655   8.963 -0.3219 -0.5420 -0.8480
  915MOL0     C26182  -1.033  10.758   8.890  0.5901  0.2056  0.1766
  915MOL0     N26183  -0.952  11.389   8.761  0.5659 -0.1165 -0.2722
  915MOL0     N26184  -0.855  11.417   8.844  1.0443  0.1162 -0.1979
  915MOL0     C26185  -0.058  11.844   9.024  0.1178 -0.1935  0.2860
  915MOL0     C26186   0.037  11.742   9.042 -0.2304 -0.1915  0.0157
  915MOL0     C26187   0.199  11.322   8.980 -0.0497  0.0299  0.7372
  915MOL0     C26188   0.176  11.262   9.106  0.1708  0.1402 -0.9659
  915MOL0     C26189   0.244  11.145   9.149  0.9088 -0.0913  0.9472
  915MOL0     C26190   0.339  11.083   9.064 -0.5765 -0.0962 -0.2597
  915MOL0     O26191   0.398  10.966   9.109 -0.4023 -0.4766 -0.8526
  915MOL0     C26192   0.501  10.905   9.028 -0.3897 -0.1861  1.1656
  915MOL0     C26193   0.524  10.760   9.058 -0.8636 -0.9360  0.0000
  915MOL0     C26194   0.633  10.757   9.166 -0.5508  0.2984 -0.6634
  915MOL0     C26195   0.639  10.619   9.235 -0.6654  0.9560 -1.2771
  915MOL0     C26196   0.728  10.626   9.352 -0.0661  0.1898 -0.7690
  915MOL0     C26197   0.808  10.634   9.453  0.3280 -0.9991  0.4484
  915MOL0     C26198   0.369  11.145   8.945 -1.0097  0.0441  0.3279
  915MOL0     C26199   0.309  11.263   8.911 -0.0281  0.7553  0.0996
  915MOL0     C26200   0.349  11.328   8.777  0.3524 -1.0524 -0.0197
  915MOL0     H26201  -0.168  11.478   9.050  0.0497 -2.0134 -6.0797
  915MOL0     H26202  -0.345  11.655   8.999  1.2780 -3.7723  0.3504
  915MOL0     H26203  -0.419  11.850   8.876 -0.1937 -0.1172  0.2748
  915MOL0     H26204  -0.403  12.020   8.873  2.3351  0.5993  1.5562
  915MOL0     H26205  -0.536  12.038   9.100  0.1380 -0.7428 -0.7683
  915MOL0     H26206  -0.630  11.970   8.973 -0.5051 -1.2409  0.6291
  915MOL0     H26207  -0.579  11.739   9.049  1.9850 -1.4049 -0.2351
  915MOL0     H26208  -0.481  11.804   9.180  0.2728  0.2627  0.4598
  915MOL0     H26209  -0.714  11.926   9.265  0.8913  0.1275  1.3248
  915MOL0     H26210  -0.789  11.830   9.139  0.2086 -2.8279 -0.6335
  915MOL0     H26211  -0.784  11.726   9.367 -0.2479 -2.1905  0.9991
  915MOL0     H26212  -0.613  11.723   9.360 -0.7500 -1.8171  0.5550
  915MOL0     H26213  -0.604  11.552   9.181 -1.1462 -1.0698 -1.9709
  915MOL0     H26214  -0.709  11.498   9.308 -1.8406 -0.2669 -0.2799
  915MOL0     H26215  -0.793  11.618   9.050  3.1325 -1.0547 -0.4391
  915MOL0     H26216  -0.907  11.577   9.181  1.7098  0.0758  1.3537
  915MOL0     H26217  -0.697  11.398   9.053  0.4508  3.0305 -3.2082
  915MOL0     H26218  -0.825  11.343   9.169  0.8944 -0.8338 -0.6983
  915MOL0     H26219  -1.061  11.279   9.048  0.3796  0.1722 -0.4351
  915MOL0     H26220  -1.146  11.238   8.649 -0.6603  3.7517 -1.1032
  915MOL0     H26221  -1.249  11.336   8.737  2.5430  1.9116 -0.8470
  915MOL0     H26222  -1.165  11.096   8.909 -1.5697  1.9129  1.5816
  915MOL0     H26223  -1.317  11.132   8.863  0.3516  0.9198 -0.1289
  915MOL0     H26224  -1.248  10.936   8.774 -0.9260  1.3537  0.9234
  915MOL0     H26225  -1.260  11.031   8.632  0.0730 -1.9302 -0.1025
  915MOL0     H26226  -1.023  11.042   8.597 -0.0600  0.1888  0.9987
  915MOL0     H26227  -0.990  11.006   8.764 -3.5268 -1.3218  3.5248
  915MOL0     H26228  -0.841  10.719   8.609  0.8501  0.6230 -0.1813
  915MOL0     H26229  -0.667  10.567   8.624  1.1939 -1.6308 -0.1304
  915MOL0     H26230  -0.684  10.449   8.743  1.7262 -0.4174 -1.6848
  915MOL0     H26231  -0.581  10.594   8.763 -0.2165 -0.2851 -1.3428
  915MOL0     H26232  -0.524  10.598   9.238 -3.9200 -0.2872  0.7158
  915MOL0     H26233  -0.436  10.450   9.422 -0.7372  1.0147 -0.3147
  915MOL0     H26234  -0.266  10.279   9.451 -0.4754  1.7547  1.3429
  915MOL0     H26235  -0.398  10.292   9.569 -1.8881 -0.1592 -1.5238
  915MOL0     H26236  -0.195  10.153   9.644 -0.3136  0.1899  1.3913
  915MOL0     H26237  -0.340  10.061   9.651  0.5222 -1.6034 -2.1165
  915MOL0     H26238  -0.196  10.047   9.378  3.1175  0.7264  0.3223
  915MOL0     H26239  -0.290   9.929   9.455 -1.5117  0.3198  1.9439
  915MOL0     H26240  -0.119   9.890   9.630 -1.7341  3.4338  0.1490
  915MOL0     H26241   0.005  10.000   9.562 -0.3516  1.4698  0.9490
  915MOL0     H26242  -0.082   9.762   9.400  1.8884 -3.4621  2.2963
  915MOL0     H26243   0.008   9.901   9.343  1.3116 -1.0539  0.2134
  915MOL0     H26244   0.110   9.757   9.589  0.4474 -1.4055  0.3722
  915MOL0     H26245   0.197   9.837   9.450 -0.6573  0.5403 -1.8589
  915MOL0     H26246   0.035   9.596   9.397 -1.3941  2.2280 -0.8911
  915MOL0     H26247   0.202   9.573   9.460 -1.4391 -1.0781  0.3418
  915MOL0     H26248   0.101   9.680   9.195 -0.5879 -2.3531 -0.7939
  915MOL0     H26249   0.210   9.550   9.226  0.1358  0.9189 -2.6372
  915MOL0     H26250  -0.535  10.108   9.181  0.3470  0.4828  0.0051
  915MOL0     H26251  -0.626  10.253   9.008  0.6011  0.7803 -1.3129
  915MOL0     H26252  -1.017  10.644   9.061 -0.4591  3.6485 -0.2915
  915MOL0     H26253  -1.117  10.817   8.926 -2.1449 -4.2383  1.8711
  915MOL0     H26254  -0.016  11.944   9.019 -1.3836  0.4558  0.3484
  915MOL0     H26255   0.142  11.765   9.056  0.2742 -3.3262  2.5334
  915MOL0     H26256   0.099  11.289   9.178  0.3730  0.9949 -1.0572
  915MOL0     H26257   0.223  11.112   9.250  1.0822 -2.9944  0.1271
  915MOL0     H26258   0.451  10.902   8.931 -0.5479  0.8283  1.2029
  915MOL0     H26259   0.584  10.975   9.012 -1.0136  0.5236  0.9720
  915MOL0     H26260   0.554  10.691   8.980  2.3066 -1.9375  1.9157
  915MOL0     H26261   0.438  10.704   9.096 -2.0465 -0.8328 -2.3757
  915MOL0     H26262   0.729  10.779   9.119 -1.4004  2.8442 -1.3309
  915MOL0     H26263   0.620  10.838   9.238  0.0195 -0.9152  0.8904
  915MOL0     H26264   0.667  10.534   9.171 -1.4593 -1.3358  1.2579
  915MOL0     H26265   0.537  10.601   9.270 -0.4723  2.7445  0.3216
  915MOL0     H26266   0.882  10.641   9.529 -1.2707  4.0381  1.9486
  915MOL0     H26267   0.439  11.117   8.867 -0.3861  3.6742 -0.5900
  915MOL0     H26268   0.273  11.305   8.703  1.3054  1.1475 -1.8078
  915MOL0     H26269   0.356  11.437   8.788 -1.4444 -1.0871  2.5197
  915MOL0     H26270   0.446  11.282   8.756  0.0560 -2.5711  1.6455
  916MOL0     O26271   6.291   7.090   3.168  0.1974 -0.3474 -0.3503
  916MOL0     C26272   6.192   7.025   3.150 -0.3678  0.2626 -0.3667
  916MOL0     O26273   6.135   6.989   3.026  0.0058 -0.1352 -0.2979
  916MOL0     C26274   6.197   7.045   2.911 -0.0867  0.2118 -0.0133
  916MOL0     C26275   6.298   6.966   2.846  1.0091  0.2604 -0.0433
  916MOL0     C26276   6.351   7.003   2.717  0.2903 -0.5491 -0.1907
  916MOL0     C26277   6.298   7.104   2.650 -0.3167  0.1194  0.7984
  916MOL0     O26278   6.311   7.111   2.514 -0.2970  0.0157 -0.5299
  916MOL0     C26279   6.431   7.181   2.481 -0.7294  0.6541  0.2950
  916MOL0     C26280   6.517   7.079   2.401  0.8584 -0.4656  0.0739
  916MOL0     C26281   6.478   7.047   2.257  0.0895  0.4934  0.0188
  916MOL0     C26282   6.591   6.971   2.172 -1.2585  1.1718 -0.5144
  916MOL0     C26283   6.550   6.924   2.033 -0.1361  0.2288  1.3733
  916MOL0     C26284   6.480   7.016   1.938  0.4283 -0.4631  0.5814
  916MOL0     C26285   6.564   7.131   1.878 -0.1243  0.4766 -0.0807
  916MOL0     C26286   6.461   7.237   1.812  0.5055  0.6003  0.2139
  916MOL0     N26287   6.539   7.346   1.752 -0.5226 -0.5877 -1.4261
  916MOL0     C26288   6.619   7.338   1.645  0.3848 -0.9840 -0.2921
  916MOL0     C26289   6.670   7.470   1.638  0.5000 -0.4778  0.3370
  916MOL0     C26290   6.765   7.527   1.530  0.2747 -1.3962  0.1827
  916MOL0     C26291   6.909   7.462   1.539  0.1356 -0.0101 -0.6731
  916MOL0     C26292   6.971   7.500   1.681  0.7511  0.0612  0.3091
  916MOL0     C26293   7.034   7.637   1.689 -0.2103 -0.3027 -0.1859
  916MOL0     O26294   7.046   7.679   1.824 -0.2993  0.2233  1.2586
  916MOL0     C26295   6.940   7.736   1.893  0.1173  0.1691  0.0253
  916MOL0     C26296   6.975   7.782   2.028 -0.0179 -1.4089  0.6536
  916MOL0     C26297   6.882   7.843   2.115 -0.2218 -1.2529  0.0813
  916MOL0     C26298   6.932   7.885   2.252 -0.0014 -0.5212 -0.1517
  916MOL0     C26299   6.757   7.861   2.069  1.0053  1.0006  0.5901
  916MOL0     C26300   6.658   7.936   2.154 -1.2823  0.4627 -0.2084
  916MOL0     O26301   6.601   7.875   2.252  0.2081  0.0810  0.6784
  916MOL0     C26302   6.512   7.943   2.335  0.5505 -0.6833 -0.2129
  916MOL0     C26303   6.517   8.071   2.388 -0.2127 -0.7518 -0.6136
  916MOL0     C26304   6.413   8.114   2.484  0.0784  0.4194 -0.1209
  916MOL0     C26305   6.301   8.034   2.511  0.0502  0.4067  0.1409
  916MOL0     O26306   6.194   8.059   2.599 -0.5529  0.8507  0.3135
  916MOL0     C26307   6.184   8.183   2.655 -1.0112 -0.8449 -0.0881
  916MOL0     C26308   6.054   8.174   2.733  0.0212 -0.7312 -0.4464
  916MOL0     C26309   5.994   8.306   2.757  0.5064 -0.3740  0.7702
  916MOL0     C26310   5.845   8.296   2.801 -0.0984  0.4712  0.5766
  916MOL0     C26311   5.806   8.429   2.875 -0.7461  0.2187 -0.5504
  916MOL0     C26312   5.837   8.560   2.804 -0.7873 -0.4335  0.2271
  916MOL0     C26313   5.770   8.681   2.883  0.2978  0.9660  0.0144
  916MOL0     C26314   5.738   8.807   2.807 -0.3601  0.2013  0.3031
  916MOL0    Cl26315   5.881   8.904   2.761  0.0112 -0.2297 -0.0021
  916MOL0     C26316   6.302   7.911   2.450  0.4828  0.3502 -0.2747
  916MOL0     C26317   6.396   7.870   2.358 -0.1508  0.3132 -0.4645
  916MOL0     O26318   6.651   8.051   2.128  0.5871 -0.6494 -0.0544
  916MOL0     C26319   6.716   7.823   1.934  0.6874  0.3235  0.5538
  916MOL0     C26320   6.804   7.759   1.847 -0.1390  0.2991 -0.1483
  916MOL0     N26321   6.614   7.551   1.732 -0.1477 -0.0238  0.7184
  916MOL0     N26322   6.535   7.482   1.795 -0.0871  0.1105 -0.0448
  916MOL0     C26323   6.198   7.178   2.712  0.0899  0.2089  0.7964
  916MOL0     C26324   6.145   7.149   2.840 -0.0207  0.1389  0.6295
  916MOL0     C26325   6.109   6.994   3.273  0.8562 -0.7507 -0.0950
  916MOL0     C26326   5.970   6.980   3.255 -0.4273  0.8896 -0.4219
  916MOL0     C26327   5.886   6.943   3.363 -0.9290 -0.2321  0.6699
  916MOL0     C26328   5.943   6.920   3.483 -0.7628  1.1369 -0.4701
  916MOL0     O26329   5.854   6.896   3.582 -0.0065  0.5110 -0.0183
  916MOL0     C26330   5.894   6.805   3.684  0.0974 -0.3141 -0.3439
  916MOL0     C26331   5.784   6.775   3.771 -0.2481 -0.3204  0.4853
  916MOL0     C26332   5.713   6.645   3.720  0.8486  0.1429 -0.4491
  916MOL0     C26333   5.575   6.661   3.782  0.2544  0.3536  1.0346
  916MOL0     C26334   5.579   6.642   3.924 -1.0889 -0.1809 -0.2567
  916MOL0     C26335   5.576   6.614   4.040 -0.3649 -0.2057 -0.3243
  916MOL0     C26336   6.084   6.949   3.505  0.3671  0.5018  0.0712
  916MOL0     C26337   6.168   6.993   3.406  0.5333 -0.2596  0.5288
  916MOL0     C26338   6.311   7.039   3.441  0.7585  0.1189 -0.1050
  916MOL0     H26339   6.337   6.886   2.908  0.0206 -0.0312  0.2162
  916MOL0     H26340   6.419   6.938   2.664  0.5437 -1.9093  1.6785
  916MOL0     H26341   6.477   7.230   2.567 -0.4736 -0.1963  0.6523
  916MOL0     H26342   6.411   7.261   2.409 -0.6308 -0.7827 -1.4077
  916MOL0     H26343   6.618   7.119   2.394  0.9347 -0.6949 -0.1553
  916MOL0     H26344   6.520   6.987   2.460 -0.1979 -1.2861 -1.0945
  916MOL0     H26345   6.393   6.979   2.264  0.4239  0.0468 -0.2462
  916MOL0     H26346   6.449   7.143   2.214 -1.6374  1.7074  3.4665
  916MOL0     H26347   6.687   7.023   2.160 -0.4983 -0.2498 -0.7761
  916MOL0     H26348   6.621   6.881   2.225 -2.5981 -0.5741 -2.5675
  916MOL0     H26349   6.476   6.843   2.028  1.9745 -2.0271 -6.0321
  916MOL0     H26350   6.634   6.889   1.972  0.2098  3.6666 -0.3441
  916MOL0     H26351   6.452   6.957   1.850  2.0770 -0.3324 -0.0637
  916MOL0     H26352   6.386   7.057   1.977  0.4053  2.2190 -1.8734
  916MOL0     H26353   6.628   7.107   1.793 -2.6433  0.1836 -2.0000
  916MOL0     H26354   6.627   7.174   1.957 -1.5166 -2.0196  2.5597
  916MOL0     H26355   6.403   7.193   1.730 -0.7051  2.1822  0.1772
  916MOL0     H26356   6.395   7.291   1.879  1.7766  5.0880 -1.7778
  916MOL0     H26357   6.649   7.254   1.583 -3.5584 -2.8511  0.0009
  916MOL0     H26358   6.777   7.635   1.538 -0.6932 -1.3782  1.8270
  916MOL0     H26359   6.716   7.517   1.432 -1.8318 -0.4906  1.0804
  916MOL0     H26360   6.918   7.354   1.525  4.1036 -0.2792  2.4185
  916MOL0     H26361   6.974   7.519   1.472  0.6212  1.4973  0.9986
  916MOL0     H26362   6.906   7.476   1.766  1.7557 -1.3902  0.7049
  916MOL0     H26363   7.052   7.428   1.697  1.6109  1.3159  1.9177
  916MOL0     H26364   7.131   7.642   1.640  0.1456  3.7346  0.5812
  916MOL0     H26365   6.972   7.708   1.632 -0.9612  0.7638  1.8620
  916MOL0     H26366   7.081   7.773   2.052  0.5871  2.3723  0.0405
  916MOL0     H26367   7.030   7.848   2.283  0.8580  0.1048 -1.9683
  916MOL0     H26368   6.879   7.838   2.336  1.4992  1.4123  2.0349
  916MOL0     H26369   6.918   7.992   2.267 -0.2212 -0.8161  2.0830
  916MOL0     H26370   6.616   8.117   2.385  0.0013 -1.1313  0.2598
  916MOL0     H26371   6.419   8.205   2.543  0.4569 -2.5866  5.1945
  916MOL0     H26372   6.265   8.203   2.726  2.0954 -2.5467 -2.8645
  916MOL0     H26373   6.183   8.260   2.577  0.8896  0.4038  1.0435
  916MOL0     H26374   5.992   8.101   2.681  0.3142 -1.7998  0.6625
  916MOL0     H26375   6.071   8.123   2.828 -1.5371 -0.3226  0.0719
  916MOL0     H26376   6.002   8.363   2.664 -1.9783 -0.6514  0.3134
  916MOL0     H26377   6.057   8.357   2.831  1.8376 -0.5406 -0.2173
  916MOL0     H26378   5.810   8.211   2.861 -0.3809  0.0982 -0.1131
  916MOL0     H26379   5.786   8.267   2.714  1.3435  0.9611 -0.5969
  916MOL0     H26380   5.698   8.421   2.889 -0.7040  0.1281 -0.2688
  916MOL0     H26381   5.868   8.431   2.965 -0.2519 -0.7373 -0.8490
  916MOL0     H26382   5.807   8.551   2.699  2.9201 -1.4246 -0.9466
  916MOL0     H26383   5.947   8.556   2.803 -0.6680  1.8643 -1.1084
  916MOL0     H26384   5.839   8.711   2.962  1.9827  0.6808 -1.2972
  916MOL0     H26385   5.669   8.655   2.918  0.1060  1.4469 -0.1723
  916MOL0     H26386   5.659   8.860   2.861  0.5822 -0.0799  2.0196
  916MOL0     H26387   5.690   8.771   2.716 -0.7022 -0.3578  0.7044
  916MOL0     H26388   6.214   7.849   2.465  1.8478 -1.7266 -0.4265
  916MOL0     H26389   6.385   7.767   2.323  1.2687 -0.5152  1.3457
  916MOL0     H26390   6.614   7.834   1.898  0.0010 -0.8374  2.0132
  916MOL0     H26391   6.772   7.721   1.751  0.3404 -0.3727 -0.0549
  916MOL0     H26392   6.162   7.251   2.640  2.2484  0.4951 -0.0744
  916MOL0     H26393   6.056   7.202   2.872 -1.4764 -2.3821  1.0833
  916MOL0     H26394   5.938   6.976   3.151  0.7249 -1.0000 -0.7636
  916MOL0     H26395   5.778   6.939   3.351 -0.8407  0.4109 -0.4814
  916MOL0     H26396   5.929   6.710   3.645  1.0983 -1.0957  2.2115
  916MOL0     H26397   5.970   6.849   3.750  0.5036 -0.8407 -0.4547
  916MOL0     H26398   5.718   6.863   3.774  3.0703  2.4812 -1.4037
  916MOL0     H26399   5.817   6.755   3.873  2.4324 -2.1297 -0.6264
  916MOL0     H26400   5.704   6.644   3.611 -0.7560  0.0285 -0.3393
  916MOL0     H26401   5.757   6.554   3.762 -0.4284 -1.4511 -2.4274
  916MOL0     H26402   5.509   6.596   3.724  0.9073 -1.1750  1.9427
  916MOL0     H26403   5.532   6.760   3.762  0.5919  0.9416  2.9831
  916MOL0     H26404   5.573   6.591   4.144 -2.5831  0.5554 -0.1752
  916MOL0     H26405   6.127   6.930   3.602 -0.3073 -2.8209 -0.1462
  916MOL0     H26406   6.316   7.014   3.547 -2.8462 -1.6338 -0.1825
  916MOL0     H26407   6.377   6.972   3.385 -2.3089 -1.0494 -2.6871
  916MOL0     H26408   6.328   7.146   3.426  2.1191 -0.3476 -2.3753
  917MOL0     O26409   5.442   0.083   3.948  0.4658  0.5570  0.4034
  917MOL0     C26410   5.323   0.079   3.984 -0.9881 -0.0272 -0.4959
  917MOL0     O26411   5.208   0.105   3.915 -0.4199  0.0909 -0.5999
  917MOL0     C26412   5.219   0.154   3.788  0.0616 -0.0023 -1.0603
  917MOL0     C26413   5.143   0.090   3.690  0.6277 -0.0989 -0.7571
  917MOL0     C26414   5.174   0.120   3.557  0.6232  0.6222  0.0458
  917MOL0     C26415   5.263   0.221   3.515  0.1734  0.3571  0.0138
  917MOL0     O26416   5.267   0.244   3.382  0.0870  0.5696 -0.0514
  917MOL0     C26417   5.399   0.277   3.334 -0.6846 -0.7484 -0.7469
  917MOL0     C26418   5.402   0.215   3.188 -0.8064 -0.7105 -0.9099
  917MOL0     C26419   5.278   0.253   3.101 -0.3144 -0.6848 -0.6425
  917MOL0     C26420   5.282   0.174   2.975 -0.2186  0.0631  0.2271
  917MOL0     C26421   5.158   0.213   2.891 -0.6450  0.4624  0.2503
  917MOL0     C26422   5.133   0.143   2.752  0.5022  0.4541  0.0700
  917MOL0     C26423   5.251   0.177   2.657  0.0226 -0.1440  1.0289
  917MOL0     C26424   5.221   0.138   2.509 -0.3072  0.1494  0.4549
  917MOL0     N26425   5.206  -0.003   2.491  0.5975  0.2049 -0.5927
  917MOL0     C26426   5.302  -0.099   2.494 -0.3359 -0.2757  0.2804
  917MOL0     C26427   5.231  -0.217   2.507  0.0332  0.1539 -0.3782
  917MOL0     C26428   5.270  -0.357   2.511  0.4174  0.4303 -0.4442
  917MOL0     C26429   5.285  -0.393   2.655 -0.1374 -0.4554 -0.1584
  917MOL0     C26430   5.339  -0.533   2.679 -0.8228 -0.6394 -0.8816
  917MOL0     C26431   5.314  -0.587   2.815 -0.5816  0.1814 -0.4610
  917MOL0     O26432   5.384  -0.505   2.907  0.2874  0.7164  0.6169
  917MOL0     C26433   5.333  -0.502   3.035 -0.6120  0.0948  0.5920
  917MOL0     C26434   5.376  -0.383   3.096  0.6485  0.3521  0.5223
  917MOL0     C26435   5.314  -0.346   3.216 -0.8231 -1.2343 -0.9198
  917MOL0     C26436   5.353  -0.204   3.260  0.6208 -0.2566 -0.9813
  917MOL0     C26437   5.247  -0.438   3.289  0.5304 -0.2422  0.9814
  917MOL0     C26438   5.206  -0.421   3.426 -0.2329  0.8871  0.2642
  917MOL0     O26439   5.156  -0.307   3.460 -0.3711  0.0749  0.3352
  917MOL0     C26440   5.128  -0.310   3.594 -0.2499  0.0766 -0.1873
  917MOL0     C26441   5.014  -0.364   3.644  0.3271  0.2267 -0.7788
  917MOL0     C26442   4.969  -0.348   3.774 -0.5021 -0.2090  1.0474
  917MOL0     C26443   5.045  -0.279   3.863 -0.7812 -0.1066 -0.7670
  917MOL0     O26444   4.993  -0.249   3.989 -0.9487  0.2382  0.2285
  917MOL0     C26445   4.868  -0.302   4.033  0.2989 -0.3129  0.5740
  917MOL0     C26446   4.829  -0.229   4.157 -0.6608 -0.1196  0.1478
  917MOL0     C26447   4.911  -0.277   4.285  0.6011  0.4300 -0.2831
  917MOL0     C26448   4.861  -0.199   4.410 -0.9785  0.2417 -0.0334
  917MOL0     C26449   4.941  -0.247   4.531 -0.5551 -0.4930 -0.7490
  917MOL0     C26450   4.860  -0.238   4.655  1.3704  0.4050 -1.4876
  917MOL0     C26451   4.816  -0.088   4.680  0.2960 -0.9761  0.1710
  917MOL0     C26452   4.806  -0.058   4.832 -0.2723 -0.3528 -0.1372
  917MOL0    Cl26453   4.776   0.113   4.868 -0.0086 -0.0558 -0.1378
  917MOL0     C26454   5.170  -0.227   3.820  0.8098 -0.8582  0.3741
  917MOL0     C26455   5.205  -0.245   3.684  0.6235 -0.9968 -1.2003
  917MOL0     O26456   5.244  -0.516   3.501  0.2665  0.0187  0.4550
  917MOL0     C26457   5.210  -0.551   3.227 -0.5650  0.6615 -0.2099
  917MOL0     C26458   5.242  -0.590   3.093 -1.6352  0.2329 -0.3082
  917MOL0     N26459   5.098  -0.184   2.502 -0.1204  0.4381  0.5847
  917MOL0     N26460   5.080  -0.062   2.479 -0.0637 -0.5073 -0.4026
  917MOL0     C26461   5.319   0.303   3.617 -0.3021 -0.1724 -0.4408
  917MOL0     C26462   5.299   0.268   3.751 -0.4176  0.4348 -0.0720
  917MOL0     C26463   5.300   0.055   4.132 -0.1874  0.3130  1.4668
  917MOL0     C26464   5.169   0.053   4.174  1.1490 -0.4303 -0.6812
  917MOL0     C26465   5.142   0.041   4.311  0.0704  0.3999  1.2007
  917MOL0     C26466   5.236   0.026   4.410 -0.3552 -0.8889 -0.4563
  917MOL0     O26467   5.174   0.027   4.533  0.0976  1.1360 -0.4106
  917MOL0     C26468   5.231   0.093   4.649 -0.1570  0.6572  1.1161
  917MOL0     C26469   5.130   0.127   4.742 -0.6615 -0.1932 -0.9999
  917MOL0     C26470   5.173   0.225   4.833  0.0215 -0.3868  0.0663
  917MOL0     C26471   5.092   0.220   4.967  0.6362 -0.1345 -0.1772
  917MOL0     C26472   5.164   0.310   5.054 -0.2866  0.4708  0.2402
  917MOL0     C26473   5.246   0.376   5.117 -0.7062 -1.1756  1.1535
  917MOL0     C26474   5.366   0.035   4.375  0.5507  0.3881  0.1145
  917MOL0     C26475   5.402   0.034   4.233  0.3698 -0.5790 -0.8485
  917MOL0     C26476   5.544   0.029   4.208 -0.0382  0.1448  0.2227
  917MOL0     H26477   5.079   0.006   3.713 -2.9085  2.1339 -1.7333
  917MOL0     H26478   5.116   0.054   3.493  0.0907 -0.1184  1.2607
  917MOL0     H26479   5.471   0.236   3.405 -0.0071 -1.7818 -1.9910
  917MOL0     H26480   5.393   0.386   3.334 -0.6886 -0.6590  2.0587
  917MOL0     H26481   5.493   0.262   3.148  1.5921 -1.5753  2.9226
  917MOL0     H26482   5.414   0.106   3.189 -1.0594 -0.7428  0.0781
  917MOL0     H26483   5.192   0.211   3.154  1.1294 -0.4193  2.1501
  917MOL0     H26484   5.269   0.360   3.086  0.0788 -0.6975 -0.9865
  917MOL0     H26485   5.367   0.202   2.911  0.0520  2.6023  1.5732
  917MOL0     H26486   5.275   0.067   2.999 -1.3046 -0.4769 -2.1866
  917MOL0     H26487   5.158   0.322   2.880 -1.0195  0.4321 -0.0749
  917MOL0     H26488   5.071   0.189   2.953  1.1281 -0.2505  2.5991
  917MOL0     H26489   5.129   0.037   2.777 -1.9130  0.8567  1.8228
  917MOL0     H26490   5.036   0.184   2.721  1.3021  3.2749  0.9579
  917MOL0     H26491   5.342   0.124   2.687 -0.2567 -1.1984  0.0662
  917MOL0     H26492   5.267   0.286   2.657 -2.6374  0.3681 -1.1957
  917MOL0     H26493   5.133   0.197   2.482  0.0941  0.4929 -0.1239
  917MOL0     H26494   5.308   0.169   2.451 -0.0660 -1.1231  0.0972
  917MOL0     H26495   5.409  -0.081   2.498 -0.0061 -2.0029  0.1228
  917MOL0     H26496   5.357  -0.372   2.446  0.5105  0.8622 -0.4214
  917MOL0     H26497   5.186  -0.414   2.470  0.9827  1.0428 -2.5830
  917MOL0     H26498   5.349  -0.312   2.691 -2.1852  1.3642 -0.3764
  917MOL0     H26499   5.183  -0.389   2.694 -1.2985  2.8893 -2.9598
  917MOL0     H26500   5.281  -0.598   2.611 -0.5018 -2.2645  0.3354
  917MOL0     H26501   5.444  -0.538   2.652 -0.5022  1.5327 -0.2161
  917MOL0     H26502   5.206  -0.597   2.826 -0.7935  3.7628  3.2393
  917MOL0     H26503   5.366  -0.682   2.830  0.7890  1.2038  1.8058
  917MOL0     H26504   5.442  -0.329   3.030 -0.8258  2.1489  0.4190
  917MOL0     H26505   5.439  -0.175   3.200  0.6580  1.5254 -0.1475
  917MOL0     H26506   5.389  -0.200   3.364  0.6529  3.6270 -0.9860
  917MOL0     H26507   5.269  -0.133   3.256  2.0171  1.7348  1.6929
  917MOL0     H26508   4.951  -0.423   3.579 -0.3303 -2.0666  1.7241
  917MOL0     H26509   4.881  -0.407   3.801  0.1688 -2.8332 -1.9081
  917MOL0     H26510   4.796  -0.291   3.952  1.2291  0.8989 -0.1211
  917MOL0     H26511   4.879  -0.409   4.053 -1.7400 -0.8262 -0.7427
  917MOL0     H26512   4.842  -0.124   4.133  0.8858 -0.2438  0.3546
  917MOL0     H26513   4.724  -0.254   4.176 -0.8687  2.1660  2.5476
  917MOL0     H26514   5.018  -0.258   4.275  0.3303  2.9213  0.8196
  917MOL0     H26515   4.902  -0.385   4.298  4.2100  0.0766  0.1089
  917MOL0     H26516   4.759  -0.230   4.436 -0.7099  0.2193  1.0287
  917MOL0     H26517   4.857  -0.090   4.398  0.2384  0.4283  0.9900
  917MOL0     H26518   4.980  -0.349   4.517  3.2798 -0.0568  4.0805
  917MOL0     H26519   5.027  -0.180   4.537 -1.4194  0.5098  1.0993
  917MOL0     H26520   4.912  -0.280   4.742 -1.6637 -0.7495 -0.0930
  917MOL0     H26521   4.766  -0.294   4.646 -0.0650  2.7601 -2.1049
  917MOL0     H26522   4.722  -0.056   4.635  1.3274  1.2525 -0.5320
  917MOL0     H26523   4.881  -0.012   4.635 -1.6215  0.7964  0.2438
  917MOL0     H26524   4.898  -0.068   4.890 -1.7096  2.6350  3.0225
  917MOL0     H26525   4.734  -0.127   4.878  0.7139 -0.8881  0.6435
  917MOL0     H26526   5.233  -0.171   3.889  0.5358 -1.1692  0.8873
  917MOL0     H26527   5.296  -0.193   3.654  1.2287 -0.4268  1.3390
  917MOL0     H26528   5.142  -0.613   3.285  0.3126 -0.9402 -0.7981
  917MOL0     H26529   5.203  -0.682   3.052 -0.5906  0.0325 -0.9102
  917MOL0     H26530   5.380   0.391   3.598 -0.3504 -0.3600 -1.5268
  917MOL0     H26531   5.342   0.318   3.838 -0.3833 -2.1197  1.4766
  917MOL0     H26532   5.087   0.050   4.103  0.3322  1.2129  0.1320
  917MOL0     H26533   5.039   0.035   4.347  0.4112  0.5744  2.2342
  917MOL0     H26534   5.305   0.024   4.692 -3.6045 -3.2592  1.3459
  917MOL0     H26535   5.270   0.188   4.613 -0.7836 -0.0727 -1.7583
  917MOL0     H26536   5.116   0.033   4.797  1.2083 -0.3695 -0.7577
  917MOL0     H26537   5.034   0.144   4.692 -0.4942 -0.7723 -1.5459
  917MOL0     H26538   5.278   0.212   4.862  0.1409  2.6012  1.3418
  917MOL0     H26539   5.148   0.323   4.791 -0.2844  0.0055  1.1413
  917MOL0     H26540   5.085   0.121   5.013  4.2318 -0.5204 -0.1776
  917MOL0     H26541   4.991   0.261   4.955 -0.2835 -1.6140  1.8823
  917MOL0     H26542   5.309   0.438   5.177  0.5545 -3.5886  2.5060
  917MOL0     H26543   5.442   0.042   4.453 -0.5739 -1.0773  1.3745
  917MOL0     H26544   5.567  -0.030   4.119  0.0656 -0.8174  0.8777
  917MOL0     H26545   5.586   0.130   4.195  2.4449 -0.9103 -0.5868
  917MOL0     H26546   5.597  -0.025   4.287  0.1280 -1.1446 -0.7546
  918MOL0     O26547  10.202   9.407  10.135 -0.9295  0.4043  0.4593
  918MOL0     C26548  10.103   9.447  10.192 -0.3548  0.0068 -0.0272
  918MOL0     O26549  10.103   9.476  10.323  0.2340  0.5895  0.0097
  918MOL0     C26550  10.225   9.454  10.389  0.7021  0.3982  0.4772
  918MOL0     C26551  10.271   9.567  10.461  0.6121 -0.0553 -0.7279
  918MOL0     C26552  10.358   9.560  10.564  0.4418  0.0165 -0.6543
  918MOL0     C26553  10.415   9.440  10.594 -0.0828 -0.6327  0.7992
  918MOL0     O26554  10.503   9.437  10.700  0.4948 -0.7178 -0.4523
  918MOL0     C26555  10.428   9.459  10.827  1.2284  1.2984  0.3459
  918MOL0     C26556  10.432   9.345  10.935  0.3620 -0.1328  0.2003
  918MOL0     C26557  10.389   9.216  10.892 -0.0417  0.6014 -0.3420
  918MOL0     C26558  10.515   9.129  10.831 -0.5610 -0.6199  0.3239
  918MOL0     C26559  10.473   9.001  10.761 -0.9992 -0.1338  0.0908
  918MOL0     C26560  10.600   8.951  10.683 -0.0511  0.1235  0.6746
  918MOL0     C26561  10.557   8.809  10.618 -0.1348 -0.0568 -0.2702
  918MOL0     C26562  10.672   8.750  10.548  0.7678 -1.0112  0.7940
  918MOL0     N26563  10.702   8.830  10.427  0.3075 -0.0023  0.4505
  918MOL0     C26564  10.606   8.862  10.333  0.1743 -0.0304 -0.5511
  918MOL0     C26565  10.668   8.946  10.247  0.1772 -0.1117 -0.2866
  918MOL0     C26566  10.617   9.001  10.115 -0.0161  0.2920 -1.2179
  918MOL0     C26567  10.541   9.134  10.142 -0.1256  0.4192 -0.1345
  918MOL0     C26568  10.533   9.229  10.021  0.1478 -0.5477 -0.4268
  918MOL0     C26569  10.679   9.263   9.972  0.3969  0.5403 -0.3446
  918MOL0     O26570  10.753   9.287  10.081  0.3382  0.5833  0.2290
  918MOL0     C26571  10.761   9.404  10.144 -0.4968  0.1430 -0.6683
  918MOL0     C26572  10.758   9.395  10.283 -0.3824  1.2274 -0.3145
  918MOL0     C26573  10.771   9.508  10.369  0.1323 -0.0473 -0.3359
  918MOL0     C26574  10.763   9.472  10.520  0.8076  0.0669 -0.2023
  918MOL0     C26575  10.806   9.628  10.314 -0.9257 -0.0639  0.1927
  918MOL0     C26576  10.849   9.756  10.381  0.6617 -0.0487 -0.3239
  918MOL0     O26577  10.896   9.857  10.301 -0.6192 -0.4857 -0.1744
  918MOL0     C26578  10.882   9.985  10.351 -0.0541  1.0352 -0.4208
  918MOL0     C26579  10.970  10.029  10.445 -0.4352 -0.2702  1.0358
  918MOL0     C26580  10.949  10.152  10.505 -0.0976  0.3941 -0.5473
  918MOL0     C26581  10.832  10.228  10.473 -1.2712  0.5844 -0.3430
  918MOL0     O26582  10.790  10.340  10.532 -0.9413 -0.3296  0.0718
  918MOL0     C26583  10.866  10.396  10.641 -0.1017  0.0137  0.6269
  918MOL0     C26584  10.829  10.320  10.769 -1.0033 -0.9584 -0.1810
  918MOL0     C26585  10.701  10.380  10.832  0.6584  0.2378  0.1738
  918MOL0     C26586  10.683  10.348  10.976 -0.0754 -0.1763 -0.5341
  918MOL0     C26587  10.534  10.391  11.019  0.4227 -0.2109 -0.1303
  918MOL0     C26588  10.485  10.318  11.143  0.7049  0.0814 -0.6180
  918MOL0     C26589  10.459  10.167  11.119  0.1485  0.0675 -0.1221
  918MOL0     C26590  10.409  10.097  11.248  0.0085 -0.5150  0.7887
  918MOL0    Cl26591  10.545  10.111  11.362  0.5387 -0.0441 -0.4103
  918MOL0     C26592  10.748  10.174  10.375  0.3433  0.0877 -0.8571
  918MOL0     C26593  10.773  10.056  10.317  0.1268  0.1089 -0.4458
  918MOL0     O26594  10.811   9.772  10.494 -0.0318  0.4663  0.1213
  918MOL0     C26595  10.813   9.635  10.170  0.5433  0.8909 -0.9517
  918MOL0     C26596  10.792   9.526  10.088 -0.1097  0.6644 -0.1529
  918MOL0     N26597  10.794   8.975  10.296 -0.2511 -0.6719  0.9709
  918MOL0     N26598  10.814   8.895  10.390  0.5447  0.5251  0.4369
  918MOL0     C26599  10.383   9.331  10.519  0.3748  0.9274 -0.6268
  918MOL0     C26600  10.289   9.338  10.416 -0.0210 -0.7587  0.0942
  918MOL0     C26601   9.973   9.474  10.134 -0.5952  0.4376  0.5396
  918MOL0     C26602   9.861   9.506  10.204  0.7164 -0.9663 -0.3314
  918MOL0     C26603   9.746   9.560  10.151  0.0207 -0.5381  0.4403
  918MOL0     C26604   9.730   9.568  10.012 -0.2074  0.5843  0.0158
  918MOL0     O26605   9.610   9.594   9.962 -0.1540 -0.2799  0.5671
  918MOL0     C26606   9.594   9.626   9.819 -0.0487 -0.4796 -0.9595
  918MOL0     C26607   9.670   9.752   9.776  1.0454  0.5964 -0.4983
  918MOL0     C26608   9.675   9.777   9.630 -0.2396  0.1983  0.2671
  918MOL0     C26609   9.542   9.784   9.571 -0.2143  0.8100 -0.0547
  918MOL0     C26610   9.504   9.657   9.515 -0.6238  0.5829 -0.2736
  918MOL0     C26611   9.465   9.548   9.475 -0.6833 -0.2113 -0.9330
  918MOL0     C26612   9.839   9.519   9.931  0.6031 -0.8372 -0.1506
  918MOL0     C26613   9.956   9.467   9.989  0.3632 -0.9888  0.5331
  918MOL0     C26614  10.058   9.411   9.891 -1.1052 -0.4226 -0.5233
  918MOL0     H26615  10.231   9.666  10.440 -1.1812 -0.9925 -2.0249
  918MOL0     H26616  10.374   9.650  10.622  0.0051 -0.0751 -0.3871
  918MOL0     H26617  10.323   9.467  10.798  1.3191  0.6593 -0.1666
  918MOL0     H26618  10.440   9.558  10.873  1.7592  1.5697 -0.3525
  918MOL0     H26619  10.536   9.350  10.969  1.4150  1.7385 -2.9525
  918MOL0     H26620  10.367   9.370  11.020 -2.9143 -0.6412 -1.9820
  918MOL0     H26621  10.347   9.155  10.973  0.3286  0.5580 -0.1802
  918MOL0     H26622  10.313   9.226  10.815  1.9614  1.2771 -2.3448
  918MOL0     H26623  10.583   9.181  10.763  1.1507 -2.2994  0.6810
  918MOL0     H26624  10.581   9.098  10.913  0.1652 -1.3256 -0.5065
  918MOL0     H26625  10.386   9.020  10.697 -1.3194 -1.5342  0.0808
  918MOL0     H26626  10.446   8.919  10.828  1.1439 -1.3930 -0.5078
  918MOL0     H26627  10.631   9.024  10.607 -2.4251  0.1567 -0.3412
  918MOL0     H26628  10.682   8.945  10.755  1.0061  1.9046 -0.3061
  918MOL0     H26629  10.471   8.821  10.551 -0.4706 -0.0517  0.1529
  918MOL0     H26630  10.527   8.745  10.702  0.3346 -0.2447 -0.2434
  918MOL0     H26631  10.755   8.748  10.618  0.7911  2.4098  1.0017
  918MOL0     H26632  10.636   8.653  10.510 -1.1619  0.4215 -1.3505
  918MOL0     H26633  10.511   8.813  10.315  0.9771 -3.2988  2.7617
  918MOL0     H26634  10.564   8.924  10.058 -0.2290  1.9068 -3.3440
  918MOL0     H26635  10.711   9.027  10.064  0.6148  0.3160 -0.0822
  918MOL0     H26636  10.439   9.112  10.175 -0.5208  2.0125 -0.2106
  918MOL0     H26637  10.579   9.182  10.233 -0.1907  1.0204 -0.4218
  918MOL0     H26638  10.466   9.194   9.941 -2.5704  1.7110  0.7031
  918MOL0     H26639  10.487   9.321  10.058 -0.0046 -0.9287  0.3667
  918MOL0     H26640  10.726   9.179   9.920  2.2359 -0.1483  2.2471
  918MOL0     H26641  10.676   9.351   9.907  1.4160  1.1897  0.4653
  918MOL0     H26642  10.750   9.294  10.323  0.9155  0.4467 -1.9024
  918MOL0     H26643  10.716   9.559  10.569  0.6312 -1.6888  3.0359
  918MOL0     H26644  10.861   9.460  10.568  1.0509 -0.0302 -0.7215
  918MOL0     H26645  10.697   9.392  10.553  3.2932 -1.8530  0.3732
  918MOL0     H26646  11.063   9.980  10.472 -1.2695 -2.6316 -0.0611
  918MOL0     H26647  11.016  10.181  10.586 -2.5724 -0.2082  1.8981
  918MOL0     H26648  10.971  10.380  10.614 -0.3656  0.8292 -1.0394
  918MOL0     H26649  10.849  10.504  10.652 -4.4059 -0.4744  0.3836
  918MOL0     H26650  10.831  10.213  10.746 -0.9816 -0.5181 -2.4503
  918MOL0     H26651  10.920  10.340  10.827 -0.0052  0.0899 -2.0010
  918MOL0     H26652  10.607  10.354  10.782  0.3144 -0.0057  0.9257
  918MOL0     H26653  10.697  10.490  10.828 -1.9033  0.2359  1.1216
  918MOL0     H26654  10.749  10.396  11.048 -1.2192 -0.3164  0.6374
  918MOL0     H26655  10.702  10.240  10.983 -2.0090 -0.5018  0.2908
  918MOL0     H26656  10.527  10.500  11.028 -1.4334 -0.2984 -0.2381
  918MOL0     H26657  10.452  10.376  10.949  0.6607  1.8493 -0.9208
  918MOL0     H26658  10.395  10.367  11.180  0.7194  0.8358 -1.5674
  918MOL0     H26659  10.567  10.329  11.215 -0.9910  0.1980  1.3924
  918MOL0     H26660  10.557  10.131  11.087  0.0326  0.8636 -1.4306
  918MOL0     H26661  10.384  10.167  11.040 -2.4133  3.9713  1.9609
  918MOL0     H26662  10.397   9.994  11.215  2.4073 -0.9745  1.1433
  918MOL0     H26663  10.314  10.139  11.283  1.4551  2.5796  1.2868
  918MOL0     H26664  10.656  10.228  10.355  0.0078 -0.8095 -1.8075
  918MOL0     H26665  10.687  10.023  10.260 -0.8590 -2.9280  2.4365
  918MOL0     H26666  10.855   9.721  10.119  1.0637  0.7235 -0.8145
  918MOL0     H26667  10.799   9.526   9.980 -1.6494 -2.8368 -0.3895
  918MOL0     H26668  10.434   9.238  10.540 -0.1254  0.8573  0.3403
  918MOL0     H26669  10.249   9.242  10.384  0.0922 -0.7326 -0.1257
  918MOL0     H26670   9.872   9.499  10.312 -0.6545 -1.8579 -0.2208
  918MOL0     H26671   9.671   9.587  10.224 -0.1566 -2.3753  0.9799
  918MOL0     H26672   9.612   9.544   9.748  1.7907 -1.8251  0.9231
  918MOL0     H26673   9.487   9.645   9.814 -0.2074 -1.3656 -0.9750
  918MOL0     H26674   9.769   9.755   9.822  0.0727  1.4002  1.7147
  918MOL0     H26675   9.617   9.833   9.828 -2.9571 -2.3961  0.5694
  918MOL0     H26676   9.720   9.875   9.612 -0.1284 -0.3979 -3.6127
  918MOL0     H26677   9.744   9.706   9.584  1.0315  3.1525 -2.8533
  918MOL0     H26678   9.542   9.856   9.488 -1.0588 -0.0295 -0.8058
  918MOL0     H26679   9.469   9.818   9.644  0.0642 -1.0721  1.1928
  918MOL0     H26680   9.440   9.449   9.445 -2.4204  0.2987 -1.2778
  918MOL0     H26681   9.831   9.514   9.822 -0.5885 -0.5358 -0.0912
  918MOL0     H26682  10.129   9.491   9.869 -2.6704  1.2896  0.4322
  918MOL0     H26683  10.105   9.323   9.938  1.0679  0.8502 -0.1743
  918MOL0     H26684  10.018   9.382   9.794 -0.2822 -3.0419 -0.1659
  919MOL0     O26685   8.843   5.595   4.478  0.4634  0.3616 -0.2622
  919MOL0     C26686   8.758   5.510   4.465  0.4215  0.9604  0.1901
  919MOL0     O26687   8.742   5.441   4.347  0.4467  0.0170 -0.4475
  919MOL0     C26688   8.832   5.464   4.242  0.8494  0.9431  0.7424
  919MOL0     C26689   8.959   5.409   4.239  0.1644  0.1507  0.4231
  919MOL0     C26690   9.049   5.433   4.132  0.1936  0.3027 -0.7485
  919MOL0     C26691   9.002   5.490   4.014 -0.1303 -0.3427  0.0426
  919MOL0     O26692   9.087   5.492   3.905 -0.1185 -0.6719  1.0171
  919MOL0     C26693   9.085   5.606   3.814  0.2279  0.2153  0.2807
  919MOL0     C26694   9.195   5.590   3.712 -0.1830  0.0722 -0.3965
  919MOL0     C26695   9.183   5.486   3.606  1.2644 -0.2462 -0.2610
  919MOL0     C26696   9.294   5.497   3.503  0.3204  0.0976  0.3859
  919MOL0     C26697   9.301   5.377   3.406 -0.1432  0.5739 -0.8642
  919MOL0     C26698   9.428   5.348   3.329  0.3515  0.0857  0.7424
  919MOL0     C26699   9.475   5.451   3.218  0.1733  0.4522 -0.0254
  919MOL0     C26700   9.570   5.389   3.113  0.1031  0.0971 -0.5934
  919MOL0     N26701   9.622   5.484   3.008 -0.3097  0.3348 -0.3371
  919MOL0     C26702   9.755   5.498   2.978 -0.2933  0.1434 -0.5734
  919MOL0     C26703   9.750   5.570   2.862 -0.3275  0.1911 -0.8545
  919MOL0     C26704   9.873   5.600   2.785  0.5941 -0.4662 -0.0615
  919MOL0     C26705   9.928   5.470   2.718  0.0585  0.8719  0.0834
  919MOL0     C26706   9.999   5.510   2.592  0.7658 -0.0583  0.1355
  919MOL0     C26707  10.090   5.413   2.529  0.8173  1.3375 -0.3738
  919MOL0     O26708  10.210   5.373   2.613  0.5702 -0.2250  0.6685
  919MOL0     C26709  10.280   5.488   2.646  0.4804  1.2816 -0.3748
  919MOL0     C26710  10.365   5.545   2.546  0.4390 -0.5826 -0.2455
  919MOL0     C26711  10.448   5.655   2.571 -0.6561 -0.7702  0.7202
  919MOL0     C26712  10.537   5.701   2.463  0.5664 -1.2043  0.4018
  919MOL0     C26713  10.441   5.725   2.700 -0.0373  0.2940 -0.4129
  919MOL0     C26714  10.524   5.843   2.736  0.1848  0.2905  0.3042
  919MOL0     O26715  10.467   5.962   2.803  0.2057  0.5626 -0.2463
  919MOL0     C26716  10.554   6.053   2.850 -0.1768  0.0863  0.0443
  919MOL0     C26717  10.508   6.186   2.849 -0.1289 -0.4876  0.6435
  919MOL0     C26718  10.590   6.286   2.894  0.4481 -0.1180  0.0067
  919MOL0     C26719  10.731   6.268   2.929  0.2450 -0.9326  0.2061
  919MOL0     O26720  10.813   6.379   2.956  0.3857  0.1569 -0.7896
  919MOL0     C26721  10.844   6.457   2.839  0.5811 -1.1548 -0.1932
  919MOL0     C26722  10.950   6.387   2.767  0.3185 -0.0620 -0.2984
  919MOL0     C26723  11.097   6.403   2.812  0.0034  0.4225  0.8391
  919MOL0     C26724  11.110   6.365   2.962  0.3221  0.4351  0.0846
  919MOL0     C26725  11.234   6.425   3.030  0.3233 -0.5733 -0.7485
  919MOL0     C26726  11.196   6.527   3.145  0.2434  0.5801  0.1582
  919MOL0     C26727  11.322   6.576   3.225 -0.6928 -1.0096 -0.7291
  919MOL0     C26728  11.283   6.703   3.300 -0.4389 -0.3637 -1.3323
  919MOL0    Cl26729  11.250   6.829   3.184 -0.1176 -0.4216  0.3524
  919MOL0     C26730  10.771   6.133   2.929  0.2218  0.6128 -1.3284
  919MOL0     C26731  10.689   6.032   2.891  0.3233  0.0189  0.6504
  919MOL0     O26732  10.646   5.824   2.701  0.3668 -0.0259 -0.7484
  919MOL0     C26733  10.368   5.664   2.801  1.0362 -0.8024 -0.0481
  919MOL0     C26734  10.291   5.550   2.773  1.0208 -0.3624  0.2758
  919MOL0     N26735   9.617   5.599   2.829  0.3734 -0.5569  0.0889
  919MOL0     N26736   9.544   5.547   2.918 -0.0645  0.5104 -0.1974
  919MOL0     C26737   8.875   5.553   4.012 -0.0696 -0.4036 -0.6049
  919MOL0     C26738   8.788   5.541   4.125  0.5127 -0.6690  0.3951
  919MOL0     C26739   8.658   5.490   4.581  0.2604  0.4967  0.5019
  919MOL0     C26740   8.540   5.406   4.561  0.3720 -0.3300  0.0243
  919MOL0     C26741   8.437   5.393   4.661  0.1361 -0.7119 -0.1581
  919MOL0     C26742   8.444   5.464   4.778  0.5797 -0.4617  0.5204
  919MOL0     O26743   8.359   5.455   4.880  0.4277 -0.1321  0.8234
  919MOL0     C26744   8.248   5.356   4.877  0.3756 -0.3419  0.4372
  919MOL0     C26745   8.224   5.309   5.020  0.4806 -0.6081 -0.1621
  919MOL0     C26746   8.178   5.420   5.114 -0.2834  0.3483 -0.1109
  919MOL0     C26747   8.034   5.460   5.108  0.0382  0.1812 -0.0278
  919MOL0     C26748   7.943   5.359   5.150 -0.3734 -0.2027  0.2585
  919MOL0     C26749   7.870   5.275   5.189 -0.6344  0.9037 -0.7494
  919MOL0     C26750   8.548   5.556   4.785 -0.7559 -0.5084  0.4359
  919MOL0     C26751   8.651   5.574   4.697 -1.2474  0.5498  0.2962
  919MOL0     C26752   8.748   5.682   4.729  0.1520 -0.2260 -0.3330
  919MOL0     H26753   8.999   5.373   4.333  0.2367  0.6363  0.5807
  919MOL0     H26754   9.152   5.399   4.137  0.5664  1.1942 -2.0741
  919MOL0     H26755   9.109   5.698   3.867  1.7476 -0.2462  0.4379
  919MOL0     H26756   8.995   5.604   3.751  0.4773 -2.9023 -0.1181
  919MOL0     H26757   9.214   5.681   3.654  3.0762 -0.4458 -0.3404
  919MOL0     H26758   9.278   5.582   3.782 -1.5022  0.1533  1.2343
  919MOL0     H26759   9.193   5.389   3.656  0.9920 -0.9719 -1.5595
  919MOL0     H26760   9.084   5.490   3.559 -0.0363 -0.9751  2.2191
  919MOL0     H26761   9.277   5.583   3.437 -0.6907 -0.7540 -0.5012
  919MOL0     H26762   9.385   5.518   3.561  1.2218 -1.0267 -0.5767
  919MOL0     H26763   9.215   5.379   3.338 -1.0941  0.7232  0.3240
  919MOL0     H26764   9.273   5.293   3.470 -0.4007 -0.6170 -2.4680
  919MOL0     H26765   9.515   5.332   3.394  0.5829 -0.8925  0.2252
  919MOL0     H26766   9.408   5.249   3.286 -3.3765 -1.4711  5.2888
  919MOL0     H26767   9.524   5.535   3.269  1.6606 -0.5530  0.2632
  919MOL0     H26768   9.395   5.485   3.152 -3.3251 -1.0720  3.0439
  919MOL0     H26769   9.648   5.343   3.175 -0.0720 -0.5234 -0.8257
  919MOL0     H26770   9.517   5.314   3.054  0.0516 -1.1500  0.9475
  919MOL0     H26771   9.834   5.454   3.038 -2.2123 -1.4153  0.9698
  919MOL0     H26772   9.940   5.651   2.854  1.9752 -1.0594 -0.9397
  919MOL0     H26773   9.840   5.657   2.697  1.0583 -3.3363 -2.2566
  919MOL0     H26774   9.989   5.408   2.785 -2.0526 -2.1218 -0.5462
  919MOL0     H26775   9.848   5.397   2.701 -0.2898  1.1174  0.6138
  919MOL0     H26776   9.925   5.528   2.514 -1.4539  2.0465  2.5618
  919MOL0     H26777  10.045   5.607   2.610 -4.1889  2.8875 -1.1814
  919MOL0     H26778  10.031   5.324   2.504 -0.0079  1.5890  0.6249
  919MOL0     H26779  10.121   5.452   2.432  1.1195  0.4319 -0.6506
  919MOL0     H26780  10.368   5.484   2.456 -0.2869  0.7648 -1.2188
  919MOL0     H26781  10.525   5.809   2.459 -0.3399 -1.2517  1.4197
  919MOL0     H26782  10.516   5.663   2.363  3.2927  1.1389 -1.1977
  919MOL0     H26783  10.642   5.680   2.488  0.2943  0.6269  3.5527
  919MOL0     H26784  10.411   6.207   2.804  1.6058  0.0171 -3.3152
  919MOL0     H26785  10.557   6.389   2.901  1.1364  0.1033  0.1290
  919MOL0     H26786  10.761   6.465   2.768 -1.3030  0.2036  2.0204
  919MOL0     H26787  10.878   6.557   2.870  0.7140 -1.7873  1.8642
  919MOL0     H26788  10.923   6.282   2.756  0.6582 -0.1206 -0.6193
  919MOL0     H26789  10.950   6.418   2.662 -1.3352  0.8285 -0.0661
  919MOL0     H26790  11.134   6.505   2.798 -0.6243  0.4854 -0.5891
  919MOL0     H26791  11.163   6.339   2.753 -2.6646  0.0831 -2.0179
  919MOL0     H26792  11.135   6.259   2.971  0.5083  0.3868 -0.8655
  919MOL0     H26793  11.023   6.378   3.027  0.3330  2.1722 -0.1936
  919MOL0     H26794  11.297   6.343   3.068 -1.0955 -0.6647  1.6162
  919MOL0     H26795  11.288   6.488   2.959  0.3642  2.7499  1.9802
  919MOL0     H26796  11.136   6.470   3.216  1.9286  2.7411  3.5655
  919MOL0     H26797  11.136   6.608   3.104  2.0284  1.5009 -0.7643
  919MOL0     H26798  11.417   6.587   3.171  0.7324 -1.1884  1.6061
  919MOL0     H26799  11.335   6.493   3.295 -2.8706 -0.2741  0.6427
  919MOL0     H26800  11.370   6.741   3.354 -1.4831  1.6546 -0.9791
  919MOL0     H26801  11.196   6.689   3.366  0.0225  1.8347 -0.1598
  919MOL0     H26802  10.871   6.107   2.964  0.1125 -0.3552 -1.7044
  919MOL0     H26803  10.717   5.928   2.907 -0.6030 -0.1599  1.2383
  919MOL0     H26804  10.365   5.713   2.899  0.4759 -1.8951  0.4978
  919MOL0     H26805  10.236   5.503   2.854  1.8608 -1.3438  0.2949
  919MOL0     H26806   8.846   5.618   3.930  1.5208  3.2620  1.4723
  919MOL0     H26807   8.688   5.583   4.128  0.2297 -1.1055 -1.6446
  919MOL0     H26808   8.530   5.358   4.465  1.3591  0.6306 -0.5798
  919MOL0     H26809   8.351   5.331   4.639 -1.2995  0.1352  2.5770
  919MOL0     H26810   8.159   5.397   4.828  1.4732 -0.2147 -1.5746
  919MOL0     H26811   8.272   5.265   4.820 -1.3518 -0.5677  0.0064
  919MOL0     H26812   8.305   5.249   5.063  0.2993  0.1924  1.3756
  919MOL0     H26813   8.138   5.241   5.022 -0.3293  0.3562 -1.4012
  919MOL0     H26814   8.194   5.386   5.217  1.0742  1.0776 -0.0625
  919MOL0     H26815   8.248   5.503   5.102  0.2243  0.3512  2.2703
  919MOL0     H26816   8.003   5.494   5.009  3.5847  0.6124 -1.1386
  919MOL0     H26817   8.027   5.546   5.174 -1.4546 -0.2696  0.4217
  919MOL0     H26818   7.801   5.199   5.220 -1.5499  1.8351 -0.4434
  919MOL0     H26819   8.555   5.627   4.866 -1.2619  0.0652 -0.0100
  919MOL0     H26820   8.704   5.754   4.798 -2.0780  1.5604 -3.3794
  919MOL0     H26821   8.851   5.656   4.758 -0.0495  0.3994  1.0469
  919MOL0     H26822   8.747   5.745   4.640  0.9686  0.4638  0.1365
  920MOL0     O26823   3.655   4.517   0.267 -0.5524  0.4155  0.6286
  920MOL0     C26824   3.709   4.435   0.193  0.6150  0.2114  0.7440
  920MOL0     O26825   3.733   4.460   0.059  0.1453  0.4568 -0.3130
  920MOL0     C26826   3.675   4.570   0.003  0.7633  0.1988  0.1447
  920MOL0     C26827   3.747   4.684  -0.005  0.2575  0.1340 -0.2113
  920MOL0     C26828   3.702   4.792  -0.068  0.6440 -0.2735 -1.0483
  920MOL0     C26829   3.580   4.795  -0.126  0.5038 -0.3615  0.3708
  920MOL0     O26830   3.532   4.898  -0.200 -0.4092 -0.6530  0.2348
  920MOL0     C26831   3.561   5.033  -0.159  0.2860 -0.4770  0.0480
  920MOL0     C26832   3.468   5.127  -0.244  0.2628 -0.1674 -0.3209
  920MOL0     C26833   3.453   5.269  -0.173  0.6261 -0.0262 -0.3604
  920MOL0     C26834   3.325   5.336  -0.222  0.3712  0.0322 -0.4718
  920MOL0     C26835   3.296   5.358  -0.367 -0.0439 -0.2288  0.1967
  920MOL0     C26836   3.149   5.400  -0.390 -0.0623  0.4847 -0.0425
  920MOL0     C26837   3.127   5.423  -0.540 -1.0176 -0.6119 -1.1572
  920MOL0     C26838   2.976   5.418  -0.562 -0.5641 -0.6362 -0.5952
  920MOL0     N26839   2.905   5.525  -0.503  0.3969  0.1544 -0.5025
  920MOL0     C26840   2.858   5.545  -0.377 -0.2630 -0.3823  0.3474
  920MOL0     C26841   2.772   5.649  -0.375  0.4305 -1.1753  0.8929
  920MOL0     C26842   2.687   5.703  -0.258 -0.6556  0.0059 -0.5783
  920MOL0     C26843   2.573   5.602  -0.235 -0.1077 -0.4720  0.3875
  920MOL0     C26844   2.497   5.624  -0.100  0.0962 -0.6835 -0.0324
  920MOL0     C26845   2.378   5.535  -0.086 -0.2949 -0.1375 -1.1477
  920MOL0     O26846   2.257   5.596  -0.134 -0.2808 -1.0982 -0.1925
  920MOL0     C26847   2.194   5.705  -0.072 -0.3515  0.2493 -0.4000
  920MOL0     C26848   2.085   5.762  -0.139  0.7602 -0.6052 -0.5109
  920MOL0     C26849   2.017   5.872  -0.090 -0.1394  0.4289 -0.4410
  920MOL0     C26850   1.900   5.915  -0.169  0.2436 -0.1187 -0.7789
  920MOL0     C26851   2.049   5.921   0.044 -0.5180  0.1202  0.3392
  920MOL0     C26852   1.987   6.044   0.114 -0.9633 -0.3873 -0.4210
  920MOL0     O26853   1.883   6.086   0.050  0.1346 -0.3674 -0.0530
  920MOL0     C26854   1.790   6.164   0.123 -1.0657  0.0960  0.4259
  920MOL0     C26855   1.787   6.300   0.099 -0.1385  0.0786  0.3591
  920MOL0     C26856   1.693   6.378   0.168  1.0554 -0.1040 -0.7577
  920MOL0     C26857   1.605   6.329   0.263 -0.5200  0.0602  0.0812
  920MOL0     O26858   1.499   6.410   0.297 -0.0918 -0.3563  0.1744
  920MOL0     C26859   1.444   6.379   0.423  0.6371 -0.5770 -0.1460
  920MOL0     C26860   1.395   6.502   0.500 -0.0347  0.6801 -0.0985
  920MOL0     C26861   1.496   6.582   0.570 -0.8611  0.0733  0.0222
  920MOL0     C26862   1.455   6.709   0.636 -0.1200  1.1011 -0.1206
  920MOL0     C26863   1.383   6.693   0.780 -0.9224  0.8364  0.7924
  920MOL0     C26864   1.444   6.592   0.876 -0.2306  0.1552 -0.4257
  920MOL0     C26865   1.348   6.565   0.992  0.8767 -0.7152 -0.0941
  920MOL0     C26866   1.214   6.508   0.949 -0.3540 -0.7869 -0.7259
  920MOL0    Cl26867   1.223   6.356   0.859  0.3294  0.1994 -0.2391
  920MOL0     C26868   1.605   6.190   0.282  0.3486 -1.1614  0.4612
  920MOL0     C26869   1.693   6.109   0.204  0.2869  0.4382 -0.1787
  920MOL0     O26870   2.036   6.105   0.209  0.2025  0.7655 -0.3789
  920MOL0     C26871   2.159   5.860   0.119 -0.0159 -0.2940 -0.1331
  920MOL0     C26872   2.224   5.751   0.050  0.0298 -0.0857 -1.0836
  920MOL0     N26873   2.779   5.708  -0.497 -0.1047  0.3207  1.0136
  920MOL0     N26874   2.862   5.639  -0.571  0.5433  0.7639 -0.2997
  920MOL0     C26875   3.501   4.682  -0.120  0.0420 -0.2036  0.0627
  920MOL0     C26876   3.544   4.565  -0.055 -0.0136 -0.3365  0.0854
  920MOL0     C26877   3.740   4.296   0.233 -0.4814 -0.0593  0.5848
  920MOL0     C26878   3.789   4.215   0.128  1.0344 -0.1331  0.0828
  920MOL0     C26879   3.831   4.076   0.145  1.3557  0.4923 -0.5156
  920MOL0     C26880   3.808   4.019   0.271  0.5574 -0.6467 -0.1431
  920MOL0     O26881   3.859   3.898   0.314  0.0534  0.5802 -0.0174
  920MOL0     C26882   3.898   3.796   0.222 -0.9973 -0.2704 -0.5419
  920MOL0     C26883   4.050   3.792   0.227  0.5462 -0.0997 -0.7991
  920MOL0     C26884   4.102   3.655   0.198  0.5914  0.4751  0.5953
  920MOL0     C26885   4.253   3.642   0.187  0.4126 -0.9417 -0.1969
  920MOL0     C26886   4.293   3.513   0.146  0.1551  0.7956  0.0358
  920MOL0     C26887   4.313   3.405   0.113 -0.5576  0.0600 -0.4388
  920MOL0     C26888   3.756   4.105   0.377 -0.6681  0.0157 -0.3768
  920MOL0     C26889   3.725   4.245   0.366 -0.6473 -0.7925 -0.7631
  920MOL0     C26890   3.673   4.328   0.487  0.4570  0.3662 -0.6955
  920MOL0     H26891   3.848   4.682   0.033  0.0389  2.2468  0.6233
  920MOL0     H26892   3.754   4.886  -0.056  4.8693 -2.4077 -0.6511
  920MOL0     H26893   3.662   5.073  -0.172 -0.6363  1.3314 -2.1829
  920MOL0     H26894   3.534   5.051  -0.054  1.3355  0.6692  0.1566
  920MOL0     H26895   3.509   5.129  -0.345  0.4123 -2.4240 -0.3524
  920MOL0     H26896   3.365   5.090  -0.254 -0.2747  1.4758 -1.2296
  920MOL0     H26897   3.441   5.254  -0.066  1.3985 -0.4284 -0.3243
  920MOL0     H26898   3.544   5.321  -0.203  1.8936 -1.7550  0.3164
  920MOL0     H26899   3.249   5.265  -0.187 -0.1402  0.9848  0.3929
  920MOL0     H26900   3.312   5.432  -0.173 -2.4665 -0.9509  0.9497
  920MOL0     H26901   3.312   5.268  -0.427  3.0075  0.9332 -0.8911
  920MOL0     H26902   3.358   5.442  -0.397 -0.7589 -0.3223 -1.6745
  920MOL0     H26903   3.086   5.316  -0.359 -0.8596  0.6089 -1.2854
  920MOL0     H26904   3.127   5.495  -0.342 -0.7716  0.1428  0.3333
  920MOL0     H26905   3.165   5.347  -0.609  2.0483  0.9989 -1.4169
  920MOL0     H26906   3.175   5.515  -0.576  3.1365 -0.0295  4.5067
  920MOL0     H26907   2.957   5.424  -0.669  1.0170 -0.9923 -0.9231
  920MOL0     H26908   2.931   5.324  -0.528 -2.6499  1.1631  2.0387
  920MOL0     H26909   2.872   5.485  -0.288 -3.7941  2.4668  3.1680
  920MOL0     H26910   2.647   5.802  -0.285  1.7872  1.0429 -0.6738
  920MOL0     H26911   2.756   5.703  -0.174 -1.7826 -0.4859  0.3662
  920MOL0     H26912   2.498   5.600  -0.315 -1.4467 -1.2098  1.6029
  920MOL0     H26913   2.612   5.500  -0.223  0.5504 -0.1276  1.2477
  920MOL0     H26914   2.568   5.605  -0.018  2.7137  1.7304 -1.5422
  920MOL0     H26915   2.468   5.729  -0.087 -0.8992 -0.8248 -0.9983
  920MOL0     H26916   2.373   5.433  -0.126 -2.4963 -1.6561  2.5289
  920MOL0     H26917   2.352   5.516   0.019 -2.1437  0.2394 -1.4921
  920MOL0     H26918   2.062   5.723  -0.237  1.4112  1.9129 -1.7447
  920MOL0     H26919   1.805   5.895  -0.119  0.7822  0.1716  0.3803
  920MOL0     H26920   1.904   5.871  -0.269 -2.0097  0.2943 -1.1095
  920MOL0     H26921   1.894   6.023  -0.185 -0.1928 -0.1952 -1.1778
  920MOL0     H26922   1.852   6.348   0.027 -2.7977 -1.1186 -3.1002
  920MOL0     H26923   1.691   6.480   0.130  0.1094 -1.5288 -5.1439
  920MOL0     H26924   1.354   6.320   0.403 -0.4640  1.6080 -1.9477
  920MOL0     H26925   1.524   6.334   0.484  2.4171  1.9499 -0.4735
  920MOL0     H26926   1.345   6.571   0.431 -1.9038 -0.0354  0.4959
  920MOL0     H26927   1.322   6.469   0.573 -0.8292  0.0191 -1.1548
  920MOL0     H26928   1.571   6.600   0.492 -1.2491  2.0971  0.0726
  920MOL0     H26929   1.554   6.521   0.640 -1.2895  2.0612  2.2144
  920MOL0     H26930   1.396   6.773   0.568  2.2142  0.6494 -2.7348
  920MOL0     H26931   1.542   6.771   0.660  0.6726 -0.6313  1.6886
  920MOL0     H26932   1.378   6.792   0.826  0.2954 -0.2203  3.4394
  920MOL0     H26933   1.280   6.663   0.759 -0.5085 -1.1930  1.4325
  920MOL0     H26934   1.541   6.629   0.911  1.0280 -1.2053 -2.2770
  920MOL0     H26935   1.460   6.488   0.843  0.0036 -0.1715  0.6933
  920MOL0     H26936   1.337   6.661   1.043 -0.2609 -1.7077  1.6332
  920MOL0     H26937   1.380   6.490   1.064 -1.7701 -0.3723  1.6035
  920MOL0     H26938   1.163   6.588   0.893  2.6244  2.2123  0.5389
  920MOL0     H26939   1.156   6.481   1.038  0.0442 -1.1569 -0.5777
  920MOL0     H26940   1.526   6.143   0.339  1.4604 -2.1216  1.2710
  920MOL0     H26941   1.695   6.004   0.232 -1.5710  0.6054  0.7041
  920MOL0     H26942   2.196   5.887   0.217  2.5357 -4.1298  0.1984
  920MOL0     H26943   2.311   5.721   0.107  1.1254  0.1656 -2.5525
  920MOL0     H26944   3.411   4.685  -0.180  1.3276  0.2055 -1.9145
  920MOL0     H26945   3.494   4.468  -0.057  2.7903 -1.9999  2.2430
  920MOL0     H26946   3.818   4.262   0.034 -0.9687  2.6700  0.7279
  920MOL0     H26947   3.875   4.022   0.062 -1.1944 -0.2375 -1.4638
  920MOL0     H26948   3.856   3.704   0.266 -2.7071  1.7142  2.3155
  920MOL0     H26949   3.860   3.806   0.120 -0.4326  2.0583 -0.5786
  920MOL0     H26950   4.086   3.838   0.319  0.4341 -0.3166 -0.6461
  920MOL0     H26951   4.080   3.863   0.149 -0.9866  2.9252  1.1661
  920MOL0     H26952   4.069   3.604   0.289 -2.9012  0.0219 -0.7825
  920MOL0     H26953   4.057   3.596   0.118  1.0709 -1.4178  1.6544
  920MOL0     H26954   4.293   3.656   0.288  0.6682  3.1264 -0.6805
  920MOL0     H26955   4.291   3.724   0.125  0.1718  0.4108  1.3647
  920MOL0     H26956   4.319   3.301   0.088  0.1863  0.3907 -1.7330
  920MOL0     H26957   3.759   4.059   0.475  1.3743  1.3764  0.2538
  920MOL0     H26958   3.714   4.430   0.487  1.6730  0.0084  3.0598
  920MOL0     H26959   3.565   4.348   0.483  0.7104  1.6279 -2.5853
  920MOL0     H26960   3.702   4.291   0.585  1.8541  0.9233 -0.8807
  921MOL0     O26961   0.716   7.905   9.149  0.3767 -0.8478 -0.2589
  921MOL0     C26962   0.695   7.791   9.171  0.8006  0.8307 -0.2689
  921MOL0     O26963   0.785   7.686   9.163 -0.4665 -0.1310  0.0867
  921MOL0     C26964   0.914   7.719   9.118  0.9321 -0.1999 -0.6752
  921MOL0     C26965   0.930   7.789   8.995  0.3491 -0.4615  0.9067
  921MOL0     C26966   1.054   7.803   8.929 -0.4011 -0.4976  0.6783
  921MOL0     C26967   1.170   7.774   8.995  0.0489  0.5709 -0.5731
  921MOL0     O26968   1.288   7.792   8.926 -0.0536  0.1131 -0.2618
  921MOL0     C26969   1.414   7.747   8.978  0.3350  0.4635 -0.3089
  921MOL0     C26970   1.516   7.714   8.869 -0.3520 -0.2628 -0.0541
  921MOL0     C26971   1.654   7.776   8.909 -0.5165  0.6068 -0.3919
  921MOL0     C26972   1.745   7.767   8.777 -0.4105 -0.0594 -0.6189
  921MOL0     C26973   1.896   7.784   8.798 -0.3048  0.8421  0.4070
  921MOL0     C26974   1.945   7.903   8.881 -0.0884  0.1463 -0.8662
  921MOL0     C26975   2.094   7.928   8.893 -1.2714 -0.2852  0.1155
  921MOL0     C26976   2.134   8.048   8.979 -0.0411  0.2462 -0.5150
  921MOL0     N26977   2.249   8.001   9.070  0.0665  0.5203  0.0765
  921MOL0     C26978   2.385   8.004   9.032  0.8339  0.2737 -0.8908
  921MOL0     C26979   2.451   7.972   9.149  0.0646  0.0475  0.8087
  921MOL0     C26980   2.605   7.967   9.168 -0.0759  0.7644  0.0132
  921MOL0     C26981   2.656   7.823   9.161  0.0413 -0.8083  0.4062
  921MOL0     C26982   2.655   7.793   9.014  0.2456  0.3431 -0.0519
  921MOL0     C26983   2.703   7.646   8.987 -0.6897  0.4397  0.6662
  921MOL0     O26984   2.652   7.548   9.074 -0.5756  0.3927 -0.1597
  921MOL0     C26985   2.538   7.489   9.042  0.2571 -1.0291 -0.8629
  921MOL0     C26986   2.469   7.444   9.164 -0.0409 -0.3001 -0.6655
  921MOL0     C26987   2.339   7.404   9.170  0.4128 -1.2571  0.1217
  921MOL0     C26988   2.293   7.353   9.306 -0.2914  0.1972  0.3207
  921MOL0     C26989   2.270   7.406   9.048 -0.5052  0.1474  0.4382
  921MOL0     C26990   2.124   7.347   9.023 -0.3497  0.4849 -0.0151
  921MOL0     O26991   2.060   7.385   8.907  0.4216  0.1486 -0.5707
  921MOL0     C26992   1.924   7.368   8.907  0.9841  0.2459  0.4938
  921MOL0     C26993   1.863   7.347   8.784 -1.0189  0.2161 -0.3494
  921MOL0     C26994   1.724   7.336   8.773 -0.2897 -0.1050  0.6607
  921MOL0     C26995   1.646   7.325   8.895  0.8327  0.5709  1.2607
  921MOL0     O26996   1.512   7.281   8.878 -0.6177 -0.6589 -0.0034
  921MOL0     C26997   1.412   7.351   8.956  0.2814  0.3215 -0.0263
  921MOL0     C26998   1.304   7.406   8.864  0.8153 -0.1603  0.8858
  921MOL0     C26999   1.251   7.305   8.765  0.1187  0.4657  1.1822
  921MOL0     C27000   1.144   7.356   8.668 -0.0910 -1.0073 -0.3668
  921MOL0     C27001   1.012   7.388   8.730  0.1995 -0.1307  0.2566
  921MOL0     C27002   0.907   7.420   8.616 -0.4945  0.9998 -0.5000
  921MOL0     C27003   0.799   7.523   8.668 -0.4693  0.9548 -0.1720
  921MOL0     C27004   0.686   7.542   8.572 -0.6939 -0.5844 -0.0980
  921MOL0    Cl27005   0.622   7.705   8.574  0.0492  0.3271 -0.1684
  921MOL0     C27006   1.707   7.341   9.011 -0.0815  0.0580  0.5492
  921MOL0     C27007   1.840   7.371   9.025  0.3760 -0.7380  0.5622
  921MOL0     O27008   2.083   7.263   9.109  0.3022 -0.1642  0.5414
  921MOL0     C27009   2.327   7.459   8.928  0.7031 -0.2126  0.2264
  921MOL0     C27010   2.461   7.500   8.927  0.0191  0.4104  0.6125
  921MOL0     N27011   2.359   7.956   9.246 -0.6971 -0.0388 -0.4638
  921MOL0     N27012   2.245   7.978   9.201  0.6871 -0.3563  0.0054
  921MOL0     C27013   1.154   7.720   9.128  0.2930  0.1891 -0.1027
  921MOL0     C27014   1.036   7.694   9.194  0.3321  0.0537 -0.0637
  921MOL0     C27015   0.560   7.760   9.224  0.6837  0.3354  0.6563
  921MOL0     C27016   0.545   7.745   9.361  0.4835 -0.1275  0.3350
  921MOL0     C27017   0.413   7.720   9.406 -0.2341  0.4845  0.1752
  921MOL0     C27018   0.308   7.699   9.323 -0.2609 -1.0256 -0.6354
  921MOL0     O27019   0.201   7.656   9.385  0.5557  0.1042  0.1849
  921MOL0     C27020   0.093   7.613   9.297 -0.7631 -0.0696  0.1160
  921MOL0     C27021  -0.016   7.567   9.384 -0.0907 -0.2676  0.8380
  921MOL0     C27022  -0.078   7.675   9.482 -0.1752  0.3439  0.1347
  921MOL0     C27023  -0.135   7.616   9.610  0.3885 -0.1301 -0.2703
  921MOL0     C27024  -0.247   7.536   9.579  0.6932  0.2842 -0.8777
  921MOL0     C27025  -0.344   7.473   9.547 -0.9919 -0.1212  0.0329
  921MOL0     C27026   0.325   7.706   9.192  1.1089 -0.1942 -0.0467
  921MOL0     C27027   0.454   7.737   9.129  0.2979 -0.2974 -0.8665
  921MOL0     C27028   0.470   7.765   8.984 -0.5084  0.2374 -0.5602
  921MOL0     H27029   0.856   7.837   8.933  0.1395 -2.2497 -0.2968
  921MOL0     H27030   1.056   7.851   8.832 -1.8603  0.3562  1.0266
  921MOL0     H27031   1.390   7.657   9.037 -4.2753  3.1607  2.4770
  921MOL0     H27032   1.447   7.824   9.048  1.8511 -1.1435  0.8676
  921MOL0     H27033   1.526   7.607   8.847 -1.4900  0.1979 -3.4904
  921MOL0     H27034   1.481   7.766   8.779  0.5539  1.3055  0.4733
  921MOL0     H27035   1.648   7.884   8.927  1.8371  0.7279  0.0816
  921MOL0     H27036   1.711   7.723   8.986  0.5750 -0.0411 -1.5877
  921MOL0     H27037   1.732   7.660   8.755 -1.2393  0.1213 -1.0327
  921MOL0     H27038   1.705   7.834   8.701 -0.5433 -0.1891 -0.6638
  921MOL0     H27039   1.937   7.788   8.696 -1.8895 -0.3031 -0.3221
  921MOL0     H27040   1.929   7.683   8.826 -4.1531 -1.4115 -2.2813
  921MOL0     H27041   1.904   7.994   8.835  0.4774 -0.3263 -2.3537
  921MOL0     H27042   1.911   7.890   8.984  3.7670  0.8922  0.6660
  921MOL0     H27043   2.125   7.958   8.792 -3.1299  0.7781 -0.1730
  921MOL0     H27044   2.140   7.833   8.921 -2.0589 -1.4317 -2.1697
  921MOL0     H27045   2.163   8.137   8.923  0.0440  0.6632  0.1747
  921MOL0     H27046   2.048   8.080   9.039  0.0062  0.9785 -0.8280
  921MOL0     H27047   2.431   8.037   8.939 -0.0286  0.9115 -1.1039
  921MOL0     H27048   2.627   8.009   9.267 -0.2794  4.6207 -1.4074
  921MOL0     H27049   2.653   8.033   9.096  1.6553 -0.4369 -0.0057
  921MOL0     H27050   2.758   7.809   9.199  0.8641  1.3462 -0.8211
  921MOL0     H27051   2.591   7.758   9.220 -0.8412 -1.7132 -1.4790
  921MOL0     H27052   2.556   7.808   8.969 -0.9705  1.0746  2.6684
  921MOL0     H27053   2.727   7.845   8.950 -0.9764 -1.0964 -2.7739
  921MOL0     H27054   2.688   7.627   8.880 -0.4930 -0.9485  0.8775
  921MOL0     H27055   2.805   7.630   9.022 -0.8571 -1.6164  0.3035
  921MOL0     H27056   2.527   7.443   9.256 -0.6264  3.3934 -0.1105
  921MOL0     H27057   2.193   7.382   9.339  0.6775  0.9655  2.8540
  921MOL0     H27058   2.362   7.389   9.384 -0.9430  2.9664 -0.3103
  921MOL0     H27059   2.295   7.244   9.301 -0.3281  0.2701 -1.8144
  921MOL0     H27060   1.927   7.313   8.703  2.3971 -0.4100  2.3560
  921MOL0     H27061   1.677   7.333   8.676  1.1172  4.0694 -0.3465
  921MOL0     H27062   1.358   7.284   9.024 -0.1132 -1.2273 -1.7950
  921MOL0     H27063   1.451   7.424   9.028  3.2340  0.4218 -1.5587
  921MOL0     H27064   1.223   7.441   8.929 -0.0645  1.3729 -0.9591
  921MOL0     H27065   1.345   7.494   8.813  3.2378 -1.5903  0.2130
  921MOL0     H27066   1.207   7.223   8.822  0.1461 -0.5042 -0.1513
  921MOL0     H27067   1.335   7.271   8.704 -1.2349  0.2676 -0.6449
  921MOL0     H27068   1.134   7.289   8.582 -3.3668  0.4173 -1.2475
  921MOL0     H27069   1.172   7.450   8.621 -1.1141 -1.0080 -1.0123
  921MOL0     H27070   0.974   7.303   8.787 -1.2334 -1.2463 -2.2181
  921MOL0     H27071   1.016   7.470   8.803  2.5354 -0.2316  0.3256
  921MOL0     H27072   0.857   7.330   8.580  1.2877 -1.1270  1.9360
  921MOL0     H27073   0.965   7.468   8.537 -0.4017 -0.6320 -1.4473
  921MOL0     H27074   0.851   7.619   8.673  1.2772  0.4110 -4.3048
  921MOL0     H27075   0.754   7.491   8.763  0.0214  0.4134 -0.1192
  921MOL0     H27076   0.596   7.483   8.591 -2.2474  1.3723 -0.9962
  921MOL0     H27077   0.726   7.531   8.472  2.8145  3.7186  0.5357
  921MOL0     H27078   1.652   7.336   9.105  0.0899  0.6218  0.6886
  921MOL0     H27079   1.884   7.398   9.121  1.2126  2.2883 -0.5331
  921MOL0     H27080   2.269   7.466   8.837  3.1120  0.7939 -1.3278
  921MOL0     H27081   2.513   7.516   8.833 -1.9858 -0.2354 -0.6586
  921MOL0     H27082   1.253   7.696   9.164  1.3030 -0.6442 -3.0934
  921MOL0     H27083   1.035   7.662   9.297  0.5620  1.3087  0.3470
  921MOL0     H27084   0.624   7.775   9.428  0.0623  3.8785 -0.6630
  921MOL0     H27085   0.400   7.695   9.511 -2.9311 -1.1906 -0.4586
  921MOL0     H27086   0.052   7.694   9.237  1.4248  1.1711  0.1965
  921MOL0     H27087   0.124   7.531   9.232 -1.0888 -0.1001 -0.0047
  921MOL0     H27088   0.024   7.485   9.445  2.2678  1.1846  1.4032
  921MOL0     H27089  -0.097   7.546   9.314 -1.0849  1.3436  1.4656
  921MOL0     H27090   0.004   7.741   9.512 -0.9642 -0.4162  4.7682
  921MOL0     H27091  -0.150   7.737   9.429 -1.1179  0.6452  1.7016
  921MOL0     H27092  -0.178   7.696   9.672 -3.0495 -2.1860  0.3025
  921MOL0     H27093  -0.066   7.550   9.663  0.6448  1.9262  2.1594
  921MOL0     H27094  -0.427   7.415   9.510 -0.4333 -0.2103 -1.1449
  921MOL0     H27095   0.246   7.680   9.123  0.3663  0.7867  0.4111
  921MOL0     H27096   0.486   7.871   8.963  0.9596 -0.4336 -3.3218
  921MOL0     H27097   0.556   7.715   8.938  1.8596  1.1102  2.5602
  921MOL0     H27098   0.379   7.730   8.935  1.6267 -4.1443 -1.9850
  922MOL0     O27099  10.492   0.850   8.745  0.3148  0.5261 -0.5974
  922MOL0     C27100  10.478   0.913   8.644  0.0921 -0.1963 -0.3792
  922MOL0     O27101  10.446   0.855   8.525 -0.0711 -0.6444  0.3809
  922MOL0     C27102  10.427   0.721   8.515  0.7441 -0.3710 -0.4770
  922MOL0     C27103  10.300   0.665   8.491 -0.1635  0.8416 -0.4187
  922MOL0     C27104  10.288   0.525   8.469 -0.1730  0.7425 -1.0388
  922MOL0     C27105  10.405   0.454   8.465 -0.3822  0.1194 -0.5542
  922MOL0     O27106  10.390   0.319   8.440  0.2787 -0.0672 -0.0625
  922MOL0     C27107  10.481   0.208   8.452  0.5898 -0.0021  0.3304
  922MOL0     C27108  10.431   0.084   8.370  0.4156  1.0195  0.2627
  922MOL0     C27109  10.542  -0.022   8.347  0.6246 -0.6943 -0.3457
  922MOL0     C27110  10.489  -0.126   8.241  0.7620 -0.1842  0.4752
  922MOL0     C27111  10.528  -0.270   8.274  0.2103 -0.8195  0.0252
  922MOL0     C27112  10.493  -0.366   8.166 -0.0368 -0.2900  0.3535
  922MOL0     C27113  10.490  -0.515   8.229  0.4629 -0.8160  0.4971
  922MOL0     C27114  10.614  -0.559   8.310  0.6781 -0.0822  1.5235
  922MOL0     N27115  10.627  -0.702   8.333 -1.0131  0.4063  0.1679
  922MOL0     C27116  10.522  -0.788   8.363 -0.4021  0.5710 -0.5256
  922MOL0     C27117  10.598  -0.904   8.387 -0.3536  0.1436  0.8272
  922MOL0     C27118  10.522  -1.034   8.416  0.2988 -0.1059 -0.3655
  922MOL0     C27119  10.604  -1.158   8.388  0.1655  0.7083 -0.3628
  922MOL0     C27120  10.500  -1.269   8.380 -0.4719  0.2932 -0.2405
  922MOL0     C27121  10.417  -1.276   8.244  0.4700 -0.3529 -0.5582
  922MOL0     O27122  10.510  -1.283   8.140  1.0007  0.0113 -0.3510
  922MOL0     C27123  10.469  -1.255   8.012 -0.3825  1.0908 -0.5826
  922MOL0     C27124  10.372  -1.332   7.935  0.0218  0.0975  0.1521
  922MOL0     C27125  10.349  -1.303   7.801 -0.1587 -0.7176  0.2897
  922MOL0     C27126  10.257  -1.394   7.727  0.6503 -0.2885 -0.5406
  922MOL0     C27127  10.420  -1.197   7.737 -0.6711  0.8187 -0.3495
  922MOL0     C27128  10.398  -1.159   7.598  0.0105  0.0271 -0.3096
  922MOL0     O27129  10.411  -1.031   7.563 -0.0910  0.0294 -0.0965
  922MOL0     C27130  10.395  -0.993   7.426 -0.1040  0.3792 -0.2167
  922MOL0     C27131  10.280  -0.935   7.380  0.3393  0.1212  0.2273
  922MOL0     C27132  10.265  -0.903   7.237  0.2284  0.2303  0.2203
  922MOL0     C27133  10.371  -0.928   7.143  0.2668 -0.5336  0.2831
  922MOL0     O27134  10.367  -0.885   7.008  0.1848  0.1085  0.1253
  922MOL0     C27135  10.423  -0.755   6.989  0.0687 -0.8527 -0.6028
  922MOL0     C27136  10.425  -0.717   6.844  0.1687 -0.2482  0.1285
  922MOL0     C27137  10.284  -0.739   6.780  0.3857  0.0306  1.2192
  922MOL0     C27138  10.269  -0.638   6.657  1.4237 -0.0449  0.1079
  922MOL0     C27139  10.132  -0.656   6.584 -0.3812 -0.2619  0.3907
  922MOL0     C27140  10.115  -0.577   6.450 -0.6208  0.0628  0.4184
  922MOL0     C27141   9.977  -0.598   6.389 -0.3858  0.4165 -0.1097
  922MOL0     C27142   9.933  -0.733   6.336 -0.2103  0.2132 -0.0645
  922MOL0    Cl27143  10.041  -0.788   6.201 -0.0512 -0.1620  0.3155
  922MOL0     C27144  10.487  -0.985   7.208 -0.6416 -0.8827  0.2250
  922MOL0     C27145  10.503  -1.009   7.340 -0.0691  0.0818 -1.2547
  922MOL0     O27146  10.357  -1.244   7.523 -0.3709 -0.4273 -0.0106
  922MOL0     C27147  10.505  -1.118   7.819 -0.0319  0.7923  0.0288
  922MOL0     C27148  10.537  -1.152   7.950  0.6843 -0.4093 -0.1058
  922MOL0     N27149  10.727  -0.889   8.367 -0.7650 -0.0420  0.8999
  922MOL0     N27150  10.745  -0.765   8.333  0.2728  0.1466 -1.0376
  922MOL0     C27151  10.533   0.508   8.472  0.3201  0.1302 -0.2346
  922MOL0     C27152  10.544   0.644   8.490  0.9916 -0.1781 -0.2104
  922MOL0     C27153  10.486   1.059   8.656 -0.1222  1.0079  0.0983
  922MOL0     C27154  10.612   1.114   8.696 -0.2053  0.6237  0.4942
  922MOL0     C27155  10.642   1.247   8.681 -0.5331 -0.7219  0.1906
  922MOL0     C27156  10.552   1.331   8.617  0.1254 -0.3062 -0.8775
  922MOL0     O27157  10.572   1.466   8.580  0.1949  0.0252  0.4992
  922MOL0     C27158  10.708   1.501   8.540 -0.0516  0.7014  0.0669
  922MOL0     C27159  10.755   1.610   8.635  1.1153  0.0035 -0.0971
  922MOL0     C27160  10.873   1.683   8.584  0.3291  0.1226 -0.9039
  922MOL0     C27161  10.855   1.801   8.483  0.1580  0.9895  1.0875
  922MOL0     C27162  10.992   1.853   8.470  0.0212  0.8573 -0.0214
  922MOL0     C27163  11.118   1.862   8.467 -0.0874  0.3615 -0.0734
  922MOL0     C27164  10.425   1.277   8.589 -1.0604 -0.2701  0.0753
  922MOL0     C27165  10.391   1.146   8.611 -0.5206 -0.1185  0.2618
  922MOL0     C27166  10.255   1.106   8.563 -0.5520  0.1562 -0.3485
  922MOL0     H27167  10.214   0.732   8.492 -0.1751  0.8217 -0.0040
  922MOL0     H27168  10.187   0.494   8.449  0.3812 -3.3652  1.3781
  922MOL0     H27169  10.483   0.172   8.556  0.8062  0.1762  0.3876
  922MOL0     H27170  10.584   0.228   8.422  1.5667 -1.1547  2.6148
  922MOL0     H27171  10.349   0.041   8.429  0.9110 -0.2969  0.0139
  922MOL0     H27172  10.395   0.121   8.273 -0.3019  1.9316  0.8577
  922MOL0     H27173  10.634   0.031   8.320  1.1297 -2.0053 -1.2851
  922MOL0     H27174  10.565  -0.067   8.445 -0.4184  0.4702  0.4612
  922MOL0     H27175  10.382  -0.136   8.221  1.1990 -1.5542 -1.5182
  922MOL0     H27176  10.533  -0.085   8.150  1.2312 -1.2099  0.2138
  922MOL0     H27177  10.477  -0.299   8.366 -2.1286  1.6634 -0.3615
  922MOL0     H27178  10.637  -0.278   8.283  0.3191  1.4445  1.8135
  922MOL0     H27179  10.401  -0.338   8.115  0.0030 -0.2702  0.2936
  922MOL0     H27180  10.576  -0.365   8.094 -0.1183  0.5016  0.2647
  922MOL0     H27181  10.452  -0.586   8.155  1.8042 -1.0297 -0.0204
  922MOL0     H27182  10.407  -0.510   8.300  0.6326  0.9203  0.6191
  922MOL0     H27183  10.700  -0.530   8.249 -0.9825 -0.0360 -0.9194
  922MOL0     H27184  10.623  -0.514   8.409 -1.6741  1.0702  1.2812
  922MOL0     H27185  10.418  -0.764   8.383  0.2517  1.2290  2.8433
  922MOL0     H27186  10.433  -1.036   8.353  0.9376  0.9906 -1.3380
  922MOL0     H27187  10.475  -1.028   8.515  0.3112 -0.7663 -0.3176
  922MOL0     H27188  10.663  -1.139   8.298  1.1901  1.0171  0.3555
  922MOL0     H27189  10.667  -1.163   8.478 -2.5118 -1.4934  1.5615
  922MOL0     H27190  10.550  -1.366   8.376 -0.7286  0.1202 -4.8859
  922MOL0     H27191  10.432  -1.265   8.466  1.8678 -0.2652  1.7303
  922MOL0     H27192  10.358  -1.368   8.247  3.6569 -2.5746 -0.4489
  922MOL0     H27193  10.348  -1.191   8.236  1.3758  0.3071 -1.5478
  922MOL0     H27194  10.334  -1.420   7.985 -0.5616  0.5188  0.4695
  922MOL0     H27195  10.178  -1.339   7.674 -1.1033 -4.1162 -2.2643
  922MOL0     H27196  10.201  -1.452   7.801  1.7059 -0.5353  0.0831
  922MOL0     H27197  10.307  -1.467   7.664  0.1708  0.2496 -1.5758
  922MOL0     H27198  10.201  -0.916   7.452 -0.2212  1.7673 -0.7678
  922MOL0     H27199  10.186  -0.847   7.187 -2.4928 -1.8872  1.8134
  922MOL0     H27200  10.352  -0.685   7.034 -0.1153 -1.1166 -0.4818
  922MOL0     H27201  10.527  -0.747   7.020  0.7347 -0.9810 -2.6577
  922MOL0     H27202  10.447  -0.611   6.834 -0.7219 -0.0911 -0.2960
  922MOL0     H27203  10.499  -0.778   6.791  0.6763  0.1306  0.4022
  922MOL0     H27204  10.198  -0.736   6.848 -0.9226 -0.4776 -0.3533
  922MOL0     H27205  10.273  -0.843   6.747 -1.7229  0.3681  0.6822
  922MOL0     H27206  10.347  -0.651   6.581 -0.3072 -1.7217 -1.4667
  922MOL0     H27207  10.270  -0.533   6.690  0.2780 -0.2555  0.8576
  922MOL0     H27208  10.118  -0.763   6.571 -0.4382 -0.3517  1.1557
  922MOL0     H27209  10.046  -0.626   6.645 -1.9466  0.0062 -1.7948
  922MOL0     H27210  10.186  -0.612   6.376 -3.7530  1.5916 -3.7204
  922MOL0     H27211  10.151  -0.476   6.471  2.9287 -1.0918  0.4706
  922MOL0     H27212   9.986  -0.543   6.295  0.2114 -1.6492 -1.3303
  922MOL0     H27213   9.904  -0.554   6.457 -0.2631 -0.0774  0.3446
  922MOL0     H27214   9.828  -0.725   6.309 -0.2929  2.7984  0.7389
  922MOL0     H27215   9.916  -0.801   6.420 -1.5214  0.2471 -0.2763
  922MOL0     H27216  10.564  -1.011   7.135 -1.1021 -0.0537 -0.5849
  922MOL0     H27217  10.591  -1.059   7.378 -1.5363 -1.5306  0.2027
  922MOL0     H27218  10.566  -1.041   7.774 -0.0150  2.1430  2.2282
  922MOL0     H27219  10.611  -1.098   8.008 -1.6530  2.7287  0.1894
  922MOL0     H27220  10.622   0.448   8.463 -0.4400 -1.5363  2.1945
  922MOL0     H27221  10.637   0.699   8.504 -0.1588  1.1464  4.0355
  922MOL0     H27222  10.691   1.047   8.728 -1.6702 -0.3825  2.1665
  922MOL0     H27223  10.745   1.268   8.707 -0.4418 -1.6148  0.5782
  922MOL0     H27224  10.778   1.417   8.550 -0.6455  0.3278  1.2835
  922MOL0     H27225  10.717   1.542   8.440  0.0961  0.6863  0.0732
  922MOL0     H27226  10.764   1.568   8.735  0.0445  2.0232  0.9016
  922MOL0     H27227  10.676   1.684   8.650 -0.2176 -1.4461  0.3410
  922MOL0     H27228  10.920   1.732   8.669 -0.4955 -0.4064 -0.1121
  922MOL0     H27229  10.947   1.603   8.569  0.3573 -0.4657  1.8782
  922MOL0     H27230  10.790   1.881   8.520  0.6418  1.1494  1.6121
  922MOL0     H27231  10.810   1.757   8.393  0.3215 -1.4349  2.0973
  922MOL0     H27232  11.225   1.862   8.464 -0.0927  0.2132 -0.3775
  922MOL0     H27233  10.354   1.347   8.546 -0.4223  0.7194  0.5845
  922MOL0     H27234  10.241   0.998   8.573  1.2288 -0.0789 -0.0190
  922MOL0     H27235  10.182   1.156   8.627  0.2309 -0.0453  0.7364
  922MOL0     H27236  10.242   1.128   8.457  2.9040  1.3006 -0.6873
  923MOL0     O27237   3.017   1.018  10.087 -0.2685 -0.5205 -0.3632
  923MOL0     C27238   3.110   0.945  10.051 -0.6502 -0.2840  0.8180
  923MOL0     O27239   3.153   0.836  10.115 -0.6078  0.4082 -0.1785
  923MOL0     C27240   3.093   0.785  10.221 -0.5343 -0.0850 -0.1196
  923MOL0     C27241   2.958   0.774  10.244  0.7708  0.0767 -0.1917
  923MOL0     C27242   2.897   0.704  10.351  0.3190  0.6155  0.6731
  923MOL0     C27243   2.983   0.655  10.451  0.3137  0.1846 -0.3915
  923MOL0     O27244   2.910   0.581  10.552 -0.1181  0.0939  0.2740
  923MOL0     C27245   2.973   0.598  10.678  0.5579  0.8422  0.2315
  923MOL0     C27246   2.895   0.542  10.806  0.3658  1.2016 -0.4656
  923MOL0     C27247   2.750   0.594  10.825 -0.2554  0.1739  0.4097
  923MOL0     C27248   2.661   0.544  10.720  0.5477  0.2449  0.4978
  923MOL0     C27249   2.510   0.594  10.727  0.3838  0.5418  0.4303
  923MOL0     C27250   2.442   0.598  10.586 -0.5104  0.3741  0.2148
  923MOL0     C27251   2.293   0.642  10.599 -0.3377  0.0218 -0.3477
  923MOL0     C27252   2.197   0.561  10.679  0.7208  0.5745  0.3098
  923MOL0     N27253   2.149   0.442  10.619  1.0965 -0.0959  0.7298
  923MOL0     C27254   2.043   0.440  10.531 -0.2117  0.2728 -0.5408
  923MOL0     C27255   2.030   0.313  10.490  0.0281 -0.2534 -0.1884
  923MOL0     C27256   1.949   0.259  10.379  0.4905  0.2845  0.4402
  923MOL0     C27257   2.020   0.271  10.247 -0.1732 -0.5738  0.7634
  923MOL0     C27258   1.927   0.266  10.125 -0.1474 -0.6824  0.7240
  923MOL0     C27259   2.009   0.257   9.989  0.5516  1.0491 -0.1838
  923MOL0     O27260   2.103   0.363   9.971  0.3185 -0.7678 -0.0016
  923MOL0     C27261   2.156   0.377   9.847  1.5916 -0.9577 -0.5877
  923MOL0     C27262   2.254   0.482   9.846 -0.1540  0.6053 -0.2732
  923MOL0     C27263   2.330   0.524   9.730 -0.9859  0.2914 -0.0620
  923MOL0     C27264   2.422   0.643   9.765 -0.3190  0.1410  0.3224
  923MOL0     C27265   2.295   0.468   9.605  0.1709 -1.0985 -1.5834
  923MOL0     C27266   2.362   0.506   9.483  0.4948 -0.1888  0.4747
  923MOL0     O27267   2.490   0.574   9.492  0.0328  0.9907 -0.0666
  923MOL0     C27268   2.565   0.576   9.370 -0.1153  0.4371 -1.0161
  923MOL0     C27269   2.681   0.496   9.355 -1.0761 -0.2034 -0.1301
  923MOL0     C27270   2.737   0.490   9.231  0.1468 -0.7568  0.1494
  923MOL0     C27271   2.684   0.569   9.125 -1.5230 -1.3739 -0.1652
  923MOL0     O27272   2.730   0.579   8.994  0.3128 -0.4092 -0.5845
  923MOL0     C27273   2.852   0.510   8.963  0.9832 -0.7363  0.4810
  923MOL0     C27274   2.877   0.541   8.812  0.7183 -0.3641 -0.3898
  923MOL0     C27275   3.027   0.520   8.768 -1.2876 -0.3049  0.0764
  923MOL0     C27276   3.021   0.499   8.611 -0.0904  0.6002 -0.0692
  923MOL0     C27277   3.133   0.411   8.548 -0.9411 -0.6469 -0.1286
  923MOL0     C27278   3.139   0.420   8.395  0.4701  0.2076  0.4568
  923MOL0     C27279   3.211   0.313   8.323 -0.3198  0.2797  0.0417
  923MOL0     C27280   3.364   0.316   8.355  0.5202  0.0358 -0.2219
  923MOL0    Cl27281   3.433   0.468   8.290  0.1464  0.1692  0.1350
  923MOL0     C27282   2.572   0.648   9.144  0.0214  0.5331  0.5582
  923MOL0     C27283   2.518   0.658   9.273  0.6536 -0.0527  1.2762
  923MOL0     O27284   2.302   0.479   9.378  0.9614 -0.0100 -0.9879
  923MOL0     C27285   2.198   0.370   9.606  0.2279 -0.6179  0.2053
  923MOL0     C27286   2.125   0.324   9.715  0.0010  0.6998 -0.2564
  923MOL0     N27287   2.132   0.237  10.555 -0.4676 -0.2748  0.0272
  923MOL0     N27288   2.212   0.319  10.615 -0.0414 -0.4647  0.7133
  923MOL0     C27289   3.128   0.663  10.431 -0.1679 -0.3436 -0.2505
  923MOL0     C27290   3.177   0.723  10.319  0.9092 -0.6854 -0.3599
  923MOL0     C27291   3.192   0.976   9.928  0.0720 -0.8833 -0.7359
  923MOL0     C27292   3.173   1.107   9.879  0.2806  0.7571  0.2496
  923MOL0     C27293   3.228   1.143   9.749 -0.9206 -0.2955 -0.9170
  923MOL0     C27294   3.322   1.067   9.682 -0.5326  0.2794  0.5720
  923MOL0     O27295   3.365   1.116   9.561 -0.7874  0.2350  0.1090
  923MOL0     C27296   3.423   1.024   9.460 -0.0106  0.1441 -0.5822
  923MOL0     C27297   3.311   0.947   9.398  1.5181  0.8248  0.3271
  923MOL0     C27298   3.210   1.035   9.321  0.4875 -0.5047  0.4879
  923MOL0     C27299   3.114   1.108   9.406  0.3462  0.0150 -0.2595
  923MOL0     C27300   3.003   1.158   9.335 -0.0948 -0.9100  0.2611
  923MOL0     C27301   2.915   1.203   9.269 -0.8597 -0.3983  1.0234
  923MOL0     C27302   3.339   0.943   9.733 -0.0872 -0.8355  1.0271
  923MOL0     C27303   3.280   0.896   9.855 -0.1571  0.0294 -0.9159
  923MOL0     C27304   3.308   0.746   9.873  0.1577 -0.2123  0.0796
  923MOL0     H27305   2.893   0.833  10.179 -0.3300  0.1319  0.9212
  923MOL0     H27306   2.791   0.685  10.366  0.1477 -0.0970 -1.1891
  923MOL0     H27307   2.988   0.705  10.693 -2.2402  1.1327  1.6673
  923MOL0     H27308   3.068   0.543  10.676  1.5410  2.3796  1.6932
  923MOL0     H27309   2.891   0.433  10.807 -2.5398  1.2478  0.1598
  923MOL0     H27310   2.951   0.562  10.898  1.0103 -1.7252 -0.1411
  923MOL0     H27311   2.708   0.560  10.920  1.9842 -1.6929  0.8241
  923MOL0     H27312   2.751   0.703  10.830  0.5724  0.1503  0.9063
  923MOL0     H27313   2.708   0.591  10.633 -0.9473  2.6467  0.8798
  923MOL0     H27314   2.662   0.435  10.712 -1.4677  0.2573 -0.7718
  923MOL0     H27315   2.502   0.695  10.769 -0.8511 -0.5972  3.1456
  923MOL0     H27316   2.457   0.525  10.793  2.0292 -2.6751 -1.3841
  923MOL0     H27317   2.500   0.664  10.521  2.5112 -3.0653 -0.9093
  923MOL0     H27318   2.447   0.498  10.542  1.6614  1.0044 -1.1000
  923MOL0     H27319   2.246   0.665  10.503  1.0553 -0.8640 -1.2754
  923MOL0     H27320   2.302   0.737  10.652  0.8068 -1.8827  3.1375
  923MOL0     H27321   2.243   0.527  10.773 -0.2175  0.6048  0.7870
  923MOL0     H27322   2.108   0.618  10.707  0.0227  0.4711 -1.5462
  923MOL0     H27323   1.984   0.523  10.494 -0.2054  1.4439  1.8826
  923MOL0     H27324   1.858   0.319  10.381  0.7184  0.6229  0.9264
  923MOL0     H27325   1.928   0.155  10.407  1.1297  0.1406  0.4091
  923MOL0     H27326   2.068   0.369  10.239  1.3298 -1.2829  0.7114
  923MOL0     H27327   2.103   0.200  10.238  1.0989  0.7845  1.2740
  923MOL0     H27328   1.856   0.183  10.136 -1.6381  0.5695  0.8499
  923MOL0     H27329   1.865   0.355  10.122  1.6104  0.5565 -0.6006
  923MOL0     H27330   2.054   0.158   9.975 -2.0612 -0.4274  1.0828
  923MOL0     H27331   1.934   0.263   9.909  0.4688 -0.9970 -0.3335
  923MOL0     H27332   2.294   0.522   9.938  0.5941 -0.4647 -0.1179
  923MOL0     H27333   2.426   0.716   9.684 -0.7543  0.3682  0.5019
  923MOL0     H27334   2.521   0.609   9.798  0.7222 -0.4493 -3.0977
  923MOL0     H27335   2.383   0.695   9.853 -2.2351 -1.3818  0.4496
  923MOL0     H27336   2.709   0.435   9.440 -1.0123 -2.1615 -1.4922
  923MOL0     H27337   2.822   0.426   9.209  2.8943  2.1245  1.5342
  923MOL0     H27338   2.931   0.545   9.029  1.6556 -1.1194 -0.0974
  923MOL0     H27339   2.835   0.402   8.971  0.0722 -0.8039 -1.5321
  923MOL0     H27340   2.809   0.476   8.756  0.6362 -1.1607  0.6135
  923MOL0     H27341   2.858   0.647   8.792  3.2399  0.8804  2.8051
  923MOL0     H27342   3.084   0.442   8.819  0.7722  0.8040 -0.4309
  923MOL0     H27343   3.075   0.617   8.783 -1.8412 -0.0945  0.5285
  923MOL0     H27344   3.023   0.599   8.568  0.5294  0.7110  0.2029
  923MOL0     H27345   2.924   0.455   8.587  0.4638  0.1064 -1.5322
  923MOL0     H27346   3.226   0.451   8.589 -2.1036 -0.2726  2.2946
  923MOL0     H27347   3.109   0.307   8.572 -1.0377 -0.7169 -0.5173
  923MOL0     H27348   3.169   0.522   8.366 -0.4581  0.4535  0.3326
  923MOL0     H27349   3.036   0.420   8.359 -0.3446 -1.7529  2.5659
  923MOL0     H27350   3.205   0.340   8.217 -3.3123 -5.5473 -1.7073
  923MOL0     H27351   3.166   0.217   8.350  0.9625 -0.8248 -1.5439
  923MOL0     H27352   3.426   0.230   8.328 -0.7389 -0.9396 -0.1277
  923MOL0     H27353   3.354   0.303   8.463 -4.8777 -2.2198 -0.6608
  923MOL0     H27354   2.535   0.680   9.047  0.0212  0.7342  0.6258
  923MOL0     H27355   2.430   0.722   9.272  0.7019  0.0107  0.4183
  923MOL0     H27356   2.175   0.319   9.513  1.6813  0.6388 -0.8811
  923MOL0     H27357   2.054   0.246   9.691  0.0948  0.7010 -0.5446
  923MOL0     H27358   3.191   0.609  10.501 -3.0302 -3.3093  0.2733
  923MOL0     H27359   3.281   0.753  10.311  0.8653 -0.4265  0.0362
  923MOL0     H27360   3.110   1.179   9.930 -1.1367  0.8762 -1.5231
  923MOL0     H27361   3.199   1.241   9.711  0.6181 -0.2036 -1.9450
  923MOL0     H27362   3.461   1.087   9.379 -0.8672 -0.1441 -1.2354
  923MOL0     H27363   3.507   0.967   9.500  1.5995  1.3876 -2.0508
  923MOL0     H27364   3.263   0.883   9.473  3.4239 -0.2025  0.7353
  923MOL0     H27365   3.365   0.879   9.332  1.0051  0.4661  0.2696
  923MOL0     H27366   3.255   1.111   9.256 -1.0737 -1.1335 -1.4531
  923MOL0     H27367   3.159   0.968   9.251  0.1532  1.6218 -1.4176
  923MOL0     H27368   3.159   1.199   9.446 -1.7808  2.1980 -2.4523
  923MOL0     H27369   3.082   1.042   9.487  1.3152 -0.3669 -0.1817
  923MOL0     H27370   2.842   1.228   9.196  1.9319  1.5010 -1.3382
  923MOL0     H27371   3.410   0.877   9.684  0.6826  1.4198 -1.1161
  923MOL0     H27372   3.405   0.726   9.919  1.6223  3.0100 -1.2773
  923MOL0     H27373   3.226   0.702   9.929  0.3572  0.9666  1.3462
  923MOL0     H27374   3.315   0.689   9.779  1.1476 -1.2207  0.7460
  924MOL0     O27375   2.221   8.272   0.059 -0.0205 -0.4307 -0.0450
  924MOL0     C27376   2.134   8.352   0.088 -0.0336  0.4072 -0.4764
  924MOL0     O27377   2.054   8.339   0.197 -0.9422 -0.3663  0.3103
  924MOL0     C27378   2.055   8.216   0.260 -0.8124 -0.5286 -0.0213
  924MOL0     C27379   1.939   8.146   0.260 -0.7605 -0.2192  0.1476
  924MOL0     C27380   1.932   8.013   0.308 -1.0770  1.2136  0.3245
  924MOL0     C27381   2.041   7.952   0.368 -0.6602  0.1370  0.5012
  924MOL0     O27382   2.041   7.817   0.399 -0.4147 -0.1397 -0.2220
  924MOL0     C27383   2.050   7.770   0.531 -0.5631  0.1629 -0.4699
  924MOL0     C27384   2.184   7.707   0.572 -0.0037 -0.0946  0.3326
  924MOL0     C27385   2.223   7.581   0.491  0.0190  0.0786 -0.3853
  924MOL0     C27386   2.269   7.609   0.354 -0.2800 -0.0923  0.2352
  924MOL0     C27387   2.412   7.656   0.351 -0.3190 -1.0858  1.5140
  924MOL0     C27388   2.520   7.555   0.362 -0.5448  0.5771 -1.0247
  924MOL0     C27389   2.498   7.426   0.277 -0.5799  0.4419  0.7601
  924MOL0     C27390   2.496   7.459   0.119  0.1479  0.3778 -0.4053
  924MOL0     N27391   2.629   7.466   0.068 -0.0012  0.2846  0.6516
  924MOL0     C27392   2.726   7.564   0.080  0.8291 -0.6549  0.4158
  924MOL0     C27393   2.832   7.515   0.028 -0.6036  0.2223  0.1687
  924MOL0     C27394   2.973   7.585   0.038 -0.2977 -0.7245 -0.1180
  924MOL0     C27395   3.083   7.535  -0.065 -0.8378  0.5520 -0.6131
  924MOL0     C27396   3.062   7.579  -0.209 -0.5124 -0.9036 -0.6765
  924MOL0     C27397   3.180   7.549  -0.296  0.4168 -0.0161 -0.6814
  924MOL0     O27398   3.310   7.604  -0.256  0.4268 -0.4508  0.8110
  924MOL0     C27399   3.407   7.618  -0.351  0.0860 -0.5724 -0.0244
  924MOL0     C27400   3.501   7.718  -0.331 -1.0702 -0.1051  0.5913
  924MOL0     C27401   3.624   7.741  -0.407 -0.2101 -0.1115  0.3788
  924MOL0     C27402   3.717   7.847  -0.356  0.2296 -0.6578  0.2544
  924MOL0     C27403   3.634   7.667  -0.529  0.5444  0.7665 -0.2950
  924MOL0     C27404   3.745   7.686  -0.621 -0.1132 -0.7600  0.7584
  924MOL0     O27405   3.733   7.664  -0.754 -0.5076  0.8160 -0.5633
  924MOL0     C27406   3.839   7.689  -0.843  0.6710 -0.3044 -0.2828
  924MOL0     C27407   3.861   7.814  -0.893 -0.2537  0.4653  0.5217
  924MOL0     C27408   3.971   7.843  -0.982  0.3197 -0.1865 -0.9899
  924MOL0     C27409   4.059   7.741  -1.014  0.2933  0.3425 -0.0635
  924MOL0     O27410   4.164   7.771  -1.096  0.1868  1.3630 -1.0914
  924MOL0     C27411   4.177   7.692  -1.217 -0.1700 -0.2793 -0.1773
  924MOL0     C27412   4.307   7.713  -1.293 -0.1491  0.4283  0.0088
  924MOL0     C27413   4.329   7.618  -1.408  0.9569 -0.5171 -0.3226
  924MOL0     C27414   4.463   7.646  -1.475  0.1731 -0.4725  0.1686
  924MOL0     C27415   4.466   7.568  -1.601  0.1469  0.5591  0.4419
  924MOL0     C27416   4.483   7.657  -1.727  0.4998 -0.2965 -0.3745
  924MOL0     C27417   4.346   7.731  -1.761 -0.7060  0.3433 -1.0099
  924MOL0     C27418   4.363   7.870  -1.801  0.7908  0.5030  0.3751
  924MOL0    Cl27419   4.412   7.958  -1.666 -0.1804  0.1024 -0.0474
  924MOL0     C27420   4.025   7.610  -0.971 -0.6790  0.0955 -0.6135
  924MOL0     C27421   3.929   7.582  -0.878 -0.2368 -0.3953 -1.6560
  924MOL0     O27422   3.851   7.710  -0.570  0.3585 -0.7186 -0.8876
  924MOL0     C27423   3.526   7.571  -0.556  0.4500  0.7019 -1.1429
  924MOL0     C27424   3.417   7.547  -0.464  0.7020 -0.6527 -0.1102
  924MOL0     N27425   2.807   7.381   0.001  0.0259  0.5994  0.1799
  924MOL0     N27426   2.684   7.349   0.023 -0.3878  0.3103 -1.1561
  924MOL0     C27427   2.158   8.038   0.385 -0.2754 -0.3479  0.3984
  924MOL0     C27428   2.165   8.155   0.316 -0.5061 -0.6542  0.2085
  924MOL0     C27429   2.113   8.476   0.007  0.2451 -0.2170 -0.2378
  924MOL0     C27430   2.014   8.563   0.032  0.7379  0.4791 -0.8649
  924MOL0     C27431   2.007   8.690  -0.034  0.0167  0.7602  0.8918
  924MOL0     C27432   2.093   8.737  -0.127 -1.2159  0.7427  0.2082
  924MOL0     O27433   2.091   8.840  -0.215 -0.1893 -0.1924 -0.2448
  924MOL0     C27434   2.016   8.959  -0.174 -0.0915  0.1654  0.4043
  924MOL0     C27435   2.042   9.072  -0.280  0.0446 -0.3160  0.4445
  924MOL0     C27436   2.177   9.146  -0.247 -0.0492  0.1522 -0.1789
  924MOL0     C27437   2.221   9.244  -0.356  0.3780  1.1468 -0.3553
  924MOL0     C27438   2.120   9.349  -0.361  0.4995 -0.0889 -0.3088
  924MOL0     C27439   2.034   9.432  -0.350  0.4423  0.0034  1.3903
  924MOL0     C27440   2.205   8.657  -0.146  0.1936 -0.7142  0.8013
  924MOL0     C27441   2.227   8.528  -0.087  0.2325 -0.8013  0.6761
  924MOL0     C27442   2.362   8.457  -0.112  0.0548  0.4906 -0.5658
  924MOL0     H27443   1.851   8.191   0.214 -0.7737 -1.1135 -0.7407
  924MOL0     H27444   1.840   7.956   0.298 -0.6809  0.8033 -1.2689
  924MOL0     H27445   1.972   7.694   0.539  0.2723 -0.7996 -1.2410
  924MOL0     H27446   2.036   7.864   0.586 -1.5665 -0.1047 -0.2466
  924MOL0     H27447   2.260   7.786   0.580 -2.4047  2.4642 -0.3393
  924MOL0     H27448   2.168   7.668   0.673 -0.2832  0.3215  0.4549
  924MOL0     H27449   2.286   7.527   0.562 -1.3539 -2.6366 -1.1121
  924MOL0     H27450   2.139   7.511   0.481 -1.1388  1.3745 -0.0443
  924MOL0     H27451   2.265   7.513   0.302  1.3489 -1.0684  1.8160
  924MOL0     H27452   2.205   7.680   0.301 -2.3928 -1.2811  1.0549
  924MOL0     H27453   2.425   7.741   0.419  0.2838  0.5422 -0.5463
  924MOL0     H27454   2.421   7.700   0.251 -1.7594  0.1431  1.8876
  924MOL0     H27455   2.613   7.600   0.326  1.0551 -2.2173 -0.6689
  924MOL0     H27456   2.521   7.529   0.468  1.1326  2.0969 -0.6145
  924MOL0     H27457   2.405   7.372   0.298 -1.3108  1.9242  1.5633
  924MOL0     H27458   2.575   7.357   0.313  0.3983  1.9367  1.6660
  924MOL0     H27459   2.448   7.379   0.063  0.7424  1.6745 -2.8949
  924MOL0     H27460   2.450   7.555   0.092  3.8223  1.5770 -3.2272
  924MOL0     H27461   2.713   7.660   0.128 -0.9699 -0.2488 -0.7671
  924MOL0     H27462   3.008   7.567   0.140 -1.6965  1.7351  0.8690
  924MOL0     H27463   2.968   7.693   0.020  0.0718 -1.0454 -2.3495
  924MOL0     H27464   3.174   7.576  -0.020  0.6689 -1.3691 -1.7481
  924MOL0     H27465   3.095   7.427  -0.069  2.3082  0.8574 -2.0481
  924MOL0     H27466   2.975   7.520  -0.238 -0.8043  0.0625 -1.8570
  924MOL0     H27467   3.031   7.684  -0.204  1.3749 -0.1570 -2.6535
  924MOL0     H27468   3.175   7.440  -0.307 -1.6611  0.0829 -1.1395
  924MOL0     H27469   3.157   7.582  -0.398 -0.1434 -2.3215 -1.3570
  924MOL0     H27470   3.502   7.764  -0.233  3.9149  1.8499 -0.0646
  924MOL0     H27471   3.821   7.817  -0.340  0.6619 -0.2535 -1.5222
  924MOL0     H27472   3.681   7.895  -0.264  0.5305  1.4847 -0.6797
  924MOL0     H27473   3.712   7.928  -0.430  2.9882 -0.3434  0.3103
  924MOL0     H27474   3.791   7.889  -0.857 -0.5471 -0.4542  1.9603
  924MOL0     H27475   3.991   7.943  -1.019  1.7384  0.0105  0.2052
  924MOL0     H27476   4.177   7.584  -1.200  0.6427  0.0819  2.4502
  924MOL0     H27477   4.096   7.727  -1.282 -0.2844 -0.7196 -0.2718
  924MOL0     H27478   4.305   7.821  -1.313 -0.1709  0.2818 -0.7904
  924MOL0     H27479   4.386   7.698  -1.219  1.1085  2.0442 -0.9275
  924MOL0     H27480   4.247   7.638  -1.478 -1.0286 -1.6982  1.5244
  924MOL0     H27481   4.330   7.515  -1.373  1.8923 -1.1449 -2.0739
  924MOL0     H27482   4.542   7.601  -1.414  2.4551  2.0833 -0.7309
  924MOL0     H27483   4.487   7.751  -1.489  0.1945 -0.3953  0.7639
  924MOL0     H27484   4.555   7.504  -1.597  0.6818  1.0163 -2.2052
  924MOL0     H27485   4.378   7.503  -1.609  0.3519  0.4542 -1.2407
  924MOL0     H27486   4.524   7.595  -1.808 -1.5732 -3.7683  0.9937
  924MOL0     H27487   4.563   7.732  -1.722  0.5162 -0.1935 -1.7934
  924MOL0     H27488   4.274   7.728  -1.679  0.8645 -3.8614  0.4607
  924MOL0     H27489   4.290   7.676  -1.838  1.3705 -3.4841 -0.0052
  924MOL0     H27490   4.265   7.902  -1.835  0.8699  0.9060  0.5252
  924MOL0     H27491   4.438   7.885  -1.880  1.0061 -2.0988 -0.0122
  924MOL0     H27492   4.086   7.527  -1.003 -1.7485 -1.9020  2.1598
  924MOL0     H27493   3.912   7.484  -0.836  4.6420  0.0139  2.1239
  924MOL0     H27494   3.523   7.508  -0.644  0.2379 -0.2583 -0.4710
  924MOL0     H27495   3.344   7.477  -0.503 -1.1817  1.6817 -1.0215
  924MOL0     H27496   2.250   8.022   0.440 -0.7826  1.5125  1.9398
  924MOL0     H27497   2.256   8.214   0.320  0.9048 -2.7963  1.3940
  924MOL0     H27498   1.932   8.531   0.096  1.9046 -0.1850  0.3491
  924MOL0     H27499   1.920   8.752  -0.017 -3.6457 -3.6346  0.1350
  924MOL0     H27500   1.912   8.927  -0.157  0.0075 -0.6687 -0.4417
  924MOL0     H27501   2.048   8.992  -0.075  3.3885 -1.8306  0.1140
  924MOL0     H27502   1.961   9.145  -0.288  1.0443  1.4150  3.9277
  924MOL0     H27503   2.052   9.031  -0.380 -0.2731  2.2321 -0.7184
  924MOL0     H27504   2.167   9.213  -0.161 -0.6391  1.1056 -0.9721
  924MOL0     H27505   2.249   9.067  -0.223  0.2414  0.4504 -0.0721
  924MOL0     H27506   2.231   9.197  -0.455  1.3784  0.2658  0.1508
  924MOL0     H27507   2.324   9.275  -0.340  1.0103 -1.3504  0.9237
  924MOL0     H27508   1.959   9.508  -0.334 -1.2679 -1.5493  1.0871
  924MOL0     H27509   2.283   8.700  -0.208  0.4966 -1.6405  0.5215
  924MOL0     H27510   2.422   8.459  -0.022 -0.9495  1.6699  0.1081
  924MOL0     H27511   2.329   8.358  -0.144 -1.3735  0.9041 -0.4913
  924MOL0     H27512   2.412   8.502  -0.198  0.8231 -0.8815 -0.8538
  925MOL0     O27513   0.810   5.842  10.589 -0.1861 -0.6023 -0.0628
  925MOL0     C27514   0.848   5.807  10.480 -0.1927  0.3733  0.0655
  925MOL0     O27515   0.822   5.683  10.420 -0.1337  0.3737 -0.0459
  925MOL0     C27516   0.871   5.638  10.306  0.6011 -0.4517  1.0038
  925MOL0     C27517   0.796   5.551  10.228  0.8583 -0.8352 -0.4238
  925MOL0     C27518   0.855   5.498  10.112 -0.2868  0.2366 -0.1235
  925MOL0     C27519   0.987   5.518  10.064  0.7500  1.1446  0.2077
  925MOL0     O27520   1.028   5.442   9.948 -0.0650 -0.1520  0.3713
  925MOL0     C27521   1.165   5.470   9.904 -0.1356  0.7288  0.4019
  925MOL0     C27522   1.194   5.452   9.751  0.5533  0.1261 -1.0518
  925MOL0     C27523   1.181   5.311   9.712  0.0145 -0.0121  0.4769
  925MOL0     C27524   1.242   5.295   9.575 -0.1530 -0.6248 -0.6257
  925MOL0     C27525   1.224   5.157   9.501  0.4534 -1.2036  0.2541
  925MOL0     C27526   1.071   5.129   9.461  0.0519 -0.3802 -0.1544
  925MOL0     C27527   1.022   5.204   9.337  0.3982  0.7493 -0.6630
  925MOL0     C27528   0.902   5.135   9.282 -0.0148  0.7124  0.1346
  925MOL0     N27529   0.780   5.218   9.296 -0.0941 -0.1113  1.1139
  925MOL0     C27530   0.766   5.354   9.303 -0.0918 -0.5036 -0.0114
  925MOL0     C27531   0.634   5.386   9.299  0.4095 -0.0299  0.4079
  925MOL0     C27532   0.573   5.517   9.286  0.3075 -0.1936  0.4402
  925MOL0     C27533   0.597   5.596   9.159  0.1650 -0.3929 -0.4898
  925MOL0     C27534   0.734   5.665   9.179 -0.3386  0.2405 -0.0749
  925MOL0     C27535   0.742   5.778   9.082  0.0098  0.9080 -0.4405
  925MOL0     O27536   0.649   5.883   9.122 -0.3392 -0.6692  0.9448
  925MOL0     C27537   0.683   5.976   9.212  0.3033 -0.0617  0.6494
  925MOL0     C27538   0.807   5.997   9.279 -0.4668  0.2650  0.6550
  925MOL0     C27539   0.827   6.110   9.360 -0.6477  0.4746  0.0450
  925MOL0     C27540   0.964   6.130   9.420  1.1567 -0.2671 -0.6459
  925MOL0     C27541   0.715   6.192   9.386 -0.1342  0.7748  0.1246
  925MOL0     C27542   0.723   6.318   9.466 -0.4548 -0.1228 -0.4344
  925MOL0     O27543   0.599   6.379   9.491 -0.1940  0.1105 -0.0133
  925MOL0     C27544   0.583   6.483   9.576 -0.3325 -0.1947 -0.5533
  925MOL0     C27545   0.467   6.559   9.554 -0.4901 -0.1191  1.1421
  925MOL0     C27546   0.426   6.661   9.637  0.0818 -0.0173 -1.1021
  925MOL0     C27547   0.501   6.695   9.749 -0.9318 -0.1300  0.5945
  925MOL0     O27548   0.467   6.794   9.831 -0.1995  0.1430  0.1673
  925MOL0     C27549   0.339   6.813   9.891 -0.4333 -0.5604 -0.2853
  925MOL0     C27550   0.248   6.908   9.833 -0.2132 -0.9757  0.5098
  925MOL0     C27551   0.272   7.043   9.895  0.0933 -0.5079 -0.9686
  925MOL0     C27552   0.153   7.134   9.875  0.0964  0.3568  0.3128
  925MOL0     C27553   0.177   7.260   9.961  0.2436 -0.0926  0.3846
  925MOL0     C27554   0.080   7.376   9.920 -0.6302 -0.4068 -0.1842
  925MOL0     C27555   0.073   7.498  10.012  1.3470  0.0180 -0.8063
  925MOL0     C27556   0.194   7.588  10.000 -0.1066  0.0792  0.3832
  925MOL0    Cl27557   0.205   7.640   9.829  0.0036 -0.3717 -0.0445
  925MOL0     C27558   0.627   6.640   9.761 -0.6808  0.2076  0.2111
  925MOL0     C27559   0.674   6.537   9.677  0.7324 -0.2673 -0.2560
  925MOL0     O27560   0.833   6.358   9.499 -0.3065 -1.0329 -0.4137
  925MOL0     C27561   0.585   6.149   9.334 -0.2969 -0.5750 -0.0097
  925MOL0     C27562   0.570   6.047   9.245 -0.5125 -0.5946 -0.1865
  925MOL0     N27563   0.569   5.264   9.315  0.3600  0.3478  0.1341
  925MOL0     N27564   0.656   5.167   9.321  0.2009 -0.4029 -0.2967
  925MOL0     C27565   1.064   5.602  10.149  0.1255  0.4670  0.1978
  925MOL0     C27566   1.008   5.652  10.270  0.1036  0.5559  0.6193
  925MOL0     C27567   0.906   5.914  10.387  0.1343  0.6930  0.0310
  925MOL0     C27568   0.831   5.943  10.273  0.6363 -0.0912 -0.2449
  925MOL0     C27569   0.868   6.053  10.193  0.0839  0.4416 -0.2865
  925MOL0     C27570   0.977   6.131  10.221 -0.4641 -0.4289  0.2574
  925MOL0     O27571   1.025   6.238  10.146 -0.2008  0.4025  0.7203
  925MOL0     C27572   0.936   6.347  10.138  0.3245  0.7325 -0.3553
  925MOL0     C27573   1.031   6.469  10.100 -0.0316 -1.2695 -0.1084
  925MOL0     C27574   0.969   6.605  10.127  0.0461 -0.8528  0.5447
  925MOL0     C27575   1.059   6.718  10.082  0.2151 -0.3290 -0.8150
  925MOL0     C27576   1.027   6.841  10.164 -0.7211  0.0333  0.3751
  925MOL0     C27577   1.012   6.938  10.233 -0.6138  1.0781  0.1060
  925MOL0     C27578   1.060   6.082  10.323  0.6239  0.3503 -0.1584
  925MOL0     C27579   1.031   5.981  10.413 -0.1153 -0.5653  0.2610
  925MOL0     C27580   1.106   5.974  10.542  1.2092  0.4968  0.7843
  925MOL0     H27581   0.693   5.533  10.257  0.9892  1.3219  1.7149
  925MOL0     H27582   0.790   5.438  10.050 -0.3239 -2.5976  2.4216
  925MOL0     H27583   1.228   5.397   9.956 -0.0795  1.0905  0.8440
  925MOL0     H27584   1.203   5.568   9.931 -0.8672  0.4980  2.4131
  925MOL0     H27585   1.126   5.514   9.692 -1.4403 -0.2212  0.7550
  925MOL0     H27586   1.294   5.493   9.732  0.8913 -0.0393  0.2798
  925MOL0     H27587   1.231   5.245   9.783  0.2745  0.2180  0.5093
  925MOL0     H27588   1.073   5.291   9.708 -0.2810  1.5508 -0.1125
  925MOL0     H27589   1.211   5.382   9.517  1.2218  1.9625  2.2157
  925MOL0     H27590   1.350   5.309   9.588  0.2044 -0.9297 -2.9093
  925MOL0     H27591   1.272   5.084   9.567  3.4951  0.9817  0.6455
  925MOL0     H27592   1.288   5.160   9.413 -2.2556 -0.0808 -1.8286
  925MOL0     H27593   1.066   5.025   9.427 -1.4557  0.3818 -2.5117
  925MOL0     H27594   1.005   5.139   9.549  0.0198 -0.6802 -0.1429
  925MOL0     H27595   1.101   5.199   9.261  0.9003 -0.6386 -0.0792
  925MOL0     H27596   1.009   5.308   9.370 -4.3141  0.1170  0.1718
  925MOL0     H27597   0.920   5.091   9.183 -1.6089 -1.0734  0.5677
  925MOL0     H27598   0.885   5.047   9.344  3.0788 -1.2258 -1.5552
  925MOL0     H27599   0.854   5.417   9.300 -0.0028 -0.1816  4.0485
  925MOL0     H27600   0.598   5.584   9.369 -1.4724  1.5393 -0.3265
  925MOL0     H27601   0.464   5.504   9.288  0.3135 -0.8112 -1.4327
  925MOL0     H27602   0.592   5.532   9.071  1.1064  0.5432 -1.2417
  925MOL0     H27603   0.513   5.664   9.150  1.1993  0.9133 -0.5679
  925MOL0     H27604   0.757   5.697   9.281 -2.3265 -0.7277  0.7260
  925MOL0     H27605   0.799   5.584   9.145 -1.1347  0.1669 -1.4850
  925MOL0     H27606   0.848   5.802   9.072  0.6830 -1.5026  0.0986
  925MOL0     H27607   0.705   5.742   8.986 -1.0960 -4.6922  1.6898
  925MOL0     H27608   0.886   5.926   9.261 -1.9581 -2.0152  2.5491
  925MOL0     H27609   1.001   6.219   9.369 -0.8376  0.2574 -1.2500
  925MOL0     H27610   1.025   6.043   9.396 -0.2518 -2.6899  3.4225
  925MOL0     H27611   0.957   6.137   9.529 -2.6249  0.8355 -0.8042
  925MOL0     H27612   0.413   6.534   9.463  1.1397 -1.5184  0.4966
  925MOL0     H27613   0.333   6.711   9.610  0.1636  1.2018  0.7231
  925MOL0     H27614   0.289   6.717   9.879 -2.7662  0.6211 -0.5726
  925MOL0     H27615   0.344   6.839   9.998  1.5585  0.0022 -0.4807
  925MOL0     H27616   0.260   6.909   9.725  1.0624  2.5599  0.5439
  925MOL0     H27617   0.148   6.869   9.853 -0.9650  0.3489 -0.5332
  925MOL0     H27618   0.357   7.087   9.840 -1.3330 -0.6399 -3.4387
  925MOL0     H27619   0.279   7.039  10.004 -0.8759  0.8035 -0.8364
  925MOL0     H27620   0.063   7.090   9.917  1.7081  0.4467  4.2174
  925MOL0     H27621   0.136   7.158   9.769 -0.6987  0.0350  0.3682
  925MOL0     H27622   0.160   7.230  10.065  3.2886 -0.7217  0.8099
  925MOL0     H27623   0.279   7.301   9.953 -1.0146  2.9410 -3.4416
  925MOL0     H27624  -0.014   7.323   9.937  1.1718 -3.1063  2.4254
  925MOL0     H27625   0.086   7.416   9.818 -0.9335  0.9044  0.2839
  925MOL0     H27626   0.039   7.486  10.115  0.4037  0.9700 -0.9787
  925MOL0     H27627  -0.006   7.568   9.981  1.0547  0.7875  1.4680
  925MOL0     H27628   0.281   7.531  10.034  0.7989  0.8978 -0.5222
  925MOL0     H27629   0.186   7.672  10.069  0.8247 -1.0154  1.8922
  925MOL0     H27630   0.692   6.692   9.831  1.0469  0.5175 -1.5299
  925MOL0     H27631   0.775   6.498   9.670  1.2643  1.2538 -3.9139
  925MOL0     H27632   0.506   6.219   9.362  1.8989  1.1108  2.3839
  925MOL0     H27633   0.476   6.024   9.197  0.6069 -0.6879 -2.4814
  925MOL0     H27634   1.170   5.607  10.126  0.4948 -2.3035  0.9682
  925MOL0     H27635   1.072   5.714  10.332  1.1124 -1.3146  1.5347
  925MOL0     H27636   0.745   5.878  10.253 -0.2801  1.1737 -0.5517
  925MOL0     H27637   0.823   6.067  10.095 -4.1613 -2.9603  0.8237
  925MOL0     H27638   0.863   6.323  10.061 -1.0972 -0.3622  1.2613
  925MOL0     H27639   0.885   6.376  10.230  0.6628  3.3763 -0.9230
  925MOL0     H27640   1.068   6.458   9.997  2.1374  3.9183 -0.1826
  925MOL0     H27641   1.108   6.461  10.176 -0.5229 -2.7629  0.2529
  925MOL0     H27642   0.883   6.604  10.059 -0.3225 -1.2400  1.0108
  925MOL0     H27643   0.952   6.609  10.235 -0.1568 -0.1664  0.4877
  925MOL0     H27644   1.055   6.748   9.977  1.9360  3.5050  0.0350
  925MOL0     H27645   1.164   6.691  10.094  0.1234  0.3082  2.6910
  925MOL0     H27646   0.995   7.030  10.286  0.7760 -0.0123  2.5924
  925MOL0     H27647   1.151   6.139  10.339  0.2197  0.6828  1.0655
  925MOL0     H27648   1.177   6.055  10.558  0.5557  1.0432  0.9311
  925MOL0     H27649   1.032   5.975  10.622 -0.3650  1.1865 -0.6200
  925MOL0     H27650   1.160   5.879  10.554  1.6586  0.7882  1.1323
  926MOL0     O27651   5.818   8.024   1.429 -0.2947 -0.1414  0.5181
  926MOL0     C27652   5.797   8.140   1.389  0.1554  0.9764  0.7247
  926MOL0     O27653   5.795   8.247   1.472 -0.8814 -0.0293 -0.2504
  926MOL0     C27654   5.813   8.230   1.605 -0.0448  0.3083 -0.3404
  926MOL0     C27655   5.765   8.128   1.694 -0.1868  0.2988 -0.3814
  926MOL0     C27656   5.794   8.120   1.823 -0.6132  0.1101 -0.6628
  926MOL0     C27657   5.884   8.213   1.882  0.1664  0.7361 -0.4171
  926MOL0     O27658   5.921   8.211   2.017 -0.3530 -0.5654  0.0678
  926MOL0     C27659   5.849   8.117   2.098  0.5801  0.4572 -0.8536
  926MOL0     C27660   5.867   8.163   2.244 -0.6004 -0.6785 -0.5170
  926MOL0     C27661   5.828   8.058   2.350 -0.0266  0.7415  0.6749
  926MOL0     C27662   5.921   7.941   2.350  0.1572 -0.5536 -0.0321
  926MOL0     C27663   5.901   7.872   2.488  0.1641  0.6610 -0.4313
  926MOL0     C27664   5.758   7.819   2.507 -0.1355 -0.3116  0.5384
  926MOL0     C27665   5.739   7.736   2.629 -0.2120  0.9279  0.0320
  926MOL0     C27666   5.600   7.697   2.653 -0.0175  0.1550 -0.0158
  926MOL0     N27667   5.577   7.597   2.766 -0.6880 -1.2724  0.1971
  926MOL0     C27668   5.558   7.463   2.737 -0.7153 -0.3578  0.2715
  926MOL0     C27669   5.551   7.407   2.859 -0.0257 -0.7114 -0.9554
  926MOL0     C27670   5.539   7.254   2.885 -1.4075 -0.1229  0.0896
  926MOL0     C27671   5.674   7.182   2.845  0.2028 -0.5599 -0.0186
  926MOL0     C27672   5.663   7.035   2.795 -0.0181  0.2148  0.6618
  926MOL0     C27673   5.563   7.026   2.677 -0.7108 -0.0116  0.2152
  926MOL0     O27674   5.609   7.115   2.574  0.1830  0.2980  0.2545
  926MOL0     C27675   5.541   7.094   2.459 -0.3344  0.3568  0.0379
  926MOL0     C27676   5.585   7.184   2.371  0.0731  0.8560 -0.0166
  926MOL0     C27677   5.537   7.192   2.234 -0.6943 -0.2015 -0.3051
  926MOL0     C27678   5.612   7.286   2.141 -0.1072  0.1408 -0.6337
  926MOL0     C27679   5.429   7.112   2.197  1.4405  0.2290 -1.1030
  926MOL0     C27680   5.355   7.091   2.068  0.3369 -0.2716  0.4432
  926MOL0     O27681   5.237   7.025   2.067  0.1562  1.0152  1.1944
  926MOL0     C27682   5.163   7.034   1.952  0.9079  0.0792  0.9504
  926MOL0     C27683   5.046   7.119   1.943  0.2825  0.3486  0.0858
  926MOL0     C27684   4.967   7.112   1.826  0.3766 -0.5333 -0.0299
  926MOL0     C27685   5.007   7.042   1.719 -0.3742  0.0157  0.6383
  926MOL0     O27686   4.939   7.036   1.597  0.3619  0.1091  0.0624
  926MOL0     C27687   4.820   7.108   1.570  0.1062 -0.0567  1.0954
  926MOL0     C27688   4.746   7.044   1.464 -0.0051  0.5247 -0.4892
  926MOL0     C27689   4.818   7.072   1.335 -0.5768  0.2812  0.4105
  926MOL0     C27690   4.763   7.002   1.216 -0.1535  0.2737  0.7592
  926MOL0     C27691   4.807   7.072   1.091  1.1380 -0.6900  0.2393
  926MOL0     C27692   4.746   7.211   1.059  0.2099  0.0793  0.1665
  926MOL0     C27693   4.801   7.262   0.929  0.3606  0.1355 -1.2527
  926MOL0     C27694   4.730   7.384   0.875  1.3406  0.3357  0.8912
  926MOL0    Cl27695   4.745   7.527   0.975 -0.0092  0.0597 -0.0208
  926MOL0     C27696   5.118   6.965   1.722 -0.8090  0.2312  0.0063
  926MOL0     C27697   5.200   6.956   1.839  0.2641  0.1608  0.5425
  926MOL0     O27698   5.411   7.146   1.975 -0.2901 -0.4580 -0.1036
  926MOL0     C27699   5.378   7.021   2.300 -0.3428 -0.0086 -0.0293
  926MOL0     C27700   5.433   7.013   2.422  0.3355 -0.0597  0.4288
  926MOL0     N27701   5.575   7.502   2.956 -0.3900 -0.7087  0.2577
  926MOL0     N27702   5.582   7.617   2.899 -0.6171 -0.0100 -0.2375
  926MOL0     C27703   5.940   8.308   1.797  1.0128 -0.7465 -0.4911
  926MOL0     C27704   5.911   8.315   1.659  0.1613  0.2327  0.3170
  926MOL0     C27705   5.779   8.168   1.245 -0.1675  0.0019 -0.2744
  926MOL0     C27706   5.759   8.051   1.168 -0.0323  0.4468 -0.4608
  926MOL0     C27707   5.720   8.057   1.037  0.3214  0.3585  0.9876
  926MOL0     C27708   5.724   8.178   0.964  0.2710  0.2126 -0.0905
  926MOL0     O27709   5.694   8.195   0.830 -0.1648 -0.6648  0.8788
  926MOL0     C27710   5.674   8.075   0.761 -0.3540  0.0393 -0.1483
  926MOL0     C27711   5.632   8.083   0.614  0.4021  0.5749 -0.6484
  926MOL0     C27712   5.697   8.180   0.516 -0.3367  0.0216  0.8133
  926MOL0     C27713   5.858   8.174   0.514  0.8969 -0.2116  0.0367
  926MOL0     C27714   5.917   8.244   0.625 -0.0473 -0.2639 -0.0806
  926MOL0     C27715   5.965   8.307   0.717 -0.3125  0.1487 -0.3674
  926MOL0     C27716   5.754   8.299   1.046 -0.3706  0.8924 -0.0461
  926MOL0     C27717   5.775   8.298   1.187 -0.4065  1.1215 -0.4832
  926MOL0     C27718   5.791   8.436   1.253 -0.0653  0.3867 -0.5820
  926MOL0     H27719   5.696   8.056   1.651  0.6229 -0.5290 -0.3222
  926MOL0     H27720   5.736   8.049   1.882 -1.5210  2.0443  0.8972
  926MOL0     H27721   5.889   8.018   2.074 -0.1001  0.0310 -0.2608
  926MOL0     H27722   5.742   8.118   2.078  0.0989 -0.0703  1.4490
  926MOL0     H27723   5.973   8.189   2.245 -1.3642  2.9836 -1.6251
  926MOL0     H27724   5.810   8.251   2.271  0.5522 -0.4338  1.2525
  926MOL0     H27725   5.808   8.099   2.450 -0.4506  1.7052  0.2043
  926MOL0     H27726   5.728   8.017   2.334 -0.3662  1.1708  1.5849
  926MOL0     H27727   5.912   7.870   2.267 -1.0546 -1.3374  0.7334
  926MOL0     H27728   6.012   8.001   2.352 -1.8025  2.6300  0.2434
  926MOL0     H27729   5.930   7.930   2.576 -1.6444  0.1549  0.5790
  926MOL0     H27730   5.964   7.782   2.488 -2.1617 -1.0897  0.3949
  926MOL0     H27731   5.692   7.905   2.519 -2.1277 -0.4642 -5.7263
  926MOL0     H27732   5.730   7.768   2.415  2.0414 -2.3122  0.8841
  926MOL0     H27733   5.788   7.783   2.715  0.5101  1.1583 -0.4928
  926MOL0     H27734   5.788   7.641   2.604  1.5666  1.6923  0.4331
  926MOL0     H27735   5.519   7.771   2.658 -0.9251 -0.8756  3.2925
  926MOL0     H27736   5.570   7.636   2.567 -0.5028 -0.2394  0.4216
  926MOL0     H27737   5.560   7.416   2.639  0.7894 -0.6224  0.4095
  926MOL0     H27738   5.450   7.223   2.831 -1.8552 -0.8442  1.1992
  926MOL0     H27739   5.510   7.239   2.990 -0.4611 -0.3518  0.3338
  926MOL0     H27740   5.725   7.242   2.769 -1.6062  0.1737 -0.7343
  926MOL0     H27741   5.740   7.185   2.932  0.0081  1.6699  0.1251
  926MOL0     H27742   5.755   6.993   2.755 -0.3555  0.6827 -0.6479
  926MOL0     H27743   5.617   6.980   2.878 -0.4191 -0.3128  0.0990
  926MOL0     H27744   5.559   6.925   2.634 -0.7322  1.0371 -2.4576
  926MOL0     H27745   5.465   7.057   2.714 -0.7347 -0.9932  1.0413
  926MOL0     H27746   5.668   7.251   2.392 -1.6918  2.9036  0.7582
  926MOL0     H27747   5.700   7.328   2.191 -0.6664 -0.3469  0.8091
  926MOL0     H27748   5.546   7.368   2.111 -0.0198  0.9331  1.1611
  926MOL0     H27749   5.643   7.232   2.052 -1.4008  0.3948 -1.2651
  926MOL0     H27750   5.020   7.172   2.034 -0.4859 -1.8348  1.2043
  926MOL0     H27751   4.876   7.171   1.824  1.1204  0.6806  1.0530
  926MOL0     H27752   4.755   7.093   1.658 -0.7420 -2.9676  0.0673
  926MOL0     H27753   4.831   7.215   1.552  0.9773  0.2401  3.0692
  926MOL0     H27754   4.750   6.936   1.479 -0.8037  0.7839  2.2382
  926MOL0     H27755   4.642   7.078   1.468  0.0575  0.7075  3.0320
  926MOL0     H27756   4.922   7.038   1.345 -0.8624 -1.0025 -0.6671
  926MOL0     H27757   4.818   7.180   1.320  4.9984  0.4238 -0.7096
  926MOL0     H27758   4.655   7.009   1.229 -0.2288  0.2430  0.1697
  926MOL0     H27759   4.790   6.896   1.211  0.2053  0.4153 -0.6667
  926MOL0     H27760   4.914   7.093   1.095  0.9050  0.6332  0.0385
  926MOL0     H27761   4.778   7.013   1.004 -1.8628  1.3535 -0.3136
  926MOL0     H27762   4.786   7.270   1.142  0.3870 -0.4900  0.4878
  926MOL0     H27763   4.637   7.212   1.063  0.1020 -0.0039 -1.8285
  926MOL0     H27764   4.780   7.181   0.859  0.0497 -1.1590  0.2671
  926MOL0     H27765   4.910   7.275   0.932  0.1933  1.5401  0.8000
  926MOL0     H27766   4.626   7.368   0.845  2.4423  2.0579 -5.2386
  926MOL0     H27767   4.783   7.416   0.785  2.3217 -0.6291  1.1022
  926MOL0     H27768   5.133   6.893   1.642  2.9900  0.2085  0.5790
  926MOL0     H27769   5.287   6.895   1.819  0.1997  0.3496 -0.3485
  926MOL0     H27770   5.299   6.950   2.278 -1.2198  0.9139  0.0069
  926MOL0     H27771   5.397   6.942   2.496  0.9257  0.9787  1.7586
  926MOL0     H27772   6.020   8.373   1.831 -0.5266  0.6914  0.5244
  926MOL0     H27773   5.976   8.372   1.593  1.3724  0.4496  1.6504
  926MOL0     H27774   5.785   7.958   1.216  0.1207  1.3424  1.2955
  926MOL0     H27775   5.689   7.959   1.004  0.3019  0.2682  1.2710
  926MOL0     H27776   5.767   8.017   0.760 -1.1024 -1.2262  1.0027
  926MOL0     H27777   5.592   8.022   0.810 -0.7713 -1.0677 -1.9664
  926MOL0     H27778   5.531   8.123   0.605 -0.4687 -1.1791  0.8430
  926MOL0     H27779   5.621   7.982   0.574 -1.1879 -0.9759  3.2335
  926MOL0     H27780   5.657   8.158   0.416 -0.0340  0.0962  0.6724
  926MOL0     H27781   5.665   8.281   0.543 -1.1509  0.5622 -1.8255
  926MOL0     H27782   5.886   8.237   0.429  1.3373  2.8240  2.2534
  926MOL0     H27783   5.908   8.077   0.504  1.4511 -0.1487  1.8703
  926MOL0     H27784   5.991   8.357   0.808  1.1774 -1.5648  0.2159
  926MOL0     H27785   5.751   8.392   0.991  2.5170  0.3485 -1.3243
  926MOL0     H27786   5.840   8.429   1.350  1.8649 -1.8571 -1.6198
  926MOL0     H27787   5.859   8.492   1.188 -1.5040 -0.3852 -2.8764
  926MOL0     H27788   5.699   8.496   1.259 -0.5409 -0.3474 -0.4396
  927MOL0     O27789   1.606   3.970  11.212 -0.2268 -0.9158  0.8841
  927MOL0     C27790   1.678   4.073  11.232 -0.5536 -0.4569  0.2705
  927MOL0     O27791   1.783   4.107  11.155 -0.9032 -0.7870 -0.8339
  927MOL0     C27792   1.826   4.012  11.061 -0.0537  0.2006 -0.0485
  927MOL0     C27793   1.757   3.963  10.943  0.3576 -0.8187 -0.5125
  927MOL0     C27794   1.825   3.887  10.848 -0.7243 -0.1883 -0.4781
  927MOL0     C27795   1.961   3.838  10.872  0.5430  0.4878 -0.4823
  927MOL0     O27796   2.011   3.756  10.774  0.7867 -0.5481  0.0862
  927MOL0     C27797   2.120   3.669  10.798 -0.0808 -0.5544  0.5022
  927MOL0     C27798   2.156   3.564  10.690 -0.9687  0.2399  0.0032
  927MOL0     C27799   2.301   3.522  10.688 -0.0115  0.3086  0.5606
  927MOL0     C27800   2.323   3.396  10.594  0.4509  0.1396 -0.2216
  927MOL0     C27801   2.465   3.356  10.607  0.1708  0.0361  0.2188
  927MOL0     C27802   2.484   3.218  10.549 -0.2609  0.3912  0.5304
  927MOL0     C27803   2.622   3.170  10.574  0.1759  0.3121  0.1093
  927MOL0     C27804   2.608   3.076  10.697  0.0620  0.0516 -0.0238
  927MOL0     N27805   2.745   3.036  10.735  0.0915  0.1302  0.6658
  927MOL0     C27806   2.838   3.118  10.780 -0.4976 -0.0940 -0.4912
  927MOL0     C27807   2.952   3.044  10.775  0.3478  0.1937 -0.1713
  927MOL0     C27808   3.084   3.082  10.824 -0.3511  0.6520 -0.4093
  927MOL0     C27809   3.087   3.105  10.970 -0.0412 -0.0890 -0.0775
  927MOL0     C27810   3.223   3.121  11.033  0.3620  0.5016 -0.0333
  927MOL0     C27811   3.332   3.012  11.023 -0.5716 -0.4429 -0.4239
  927MOL0     O27812   3.287   2.883  11.063  0.3709  0.2248  0.1474
  927MOL0     C27813   3.300   2.855  11.202 -0.4639  0.6733  0.2436
  927MOL0     C27814   3.414   2.888  11.283 -0.5578 -0.8112  0.4686
  927MOL0     C27815   3.417   2.867  11.414 -0.8713  0.1889 -0.3073
  927MOL0     C27816   3.548   2.892  11.484  0.0335 -0.8372  0.0039
  927MOL0     C27817   3.305   2.815  11.483  1.0648 -0.2955 -0.2591
  927MOL0     C27818   3.293   2.803  11.635  0.6540  0.5020 -0.8380
  927MOL0     O27819   3.162   2.798  11.700 -0.4636 -0.0229 -0.0922
  927MOL0     C27820   3.145   2.794  11.836 -0.1212  0.0804 -0.1850
  927MOL0     C27821   3.017   2.741  11.865 -0.2485  0.3272  0.0235
  927MOL0     C27822   2.964   2.749  11.995 -0.0724  0.2709 -0.2624
  927MOL0     C27823   3.039   2.812  12.098 -0.0523 -0.1703  0.2248
  927MOL0     O27824   2.988   2.812  12.225 -1.4051  0.3013 -1.1594
  927MOL0     C27825   3.041   2.712  12.304  0.1594  0.6926  0.1064
  927MOL0     C27826   2.969   2.580  12.277 -1.1014 -0.3957  0.0212
  927MOL0     C27827   3.041   2.463  12.347 -0.1072 -1.3450 -0.1582
  927MOL0     C27828   3.189   2.443  12.292  0.5754 -0.5531  0.3714
  927MOL0     C27829   3.241   2.321  12.369 -0.2095  0.5615 -1.1705
  927MOL0     C27830   3.388   2.290  12.323  0.0607  0.8030 -0.5110
  927MOL0     C27831   3.426   2.149  12.365 -0.4514  0.0389  0.2063
  927MOL0     C27832   3.542   2.111  12.279 -0.6480 -0.4036  0.4174
  927MOL0    Cl27833   3.602   1.953  12.332  0.1956  0.3101 -0.0207
  927MOL0     C27834   3.166   2.867  12.075 -0.4168 -1.1890  0.9014
  927MOL0     C27835   3.218   2.857  11.943  0.3417  0.2021 -0.8451
  927MOL0     O27836   3.392   2.789  11.698 -0.4947  0.6631  0.3535
  927MOL0     C27837   3.198   2.775  11.396 -0.0512  0.3696  0.7262
  927MOL0     C27838   3.188   2.800  11.261 -0.8068 -0.3236 -0.6970
  927MOL0     N27839   2.923   2.911  10.739 -0.6896  0.0614 -0.4995
  927MOL0     N27840   2.794   2.916  10.706  0.2638  0.6058  0.0063
  927MOL0     C27841   2.025   3.868  10.990 -0.4844 -0.6641 -0.4698
  927MOL0     C27842   1.956   3.951  11.082  0.0263 -0.9552 -0.0457
  927MOL0     C27843   1.641   4.156  11.349  0.3353 -0.0396 -0.3511
  927MOL0     C27844   1.754   4.200  11.434  0.3427  0.1402  0.4085
  927MOL0     C27845   1.723   4.291  11.545 -0.4378  0.8417  0.8454
  927MOL0     C27846   1.593   4.322  11.583 -0.2097 -0.0093  0.1068
  927MOL0     O27847   1.586   4.395  11.697  0.7440  0.4585 -0.0029
  927MOL0     C27848   1.520   4.519  11.684  0.1953 -0.3219  0.2723
  927MOL0     C27849   1.602   4.618  11.597 -0.2947  0.4796 -0.2725
  927MOL0     C27850   1.555   4.755  11.618  0.7678 -0.6322 -0.6166
  927MOL0     C27851   1.429   4.794  11.554 -0.8356 -0.4697  0.9387
  927MOL0     C27852   1.404   4.936  11.563  0.8048  0.0453  0.4055
  927MOL0     C27853   1.399   5.053  11.554 -0.0402 -0.2633  0.3959
  927MOL0     C27854   1.486   4.278  11.494  0.0017 -0.3405 -1.0848
  927MOL0     C27855   1.512   4.202  11.380  0.7170  0.0631 -0.4713
  927MOL0     C27856   1.400   4.162  11.287  0.6290 -0.4880 -0.0113
  927MOL0     H27857   1.660   4.010  10.925  0.7180  0.7564  1.3979
  927MOL0     H27858   1.760   3.851  10.769 -2.0468  1.9642 -0.4579
  927MOL0     H27859   2.104   3.620  10.894 -0.9954 -0.6171  0.3271
  927MOL0     H27860   2.208   3.733  10.813 -0.9803  1.2078 -1.2211
  927MOL0     H27861   2.096   3.477  10.720 -0.8270  0.7288  1.8384
  927MOL0     H27862   2.129   3.598  10.589  1.5698  1.3862 -0.3558
  927MOL0     H27863   2.354   3.611  10.653 -0.5403  1.2734  2.1009
  927MOL0     H27864   2.328   3.503  10.792 -0.0031 -1.8227  0.2137
  927MOL0     H27865   2.262   3.317  10.638 -0.4607  1.0347  0.1797
  927MOL0     H27866   2.293   3.423  10.492  1.2470  1.5997 -0.0938
  927MOL0     H27867   2.491   3.353  10.713 -0.0567  0.1805  0.2784
  927MOL0     H27868   2.523   3.437  10.561 -3.8836  3.6648  0.9447
  927MOL0     H27869   2.413   3.148  10.594 -0.7888  0.0596 -0.7710
  927MOL0     H27870   2.471   3.217  10.441 -0.8559 -0.2592  0.5969
  927MOL0     H27871   2.679   3.258  10.604 -0.3876  2.0360 -3.3014
  927MOL0     H27872   2.660   3.114  10.488 -0.5105 -0.7374  0.4769
  927MOL0     H27873   2.563   3.129  10.781  1.2159  0.8317  0.1111
  927MOL0     H27874   2.543   2.989  10.680 -0.2624  0.5177 -1.3066
  927MOL0     H27875   2.826   3.223  10.807 -2.0486 -1.2742  4.5564
  927MOL0     H27876   3.102   3.175  10.769  1.4269  2.0724  2.3633
  927MOL0     H27877   3.159   3.003  10.809  1.2273  1.6531  1.6666
  927MOL0     H27878   3.041   3.204  10.978 -1.2390 -0.5152 -1.3105
  927MOL0     H27879   3.031   3.029  11.025  0.2063  0.3522  0.7966
  927MOL0     H27880   3.266   3.215  10.997  1.4820 -0.1545 -0.4768
  927MOL0     H27881   3.198   3.133  11.139 -0.8827 -1.7384 -0.0079
  927MOL0     H27882   3.366   3.021  10.919  0.1723 -0.5570 -0.1903
  927MOL0     H27883   3.416   3.046  11.083  1.8079 -3.0248 -2.0321
  927MOL0     H27884   3.509   2.916  11.240 -0.7460  2.3120  1.8237
  927MOL0     H27885   3.597   2.795  11.490 -1.8882 -1.7999  1.5907
  927MOL0     H27886   3.537   2.937  11.583 -1.0814 -0.2198 -0.3860
  927MOL0     H27887   3.611   2.958  11.425 -0.7690 -0.9260 -0.9785
  927MOL0     H27888   2.966   2.689  11.784 -2.2528  3.5370 -0.9549
  927MOL0     H27889   2.866   2.706  12.011  1.6748 -3.8984  0.7151
  927MOL0     H27890   3.148   2.709  12.280  0.1149 -2.4646 -0.1147
  927MOL0     H27891   3.028   2.738  12.409  0.1875  0.0071  0.2857
  927MOL0     H27892   2.866   2.595  12.309 -1.7758  1.6125 -2.7927
  927MOL0     H27893   2.974   2.561  12.170  2.2837 -1.5844  0.2403
  927MOL0     H27894   2.974   2.377  12.336 -1.2344 -0.5338  0.2261
  927MOL0     H27895   3.033   2.482  12.454 -0.5090  0.5390 -0.4998
  927MOL0     H27896   3.241   2.529  12.334 -0.9175 -1.3802  4.3785
  927MOL0     H27897   3.200   2.449  12.184 -1.6081 -1.1881  0.0670
  927MOL0     H27898   3.233   2.347  12.475 -0.6325  4.0269 -1.9565
  927MOL0     H27899   3.185   2.229  12.350  0.7414 -0.4430  0.5739
  927MOL0     H27900   3.446   2.361  12.384  0.1308 -0.6867  1.2519
  927MOL0     H27901   3.404   2.298  12.216  0.6082 -2.2748 -0.7344
  927MOL0     H27902   3.357   2.073  12.327  0.5535 -0.1851 -1.2885
  927MOL0     H27903   3.449   2.137  12.471  4.0520  1.8142 -0.3359
  927MOL0     H27904   3.620   2.184  12.302  1.8778 -2.5535 -0.7914
  927MOL0     H27905   3.522   2.111  12.171  2.4857  0.7171 -0.2904
  927MOL0     H27906   3.219   2.904  12.162 -3.4967  0.2805  2.3301
  927MOL0     H27907   3.313   2.901  11.913  0.4808 -1.1970 -2.6572
  927MOL0     H27908   3.109   2.739  11.447 -0.4653 -1.3238 -1.0873
  927MOL0     H27909   3.099   2.770  11.205 -0.3940 -0.5992 -1.2172
  927MOL0     H27910   2.126   3.830  11.008 -0.0526 -0.5843 -2.4716
  927MOL0     H27911   1.994   3.981  11.179 -0.4906  0.1626 -0.1704
  927MOL0     H27912   1.851   4.178  11.391  0.0749 -3.4180  1.2496
  927MOL0     H27913   1.800   4.320  11.617  1.4393  1.2688 -1.2183
  927MOL0     H27914   1.427   4.512  11.628  0.3340 -5.2022  0.2338
  927MOL0     H27915   1.503   4.552  11.787  1.2000  1.1039  0.0209
  927MOL0     H27916   1.597   4.591  11.491  0.6739  0.4414 -0.3108
  927MOL0     H27917   1.706   4.608  11.629 -1.0153 -1.3561  1.7736
  927MOL0     H27918   1.546   4.776  11.725  2.7018  0.8078 -0.6854
  927MOL0     H27919   1.626   4.815  11.560  1.5273  0.4677  1.3567
  927MOL0     H27920   1.352   4.730  11.597 -2.3605  1.6048  1.4092
  927MOL0     H27921   1.427   4.788  11.445  0.0620 -1.0010  0.9411
  927MOL0     H27922   1.412   5.158  11.542  3.3761 -0.5234  0.6747
  927MOL0     H27923   1.388   4.319  11.515 -0.5811 -2.2562  0.2596
  927MOL0     H27924   1.389   4.053  11.279 -0.4338 -0.3563 -0.6026
  927MOL0     H27925   1.308   4.217  11.311  0.2816 -0.3880 -1.4473
  927MOL0     H27926   1.424   4.203  11.188  0.6034 -0.0772  0.1523
  928MOL0     O27927   4.736   0.371   7.384  0.1657 -0.0594 -0.8775
  928MOL0     C27928   4.627   0.395   7.333  0.5674 -0.4316 -0.5291
  928MOL0     O27929   4.511   0.328   7.356 -0.1539 -0.2398 -0.0783
  928MOL0     C27930   4.527   0.224   7.449  0.1087  0.4451  0.0089
  928MOL0     C27931   4.606   0.118   7.410 -0.6429 -0.1976  0.1206
  928MOL0     C27932   4.633   0.010   7.496 -0.2960 -0.5164 -0.0056
  928MOL0     C27933   4.577   0.015   7.622  0.4118  0.0798  0.7981
  928MOL0     O27934   4.602  -0.098   7.694 -0.0951 -0.2936 -0.0310
  928MOL0     C27935   4.587  -0.091   7.837  0.5386  0.6711 -0.3438
  928MOL0     C27936   4.569  -0.232   7.883  0.6656  0.8928 -0.4516
  928MOL0     C27937   4.487  -0.241   8.016  0.4833  0.2128 -0.0883
  928MOL0     C27938   4.565  -0.192   8.140  0.1955 -0.7729 -0.3678
  928MOL0     C27939   4.466  -0.179   8.260 -0.4773  0.7730  1.2399
  928MOL0     C27940   4.518  -0.124   8.387 -0.0067 -0.3293 -0.3553
  928MOL0     C27941   4.535   0.025   8.385  0.3043  0.0692  0.4530
  928MOL0     C27942   4.393   0.094   8.406 -0.6569  0.8743 -0.1780
  928MOL0     N27943   4.410   0.235   8.377 -0.0753  0.2746  0.1978
  928MOL0     C27944   4.502   0.313   8.447  0.1470 -0.5364 -0.2213
  928MOL0     C27945   4.495   0.437   8.389  0.5847 -0.0441 -0.2785
  928MOL0     C27946   4.587   0.551   8.430  0.1821 -0.5710  0.3405
  928MOL0     C27947   4.689   0.569   8.318  0.6955 -0.2060  0.0650
  928MOL0     C27948   4.630   0.618   8.178 -0.6303  0.0804 -0.3972
  928MOL0     C27949   4.733   0.692   8.095 -0.5879 -0.1735  0.4414
  928MOL0     O27950   4.862   0.620   8.092 -0.0593 -0.8018  0.4643
  928MOL0     C27951   4.954   0.657   8.186  0.2135  0.0035  0.3476
  928MOL0     C27952   5.036   0.555   8.236  1.1813  0.3808 -0.9494
  928MOL0     C27953   5.139   0.581   8.333 -0.1561 -0.2950 -0.7876
  928MOL0     C27954   5.227   0.476   8.381 -0.0392 -0.4754  0.0213
  928MOL0     C27955   5.160   0.727   8.361 -0.2646  0.8746  0.4413
  928MOL0     C27956   5.254   0.787   8.461 -0.8797 -0.0939 -0.9161
  928MOL0     O27957   5.342   0.704   8.518 -0.8930  0.0949 -0.4872
  928MOL0     C27958   5.442   0.728   8.611 -0.1584  0.5807 -0.3755
  928MOL0     C27959   5.448   0.828   8.704  0.3711 -0.6331  0.1994
  928MOL0     C27960   5.540   0.835   8.805 -0.1210 -0.0236 -0.1976
  928MOL0     C27961   5.623   0.729   8.831  0.3511 -0.2823 -0.7843
  928MOL0     O27962   5.721   0.749   8.933 -1.0028 -0.5419  0.9249
  928MOL0     C27963   5.850   0.682   8.914  0.1735 -1.1925 -0.6036
  928MOL0     C27964   5.939   0.715   9.041  0.5180 -0.4631 -0.1880
  928MOL0     C27965   5.964   0.860   9.055  0.0597  0.4966 -0.7905
  928MOL0     C27966   6.033   0.911   9.184  0.4096  0.4957  0.3719
  928MOL0     C27967   6.068   1.067   9.185 -0.8962  0.9007 -0.8536
  928MOL0     C27968   6.136   1.076   9.319  1.0283  0.2033  0.1539
  928MOL0     C27969   6.193   1.216   9.348 -0.3953  0.4988  0.5217
  928MOL0     C27970   6.299   1.266   9.246  0.5901 -0.0459  0.0246
  928MOL0    Cl27971   6.452   1.169   9.277  0.1537 -0.3272 -0.6188
  928MOL0     C27972   5.632   0.622   8.736  0.6229 -1.0652  0.2323
  928MOL0     C27973   5.539   0.632   8.631 -0.1183 -0.0270  0.4696
  928MOL0     O27974   5.280   0.906   8.450  1.1961  0.7518 -0.4665
  928MOL0     C27975   5.081   0.827   8.301  0.0531 -0.5507  0.3493
  928MOL0     C27976   4.972   0.794   8.212 -0.2717  0.1231 -1.1242
  928MOL0     N27977   4.401   0.430   8.286 -0.2325  0.0878  0.1941
  928MOL0     N27978   4.364   0.307   8.278  0.2108 -0.7935 -0.1291
  928MOL0     C27979   4.496   0.123   7.663 -0.6294  0.4592  0.5756
  928MOL0     C27980   4.472   0.230   7.576 -0.1955 -0.5659 -0.5652
  928MOL0     C27981   4.615   0.506   7.238 -1.4747  0.2169 -0.1345
  928MOL0     C27982   4.495   0.580   7.229  1.0347 -1.1691  0.5800
  928MOL0     C27983   4.469   0.680   7.134 -0.0551  0.7660 -0.1222
  928MOL0     C27984   4.565   0.705   7.037  0.3894 -0.1039  0.1680
  928MOL0     O27985   4.532   0.801   6.951  0.3859  0.4868  0.6481
  928MOL0     C27986   4.462   0.752   6.838  0.3678  0.3494 -0.0393
  928MOL0     C27987   4.376   0.863   6.795  0.2363  0.6097  0.4218
  928MOL0     C27988   4.435   0.984   6.718 -0.6911 -0.7753  0.3497
  928MOL0     C27989   4.337   1.101   6.700  0.5722  0.8732 -0.1067
  928MOL0     C27990   4.230   1.046   6.620  0.4989  0.5508  0.4385
  928MOL0     C27991   4.130   1.001   6.566 -0.0182  0.2753 -0.4898
  928MOL0     C27992   4.686   0.649   7.046  0.9031 -0.4615  0.6835
  928MOL0     C27993   4.710   0.552   7.142  0.0333  0.6755 -0.1614
  928MOL0     C27994   4.843   0.477   7.142 -0.6066  0.5094 -0.3288
  928MOL0     H27995   4.650   0.112   7.310 -0.3093  0.8357  0.1912
  928MOL0     H27996   4.691  -0.074   7.459 -1.5305 -0.5822 -1.9345
  928MOL0     H27997   4.500  -0.030   7.862 -0.8121 -1.6706  1.0270
  928MOL0     H27998   4.672  -0.043   7.887  0.9833  2.5781 -2.7429
  928MOL0     H27999   4.510  -0.286   7.808  1.2829  0.2125 -0.4493
  928MOL0     H28000   4.672  -0.261   7.903  1.6194  5.2809  2.4597
  928MOL0     H28001   4.399  -0.178   8.003  1.6712  1.6612 -1.3925
  928MOL0     H28002   4.462  -0.347   8.024  2.7739 -0.4586 -1.1089
  928MOL0     H28003   4.654  -0.252   8.163 -0.0464 -0.5297  1.3940
  928MOL0     H28004   4.597  -0.090   8.119 -1.5672 -0.6771 -3.0129
  928MOL0     H28005   4.425  -0.279   8.277  0.4507  0.1154 -0.1828
  928MOL0     H28006   4.381  -0.124   8.219 -0.6290 -2.1030 -2.9953
  928MOL0     H28007   4.440  -0.144   8.461  0.4098  3.3037  1.2737
  928MOL0     H28008   4.610  -0.176   8.417  0.3476 -2.3838 -4.3747
  928MOL0     H28009   4.575   0.055   8.287 -2.6660 -1.2552 -1.3028
  928MOL0     H28010   4.603   0.068   8.460 -0.7398  1.1980  0.7833
  928MOL0     H28011   4.319   0.044   8.343  1.5057 -2.0362 -0.6189
  928MOL0     H28012   4.348   0.071   8.504  0.7248 -1.1645  0.0399
  928MOL0     H28013   4.556   0.285   8.537  2.2267 -1.6348 -1.7273
  928MOL0     H28014   4.631   0.524   8.527  1.7209 -1.8095 -0.6661
  928MOL0     H28015   4.536   0.647   8.446  3.4317  0.9776  2.8093
  928MOL0     H28016   4.769   0.639   8.346  0.0577 -0.5931  3.2588
  928MOL0     H28017   4.734   0.470   8.306 -1.5796 -1.6290  2.1837
  928MOL0     H28018   4.583   0.533   8.126 -1.7992  0.1663  0.4898
  928MOL0     H28019   4.547   0.689   8.189  1.3520  2.2753  1.4684
  928MOL0     H28020   4.695   0.712   7.994  1.6963  0.3243 -0.3779
  928MOL0     H28021   4.747   0.791   8.139 -0.9123 -1.3492  3.4508
  928MOL0     H28022   5.016   0.463   8.183  0.5224  0.2804 -0.5400
  928MOL0     H28023   5.200   0.374   8.353 -1.0784  0.0440 -0.9748
  928MOL0     H28024   5.233   0.472   8.491  0.6757 -0.1787 -0.0025
  928MOL0     H28025   5.329   0.492   8.345  0.8873 -2.5792  1.4995
  928MOL0     H28026   5.372   0.906   8.700 -1.0300 -1.9342  0.7197
  928MOL0     H28027   5.556   0.929   8.857 -0.3535 -1.1155  1.9637
  928MOL0     H28028   5.840   0.573   8.912 -0.3856 -1.1511 -0.1300
  928MOL0     H28029   5.896   0.713   8.819 -0.9464 -2.3536 -1.5512
  928MOL0     H28030   5.900   0.673   9.134 -1.4710 -0.4640 -0.9786
  928MOL0     H28031   6.039   0.673   9.032  1.0160 -0.0853  2.6800
  928MOL0     H28032   5.866   0.910   9.055  0.0943  0.5849  0.3862
  928MOL0     H28033   6.027   0.892   8.972  1.3392  2.1995  0.7744
  928MOL0     H28034   6.119   0.844   9.191 -0.9823 -1.2980  1.1862
  928MOL0     H28035   5.983   0.886   9.278 -1.6047  1.8066 -0.2906
  928MOL0     H28036   6.143   1.085   9.106 -0.6566  2.7026 -0.2436
  928MOL0     H28037   5.972   1.117   9.174 -1.0691  1.1130  1.2341
  928MOL0     H28038   6.208   0.994   9.333 -0.3419 -1.3556 -1.4960
  928MOL0     H28039   6.059   1.068   9.396  2.1590 -0.5470  1.2544
  928MOL0     H28040   6.242   1.215   9.446 -0.4697  1.3847  0.5750
  928MOL0     H28041   6.104   1.279   9.352 -0.3405  0.5379  3.0453
  928MOL0     H28042   6.331   1.367   9.273 -0.9353  1.0314 -1.9265
  928MOL0     H28043   6.274   1.245   9.141 -2.1537  1.6371  0.2441
  928MOL0     H28044   5.709   0.546   8.733 -0.5855 -2.4287  1.4146
  928MOL0     H28045   5.540   0.557   8.553  1.2322  0.2948  0.1439
  928MOL0     H28046   5.094   0.934   8.304 -0.0611 -0.5261 -0.0507
  928MOL0     H28047   4.921   0.879   8.167 -1.2672 -0.4710 -1.1201
  928MOL0     H28048   4.447   0.122   7.760 -1.4521 -1.4923  0.1716
  928MOL0     H28049   4.412   0.314   7.608 -1.1585 -1.1922 -0.6949
  928MOL0     H28050   4.408   0.549   7.286  0.5525  0.8915  1.0167
  928MOL0     H28051   4.375   0.726   7.106  0.4172  0.3689 -2.6086
  928MOL0     H28052   4.529   0.718   6.758 -1.8849 -0.9737 -1.4756
  928MOL0     H28053   4.405   0.663   6.865 -0.3407  1.1918  1.3435
  928MOL0     H28054   4.341   0.909   6.888 -0.5851  1.0371 -0.0832
  928MOL0     H28055   4.290   0.820   6.742  0.5017 -0.0566  0.5216
  928MOL0     H28056   4.528   1.020   6.764 -0.1973 -1.3001 -0.2228
  928MOL0     H28057   4.464   0.952   6.618  1.3620 -0.1364  0.6843
  928MOL0     H28058   4.363   1.193   6.648 -0.3843  1.1074 -0.1780
  928MOL0     H28059   4.296   1.134   6.796 -3.6507 -0.0908 -1.3801
  928MOL0     H28060   4.037   0.952   6.544 -0.5180 -0.2144  2.3176
  928MOL0     H28061   4.769   0.673   6.980 -0.7397 -0.7355 -1.6100
  928MOL0     H28062   4.830   0.368   7.144  1.3225  0.2205  2.6231
  928MOL0     H28063   4.920   0.517   7.075  1.4096 -3.8788 -1.0133
  928MOL0     H28064   4.894   0.495   7.237 -0.9097 -0.2415 -0.0114
  929MOL0     O28065  10.594   2.845  10.998  0.0818  0.2820  1.2947
  929MOL0     C28066  10.511   2.854  11.092 -0.3032  0.8051  0.5799
  929MOL0     O28067  10.499   2.766  11.193 -0.0169 -0.7298 -0.0163
  929MOL0     C28068  10.576   2.652  11.203  0.5350 -0.8597  0.1995
  929MOL0     C28069  10.710   2.638  11.161 -0.1150  0.3687 -0.4914
  929MOL0     C28070  10.767   2.506  11.163  0.9440 -0.8831  0.6243
  929MOL0     C28071  10.706   2.399  11.217 -0.4566  0.8771  0.2631
  929MOL0     O28072  10.778   2.283  11.216 -0.9446  0.5047 -0.0583
  929MOL0     C28073  10.713   2.154  11.231  0.2652  0.5311  0.1550
  929MOL0     C28074  10.707   2.130  11.386 -1.0302 -0.0681  0.4060
  929MOL0     C28075  10.854   2.093  11.426  0.4506 -0.7251  1.1365
  929MOL0     C28076  10.864   2.095  11.576  0.4978  0.3958  0.4819
  929MOL0     C28077  10.942   2.224  11.609 -0.5676  0.1259  0.8168
  929MOL0     C28078  10.970   2.223  11.754 -0.2470 -0.5599 -0.2653
  929MOL0     C28079  11.011   2.360  11.809  0.2495  0.1173  1.2617
  929MOL0     C28080  11.152   2.381  11.750  0.6842 -0.0245 -0.3500
  929MOL0     N28081  11.167   2.499  11.659  1.0202  0.2351  0.0820
  929MOL0     C28082  11.263   2.595  11.695 -0.1333  0.0804  0.2547
  929MOL0     C28083  11.229   2.700  11.619 -0.1200 -0.0699  0.6096
  929MOL0     C28084  11.278   2.846  11.641  0.1713  1.1781 -0.3248
  929MOL0     C28085  11.413   2.860  11.594 -0.8288  0.2125  0.5828
  929MOL0     C28086  11.435   2.854  11.443  0.2369 -0.1067  1.1436
  929MOL0     C28087  11.350   2.963  11.369 -0.3446 -0.4514 -0.2064
  929MOL0     O28088  11.399   2.953  11.234  0.6781 -0.0237 -0.4364
  929MOL0     C28089  11.335   3.018  11.132  0.0496  0.6197  0.5863
  929MOL0     C28090  11.368   2.972  11.006  0.1186 -0.1029 -0.8694
  929MOL0     C28091  11.301   3.026  10.889 -0.5297  0.6140  0.3691
  929MOL0     C28092  11.333   2.947  10.764  0.8698  0.4779 -0.1779
  929MOL0     C28093  11.202   3.128  10.900 -0.0463  0.4870 -0.9871
  929MOL0     C28094  11.137   3.192  10.782  0.4790  0.8395 -0.0696
  929MOL0     O28095  11.068   3.310  10.815  0.2577 -0.0355  0.8299
  929MOL0     C28096  11.030   3.385  10.706  0.3561  0.4577  0.0901
  929MOL0     C28097  11.120   3.440  10.616 -0.5308 -0.6638  0.0245
  929MOL0     C28098  11.077   3.514  10.509 -0.2717  0.8031  1.1170
  929MOL0     C28099  10.941   3.545  10.468  0.4884 -0.1478 -0.4845
  929MOL0     O28100  10.905   3.613  10.351  0.0485 -0.6113  1.0348
  929MOL0     C28101  11.004   3.644  10.249  0.7170  0.8468 -0.7178
  929MOL0     C28102  10.940   3.723  10.135 -0.1607  0.7403  0.7300
  929MOL0     C28103  11.027   3.766  10.024  1.7312 -0.3573  0.7077
  929MOL0     C28104  11.044   3.921  10.045 -0.1179  0.0383 -0.2649
  929MOL0     C28105  11.104   3.974   9.915 -0.3803 -0.1113 -0.2492
  929MOL0     C28106  11.131   4.127   9.912 -0.5925 -0.2516 -0.2499
  929MOL0     C28107  11.204   4.178   9.789 -0.7967 -0.1766  0.4843
  929MOL0     C28108  11.254   4.325   9.804 -0.2287 -0.1251  0.0931
  929MOL0    Cl28109  11.374   4.322   9.943  0.1418  0.2753 -0.0726
  929MOL0     C28110  10.852   3.488  10.560  0.6182  0.0167 -0.3259
  929MOL0     C28111  10.894   3.417  10.677  1.3158  0.8160  0.3480
  929MOL0     O28112  11.157   3.147  10.677 -0.6755  0.1214  0.2485
  929MOL0     C28113  11.175   3.182  11.035  0.6138 -0.3728  0.8682
  929MOL0     C28114  11.240   3.120  11.145 -0.0170 -0.2675 -0.1035
  929MOL0     N28115  11.133   2.660  11.524 -0.1858  0.2043 -0.2468
  929MOL0     N28116  11.092   2.538  11.548  1.4202 -0.4881 -0.1739
  929MOL0     C28117  10.570   2.406  11.245  0.0511 -1.4063  0.5201
  929MOL0     C28118  10.507   2.535  11.227  0.2235 -0.0163  0.5962
  929MOL0     C28119  10.402   2.949  11.081  0.6826 -0.1637  0.6788
  929MOL0     C28120  10.344   2.977  10.954 -0.3807  0.3403  0.1597
  929MOL0     C28121  10.238   3.062  10.946  0.0977 -0.5695 -0.2369
  929MOL0     C28122  10.175   3.123  11.058  0.5524  0.9315  0.5487
  929MOL0     O28123  10.072   3.213  11.040  0.0236 -0.2356  0.7468
  929MOL0     C28124   9.991   3.255  11.151 -0.7451 -0.0353 -0.2305
  929MOL0     C28125   9.872   3.342  11.109  0.0644 -0.0583  0.5763
  929MOL0     C28126   9.910   3.466  11.020  0.4106  0.2182 -0.6462
  929MOL0     C28127   9.818   3.575  10.967  0.8236  1.0205  0.3999
  929MOL0     C28128   9.686   3.515  10.944 -0.2267  0.9431 -0.6058
  929MOL0     C28129   9.571   3.476  10.923 -0.1506 -0.0783 -0.0008
  929MOL0     C28130  10.225   3.091  11.179 -0.2122  0.1287 -0.4089
  929MOL0     C28131  10.344   3.011  11.197  0.3024 -0.0749 -0.0443
  929MOL0     C28132  10.412   3.007  11.335  0.2502  0.1769  0.6705
  929MOL0     H28133  10.765   2.724  11.124 -0.7095  0.1212 -2.0578
  929MOL0     H28134  10.866   2.489  11.122  1.4638 -0.0646  1.5013
  929MOL0     H28135  10.772   2.082  11.174  0.5213  2.5941 -2.3901
  929MOL0     H28136  10.613   2.153  11.187  2.2501 -0.3150 -5.1402
  929MOL0     H28137  10.675   2.221  11.437 -2.9153 -0.6027  0.2752
  929MOL0     H28138  10.655   2.035  11.405  3.3112 -3.2263 -1.6975
  929MOL0     H28139  10.895   1.998  11.391  3.8436  0.5862  1.1725
  929MOL0     H28140  10.916   2.174  11.385 -0.1106  0.0588  1.8020
  929MOL0     H28141  10.765   2.110  11.619 -1.9905  0.8925 -4.7511
  929MOL0     H28142  10.909   2.001  11.608 -1.0247 -0.9157 -1.0854
  929MOL0     H28143  10.881   2.312  11.589  2.3331  2.7692  2.7008
  929MOL0     H28144  11.034   2.234  11.551 -1.1009 -2.3326 -0.6117
  929MOL0     H28145  10.881   2.194  11.811 -0.3577 -0.4711 -0.3944
  929MOL0     H28146  11.030   2.139  11.791 -0.1728 -0.3626  0.0620
  929MOL0     H28147  11.015   2.363  11.918 -0.5238 -2.4645  1.4126
  929MOL0     H28148  10.944   2.442  11.780  1.0480  0.4036  0.1541
  929MOL0     H28149  11.214   2.398  11.839  0.0002 -1.9655  0.5748
  929MOL0     H28150  11.191   2.298  11.691  1.6593  0.9660 -1.1218
  929MOL0     H28151  11.329   2.591  11.782  0.4782  1.7192 -0.1115
  929MOL0     H28152  11.276   2.861  11.750 -0.3160  0.1769 -0.1911
  929MOL0     H28153  11.204   2.910  11.591 -0.7695  0.4822  0.1473
  929MOL0     H28154  11.454   2.958  11.620  1.1396 -0.8080  1.6220
  929MOL0     H28155  11.480   2.792  11.648  0.8488  0.6745 -0.8128
  929MOL0     H28156  11.538   2.884  11.423 -0.3905  1.1453 -0.4269
  929MOL0     H28157  11.414   2.758  11.397 -2.2171  0.9298 -0.1002
  929MOL0     H28158  11.243   2.939  11.370  0.2125 -3.2462 -0.3107
  929MOL0     H28159  11.373   3.066  11.399 -1.4839  0.5580 -2.5899
  929MOL0     H28160  11.440   2.890  11.007 -0.9972 -1.1288 -1.0960
  929MOL0     H28161  11.243   2.911  10.713  1.3646 -1.9360  0.4867
  929MOL0     H28162  11.396   2.860  10.785  0.9842  0.5625 -0.1712
  929MOL0     H28163  11.377   3.016  10.692  0.6408 -0.4058 -1.2017
  929MOL0     H28164  11.225   3.414  10.623 -0.2137  0.5532 -0.0244
  929MOL0     H28165  11.154   3.538  10.437 -0.1087 -0.9754  0.6514
  929MOL0     H28166  11.091   3.701  10.284  1.7194  0.3412 -2.2711
  929MOL0     H28167  11.035   3.547  10.211  0.1534  0.3159  0.1341
  929MOL0     H28168  10.860   3.660  10.097  1.7671 -1.5929  0.3303
  929MOL0     H28169  10.887   3.805  10.185  1.7842  1.9095  0.9773
  929MOL0     H28170  10.970   3.747   9.933  2.2855  2.3774 -0.3297
  929MOL0     H28171  11.119   3.708  10.020  1.1979 -1.1936 -2.4455
  929MOL0     H28172  11.104   3.949  10.132  0.5082  3.6333 -1.6974
  929MOL0     H28173  10.945   3.966  10.062 -0.8400  0.0328 -3.6910
  929MOL0     H28174  11.204   3.929   9.908 -0.7027 -0.7373 -0.8689
  929MOL0     H28175  11.046   3.948   9.826  2.2633 -3.0702 -1.3230
  929MOL0     H28176  11.195   4.140   9.999 -0.0255  1.1631 -0.8389
  929MOL0     H28177  11.039   4.183   9.935 -0.5562 -0.4663  0.4412
  929MOL0     H28178  11.148   4.160   9.697 -0.8585 -0.0854  0.5041
  929MOL0     H28179  11.292   4.113   9.780  0.1299  1.3279 -2.2997
  929MOL0     H28180  11.171   4.395   9.814 -1.3892 -1.4407  0.0346
  929MOL0     H28181  11.313   4.366   9.722 -1.2202  2.7088  0.6847
  929MOL0     H28182  10.746   3.505  10.544  0.4441 -0.1508  0.5874
  929MOL0     H28183  10.820   3.379  10.747  1.9830 -3.5176 -1.0001
  929MOL0     H28184  11.103   3.261  11.052  1.2595  0.3805  0.2102
  929MOL0     H28185  11.201   3.144  11.243 -3.4069 -0.1750 -1.3705
  929MOL0     H28186  10.504   2.326  11.277 -1.3136 -0.8782 -0.8230
  929MOL0     H28187  10.402   2.555  11.240  0.3059 -0.2415  1.6887
  929MOL0     H28188  10.387   2.938  10.862  0.7120  1.8187  0.0061
  929MOL0     H28189  10.201   3.077  10.846 -1.8148  0.0989  0.5225
  929MOL0     H28190   9.945   3.172  11.205 -1.2193  0.5175  0.2355
  929MOL0     H28191  10.050   3.318  11.219 -1.4232 -0.6582  0.9785
  929MOL0     H28192   9.811   3.371  11.195  1.1224  1.7020  0.7717
  929MOL0     H28193   9.816   3.277  11.041  0.9516  1.4507 -1.7103
  929MOL0     H28194   9.993   3.526  11.059  0.2927  2.2306 -3.2286
  929MOL0     H28195   9.945   3.413  10.932 -2.8413 -2.9402 -0.2925
  929MOL0     H28196   9.860   3.617  10.875 -1.8856 -0.6342 -1.7484
  929MOL0     H28197   9.813   3.650  11.047 -0.1070  1.0249  0.3451
  929MOL0     H28198   9.471   3.452  10.894  0.0689 -0.1264 -0.7554
  929MOL0     H28199  10.191   3.148  11.265  2.4968 -1.9480  2.2422
  929MOL0     H28200  10.392   2.906  11.373 -4.0609  0.6110  0.1096
  929MOL0     H28201  10.513   3.041  11.311 -0.1293  0.1918 -1.0186
  929MOL0     H28202  10.362   3.077  11.402  0.4089  0.5190  0.4345
  930MOL0     O28203   2.844   1.916   8.513 -0.0458 -0.6940 -0.4561
  930MOL0     C28204   2.833   1.810   8.453  0.2421 -0.2470 -1.3108
  930MOL0     O28205   2.900   1.699   8.482  0.1175 -0.0059  0.2695
  930MOL0     C28206   2.991   1.709   8.577 -0.2827 -0.5208  0.0523
  930MOL0     C28207   2.955   1.756   8.703 -0.5835 -0.3624 -0.3972
  930MOL0     C28208   3.041   1.768   8.813 -0.9073  0.1374  0.2649
  930MOL0     C28209   3.176   1.735   8.795  0.8094 -0.2983 -0.7714
  930MOL0     O28210   3.275   1.747   8.893  0.0587 -0.1093  0.3779
  930MOL0     C28211   3.250   1.694   9.021 -0.4078  0.5151 -0.2313
  930MOL0     C28212   3.382   1.696   9.108 -0.0666 -0.3136 -0.6620
  930MOL0     C28213   3.414   1.829   9.183  0.1098 -0.3213 -0.7171
  930MOL0     C28214   3.556   1.831   9.251 -0.6832 -0.4850  0.0743
  930MOL0     C28215   3.571   1.946   9.350  0.5342  0.2568 -0.9078
  930MOL0     C28216   3.708   1.939   9.427 -0.4328  1.5690 -0.0165
  930MOL0     C28217   3.818   2.007   9.340  0.7781  0.9105 -0.4242
  930MOL0     C28218   3.944   2.017   9.421 -0.1712  0.1597  0.3992
  930MOL0     N28219   4.046   2.114   9.370 -0.1255  0.2300  0.1154
  930MOL0     C28220   4.134   2.084   9.272 -0.5239 -1.5072  0.2610
  930MOL0     C28221   4.151   2.207   9.205  0.5153 -0.7488  0.0926
  930MOL0     C28222   4.225   2.232   9.087 -0.1745  0.1126 -1.6122
  930MOL0     C28223   4.296   2.370   9.086  0.2514  0.3870  0.0157
  930MOL0     C28224   4.402   2.374   8.972 -0.2531  0.0818 -0.5053
  930MOL0     C28225   4.439   2.521   8.940  0.0597  0.2086  0.6853
  930MOL0     O28226   4.560   2.532   8.859  0.6879 -0.0009 -0.5734
  930MOL0     C28227   4.611   2.660   8.849 -0.4214  0.0554  0.3428
  930MOL0     C28228   4.556   2.763   8.770 -0.9818  0.0366  0.0004
  930MOL0     C28229   4.612   2.890   8.770 -0.7153 -0.3555  0.3817
  930MOL0     C28230   4.548   3.000   8.677  0.0376  0.2286  0.6357
  930MOL0     C28231   4.731   2.917   8.847  0.5901  0.4701 -0.1349
  930MOL0     C28232   4.807   3.035   8.827  0.7676  0.1273  0.3619
  930MOL0     O28233   4.939   3.015   8.791  0.3453 -0.3907  0.1133
  930MOL0     C28234   5.032   3.111   8.773 -0.8189  0.0818 -0.4663
  930MOL0     C28235   5.002   3.241   8.723 -0.7703 -0.3145 -0.6297
  930MOL0     C28236   5.104   3.338   8.721  0.8344  0.2005 -0.9779
  930MOL0     C28237   5.238   3.309   8.743 -1.0776 -0.1960  0.0465
  930MOL0     O28238   5.329   3.412   8.718 -0.6908 -0.3686 -0.1117
  930MOL0     C28239   5.448   3.407   8.796 -0.5288 -0.6008 -0.5408
  930MOL0     C28240   5.519   3.519   8.723 -0.4011 -0.4121  0.2926
  930MOL0     C28241   5.648   3.567   8.791  0.5002  0.0406 -0.4038
  930MOL0     C28242   5.689   3.713   8.769 -0.3737  0.4123 -0.5702
  930MOL0     C28243   5.722   3.741   8.617  0.2680  0.7529 -0.1172
  930MOL0     C28244   5.819   3.861   8.606 -0.2075  0.2156  1.0536
  930MOL0     C28245   5.848   3.905   8.470  0.0858  0.0956  0.8774
  930MOL0     C28246   5.977   3.990   8.461  0.9739 -0.0753  0.7407
  930MOL0    Cl28247   6.131   3.896   8.440 -0.4651 -0.0671 -0.4985
  930MOL0     C28248   5.270   3.176   8.787  0.7011 -0.3789  1.0666
  930MOL0     C28249   5.165   3.085   8.806  0.0817  0.1320 -0.7315
  930MOL0     O28250   4.750   3.141   8.856  0.5835  0.0400 -0.1717
  930MOL0     C28251   4.781   2.811   8.930  1.3802 -0.2876  0.0827
  930MOL0     C28252   4.718   2.688   8.932  0.2140  0.1256  0.7433
  930MOL0     N28253   4.080   2.298   9.283 -0.1319  0.3044  0.4825
  930MOL0     N28254   4.027   2.241   9.378  0.1359 -0.3785 -0.3958
  930MOL0     C28255   3.219   1.683   8.678 -0.7899 -0.1146  1.3937
  930MOL0     C28256   3.127   1.678   8.570  0.8978 -0.6582  0.4710
  930MOL0     C28257   2.759   1.809   8.324  1.1639  0.2070 -0.3399
  930MOL0     C28258   2.802   1.727   8.221 -0.0404 -0.3150  0.8539
  930MOL0     C28259   2.731   1.727   8.102 -0.3686  1.5506 -1.4860
  930MOL0     C28260   2.610   1.787   8.080 -0.9488 -0.5921 -0.2279
  930MOL0     O28261   2.544   1.772   7.957  0.2026 -0.3537  0.0710
  930MOL0     C28262   2.556   1.659   7.867 -0.6086 -0.7753  1.3756
  930MOL0     C28263   2.428   1.620   7.800  0.9824 -0.1840  0.1836
  930MOL0     C28264   2.455   1.532   7.668 -0.2176 -0.4490 -0.3139
  930MOL0     C28265   2.337   1.505   7.583 -0.9371  0.4476 -0.3726
  930MOL0     C28266   2.279   1.620   7.517 -0.3331  0.4766  0.7719
  930MOL0     C28267   2.223   1.723   7.479 -1.0420  0.0757  0.2129
  930MOL0     C28268   2.570   1.858   8.183 -0.1073 -0.2325 -0.5644
  930MOL0     C28269   2.632   1.875   8.309 -1.0330  0.5871  0.0297
  930MOL0     C28270   2.570   1.955   8.419  0.0382 -0.3667 -1.3685
  930MOL0     H28271   2.848   1.765   8.721 -1.0357 -0.8042 -2.5654
  930MOL0     H28272   2.999   1.820   8.898  0.6175  2.4144 -0.3017
  930MOL0     H28273   3.204   1.595   9.014 -1.6992  0.9607  1.3344
  930MOL0     H28274   3.181   1.761   9.073 -1.2696 -1.8513  1.9151
  930MOL0     H28275   3.386   1.608   9.174 -4.0214 -2.0873 -2.4143
  930MOL0     H28276   3.462   1.675   9.037  0.0888  0.0026 -0.5785
  930MOL0     H28277   3.400   1.910   9.110  1.3796  0.2224 -0.3863
  930MOL0     H28278   3.338   1.835   9.261 -1.1554  0.1027 -1.9443
  930MOL0     H28279   3.568   1.735   9.303  0.2639  0.3055  1.3592
  930MOL0     H28280   3.630   1.830   9.170  0.2019 -0.4105  0.8611
  930MOL0     H28281   3.483   1.939   9.415  3.3457  0.6052  3.2445
  930MOL0     H28282   3.555   2.044   9.305 -0.9632  0.4122 -0.0967
  930MOL0     H28283   3.700   1.983   9.527 -2.2987 -2.3866  1.8180
  930MOL0     H28284   3.745   1.839   9.449  0.6703  1.6120 -1.5122
  930MOL0     H28285   3.772   2.106   9.326 -0.1967  0.5418  0.0699
  930MOL0     H28286   3.840   1.946   9.252 -0.6415 -3.3093  1.8674
  930MOL0     H28287   3.929   2.032   9.529  0.9191 -0.2133  0.6225
  930MOL0     H28288   4.004   1.926   9.416  2.5378  1.8038 -5.2593
  930MOL0     H28289   4.188   1.993   9.250 -0.1952 -0.5702 -3.4912
  930MOL0     H28290   4.164   2.215   8.998 -0.1394 -2.0884 -1.2650
  930MOL0     H28291   4.297   2.150   9.089 -1.3007 -0.9460  1.6563
  930MOL0     H28292   4.225   2.450   9.062  0.4072  0.5929  0.2377
  930MOL0     H28293   4.339   2.374   9.186 -1.9151  2.7513  0.9613
  930MOL0     H28294   4.496   2.333   9.011 -0.1263  1.7496  1.0606
  930MOL0     H28295   4.374   2.332   8.874  0.3106 -2.5777  0.3797
  930MOL0     H28296   4.355   2.568   8.887 -3.4651 -1.8573  3.9079
  930MOL0     H28297   4.459   2.578   9.031  2.4991 -3.0997  2.4409
  930MOL0     H28298   4.476   2.750   8.698 -0.5733 -0.6794 -0.3266
  930MOL0     H28299   4.627   3.068   8.643  0.6716 -1.3524 -1.2414
  930MOL0     H28300   4.479   3.066   8.731 -3.8333 -0.2943 -3.1417
  930MOL0     H28301   4.496   2.951   8.595  0.8034 -1.5151  1.1532
  930MOL0     H28302   4.906   3.279   8.690  0.6097  2.9127 -1.2573
  930MOL0     H28303   5.080   3.439   8.693 -0.2652 -0.4951 -2.6736
  930MOL0     H28304   5.431   3.428   8.902  0.7271 -0.2500 -0.3942
  930MOL0     H28305   5.502   3.312   8.788 -2.4557 -1.6708 -1.5756
  930MOL0     H28306   5.527   3.479   8.622 -1.4620 -0.7838  0.3409
  930MOL0     H28307   5.461   3.610   8.702 -1.8346 -1.0224  1.4084
  930MOL0     H28308   5.729   3.501   8.759  2.3259  1.8092  0.3732
  930MOL0     H28309   5.634   3.556   8.899  2.3644  1.6907  0.0683
  930MOL0     H28310   5.778   3.725   8.832  0.9600 -0.7835 -2.1283
  930MOL0     H28311   5.622   3.782   8.821 -0.2001  1.3973 -1.6246
  930MOL0     H28312   5.774   3.665   8.558  1.6441  1.0037  0.7301
  930MOL0     H28313   5.617   3.752   8.586 -0.4456  0.1498  1.8847
  930MOL0     H28314   5.906   3.831   8.665 -2.8089 -1.4436  4.4110
  930MOL0     H28315   5.756   3.940   8.648 -2.9049  0.6690 -3.2695
  930MOL0     H28316   5.763   3.960   8.428 -0.6638 -2.1424 -0.7346
  930MOL0     H28317   5.855   3.816   8.406 -2.6671  1.0713 -0.9746
  930MOL0     H28318   5.978   4.058   8.547  0.2458  0.2442  0.5099
  930MOL0     H28319   5.958   4.059   8.378 -1.4619  0.5443  1.7220
  930MOL0     H28320   5.373   3.155   8.816  0.9897 -2.7967 -1.3003
  930MOL0     H28321   5.176   2.997   8.868  3.1405  1.7355  1.2596
  930MOL0     H28322   4.873   2.827   8.985  2.0875  1.1008 -1.4355
  930MOL0     H28323   4.750   2.604   8.993  0.8960 -1.0914 -1.2170
  930MOL0     H28324   3.325   1.658   8.676 -0.6241  0.5959  0.9278
  930MOL0     H28325   3.144   1.654   8.466 -3.0157  1.0351 -0.7255
  930MOL0     H28326   2.894   1.669   8.223 -1.0985 -2.0457  1.1129
  930MOL0     H28327   2.779   1.684   8.015  1.2039  5.1367 -2.5643
  930MOL0     H28328   2.629   1.679   7.788 -0.3254 -3.3027  0.9190
  930MOL0     H28329   2.580   1.564   7.915 -0.6530 -1.5736 -0.1322
  930MOL0     H28330   2.379   1.715   7.780  0.8266  0.1229  1.8811
  930MOL0     H28331   2.361   1.567   7.869  1.1677  2.9828  3.0190
  930MOL0     H28332   2.521   1.594   7.607 -1.4005 -0.3302 -1.5187
  930MOL0     H28333   2.512   1.443   7.696  3.7267  0.9804 -2.9848
  930MOL0     H28334   2.262   1.443   7.634  1.6037 -1.6082  1.1378
  930MOL0     H28335   2.389   1.452   7.503 -2.5823 -1.1861 -0.4357
  930MOL0     H28336   2.168   1.813   7.461  1.2948  1.0932 -2.5947
  930MOL0     H28337   2.468   1.888   8.165 -1.0868 -3.9561 -2.3090
  930MOL0     H28338   2.625   2.049   8.426  0.8277 -0.8762 -0.5545
  930MOL0     H28339   2.462   1.972   8.410 -0.0351  2.1532  2.3778
  930MOL0     H28340   2.574   1.901   8.514  0.5643 -2.1001 -2.3184
  931MOL0     O28341   3.668   9.084   9.036  0.8696  0.2043  0.8192
  931MOL0     C28342   3.542   9.091   9.025  0.9659 -0.2781  0.1521
  931MOL0     O28343   3.458   9.156   9.110  1.3349  0.2561 -1.0928
  931MOL0     C28344   3.346   9.224   9.064 -0.1041 -0.3525 -0.2107
  931MOL0     C28345   3.363   9.311   8.963 -0.0228 -0.3422  0.0557
  931MOL0     C28346   3.259   9.405   8.921  0.4741  0.1056  0.7521
  931MOL0     C28347   3.139   9.402   8.991  0.4308 -0.0870 -0.3922
  931MOL0     O28348   3.043   9.494   8.959  0.3794  0.4841  0.0312
  931MOL0     C28349   3.040   9.604   9.042  0.0884 -0.8266  0.5849
  931MOL0     C28350   2.937   9.711   9.006 -0.3434 -0.5666  0.0641
  931MOL0     C28351   2.960   9.758   8.860  0.0543 -0.0345 -0.1256
  931MOL0     C28352   3.080   9.844   8.831  0.4024  0.2003 -0.3287
  931MOL0     C28353   3.089   9.891   8.679 -0.2980 -0.7618  0.7303
  931MOL0     C28354   2.984   9.999   8.648 -1.0810  0.3804 -0.7831
  931MOL0     C28355   2.993  10.070   8.509  0.4581  0.1116  0.1379
  931MOL0     C28356   2.967  10.215   8.511 -0.6933  0.0162  0.0823
  931MOL0     N28357   3.061  10.291   8.601  0.4509 -0.2331  0.2416
  931MOL0     C28358   3.194  10.298   8.594 -0.0045 -0.4423 -0.3219
  931MOL0     C28359   3.227  10.382   8.699 -0.3791  0.7024 -0.2945
  931MOL0     C28360   3.368  10.428   8.724  0.0156  0.1696  0.0851
  931MOL0     C28361   3.383  10.577   8.676 -0.2835  0.7350 -0.4333
  931MOL0     C28362   3.536  10.633   8.674  0.2236  0.0909  0.2937
  931MOL0     C28363   3.638  10.567   8.570 -0.6888 -0.1388 -0.2120
  931MOL0     O28364   3.742  10.672   8.534  0.4315  0.1912 -0.0241
  931MOL0     C28365   3.702  10.779   8.471  0.0590  0.5590  0.0913
  931MOL0     C28366   3.777  10.893   8.483  0.6685 -0.5245  1.0572
  931MOL0     C28367   3.745  11.013   8.418  0.4831  0.6156 -0.8349
  931MOL0     C28368   3.830  11.134   8.469 -0.9528 -0.2558  0.7691
  931MOL0     C28369   3.636  11.020   8.338  0.1160 -0.1299 -0.3654
  931MOL0     C28370   3.597  11.139   8.263  0.2038 -0.9757  0.2268
  931MOL0     O28371   3.668  11.249   8.250 -0.5781 -0.1349  0.9344
  931MOL0     C28372   3.610  11.356   8.176 -0.7024 -0.2224 -0.3762
  931MOL0     C28373   3.664  11.378   8.046 -0.6063  1.4986 -0.3195
  931MOL0     C28374   3.622  11.485   7.975 -0.1658  0.2204  0.7057
  931MOL0     C28375   3.512  11.561   8.015  1.1519 -0.4963  0.3085
  931MOL0     O28376   3.457  11.662   7.940  0.6670 -0.3538 -0.0438
  931MOL0     C28377   3.338  11.632   7.866 -0.0677 -0.0917 -0.3460
  931MOL0     C28378   3.233  11.737   7.886 -0.1465 -0.9986 -0.1173
  931MOL0     C28379   3.245  11.861   7.811  0.4111  0.1949  1.0649
  931MOL0     C28380   3.127  11.951   7.817  0.8286  0.0110 -0.6715
  931MOL0     C28381   3.151  12.097   7.800 -0.9423  0.1303  0.4145
  931MOL0     C28382   3.012  12.166   7.771 -0.4086 -0.1515  0.1071
  931MOL0     C28383   3.048  12.314   7.767  0.4584  0.2425  0.1109
  931MOL0     C28384   2.935  12.410   7.774  0.1268  0.9050 -0.7945
  931MOL0    Cl28385   2.997  12.578   7.743 -0.0177  0.3680  0.0808
  931MOL0     C28386   3.449  11.531   8.137  1.3833 -0.3220 -1.0604
  931MOL0     C28387   3.503  11.433   8.219  0.6724 -0.2161 -0.0925
  931MOL0     O28388   3.488  11.133   8.215  0.4662  0.0632  0.6996
  931MOL0     C28389   3.547  10.900   8.324  0.4837  0.9522  0.6326
  931MOL0     C28390   3.588  10.784   8.393  0.3287 -0.5770  0.6526
  931MOL0     N28391   3.107  10.414   8.765 -0.7215 -0.9835  1.0613
  931MOL0     N28392   3.011  10.359   8.708  0.0255 -0.3448 -0.4077
  931MOL0     C28393   3.116   9.308   9.085  0.0472  0.1529 -0.7423
  931MOL0     C28394   3.225   9.225   9.129  0.8900 -0.2048  0.3158
  931MOL0     C28395   3.499   9.023   8.902  0.4164 -0.9956  0.4853
  931MOL0     C28396   3.565   9.052   8.777  0.1127  0.0557  0.7409
  931MOL0     C28397   3.524   8.991   8.657 -0.3060 -0.4964  0.0067
  931MOL0     C28398   3.407   8.912   8.660 -0.4718  1.1170  0.5046
  931MOL0     O28399   3.357   8.867   8.537 -0.4092  1.0292 -0.5727
  931MOL0     C28400   3.243   8.773   8.523  0.0593  0.0386  0.6239
  931MOL0     C28401   3.178   8.766   8.383  0.6693  0.3409 -1.0182
  931MOL0     C28402   3.058   8.677   8.381  0.1661  0.5828 -0.4068
  931MOL0     C28403   3.086   8.524   8.391  0.4566 -0.3596  0.5617
  931MOL0     C28404   3.147   8.468   8.270 -0.4116 -0.2740  0.1135
  931MOL0     C28405   3.200   8.428   8.168  0.3805 -0.6602 -0.6742
  931MOL0     C28406   3.351   8.877   8.782  0.4613 -0.0108 -0.5959
  931MOL0     C28407   3.386   8.945   8.901  0.0376  0.8446 -0.0836
  931MOL0     C28408   3.294   8.916   9.016 -0.6307  0.1865  0.0903
  931MOL0     H28409   3.456   9.315   8.908 -1.6767 -1.8380 -3.1565
  931MOL0     H28410   3.253   9.460   8.827 -0.4454  1.1319  1.3803
  931MOL0     H28411   3.139   9.645   9.064 -0.2463 -0.7936  2.1418
  931MOL0     H28412   3.024   9.576   9.146  2.9415 -0.3516  1.2478
  931MOL0     H28413   2.843   9.657   9.014 -0.5400 -0.3006 -0.3816
  931MOL0     H28414   2.935   9.796   9.075 -1.0980 -2.0392  1.9281
  931MOL0     H28415   2.949   9.663   8.806  1.8168 -0.4552  0.2097
  931MOL0     H28416   2.875   9.821   8.830 -0.5097 -2.4253 -4.3684
  931MOL0     H28417   3.072   9.932   8.896  0.4131  0.3189 -0.4901
  931MOL0     H28418   3.162   9.777   8.860 -0.7661 -1.7393 -1.3217
  931MOL0     H28419   3.073   9.803   8.616 -4.7092  2.3057 -3.1145
  931MOL0     H28420   3.187   9.933   8.656 -1.3484  1.4165 -0.0744
  931MOL0     H28421   2.889   9.943   8.649 -1.3367  0.7992  0.7451
  931MOL0     H28422   2.987  10.062   8.738 -0.5603 -0.8981  0.1243
  931MOL0     H28423   2.915  10.034   8.441  0.8451 -1.8156  0.6772
  931MOL0     H28424   3.095  10.058   8.472  0.4193 -0.4333  0.2126
  931MOL0     H28425   2.986  10.243   8.407  2.5736 -0.2280  0.5095
  931MOL0     H28426   2.864  10.232   8.541 -0.2047  1.1441  1.1947
  931MOL0     H28427   3.266  10.261   8.522  0.0347 -0.0072 -0.5086
  931MOL0     H28428   3.444  10.364   8.677  3.0398  2.4633  1.5213
  931MOL0     H28429   3.383  10.421   8.832 -0.9592 -1.5474  0.1493
  931MOL0     H28430   3.352  10.592   8.572  0.2016  2.2531 -0.3849
  931MOL0     H28431   3.315  10.639   8.734 -0.4184  0.6442 -0.4956
  931MOL0     H28432   3.531  10.737   8.642 -2.1447  0.3657  1.3791
  931MOL0     H28433   3.583  10.632   8.773 -0.6788  1.6460  0.7619
  931MOL0     H28434   3.675  10.472   8.610 -0.5236  0.8334  2.1255
  931MOL0     H28435   3.591  10.531   8.478  1.3933 -2.5329 -0.4498
  931MOL0     H28436   3.868  10.888   8.542  1.1098 -1.3069  0.3281
  931MOL0     H28437   3.835  11.208   8.389  1.4209 -2.6333 -1.4860
  931MOL0     H28438   3.930  11.108   8.505 -1.3452 -0.5126  1.7018
  931MOL0     H28439   3.790  11.201   8.546 -2.4648 -0.3373  0.0904
  931MOL0     H28440   3.739  11.307   8.014 -0.8019  1.5244 -0.8433
  931MOL0     H28441   3.653  11.502   7.872  4.5870  0.1136  1.9057
  931MOL0     H28442   3.356  11.627   7.759 -1.2997  0.4897 -0.5919
  931MOL0     H28443   3.283  11.544   7.900 -0.7821  0.2438 -0.6228
  931MOL0     H28444   3.144  11.687   7.849 -0.4067 -2.1682  1.9218
  931MOL0     H28445   3.204  11.749   7.991 -1.6315 -0.7943 -0.5277
  931MOL0     H28446   3.271  11.825   7.711  0.5389  0.2845  1.0644
  931MOL0     H28447   3.335  11.913   7.845  0.0803  1.3752  0.2316
  931MOL0     H28448   3.067  11.946   7.908 -3.9496  2.5612 -3.2922
  931MOL0     H28449   3.057  11.912   7.744  1.3686 -1.2509 -0.5341
  931MOL0     H28450   3.202  12.125   7.893 -1.4833 -3.9572  2.1419
  931MOL0     H28451   3.211  12.118   7.711  0.7886  4.0542  2.2363
  931MOL0     H28452   2.930  12.146   7.840 -1.0176  1.0148 -0.2457
  931MOL0     H28453   2.972  12.126   7.677  0.5695  0.7479 -0.7222
  931MOL0     H28454   3.090  12.340   7.670 -1.8024  1.9860 -0.4984
  931MOL0     H28455   3.126  12.330   7.842  0.1560 -3.5596  1.4623
  931MOL0     H28456   2.887  12.397   7.872  0.2908  3.7216 -0.2585
  931MOL0     H28457   2.865  12.391   7.692  1.1948 -0.2780 -1.4694
  931MOL0     H28458   3.369  11.598   8.168  0.9919 -1.6896  1.0771
  931MOL0     H28459   3.472  11.405   8.319  1.7675 -1.5642 -0.1050
  931MOL0     H28460   3.455  10.889   8.267 -0.1010 -2.6100  2.0326
  931MOL0     H28461   3.518  10.702   8.405 -0.2546  0.2330  3.6518
  931MOL0     H28462   3.018   9.314   9.131  0.6296  1.6232  0.4040
  931MOL0     H28463   3.206   9.156   9.210  1.5932 -1.9044 -0.9052
  931MOL0     H28464   3.651   9.116   8.762  1.0191 -1.3064 -0.0754
  931MOL0     H28465   3.576   9.019   8.566 -0.8689  1.1299  0.1479
  931MOL0     H28466   3.280   8.670   8.531 -1.8477 -0.5882  2.0075
  931MOL0     H28467   3.169   8.790   8.601  1.0815  2.2898  1.1580
  931MOL0     H28468   3.254   8.729   8.314  1.2974 -0.8360  0.2459
  931MOL0     H28469   3.149   8.868   8.357 -0.4553  0.5919  1.0466
  931MOL0     H28470   2.984   8.706   8.457 -0.9058 -1.3550 -0.6458
  931MOL0     H28471   3.008   8.692   8.285 -0.6856 -0.2273 -0.1041
  931MOL0     H28472   2.987   8.480   8.401 -0.1684  1.1775  1.6736
  931MOL0     H28473   3.145   8.499   8.480  2.8429  2.6412  0.0007
  931MOL0     H28474   3.259   8.376   8.096  2.2256 -1.0084  0.9998
  931MOL0     H28475   3.270   8.808   8.799  0.6541 -0.0400  0.2219
  931MOL0     H28476   3.340   8.946   9.111 -0.8986 -0.1123  0.3172
  931MOL0     H28477   3.210   8.986   9.019 -0.5216  0.3665  3.6033
  931MOL0     H28478   3.267   8.810   9.026 -0.5536  0.1428 -0.1663
  932MOL0     O28479   3.765   7.582   9.924 -0.0108  0.1815 -0.6360
  932MOL0     C28480   3.748   7.509  10.017  0.1039  0.3575 -1.0507
  932MOL0     O28481   3.821   7.403  10.059  0.5691 -0.1319 -0.5278
  932MOL0     C28482   3.927   7.365   9.979 -0.4125 -0.0362 -0.1401
  932MOL0     C28483   4.059   7.377  10.023 -1.6029 -0.1056  0.3162
  932MOL0     C28484   4.163   7.323   9.945 -0.6900 -0.2801 -1.4749
  932MOL0     C28485   4.139   7.263   9.823 -0.0432 -0.4004  0.4210
  932MOL0     O28486   4.246   7.221   9.752 -0.4302 -0.0895 -0.1134
  932MOL0     C28487   4.320   7.305   9.670  0.5860 -0.4368  0.5721
  932MOL0     C28488   4.439   7.237   9.596  0.1021 -0.0759 -0.1316
  932MOL0     C28489   4.577   7.294   9.613 -0.5231  0.1358  0.2326
  932MOL0     C28490   4.687   7.203   9.573 -0.0421 -0.9977 -0.0819
  932MOL0     C28491   4.827   7.261   9.581 -1.2010 -0.8709  0.3893
  932MOL0     C28492   4.939   7.198   9.495  0.4572 -0.1960  0.0103
  932MOL0     C28493   4.935   7.227   9.351 -0.1248 -0.7241  0.4201
  932MOL0     C28494   4.943   7.380   9.311 -0.8627 -0.1748  0.8484
  932MOL0     N28495   5.089   7.423   9.335  0.1743 -0.6804 -0.2613
  932MOL0     C28496   5.186   7.382   9.253 -0.1401  1.4097 -0.2887
  932MOL0     C28497   5.292   7.463   9.274 -0.4477  0.2441  0.5340
  932MOL0     C28498   5.423   7.471   9.198 -0.6164 -1.1488 -0.0940
  932MOL0     C28499   5.416   7.591   9.109  0.5063  0.1323 -0.7446
  932MOL0     C28500   5.550   7.597   9.032 -0.0391 -0.0618  0.0482
  932MOL0     C28501   5.570   7.736   8.961  0.4146 -0.9671 -0.0216
  932MOL0     O28502   5.703   7.747   8.908  0.1315  0.3235  0.1098
  932MOL0     C28503   5.747   7.874   8.882 -0.5161  0.5724 -0.0454
  932MOL0     C28504   5.884   7.883   8.864  0.6542  0.6719 -0.2699
  932MOL0     C28505   5.954   8.004   8.861  0.6342  1.2857 -0.0169
  932MOL0     C28506   6.102   7.996   8.850 -0.2355 -0.5632  0.3807
  932MOL0     C28507   5.875   8.121   8.859 -0.2658 -0.9007  0.1283
  932MOL0     C28508   5.920   8.260   8.859 -0.8305 -0.1305  0.2798
  932MOL0     O28509   5.829   8.354   8.835 -0.6509 -0.4001  0.0114
  932MOL0     C28510   5.875   8.480   8.793  0.8013  0.3104 -0.6990
  932MOL0     C28511   5.978   8.507   8.710 -1.0379  0.6783  0.3454
  932MOL0     C28512   6.005   8.644   8.662 -0.0505  0.0829 -0.4052
  932MOL0     C28513   5.926   8.752   8.702 -0.0665 -0.2642 -0.8578
  932MOL0     O28514   5.964   8.882   8.683 -0.6216  0.5951 -0.2811
  932MOL0     C28515   6.059   8.916   8.587 -0.5661  0.7832  0.6517
  932MOL0     C28516   6.012   9.028   8.494 -0.7118  1.0264  0.0096
  932MOL0     C28517   6.122   9.116   8.444 -0.7713  0.7720  0.0853
  932MOL0     C28518   6.251   9.045   8.375  0.3418  0.3889 -0.1186
  932MOL0     C28519   6.293   9.136   8.269  0.9321 -0.7304  0.5758
  932MOL0     C28520   6.198   9.131   8.151  0.2687  0.4685 -0.0244
  932MOL0     C28521   6.258   9.185   8.022  0.2150  0.3675  0.3387
  932MOL0     C28522   6.172   9.157   7.902  1.0914 -0.0188  0.9840
  932MOL0    Cl28523   6.227   9.252   7.756 -0.0883 -0.0244 -0.0801
  932MOL0     C28524   5.818   8.721   8.796  0.0546 -0.9920 -1.1982
  932MOL0     C28525   5.794   8.589   8.842 -0.6501 -0.0425  0.4207
  932MOL0     O28526   6.041   8.281   8.856 -0.8486  0.8332  0.5439
  932MOL0     C28527   5.736   8.108   8.862  0.0438 -0.1780 -0.2819
  932MOL0     C28528   5.674   7.991   8.880 -0.2778 -0.5632 -0.4009
  932MOL0     N28529   5.253   7.562   9.366 -0.1423 -0.1039  0.1900
  932MOL0     N28530   5.129   7.536   9.407  0.2387 -0.0285  0.0746
  932MOL0     C28531   4.008   7.251   9.775  0.0910  0.4802  0.0989
  932MOL0     C28532   3.906   7.306   9.854 -0.2742  0.7347 -0.0445
  932MOL0     C28533   3.617   7.528  10.076 -0.3446 -1.0381  0.6801
  932MOL0     C28534   3.518   7.437  10.058 -0.4666  0.1406  0.4795
  932MOL0     C28535   3.407   7.431  10.142 -0.5826  0.7322 -1.3309
  932MOL0     C28536   3.391   7.525  10.247 -0.5217  0.6155  0.6285
  932MOL0     O28537   3.281   7.528  10.332  0.0271 -0.4122  0.6127
  932MOL0     C28538   3.192   7.411  10.326 -0.8171 -0.7130 -0.4954
  932MOL0     C28539   3.080   7.434  10.425  0.4535 -0.3476  0.0352
  932MOL0     C28540   2.967   7.328  10.407  0.8569  0.3314  0.9395
  932MOL0     C28541   2.864   7.332  10.513  1.0008  0.0848  0.5021
  932MOL0     C28542   2.763   7.227  10.497  0.2369  0.0571 -0.6230
  932MOL0     C28543   2.674   7.145  10.492 -1.1042 -0.0275  0.3887
  932MOL0     C28544   3.488   7.618  10.262  0.5577 -0.0391  0.7320
  932MOL0     C28545   3.609   7.621  10.188  0.6008 -0.6248  0.0381
  932MOL0     C28546   3.717   7.718  10.211  0.3276 -0.0809  0.0503
  932MOL0     H28547   4.075   7.418  10.122 -2.7502 -1.7305  1.2158
  932MOL0     H28548   4.264   7.335   9.983 -1.1825 -0.9301  0.1722
  932MOL0     H28549   4.365   7.393   9.718 -0.9331  0.8643 -0.2797
  932MOL0     H28550   4.252   7.339   9.591 -0.7142 -0.0496  1.8303
  932MOL0     H28551   4.435   7.138   9.643 -0.7829 -0.6813 -1.4053
  932MOL0     H28552   4.422   7.224   9.489  2.5368 -0.6104 -0.5134
  932MOL0     H28553   4.590   7.375   9.541 -0.4457  0.3754  0.5161
  932MOL0     H28554   4.583   7.337   9.713 -3.6189 -1.3503  1.1972
  932MOL0     H28555   4.697   7.115   9.638 -0.6431 -1.6109 -0.8055
  932MOL0     H28556   4.667   7.172   9.470 -0.8069  0.0028 -0.2435
  932MOL0     H28557   4.861   7.248   9.684  1.2570  0.8844 -0.1261
  932MOL0     H28558   4.816   7.369   9.573 -0.1995 -0.7123  1.0338
  932MOL0     H28559   5.031   7.234   9.541  0.8068 -0.4671 -0.4573
  932MOL0     H28560   4.934   7.088   9.496  2.2727 -0.3152  0.8985
  932MOL0     H28561   4.838   7.192   9.315 -0.2016  0.2450 -0.3767
  932MOL0     H28562   5.015   7.179   9.294  0.9474  1.8374 -0.3718
  932MOL0     H28563   4.922   7.383   9.204 -0.4109 -0.9330  0.7321
  932MOL0     H28564   4.874   7.440   9.372  0.7156  1.4137  1.1736
  932MOL0     H28565   5.173   7.293   9.193 -3.4528 -0.6348  3.0828
  932MOL0     H28566   5.447   7.376   9.149  0.9714 -1.0400  0.4047
  932MOL0     H28567   5.502   7.494   9.270 -1.7167 -2.4590  1.6308
  932MOL0     H28568   5.342   7.588   9.029  1.9322 -0.4042 -2.0873
  932MOL0     H28569   5.399   7.690   9.153 -1.3877 -0.6136  0.3468
  932MOL0     H28570   5.628   7.592   9.109 -2.4745 -2.0693  2.6068
  932MOL0     H28571   5.566   7.514   8.962  1.7478 -2.3876  2.9719
  932MOL0     H28572   5.495   7.757   8.883 -0.9291 -0.8075  1.2760
  932MOL0     H28573   5.556   7.809   9.041  0.9883 -0.7809 -0.0838
  932MOL0     H28574   5.954   7.800   8.864  1.4420  1.2183 -3.0807
  932MOL0     H28575   6.146   8.060   8.772  3.7957 -1.3387  1.7485
  932MOL0     H28576   6.134   7.898   8.814  0.2837 -1.2814  2.6096
  932MOL0     H28577   6.159   8.014   8.942 -0.5054 -0.5015  0.5348
  932MOL0     H28578   6.030   8.423   8.666 -3.2771  1.3813 -4.2854
  932MOL0     H28579   6.103   8.658   8.619 -0.4447 -0.5335 -1.5659
  932MOL0     H28580   6.156   8.943   8.631 -0.9735 -2.0391  3.7469
  932MOL0     H28581   6.079   8.828   8.524 -2.2698  0.4633  0.5285
  932MOL0     H28582   5.968   8.981   8.405 -0.0629 -0.0745  0.2448
  932MOL0     H28583   5.934   9.088   8.542 -1.7222 -1.3697  1.5930
  932MOL0     H28584   6.148   9.182   8.526  0.7658  0.5469 -0.1788
  932MOL0     H28585   6.087   9.191   8.372  2.3135 -0.2837 -2.7842
  932MOL0     H28586   6.224   8.945   8.341 -5.3908  2.0473 -1.5545
  932MOL0     H28587   6.331   9.045   8.450  1.9695 -1.1399 -1.7480
  932MOL0     H28588   6.304   9.235   8.313 -0.9627 -0.6796  1.0267
  932MOL0     H28589   6.384   9.107   8.217  0.3723  1.9027 -2.1793
  932MOL0     H28590   6.104   9.180   8.175  1.6809  2.0074  3.0752
  932MOL0     H28591   6.165   9.028   8.138 -4.3356  1.9049 -1.4430
  932MOL0     H28592   6.356   9.142   8.000 -0.5972 -1.5444  0.2119
  932MOL0     H28593   6.255   9.294   8.028 -0.2292  0.3129  1.4959
  932MOL0     H28594   6.067   9.170   7.929  2.0184  1.7301  4.2672
  932MOL0     H28595   6.180   9.048   7.889 -2.7649 -0.3342  0.1455
  932MOL0     H28596   5.754   8.797   8.840  0.2438 -1.3716 -0.2398
  932MOL0     H28597   5.720   8.562   8.916  1.6900  1.8979  3.7328
  932MOL0     H28598   5.666   8.187   8.886 -1.1512 -1.4493  0.5811
  932MOL0     H28599   5.568   8.000   8.902 -0.1404 -0.3479  0.1776
  932MOL0     H28600   3.993   7.195   9.684 -0.9727 -3.0639  2.2445
  932MOL0     H28601   3.802   7.297   9.824  0.4803  1.9486 -3.5264
  932MOL0     H28602   3.529   7.352   9.990 -1.9853 -0.4273  0.8952
  932MOL0     H28603   3.343   7.344  10.136  1.5117 -0.8847 -1.4278
  932MOL0     H28604   3.148   7.406  10.226  1.3739  3.3885 -1.8819
  932MOL0     H28605   3.248   7.321  10.351 -2.6170 -1.4781  1.0332
  932MOL0     H28606   3.023   7.526  10.412  1.6801  0.3233 -0.8072
  932MOL0     H28607   3.115   7.427  10.528 -2.1413  2.1417  1.2369
  932MOL0     H28608   2.932   7.355  10.307  1.6499 -0.5030  0.4114
  932MOL0     H28609   2.997   7.222  10.408  0.9363  0.3536  0.9321
  932MOL0     H28610   2.806   7.425  10.521 -0.7575 -0.4173 -3.6050
  932MOL0     H28611   2.911   7.305  10.607 -0.6612  0.0310  1.3439
  932MOL0     H28612   2.598   7.070  10.491 -2.3920  1.2400  0.1484
  932MOL0     H28613   3.469   7.681  10.349  0.5275  1.6534 -0.4652
  932MOL0     H28614   3.708   7.766  10.309 -1.7420  3.5207 -1.6698
  932MOL0     H28615   3.817   7.675  10.201  0.6870  0.6022  0.5333
  932MOL0     H28616   3.710   7.807  10.147  1.1012  0.2015  0.3451
  933MOL0     O28617   3.669   8.881   3.165  0.1915  0.2020 -0.0254
  933MOL0     C28618   3.754   8.814   3.113 -0.7615 -0.2603  1.0489
  933MOL0     O28619   3.733   8.706   3.035  1.4996  0.7986  0.3859
  933MOL0     C28620   3.599   8.691   2.986 -0.3277 -0.2126  0.1346
  933MOL0     C28621   3.584   8.725   2.853 -0.5876 -0.6162  0.9689
  933MOL0     C28622   3.447   8.710   2.790 -0.2681 -0.5627  0.7458
  933MOL0     C28623   3.345   8.647   2.859 -0.2449 -0.5706 -0.8297
  933MOL0     O28624   3.232   8.617   2.796  0.9193 -0.3622  0.1390
  933MOL0     C28625   3.101   8.611   2.863 -0.3568 -0.5954 -0.9990
  933MOL0     C28626   2.986   8.559   2.780 -0.2713 -0.2557 -0.0233
  933MOL0     C28627   2.966   8.650   2.663  0.1407  0.0223  0.7886
  933MOL0     C28628   2.846   8.601   2.589 -0.5942 -0.1913 -0.7983
  933MOL0     C28629   2.803   8.709   2.488 -0.5517 -0.2112  0.0295
  933MOL0     C28630   2.891   8.724   2.363  0.2243  1.0720  0.3804
  933MOL0     C28631   2.840   8.824   2.268  0.6244 -0.2294  0.5897
  933MOL0     C28632   2.932   8.822   2.147 -0.1032 -0.6787  0.8004
  933MOL0     N28633   2.931   8.693   2.075 -1.6486  0.4007  1.0291
  933MOL0     C28634   3.038   8.600   2.078 -0.1418 -0.5991  0.2109
  933MOL0     C28635   2.997   8.498   1.994  0.1345 -0.0899  0.3557
  933MOL0     C28636   3.066   8.383   1.946  0.1114  0.3464 -0.0941
  933MOL0     C28637   2.982   8.250   1.927 -0.3897 -0.7168 -0.0791
  933MOL0     C28638   2.892   8.213   2.048  0.0156  0.4279  0.8189
  933MOL0     C28639   2.962   8.207   2.177 -1.1482  0.3153  0.5348
  933MOL0     O28640   2.912   8.102   2.268  0.8493 -0.6346 -0.1987
  933MOL0     C28641   2.933   8.131   2.400 -0.2388  0.5015  0.0416
  933MOL0     C28642   3.055   8.086   2.474  0.6688  0.1819 -1.1041
  933MOL0     C28643   3.087   8.125   2.605 -0.9097  0.1097 -0.1213
  933MOL0     C28644   3.232   8.097   2.663 -0.3438 -0.8810 -0.2813
  933MOL0     C28645   2.973   8.188   2.681 -0.7345  0.0692  0.1472
  933MOL0     C28646   2.984   8.207   2.825  0.0549  0.8168  0.3224
  933MOL0     O28647   2.886   8.274   2.887  0.0881 -0.1441  0.1818
  933MOL0     C28648   2.881   8.310   3.016 -0.0158 -0.5583 -0.0647
  933MOL0     C28649   2.759   8.336   3.072  1.0093  0.0568  0.4568
  933MOL0     C28650   2.746   8.394   3.190  0.1046 -0.0742 -0.3769
  933MOL0     C28651   2.856   8.412   3.269  0.1504  0.2949 -0.5621
  933MOL0     O28652   2.830   8.465   3.392  0.3723  0.7094  0.3120
  933MOL0     C28653   2.915   8.447   3.500  0.0973  0.4854 -0.6030
  933MOL0     C28654   2.847   8.492   3.620  0.3682 -0.0899 -0.4327
  933MOL0     C28655   2.829   8.644   3.616 -0.3635 -0.4272 -0.5168
  933MOL0     C28656   2.950   8.723   3.673 -0.2994  0.1190  1.5233
  933MOL0     C28657   2.935   8.871   3.641  0.0833 -0.9834 -0.2928
  933MOL0     C28658   3.063   8.940   3.710 -0.7732  0.1329 -0.1612
  933MOL0     C28659   3.034   8.986   3.857  0.3703  0.2184 -0.6820
  933MOL0     C28660   3.138   9.090   3.914  0.2271  1.2513  1.1915
  933MOL0    Cl28661   3.302   9.051   3.854  0.2851  0.3119 -0.1630
  933MOL0     C28662   2.980   8.389   3.216 -1.6590  0.1955 -0.5170
  933MOL0     C28663   2.997   8.335   3.087 -0.1631 -0.3558  0.5298
  933MOL0     O28664   3.079   8.156   2.884 -0.0408  0.6227  0.1269
  933MOL0     C28665   2.860   8.234   2.610 -0.4444  0.3687  0.4012
  933MOL0     C28666   2.842   8.197   2.471 -0.1031  0.1887  0.2279
  933MOL0     N28667   2.872   8.527   1.951 -0.4720  0.1974  0.4721
  933MOL0     N28668   2.833   8.642   2.000  0.9382  0.1917  0.0984
  933MOL0     C28669   3.367   8.625   2.998 -0.8784 -0.5118 -0.7682
  933MOL0     C28670   3.491   8.652   3.061  0.0037 -0.3697 -0.1222
  933MOL0     C28671   3.898   8.834   3.156 -0.7576 -0.3892  0.1074
  933MOL0     C28672   3.997   8.745   3.127 -0.3453  0.4051  0.0428
  933MOL0     C28673   4.127   8.765   3.166 -0.5584  0.0613  0.1283
  933MOL0     C28674   4.175   8.871   3.235 -0.3276 -0.2752  0.2339
  933MOL0     O28675   4.309   8.896   3.265  0.2770 -0.3055  0.1253
  933MOL0     C28676   4.402   8.896   3.160  0.5616 -0.2390  0.0586
  933MOL0     C28677   4.376   9.017   3.078  0.6309  0.4947  0.1563
  933MOL0     C28678   4.506   9.067   3.009 -1.0680  0.0296 -0.1910
  933MOL0     C28679   4.481   9.208   2.958  0.2348 -0.7767 -0.2560
  933MOL0     C28680   4.575   9.262   2.859  0.3504  0.5857 -0.2488
  933MOL0     C28681   4.634   9.296   2.760  0.0550 -0.0185 -0.1559
  933MOL0     C28682   4.079   8.958   3.278  0.3457 -0.4512  0.1286
  933MOL0     C28683   3.937   8.939   3.245  0.1476 -0.7207  0.1699
  933MOL0     C28684   3.842   9.042   3.316  0.1391 -0.3027 -0.5709
  933MOL0     H28685   3.663   8.773   2.797  0.2564  0.0903  2.7079
  933MOL0     H28686   3.433   8.732   2.685  1.0019 -2.5873  0.0881
  933MOL0     H28687   3.083   8.714   2.894  3.5390 -0.8013  2.9543
  933MOL0     H28688   3.103   8.557   2.958 -1.9603  1.2686  0.1505
  933MOL0     H28689   3.013   8.457   2.750 -3.0526 -0.4799 -2.2049
  933MOL0     H28690   2.896   8.555   2.841 -0.2663  0.2862  0.0253
  933MOL0     H28691   2.952   8.753   2.696  1.5397  1.7917 -3.3857
  933MOL0     H28692   3.051   8.642   2.595  0.1805  0.5536  0.7718
  933MOL0     H28693   2.869   8.503   2.546 -1.7296 -1.2290  0.8091
  933MOL0     H28694   2.764   8.587   2.661  0.3408 -0.2418  0.2837
  933MOL0     H28695   2.802   8.800   2.549 -0.6097 -1.3041  1.7135
  933MOL0     H28696   2.701   8.712   2.449  0.2377 -2.5990 -2.4862
  933MOL0     H28697   2.994   8.740   2.397 -0.0775  0.6945  1.5340
  933MOL0     H28698   2.901   8.630   2.309 -0.9262  1.0587  0.1651
  933MOL0     H28699   2.829   8.930   2.294  0.9473  0.6898 -2.5316
  933MOL0     H28700   2.741   8.795   2.232 -0.3488 -0.3618  3.2088
  933MOL0     H28701   2.908   8.905   2.080  0.8877 -1.0519 -0.0651
  933MOL0     H28702   3.034   8.853   2.174  0.7669  0.4601 -3.1145
  933MOL0     H28703   3.128   8.605   2.139 -2.7089  1.8592  4.3616
  933MOL0     H28704   3.148   8.373   2.017  0.3392 -0.0965 -0.4151
  933MOL0     H28705   3.118   8.413   1.854 -1.4113  0.2948 -1.0219
  933MOL0     H28706   2.912   8.267   1.844 -0.4647 -1.4594 -0.1735
  933MOL0     H28707   3.047   8.167   1.897  1.5569  0.5652  0.4184
  933MOL0     H28708   2.811   8.283   2.069 -2.0602 -1.6453  0.2996
  933MOL0     H28709   2.838   8.119   2.031  0.0172 -0.0928  3.3157
  933MOL0     H28710   3.070   8.188   2.167 -0.9455 -0.4747  3.4501
  933MOL0     H28711   2.965   8.310   2.211  3.3603  2.0149 -3.7606
  933MOL0     H28712   3.134   8.042   2.413  0.7386  0.2906 -1.0939
  933MOL0     H28713   3.308   8.080   2.586  1.7718  1.7736  1.0411
  933MOL0     H28714   3.242   8.012   2.731  0.6360  0.5628  1.5028
  933MOL0     H28715   3.262   8.184   2.722 -1.0715 -0.0271 -1.1258
  933MOL0     H28716   2.668   8.322   3.014  0.1132 -0.4606  1.9336
  933MOL0     H28717   2.645   8.414   3.225 -0.0379  1.0250 -1.3637
  933MOL0     H28718   2.941   8.340   3.508 -5.3440 -0.9496  3.2489
  933MOL0     H28719   3.006   8.501   3.474  0.6661 -0.4559 -0.6258
  933MOL0     H28720   2.750   8.446   3.641  1.3887 -1.0429  2.9597
  933MOL0     H28721   2.910   8.460   3.703  1.5386  1.6785 -0.5665
  933MOL0     H28722   2.734   8.666   3.666 -1.1571 -1.6048 -1.4528
  933MOL0     H28723   2.816   8.672   3.511 -2.9481  0.1543 -0.1107
  933MOL0     H28724   3.042   8.675   3.638 -1.4162 -0.9825 -0.0168
  933MOL0     H28725   2.947   8.724   3.782 -0.0613 -1.6612  1.5747
  933MOL0     H28726   2.939   8.890   3.533 -1.2912  3.1363  0.1806
  933MOL0     H28727   2.840   8.901   3.687  0.2488 -2.2425  0.9401
  933MOL0     H28728   3.100   9.020   3.645 -0.7430 -1.1348 -1.7500
  933MOL0     H28729   3.150   8.878   3.733 -0.1067  1.2130  0.3152
  933MOL0     H28730   3.029   8.891   3.911 -2.4644 -0.1580 -1.4646
  933MOL0     H28731   2.932   9.025   3.867 -0.4371 -2.1136  1.1278
  933MOL0     H28732   3.149   9.090   4.023  1.8200 -0.2211  1.0783
  933MOL0     H28733   3.116   9.194   3.889 -1.2883  0.9262  1.1280
  933MOL0     H28734   3.075   8.415   3.260 -0.6577 -2.5016 -0.9262
  933MOL0     H28735   3.098   8.315   3.052  0.7141  2.9832  0.8353
  933MOL0     H28736   2.779   8.290   2.656 -1.3757 -1.0024  0.4951
  933MOL0     H28737   2.753   8.227   2.416  0.3300  0.5574 -0.2755
  933MOL0     H28738   3.282   8.593   3.057  0.6335 -1.8104  0.8008
  933MOL0     H28739   3.500   8.659   3.169 -0.1896 -0.0215 -0.1270
  933MOL0     H28740   3.962   8.659   3.072  0.0631  0.8979 -1.0154
  933MOL0     H28741   4.196   8.688   3.133 -0.7304  0.4481 -1.1531
  933MOL0     H28742   4.504   8.908   3.197 -0.4883  3.1333  2.3491
  933MOL0     H28743   4.388   8.808   3.096  0.8776 -0.1899 -0.0800
  933MOL0     H28744   4.329   9.095   3.138 -2.1742  0.5593 -1.9320
  933MOL0     H28745   4.295   9.000   3.006 -0.8861 -2.2406  2.3269
  933MOL0     H28746   4.594   9.074   3.074 -0.7147 -1.3917 -0.4733
  933MOL0     H28747   4.521   8.997   2.926 -2.0414  0.6450 -0.8964
  933MOL0     H28748   4.472   9.281   3.038 -3.2189  0.3844 -1.5322
  933MOL0     H28749   4.389   9.202   2.899  1.1513  0.7804 -1.9191
  933MOL0     H28750   4.704   9.303   2.678 -0.0581  1.4452 -0.1551
  933MOL0     H28751   4.115   9.041   3.338 -0.9717  0.7829 -0.7111
  933MOL0     H28752   3.793   9.103   3.239  0.1140  0.8161  0.2917
  933MOL0     H28753   3.763   8.993   3.374  0.0153  2.3079  1.6842
  933MOL0     H28754   3.900   9.107   3.383 -1.5623 -0.9471  1.5981
  934MOL0     O28755   5.812   7.149   4.096  0.8255  0.1844 -0.5348
  934MOL0     C28756   5.801   7.233   4.010  0.2681  0.2784  0.5842
  934MOL0     O28757   5.908   7.296   3.941 -1.1531 -0.0829 -1.0410
  934MOL0     C28758   6.041   7.250   3.947 -0.6017 -0.4635 -0.4342
  934MOL0     C28759   6.079   7.112   3.949 -0.2948 -0.0349 -0.3690
  934MOL0     C28760   6.210   7.060   3.923 -0.0893  0.2647 -0.3570
  934MOL0     C28761   6.310   7.150   3.901 -0.0784  0.0261  0.8470
  934MOL0     O28762   6.443   7.128   3.873 -0.6098  0.3370 -0.0321
  934MOL0     C28763   6.482   6.989   3.855 -0.6082 -0.4290  0.4082
  934MOL0     C28764   6.636   6.966   3.842 -0.6069  0.2735  0.0797
  934MOL0     C28765   6.713   7.045   3.954 -0.2649  0.6287 -0.7266
  934MOL0     C28766   6.863   7.041   3.921  0.1322  0.2668  0.1797
  934MOL0     C28767   6.949   7.125   4.018 -0.9861  0.9812  0.2503
  934MOL0     C28768   7.095   7.111   3.966  0.7174 -0.1211 -0.7778
  934MOL0     C28769   7.120   7.162   3.827  0.5368  0.6693  0.0439
  934MOL0     C28770   7.091   7.315   3.806  0.7012  0.2515 -1.2884
  934MOL0     N28771   7.187   7.401   3.869 -0.4605  1.0494  0.1062
  934MOL0     C28772   7.206   7.437   3.998 -0.2074  1.0314  0.1261
  934MOL0     C28773   7.318   7.513   3.993 -0.5936 -0.5806 -0.7091
  934MOL0     C28774   7.370   7.596   4.109  0.6135 -0.6939 -0.7346
  934MOL0     C28775   7.360   7.748   4.080 -1.0850 -0.5157  0.8510
  934MOL0     C28776   7.214   7.809   4.071 -0.3733 -0.7752 -0.6962
  934MOL0     C28777   7.134   7.802   4.201 -0.0404 -0.6039  0.1877
  934MOL0     O28778   7.001   7.856   4.174 -0.3540  0.0567  0.2512
  934MOL0     C28779   6.898   7.782   4.229  0.3794  0.1439 -0.3159
  934MOL0     C28780   6.858   7.667   4.165 -0.3752 -0.5938  0.0842
  934MOL0     C28781   6.752   7.584   4.209 -0.3064 -0.2764 -1.3363
  934MOL0     C28782   6.730   7.457   4.136  0.2999  0.8650 -0.3316
  934MOL0     C28783   6.688   7.622   4.331  0.7431 -0.3025  0.9066
  934MOL0     C28784   6.568   7.546   4.377  0.6744 -0.0856 -0.0779
  934MOL0     O28785   6.483   7.476   4.295  0.0926  0.1761 -0.1794
  934MOL0     C28786   6.373   7.413   4.342 -0.7661 -0.2258 -0.1526
  934MOL0     C28787   6.272   7.381   4.251 -0.1677 -0.7572 -0.2597
  934MOL0     C28788   6.160   7.311   4.285  0.0008 -0.4017 -0.8283
  934MOL0     C28789   6.139   7.271   4.412 -0.7032 -0.4405 -0.0847
  934MOL0     O28790   6.040   7.191   4.458 -0.2805  0.4021  1.0504
  934MOL0     C28791   5.999   7.083   4.366 -0.7800  0.3461 -0.6986
  934MOL0     C28792   5.884   7.024   4.445 -0.0562 -0.7584 -1.3603
  934MOL0     C28793   5.799   6.919   4.369  0.6905 -0.0918 -0.0050
  934MOL0     C28794   5.893   6.802   4.335  0.5037 -0.2097  0.1641
  934MOL0     C28795   5.828   6.672   4.382  0.8405  0.2256  0.1771
  934MOL0     C28796   5.928   6.568   4.329 -0.3504  0.0909  0.4842
  934MOL0     C28797   5.863   6.428   4.337 -0.5006 -0.1311  0.3957
  934MOL0     C28798   5.954   6.314   4.346 -0.5484  0.7293  0.1387
  934MOL0    Cl28799   6.113   6.342   4.275 -0.1212  0.0659 -0.2491
  934MOL0     C28800   6.243   7.299   4.505  0.2350  0.1454  0.4439
  934MOL0     C28801   6.362   7.368   4.472  0.0554 -0.2399 -0.1510
  934MOL0     O28802   6.537   7.580   4.490  0.2581 -0.3356 -0.1431
  934MOL0     C28803   6.715   7.748   4.389 -0.6851  0.9764 -0.4554
  934MOL0     C28804   6.823   7.821   4.344 -0.3493 -0.4133  0.7021
  934MOL0     N28805   7.373   7.510   3.873 -0.2063 -0.3595 -0.4930
  934MOL0     N28806   7.291   7.449   3.797  0.3408  0.6225  0.0152
  934MOL0     C28807   6.269   7.285   3.892 -1.1251 -0.0520  0.1808
  934MOL0     C28808   6.141   7.342   3.909 -0.5520  0.0722 -0.9839
  934MOL0     C28809   5.664   7.281   3.971  0.8027  0.3278 -0.6448
  934MOL0     C28810   5.643   7.404   3.921  0.6318  0.5714 -0.1549
  934MOL0     C28811   5.521   7.453   3.887 -0.2069  0.0289  0.3858
  934MOL0     C28812   5.398   7.380   3.901 -0.5302 -0.0549  0.1124
  934MOL0     O28813   5.283   7.429   3.861  0.0069 -0.4445  0.8696
  934MOL0     C28814   5.263   7.567   3.830  0.1258 -0.6362 -0.4126
  934MOL0     C28815   5.228   7.640   3.957 -0.2375  0.3689 -0.6620
  934MOL0     C28816   5.095   7.579   4.022  0.5255  0.1093 -0.1703
  934MOL0     C28817   5.040   7.677   4.129 -0.1520 -0.4937 -0.2629
  934MOL0     C28818   5.144   7.697   4.237  1.1079 -0.1110 -0.0407
  934MOL0     C28819   5.236   7.707   4.311  0.1008 -0.4910  0.0517
  934MOL0     C28820   5.416   7.251   3.957 -0.1205  0.1025 -0.3872
  934MOL0     C28821   5.540   7.201   3.986  0.5599  0.5937  1.0059
  934MOL0     C28822   5.553   7.058   4.041  0.4534 -0.0597  0.2201
  934MOL0     H28823   6.007   7.040   3.988 -2.0898  1.8414 -0.0863
  934MOL0     H28824   6.238   6.956   3.933  1.3746  0.7338  0.8006
  934MOL0     H28825   6.435   6.952   3.764  1.4480  0.8800 -1.2688
  934MOL0     H28826   6.445   6.924   3.935  2.6230 -2.4151  0.4874
  934MOL0     H28827   6.652   6.858   3.852 -1.4373  0.2927  2.2345
  934MOL0     H28828   6.673   7.003   3.746 -2.4051  0.6368 -0.5112
  934MOL0     H28829   6.680   7.149   3.968 -1.1892  0.2065  0.4994
  934MOL0     H28830   6.687   6.990   4.046  1.6182 -0.2571 -0.6923
  934MOL0     H28831   6.890   6.935   3.917 -3.4978 -0.7945 -0.4342
  934MOL0     H28832   6.862   7.085   3.821  1.3307 -1.6139 -0.7088
  934MOL0     H28833   6.950   7.086   4.120  2.1168 -2.5363 -0.8998
  934MOL0     H28834   6.918   7.230   4.009  0.3027  1.2075 -2.1682
  934MOL0     H28835   7.170   7.155   4.032  2.0251  1.3558 -3.1212
  934MOL0     H28836   7.124   7.005   3.971  0.5438 -0.3560 -3.5005
  934MOL0     H28837   7.064   7.101   3.756 -0.7681  0.6980  1.0114
  934MOL0     H28838   7.226   7.151   3.805  0.4535  2.9744 -1.9647
  934MOL0     H28839   7.091   7.334   3.698 -2.3168 -1.3767 -1.6842
  934MOL0     H28840   6.988   7.348   3.823  0.0271 -1.9515 -0.7779
  934MOL0     H28841   7.134   7.418   4.077  0.4396  0.2401  0.5463
  934MOL0     H28842   7.477   7.573   4.118  0.3577 -1.4156  0.7736
  934MOL0     H28843   7.321   7.572   4.204 -0.1172  3.5725  0.1360
  934MOL0     H28844   7.424   7.805   4.149 -2.4067 -0.5520  2.1630
  934MOL0     H28845   7.396   7.766   3.978 -2.2272 -0.0826  0.5140
  934MOL0     H28846   7.227   7.912   4.035  3.1939 -0.8604 -0.0402
  934MOL0     H28847   7.163   7.751   3.994  2.1328 -1.7830 -1.6876
  934MOL0     H28848   7.120   7.695   4.220 -3.7118 -0.4562 -0.9481
  934MOL0     H28849   7.189   7.861   4.275  3.5136 -2.6569 -0.5583
  934MOL0     H28850   6.909   7.640   4.073  0.1076 -1.5115  0.6150
  934MOL0     H28851   6.636   7.453   4.080 -0.9446  1.7391  1.5778
  934MOL0     H28852   6.728   7.371   4.204 -3.1334  2.5239  1.9695
  934MOL0     H28853   6.808   7.436   4.062  0.6854 -4.9358  1.2181
  934MOL0     H28854   6.282   7.430   4.155 -1.6490  2.4246  1.0640
  934MOL0     H28855   6.093   7.290   4.202 -1.1672 -1.9082  0.4353
  934MOL0     H28856   5.972   7.124   4.268  5.0368  0.6303 -2.5736
  934MOL0     H28857   6.084   7.019   4.344 -1.4156 -0.9055  0.3242
  934MOL0     H28858   5.926   6.974   4.532  0.5630 -0.9352 -1.7545
  934MOL0     H28859   5.820   7.104   4.485  1.6636 -0.0737  0.1430
  934MOL0     H28860   5.761   6.974   4.282  0.2165 -1.7579 -0.8805
  934MOL0     H28861   5.715   6.883   4.430 -0.7644 -0.9703 -2.3751
  934MOL0     H28862   5.989   6.796   4.387 -0.5497 -0.2094  2.2066
  934MOL0     H28863   5.907   6.802   4.226  1.7170  0.6636  0.3029
  934MOL0     H28864   5.815   6.673   4.491 -2.1289 -2.7057  0.0159
  934MOL0     H28865   5.728   6.666   4.337 -0.6828  0.8681  3.2410
  934MOL0     H28866   6.020   6.560   4.388 -0.9382 -0.9218  1.2936
  934MOL0     H28867   5.946   6.587   4.223 -0.2046 -0.8551  0.3269
  934MOL0     H28868   5.829   6.414   4.234  1.2327 -0.5948 -0.1366
  934MOL0     H28869   5.791   6.420   4.419 -2.5005 -1.6869 -1.3740
  934MOL0     H28870   5.901   6.228   4.303 -0.7859  0.8045  0.2801
  934MOL0     H28871   5.958   6.295   4.453 -0.9357 -1.1453 -0.1484
  934MOL0     H28872   6.230   7.254   4.602 -3.3913  1.5926  0.7955
  934MOL0     H28873   6.432   7.371   4.555  1.9017  2.0747 -1.6693
  934MOL0     H28874   6.667   7.776   4.482 -2.0060  0.6973 -1.0305
  934MOL0     H28875   6.855   7.914   4.390  0.4102 -0.8946  1.2010
  934MOL0     H28876   6.357   7.348   3.879 -0.4287 -0.1699  3.3831
  934MOL0     H28877   6.126   7.449   3.908  2.0127  0.4854 -0.9737
  934MOL0     H28878   5.737   7.458   3.922  1.4435 -0.8077 -0.2611
  934MOL0     H28879   5.535   7.548   3.837 -4.1562  0.2447 -0.6061
  934MOL0     H28880   5.352   7.610   3.783  0.2630  0.5608  0.8766
  934MOL0     H28881   5.179   7.589   3.765  0.8150  1.8231 -0.5641
  934MOL0     H28882   5.213   7.745   3.928 -0.5075 -0.0568 -2.1249
  934MOL0     H28883   5.308   7.662   4.029  0.6920 -1.4542 -1.0899
  934MOL0     H28884   5.030   7.578   3.934 -0.5371 -1.5748  0.5924
  934MOL0     H28885   5.112   7.482   4.069  2.5928  0.2393 -0.5265
  934MOL0     H28886   4.952   7.628   4.172 -3.3132  1.6789 -3.5675
  934MOL0     H28887   5.002   7.770   4.084 -0.3634 -1.0073 -1.1769
  934MOL0     H28888   5.329   7.713   4.364 -0.2739 -1.0495  0.7775
  934MOL0     H28889   5.342   7.173   3.972  2.3350 -1.7987  3.4479
  934MOL0     H28890   5.626   6.999   3.984 -1.4779  1.1051 -3.8438
  934MOL0     H28891   5.578   7.063   4.147  2.5655 -0.8321 -0.1835
  934MOL0     H28892   5.462   6.999   4.029 -0.3501  1.2181 -0.1837
  935MOL0     O28893   6.804   0.143   5.560  0.2634  0.0727 -0.0717
  935MOL0     C28894   6.895   0.140   5.639  0.4250 -0.3110  0.3792
  935MOL0     O28895   6.949   0.247   5.710  0.3466  0.1159 -0.7566
  935MOL0     C28896   6.878   0.368   5.711  0.5572 -0.4262  0.3153
  935MOL0     C28897   6.959   0.486   5.726 -1.9586  0.7159 -0.0294
  935MOL0     C28898   6.897   0.609   5.722  1.1866  0.1378  0.4481
  935MOL0     C28899   6.754   0.624   5.748  0.5165  0.1921  0.1654
  935MOL0     O28900   6.692   0.750   5.754  0.0982 -0.3094  0.3288
  935MOL0     C28901   6.612   0.782   5.872 -0.3587 -1.2433  0.5034
  935MOL0     C28902   6.536   0.913   5.846  0.6087 -0.1697 -0.1470
  935MOL0     C28903   6.445   0.914   5.713  0.1276 -0.4561  0.4702
  935MOL0     C28904   6.379   1.047   5.699 -0.5363 -0.4494 -0.3488
  935MOL0     C28905   6.339   1.070   5.558 -0.0042  0.0233  0.4370
  935MOL0     C28906   6.252   1.190   5.546 -0.5208 -1.1027 -0.4520
  935MOL0     C28907   6.220   1.244   5.408  0.4277 -0.2403 -0.3506
  935MOL0     C28908   6.102   1.347   5.403 -0.2386 -0.6691 -0.6564
  935MOL0     N28909   6.145   1.489   5.381  0.9274 -0.4717  0.7141
  935MOL0     C28910   6.254   1.556   5.422  0.0594 -0.4420  0.0322
  935MOL0     C28911   6.241   1.679   5.380  0.0212 -0.4660 -1.0181
  935MOL0     C28912   6.346   1.789   5.390  0.0401 -0.2232  0.1116
  935MOL0     C28913   6.433   1.783   5.516 -0.4917 -0.7267 -0.5368
  935MOL0     C28914   6.359   1.828   5.644 -0.1159 -0.1366 -0.0901
  935MOL0     C28915   6.239   1.738   5.701  0.3548 -0.3523 -0.4851
  935MOL0     O28916   6.292   1.611   5.744  0.2375 -0.0854 -0.1190
  935MOL0     C28917   6.314   1.585   5.876 -0.4948 -0.1811 -0.1562
  935MOL0     C28918   6.380   1.468   5.908  0.1545  0.3581 -1.0555
  935MOL0     C28919   6.412   1.426   6.034 -0.1495  0.2473  0.3199
  935MOL0     C28920   6.475   1.283   6.035 -0.2213 -0.2790  0.1229
  935MOL0     C28921   6.400   1.517   6.145  0.6378  0.0177 -0.6780
  935MOL0     C28922   6.443   1.485   6.280  0.4371 -0.3014  0.8976
  935MOL0     O28923   6.522   1.377   6.289 -0.7450  0.3459  0.6808
  935MOL0     C28924   6.590   1.347   6.406  0.8564 -0.4330  0.0752
  935MOL0     C28925   6.634   1.215   6.415  0.7510 -0.0824 -0.2791
  935MOL0     C28926   6.713   1.168   6.529  0.5588 -0.6697  0.4353
  935MOL0     C28927   6.751   1.255   6.626 -0.8172 -0.7212 -0.3469
  935MOL0     O28928   6.843   1.214   6.717 -0.2330 -0.6902 -0.0267
  935MOL0     C28929   6.967   1.286   6.723  0.1697 -0.2992  0.1696
  935MOL0     C28930   7.088   1.186   6.749  0.4525  0.2749 -0.2061
  935MOL0     C28931   7.097   1.084   6.628  0.0918 -0.3241 -0.7366
  935MOL0     C28932   7.151   1.157   6.504 -0.5027  0.0097  0.0936
  935MOL0     C28933   7.199   1.047   6.398  0.1930  0.1340  0.3168
  935MOL0     C28934   7.089   0.963   6.329  0.6057 -0.5322 -0.4062
  935MOL0     C28935   7.145   0.892   6.200  0.9205  0.5820  0.1354
  935MOL0     C28936   7.047   0.795   6.130 -0.0360 -0.2595 -0.2868
  935MOL0    Cl28937   6.899   0.881   6.096 -0.5916  0.5206  0.3474
  935MOL0     C28938   6.709   1.388   6.619  0.3522  1.0349  0.1945
  935MOL0     C28939   6.614   1.430   6.517  0.6224 -0.8978 -0.3327
  935MOL0     O28940   6.408   1.559   6.369 -0.2530 -0.2673  0.1483
  935MOL0     C28941   6.336   1.644   6.121  0.2947  0.7543 -0.5042
  935MOL0     C28942   6.294   1.674   5.990  0.0017 -0.0909  0.2991
  935MOL0     N28943   6.119   1.690   5.322 -0.3045 -0.1912  0.3021
  935MOL0     N28944   6.061   1.571   5.321  0.6067 -0.1768 -0.1502
  935MOL0     C28945   6.678   0.504   5.743  0.2246 -0.5543  0.1406
  935MOL0     C28946   6.739   0.381   5.729  0.6118  0.6839  0.0080
  935MOL0     C28947   6.978   0.018   5.664  0.1430  0.9750  0.5459
  935MOL0     C28948   7.124   0.033   5.669 -0.1869  0.4622 -0.0146
  935MOL0     C28949   7.201  -0.080   5.676  0.0662  0.0571  0.1060
  935MOL0     C28950   7.143  -0.213   5.673  0.4518 -1.2543  0.5364
  935MOL0     O28951   7.219  -0.326   5.694  1.0525 -0.2463 -0.4333
  935MOL0     C28952   7.331  -0.341   5.604  1.2057 -0.0734  0.4245
  935MOL0     C28953   7.373  -0.488   5.617 -1.1004  0.0812  0.4273
  935MOL0     C28954   7.436  -0.519   5.755  0.2665  0.5754  0.6817
  935MOL0     C28955   7.329  -0.554   5.862  0.1769  0.5200 -0.4406
  935MOL0     C28956   7.383  -0.649   5.962  0.7344  0.1507  0.7091
  935MOL0     C28957   7.438  -0.717   6.049  0.0159 -0.3057 -0.4411
  935MOL0     C28958   7.006  -0.222   5.667 -0.9749 -0.4449 -0.6725
  935MOL0     C28959   6.923  -0.111   5.670  0.8870  0.3777  0.6196
  935MOL0     C28960   6.778  -0.139   5.667  1.2843 -0.1264 -0.3211
  935MOL0     H28961   7.062   0.483   5.694 -1.0232 -0.7451  2.7644
  935MOL0     H28962   6.946   0.703   5.704  0.8029 -0.2003 -3.0484
  935MOL0     H28963   6.684   0.804   5.951  0.5647  2.1884 -1.0969
  935MOL0     H28964   6.551   0.697   5.904 -2.4084  0.0917  0.3571
  935MOL0     H28965   6.465   0.926   5.928  0.9911  1.0439  0.0049
  935MOL0     H28966   6.598   1.002   5.856 -0.3924  0.7270 -1.5695
  935MOL0     H28967   6.495   0.885   5.620 -2.4553 -0.4485 -1.0326
  935MOL0     H28968   6.372   0.833   5.722  0.9404 -1.4203 -1.1522
  935MOL0     H28969   6.301   1.056   5.775 -1.5260  1.5808 -1.5279
  935MOL0     H28970   6.453   1.126   5.718 -2.0631  0.8163  0.5767
  935MOL0     H28971   6.283   0.978   5.538 -1.3427  0.6205  1.3457
  935MOL0     H28972   6.416   1.071   5.480  0.0157 -0.6627  0.4361
  935MOL0     H28973   6.158   1.153   5.589 -0.4173 -3.0915 -1.8117
  935MOL0     H28974   6.282   1.280   5.600 -3.2003 -0.2489 -0.2137
  935MOL0     H28975   6.189   1.153   5.355 -0.6470 -0.6686  0.9461
  935MOL0     H28976   6.308   1.287   5.361 -0.0859 -0.0216 -1.1255
  935MOL0     H28977   6.024   1.315   5.333 -1.4888  1.8474 -0.5182
  935MOL0     H28978   6.062   1.351   5.505  0.3578 -2.0557 -0.3459
  935MOL0     H28979   6.342   1.517   5.473 -1.2387 -2.6818  0.6712
  935MOL0     H28980   6.294   1.884   5.378  1.6490  0.4607 -2.1406
  935MOL0     H28981   6.406   1.778   5.299 -2.2529  0.6115 -1.6119
  935MOL0     H28982   6.482   1.689   5.546 -0.2758  0.7850  4.8866
  935MOL0     H28983   6.512   1.859   5.516  0.1779 -1.1403  4.0482
  935MOL0     H28984   6.424   1.840   5.732 -1.3399 -1.4610  1.0460
  935MOL0     H28985   6.315   1.928   5.635 -2.3465 -0.4721  4.3741
  935MOL0     H28986   6.195   1.796   5.783 -0.2213 -2.8554  1.0970
  935MOL0     H28987   6.167   1.725   5.620  0.2505 -2.3652 -0.1195
  935MOL0     H28988   6.382   1.385   5.838 -0.3464 -5.6865  5.0647
  935MOL0     H28989   6.457   1.222   5.946 -3.4817 -0.1585  0.5533
  935MOL0     H28990   6.427   1.221   6.111 -2.2031  1.9504  0.7990
  935MOL0     H28991   6.581   1.299   6.057  0.0325 -0.7401 -0.7398
  935MOL0     H28992   6.623   1.149   6.331  3.8960  2.7370 -3.2018
  935MOL0     H28993   6.740   1.063   6.524 -1.3999 -1.1866 -3.0375
  935MOL0     H28994   6.984   1.345   6.633  0.2926  0.8745  0.9496
  935MOL0     H28995   6.968   1.361   6.803 -0.4061 -0.7429  0.6076
  935MOL0     H28996   7.174   1.252   6.745  1.3891 -0.9309 -0.4597
  935MOL0     H28997   7.076   1.133   6.844 -1.9506  3.9048  1.7586
  935MOL0     H28998   7.000   1.039   6.603 -0.2244  0.6984 -1.3837
  935MOL0     H28999   7.165   1.001   6.648  0.3081 -0.3606 -1.5780
  935MOL0     H29000   7.231   1.229   6.524  0.3212 -0.7817 -0.2838
  935MOL0     H29001   7.073   1.217   6.457 -0.8225 -2.7759 -3.3375
  935MOL0     H29002   7.230   1.112   6.316 -2.5228 -0.7230 -1.5237
  935MOL0     H29003   7.268   0.971   6.437 -1.4740 -1.0233  1.1601
  935MOL0     H29004   7.011   1.034   6.302  1.2515  1.7489  3.0466
  935MOL0     H29005   7.034   0.892   6.391 -1.0624  0.4616 -0.7043
  935MOL0     H29006   7.233   0.835   6.229 -0.2340 -1.1063  0.4978
  935MOL0     H29007   7.167   0.976   6.134 -1.1331  1.5292  0.5617
  935MOL0     H29008   7.016   0.706   6.186 -2.5639  0.9996  0.4474
  935MOL0     H29009   7.089   0.772   6.032  3.1925  3.4114 -0.0290
  935MOL0     H29010   6.752   1.459   6.689  3.7689  1.1867 -1.8230
  935MOL0     H29011   6.585   1.534   6.530  3.2653 -0.2453  1.2736
  935MOL0     H29012   6.326   1.716   6.201 -2.3905 -0.2556  0.1621
  935MOL0     H29013   6.250   1.773   5.983  0.4283  0.0276 -1.1519
  935MOL0     H29014   6.570   0.515   5.748  0.5386  3.4084  2.9960
  935MOL0     H29015   6.672   0.296   5.727  0.0327  0.9539  2.9295
  935MOL0     H29016   7.183   0.124   5.672 -0.5815  0.6930  1.1076
  935MOL0     H29017   7.309  -0.072   5.684  0.3067  0.4427 -2.4767
  935MOL0     H29018   7.290  -0.318   5.505 -2.5494  3.2279  2.4658
  935MOL0     H29019   7.412  -0.269   5.610  1.4494 -0.1845 -1.0718
  935MOL0     H29020   7.458  -0.495   5.549 -1.6314  0.1998 -0.2696
  935MOL0     H29021   7.289  -0.555   5.596 -1.6450  1.0476 -0.6283
  935MOL0     H29022   7.501  -0.607   5.745 -2.0726 -1.1357 -0.4826
  935MOL0     H29023   7.495  -0.433   5.789  0.9393 -0.2186  1.5742
  935MOL0     H29024   7.241  -0.598   5.815 -0.0931 -0.7938  1.2025
  935MOL0     H29025   7.293  -0.464   5.913  0.8586 -0.1935  1.3911
  935MOL0     H29026   7.481  -0.775   6.128 -2.3850  1.3495  2.3058
  935MOL0     H29027   6.952  -0.316   5.664 -1.3803 -0.3303  1.4490
  935MOL0     H29028   6.756  -0.195   5.758  1.4846  2.4281  1.4197
  935MOL0     H29029   6.724  -0.044   5.676  2.0688  0.5389 -2.0253
  935MOL0     H29030   6.743  -0.196   5.580  4.1435 -0.6332 -1.2431
  936MOL0     O29031   9.979   5.867   3.298  1.5112 -0.6620 -0.6074
  936MOL0     C29032   9.922   5.903   3.408 -0.2265  0.7046  0.2318
  936MOL0     O29033   9.996   5.935   3.528  0.0829 -0.0611  0.4338
  936MOL0     C29034  10.129   5.916   3.555  0.0887  0.3231 -0.0877
  936MOL0     C29035  10.219   5.843   3.474  0.5132 -0.2659 -0.3329
  936MOL0     C29036  10.352   5.826   3.523  0.4818 -0.0638  0.0698
  936MOL0     C29037  10.398   5.885   3.643 -0.5516 -0.6495  0.3615
  936MOL0     O29038  10.518   5.858   3.692  0.8204  0.1807 -0.5281
  936MOL0     C29039  10.563   5.721   3.680  0.4046 -0.0394  0.2581
  936MOL0     C29040  10.668   5.709   3.793 -0.0325 -0.1442 -0.0482
  936MOL0     C29041  10.631   5.766   3.931  0.3854 -0.3700 -0.3351
  936MOL0     C29042  10.733   5.716   4.040 -0.5226 -0.0294 -0.0602
  936MOL0     C29043  10.708   5.763   4.183 -0.5942 -0.0804  0.0787
  936MOL0     C29044  10.790   5.682   4.281 -0.1556  0.2531 -0.2736
  936MOL0     C29045  10.746   5.697   4.427  0.8462  0.2228  0.7911
  936MOL0     C29046  10.836   5.624   4.523 -0.4339  0.3417  0.5558
  936MOL0     N29047  10.975   5.679   4.538  0.1363 -0.3304  0.1559
  936MOL0     C29048  11.013   5.800   4.591 -0.4895 -0.5131 -0.4973
  936MOL0     C29049  11.154   5.783   4.612  0.8905  0.9135 -0.5710
  936MOL0     C29050  11.256   5.883   4.654 -0.2242  0.4931  0.5176
  936MOL0     C29051  11.258   5.926   4.803 -0.0482 -0.4177 -0.3743
  936MOL0     C29052  11.152   6.023   4.860 -0.2409 -0.2818 -0.3202
  936MOL0     C29053  11.203   6.089   4.981  0.3954 -0.7944  0.6450
  936MOL0     O29054  11.266   6.000   5.069 -0.6287  0.1022  0.3637
  936MOL0     C29055  11.202   5.909   5.151 -0.1294  1.1305  0.7419
  936MOL0     C29056  11.105   5.948   5.232 -0.7096  0.1129 -0.3909
  936MOL0     C29057  11.026   5.855   5.309 -1.2414 -0.1345  0.4464
  936MOL0     C29058  10.901   5.911   5.373 -0.0780  0.0684  0.0808
  936MOL0     C29059  11.060   5.714   5.305 -0.7667 -0.2861  0.0033
  936MOL0     C29060  10.979   5.606   5.363 -0.2820 -0.5175 -0.2943
  936MOL0     O29061  10.988   5.487   5.298 -0.3654 -0.5624 -0.8014
  936MOL0     C29062  10.884   5.396   5.311 -0.2604  0.7325 -0.6594
  936MOL0     C29063  10.849   5.333   5.193  0.1975  0.1053 -0.6061
  936MOL0     C29064  10.742   5.235   5.190 -0.5298 -0.2453 -0.2919
  936MOL0     C29065  10.674   5.204   5.308  0.5974  0.4772  0.2362
  936MOL0     O29066  10.584   5.106   5.311 -0.0300 -0.4587 -0.1229
  936MOL0     C29067  10.449   5.153   5.338  0.2061  0.0266  0.1581
  936MOL0     C29068  10.349   5.067   5.253 -0.3420 -0.4243  0.0839
  936MOL0     C29069  10.385   5.076   5.104  0.7419  0.2758  0.9557
  936MOL0     C29070  10.306   4.972   5.020 -0.9072 -0.3665  0.2420
  936MOL0     C29071  10.294   4.999   4.866 -1.2061 -0.1112 -0.8593
  936MOL0     C29072  10.420   5.000   4.779  0.3268 -0.8022  0.1364
  936MOL0     C29073  10.398   5.033   4.624  0.4656 -0.4884 -0.4366
  936MOL0     C29074  10.417   4.912   4.527  0.1626 -0.8387  0.0105
  936MOL0    Cl29075  10.261   4.810   4.534  0.2063  0.0363  0.3741
  936MOL0     C29076  10.713   5.267   5.427  0.0009  0.6287  0.2220
  936MOL0     C29077  10.812   5.368   5.429  0.0757 -0.2932  0.7648
  936MOL0     O29078  10.906   5.629   5.460 -0.3424  0.3022 -0.0078
  936MOL0     C29079  11.170   5.677   5.218  0.0348  0.2481 -0.8573
  936MOL0     C29080  11.239   5.776   5.146  0.2269 -0.1319  0.8687
  936MOL0     N29081  11.189   5.661   4.557 -0.1379 -0.2225 -0.3897
  936MOL0     N29082  11.087   5.606   4.512 -0.5716  0.1653  0.5957
  936MOL0     C29083  10.311   5.961   3.714  0.1444  0.1324 -0.4380
  936MOL0     C29084  10.176   5.976   3.674  0.0498 -0.0970 -0.4964
  936MOL0     C29085   9.772   5.907   3.420 -0.5986 -0.0935  0.3348
  936MOL0     C29086   9.725   5.959   3.538 -0.2242  0.2556 -0.8652
  936MOL0     C29087   9.585   5.965   3.565 -0.6875  0.2681 -0.0902
  936MOL0     C29088   9.500   5.897   3.490  0.2720 -0.1575  0.5852
  936MOL0     O29089   9.361   5.915   3.522  0.3489  0.3016 -0.2849
  936MOL0     C29090   9.292   6.033   3.492 -0.1467 -0.2821 -0.6961
  936MOL0     C29091   9.143   6.008   3.503 -0.1068  0.0318 -0.4177
  936MOL0     C29092   9.114   5.889   3.400 -0.6159  0.0085 -0.0186
  936MOL0     C29093   8.984   5.840   3.428 -0.2355  0.1870  0.0961
  936MOL0     C29094   8.880   5.934   3.409  0.3010 -0.3869 -0.0274
  936MOL0     C29095   8.778   5.988   3.388 -1.2736  0.2683  0.5624
  936MOL0     C29096   9.542   5.841   3.370 -0.1360  0.7489  0.2254
  936MOL0     C29097   9.677   5.848   3.328  0.0148 -0.6238 -0.2994
  936MOL0     C29098   9.711   5.798   3.188  0.4466 -0.0018  0.4855
  936MOL0     H29099  10.187   5.790   3.384 -1.6741  1.7562 -0.8590
  936MOL0     H29100  10.420   5.770   3.459 -1.5224 -1.7939 -0.6522
  936MOL0     H29101  10.613   5.699   3.585  0.9549 -1.4695  0.8571
  936MOL0     H29102  10.478   5.656   3.699 -2.0554  2.1572 -2.2213
  936MOL0     H29103  10.685   5.601   3.805 -0.5757 -0.1402  0.8353
  936MOL0     H29104  10.765   5.751   3.766 -0.3905  0.1405 -0.9170
  936MOL0     H29105  10.634   5.875   3.931 -2.2021 -0.1911 -1.8036
  936MOL0     H29106  10.527   5.745   3.959  0.0795 -0.4016 -1.4243
  936MOL0     H29107  10.732   5.607   4.040 -3.7003 -0.2890  4.7092
  936MOL0     H29108  10.832   5.749   4.008 -0.6402 -0.1278 -0.5246
  936MOL0     H29109  10.600   5.763   4.199 -0.7030 -0.6871 -0.5877
  936MOL0     H29110  10.734   5.869   4.191 -2.8689  0.6616 -1.3060
  936MOL0     H29111  10.770   5.576   4.257 -2.6254  0.3792  0.9040
  936MOL0     H29112  10.896   5.705   4.268 -0.2460  2.3687  2.1507
  936MOL0     H29113  10.648   5.650   4.441  0.8997 -0.6702 -1.5064
  936MOL0     H29114  10.724   5.797   4.467  0.9650  0.4034  0.4144
  936MOL0     H29115  10.787   5.615   4.620 -2.4482  1.3730 -0.3049
  936MOL0     H29116  10.837   5.518   4.496  2.0381  0.2330  0.8266
  936MOL0     H29117  10.960   5.891   4.617  1.5882  0.3128  1.1649
  936MOL0     H29118  11.240   5.977   4.601  0.2316  0.9106  1.1121
  936MOL0     H29119  11.353   5.845   4.620 -1.1950 -0.6359 -1.1531
  936MOL0     H29120  11.235   5.833   4.856  1.5237 -1.4262 -1.3973
  936MOL0     H29121  11.364   5.949   4.821 -0.1823 -0.6392  0.7706
  936MOL0     H29122  11.119   6.090   4.780 -1.0674  0.7185  0.8288
  936MOL0     H29123  11.060   5.969   4.885  1.1796 -2.5330  0.4143
  936MOL0     H29124  11.271   6.173   4.959 -2.0460  0.9583 -0.7259
  936MOL0     H29125  11.125   6.135   5.042 -0.0973 -1.2733  0.3802
  936MOL0     H29126  11.073   6.052   5.229 -0.4254  0.3249  2.1753
  936MOL0     H29127  10.819   5.912   5.301 -0.3737 -0.6983  0.4050
  936MOL0     H29128  10.926   6.013   5.405  0.8168 -0.0002 -0.3513
  936MOL0     H29129  10.864   5.860   5.462 -1.3721  1.8334  0.6200
  936MOL0     H29130  10.910   5.349   5.105 -1.6616  3.8549 -1.4088
  936MOL0     H29131  10.738   5.195   5.089  2.7131  0.6077 -0.8888
  936MOL0     H29132  10.436   5.142   5.446  0.1636  1.6507  0.3410
  936MOL0     H29133  10.440   5.259   5.313  2.4670 -0.4990 -3.7091
  936MOL0     H29134  10.343   4.961   5.281  0.7229  0.0094  2.1034
  936MOL0     H29135  10.248   5.107   5.257  0.2802  1.1411  0.5793
  936MOL0     H29136  10.492   5.061   5.090  0.6146  1.5407 -2.4170
  936MOL0     H29137  10.359   5.176   5.068  1.1069 -0.9541 -3.3765
  936MOL0     H29138  10.207   4.970   5.067  0.0108 -0.5408  2.2608
  936MOL0     H29139  10.341   4.869   5.028 -1.4620 -0.7360 -1.6141
  936MOL0     H29140  10.230   4.924   4.819 -0.5878 -0.7468 -0.6990
  936MOL0     H29141  10.248   5.099   4.861 -1.7669 -0.2563  0.8891
  936MOL0     H29142  10.466   4.902   4.793  1.3427 -0.8565 -3.0150
  936MOL0     H29143  10.494   5.069   4.821 -1.3611  0.4987  1.1187
  936MOL0     H29144  10.469   5.109   4.591  1.3321 -1.4920 -0.9657
  936MOL0     H29145  10.305   5.086   4.601  3.4415  4.3503 -2.8903
  936MOL0     H29146  10.507   4.859   4.561 -0.1124 -0.3359  1.6375
  936MOL0     H29147  10.428   4.946   4.424 -0.1191 -4.6343 -1.4336
  936MOL0     H29148  10.662   5.237   5.518  1.7469  2.1518  1.8042
  936MOL0     H29149  10.829   5.406   5.529  0.6949 -0.4359  0.7155
  936MOL0     H29150  11.207   5.575   5.223  1.7298  0.8927  0.4489
  936MOL0     H29151  11.318   5.751   5.076  1.2175  1.8009  1.2024
  936MOL0     H29152  10.340   5.999   3.811  1.2599 -2.3366  0.2944
  936MOL0     H29153  10.113   6.021   3.750 -0.7198 -3.3838  0.9554
  936MOL0     H29154   9.794   6.001   3.610 -2.7035  1.7256  0.8106
  936MOL0     H29155   9.575   6.019   3.659 -3.4225  0.0044 -0.1432
  936MOL0     H29156   9.315   6.116   3.560 -1.5741  1.2414 -1.9765
  936MOL0     H29157   9.323   6.052   3.389  1.7231 -0.7581 -0.2567
  936MOL0     H29158   9.089   6.101   3.482 -1.5085 -0.4680  0.7738
  936MOL0     H29159   9.124   5.977   3.606  1.4184  2.9348  0.8291
  936MOL0     H29160   9.128   5.923   3.297  1.2414  1.3130  0.6100
  936MOL0     H29161   9.177   5.800   3.406 -2.9773 -1.8598 -1.1790
  936MOL0     H29162   8.979   5.804   3.532  0.1015 -2.9220 -0.8773
  936MOL0     H29163   8.973   5.752   3.365 -1.8520 -0.7284  1.5416
  936MOL0     H29164   8.682   6.032   3.371 -1.3051  0.5384  1.4057
  936MOL0     H29165   9.461   5.806   3.306 -0.6720 -0.2336  1.4103
  936MOL0     H29166   9.765   5.702   3.192  1.1398  0.2514 -1.5375
  936MOL0     H29167   9.623   5.797   3.123  0.3045  1.1427  0.6417
  936MOL0     H29168   9.768   5.881   3.145  0.6622  0.4492  1.6180
  937MOL0     O29169   1.158   3.034   8.881  0.1355  0.3835 -1.0361
  937MOL0     C29170   1.115   2.929   8.917  0.2985 -0.2176 -0.5621
  937MOL0     O29171   1.003   2.866   8.858  1.2422 -0.5481 -0.1145
  937MOL0     C29172   0.974   2.900   8.727  0.0279  0.0397 -0.1219
  937MOL0     C29173   0.857   2.972   8.696  0.0967 -0.6166  0.8678
  937MOL0     C29174   0.817   2.993   8.565 -0.5300 -0.0648 -0.2847
  937MOL0     C29175   0.890   2.927   8.464 -0.1162  0.5773  0.5106
  937MOL0     O29176   0.858   2.933   8.327  0.2668 -0.6303  0.0607
  937MOL0     C29177   0.742   2.999   8.277 -0.0703  0.1494 -0.3048
  937MOL0     C29178   0.771   3.155   8.275  0.3774 -0.1157  0.1120
  937MOL0     C29179   0.696   3.221   8.155  0.3706  0.4113  0.8012
  937MOL0     C29180   0.726   3.367   8.150  0.5442 -0.0373  0.0626
  937MOL0     C29181   0.667   3.425   8.019 -0.6850  0.2039 -0.4164
  937MOL0     C29182   0.771   3.399   7.905  0.1263  0.2668  0.9838
  937MOL0     C29183   0.706   3.458   7.777 -0.1368  0.0626  0.0508
  937MOL0     C29184   0.786   3.398   7.660  0.5903 -0.7005  1.0878
  937MOL0     N29185   0.734   3.451   7.537 -0.1194 -0.7434 -0.5038
  937MOL0     C29186   0.612   3.398   7.484 -0.6160 -0.3826  0.6987
  937MOL0     C29187   0.596   3.486   7.383  0.5184 -0.3573 -0.1574
  937MOL0     C29188   0.495   3.489   7.273 -0.1712  0.0812  0.2545
  937MOL0     C29189   0.356   3.539   7.319  0.2119  0.3551  0.1629
  937MOL0     C29190   0.330   3.686   7.267  0.2445 -1.2386  0.0414
  937MOL0     C29191   0.225   3.763   7.345  0.5278  0.2936 -0.5354
  937MOL0     O29192   0.280   3.803   7.474  0.3748 -0.2696 -0.1441
  937MOL0     C29193   0.201   3.896   7.543  0.0475 -0.0246  0.8371
  937MOL0     C29194   0.062   3.885   7.537  0.0013 -0.1532 -0.3327
  937MOL0     C29195  -0.016   3.973   7.620  0.4394  0.7127  1.0006
  937MOL0     C29196  -0.165   3.936   7.621  0.2566 -0.0084 -0.4415
  937MOL0     C29197   0.046   4.058   7.713  0.5818 -0.6407  0.0440
  937MOL0     C29198  -0.031   4.155   7.797  0.3700 -0.5282  0.7780
  937MOL0     O29199  -0.098   4.255   7.739  0.5429  0.0553 -0.0592
  937MOL0     C29200  -0.160   4.340   7.827 -0.4144  0.2904 -0.4267
  937MOL0     C29201  -0.104   4.459   7.871  0.8303  1.0588  0.6253
  937MOL0     C29202  -0.153   4.535   7.970  0.8821 -0.6090 -0.3473
  937MOL0     C29203  -0.265   4.496   8.048 -0.4870 -0.4449 -1.1931
  937MOL0     O29204  -0.295   4.588   8.144  0.4847  1.3173 -0.3082
  937MOL0     C29205  -0.337   4.550   8.279  0.5517  0.3599  0.5165
  937MOL0     C29206  -0.409   4.659   8.351 -0.3419 -0.1231  1.0989
  937MOL0     C29207  -0.504   4.601   8.460 -0.9911  0.7910 -0.2763
  937MOL0     C29208  -0.542   4.698   8.574  0.2320  0.2473  0.5380
  937MOL0     C29209  -0.657   4.647   8.662 -0.4941 -0.1158 -0.1111
  937MOL0     C29210  -0.682   4.754   8.774  0.2510  0.0863  0.2634
  937MOL0     C29211  -0.791   4.741   8.880  0.3946 -0.0497  0.4174
  937MOL0     C29212  -0.924   4.697   8.812  0.0029  0.1383 -0.1946
  937MOL0    Cl29213  -0.976   4.812   8.687 -0.1025  0.0600 -0.0157
  937MOL0     C29214  -0.327   4.380   8.001 -0.4419  0.0739 -0.3221
  937MOL0     C29215  -0.275   4.300   7.897  0.4999 -0.1788  1.7362
  937MOL0     O29216  -0.013   4.145   7.918 -0.4401  0.0915  0.0486
  937MOL0     C29217   0.186   4.068   7.716 -0.3937  1.4655  0.1282
  937MOL0     C29218   0.263   3.987   7.622  0.0727  0.2906 -0.3949
  937MOL0     N29219   0.689   3.593   7.395  0.4348 -0.7917 -0.0204
  937MOL0     N29220   0.778   3.565   7.483  0.1602  0.2629 -0.9799
  937MOL0     C29221   0.991   2.850   8.489  0.0352 -0.3080  0.6367
  937MOL0     C29222   1.035   2.837   8.617  0.3775  0.7189 -0.7925
  937MOL0     C29223   1.163   2.886   9.055 -0.6447 -0.4461 -0.4511
  937MOL0     C29224   1.067   2.828   9.135 -0.5406 -0.8954  0.5964
  937MOL0     C29225   1.099   2.790   9.259  0.4043 -0.3168 -1.0565
  937MOL0     C29226   1.224   2.820   9.316  0.4791  0.3741  0.3687
  937MOL0     O29227   1.255   2.806   9.454 -0.9402  0.2242  0.6209
  937MOL0     C29228   1.157   2.744   9.542  0.5279 -0.9060  0.4746
  937MOL0     C29229   1.219   2.716   9.683 -0.0392 -0.2218 -0.6432
  937MOL0     C29230   1.325   2.598   9.661  0.5610 -0.2790 -0.0923
  937MOL0     C29231   1.444   2.596   9.766  0.9537  0.8776 -0.9333
  937MOL0     C29232   1.404   2.602   9.906  0.0364 -0.2482 -0.0110
  937MOL0     C29233   1.371   2.608  10.019  0.1231  0.7492 -0.5948
  937MOL0     C29234   1.332   2.882   9.247  0.0133  0.2074  0.8029
  937MOL0     C29235   1.298   2.911   9.109 -0.0790  0.9401  0.8364
  937MOL0     C29236   1.411   2.945   9.009 -0.1197 -0.2411 -0.4074
  937MOL0     H29237   0.799   3.016   8.776  0.5018 -1.3389  1.5740
  937MOL0     H29238   0.729   3.052   8.545 -1.6145 -1.7437 -0.6388
  937MOL0     H29239   0.647   2.964   8.320  1.5765  0.1726  3.7844
  937MOL0     H29240   0.741   2.962   8.174  1.9900 -1.1826  0.1018
  937MOL0     H29241   0.739   3.200   8.370 -0.7566  2.2802 -1.3001
  937MOL0     H29242   0.876   3.180   8.264 -0.6577  4.8438 -0.9808
  937MOL0     H29243   0.726   3.175   8.061  4.2702  3.3695  0.3495
  937MOL0     H29244   0.589   3.198   8.161  0.6249 -1.4294 -0.8261
  937MOL0     H29245   0.683   3.421   8.235 -1.6939  0.0639 -1.0583
  937MOL0     H29246   0.834   3.382   8.159  0.4194 -0.1550  2.1911
  937MOL0     H29247   0.664   3.533   8.033  2.6483  0.4084 -0.4103
  937MOL0     H29248   0.571   3.376   8.002 -2.8463  3.3146  1.8313
  937MOL0     H29249   0.871   3.440   7.923 -0.4930  1.8348  1.0319
  937MOL0     H29250   0.780   3.292   7.883  0.2623  0.9995 -3.3882
  937MOL0     H29251   0.716   3.567   7.776  0.2162  0.1087  2.6989
  937MOL0     H29252   0.600   3.432   7.787 -0.5706  2.4449  3.3870
  937MOL0     H29253   0.892   3.412   7.684 -0.1922 -0.0999  4.8084
  937MOL0     H29254   0.759   3.292   7.661  1.2533 -0.8851  0.2611
  937MOL0     H29255   0.540   3.317   7.494  0.5933 -1.7188 -0.6988
  937MOL0     H29256   0.487   3.385   7.238 -0.4613 -0.8156  2.7607
  937MOL0     H29257   0.524   3.554   7.190 -4.1223  0.5487 -0.9476
  937MOL0     H29258   0.284   3.469   7.276 -0.1621  1.4980 -1.1506
  937MOL0     H29259   0.353   3.530   7.428 -0.3150 -5.3299 -0.0234
  937MOL0     H29260   0.422   3.744   7.280  0.5491 -1.3735 -1.3117
  937MOL0     H29261   0.303   3.683   7.161  2.0276  0.8639 -0.5397
  937MOL0     H29262   0.192   3.855   7.296 -1.1381 -0.1859 -0.3563
  937MOL0     H29263   0.135   3.704   7.362  1.5557 -1.5830 -1.2681
  937MOL0     H29264   0.007   3.809   7.482  2.9847 -2.6672 -0.0604
  937MOL0     H29265  -0.217   3.955   7.527  1.7126 -0.9238 -1.4752
  937MOL0     H29266  -0.220   4.003   7.688  2.2274  1.1419  0.1002
  937MOL0     H29267  -0.184   3.841   7.672  1.8174  0.5249  1.2250
  937MOL0     H29268  -0.022   4.492   7.808  0.2507  0.0062 -0.7388
  937MOL0     H29269  -0.092   4.620   8.001  2.0229 -1.4226 -0.2768
  937MOL0     H29270  -0.408   4.466   8.276 -1.1900  1.6841  2.3991
  937MOL0     H29271  -0.254   4.517   8.342 -0.4415 -0.8580  1.2360
  937MOL0     H29272  -0.330   4.726   8.388 -0.1336  0.7916 -0.9042
  937MOL0     H29273  -0.466   4.709   8.272  0.2843 -1.2457 -0.1055
  937MOL0     H29274  -0.449   4.514   8.496 -1.3829  1.5550  2.4250
  937MOL0     H29275  -0.596   4.570   8.410 -0.4163 -0.4570 -0.5995
  937MOL0     H29276  -0.565   4.791   8.520  0.2888  0.8318  1.5013
  937MOL0     H29277  -0.452   4.712   8.636 -1.2679 -2.0904  3.4660
  937MOL0     H29278  -0.746   4.625   8.603  0.7580 -3.1763 -1.0639
  937MOL0     H29279  -0.624   4.556   8.714  0.0408 -1.2498 -2.2998
  937MOL0     H29280  -0.703   4.847   8.720 -3.2923 -0.9227 -0.3551
  937MOL0     H29281  -0.588   4.756   8.830 -0.9280 -0.0432  2.3081
  937MOL0     H29282  -0.808   4.833   8.937 -1.7697 -0.1839  0.0701
  937MOL0     H29283  -0.766   4.655   8.942  2.5937  1.2458  1.4598
  937MOL0     H29284  -0.998   4.698   8.892 -2.0830  0.0997 -2.0403
  937MOL0     H29285  -0.927   4.598   8.765 -2.2043  0.5217 -0.9621
  937MOL0     H29286  -0.428   4.358   8.034 -1.0950  0.0103 -2.2295
  937MOL0     H29287  -0.322   4.209   7.860 -1.0057  0.5298  1.8297
  937MOL0     H29288   0.230   4.124   7.797  0.3784 -1.1436  1.6048
  937MOL0     H29289   0.371   3.989   7.629  0.1715 -0.1445 -1.6631
  937MOL0     H29290   1.027   2.796   8.402 -0.7764 -3.2040  1.9534
  937MOL0     H29291   1.125   2.780   8.635  0.3516  0.7376 -0.5989
  937MOL0     H29292   0.974   2.810   9.083  0.6189  0.0123 -1.9352
  937MOL0     H29293   1.024   2.732   9.311 -0.5263  0.9899 -0.8872
  937MOL0     H29294   1.065   2.802   9.557 -0.9536 -2.7151 -1.1801
  937MOL0     H29295   1.119   2.647   9.509 -1.4422 -0.2218  0.5789
  937MOL0     H29296   1.144   2.685   9.756 -3.1188  2.8274 -2.1843
  937MOL0     H29297   1.258   2.808   9.727 -0.7892 -0.7996  1.3094
  937MOL0     H29298   1.279   2.501   9.678  0.5558  0.0012  1.7589
  937MOL0     H29299   1.377   2.605   9.566  0.7648 -0.6013 -0.0040
  937MOL0     H29300   1.504   2.685   9.748  1.1187  0.8660 -0.4539
  937MOL0     H29301   1.498   2.503   9.746 -2.1319 -1.4598  0.7847
  937MOL0     H29302   1.336   2.609  10.120 -2.6508 -2.4118 -1.3132
  937MOL0     H29303   1.428   2.900   9.295  0.6686  0.0411 -0.4017
  937MOL0     H29304   1.512   2.937   9.052 -0.7362  0.7906  1.3552
  937MOL0     H29305   1.409   2.887   8.917  3.2075  1.1813 -1.5536
  937MOL0     H29306   1.395   3.051   8.988 -1.5085 -0.1692  0.8245
  938MOL0     O29307   1.902   0.422   5.598 -0.2190 -0.0690  0.1194
  938MOL0     C29308   1.997   0.456   5.525 -0.7095 -0.7983 -0.6215
  938MOL0     O29309   1.982   0.520   5.407 -1.4736 -0.0158 -0.0216
  938MOL0     C29310   1.864   0.588   5.383 -0.0597 -0.0282 -0.6011
  938MOL0     C29311   1.757   0.542   5.302 -0.5842 -0.8299  0.2771
  938MOL0     C29312   1.651   0.624   5.271  0.3884 -0.4853 -0.5316
  938MOL0     C29313   1.635   0.751   5.339 -0.9698 -0.1064 -0.1694
  938MOL0     O29314   1.527   0.840   5.316 -0.0693 -0.2052 -0.4524
  938MOL0     C29315   1.462   0.816   5.196  0.4530 -0.5892  0.7009
  938MOL0     C29316   1.357   0.929   5.150  0.0865  0.3101 -0.0673
  938MOL0     C29317   1.276   0.975   5.276  0.8681 -0.0282 -0.5639
  938MOL0     C29318   1.166   1.074   5.230 -0.2858  0.0371 -0.4098
  938MOL0     C29319   1.084   1.147   5.332 -0.5314  0.6916  0.9358
  938MOL0     C29320   1.147   1.211   5.453 -0.6073  1.0973  0.1163
  938MOL0     C29321   1.052   1.304   5.532  0.6936 -0.3034  0.8528
  938MOL0     C29322   0.928   1.246   5.612 -0.2912  0.3321  0.0280
  938MOL0     N29323   0.863   1.356   5.677  0.1441  0.4504 -0.0664
  938MOL0     C29324   0.828   1.474   5.609  0.4318 -0.8243 -0.9259
  938MOL0     C29325   0.794   1.565   5.701 -0.2288 -0.3400 -0.0601
  938MOL0     C29326   0.725   1.700   5.678 -0.4348 -0.4032 -0.3373
  938MOL0     C29327   0.576   1.676   5.693  0.3721 -0.8337  0.9768
  938MOL0     C29328   0.497   1.793   5.641 -0.4478 -0.1583  0.6526
  938MOL0     C29329   0.352   1.782   5.684  0.0990  0.8545 -0.1018
  938MOL0     O29330   0.292   1.660   5.634 -0.2675  0.2558 -0.0613
  938MOL0     C29331   0.153   1.653   5.619 -0.3586  0.9742 -0.0873
  938MOL0     C29332   0.054   1.747   5.656 -1.0936  0.4860 -0.3899
  938MOL0     C29333  -0.082   1.715   5.662 -0.3749 -0.2832  0.5614
  938MOL0     C29334  -0.165   1.813   5.745 -1.1017  0.4235 -0.0769
  938MOL0     C29335  -0.126   1.590   5.624  1.1439 -0.0506  0.6871
  938MOL0     C29336  -0.273   1.564   5.598 -0.6091  0.4441 -0.7655
  938MOL0     O29337  -0.301   1.431   5.614 -0.3794  0.2711  0.4155
  938MOL0     C29338  -0.432   1.404   5.646 -1.3925  0.5919 -0.1106
  938MOL0     C29339  -0.461   1.372   5.776 -0.6789  0.1939  0.2179
  938MOL0     C29340  -0.585   1.339   5.819 -0.1899 -0.2305  0.3552
  938MOL0     C29341  -0.694   1.349   5.730 -0.3553  0.0470 -0.3506
  938MOL0     O29342  -0.819   1.322   5.787  0.7931 -0.0405 -0.3341
  938MOL0     C29343  -0.929   1.303   5.696  0.5194  0.2117 -1.1749
  938MOL0     C29344  -1.007   1.188   5.762  1.1970 -1.0127  0.2478
  938MOL0     C29345  -1.134   1.180   5.690  1.5013 -0.6214 -0.5795
  938MOL0     C29346  -1.225   1.089   5.776  0.2663  0.4556 -0.0424
  938MOL0     C29347  -1.360   1.062   5.718  0.2870  0.4461  0.0622
  938MOL0     C29348  -1.357   0.960   5.602  0.3803  0.0444 -0.6593
  938MOL0     C29349  -1.498   0.927   5.544  1.0139  0.3052  0.4606
  938MOL0     C29350  -1.585   0.866   5.646 -0.0691  0.4765 -0.1819
  938MOL0    Cl29351  -1.510   0.704   5.688  0.3578  0.0287 -0.0233
  938MOL0     C29352  -0.667   1.398   5.599  0.0757  0.4411  0.0262
  938MOL0     C29353  -0.534   1.419   5.554 -0.1675  0.4834 -1.0014
  938MOL0     O29354  -0.352   1.653   5.570  0.8733  0.8621  0.4628
  938MOL0     C29355  -0.027   1.493   5.585  0.5544  0.0785 -0.3139
  938MOL0     C29356   0.111   1.523   5.587 -0.7287  0.4170 -0.0953
  938MOL0     N29357   0.803   1.501   5.825  0.1271 -0.0891  0.1246
  938MOL0     N29358   0.847   1.379   5.810  0.0549 -0.2990 -0.3125
  938MOL0     C29359   1.734   0.793   5.427  0.6218  0.0069 -1.0854
  938MOL0     C29360   1.851   0.714   5.456 -0.0099  0.2974  0.2523
  938MOL0     C29361   2.128   0.417   5.574  0.5249  0.1558  0.9562
  938MOL0     C29362   2.144   0.300   5.659  0.3627  1.0667 -0.1290
  938MOL0     C29363   2.258   0.263   5.724  0.6195  0.2648 -0.5410
  938MOL0     C29364   2.381   0.335   5.695 -0.7375 -0.2026 -0.5058
  938MOL0     O29365   2.488   0.297   5.770  0.6821  0.4697  0.4494
  938MOL0     C29366   2.605   0.369   5.764 -0.4854 -0.2749 -0.4259
  938MOL0     C29367   2.707   0.301   5.857 -0.9132  0.3438  0.2096
  938MOL0     C29368   2.844   0.361   5.845  0.3664 -0.5226 -0.3908
  938MOL0     C29369   2.846   0.486   5.939 -0.5079 -0.5753  1.3303
  938MOL0     C29370   2.892   0.463   6.075 -0.8176  0.7615  0.8539
  938MOL0     C29371   2.935   0.472   6.185 -0.2189  0.0825  0.5431
  938MOL0     C29372   2.371   0.439   5.599  0.2378 -0.1527  0.3152
  938MOL0     C29373   2.245   0.484   5.547 -0.0448  0.3379 -0.3629
  938MOL0     C29374   2.247   0.614   5.462  0.1379  0.7979  0.1421
  938MOL0     H29375   1.773   0.445   5.255  2.1877 -1.5611  2.4340
  938MOL0     H29376   1.576   0.595   5.198  3.0632 -0.0932 -3.6617
  938MOL0     H29377   1.400   0.729   5.217 -2.4991  1.3356  0.5434
  938MOL0     H29378   1.532   0.789   5.117 -0.9530  0.8301 -1.1176
  938MOL0     H29379   1.414   1.014   5.113 -1.0253  0.9344 -0.4072
  938MOL0     H29380   1.294   0.893   5.068  0.1121  3.4607 -1.5935
  938MOL0     H29381   1.234   0.891   5.333 -1.3749 -0.3730 -2.5649
  938MOL0     H29382   1.349   1.028   5.338  2.1365  0.8860 -2.7123
  938MOL0     H29383   1.206   1.156   5.170 -0.2859  1.6723  1.7409
  938MOL0     H29384   1.098   1.013   5.169 -0.8392 -1.5053  1.6466
  938MOL0     H29385   1.018   1.068   5.369  0.0320 -1.4065 -2.1584
  938MOL0     H29386   1.019   1.215   5.276  0.5777  0.0853 -1.2001
  938MOL0     H29387   1.192   1.136   5.518  1.0636  1.1523 -0.9024
  938MOL0     H29388   1.230   1.267   5.408 -1.8883  1.5003 -1.9069
  938MOL0     H29389   1.017   1.379   5.461 -1.8362 -1.4142  0.8161
  938MOL0     H29390   1.118   1.356   5.602  2.8216 -0.7047 -0.7511
  938MOL0     H29391   0.849   1.202   5.551 -0.8136 -2.7494  2.6639
  938MOL0     H29392   0.959   1.172   5.686 -2.6832 -1.4153 -0.5962
  938MOL0     H29393   0.820   1.487   5.501 -0.0490  2.1451 -0.6209
  938MOL0     H29394   0.758   1.746   5.585  2.0076 -3.4866 -1.1541
  938MOL0     H29395   0.744   1.765   5.765  0.7864  1.4918 -1.9160
  938MOL0     H29396   0.550   1.579   5.650  0.1086 -0.3339 -0.0035
  938MOL0     H29397   0.561   1.653   5.799  2.1703  0.6444  1.6094
  938MOL0     H29398   0.524   1.894   5.674  0.9673 -0.3150  0.0385
  938MOL0     H29399   0.517   1.800   5.534  2.7443 -1.2964  1.0619
  938MOL0     H29400   0.350   1.788   5.794 -0.2417  1.9678 -0.1558
  938MOL0     H29401   0.300   1.874   5.655 -0.7672  0.4024  0.0060
  938MOL0     H29402   0.092   1.835   5.707  1.6756 -0.0202 -1.3932
  938MOL0     H29403  -0.181   1.773   5.845  0.3368 -2.6145 -0.9318
  938MOL0     H29404  -0.264   1.823   5.698  0.0576 -0.4723 -2.9522
  938MOL0     H29405  -0.108   1.905   5.737  0.9158 -0.9363 -3.1821
  938MOL0     H29406  -0.376   1.376   5.844 -1.4239  1.0064  1.1295
  938MOL0     H29407  -0.602   1.310   5.922 -2.4683 -0.1383  0.0553
  938MOL0     H29408  -0.991   1.393   5.697 -1.0759 -0.8026  1.2856
  938MOL0     H29409  -0.896   1.275   5.595  4.1162  1.1741 -0.4051
  938MOL0     H29410  -0.955   1.093   5.747  0.5221 -2.1834  4.2268
  938MOL0     H29411  -1.027   1.206   5.868  2.7503 -0.0986  0.4320
  938MOL0     H29412  -1.113   1.134   5.593 -1.8113 -3.8816  0.0294
  938MOL0     H29413  -1.180   1.278   5.675  3.4176  0.3014 -0.8375
  938MOL0     H29414  -1.247   1.131   5.875  2.1869 -1.1864  1.1737
  938MOL0     H29415  -1.173   0.994   5.788 -1.5474 -0.6324 -0.5420
  938MOL0     H29416  -1.424   1.022   5.797 -1.9321  1.0282 -1.3338
  938MOL0     H29417  -1.391   1.164   5.692  1.2593  0.1530 -2.5182
  938MOL0     H29418  -1.308   0.868   5.637 -1.3343 -0.3195  0.9864
  938MOL0     H29419  -1.294   0.999   5.523 -0.5755 -1.8070 -2.4402
  938MOL0     H29420  -1.476   0.871   5.453  3.3105 -0.1239  1.1941
  938MOL0     H29421  -1.547   1.019   5.514 -1.4817 -1.2125 -0.4254
  938MOL0     H29422  -1.684   0.855   5.602  0.0993 -2.8725  0.0408
  938MOL0     H29423  -1.598   0.920   5.740  1.9482  1.1457 -0.2262
  938MOL0     H29424  -0.751   1.409   5.530 -0.6101  1.3336  0.9688
  938MOL0     H29425  -0.508   1.453   5.454  0.1332  1.7505 -0.5034
  938MOL0     H29426  -0.055   1.395   5.549 -1.6141  0.8953 -1.0412
  938MOL0     H29427   0.189   1.454   5.558  0.2937  0.6446  1.8940
  938MOL0     H29428   1.720   0.884   5.486  0.3815 -0.7468  0.0484
  938MOL0     H29429   1.932   0.744   5.520  0.0326 -0.5034  0.5861
  938MOL0     H29430   2.056   0.241   5.684  0.3851  0.5618 -1.1753
  938MOL0     H29431   2.267   0.173   5.783 -0.6459  0.6506  0.2909
  938MOL0     H29432   2.631   0.350   5.660  0.8980 -1.5978  0.1227
  938MOL0     H29433   2.587   0.474   5.789 -0.7510 -1.0718  3.3995
  938MOL0     H29434   2.717   0.195   5.831 -2.0744 -0.8745  4.0221
  938MOL0     H29435   2.678   0.291   5.962  0.8093 -0.4487  0.6418
  938MOL0     H29436   2.919   0.287   5.874 -2.1537 -3.3647 -0.6031
  938MOL0     H29437   2.860   0.399   5.744 -0.3912  1.4169  0.1752
  938MOL0     H29438   2.743   0.523   5.949 -1.4905 -2.5514 -0.6427
  938MOL0     H29439   2.901   0.568   5.893 -3.9922 -0.5882 -3.7616
  938MOL0     H29440   2.984   0.480   6.280 -2.5808 -3.7309  2.3190
  938MOL0     H29441   2.452   0.505   5.570 -0.7897 -0.0289 -2.6953
  938MOL0     H29442   2.344   0.646   5.421 -0.2735  0.9041 -0.7652
  938MOL0     H29443   2.191   0.597   5.370 -1.7365  2.3303  0.9433
  938MOL0     H29444   2.208   0.696   5.523  1.6680  1.8057 -0.1664
  939MOL0     O29445   7.795  10.140   3.196 -0.0527  0.4758  0.8182
  939MOL0     C29446   7.727  10.040   3.226  0.4692 -0.3946 -0.7608
  939MOL0     O29447   7.742   9.911   3.198 -0.6602 -0.2407 -0.3780
  939MOL0     C29448   7.849   9.865   3.125 -0.4024 -0.6119  0.5897
  939MOL0     C29449   7.824   9.762   3.037 -0.2187  0.1415 -0.6181
  939MOL0     C29450   7.915   9.697   2.952 -0.3890  1.0603 -0.1753
  939MOL0     C29451   8.048   9.733   2.968 -0.1450  0.7536 -1.0966
  939MOL0     O29452   8.140   9.665   2.893 -0.4594  0.1631 -0.1419
  939MOL0     C29453   8.237   9.735   2.822  0.3508  0.6688  0.1330
  939MOL0     C29454   8.268   9.636   2.709 -0.2597 -0.0701  0.4499
  939MOL0     C29455   8.144   9.612   2.616  0.5707 -0.0583 -0.2806
  939MOL0     C29456   8.135   9.728   2.511 -0.1522  0.0741 -0.7714
  939MOL0     C29457   8.003   9.728   2.428  0.0847  0.0850  0.0470
  939MOL0     C29458   7.997   9.615   2.330  0.7622  0.6908 -0.6822
  939MOL0     C29459   7.849   9.569   2.289 -1.3063 -0.7700 -0.2578
  939MOL0     C29460   7.848   9.423   2.226 -0.2262 -0.0184  0.2175
  939MOL0     N29461   7.837   9.315   2.322  1.7322 -0.1848 -1.0322
  939MOL0     C29462   7.723   9.266   2.374  0.1929  0.1877 -0.3250
  939MOL0     C29463   7.761   9.182   2.470 -0.5296  0.4189  0.7052
  939MOL0     C29464   7.668   9.094   2.559  0.3539 -0.5621 -1.1307
  939MOL0     C29465   7.606   8.982   2.481 -0.5305  0.2622  0.0224
  939MOL0     C29466   7.499   9.031   2.382  0.6480 -0.4265 -0.4924
  939MOL0     C29467   7.393   9.128   2.448 -0.4040  0.0233  0.5286
  939MOL0     O29468   7.278   9.141   2.366  0.3227  0.1437  0.1113
  939MOL0     C29469   7.178   9.241   2.395 -0.0394  0.6181  0.7263
  939MOL0     C29470   7.067   9.238   2.320  0.5240 -0.1758  0.0653
  939MOL0     C29471   6.960   9.330   2.338 -0.4878  0.5348  0.3502
  939MOL0     C29472   6.845   9.321   2.236  0.4049 -0.8148 -0.3771
  939MOL0     C29473   6.966   9.428   2.443 -0.6525 -0.3080  0.3074
  939MOL0     C29474   6.860   9.526   2.472 -0.0438  0.7871  0.3341
  939MOL0     O29475   6.837   9.544   2.608 -0.0366  0.2106 -0.4524
  939MOL0     C29476   6.750   9.637   2.647  0.6847  0.1753  0.4688
  939MOL0     C29477   6.608   9.600   2.657 -0.4171 -0.1848 -0.5313
  939MOL0     C29478   6.513   9.688   2.651 -0.0771  0.0459 -0.4943
  939MOL0     C29479   6.543   9.824   2.670 -0.5881 -0.5056 -0.2287
  939MOL0     O29480   6.455   9.924   2.678  1.3557  0.0545 -0.1193
  939MOL0     C29481   6.309   9.901   2.694 -0.1229 -0.8919  0.5095
  939MOL0     C29482   6.231   9.873   2.561 -0.3826  0.0033  0.1368
  939MOL0     C29483   6.089   9.921   2.568  1.4094 -0.2200  0.4268
  939MOL0     C29484   5.995   9.813   2.497 -0.0057  0.8558  0.2636
  939MOL0     C29485   5.848   9.860   2.493  0.2318  0.3891  0.2977
  939MOL0     C29486   5.774   9.773   2.389 -0.0426  0.9569  0.2450
  939MOL0     C29487   5.632   9.818   2.350  0.4902 -0.2153 -0.5254
  939MOL0     C29488   5.561   9.726   2.256  0.3418 -0.2164 -1.1366
  939MOL0    Cl29489   5.626   9.726   2.089 -0.1668 -0.3669 -0.1829
  939MOL0     C29490   6.678   9.860   2.671  0.0164 -0.1445  1.2626
  939MOL0     C29491   6.790   9.775   2.667 -0.4457  0.0456  0.2974
  939MOL0     O29492   6.804   9.585   2.384 -0.1731 -0.6031 -0.0413
  939MOL0     C29493   7.087   9.420   2.527  0.5949  0.0251  0.0754
  939MOL0     C29494   7.187   9.333   2.503  0.4633  0.2295 -0.1864
  939MOL0     N29495   7.899   9.186   2.485 -0.8272  0.6286  0.0144
  939MOL0     N29496   7.946   9.270   2.389 -0.3010  1.1127 -0.1806
  939MOL0     C29497   8.081   9.841   3.056 -0.6112  0.2498  0.4733
  939MOL0     C29498   7.984   9.896   3.148  1.0387 -0.1596 -0.5784
  939MOL0     C29499   7.615  10.071   3.313  0.0802  0.4091  0.7092
  939MOL0     C29500   7.574   9.960   3.400  0.6074 -0.2741  0.5710
  939MOL0     C29501   7.468   9.969   3.483  0.4893  0.6192 -0.3755
  939MOL0     C29502   7.393  10.092   3.477  0.4030 -0.4555  0.0052
  939MOL0     O29503   7.267  10.119   3.525  0.0444  0.9133 -0.2548
  939MOL0     C29504   7.208  10.017   3.604 -0.1393 -0.2193  0.0109
  939MOL0     C29505   7.131   9.914   3.519 -0.9497  0.1818  0.0589
  939MOL0     C29506   7.137   9.785   3.601 -0.2516  0.6176  0.8490
  939MOL0     C29507   7.125   9.658   3.510 -1.2269 -0.2062 -0.1137
  939MOL0     C29508   7.256   9.645   3.444 -1.2276  0.2474  0.0920
  939MOL0     C29509   7.360   9.626   3.376  0.6365 -0.7946  0.3158
  939MOL0     C29510   7.431  10.196   3.392 -0.1328  0.2437 -0.4699
  939MOL0     C29511   7.547  10.199   3.322 -0.1058  0.7351  0.5475
  939MOL0     C29512   7.575  10.315   3.243  0.1107 -0.1835  0.8328
  939MOL0     H29513   7.719   9.734   3.047 -0.0519 -1.5961 -2.8180
  939MOL0     H29514   7.893   9.619   2.879 -1.8615  0.0651  1.2793
  939MOL0     H29515   8.330   9.745   2.879 -1.5383  1.1167  3.3631
  939MOL0     H29516   8.199   9.832   2.787 -3.0726  0.0671  1.7884
  939MOL0     H29517   8.357   9.668   2.653 -0.6564 -0.9371 -0.6937
  939MOL0     H29518   8.298   9.538   2.748 -3.4897 -2.3144 -2.1693
  939MOL0     H29519   8.130   9.515   2.568 -0.3052  0.9609 -2.1824
  939MOL0     H29520   8.062   9.616   2.688  0.2621  1.8050 -0.6871
  939MOL0     H29521   8.140   9.820   2.569  2.2436 -1.2173  1.2438
  939MOL0     H29522   8.220   9.727   2.442  1.8104 -1.1240  1.5236
  939MOL0     H29523   7.990   9.822   2.374  1.5831 -0.4314 -1.2977
  939MOL0     H29524   7.919   9.717   2.497 -0.8019 -1.2392 -1.1890
  939MOL0     H29525   8.051   9.640   2.238  0.6962  3.2638 -0.0743
  939MOL0     H29526   8.047   9.530   2.377  1.0172  1.7830  1.0902
  939MOL0     H29527   7.805   9.645   2.224  0.8182  0.8359  0.0640
  939MOL0     H29528   7.797   9.573   2.385 -3.3656  3.1329 -1.3176
  939MOL0     H29529   7.773   9.415   2.148  0.9145 -2.0296 -0.7426
  939MOL0     H29530   7.946   9.412   2.178 -1.3598  1.3854 -2.6635
  939MOL0     H29531   7.626   9.309   2.349  0.7550  0.2689 -2.5912
  939MOL0     H29532   7.590   9.159   2.599  0.8842 -0.4483 -0.2430
  939MOL0     H29533   7.719   9.062   2.651 -1.9712  3.8318  2.0687
  939MOL0     H29534   7.683   8.922   2.434 -2.3090 -2.4401  0.3452
  939MOL0     H29535   7.557   8.917   2.554  0.3244  0.7590  1.0696
  939MOL0     H29536   7.543   9.093   2.303 -1.5687 -0.8060 -2.0961
  939MOL0     H29537   7.454   8.947   2.328  0.5611  0.6682 -2.2041
  939MOL0     H29538   7.366   9.083   2.543 -0.7018 -0.3934  0.2480
  939MOL0     H29539   7.437   9.226   2.469 -1.3264  0.9152 -1.3596
  939MOL0     H29540   7.061   9.170   2.236 -2.1507 -0.6911  0.5867
  939MOL0     H29541   6.823   9.421   2.198 -0.8289 -0.6505  0.7357
  939MOL0     H29542   6.759   9.282   2.290 -1.2006  1.0559 -1.4591
  939MOL0     H29543   6.853   9.239   2.163 -0.4695 -1.6487  0.4369
  939MOL0     H29544   6.583   9.496   2.641 -1.9620  0.3428 -1.7591
  939MOL0     H29545   6.411   9.652   2.648  0.5284 -1.6530 -1.4315
  939MOL0     H29546   6.285   9.818   2.760 -1.1326 -1.4893 -0.5721
  939MOL0     H29547   6.272   9.995   2.736 -1.1128  0.1619 -2.4482
  939MOL0     H29548   6.284   9.912   2.474  0.9126  0.8859  1.2680
  939MOL0     H29549   6.226   9.764   2.552 -1.6518  0.1564 -1.3504
  939MOL0     H29550   6.086  10.020   2.522  0.3439  0.4132  1.7616
  939MOL0     H29551   6.061   9.921   2.674 -0.5232  0.1161 -0.0348
  939MOL0     H29552   5.987   9.720   2.555 -0.0095 -0.9005 -2.3753
  939MOL0     H29553   6.041   9.780   2.403  2.3306  0.2146  1.5487
  939MOL0     H29554   5.800   9.856   2.591 -0.4249  2.1213  0.0862
  939MOL0     H29555   5.846   9.965   2.463  1.9108  0.0771 -1.1004
  939MOL0     H29556   5.762   9.669   2.418  1.8005  0.1305 -1.6749
  939MOL0     H29557   5.832   9.778   2.296  0.9876 -0.5403  0.7678
  939MOL0     H29558   5.616   9.919   2.311 -1.1583 -0.2862 -0.1238
  939MOL0     H29559   5.583   9.812   2.448  1.6900  1.6338  0.2434
  939MOL0     H29560   5.453   9.743   2.246  0.2673 -0.8898 -1.5409
  939MOL0     H29561   5.573   9.628   2.303  0.0329  0.1631 -0.2484
  939MOL0     H29562   6.687   9.968   2.679 -0.9345 -0.0921  1.7445
  939MOL0     H29563   6.891   9.814   2.675 -0.4869  0.4921 -1.0604
  939MOL0     H29564   7.082   9.498   2.602 -0.1812  0.4643 -0.4112
  939MOL0     H29565   7.275   9.329   2.567  0.6269 -1.1736 -0.4616
  939MOL0     H29566   8.183   9.879   3.061 -1.2828  2.3542 -0.5826
  939MOL0     H29567   8.006   9.979   3.214 -0.9989  0.2971 -0.4272
  939MOL0     H29568   7.640   9.874   3.396  2.8141  1.3115  0.9863
  939MOL0     H29569   7.418   9.891   3.540  0.2683  0.0811 -1.2871
  939MOL0     H29570   7.293   9.973   3.658 -0.0119 -0.9990 -0.8115
  939MOL0     H29571   7.133  10.053   3.675 -0.3105 -1.0943  0.2967
  939MOL0     H29572   7.170   9.891   3.419  1.8845 -0.7548  1.2607
  939MOL0     H29573   7.028   9.949   3.515 -1.6065 -1.7344 -1.6957
  939MOL0     H29574   7.232   9.776   3.654 -1.4561  0.5854  3.1860
  939MOL0     H29575   7.063   9.784   3.682 -3.2931  1.7867 -1.6885
  939MOL0     H29576   7.049   9.674   3.433 -2.2578  1.3759  1.1791
  939MOL0     H29577   7.098   9.569   3.567 -0.8313  0.7721  1.6719
  939MOL0     H29578   7.435   9.595   3.306 -0.5989 -4.4992  0.4745
  939MOL0     H29579   7.355  10.272   3.379 -3.3257 -2.5808  0.3419
  939MOL0     H29580   7.673  10.355   3.271 -1.0736  1.5528  2.8124
  939MOL0     H29581   7.588  10.283   3.139  3.3328 -1.6079  1.5646
  939MOL0     H29582   7.494  10.388   3.255 -1.3426 -1.4714 -0.6150
  940MOL0     O29583   9.882   6.510   9.807 -0.0323 -0.7649  0.0207
  940MOL0     C29584   9.896   6.503   9.685  0.9735 -0.4520  0.1961
  940MOL0     O29585  10.010   6.544   9.611  1.1049  0.4206  0.6152
  940MOL0     C29586  10.082   6.657   9.637  0.0570 -0.2250  0.0159
  940MOL0     C29587  10.070   6.754   9.737 -0.0744  0.6060 -0.3671
  940MOL0     C29588  10.174   6.842   9.764  0.4059 -0.1968 -0.1835
  940MOL0     C29589  10.289   6.839   9.691 -0.2273 -1.4450  0.1568
  940MOL0     O29590  10.391   6.919   9.715 -0.7001 -0.6773 -0.1768
  940MOL0     C29591  10.391   7.012   9.610 -0.2947 -0.4236  0.5976
  940MOL0     C29592  10.472   7.127   9.663 -1.1286  0.1966 -0.0094
  940MOL0     C29593  10.622   7.092   9.703  0.0129 -0.4162 -0.1867
  940MOL0     C29594  10.686   7.216   9.763  0.0306 -0.9171  0.3820
  940MOL0     C29595  10.833   7.180   9.804 -0.1796  0.5420 -0.3417
  940MOL0     C29596  10.851   7.098   9.939 -0.3500  0.3723  0.1181
  940MOL0     C29597  10.815   7.194  10.055  0.8047  0.4052 -0.2454
  940MOL0     C29598  10.791   7.132  10.188 -0.2117 -0.7134 -0.1210
  940MOL0     N29599  10.915   7.087  10.263  0.3916 -0.1049 -0.4591
  940MOL0     C29600  10.950   6.955  10.282 -0.3785  0.1888  0.1376
  940MOL0     C29601  11.062   6.964  10.349 -0.2396 -0.1252 -0.5643
  940MOL0     C29602  11.155   6.856  10.395  1.5990 -0.2661 -0.6752
  940MOL0     C29603  11.153   6.739  10.299  0.3418  0.2822 -0.4596
  940MOL0     C29604  11.251   6.630  10.341  0.5697  0.5045 -0.3610
  940MOL0     C29605  11.234   6.503  10.247  0.2213  0.4302  0.1579
  940MOL0     O29606  11.095   6.469  10.238 -0.4871 -0.2747  0.4808
  940MOL0     C29607  11.056   6.382  10.134  0.9359  0.3783  0.1802
  940MOL0     C29608  10.919   6.350  10.120  0.3120 -0.3270  1.1707
  940MOL0     C29609  10.861   6.260  10.035 -0.1186 -0.0513  0.5018
  940MOL0     C29610  10.712   6.265  10.050 -0.0112  0.6099 -0.0622
  940MOL0     C29611  10.938   6.207   9.930 -0.0187  0.5643  0.5432
  940MOL0     C29612  10.890   6.110   9.825 -0.1196 -1.0885  0.2633
  940MOL0     O29613  10.983   6.030   9.767  0.0509  0.2801 -0.4623
  940MOL0     C29614  10.952   5.937   9.670  0.0503 -1.0994 -0.5268
  940MOL0     C29615  10.855   5.833   9.697  0.6155  0.3918 -0.0364
  940MOL0     C29616  10.829   5.733   9.608  0.3863 -0.5452  1.0952
  940MOL0     C29617  10.887   5.733   9.486  0.0696  0.1189  0.0675
  940MOL0     O29618  10.871   5.617   9.410 -0.8233 -0.4092 -0.1768
  940MOL0     C29619  10.852   5.635   9.269 -0.2590 -0.4899  0.3437
  940MOL0     C29620  10.783   5.507   9.220  0.7387 -0.0205  0.1078
  940MOL0     C29621  10.652   5.524   9.140  0.1504  0.2640  0.4541
  940MOL0     C29622  10.683   5.551   8.995  0.1491 -0.2589  0.2031
  940MOL0     C29623  10.545   5.568   8.918 -0.4879  0.0925 -0.2001
  940MOL0     C29624  10.467   5.701   8.930 -0.0347 -0.0809  0.1411
  940MOL0     C29625  10.560   5.825   8.927 -0.3603 -0.6123 -0.1176
  940MOL0     C29626  10.653   5.823   8.810  1.2871 -0.2535 -0.2260
  940MOL0    Cl29627  10.783   5.940   8.845  0.0408 -0.1672 -0.2259
  940MOL0     C29628  10.984   5.827   9.459 -0.6658 -0.0996  0.3521
  940MOL0     C29629  11.028   5.933   9.548  0.2136  0.2298  0.6167
  940MOL0     O29630  10.772   6.126   9.786 -0.1740 -0.3281 -0.4339
  940MOL0     C29631  11.085   6.227   9.953 -0.1138 -0.2176  0.1697
  940MOL0     C29632  11.139   6.316  10.047  0.3293 -0.0024  0.1624
  940MOL0     N29633  11.093   7.095  10.382  0.1320  0.2377 -0.2941
  940MOL0     N29634  11.000   7.172  10.328  0.1661  1.0277  0.4568
  940MOL0     C29635  10.299   6.744   9.584  0.8246  0.7552 -0.9048
  940MOL0     C29636  10.191   6.657   9.552 -0.6633  0.3325 -0.2730
  940MOL0     C29637   9.808   6.401   9.629  0.5915 -0.7567  0.1748
  940MOL0     C29638   9.857   6.330   9.517  0.1023  0.2071 -0.2229
  940MOL0     C29639   9.771   6.233   9.447  0.4403 -0.5506 -0.2348
  940MOL0     C29640   9.645   6.209   9.507  0.3440 -0.3994 -0.4763
  940MOL0     O29641   9.563   6.129   9.436  0.7349  0.1653  0.2523
  940MOL0     C29642   9.575   5.993   9.460  0.4630  0.7126 -0.7558
  940MOL0     C29643   9.441   5.921   9.515 -0.6764  0.6185 -0.1885
  940MOL0     C29644   9.475   5.770   9.508  0.0926  0.1241 -0.3686
  940MOL0     C29645   9.513   5.736   9.655 -0.3091 -0.4184  0.2406
  940MOL0     C29646   9.510   5.593   9.678  0.0394  0.4293  0.9408
  940MOL0     C29647   9.508   5.475   9.705 -0.2144 -0.1528  0.5128
  940MOL0     C29648   9.593   6.277   9.616  0.0340  0.0932 -0.3940
  940MOL0     C29649   9.670   6.379   9.677 -0.8819 -0.0423  0.1790
  940MOL0     C29650   9.593   6.464   9.772 -0.6092  0.5498  0.2332
  940MOL0     H29651   9.985   6.755   9.804 -0.1012  3.1893 -0.3380
  940MOL0     H29652  10.162   6.922   9.836 -1.1877 -0.5726  0.0038
  940MOL0     H29653  10.291   7.036   9.570  0.3492 -1.0029 -1.5309
  940MOL0     H29654  10.440   6.971   9.521 -0.9513 -0.3575  0.1911
  940MOL0     H29655  10.485   7.193   9.577 -0.0319 -3.6070 -3.0430
  940MOL0     H29656  10.415   7.171   9.745  1.2522  2.9999  0.3043
  940MOL0     H29657  10.625   7.006   9.772  1.2292 -2.0527 -2.1607
  940MOL0     H29658  10.678   7.060   9.615  1.1355 -1.8274  0.9856
  940MOL0     H29659  10.681   7.291   9.683 -2.9421 -0.7837  0.5699
  940MOL0     H29660  10.635   7.259   9.849 -1.0695  4.2399 -2.4373
  940MOL0     H29661  10.898   7.268   9.803 -0.0562  0.4506 -0.7245
  940MOL0     H29662  10.880   7.121   9.724  0.7356  0.9525 -0.1211
  940MOL0     H29663  10.781   7.015   9.953 -0.8362  0.9815  1.5427
  940MOL0     H29664  10.953   7.060   9.944 -0.5808 -0.7777 -2.5226
  940MOL0     H29665  10.716   7.232  10.028 -0.5878 -3.1747 -0.6478
  940MOL0     H29666  10.893   7.271  10.055  2.0199 -0.7798 -0.4482
  940MOL0     H29667  10.737   7.190  10.264  0.3619 -2.2494  1.5397
  940MOL0     H29668  10.717   7.057  10.157  0.5692 -2.1581  1.3432
  940MOL0     H29669  10.899   6.865  10.249  0.4225 -1.3317  2.6707
  940MOL0     H29670  11.118   6.826  10.494 -0.8036 -0.3523 -1.5445
  940MOL0     H29671  11.256   6.895  10.410  1.8729 -1.0285 -0.4985
  940MOL0     H29672  11.054   6.697  10.281  1.2529 -1.9968 -0.4931
  940MOL0     H29673  11.191   6.780  10.206  1.4076  1.8656  0.6228
  940MOL0     H29674  11.353   6.667  10.329  0.8757  0.0739  0.7590
  940MOL0     H29675  11.238   6.612  10.448  0.7483  1.2099 -0.2155
  940MOL0     H29676  11.266   6.530  10.145  1.0043 -0.3226  0.1841
  940MOL0     H29677  11.290   6.419  10.289 -4.2670 -0.9003  4.4480
  940MOL0     H29678  10.846   6.387  10.191  0.3141 -2.1256  2.1632
  940MOL0     H29679  10.670   6.320   9.965 -0.4581  0.3202 -0.0352
  940MOL0     H29680  10.672   6.310  10.142  2.6718  2.1946  0.4224
  940MOL0     H29681  10.676   6.162  10.040 -0.0183  0.5757  0.2927
  940MOL0     H29682  10.794   5.835   9.787 -0.3298  1.1089 -0.6595
  940MOL0     H29683  10.763   5.647   9.622  0.0454 -0.8123 -1.5847
  940MOL0     H29684  10.793   5.726   9.252 -0.4221 -0.7473 -0.5655
  940MOL0     H29685  10.948   5.631   9.215  0.0365 -1.5947  0.9340
  940MOL0     H29686  10.847   5.469   9.140 -0.8695  0.8073 -1.6619
  940MOL0     H29687  10.776   5.438   9.305 -1.5447  0.7181  0.6076
  940MOL0     H29688  10.594   5.611   9.171 -0.3738  0.9646 -2.3237
  940MOL0     H29689  10.595   5.430   9.138  0.0244  0.3623 -0.8379
  940MOL0     H29690  10.734   5.462   8.956 -0.2391 -1.0193  1.3814
  940MOL0     H29691  10.742   5.642   8.984 -1.1430  0.5772  0.0649
  940MOL0     H29692  10.574   5.564   8.812 -2.2016 -0.0655 -0.7074
  940MOL0     H29693  10.489   5.476   8.936  2.3324 -1.9277 -1.0918
  940MOL0     H29694  10.403   5.689   9.017 -2.8074 -0.6794 -1.8342
  940MOL0     H29695  10.390   5.703   8.853 -0.4727  1.0630  0.5961
  940MOL0     H29696  10.620   5.818   9.018  0.1289  1.9969 -0.1719
  940MOL0     H29697  10.506   5.919   8.914 -2.2337 -1.0715  3.2329
  940MOL0     H29698  10.611   5.867   8.719 -2.2306  0.1362  1.4334
  940MOL0     H29699  10.704   5.729   8.786 -0.2312 -0.1305 -5.0262
  940MOL0     H29700  11.052   5.825   9.374 -1.9248 -1.1336 -0.6675
  940MOL0     H29701  11.108   6.005   9.538  0.2723  0.0516 -0.3532
  940MOL0     H29702  11.156   6.162   9.902 -1.8086 -2.5657  0.6187
  940MOL0     H29703  11.246   6.307  10.059  0.0170 -3.6225  1.5016
  940MOL0     H29704  10.392   6.746   9.527  3.0022  2.4418  2.3862
  940MOL0     H29705  10.193   6.592   9.464  4.0190 -0.4123  0.1059
  940MOL0     H29706   9.957   6.350   9.480 -0.0632  1.1306 -0.1956
  940MOL0     H29707   9.799   6.199   9.348  0.3024  0.7956 -0.7618
  940MOL0     H29708   9.610   5.952   9.365  0.9506 -1.9997  0.4978
  940MOL0     H29709   9.653   5.980   9.535 -0.9659  1.3904  0.9307
  940MOL0     H29710   9.351   5.942   9.456 -2.3496 -0.8927  1.6951
  940MOL0     H29711   9.420   5.957   9.616 -1.2842  1.2211 -0.5247
  940MOL0     H29712   9.384   5.721   9.471  0.1179 -0.6542  0.5527
  940MOL0     H29713   9.554   5.744   9.437 -0.3985 -2.1631 -0.1498
  940MOL0     H29714   9.457   5.786   9.734 -0.7595 -0.1338 -0.2488
  940MOL0     H29715   9.614   5.777   9.669 -0.8714  1.6801 -1.3222
  940MOL0     H29716   9.499   5.370   9.723  0.4983 -0.3158 -0.0183
  940MOL0     H29717   9.495   6.244   9.650 -1.7617  2.1278 -3.1266
  940MOL0     H29718   9.618   6.442   9.877 -1.8039 -0.5167  0.3205
  940MOL0     H29719   9.621   6.567   9.748 -1.1833  0.8071  0.6350
  940MOL0     H29720   9.485   6.468   9.757 -0.3187 -1.2619 -3.2737
  941MOL0     O29721   2.327   5.467   2.526  0.2837  0.0488 -1.3182
  941MOL0     C29722   2.351   5.514   2.633 -0.0804  0.1437  0.3767
  941MOL0     O29723   2.443   5.469   2.719  0.7504 -0.3643 -0.5561
  941MOL0     C29724   2.551   5.393   2.681  0.4043 -0.3135 -0.1395
  941MOL0     C29725   2.609   5.369   2.564  0.0526  1.2314 -0.0203
  941MOL0     C29726   2.713   5.281   2.546 -0.6256 -0.4841  0.4881
  941MOL0     C29727   2.788   5.234   2.651  0.3483 -0.9201 -0.6985
  941MOL0     O29728   2.913   5.186   2.630  0.2605 -0.1422  0.0249
  941MOL0     C29729   2.941   5.050   2.677  0.3026 -0.5570 -0.0037
  941MOL0     C29730   3.064   4.994   2.612 -0.3699  0.6389  0.6961
  941MOL0     C29731   3.017   4.922   2.472 -0.1881 -1.0527  0.4071
  941MOL0     C29732   3.139   4.862   2.406 -0.3642 -0.6924  0.0623
  941MOL0     C29733   3.105   4.796   2.267 -0.0276  0.3427 -0.4824
  941MOL0     C29734   3.045   4.890   2.166  0.2266  0.0733  0.0213
  941MOL0     C29735   3.122   5.032   2.158  1.0253 -0.4114 -0.2497
  941MOL0     C29736   3.273   5.002   2.114  1.0653 -0.4952 -0.1128
  941MOL0     N29737   3.282   4.938   1.986  0.3411  0.5992  0.5812
  941MOL0     C29738   3.257   4.991   1.862  0.0651 -0.8238 -0.3231
  941MOL0     C29739   3.268   4.888   1.779  0.2327 -0.1728 -0.1114
  941MOL0     C29740   3.241   4.897   1.634 -0.6214  0.4583 -0.3768
  941MOL0     C29741   3.095   4.857   1.602  0.5599 -0.1693 -0.6653
  941MOL0     C29742   3.077   4.798   1.463 -0.9954 -0.2572 -0.1565
  941MOL0     C29743   3.134   4.880   1.349  0.9760  0.1418  0.3452
  941MOL0     O29744   3.061   5.000   1.331  0.3925 -0.0722  0.6945
  941MOL0     C29745   3.126   5.091   1.253 -0.4167  0.2421 -0.4802
  941MOL0     C29746   3.054   5.132   1.140 -0.3987  0.0859 -0.3235
  941MOL0     C29747   3.122   5.226   1.055  0.2680 -0.1567 -0.5219
  941MOL0     C29748   3.036   5.269   0.937  0.1949  0.0508  0.4510
  941MOL0     C29749   3.259   5.275   1.072  1.5220  0.0261 -0.7918
  941MOL0     C29750   3.329   5.369   0.988 -0.4237  0.0388  0.0696
  941MOL0     O29751   3.262   5.470   0.926  0.0199 -0.4813 -0.9164
  941MOL0     C29752   3.325   5.536   0.827 -0.8516 -0.6689 -0.2722
  941MOL0     C29753   3.419   5.636   0.873 -0.1922  0.0731 -0.6513
  941MOL0     C29754   3.496   5.720   0.782  0.7506  0.3248  0.0864
  941MOL0     C29755   3.472   5.702   0.644 -0.7417 -0.3962 -0.4844
  941MOL0     O29756   3.512   5.794   0.547 -0.4364  0.9133  0.1017
  941MOL0     C29757   3.585   5.914   0.591 -0.1505  0.2947 -0.5486
  941MOL0     C29758   3.494   6.020   0.678 -0.4376  0.0225  0.5427
  941MOL0     C29759   3.500   6.164   0.607 -0.1225 -0.8053  0.4764
  941MOL0     C29760   3.619   6.265   0.650  0.8375  1.0488 -0.4185
  941MOL0     C29761   3.630   6.386   0.558 -0.1992  0.1502  0.0504
  941MOL0     C29762   3.765   6.410   0.500 -0.3356 -0.1747 -0.4932
  941MOL0     C29763   3.778   6.546   0.436  0.5752 -0.4789  0.7293
  941MOL0     C29764   3.900   6.548   0.346 -0.4210 -0.3151 -1.1378
  941MOL0    Cl29765   3.896   6.700   0.249 -0.1059 -0.2869  0.1851
  941MOL0     C29766   3.383   5.601   0.608 -1.2805 -0.5544 -0.3362
  941MOL0     C29767   3.305   5.515   0.695 -0.9056 -0.1166  0.2526
  941MOL0     O29768   3.441   5.336   0.972 -0.7610 -0.4651 -0.6033
  941MOL0     C29769   3.322   5.221   1.179 -0.3191 -0.4235 -0.9341
  941MOL0     C29770   3.255   5.138   1.275  0.3086 -0.4909  0.4010
  941MOL0     N29771   3.313   4.776   1.845 -0.1019  0.3280  1.0874
  941MOL0     N29772   3.327   4.808   1.969  0.2191  0.0156 -0.9675
  941MOL0     C29773   2.744   5.270   2.778 -0.5545  0.6449  0.1279
  941MOL0     C29774   2.619   5.337   2.797  0.1815  0.6040  0.4968
  941MOL0     C29775   2.251   5.601   2.687 -0.2849  0.1678  0.1519
  941MOL0     C29776   2.286   5.720   2.744 -0.0002 -0.9120  0.2650
  941MOL0     C29777   2.190   5.810   2.793 -0.2605 -0.2644  0.6038
  941MOL0     C29778   2.058   5.769   2.802  0.3098  0.3023 -0.3999
  941MOL0     O29779   1.960   5.852   2.846  0.4257 -0.1981 -0.1854
  941MOL0     C29780   1.999   5.974   2.920  0.4749 -0.3361  0.1781
  941MOL0     C29781   2.046   5.948   3.070 -0.2496 -0.1415 -0.1794
  941MOL0     C29782   1.945   5.878   3.166  0.0099 -0.1807  0.5657
  941MOL0     C29783   1.821   5.959   3.189  0.0322  0.3528  0.2144
  941MOL0     C29784   1.844   6.096   3.240  0.0724 -0.8086  0.2218
  941MOL0     C29785   1.865   6.204   3.290  0.3139  0.2592  0.1369
  941MOL0     C29786   2.016   5.658   2.745  0.1001 -0.3257 -0.3620
  941MOL0     C29787   2.109   5.561   2.697 -0.1194 -0.5393 -0.3792
  941MOL0     C29788   2.064   5.432   2.640  0.1781 -0.3982 -0.1499
  941MOL0     H29789   2.560   5.392   2.470 -0.4221  1.7027  0.3331
  941MOL0     H29790   2.741   5.272   2.441  0.9650 -0.1277  0.8429
  941MOL0     H29791   2.844   4.999   2.673 -0.6238  1.2077 -2.0315
  941MOL0     H29792   2.975   5.057   2.780 -0.5340 -1.5794  0.3598
  941MOL0     H29793   3.141   5.070   2.597  0.0580  0.9011  3.5785
  941MOL0     H29794   3.100   4.909   2.671 -1.9307 -1.1854 -0.8078
  941MOL0     H29795   2.943   4.846   2.501 -0.5086 -1.9410 -2.4897
  941MOL0     H29796   2.956   4.990   2.412  1.0533 -0.4928 -0.2514
  941MOL0     H29797   3.210   4.945   2.405 -2.7817  1.5858  2.7650
  941MOL0     H29798   3.193   4.789   2.468  3.1238  0.1878 -1.6483
  941MOL0     H29799   3.038   4.711   2.278  0.2717 -0.1788 -2.4153
  941MOL0     H29800   3.200   4.758   2.228  1.5082  3.1870  0.1836
  941MOL0     H29801   3.040   4.835   2.071  2.7792 -1.9114  0.9348
  941MOL0     H29802   2.951   4.928   2.208 -0.6487 -1.2536 -0.6544
  941MOL0     H29803   3.121   5.093   2.248  2.3429  1.2652 -1.3039
  941MOL0     H29804   3.067   5.088   2.082 -3.1371  0.1219  2.8445
  941MOL0     H29805   3.323   5.099   2.108 -2.7094  1.5790 -1.4184
  941MOL0     H29806   3.324   4.937   2.187 -0.0522 -1.7079 -0.3592
  941MOL0     H29807   3.212   5.086   1.835  3.9565  1.1783 -0.4858
  941MOL0     H29808   3.321   4.835   1.593  0.7002  1.3515  0.7553
  941MOL0     H29809   3.266   5.000   1.608  0.0888  0.6265  0.8976
  941MOL0     H29810   3.044   4.789   1.671 -1.8771  0.1717 -2.0064
  941MOL0     H29811   3.037   4.950   1.602 -0.5497 -0.8205  1.1170
  941MOL0     H29812   3.123   4.699   1.454  0.2787  0.4917 -7.1176
  941MOL0     H29813   2.971   4.777   1.444 -1.8852  2.3044  1.4326
  941MOL0     H29814   3.241   4.884   1.371  0.6213  0.3949  2.2510
  941MOL0     H29815   3.115   4.826   1.256 -1.1135  1.2701  0.0622
  941MOL0     H29816   2.954   5.091   1.135 -0.1483 -0.3988 -2.2530
  941MOL0     H29817   3.039   5.210   0.845 -2.1742  1.0793 -0.3616
  941MOL0     H29818   3.044   5.376   0.917  0.3877  0.0446  0.4841
  941MOL0     H29819   2.931   5.251   0.961 -0.3168 -0.4514 -1.8912
  941MOL0     H29820   3.433   5.653   0.980 -3.7178 -0.7931  0.0889
  941MOL0     H29821   3.551   5.803   0.823 -3.1882  3.6116 -0.6102
  941MOL0     H29822   3.673   5.878   0.646  0.0975 -1.7367 -2.1662
  941MOL0     H29823   3.630   5.962   0.504  2.8665  0.2360  0.8215
  941MOL0     H29824   3.387   5.995   0.683 -0.4151 -0.1414  0.2373
  941MOL0     H29825   3.530   6.031   0.780 -1.3985  1.3656  0.7668
  941MOL0     H29826   3.416   6.231   0.628 -0.3929  0.5698 -3.9864
  941MOL0     H29827   3.518   6.141   0.502  2.6176  0.0594  0.6721
  941MOL0     H29828   3.710   6.205   0.643 -0.2061 -0.3978 -2.1976
  941MOL0     H29829   3.603   6.296   0.754 -0.5666 -0.7169 -0.0639
  941MOL0     H29830   3.555   6.373   0.480 -1.5165  3.3067  0.6278
  941MOL0     H29831   3.591   6.472   0.613 -3.1202 -0.5744 -0.6984
  941MOL0     H29832   3.772   6.328   0.427 -1.2075  0.6897 -1.5729
  941MOL0     H29833   3.844   6.410   0.576 -0.0900  0.2348 -0.7404
  941MOL0     H29834   3.779   6.625   0.513  1.4499 -1.2991  1.5828
  941MOL0     H29835   3.691   6.559   0.371 -0.3004 -0.0178  1.9631
  941MOL0     H29836   3.904   6.467   0.273  0.5837 -0.1139 -1.3205
  941MOL0     H29837   3.995   6.557   0.400  1.0524  3.4524 -3.9033
  941MOL0     H29838   3.354   5.597   0.504 -1.5636  2.5552 -0.4596
  941MOL0     H29839   3.233   5.442   0.660 -0.4065 -0.8969  0.8141
  941MOL0     H29840   3.426   5.248   1.198 -0.5024 -1.0545  1.1906
  941MOL0     H29841   3.318   5.090   1.349  1.5465  2.4230  1.3843
  941MOL0     H29842   2.797   5.222   2.860  0.7561 -4.1621 -3.1141
  941MOL0     H29843   2.579   5.355   2.896 -0.0129  0.0137  0.5298
  941MOL0     H29844   2.390   5.741   2.724  0.1483 -2.8131 -1.3421
  941MOL0     H29845   2.230   5.906   2.823  3.1050 -1.6316  0.9333
  941MOL0     H29846   2.081   6.025   2.868  1.0323 -2.8777 -1.6338
  941MOL0     H29847   1.910   6.036   2.916  0.5373 -0.2635 -3.5438
  941MOL0     H29848   2.074   6.044   3.113  1.5779 -0.9021  0.4456
  941MOL0     H29849   2.135   5.885   3.060  0.9379  1.0436  2.1146
  941MOL0     H29850   1.904   5.779   3.139 -0.5921 -0.0562  0.9961
  941MOL0     H29851   1.981   5.871   3.269 -0.3915 -1.6840  0.6376
  941MOL0     H29852   1.757   5.909   3.262  0.7993 -2.4497 -0.8963
  941MOL0     H29853   1.770   5.961   3.092  0.9992  1.5230 -0.2833
  941MOL0     H29854   1.892   6.297   3.336  0.5889 -0.0956  0.7015
  941MOL0     H29855   1.908   5.649   2.740 -0.0242  0.4809  0.6389
  941MOL0     H29856   2.129   5.350   2.672  2.2762  1.7725  1.5057
  941MOL0     H29857   1.960   5.417   2.669  0.6161 -0.6168  1.3896
  941MOL0     H29858   2.078   5.441   2.532 -0.4957  0.3947 -0.1821
  942MOL0     O29859   1.399   3.172  11.419  0.3201  0.1010  0.9488
  942MOL0     C29860   1.416   3.234  11.522  0.6526 -0.4859  0.2699
  942MOL0     O29861   1.490   3.343  11.529 -0.6848 -0.1060  0.0387
  942MOL0     C29862   1.553   3.376  11.413 -0.2952 -0.8637 -1.2929
  942MOL0     C29863   1.501   3.477  11.331  0.8972 -0.1380 -0.5450
  942MOL0     C29864   1.552   3.502  11.204  0.7568 -0.5113 -1.0621
  942MOL0     C29865   1.656   3.431  11.161  0.4338  0.6697  0.7051
  942MOL0     O29866   1.716   3.452  11.039  1.0760  0.2028  0.0517
  942MOL0     C29867   1.632   3.504  10.931 -0.0979  0.9398  0.3652
  942MOL0     C29868   1.711   3.499  10.798 -1.0141 -1.1389 -0.0969
  942MOL0     C29869   1.770   3.359  10.769 -0.3635  0.1335 -0.4845
  942MOL0     C29870   1.828   3.354  10.621  0.2095 -0.0876 -0.1652
  942MOL0     C29871   1.908   3.226  10.613 -0.6179 -0.1581  0.3715
  942MOL0     C29872   1.990   3.220  10.484  0.1109 -0.2484  0.2093
  942MOL0     C29873   2.082   3.090  10.483 -0.2352 -0.0840  0.6098
  942MOL0     C29874   2.153   3.095  10.345 -0.3739 -0.2040 -0.2841
  942MOL0     N29875   2.221   2.976  10.319  0.0530  0.8765  0.6860
  942MOL0     C29876   2.318   2.911  10.401 -0.6074  0.3994  0.8763
  942MOL0     C29877   2.325   2.787  10.344 -0.8212 -0.7193  0.0505
  942MOL0     C29878   2.408   2.673  10.395 -0.0365 -0.3652  0.9675
  942MOL0     C29879   2.562   2.722  10.387 -0.4550 -0.5017 -0.0618
  942MOL0     C29880   2.657   2.594  10.375  0.4088 -0.0522  0.0193
  942MOL0     C29881   2.787   2.620  10.317 -0.6549 -0.3996  0.4275
  942MOL0     O29882   2.870   2.506  10.318  0.2385 -0.4904  1.2090
  942MOL0     C29883   3.001   2.535  10.339  0.0509  0.6860 -0.7036
  942MOL0     C29884   3.066   2.651  10.342 -0.0652 -0.7269 -0.2991
  942MOL0     C29885   3.199   2.666  10.385 -0.1847  0.5185 -0.1752
  942MOL0     C29886   3.244   2.803  10.387 -0.8400 -0.3171 -0.0505
  942MOL0     C29887   3.274   2.554  10.423  0.1186  0.1999 -0.2101
  942MOL0     C29888   3.425   2.569  10.463  0.7210 -0.0400  0.6310
  942MOL0     O29889   3.486   2.692  10.454 -0.0410 -0.0016  0.1664
  942MOL0     C29890   3.622   2.720  10.481  0.0258 -1.0465 -1.1300
  942MOL0     C29891   3.716   2.639  10.546 -0.2928 -0.5290  0.0440
  942MOL0     C29892   3.851   2.679  10.560 -0.0458  0.1885  0.3419
  942MOL0     C29893   3.885   2.808  10.517  0.3094  0.3914  0.6088
  942MOL0     O29894   4.007   2.866  10.534 -0.2333 -0.0977 -0.5117
  942MOL0     C29895   4.102   2.808  10.624 -0.4289  0.6871 -0.8106
  942MOL0     C29896   4.163   2.930  10.696  0.8953  0.3400 -0.0239
  942MOL0     C29897   4.272   2.884  10.793  0.1803  0.0944  0.1213
  942MOL0     C29898   4.394   2.976  10.798 -1.0307 -0.0849 -0.0994
  942MOL0     C29899   4.497   2.931  10.899 -0.2544  1.1729 -0.3428
  942MOL0     C29900   4.628   3.012  10.890  0.1792  0.2853  0.4700
  942MOL0     C29901   4.598   3.163  10.915 -0.5737 -0.2742  0.3974
  942MOL0     C29902   4.727   3.242  10.926  0.5908 -0.4242  0.0745
  942MOL0    Cl29903   4.838   3.183  11.050  0.3607 -0.1823 -0.1998
  942MOL0     C29904   3.791   2.890  10.449  0.3431 -0.4961  0.3498
  942MOL0     C29905   3.660   2.848  10.442  1.7666  0.0982 -0.9523
  942MOL0     O29906   3.473   2.468  10.509  0.5823  0.3366  0.1225
  942MOL0     C29907   3.210   2.437  10.432  0.5548  1.0452  0.4971
  942MOL0     C29908   3.077   2.427  10.389 -0.3066  0.2687  0.6459
  942MOL0     N29909   2.242   2.786  10.232  0.3928  0.3475 -0.3192
  942MOL0     N29910   2.185   2.894  10.209  0.0563 -0.4028 -0.0618
  942MOL0     C29911   1.712   3.329  11.244 -0.6155 -0.1986 -0.4011
  942MOL0     C29912   1.660   3.307  11.374 -0.7763 -0.0167  0.4180
  942MOL0     C29913   1.358   3.192  11.650  0.2908 -0.3366  0.1408
  942MOL0     C29914   1.374   3.274  11.769  0.7188  0.4598  0.5543
  942MOL0     C29915   1.296   3.242  11.882 -0.0302 -0.4435  0.1143
  942MOL0     C29916   1.207   3.134  11.888 -0.7596  0.0898  0.2148
  942MOL0     O29917   1.109   3.123  11.992 -0.0140  0.7557  0.4185
  942MOL0     C29918   0.979   3.164  11.944  0.2277 -1.2952 -0.6183
  942MOL0     C29919   0.928   3.295  12.020  1.3162  1.0971 -0.9648
  942MOL0     C29920   0.802   3.345  11.946  0.3447  0.0718 -0.9395
  942MOL0     C29921   0.673   3.329  12.024 -0.4453  0.8889 -0.4900
  942MOL0     C29922   0.547   3.363  11.956 -0.0706 -0.7983 -0.0585
  942MOL0     C29923   0.456   3.387  11.877  0.5000  0.0492 -0.4468
  942MOL0     C29924   1.213   3.047  11.782  0.2633  0.7040 -1.1453
  942MOL0     C29925   1.278   3.071  11.664 -0.1429  0.1410  0.0750
  942MOL0     C29926   1.253   2.975  11.557 -0.6856  0.1841 -0.5761
  942MOL0     H29927   1.415   3.535  11.365 -0.1050 -1.0279 -1.4911
  942MOL0     H29928   1.499   3.578  11.147 -3.2966 -0.7433  1.8839
  942MOL0     H29929   1.610   3.606  10.965  1.1576  0.8572  1.5287
  942MOL0     H29930   1.534   3.458  10.923  0.1648  0.5196 -0.6524
  942MOL0     H29931   1.657   3.532  10.709  3.5870  1.0842 -2.3866
  942MOL0     H29932   1.795   3.569  10.806 -1.4616 -0.6837  0.8848
  942MOL0     H29933   1.847   3.343  10.845 -0.1642 -0.1974 -0.7499
  942MOL0     H29934   1.694   3.280  10.776 -1.8753  1.4613 -1.3003
  942MOL0     H29935   1.744   3.347  10.552  0.5172  0.9467 -0.6658
  942MOL0     H29936   1.884   3.441  10.586  2.1380 -0.8231  0.9522
  942MOL0     H29937   1.843   3.138  10.609 -0.9444 -0.0433  2.3455
  942MOL0     H29938   1.978   3.209  10.695 -0.3676 -2.1368 -0.1938
  942MOL0     H29939   1.928   3.233  10.394 -2.3394 -1.4060  1.6131
  942MOL0     H29940   2.068   3.296  10.477  2.3350 -2.2933  1.3740
  942MOL0     H29941   2.011   3.007  10.491 -2.5399  1.8373  1.1949
  942MOL0     H29942   2.158   3.087  10.562 -0.0998 -2.0814  0.4489
  942MOL0     H29943   2.091   3.120  10.259 -0.6898  0.0578  0.0164
  942MOL0     H29944   2.230   3.173  10.352 -0.0850 -0.4273 -0.9053
  942MOL0     H29945   2.366   2.938  10.495  1.6738 -0.3362 -0.0172
  942MOL0     H29946   2.406   2.587  10.327  1.2275 -0.8501  1.5151
  942MOL0     H29947   2.372   2.633  10.490 -0.4844 -2.2204  0.0651
  942MOL0     H29948   2.571   2.782  10.296  1.8345  0.5019  0.7751
  942MOL0     H29949   2.604   2.779  10.470  0.1047  0.2289 -0.8307
  942MOL0     H29950   2.674   2.550  10.473  0.7180 -3.5295 -1.4570
  942MOL0     H29951   2.611   2.521  10.308  1.5004  0.5017 -1.3856
  942MOL0     H29952   2.780   2.661  10.216  1.0541  0.0900  0.4653
  942MOL0     H29953   2.824   2.703  10.379 -0.4973 -1.5045  1.8733
  942MOL0     H29954   3.014   2.740  10.306  3.3479  0.4203 -2.8745
  942MOL0     H29955   3.293   2.816  10.483  0.4790 -1.7354 -0.4863
  942MOL0     H29956   3.160   2.872  10.380  0.4404  1.1862 -1.6956
  942MOL0     H29957   3.307   2.824  10.300 -2.9342  3.2050 -0.9098
  942MOL0     H29958   3.672   2.566  10.614 -0.3506  0.8366  1.5024
  942MOL0     H29959   3.918   2.632  10.632 -1.0816 -1.2904  0.3873
  942MOL0     H29960   4.054   2.747  10.701 -3.6170  2.2983 -1.3566
  942MOL0     H29961   4.188   2.767  10.571 -1.3952 -3.2704  0.3869
  942MOL0     H29962   4.206   2.989  10.614 -0.0134 -0.2983 -0.9770
  942MOL0     H29963   4.079   2.976  10.748  0.1918 -0.4372 -0.4536
  942MOL0     H29964   4.312   2.791  10.752  1.8276  1.0092 -0.4446
  942MOL0     H29965   4.223   2.860  10.888 -2.8118 -2.7618 -1.9224
  942MOL0     H29966   4.352   3.076  10.812  1.7981  1.3261 -1.0105
  942MOL0     H29967   4.440   2.974  10.699  0.4902  3.1616  0.4082
  942MOL0     H29968   4.468   2.939  11.005 -0.4709 -2.6911  0.0109
  942MOL0     H29969   4.518   2.824  10.894 -1.6299  0.7014  2.0511
  942MOL0     H29970   4.674   2.987  10.794  3.2077 -0.4578  1.9592
  942MOL0     H29971   4.707   2.981  10.960 -0.5839  0.3392  1.3790
  942MOL0     H29972   4.523   3.179  10.993 -0.9738  2.7216 -0.4736
  942MOL0     H29973   4.543   3.197  10.827 -2.1672 -0.4582  1.2764
  942MOL0     H29974   4.698   3.346  10.944 -2.2594 -1.1032 -0.0441
  942MOL0     H29975   4.778   3.249  10.829 -0.4108 -1.4417 -0.5480
  942MOL0     H29976   3.819   2.978  10.392 -0.4245 -1.3691 -1.4840
  942MOL0     H29977   3.579   2.900  10.392  0.2959 -0.6474  0.5311
  942MOL0     H29978   3.259   2.346  10.463  0.4070  1.0570  0.7669
  942MOL0     H29979   3.042   2.324  10.383  0.9678 -0.1030 -1.7637
  942MOL0     H29980   1.802   3.279  11.211 -1.2816 -0.3030 -2.1638
  942MOL0     H29981   1.700   3.223  11.431 -4.2496 -1.4945  0.9136
  942MOL0     H29982   1.423   3.371  11.764 -1.8548  1.8408  0.6675
  942MOL0     H29983   1.296   3.309  11.967 -1.0421 -1.9622  1.3699
  942MOL0     H29984   0.981   3.179  11.836  0.3282 -0.7708 -0.5490
  942MOL0     H29985   0.911   3.081  11.966 -3.4366  1.8012  1.0271
  942MOL0     H29986   1.019   3.356  12.022  1.9770  0.3128 -3.3556
  942MOL0     H29987   0.893   3.269  12.120  0.0773 -0.3958 -1.7455
  942MOL0     H29988   0.816   3.453  11.936  0.2598  0.2963  1.0126
  942MOL0     H29989   0.785   3.307  11.844  0.8182  2.5976 -2.0320
  942MOL0     H29990   0.690   3.379  12.120  2.3635  0.7797 -0.8362
  942MOL0     H29991   0.648   3.226  12.049  1.5812  0.0198 -1.7392
  942MOL0     H29992   0.379   3.416  11.809 -0.4347 -1.2836  0.0121
  942MOL0     H29993   1.147   2.961  11.781 -1.1306  1.7020 -0.1818
  942MOL0     H29994   1.203   3.016  11.469  2.4907  2.2964 -1.5535
  942MOL0     H29995   1.355   2.954  11.524 -0.4702  0.9571 -0.4233
  942MOL0     H29996   1.212   2.882  11.598  2.6759 -0.1825  2.5006
  943MOL0     O29997   1.494   8.261  11.188  0.0827  0.9763 -0.1779
  943MOL0     C29998   1.489   8.185  11.092 -0.1926 -0.4275  0.7095
  943MOL0     O29999   1.449   8.225  10.964  0.3422 -0.1450  0.0998
  943MOL0     C30000   1.450   8.366  10.950 -0.9691  0.7353  0.1486
  943MOL0     C30001   1.547   8.436  10.884  0.1291 -0.1825 -0.0380
  943MOL0     C30002   1.527   8.569  10.847 -0.2019 -0.2178  0.2170
  943MOL0     C30003   1.419   8.643  10.900  0.1240 -0.0691  0.3624
  943MOL0     O30004   1.397   8.777  10.884  0.3542  0.0794  0.5642
  943MOL0     C30005   1.496   8.849  10.808 -0.0305  0.0874  0.2685
  943MOL0     C30006   1.475   9.009  10.824  0.0740 -0.3937  1.3359
  943MOL0     C30007   1.430   9.063  10.690  0.5648  0.0608 -0.1113
  943MOL0     C30008   1.380   9.204  10.714 -0.3060  0.2196  0.4023
  943MOL0     C30009   1.412   9.292  10.594 -0.9365  0.0590 -0.3826
  943MOL0     C30010   1.329   9.263  10.461  0.0967  0.3523  0.0116
  943MOL0     C30011   1.188   9.311  10.463  0.4836  0.1377 -0.0588
  943MOL0     C30012   1.109   9.266  10.344  0.6264  0.9569 -0.2431
  943MOL0     N30013   1.053   9.133  10.350 -0.6361  0.1867 -0.1668
  943MOL0     C30014   1.085   9.015  10.280 -0.1361  0.4874  0.7969
  943MOL0     C30015   1.003   8.920  10.330 -0.3728 -0.1364  0.5040
  943MOL0     C30016   1.000   8.769  10.307 -0.2825 -0.5563  0.1255
  943MOL0     C30017   1.015   8.681  10.430  0.5270 -0.2307 -0.9554
  943MOL0     C30018   1.135   8.592  10.446 -0.5234 -0.3014 -0.4446
  943MOL0     C30019   1.175   8.568  10.598  0.3797 -0.2845  0.0762
  943MOL0     O30020   1.062   8.511  10.666  0.3069  0.0625 -1.3090
  943MOL0     C30021   1.087   8.397  10.732 -0.8653  0.3671 -0.1221
  943MOL0     C30022   1.157   8.281  10.680 -0.6243 -0.5737  0.4603
  943MOL0     C30023   1.190   8.169  10.747  0.2934 -0.5290 -0.0505
  943MOL0     C30024   1.286   8.062  10.690 -0.1240 -0.3769  0.6754
  943MOL0     C30025   1.134   8.156  10.880 -0.1378 -0.1457 -0.0360
  943MOL0     C30026   1.147   8.033  10.961  1.0195 -0.3198  0.0420
  943MOL0     O30027   1.085   7.919  10.922 -0.4720 -0.0011  0.1896
  943MOL0     C30028   1.140   7.795  10.954  0.4513 -1.8751  0.0473
  943MOL0     C30029   1.134   7.701  10.857  0.6109  0.1437 -0.4029
  943MOL0     C30030   1.168   7.564  10.886  0.1293 -0.6756 -0.2925
  943MOL0     C30031   1.198   7.528  11.020 -0.2210 -0.7961  1.2308
  943MOL0     O30032   1.230   7.400  11.039 -0.1015 -0.1264 -0.2131
  943MOL0     C30033   1.142   7.345  11.137 -0.2521 -0.0362 -0.4981
  943MOL0     C30034   0.985   7.364  11.104 -0.4441 -0.1572  0.0903
  943MOL0     C30035   0.903   7.239  11.156 -0.5328  0.7227 -0.4148
  943MOL0     C30036   0.907   7.228  11.307  0.9369 -0.0697  0.2364
  943MOL0     C30037   0.825   7.107  11.362  1.7653  0.5257 -0.0195
  943MOL0     C30038   0.864   6.961  11.323 -0.1301  0.6217 -0.0240
  943MOL0     C30039   0.817   6.916  11.183 -0.6380 -0.2501 -0.6009
  943MOL0     C30040   0.827   6.762  11.184  0.5824  0.0160  0.1921
  943MOL0    Cl30041   0.782   6.688  11.028 -0.5491 -0.0576  0.1952
  943MOL0     C30042   1.195   7.627  11.124  0.2768 -0.0213  0.6089
  943MOL0     C30043   1.164   7.758  11.091  0.2479 -0.8067  0.1929
  943MOL0     O30044   1.196   8.057  11.068 -0.5494  0.0642  0.8600
  943MOL0     C30045   1.067   8.271  10.934  0.3778  0.9667 -0.3331
  943MOL0     C30046   1.052   8.388  10.866 -0.6750 -0.9841  0.4801
  943MOL0     N30047   0.915   8.983  10.411  0.2457 -0.5693  0.1027
  943MOL0     N30048   0.943   9.109  10.424 -0.3353  0.2244 -0.0220
  943MOL0     C30049   1.325   8.577  10.986 -0.4261  0.2313 -0.5622
  943MOL0     C30050   1.346   8.443  11.001  0.5396 -0.1204 -0.7288
  943MOL0     C30051   1.518   8.048  11.107 -0.0049  0.4934 -1.3025
  943MOL0     C30052   1.449   7.978  11.205 -0.0252  0.3492 -0.9889
  943MOL0     C30053   1.464   7.842  11.223 -0.9346  0.1892  0.4443
  943MOL0     C30054   1.550   7.768  11.127 -1.2544  0.4799 -0.0095
  943MOL0     O30055   1.571   7.632  11.118 -0.0079  0.3075  0.2093
  943MOL0     C30056   1.539   7.556  11.235  0.0228 -0.3158 -0.0066
  943MOL0     C30057   1.645   7.451  11.274  0.4375 -0.4149  0.2267
  943MOL0     C30058   1.661   7.346  11.161 -0.1846 -0.3330 -0.2545
  943MOL0     C30059   1.739   7.229  11.216  0.7237  0.1035 -0.4432
  943MOL0     C30060   1.685   7.108  11.163  0.0879 -0.2961  0.5307
  943MOL0     C30061   1.649   6.998  11.125 -0.3181  0.5056 -0.2861
  943MOL0     C30062   1.620   7.842  11.034 -0.2360  0.2282  0.3087
  943MOL0     C30063   1.602   7.976  11.014  0.5670 -0.5687 -0.2511
  943MOL0     C30064   1.678   8.048  10.901  0.5389  0.1129 -0.2293
  943MOL0     H30065   1.631   8.378  10.849  0.5950  1.9767 -2.8784
  943MOL0     H30066   1.615   8.598  10.791 -0.7691  0.0129 -0.5741
  943MOL0     H30067   1.486   8.808  10.707 -1.0139 -3.4637  1.6471
  943MOL0     H30068   1.596   8.823  10.845 -0.6226  0.2273  2.0719
  943MOL0     H30069   1.411   9.035  10.909 -0.9731  0.2872  0.3583
  943MOL0     H30070   1.572   9.056  10.843  0.1723  0.6709 -1.3369
  943MOL0     H30071   1.514   9.048  10.620 -1.4691 -3.0098 -2.1567
  943MOL0     H30072   1.347   9.002  10.652  1.9672 -0.9076 -1.7888
  943MOL0     H30073   1.275   9.212  10.742 -1.1065 -1.0000 -1.9446
  943MOL0     H30074   1.436   9.248  10.797  1.8040  1.7046 -1.6596
  943MOL0     H30075   1.516   9.281  10.564 -0.6762  0.1904  0.4496
  943MOL0     H30076   1.389   9.395  10.624 -0.5480 -0.5212  2.0440
  943MOL0     H30077   1.379   9.307  10.374  2.5233  0.2187  1.2303
  943MOL0     H30078   1.322   9.154  10.454 -5.5624  0.3364  1.5471
  943MOL0     H30079   1.193   9.420  10.467 -3.5657  0.4515  0.3374
  943MOL0     H30080   1.147   9.270  10.555  0.1508  0.2152 -0.1702
  943MOL0     H30081   1.032   9.341  10.323  1.4464  2.1233  0.7054
  943MOL0     H30082   1.178   9.271  10.260 -0.5057 -0.2191 -1.2744
  943MOL0     H30083   1.161   8.999  10.204  1.8246  1.0307  2.5326
  943MOL0     H30084   1.088   8.748  10.246  2.7981 -3.0102  4.8126
  943MOL0     H30085   0.917   8.734  10.245  0.3915 -1.6653 -0.1847
  943MOL0     H30086   1.013   8.756  10.510 -0.9634  0.1321 -1.2972
  943MOL0     H30087   0.928   8.615  10.434 -0.6820  1.3606  0.0956
  943MOL0     H30088   1.120   8.498  10.393 -2.6404  0.5506 -1.4961
  943MOL0     H30089   1.219   8.638  10.394 -2.4188  0.8063 -2.7567
  943MOL0     H30090   1.252   8.490  10.604 -3.1492 -4.2531 -1.5769
  943MOL0     H30091   1.200   8.664  10.644  1.2185 -0.1219 -0.6722
  943MOL0     H30092   1.208   8.295  10.585  4.5845  3.9097  3.3014
  943MOL0     H30093   1.364   8.050  10.765  2.0603  0.8592 -1.2619
  943MOL0     H30094   1.318   8.095  10.591  0.9998 -2.5280  0.2466
  943MOL0     H30095   1.228   7.969  10.683 -2.2473  1.0110 -1.0716
  943MOL0     H30096   1.103   7.714  10.754 -0.4129 -1.9009 -0.4080
  943MOL0     H30097   1.168   7.487  10.809 -1.1459 -1.8969  0.8542
  943MOL0     H30098   1.161   7.237  11.140  1.4812  0.1538 -2.3766
  943MOL0     H30099   1.161   7.393  11.233  0.9989  2.6737 -1.9749
  943MOL0     H30100   0.953   7.464  11.133  1.4498  1.3709 -2.7096
  943MOL0     H30101   0.966   7.363  10.997  1.2095 -0.0561 -0.2331
  943MOL0     H30102   0.951   7.150  11.115 -0.3023 -0.0785  1.5048
  943MOL0     H30103   0.803   7.238  11.112 -0.9984  1.1580  0.6026
  943MOL0     H30104   0.873   7.316  11.363  2.5414 -0.7981  2.5111
  943MOL0     H30105   1.011   7.210  11.334  0.4563 -0.7274  1.8107
  943MOL0     H30106   0.819   7.117  11.471 -0.2939  0.0393 -0.0341
  943MOL0     H30107   0.720   7.124  11.335  1.2319  1.5207  2.4365
  943MOL0     H30108   0.810   6.894  11.391  1.4740 -2.5018 -1.6150
  943MOL0     H30109   0.972   6.949  11.330 -0.2640 -0.8464 -0.1151
  943MOL0     H30110   0.872   6.960  11.100 -2.1850 -1.4592 -2.3316
  943MOL0     H30111   0.712   6.946  11.188 -0.6183 -0.3830  1.3813
  943MOL0     H30112   0.758   6.718  11.257  0.8490 -0.7483 -0.0026
  943MOL0     H30113   0.928   6.730  11.212  0.0913  0.4818  2.7259
  943MOL0     H30114   1.224   7.592  11.223  0.6198 -3.9944 -0.7319
  943MOL0     H30115   1.154   7.830  11.172 -2.8256 -0.9321  0.0209
  943MOL0     H30116   1.026   8.265  11.034 -1.6755  0.2775 -1.1576
  943MOL0     H30117   1.012   8.471  10.924  1.9824  0.9269 -0.2448
  943MOL0     H30118   1.250   8.636  11.038 -1.4453 -0.4559 -1.2011
  943MOL0     H30119   1.278   8.380  11.058  1.1551  0.3876  0.6087
  943MOL0     H30120   1.362   8.029  11.247 -0.2941  0.7986 -2.0556
  943MOL0     H30121   1.394   7.786  11.284 -1.8090  1.6864  0.8684
  943MOL0     H30122   1.523   7.619  11.323  2.5965 -3.1386  2.7557
  943MOL0     H30123   1.447   7.498  11.221  1.8463 -3.0486 -1.4933
  943MOL0     H30124   1.620   7.412  11.373 -4.7701  1.2806 -0.1334
  943MOL0     H30125   1.743   7.497  11.290  1.3630 -1.6947 -1.4289
  943MOL0     H30126   1.556   7.333  11.137 -0.3069  1.8113 -1.0908
  943MOL0     H30127   1.722   7.380  11.077  3.5038 -0.8590  1.9806
  943MOL0     H30128   1.730   7.224  11.325  0.5704  0.1383 -0.4539
  943MOL0     H30129   1.846   7.229  11.193  1.0031 -1.6159  0.6228
  943MOL0     H30130   1.594   6.909  11.105 -2.6453  1.3918  1.5938
  943MOL0     H30131   1.690   7.788  10.970  1.5837  1.6197  1.0236
  943MOL0     H30132   1.735   8.133  10.939  1.0039 -1.1977  2.2054
  943MOL0     H30133   1.751   7.979  10.858  2.1731  1.7274 -0.1531
  943MOL0     H30134   1.618   8.086  10.818  1.5939  2.5027  0.0230
  944MOL0     O30135  10.358   0.786  10.498 -0.3344 -0.0143  0.1318
  944MOL0     C30136  10.361   0.900  10.445  0.5905  0.9731  0.8434
  944MOL0     O30137  10.476   0.964  10.398  0.1762 -0.1551  0.1072
  944MOL0     C30138  10.594   0.926  10.443 -0.0856  1.0749  0.2640
  944MOL0     C30139  10.657   0.811  10.397  0.4111 -0.3902 -1.0162
  944MOL0     C30140  10.788   0.779  10.437 -0.4578  0.1453 -0.8362
  944MOL0     C30141  10.855   0.864  10.535 -0.0154  0.1581 -0.6566
  944MOL0     O30142  10.989   0.863  10.565  1.2038  0.2492 -0.2978
  944MOL0     C30143  11.058   0.747  10.536  0.3501  0.6223  0.1432
  944MOL0     C30144  11.202   0.771  10.583  0.3203 -0.4723 -0.3833
  944MOL0     C30145  11.206   0.777  10.739 -0.3681 -0.2232  0.2276
  944MOL0     C30146  11.347   0.806  10.788  0.2971 -0.6832  0.4906
  944MOL0     C30147  11.364   0.815  10.942  0.1403  0.9625  0.8737
  944MOL0     C30148  11.507   0.831  10.990  0.7155  0.1065  0.0989
  944MOL0     C30149  11.507   0.831  11.147  0.3321  0.2105  0.2528
  944MOL0     C30150  11.635   0.843  11.219 -0.1834 -1.1046  0.1966
  944MOL0     N30151  11.662   0.979  11.235  0.6839 -0.2645  0.1940
  944MOL0     C30152  11.682   1.078  11.140 -0.3582  0.2407 -1.1965
  944MOL0     C30153  11.715   1.191  11.212  0.9946  0.0702 -0.1583
  944MOL0     C30154  11.751   1.330  11.164  1.2484  0.6726  0.1446
  944MOL0     C30155  11.768   1.440  11.271 -0.0933 -0.4604 -0.1551
  944MOL0     C30156  11.793   1.585  11.214  0.5334 -0.0074  0.0793
  944MOL0     C30157  11.660   1.659  11.179 -0.0172  0.4594  0.1237
  944MOL0     O30158  11.574   1.593  11.073 -0.6766 -0.0094 -0.5386
  944MOL0     C30159  11.567   1.656  10.950 -0.8342  0.0400  0.5530
  944MOL0     C30160  11.516   1.786  10.942 -0.0610 -0.2591  0.3753
  944MOL0     C30161  11.470   1.846  10.815  0.7328  0.4280 -0.3219
  944MOL0     C30162  11.414   1.986  10.805 -0.4248 -0.2682  0.0155
  944MOL0     C30163  11.504   1.769  10.700 -0.3613 -0.1452  0.3365
  944MOL0     C30164  11.489   1.823  10.565  0.6701  0.0460  0.1956
  944MOL0     O30165  11.364   1.864  10.527  0.0083  0.2127 -0.3483
  944MOL0     C30166  11.352   1.926  10.403  0.5126  0.0839 -0.9999
  944MOL0     C30167  11.349   1.837  10.298  0.2019 -0.6137 -0.1427
  944MOL0     C30168  11.353   1.879  10.164 -0.2965 -0.3493  0.0582
  944MOL0     C30169  11.388   2.011  10.130  0.9161 -0.0327 -0.0051
  944MOL0     O30170  11.371   2.049   9.996 -0.8405  0.1651 -0.3330
  944MOL0     C30171  11.472   2.144   9.954 -0.0172 -0.4730 -0.0102
  944MOL0     C30172  11.460   2.163   9.797  0.4048 -0.1936  0.3253
  944MOL0     C30173  11.527   2.287   9.753 -0.5598 -0.5952  0.3583
  944MOL0     C30174  11.434   2.416   9.778 -0.6768 -0.6403  0.0502
  944MOL0     C30175  11.506   2.547   9.739 -0.0750  0.7355 -0.8862
  944MOL0     C30176  11.443   2.675   9.795 -0.0300 -0.7618  0.2433
  944MOL0     C30177  11.318   2.722   9.705 -0.4656  0.0581 -0.6653
  944MOL0     C30178  11.331   2.873   9.681 -0.2532  0.3133  0.3018
  944MOL0    Cl30179  11.486   2.925   9.593  0.3977 -0.2009  0.1192
  944MOL0     C30180  11.402   2.101  10.238  0.0558 -0.9745  0.6370
  944MOL0     C30181  11.378   2.063  10.376 -0.7559  0.8662  0.4767
  944MOL0     O30182  11.581   1.816  10.485  0.4410 -0.5346 -0.6309
  944MOL0     C30183  11.561   1.643  10.711  0.6379  1.2779  0.0281
  944MOL0     C30184  11.593   1.585  10.837 -1.2911  0.2790  0.5587
  944MOL0     N30185  11.720   1.156  11.348 -0.6904 -0.0468  0.9161
  944MOL0     N30186  11.682   1.032  11.359  0.1268  0.5199  0.7718
  944MOL0     C30187  10.791   0.975  10.585 -0.0295 -1.1456 -0.6752
  944MOL0     C30188  10.662   1.006  10.534  0.2048  0.3365  0.2344
  944MOL0     C30189  10.227   0.964  10.431 -0.2816 -0.4718 -1.1456
  944MOL0     C30190  10.117   0.884  10.383 -0.9089  0.0460  0.2258
  944MOL0     C30191   9.988   0.951  10.364 -0.8223  0.7934  0.0797
  944MOL0     C30192   9.980   1.084  10.370 -0.2680 -0.3696  0.4429
  944MOL0     O30193   9.877   1.159  10.325 -0.5031 -0.0558 -0.1128
  944MOL0     C30194   9.769   1.165  10.425  0.6508 -0.3632 -0.2728
  944MOL0     C30195   9.676   1.031  10.427  0.2747 -1.3013  0.3105
  944MOL0     C30196   9.620   1.019  10.290 -0.0667  0.4380  0.9404
  944MOL0     C30197   9.474   0.969  10.278 -0.4224  0.3866  0.5750
  944MOL0     C30198   9.383   1.074  10.331 -0.5015  0.2667 -1.0447
  944MOL0     C30199   9.316   1.163  10.374 -0.0811  0.2008  0.0011
  944MOL0     C30200  10.086   1.159  10.418  0.0301 -0.8344  0.0844
  944MOL0     C30201  10.211   1.094  10.451  0.5162  0.1056  0.2154
  944MOL0     C30202  10.319   1.190  10.482 -0.3524 -0.1751  0.2215
  944MOL0     H30203  10.602   0.740  10.336 -1.2650 -0.1585  0.1727
  944MOL0     H30204  10.832   0.688  10.397  0.9741 -0.1750  1.3205
  944MOL0     H30205  11.064   0.722  10.430  0.1616 -4.2128  1.0209
  944MOL0     H30206  11.024   0.658  10.590 -0.6396 -0.0171 -1.4433
  944MOL0     H30207  11.263   0.691  10.542  1.7613  0.3375  0.0956
  944MOL0     H30208  11.243   0.863  10.540  1.6718  0.1483  2.0638
  944MOL0     H30209  11.150   0.865  10.771 -1.9833  0.1548 -3.2369
  944MOL0     H30210  11.167   0.682  10.779  0.1013  0.0570  1.3797
  944MOL0     H30211  11.402   0.720  10.748  1.2206  0.6279 -1.2478
  944MOL0     H30212  11.384   0.901  10.748 -2.0578  0.0615 -0.0930
  944MOL0     H30213  11.314   0.724  10.977 -1.2441  1.8951  1.4402
  944MOL0     H30214  11.303   0.899  10.976 -0.2098  0.5548  1.2631
  944MOL0     H30215  11.568   0.745  10.961 -0.6116 -1.0471  0.6405
  944MOL0     H30216  11.558   0.919  10.948  0.1989  0.4089  0.1008
  944MOL0     H30217  11.482   0.724  11.147  2.2915 -0.3513 -2.2128
  944MOL0     H30218  11.433   0.905  11.177 -0.1798 -1.8239  4.8644
  944MOL0     H30219  11.638   0.797  11.318 -1.7511 -0.0841  0.7658
  944MOL0     H30220  11.707   0.793  11.155  1.0738 -0.4963  1.0826
  944MOL0     H30221  11.703   1.075  11.034 -0.4696  0.3543 -1.2228
  944MOL0     H30222  11.670   1.357  11.096 -0.1288 -0.5681  1.2269
  944MOL0     H30223  11.845   1.318  11.108 -0.0610 -1.9769 -1.7253
  944MOL0     H30224  11.668   1.444  11.315 -1.5360  2.1777 -3.2263
  944MOL0     H30225  11.840   1.404  11.345  0.7817  1.4455 -0.0165
  944MOL0     H30226  11.858   1.641  11.281  4.3102 -4.5965  0.7811
  944MOL0     H30227  11.850   1.569  11.122 -1.7308 -1.3586 -1.1986
  944MOL0     H30228  11.593   1.665  11.265  0.5334  1.7996  0.4869
  944MOL0     H30229  11.674   1.765  11.154 -1.8242  0.3406 -1.6343
  944MOL0     H30230  11.488   1.852  11.024 -1.2806 -1.8039  1.2582
  944MOL0     H30231  11.478   2.058  10.753  0.8859 -1.4895 -0.1110
  944MOL0     H30232  11.373   2.034  10.895 -0.3524  1.2370 -0.7132
  944MOL0     H30233  11.327   1.966  10.743  0.2525 -1.0513 -0.7099
  944MOL0     H30234  11.325   1.732  10.311 -2.9248  0.0237 -0.0127
  944MOL0     H30235  11.336   1.801  10.090 -0.2784 -0.0707 -0.2395
  944MOL0     H30236  11.446   2.239  10.000 -1.3376 -0.0980 -1.4158
  944MOL0     H30237  11.576   2.118   9.976  0.4914  0.8291 -0.7704
  944MOL0     H30238  11.486   2.067   9.750 -3.1208 -1.1322 -0.0195
  944MOL0     H30239  11.355   2.176   9.771  0.1994  0.5829  1.4558
  944MOL0     H30240  11.546   2.276   9.645 -2.2356 -0.7149  0.0382
  944MOL0     H30241  11.624   2.302   9.801 -0.1739 -1.0155 -0.2657
  944MOL0     H30242  11.412   2.412   9.885  1.4442 -4.1079  0.5395
  944MOL0     H30243  11.348   2.409   9.710  0.0435  1.1806 -1.1226
  944MOL0     H30244  11.603   2.544   9.790  0.2310 -2.1418 -1.4602
  944MOL0     H30245  11.514   2.546   9.630  0.4852  0.4573 -0.8484
  944MOL0     H30246  11.518   2.754   9.802 -2.0701  1.5691 -2.3586
  944MOL0     H30247  11.422   2.661   9.902  0.0782 -0.6565  0.2792
  944MOL0     H30248  11.235   2.694   9.770  1.2439  0.3408  1.7680
  944MOL0     H30249  11.320   2.675   9.606  4.4975 -2.1287  0.2040
  944MOL0     H30250  11.327   2.933   9.772  0.4284  0.7361  0.0615
  944MOL0     H30251  11.238   2.892   9.626  0.2322  1.0042 -0.2900
  944MOL0     H30252  11.418   2.203  10.207  0.0625 -1.1120  0.1934
  944MOL0     H30253  11.373   2.137  10.456  0.1944 -1.3461  2.7154
  944MOL0     H30254  11.583   1.591  10.618 -1.4306 -0.2363  0.2962
  944MOL0     H30255  11.657   1.497  10.842  0.3849  1.1108 -2.9782
  944MOL0     H30256  10.839   1.042  10.656 -1.7122  1.4148 -1.7872
  944MOL0     H30257  10.615   1.098  10.568 -3.4330 -1.1995 -0.1802
  944MOL0     H30258  10.129   0.776  10.387  2.3137  0.3056  0.2018
  944MOL0     H30259   9.915   0.888  10.314 -0.4504  1.0445 -0.7942
  944MOL0     H30260   9.802   1.175  10.529 -1.4270  0.3425  0.3731
  944MOL0     H30261   9.702   1.248  10.403 -0.5584 -0.9129  1.1480
  944MOL0     H30262   9.591   1.045  10.494 -0.9132 -1.5973 -1.0775
  944MOL0     H30263   9.721   0.937  10.461  0.3963 -0.6390  2.1126
  944MOL0     H30264   9.627   1.110  10.228  0.4146 -1.1561 -1.4859
  944MOL0     H30265   9.681   0.946  10.236 -2.2575 -0.1859 -0.8527
  944MOL0     H30266   9.468   0.869  10.323  2.7037  0.7982  2.1436
  944MOL0     H30267   9.458   0.952  10.171 -1.7832 -1.1827  0.9863
  944MOL0     H30268   9.253   1.238  10.419 -1.2690 -0.7966  0.0384
  944MOL0     H30269  10.069   1.266  10.425 -1.6248 -1.1767  3.2333
  944MOL0     H30270  10.278   1.289  10.506  1.6448  0.8993 -0.6220
  944MOL0     H30271  10.381   1.152  10.564  1.8877  3.3361  0.3969
  944MOL0     H30272  10.391   1.203  10.402  0.9055  2.5230  1.6572
  945MOL0     O30273   7.123   7.956   8.009 -0.0703 -0.1052 -0.0841
  945MOL0     C30274   7.244   7.978   8.017  0.0244 -0.1936  0.2104
  945MOL0     O30275   7.305   8.095   7.976 -0.1067 -0.0070 -0.3584
  945MOL0     C30276   7.229   8.197   7.919  0.5048 -0.0668  0.0854
  945MOL0     C30277   7.123   8.254   7.978 -1.2827 -0.8429 -0.1476
  945MOL0     C30278   7.065   8.372   7.928  1.0833 -0.0696  0.3467
  945MOL0     C30279   7.108   8.428   7.809  0.8521 -0.4203  0.2605
  945MOL0     O30280   7.047   8.537   7.743 -0.1364 -0.1625 -0.1917
  945MOL0     C30281   6.908   8.555   7.748 -0.3250 -0.4860 -0.3552
  945MOL0     C30282   6.855   8.629   7.625 -0.4682  0.3380  0.1135
  945MOL0     C30283   6.873   8.531   7.507 -0.0804 -0.4920  0.0820
  945MOL0     C30284   6.807   8.591   7.390 -0.6460  0.1187  0.4837
  945MOL0     C30285   6.824   8.500   7.266  0.5545 -0.3104 -0.8163
  945MOL0     C30286   6.769   8.561   7.141 -0.5772  0.1700  1.4449
  945MOL0     C30287   6.612   8.564   7.132  1.0462 -0.4862  0.1416
  945MOL0     C30288   6.556   8.611   7.000  0.4769 -0.2617  0.7531
  945MOL0     N30289   6.597   8.537   6.879  0.5228  0.1321 -0.0765
  945MOL0     C30290   6.607   8.583   6.753 -0.9587 -0.2075 -0.2038
  945MOL0     C30291   6.593   8.478   6.675  0.2034 -0.3764 -0.3533
  945MOL0     C30292   6.570   8.489   6.528 -0.4774 -0.2097  0.0362
  945MOL0     C30293   6.681   8.564   6.455 -0.7883 -0.4798 -0.9337
  945MOL0     C30294   6.823   8.516   6.484 -0.5196  0.1712  0.2355
  945MOL0     C30295   6.914   8.639   6.494 -0.1831  0.2093  0.2446
  945MOL0     O30296   7.050   8.606   6.482 -0.2826 -0.2603 -0.6057
  945MOL0     C30297   7.141   8.706   6.461  0.3931 -0.4458 -0.0582
  945MOL0     C30298   7.111   8.847   6.479 -0.5289 -0.0098  0.1447
  945MOL0     C30299   7.216   8.942   6.451 -0.1792 -0.5773  0.6635
  945MOL0     C30300   7.195   9.092   6.484 -0.5489  0.2459  0.7948
  945MOL0     C30301   7.344   8.898   6.401  0.3811  0.1862  0.3025
  945MOL0     C30302   7.445   8.985   6.338 -0.7762  0.3962  0.4012
  945MOL0     O30303   7.533   8.919   6.250 -1.1962  0.5160 -0.6570
  945MOL0     C30304   7.618   9.007   6.197 -1.0706 -0.6069 -0.5091
  945MOL0     C30305   7.596   9.067   6.073 -0.0086  0.7229  0.0058
  945MOL0     C30306   7.683   9.155   6.022  0.1711 -0.0281  0.8490
  945MOL0     C30307   7.792   9.188   6.091  1.1768 -0.8121  0.3995
  945MOL0     O30308   7.883   9.274   6.036  0.1071  0.6244 -0.7551
  945MOL0     C30309   7.829   9.407   6.030  0.7101  0.3071 -0.0628
  945MOL0     C30310   7.822   9.469   6.170  0.0020 -0.4766  0.7323
  945MOL0     C30311   7.732   9.593   6.170 -0.1278  0.0634 -0.2945
  945MOL0     C30312   7.712   9.675   6.306 -0.2198  0.1248  0.4274
  945MOL0     C30313   7.671   9.591   6.429  0.2744  0.1913 -0.8335
  945MOL0     C30314   7.542   9.515   6.398 -0.5251  0.1859  0.4116
  945MOL0     C30315   7.437   9.516   6.512 -0.2486  0.4723  1.4517
  945MOL0     C30316   7.325   9.418   6.466 -0.1602 -0.1828 -0.4953
  945MOL0    Cl30317   7.185   9.498   6.390  0.0490 -0.5192 -0.1271
  945MOL0     C30318   7.824   9.128   6.214  0.4788 -0.2958  0.4247
  945MOL0     C30319   7.736   9.039   6.267  0.5314  0.8041 -0.3769
  945MOL0     O30320   7.443   9.105   6.347  0.3260 -0.0294  0.2640
  945MOL0     C30321   7.365   8.759   6.400 -0.1793 -0.3691  0.1079
  945MOL0     C30322   7.263   8.668   6.428 -0.3717  0.6265 -0.5248
  945MOL0     N30323   6.601   8.368   6.754 -0.2914  0.7125  0.3875
  945MOL0     N30324   6.602   8.400   6.879  0.5357  0.0895 -0.3554
  945MOL0     C30325   7.218   8.374   7.752 -0.1796 -0.3329  0.2673
  945MOL0     C30326   7.278   8.260   7.806 -0.2174 -0.6564 -0.5675
  945MOL0     C30327   7.330   7.886   8.094 -0.0933 -0.0182 -1.0022
  945MOL0     C30328   7.470   7.885   8.060 -0.5760 -0.2353 -0.1707
  945MOL0     C30329   7.562   7.813   8.123  0.6619  0.2727  0.3182
  945MOL0     C30330   7.515   7.715   8.214  0.6427 -0.2287  0.4349
  945MOL0     O30331   7.607   7.629   8.273 -0.2561  0.0922 -0.5192
  945MOL0     C30332   7.674   7.553   8.172  0.5243 -0.3443  0.6756
  945MOL0     C30333   7.707   7.415   8.215 -0.0079  0.2193  0.3795
  945MOL0     C30334   7.769   7.333   8.108  0.0843  0.4345  0.4954
  945MOL0     C30335   7.775   7.189   8.147  0.8894  0.7376  0.7925
  945MOL0     C30336   7.812   7.107   8.026  0.0554 -0.3380  0.2564
  945MOL0     C30337   7.849   7.053   7.923 -0.2860 -0.1896  0.0170
  945MOL0     C30338   7.379   7.701   8.253  0.6837 -0.5089  0.2091
  945MOL0     C30339   7.284   7.788   8.192 -0.4536 -0.1333  0.7468
  945MOL0     C30340   7.140   7.759   8.223  0.2563 -0.1031 -0.5729
  945MOL0     H30341   7.076   8.213   8.068 -1.5694 -1.8195 -0.7293
  945MOL0     H30342   6.988   8.416   7.991 -1.1958 -1.4565 -1.3090
  945MOL0     H30343   6.889   8.618   7.836  1.2624  0.0569 -0.3802
  945MOL0     H30344   6.846   8.466   7.741 -1.7713  0.6011 -2.3357
  945MOL0     H30345   6.753   8.664   7.641 -0.7326  0.6328 -1.9059
  945MOL0     H30346   6.905   8.725   7.613 -1.9123  1.0042 -0.7257
  945MOL0     H30347   6.979   8.520   7.484 -0.5127  1.4146 -3.4337
  945MOL0     H30348   6.828   8.433   7.529 -0.6529 -0.6248 -1.5474
  945MOL0     H30349   6.701   8.610   7.404 -0.5382  0.0502  1.4280
  945MOL0     H30350   6.856   8.688   7.373  1.3372 -0.9897 -0.4810
  945MOL0     H30351   6.774   8.405   7.288 -0.7751  0.0545 -2.1157
  945MOL0     H30352   6.932   8.481   7.256  0.7620  1.2086 -1.7449
  945MOL0     H30353   6.802   8.665   7.133  0.4590 -0.2653 -0.9304
  945MOL0     H30354   6.816   8.502   7.062 -0.3759  1.6385  0.4127
  945MOL0     H30355   6.571   8.630   7.209  0.1266 -0.8593 -0.0114
  945MOL0     H30356   6.578   8.462   7.153  1.5995 -0.8061 -0.4959
  945MOL0     H30357   6.447   8.620   7.008  0.2457 -1.5963 -0.5426
  945MOL0     H30358   6.587   8.715   6.985 -0.2093 -0.4281 -2.5389
  945MOL0     H30359   6.608   8.689   6.727 -2.8562 -0.1857 -0.3487
  945MOL0     H30360   6.475   8.535   6.499  0.9281  1.1694 -2.7457
  945MOL0     H30361   6.570   8.388   6.486  2.0937 -0.0293 -0.5747
  945MOL0     H30362   6.673   8.561   6.346 -0.3427  0.2634 -0.9909
  945MOL0     H30363   6.674   8.667   6.492 -0.4988 -0.7906  0.0408
  945MOL0     H30364   6.840   8.450   6.570  3.0008  2.0350  1.1651
  945MOL0     H30365   6.855   8.456   6.399 -2.5266  0.2742 -0.6420
  945MOL0     H30366   6.885   8.705   6.413 -0.5668  1.7100  1.5643
  945MOL0     H30367   6.892   8.702   6.580  0.0686 -0.2538  0.6546
  945MOL0     H30368   7.015   8.883   6.514  0.6356  0.2491  3.3948
  945MOL0     H30369   7.268   9.126   6.557  1.4500  1.9258 -1.8073
  945MOL0     H30370   7.096   9.098   6.532 -2.0375 -1.5932 -1.7497
  945MOL0     H30371   7.213   9.155   6.396  2.5458 -0.6461  0.6842
  945MOL0     H30372   7.500   9.054   6.023  0.4728  0.2282 -0.8033
  945MOL0     H30373   7.669   9.191   5.921  2.2872  1.7651  1.1124
  945MOL0     H30374   7.902   9.471   5.978  0.6865  2.8730  2.7490
  945MOL0     H30375   7.736   9.405   5.974  0.6937  0.7307 -0.0554
  945MOL0     H30376   7.789   9.398   6.246  0.4237 -1.4562  0.0125
  945MOL0     H30377   7.928   9.490   6.185  0.4585 -2.1912  0.0981
  945MOL0     H30378   7.630   9.579   6.131  0.2016  0.2949 -1.2790
  945MOL0     H30379   7.777   9.664   6.100  0.5188 -0.9182 -0.9080
  945MOL0     H30380   7.635   9.748   6.282 -4.0814 -3.4139  0.8506
  945MOL0     H30381   7.808   9.720   6.333 -0.2165  0.0138  0.6048
  945MOL0     H30382   7.749   9.525   6.468  0.2082  0.7146  0.2389
  945MOL0     H30383   7.647   9.655   6.515  1.1727 -1.0120  0.3584
  945MOL0     H30384   7.571   9.414   6.367 -2.0465 -0.0826 -0.1836
  945MOL0     H30385   7.489   9.565   6.316  1.5180 -0.4013 -1.3954
  945MOL0     H30386   7.398   9.616   6.533 -0.9258  0.2574  1.2495
  945MOL0     H30387   7.477   9.479   6.607  2.9298 -0.5908 -0.1313
  945MOL0     H30388   7.287   9.366   6.555  0.1571  1.2896  0.5540
  945MOL0     H30389   7.364   9.348   6.392 -1.2192 -0.7728 -0.5188
  945MOL0     H30390   7.907   9.176   6.264 -1.4683  2.7669  0.9523
  945MOL0     H30391   7.761   8.990   6.360  0.0807  1.7868  0.2818
  945MOL0     H30392   7.463   8.715   6.388 -0.3043 -0.2464 -1.7483
  945MOL0     H30393   7.292   8.564   6.433 -0.5246  0.6249  1.3444
  945MOL0     H30394   7.238   8.412   7.652 -1.8423  0.3059  0.1416
  945MOL0     H30395   7.363   8.221   7.752  0.2066 -0.1965 -0.2366
  945MOL0     H30396   7.512   7.955   7.989  1.7651 -0.6779  0.6834
  945MOL0     H30397   7.662   7.815   8.082  0.4469 -3.9527 -0.9008
  945MOL0     H30398   7.614   7.536   8.082  1.4791 -3.4349  0.5126
  945MOL0     H30399   7.771   7.598   8.148 -0.1908  0.7697 -0.2579
  945MOL0     H30400   7.612   7.366   8.239 -0.5541  0.5997 -0.8695
  945MOL0     H30401   7.771   7.413   8.303  3.1858  0.6105 -1.7474
  945MOL0     H30402   7.717   7.339   8.012  0.5852 -5.3006 -0.4830
  945MOL0     H30403   7.871   7.369   8.090 -0.2693  0.0977 -2.8868
  945MOL0     H30404   7.680   7.150   8.185  0.7417 -0.7010 -0.8977
  945MOL0     H30405   7.838   7.163   8.233  1.7774 -0.6642 -0.2425
  945MOL0     H30406   7.875   7.013   7.827  0.6408 -2.5908  1.2007
  945MOL0     H30407   7.346   7.628   8.326  0.7014 -1.3432 -0.6008
  945MOL0     H30408   7.134   7.684   8.301  0.0968 -1.8712 -2.2163
  945MOL0     H30409   7.084   7.846   8.259  1.4117 -0.6718  3.0196
  945MOL0     H30410   7.105   7.725   8.125 -1.9086  1.0856 -0.2753
  946MOL0     O30411   0.913   3.438   1.502 -0.3155  0.0487  0.0270
  946MOL0     C30412   0.894   3.418   1.622  0.3727 -0.1867 -1.4213
  946MOL0     O30413   0.857   3.512   1.717  0.0873 -0.6361  0.3196
  946MOL0     C30414   0.839   3.640   1.673  0.7317 -0.6227 -0.1863
  946MOL0     C30415   0.943   3.713   1.624 -0.3400 -0.6860 -0.6229
  946MOL0     C30416   0.920   3.843   1.583  0.1854  0.0342 -0.4638
  946MOL0     C30417   0.794   3.901   1.587 -0.2286  0.5093 -0.0800
  946MOL0     O30418   0.765   4.024   1.540 -0.2757  0.3432  0.0971
  946MOL0     C30419   0.880   4.122   1.520  0.3838 -0.2921  0.2321
  946MOL0     C30420   0.936   4.113   1.377  0.4047 -0.3209  0.3902
  946MOL0     C30421   0.823   4.151   1.275 -1.0702  0.4601 -0.8450
  946MOL0     C30422   0.801   4.302   1.235 -0.2042 -0.1002  0.0925
  946MOL0     C30423   0.696   4.318   1.132  0.0822 -0.0232  0.0401
  946MOL0     C30424   0.551   4.333   1.193 -0.5065  0.0014 -0.6267
  946MOL0     C30425   0.459   4.396   1.094  0.9992  0.9754  0.1599
  946MOL0     C30426   0.466   4.351   0.952 -0.7130 -0.4552  1.3920
  946MOL0     N30427   0.334   4.398   0.891  0.1642 -0.7790 -0.0709
  946MOL0     C30428   0.308   4.516   0.833  0.1015  0.3640 -0.0428
  946MOL0     C30429   0.179   4.507   0.796  0.2150  0.1549  0.2931
  946MOL0     C30430   0.118   4.627   0.711 -0.2777 -0.9211 -0.3376
  946MOL0     C30431   0.025   4.579   0.606 -0.6409 -0.0367 -0.2412
  946MOL0     C30432  -0.025   4.701   0.518  0.8178  0.6513  0.3366
  946MOL0     C30433  -0.148   4.780   0.562 -0.3022 -0.2357 -0.3479
  946MOL0     O30434  -0.228   4.716   0.659 -0.0929  0.3702  0.6280
  946MOL0     C30435  -0.314   4.617   0.619  0.1967  0.0179 -0.7927
  946MOL0     C30436  -0.354   4.539   0.727  0.0293 -0.0396  0.2818
  946MOL0     C30437  -0.430   4.419   0.711  0.3843  0.5957 -0.4266
  946MOL0     C30438  -0.482   4.357   0.843  0.3183 -0.2369 -0.1077
  946MOL0     C30439  -0.456   4.377   0.574 -1.1863  0.6412 -0.6833
  946MOL0     C30440  -0.531   4.253   0.545  0.5765  0.2785  1.4578
  946MOL0     O30441  -0.580   4.172   0.640  0.1665 -0.1579 -0.2021
  946MOL0     C30442  -0.677   4.083   0.597  0.7374 -0.4704 -0.4506
  946MOL0     C30443  -0.813   4.118   0.620 -0.8401  0.2108  0.6465
  946MOL0     C30444  -0.922   4.029   0.585  0.3122 -0.1525 -0.2476
  946MOL0     C30445  -0.893   3.913   0.520  0.7561 -0.1425 -0.3036
  946MOL0     O30446  -0.999   3.827   0.505  0.0265 -0.3015  0.9875
  946MOL0     C30447  -0.971   3.685   0.503 -0.3560 -0.2530 -0.4044
  946MOL0     C30448  -1.092   3.613   0.554 -0.2792 -0.1425 -0.2199
  946MOL0     C30449  -1.058   3.471   0.587  0.6320 -0.0575 -0.2642
  946MOL0     C30450  -1.144   3.417   0.699  0.7386 -0.3841 -0.3920
  946MOL0     C30451  -1.093   3.288   0.767 -0.3610  0.3051  0.4983
  946MOL0     C30452  -1.210   3.221   0.832 -0.2934 -0.5031  0.0863
  946MOL0     C30453  -1.164   3.097   0.896  0.1346  0.4422  0.3206
  946MOL0     C30454  -1.086   2.998   0.801  0.2212  0.1993  0.7687
  946MOL0    Cl30455  -1.187   2.971   0.644  0.0817  0.6953  0.0010
  946MOL0     C30456  -0.760   3.882   0.489  0.2164 -0.4563  0.1394
  946MOL0     C30457  -0.657   3.973   0.532  0.0734  0.2315 -0.6276
  946MOL0     O30458  -0.570   4.249   0.428 -0.1830 -0.4910 -0.3295
  946MOL0     C30459  -0.424   4.471   0.473  0.4563 -0.0531  0.4554
  946MOL0     C30460  -0.350   4.586   0.494 -0.5592 -0.6147 -0.0912
  946MOL0     N30461   0.128   4.380   0.822  0.1277 -0.2670 -1.2567
  946MOL0     N30462   0.223   4.318   0.882 -0.8595  0.1202  0.3452
  946MOL0     C30463   0.683   3.835   1.651  0.4660 -0.1709 -0.0822
  946MOL0     C30464   0.706   3.699   1.693  0.3517  0.0781 -0.7979
  946MOL0     C30465   0.928   3.282   1.681 -1.3416  0.0307 -0.0541
  946MOL0     C30466   0.966   3.272   1.815 -0.2018  1.0502 -0.3997
  946MOL0     C30467   1.010   3.151   1.873  0.1200  0.0221  0.3389
  946MOL0     C30468   1.025   3.037   1.790  1.1948 -0.4573  0.4182
  946MOL0     O30469   1.083   2.925   1.831 -0.2405  0.2997  0.2731
  946MOL0     C30470   1.108   2.902   1.974  0.1689 -0.3263  0.0734
  946MOL0     C30471   1.253   2.950   2.017  0.9135  0.1442  0.2134
  946MOL0     C30472   1.360   2.939   1.902 -0.4305 -0.4584 -0.2531
  946MOL0     C30473   1.500   2.944   1.954 -0.4357  0.2835  0.5861
  946MOL0     C30474   1.522   3.057   2.037 -0.0350  0.2048  0.4162
  946MOL0     C30475   1.562   3.145   2.114 -0.1631  0.7284 -0.6074
  946MOL0     C30476   0.972   3.042   1.659  0.0855 -0.0537 -0.1160
  946MOL0     C30477   0.923   3.157   1.602  0.2164 -1.4670 -1.1214
  946MOL0     C30478   0.859   3.149   1.461 -0.3486  0.6492  0.0036
  946MOL0     H30479   1.041   3.666   1.624 -0.3259 -0.6696 -1.6844
  946MOL0     H30480   1.006   3.907   1.565 -0.2048  0.2239 -1.7441
  946MOL0     H30481   0.959   4.101   1.593 -0.2867  0.8167  1.3260
  946MOL0     H30482   0.841   4.224   1.531 -0.7457 -0.8551  1.7121
  946MOL0     H30483   1.022   4.175   1.348  0.7847 -1.8049 -1.8777
  946MOL0     H30484   0.956   4.007   1.360 -3.7878 -1.0291 -1.3227
  946MOL0     H30485   0.832   4.091   1.184 -0.2913  2.0316 -1.8477
  946MOL0     H30486   0.729   4.113   1.316 -1.5539  0.9104 -1.5115
  946MOL0     H30487   0.788   4.359   1.327  0.8412 -3.3897  2.4396
  946MOL0     H30488   0.897   4.334   1.193 -0.7715  0.5644 -0.7254
  946MOL0     H30489   0.695   4.244   1.051  1.0615 -2.2169  1.9416
  946MOL0     H30490   0.720   4.416   1.091 -4.1771  1.5654  0.8395
  946MOL0     H30491   0.516   4.234   1.226  0.0433 -0.1286 -0.4144
  946MOL0     H30492   0.560   4.392   1.285  0.4502 -0.6812 -0.2646
  946MOL0     H30493   0.464   4.506   1.090  1.1869  0.9326 -1.2389
  946MOL0     H30494   0.363   4.368   1.140  2.2303 -1.4037  1.4644
  946MOL0     H30495   0.560   4.391   0.913  0.6608 -2.8093  2.0656
  946MOL0     H30496   0.463   4.242   0.959  2.4755 -0.5122  4.4811
  946MOL0     H30497   0.381   4.595   0.820  0.4189  0.8240  3.4273
  946MOL0     H30498   0.200   4.679   0.661  1.3988 -3.5848 -0.5987
  946MOL0     H30499   0.062   4.700   0.769  2.8897  1.5125 -0.1171
  946MOL0     H30500   0.088   4.509   0.550  0.0070 -0.3689  0.8785
  946MOL0     H30501  -0.062   4.524   0.642 -0.7307  0.7558  0.8137
  946MOL0     H30502   0.065   4.761   0.502  1.4054  0.1533  1.6239
  946MOL0     H30503  -0.055   4.666   0.419 -0.4112 -0.5553  1.0970
  946MOL0     H30504  -0.099   4.861   0.618  2.8376 -0.6215 -2.2884
  946MOL0     H30505  -0.185   4.821   0.467  2.3069 -0.2608 -1.4788
  946MOL0     H30506  -0.329   4.591   0.819  1.3577  0.0790 -0.1274
  946MOL0     H30507  -0.470   4.250   0.865  0.4104  0.4257  3.7415
  946MOL0     H30508  -0.585   4.388   0.861  0.2492 -0.3019 -0.3912
  946MOL0     H30509  -0.430   4.409   0.924  0.5420  1.5059 -1.3248
  946MOL0     H30510  -0.825   4.211   0.676  0.8565 -0.6516  2.5839
  946MOL0     H30511  -1.019   4.061   0.624  1.5515  0.9797  2.1495
  946MOL0     H30512  -0.935   3.649   0.406  1.4700 -0.9791  0.4935
  946MOL0     H30513  -0.901   3.670   0.586  0.1152 -0.7591 -0.8831
  946MOL0     H30514  -1.125   3.660   0.647  0.7133  2.0904 -0.9221
  946MOL0     H30515  -1.163   3.608   0.472  0.0977 -5.1328 -0.5717
  946MOL0     H30516  -0.953   3.455   0.614  0.7248  0.5308 -0.2618
  946MOL0     H30517  -1.078   3.407   0.500 -1.5918  0.5997 -0.2902
  946MOL0     H30518  -1.243   3.393   0.658  1.3039 -0.4072 -1.7866
  946MOL0     H30519  -1.147   3.487   0.783  1.9041  0.1909 -0.8106
  946MOL0     H30520  -1.053   3.229   0.684  2.2320  2.7684 -0.1980
  946MOL0     H30521  -1.014   3.307   0.840  2.0907 -3.3564 -0.8948
  946MOL0     H30522  -1.296   3.201   0.768 -1.7215  3.5318  0.4412
  946MOL0     H30523  -1.247   3.277   0.918 -3.3056 -3.2606  0.7983
  946MOL0     H30524  -1.244   3.050   0.955  0.7015 -1.0915 -0.0636
  946MOL0     H30525  -1.084   3.126   0.963  1.6637 -4.5888  1.1414
  946MOL0     H30526  -1.075   2.903   0.853  0.3494  0.3220  0.9682
  946MOL0     H30527  -0.983   3.031   0.786  0.9203 -1.4374  1.6876
  946MOL0     H30528  -0.734   3.792   0.433 -3.8732  0.7471 -4.4028
  946MOL0     H30529  -0.550   3.956   0.519 -0.0283 -1.1592  0.1552
  946MOL0     H30530  -0.457   4.462   0.370 -2.1434  2.2341  0.9608
  946MOL0     H30531  -0.329   4.646   0.406 -0.4293 -0.2483  0.1858
  946MOL0     H30532   0.582   3.873   1.664 -0.2473 -2.8770  5.8254
  946MOL0     H30533   0.625   3.639   1.733  0.8271  1.1322  1.9648
  946MOL0     H30534   0.970   3.362   1.875  0.1734  0.9039 -0.1982
  946MOL0     H30535   1.048   3.156   1.975  0.9700  1.2920 -0.0121
  946MOL0     H30536   1.027   2.937   2.039 -1.4256  0.1159 -2.0591
  946MOL0     H30537   1.114   2.794   1.993  0.3760 -0.9284 -2.9999
  946MOL0     H30538   1.284   2.893   2.105 -0.3823  1.7802  1.8067
  946MOL0     H30539   1.248   3.054   2.050  0.0918  0.7016 -1.5451
  946MOL0     H30540   1.343   2.846   1.846 -0.5447 -4.3794  5.4112
  946MOL0     H30541   1.347   3.019   1.829  2.2686 -0.1222 -0.4522
  946MOL0     H30542   1.569   2.946   1.868  0.3254 -2.7258  1.0227
  946MOL0     H30543   1.530   2.856   2.011 -0.7279 -1.5805 -1.9537
  946MOL0     H30544   1.597   3.213   2.190 -1.3711  1.2318 -0.4638
  946MOL0     H30545   0.981   2.947   1.608 -0.5622 -0.0586 -0.2230
  946MOL0     H30546   0.838   3.046   1.433  0.7985  1.1433 -3.1222
  946MOL0     H30547   0.785   3.229   1.450  1.0392  1.7627 -2.1486
  946MOL0     H30548   0.936   3.165   1.385 -1.4131  0.1164 -1.2246
  947MOL0     O30549   9.499   6.722   1.844 -0.3581  0.3066 -0.7509
  947MOL0     C30550   9.536   6.784   1.743 -0.0680 -0.0886  1.0310
  947MOL0     O30551   9.621   6.741   1.648 -0.5213 -0.4396 -0.5461
  947MOL0     C30552   9.662   6.612   1.632 -0.5373  0.2417 -0.6224
  947MOL0     C30553   9.718   6.522   1.731  0.6771  0.0757  0.1139
  947MOL0     C30554   9.747   6.395   1.704  0.1712  0.2273  0.2848
  947MOL0     C30555   9.703   6.324   1.590 -1.1940  0.1486 -0.5607
  947MOL0     O30556   9.712   6.187   1.560  0.3332 -0.9989 -0.3619
  947MOL0     C30557   9.813   6.117   1.629 -0.8416 -0.1244 -0.6814
  947MOL0     C30558   9.834   5.967   1.584 -0.0317 -0.5841 -0.7051
  947MOL0     C30559   9.832   5.942   1.432 -0.9322  0.0536  0.3666
  947MOL0     C30560   9.850   5.795   1.403 -0.0700  1.0303 -0.4656
  947MOL0     C30561   9.795   5.750   1.273 -0.6556 -0.6883  1.0855
  947MOL0     C30562   9.907   5.778   1.164 -0.0754  0.3824 -0.1538
  947MOL0     C30563   9.875   5.709   1.035 -0.4394  0.6211 -0.6159
  947MOL0     C30564   9.975   5.749   0.920 -0.1818  0.3260 -0.2996
  947MOL0     N30565   9.982   5.636   0.827 -0.0205 -0.6104  0.0112
  947MOL0     C30566  10.062   5.530   0.852  1.0451  0.4951 -0.7333
  947MOL0     C30567  10.039   5.437   0.753  0.7378  0.2261  0.1096
  947MOL0     C30568  10.108   5.304   0.728  0.0248  0.2503 -0.2702
  947MOL0     C30569  10.249   5.290   0.783 -0.0130  0.1643  0.6298
  947MOL0     C30570  10.336   5.390   0.718 -0.6699 -0.2496  1.0908
  947MOL0     C30571  10.488   5.375   0.762 -0.5983  0.6413  0.2810
  947MOL0     O30572  10.548   5.253   0.727 -0.0734 -0.5502 -0.1461
  947MOL0     C30573  10.589   5.232   0.599 -0.2020 -0.5894 -0.6169
  947MOL0     C30574  10.499   5.167   0.518 -1.1223 -0.2344 -0.4608
  947MOL0     C30575  10.525   5.137   0.388  0.2883 -0.0503  0.3472
  947MOL0     C30576  10.413   5.080   0.295 -0.7443 -0.7687  0.1003
  947MOL0     C30577  10.652   5.173   0.334  0.3253 -0.1304 -0.3622
  947MOL0     C30578  10.689   5.155   0.203  0.1927  0.0274  0.4962
  947MOL0     O30579  10.715   5.035   0.151 -0.0590  0.5170  0.1813
  947MOL0     C30580  10.752   5.012   0.026 -0.4282 -0.0149 -0.5027
  947MOL0     C30581  10.877   4.952  -0.001 -0.5160  0.0955  0.2787
  947MOL0     C30582  10.924   4.916  -0.126  0.2142  0.8560 -0.6145
  947MOL0     C30583  10.844   4.963  -0.234 -0.0296  0.2036  0.0546
  947MOL0     O30584  10.897   4.933  -0.354  0.8504 -0.0833 -0.7020
  947MOL0     C30585  10.809   4.924  -0.471  0.2607  0.3166 -0.3747
  947MOL0     C30586  10.879   4.854  -0.596  0.1347 -0.1673  0.5998
  947MOL0     C30587  10.982   4.962  -0.642 -0.4078  0.3892 -1.1936
  947MOL0     C30588  11.065   4.901  -0.764 -0.1549  0.0138 -0.2808
  947MOL0     C30589  11.159   5.009  -0.814  0.1627  0.2430 -0.6350
  947MOL0     C30590  11.095   5.091  -0.927 -0.3567 -0.4537 -0.6835
  947MOL0     C30591  11.175   5.222  -0.955  0.0678 -0.0870  0.3891
  947MOL0     C30592  11.090   5.316  -1.036 -0.1017  0.0124  0.2994
  947MOL0    Cl30593  10.966   5.388  -0.929  0.1185  0.1184 -0.0270
  947MOL0     C30594  10.713   5.025  -0.211 -0.5426 -0.3978 -0.3882
  947MOL0     C30595  10.669   5.042  -0.082 -0.6654  0.4103 -0.4270
  947MOL0     O30596  10.707   5.260   0.136 -0.6870 -0.0727  1.1316
  947MOL0     C30597  10.750   5.222   0.416  0.0187  0.5132  0.0461
  947MOL0     C30598  10.717   5.264   0.548  0.8845  0.0692 -0.1543
  947MOL0     N30599   9.941   5.494   0.672  0.1095  0.0503  0.3550
  947MOL0     N30600   9.909   5.614   0.721  0.7673  1.1837  0.1118
  947MOL0     C30601   9.631   6.403   1.496 -0.7954 -0.4678 -0.4711
  947MOL0     C30602   9.617   6.547   1.519 -0.7767  0.1900  0.6388
  947MOL0     C30603   9.482   6.920   1.737 -0.1252 -0.7679 -1.1019
  947MOL0     C30604   9.344   6.932   1.718  0.0774 -0.9312 -0.7442
  947MOL0     C30605   9.295   7.062   1.693  0.0171  0.1967  0.5577
  947MOL0     C30606   9.378   7.170   1.659  0.3579  0.4938 -0.6839
  947MOL0     O30607   9.314   7.283   1.637  0.5341 -0.3673 -0.1387
  947MOL0     C30608   9.290   7.326   1.501 -0.2130  0.4272  0.2248
  947MOL0     C30609   9.204   7.446   1.490 -0.0531 -0.4922 -0.3429
  947MOL0     C30610   9.258   7.570   1.563 -0.5907  0.1368 -0.8985
  947MOL0     C30611   9.165   7.682   1.564 -0.7720 -0.5391  0.7733
  947MOL0     C30612   9.141   7.717   1.422 -0.0667  0.0065  0.0342
  947MOL0     C30613   9.076   7.747   1.323  0.3493 -0.5652 -0.6454
  947MOL0     C30614   9.520   7.161   1.688 -0.2961  0.5498 -0.2820
  947MOL0     C30615   9.564   7.036   1.731  0.5194 -0.2893  0.1637
  947MOL0     C30616   9.721   7.029   1.758 -0.0073 -0.0074  0.6783
  947MOL0     H30617   9.741   6.561   1.829 -3.9343 -0.7560  1.7761
  947MOL0     H30618   9.795   6.334   1.780  0.5468  2.1043  1.6278
  947MOL0     H30619   9.778   6.122   1.733 -1.0601  3.3650 -0.7864
  947MOL0     H30620   9.913   6.162   1.629 -1.5913  1.9655  2.6282
  947MOL0     H30621   9.926   5.938   1.636 -1.6802 -0.5134  2.5062
  947MOL0     H30622   9.751   5.908   1.623 -0.8165 -0.4658 -2.1315
  947MOL0     H30623   9.735   5.979   1.398 -0.5409  0.6871 -0.0643
  947MOL0     H30624   9.917   6.002   1.397  1.0227 -2.7123 -0.0486
  947MOL0     H30625   9.957   5.772   1.410 -0.4197 -0.6784 -0.4703
  947MOL0     H30626   9.799   5.735   1.478  3.1881 -0.4322  0.7916
  947MOL0     H30627   9.702   5.804   1.256 -1.0728 -0.4703  3.5677
  947MOL0     H30628   9.770   5.644   1.286  0.4524 -0.9959  0.7729
  947MOL0     H30629   9.912   5.885   1.143  0.1347  0.4896  0.4202
  947MOL0     H30630  10.003   5.747   1.205 -0.1340 -3.3557 -2.4074
  947MOL0     H30631   9.771   5.732   1.014 -1.2367 -0.4390  1.7947
  947MOL0     H30632   9.875   5.600   1.040 -0.5697  0.6747  1.8938
  947MOL0     H30633   9.928   5.834   0.870 -1.9450 -1.4518 -1.8322
  947MOL0     H30634  10.075   5.779   0.953  0.5080 -0.4469 -1.6005
  947MOL0     H30635  10.139   5.528   0.929 -1.3488  0.8910  1.8632
  947MOL0     H30636  10.090   5.269   0.626 -3.4673  0.0477  0.2840
  947MOL0     H30637  10.057   5.237   0.797 -0.4330  1.5635  0.7015
  947MOL0     H30638  10.239   5.315   0.889 -2.0686  0.1210  0.4838
  947MOL0     H30639  10.288   5.189   0.762  0.9208  0.7402 -0.5541
  947MOL0     H30640  10.324   5.386   0.609 -3.2931 -2.0303  1.3763
  947MOL0     H30641  10.285   5.484   0.743 -0.5160 -0.4659  2.2549
  947MOL0     H30642  10.556   5.449   0.718  0.0597  2.0933  3.4401
  947MOL0     H30643  10.504   5.403   0.866 -1.3251  0.0950  0.5511
  947MOL0     H30644  10.403   5.148   0.564 -1.2562 -0.2159 -0.7268
  947MOL0     H30645  10.410   4.976   0.330 -1.2248 -1.2569 -1.2927
  947MOL0     H30646  10.445   5.079   0.190  1.3098 -0.7226  0.6743
  947MOL0     H30647  10.316   5.126   0.312 -1.2532 -1.3269 -1.1374
  947MOL0     H30648  10.924   4.918   0.091  1.3388 -3.1306 -1.6778
  947MOL0     H30649  11.018   4.863  -0.125 -1.3739 -2.2189  0.1580
  947MOL0     H30650  10.725   4.864  -0.437 -0.4552 -0.0188 -2.5578
  947MOL0     H30651  10.773   5.023  -0.503 -1.4920  0.7634  2.5571
  947MOL0     H30652  10.919   4.754  -0.576 -1.7362 -0.7378  1.7067
  947MOL0     H30653  10.806   4.851  -0.677 -0.8109  0.5910  1.4049
  947MOL0     H30654  11.050   4.989  -0.561 -0.8928  0.9836 -0.9813
  947MOL0     H30655  10.930   5.049  -0.683 -1.8116  0.0728 -0.1316
  947MOL0     H30656  11.009   4.863  -0.851  3.1351 -1.5968 -1.8764
  947MOL0     H30657  11.124   4.825  -0.712 -2.0831  0.2600  2.4785
  947MOL0     H30658  11.188   5.083  -0.738  1.6286  0.9622 -1.8589
  947MOL0     H30659  11.251   4.963  -0.851  1.1140  1.4181  0.1929
  947MOL0     H30660  10.997   5.127  -0.895  1.5291  1.3633  3.9144
  947MOL0     H30661  11.079   5.036  -1.020  0.0973  3.1929 -3.1102
  947MOL0     H30662  11.262   5.194  -1.016  0.6471  0.5120  0.9285
  947MOL0     H30663  11.216   5.275  -0.869 -0.9373 -0.3001  1.0195
  947MOL0     H30664  11.039   5.265  -1.118 -1.5905  0.5719  0.8359
  947MOL0     H30665  11.164   5.391  -1.066  0.4868 -1.3467 -1.8726
  947MOL0     H30666  10.632   5.033  -0.282 -0.1967  1.2825 -0.6251
  947MOL0     H30667  10.573   5.091  -0.066 -0.1893  1.3550 -0.3974
  947MOL0     H30668  10.850   5.251   0.386 -0.2125 -0.3021 -1.6128
  947MOL0     H30669  10.801   5.293   0.610  1.0909  0.3983 -0.5763
  947MOL0     H30670   9.594   6.359   1.404  0.6768 -0.0044 -1.3139
  947MOL0     H30671   9.578   6.616   1.445  0.7254 -0.4016 -0.7634
  947MOL0     H30672   9.286   6.840   1.716  0.0233 -1.1108  2.6711
  947MOL0     H30673   9.188   7.078   1.691  0.3142  2.6213 -1.5985
  947MOL0     H30674   9.384   7.351   1.450 -0.4727 -2.6958 -2.1031
  947MOL0     H30675   9.239   7.241   1.453  1.1224 -1.9146  2.6578
  947MOL0     H30676   9.112   7.422   1.544 -0.6259  1.0197 -0.6159
  947MOL0     H30677   9.177   7.474   1.387 -0.5266  2.5751  0.5421
  947MOL0     H30678   9.285   7.544   1.665  0.1564 -1.6718 -1.5116
  947MOL0     H30679   9.351   7.597   1.512 -1.0475 -0.2691 -1.9959
  947MOL0     H30680   9.207   7.770   1.614 -0.0752 -1.1081  1.2089
  947MOL0     H30681   9.074   7.668   1.623  0.2220  1.9021  3.1024
  947MOL0     H30682   9.039   7.796   1.235  0.6147  0.9724  0.0673
  947MOL0     H30683   9.587   7.244   1.674 -1.1748  1.3839  0.3547
  947MOL0     H30684   9.768   7.105   1.696 -0.2075  0.6091  1.2742
  947MOL0     H30685   9.746   7.043   1.864  2.6631  0.1809  0.0890
  947MOL0     H30686   9.761   6.932   1.728 -0.9150 -0.4029  0.7036
  948MOL0     O30687   4.168  10.026   5.388  0.4260  0.0089  0.3920
  948MOL0     C30688   4.122  10.137   5.365  0.7369 -1.1340  1.1291
  948MOL0     O30689   4.029  10.176   5.270  0.2124 -0.2341  0.2813
  948MOL0     C30690   3.938  10.075   5.228 -0.0992 -0.6385 -0.3055
  948MOL0     C30691   3.969  10.004   5.114  0.8103 -0.4992  0.4206
  948MOL0     C30692   3.864   9.935   5.053 -0.0977  0.1383  0.5813
  948MOL0     C30693   3.737   9.920   5.111  0.5685  0.3941 -1.1516
  948MOL0     O30694   3.637   9.844   5.058  0.0398 -0.3090 -0.0840
  948MOL0     C30695   3.688   9.715   5.023 -0.2051 -0.0283  0.2883
  948MOL0     C30696   3.580   9.619   5.036 -0.3604 -0.4886 -0.5198
  948MOL0     C30697   3.500   9.626   5.165 -0.6926  0.0294 -0.0605
  948MOL0     C30698   3.391   9.732   5.178  0.0974  0.6866  0.0155
  948MOL0     C30699   3.315   9.702   5.307  0.0408  0.4658 -0.6254
  948MOL0     C30700   3.400   9.674   5.440  0.0019 -0.4078  0.2091
  948MOL0     C30701   3.328   9.683   5.573 -0.2058 -0.4465  0.3459
  948MOL0     C30702   3.344   9.820   5.644  0.1252 -0.0071 -0.5843
  948MOL0     N30703   3.256   9.812   5.755  0.1534 -0.0116  0.3378
  948MOL0     C30704   3.124   9.819   5.732 -0.2180  0.1986  0.1375
  948MOL0     C30705   3.063   9.748   5.829  0.3474 -0.5891 -0.1985
  948MOL0     C30706   2.913   9.712   5.822  0.0917 -0.4945  0.0616
  948MOL0     C30707   2.896   9.619   5.701  0.2126 -0.7969  0.4810
  948MOL0     C30708   2.976   9.489   5.725  0.4673 -0.2515 -0.2494
  948MOL0     C30709   2.908   9.366   5.673 -0.6859  0.8083  0.0824
  948MOL0     O30710   2.906   9.372   5.527  0.2257 -0.6373  0.6272
  948MOL0     C30711   2.852   9.273   5.451 -0.4244 -0.2352  0.0337
  948MOL0     C30712   2.794   9.162   5.505 -0.3417  0.7500  0.1066
  948MOL0     C30713   2.746   9.053   5.430  0.0811  0.3984 -0.1440
  948MOL0     C30714   2.698   8.938   5.511 -0.1888 -0.8123 -1.6035
  948MOL0     C30715   2.759   9.053   5.288 -0.8303 -0.5351  0.6722
  948MOL0     C30716   2.743   8.941   5.192  0.3636  0.0985 -0.7307
  948MOL0     O30717   2.770   8.964   5.067  0.4124  0.2136 -0.2406
  948MOL0     C30718   2.678   8.921   4.981 -0.8629  0.5834 -0.5154
  948MOL0     C30719   2.698   8.811   4.898  0.1742 -0.3066  0.3831
  948MOL0     C30720   2.605   8.765   4.805 -0.5986  0.8569  1.2625
  948MOL0     C30721   2.493   8.849   4.779  0.0341  0.0731 -0.1192
  948MOL0     O30722   2.381   8.825   4.699 -0.6946 -1.0047 -0.1194
  948MOL0     C30723   2.373   8.689   4.655 -0.9889 -0.0864  0.7488
  948MOL0     C30724   2.234   8.687   4.606  0.1097  0.2717  0.1903
  948MOL0     C30725   2.201   8.772   4.477 -0.0270 -0.3237 -0.1484
  948MOL0     C30726   2.068   8.716   4.424  0.0409  0.5949  0.1103
  948MOL0     C30727   2.042   8.774   4.290 -0.0660  0.0767  0.4064
  948MOL0     C30728   1.893   8.762   4.253  0.1323  0.2738  0.0837
  948MOL0     C30729   1.867   8.829   4.120  0.3325 -1.1482 -0.2939
  948MOL0     C30730   1.728   8.799   4.078  0.4865 -0.4364  0.5927
  948MOL0    Cl30731   1.692   8.835   3.895  0.6489  0.2137  0.0161
  948MOL0     C30732   2.484   8.971   4.854  0.6643 -0.7011  0.4000
  948MOL0     C30733   2.562   9.001   4.958 -0.0739 -0.4272  0.1644
  948MOL0     O30734   2.678   8.845   5.234  0.4153 -0.5170  0.4488
  948MOL0     C30735   2.807   9.173   5.229  0.1226 -0.7167 -0.1010
  948MOL0     C30736   2.872   9.276   5.311 -0.5973  0.3828  0.7193
  948MOL0     N30737   3.161   9.693   5.909 -0.4916 -0.0457 -0.5516
  948MOL0     N30738   3.277   9.753   5.876  0.4028 -1.0938  0.5283
  948MOL0     C30739   3.713   9.993   5.226  0.3244  0.2977 -0.6096
  948MOL0     C30740   3.813  10.073   5.284  0.1179  0.2743 -0.2611
  948MOL0     C30741   4.174  10.252   5.429 -0.1150  1.4445 -0.4472
  948MOL0     C30742   4.142  10.373   5.376 -0.4102 -1.1442  0.2542
  948MOL0     C30743   4.209  10.493   5.428 -0.4866  0.6719 -0.2259
  948MOL0     C30744   4.285  10.488   5.543  0.3782 -0.6797  0.3132
  948MOL0     O30745   4.339  10.612   5.588  0.2673  0.1894 -0.2286
  948MOL0     C30746   4.438  10.607   5.691 -0.4817 -0.6369 -0.3367
  948MOL0     C30747   4.470  10.753   5.717 -0.3794 -0.0125 -0.1221
  948MOL0     C30748   4.586  10.761   5.816 -0.1895  0.2495  0.0367
  948MOL0     C30749   4.616  10.903   5.835 -0.8092 -0.1121  0.4393
  948MOL0     C30750   4.670  10.942   5.967  0.4127 -0.2205 -0.2541
  948MOL0     C30751   4.701  10.954   6.083 -0.2748  0.2884 -0.2788
  948MOL0     C30752   4.310  10.360   5.598  1.0111 -0.1540 -0.5903
  948MOL0     C30753   4.264  10.244   5.538 -0.1871  0.5483  0.9665
  948MOL0     C30754   4.299  10.120   5.619 -0.0568 -0.1603 -0.3147
  948MOL0     H30755   4.064  10.032   5.069  1.5726  0.7383  2.6413
  948MOL0     H30756   3.895   9.894   4.958  0.4593  0.8270  0.4603
  948MOL0     H30757   3.766   9.683   5.093  0.8283  0.0385 -0.7987
  948MOL0     H30758   3.727   9.727   4.922 -0.7213 -2.4063 -0.2619
  948MOL0     H30759   3.511   9.632   4.952 -1.4708  0.7047  0.5423
  948MOL0     H30760   3.628   9.524   5.013  1.2862  0.6165 -1.8221
  948MOL0     H30761   3.448   9.529   5.171  1.1226 -1.0090 -0.2461
  948MOL0     H30762   3.572   9.637   5.247 -0.7227 -4.4234  0.8273
  948MOL0     H30763   3.435   9.832   5.185 -0.9586  1.0909  1.4715
  948MOL0     H30764   3.326   9.724   5.091  1.1475 -1.0677 -0.6655
  948MOL0     H30765   3.248   9.617   5.294  0.8286  0.0164 -1.9586
  948MOL0     H30766   3.252   9.789   5.323  0.0950  0.4851 -0.5137
  948MOL0     H30767   3.453   9.578   5.431 -0.1856 -0.3785 -1.5668
  948MOL0     H30768   3.488   9.738   5.436  1.6424 -2.4218  1.9163
  948MOL0     H30769   3.365   9.605   5.639  3.6505  0.0797 -0.9593
  948MOL0     H30770   3.222   9.656   5.563 -0.0220 -1.2713  0.5062
  948MOL0     H30771   3.446   9.828   5.682  0.8408 -3.2974 -1.5280
  948MOL0     H30772   3.312   9.901   5.578 -0.0593 -0.1898 -0.7234
  948MOL0     H30773   3.089   9.860   5.638  1.7188  1.5829 -0.0593
  948MOL0     H30774   2.851   9.802   5.816 -1.2912 -1.2187  2.3653
  948MOL0     H30775   2.887   9.670   5.919  1.0158  0.1742  0.6198
  948MOL0     H30776   2.791   9.596   5.679 -0.6648  1.6521  1.7864
  948MOL0     H30777   2.928   9.674   5.612  0.0717  0.4406  1.1814
  948MOL0     H30778   3.075   9.495   5.678  0.8411 -3.4735 -0.0844
  948MOL0     H30779   3.003   9.476   5.830 -0.0217 -0.2607 -0.1233
  948MOL0     H30780   2.954   9.273   5.708 -1.4429 -0.0511 -1.1138
  948MOL0     H30781   2.805   9.353   5.708 -0.8783  0.8512 -0.4567
  948MOL0     H30782   2.782   9.156   5.613  0.8282  1.4471  0.2960
  948MOL0     H30783   2.606   8.894   5.470  0.3270 -1.8779 -1.6560
  948MOL0     H30784   2.678   8.956   5.617 -1.7339  0.6135 -2.0939
  948MOL0     H30785   2.778   8.864   5.507  0.0474 -0.5418 -1.8855
  948MOL0     H30786   2.781   8.743   4.914  0.7322  0.6381  1.6726
  948MOL0     H30787   2.615   8.668   4.757 -1.3941  1.3938 -0.0300
  948MOL0     H30788   2.439   8.681   4.568 -1.4346  0.6165  0.3343
  948MOL0     H30789   2.393   8.609   4.726 -1.7871 -1.9882 -1.0577
  948MOL0     H30790   2.224   8.579   4.588 -0.6947  0.7563 -2.8123
  948MOL0     H30791   2.174   8.735   4.683  0.1222  2.6727 -1.2010
  948MOL0     H30792   2.289   8.776   4.413  0.5659  2.5824  0.7120
  948MOL0     H30793   2.190   8.877   4.506  1.1936 -0.5761  1.3435
  948MOL0     H30794   1.997   8.741   4.504 -1.0733 -2.3993  0.1859
  948MOL0     H30795   2.062   8.607   4.424  0.5480  0.5451 -1.0901
  948MOL0     H30796   2.062   8.881   4.284 -3.6051  0.8115 -1.5971
  948MOL0     H30797   2.095   8.724   4.208  2.2729  1.0012  1.2876
  948MOL0     H30798   1.833   8.813   4.329 -0.7921  1.0780 -1.1614
  948MOL0     H30799   1.854   8.660   4.245 -2.0829  1.1477 -1.2880
  948MOL0     H30800   1.935   8.786   4.046  0.0608 -4.2927  1.1159
  948MOL0     H30801   1.895   8.935   4.126 -1.2335 -0.6863 -0.4796
  948MOL0     H30802   1.655   8.849   4.142 -1.8089  0.8237 -2.7118
  948MOL0     H30803   1.721   8.690   4.085 -0.5480 -0.4640 -0.6459
  948MOL0     H30804   2.400   9.039   4.839  0.5411 -0.3057  2.5235
  948MOL0     H30805   2.564   9.101   5.001 -1.7924 -0.2756 -0.0275
  948MOL0     H30806   2.826   9.186   5.123  3.3874  1.5419  0.5924
  948MOL0     H30807   2.927   9.351   5.255 -0.0369  0.1301  0.9260
  948MOL0     H30808   3.615   9.984   5.272  0.4593 -0.8170 -0.5088
  948MOL0     H30809   3.784  10.138   5.366 -0.2333  1.5338 -1.3449
  948MOL0     H30810   4.091  10.391   5.282  1.4271  0.0095 -0.5871
  948MOL0     H30811   4.203  10.587   5.375  2.8729  2.6953  2.5668
  948MOL0     H30812   4.394  10.564   5.781  2.3748 -1.1928  0.9171
  948MOL0     H30813   4.516  10.544   5.646 -3.0983 -2.9124 -2.0531
  948MOL0     H30814   4.379  10.808   5.745 -1.7358 -1.2838 -1.7928
  948MOL0     H30815   4.510  10.778   5.618 -0.8164 -2.9567 -1.1629
  948MOL0     H30816   4.548  10.733   5.915  0.1690  0.9299  0.3732
  948MOL0     H30817   4.671  10.699   5.787 -1.2768 -0.9540 -0.6939
  948MOL0     H30818   4.525  10.960   5.816  0.3429  0.9846 -2.4668
  948MOL0     H30819   4.681  10.940   5.755 -2.5602 -0.3937 -1.1642
  948MOL0     H30820   4.735  10.969   6.183  0.3118  3.0137 -0.7923
  948MOL0     H30821   4.367  10.356   5.691 -0.5733 -1.0927  0.3921
  948MOL0     H30822   4.203  10.084   5.658  0.1699 -0.0383  0.3655
  948MOL0     H30823   4.336  10.038   5.557  1.4092 -0.0058  0.3222
  948MOL0     H30824   4.359  10.131   5.710  2.5747 -0.2316 -1.9661
  949MOL0     O30825   3.829   0.073   8.242 -0.0508 -0.0195 -0.6185
  949MOL0     C30826   3.926   0.149   8.237  0.3526 -0.7020  0.2082
  949MOL0     O30827   4.060   0.114   8.224  0.1715 -0.4616 -0.0975
  949MOL0     C30828   4.076  -0.019   8.237  0.2214 -0.1281  0.6174
  949MOL0     C30829   4.100  -0.101   8.126  0.5408  0.1695  1.0383
  949MOL0     C30830   4.119  -0.242   8.139  1.0528  0.2472 -0.1313
  949MOL0     C30831   4.120  -0.293   8.272  0.0164 -0.1662 -0.6660
  949MOL0     O30832   4.144  -0.430   8.304 -0.4129 -0.9783  0.4005
  949MOL0     C30833   4.211  -0.507   8.200  0.0835  0.1931 -0.4467
  949MOL0     C30834   4.265  -0.641   8.243  1.1480  0.2178  0.0464
  949MOL0     C30835   4.351  -0.636   8.373 -0.2338 -0.2624  0.0397
  949MOL0     C30836   4.260  -0.658   8.495 -0.1033 -0.4622 -0.3082
  949MOL0     C30837   4.322  -0.656   8.629 -0.6092  0.2084 -0.7537
  949MOL0     C30838   4.370  -0.516   8.665  0.2764  0.6819 -0.6282
  949MOL0     C30839   4.497  -0.528   8.758 -0.8894  0.0363 -0.0240
  949MOL0     C30840   4.561  -0.387   8.777 -0.4927 -0.3484 -0.5893
  949MOL0     N30841   4.460  -0.290   8.821 -0.3629 -0.2537  0.5685
  949MOL0     C30842   4.391  -0.283   8.938  0.4093  0.1292 -0.5707
  949MOL0     C30843   4.298  -0.188   8.920 -0.5733 -0.1207 -0.1944
  949MOL0     C30844   4.227  -0.129   9.040  0.5371 -0.3382 -0.7447
  949MOL0     C30845   4.103  -0.220   9.074 -0.9919 -0.0911 -0.1311
  949MOL0     C30846   4.042  -0.183   9.212 -0.5459  0.5966  0.5227
  949MOL0     C30847   3.925  -0.265   9.259  0.5442 -0.3359 -0.8155
  949MOL0     O30848   3.808  -0.226   9.188  0.1980 -0.5915  1.0958
  949MOL0     C30849   3.713  -0.150   9.250 -0.2045 -0.1586  0.3197
  949MOL0     C30850   3.592  -0.134   9.184 -0.8193  0.4787 -0.3124
  949MOL0     C30851   3.479  -0.072   9.241 -0.1855 -0.2632  0.1727
  949MOL0     C30852   3.353  -0.076   9.159  0.0348  0.4585  0.3362
  949MOL0     C30853   3.491  -0.019   9.370  0.4673 -0.2603 -0.0034
  949MOL0     C30854   3.388   0.062   9.428 -0.0496  0.4463  0.5582
  949MOL0     O30855   3.443   0.179   9.475 -0.0518 -0.8967  0.4927
  949MOL0     C30856   3.368   0.286   9.509  0.4518 -0.3099 -0.0238
  949MOL0     C30857   3.426   0.414   9.477  0.6027  1.1629  0.6116
  949MOL0     C30858   3.348   0.540   9.497 -0.3832 -0.2624 -0.1005
  949MOL0     C30859   3.227   0.540   9.566 -0.3179 -0.9527 -0.0209
  949MOL0     O30860   3.178   0.664   9.579 -0.0146 -0.5811 -0.2960
  949MOL0     C30861   3.046   0.679   9.528  0.4151 -0.1110 -0.1473
  949MOL0     C30862   2.929   0.689   9.632  0.6853  0.5033 -0.0393
  949MOL0     C30863   2.946   0.823   9.703  0.5189  0.3887  0.7382
  949MOL0     C30864   2.815   0.887   9.749 -0.7284 -0.0253 -0.6723
  949MOL0     C30865   2.726   0.968   9.658  0.8466  0.1983  1.0209
  949MOL0     C30866   2.770   1.116   9.652  0.1488  0.6273 -0.2118
  949MOL0     C30867   2.649   1.207   9.622  0.0323 -0.2095  0.2217
  949MOL0     C30868   2.697   1.341   9.576  0.5361 -0.0967 -0.1654
  949MOL0    Cl30869   2.571   1.442   9.498 -0.2520  0.3911  0.0667
  949MOL0     C30870   3.177   0.419   9.609  0.0169  0.1504 -0.5755
  949MOL0     C30871   3.242   0.293   9.585 -0.5047 -0.4194 -0.1724
  949MOL0     O30872   3.270   0.035   9.423 -0.4164 -0.0678  0.1680
  949MOL0     C30873   3.613  -0.033   9.440 -1.0285  0.4051 -0.1223
  949MOL0     C30874   3.730  -0.093   9.380 -0.9224  0.7072  1.0010
  949MOL0     N30875   4.313  -0.146   8.784  0.1685 -0.3876 -0.6877
  949MOL0     N30876   4.404  -0.210   8.725  0.3420  0.0973 -0.3529
  949MOL0     C30877   4.110  -0.211   8.379 -0.6093  0.6177 -0.7573
  949MOL0     C30878   4.086  -0.073   8.360  0.2956  0.5833 -0.3197
  949MOL0     C30879   3.913   0.303   8.263 -0.0382  0.9035  0.4165
  949MOL0     C30880   4.023   0.375   8.313  0.0936  0.1089  0.1759
  949MOL0     C30881   4.013   0.507   8.360 -0.6344 -0.4645 -0.1924
  949MOL0     C30882   3.898   0.578   8.333  0.6720  0.3739  0.5906
  949MOL0     O30883   3.875   0.709   8.354  0.4288 -0.8424 -0.1992
  949MOL0     C30884   3.972   0.784   8.435  0.1499  0.5151 -0.3670
  949MOL0     C30885   3.918   0.927   8.460  0.1780  0.0069  0.0589
  949MOL0     C30886   3.933   1.024   8.340 -0.2170 -0.1394 -0.4105
  949MOL0     C30887   4.075   1.062   8.322 -0.9150 -0.4029  0.5236
  949MOL0     C30888   4.086   1.098   8.180 -0.8916 -0.6656  0.4190
  949MOL0     C30889   4.107   1.138   8.068 -0.5908  0.5228  1.0926
  949MOL0     C30890   3.787   0.515   8.266 -0.7816  0.0393  0.5517
  949MOL0     C30891   3.799   0.379   8.227  0.8498 -0.1976 -0.1064
  949MOL0     C30892   3.698   0.327   8.129  0.0246 -0.1713 -0.1115
  949MOL0     H30893   4.112  -0.042   8.035 -1.6409 -1.5243 -0.4390
  949MOL0     H30894   4.150  -0.305   8.056  2.0281  0.7303 -0.1568
  949MOL0     H30895   4.288  -0.438   8.161 -1.3249 -0.0327 -4.0721
  949MOL0     H30896   4.141  -0.527   8.118 -0.8830 -0.3540  0.4871
  949MOL0     H30897   4.192  -0.720   8.260  2.3342 -1.0940 -0.6910
  949MOL0     H30898   4.325  -0.682   8.161  1.4278 -0.1656  0.4410
  949MOL0     H30899   4.415  -0.724   8.362 -1.0431 -0.6870 -1.7124
  949MOL0     H30900   4.418  -0.552   8.387 -1.0493  0.3354  0.4637
  949MOL0     H30901   4.175  -0.589   8.491 -0.3026 -0.6051  1.0290
  949MOL0     H30902   4.210  -0.754   8.484  0.2228 -0.6415 -0.2274
  949MOL0     H30903   4.410  -0.722   8.634  0.7408  2.0448  2.4545
  949MOL0     H30904   4.240  -0.688   8.693 -1.0082  0.2966 -1.2187
  949MOL0     H30905   4.390  -0.453   8.579  0.3077 -1.5921 -2.3794
  949MOL0     H30906   4.290  -0.471   8.726  0.7280 -0.9998  1.3379
  949MOL0     H30907   4.569  -0.586   8.699 -1.6293 -0.5711 -0.3549
  949MOL0     H30908   4.479  -0.584   8.850  0.6616 -3.6470 -1.7564
  949MOL0     H30909   4.652  -0.396   8.837  1.2736 -0.2608 -3.0508
  949MOL0     H30910   4.599  -0.357   8.678  1.6060  2.9809  1.0444
  949MOL0     H30911   4.403  -0.344   9.026 -0.4199 -1.4648 -1.5145
  949MOL0     H30912   4.196  -0.027   9.014  1.9571  0.0491 -1.0044
  949MOL0     H30913   4.288  -0.116   9.130  0.8155  1.9096 -1.1996
  949MOL0     H30914   4.027  -0.206   8.996 -1.2756  1.1623  0.3608
  949MOL0     H30915   4.130  -0.325   9.087  2.8948  0.6807 -0.9414
  949MOL0     H30916   4.126  -0.199   9.281  0.7531  0.7621 -0.9672
  949MOL0     H30917   4.009  -0.079   9.207 -0.8570  0.4962  0.4896
  949MOL0     H30918   3.954  -0.370   9.247  2.4892 -0.4485  3.1172
  949MOL0     H30919   3.906  -0.256   9.366 -1.3831  1.1358 -1.2429
  949MOL0     H30920   3.585  -0.188   9.090 -0.0825  1.2226 -0.8113
  949MOL0     H30921   3.289  -0.158   9.192  0.8798 -0.5040 -0.3699
  949MOL0     H30922   3.371  -0.095   9.053  2.6519  2.2145  0.3542
  949MOL0     H30923   3.292   0.015   9.155  0.3977  0.6817 -0.2790
  949MOL0     H30924   3.527   0.417   9.437  1.2393 -0.7071  1.8764
  949MOL0     H30925   3.392   0.635   9.467  0.7042 -0.8973 -0.6004
  949MOL0     H30926   3.042   0.762   9.458 -0.1857 -0.3692 -0.4263
  949MOL0     H30927   3.025   0.590   9.468 -1.4445  1.0135 -1.2333
  949MOL0     H30928   2.828   0.693   9.589 -0.2713  0.5327  2.0627
  949MOL0     H30929   2.932   0.610   9.708 -0.7840  1.6871  1.3260
  949MOL0     H30930   2.990   0.896   9.635 -5.5994  4.4045  0.2857
  949MOL0     H30931   3.019   0.808   9.782  1.6643 -3.4784 -0.8088
  949MOL0     H30932   2.834   0.945   9.840  1.4659  0.8747 -1.6501
  949MOL0     H30933   2.756   0.800   9.781 -1.7560  1.2280  1.0418
  949MOL0     H30934   2.705   0.924   9.560 -1.6879  1.4554  0.9132
  949MOL0     H30935   2.628   0.958   9.705  0.2294 -1.0950 -0.4511
  949MOL0     H30936   2.852   1.124   9.581  0.8789  1.0951  0.6639
  949MOL0     H30937   2.819   1.134   9.748  2.6889  0.6859 -1.4529
  949MOL0     H30938   2.581   1.217   9.708 -1.4028  0.5951 -0.9553
  949MOL0     H30939   2.600   1.171   9.531  0.8857  0.0127 -0.3335
  949MOL0     H30940   2.770   1.329   9.496  1.3720  0.8974  0.4158
  949MOL0     H30941   2.753   1.402   9.648  2.5536 -1.3003 -0.6526
  949MOL0     H30942   3.088   0.415   9.671 -0.9691 -0.8942 -1.9957
  949MOL0     H30943   3.199   0.196   9.608  0.3639 -1.1023 -1.3246
  949MOL0     H30944   3.633   0.003   9.540 -0.3586  0.0319 -0.1176
  949MOL0     H30945   3.831  -0.092   9.418 -1.3134  1.2853  2.0660
  949MOL0     H30946   4.114  -0.243   8.483  2.2128  3.2193  0.0905
  949MOL0     H30947   4.067  -0.010   8.447 -2.1557  0.3357 -0.6203
  949MOL0     H30948   4.114   0.320   8.334 -0.1808 -1.7671 -2.8943
  949MOL0     H30949   4.098   0.549   8.412 -2.0098 -0.0221  1.8051
  949MOL0     H30950   3.983   0.735   8.533  0.7152  3.7824  1.3546
  949MOL0     H30951   4.072   0.786   8.390 -1.0322  0.3864 -3.1675
  949MOL0     H30952   3.972   0.978   8.540  2.8806  0.9435 -2.2212
  949MOL0     H30953   3.817   0.918   8.500  1.4437 -0.4804  3.4201
  949MOL0     H30954   3.899   0.978   8.247  4.1665  0.5326 -2.5688
  949MOL0     H30955   3.874   1.114   8.360  3.5231  2.0797  1.5733
  949MOL0     H30956   4.137   0.973   8.330 -0.2543 -0.1920 -1.5850
  949MOL0     H30957   4.114   1.141   8.387 -0.1554  2.0832 -2.6933
  949MOL0     H30958   4.119   1.201   7.982 -1.2544 -0.7461  0.0501
  949MOL0     H30959   3.706   0.577   8.230  0.7420  1.1637 -1.1421
  949MOL0     H30960   3.638   0.251   8.181 -0.1745  0.5498  0.7406
  949MOL0     H30961   3.620   0.392   8.090 -2.4182 -3.0170 -0.3533
  949MOL0     H30962   3.752   0.279   8.047 -2.2762  0.1799 -1.9075
  950MOL0     O30963   5.108   5.538   0.355 -0.2691 -0.1666  0.7204
  950MOL0     C30964   5.109   5.622   0.268 -1.5047 -0.6234 -0.8960
  950MOL0     O30965   5.014   5.640   0.171 -0.0272  0.7644  0.2054
  950MOL0     C30966   4.902   5.569   0.190 -0.2397  0.4463 -0.2336
  950MOL0     C30967   4.903   5.443   0.135  0.9704  0.0537  0.2089
  950MOL0     C30968   4.796   5.354   0.148 -1.0341 -0.4037  0.4067
  950MOL0     C30969   4.687   5.389   0.236  0.4042  1.3547  0.5665
  950MOL0     O30970   4.584   5.297   0.259  0.2867 -1.0955  0.5849
  950MOL0     C30971   4.466   5.328   0.342 -0.6891 -0.5306 -0.5687
  950MOL0     C30972   4.340   5.248   0.318  0.1080  0.7039  1.1401
  950MOL0     C30973   4.335   5.093   0.344  0.9335 -0.6034  0.2536
  950MOL0     C30974   4.320   5.072   0.487  0.9374 -0.2182  0.3428
  950MOL0     C30975   4.291   4.931   0.516 -0.2892 -0.0551 -0.5654
  950MOL0     C30976   4.259   4.914   0.669  0.5669 -0.6426 -0.1770
  950MOL0     C30977   4.239   4.768   0.701  0.1478  0.4445 -0.2951
  950MOL0     C30978   4.381   4.717   0.744 -0.2747 -0.3354 -1.1161
  950MOL0     N30979   4.378   4.581   0.788  0.8357 -0.5520  0.1728
  950MOL0     C30980   4.480   4.491   0.770 -0.2610  0.3254 -0.5473
  950MOL0     C30981   4.455   4.402   0.872 -0.0017  0.2577  0.5014
  950MOL0     C30982   4.537   4.280   0.894 -0.6236 -0.1864 -0.3401
  950MOL0     C30983   4.524   4.197   0.771 -0.4254  0.2882 -0.1809
  950MOL0     C30984   4.608   4.069   0.780  0.2266  0.1700 -0.4479
  950MOL0     C30985   4.530   3.947   0.826 -0.3449  0.0862 -0.0063
  950MOL0     O30986   4.619   3.827   0.831  0.4049 -0.5076 -0.0677
  950MOL0     C30987   4.696   3.792   0.936 -0.2665  0.4873 -0.3122
  950MOL0     C30988   4.734   3.879   1.039  0.5786  0.1794 -0.2769
  950MOL0     C30989   4.820   3.842   1.152  0.3739 -0.2749  0.3220
  950MOL0     C30990   4.858   3.956   1.243 -0.3302  0.4942 -0.0791
  950MOL0     C30991   4.849   3.702   1.170 -0.3853 -1.0306 -0.4171
  950MOL0     C30992   4.929   3.648   1.285  0.5900  0.3014 -0.1743
  950MOL0     O30993   4.968   3.729   1.393  0.4231  0.2204  0.2671
  950MOL0     C30994   5.019   3.669   1.500 -0.3610  0.2099 -0.5421
  950MOL0     C30995   4.944   3.611   1.601 -0.1420  0.1285 -0.0049
  950MOL0     C30996   5.000   3.547   1.705 -0.3138 -0.3210 -0.5696
  950MOL0     C30997   5.141   3.545   1.725 -0.4126 -0.7583 -0.3220
  950MOL0     O30998   5.184   3.480   1.833 -0.8750  0.1889  0.3872
  950MOL0     C30999   5.313   3.428   1.840 -1.0610  1.0542 -0.2638
  950MOL0     C31000   5.332   3.299   1.763  0.2442  0.8199 -0.5429
  950MOL0     C31001   5.481   3.269   1.740  0.6061  0.2654 -0.7202
  950MOL0     C31002   5.588   3.281   1.850  0.0403  0.7995 -0.1909
  950MOL0     C31003   5.732   3.261   1.787 -0.8759 -0.0032  0.0299
  950MOL0     C31004   5.781   3.391   1.723  0.1798  0.3544  0.0538
  950MOL0     C31005   5.923   3.398   1.675 -0.2028 -0.1252  0.2822
  950MOL0     C31006   6.032   3.396   1.783  0.3271 -0.5952 -0.1700
  950MOL0    Cl31007   6.044   3.247   1.899 -0.0248  0.1685  0.3779
  950MOL0     C31008   5.217   3.605   1.619 -1.3025  0.3073 -0.4616
  950MOL0     C31009   5.163   3.673   1.516  0.7623  0.7764 -0.6200
  950MOL0     O31010   4.966   3.530   1.276  0.0239 -0.2561 -0.1344
  950MOL0     C31011   4.800   3.615   1.072 -0.5117  1.1652  1.1240
  950MOL0     C31012   4.735   3.654   0.957 -0.2075  0.0423  0.6455
  950MOL0     N31013   4.339   4.433   0.936  0.5881 -0.0876  0.0776
  950MOL0     N31014   4.294   4.539   0.889 -0.3897  0.0202 -1.1125
  950MOL0     C31015   4.700   5.509   0.298 -0.6559  0.4052 -0.2180
  950MOL0     C31016   4.803   5.599   0.280  0.6379 -0.1127  0.2048
  950MOL0     C31017   5.232   5.716   0.242  0.7134  0.2997 -0.0910
  950MOL0     C31018   5.267   5.736   0.105  0.0018  0.1290  0.4541
  950MOL0     C31019   5.359   5.828   0.071  0.4205 -0.2836 -0.3536
  950MOL0     C31020   5.427   5.907   0.172  1.2980 -0.1653  0.2808
  950MOL0     O31021   5.498   6.015   0.146 -0.3161  0.2360  0.6672
  950MOL0     C31022   5.537   6.038   0.014 -0.1965 -0.5664 -0.1028
  950MOL0     C31023   5.619   6.171  -0.000 -0.6508 -1.1721  0.2099
  950MOL0     C31024   5.548   6.303   0.041  0.2060  0.0520 -0.3727
  950MOL0     C31025   5.635   6.411   0.095  0.2644 -0.0575 -0.3370
  950MOL0     C31026   5.741   6.453  -0.001 -0.7075 -0.6439  0.4301
  950MOL0     C31027   5.835   6.484  -0.072 -0.4454 -0.4040  0.2068
  950MOL0     C31028   5.402   5.878   0.306  0.6405 -0.2315  0.2320
  950MOL0     C31029   5.318   5.776   0.342  0.0380  0.4390  0.4039
  950MOL0     C31030   5.315   5.740   0.484  0.2551 -0.4922  0.6252
  950MOL0     H31031   4.979   5.414   0.063  0.6028 -1.0312  0.2407
  950MOL0     H31032   4.791   5.262   0.090 -1.6495  0.4723 -1.0007
  950MOL0     H31033   4.438   5.431   0.317  3.2113  0.6666 -0.5128
  950MOL0     H31034   4.497   5.313   0.445 -1.9186 -0.0567 -0.1025
  950MOL0     H31035   4.276   5.307   0.383  0.7705  2.1566  0.5187
  950MOL0     H31036   4.301   5.253   0.216 -0.1298 -2.4921  0.9648
  950MOL0     H31037   4.244   5.055   0.296 -0.5965  3.0403 -0.0525
  950MOL0     H31038   4.421   5.037   0.308  0.4633 -2.8625  2.3552
  950MOL0     H31039   4.402   5.109   0.549  2.1961  0.1452 -1.4701
  950MOL0     H31040   4.231   5.127   0.520  0.6818  2.3162 -3.8165
  950MOL0     H31041   4.386   4.878   0.502 -1.0411 -1.2301 -1.3547
  950MOL0     H31042   4.217   4.874   0.459  1.3058 -2.8251 -0.0671
  950MOL0     H31043   4.336   4.959   0.732  0.0038 -1.0102  0.7927
  950MOL0     H31044   4.165   4.962   0.696  0.9672 -0.7078  1.4040
  950MOL0     H31045   4.212   4.708   0.613 -0.2756  1.1721 -0.6707
  950MOL0     H31046   4.161   4.749   0.776  1.3285  0.8754  1.0852
  950MOL0     H31047   4.442   4.730   0.654  1.8772  1.2696  0.4648
  950MOL0     H31048   4.438   4.782   0.810 -0.2713 -0.8786 -0.5748
  950MOL0     H31049   4.569   4.492   0.707  0.4003  1.1280  0.3740
  950MOL0     H31050   4.493   4.228   0.980 -0.8211  1.3549  0.5304
  950MOL0     H31051   4.638   4.316   0.919 -0.8163 -0.0902  0.3258
  950MOL0     H31052   4.419   4.170   0.754 -0.4158  1.6667 -2.8940
  950MOL0     H31053   4.555   4.258   0.686  0.8489  0.0355  0.0927
  950MOL0     H31054   4.643   4.047   0.679  0.0738  0.0903 -0.4829
  950MOL0     H31055   4.689   4.088   0.851 -1.8359  0.6886  1.9112
  950MOL0     H31056   4.489   3.986   0.920  0.5707  0.4037  0.2731
  950MOL0     H31057   4.447   3.927   0.758 -0.0732  1.7005 -0.8756
  950MOL0     H31058   4.711   3.984   1.026  2.2743  0.5512 -0.4094
  950MOL0     H31059   4.906   4.025   1.174 -1.6319  0.6227 -0.8866
  950MOL0     H31060   4.925   3.937   1.327  0.3854 -0.8821 -0.9346
  950MOL0     H31061   4.767   4.002   1.282  0.1827  2.1689 -0.7525
  950MOL0     H31062   4.836   3.616   1.592 -0.3380 -0.7181  1.5165
  950MOL0     H31063   4.939   3.487   1.770 -0.8956 -1.4184 -2.0784
  950MOL0     H31064   5.384   3.504   1.807  2.4027 -1.7356  0.1339
  950MOL0     H31065   5.324   3.404   1.946 -2.0139 -1.1733 -0.6052
  950MOL0     H31066   5.294   3.219   1.827  1.4581 -0.1939 -1.0451
  950MOL0     H31067   5.286   3.304   1.664  1.1907 -0.6278 -1.0784
  950MOL0     H31068   5.522   3.338   1.666  1.8389  3.0503  2.3286
  950MOL0     H31069   5.487   3.166   1.704  0.3250  0.5472 -1.5878
  950MOL0     H31070   5.557   3.193   1.907  1.3145  1.8396  2.2839
  950MOL0     H31071   5.581   3.366   1.919 -0.7767  1.1756 -0.7223
  950MOL0     H31072   5.793   3.219   1.867  0.7897 -2.1989 -2.2459
  950MOL0     H31073   5.742   3.180   1.714  2.2970  0.2526  0.0285
  950MOL0     H31074   5.772   3.470   1.799  0.4324 -0.5442  1.0399
  950MOL0     H31075   5.711   3.421   1.645 -1.2458 -0.4218  0.9955
  950MOL0     H31076   5.915   3.494   1.624  0.3217  0.1919  0.7909
  950MOL0     H31077   5.950   3.322   1.601 -0.8491 -1.9748  1.8593
  950MOL0     H31078   6.018   3.486   1.844  0.6916  2.1445 -3.7674
  950MOL0     H31079   6.126   3.415   1.731  0.5141  1.1503  0.7167
  950MOL0     H31080   5.323   3.588   1.631 -1.4316  0.4905  1.2086
  950MOL0     H31081   5.221   3.729   1.444  0.4760 -1.0744 -2.3665
  950MOL0     H31082   4.809   3.508   1.089  3.5191  1.1813  0.0791
  950MOL0     H31083   4.708   3.582   0.882 -0.0692  1.6331 -0.9974
  950MOL0     H31084   4.624   5.534   0.372  0.5316 -0.8095  1.4792
  950MOL0     H31085   4.812   5.682   0.350  0.3901 -1.2608  1.6388
  950MOL0     H31086   5.214   5.701   0.017 -1.4591  2.8186  0.1245
  950MOL0     H31087   5.374   5.844  -0.035 -0.5457  3.7311 -0.0674
  950MOL0     H31088   5.600   5.960  -0.029  1.0650 -0.0083  0.6688
  950MOL0     H31089   5.448   6.040  -0.050 -0.5039 -3.3250  0.1318
  950MOL0     H31090   5.644   6.184  -0.106 -0.6356 -1.7415  0.1394
  950MOL0     H31091   5.711   6.148   0.055 -1.7653 -3.5863  1.2473
  950MOL0     H31092   5.488   6.348  -0.039  0.6690  1.3489 -0.0125
  950MOL0     H31093   5.470   6.284   0.115 -1.4368 -3.7345 -2.7688
  950MOL0     H31094   5.690   6.376   0.183  1.0365  1.8236 -0.0169
  950MOL0     H31095   5.566   6.490   0.125  0.4746  0.7110 -1.7825
  950MOL0     H31096   5.920   6.526  -0.122 -0.1074 -1.9529 -0.5943
  950MOL0     H31097   5.442   5.949   0.376 -2.2721  0.1090  1.7069
  950MOL0     H31098   5.289   5.635   0.499 -0.2544 -0.2664  1.4047
  950MOL0     H31099   5.413   5.754   0.530  2.5285 -4.6580 -2.2694
  950MOL0     H31100   5.244   5.799   0.542 -2.5841 -1.8591 -1.2090
  951MOL0     O31101   1.309   7.440  11.483  0.0284  0.1920  0.6867
  951MOL0     C31102   1.222   7.392  11.548  0.5858 -0.0510 -0.4066
  951MOL0     O31103   1.116   7.464  11.603 -0.3195  0.3823 -0.0428
  951MOL0     C31104   1.094   7.588  11.567 -1.1843 -0.0033  0.1256
  951MOL0     C31105   1.173   7.696  11.611 -1.2996  0.1039  0.4667
  951MOL0     C31106   1.154   7.820  11.557 -0.1401  0.1246  0.8276
  951MOL0     C31107   1.059   7.845  11.455 -0.0266  0.0088 -0.2557
  951MOL0     O31108   1.058   7.965  11.388 -0.0633  0.1148  0.0935
  951MOL0     C31109   1.106   8.088  11.453 -0.0323  0.7337  0.2411
  951MOL0     C31110   1.103   8.225  11.377  0.0103  0.3600  0.1750
  951MOL0     C31111   1.179   8.333  11.445  0.3713 -0.7421 -0.4920
  951MOL0     C31112   1.103   8.465  11.443 -0.4276 -0.5739 -0.5118
  951MOL0     C31113   1.201   8.588  11.410 -0.8693  0.3668  0.1735
  951MOL0     C31114   1.128   8.712  11.448 -0.6302  0.0632 -0.6225
  951MOL0     C31115   1.172   8.838  11.377 -0.4789 -0.0426 -0.1546
  951MOL0     C31116   1.133   8.973  11.456 -0.4243 -0.5079  0.5510
  951MOL0     N31117   0.995   9.011  11.422  0.7498 -0.4057  0.6032
  951MOL0     C31118   0.950   9.106  11.331 -0.8834 -0.1031  0.2940
  951MOL0     C31119   0.821   9.106  11.330 -0.1949  0.6817  0.8004
  951MOL0     C31120   0.745   9.206  11.244 -0.0636 -0.4295 -0.1038
  951MOL0     C31121   0.629   9.165  11.154 -0.0644  0.1597  0.7398
  951MOL0     C31122   0.530   9.272  11.113 -0.5194 -0.0220 -0.0643
  951MOL0     C31123   0.424   9.241  11.005  0.1361  0.9694 -0.6100
  951MOL0     O31124   0.483   9.184  10.891 -0.2562  0.0252  0.8899
  951MOL0     C31125   0.411   9.183  10.775 -0.4007 -0.3991  0.7569
  951MOL0     C31126   0.481   9.150  10.666  0.7510  0.3026 -0.3580
  951MOL0     C31127   0.440   9.148  10.532 -0.4652  0.5304  0.0296
  951MOL0     C31128   0.547   9.101  10.426 -0.3698 -0.7327 -0.4839
  951MOL0     C31129   0.303   9.168  10.515 -0.9823 -0.2805 -0.2151
  951MOL0     C31130   0.224   9.140  10.396  0.0416  0.4446 -0.6788
  951MOL0     O31131   0.088   9.129  10.413  0.0212 -0.5484 -0.0216
  951MOL0     C31132  -0.001   9.085  10.319 -1.0055  0.0592  0.5610
  951MOL0     C31133   0.029   9.037  10.184  0.3711 -0.6572  0.7228
  951MOL0     C31134  -0.074   8.984  10.104 -0.0194  0.7418 -0.4221
  951MOL0     C31135  -0.205   8.973  10.148  0.4834 -0.1532  1.1571
  951MOL0     O31136  -0.298   8.918  10.062 -0.5732  0.2156  0.5825
  951MOL0     C31137  -0.432   8.964  10.088 -0.2476  0.4928 -0.1237
  951MOL0     C31138  -0.520   8.910   9.979  0.4345 -0.2640  0.2917
  951MOL0     C31139  -0.500   8.993   9.852 -0.1595 -0.2373 -0.2002
  951MOL0     C31140  -0.579   8.933   9.733 -0.7817 -0.4175  0.9266
  951MOL0     C31141  -0.724   8.981   9.728 -0.4484  0.0996  0.6543
  951MOL0     C31142  -0.819   8.904   9.639  0.3935 -0.0576  0.7027
  951MOL0     C31143  -0.958   8.974   9.626 -0.1973 -0.0147 -0.4159
  951MOL0     C31144  -1.050   8.878   9.544 -0.6269 -0.0257 -0.1479
  951MOL0    Cl31145  -1.018   8.889   9.371 -0.0486  0.0543  0.1387
  951MOL0     C31146  -0.237   9.005  10.281 -0.4479 -0.8973 -0.1599
  951MOL0     C31147  -0.136   9.060  10.361 -0.9385  0.3928  0.3614
  951MOL0     O31148   0.282   9.123  10.289 -1.0726  0.0863 -0.4826
  951MOL0     C31149   0.218   9.210  10.629 -0.2615  0.0289 -0.2916
  951MOL0     C31150   0.278   9.222  10.752  0.3306  1.2248  0.1395
  951MOL0     N31151   0.773   9.019  11.420 -0.1234 -0.0619  0.4115
  951MOL0     N31152   0.878   8.968  11.476 -0.6354 -0.4934 -1.1835
  951MOL0     C31153   0.981   7.736  11.419  0.7736  0.1713 -0.2512
  951MOL0     C31154   0.992   7.616  11.482  0.3931  0.1158 -0.0781
  951MOL0     C31155   1.209   7.243  11.557 -0.7595  0.0360 -0.1858
  951MOL0     C31156   1.119   7.191  11.653  0.5672  0.4395  0.6687
  951MOL0     C31157   1.087   7.054  11.647 -0.6574  0.4363  0.2987
  951MOL0     C31158   1.171   6.967  11.572 -1.1396  0.1962 -0.7194
  951MOL0     O31159   1.153   6.830  11.568  0.4129 -0.5119  0.2659
  951MOL0     C31160   1.027   6.779  11.610  1.1135 -0.2384  0.8262
  951MOL0     C31161   0.998   6.647  11.527 -0.3789  0.0783 -0.5004
  951MOL0     C31162   0.867   6.588  11.564  0.1884  0.0403 -0.5781
  951MOL0     C31163   0.827   6.468  11.472 -0.0655 -0.0578 -0.2435
  951MOL0     C31164   0.911   6.351  11.500  0.5397  0.0354  0.2121
  951MOL0     C31165   0.989   6.265  11.537 -0.1154  0.1150  0.5635
  951MOL0     C31166   1.272   7.021  11.494  0.5894  0.0791  0.4387
  951MOL0     C31167   1.294   7.152  11.488  0.3098 -0.6808  0.6174
  951MOL0     C31168   1.421   7.200  11.418  0.0891 -0.4168  0.0651
  951MOL0     H31169   1.245   7.668  11.687 -0.3667  1.2002  0.0044
  951MOL0     H31170   1.221   7.898  11.594  1.1563  0.7229 -2.3875
  951MOL0     H31171   1.212   8.064  11.464  0.2013  0.6102 -1.7889
  951MOL0     H31172   1.072   8.098  11.556 -3.3585 -2.9314 -0.2629
  951MOL0     H31173   1.128   8.219  11.271 -2.6908 -1.5527 -0.4441
  951MOL0     H31174   0.998   8.255  11.377 -0.5948 -1.5578  1.4635
  951MOL0     H31175   1.202   8.298  11.547 -2.5280 -0.5391  0.3031
  951MOL0     H31176   1.273   8.356  11.393 -0.8061  1.6792 -1.6594
  951MOL0     H31177   1.027   8.468  11.364  0.9072  1.7839 -1.8046
  951MOL0     H31178   1.047   8.478  11.536  1.9632 -1.4572  1.1531
  951MOL0     H31179   1.226   8.585  11.304 -1.9846 -2.2122 -0.0960
  951MOL0     H31180   1.296   8.586  11.464 -0.1679  1.1129 -0.9889
  951MOL0     H31181   1.019   8.714  11.442 -0.7017  0.1291  0.5760
  951MOL0     H31182   1.144   8.712  11.556 -0.9683  0.0604 -0.5729
  951MOL0     H31183   1.147   8.838  11.270  0.5596 -3.1589 -0.5183
  951MOL0     H31184   1.279   8.847  11.395 -0.7851  0.4013  1.5379
  951MOL0     H31185   1.132   8.949  11.563  1.3904 -0.6586  0.5559
  951MOL0     H31186   1.212   9.047  11.443  3.1526 -4.1535 -0.3996
  951MOL0     H31187   1.023   9.162  11.274 -2.9647  2.6518  0.1207
  951MOL0     H31188   0.809   9.265  11.177  0.5231  0.1011  0.9046
  951MOL0     H31189   0.711   9.272  11.324 -0.6352  0.1258 -0.7912
  951MOL0     H31190   0.678   9.139  11.059  0.3854  0.3773  0.9063
  951MOL0     H31191   0.564   9.083  11.183  2.1788 -1.8937  0.2465
  951MOL0     H31192   0.487   9.311  11.206 -0.8300  0.8418 -0.5698
  951MOL0     H31193   0.605   9.334  11.063  0.4776 -0.9031  0.2723
  951MOL0     H31194   0.349   9.166  11.033 -1.0152  2.3869  0.2610
  951MOL0     H31195   0.379   9.337  10.976  0.4638  0.6343 -2.3085
  951MOL0     H31196   0.586   9.131  10.684  0.3840 -1.3649  0.1814
  951MOL0     H31197   0.512   9.005  10.387 -2.4346 -0.2804  0.1444
  951MOL0     H31198   0.646   9.096  10.474  0.1907  1.1843 -1.3274
  951MOL0     H31199   0.548   9.179  10.349  4.3269 -0.2650 -0.2946
  951MOL0     H31200   0.124   9.020  10.134 -0.3969  0.7609 -1.3510
  951MOL0     H31201  -0.063   8.959   9.999 -0.8067  1.5679 -0.7196
  951MOL0     H31202  -0.485   8.924  10.175  0.0220  0.8877  0.2201
  951MOL0     H31203  -0.435   9.073  10.088  1.2454  0.5639  1.0787
  951MOL0     H31204  -0.495   8.805   9.961 -0.9006 -0.4384 -0.7171
  951MOL0     H31205  -0.625   8.916  10.009  0.1902 -0.9169 -0.3944
  951MOL0     H31206  -0.393   8.997   9.828 -0.4478  1.7928 -1.3492
  951MOL0     H31207  -0.523   9.099   9.863  0.0840 -0.3469  1.7622
  951MOL0     H31208  -0.581   8.824   9.733 -0.9758 -0.4155  1.0558
  951MOL0     H31209  -0.521   8.962   9.645 -0.8941  0.0384  0.9999
  951MOL0     H31210  -0.776   8.970   9.824  0.0286  3.8862  1.4809
  951MOL0     H31211  -0.718   9.087   9.702 -0.8770  0.0273  0.2449
  951MOL0     H31212  -0.824   8.801   9.677  2.4126 -0.8446 -0.9722
  951MOL0     H31213  -0.761   8.902   9.546  0.1837 -0.1206  0.5726
  951MOL0     H31214  -0.951   9.068   9.571  0.3430 -0.6910 -1.5343
  951MOL0     H31215  -0.998   8.986   9.728 -0.9938 -0.6959 -0.6396
  951MOL0     H31216  -1.154   8.905   9.564 -0.0649  3.0811 -0.8487
  951MOL0     H31217  -1.034   8.775   9.577  0.6079 -0.0856 -0.8480
  951MOL0     H31218  -0.338   8.995  10.322  0.2939 -0.2752  1.9625
  951MOL0     H31219  -0.161   9.093  10.461  0.8934 -3.7502  2.4584
  951MOL0     H31220   0.114   9.238  10.621 -0.0267  1.0920  0.2180
  951MOL0     H31221   0.216   9.237  10.839 -1.4389  0.8628 -0.9988
  951MOL0     H31222   0.902   7.757  11.347 -1.5990  1.3115  2.4810
  951MOL0     H31223   0.932   7.531  11.450  2.2948 -1.1706 -0.4561
  951MOL0     H31224   1.061   7.255  11.719  0.0440  1.2644 -0.5615
  951MOL0     H31225   0.999   7.032  11.707 -1.4964  1.4804 -0.5157
  951MOL0     H31226   1.033   6.750  11.715  1.4688  0.2353  0.9390
  951MOL0     H31227   0.944   6.849  11.593 -2.0003 -3.2952  2.1426
  951MOL0     H31228   1.075   6.570  11.535 -2.1898 -1.7715  0.0293
  951MOL0     H31229   0.987   6.675  11.421  4.2440  2.2721 -0.6751
  951MOL0     H31230   0.864   6.553  11.668 -0.1182  1.5127 -0.0786
  951MOL0     H31231   0.794   6.668  11.558 -0.5371 -0.4815  0.7456
  951MOL0     H31232   0.842   6.498  11.368 -1.3063 -1.6401 -0.9118
  951MOL0     H31233   0.725   6.432  11.487  0.9470 -2.4588  1.3252
  951MOL0     H31234   1.059   6.187  11.559 -1.9426 -2.3707 -1.7393
  951MOL0     H31235   1.321   6.946  11.433  0.0273 -1.6486  2.0584
  951MOL0     H31236   1.397   7.254  11.326  1.4806 -0.0498 -0.0993
  951MOL0     H31237   1.482   7.273  11.471 -2.0938  3.1631 -1.9271
  951MOL0     H31238   1.493   7.123  11.392  0.7963 -0.1489  1.1625
  952MOL0     O31239   8.035   5.276   3.098 -0.1349  0.0223  0.1197
  952MOL0     C31240   7.926   5.343   3.103  0.2398  0.9022 -0.5824
  952MOL0     O31241   7.813   5.293   3.164  0.0454  0.1037  0.4421
  952MOL0     C31242   7.811   5.151   3.181  0.4927 -0.3695  1.1324
  952MOL0     C31243   7.781   5.061   3.077  0.2621 -0.1554  0.5424
  952MOL0     C31244   7.777   4.924   3.105 -0.4914  0.2644  0.4040
  952MOL0     C31245   7.789   4.869   3.227  0.1500  0.4407 -0.5483
  952MOL0     O31246   7.779   4.728   3.241 -0.5148 -0.1090  0.5164
  952MOL0     C31247   7.848   4.659   3.351 -0.3109  0.2133  0.2179
  952MOL0     C31248   7.801   4.516   3.338 -0.4202 -0.0389  0.1550
  952MOL0     C31249   7.656   4.507   3.389  0.4205 -0.5252 -0.5855
  952MOL0     C31250   7.600   4.367   3.361  0.3003 -1.3257 -0.3659
  952MOL0     C31251   7.440   4.358   3.359  0.5845  0.0168  0.2376
  952MOL0     C31252   7.374   4.416   3.484  0.3867  0.1975 -0.1342
  952MOL0     C31253   7.231   4.358   3.498  0.0851 -0.5081  0.7535
  952MOL0     C31254   7.125   4.405   3.391 -1.0980 -0.6996 -0.3644
  952MOL0     N31255   7.004   4.331   3.372 -0.3963  0.6766  0.2537
  952MOL0     C31256   6.899   4.305   3.460 -0.1972 -0.5620  0.3806
  952MOL0     C31257   6.816   4.217   3.402 -0.5688  0.5525 -0.0223
  952MOL0     C31258   6.694   4.174   3.466 -0.0118  0.0177 -0.2480
  952MOL0     C31259   6.586   4.266   3.415 -0.7209 -0.6069 -0.2548
  952MOL0     C31260   6.449   4.259   3.476  1.0529  0.1192 -0.2534
  952MOL0     C31261   6.454   4.270   3.628  0.7178 -0.0140 -0.1708
  952MOL0     O31262   6.321   4.253   3.678  0.0118  0.0047  0.2520
  952MOL0     C31263   6.289   4.313   3.791  0.0247  0.1904 -0.4077
  952MOL0     C31264   6.276   4.451   3.792 -1.0972 -0.2866 -0.1465
  952MOL0     C31265   6.250   4.523   3.905 -0.4270  0.0620 -0.5354
  952MOL0     C31266   6.252   4.679   3.899 -0.8497 -0.2808  0.9034
  952MOL0     C31267   6.210   4.458   4.021 -0.6339  0.4455 -1.2421
  952MOL0     C31268   6.188   4.529   4.149  0.6703  0.9698 -0.3718
  952MOL0     O31269   6.080   4.494   4.221 -0.5125 -0.0893  0.7196
  952MOL0     C31270   6.046   4.558   4.332 -0.1643 -0.0091 -0.0546
  952MOL0     C31271   6.022   4.477   4.442 -0.8637 -1.1156 -0.3800
  952MOL0     C31272   6.008   4.548   4.568  1.0386 -0.3292  0.7233
  952MOL0     C31273   6.018   4.683   4.581  0.3484  0.3189  0.6869
  952MOL0     O31274   6.015   4.762   4.691 -0.0379  0.5692 -0.0998
  952MOL0     C31275   5.993   4.713   4.815  0.0640  0.1287 -0.5632
  952MOL0     C31276   6.074   4.804   4.905 -0.2043 -0.6881 -1.0786
  952MOL0     C31277   6.100   4.736   5.039  0.1283 -0.0234 -0.5284
  952MOL0     C31278   6.203   4.812   5.113 -0.3451 -0.5026  0.4987
  952MOL0     C31279   6.250   4.725   5.236  0.7315  0.2856 -0.2338
  952MOL0     C31280   6.133   4.723   5.349  0.0886  0.0179  0.7045
  952MOL0     C31281   6.157   4.636   5.469 -0.5819  0.1094 -0.7037
  952MOL0     C31282   6.290   4.678   5.537 -0.2089 -0.0400  0.6447
  952MOL0    Cl31283   6.327   4.569   5.675 -0.3551  0.1774  0.0281
  952MOL0     C31284   6.041   4.751   4.464  0.1950 -0.7044  0.7333
  952MOL0     C31285   6.066   4.695   4.341  0.6133 -0.1847  0.2537
  952MOL0     O31286   6.284   4.593   4.184 -0.2421  0.5103 -0.4062
  952MOL0     C31287   6.197   4.320   4.013 -1.2562  0.7701 -0.0355
  952MOL0     C31288   6.233   4.248   3.899 -0.0932  0.4336 -0.7564
  952MOL0     N31289   6.876   4.180   3.281  0.4483  0.0454  0.1609
  952MOL0     N31290   6.970   4.265   3.256  0.5344 -0.1486  0.9769
  952MOL0     C31291   7.827   4.958   3.330 -0.0369  0.4352 -0.1121
  952MOL0     C31292   7.829   5.099   3.308 -0.6465 -0.0998 -0.6136
  952MOL0     C31293   7.941   5.488   3.061 -0.7154  0.0871 -2.1624
  952MOL0     C31294   8.024   5.572   3.135 -1.4356 -0.0791 -0.9929
  952MOL0     C31295   8.019   5.706   3.109  0.0404 -0.8919 -0.5167
  952MOL0     C31296   7.926   5.765   3.014  0.6402 -0.2630  0.3601
  952MOL0     O31297   7.913   5.903   3.004  0.6617 -0.0221 -0.0462
  952MOL0     C31298   7.950   5.985   3.118  0.9522 -0.7415 -0.1299
  952MOL0     C31299   7.875   6.116   3.124  0.6080 -1.2044  0.1639
  952MOL0     C31300   7.906   6.189   3.255 -0.0756  0.0262  0.2411
  952MOL0     C31301   8.044   6.252   3.267 -0.9428 -0.4120  0.3282
  952MOL0     C31302   8.159   6.160   3.296 -0.2857  0.5403 -0.5662
  952MOL0     C31303   8.243   6.074   3.314 -0.6787  0.2522  0.1219
  952MOL0     C31304   7.850   5.678   2.941  0.9592 -0.1387  0.1059
  952MOL0     C31305   7.854   5.542   2.976  0.2310  0.0015  0.1389
  952MOL0     C31306   7.766   5.454   2.898  0.0258  0.1120  0.1508
  952MOL0     H31307   7.755   5.112   2.985  1.5099  1.0647  0.8150
  952MOL0     H31308   7.755   4.864   3.017  3.0158  2.0303 -1.9334
  952MOL0     H31309   7.824   4.698   3.450 -2.0460 -3.4459  1.4282
  952MOL0     H31310   7.954   4.672   3.328 -0.8993 -1.5626 -5.0499
  952MOL0     H31311   7.787   4.482   3.235 -2.0560 -1.1803  0.7147
  952MOL0     H31312   7.869   4.449   3.393 -0.3690  1.5317  2.1335
  952MOL0     H31313   7.637   4.527   3.495  1.6894 -2.1174 -0.0180
  952MOL0     H31314   7.593   4.579   3.337  0.2915 -0.5465 -0.4611
  952MOL0     H31315   7.639   4.324   3.268  1.5031 -1.4443  0.1773
  952MOL0     H31316   7.638   4.308   3.445 -0.9859  0.9481  1.9732
  952MOL0     H31317   7.420   4.250   3.352  0.7177 -0.1344  1.9619
  952MOL0     H31318   7.403   4.405   3.267 -1.3834  0.8614  1.3877
  952MOL0     H31319   7.431   4.373   3.567 -0.3120  0.4330  0.4835
  952MOL0     H31320   7.370   4.524   3.500 -5.1287  0.2843 -0.3355
  952MOL0     H31321   7.201   4.386   3.599  0.8264  1.2873  0.5210
  952MOL0     H31322   7.247   4.250   3.505 -1.0831 -0.9354 -1.9125
  952MOL0     H31323   7.108   4.513   3.399  1.4746  0.0065 -2.6448
  952MOL0     H31324   7.180   4.405   3.296  1.9318  2.1366  1.1694
  952MOL0     H31325   6.875   4.357   3.552 -0.3124 -0.9645  0.5825
  952MOL0     H31326   6.714   4.183   3.574  1.2099  1.5428 -0.5668
  952MOL0     H31327   6.664   4.070   3.449 -0.7279  0.1016  0.4214
  952MOL0     H31328   6.620   4.370   3.425  2.1140 -1.5159  0.5906
  952MOL0     H31329   6.573   4.246   3.308 -1.8892  0.4804 -0.3378
  952MOL0     H31330   6.398   4.347   3.437  2.0091  1.5050  1.4503
  952MOL0     H31331   6.394   4.166   3.459  2.5700 -1.4286  2.5199
  952MOL0     H31332   6.519   4.203   3.685  0.3502 -1.1431 -1.0453
  952MOL0     H31333   6.486   4.371   3.654 -0.3697  0.6799 -1.4371
  952MOL0     H31334   6.296   4.506   3.700 -1.0683  0.7576  0.4682
  952MOL0     H31335   6.338   4.719   3.953  2.9041 -4.1336 -1.5364
  952MOL0     H31336   6.156   4.719   3.934 -0.7697  2.4701 -1.6789
  952MOL0     H31337   6.260   4.712   3.795 -2.8529 -2.9752 -0.2286
  952MOL0     H31338   6.013   4.369   4.431  1.6114 -1.1748 -2.9405
  952MOL0     H31339   5.972   4.486   4.650 -0.8796 -1.3560 -0.7915
  952MOL0     H31340   5.889   4.722   4.846 -0.9865 -1.1152 -3.4272
  952MOL0     H31341   6.024   4.610   4.834  1.5429  1.3283  6.5915
  952MOL0     H31342   6.165   4.827   4.848 -1.0711  3.1247 -1.1792
  952MOL0     H31343   6.024   4.899   4.926  2.1385  0.2576  0.7433
  952MOL0     H31344   6.145   4.643   5.003  3.0191  1.1022 -0.0968
  952MOL0     H31345   6.012   4.715   5.101 -0.0871  1.4776 -0.2813
  952MOL0     H31346   6.180   4.917   5.134  0.2864  0.0697 -1.4334
  952MOL0     H31347   6.292   4.820   5.049 -0.7589  1.7893  0.1240
  952MOL0     H31348   6.268   4.622   5.201 -0.0437  0.2975 -0.6797
  952MOL0     H31349   6.344   4.766   5.274  0.1283  0.0147  1.6307
  952MOL0     H31350   6.041   4.678   5.312  1.0118 -2.1415  0.8929
  952MOL0     H31351   6.113   4.825   5.382  3.2381  1.3385 -1.0570
  952MOL0     H31352   6.174   4.534   5.432 -0.8102 -0.9154  1.7968
  952MOL0     H31353   6.074   4.647   5.539 -1.6914  1.9450 -2.2196
  952MOL0     H31354   6.272   4.773   5.587  0.2462 -0.8091  2.3411
  952MOL0     H31355   6.377   4.684   5.471 -0.2063  4.5172  0.7907
  952MOL0     H31356   6.041   4.859   4.461  0.0479 -0.7076 -2.5562
  952MOL0     H31357   6.086   4.756   4.254  0.0118  0.8481  0.8111
  952MOL0     H31358   6.128   4.276   4.085 -0.8955  0.9024  0.3982
  952MOL0     H31359   6.201   4.145   3.888 -0.1429  0.6537 -3.4759
  952MOL0     H31360   7.853   4.915   3.427  0.5028  3.6691  1.3268
  952MOL0     H31361   7.855   5.172   3.384 -0.1621 -2.0480  1.1876
  952MOL0     H31362   8.093   5.532   3.209 -0.5358 -2.6936 -3.0954
  952MOL0     H31363   8.085   5.762   3.174 -0.8487  0.9859 -1.1444
  952MOL0     H31364   7.924   5.937   3.212  4.0058  1.5448  2.0821
  952MOL0     H31365   8.058   6.002   3.109  1.4241 -3.2705  0.2169
  952MOL0     H31366   7.767   6.101   3.118  0.4345 -0.0512  0.0011
  952MOL0     H31367   7.883   6.187   3.040 -1.1223 -1.2048 -0.0403
  952MOL0     H31368   7.836   6.272   3.269 -1.4000 -0.9980 -0.1805
  952MOL0     H31369   7.883   6.117   3.335 -4.2359  0.7457 -0.0971
  952MOL0     H31370   8.048   6.325   3.348  1.6288 -0.4307  0.2930
  952MOL0     H31371   8.064   6.313   3.178 -0.3315 -0.9984  0.0502
  952MOL0     H31372   8.316   5.996   3.312 -1.5399 -0.5853 -2.2194
  952MOL0     H31373   7.769   5.718   2.880  1.0945  1.6384  1.0103
  952MOL0     H31374   7.795   5.349   2.899 -0.3446 -0.0467  3.1731
  952MOL0     H31375   7.667   5.456   2.944  0.6269  1.8019  1.4998
  952MOL0     H31376   7.749   5.482   2.794  0.6135 -0.9641 -0.2540
  953MOL0     O31377   4.589   7.682  11.078  0.0439  0.6692 -0.6848
  953MOL0     C31378   4.474   7.655  11.043  0.8393  0.5638 -0.1563
  953MOL0     O31379   4.370   7.662  11.115  0.2190 -1.0048 -0.3937
  953MOL0     C31380   4.383   7.718  11.240  0.8631  0.2712 -0.2240
  953MOL0     C31381   4.452   7.831  11.287 -0.5533 -0.6850  0.2281
  953MOL0     C31382   4.441   7.873  11.422  0.1814 -0.5665 -0.1877
  953MOL0     C31383   4.361   7.794  11.511  0.2372  0.3379  0.8157
  953MOL0     O31384   4.330   7.831  11.642  0.4347 -0.2585  0.3375
  953MOL0     C31385   4.357   7.966  11.693  0.7220 -0.3008 -0.8195
  953MOL0     C31386   4.332   7.965  11.839 -0.3404  0.2681 -0.4703
  953MOL0     C31387   4.188   7.931  11.891 -0.2140 -0.3090 -0.1626
  953MOL0     C31388   4.155   7.787  11.906  0.2597 -0.4189  0.1692
  953MOL0     C31389   4.016   7.759  11.942  0.4659 -0.0055 -0.0781
  953MOL0     C31390   4.013   7.607  11.968  0.1074 -0.1147 -0.4263
  953MOL0     C31391   3.869   7.571  12.002 -0.9652 -0.1754  0.5193
  953MOL0     C31392   3.868   7.438  12.084  0.2309 -0.0266  0.6497
  953MOL0     N31393   3.729   7.410  12.132 -1.1525 -1.1550 -0.4664
  953MOL0     C31394   3.636   7.343  12.068 -0.2427 -0.5465  0.3128
  953MOL0     C31395   3.523   7.374  12.131  0.9523 -0.3309 -0.0448
  953MOL0     C31396   3.384   7.334  12.089 -0.0518 -0.2008  0.6773
  953MOL0     C31397   3.360   7.197  12.157 -0.3353 -0.8794 -0.2388
  953MOL0     C31398   3.327   7.214  12.310  0.0804 -0.1724  1.1379
  953MOL0     C31399   3.323   7.073  12.365  0.0479  0.5639 -0.1754
  953MOL0     O31400   3.452   7.010  12.373 -0.5368  0.1142 -0.0476
  953MOL0     C31401   3.458   6.886  12.434 -0.8552 -0.5222 -0.0523
  953MOL0     C31402   3.583   6.832  12.453  0.2221 -0.0850  0.6034
  953MOL0     C31403   3.608   6.715  12.527  1.1388 -0.0185  0.3904
  953MOL0     C31404   3.743   6.657  12.524 -0.6544 -0.3353  0.1050
  953MOL0     C31405   3.495   6.653  12.595 -0.3074 -0.4158  0.3213
  953MOL0     C31406   3.501   6.530  12.672 -0.5031  0.3285 -0.1619
  953MOL0     O31407   3.385   6.460  12.674 -0.1583 -0.4043 -0.2729
  953MOL0     C31408   3.390   6.327  12.705  0.4496  0.5080 -0.6229
  953MOL0     C31409   3.296   6.284  12.800  0.0275 -1.0523 -0.2905
  953MOL0     C31410   3.291   6.161  12.857 -0.6219  0.8192 -0.6948
  953MOL0     C31411   3.382   6.066  12.807  0.5180  0.5548  0.4735
  953MOL0     O31412   3.370   5.938  12.844 -0.4426  0.7136 -0.0613
  953MOL0     C31413   3.401   5.838  12.748  0.1297  0.3393  0.1955
  953MOL0     C31414   3.336   5.709  12.772 -0.4997  0.3507  0.0959
  953MOL0     C31415   3.384   5.646  12.908 -0.8557  0.4186 -0.1302
  953MOL0     C31416   3.292   5.530  12.965 -0.2242  0.2119  0.2014
  953MOL0     C31417   3.344   5.489  13.099  0.2130 -0.2219  0.1275
  953MOL0     C31418   3.476   5.411  13.083  0.3672  1.0238 -0.0610
  953MOL0     C31419   3.448   5.258  13.112  0.2326  0.5225  0.0091
  953MOL0     C31420   3.585   5.198  13.124  0.1166 -0.1024  0.6030
  953MOL0    Cl31421   3.575   5.044  13.212 -0.3536  0.0051 -0.2766
  953MOL0     C31422   3.476   6.100  12.706 -0.1804 -0.6502 -0.6385
  953MOL0     C31423   3.480   6.227  12.667  0.7035 -0.3108  0.6124
  953MOL0     O31424   3.612   6.486  12.703 -0.1208  0.0053 -0.7025
  953MOL0     C31425   3.371   6.712  12.576  0.0826  0.3482 -0.3850
  953MOL0     C31426   3.352   6.826  12.498  0.3242  0.2103  0.4202
  953MOL0     N31427   3.551   7.455  12.242 -0.2664  0.0870 -0.2510
  953MOL0     N31428   3.677   7.479  12.238 -0.0089 -0.7460  0.3879
  953MOL0     C31429   4.290   7.679  11.462 -0.4518 -0.9856  0.4315
  953MOL0     C31430   4.294   7.655  11.332  0.5959  0.3866  0.6862
  953MOL0     C31431   4.452   7.580  10.923 -0.0359 -0.1033  0.2182
  953MOL0     C31432   4.564   7.555  10.841 -0.4415  0.0840  0.0812
  953MOL0     C31433   4.574   7.475  10.728  0.8241 -0.1660  0.0790
  953MOL0     C31434   4.458   7.432  10.664 -0.4712  0.0675 -0.1545
  953MOL0     O31435   4.470   7.355  10.561  0.4162  0.1901 -0.2281
  953MOL0     C31436   4.363   7.373  10.455 -0.3630  0.3052  0.6163
  953MOL0     C31437   4.412   7.333  10.316  0.1936  0.2222 -0.0016
  953MOL0     C31438   4.453   7.184  10.324 -0.2719  0.3392 -0.7507
  953MOL0     C31439   4.464   7.128  10.183  0.1240  0.6473  0.0935
  953MOL0     C31440   4.574   7.187  10.107  0.3198 -0.5154  0.2341
  953MOL0     C31441   4.673   7.225  10.057 -0.6964 -0.2684 -0.7405
  953MOL0     C31442   4.337   7.462  10.726  0.0435  0.2110 -0.6476
  953MOL0     C31443   4.335   7.535  10.854  0.3199  0.1974 -0.3716
  953MOL0     C31444   4.195   7.556  10.903  0.3609  1.0208 -1.0840
  953MOL0     H31445   4.518   7.883  11.219  4.0901 -2.0474  3.2040
  953MOL0     H31446   4.501   7.958  11.452  1.8769 -2.0671  0.9398
  953MOL0     H31447   4.271   8.024  11.659  0.5219  0.4522  0.8552
  953MOL0     H31448   4.457   8.003  11.671  1.0389 -0.5076  0.1893
  953MOL0     H31449   4.403   7.899  11.891 -2.9432  0.6561  4.1242
  953MOL0     H31450   4.371   8.066  11.859  2.4296  0.0592 -3.7848
  953MOL0     H31451   4.169   7.982  11.986 -0.8848  1.7266 -1.3419
  953MOL0     H31452   4.122   7.978  11.817 -0.2992  0.3289  0.3099
  953MOL0     H31453   4.176   7.727  11.817  1.5728 -0.8158  0.7233
  953MOL0     H31454   4.223   7.754  11.985 -2.2443 -1.3507  2.0574
  953MOL0     H31455   3.947   7.774  11.858 -0.3769 -1.5630  0.2876
  953MOL0     H31456   3.987   7.827  12.023 -1.7133 -1.5616  0.5694
  953MOL0     H31457   4.058   7.557  11.882  3.0229  3.4957 -1.2512
  953MOL0     H31458   4.077   7.593  12.056 -0.0843  1.3468 -0.0224
  953MOL0     H31459   3.805   7.562  11.914 -0.5222 -0.9023  0.2614
  953MOL0     H31460   3.828   7.655  12.059 -0.0203  1.0111 -0.5125
  953MOL0     H31461   3.906   7.367  12.010  0.7278 -0.8890  1.7119
  953MOL0     H31462   3.942   7.440  12.164  0.3217 -0.4668  0.5796
  953MOL0     H31463   3.671   7.288  11.981  1.1526  1.6566 -0.6075
  953MOL0     H31464   3.373   7.317  11.981 -1.5095 -1.5137  1.0051
  953MOL0     H31465   3.305   7.404  12.118 -0.7460 -0.0795 -1.3046
  953MOL0     H31466   3.282   7.143  12.102  0.6384 -2.2437 -0.3328
  953MOL0     H31467   3.443   7.127  12.145 -1.1690 -2.5208  2.6541
  953MOL0     H31468   3.409   7.270  12.357 -0.0799  1.5979 -0.5976
  953MOL0     H31469   3.238   7.273  12.331  1.2018  1.7278  0.7920
  953MOL0     H31470   3.284   7.080  12.468  4.5634  0.5942  1.7694
  953MOL0     H31471   3.255   7.021  12.297 -1.6235  0.3207  1.5888
  953MOL0     H31472   3.674   6.877  12.413 -0.4443  0.6945 -0.0653
  953MOL0     H31473   3.793   6.705  12.439 -1.8702 -0.2793 -0.6107
  953MOL0     H31474   3.740   6.552  12.491 -0.2480 -0.4304  0.3674
  953MOL0     H31475   3.805   6.667  12.613  1.1475  1.1776 -1.2266
  953MOL0     H31476   3.228   6.359  12.838 -0.1827 -1.6754  0.5884
  953MOL0     H31477   3.218   6.147  12.936 -0.5018 -2.0904 -1.0085
  953MOL0     H31478   3.362   5.868  12.651  0.7393 -1.9671 -0.8391
  953MOL0     H31479   3.509   5.823  12.738  0.2937  2.2120 -1.5094
  953MOL0     H31480   3.230   5.717  12.796 -0.3049 -2.1596  2.3255
  953MOL0     H31481   3.338   5.639  12.688 -0.4923  0.8525 -0.3261
  953MOL0     H31482   3.389   5.730  12.978 -3.8930 -0.3592  1.1798
  953MOL0     H31483   3.478   5.592  12.889 -1.8722 -1.5775  0.2552
  953MOL0     H31484   3.287   5.440  12.903 -1.5193  2.3928 -3.1566
  953MOL0     H31485   3.187   5.562  12.969 -0.6713 -1.0761 -0.6501
  953MOL0     H31486   3.362   5.572  13.168 -1.7781 -0.5409  1.1036
  953MOL0     H31487   3.272   5.430  13.156  0.8685 -2.3392 -1.1172
  953MOL0     H31488   3.550   5.446  13.155 -1.0268 -0.5751  2.2661
  953MOL0     H31489   3.515   5.407  12.981  2.1576 -1.4582  0.6420
  953MOL0     H31490   3.386   5.207  13.037 -1.0280  1.4002  0.4233
  953MOL0     H31491   3.395   5.249  13.208 -2.2921 -3.0761 -1.5123
  953MOL0     H31492   3.643   5.272  13.179 -0.6103 -0.5652  2.0415
  953MOL0     H31493   3.630   5.185  13.025  0.1429  0.6632  0.5108
  953MOL0     H31494   3.552   6.026  12.685  0.4549 -0.3796  0.5919
  953MOL0     H31495   3.554   6.241  12.589 -1.2284  3.8578 -0.7707
  953MOL0     H31496   3.280   6.667  12.615 -0.0986  2.1543  1.4268
  953MOL0     H31497   3.252   6.869  12.497  0.1032 -0.2848  0.9521
  953MOL0     H31498   4.223   7.621  11.525 -1.2872 -1.5679 -0.9416
  953MOL0     H31499   4.251   7.569  11.281  2.2120  0.4950 -0.9776
  953MOL0     H31500   4.660   7.596  10.871  1.1192 -2.7769 -0.6042
  953MOL0     H31501   4.672   7.447  10.692  1.6411  1.1656  1.1710
  953MOL0     H31502   4.270   7.319  10.476  0.0450 -0.4841  0.4271
  953MOL0     H31503   4.330   7.477  10.444 -2.7976 -0.2489  1.9165
  953MOL0     H31504   4.491   7.396  10.275 -1.0717  1.9068  0.0722
  953MOL0     H31505   4.320   7.330  10.258  0.8229 -0.5814 -0.9997
  953MOL0     H31506   4.544   7.170  10.382  0.1112 -0.7893 -1.5881
  953MOL0     H31507   4.379   7.121  10.374  0.2904 -1.4049 -2.0167
  953MOL0     H31508   4.369   7.147  10.133 -0.1282 -1.5150 -0.3355
  953MOL0     H31509   4.469   7.019  10.185 -0.9173  0.5488 -1.2121
  953MOL0     H31510   4.764   7.254  10.007 -0.5962  4.0608  1.5246
  953MOL0     H31511   4.238   7.430  10.698  0.2065 -3.7316  2.3766
  953MOL0     H31512   4.191   7.494  10.993  0.2228  1.0966 -1.0379
  953MOL0     H31513   4.178   7.655  10.947  0.4673  0.1226  1.1264
  953MOL0     H31514   4.115   7.545  10.829 -1.1411  0.7940  0.5212
  954MOL0     O31515   2.904   7.104   9.479 -0.6102 -0.7712  0.1319
  954MOL0     C31516   2.915   7.156   9.369  0.2048 -0.4447  0.5529
  954MOL0     O31517   2.822   7.130   9.275 -0.7866  0.3341  0.9954
  954MOL0     C31518   2.699   7.081   9.282 -0.8227  0.1500 -1.0448
  954MOL0     C31519   2.643   7.021   9.393 -0.6350 -0.9079  0.3723
  954MOL0     C31520   2.521   6.965   9.381 -0.4606 -0.2398 -1.1757
  954MOL0     C31521   2.448   6.962   9.261  0.5532  0.4211 -0.3749
  954MOL0     O31522   2.324   6.907   9.287 -0.4278 -0.1062  0.7972
  954MOL0     C31523   2.231   6.930   9.177  0.0953 -0.3154 -0.4493
  954MOL0     C31524   2.108   6.840   9.184  0.9874 -0.0856  0.3930
  954MOL0     C31525   2.046   6.866   9.317 -0.1772  0.7946 -0.0481
  954MOL0     C31526   1.967   6.996   9.309 -0.8860 -1.2496 -0.5400
  954MOL0     C31527   1.869   7.017   9.421 -0.1559 -0.7338 -0.2073
  954MOL0     C31528   1.938   7.026   9.561 -0.4332  0.2718 -0.0321
  954MOL0     C31529   2.016   7.154   9.589  0.1967  0.3439 -0.4985
  954MOL0     C31530   2.172   7.147   9.566  0.4027 -0.1285 -1.0024
  954MOL0     N31531   2.240   7.061   9.663 -0.3829 -0.1899 -0.6981
  954MOL0     C31532   2.294   6.940   9.638  0.5581  0.2018 -0.0728
  954MOL0     C31533   2.345   6.896   9.756  0.4646 -0.9281  0.9803
  954MOL0     C31534   2.417   6.770   9.782  0.3145 -0.1416 -0.3770
  954MOL0     C31535   2.570   6.790   9.756 -0.1360 -0.3613 -0.2136
  954MOL0     C31536   2.635   6.657   9.732 -1.0753  1.2098  0.8885
  954MOL0     C31537   2.788   6.646   9.719  0.8412  0.4836  0.4324
  954MOL0     O31538   2.838   6.701   9.846  0.4592  0.5320  0.0038
  954MOL0     C31539   2.890   6.827   9.871 -0.5970  0.1924 -0.0371
  954MOL0     C31540   2.916   6.853  10.003  0.6389 -0.7715  0.3397
  954MOL0     C31541   2.945   6.985  10.046 -0.0049  0.5202  0.2038
  954MOL0     C31542   2.958   7.003  10.192  0.1171 -0.4868 -0.8537
  954MOL0     C31543   2.969   7.085   9.944  0.0314 -0.2545 -0.6800
  954MOL0     C31544   3.009   7.224   9.981  0.2677 -0.4906 -0.0861
  954MOL0     O31545   2.984   7.330   9.900 -0.9430  0.5057 -0.6288
  954MOL0     C31546   3.035   7.452   9.936  0.5701 -0.3116 -0.6736
  954MOL0     C31547   2.962   7.530  10.033 -0.0149 -0.5276 -0.7613
  954MOL0     C31548   3.012   7.651  10.071  0.1281  0.6445  0.0512
  954MOL0     C31549   3.125   7.705  10.008 -0.7428 -0.1373 -0.9790
  954MOL0     O31550   3.171   7.838  10.042  0.0277  0.0121 -0.0664
  954MOL0     C31551   3.088   7.931  10.115 -0.1832 -0.3605  0.2714
  954MOL0     C31552   3.175   8.054  10.149  0.9883  0.8326  0.0066
  954MOL0     C31553   3.305   8.019  10.236 -0.9508 -0.3788 -0.1137
  954MOL0     C31554   3.402   8.130  10.243  0.3392  1.0246  0.7835
  954MOL0     C31555   3.547   8.063  10.270 -0.5858 -0.2783  0.2464
  954MOL0     C31556   3.647   8.182  10.289  0.1020  0.4330  0.3255
  954MOL0     C31557   3.800   8.132  10.268 -0.5269  0.0076 -0.4236
  954MOL0     C31558   3.879   8.272  10.250 -0.0096  0.1754  0.1305
  954MOL0    Cl31559   3.858   8.377  10.410 -0.6247  0.3469  0.0438
  954MOL0     C31560   3.200   7.619   9.929 -0.1429  0.4594  0.4285
  954MOL0     C31561   3.161   7.487   9.899  0.5817 -0.3486 -0.3469
  954MOL0     O31562   3.089   7.226  10.077 -0.6176 -0.2323  0.2355
  954MOL0     C31563   2.934   7.062   9.813 -0.0626 -0.5539  0.6586
  954MOL0     C31564   2.896   6.925   9.771 -1.0147 -0.0981 -1.4030
  954MOL0     N31565   2.318   6.994   9.854 -0.6844 -0.9827  0.3663
  954MOL0     N31566   2.256   7.099   9.793  0.2807 -0.0421 -0.7552
  954MOL0     C31567   2.497   7.038   9.159  0.8161 -0.7973  0.6819
  954MOL0     C31568   2.622   7.093   9.170 -0.5303 -0.2096  0.0751
  954MOL0     C31569   3.045   7.231   9.339 -0.4866  0.2032  0.9126
  954MOL0     C31570   3.150   7.242   9.434  0.2876  0.1292 -0.8356
  954MOL0     C31571   3.280   7.287   9.397  0.7614  0.7873  0.2030
  954MOL0     C31572   3.301   7.343   9.271 -0.4411 -0.9046 -0.4570
  954MOL0     O31573   3.420   7.409   9.235  0.9761 -0.4277  0.1895
  954MOL0     C31574   3.517   7.329   9.165 -0.1342 -0.5052  0.2828
  954MOL0     C31575   3.642   7.282   9.254  0.3665 -1.0455  0.0574
  954MOL0     C31576   3.689   7.394   9.342 -0.3779 -0.4049 -0.2608
  954MOL0     C31577   3.817   7.346   9.403 -0.6313 -0.0505  0.5284
  954MOL0     C31578   3.865   7.455   9.492 -0.4467 -0.0152 -0.0942
  954MOL0     C31579   3.897   7.552   9.564 -0.3795  0.3481  0.8417
  954MOL0     C31580   3.191   7.347   9.185 -0.1247 -0.1680 -0.2061
  954MOL0     C31581   3.066   7.285   9.214  0.0958 -0.1851 -0.7241
  954MOL0     C31582   2.965   7.282   9.089 -0.3834  0.4877  0.1374
  954MOL0     H31583   2.682   7.039   9.493 -0.1909  0.7140 -0.0666
  954MOL0     H31584   2.468   6.935   9.471 -1.0873  0.2621 -1.3649
  954MOL0     H31585   2.284   6.912   9.083  1.7499 -0.0160  0.3823
  954MOL0     H31586   2.195   7.033   9.180 -0.1059 -0.4045  0.2340
  954MOL0     H31587   2.046   6.878   9.102 -1.2885 -1.7661  1.2544
  954MOL0     H31588   2.113   6.732   9.167 -4.0526 -0.8074  2.0386
  954MOL0     H31589   1.979   6.786   9.350  0.1106  0.5705  0.0013
  954MOL0     H31590   2.122   6.879   9.394 -2.4537  1.0682  2.2781
  954MOL0     H31591   2.035   7.082   9.308 -1.0853 -1.0921 -0.5946
  954MOL0     H31592   1.916   6.992   9.212  2.2099 -2.3008 -2.2710
  954MOL0     H31593   1.799   6.934   9.434  0.6788 -1.2426  1.3110
  954MOL0     H31594   1.823   7.114   9.401  1.8402  0.1625 -0.6672
  954MOL0     H31595   1.866   6.998   9.638 -0.8718  1.8430  0.1794
  954MOL0     H31596   2.007   6.941   9.563 -0.3824  0.3354  1.0735
  954MOL0     H31597   1.993   7.179   9.693 -0.5039 -1.0406 -0.2958
  954MOL0     H31598   1.975   7.227   9.519  0.8252 -1.4217 -2.8320
  954MOL0     H31599   2.192   7.110   9.465  1.5073 -0.1418 -0.7849
  954MOL0     H31600   2.211   7.249   9.569  1.8378 -0.6738  0.6986
  954MOL0     H31601   2.292   6.874   9.552  0.6081 -0.5886  0.5210
  954MOL0     H31602   2.385   6.697   9.707  0.5450  1.7695 -2.4797
  954MOL0     H31603   2.395   6.740   9.884 -1.9485  3.5138  0.3931
  954MOL0     H31604   2.594   6.863   9.678 -1.8976  0.2711 -0.2042
  954MOL0     H31605   2.620   6.837   9.842  1.3306  4.0139 -3.0876
  954MOL0     H31606   2.602   6.588   9.810 -2.5290  0.6505 -0.1669
  954MOL0     H31607   2.596   6.622   9.635 -2.5724  1.5819  1.3237
  954MOL0     H31608   2.805   6.538   9.721 -0.6306  0.1920 -0.6858
  954MOL0     H31609   2.831   6.690   9.629  2.6253  1.2619  1.6009
  954MOL0     H31610   2.915   6.767  10.070  0.5684  1.3227  3.1910
  954MOL0     H31611   3.050   7.055  10.219 -1.5833  2.3292 -0.1678
  954MOL0     H31612   2.958   6.909  10.249  2.5079 -0.8100 -1.2563
  954MOL0     H31613   2.873   7.068  10.213  0.4848  0.6107 -2.6144
  954MOL0     H31614   2.864   7.495  10.064  0.8874 -0.2215  2.8444
  954MOL0     H31615   2.944   7.703  10.138  0.8169 -1.2094  2.3342
  954MOL0     H31616   3.001   7.970  10.062  2.4890  2.7726 -2.2464
  954MOL0     H31617   3.068   7.876  10.207 -2.0179  1.7257  1.2034
  954MOL0     H31618   3.198   8.104  10.055  0.7199  0.1167 -0.4529
  954MOL0     H31619   3.100   8.111  10.204 -0.3504 -0.6312 -0.2128
  954MOL0     H31620   3.348   7.933  10.184  0.6949  0.2506  0.1300
  954MOL0     H31621   3.279   7.995  10.339  0.0315  1.3191  0.5782
  954MOL0     H31622   3.360   8.208  10.306 -4.4716  1.7412 -2.7295
  954MOL0     H31623   3.411   8.174  10.143 -1.1951  2.2499  1.1512
  954MOL0     H31624   3.550   7.990  10.352 -0.8793 -1.6212 -0.9025
  954MOL0     H31625   3.580   8.007  10.182  1.8621  0.5399  0.5776
  954MOL0     H31626   3.625   8.219  10.390 -0.7558 -1.0199  0.7057
  954MOL0     H31627   3.627   8.268  10.225  1.2017  0.4087 -0.0752
  954MOL0     H31628   3.820   8.067  10.182  1.5116 -0.3271  0.2495
  954MOL0     H31629   3.828   8.077  10.358  0.8795 -1.1653 -1.5302
  954MOL0     H31630   3.843   8.333  10.166  2.5045  0.4075 -0.8507
  954MOL0     H31631   3.985   8.262  10.227 -0.0712  3.1842 -2.1693
  954MOL0     H31632   3.298   7.637   9.885  0.0497 -2.0122 -0.3255
  954MOL0     H31633   3.220   7.409   9.852  4.3734  0.2532  2.9046
  954MOL0     H31634   2.938   7.150   9.749  0.8138 -0.1341  1.2528
  954MOL0     H31635   2.875   6.884   9.672  0.1400 -1.2154 -1.2109
  954MOL0     H31636   2.452   7.067   9.065  1.7451 -0.5270  0.3059
  954MOL0     H31637   2.668   7.154   9.094  0.1973  0.4591  1.0203
  954MOL0     H31638   3.130   7.216   9.538 -2.3566 -0.6111 -1.4523
  954MOL0     H31639   3.356   7.293   9.475 -0.4114  1.2902  1.3384
  954MOL0     H31640   3.483   7.232   9.128  3.6871 -2.1347  0.5791
  954MOL0     H31641   3.569   7.389   9.089  1.5775 -3.9295 -1.5062
  954MOL0     H31642   3.722   7.256   9.185  1.3986 -0.9557  1.1899
  954MOL0     H31643   3.620   7.189   9.307  0.6953  0.6417  3.4005
  954MOL0     H31644   3.706   7.484   9.283 -1.3554 -1.0512 -1.5743
  954MOL0     H31645   3.618   7.424   9.419 -0.4325  2.2197 -1.2554
  954MOL0     H31646   3.891   7.325   9.325 -0.3158 -0.5927  0.9593
  954MOL0     H31647   3.812   7.258   9.469 -2.9108  0.6439  1.3739
  954MOL0     H31648   3.924   7.628   9.635  1.3644  3.4139 -2.7447
  954MOL0     H31649   3.201   7.394   9.087 -1.4075 -1.6011 -1.0722
  954MOL0     H31650   2.875   7.338   9.115 -2.0024 -2.1023  0.4740
  954MOL0     H31651   3.001   7.320   8.993 -2.4816 -1.3255 -1.4653
  954MOL0     H31652   2.945   7.178   9.065  1.0686 -0.6074  3.1863
  955MOL0     O31653   3.838   3.391   0.403  0.7491  0.6187 -0.0286
  955MOL0     C31654   3.836   3.366   0.525 -0.5427  0.0479  0.1398
  955MOL0     O31655   3.801   3.449   0.626  0.1425  0.7837  0.4936
  955MOL0     C31656   3.690   3.517   0.606 -0.1578  0.1629 -0.1020
  955MOL0     C31657   3.691   3.649   0.544 -0.4054  0.2805 -0.6964
  955MOL0     C31658   3.567   3.705   0.515 -1.0150  0.4025  0.7704
  955MOL0     C31659   3.443   3.636   0.540 -0.3077 -0.7242 -0.4289
  955MOL0     O31660   3.327   3.698   0.497  0.5285 -0.7202 -0.3617
  955MOL0     C31661   3.209   3.623   0.522  0.1627  0.2459 -0.4852
  955MOL0     C31662   3.080   3.696   0.475 -0.1470  0.0476 -0.3957
  955MOL0     C31663   3.084   3.716   0.319  0.4790  1.0786 -0.3937
  955MOL0     C31664   3.056   3.581   0.243  0.0224  0.2360  0.2455
  955MOL0     C31665   3.066   3.594   0.097  0.0589  0.0107 -0.1053
  955MOL0     C31666   2.942   3.660   0.050  0.0107  0.0338 -0.2136
  955MOL0     C31667   2.912   3.638  -0.099  0.2429 -0.1161 -0.9867
  955MOL0     C31668   2.801   3.724  -0.147 -0.5935 -0.1475 -0.0918
  955MOL0     N31669   2.724   3.684  -0.268  0.3230 -0.3995 -0.0704
  955MOL0     C31670   2.752   3.604  -0.372  0.4586  1.5179 -0.7530
  955MOL0     C31671   2.643   3.598  -0.449 -0.2268  0.2392  0.1889
  955MOL0     C31672   2.627   3.525  -0.582 -0.1651  0.0308 -0.5368
  955MOL0     C31673   2.579   3.632  -0.683 -0.6216  0.6557  0.1966
  955MOL0     C31674   2.662   3.765  -0.686  0.2311 -0.6774 -0.4430
  955MOL0     C31675   2.814   3.735  -0.698 -0.1304 -0.3925 -0.1138
  955MOL0     O31676   2.877   3.857  -0.716  0.1211 -0.5551  0.0509
  955MOL0     C31677   2.999   3.864  -0.658  0.0318 -1.1454 -0.1099
  955MOL0     C31678   2.996   3.895  -0.523 -0.4366 -0.7460  0.2865
  955MOL0     C31679   3.113   3.921  -0.455 -0.6335 -0.2813 -0.4893
  955MOL0     C31680   3.083   3.960  -0.308 -0.3159  0.7549 -0.0369
  955MOL0     C31681   3.237   3.882  -0.512  0.3514 -0.4624 -0.6309
  955MOL0     C31682   3.364   3.908  -0.448  1.2022 -0.7260  0.0477
  955MOL0     O31683   3.429   4.014  -0.493  0.2588  0.2970 -0.5225
  955MOL0     C31684   3.534   4.052  -0.414 -0.1401 -0.5173 -0.4771
  955MOL0     C31685   3.531   4.178  -0.361  0.2168 -0.5627 -0.9638
  955MOL0     C31686   3.642   4.228  -0.298 -0.4551 -0.1177 -0.4215
  955MOL0     C31687   3.754   4.152  -0.271  0.4122  0.2196  0.6938
  955MOL0     O31688   3.847   4.222  -0.202  0.5866 -0.3979 -0.0632
  955MOL0     C31689   3.979   4.163  -0.188 -0.3625  0.2741  0.6622
  955MOL0     C31690   4.072   4.247  -0.102  0.4851 -0.1132  0.7275
  955MOL0     C31691   4.182   4.155  -0.043  0.3373 -0.3908  0.1362
  955MOL0     C31692   4.243   4.231   0.072 -0.2814 -0.8057 -0.0151
  955MOL0     C31693   4.370   4.169   0.141  0.2615  0.1167 -0.6451
  955MOL0     C31694   4.340   4.066   0.252  0.5101 -0.9582 -0.0013
  955MOL0     C31695   4.466   4.055   0.344  0.6161  0.5636  0.0840
  955MOL0     C31696   4.451   3.920   0.414 -0.9439  0.0246 -0.3888
  955MOL0    Cl31697   4.293   3.932   0.510 -0.2843  0.1496  0.0894
  955MOL0     C31698   3.755   4.016  -0.321 -1.1880  0.1542  0.1644
  955MOL0     C31699   3.641   3.970  -0.388 -0.5942 -0.7722 -0.0106
  955MOL0     O31700   3.380   3.843  -0.345  0.2806 -0.4865  0.3382
  955MOL0     C31701   3.241   3.851  -0.646  0.2803  0.2486  0.7885
  955MOL0     C31702   3.124   3.847  -0.718  1.0228 -0.0587 -1.0832
  955MOL0     N31703   2.541   3.671  -0.391 -0.3103  0.0962  1.1368
  955MOL0     N31704   2.600   3.720  -0.282  0.4283 -0.0987  0.1624
  955MOL0     C31705   3.448   3.508   0.599 -0.3170 -0.2199 -0.5969
  955MOL0     C31706   3.571   3.457   0.640  0.0432  0.0338  0.2492
  955MOL0     C31707   3.898   3.238   0.560 -0.7734 -0.4765 -0.0349
  955MOL0     C31708   3.817   3.150   0.628 -0.1825  0.8478  0.1781
  955MOL0     C31709   3.867   3.025   0.656  0.0617  0.9299 -0.7622
  955MOL0     C31710   3.997   2.978   0.629 -0.0813  0.3454  0.0883
  955MOL0     O31711   4.056   2.854   0.664  0.1336  0.5243 -0.6535
  955MOL0     C31712   4.073   2.817   0.812 -0.2050  0.2581  0.3417
  955MOL0     C31713   4.201   2.877   0.863 -0.6603  1.0870 -0.8704
  955MOL0     C31714   4.231   2.866   1.012 -0.3997  0.0887  0.0664
  955MOL0     C31715   4.386   2.849   1.030 -0.1174  0.0158 -0.9000
  955MOL0     C31716   4.424   2.861   1.170  0.9539  0.4768 -0.2427
  955MOL0     C31717   4.441   2.869   1.288  1.2163  0.7197  0.2991
  955MOL0     C31718   4.073   3.084   0.574 -0.1528  0.3186  0.0786
  955MOL0     C31719   4.032   3.214   0.534  0.9758  0.5085  0.8792
  955MOL0     C31720   4.135   3.307   0.462  0.3726 -0.1063  0.7913
  955MOL0     H31721   3.782   3.697   0.511  1.3060 -2.4635 -0.2244
  955MOL0     H31722   3.561   3.790   0.448  1.1661 -0.7133 -0.9742
  955MOL0     H31723   3.189   3.611   0.628 -0.2246 -1.6784 -0.7462
  955MOL0     H31724   3.209   3.528   0.467 -0.6726 -0.5000  0.7478
  955MOL0     H31725   2.989   3.650   0.513  1.0606 -2.5672 -0.4497
  955MOL0     H31726   3.078   3.797   0.518 -0.1004  0.0679 -0.4413
  955MOL0     H31727   3.001   3.783   0.296 -0.1814  0.4358  0.0505
  955MOL0     H31728   3.176   3.762   0.282  0.9000  2.4573  2.1350
  955MOL0     H31729   3.122   3.497   0.268 -2.3956 -1.6671  0.5743
  955MOL0     H31730   2.960   3.540   0.275  1.3939 -1.8519  1.9867
  955MOL0     H31731   3.080   3.494   0.055 -1.0799 -0.8026  1.3612
  955MOL0     H31732   3.155   3.653   0.077  0.1308  0.3669  1.1759
  955MOL0     H31733   2.859   3.617   0.108  2.2624 -0.4409  2.9427
  955MOL0     H31734   2.940   3.768   0.065 -1.7878  0.1758 -1.2318
  955MOL0     H31735   2.889   3.533  -0.121  4.9771 -1.6448 -0.0408
  955MOL0     H31736   3.000   3.667  -0.157  3.2845  0.6219  3.4378
  955MOL0     H31737   2.722   3.748  -0.075  0.5062 -1.0152  1.4660
  955MOL0     H31738   2.846   3.823  -0.163  0.0769 -0.4163  0.1239
  955MOL0     H31739   2.841   3.553  -0.405 -0.2325  0.1493 -0.5994
  955MOL0     H31740   2.550   3.449  -0.568  1.6393 -1.4854  2.2107
  955MOL0     H31741   2.717   3.469  -0.610  0.2261 -0.2658  1.2045
  955MOL0     H31742   2.572   3.588  -0.782 -0.6388  1.4878 -0.1835
  955MOL0     H31743   2.483   3.673  -0.651 -3.0476 -3.5220 -1.0133
  955MOL0     H31744   2.620   3.823  -0.770 -0.8313  0.7923  1.0444
  955MOL0     H31745   2.650   3.818  -0.592  0.9213  3.7422 -2.5697
  955MOL0     H31746   2.848   3.688  -0.606 -3.9648  0.5239  2.0114
  955MOL0     H31747   2.827   3.665  -0.781 -1.4918 -1.2903  0.4120
  955MOL0     H31748   2.906   3.913  -0.466  0.3010  1.8649  0.7625
  955MOL0     H31749   2.983   4.004  -0.302 -1.7415 -2.2932  0.2253
  955MOL0     H31750   3.162   4.029  -0.277  0.0081  0.3800 -0.0221
  955MOL0     H31751   3.089   3.871  -0.245 -0.3928  1.5148  1.0750
  955MOL0     H31752   3.446   4.242  -0.385  1.1792  1.0587 -0.1695
  955MOL0     H31753   3.640   4.328  -0.257 -5.3982 -0.4868  0.8678
  955MOL0     H31754   3.962   4.062  -0.150 -0.3737 -0.6237 -1.6132
  955MOL0     H31755   4.024   4.146  -0.285 -1.0837  3.0653 -0.2600
  955MOL0     H31756   4.120   4.316  -0.172  0.6156 -1.8202 -0.9485
  955MOL0     H31757   4.022   4.301  -0.021  0.0554 -2.6344  2.2620
  955MOL0     H31758   4.258   4.141  -0.120 -0.3947 -0.3416 -0.5986
  955MOL0     H31759   4.143   4.057  -0.013 -0.1767  0.1819  1.4202
  955MOL0     H31760   4.161   4.248   0.143 -0.8422  1.6015 -1.1474
  955MOL0     H31761   4.272   4.331   0.039 -1.0742 -1.0814 -1.6052
  955MOL0     H31762   4.440   4.119   0.074  0.7434  0.2006 -0.2048
  955MOL0     H31763   4.433   4.253   0.171 -0.1872  0.7960 -1.5504
  955MOL0     H31764   4.305   3.970   0.213 -2.8039 -0.8512  2.2602
  955MOL0     H31765   4.262   4.108   0.316  0.3910  0.1078 -0.8171
  955MOL0     H31766   4.477   4.137   0.415  1.0978  1.7285 -1.2927
  955MOL0     H31767   4.548   4.038   0.274  0.2693  0.0880 -0.2159
  955MOL0     H31768   4.536   3.903   0.481 -0.6670 -0.7294 -0.9058
  955MOL0     H31769   4.441   3.833   0.348 -4.6631 -1.9456  2.3864
  955MOL0     H31770   3.838   3.949  -0.301 -1.6405 -0.4674 -0.0017
  955MOL0     H31771   3.642   3.865  -0.416 -0.2265 -0.9509  0.6406
  955MOL0     H31772   3.332   3.849  -0.706 -0.1785 -1.3505  0.0815
  955MOL0     H31773   3.141   3.833  -0.824  4.3292 -0.7707 -0.5655
  955MOL0     H31774   3.352   3.464   0.625  0.1140 -0.1271  1.3218
  955MOL0     H31775   3.576   3.366   0.700  1.0501 -0.2923 -0.3056
  955MOL0     H31776   3.723   3.184   0.671  0.2486  0.2825  1.6228
  955MOL0     H31777   3.804   2.951   0.704  1.6174 -0.3187 -0.5687
  955MOL0     H31778   3.992   2.863   0.870 -1.9841  0.6576 -2.2505
  955MOL0     H31779   4.066   2.710   0.829 -1.0425  0.6678  3.0533
  955MOL0     H31780   4.196   2.985   0.845 -0.9202  1.5381  1.4859
  955MOL0     H31781   4.280   2.844   0.795 -0.6350 -0.2332 -0.2392
  955MOL0     H31782   4.206   2.963   1.057  2.8374  0.5556  1.1047
  955MOL0     H31783   4.188   2.776   1.056  0.7855  1.2985  4.0926
  955MOL0     H31784   4.428   2.931   0.971  0.8736  2.4115  2.7840
  955MOL0     H31785   4.420   2.752   0.992  0.6740  0.2024 -0.6879
  955MOL0     H31786   4.466   2.886   1.391  1.5716 -0.8860  0.5066
  955MOL0     H31787   4.178   3.064   0.554  0.4702  1.0524  2.3259
  955MOL0     H31788   4.147   3.290   0.355  4.6303 -2.4441  1.4209
  955MOL0     H31789   4.117   3.413   0.484 -3.8406 -0.7035  1.0751
  955MOL0     H31790   4.237   3.282   0.492  0.0424 -2.6495  0.0006
  956MOL0     O31791   3.241   1.617   5.000 -0.4530 -1.1475  0.5598
  956MOL0     C31792   3.345   1.579   4.957 -0.5223  0.6000 -0.0110
  956MOL0     O31793   3.423   1.643   4.870  0.3150 -0.0090 -0.0969
  956MOL0     C31794   3.405   1.777   4.845  0.4183 -0.0889 -1.1147
  956MOL0     C31795   3.481   1.870   4.918  0.0226  1.0124  0.1734
  956MOL0     C31796   3.455   2.003   4.889 -0.0114  0.4926 -1.3292
  956MOL0     C31797   3.352   2.046   4.795 -0.7704 -0.4399  0.6121
  956MOL0     O31798   3.322   2.179   4.769  0.2010  0.4737 -0.4217
  956MOL0     C31799   3.394   2.284   4.837  0.1379  0.0316  0.4226
  956MOL0     C31800   3.308   2.397   4.781  0.6045  0.2167 -0.0694
  956MOL0     C31801   3.172   2.409   4.861 -1.2805  0.1401  0.2808
  956MOL0     C31802   3.088   2.522   4.801 -0.8682 -0.9913  0.2723
  956MOL0     C31803   2.989   2.575   4.902  0.0522 -0.3222  0.1247
  956MOL0     C31804   3.051   2.655   5.014  0.0390  0.0530  0.6352
  956MOL0     C31805   2.945   2.695   5.115 -0.1440 -0.5969 -1.0024
  956MOL0     C31806   2.919   2.591   5.221 -0.3941 -0.5664 -0.2276
  956MOL0     N31807   2.805   2.627   5.301  0.6220 -0.3548 -0.0734
  956MOL0     C31808   2.782   2.734   5.382 -0.6264 -0.5619  0.1289
  956MOL0     C31809   2.657   2.741   5.412 -0.4305 -0.3046 -0.5078
  956MOL0     C31810   2.580   2.841   5.501 -0.2457  0.1070 -0.1551
  956MOL0     C31811   2.519   2.769   5.625 -0.1146  0.7138 -0.7713
  956MOL0     C31812   2.478   2.882   5.712  0.8010  0.0376 -0.3218
  956MOL0     C31813   2.381   2.842   5.817  0.3320  0.6723 -1.5239
  956MOL0     O31814   2.256   2.821   5.754 -0.6009 -0.4335  0.9563
  956MOL0     C31815   2.151   2.794   5.828  0.5527 -0.3885 -0.9470
  956MOL0     C31816   2.028   2.802   5.764 -1.0778 -1.0492 -0.9092
  956MOL0     C31817   1.905   2.775   5.825  0.9545 -0.6672  0.2137
  956MOL0     C31818   1.783   2.765   5.738  0.0689  0.7022  0.0920
  956MOL0     C31819   1.900   2.740   5.961 -1.0812 -0.4113  0.5025
  956MOL0     C31820   1.775   2.724   6.040  1.1237  0.2825  0.8218
  956MOL0     O31821   1.792   2.697   6.174 -1.1042 -0.3103  0.0349
  956MOL0     C31822   1.691   2.670   6.263  0.6258 -0.0097 -0.4173
  956MOL0     C31823   1.562   2.615   6.230 -0.1284 -0.1636 -0.5262
  956MOL0     C31824   1.459   2.619   6.328 -0.6671 -0.2616  0.4701
  956MOL0     C31825   1.487   2.658   6.458  0.4657 -1.1235 -0.7268
  956MOL0     O31826   1.396   2.626   6.556 -0.5469 -0.2724 -0.1986
  956MOL0     C31827   1.283   2.707   6.566  0.3309  0.1667 -0.0371
  956MOL0     C31828   1.177   2.644   6.656 -0.1121  0.3912  0.4815
  956MOL0     C31829   1.061   2.744   6.690 -0.5758 -0.7346 -0.1721
  956MOL0     C31830   0.982   2.672   6.806 -0.1521 -0.2657 -0.0994
  956MOL0     C31831   0.861   2.753   6.853  0.0286  0.2099  0.2905
  956MOL0     C31832   0.767   2.794   6.738  0.7141 -0.0507 -0.5343
  956MOL0     C31833   0.697   2.682   6.660  0.0799  0.4084  1.0120
  956MOL0     C31834   0.597   2.749   6.568  0.5497  0.4058  0.7465
  956MOL0    Cl31835   0.463   2.792   6.673 -0.1039 -0.4134  0.0525
  956MOL0     C31836   1.614   2.712   6.492 -0.7540 -0.0384 -0.4140
  956MOL0     C31837   1.709   2.714   6.395  0.1688 -0.4003 -0.2244
  956MOL0     O31838   1.667   2.741   5.992  0.8711  0.0811  0.1896
  956MOL0     C31839   2.021   2.741   6.034 -0.2520  0.3539 -0.0883
  956MOL0     C31840   2.143   2.763   5.971 -0.9282 -0.1609 -0.2981
  956MOL0     N31841   2.585   2.649   5.336 -0.2344  0.7324 -0.2193
  956MOL0     N31842   2.676   2.588   5.259  0.1872  0.7865 -0.0454
  956MOL0     C31843   3.287   1.944   4.722 -0.0662  0.2526 -0.4188
  956MOL0     C31844   3.312   1.813   4.744  0.0996  0.2946  0.2586
  956MOL0     C31845   3.387   1.443   5.003  0.1600 -0.6078  0.2768
  956MOL0     C31846   3.517   1.413   4.962 -1.3238  0.5172 -0.1105
  956MOL0     C31847   3.562   1.282   4.983  0.5048 -0.4077 -0.1143
  956MOL0     C31848   3.482   1.179   5.043 -0.2152 -1.1734  0.4951
  956MOL0     O31849   3.519   1.042   5.057  0.1331 -0.6111 -0.4576
  956MOL0     C31850   3.643   0.994   5.010  0.0306 -0.6884  0.2412
  956MOL0     C31851   3.633   0.839   4.988  0.1425  0.4912 -0.0395
  956MOL0     C31852   3.630   0.752   5.116  0.3206 -0.1298  1.5795
  956MOL0     C31853   3.774   0.743   5.172 -0.3767 -0.1745  0.0412
  956MOL0     C31854   3.862   0.649   5.093  0.0932 -0.0642 -0.1278
  956MOL0     C31855   3.929   0.596   5.014 -0.2533 -0.0958 -0.5359
  956MOL0     C31856   3.362   1.223   5.092  0.5470 -0.0227 -0.6115
  956MOL0     C31857   3.309   1.345   5.069  0.1312 -0.1964 -0.0643
  956MOL0     C31858   3.170   1.382   5.121 -0.3202  0.3993 -0.5146
  956MOL0     H31859   3.556   1.838   4.989  1.7263  3.5067 -0.3311
  956MOL0     H31860   3.506   2.070   4.957 -1.9221  0.2936  0.3583
  956MOL0     H31861   3.498   2.294   4.805  0.0398 -0.3650 -0.0370
  956MOL0     H31862   3.394   2.275   4.946 -0.0630  0.4662  0.4614
  956MOL0     H31863   3.372   2.480   4.811 -0.0236 -0.4167  3.4662
  956MOL0     H31864   3.299   2.398   4.672 -0.6603 -0.5195  0.0054
  956MOL0     H31865   3.113   2.319   4.844  1.0643 -0.9830 -2.9909
  956MOL0     H31866   3.201   2.416   4.966  0.9186  2.0818 -0.3715
  956MOL0     H31867   3.163   2.592   4.762  0.2991 -0.2919  3.4807
  956MOL0     H31868   3.029   2.490   4.715 -1.4693 -0.3029  0.4184
  956MOL0     H31869   2.956   2.482   4.949  0.5227  0.4404  2.0489
  956MOL0     H31870   2.903   2.618   4.851 -0.5866 -2.2620 -0.5240
  956MOL0     H31871   3.134   2.595   5.055  0.9613  1.0853  0.3192
  956MOL0     H31872   3.094   2.743   4.966 -1.9649  1.2251  0.8891
  956MOL0     H31873   2.848   2.710   5.067 -0.8973  0.2035  0.6638
  956MOL0     H31874   2.976   2.787   5.166  1.5542 -0.9351 -1.3903
  956MOL0     H31875   2.922   2.490   5.178  2.4517 -1.5824  1.9999
  956MOL0     H31876   2.998   2.588   5.296 -1.8246 -2.3081  1.3063
  956MOL0     H31877   2.860   2.800   5.419 -0.2109 -0.5516 -0.7364
  956MOL0     H31878   2.507   2.894   5.438  1.0950  0.8405 -1.1309
  956MOL0     H31879   2.637   2.925   5.542 -2.7822  1.7732  0.2161
  956MOL0     H31880   2.436   2.712   5.583 -0.7621  0.7118  0.4785
  956MOL0     H31881   2.587   2.702   5.678 -3.1504 -1.0768  1.1644
  956MOL0     H31882   2.563   2.926   5.764  0.5802  1.4602 -1.1258
  956MOL0     H31883   2.423   2.953   5.649  2.8222  2.8359  0.8745
  956MOL0     H31884   2.418   2.755   5.873 -2.4555  1.2131  1.4688
  956MOL0     H31885   2.375   2.921   5.893 -0.2402 -0.7271 -0.0378
  956MOL0     H31886   2.028   2.821   5.657  1.9243 -2.5844 -1.2894
  956MOL0     H31887   1.718   2.853   5.748 -3.0868 -0.9855 -3.0662
  956MOL0     H31888   1.716   2.683   5.766 -0.1403  0.6683 -0.4920
  956MOL0     H31889   1.814   2.754   5.634  0.0689 -0.6780  0.2182
  956MOL0     H31890   1.541   2.587   6.128 -1.9467 -1.7708  0.2342
  956MOL0     H31891   1.362   2.574   6.311 -0.3017 -1.3780  1.2654
  956MOL0     H31892   1.305   2.797   6.624  1.4670  1.0736 -1.7985
  956MOL0     H31893   1.241   2.718   6.466  0.4512 -0.2791 -0.1394
  956MOL0     H31894   1.139   2.550   6.617 -0.3740  0.5900  0.2500
  956MOL0     H31895   1.231   2.608   6.744 -2.3430 -0.2316  1.6746
  956MOL0     H31896   1.005   2.765   6.598 -0.1422 -0.9175 -0.4822
  956MOL0     H31897   1.111   2.836   6.721  1.3078 -2.2526  1.5955
  956MOL0     H31898   1.048   2.651   6.890  0.4733 -0.0293 -0.5234
  956MOL0     H31899   0.943   2.577   6.768 -0.1789 -0.6866  0.9428
  956MOL0     H31900   0.800   2.694   6.922 -0.5592 -3.3232 -2.8924
  956MOL0     H31901   0.893   2.844   6.903  1.3922  0.4946 -1.0143
  956MOL0     H31902   0.813   2.862   6.666 -3.7431  0.2420 -3.5265
  956MOL0     H31903   0.687   2.843   6.794 -2.3545 -2.2875 -2.6494
  956MOL0     H31904   0.649   2.605   6.721  1.1405  0.8979  2.5422
  956MOL0     H31905   0.778   2.634   6.604  1.2670 -0.3153  3.1946
  956MOL0     H31906   0.560   2.678   6.493 -0.4498  0.3040  1.3063
  956MOL0     H31907   0.632   2.840   6.519  1.6518 -0.3347  0.1406
  956MOL0     H31908   1.616   2.743   6.595 -0.4432 -2.3178  0.3216
  956MOL0     H31909   1.808   2.749   6.419 -0.4126  2.4283 -1.5973
  956MOL0     H31910   2.013   2.710   6.138 -2.4017 -0.3920 -0.4169
  956MOL0     H31911   2.231   2.763   6.035 -1.1987 -0.5559  0.0846
  956MOL0     H31912   3.221   1.962   4.638  1.8378 -2.3314 -2.6515
  956MOL0     H31913   3.255   1.731   4.702  1.2385 -0.3442 -0.0790
  956MOL0     H31914   3.585   1.474   4.903  1.1220 -2.0813 -0.1818
  956MOL0     H31915   3.664   1.264   4.949 -0.3974 -2.1014 -2.1968
  956MOL0     H31916   3.644   1.022   4.905  0.8857 -1.3394  0.0628
  956MOL0     H31917   3.729   1.016   5.075  0.1268 -1.4217  0.3783
  956MOL0     H31918   3.709   0.798   4.920 -1.4412  0.4932 -1.9044
  956MOL0     H31919   3.536   0.813   4.945  0.2221  0.0325  0.0574
  956MOL0     H31920   3.550   0.787   5.181  0.5566  0.4150  1.5843
  956MOL0     H31921   3.599   0.650   5.091 -0.8640 -0.4978  4.2462
  956MOL0     H31922   3.765   0.723   5.279  0.0387 -1.6530 -0.1861
  956MOL0     H31923   3.830   0.837   5.174 -0.7053  0.2190 -3.2968
  956MOL0     H31924   3.997   0.551   4.944 -2.3591 -1.2530 -1.9483
  956MOL0     H31925   3.301   1.152   5.147  1.0773 -0.6441 -0.8045
  956MOL0     H31926   3.103   1.413   5.041 -2.2928 -2.9163 -0.3320
  956MOL0     H31927   3.121   1.298   5.171 -1.7761  0.9343 -0.9887
  956MOL0     H31928   3.175   1.451   5.206 -2.6756 -2.0283  1.7850
  957MOL0     O31929   8.991   3.118   8.904 -0.5037  0.0872  0.5121
  957MOL0     C31930   9.102   3.063   8.925  0.5930 -0.2481  0.7020
  957MOL0     O31931   9.191   3.031   8.830  0.1144 -0.0670 -0.5773
  957MOL0     C31932   9.208   3.121   8.728  0.2719 -0.4298 -0.7727
  957MOL0     C31933   9.290   3.239   8.742  0.5375 -0.3812  0.4413
  957MOL0     C31934   9.321   3.325   8.632 -0.3115  0.2633 -0.3991
  957MOL0     C31935   9.286   3.291   8.503  0.6875  0.0643 -1.0705
  957MOL0     O31936   9.315   3.368   8.391  0.1022 -0.2373  0.2364
  957MOL0     C31937   9.363   3.505   8.407  0.4686 -0.7604 -0.3089
  957MOL0     C31938   9.257   3.600   8.447  0.0497  0.6043  0.6988
  957MOL0     C31939   9.169   3.630   8.318  0.1966  0.6705 -0.9689
  957MOL0     C31940   9.069   3.520   8.287 -0.6280  0.2212  0.9129
  957MOL0     C31941   8.980   3.556   8.161  0.5821  0.5293 -0.5158
  957MOL0     C31942   9.045   3.534   8.027  0.7822 -0.0023 -0.3941
  957MOL0     C31943   8.940   3.560   7.909 -0.8819  0.5254  0.2722
  957MOL0     C31944   9.025   3.533   7.780  1.0084  0.4485  0.0799
  957MOL0     N31945   8.939   3.552   7.666 -0.3872  0.0881  0.9135
  957MOL0     C31946   8.823   3.478   7.635 -0.6369 -0.0807  0.5758
  957MOL0     C31947   8.744   3.568   7.562 -0.2971  0.3310  0.2807
  957MOL0     C31948   8.603   3.546   7.511 -0.1774 -0.1190 -0.1237
  957MOL0     C31949   8.511   3.653   7.579  0.5553 -0.0394  0.0205
  957MOL0     C31950   8.367   3.606   7.558  0.2952 -0.2219 -0.0901
  957MOL0     C31951   8.278   3.686   7.657  0.3737 -0.3519  0.1849
  957MOL0     O31952   8.273   3.824   7.611 -0.3332  0.0055 -0.3858
  957MOL0     C31953   8.270   3.927   7.702 -0.7225 -0.6579  0.8515
  957MOL0     C31954   8.199   3.917   7.825 -1.0944  0.0252  0.4965
  957MOL0     C31955   8.204   4.018   7.921 -0.2798  0.0743  0.2691
  957MOL0     C31956   8.110   3.997   8.034  0.0990  0.1242 -0.8501
  957MOL0     C31957   8.274   4.140   7.897 -0.4932 -0.9849 -0.4347
  957MOL0     C31958   8.301   4.247   7.992  0.1036 -0.7676 -0.0764
  957MOL0     O31959   8.386   4.349   7.963  0.6225  0.4087 -0.6770
  957MOL0     C31960   8.416   4.439   8.062 -0.2145  0.7035  0.1789
  957MOL0     C31961   8.501   4.397   8.165  1.1107 -1.1018 -0.2707
  957MOL0     C31962   8.543   4.502   8.255  0.2640 -0.8873 -0.4142
  957MOL0     C31963   8.493   4.634   8.256  0.1048 -0.0127  0.9107
  957MOL0     O31964   8.531   4.731   8.351 -0.3164  0.2542 -0.2228
  957MOL0     C31965   8.523   4.866   8.310 -0.6463 -1.0359  0.0481
  957MOL0     C31966   8.594   4.946   8.404 -0.1211  1.2973 -0.2356
  957MOL0     C31967   8.611   5.101   8.367  0.3802 -0.8823  0.3101
  957MOL0     C31968   8.684   5.173   8.476 -0.2046  0.6339 -0.2517
  957MOL0     C31969   8.700   5.318   8.449 -0.3195  0.2715  0.7493
  957MOL0     C31970   8.837   5.321   8.371 -0.0044  0.1249  0.1038
  957MOL0     C31971   8.885   5.466   8.331  1.0368  0.1685  0.5500
  957MOL0     C31972   9.037   5.478   8.293 -0.0955 -0.0650 -0.4910
  957MOL0    Cl31973   9.138   5.388   8.404  0.1014 -0.1505 -0.7739
  957MOL0     C31974   8.418   4.669   8.143 -0.4830 -0.2156 -0.0227
  957MOL0     C31975   8.376   4.575   8.048  0.3967  0.6893  0.4942
  957MOL0     O31976   8.233   4.255   8.090  0.1187 -0.4291  0.3919
  957MOL0     C31977   8.346   4.153   7.769  0.2789  0.4063 -0.9397
  957MOL0     C31978   8.340   4.044   7.675  0.2926 -0.0640  0.4904
  957MOL0     N31979   8.817   3.688   7.537  0.5111  0.3213 -0.1054
  957MOL0     N31980   8.932   3.672   7.606  0.4153 -0.0909  0.5288
  957MOL0     C31981   9.209   3.172   8.486 -0.5608  0.1363  1.0453
  957MOL0     C31982   9.167   3.097   8.595  0.2466 -0.1442  0.4010
  957MOL0     C31983   9.125   3.012   9.058  0.8821 -0.5239 -0.5363
  957MOL0     C31984   9.188   2.890   9.078  0.0954  0.7116 -0.5005
  957MOL0     C31985   9.194   2.830   9.209 -0.3220  0.4569 -0.2112
  957MOL0     C31986   9.152   2.903   9.321 -0.2212  0.1457 -0.2937
  957MOL0     O31987   9.168   2.844   9.443  0.5486 -0.4495 -0.0976
  957MOL0     C31988   9.102   2.907   9.556 -1.0727 -0.0417  0.4674
  957MOL0     C31989   9.186   3.007   9.627 -0.3502  0.1711 -0.1805
  957MOL0     C31990   9.270   2.949   9.743  0.6777 -0.7193  0.3489
  957MOL0     C31991   9.383   3.045   9.789  1.1134  0.2670  0.1364
  957MOL0     C31992   9.337   3.162   9.857  0.1141 -0.6936  1.0329
  957MOL0     C31993   9.315   3.271   9.905  0.5391  0.8197 -0.3859
  957MOL0     C31994   9.104   3.041   9.308  0.9990  0.4728  0.3105
  957MOL0     C31995   9.084   3.093   9.179  0.9451 -0.0954 -0.1407
  957MOL0     C31996   9.032   3.238   9.177 -0.3143 -1.5741  0.3652
  957MOL0     H31997   9.327   3.265   8.841  1.3488 -1.9454  0.5896
  957MOL0     H31998   9.365   3.421   8.656 -2.3098  0.9706  0.7063
  957MOL0     H31999   9.408   3.544   8.315  1.6862 -1.0775  0.1367
  957MOL0     H32000   9.442   3.503   8.483 -1.1470 -0.2869  1.4313
  957MOL0     H32001   9.200   3.570   8.534 -0.5488 -0.0846  0.0835
  957MOL0     H32002   9.306   3.697   8.459 -0.0524  1.2016 -2.6712
  957MOL0     H32003   9.112   3.723   8.313  0.1241  0.5891 -1.7158
  957MOL0     H32004   9.242   3.633   8.237  3.6496 -1.5214  1.7548
  957MOL0     H32005   9.111   3.422   8.264 -1.7040  0.2085 -1.2214
  957MOL0     H32006   9.011   3.513   8.379  2.5683  2.3365  3.2987
  957MOL0     H32007   8.945   3.660   8.160  0.0895  0.3610 -0.8470
  957MOL0     H32008   8.891   3.494   8.169 -0.7017  2.3780  0.2959
  957MOL0     H32009   9.137   3.593   8.026  0.5834  0.3203  0.2169
  957MOL0     H32010   9.089   3.435   8.010  0.9853  0.1373 -0.7165
  957MOL0     H32011   8.927   3.667   7.926  3.0923  0.9778  1.5041
  957MOL0     H32012   8.843   3.510   7.911 -0.8321  0.1040 -2.6101
  957MOL0     H32013   9.111   3.600   7.784 -1.1327  3.4821 -0.6522
  957MOL0     H32014   9.061   3.430   7.772  1.4226  0.5201  0.9094
  957MOL0     H32015   8.795   3.377   7.663 -0.5895  0.1984  1.6562
  957MOL0     H32016   8.571   3.446   7.542  0.6652 -0.3219  0.1414
  957MOL0     H32017   8.613   3.549   7.402  5.7224 -0.3116  0.0544
  957MOL0     H32018   8.522   3.643   7.687 -1.3882 -2.7309  0.0736
  957MOL0     H32019   8.525   3.752   7.536  0.5547  0.4927  1.2171
  957MOL0     H32020   8.333   3.620   7.455  0.5642  0.0299 -0.1465
  957MOL0     H32021   8.358   3.501   7.586 -0.2510 -0.1001  0.1971
  957MOL0     H32022   8.179   3.639   7.659  0.7561 -1.3677 -2.1407
  957MOL0     H32023   8.315   3.675   7.760  0.3243  1.3922  0.4170
  957MOL0     H32024   8.150   3.822   7.846 -2.6122  0.6094 -0.2372
  957MOL0     H32025   8.080   3.891   8.036 -2.3747  0.7452  1.3187
  957MOL0     H32026   8.017   4.047   8.005 -1.7780 -2.6180 -0.0182
  957MOL0     H32027   8.144   4.027   8.134 -0.8629  0.0107 -0.4770
  957MOL0     H32028   8.546   4.299   8.180  0.4860 -1.2741  0.6188
  957MOL0     H32029   8.589   4.458   8.343 -2.7511 -2.6960  0.3822
  957MOL0     H32030   8.569   4.880   8.212 -0.8246 -1.5673 -0.1117
  957MOL0     H32031   8.423   4.907   8.291 -1.2558 -1.6356  1.7855
  957MOL0     H32032   8.526   4.944   8.490  0.1208  1.2208 -0.0408
  957MOL0     H32033   8.683   4.887   8.431 -0.3001 -0.5463 -3.2432
  957MOL0     H32034   8.517   5.158   8.365  0.7431 -0.2791  0.3152
  957MOL0     H32035   8.668   5.102   8.274 -1.9763 -0.7145 -1.2156
  957MOL0     H32036   8.777   5.119   8.496 -0.3586  0.6610  0.5819
  957MOL0     H32037   8.630   5.160   8.571 -1.7943  4.3510 -0.4710
  957MOL0     H32038   8.622   5.372   8.394 -0.1407  1.9928  2.1168
  957MOL0     H32039   8.718   5.371   8.543  0.9417 -0.7918  1.1383
  957MOL0     H32040   8.834   5.261   8.279 -0.1093 -1.8401  1.3382
  957MOL0     H32041   8.909   5.271   8.436  0.7008  0.6489 -0.2493
  957MOL0     H32042   8.848   5.534   8.409  1.0791  0.4096  0.3607
  957MOL0     H32043   8.840   5.497   8.237 -2.7824 -1.4396  1.6355
  957MOL0     H32044   9.070   5.581   8.277  0.2580 -0.3938 -2.1004
  957MOL0     H32045   9.047   5.432   8.194 -0.4447  1.1067 -1.0916
  957MOL0     H32046   8.382   4.772   8.135 -1.5701 -0.5095  0.7448
  957MOL0     H32047   8.300   4.604   7.977  0.4961  0.9701  0.4997
  957MOL0     H32048   8.396   4.244   7.738  0.1982  0.6468 -0.3753
  957MOL0     H32049   8.385   4.062   7.578 -0.1052 -1.3592  0.0386
  957MOL0     H32050   9.185   3.150   8.383 -1.1656  1.1783  0.9497
  957MOL0     H32051   9.120   3.006   8.558  1.0593  0.4781 -2.4386
  957MOL0     H32052   9.198   2.830   8.988  3.9999  1.5841 -0.8253
  957MOL0     H32053   9.237   2.731   9.218 -0.8970  0.0819 -1.3668
  957MOL0     H32054   9.006   2.948   9.524  0.1598  0.9254 -2.3990
  957MOL0     H32055   9.075   2.820   9.616 -2.5249 -0.4553 -0.7363
  957MOL0     H32056   9.117   3.083   9.664 -0.1431 -1.0661  3.0569
  957MOL0     H32057   9.253   3.053   9.553 -0.1423 -0.4851 -0.4051
  957MOL0     H32058   9.211   2.957   9.835  1.0087  0.5629  0.4691
  957MOL0     H32059   9.323   2.854   9.728  1.8812  0.0167 -0.2382
  957MOL0     H32060   9.427   3.075   9.693 -2.1707  0.7034 -1.3438
  957MOL0     H32061   9.466   2.992   9.836  2.8104 -3.0196 -5.5079
  957MOL0     H32062   9.264   3.355   9.947 -1.1302 -1.2184  1.9229
  957MOL0     H32063   9.094   3.092   9.404 -1.2976 -2.5351  1.8519
  957MOL0     H32064   8.978   3.268   9.087  0.0408 -1.7232  0.1007
  957MOL0     H32065   8.963   3.265   9.257 -1.2745 -0.3166 -0.8266
  957MOL0     H32066   9.121   3.296   9.203 -1.0358  1.3844 -2.9114
  958MOL0     O32067   5.164   5.879   7.881 -0.4796  0.3259 -0.0106
  958MOL0     C32068   5.116   5.985   7.855  0.5382 -0.9743 -0.0187
  958MOL0     O32069   5.127   6.102   7.921  0.2498 -0.0242  0.0782
  958MOL0     C32070   5.186   6.100   8.042 -0.9634  0.0832 -0.1158
  958MOL0     C32071   5.116   6.134   8.158  0.4569 -0.9659 -0.0128
  958MOL0     C32072   5.184   6.146   8.280 -0.2595 -0.1197 -0.1460
  958MOL0     C32073   5.329   6.144   8.274  1.3643 -0.0788  0.2321
  958MOL0     O32074   5.384   6.182   8.389 -0.4570 -0.3601  0.1808
  958MOL0     C32075   5.528   6.196   8.404  0.3247 -0.2117 -0.7112
  958MOL0     C32076   5.596   6.059   8.427  0.4879 -0.2608 -1.0364
  958MOL0     C32077   5.735   6.067   8.499 -0.1493  0.9555 -0.2673
  958MOL0     C32078   5.777   5.931   8.561  0.5036  0.3568 -0.0211
  958MOL0     C32079   5.936   5.941   8.589 -0.0948 -1.1174  0.3026
  958MOL0     C32080   5.981   6.037   8.707  0.7123  0.1988  0.2181
  958MOL0     C32081   6.135   6.044   8.717 -0.1554 -0.0359  0.4498
  958MOL0     C32082   6.226   5.930   8.744  0.4999  0.0541 -0.1880
  958MOL0     N32083   6.365   5.982   8.759 -0.0629 -0.5061 -0.0970
  958MOL0     C32084   6.409   6.061   8.863 -0.6767  0.1582  0.4330
  958MOL0     C32085   6.509   6.129   8.800  0.1868 -0.2756 -0.2872
  958MOL0     C32086   6.601   6.227   8.868 -0.3484 -0.5812  0.0495
  958MOL0     C32087   6.653   6.335   8.767  1.0990  0.4635 -0.3486
  958MOL0     C32088   6.768   6.420   8.833  1.0427 -1.0688 -0.3045
  958MOL0     C32089   6.865   6.466   8.720 -0.0933 -0.4818  0.8603
  958MOL0     O32090   6.966   6.542   8.786  0.0214 -0.1008  0.1390
  958MOL0     C32091   7.074   6.608   8.719  1.5909  0.0758 -0.3120
  958MOL0     C32092   7.088   6.625   8.583  0.0266  0.2147  0.5966
  958MOL0     C32093   7.194   6.686   8.519 -0.1674  0.1567 -0.9556
  958MOL0     C32094   7.195   6.699   8.376 -0.0052 -0.3302 -0.2875
  958MOL0     C32095   7.301   6.745   8.602  0.2489  0.1262  1.2515
  958MOL0     C32096   7.428   6.795   8.547  0.5267 -0.1846 -0.6734
  958MOL0     O32097   7.537   6.786   8.625  0.8221 -0.4454  0.1511
  958MOL0     C32098   7.669   6.810   8.580  1.2601  0.3015  0.4333
  958MOL0     C32099   7.753   6.892   8.654  0.4378  0.1958  0.2345
  958MOL0     C32100   7.883   6.912   8.605 -0.4161  0.4119  0.1957
  958MOL0     C32101   7.934   6.851   8.484 -0.5246 -0.2274 -0.3559
  958MOL0     O32102   8.063   6.874   8.438  0.9109  0.3329  0.2231
  958MOL0     C32103   8.118   7.008   8.466  0.5778 -0.3562 -0.0516
  958MOL0     C32104   8.228   7.043   8.361 -0.2963 -0.7652  0.3258
  958MOL0     C32105   8.175   7.043   8.213  1.1054  0.3348  0.8583
  958MOL0     C32106   8.290   7.074   8.106 -0.1759  0.5869 -0.1316
  958MOL0     C32107   8.235   7.053   7.963 -0.6703 -0.3539 -0.2141
  958MOL0     C32108   8.353   7.056   7.868  0.5471  0.3485  0.7076
  958MOL0     C32109   8.308   7.056   7.727 -0.4644 -0.1436  0.4259
  958MOL0     C32110   8.386   6.950   7.644 -0.3881  0.0726 -0.0386
  958MOL0    Cl32111   8.352   6.945   7.471 -0.2720 -0.1204 -0.5933
  958MOL0     C32112   7.844   6.759   8.428  0.2641 -0.2340 -0.0210
  958MOL0     C32113   7.715   6.742   8.468  0.4700  0.0133  0.9729
  958MOL0     O32114   7.433   6.863   8.451  0.0052 -0.1601 -0.4036
  958MOL0     C32115   7.276   6.730   8.733 -0.3929 -0.1529 -0.1885
  958MOL0     C32116   7.173   6.669   8.793  0.2786  0.3334  0.1650
  958MOL0     N32117   6.516   6.088   8.668  0.4092 -0.4989  0.7916
  958MOL0     N32118   6.420   6.012   8.644 -0.2493  0.3872  0.1666
  958MOL0     C32119   5.399   6.111   8.158  0.9780  0.7056  0.5154
  958MOL0     C32120   5.326   6.069   8.042 -0.5852 -0.3425  0.0839
  958MOL0     C32121   5.040   6.011   7.731 -0.2766  0.5407 -0.3090
  958MOL0     C32122   4.907   6.051   7.735 -0.0984  0.1787  0.1227
  958MOL0     C32123   4.826   6.064   7.620 -0.8916  0.1208 -0.2468
  958MOL0     C32124   4.879   6.035   7.497  0.2150  0.6237  0.6986
  958MOL0     O32125   4.805   6.066   7.390 -0.3316  0.6148  0.6985
  958MOL0     C32126   4.786   5.971   7.285  0.2563  0.5611  0.5630
  958MOL0     C32127   4.675   6.009   7.188  1.0165 -0.1146  0.3354
  958MOL0     C32128   4.545   5.931   7.242  0.7758  0.4227  0.2747
  958MOL0     C32129   4.431   6.040   7.268 -0.3573  0.5908  0.4680
  958MOL0     C32130   4.472   6.133   7.373  0.4851  1.0861  0.2395
  958MOL0     C32131   4.533   6.203   7.447 -0.0485  0.2252  0.0997
  958MOL0     C32132   5.007   5.978   7.488 -0.5268 -0.7014  1.0938
  958MOL0     C32133   5.095   5.968   7.603 -0.1597 -1.2155 -0.7770
  958MOL0     C32134   5.239   5.923   7.586 -0.0360 -0.2666  0.5252
  958MOL0     H32135   5.009   6.152   8.150  0.8247  1.1171 -0.8520
  958MOL0     H32136   5.132   6.153   8.375  0.8710 -2.8033  0.7804
  958MOL0     H32137   5.526   6.249   8.500  1.6865 -0.2696 -0.6303
  958MOL0     H32138   5.564   6.268   8.330 -1.9662  0.1695 -1.5456
  958MOL0     H32139   5.530   5.995   8.486  0.5489  0.1553 -0.5019
  958MOL0     H32140   5.619   6.013   8.331  1.5425 -2.9727  0.3900
  958MOL0     H32141   5.814   6.102   8.433  1.9802 -2.4288  0.2714
  958MOL0     H32142   5.730   6.138   8.583  1.7846  0.6365  0.1456
  958MOL0     H32143   5.716   5.910   8.650  0.9402 -1.8186 -0.1799
  958MOL0     H32144   5.771   5.840   8.501  0.5240  0.3001  0.0629
  958MOL0     H32145   5.988   5.978   8.500  0.6065 -0.0858  1.1259
  958MOL0     H32146   5.975   5.839   8.597  2.6197 -0.2467 -0.7851
  958MOL0     H32147   5.964   6.142   8.683 -0.4765 -0.6540 -3.2338
  958MOL0     H32148   5.948   6.001   8.805  4.2637  1.7968  2.1805
  958MOL0     H32149   6.143   6.115   8.800  0.9774 -0.2109  0.4999
  958MOL0     H32150   6.170   6.089   8.624 -1.4608  1.3802  0.5980
  958MOL0     H32151   6.192   5.878   8.834 -1.2678 -1.2886 -1.5442
  958MOL0     H32152   6.224   5.857   8.662 -1.6959 -1.3030  0.9715
  958MOL0     H32153   6.376   6.059   8.966  1.5277 -0.4992  1.1745
  958MOL0     H32154   6.688   6.171   8.906  1.3294  0.6611 -1.7654
  958MOL0     H32155   6.552   6.276   8.952 -1.3064 -1.3009 -0.0697
  958MOL0     H32156   6.679   6.288   8.672 -1.6636 -2.5896  0.2036
  958MOL0     H32157   6.576   6.406   8.735  0.5131 -0.8204 -1.9827
  958MOL0     H32158   6.714   6.498   8.887 -2.2510 -1.9340 -2.0698
  958MOL0     H32159   6.812   6.362   8.915  1.6116  2.4629  2.1358
  958MOL0     H32160   6.900   6.383   8.658  1.1439  1.4963 -1.2040
  958MOL0     H32161   6.813   6.528   8.647 -1.8590 -0.5550  2.0011
  958MOL0     H32162   7.014   6.574   8.522  0.7970  1.0083 -1.0670
  958MOL0     H32163   7.125   6.623   8.338  1.7809 -0.3930 -3.8985
  958MOL0     H32164   7.297   6.677   8.344  1.0676  0.4471  2.3363
  958MOL0     H32165   7.176   6.797   8.332  0.7596 -0.5204 -1.0848
  958MOL0     H32166   7.719   6.950   8.739  0.1982 -0.6470  0.7285
  958MOL0     H32167   7.957   6.962   8.666  1.5940  0.4221 -2.0758
  958MOL0     H32168   8.040   7.084   8.461 -1.0156 -1.9151  0.0869
  958MOL0     H32169   8.174   6.999   8.559 -0.6423  2.7758  1.1184
  958MOL0     H32170   8.290   7.130   8.384  0.5289 -0.9888 -0.9262
  958MOL0     H32171   8.305   6.965   8.357  4.6566  3.6076 -2.6489
  958MOL0     H32172   8.101   7.123   8.205  2.0810  1.1888  0.0675
  958MOL0     H32173   8.125   6.947   8.201 -2.8611  1.9416  2.8389
  958MOL0     H32174   8.373   7.008   8.134 -1.6405 -2.6827 -2.7628
  958MOL0     H32175   8.329   7.176   8.104  3.5641 -0.7047 -1.4352
  958MOL0     H32176   8.185   6.956   7.958 -0.0014 -0.7064 -0.1402
  958MOL0     H32177   8.165   7.130   7.929  0.0637  0.3542 -0.1430
  958MOL0     H32178   8.406   6.960   7.878  0.6660  0.3912  0.5055
  958MOL0     H32179   8.422   7.138   7.891  0.6978  0.7987 -1.1468
  958MOL0     H32180   8.320   7.157   7.686 -0.1761 -0.6957 -0.9177
  958MOL0     H32181   8.203   7.022   7.728 -1.2799  2.2060  1.0275
  958MOL0     H32182   8.375   6.852   7.691 -0.9146  1.3403  2.6511
  958MOL0     H32183   8.493   6.963   7.664 -0.5103 -1.8013  2.3596
  958MOL0     H32184   7.887   6.687   8.358 -1.7849 -3.8530  2.1006
  958MOL0     H32185   7.651   6.681   8.405 -0.9421  1.4837  0.8946
  958MOL0     H32186   7.344   6.790   8.793  1.1158 -1.5885 -0.3967
  958MOL0     H32187   7.160   6.663   8.900  0.2798  0.8876  0.1977
  958MOL0     H32188   5.505   6.096   8.175  1.0593  0.0226 -0.5008
  958MOL0     H32189   5.387   6.036   7.959  1.4248 -2.1473  2.1484
  958MOL0     H32190   4.861   6.094   7.823 -1.3268 -0.4292 -0.2066
  958MOL0     H32191   4.727   6.108   7.618 -1.2519 -0.5994  0.8607
  958MOL0     H32192   4.882   5.975   7.233 -0.6112  3.3898 -1.0132
  958MOL0     H32193   4.774   5.868   7.321 -0.6362 -0.1708 -1.6276
  958MOL0     H32194   4.703   5.994   7.083  0.3886  1.8732 -0.1647
  958MOL0     H32195   4.662   6.117   7.188 -0.7358 -0.2722 -0.7314
  958MOL0     H32196   4.508   5.874   7.156 -1.8787  4.8714 -1.9131
  958MOL0     H32197   4.564   5.872   7.332  2.2073  0.0899 -0.2190
  958MOL0     H32198   4.339   5.988   7.294  0.9975 -2.4100 -0.2927
  958MOL0     H32199   4.402   6.096   7.178  3.1457  1.7199 -0.1159
  958MOL0     H32200   4.592   6.261   7.514  2.5359 -3.3390  1.1558
  958MOL0     H32201   5.052   5.937   7.398 -2.9260 -2.3004  0.5213
  958MOL0     H32202   5.304   5.959   7.665 -1.8656  0.4659  1.7629
  958MOL0     H32203   5.248   5.815   7.571  2.1863  0.0816 -1.2831
  958MOL0     H32204   5.281   5.963   7.493  1.5868 -0.6843  1.0539
  959MOL0     O32205   5.598   3.375   7.296  0.8156 -0.7937  0.6848
  959MOL0     C32206   5.610   3.287   7.213 -0.2541 -0.6335  0.0378
  959MOL0     O32207   5.730   3.242   7.170 -0.5512  0.8250  0.2613
  959MOL0     C32208   5.841   3.300   7.217  0.1764 -0.0396 -0.1735
  959MOL0     C32209   5.896   3.254   7.346  0.7956  0.6541  1.1181
  959MOL0     C32210   6.017   3.305   7.393 -0.4531 -1.2015  0.0718
  959MOL0     C32211   6.086   3.407   7.321 -0.0075  0.0658 -0.9721
  959MOL0     O32212   6.205   3.450   7.378  1.1199 -0.8694  1.2531
  959MOL0     C32213   6.311   3.494   7.295 -0.7153  1.0395  0.7634
  959MOL0     C32214   6.439   3.518   7.366 -0.2878  0.2685 -0.4553
  959MOL0     C32215   6.541   3.578   7.270 -0.2996  0.0490  0.2188
  959MOL0     C32216   6.627   3.472   7.199 -0.5830  0.2810  0.2749
  959MOL0     C32217   6.749   3.552   7.140  0.8552 -0.2669  0.5879
  959MOL0     C32218   6.795   3.471   7.015  0.9680  0.3907 -0.2454
  959MOL0     C32219   6.939   3.509   6.981 -0.4921  0.3126  0.9068
  959MOL0     C32220   6.988   3.481   6.842  0.1063 -0.6598 -0.6265
  959MOL0     N32221   6.975   3.338   6.804  0.4184  0.2682 -0.5432
  959MOL0     C32222   7.032   3.231   6.875  0.1188 -0.1269  0.2598
  959MOL0     C32223   6.984   3.114   6.823 -0.0714  0.1513  0.3743
  959MOL0     C32224   7.006   2.974   6.860 -0.3912  0.2629 -0.3511
  959MOL0     C32225   6.943   2.918   6.993  0.2627 -0.6925 -0.8675
  959MOL0     C32226   6.811   2.983   7.022 -0.4410 -0.1126 -0.9154
  959MOL0     C32227   6.728   2.935   7.145  0.5568 -0.6127  0.0636
  959MOL0     O32228   6.663   3.054   7.183 -0.1466 -0.9491 -0.4259
  959MOL0     C32229   6.568   3.037   7.285 -0.5078 -0.4784  1.1201
  959MOL0     C32230   6.554   2.920   7.358 -0.7082 -0.7134  0.0717
  959MOL0     C32231   6.465   2.913   7.476  0.6430  0.1308  0.2358
  959MOL0     C32232   6.445   2.793   7.564  0.4404 -1.0081  0.8239
  959MOL0     C32233   6.381   3.020   7.492 -0.5353 -0.3175 -0.2614
  959MOL0     C32234   6.288   3.024   7.604  0.2995  0.4003  0.6881
  959MOL0     O32235   6.165   2.972   7.576 -0.7380 -0.1195 -0.1119
  959MOL0     C32236   6.053   2.981   7.656  0.2291 -0.0467 -0.8741
  959MOL0     C32237   6.053   3.026   7.793 -0.3152 -0.4614 -0.0090
  959MOL0     C32238   5.937   3.041   7.870 -0.3700  0.3441  1.1458
  959MOL0     C32239   5.813   3.029   7.805 -0.6796 -0.2875  0.5553
  959MOL0     O32240   5.692   3.059   7.864 -0.0408 -0.9787  0.0505
  959MOL0     C32241   5.691   3.133   7.993 -0.2920  0.3507  0.3505
  959MOL0     C32242   5.558   3.194   8.014 -0.2724  0.3863  0.1437
  959MOL0     C32243   5.537   3.320   7.930 -0.1324 -0.3662 -0.7773
  959MOL0     C32244   5.389   3.361   7.918 -1.0650  0.7658  0.1934
  959MOL0     C32245   5.373   3.496   7.850  0.2205  0.1347  0.8843
  959MOL0     C32246   5.227   3.517   7.799  0.5170  0.3917  0.1569
  959MOL0     C32247   5.120   3.505   7.913 -0.2131 -0.7208  0.3798
  959MOL0     C32248   4.982   3.519   7.849 -1.0047 -0.0457  0.5414
  959MOL0    Cl32249   4.974   3.353   7.764  0.2562  0.1704 -0.1440
  959MOL0     C32250   5.808   2.973   7.678  0.5036  0.2370  0.9057
  959MOL0     C32251   5.930   2.944   7.608  0.4391  0.0627 -0.2465
  959MOL0     O32252   6.327   3.066   7.712 -0.8299 -0.0394  1.1069
  959MOL0     C32253   6.401   3.129   7.410  0.7849  0.3646 -0.1487
  959MOL0     C32254   6.494   3.140   7.315  0.1259 -0.0131 -1.5834
  959MOL0     N32255   6.881   3.151   6.733 -0.2502 -1.0417 -0.1917
  959MOL0     N32256   6.877   3.279   6.719 -0.0889 -0.5861 -0.5108
  959MOL0     C32257   6.029   3.454   7.207  0.3813 -0.3981 -0.2888
  959MOL0     C32258   5.914   3.398   7.152  0.4015  0.7892 -0.0195
  959MOL0     C32259   5.478   3.228   7.171  0.0364 -0.6416  0.7813
  959MOL0     C32260   5.370   3.313   7.167 -0.6584 -0.2617 -0.1164
  959MOL0     C32261   5.248   3.279   7.104  0.2010 -0.4205  0.4632
  959MOL0     C32262   5.225   3.149   7.060 -0.6087  0.0516 -0.1379
  959MOL0     O32263   5.103   3.111   7.016 -0.4989  0.1661  0.0201
  959MOL0     C32264   5.000   3.095   7.118  0.4721 -0.0800 -0.2353
  959MOL0     C32265   4.904   3.220   7.139 -0.2323 -0.0201 -0.3848
  959MOL0     C32266   4.846   3.283   7.009 -0.0082  0.3945  0.4481
  959MOL0     C32267   4.793   3.187   6.907  0.1444  0.1176 -0.0669
  959MOL0     C32268   4.699   3.089   6.975  0.8721 -0.2441 -0.1385
  959MOL0     C32269   4.622   3.020   7.037  0.9128 -0.7755  0.0597
  959MOL0     C32270   5.331   3.061   7.068  0.4051 -0.0835  0.1015
  959MOL0     C32271   5.458   3.098   7.118  0.0141  0.6485  0.1708
  959MOL0     C32272   5.567   2.989   7.133  0.1875  0.1337  0.6084
  959MOL0     H32273   5.852   3.168   7.395 -0.7201  0.9358  0.3029
  959MOL0     H32274   6.057   3.276   7.490  0.7539 -0.0759 -0.0739
  959MOL0     H32275   6.296   3.593   7.252  2.2474  0.4892 -1.8874
  959MOL0     H32276   6.323   3.432   7.206 -2.3010  1.4626  0.2338
  959MOL0     H32277   6.419   3.595   7.441  0.1141  3.2896 -3.1941
  959MOL0     H32278   6.478   3.433   7.423 -0.1111  0.2301 -0.6297
  959MOL0     H32279   6.492   3.637   7.192  0.8426  1.0443  0.2203
  959MOL0     H32280   6.603   3.640   7.336 -2.6452  2.5617  0.2262
  959MOL0     H32281   6.671   3.395   7.263 -0.0222  2.0914  2.1987
  959MOL0     H32282   6.567   3.433   7.116 -1.3896  2.7315 -0.3681
  959MOL0     H32283   6.832   3.553   7.211  1.7892 -1.9537 -0.3977
  959MOL0     H32284   6.724   3.653   7.106  1.1398  0.0185  1.2181
  959MOL0     H32285   6.788   3.364   7.034 -2.9857  0.0273 -2.6549
  959MOL0     H32286   6.727   3.482   6.929 -1.2965 -1.3412  1.2102
  959MOL0     H32287   7.008   3.459   7.049 -2.0810 -2.3510  0.6964
  959MOL0     H32288   6.948   3.617   6.993 -0.6622  0.6097 -1.3102
  959MOL0     H32289   6.923   3.549   6.785  0.2060 -1.6254 -1.9349
  959MOL0     H32290   7.091   3.517   6.833  0.2215 -0.4657  1.0609
  959MOL0     H32291   7.104   3.229   6.957 -1.3959  1.4386  1.7276
  959MOL0     H32292   7.114   2.956   6.856 -0.1470  1.5341  0.0409
  959MOL0     H32293   6.969   2.908   6.780 -1.2052 -2.2012  1.8942
  959MOL0     H32294   6.927   2.812   6.972 -1.0807 -1.6032  3.7566
  959MOL0     H32295   7.016   2.921   7.074  2.5676 -1.6132 -2.7975
  959MOL0     H32296   6.838   3.087   7.044 -3.9768  0.8270 -0.4509
  959MOL0     H32297   6.746   2.986   6.934  0.4076 -1.0470 -1.5904
  959MOL0     H32298   6.661   2.855   7.111  1.3366 -0.1163 -2.9615
  959MOL0     H32299   6.796   2.897   7.222 -1.8400  1.1806  3.3218
  959MOL0     H32300   6.606   2.827   7.338 -0.1022 -0.0695 -1.5396
  959MOL0     H32301   6.536   2.733   7.571  1.6755  0.7419  0.3724
  959MOL0     H32302   6.374   2.728   7.512  2.2623 -1.4542 -1.2616
  959MOL0     H32303   6.413   2.821   7.665  0.0477  0.2680  0.3629
  959MOL0     H32304   6.146   3.029   7.848 -2.0793 -1.4590  3.3178
  959MOL0     H32305   5.948   3.076   7.972  0.2959 -0.7948  1.4791
  959MOL0     H32306   5.727   3.064   8.070 -1.1840  1.4540  1.8069
  959MOL0     H32307   5.762   3.217   7.992 -0.3641  0.4847  2.6103
  959MOL0     H32308   5.491   3.108   7.997 -0.3149 -0.2669  3.0512
  959MOL0     H32309   5.538   3.223   8.117 -0.6173 -0.3322  0.2891
  959MOL0     H32310   5.571   3.297   7.829 -1.8490  0.0293 -1.4718
  959MOL0     H32311   5.600   3.394   7.980  0.7502 -1.4531 -0.2281
  959MOL0     H32312   5.335   3.355   8.013 -0.1111 -2.6562  0.6831
  959MOL0     H32313   5.352   3.285   7.849 -0.3742  1.7411 -1.2755
  959MOL0     H32314   5.408   3.580   7.910 -1.4200  2.0488 -0.7369
  959MOL0     H32315   5.425   3.488   7.754 -1.8857  2.9362 -0.6094
  959MOL0     H32316   5.209   3.445   7.718  1.0149  1.2601 -0.7402
  959MOL0     H32317   5.228   3.619   7.760  1.5730  0.9057  1.4409
  959MOL0     H32318   5.141   3.592   7.975  3.5853 -0.3060 -1.2155
  959MOL0     H32319   5.129   3.413   7.971  1.9752  0.2071  1.6684
  959MOL0     H32320   4.980   3.609   7.787  0.2420 -0.0314  0.5041
  959MOL0     H32321   4.901   3.522   7.923 -0.9979  0.3050  0.5370
  959MOL0     H32322   5.717   2.945   7.625  0.8189 -0.6254  0.8068
  959MOL0     H32323   5.923   2.898   7.510  1.5209  1.6347 -1.1097
  959MOL0     H32324   6.336   3.215   7.419  0.3424 -0.0033  0.2271
  959MOL0     H32325   6.512   3.230   7.258  1.4561  1.0303  0.4044
  959MOL0     H32326   6.071   3.539   7.155  0.3095  0.8811  1.6423
  959MOL0     H32327   5.892   3.438   7.054  4.8572 -1.6844 -2.3309
  959MOL0     H32328   5.393   3.412   7.204 -1.6083 -0.9218  2.4660
  959MOL0     H32329   5.168   3.353   7.100 -0.4240 -1.1164 -0.2164
  959MOL0     H32330   4.928   3.016   7.094 -2.0040  1.3228  2.0800
  959MOL0     H32331   5.048   3.061   7.211 -1.2191  3.1549  1.9993
  959MOL0     H32332   4.968   3.292   7.191 -1.5519  1.0887 -0.2299
  959MOL0     H32333   4.819   3.200   7.205 -0.9555  0.9986 -0.9845
  959MOL0     H32334   4.766   3.349   7.043  0.7958  1.0154  1.2037
  959MOL0     H32335   4.927   3.342   6.967  0.5195 -1.9832 -2.1957
  959MOL0     H32336   4.878   3.137   6.861  1.6621  1.9830  0.6085
  959MOL0     H32337   4.737   3.235   6.825  0.2408 -0.1406 -0.2878
  959MOL0     H32338   4.536   2.959   7.058 -0.4390  1.0639  0.1610
  959MOL0     H32339   5.302   2.962   7.035 -2.6910  0.6920  0.1872
  959MOL0     H32340   5.651   3.007   7.064 -1.8519  1.0637 -1.8179
  959MOL0     H32341   5.606   2.991   7.235  2.1895 -3.7917  0.1229
  959MOL0     H32342   5.525   2.889   7.116  2.1559 -1.1739  2.9191
  960MOL0     O32343   7.448   8.845   5.869 -0.4872  0.2149  0.4760
  960MOL0     C32344   7.341   8.843   5.935 -0.5898 -0.1421 -0.4898
  960MOL0     O32345   7.267   8.959   5.959  0.6895  0.6678  0.0584
  960MOL0     C32346   7.292   9.090   5.907 -0.2532 -0.0435 -0.2607
  960MOL0     C32347   7.352   9.119   5.783 -0.5620 -0.1418 -0.3479
  960MOL0     C32348   7.393   9.246   5.747  0.3022 -0.6660 -0.2921
  960MOL0     C32349   7.364   9.361   5.837 -0.6119  0.4734  0.0636
  960MOL0     O32350   7.400   9.495   5.825  0.4715  1.1201  0.0238
  960MOL0     C32351   7.520   9.525   5.762 -0.0939 -0.0673  0.3906
  960MOL0     C32352   7.579   9.657   5.822 -0.1924  0.0947 -0.6968
  960MOL0     C32353   7.700   9.700   5.735 -0.1202 -0.5128 -0.5491
  960MOL0     C32354   7.776   9.817   5.796 -0.6372  0.5394 -1.1628
  960MOL0     C32355   7.895   9.860   5.706  0.5206  0.4908 -0.7800
  960MOL0     C32356   7.985   9.975   5.776  0.1587  0.1641  0.8403
  960MOL0     C32357   8.068  10.038   5.658  0.4355  0.9251 -0.6883
  960MOL0     C32358   8.007  10.159   5.593 -0.7099 -0.1169  0.4901
  960MOL0     N32359   8.069  10.182   5.464  0.4815  0.1940  0.3116
  960MOL0     C32360   7.999  10.152   5.355  0.5751  0.4420 -0.5262
  960MOL0     C32361   8.034  10.251   5.267  0.4496  0.8375 -0.7144
  960MOL0     C32362   7.963  10.288   5.142 -0.8613  0.4693  0.5250
  960MOL0     C32363   7.857  10.397   5.152 -0.2980  0.1965 -0.5197
  960MOL0     C32364   7.749  10.368   5.044 -0.2055 -0.2585 -0.3662
  960MOL0     C32365   7.642  10.482   5.050 -0.5764 -0.5194  0.5964
  960MOL0     O32366   7.571  10.466   5.169  0.5765  0.6492 -0.7788
  960MOL0     C32367   7.445  10.525   5.199  0.3297 -0.1843  0.2636
  960MOL0     C32368   7.391  10.519   5.328  0.0939 -0.2618  0.0451
  960MOL0     C32369   7.283  10.595   5.374  0.3812 -0.2184  0.0573
  960MOL0     C32370   7.262  10.593   5.518  0.3088 -0.2308 -0.5263
  960MOL0     C32371   7.218  10.675   5.285  0.4645  0.5397 -0.6492
  960MOL0     C32372   7.111  10.769   5.322  0.0907  0.0333  0.0552
  960MOL0     O32373   7.094  10.877   5.239 -1.2875 -0.3021  0.1810
  960MOL0     C32374   6.996  10.966   5.260 -0.2714 -0.4444  0.3043
  960MOL0     C32375   6.869  10.962   5.197 -0.0146  0.4505  0.2907
  960MOL0     C32376   6.768  11.062   5.218 -1.2081 -0.5883 -0.2708
  960MOL0     C32377   6.794  11.164   5.309 -0.1708  0.6642  0.3077
  960MOL0     O32378   6.703  11.260   5.334 -0.2017  0.2461 -0.4556
  960MOL0     C32379   6.743  11.395   5.301  0.2450  0.0250  0.3574
  960MOL0     C32380   6.620  11.491   5.339  0.6536  0.7779  0.6445
  960MOL0     C32381   6.506  11.469   5.240  0.4834  1.4948 -0.8122
  960MOL0     C32382   6.398  11.579   5.275  0.7740  0.2005  1.0831
  960MOL0     C32383   6.266  11.552   5.205 -0.2216  0.4202 -0.6572
  960MOL0     C32384   6.168  11.668   5.249  0.0342  0.3043  0.5031
  960MOL0     C32385   6.034  11.647   5.187  1.3801  0.6025  0.7945
  960MOL0     C32386   5.930  11.757   5.207  0.8846 -0.0510  0.2081
  960MOL0    Cl32387   5.986  11.912   5.137  0.6405 -0.0135  0.2214
  960MOL0     C32388   6.921  11.167   5.367 -0.1837  0.2244  0.3958
  960MOL0     C32389   7.019  11.073   5.349 -0.0567  0.4414 -0.0910
  960MOL0     O32390   7.040  10.741   5.421 -0.3981  0.3824  1.1454
  960MOL0     C32391   7.266  10.678   5.154 -0.0684  0.0996  0.6734
  960MOL0     C32392   7.379  10.601   5.110  1.1522  0.1870 -0.3065
  960MOL0     N32393   8.134  10.328   5.320  0.1344  0.4104 -0.4784
  960MOL0     N32394   8.157  10.285   5.433 -0.0840  0.3129  0.1817
  960MOL0     C32395   7.290   9.333   5.953  1.0308  0.5086  0.4336
  960MOL0     C32396   7.256   9.196   5.990 -0.0129 -0.3322 -0.0676
  960MOL0     C32397   7.271   8.726   5.980 -0.5358  0.2518  0.1953
  960MOL0     C32398   7.183   8.728   6.092  1.0948 -0.2013  0.6182
  960MOL0     C32399   7.095   8.618   6.118  0.1248 -0.2346  0.2125
  960MOL0     C32400   7.117   8.496   6.058 -0.1892  0.1546  0.5458
  960MOL0     O32401   7.069   8.375   6.088 -0.0168  0.4378  0.0733
  960MOL0     C32402   6.960   8.360   6.175 -0.6387  0.6139 -0.5198
  960MOL0     C32403   6.892   8.220   6.146 -0.1092  0.1648  0.7021
  960MOL0     C32404   6.786   8.192   6.251  0.2601 -0.2205  0.0891
  960MOL0     C32405   6.690   8.074   6.234  0.1620  0.7600 -0.0193
  960MOL0     C32406   6.608   8.080   6.114 -1.1288  0.4036  0.3167
  960MOL0     C32407   6.525   8.085   6.026  0.0456  0.9521 -0.2757
  960MOL0     C32408   7.227   8.492   5.972  0.6820  0.2934  0.4889
  960MOL0     C32409   7.306   8.596   5.936  0.4073 -0.2266  0.0521
  960MOL0     C32410   7.418   8.574   5.843 -0.8308 -0.2009  0.1601
  960MOL0     H32411   7.387   9.032   5.728  2.3337 -0.4173  1.7360
  960MOL0     H32412   7.447   9.255   5.654 -0.5565 -1.6015 -0.8963
  960MOL0     H32413   7.508   9.531   5.653  2.4325  0.1598  0.0680
  960MOL0     H32414   7.590   9.445   5.787 -0.9164  0.0063  3.2352
  960MOL0     H32415   7.499   9.731   5.830 -0.0443  0.3218 -1.2399
  960MOL0     H32416   7.613   9.649   5.926  0.0696  1.8846 -0.6052
  960MOL0     H32417   7.771   9.617   5.739  0.9283  0.3927  1.5158
  960MOL0     H32418   7.666   9.721   5.633  0.1683 -1.4849 -0.8493
  960MOL0     H32419   7.712   9.899   5.831  0.7833 -0.0357  3.5199
  960MOL0     H32420   7.814   9.790   5.895 -4.4672  2.7006  1.1826
  960MOL0     H32421   7.851   9.884   5.609 -0.5482 -3.0239 -1.2870
  960MOL0     H32422   7.959   9.772   5.691 -4.4101 -3.3397 -1.9146
  960MOL0     H32423   7.925  10.050   5.828 -1.3908  0.3813 -1.1251
  960MOL0     H32424   8.051   9.935   5.853  2.4201  1.6015 -0.2282
  960MOL0     H32425   8.096   9.960   5.586  0.8021 -1.3577  1.7775
  960MOL0     H32426   8.162  10.063   5.708  1.3539 -1.1479 -1.2596
  960MOL0     H32427   7.898  10.161   5.588 -0.7415  2.2487  0.6553
  960MOL0     H32428   8.033  10.248   5.652  1.7196  0.7106 -1.6278
  960MOL0     H32429   7.912  10.090   5.341 -0.2984  1.8798 -1.8255
  960MOL0     H32430   7.912  10.201   5.097 -0.6777  0.7732 -0.2974
  960MOL0     H32431   8.042  10.326   5.076 -0.7570 -0.3356  0.1645
  960MOL0     H32432   7.812  10.392   5.252 -2.1642 -3.9450 -1.3262
  960MOL0     H32433   7.903  10.495   5.141 -1.2524  0.4999 -2.1643
  960MOL0     H32434   7.790  10.358   4.943 -1.1211  0.1161 -0.7990
  960MOL0     H32435   7.706  10.271   5.070 -1.1282  0.9810  3.4020
  960MOL0     H32436   7.676  10.586   5.048  1.8408 -1.2613  0.4198
  960MOL0     H32437   7.569  10.465   4.970  0.6797 -0.8422 -0.5260
  960MOL0     H32438   7.438  10.453   5.400 -1.1248 -2.2682 -0.8739
  960MOL0     H32439   7.340  10.531   5.564  2.7699  1.9032 -1.5943
  960MOL0     H32440   7.160  10.554   5.528 -0.9161  2.4913 -1.6350
  960MOL0     H32441   7.251  10.694   5.556 -3.5935 -0.2450 -1.1682
  960MOL0     H32442   6.846  10.889   5.120  0.6540  0.7150 -0.1740
  960MOL0     H32443   6.665  11.051   5.186 -2.0804 -1.3273  2.4699
  960MOL0     H32444   6.827  11.421   5.366 -3.0464 -0.8955  5.5296
  960MOL0     H32445   6.768  11.394   5.194 -1.4636 -0.3675 -0.0655
  960MOL0     H32446   6.591  11.454   5.438  1.8658  2.7156  1.7871
  960MOL0     H32447   6.648  11.595   5.355  1.6579  0.1804  3.2785
  960MOL0     H32448   6.460  11.370   5.252  0.9313  1.3764 -0.0125
  960MOL0     H32449   6.543  11.476   5.137  0.6839  0.6554 -0.8097
  960MOL0     H32450   6.433  11.676   5.239  1.4159  0.7383  3.0011
  960MOL0     H32451   6.384  11.582   5.384 -0.2246 -2.3492  1.0908
  960MOL0     H32452   6.290  11.544   5.099 -0.9271 -0.7395 -0.7476
  960MOL0     H32453   6.222  11.456   5.235 -0.9859  0.8092 -0.5146
  960MOL0     H32454   6.214  11.760   5.212  0.9463 -1.2079 -2.4128
  960MOL0     H32455   6.173  11.666   5.358  1.3986  2.3437  0.5253
  960MOL0     H32456   5.989  11.560   5.236  0.0886 -0.5290 -2.1309
  960MOL0     H32457   6.045  11.634   5.079 -1.7902  1.0951  0.3205
  960MOL0     H32458   5.917  11.774   5.315 -1.7805 -2.3228  0.3702
  960MOL0     H32459   5.835  11.721   5.167 -0.2608  3.9229 -1.0600
  960MOL0     H32460   6.947  11.241   5.442 -2.7586  0.7434  0.8676
  960MOL0     H32461   7.116  11.079   5.397  1.7581 -2.4821 -2.9665
  960MOL0     H32462   7.205  10.732   5.082 -0.0221 -1.9026 -0.9487
  960MOL0     H32463   7.409  10.609   5.006  1.8789 -1.7998 -0.2773
  960MOL0     H32464   7.264   9.417   6.016  1.5886  1.6455 -0.8051
  960MOL0     H32465   7.211   9.172   6.085  0.5730  1.7925  0.8055
  960MOL0     H32466   7.180   8.819   6.152 -4.4516 -1.1761  2.3384
  960MOL0     H32467   7.017   8.635   6.191 -0.8266  0.7740 -0.9903
  960MOL0     H32468   7.001   8.373   6.276  1.2789  4.3094 -1.6203
  960MOL0     H32469   6.875   8.428   6.163 -1.6886  0.0516  2.6833
  960MOL0     H32470   6.965   8.140   6.162 -3.2547 -2.9222  0.8274
  960MOL0     H32471   6.854   8.222   6.044  1.8687  1.4895 -0.0686
  960MOL0     H32472   6.845   8.188   6.343  0.3730 -3.4133  0.0029
  960MOL0     H32473   6.721   8.280   6.246  3.4192  2.2903  0.3444
  960MOL0     H32474   6.631   8.052   6.324  1.1576 -1.5103  0.1426
  960MOL0     H32475   6.751   7.984   6.225 -0.1448  0.5098  0.3481
  960MOL0     H32476   6.467   8.064   5.939 -0.1130 -0.0138  0.0502
  960MOL0     H32477   7.235   8.391   5.932  1.8510  1.0492 -1.3274
  960MOL0     H32478   7.513   8.592   5.894 -1.2678  0.3172  0.8085
  960MOL0     H32479   7.422   8.471   5.806 -0.4468  0.5142 -1.9258
  960MOL0     H32480   7.401   8.630   5.751  0.6578 -0.3134 -0.2010
  961MOL0     O32481  10.451   1.744   5.797 -0.0416 -0.1422 -0.2184
  961MOL0     C32482  10.424   1.681   5.696  0.4589  0.4101 -0.7732
  961MOL0     O32483  10.487   1.695   5.588  0.1610 -0.1739 -0.6092
  961MOL0     C32484  10.600   1.781   5.581 -0.8100  0.6513 -0.0279
  961MOL0     C32485  10.726   1.744   5.636  0.3961  0.3342 -0.4358
  961MOL0     C32486  10.836   1.819   5.611  0.2685  0.6339 -0.4222
  961MOL0     C32487  10.820   1.933   5.540  0.4261 -0.5437 -0.2583
  961MOL0     O32488  10.919   2.024   5.514  0.4182  0.7817  0.4851
  961MOL0     C32489  11.047   1.972   5.542 -0.1056  0.3504 -0.8238
  961MOL0     C32490  11.142   2.080   5.483  0.6402  0.7901 -0.1165
  961MOL0     C32491  11.286   2.044   5.504 -0.1522 -0.2843  0.8189
  961MOL0     C32492  11.383   2.103   5.390  0.6219  0.5125  0.2590
  961MOL0     C32493  11.534   2.079   5.403 -0.2499 -0.0945 -0.1395
  961MOL0     C32494  11.606   2.157   5.285  0.5583  0.0980  0.7166
  961MOL0     C32495  11.753   2.189   5.315  0.6311  0.2853  0.2096
  961MOL0     C32496  11.832   2.070   5.358 -0.4735 -0.5504  0.9964
  961MOL0     N32497  11.975   2.064   5.315 -0.2127  0.7722 -0.1518
  961MOL0     C32498  12.021   2.066   5.184  0.8644  0.3162 -0.0392
  961MOL0     C32499  12.146   2.019   5.191  0.0579 -0.8570  0.3843
  961MOL0     C32500  12.230   1.987   5.070 -0.4470  0.0341 -0.9240
  961MOL0     C32501  12.374   2.045   5.081  0.2891  0.0290 -0.1567
  961MOL0     C32502  12.445   1.970   4.960  0.7769 -0.0166  0.2243
  961MOL0     C32503  12.580   2.020   4.945 -0.7416 -0.9235  0.0399
  961MOL0     O32504  12.656   1.968   5.055 -0.3640 -0.3925 -0.2676
  961MOL0     C32505  12.778   2.027   5.069 -0.6762  0.3557 -0.4809
  961MOL0     C32506  12.839   2.005   5.193 -0.7987  0.1929 -0.4275
  961MOL0     C32507  12.971   2.047   5.228  0.3316  0.1289 -0.1691
  961MOL0     C32508  13.022   2.012   5.370 -0.1672  0.5285 -1.1385
  961MOL0     C32509  13.051   2.109   5.122  0.3257  0.6835 -0.3246
  961MOL0     C32510  13.183   2.167   5.155  0.3412 -0.5066 -0.8409
  961MOL0     O32511  13.286   2.143   5.067 -0.9074  0.2208  0.3129
  961MOL0     C32512  13.417   2.166   5.106  0.4208  0.2173  0.0599
  961MOL0     C32513  13.479   2.289   5.116 -1.4827 -0.5781  0.6461
  961MOL0     C32514  13.614   2.297   5.159  0.5033 -0.4339 -0.6214
  961MOL0     C32515  13.686   2.185   5.189  1.0282 -0.1960 -0.3531
  961MOL0     O32516  13.817   2.188   5.220 -0.1898  0.3460  0.4312
  961MOL0     C32517  13.896   2.308   5.256 -0.4092 -0.4857  0.0120
  961MOL0     C32518  14.031   2.269   5.303  0.3186  0.2802  0.8035
  961MOL0     C32519  14.099   2.195   5.184  0.6700 -0.4668  0.2791
  961MOL0     C32520  14.250   2.168   5.227  0.4802 -0.8393  0.1432
  961MOL0     C32521  14.330   2.114   5.110  0.5590  0.4069  0.7355
  961MOL0     C32522  14.478   2.142   5.135 -0.3901 -1.1961 -0.3109
  961MOL0     C32523  14.564   2.038   5.066 -0.7032 -0.4045  0.3198
  961MOL0     C32524  14.580   1.904   5.133 -0.8033 -0.8970  0.5449
  961MOL0    Cl32525  14.459   1.867   5.264  0.4908  0.6206 -0.0291
  961MOL0     C32526  13.619   2.065   5.183 -0.8257  1.0294 -0.4232
  961MOL0     C32527  13.485   2.058   5.151  0.6586 -0.5563  0.0016
  961MOL0     O32528  13.186   2.241   5.253 -0.0917 -0.2724  0.6392
  961MOL0     C32529  12.989   2.132   4.996  0.5467  1.4260  0.1334
  961MOL0     C32530  12.853   2.086   4.970 -0.4586  0.2231  0.0662
  961MOL0     N32531  12.180   1.993   5.323  0.8803 -0.0031  0.1997
  961MOL0     N32532  12.079   2.037   5.400  0.0412 -0.1913  0.4523
  961MOL0     C32533  10.695   1.969   5.490 -0.1794 -0.0573  0.0069
  961MOL0     C32534  10.584   1.894   5.497 -0.3721 -0.2623 -0.0331
  961MOL0     C32535  10.306   1.597   5.693 -0.8262  0.2144 -0.2044
  961MOL0     C32536  10.227   1.597   5.579 -0.8546 -0.4826 -0.2889
  961MOL0     C32537  10.112   1.524   5.567  1.1188 -0.7294 -0.0958
  961MOL0     C32538  10.061   1.443   5.674  0.3812 -0.6961  0.6763
  961MOL0     O32539   9.946   1.369   5.660  1.2462 -0.3386  0.1242
  961MOL0     C32540   9.830   1.403   5.739 -0.1866  0.0495  1.3748
  961MOL0     C32541   9.711   1.341   5.675 -0.0598  0.1754 -0.2271
  961MOL0     C32542   9.588   1.337   5.761  0.1574  0.2639 -0.1946
  961MOL0     C32543   9.512   1.206   5.735  0.1384 -0.3437  0.1662
  961MOL0     C32544   9.403   1.197   5.838  0.0552  0.0543  1.8723
  961MOL0     C32545   9.310   1.185   5.916 -0.9653 -0.3672 -0.7466
  961MOL0     C32546  10.142   1.452   5.787 -0.3614  0.2887 -0.0485
  961MOL0     C32547  10.256   1.520   5.797 -0.4259 -0.4733 -0.0720
  961MOL0     C32548  10.336   1.512   5.934 -1.4546  0.3804  0.6111
  961MOL0     H32549  10.728   1.656   5.700 -0.8411  0.8896  0.3952
  961MOL0     H32550  10.930   1.788   5.656  0.5640  1.9516 -0.0834
  961MOL0     H32551  11.058   1.870   5.504  0.0449 -0.1315  0.4490
  961MOL0     H32552  11.061   1.967   5.651  0.5646  2.8580 -0.7327
  961MOL0     H32553  11.109   2.098   5.381 -0.6978  2.3145  0.5413
  961MOL0     H32554  11.120   2.174   5.535  2.2701  0.6356  0.9319
  961MOL0     H32555  11.320   2.086   5.599  0.5111  0.0714  0.4313
  961MOL0     H32556  11.296   1.936   5.512  3.2416 -0.0635  0.7745
  961MOL0     H32557  11.367   2.055   5.293 -0.1403 -0.0923  0.6647
  961MOL0     H32558  11.360   2.209   5.379  1.0877  0.3313 -4.2319
  961MOL0     H32559  11.565   1.975   5.387  0.0722  0.0015 -0.1376
  961MOL0     H32560  11.574   2.116   5.498 -0.1733 -0.5075 -0.0050
  961MOL0     H32561  11.597   2.093   5.197  3.3000  1.3722 -0.6247
  961MOL0     H32562  11.555   2.252   5.267  0.4750 -0.0673  0.0480
  961MOL0     H32563  11.771   2.275   5.380  1.2155  0.6741 -0.4546
  961MOL0     H32564  11.792   2.234   5.223 -1.1901 -0.4465 -0.9821
  961MOL0     H32565  11.829   2.068   5.468 -0.2948  0.1782  1.0154
  961MOL0     H32566  11.800   1.975   5.315 -2.5366  0.9280 -0.9326
  961MOL0     H32567  11.958   2.087   5.098  0.1721  1.5550  0.7363
  961MOL0     H32568  12.186   2.018   4.975  0.3308 -0.1970 -1.3652
  961MOL0     H32569  12.246   1.879   5.071 -1.4283 -0.1354 -1.9436
  961MOL0     H32570  12.381   2.154   5.077 -0.7190  0.2904  2.6305
  961MOL0     H32571  12.425   2.024   5.176  1.1940 -1.5303 -0.9418
  961MOL0     H32572  12.445   1.862   4.976 -0.2899 -0.2437 -1.1360
  961MOL0     H32573  12.387   2.004   4.874 -0.3132  3.5871  2.1375
  961MOL0     H32574  12.624   1.991   4.849 -1.1569 -1.8221  0.1118
  961MOL0     H32575  12.587   2.129   4.936  3.0464 -1.2187 -2.8790
  961MOL0     H32576  12.796   1.948   5.275  0.2210 -0.3689 -0.2613
  961MOL0     H32577  12.947   1.954   5.424 -1.6407  1.6674 -1.8928
  961MOL0     H32578  13.056   2.096   5.431 -0.8831 -1.7214  2.6355
  961MOL0     H32579  13.114   1.953   5.360 -2.0713 -2.9984  0.3353
  961MOL0     H32580  13.420   2.374   5.083  0.4651 -0.8501 -4.2688
  961MOL0     H32581  13.660   2.395   5.162 -0.6421  0.1008  0.1604
  961MOL0     H32582  13.907   2.364   5.162  0.4603 -2.1715 -0.9422
  961MOL0     H32583  13.854   2.372   5.334  0.0444 -2.3297  1.8382
  961MOL0     H32584  14.083   2.364   5.317  2.1933 -0.1740 -2.1224
  961MOL0     H32585  14.038   2.217   5.399  3.3285 -2.7554 -0.8422
  961MOL0     H32586  14.097   2.272   5.106  2.6143 -2.0926 -1.5007
  961MOL0     H32587  14.052   2.104   5.146 -2.4364  0.7844  0.8388
  961MOL0     H32588  14.252   2.114   5.322  2.1134  1.3159  1.4123
  961MOL0     H32589  14.287   2.267   5.253 -2.4955  0.6481 -0.8339
  961MOL0     H32590  14.308   2.009   5.087  0.8688  0.1186  1.7054
  961MOL0     H32591  14.299   2.169   5.021  0.4369 -1.1591 -0.2241
  961MOL0     H32592  14.504   2.141   5.241  2.5943  1.6309 -0.8439
  961MOL0     H32593  14.494   2.249   5.117  0.3053  0.4314  6.9040
  961MOL0     H32594  14.662   2.076   5.036 -1.1897 -0.1691 -1.0294
  961MOL0     H32595  14.520   2.010   4.970 -0.9554 -0.1038  0.3494
  961MOL0     H32596  14.681   1.895   5.176 -0.4461 -0.2081 -0.1256
  961MOL0     H32597  14.572   1.823   5.061  1.3449 -1.1481  0.5048
  961MOL0     H32598  13.674   1.973   5.201 -2.6099 -0.5471 -2.5000
  961MOL0     H32599  13.448   1.957   5.135  2.8247 -1.4040  0.0115
  961MOL0     H32600  13.036   2.187   4.915 -3.9215  3.1788 -1.5963
  961MOL0     H32601  12.806   2.111   4.876 -2.4132 -0.4695  0.8177
  961MOL0     H32602  10.694   2.062   5.436  0.7774 -1.2414 -2.1843
  961MOL0     H32603  10.486   1.917   5.456 -0.3810  3.7709  1.8721
  961MOL0     H32604  10.249   1.672   5.503 -0.2931 -2.2040 -1.9127
  961MOL0     H32605  10.049   1.516   5.479 -1.5290  1.3633  1.4599
  961MOL0     H32606   9.833   1.360   5.839 -1.5719  2.4905  2.5727
  961MOL0     H32607   9.821   1.512   5.752 -0.8964  0.0121  1.2587
  961MOL0     H32608   9.749   1.246   5.636 -0.7413 -0.1095 -0.2066
  961MOL0     H32609   9.677   1.394   5.585 -1.1766 -3.1682 -1.9276
  961MOL0     H32610   9.612   1.343   5.868 -1.5947  1.9608  0.1713
  961MOL0     H32611   9.534   1.430   5.743  1.2310  0.7512 -1.0609
  961MOL0     H32612   9.568   1.114   5.753  0.3021 -0.1943  0.4141
  961MOL0     H32613   9.465   1.202   5.636 -1.8801  0.5825  1.0231
  961MOL0     H32614   9.238   1.174   5.994  1.0489  0.6089  1.3609
  961MOL0     H32615  10.114   1.385   5.867 -0.8188  0.6204  0.0679
  961MOL0     H32616  10.277   1.446   5.998 -0.2298 -0.2966  1.0743
  961MOL0     H32617  10.436   1.472   5.918 -1.4489  0.0461  1.4554
  961MOL0     H32618  10.359   1.604   5.988  3.2497  0.0631 -0.4191
  962MOL0     O32619   6.024   8.214   7.710  0.4922  0.4048  0.4358
  962MOL0     C32620   6.042   8.129   7.630 -0.0685  0.3387 -0.3799
  962MOL0     O32621   5.988   8.131   7.508 -0.5596 -0.8096 -0.0601
  962MOL0     C32622   5.874   8.205   7.487  0.3567 -0.0264  0.0822
  962MOL0     C32623   5.768   8.206   7.570 -0.1199 -0.5827 -0.0404
  962MOL0     C32624   5.650   8.271   7.534 -0.7783  0.7698  0.2765
  962MOL0     C32625   5.632   8.336   7.415  0.5309  0.0614 -0.2645
  962MOL0     O32626   5.516   8.405   7.385  0.2760 -0.0064 -0.4990
  962MOL0     C32627   5.400   8.332   7.325  0.5269 -0.4929 -0.4155
  962MOL0     C32628   5.311   8.288   7.451 -0.1571 -0.2326  0.5721
  962MOL0     C32629   5.284   8.401   7.551 -0.1155 -0.6159  0.2678
  962MOL0     C32630   5.249   8.346   7.691 -0.0312 -0.0076  0.0559
  962MOL0     C32631   5.099   8.307   7.697 -0.5710 -0.7268  0.8827
  962MOL0     C32632   5.036   8.303   7.833 -0.2331 -0.5482  0.0778
  962MOL0     C32633   4.891   8.267   7.831  0.2846  1.0434  0.4593
  962MOL0     C32634   4.842   8.224   7.970  0.2529 -1.3633 -0.5933
  962MOL0     N32635   4.698   8.209   7.972  0.1472  0.8480 -0.4150
  962MOL0     C32636   4.613   8.201   7.866  0.8937  0.1132  0.3373
  962MOL0     C32637   4.484   8.198   7.913 -0.4718 -0.7273 -0.3647
  962MOL0     C32638   4.375   8.189   7.814 -0.5920  0.0475  0.1167
  962MOL0     C32639   4.304   8.046   7.819 -0.3667 -0.2472 -0.1238
  962MOL0     C32640   4.234   8.011   7.946 -0.6791 -0.5581 -1.3150
  962MOL0     C32641   4.093   8.082   7.969 -0.5672  0.2088  0.2961
  962MOL0     O32642   4.029   8.005   8.071 -0.4012  0.6947  0.3737
  962MOL0     C32643   3.894   8.025   8.089 -0.7168  0.3646 -0.3861
  962MOL0     C32644   3.824   7.930   8.155  0.1445  0.8736 -0.0391
  962MOL0     C32645   3.684   7.941   8.184 -0.0721  0.3942  0.1305
  962MOL0     C32646   3.628   7.833   8.280  0.3359  0.1848  0.1637
  962MOL0     C32647   3.610   8.044   8.133 -0.6495 -0.6903  0.0869
  962MOL0     C32648   3.461   8.056   8.136 -0.0137 -0.3650 -0.2514
  962MOL0     O32649   3.388   7.940   8.115 -0.7290 -0.8434  0.0536
  962MOL0     C32650   3.254   7.941   8.105  0.0923  0.5827  0.4284
  962MOL0     C32651   3.183   7.874   8.194  0.2438  0.2357 -0.5613
  962MOL0     C32652   3.047   7.857   8.181  0.0057 -0.0843 -0.3741
  962MOL0     C32653   2.974   7.926   8.087  0.9193 -0.2576 -0.2201
  962MOL0     O32654   2.838   7.912   8.097 -0.6915  0.3050  1.0672
  962MOL0     C32655   2.751   8.015   8.030 -0.2568 -0.0379  0.3845
  962MOL0     C32656   2.615   8.037   8.108  0.4006 -0.5824 -0.1411
  962MOL0     C32657   2.516   8.105   8.007 -0.3125 -0.8840  0.4752
  962MOL0     C32658   2.410   8.197   8.073  0.0358  0.2058  0.3340
  962MOL0     C32659   2.287   8.210   7.992  0.4532  0.6037  0.7836
  962MOL0     C32660   2.187   8.299   8.060 -0.0173  0.4197 -0.2492
  962MOL0     C32661   2.055   8.275   7.990  0.8452  0.1525  0.2332
  962MOL0     C32662   1.950   8.387   8.020  0.7515 -0.9706  0.1229
  962MOL0    Cl32663   1.899   8.356   8.187  0.0974  0.5233 -0.0057
  962MOL0     C32664   3.044   8.011   7.994  0.2519  0.3885  0.3010
  962MOL0     C32665   3.188   8.003   8.002  0.6436 -0.5509  0.3244
  962MOL0     O32666   3.412   8.169   8.151 -0.0313 -0.1512 -0.0688
  962MOL0     C32667   3.686   8.153   8.075 -0.7894 -0.2846  0.0019
  962MOL0     C32668   3.825   8.134   8.043 -0.6850  1.0891 -1.5758
  962MOL0     N32669   4.493   8.225   8.049  0.0351  0.4050  0.6646
  962MOL0     N32670   4.617   8.228   8.079 -0.3551 -0.3671  0.6052
  962MOL0     C32671   5.740   8.338   7.326  0.3413  0.3878 -1.0081
  962MOL0     C32672   5.862   8.268   7.359  0.1118 -1.2627 -0.9308
  962MOL0     C32673   6.167   8.045   7.658 -0.8200 -0.4019  0.6305
  962MOL0     C32674   6.185   7.944   7.564 -0.0943 -0.2563  0.0409
  962MOL0     C32675   6.281   7.844   7.574  0.1580 -0.1279 -0.3908
  962MOL0     C32676   6.364   7.841   7.689  0.8543  0.2091  0.1713
  962MOL0     O32677   6.474   7.760   7.693  0.0959 -0.3991 -0.4200
  962MOL0     C32678   6.546   7.743   7.816 -0.4713 -0.1680 -1.2006
  962MOL0     C32679   6.659   7.641   7.809  0.1365 -0.3480 -0.4279
  962MOL0     C32680   6.774   7.702   7.711  0.8332  0.7099  0.6809
  962MOL0     C32681   6.761   7.646   7.570  0.1282  0.6975  0.4002
  962MOL0     C32682   6.851   7.728   7.486 -1.1530  0.2872  0.6467
  962MOL0     C32683   6.904   7.792   7.397 -0.1349 -0.4421 -0.3284
  962MOL0     C32684   6.348   7.949   7.776  0.4240  0.0646 -0.9403
  962MOL0     C32685   6.257   8.052   7.770 -0.2352 -0.3680 -0.4786
  962MOL0     C32686   6.258   8.161   7.875 -0.2565  0.1263 -0.0747
  962MOL0     H32687   5.775   8.163   7.670  0.8563  0.1679  0.2186
  962MOL0     H32688   5.566   8.282   7.602 -0.6466  1.5923  0.3169
  962MOL0     H32689   5.433   8.238   7.279 -0.8642 -0.1449 -2.2323
  962MOL0     H32690   5.345   8.396   7.255  1.5140  0.9342  0.0823
  962MOL0     H32691   5.215   8.257   7.409  0.6090 -0.6558 -0.9098
  962MOL0     H32692   5.350   8.198   7.499 -4.3609 -0.8260  3.4336
  962MOL0     H32693   5.378   8.456   7.565 -0.4891 -0.3590  2.0155
  962MOL0     H32694   5.203   8.465   7.515 -0.0419 -1.5222 -1.6012
  962MOL0     H32695   5.315   8.262   7.715  1.9099  0.9962 -1.4747
  962MOL0     H32696   5.258   8.427   7.765 -1.4716 -0.4474  0.7489
  962MOL0     H32697   5.088   8.209   7.649  0.3636 -1.8213  2.7643
  962MOL0     H32698   5.051   8.390   7.645  2.9143  0.5058 -0.6461
  962MOL0     H32699   5.088   8.221   7.884 -1.1179 -1.1958 -0.0382
  962MOL0     H32700   5.044   8.403   7.878 -2.8103 -0.7639  1.1952
  962MOL0     H32701   4.870   8.186   7.760 -0.9345  1.6281  0.1256
  962MOL0     H32702   4.837   8.358   7.803 -0.0886  0.8189  0.4474
  962MOL0     H32703   4.895   8.134   8.001  0.1905 -0.7241  1.6112
  962MOL0     H32704   4.855   8.310   8.037 -4.7835  1.9042 -3.1436
  962MOL0     H32705   4.642   8.193   7.762 -0.4959  1.8405 -0.2309
  962MOL0     H32706   4.411   8.217   7.715 -0.7168  0.7020  0.2501
  962MOL0     H32707   4.302   8.266   7.836 -0.3655  0.5174 -0.7343
  962MOL0     H32708   4.237   8.023   7.735  0.8784 -4.6532 -0.1612
  962MOL0     H32709   4.385   7.973   7.810 -0.7278 -0.6671  0.0121
  962MOL0     H32710   4.226   7.903   7.956  2.0905 -1.0511 -3.2407
  962MOL0     H32711   4.307   8.035   8.024  1.5943 -0.1956 -3.4317
  962MOL0     H32712   4.098   8.189   7.993 -0.3258 -0.0600  1.5133
  962MOL0     H32713   4.037   8.070   7.876  0.0421  0.1486 -0.0717
  962MOL0     H32714   3.872   7.845   8.203 -0.5843  0.7841  0.5683
  962MOL0     H32715   3.544   7.874   8.335  0.1482 -0.1634  0.1414
  962MOL0     H32716   3.708   7.793   8.343  1.2035 -2.0721 -2.1440
  962MOL0     H32717   3.582   7.745   8.233 -1.1071  0.8836  0.2124
  962MOL0     H32718   3.242   7.813   8.262  1.6892  0.3105 -1.6881
  962MOL0     H32719   2.997   7.801   8.259  0.4797 -0.2121 -0.1578
  962MOL0     H32720   2.790   8.116   8.041  1.3911 -0.6318  0.2473
  962MOL0     H32721   2.734   7.994   7.924 -0.3919  0.8448  0.2233
  962MOL0     H32722   2.585   7.941   8.151  1.7460 -1.4632 -1.0656
  962MOL0     H32723   2.644   8.100   8.193 -2.9066 -0.0970  0.7620
  962MOL0     H32724   2.475   8.028   7.942  1.0168 -1.2422  0.0215
  962MOL0     H32725   2.574   8.165   7.936  0.3727 -0.3534  1.4550
  962MOL0     H32726   2.451   8.296   8.095 -1.4477  0.6029  1.5380
  962MOL0     H32727   2.397   8.148   8.170  2.4924 -3.0065 -0.7680
  962MOL0     H32728   2.306   8.250   7.891  2.5011 -1.6102  0.2041
  962MOL0     H32729   2.244   8.112   7.972 -1.6185  1.0277  2.7271
  962MOL0     H32730   2.223   8.402   8.048 -0.1023  0.2052 -2.7944
  962MOL0     H32731   2.186   8.285   8.169  2.4719  1.8962  0.0312
  962MOL0     H32732   2.026   8.173   8.020 -0.4021 -0.4273 -2.5923
  962MOL0     H32733   2.068   8.274   7.882  0.5765 -0.1735  0.2016
  962MOL0     H32734   1.857   8.378   7.963  0.6405 -1.2604  0.3473
  962MOL0     H32735   1.984   8.491   8.011  2.4144 -1.2708  2.1600
  962MOL0     H32736   2.995   8.066   7.914  2.3853  1.2064 -0.5397
  962MOL0     H32737   3.236   8.076   7.938 -3.9209  3.2644  0.6824
  962MOL0     H32738   3.635   8.237   8.029 -0.3876  0.3567  0.7041
  962MOL0     H32739   3.875   8.213   7.987 -1.6226  2.3033 -0.7690
  962MOL0     H32740   5.725   8.396   7.235 -1.0770  0.1476 -0.9442
  962MOL0     H32741   5.945   8.272   7.289 -1.5600  0.5461 -2.9570
  962MOL0     H32742   6.123   7.949   7.474 -0.1759  3.0775  0.1723
  962MOL0     H32743   6.303   7.771   7.496  2.8815 -0.1336  0.2690
  962MOL0     H32744   6.592   7.835   7.853  1.8528 -0.7282 -2.5295
  962MOL0     H32745   6.472   7.707   7.888 -0.5639  1.3673 -0.4905
  962MOL0     H32746   6.626   7.545   7.766  4.1387 -0.4971 -3.7248
  962MOL0     H32747   6.698   7.610   7.907 -4.5258 -3.3625  0.8278
  962MOL0     H32748   6.770   7.810   7.697  2.1566  0.4282 -2.7247
  962MOL0     H32749   6.875   7.684   7.748  1.4842 -2.2777 -2.1449
  962MOL0     H32750   6.657   7.645   7.535 -0.9628  0.6393  3.3587
  962MOL0     H32751   6.797   7.543   7.569 -1.5617  0.0518  1.6144
  962MOL0     H32752   6.944   7.871   7.337 -0.9354 -0.2670 -0.6525
  962MOL0     H32753   6.418   7.960   7.858 -2.4833 -0.3657  1.7726
  962MOL0     H32754   6.284   8.261   7.840  1.8663  0.3954  2.0137
  962MOL0     H32755   6.158   8.162   7.921  0.2140 -0.4873  0.9998
  962MOL0     H32756   6.332   8.127   7.947 -1.3238 -2.5916 -0.1540
  963MOL0     O32757   7.831   4.971   4.754  0.1014  0.0490 -0.6048
  963MOL0     C32758   7.907   4.998   4.844 -0.3400 -0.4241 -0.0950
  963MOL0     O32759   8.030   5.056   4.830 -0.2028  0.1441  0.8751
  963MOL0     C32760   8.062   5.083   4.695  0.8661  0.3862  0.1085
  963MOL0     C32761   8.041   5.209   4.641  0.1488  0.5315 -0.7251
  963MOL0     C32762   8.086   5.244   4.516  0.1875  0.4271 -0.4783
  963MOL0     C32763   8.149   5.144   4.434  0.3762  0.6085 -0.7176
  963MOL0     O32764   8.208   5.166   4.308 -0.2171  0.5204 -1.0261
  963MOL0     C32765   8.162   5.280   4.240 -1.1816 -0.2878 -0.0443
  963MOL0     C32766   8.223   5.316   4.100 -0.1577  0.3315  0.5447
  963MOL0     C32767   8.265   5.205   4.019 -0.9171 -0.3394  0.3138
  963MOL0     C32768   8.298   5.250   3.879  0.3500  0.2266  0.4774
  963MOL0     C32769   8.310   5.139   3.765  0.0429 -0.2420  0.9358
  963MOL0     C32770   8.395   5.013   3.807  0.7007  0.1417 -0.0254
  963MOL0     C32771   8.408   4.911   3.691 -0.8365 -0.1578  0.3180
  963MOL0     C32772   8.306   4.797   3.703 -0.0035 -0.6795  0.0896
  963MOL0     N32773   8.345   4.681   3.620  0.5627 -0.0603  0.4144
  963MOL0     C32774   8.284   4.646   3.499  0.0925 -0.3432  0.4708
  963MOL0     C32775   8.367   4.554   3.454 -0.3863  0.2039  1.1670
  963MOL0     C32776   8.329   4.466   3.335 -0.4504 -0.3829  0.3679
  963MOL0     C32777   8.181   4.434   3.313  0.1659  0.5409 -0.5193
  963MOL0     C32778   8.157   4.350   3.188 -0.4126 -0.2617 -0.1635
  963MOL0     C32779   8.213   4.404   3.061  0.3537 -0.0642  0.1518
  963MOL0     O32780   8.173   4.540   3.044 -0.1885 -0.2855 -0.2116
  963MOL0     C32781   8.203   4.605   2.932 -0.1334 -0.4995  1.1775
  963MOL0     C32782   8.134   4.723   2.924 -0.7226 -0.6250  0.6507
  963MOL0     C32783   8.134   4.813   2.814 -1.1632  0.1768 -0.2765
  963MOL0     C32784   8.041   4.938   2.836 -0.2778  0.0663  0.0417
  963MOL0     C32785   8.232   4.793   2.704  0.2975 -1.0677 -0.1947
  963MOL0     C32786   8.255   4.892   2.595 -0.7220 -0.2402  0.0451
  963MOL0     O32787   8.354   4.852   2.506 -0.0213 -0.0513 -0.5834
  963MOL0     C32788   8.356   4.896   2.377  0.1685 -0.6438  0.0754
  963MOL0     C32789   8.253   4.941   2.289 -0.0767  0.5829  0.8634
  963MOL0     C32790   8.273   4.958   2.151  0.2831  0.1285  0.6236
  963MOL0     C32791   8.396   4.929   2.091  0.6718  0.1998 -0.6694
  963MOL0     O32792   8.430   4.936   1.960 -0.8733 -0.3874 -0.1850
  963MOL0     C32793   8.378   5.046   1.890 -0.7463 -0.0027  0.5008
  963MOL0     C32794   8.327   4.996   1.754  0.1023  0.5529  0.3428
  963MOL0     C32795   8.216   4.892   1.763  0.6200  0.8349 -0.8483
  963MOL0     C32796   8.196   4.828   1.626  0.9576 -0.3276  0.2268
  963MOL0     C32797   8.077   4.728   1.610 -0.6677 -0.3385 -0.4789
  963MOL0     C32798   8.109   4.588   1.653  0.3172 -0.1423  0.2767
  963MOL0     C32799   8.208   4.525   1.559 -0.5950 -0.3701  1.1783
  963MOL0     C32800   8.186   4.535   1.408  0.1876 -0.6465  0.8496
  963MOL0    Cl32801   8.023   4.476   1.353  0.3197  0.2842  0.0857
  963MOL0     C32802   8.498   4.881   2.179  0.0395  0.2688  0.4689
  963MOL0     C32803   8.471   4.859   2.318  0.4540  0.4315 -0.1493
  963MOL0     O32804   8.183   4.989   2.577 -0.1344 -0.1507 -0.9684
  963MOL0     C32805   8.317   4.680   2.726  0.0396  0.5367  0.0339
  963MOL0     C32806   8.296   4.580   2.829  0.1536 -0.0106  0.4904
  963MOL0     N32807   8.469   4.526   3.539 -0.0155 -0.6629 -0.0906
  963MOL0     N32808   8.458   4.603   3.639  0.3893 -1.0282 -0.4070
  963MOL0     C32809   8.162   5.009   4.490  0.0014 -0.6263 -0.1450
  963MOL0     C32810   8.126   4.982   4.622 -0.8075 -0.3133  1.2494
  963MOL0     C32811   7.861   4.989   4.986  0.7277  0.5221  0.5466
  963MOL0     C32812   7.721   5.011   5.011  0.5301  0.8547 -0.1747
  963MOL0     C32813   7.659   4.988   5.134  0.6576 -0.2602  0.3694
  963MOL0     C32814   7.733   4.936   5.238 -0.3158  0.5149  0.1035
  963MOL0     O32815   7.697   4.891   5.362  0.3523  0.2710 -0.5668
  963MOL0     C32816   7.554   4.898   5.383 -1.1259  0.2582  0.5932
  963MOL0     C32817   7.504   4.877   5.523 -0.4412  0.1339 -0.1647
  963MOL0     C32818   7.354   4.892   5.538 -0.4230 -1.0206  0.0113
  963MOL0     C32819   7.321   4.923   5.682 -0.7743 -0.5378  0.4699
  963MOL0     C32820   7.171   4.918   5.688 -0.3098 -0.0530 -0.4799
  963MOL0     C32821   7.049   4.925   5.683 -0.3786  0.8131 -0.6213
  963MOL0     C32822   7.876   4.929   5.205  0.7562  0.2628 -0.0537
  963MOL0     C32823   7.944   4.954   5.086  0.7887  0.5333 -0.7438
  963MOL0     C32824   8.098   4.946   5.079  0.1210  0.5722  0.0569
  963MOL0     H32825   7.991   5.286   4.699 -0.3100 -1.0777  1.1374
  963MOL0     H32826   8.068   5.345   4.481  1.8742 -0.6417 -5.2310
  963MOL0     H32827   8.183   5.377   4.286  0.0781 -0.0213 -1.1058
  963MOL0     H32828   8.053   5.282   4.242 -1.2515 -2.3398  0.4653
  963MOL0     H32829   8.154   5.385   4.050  0.5337  0.3885 -0.3437
  963MOL0     H32830   8.315   5.369   4.126  1.3627  1.4722 -5.6078
  963MOL0     H32831   8.351   5.149   4.057  1.1451  2.1666 -0.4122
  963MOL0     H32832   8.186   5.129   4.018 -3.2397  1.9510  0.6333
  963MOL0     H32833   8.219   5.317   3.844  1.4332  1.4660  0.3042
  963MOL0     H32834   8.391   5.307   3.879  1.6652 -1.7889 -0.3388
  963MOL0     H32835   8.342   5.179   3.669 -3.2362 -0.9992 -0.6340
  963MOL0     H32836   8.210   5.098   3.746 -0.6314  0.9372  1.7519
  963MOL0     H32837   8.495   5.057   3.820  0.2321  1.7113 -1.3712
  963MOL0     H32838   8.368   4.975   3.906  0.8258  0.8262  0.2840
  963MOL0     H32839   8.508   4.867   3.700 -0.0859  0.8312 -2.2332
  963MOL0     H32840   8.410   4.960   3.593  0.8213 -2.6103 -0.9852
  963MOL0     H32841   8.298   4.768   3.808  1.6876 -2.1805 -0.1627
  963MOL0     H32842   8.209   4.841   3.676  0.6490  1.9449  1.7268
  963MOL0     H32843   8.191   4.682   3.455 -0.0190  2.7846  2.9572
  963MOL0     H32844   8.383   4.371   3.341  1.3186  0.3775 -1.9895
  963MOL0     H32845   8.370   4.511   3.244 -1.4370 -0.7944 -0.2925
  963MOL0     H32846   8.136   4.380   3.397  2.8465  0.7843  1.1661
  963MOL0     H32847   8.134   4.532   3.299  1.4903  0.9830 -2.3303
  963MOL0     H32848   8.209   4.254   3.199  0.0826  0.2548  2.9294
  963MOL0     H32849   8.049   4.336   3.179 -0.4002 -0.2462 -0.3390
  963MOL0     H32850   8.320   4.390   3.081  0.7170  2.0617 -0.0780
  963MOL0     H32851   8.193   4.341   2.974  1.2623 -0.9342  0.5493
  963MOL0     H32852   8.078   4.764   3.007  0.6330 -0.5685  1.5689
  963MOL0     H32853   7.970   4.943   2.754  0.2977  0.1067 -0.4629
  963MOL0     H32854   8.110   5.024   2.834  0.5892 -0.3641  3.5293
  963MOL0     H32855   7.984   4.939   2.930  1.8748  2.2009  1.4636
  963MOL0     H32856   8.149   4.948   2.322 -0.3520 -3.9077  1.5403
  963MOL0     H32857   8.185   4.989   2.095  1.6655  1.6632 -0.7941
  963MOL0     H32858   8.288   5.080   1.940 -0.7636 -2.5207  2.3958
  963MOL0     H32859   8.453   5.126   1.889 -1.2281  0.4486  0.1527
  963MOL0     H32860   8.283   5.075   1.693 -0.6215 -0.4570 -0.4751
  963MOL0     H32861   8.414   4.951   1.706 -0.6188 -0.9072  0.3461
  963MOL0     H32862   8.129   4.937   1.813  1.3870 -1.1504  2.5563
  963MOL0     H32863   8.235   4.803   1.823  0.2747  1.1627 -0.2377
  963MOL0     H32864   8.292   4.785   1.595 -0.4536 -2.1943 -1.8678
  963MOL0     H32865   8.163   4.904   1.554 -2.1230 -2.0602 -0.4052
  963MOL0     H32866   8.005   4.773   1.679  2.0822  4.3935 -0.2758
  963MOL0     H32867   8.032   4.738   1.510  1.0760 -0.8091 -1.3549
  963MOL0     H32868   8.022   4.522   1.646  0.6092 -0.3618 -2.8005
  963MOL0     H32869   8.144   4.598   1.756 -0.0882  2.2463  0.2422
  963MOL0     H32870   8.216   4.419   1.585  0.2880 -0.6006  0.0921
  963MOL0     H32871   8.312   4.559   1.568 -0.2018 -1.8870  2.9381
  963MOL0     H32872   8.265   4.476   1.360  0.4830  0.1254  0.3741
  963MOL0     H32873   8.211   4.633   1.369  0.4839 -0.8637  0.4882
  963MOL0     H32874   8.591   4.856   2.130  1.2792  3.4666  0.9620
  963MOL0     H32875   8.551   4.829   2.386 -1.0530 -0.9935  1.0996
  963MOL0     H32876   8.397   4.660   2.656 -0.7715  0.1511 -0.8183
  963MOL0     H32877   8.351   4.487   2.823 -1.9352 -1.2131 -2.7062
  963MOL0     H32878   8.205   4.927   4.433  0.9213  1.1354 -2.1095
  963MOL0     H32879   8.140   4.881   4.658  0.9962 -0.1774  1.0058
  963MOL0     H32880   7.647   5.037   4.936  0.3606  1.2099  0.1134
  963MOL0     H32881   7.552   5.000   5.127  0.7800  0.8963  0.2232
  963MOL0     H32882   7.516   4.994   5.347 -0.8252  0.2190  0.1521
  963MOL0     H32883   7.515   4.818   5.319 -0.6626  2.1079 -2.1615
  963MOL0     H32884   7.559   4.932   5.600  0.1470 -3.5591  2.3166
  963MOL0     H32885   7.523   4.776   5.560 -2.9273  0.6907  3.0399
  963MOL0     H32886   7.328   4.967   5.463  0.1814 -0.8633 -0.0471
  963MOL0     H32887   7.310   4.795   5.514 -0.8090 -1.2027  1.3801
  963MOL0     H32888   7.349   5.022   5.718 -0.0493 -0.3086 -0.6708
  963MOL0     H32889   7.379   4.852   5.743 -2.2075 -0.7524  1.6381
  963MOL0     H32890   6.946   4.950   5.667 -1.0275 -0.7237  0.8223
  963MOL0     H32891   7.934   4.884   5.285 -0.5901 -0.9517  0.2910
  963MOL0     H32892   8.124   4.870   5.004 -1.3241  2.2899 -2.2904
  963MOL0     H32893   8.144   5.038   5.042  0.9425  0.0510 -0.2559
  963MOL0     H32894   8.145   4.917   5.174  1.5677 -0.2151 -0.8611
  964MOL0     O32895   8.774   1.015   9.344  0.7323 -0.7136 -0.0155
  964MOL0     C32896   8.728   0.971   9.452 -0.9823  0.4650  0.4230
  964MOL0     O32897   8.795   0.867   9.531  0.5533 -0.7048 -0.7543
  964MOL0     C32898   8.921   0.827   9.524 -0.0255  0.4501 -0.1373
  964MOL0     C32899   8.955   0.700   9.488  0.1254 -0.6595 -0.1170
  964MOL0     C32900   9.088   0.656   9.470  0.2071  0.3118 -0.6003
  964MOL0     C32901   9.192   0.746   9.489 -0.1509  0.8714  0.3111
  964MOL0     O32902   9.328   0.712   9.481 -0.2158  0.4559  0.5119
  964MOL0     C32903   9.364   0.594   9.399  0.0170  0.0343  0.2481
  964MOL0     C32904   9.503   0.571   9.391  0.0073  0.1329 -0.1957
  964MOL0     C32905   9.563   0.514   9.519  0.4831  1.2436  0.3504
  964MOL0     C32906   9.518   0.371   9.560 -0.2833 -0.0868 -0.1662
  964MOL0     C32907   9.605   0.291   9.657 -0.0983 -0.4435  0.2696
  964MOL0     C32908   9.642   0.350   9.792  0.2431  0.9273  1.0010
  964MOL0     C32909   9.752   0.271   9.854  0.1437  0.6815  1.1188
  964MOL0     C32910   9.774   0.320   9.998 -1.2979 -0.2390  0.1486
  964MOL0     N32911   9.866   0.243  10.085 -0.3046  0.1061  0.2129
  964MOL0     C32912   9.985   0.192  10.045 -0.1533 -1.3372  0.5603
  964MOL0     C32913  10.057   0.194  10.159 -0.8703  0.2019 -0.4140
  964MOL0     C32914  10.205   0.167  10.173  0.2351 -0.5862  0.0632
  964MOL0     C32915  10.229   0.027  10.115  0.4338 -0.4378  0.8140
  964MOL0     C32916  10.357  -0.042  10.147  0.3299  0.8793  0.1688
  964MOL0     C32917  10.475   0.043  10.121 -0.1192  0.6728  0.1745
  964MOL0     O32918  10.480   0.082   9.984 -0.1787 -0.5307  0.0821
  964MOL0     C32919  10.601   0.126   9.934  0.5127 -0.4636  0.6319
  964MOL0     C32920  10.724   0.092   9.987 -0.3922  0.5234  0.4119
  964MOL0     C32921  10.854   0.144   9.941  0.3092 -0.6234  0.1955
  964MOL0     C32922  10.976   0.098  10.017  0.7536  0.2018  0.0719
  964MOL0     C32923  10.852   0.240   9.835  0.0012 -0.7912 -0.3233
  964MOL0     C32924  10.974   0.302   9.779  0.0025  1.0015 -0.0032
  964MOL0     O32925  10.962   0.348   9.644  0.3750  0.1887 -0.4501
  964MOL0     C32926  11.059   0.412   9.588  0.5841 -0.3483 -0.4006
  964MOL0     C32927  11.047   0.543   9.544 -0.2644 -0.2723  0.3866
  964MOL0     C32928  11.149   0.609   9.477  0.1054 -0.4875 -0.3023
  964MOL0     C32929  11.267   0.543   9.450  0.2558  0.4833 -0.0528
  964MOL0     O32930  11.364   0.601   9.374 -0.0458  0.2120 -1.1265
  964MOL0     C32931  11.317   0.624   9.238  0.6905 -0.2783  0.2099
  964MOL0     C32932  11.385   0.748   9.177 -0.2210  1.6622 -0.3927
  964MOL0     C32933  11.349   0.751   9.024  0.3577  0.4623  0.6517
  964MOL0     C32934  11.449   0.836   8.946  0.2298  0.9016 -0.6848
  964MOL0     C32935  11.398   0.847   8.797  0.0551 -0.3405 -0.0170
  964MOL0     C32936  11.508   0.904   8.697  0.0400  0.8196 -0.8336
  964MOL0     C32937  11.476   0.876   8.551 -0.7124  0.3207 -0.0131
  964MOL0     C32938  11.590   0.905   8.467 -0.6801  0.2950 -0.0279
  964MOL0    Cl32939  11.643   1.068   8.478  0.0409  0.4013  0.3305
  964MOL0     C32940  11.282   0.416   9.494 -0.4697  1.0826 -0.1139
  964MOL0     C32941  11.175   0.347   9.561 -1.0113  0.1852  0.9982
  964MOL0     O32942  11.077   0.321   9.851  0.7688 -0.6304  0.0522
  964MOL0     C32943  10.721   0.269   9.781 -0.5879 -0.8270  0.7632
  964MOL0     C32944  10.600   0.212   9.835 -0.3864 -0.9961  0.2809
  964MOL0     N32945   9.977   0.216  10.263 -0.0366  0.0894  0.3826
  964MOL0     N32946   9.857   0.230  10.216  0.2345 -0.3669 -0.3627
  964MOL0     C32947   9.165   0.882   9.515 -0.5669  0.6817 -0.8944
  964MOL0     C32948   9.030   0.921   9.542  0.3573  0.6984  0.5173
  964MOL0     C32949   8.599   1.030   9.499  0.4860  0.5845  0.5151
  964MOL0     C32950   8.509   1.080   9.404  1.5199 -0.5958  0.3255
  964MOL0     C32951   8.375   1.105   9.434  0.8796  0.0851 -0.2340
  964MOL0     C32952   8.328   1.091   9.557  0.9288 -0.4057  0.1101
  964MOL0     O32953   8.203   1.144   9.580  0.1072 -0.2070 -0.6798
  964MOL0     C32954   8.152   1.255   9.498 -0.2756  1.0627 -0.7691
  964MOL0     C32955   8.064   1.351   9.580 -0.0687 -0.8616 -0.0758
  964MOL0     C32956   7.920   1.298   9.612 -0.3186  0.8020 -0.5133
  964MOL0     C32957   7.831   1.334   9.496 -0.1204  0.2898  0.5664
  964MOL0     C32958   7.716   1.413   9.545 -0.5818 -0.0824  0.1680
  964MOL0     C32959   7.624   1.481   9.581 -0.4039  0.0374 -0.6756
  964MOL0     C32960   8.410   1.051   9.660  0.0116 -0.0328  0.0755
  964MOL0     C32961   8.542   1.006   9.633 -0.3884  0.1505  0.8167
  964MOL0     C32962   8.610   0.932   9.743 -0.3488 -0.5110 -0.3970
  964MOL0     H32963   8.878   0.626   9.468 -1.2415  1.4712 -3.6689
  964MOL0     H32964   9.102   0.551   9.448  2.9813  0.8380 -1.8254
  964MOL0     H32965   9.325   0.619   9.299  0.1536 -0.0195  0.1808
  964MOL0     H32966   9.313   0.504   9.433  1.1730  0.1457  2.4272
  964MOL0     H32967   9.525   0.495   9.315 -1.3675 -2.1869  1.5907
  964MOL0     H32968   9.564   0.660   9.374  0.0693  0.0619 -0.3483
  964MOL0     H32969   9.670   0.501   9.499  0.1585  0.9763 -1.4855
  964MOL0     H32970   9.548   0.582   9.603  2.1791 -0.3992  2.1025
  964MOL0     H32971   9.415   0.383   9.593  0.2007  1.8388  0.8163
  964MOL0     H32972   9.518   0.320   9.464  0.0933  2.0689 -1.3827
  964MOL0     H32973   9.691   0.259   9.597 -1.3116 -1.9151 -0.7640
  964MOL0     H32974   9.540   0.204   9.671 -0.7072 -0.8285 -3.6808
  964MOL0     H32975   9.670   0.452   9.763 -1.6862  0.7973 -1.7038
  964MOL0     H32976   9.552   0.348   9.855 -0.7045 -0.3510 -0.3271
  964MOL0     H32977   9.846   0.274   9.798  0.0330 -1.7205  0.7281
  964MOL0     H32978   9.719   0.167   9.862  3.0374 -0.3997  0.1436
  964MOL0     H32979   9.817   0.421   9.998  2.9518 -1.5887 -4.9194
  964MOL0     H32980   9.682   0.334  10.055 -0.0562  0.4267  2.0984
  964MOL0     H32981  10.029   0.198   9.945  1.0988 -0.1964  1.1387
  964MOL0     H32982  10.225   0.164  10.281 -1.0852 -1.1529  0.3175
  964MOL0     H32983  10.262   0.249  10.130 -0.1414  1.6481  3.4101
  964MOL0     H32984  10.146  -0.037  10.148  0.1546  0.2467  1.4696
  964MOL0     H32985  10.215   0.020  10.007 -1.5364  0.1257  0.9984
  964MOL0     H32986  10.353  -0.092  10.244  0.5001 -0.7365 -0.6174
  964MOL0     H32987  10.368  -0.123  10.074 -1.9853  1.6925 -1.1988
  964MOL0     H32988  10.472   0.140  10.172 -0.7760  0.4088  0.6581
  964MOL0     H32989  10.559  -0.010  10.167  0.9912  2.4758  0.3144
  964MOL0     H32990  10.722   0.027  10.073  2.0667  0.1918  0.2924
  964MOL0     H32991  11.003   0.191  10.069 -3.0434  4.1241 -4.0426
  964MOL0     H32992  11.061   0.055   9.962  3.9590  4.7356  0.8640
  964MOL0     H32993  10.953   0.020  10.089  2.5850 -1.5230 -1.1057
  964MOL0     H32994  10.953   0.595   9.564 -0.6371 -0.8769  0.2515
  964MOL0     H32995  11.127   0.709   9.443 -2.2410 -0.3550  1.3857
  964MOL0     H32996  11.330   0.536   9.175  1.4742  0.5234 -0.7856
  964MOL0     H32997  11.210   0.649   9.236  0.8523  1.0310 -4.0796
  964MOL0     H32998  11.342   0.837   9.225  1.1210  2.6080 -0.9002
  964MOL0     H32999  11.490   0.746   9.205 -0.7303  0.4111  1.6400
  964MOL0     H33000  11.245   0.779   9.006  0.0475 -0.7758  0.4178
  964MOL0     H33001  11.363   0.654   8.975 -0.5829  2.4253 -4.0813
  964MOL0     H33002  11.554   0.808   8.958  0.0467  1.1840  2.5263
  964MOL0     H33003  11.453   0.938   8.987  0.9987  0.0904  1.3923
  964MOL0     H33004  11.380   0.744   8.763  1.1202  0.0572 -1.9377
  964MOL0     H33005  11.299   0.892   8.788 -1.2690 -2.3981  2.7381
  964MOL0     H33006  11.603   0.857   8.728 -0.6659 -0.1007  0.0286
  964MOL0     H33007  11.517   1.012   8.709  3.9636  0.5174  0.4877
  964MOL0     H33008  11.385   0.928   8.520 -2.5172 -0.6626  3.1010
  964MOL0     H33009  11.454   0.771   8.530 -0.9346  0.5671 -1.0666
  964MOL0     H33010  11.565   0.888   8.362 -0.0960 -0.3258 -0.0711
  964MOL0     H33011  11.672   0.840   8.499 -1.1992 -0.7596 -0.7761
  964MOL0     H33012  11.374   0.363   9.470 -0.9157 -0.0502  0.5877
  964MOL0     H33013  11.193   0.248   9.603  2.9062  0.6629  0.8337
  964MOL0     H33014  10.716   0.339   9.698 -1.4561  0.9801  2.2691
  964MOL0     H33015  10.499   0.234   9.801 -1.4693 -2.4934  2.3275
  964MOL0     H33016   9.246   0.953   9.530 -1.8492  1.9180  0.5630
  964MOL0     H33017   9.009   1.021   9.577 -3.3551 -0.2011  1.2691
  964MOL0     H33018   8.527   1.099   9.299  0.6164  1.3085  0.4694
  964MOL0     H33019   8.313   1.142   9.353 -2.0306  0.8460  2.1736
  964MOL0     H33020   8.228   1.322   9.457 -1.0152  2.7001  0.4297
  964MOL0     H33021   8.097   1.216   9.412  4.1449  1.4411 -4.1644
  964MOL0     H33022   8.071   1.452   9.540  2.3077 -1.5374 -1.5815
  964MOL0     H33023   8.109   1.345   9.680  0.2358 -5.0598 -0.2657
  964MOL0     H33024   7.935   1.189   9.613 -0.9388  0.7095 -0.1294
  964MOL0     H33025   7.884   1.332   9.710  1.1783  3.5714 -0.8270
  964MOL0     H33026   7.789   1.240   9.459  1.6939 -0.6622  0.8216
  964MOL0     H33027   7.879   1.376   9.407 -2.1394  0.0789 -0.6773
  964MOL0     H33028   7.544   1.538   9.625 -0.0555  0.3658 -0.4578
  964MOL0     H33029   8.362   1.049   9.758  1.5493  0.6567  0.8808
  964MOL0     H33030   8.564   0.940   9.842  1.3058  1.4687  0.2701
  964MOL0     H33031   8.621   0.826   9.716  0.5569  0.3334 -3.8304
  964MOL0     H33032   8.714   0.964   9.753 -0.9654  1.3783  0.3434
  965MOL0     O33033   0.561   1.011  10.260  0.5956 -0.8570 -0.1736
  965MOL0     C33034   0.657   1.009  10.192 -0.1630  0.1695 -0.3267
  965MOL0     O33035   0.764   0.916  10.208 -0.4165 -0.0090  0.0454
  965MOL0     C33036   0.780   0.822  10.301 -0.1816 -0.3251 -0.3231
  965MOL0     C33037   0.680   0.736  10.330  0.9087 -0.0441 -0.4039
  965MOL0     C33038   0.693   0.622  10.419 -0.7385 -0.8747  0.4731
  965MOL0     C33039   0.816   0.608  10.493  0.5743  0.7746  0.3726
  965MOL0     O33040   0.853   0.509  10.577 -0.4184  0.2358 -0.2824
  965MOL0     C33041   0.763   0.395  10.605  0.0064 -0.5694  0.6552
  965MOL0     C33042   0.837   0.286  10.682  0.4531 -0.0478 -0.8335
  965MOL0     C33043   0.906   0.185  10.585  0.3006  0.6775  0.0907
  965MOL0     C33044   0.908   0.041  10.617  0.3615  0.6570  0.5678
  965MOL0     C33045   0.799  -0.044  10.542 -0.7166  1.0563 -0.9793
  965MOL0     C33046   0.802  -0.197  10.580  0.5961 -1.0383 -0.4203
  965MOL0     C33047   0.766  -0.232  10.724  1.2929  0.2890  0.4482
  965MOL0     C33048   0.731  -0.372  10.755 -0.5659 -0.1487  0.4352
  965MOL0     N33049   0.715  -0.391  10.897 -0.4067  0.2022 -0.8046
  965MOL0     C33050   0.603  -0.372  10.969  0.5619 -0.0150  0.4555
  965MOL0     C33051   0.633  -0.413  11.096 -0.4500  0.0866  0.0308
  965MOL0     C33052   0.538  -0.376  11.202 -0.0096  0.2617  0.0795
  965MOL0     C33053   0.504  -0.502  11.287  0.0569 -0.0697 -0.2303
  965MOL0     C33054   0.375  -0.486  11.368 -0.3778  0.3678  0.6208
  965MOL0     C33055   0.339  -0.596  11.473  0.0508  0.2251  0.6032
  965MOL0     O33056   0.208  -0.568  11.526  0.1960  0.1202  0.5281
  965MOL0     C33057   0.184  -0.647  11.636  0.1915 -0.0293 -0.5132
  965MOL0     C33058   0.264  -0.745  11.698  0.7000  0.0482  0.6002
  965MOL0     C33059   0.220  -0.815  11.816  0.6038  0.5825  0.5937
  965MOL0     C33060   0.320  -0.906  11.874  0.0745  0.0476 -0.7348
  965MOL0     C33061   0.085  -0.793  11.875 -1.2967 -0.5773  0.2489
  965MOL0     C33062   0.040  -0.842  12.005 -0.6674  0.1695  0.1237
  965MOL0     O33063  -0.036  -0.747  12.077  0.0485 -0.7426  0.5607
  965MOL0     C33064  -0.082  -0.772  12.204  0.3302  0.4056 -0.7491
  965MOL0     C33065  -0.042  -0.700  12.313 -0.2554 -0.1515  0.3999
  965MOL0     C33066  -0.090  -0.730  12.430  0.1382  0.0457 -0.1743
  965MOL0     C33067  -0.202  -0.820  12.446  0.2274  0.4780 -0.7914
  965MOL0     O33068  -0.253  -0.845  12.568 -0.5898 -0.1996 -0.4994
  965MOL0     C33069  -0.239  -0.972  12.630 -0.1945 -0.1154 -0.1155
  965MOL0     C33070  -0.089  -0.995  12.673  0.0236  0.6263 -0.3858
  965MOL0     C33071  -0.022  -0.892  12.762  0.2046 -0.6507  0.2999
  965MOL0     C33072   0.116  -0.920  12.819  0.4308  0.7649  0.2963
  965MOL0     C33073   0.171  -0.803  12.894 -0.1132 -0.2253 -0.1492
  965MOL0     C33074   0.303  -0.826  12.966 -1.5584 -0.4036  0.4001
  965MOL0     C33075   0.312  -0.950  13.060  0.0839  0.7242 -0.4076
  965MOL0     C33076   0.457  -0.975  13.108 -0.0594  0.2040 -0.1519
  965MOL0    Cl33077   0.489  -0.882  13.267  0.3653  0.0339  0.1640
  965MOL0     C33078  -0.253  -0.890  12.340 -1.0073 -0.3019 -0.4038
  965MOL0     C33079  -0.185  -0.872  12.219  0.2522  0.5209  0.7530
  965MOL0     O33080   0.069  -0.952  12.056 -0.1112 -0.5736 -0.5567
  965MOL0     C33081   0.009  -0.699  11.801  0.5132  0.5990 -0.5398
  965MOL0     C33082   0.058  -0.627  11.690  0.2750  1.1632  0.0852
  965MOL0     N33083   0.745  -0.490  11.096 -0.0050  0.3519  0.1093
  965MOL0     N33084   0.790  -0.477  10.971 -0.8944  0.2497  0.3019
  965MOL0     C33085   0.924   0.691  10.464 -0.5210 -0.9740  0.1676
  965MOL0     C33086   0.899   0.804  10.370 -0.4368  0.1977 -0.1755
  965MOL0     C33087   0.669   1.126  10.106  0.0374 -0.6057 -0.1383
  965MOL0     C33088   0.800   1.176  10.085  0.0305 -0.5851  0.3392
  965MOL0     C33089   0.828   1.284  10.005  0.5831 -0.4180 -0.4968
  965MOL0     C33090   0.723   1.354   9.946 -0.0815 -0.4533 -0.0774
  965MOL0     O33091   0.759   1.445   9.852  0.1391 -0.5201 -0.0705
  965MOL0     C33092   0.742   1.576   9.894  1.0601  0.2019  1.0610
  965MOL0     C33093   0.676   1.658   9.785 -0.2559  0.0742 -0.1477
  965MOL0     C33094   0.762   1.662   9.661 -1.1154  0.1041  0.5856
  965MOL0     C33095   0.766   1.549   9.569 -0.5703  0.1353  0.2830
  965MOL0     C33096   0.653   1.547   9.474  0.0084  0.2192 -0.3487
  965MOL0     C33097   0.567   1.537   9.391  0.3683  0.6755  0.2737
  965MOL0     C33098   0.594   1.327   9.977  1.0344 -0.3427  1.0716
  965MOL0     C33099   0.567   1.206  10.053  0.6614 -1.1552  0.0423
  965MOL0     C33100   0.423   1.180  10.064  0.8065  0.0402 -0.6755
  965MOL0     H33101   0.579   0.752  10.292  0.7268 -1.6947 -0.6919
  965MOL0     H33102   0.611   0.556  10.447 -0.3035 -0.2854  3.4611
  965MOL0     H33103   0.717   0.356  10.513  0.4112  0.2934  0.0703
  965MOL0     H33104   0.683   0.434  10.667 -0.0091  0.4172  0.0433
  965MOL0     H33105   0.894   0.338  10.759 -2.6755  1.9202  0.3534
  965MOL0     H33106   0.756   0.233  10.733  0.5852  2.2729  2.0088
  965MOL0     H33107   0.864   0.189  10.484 -0.9043 -0.7011  0.4907
  965MOL0     H33108   1.010   0.218  10.575  0.5795 -0.1909  0.0275
  965MOL0     H33109   1.003  -0.000  10.582  0.3235 -0.5304  1.7908
  965MOL0     H33110   0.905   0.007  10.721 -0.1857 -3.3088 -0.5644
  965MOL0     H33111   0.811  -0.039  10.434 -3.2032 -2.8466 -1.6457
  965MOL0     H33112   0.698  -0.008  10.566 -0.7854  1.1581 -1.4258
  965MOL0     H33113   0.736  -0.249  10.510  1.9665 -0.3022 -2.3658
  965MOL0     H33114   0.901  -0.244  10.568  1.2242  0.0885  0.2001
  965MOL0     H33115   0.675  -0.180  10.754  2.4193  2.3911  0.4327
  965MOL0     H33116   0.849  -0.207  10.791  2.2507 -2.1249  0.2410
  965MOL0     H33117   0.633  -0.401  10.714 -1.3091  0.9052  1.4109
  965MOL0     H33118   0.804  -0.449  10.728 -0.4749 -0.1343  0.6402
  965MOL0     H33119   0.516  -0.315  10.938  0.3411  1.7536  3.8942
  965MOL0     H33120   0.445  -0.332  11.165 -2.2838 -2.1353  2.4964
  965MOL0     H33121   0.594  -0.303  11.262  3.8661 -1.2053 -1.4718
  965MOL0     H33122   0.506  -0.587  11.218 -2.2056 -0.2754 -0.1109
  965MOL0     H33123   0.587  -0.508  11.358 -1.0229  2.1179  1.3379
  965MOL0     H33124   0.360  -0.394  11.426 -0.3130  0.9438 -0.2595
  965MOL0     H33125   0.287  -0.483  11.303 -0.7668 -0.9892  1.0492
  965MOL0     H33126   0.344  -0.695  11.427 -1.1262  0.7306 -0.6519
  965MOL0     H33127   0.411  -0.593  11.556 -0.7945 -3.1076  1.5786
  965MOL0     H33128   0.369  -0.751  11.674  0.9200 -1.5941  1.8587
  965MOL0     H33129   0.371  -0.836  11.941 -0.9943  0.3525 -0.2209
  965MOL0     H33130   0.388  -0.954  11.802  2.5100  0.0914  1.4131
  965MOL0     H33131   0.269  -0.988  11.926  0.3699  0.5999  0.4579
  965MOL0     H33132   0.048  -0.639  12.312  0.2466 -0.8685  0.7620
  965MOL0     H33133  -0.045  -0.699  12.524  2.0346  0.7082 -1.2540
  965MOL0     H33134  -0.305  -0.972  12.717  0.4390  3.3083  0.5237
  965MOL0     H33135  -0.259  -1.056  12.563  2.2365 -0.2118 -0.8429
  965MOL0     H33136  -0.087  -1.088  12.731 -0.4983 -0.3287 -1.8462
  965MOL0     H33137  -0.028  -1.005  12.582  1.4112 -1.3600  0.6733
  965MOL0     H33138  -0.085  -0.867  12.848 -0.5248 -3.6357  0.7305
  965MOL0     H33139  -0.012  -0.804  12.698 -1.2470  0.3609  1.3880
  965MOL0     H33140   0.183  -0.950  12.738  2.2072  1.5605  1.4101
  965MOL0     H33141   0.113  -1.012  12.878  1.5812 -0.9110 -2.1142
  965MOL0     H33142   0.191  -0.720  12.826 -0.9436  0.2844  0.2121
  965MOL0     H33143   0.106  -0.759  12.970  2.8205 -1.0670  3.0630
  965MOL0     H33144   0.343  -0.740  13.020 -0.9959 -1.7225  2.2053
  965MOL0     H33145   0.364  -0.854  12.880 -2.5372  2.1113 -1.1931
  965MOL0     H33146   0.282  -1.039  13.003  1.4061 -0.3343  0.4911
  965MOL0     H33147   0.251  -0.949  13.150  0.2226 -1.8590 -0.1952
  965MOL0     H33148   0.520  -0.935  13.028 -3.0614  2.1523 -1.7230
  965MOL0     H33149   0.479  -1.078  13.139 -2.3319  0.5642  3.2778
  965MOL0     H33150  -0.343  -0.951  12.349 -0.6720 -1.0256 -1.6827
  965MOL0     H33151  -0.219  -0.931  12.134 -1.2223  0.9113  1.0419
  965MOL0     H33152  -0.092  -0.681  11.837  0.9287 -0.6504  1.4261
  965MOL0     H33153  -0.000  -0.551  11.640 -0.9177  0.7169  0.7635
  965MOL0     H33154   1.017   0.684  10.520 -0.3002 -2.2363 -0.3397
  965MOL0     H33155   0.972   0.882  10.356  0.8813 -0.3837  2.6281
  965MOL0     H33156   0.881   1.123  10.134 -0.9060 -2.2514  0.1564
  965MOL0     H33157   0.934   1.304   9.992  0.5976  0.8179  1.2033
  965MOL0     H33158   0.677   1.588   9.982  1.3755  1.9501  1.0839
  965MOL0     H33159   0.839   1.625   9.905  0.4520  1.4036  1.2865
  965MOL0     H33160   0.664   1.760   9.822 -1.6727  1.0572 -3.0711
  965MOL0     H33161   0.576   1.618   9.768 -0.9408  2.4544 -2.2744
  965MOL0     H33162   0.736   1.750   9.602 -2.7381  0.4164  1.7127
  965MOL0     H33163   0.865   1.671   9.697 -0.7484  1.8063 -0.7756
  965MOL0     H33164   0.770   1.457   9.628 -1.9946 -0.3524 -0.3239
  965MOL0     H33165   0.853   1.558   9.504 -1.4330  1.7053 -0.7300
  965MOL0     H33166   0.481   1.535   9.327 -1.2178 -4.5944  2.0297
  965MOL0     H33167   0.519   1.385   9.925  0.5509  1.6045  3.6976
  965MOL0     H33168   0.371   1.239   9.987 -1.4655 -1.1603 -0.1367
  965MOL0     H33169   0.396   1.077  10.042 -0.3180  0.5021 -1.6141
  965MOL0     H33170   0.378   1.193  10.163 -1.4744  0.7860 -1.7292
  966MOL0     O33171   9.272   0.456   7.278  0.0834  0.4964 -0.4846
  966MOL0     C33172   9.373   0.418   7.215  0.4146 -0.4342 -0.0422
  966MOL0     O33173   9.415   0.292   7.198 -0.0172 -0.0099  0.0687
  966MOL0     C33174   9.388   0.185   7.276 -0.5130 -0.5131 -0.2234
  966MOL0     C33175   9.409   0.058   7.223  0.6308  1.0797  0.3070
  966MOL0     C33176   9.391  -0.057   7.307  0.0543  0.2202  0.2275
  966MOL0     C33177   9.324  -0.044   7.424  0.0896 -0.8015  0.4250
  966MOL0     O33178   9.294  -0.155   7.498  0.2851  0.5586 -0.4562
  966MOL0     C33179   9.390  -0.184   7.605  0.0796  0.6931  0.5572
  966MOL0     C33180   9.356  -0.318   7.666 -0.7330 -0.0235 -0.0535
  966MOL0     C33181   9.371  -0.451   7.585  1.1418  0.0534  0.4165
  966MOL0     C33182   9.385  -0.572   7.673  0.6244  0.8731 -0.3001
  966MOL0     C33183   9.358  -0.704   7.586  0.3576 -0.2841  0.4200
  966MOL0     C33184   9.209  -0.744   7.546  0.2547  0.4946  0.1517
  966MOL0     C33185   9.220  -0.853   7.443 -1.0278  0.4002  0.7141
  966MOL0     C33186   9.088  -0.911   7.391 -0.1890 -0.1103 -0.6347
  966MOL0     N33187   9.005  -0.792   7.350 -0.2742 -0.1551  0.0255
  966MOL0     C33188   9.036  -0.708   7.243  0.6860 -0.1067 -0.4882
  966MOL0     C33189   8.923  -0.636   7.216  0.3130 -0.5009  0.5754
  966MOL0     C33190   8.910  -0.541   7.092  0.5441  0.4449 -0.1814
  966MOL0     C33191   8.894  -0.391   7.126 -0.6279  0.9954  0.3533
  966MOL0     C33192   9.029  -0.325   7.131 -1.0448  0.1145  0.3526
  966MOL0     C33193   9.017  -0.178   7.144  0.1903 -0.2299  0.0894
  966MOL0     O33194   8.954  -0.153   7.274  0.2469 -0.2089 -0.2109
  966MOL0     C33195   8.951  -0.022   7.316  0.1474  0.1844  0.2890
  966MOL0     C33196   8.847   0.005   7.410 -0.6123  1.0131  0.6290
  966MOL0     C33197   8.821   0.141   7.443 -0.2590  0.4113 -0.9291
  966MOL0     C33198   8.707   0.169   7.544 -0.5163 -0.1922  0.1052
  966MOL0     C33199   8.898   0.245   7.398  0.1136 -0.3775 -0.0098
  966MOL0     C33200   8.879   0.385   7.440 -0.8660  0.2019  0.2127
  966MOL0     O33201   8.898   0.482   7.347  0.2132  0.3225  0.0672
  966MOL0     C33202   8.888   0.612   7.373  0.2302 -0.7129  0.1063
  966MOL0     C33203   8.772   0.668   7.423 -0.2920  0.9138 -0.1629
  966MOL0     C33204   8.761   0.811   7.428 -0.0115  0.0960  0.4288
  966MOL0     C33205   8.862   0.896   7.394  0.1449 -0.1567  0.2237
  966MOL0     O33206   8.838   1.030   7.401  0.2984 -0.4927 -0.3888
  966MOL0     C33207   8.916   1.111   7.321 -0.6970 -0.2573 -0.6613
  966MOL0     C33208   8.863   1.247   7.328  0.1924  1.1427  1.3172
  966MOL0     C33209   8.729   1.258   7.252  0.7217 -0.7435 -0.2427
  966MOL0     C33210   8.652   1.393   7.270 -0.5196  0.4480 -0.1085
  966MOL0     C33211   8.543   1.408   7.165  0.2741  0.6540  0.7857
  966MOL0     C33212   8.499   1.556   7.167  0.0190  0.3261 -0.8201
  966MOL0     C33213   8.369   1.575   7.085 -0.6030  0.0058  0.9316
  966MOL0     C33214   8.307   1.709   7.112  0.1376 -0.6952 -0.4750
  966MOL0    Cl33215   8.159   1.730   7.012  0.1912 -0.3414 -0.0909
  966MOL0     C33216   8.977   0.839   7.341  0.2101 -0.5211 -0.1584
  966MOL0     C33217   8.992   0.696   7.341 -0.6941 -0.6761 -0.5606
  966MOL0     O33218   8.883   0.406   7.556  0.3171 -0.1684 -0.4397
  966MOL0     C33219   9.001   0.213   7.310  0.9292 -0.0114  0.6167
  966MOL0     C33220   9.029   0.084   7.273 -0.1000 -0.2679  0.6866
  966MOL0     N33221   8.824  -0.678   7.298 -0.7522 -0.6580  0.6036
  966MOL0     N33222   8.869  -0.768   7.379 -0.2113 -0.2942 -0.2458
  966MOL0     C33223   9.289   0.085   7.475 -1.3539 -0.0694 -0.5068
  966MOL0     C33224   9.318   0.200   7.397 -0.6745  0.3920 -0.3008
  966MOL0     C33225   9.440   0.531   7.147 -0.4374  0.3411 -0.6005
  966MOL0     C33226   9.443   0.649   7.223 -0.4588 -0.1203  0.1013
  966MOL0     C33227   9.508   0.764   7.182 -0.1508 -0.2889  0.6789
  966MOL0     C33228   9.568   0.762   7.063  0.3762  0.5577 -0.5972
  966MOL0     O33229   9.631   0.877   7.004 -0.0953 -0.0742  0.2894
  966MOL0     C33230   9.584   1.010   7.035 -0.4701 -0.1702 -0.9563
  966MOL0     C33231   9.544   1.076   6.900 -0.3826  0.5685 -0.5364
  966MOL0     C33232   9.683   1.087   6.819 -0.1173  0.0351  0.2877
  966MOL0     C33233   9.680   1.178   6.690 -0.2435  0.7204  0.7507
  966MOL0     C33234   9.613   1.303   6.725 -0.5338 -0.3432 -0.0346
  966MOL0     C33235   9.577   1.416   6.744 -0.8353  0.7043  0.4356
  966MOL0     C33236   9.576   0.648   6.990  0.3384  0.1725  0.0300
  966MOL0     C33237   9.521   0.523   7.028 -0.2309  0.3605 -0.7392
  966MOL0     C33238   9.534   0.398   6.948 -0.5448  1.3379  1.0408
  966MOL0     H33239   9.437   0.041   7.120  0.2880 -0.1908  0.4076
  966MOL0     H33240   9.407  -0.157   7.269  1.7904  1.1510 -1.7112
  966MOL0     H33241   9.386  -0.117   7.691  2.2837 -0.9281  2.0575
  966MOL0     H33242   9.490  -0.169   7.562  0.1083  1.8477  1.0015
  966MOL0     H33243   9.415  -0.326   7.758 -3.7285  0.6297  2.0887
  966MOL0     H33244   9.249  -0.320   7.691 -0.7659  2.7358  0.3784
  966MOL0     H33245   9.293  -0.461   7.510 -0.4066  0.5643  1.9058
  966MOL0     H33246   9.460  -0.430   7.525  1.8189  1.1607  1.7413
  966MOL0     H33247   9.479  -0.577   7.728  0.5321  0.5341 -0.1723
  966MOL0     H33248   9.320  -0.564   7.761 -1.4539  1.4504 -1.7892
  966MOL0     H33249   9.406  -0.791   7.633 -0.1937  0.5180  2.6085
  966MOL0     H33250   9.408  -0.680   7.492  1.0648  1.8181  1.2611
  966MOL0     H33251   9.155  -0.771   7.637 -2.2182 -0.6366 -1.5440
  966MOL0     H33252   9.147  -0.661   7.512 -3.3237 -1.3208  1.7413
  966MOL0     H33253   9.279  -0.932   7.489 -0.4876 -0.6730 -1.7117
  966MOL0     H33254   9.285  -0.823   7.361  1.7229 -3.4119  1.2184
  966MOL0     H33255   9.093  -0.973   7.301 -2.5828 -1.8141  0.2869
  966MOL0     H33256   9.041  -0.976   7.466  1.5741  1.7456  2.2817
  966MOL0     H33257   9.129  -0.696   7.188  1.7482  0.0294  1.2525
  966MOL0     H33258   8.826  -0.577   7.033 -0.5126 -0.1409  1.5948
  966MOL0     H33259   8.998  -0.550   7.027  1.7592  3.3998  0.8817
  966MOL0     H33260   8.834  -0.349   7.044  0.0162 -0.4005 -0.8965
  966MOL0     H33261   8.846  -0.388   7.224  1.1589 -0.8591  1.3631
  966MOL0     H33262   9.091  -0.369   7.209 -1.2516 -1.6152 -0.4171
  966MOL0     H33263   9.092  -0.346   7.045  2.0005 -0.3368  2.5498
  966MOL0     H33264   9.113  -0.125   7.154  1.2486 -2.4324  3.0429
  966MOL0     H33265   8.959  -0.126   7.067 -0.4201 -0.3536  0.4657
  966MOL0     H33266   8.795  -0.083   7.447 -1.6904 -0.5200 -3.9230
  966MOL0     H33267   8.651   0.077   7.563 -1.5468  0.3064 -0.4164
  966MOL0     H33268   8.638   0.242   7.500 -2.2443 -0.5621  2.0982
  966MOL0     H33269   8.739   0.206   7.642 -2.3181 -1.7240  1.3355
  966MOL0     H33270   8.698   0.596   7.455  0.1303  0.3405 -0.4745
  966MOL0     H33271   8.668   0.853   7.464  0.3088 -1.4481  3.4196
  966MOL0     H33272   9.019   1.106   7.358 -1.1666 -1.7805  0.5354
  966MOL0     H33273   8.908   1.086   7.215  1.3658  1.8374 -1.4165
  966MOL0     H33274   8.846   1.280   7.431 -1.5605  1.9224  0.8052
  966MOL0     H33275   8.927   1.322   7.280  1.5134 -2.2411 -2.8341
  966MOL0     H33276   8.665   1.171   7.265  0.4958 -0.4432  0.6824
  966MOL0     H33277   8.760   1.254   7.147 -1.1502 -2.7676 -0.7957
  966MOL0     H33278   8.728   1.471   7.264  2.2043 -2.0966 -1.5379
  966MOL0     H33279   8.603   1.399   7.368 -1.3251  4.1581 -0.6045
  966MOL0     H33280   8.579   1.392   7.063  0.7336  0.9122  0.9047
  966MOL0     H33281   8.467   1.332   7.186 -0.2019  0.8516 -0.1513
  966MOL0     H33282   8.577   1.619   7.125  2.3428 -0.3098  2.2298
  966MOL0     H33283   8.492   1.587   7.272  0.6660 -0.1022 -0.6444
  966MOL0     H33284   8.292   1.502   7.111 -1.2799  1.3333  2.8896
  966MOL0     H33285   8.383   1.561   6.978  0.3599  1.3061  0.8599
  966MOL0     H33286   8.358   1.801   7.082 -2.8306  0.6856 -1.7541
  966MOL0     H33287   8.290   1.712   7.220  2.3519  2.4380 -0.0552
  966MOL0     H33288   9.061   0.903   7.313 -3.1215  2.3620 -5.0459
  966MOL0     H33289   9.087   0.658   7.305  0.1248 -1.4674  2.2284
  966MOL0     H33290   9.050   0.298   7.262  0.0371 -0.3868 -1.0464
  966MOL0     H33291   9.103   0.068   7.195 -0.2855 -0.5077  0.5579
  966MOL0     H33292   9.259   0.102   7.578 -1.6502  1.2096 -0.7871
  966MOL0     H33293   9.269   0.289   7.435 -4.0380 -0.9845 -1.0424
  966MOL0     H33294   9.390   0.661   7.316 -1.1448  1.8995 -0.5047
  966MOL0     H33295   9.508   0.852   7.246  0.9572 -0.2527  0.6419
  966MOL0     H33296   9.500   1.010   7.105  0.4115 -0.1481  0.1406
  966MOL0     H33297   9.660   1.072   7.084 -2.3620 -0.2660  2.4136
  966MOL0     H33298   9.499   1.172   6.926  0.0372  0.3370  1.1427
  966MOL0     H33299   9.469   1.020   6.842 -1.5483  2.6679 -1.1721
  966MOL0     H33300   9.759   1.132   6.884  0.0500 -1.2173  0.9988
  966MOL0     H33301   9.728   0.988   6.806 -0.4564 -0.1118  0.2265
  966MOL0     H33302   9.617   1.124   6.619 -0.6467 -0.3018  1.8474
  966MOL0     H33303   9.775   1.191   6.637  0.5220 -0.8158  1.6690
  966MOL0     H33304   9.557   1.520   6.761 -0.7761  1.5496 -3.6165
  966MOL0     H33305   9.614   0.649   6.888 -0.3830 -1.7605 -0.2942
  966MOL0     H33306   9.435   0.365   6.917 -0.2548  1.5445 -0.1580
  966MOL0     H33307   9.594   0.415   6.858  0.0947  1.9656  1.5772
  966MOL0     H33308   9.577   0.316   7.007 -2.1064  0.9525  1.6922
  967MOL0     O33309  10.084   5.244   3.580 -0.1933  0.4305 -0.0521
  967MOL0     C33310  10.016   5.337   3.562  0.6204 -0.9314 -0.0597
  967MOL0     O33311  10.006   5.409   3.446 -0.3848  0.1341  0.1619
  967MOL0     C33312  10.121   5.447   3.371  0.4146 -0.1960 -0.4001
  967MOL0     C33313  10.093   5.531   3.264  0.3569  0.3027 -0.0510
  967MOL0     C33314  10.201   5.581   3.184 -0.6939 -0.1361  1.3193
  967MOL0     C33315  10.323   5.532   3.200  1.2627  0.8084  1.1170
  967MOL0     O33316  10.419   5.569   3.108 -0.5801  0.1653 -0.8918
  967MOL0     C33317  10.557   5.555   3.152  0.0746 -0.0919 -0.0016
  967MOL0     C33318  10.651   5.608   3.043  0.4737 -1.0517  0.5237
  967MOL0     C33319  10.795   5.631   3.102 -0.5698  0.2036 -0.2165
  967MOL0     C33320  10.892   5.663   2.985 -0.1600 -0.2223 -0.9539
  967MOL0     C33321  11.039   5.629   3.022  0.5658  0.4060  0.3108
  967MOL0     C33322  11.071   5.476   2.986 -0.3464  0.3009  0.7644
  967MOL0     C33323  11.198   5.421   3.052 -0.2777  0.2965 -0.0614
  967MOL0     C33324  11.169   5.329   3.172  0.7732 -0.1728  0.9355
  967MOL0     N33325  11.299   5.300   3.241  0.1996 -0.8443 -0.4544
  967MOL0     C33326  11.322   5.314   3.375 -0.1651 -0.0387 -0.0209
  967MOL0     C33327  11.443   5.263   3.396 -0.7410  0.1327  0.6176
  967MOL0     C33328  11.499   5.225   3.530 -0.5153  0.2546 -0.0157
  967MOL0     C33329  11.630   5.300   3.569  0.0679 -0.2124 -0.6063
  967MOL0     C33330  11.702   5.217   3.679 -0.6326  0.6963  0.4426
  967MOL0     C33331  11.657   5.254   3.822 -0.7859 -0.4355  0.6736
  967MOL0     O33332  11.681   5.399   3.848 -0.0720  0.4605  0.6265
  967MOL0     C33333  11.689   5.447   3.972 -0.7018  0.0365  0.2759
  967MOL0     C33334  11.759   5.564   3.990  0.1059 -0.5316 -0.0653
  967MOL0     C33335  11.775   5.624   4.111  0.8527 -0.5064 -0.3887
  967MOL0     C33336  11.850   5.758   4.116  0.2013  0.9472  0.1061
  967MOL0     C33337  11.715   5.563   4.223 -0.3347 -0.1612 -0.8875
  967MOL0     C33338  11.711   5.623   4.365 -0.5419 -0.2990  0.4090
  967MOL0     O33339  11.640   5.549   4.454 -0.3898  0.6044  0.0796
  967MOL0     C33340  11.622   5.594   4.581 -0.4638  0.7895 -0.2385
  967MOL0     C33341  11.732   5.633   4.654  0.2583  0.3677 -0.5475
  967MOL0     C33342  11.720   5.708   4.772  0.9610 -0.4264  0.2130
  967MOL0     C33343  11.590   5.721   4.826 -0.3299 -1.2948  0.5694
  967MOL0     O33344  11.562   5.810   4.929  0.7600 -0.5116 -0.3083
  967MOL0     C33345  11.663   5.833   5.024  0.1314 -1.1017  0.2833
  967MOL0     C33346  11.603   5.915   5.139  0.4080  0.2870  0.0571
  967MOL0     C33347  11.555   6.043   5.085 -0.6787  0.1537 -0.6547
  967MOL0     C33348  11.675   6.141   5.068  0.0977  0.4661  0.1052
  967MOL0     C33349  11.739   6.185   5.200 -0.2959  0.6330  0.5380
  967MOL0     C33350  11.631   6.269   5.287  0.1555  0.5389  0.9509
  967MOL0     C33351  11.691   6.314   5.427 -0.1187 -0.4137  0.2320
  967MOL0     C33352  11.828   6.378   5.411 -0.7081 -0.1882 -0.3202
  967MOL0    Cl33353  11.830   6.519   5.291  0.2232  0.0488 -0.3135
  967MOL0     C33354  11.479   5.661   4.759 -0.6175 -0.4321 -0.5644
  967MOL0     C33355  11.497   5.595   4.632 -0.1860 -0.5942 -0.3176
  967MOL0     O33356  11.770   5.732   4.390  0.8789  0.8251  0.1951
  967MOL0     C33357  11.655   5.435   4.206 -0.4714  0.2854  0.0990
  967MOL0     C33358  11.646   5.376   4.083 -0.1346  0.6448  0.7297
  967MOL0     N33359  11.486   5.213   3.276 -0.2762  0.3197  0.6386
  967MOL0     N33360  11.396   5.229   3.187 -0.1494  0.2120  0.2974
  967MOL0     C33361  10.356   5.456   3.317  1.0127  0.0402  0.4681
  967MOL0     C33362  10.252   5.429   3.412 -0.7337  0.1720 -0.3786
  967MOL0     C33363   9.931   5.379   3.680  0.2094 -0.2147 -0.2108
  967MOL0     C33364   9.928   5.298   3.796 -0.6289 -0.7804  0.0428
  967MOL0     C33365   9.852   5.329   3.908  0.0750  0.7675 -1.0327
  967MOL0     C33366   9.774   5.443   3.915 -0.2226  0.1765  0.0887
  967MOL0     O33367   9.692   5.486   4.020 -0.7918  0.6466  0.1146
  967MOL0     C33368   9.646   5.394   4.116  0.7501  0.3132 -0.0888
  967MOL0     C33369   9.537   5.305   4.061  0.1958 -0.3243  0.1025
  967MOL0     C33370   9.539   5.158   4.112 -0.3003 -0.7055 -0.2298
  967MOL0     C33371   9.399   5.103   4.122 -0.6811  0.2461  0.0213
  967MOL0     C33372   9.337   5.091   3.988  0.2226 -0.4708 -1.0658
  967MOL0     C33373   9.269   5.083   3.885 -0.5186 -0.9057  0.2325
  967MOL0     C33374   9.777   5.523   3.797 -0.2881  0.1062 -0.3019
  967MOL0     C33375   9.845   5.491   3.679 -0.8180 -0.6863 -0.4750
  967MOL0     C33376   9.842   5.598   3.572 -0.3598 -0.0208  0.4390
  967MOL0     H33377   9.997   5.573   3.238  1.1761  0.8123 -2.5843
  967MOL0     H33378  10.174   5.662   3.117 -0.0598 -1.1145 -0.1720
  967MOL0     H33379  10.581   5.452   3.180  1.4311 -0.6805 -2.9255
  967MOL0     H33380  10.571   5.616   3.242 -0.5354  1.1310 -0.7099
  967MOL0     H33381  10.664   5.551   2.950 -4.4725  2.2603 -2.7043
  967MOL0     H33382  10.600   5.698   3.007  1.7708 -0.0948  0.9976
  967MOL0     H33383  10.801   5.717   3.169  1.9868 -0.3512  0.3960
  967MOL0     H33384  10.840   5.541   3.147 -1.1814 -0.0412 -0.0838
  967MOL0     H33385  10.862   5.608   2.895 -3.1021  0.4824 -0.5120
  967MOL0     H33386  10.880   5.770   2.965 -1.3131  0.0034  0.7550
  967MOL0     H33387  11.048   5.645   3.130 -1.7143 -1.9950  0.9642
  967MOL0     H33388  11.102   5.700   2.969 -0.1246  1.1003  0.4078
  967MOL0     H33389  10.998   5.401   3.019 -1.4330  0.7726 -0.4966
  967MOL0     H33390  11.070   5.464   2.877 -0.9686  0.3845  0.7550
  967MOL0     H33391  11.270   5.493   3.091  1.1586 -1.2900  0.3271
  967MOL0     H33392  11.254   5.361   2.980  1.0143 -1.1995  2.0692
  967MOL0     H33393  11.103   5.387   3.237 -1.6124 -0.5579 -1.0020
  967MOL0     H33394  11.113   5.242   3.138 -0.5648  1.3439 -0.9312
  967MOL0     H33395  11.236   5.337   3.438 -2.7766  0.4540 -3.4414
  967MOL0     H33396  11.517   5.118   3.525 -1.6799  0.0932 -1.4205
  967MOL0     H33397  11.423   5.230   3.608  0.5586 -1.1906  1.1689
  967MOL0     H33398  11.688   5.326   3.480 -3.0122  2.7382 -1.9440
  967MOL0     H33399  11.606   5.396   3.616  0.3796  0.3050 -1.4874
  967MOL0     H33400  11.676   5.113   3.659  1.9454 -0.4777  2.5998
  967MOL0     H33401  11.808   5.222   3.655 -0.7423  0.9596 -0.0097
  967MOL0     H33402  11.549   5.236   3.823 -0.6345 -1.4744  2.0219
  967MOL0     H33403  11.698   5.198   3.907 -2.1570  1.5998  2.7927
  967MOL0     H33404  11.812   5.615   3.911  1.8054  0.0941  1.4184
  967MOL0     H33405  11.771   5.834   4.124 -0.3690  0.5157 -1.1962
  967MOL0     H33406  11.919   5.761   4.032  3.5596 -2.0838  2.4336
  967MOL0     H33407  11.932   5.761   4.188  0.6199  0.9173 -0.3635
  967MOL0     H33408  11.828   5.619   4.604 -0.3564 -7.1072 -0.7872
  967MOL0     H33409  11.806   5.768   4.800  0.9909 -0.4604  0.1939
  967MOL0     H33410  11.700   5.734   5.053  2.1308 -0.9368 -1.4833
  967MOL0     H33411  11.737   5.892   4.970 -3.7879  1.5628 -2.8136
  967MOL0     H33412  11.524   5.857   5.188  0.1948 -0.7317 -1.4230
  967MOL0     H33413  11.668   5.930   5.227  0.5520 -2.9636  0.6395
  967MOL0     H33414  11.492   6.095   5.158  0.0190  0.0461  0.0438
  967MOL0     H33415  11.503   6.036   4.989  1.2973 -0.1615 -1.7673
  967MOL0     H33416  11.632   6.227   5.016 -1.0696 -0.5506 -0.6679
  967MOL0     H33417  11.759   6.100   5.010 -0.0941  0.1869  0.0232
  967MOL0     H33418  11.780   6.106   5.263  0.0029  0.2278 -0.1493
  967MOL0     H33419  11.821   6.253   5.176  0.1707 -0.9757 -3.0756
  967MOL0     H33420  11.541   6.214   5.312 -0.6235  1.4949  0.3199
  967MOL0     H33421  11.598   6.356   5.229 -0.1307  0.0137  0.3146
  967MOL0     H33422  11.705   6.218   5.476  0.6461  0.1971  1.2519
  967MOL0     H33423  11.623   6.386   5.474  0.9154  1.4650 -0.9981
  967MOL0     H33424  11.904   6.305   5.381  1.1731  1.0188  1.2626
  967MOL0     H33425  11.856   6.416   5.509 -3.9214 -0.3747  0.7899
  967MOL0     H33426  11.382   5.672   4.806 -2.0342 -1.1322 -3.1244
  967MOL0     H33427  11.412   5.557   4.576 -0.9754 -0.7069  0.9110
  967MOL0     H33428  11.597   5.379   4.280 -0.7341 -0.7650 -0.8760
  967MOL0     H33429  11.582   5.289   4.078  0.4239  0.1576  1.7520
  967MOL0     H33430  10.456   5.423   3.344  0.4071 -0.3923  2.3245
  967MOL0     H33431  10.289   5.380   3.502  1.9221  5.6807  1.9521
  967MOL0     H33432   9.994   5.212   3.796 -0.1231 -0.3965  0.9879
  967MOL0     H33433   9.853   5.263   3.993 -0.9141 -1.6860 -2.8164
  967MOL0     H33434   9.731   5.348   4.167  1.4060  3.4682  1.9895
  967MOL0     H33435   9.607   5.461   4.193  0.1785 -0.2832  0.1446
  967MOL0     H33436   9.538   5.307   3.951 -0.7864  3.3067  0.0245
  967MOL0     H33437   9.441   5.348   4.091  1.3929 -0.6315  5.1973
  967MOL0     H33438   9.604   5.103   4.043  3.4460  2.0309  0.8210
  967MOL0     H33439   9.589   5.146   4.208 -1.8144  0.2457  0.7192
  967MOL0     H33440   9.340   5.168   4.187 -2.0896 -0.2361 -0.7332
  967MOL0     H33441   9.400   5.007   4.175 -1.6869  0.6660  0.8309
  967MOL0     H33442   9.205   5.089   3.799  1.5460 -0.4764 -1.3471
  967MOL0     H33443   9.706   5.606   3.800 -1.4975 -0.7619 -2.6007
  967MOL0     H33444   9.792   5.690   3.605  0.9259  1.9319 -2.6518
  967MOL0     H33445   9.945   5.629   3.555  0.3567  0.0284  4.0502
  967MOL0     H33446   9.791   5.569   3.480  0.1100 -0.2549  0.2518
  968MOL0     O33447   9.968   8.243   1.679  0.5961  1.1703 -0.2082
  968MOL0     C33448  10.048   8.206   1.762 -0.8206  0.5918 -0.6151
  968MOL0     O33449  10.034   8.102   1.857 -0.2778  0.0517  0.3411
  968MOL0     C33450   9.945   8.010   1.837 -0.2356  0.9951 -0.5739
  968MOL0     C33451   9.937   7.941   1.717 -0.3063  0.2601 -0.1627
  968MOL0     C33452   9.868   7.827   1.706 -0.5188 -0.8361  0.3368
  968MOL0     C33453   9.806   7.763   1.816  0.6470 -0.2404 -0.4463
  968MOL0     O33454   9.730   7.647   1.783  0.4727 -0.2148  0.1914
  968MOL0     C33455   9.622   7.604   1.872 -0.1561  0.1386  0.1497
  968MOL0     C33456   9.582   7.457   1.828 -1.4583  0.8130  0.4739
  968MOL0     C33457   9.462   7.416   1.914  0.0680  0.6213  0.3989
  968MOL0     C33458   9.485   7.419   2.065 -0.3760 -0.7484  0.2185
  968MOL0     C33459   9.390   7.338   2.157  0.5028 -0.2945 -0.6743
  968MOL0     C33460   9.258   7.412   2.213  0.3721 -0.8215  0.2882
  968MOL0     C33461   9.238   7.352   2.354 -0.0520  0.3314  0.0330
  968MOL0     C33462   9.165   7.216   2.344 -0.1911 -1.2670 -0.2741
  968MOL0     N33463   9.151   7.162   2.478 -0.6427 -0.0994 -0.4909
  968MOL0     C33464   9.166   7.023   2.500  0.1845  0.5231  0.2411
  968MOL0     C33465   9.143   7.010   2.628  0.1998  0.1959  0.4832
  968MOL0     C33466   9.139   6.882   2.706 -0.4640  0.5040 -0.5181
  968MOL0     C33467   9.092   6.760   2.625  0.2723 -0.1088  1.5966
  968MOL0     C33468   9.088   6.638   2.718  0.1191 -0.5678  0.9323
  968MOL0     C33469   9.010   6.658   2.855  0.4282 -0.3293  0.2519
  968MOL0     O33470   8.891   6.726   2.832 -0.0810  0.4204 -0.7523
  968MOL0     C33471   8.830   6.786   2.940  0.0850  0.7359  0.2932
  968MOL0     C33472   8.797   6.918   2.922 -0.3831  0.4914 -0.4418
  968MOL0     C33473   8.742   6.998   3.025  0.1633  0.7925 -0.1842
  968MOL0     C33474   8.713   7.143   2.975  0.1865 -0.0064  0.1833
  968MOL0     C33475   8.734   6.935   3.158  0.6544 -0.6055  0.7897
  968MOL0     C33476   8.674   7.005   3.273  0.2075  0.1560 -0.3308
  968MOL0     O33477   8.676   6.930   3.393  0.2171 -0.0249 -0.1814
  968MOL0     C33478   8.635   7.000   3.502  0.2561  0.5968  0.0880
  968MOL0     C33479   8.715   7.099   3.555  0.4649 -0.9959  0.6193
  968MOL0     C33480   8.657   7.170   3.668  0.4367 -0.0183  0.4922
  968MOL0     C33481   8.540   7.132   3.728  0.6430  0.2001 -1.0078
  968MOL0     O33482   8.504   7.198   3.843 -0.4622 -0.2465 -0.1291
  968MOL0     C33483   8.383   7.273   3.851  0.2566  1.5459 -0.6285
  968MOL0     C33484   8.397   7.410   3.772  0.5711 -0.8415  0.3331
  968MOL0     C33485   8.268   7.494   3.807 -0.7829 -0.0199  0.2844
  968MOL0     C33486   8.260   7.618   3.719  0.6467  0.0829  0.4552
  968MOL0     C33487   8.126   7.689   3.751  0.3393 -0.0832 -0.8335
  968MOL0     C33488   8.102   7.766   3.884 -0.3208 -0.4927 -0.6420
  968MOL0     C33489   7.967   7.836   3.863 -0.1295  0.2083 -1.1110
  968MOL0     C33490   7.913   7.893   3.992  0.1881  0.5410  0.1781
  968MOL0    Cl33491   7.756   7.968   3.966  0.0435 -0.8218 -0.3238
  968MOL0     C33492   8.468   7.020   3.672  0.7430  0.1177  0.1814
  968MOL0     C33493   8.503   6.968   3.554  0.1575 -0.1912  0.1120
  968MOL0     O33494   8.623   7.123   3.265  0.1280  0.5138  0.0606
  968MOL0     C33495   8.761   6.800   3.168 -0.2140 -0.7623  1.0107
  968MOL0     C33496   8.817   6.722   3.061  0.0106  0.0265  0.0538
  968MOL0     N33497   9.115   7.133   2.683  0.0589 -0.4800  0.8999
  968MOL0     N33498   9.108   7.223   2.587 -0.2968 -0.4429 -0.3188
  968MOL0     C33499   9.811   7.823   1.944  0.0111 -0.0852  0.8967
  968MOL0     C33500   9.883   7.952   1.955  0.2853  0.3557  0.3234
  968MOL0     C33501  10.173   8.280   1.759  0.2355 -0.2132  0.4437
  968MOL0     C33502  10.167   8.418   1.770  0.0801 -0.2440 -0.5710
  968MOL0     C33503  10.283   8.488   1.773  0.1308 -0.6822  0.0265
  968MOL0     C33504  10.407   8.426   1.765 -0.4067  0.2214 -1.1535
  968MOL0     O33505  10.525   8.502   1.787  0.2221  0.3910  0.3190
  968MOL0     C33506  10.654   8.427   1.777 -0.2240 -0.1043 -0.4765
  968MOL0     C33507  10.767   8.539   1.810  0.3339  0.1457  0.3965
  968MOL0     C33508  10.898   8.537   1.725 -0.1919 -0.2696  0.2392
  968MOL0     C33509  10.894   8.588   1.576 -0.4449  0.9829 -0.3831
  968MOL0     C33510  10.922   8.731   1.573  0.9232  0.1101  1.0939
  968MOL0     C33511  10.915   8.853   1.567 -0.0039  0.8272 -0.4601
  968MOL0     C33512  10.410   8.284   1.752 -0.1199  0.7708  0.4071
  968MOL0     C33513  10.292   8.206   1.742  0.3752 -0.2777  0.4459
  968MOL0     C33514  10.292   8.057   1.697  0.0852  0.0242  0.1491
  968MOL0     H33515   9.995   7.967   1.629  3.2086 -3.5612  0.6847
  968MOL0     H33516   9.843   7.784   1.610 -0.6045  1.3260 -0.6700
  968MOL0     H33517   9.533   7.662   1.846 -0.1849  0.2260  0.4403
  968MOL0     H33518   9.640   7.618   1.979  1.4809 -0.1162 -0.0672
  968MOL0     H33519   9.555   7.452   1.722 -0.9636 -0.0927  0.3834
  968MOL0     H33520   9.659   7.382   1.848  0.1655  2.4360  0.5221
  968MOL0     H33521   9.381   7.487   1.894  0.1914  0.8289  0.6265
  968MOL0     H33522   9.427   7.321   1.874  0.6270  1.7436 -3.0850
  968MOL0     H33523   9.584   7.373   2.081 -0.6328 -2.0688 -1.6036
  968MOL0     H33524   9.491   7.523   2.097 -2.4105 -1.1647  2.1426
  968MOL0     H33525   9.444   7.301   2.245 -1.9275  0.6465  1.3251
  968MOL0     H33526   9.364   7.249   2.099 -0.2899 -0.6269  0.1718
  968MOL0     H33527   9.279   7.519   2.206  3.1182 -1.1627  1.6489
  968MOL0     H33528   9.170   7.386   2.154  0.3161 -1.6023  0.6918
  968MOL0     H33529   9.181   7.422   2.416  2.5288  1.3848  1.3799
  968MOL0     H33530   9.329   7.344   2.414 -1.2810  4.2156  2.7983
  968MOL0     H33531   9.064   7.241   2.310  0.3517  2.0806  0.1761
  968MOL0     H33532   9.204   7.147   2.269 -0.0707 -0.4400 -0.9981
  968MOL0     H33533   9.189   6.942   2.432  0.2059 -1.6010  2.6336
  968MOL0     H33534   9.070   6.899   2.789  0.4141  0.2715  0.2762
  968MOL0     H33535   9.235   6.861   2.755 -0.9047 -3.1625 -0.9018
  968MOL0     H33536   8.996   6.781   2.578  0.9535  0.1385  0.2677
  968MOL0     H33537   9.157   6.743   2.539 -0.4904  2.4420  0.4487
  968MOL0     H33538   9.051   6.554   2.659 -1.8561  0.5786  0.4324
  968MOL0     H33539   9.186   6.605   2.753 -0.6121 -2.3848  1.3839
  968MOL0     H33540   8.992   6.562   2.905 -0.2687  1.1125  2.9467
  968MOL0     H33541   9.065   6.725   2.923 -0.1060  3.0202 -2.3620
  968MOL0     H33542   8.808   6.961   2.823 -1.7862 -1.4777 -1.5161
  968MOL0     H33543   8.753   7.158   2.874 -0.5226 -0.9529 -0.2615
  968MOL0     H33544   8.767   7.214   3.038  1.9731  0.3640 -1.6465
  968MOL0     H33545   8.607   7.169   2.978  0.7737  3.1707 -2.0969
  968MOL0     H33546   8.797   7.141   3.499 -0.2203 -0.7372 -0.1997
  968MOL0     H33547   8.715   7.257   3.700 -0.4278  0.6715  0.2270
  968MOL0     H33548   8.301   7.217   3.806 -0.9118  2.1103  0.7063
  968MOL0     H33549   8.362   7.288   3.957  1.2868 -1.7986  0.1681
  968MOL0     H33550   8.485   7.467   3.801 -1.8568  2.6407  1.5248
  968MOL0     H33551   8.397   7.393   3.663  2.1707 -0.2972  0.2210
  968MOL0     H33552   8.280   7.520   3.912 -1.2094 -2.3210  0.9495
  968MOL0     H33553   8.176   7.436   3.801 -0.3965 -0.4808 -2.1317
  968MOL0     H33554   8.264   7.598   3.612 -1.1656  2.2607 -0.1093
  968MOL0     H33555   8.342   7.682   3.755  1.5250 -1.8774  2.1592
  968MOL0     H33556   8.117   7.752   3.662  0.2664 -0.9320 -1.4428
  968MOL0     H33557   8.055   7.606   3.750  0.6710 -0.3656 -2.0730
  968MOL0     H33558   8.182   7.840   3.891 -0.5281 -0.2807 -0.5199
  968MOL0     H33559   8.100   7.698   3.970  3.8352 -1.5405 -1.1531
  968MOL0     H33560   7.904   7.763   3.812  0.1952 -0.1039 -1.0717
  968MOL0     H33561   7.985   7.914   3.788  1.5298  0.9860  0.0167
  968MOL0     H33562   7.976   7.962   4.048  0.9461 -1.4425  1.8851
  968MOL0     H33563   7.899   7.804   4.054  0.6166 -1.6848 -2.7398
  968MOL0     H33564   8.389   6.975   3.731  1.7084 -1.6933  0.1561
  968MOL0     H33565   8.440   6.893   3.507 -0.1334 -0.2812  0.6363
  968MOL0     H33566   8.742   6.747   3.260  1.6118 -2.0861  0.6870
  968MOL0     H33567   8.861   6.624   3.067  0.9005  0.3095 -1.4195
  968MOL0     H33568   9.762   7.778   2.030 -0.0208 -0.5106  0.6574
  968MOL0     H33569   9.904   7.997   2.051  0.1818  0.1079  0.4653
  968MOL0     H33570  10.070   8.466   1.777  0.3217  0.3157 -0.9408
  968MOL0     H33571  10.291   8.594   1.795 -0.4926 -0.2256 -1.7720
  968MOL0     H33572  10.655   8.350   1.855 -0.2511  0.4374  0.0649
  968MOL0     H33573  10.667   8.400   1.672 -0.0010  4.0169 -1.6937
  968MOL0     H33574  10.787   8.531   1.917 -1.0849  0.2037  0.6886
  968MOL0     H33575  10.729   8.639   1.786  1.5773  0.5600  0.0816
  968MOL0     H33576  10.979   8.576   1.788 -0.4717  2.0944 -0.8041
  968MOL0     H33577  10.932   8.433   1.719 -1.4735 -0.6270 -1.4908
  968MOL0     H33578  10.803   8.561   1.522 -0.2224  0.4541 -0.4975
  968MOL0     H33579  10.962   8.527   1.516  0.4428 -1.4653  2.8680
  968MOL0     H33580  10.893   8.958   1.560 -1.1663  0.6263 -0.0512
  968MOL0     H33581  10.507   8.238   1.734 -1.0974 -0.7118 -1.5724
  968MOL0     H33582  10.226   8.047   1.610 -2.5633  2.7437  1.6347
  968MOL0     H33583  10.396   8.034   1.676  0.3660  0.5819  0.8861
  968MOL0     H33584  10.256   7.995   1.780  2.7798  0.4845  1.7807
  969MOL0     O33585   1.289   1.564   9.799 -0.1419 -0.0125 -0.1817
  969MOL0     C33586   1.235   1.459   9.762 -1.3578 -0.2076 -0.5074
  969MOL0     O33587   1.258   1.338   9.829  0.3050 -0.0792 -0.4393
  969MOL0     C33588   1.335   1.341   9.942  0.4453  0.6995 -0.0653
  969MOL0     C33589   1.464   1.399   9.963  0.5834  0.5188  1.2009
  969MOL0     C33590   1.534   1.371  10.082  0.3531  0.2352  0.4868
  969MOL0     C33591   1.485   1.294  10.184 -0.9777 -0.4735 -0.3489
  969MOL0     O33592   1.558   1.287  10.297 -0.3047 -0.4137  0.3444
  969MOL0     C33593   1.512   1.206  10.413  0.1104 -0.1920 -0.2712
  969MOL0     C33594   1.638   1.198  10.503 -0.0581 -1.2985  0.7526
  969MOL0     C33595   1.685   1.341  10.542  0.3771 -0.1460  0.1491
  969MOL0     C33596   1.568   1.427  10.598  0.0040 -0.6690 -0.0228
  969MOL0     C33597   1.631   1.523  10.711  1.3547 -0.5880 -0.1130
  969MOL0     C33598   1.537   1.637  10.763 -0.0802 -1.1144  0.7597
  969MOL0     C33599   1.399   1.596  10.802 -0.9739 -0.1600  0.5390
  969MOL0     C33600   1.374   1.493  10.922 -0.4488 -0.7750  0.3571
  969MOL0     N33601   1.226   1.462  10.922 -0.0921 -0.3254  0.3227
  969MOL0     C33602   1.120   1.550  10.931  0.7332  0.6198  0.8994
  969MOL0     C33603   1.009   1.482  10.879  0.5445  0.5360 -0.5613
  969MOL0     C33604   0.865   1.517  10.841  0.0168 -0.2370 -0.0238
  969MOL0     C33605   0.831   1.671  10.835  0.1265  0.1756  0.2805
  969MOL0     C33606   0.786   1.738  10.964 -0.9628  0.5416  0.8765
  969MOL0     C33607   0.668   1.670  11.035 -0.6245  0.9184 -0.6910
  969MOL0     O33608   0.621   1.754  11.139  0.5656  0.2048 -0.5447
  969MOL0     C33609   0.523   1.849  11.100 -0.2325  0.4550  0.1272
  969MOL0     C33610   0.474   1.863  10.966 -0.4951 -0.5339 -0.3939
  969MOL0     C33611   0.367   1.943  10.926  0.8908  0.1526 -0.9043
  969MOL0     C33612   0.330   1.934  10.778 -0.4386  0.8202 -0.1055
  969MOL0     C33613   0.309   2.019  11.025  0.2080  0.0314  0.1518
  969MOL0     C33614   0.203   2.127  11.001 -0.4141  0.3036  0.9800
  969MOL0     O33615   0.142   2.190  11.106  0.4558 -0.0451 -0.4729
  969MOL0     C33616   0.062   2.297  11.085  1.4518 -0.4851 -0.6853
  969MOL0     C33617   0.112   2.426  11.061 -0.0899 -0.5268  0.0798
  969MOL0     C33618   0.015   2.536  11.057  0.2222  0.2818  0.1966
  969MOL0     C33619  -0.126   2.517  11.096  0.2851  0.3266  0.1294
  969MOL0     O33620  -0.208   2.632  11.073 -0.5889 -0.1230 -0.2458
  969MOL0     C33621  -0.331   2.644  11.146 -0.4667 -0.8599  0.2957
  969MOL0     C33622  -0.415   2.763  11.094 -0.6128  0.5061 -0.6033
  969MOL0     C33623  -0.493   2.736  10.962 -0.4004  1.1914 -0.1002
  969MOL0     C33624  -0.587   2.852  10.922 -0.5885 -0.5114 -0.5789
  969MOL0     C33625  -0.673   2.800  10.802 -0.6593  0.2857  0.4998
  969MOL0     C33626  -0.718   2.924  10.726 -0.1948 -0.0299 -0.2916
  969MOL0     C33627  -0.855   2.890  10.661  0.0545  0.2044  0.3213
  969MOL0     C33628  -0.911   2.988  10.554 -0.3303  0.3344  0.0704
  969MOL0    Cl33629  -0.944   3.149  10.622  0.2302 -0.0687 -0.4709
  969MOL0     C33630  -0.167   2.386  11.137  0.7147 -0.2567  1.0161
  969MOL0     C33631  -0.074   2.282  11.126  0.8741  0.2281 -0.7879
  969MOL0     O33632   0.204   2.169  10.881  0.5211 -0.0291  0.1370
  969MOL0     C33633   0.358   2.004  11.156  0.6210 -0.1093  0.3792
  969MOL0     C33634   0.464   1.922  11.193 -0.5624 -0.7834 -0.1053
  969MOL0     N33635   1.055   1.356  10.855 -0.2239 -0.6504  0.2014
  969MOL0     N33636   1.177   1.337  10.885 -0.5144 -0.8075 -0.9096
  969MOL0     C33637   1.358   1.232  10.159 -0.1509 -0.7621 -0.0785
  969MOL0     C33638   1.287   1.265  10.046 -0.2233  0.0204  0.3836
  969MOL0     C33639   1.174   1.452   9.624 -0.8363 -0.0721  0.1659
  969MOL0     C33640   1.233   1.539   9.532 -0.2020  0.4808  0.3412
  969MOL0     C33641   1.183   1.536   9.402 -1.2755  0.0038 -0.5550
  969MOL0     C33642   1.081   1.453   9.361  0.1612  0.1664  0.9290
  969MOL0     O33643   1.052   1.450   9.224  0.2877  0.4484 -0.6709
  969MOL0     C33644   1.039   1.317   9.173 -1.1763  0.1975 -0.0313
  969MOL0     C33645   1.160   1.219   9.214  0.5205 -0.3469  0.6647
  969MOL0     C33646   1.295   1.270   9.157  0.3969  0.8231 -0.3271
  969MOL0     C33647   1.401   1.172   9.202  0.1033 -0.4985  0.4950
  969MOL0     C33648   1.527   1.195   9.125  0.2056  0.5747 -0.4295
  969MOL0     C33649   1.632   1.200   9.069 -0.3204 -0.0326 -0.6633
  969MOL0     C33650   1.011   1.376   9.459 -0.1755  0.0571 -0.7759
  969MOL0     C33651   1.069   1.365   9.588  0.2668 -0.0894  0.2649
  969MOL0     C33652   0.995   1.264   9.674  0.3096  0.9323 -0.2045
  969MOL0     H33653   1.507   1.455   9.881 -2.4481 -2.0077 -2.4245
  969MOL0     H33654   1.633   1.408  10.106  0.8832 -0.8692  0.0798
  969MOL0     H33655   1.487   1.110  10.367 -2.6707  0.2192  0.1687
  969MOL0     H33656   1.424   1.254  10.458  1.3988  2.7718 -0.6380
  969MOL0     H33657   1.608   1.136  10.589 -2.6425  2.2765  2.6947
  969MOL0     H33658   1.716   1.142  10.450 -0.2150 -1.8634  1.1005
  969MOL0     H33659   1.778   1.335  10.600  0.2480  0.5936  0.4402
  969MOL0     H33660   1.707   1.396  10.450 -1.4178 -1.1123 -0.9171
  969MOL0     H33661   1.525   1.480  10.512 -0.0107 -2.1216 -0.9471
  969MOL0     H33662   1.489   1.365  10.641 -0.0473 -1.5977 -1.3701
  969MOL0     H33663   1.727   1.556  10.672  1.0551 -2.2341 -2.4252
  969MOL0     H33664   1.655   1.471  10.804 -0.0988  0.5075  0.9502
  969MOL0     H33665   1.580   1.693  10.847 -0.6423  0.1011  0.2614
  969MOL0     H33666   1.534   1.715  10.687  4.3822 -1.1131  0.3345
  969MOL0     H33667   1.348   1.554  10.715  0.0864 -0.6271  0.1165
  969MOL0     H33668   1.347   1.689  10.826  0.4513  0.7360  0.3145
  969MOL0     H33669   1.433   1.403  10.903  1.8499  0.4604  1.2858
  969MOL0     H33670   1.416   1.537  11.013  0.1174 -1.3179  0.3574
  969MOL0     H33671   1.125   1.658  10.934  2.4465  0.7047 -1.6664
  969MOL0     H33672   0.804   1.482  10.925 -1.1425  0.4446 -0.5612
  969MOL0     H33673   0.839   1.454  10.755  1.4879  0.1230 -0.7837
  969MOL0     H33674   0.914   1.726  10.791  0.8688 -1.6777 -0.7434
  969MOL0     H33675   0.744   1.680  10.770  0.3781 -0.4531 -0.1497
  969MOL0     H33676   0.871   1.760  11.029 -0.6358 -0.0350  0.6529
  969MOL0     H33677   0.747   1.831  10.921  1.6391  1.4795  0.3090
  969MOL0     H33678   0.588   1.638  10.968 -1.8085  1.8509  0.2348
  969MOL0     H33679   0.698   1.577  11.083  1.9993  0.4841 -2.9194
  969MOL0     H33680   0.533   1.813  10.889  1.8728  0.2975  0.7674
  969MOL0     H33681   0.236   1.982  10.748 -0.9430  0.6094  1.0946
  969MOL0     H33682   0.311   1.830  10.752 -3.2200  1.1233  0.3980
  969MOL0     H33683   0.413   1.971  10.717 -0.0900 -0.0850 -0.2002
  969MOL0     H33684   0.218   2.438  11.045  0.3147 -1.2645  1.9519
  969MOL0     H33685   0.044   2.637  11.031  1.6309 -0.5819 -1.8289
  969MOL0     H33686  -0.389   2.552  11.139 -2.1440  0.1908 -0.4306
  969MOL0     H33687  -0.307   2.662  11.251 -1.0835 -1.6603  0.5783
  969MOL0     H33688  -0.484   2.795  11.172  1.6081 -0.3398  1.8274
  969MOL0     H33689  -0.364   2.857  11.073 -0.8635  0.5255 -1.1760
  969MOL0     H33690  -0.536   2.636  10.970  0.9033  0.7352  3.1765
  969MOL0     H33691  -0.423   2.732  10.878 -2.0858 -0.5980 -1.4854
  969MOL0     H33692  -0.528   2.936  10.885 -2.1571  1.8808  2.0571
  969MOL0     H33693  -0.642   2.869  11.014  2.7604 -0.2766  1.5545
  969MOL0     H33694  -0.621   2.727  10.738 -0.8572 -1.8688  2.6360
  969MOL0     H33695  -0.765   2.752  10.835  1.1408 -2.7066  1.5961
  969MOL0     H33696  -0.644   2.944  10.648 -0.7556  0.4139 -0.7230
  969MOL0     H33697  -0.731   3.016  10.784  0.3793 -1.2712  1.9251
  969MOL0     H33698  -0.930   2.874  10.739  1.2248  0.2402  1.5021
  969MOL0     H33699  -0.849   2.791  10.616 -1.7623 -2.5643  5.3853
  969MOL0     H33700  -0.994   2.945  10.497  0.4654  1.0796 -1.7225
  969MOL0     H33701  -0.835   3.013  10.479 -1.4154  0.1249 -1.1398
  969MOL0     H33702  -0.259   2.369  11.191 -0.6634  1.5884 -0.6344
  969MOL0     H33703  -0.111   2.182  11.146 -1.9443  1.3096 -0.1160
  969MOL0     H33704   0.311   2.060  11.236 -0.2541 -2.0084  1.2728
  969MOL0     H33705   0.506   1.915  11.293 -2.7007  1.8141  1.1243
  969MOL0     H33706   1.313   1.156  10.224 -4.3486  0.9671 -0.6149
  969MOL0     H33707   1.194   1.210  10.045  1.8212 -3.9768  2.2904
  969MOL0     H33708   1.310   1.608   9.566  1.9123 -0.7052 -1.6934
  969MOL0     H33709   1.222   1.610   9.333  3.1273 -1.5201 -0.0132
  969MOL0     H33710   0.954   1.272   9.225 -0.9672 -1.7941 -1.2796
  969MOL0     H33711   1.020   1.301   9.066  4.1676 -2.8041 -0.9035
  969MOL0     H33712   1.147   1.122   9.164  1.6501  1.4294 -3.5028
  969MOL0     H33713   1.168   1.195   9.320  1.4400  1.6202  1.0806
  969MOL0     H33714   1.297   1.275   9.048  1.3246 -4.0742 -0.7611
  969MOL0     H33715   1.312   1.369   9.199 -3.1699  1.0873  0.8965
  969MOL0     H33716   1.357   1.074   9.184 -4.8170  1.7314 -1.3810
  969MOL0     H33717   1.435   1.183   9.305  0.7089 -0.5536  0.3047
  969MOL0     H33718   1.726   1.203   9.017  0.2707 -1.8751  0.2004
  969MOL0     H33719   0.919   1.324   9.432 -0.9135  1.8082 -1.8031
  969MOL0     H33720   0.895   1.299   9.702 -1.1520 -2.5605 -0.6078
  969MOL0     H33721   0.975   1.178   9.610 -0.2618  1.5981 -0.9510
  969MOL0     H33722   1.049   1.223   9.759  1.1148 -2.4032 -2.1372
  970MOL0     O33723   5.786   7.614   0.564  0.7075  0.7060 -0.0257
  970MOL0     C33724   5.748   7.648   0.681 -0.0772  0.0504 -0.5147
  970MOL0     O33725   5.644   7.598   0.753  0.0554 -0.8126  0.3997
  970MOL0     C33726   5.581   7.504   0.675  0.4921 -0.6902 -0.2857
  970MOL0     C33727   5.621   7.378   0.711  1.4852  0.6287  0.4212
  970MOL0     C33728   5.548   7.270   0.646  0.4968 -0.2391 -1.2175
  970MOL0     C33729   5.457   7.297   0.543  0.3594 -0.1433 -0.0294
  970MOL0     O33730   5.394   7.181   0.502  0.3037  0.3355  0.1044
  970MOL0     C33731   5.310   7.190   0.375  0.3804 -0.8411  0.0113
  970MOL0     C33732   5.276   7.051   0.328  0.0513  0.2206 -0.3128
  970MOL0     C33733   5.213   7.043   0.179 -0.5474 -0.7656  0.5398
  970MOL0     C33734   5.123   6.921   0.155 -0.4363 -0.1031  0.7578
  970MOL0     C33735   5.160   6.776   0.205  0.2893  0.4013  0.8036
  970MOL0     C33736   5.295   6.741   0.161 -0.7798 -0.0972 -0.0063
  970MOL0     C33737   5.309   6.677   0.018  0.3530  0.0367 -1.0031
  970MOL0     C33738   5.338   6.777  -0.091 -0.4032 -0.1658 -0.7913
  970MOL0     N33739   5.475   6.820  -0.074  0.4898  0.1688 -0.1313
  970MOL0     C33740   5.597   6.762  -0.089  0.2548 -0.4787  0.1653
  970MOL0     C33741   5.690   6.858  -0.079  0.2521  0.4593 -0.3408
  970MOL0     C33742   5.834   6.838  -0.069  0.9192  0.0112  0.3314
  970MOL0     C33743   5.893   6.862  -0.203  0.5115 -0.6383  0.2831
  970MOL0     C33744   5.893   7.015  -0.241 -0.6335 -0.1991  0.1616
  970MOL0     C33745   5.943   7.034  -0.386 -0.1460 -1.0009  0.0974
  970MOL0     O33746   6.081   6.998  -0.397 -0.0404  0.1865  0.0048
  970MOL0     C33747   6.136   6.977  -0.520 -0.4331  0.0163  0.2318
  970MOL0     C33748   6.074   7.008  -0.635  0.9552 -0.0358  0.2004
  970MOL0     C33749   6.130   6.965  -0.760 -0.2107  0.2312  0.1809
  970MOL0     C33750   6.049   6.995  -0.886  0.1118 -0.1116  0.2229
  970MOL0     C33751   6.257   6.886  -0.758 -0.2356 -0.6066 -0.4614
  970MOL0     C33752   6.325   6.857  -0.890 -0.7498  0.6484  0.3613
  970MOL0     O33753   6.459   6.846  -0.895 -0.1855  0.0989  0.3771
  970MOL0     C33754   6.531   6.807  -1.011  0.3718 -0.1103 -0.7075
  970MOL0     C33755   6.641   6.884  -1.054 -0.3164  0.8906 -1.0345
  970MOL0     C33756   6.715   6.852  -1.165 -0.2482  0.8516 -0.4750
  970MOL0     C33757   6.683   6.730  -1.243 -0.4814 -0.4922 -0.7059
  970MOL0     O33758   6.778   6.677  -1.332  0.2072  0.1095  0.0532
  970MOL0     C33759   6.747   6.581  -1.438  0.5034 -0.0270  0.2110
  970MOL0     C33760   6.869   6.583  -1.528 -0.4131 -0.0730 -0.4121
  970MOL0     C33761   6.906   6.448  -1.584 -0.3715  0.7277  0.4689
  970MOL0     C33762   7.023   6.435  -1.682  0.3391  0.3662 -0.9910
  970MOL0     C33763   7.162   6.476  -1.630  0.1884  0.2493 -0.2498
  970MOL0     C33764   7.202   6.622  -1.663  0.4062 -0.2903  1.5187
  970MOL0     C33765   7.353   6.650  -1.652  0.7744  0.1002  0.2352
  970MOL0     C33766   7.393   6.673  -1.502 -0.2782 -0.3688  0.1775
  970MOL0    Cl33767   7.325   6.831  -1.437 -0.6342 -0.1249 -0.1140
  970MOL0     C33768   6.575   6.651  -1.196 -0.2704 -0.3329  0.9029
  970MOL0     C33769   6.500   6.687  -1.079  0.6803 -0.2044  0.0389
  970MOL0     O33770   6.253   6.821  -0.984 -0.4753  0.0861 -0.1369
  970MOL0     C33771   6.327   6.887  -0.638  0.3744  0.1581 -0.0806
  970MOL0     C33772   6.266   6.931  -0.519 -0.4226  1.0893 -0.4752
  970MOL0     N33773   5.622   6.972  -0.051 -0.2063  0.5153 -1.1641
  970MOL0     N33774   5.491   6.954  -0.054 -0.7772  0.0449 -0.0525
  970MOL0     C33775   5.426   7.429   0.509 -0.9519  0.2712  0.1674
  970MOL0     C33776   5.486   7.530   0.575 -0.1378 -0.5143 -0.0376
  970MOL0     C33777   5.844   7.740   0.753 -0.7319 -0.2967  0.1363
  970MOL0     C33778   5.923   7.825   0.669  0.4758 -0.1682 -0.6846
  970MOL0     C33779   6.019   7.913   0.713  0.0033 -0.2362  0.8784
  970MOL0     C33780   6.040   7.925   0.853  1.4426  0.3651 -0.3033
  970MOL0     O33781   6.124   8.019   0.886  0.1796  0.2229 -1.0705
  970MOL0     C33782   6.134   8.064   1.021  0.9315  0.4709 -1.7447
  970MOL0     C33783   6.259   8.143   1.022 -0.1444 -0.6636  0.0397
  970MOL0     C33784   6.307   8.175   1.165  0.5172 -0.9264  0.0061
  970MOL0     C33785   6.234   8.296   1.229  0.3281  0.3131 -1.2996
  970MOL0     C33786   6.238   8.293   1.375 -1.4919 -0.1406 -0.2256
  970MOL0     C33787   6.239   8.300   1.497 -0.2558  0.7376 -0.3992
  970MOL0     C33788   5.964   7.839   0.939 -0.6717 -0.3004 -1.1379
  970MOL0     C33789   5.867   7.744   0.890 -0.9449 -0.1046  0.2691
  970MOL0     C33790   5.813   7.654   0.992  0.1425  0.2141 -0.3078
  970MOL0     H33791   5.693   7.358   0.789 -0.8997 -2.5498  2.0217
  970MOL0     H33792   5.562   7.168   0.678 -0.4774 -0.0868 -0.2195
  970MOL0     H33793   5.368   7.240   0.298  3.8514 -3.4255  0.7294
  970MOL0     H33794   5.222   7.254   0.385  1.3747  0.5029  0.3872
  970MOL0     H33795   5.373   7.000   0.323 -0.4993 -1.1040  1.6554
  970MOL0     H33796   5.204   6.997   0.390 -0.4066 -2.8542 -3.2056
  970MOL0     H33797   5.152   7.131   0.155 -0.7932 -0.5541  1.8588
  970MOL0     H33798   5.292   7.041   0.103 -0.2710 -1.0836  0.8352
  970MOL0     H33799   5.033   6.951   0.210 -0.7305 -0.9419  0.7513
  970MOL0     H33800   5.104   6.918   0.047  4.0268  1.1753 -0.2611
  970MOL0     H33801   5.084   6.701   0.180 -0.9496  1.4172  1.3486
  970MOL0     H33802   5.167   6.782   0.314 -0.8260 -0.2239  0.9264
  970MOL0     H33803   5.365   6.826   0.165  0.5878 -1.1948  0.1562
  970MOL0     H33804   5.329   6.663   0.229  5.1323  0.5718 -1.6642
  970MOL0     H33805   5.226   6.612  -0.011 -0.5706  0.6300  0.2120
  970MOL0     H33806   5.383   6.597   0.023  2.1250  1.6139  3.8719
  970MOL0     H33807   5.330   6.723  -0.185 -0.9786 -4.0313  1.2514
  970MOL0     H33808   5.269   6.862  -0.098 -1.4753 -0.9497 -0.1935
  970MOL0     H33809   5.620   6.657  -0.106 -1.6743 -0.8857 -0.0692
  970MOL0     H33810   5.859   6.733  -0.051 -1.7130 -0.9140 -0.9745
  970MOL0     H33811   5.875   6.905   0.007 -0.1503  3.5124 -1.9307
  970MOL0     H33812   5.995   6.824  -0.203  1.5898  1.9872  0.8294
  970MOL0     H33813   5.851   6.796  -0.280 -1.2981  0.4254  0.2878
  970MOL0     H33814   5.799   7.069  -0.229 -0.2105  1.2411 -2.2205
  970MOL0     H33815   5.970   7.062  -0.178  3.3357 -5.1394 -0.3950
  970MOL0     H33816   5.883   6.978  -0.458  1.2148  0.5535 -2.3865
  970MOL0     H33817   5.929   7.140  -0.412  2.0575 -0.5738  0.4400
  970MOL0     H33818   5.977   7.058  -0.635  0.9261  0.1064  3.4871
  970MOL0     H33819   5.951   7.041  -0.872  1.1601  2.1801  0.6009
  970MOL0     H33820   6.033   6.909  -0.952 -1.7985  2.1794 -2.5590
  970MOL0     H33821   6.105   7.073  -0.939  1.0967 -0.6828  0.3989
  970MOL0     H33822   6.660   6.976  -1.000  1.6611 -1.3086  2.4349
  970MOL0     H33823   6.812   6.899  -1.181  0.3442  0.2140  1.0596
  970MOL0     H33824   6.741   6.485  -1.387  1.9782 -1.5643 -2.3227
  970MOL0     H33825   6.659   6.595  -1.501  0.5383 -0.2095  0.1218
  970MOL0     H33826   6.849   6.660  -1.603  0.6716 -0.4388 -1.1047
  970MOL0     H33827   6.955   6.611  -1.467  0.5583  0.8244 -2.1100
  970MOL0     H33828   6.817   6.400  -1.624  1.7089 -2.0120 -1.1657
  970MOL0     H33829   6.934   6.394  -1.493  1.9250  3.5964  1.6357
  970MOL0     H33830   6.999   6.488  -1.774  0.3522 -1.5849 -2.1844
  970MOL0     H33831   7.026   6.329  -1.711 -0.8745 -0.5394  1.8094
  970MOL0     H33832   7.170   6.475  -1.521  0.3804 -1.7368 -0.2391
  970MOL0     H33833   7.229   6.401  -1.674  0.3783 -0.4449  1.1635
  970MOL0     H33834   7.152   6.695  -1.599  1.6512  3.8684 -1.7976
  970MOL0     H33835   7.182   6.644  -1.769 -1.3602  0.6856  2.0054
  970MOL0     H33836   7.367   6.751  -1.693 -0.4658  0.2428  0.1211
  970MOL0     H33837   7.413   6.577  -1.707 -1.6836 -0.4071 -1.9758
  970MOL0     H33838   7.500   6.688  -1.492 -0.6762  4.4490 -0.5593
  970MOL0     H33839   7.358   6.589  -1.441  0.9820  1.0565  3.0482
  970MOL0     H33840   6.544   6.559  -1.246  1.8724 -0.9855  0.6729
  970MOL0     H33841   6.409   6.630  -1.062 -0.0126  0.4084 -1.4214
  970MOL0     H33842   6.430   6.857  -0.627 -0.4415 -2.1667  2.1340
  970MOL0     H33843   6.327   6.920  -0.430  1.2675  0.9095 -1.6013
  970MOL0     H33844   5.356   7.451   0.429 -1.1470  1.6336  0.6837
  970MOL0     H33845   5.452   7.629   0.548 -0.1541 -0.4956  0.0503
  970MOL0     H33846   5.900   7.821   0.563  2.1707  1.4924 -1.1587
  970MOL0     H33847   6.081   7.980   0.655 -0.8154  1.5994  2.0382
  970MOL0     H33848   6.050   8.118   1.065 -0.6906 -1.6976 -1.9805
  970MOL0     H33849   6.147   7.980   1.090  1.3538  2.5240  0.8326
  970MOL0     H33850   6.238   8.230   0.960  4.2923  0.4275 -0.2498
  970MOL0     H33851   6.347   8.095   0.978  1.6948  2.1889  0.3491
  970MOL0     H33852   6.287   8.091   1.232 -1.0011  1.7929  3.2099
  970MOL0     H33853   6.413   8.197   1.174  0.0913  1.9904 -0.8380
  970MOL0     H33854   6.127   8.296   1.211 -0.4407  2.3810  2.2066
  970MOL0     H33855   6.287   8.383   1.187  1.5612  0.9715  1.3746
  970MOL0     H33856   6.244   8.314   1.603  0.7598  1.1475 -0.4872
  970MOL0     H33857   5.978   7.831   1.046  0.8882 -1.6535 -1.3995
  970MOL0     H33858   5.836   7.674   1.097 -2.4346 -0.9722  0.5559
  970MOL0     H33859   5.705   7.641   0.982 -0.1980  2.5249 -0.0618
  970MOL0     H33860   5.858   7.557   0.968 -0.8406 -0.3057 -0.1063
  971MOL0     O33861   4.930   0.938   2.867 -0.1380 -0.9818  0.4898
  971MOL0     C33862   4.895   1.046   2.911 -0.0205  0.2833  0.2084
  971MOL0     O33863   4.782   1.107   2.862 -0.3914 -0.4568  0.6460
  971MOL0     C33864   4.697   1.058   2.762 -0.5947 -0.2669 -0.1870
  971MOL0     C33865   4.566   1.000   2.785 -0.6557  0.0208  0.7900
  971MOL0     C33866   4.487   0.960   2.676  0.3996  0.6333  0.1450
  971MOL0     C33867   4.532   0.967   2.546 -0.4329  0.2915 -0.3151
  971MOL0     O33868   4.458   0.927   2.441  0.1100  0.0415  0.0560
  971MOL0     C33869   4.475   0.783   2.419  0.1350 -0.6747  0.2127
  971MOL0     C33870   4.409   0.741   2.294 -0.5807 -0.6866 -0.4106
  971MOL0     C33871   4.429   0.590   2.276  0.1931 -0.8214 -0.9086
  971MOL0     C33872   4.358   0.547   2.156 -0.5790  0.5558 -0.1326
  971MOL0     C33873   4.337   0.393   2.152  1.0318 -0.3813 -0.2335
  971MOL0     C33874   4.310   0.356   2.002 -0.1420 -0.0776 -0.0508
  971MOL0     C33875   4.302   0.201   1.981  0.2108  0.8745  0.2829
  971MOL0     C33876   4.227   0.130   2.092  0.2189 -1.0539 -0.2263
  971MOL0     N33877   4.222  -0.010   2.078 -0.4138 -0.1813 -0.0897
  971MOL0     C33878   4.126  -0.063   2.001 -0.4685 -0.3302  0.7458
  971MOL0     C33879   4.156  -0.203   1.995  0.4295 -0.3155 -0.1369
  971MOL0     C33880   4.069  -0.311   1.933  0.2190  0.1601  1.2153
  971MOL0     C33881   3.937  -0.349   1.981  1.0336  0.5482 -1.1184
  971MOL0     C33882   3.876  -0.446   1.886 -0.0617 -0.1072 -0.2212
  971MOL0     C33883   3.743  -0.513   1.920  0.1130 -0.3111 -1.2236
  971MOL0     O33884   3.761  -0.609   2.028 -0.3410  0.5768  0.0633
  971MOL0     C33885   3.649  -0.690   2.053  0.2864 -1.4211 -0.6692
  971MOL0     C33886   3.658  -0.777   2.165  0.5786  0.0192  0.2350
  971MOL0     C33887   3.548  -0.855   2.217 -0.4287  0.0467 -0.5832
  971MOL0     C33888   3.579  -0.937   2.339 -0.0227  0.7547 -1.1302
  971MOL0     C33889   3.430  -0.855   2.140  0.6070  0.2717  0.5524
  971MOL0     C33890   3.308  -0.929   2.173  0.3159 -0.9753 -0.1612
  971MOL0     O33891   3.220  -0.945   2.069 -0.8599  0.9590  0.4198
  971MOL0     C33892   3.115  -1.022   2.095 -0.0731 -0.0738 -0.5974
  971MOL0     C33893   3.071  -1.125   2.010  0.1275  0.6309  0.4467
  971MOL0     C33894   2.954  -1.191   2.035 -0.5174  1.0730 -0.3403
  971MOL0     C33895   2.864  -1.143   2.130 -0.4300  0.6770 -0.3068
  971MOL0     O33896   2.749  -1.214   2.148 -0.1265 -0.2907  0.8264
  971MOL0     C33897   2.687  -1.212   2.276  0.2652 -1.0207  0.1479
  971MOL0     C33898   2.594  -1.329   2.280  0.1767  0.0583  0.3902
  971MOL0     C33899   2.488  -1.334   2.171 -0.3579 -0.3258  0.5035
  971MOL0     C33900   2.397  -1.453   2.203  1.0382  0.0978  0.6299
  971MOL0     C33901   2.284  -1.464   2.101  0.1871 -0.9090  0.5665
  971MOL0     C33902   2.344  -1.495   1.961 -0.0008  0.5680 -0.0363
  971MOL0     C33903   2.253  -1.551   1.848  0.3134 -0.6309 -0.0813
  971MOL0     C33904   2.333  -1.633   1.747  0.2442 -0.1163 -0.2060
  971MOL0    Cl33905   2.413  -1.517   1.627  0.0630  0.2742 -0.3480
  971MOL0     C33906   2.892  -1.027   2.205 -0.1837  0.6713 -0.7125
  971MOL0     C33907   3.021  -0.976   2.188  0.5385 -0.9376  0.3019
  971MOL0     O33908   3.294  -0.964   2.284 -0.1435  0.1358 -1.0374
  971MOL0     C33909   3.414  -0.761   2.036 -0.2605  0.0374 -0.4543
  971MOL0     C33910   3.524  -0.685   1.986 -0.7433  0.1973  0.0597
  971MOL0     N33911   4.255  -0.226   2.087  0.1513  0.3432  0.1111
  971MOL0     N33912   4.296  -0.107   2.138  0.3086  0.3978 -0.0714
  971MOL0     C33913   4.658   1.024   2.521 -0.2232 -0.2968 -0.5952
  971MOL0     C33914   4.733   1.073   2.632 -1.3615 -0.1537  0.7315
  971MOL0     C33915   4.953   1.115   3.026 -0.0030 -0.5137  1.2384
  971MOL0     C33916   4.877   1.222   3.094 -0.6220  0.0026 -0.2955
  971MOL0     C33917   4.941   1.290   3.211 -0.4985  0.9671 -0.2014
  971MOL0     C33918   5.061   1.245   3.254 -1.0274 -0.5598 -0.0539
  971MOL0     O33919   5.089   1.275   3.380 -0.0625 -0.4756 -0.0079
  971MOL0     C33920   5.048   1.175   3.479 -0.3028  0.3785 -0.0910
  971MOL0     C33921   5.144   1.051   3.495  0.9679 -0.8101 -0.4176
  971MOL0     C33922   5.285   1.087   3.543 -0.1058  0.6946  0.4587
  971MOL0     C33923   5.281   1.152   3.691  0.1552 -0.7762 -0.1931
  971MOL0     C33924   5.179   1.076   3.775  0.1978 -0.5915  1.3763
  971MOL0     C33925   5.091   1.029   3.840 -0.5191 -0.4267 -0.6114
  971MOL0     C33926   5.138   1.149   3.182  0.0727  0.7494  0.4525
  971MOL0     C33927   5.080   1.078   3.077  0.4135 -0.1083  0.6036
  971MOL0     C33928   5.164   0.977   3.000 -0.4383 -0.2830  0.5188
  971MOL0     H33929   4.530   0.988   2.887 -0.4078 -1.7570  0.6953
  971MOL0     H33930   4.391   0.919   2.704  1.2640 -2.0300 -0.5104
  971MOL0     H33931   4.422   0.732   2.500  0.8313 -0.3953  0.8578
  971MOL0     H33932   4.582   0.764   2.420  0.3698  0.5531  1.5864
  971MOL0     H33933   4.303   0.766   2.291 -0.0673  1.8593  0.0893
  971MOL0     H33934   4.451   0.795   2.208  0.4833  2.5978  1.9581
  971MOL0     H33935   4.535   0.569   2.291 -0.1683 -1.5838  0.7225
  971MOL0     H33936   4.378   0.543   2.360 -0.0930  1.4710  0.2773
  971MOL0     H33937   4.266   0.606   2.148  0.8542  3.1762  1.3550
  971MOL0     H33938   4.430   0.572   2.078  0.6860  0.3489  0.9244
  971MOL0     H33939   4.242   0.374   2.203 -0.2178  0.6915 -2.0303
  971MOL0     H33940   4.409   0.330   2.205 -1.3390 -0.9537  2.5784
  971MOL0     H33941   4.226   0.414   1.965 -0.9456  0.5954  2.5764
  971MOL0     H33942   4.392   0.406   1.950  1.5768  2.4801  4.4992
  971MOL0     H33943   4.405   0.164   1.975 -0.2495 -0.5344  0.6565
  971MOL0     H33944   4.256   0.180   1.884  2.8042 -0.6495 -0.7163
  971MOL0     H33945   4.277   0.144   2.189 -1.1974 -0.0299  0.3772
  971MOL0     H33946   4.128   0.175   2.101 -0.1569 -2.0411  0.9746
  971MOL0     H33947   4.052  -0.009   1.943  0.8458  1.7325  0.8776
  971MOL0     H33948   4.134  -0.396   1.912  1.6941  1.1557  1.6174
  971MOL0     H33949   4.053  -0.272   1.832 -3.6100  1.2599  2.0890
  971MOL0     H33950   3.941  -0.401   2.077  2.6202  1.5644 -0.5972
  971MOL0     H33951   3.865  -0.267   1.982 -1.6529 -1.5977  1.5249
  971MOL0     H33952   3.860  -0.382   1.798 -0.6579 -0.5936 -0.4738
  971MOL0     H33953   3.953  -0.522   1.872  2.1221  1.9870 -0.3221
  971MOL0     H33954   3.669  -0.440   1.954 -0.6069  0.0388 -3.4269
  971MOL0     H33955   3.702  -0.543   1.824  0.4605 -1.1105 -1.1335
  971MOL0     H33956   3.759  -0.779   2.205  1.1392  1.2939 -1.0497
  971MOL0     H33957   3.553  -0.886   2.433 -0.6461 -1.2739 -0.1536
  971MOL0     H33958   3.688  -0.946   2.349 -0.0277  1.2651 -0.5457
  971MOL0     H33959   3.536  -1.037   2.344  0.8859  0.3874 -0.2474
  971MOL0     H33960   3.132  -1.157   1.926  1.0738 -4.0712  2.5817
  971MOL0     H33961   2.929  -1.280   1.977 -0.6226 -1.2778  2.9755
  971MOL0     H33962   2.755  -1.215   2.362 -0.5964  1.0508  0.9636
  971MOL0     H33963   2.641  -1.116   2.299  0.3871 -0.1105 -3.0372
  971MOL0     H33964   2.638  -1.429   2.288 -2.0000 -1.1858 -1.9035
  971MOL0     H33965   2.536  -1.306   2.370  2.4874  2.4807  1.3960
  971MOL0     H33966   2.544  -1.348   2.078  1.5793 -4.0426  2.0172
  971MOL0     H33967   2.433  -1.239   2.168 -1.9864 -1.2122 -2.6664
  971MOL0     H33968   2.356  -1.452   2.304  1.2071  0.1036  0.6989
  971MOL0     H33969   2.456  -1.545   2.203  1.0581  0.1077  1.3717
  971MOL0     H33970   2.230  -1.553   2.134  0.5038 -0.9271  1.0482
  971MOL0     H33971   2.216  -1.378   2.097  0.0356 -1.0532 -0.1362
  971MOL0     H33972   2.430  -1.561   1.970  2.0205  2.5012 -3.2490
  971MOL0     H33973   2.389  -1.404   1.921 -2.6822  2.7473  1.4801
  971MOL0     H33974   2.183  -1.471   1.821  1.0936  0.8572  2.0238
  971MOL0     H33975   2.194  -1.618   1.910 -1.5703  1.5269  0.6074
  971MOL0     H33976   2.274  -1.703   1.687  0.8692  0.4316 -1.4872
  971MOL0     H33977   2.410  -1.691   1.798  0.9892 -1.6178 -2.8521
  971MOL0     H33978   2.819  -0.981   2.271 -0.8158  0.0765 -0.9829
  971MOL0     H33979   3.052  -0.893   2.251 -1.3261  0.6385 -0.7654
  971MOL0     H33980   3.313  -0.736   2.003 -0.9966 -1.6216  0.3973
  971MOL0     H33981   3.502  -0.623   1.900  0.2793  1.9923  1.0309
  971MOL0     H33982   4.693   1.040   2.419  3.5824  1.2473  0.7855
  971MOL0     H33983   4.829   1.118   2.609 -1.7817  0.0918 -0.5980
  971MOL0     H33984   4.782   1.266   3.064  0.6210  2.3522 -1.0561
  971MOL0     H33985   4.891   1.354   3.283 -0.3172 -0.1804  0.9654
  971MOL0     H33986   5.031   1.218   3.578 -0.0963 -2.1597  1.1277
  971MOL0     H33987   4.950   1.137   3.447  0.6091 -1.8729 -0.3975
  971MOL0     H33988   5.150   1.005   3.396 -0.7776 -4.4767  0.9839
  971MOL0     H33989   5.103   0.970   3.558 -1.2309 -0.2384 -1.0325
  971MOL0     H33990   5.350   0.999   3.536 -1.0562  0.0764 -1.0672
  971MOL0     H33991   5.325   1.169   3.483 -1.3945  1.0010 -0.0147
  971MOL0     H33992   5.260   1.259   3.699 -1.2673 -1.1245  1.2348
  971MOL0     H33993   5.385   1.143   3.724  0.1449  0.2827  0.1952
  971MOL0     H33994   5.015   0.993   3.906  0.3809  0.6808  1.1169
  971MOL0     H33995   5.239   1.120   3.209  1.1938  4.6509  1.1209
  971MOL0     H33996   5.108   0.883   2.996 -1.0948  0.1432 -1.2893
  971MOL0     H33997   5.196   1.008   2.900  0.7355  1.5837  1.4048
  971MOL0     H33998   5.263   0.962   3.044  0.3398  0.8652 -0.7386
  972MOL0     O33999   3.302   9.722   1.420 -0.7218  0.0623  0.3679
  972MOL0     C34000   3.305   9.813   1.501 -0.6465  0.2315 -0.4584
  972MOL0     O34001   3.269   9.807   1.628  0.4434 -0.3148 -0.4118
  972MOL0     C34002   3.188   9.712   1.685 -0.4037  0.3887 -0.1839
  972MOL0     C34003   3.203   9.676   1.826 -0.2397 -0.6256  1.3405
  972MOL0     C34004   3.098   9.601   1.889 -1.0440  0.1619  0.0029
  972MOL0     C34005   2.997   9.539   1.814 -0.1531 -0.9586 -0.0912
  972MOL0     O34006   2.908   9.461   1.881 -0.3082  0.4426  0.5671
  972MOL0     C34007   2.841   9.359   1.807  0.6947 -0.0503  0.5896
  972MOL0     C34008   2.792   9.244   1.899  0.0769  0.1480 -0.1543
  972MOL0     C34009   2.740   9.127   1.811 -0.0741  0.6918 -0.2243
  972MOL0     C34010   2.663   9.034   1.904 -1.0290  0.3128 -1.3802
  972MOL0     C34011   2.615   8.904   1.838  1.0467  0.3419 -0.9414
  972MOL0     C34012   2.482   8.927   1.781  0.3978  0.4651  0.8562
  972MOL0     C34013   2.445   8.787   1.736  0.4025 -0.2104  0.1551
  972MOL0     C34014   2.308   8.781   1.667 -0.5150  0.6142 -0.0671
  972MOL0     N34015   2.315   8.830   1.531 -0.3176 -0.1243  0.0642
  972MOL0     C34016   2.384   8.775   1.430  0.4398  0.1586 -0.0433
  972MOL0     C34017   2.358   8.856   1.327 -0.2298  0.1457  0.3896
  972MOL0     C34018   2.413   8.840   1.186 -0.5411  0.0507 -0.1874
  972MOL0     C34019   2.522   8.950   1.155  0.9517  0.1096  0.3785
  972MOL0     C34020   2.457   9.095   1.151 -0.1531  0.0290 -0.6076
  972MOL0     C34021   2.351   9.118   1.033  1.3056 -0.8964  0.2644
  972MOL0     O34022   2.334   9.259   1.011  0.4774  0.0058 -0.1231
  972MOL0     C34023   2.215   9.316   1.051 -0.0709  0.1354  0.9085
  972MOL0     C34024   2.116   9.276   1.145 -0.4348  1.2807  0.7015
  972MOL0     C34025   2.002   9.352   1.184  0.2050  1.0005 -0.3144
  972MOL0     C34026   1.929   9.309   1.320 -0.0278  0.2319  0.5408
  972MOL0     C34027   1.982   9.476   1.116  0.3473 -0.6570  0.6353
  972MOL0     C34028   1.861   9.558   1.132 -1.1073 -0.0286 -0.4566
  972MOL0     O34029   1.869   9.689   1.105 -0.8204 -0.5458 -0.1523
  972MOL0     C34030   1.765   9.778   1.123  0.2042  0.0696 -1.1665
  972MOL0     C34031   1.643   9.749   1.059  0.1314  0.1966 -0.8920
  972MOL0     C34032   1.538   9.839   1.074  0.1278 -0.0054  0.9519
  972MOL0     C34033   1.546   9.947   1.152  0.9966 -0.4323 -0.5020
  972MOL0     O34034   1.454  10.048   1.173 -0.3970  0.1017  1.1827
  972MOL0     C34035   1.321  10.018   1.124 -0.3704 -0.0331  1.0506
  972MOL0     C34036   1.236  10.128   1.178 -0.3883 -0.3503 -0.2341
  972MOL0     C34037   1.223  10.118   1.337 -0.3890  0.9284 -0.6935
  972MOL0     C34038   1.119  10.197   1.417  0.6064  0.0004  0.2071
  972MOL0     C34039   1.107  10.338   1.363 -0.4746 -0.1942 -0.0940
  972MOL0     C34040   1.028  10.442   1.452 -0.0040  0.5975 -0.2318
  972MOL0     C34041   0.888  10.403   1.502 -0.2963  0.5777 -0.0357
  972MOL0     C34042   0.827  10.513   1.597 -0.5631 -0.4051 -0.5954
  972MOL0    Cl34043   0.938  10.565   1.727 -0.3833 -0.1272 -0.4024
  972MOL0     C34044   1.666   9.974   1.216  0.9470 -1.0861 -0.1760
  972MOL0     C34045   1.772   9.889   1.207  0.1158 -0.4850  0.4000
  972MOL0     O34046   1.763   9.504   1.179 -0.8039  0.0470  0.2109
  972MOL0     C34047   2.078   9.522   1.019 -1.0049 -0.2390 -0.1580
  972MOL0     C34048   2.191   9.445   0.994 -0.2354 -0.1271  0.1694
  972MOL0     N34049   2.271   8.963   1.365 -0.0028  0.5126  0.1650
  972MOL0     N34050   2.253   8.950   1.490  0.3851  0.1368  0.5264
  972MOL0     C34051   2.991   9.568   1.672 -0.5699 -0.6247 -0.1496
  972MOL0     C34052   3.081   9.658   1.613 -0.7675  0.5397  0.1433
  972MOL0     C34053   3.366   9.941   1.462  0.8243 -0.2222  0.0508
  972MOL0     C34054   3.435  10.025   1.554  0.0727  0.1640 -0.2347
  972MOL0     C34055   3.494  10.144   1.523 -0.0543  0.4230 -0.4061
  972MOL0     C34056   3.476  10.192   1.398  0.1900  0.3205 -0.2451
  972MOL0     O34057   3.521  10.323   1.378  0.4519 -0.0152  0.8691
  972MOL0     C34058   3.657  10.331   1.331  0.5538 -0.5421  0.0630
  972MOL0     C34059   3.665  10.456   1.242 -0.0105  0.7577 -0.4465
  972MOL0     C34060   3.689  10.582   1.331 -0.0307  0.8301 -0.0012
  972MOL0     C34061   3.841  10.623   1.337 -0.1696  0.3584 -0.9424
  972MOL0     C34062   3.915  10.538   1.429  0.0285  0.5730 -0.0871
  972MOL0     C34063   3.969  10.470   1.516  0.2489 -0.0895  0.2322
  972MOL0     C34064   3.402  10.132   1.306 -0.2707  0.6886 -0.2698
  972MOL0     C34065   3.346  10.007   1.330 -0.7823  0.6132 -0.1535
  972MOL0     C34066   3.259   9.941   1.232  0.5610 -0.5498 -0.0281
  972MOL0     H34067   3.288   9.728   1.867  0.5334  0.7948 -1.7281
  972MOL0     H34068   3.084   9.604   1.996 -6.1684 -0.0677 -0.4073
  972MOL0     H34069   2.909   9.325   1.729  0.0091 -0.0734 -0.0096
  972MOL0     H34070   2.752   9.403   1.762  2.0926  2.6535  0.2571
  972MOL0     H34071   2.874   9.200   1.957 -2.1068 -0.8959  2.3117
  972MOL0     H34072   2.717   9.274   1.972  0.4486 -0.0449  0.3123
  972MOL0     H34073   2.674   9.163   1.732 -0.3453  2.2432  0.6715
  972MOL0     H34074   2.824   9.079   1.761 -0.7439  1.3538 -2.0656
  972MOL0     H34075   2.728   9.005   1.987 -0.7098  1.5854 -1.1681
  972MOL0     H34076   2.583   9.089   1.955  2.6395  4.0746  1.0199
  972MOL0     H34077   2.595   8.835   1.921 -3.2833  1.0373 -1.1607
  972MOL0     H34078   2.689   8.854   1.775  1.3940 -3.4207  2.0888
  972MOL0     H34079   2.400   8.957   1.847 -3.5116  1.6834 -3.9109
  972MOL0     H34080   2.470   9.003   1.703 -1.6177  0.3355  0.9862
  972MOL0     H34081   2.429   8.732   1.830  1.1346 -3.7650 -1.6187
  972MOL0     H34082   2.517   8.732   1.674 -0.2706 -0.7623 -0.1455
  972MOL0     H34083   2.264   8.682   1.678  2.8001 -1.1819 -1.5823
  972MOL0     H34084   2.242   8.847   1.725 -3.0704 -1.5120 -0.3920
  972MOL0     H34085   2.457   8.695   1.440  2.1118  1.6995  0.4908
  972MOL0     H34086   2.343   8.842   1.103  0.4148 -2.1951 -1.1279
  972MOL0     H34087   2.460   8.742   1.176 -2.1873 -0.7575 -0.3048
  972MOL0     H34088   2.609   8.959   1.222 -0.3312  3.0279  1.8198
  972MOL0     H34089   2.561   8.940   1.053  1.9509 -1.8508  0.8969
  972MOL0     H34090   2.415   9.118   1.249  0.8988  0.9660 -0.3620
  972MOL0     H34091   2.535   9.167   1.126 -1.9542  2.3741  0.1224
  972MOL0     H34092   2.386   9.076   0.939  2.3388 -1.6980  0.9907
  972MOL0     H34093   2.263   9.058   1.059  1.8452 -2.0392 -0.5174
  972MOL0     H34094   2.134   9.187   1.204 -2.1592  0.4616  0.0609
  972MOL0     H34095   1.865   9.390   1.356  0.3818  0.2227  1.3289
  972MOL0     H34096   2.005   9.280   1.394 -2.7149 -0.0733  3.3837
  972MOL0     H34097   1.873   9.216   1.305 -1.2845  0.6888  2.1687
  972MOL0     H34098   1.631   9.667   0.989 -1.5139 -1.1663  0.9070
  972MOL0     H34099   1.445   9.831   1.018  0.0148 -1.1920  1.2907
  972MOL0     H34100   1.321  10.033   1.015 -4.4836 -1.4104  0.7039
  972MOL0     H34101   1.291   9.917   1.152  3.4966 -0.6923  3.5794
  972MOL0     H34102   1.280  10.226   1.156  2.3739 -1.8795 -2.0959
  972MOL0     H34103   1.140  10.120   1.127 -0.2457  1.3876 -0.8588
  972MOL0     H34104   1.324  10.142   1.372 -0.7843 -0.1427  1.3162
  972MOL0     H34105   1.202  10.013   1.358 -0.3692  1.3451  1.7061
  972MOL0     H34106   1.142  10.206   1.524  1.9252 -0.2950 -0.0386
  972MOL0     H34107   1.019  10.153   1.415  0.6082  0.0117 -0.2193
  972MOL0     H34108   1.205  10.379   1.338 -0.5797 -0.5409 -1.1066
  972MOL0     H34109   1.061  10.342   1.264  0.5264  2.7683 -0.5575
  972MOL0     H34110   1.015  10.533   1.392 -3.5651  0.2237 -0.2717
  972MOL0     H34111   1.090  10.464   1.540 -1.0824 -0.2578  0.7774
  972MOL0     H34112   0.876  10.311   1.561 -2.8805 -0.2684 -1.6954
  972MOL0     H34113   0.836  10.375   1.410  3.5903  1.4031 -2.6998
  972MOL0     H34114   0.730  10.485   1.638 -1.0208  0.7899 -0.8397
  972MOL0     H34115   0.811  10.605   1.540 -2.4450  0.1825  0.7962
  972MOL0     H34116   1.655  10.068   1.270 -1.1043 -1.6168  0.4337
  972MOL0     H34117   1.860   9.891   1.271  0.1678 -0.9893  0.3541
  972MOL0     H34118   2.073   9.612   0.958  1.1176 -0.6459 -1.0592
  972MOL0     H34119   2.277   9.487   0.942  1.0878 -2.8080  0.0326
  972MOL0     H34120   2.913   9.526   1.609 -0.7591  2.4023 -2.1367
  972MOL0     H34121   3.069   9.695   1.511  0.8087  2.0942  0.4674
  972MOL0     H34122   3.440   9.993   1.658 -5.1943 -0.9271 -0.0393
  972MOL0     H34123   3.536  10.209   1.599  0.4934 -1.6270  1.1346
  972MOL0     H34124   3.727  10.335   1.415 -1.7364  0.3235  2.0206
  972MOL0     H34125   3.678  10.238   1.277 -3.2485 -1.5215 -0.0311
  972MOL0     H34126   3.572  10.468   1.185 -0.2230 -1.9855 -0.7913
  972MOL0     H34127   3.747  10.453   1.168 -2.4436  0.5030 -3.3207
  972MOL0     H34128   3.636  10.667   1.287 -1.3877  0.6547  1.2118
  972MOL0     H34129   3.647  10.571   1.431  2.0829  1.1340  0.9972
  972MOL0     H34130   3.852  10.728   1.365 -0.0649  0.0667  0.1412
  972MOL0     H34131   3.890  10.608   1.240  1.4469 -2.3871  0.1791
  972MOL0     H34132   4.028  10.429   1.595 -2.3795  2.1219  3.6101
  972MOL0     H34133   3.385  10.193   1.217  1.6479 -0.0784 -1.2329
  972MOL0     H34134   3.312   9.855   1.192  0.4616  0.3163 -2.1652
  972MOL0     H34135   3.167   9.913   1.284  0.2776 -0.7916 -0.6475
  972MOL0     H34136   3.220  10.003   1.151 -3.2832 -1.3075  1.0380
  973MOL0     O34137   5.735   9.596   4.777  0.6513 -0.3270  0.0983
  973MOL0     C34138   5.676   9.669   4.855  0.3704 -0.0722 -1.3047
  973MOL0     O34139   5.537   9.689   4.865  0.1337  0.8201 -0.7092
  973MOL0     C34140   5.464   9.675   4.751 -0.3825  0.5885 -0.8989
  973MOL0     C34141   5.426   9.779   4.663  0.4643 -0.6251 -0.3451
  973MOL0     C34142   5.364   9.748   4.536  0.1324 -1.5784 -0.3536
  973MOL0     C34143   5.337   9.611   4.509  0.2721 -0.3841 -0.0790
  973MOL0     O34144   5.265   9.565   4.404 -0.3747  1.1631  0.3809
  973MOL0     C34145   5.189   9.640   4.311 -0.0226 -0.1055 -0.6961
  973MOL0     C34146   5.143   9.549   4.198 -0.0439 -0.4949 -0.2242
  973MOL0     C34147   5.249   9.469   4.135 -0.4184  0.4825  1.2694
  973MOL0     C34148   5.217   9.430   3.988 -0.1775  0.0849 -0.2554
  973MOL0     C34149   5.322   9.334   3.924 -0.5271 -0.0928 -0.1281
  973MOL0     C34150   5.277   9.297   3.779 -0.1842  0.1395  0.2251
  973MOL0     C34151   5.155   9.190   3.770 -0.6629 -0.1359  0.8266
  973MOL0     C34152   5.123   9.157   3.621 -0.5007  0.0393  0.2460
  973MOL0     N34153   5.073   9.280   3.556 -0.5178  0.4571  0.5065
  973MOL0     C34154   4.947   9.320   3.551  0.3218  0.7442  0.3200
  973MOL0     C34155   4.940   9.417   3.452 -0.4081 -0.5996 -0.8731
  973MOL0     C34156   4.817   9.502   3.429 -0.5582  0.5125 -1.0241
  973MOL0     C34157   4.798   9.515   3.280  1.0458  0.0289 -0.2064
  973MOL0     C34158   4.690   9.614   3.246  0.7621  0.1004 -1.1528
  973MOL0     C34159   4.651   9.585   3.104 -1.3946 -0.4211  0.4542
  973MOL0     O34160   4.764   9.618   3.014 -0.3356 -1.0052  0.4725
  973MOL0     C34161   4.822   9.748   3.014 -0.1425  0.8885 -0.6285
  973MOL0     C34162   4.737   9.855   3.008 -0.7333  0.4134 -0.2284
  973MOL0     C34163   4.795   9.987   3.025 -0.3424 -0.0781 -0.4762
  973MOL0     C34164   4.704  10.111   3.021  0.0297  0.9169  0.0086
  973MOL0     C34165   4.936   9.997   3.044 -0.0977 -0.5103  0.1199
  973MOL0     C34166   5.017  10.125   3.055 -0.7290 -0.8617  0.6948
  973MOL0     O34167   5.135  10.142   2.976 -0.1520  0.5049 -0.5737
  973MOL0     C34168   5.197  10.266   2.990 -0.1945 -0.5034 -0.4756
  973MOL0     C34169   5.317  10.287   3.061  0.1319  0.3813  0.0973
  973MOL0     C34170   5.412  10.389   3.037  1.1684 -0.0867 -0.1061
  973MOL0     C34171   5.356  10.495   2.952  0.0223 -1.4993  0.1750
  973MOL0     O34172   5.430  10.607   2.912  0.3775  0.1871  0.5982
  973MOL0     C34173   5.574  10.603   2.949 -0.3793 -0.2121 -0.2326
  973MOL0     C34174   5.635  10.747   2.952  1.2907 -0.3101 -0.3120
  973MOL0     C34175   5.782  10.749   2.981  0.6598  0.0965  0.0564
  973MOL0     C34176   5.854  10.872   2.946 -0.2563  0.3039 -0.2234
  973MOL0     C34177   6.003  10.851   2.960 -0.5580 -0.6124 -0.3199
  973MOL0     C34178   6.060  10.943   2.850 -0.3846 -0.1161 -1.0260
  973MOL0     C34179   6.212  10.948   2.856 -0.2920 -0.7042 -0.5130
  973MOL0     C34180   6.255  11.029   2.743  0.1864  0.3804  0.4000
  973MOL0    Cl34181   6.427  11.054   2.752  0.1795  0.0916 -0.1673
  973MOL0     C34182   5.223  10.491   2.898 -0.3311 -0.8453 -0.2791
  973MOL0     C34183   5.151  10.377   2.912 -0.9070  0.5531  0.3909
  973MOL0     O34184   4.979  10.205   3.135  0.2066 -0.3117 -0.6458
  973MOL0     C34185   5.020   9.888   3.039 -0.6183  0.3476  0.0738
  973MOL0     C34186   4.958   9.764   3.022  0.0071 -0.4213  0.1979
  973MOL0     N34187   5.078   9.430   3.397  0.4849  0.0928 -0.6009
  973MOL0     N34188   5.136   9.336   3.450 -0.1825  1.1506  0.2222
  973MOL0     C34189   5.372   9.508   4.596 -1.0454  0.8277  0.4263
  973MOL0     C34190   5.433   9.538   4.719 -0.9445 -0.8504  0.7632
  973MOL0     C34191   5.762   9.734   4.962  0.7058 -0.6092  0.0942
  973MOL0     C34192   5.697   9.773   5.088 -0.0869  0.9826 -0.3172
  973MOL0     C34193   5.769   9.818   5.199  0.4237  0.7716 -0.1611
  973MOL0     C34194   5.910   9.829   5.173 -0.3550 -0.3660  1.3807
  973MOL0     O34195   5.996   9.863   5.272  0.7995  0.7758 -0.2455
  973MOL0     C34196   5.980   9.995   5.316 -1.7240  0.1185  0.5514
  973MOL0     C34197   6.115  10.027   5.377 -0.7076  0.5252  0.2442
  973MOL0     C34198   6.128  10.179   5.404  0.0373  0.4802  0.1372
  973MOL0     C34199   6.119  10.223   5.555  0.2640  0.5433  0.4280
  973MOL0     C34200   6.125  10.371   5.561  0.6907 -0.1003 -0.2702
  973MOL0     C34201   6.143  10.492   5.565 -0.7583 -0.1413 -0.5099
  973MOL0     C34202   5.967   9.792   5.053 -0.4025  0.3423  0.3414
  973MOL0     C34203   5.896   9.757   4.943  0.1996  0.0459  0.0047
  973MOL0     C34204   5.968   9.720   4.816  0.4014 -0.0971 -0.7836
  973MOL0     H34205   5.439   9.883   4.692 -1.4273 -0.7953  1.4235
  973MOL0     H34206   5.319   9.824   4.472  1.9376 -1.4420 -1.5428
  973MOL0     H34207   5.247   9.726   4.277  0.0287  1.0761  2.1674
  973MOL0     H34208   5.103   9.678   4.367  2.8906  2.0522  2.7624
  973MOL0     H34209   5.065   9.481   4.232  0.1696 -0.2764  0.7222
  973MOL0     H34210   5.111   9.618   4.119  2.0684  0.2198 -0.5223
  973MOL0     H34211   5.341   9.528   4.142 -2.3753  4.0371 -0.0581
  973MOL0     H34212   5.252   9.376   4.192 -1.3982 -0.2665  0.1298
  973MOL0     H34213   5.114   9.393   3.994 -0.1589  0.2445  1.2800
  973MOL0     H34214   5.215   9.518   3.923 -2.6388 -0.0149 -0.4031
  973MOL0     H34215   5.348   9.253   3.993  2.1444  1.6711  1.1169
  973MOL0     H34216   5.414   9.392   3.911 -1.6235  1.8711  0.5367
  973MOL0     H34217   5.261   9.390   3.723  1.5828  0.2655 -0.1223
  973MOL0     H34218   5.367   9.256   3.734  0.4756  2.1997 -0.4478
  973MOL0     H34219   5.062   9.226   3.815 -0.9939 -1.0524  0.8987
  973MOL0     H34220   5.183   9.100   3.824 -1.2054 -0.0287  1.2931
  973MOL0     H34221   5.214   9.124   3.571 -0.2082  1.0218  0.1220
  973MOL0     H34222   5.044   9.081   3.616  1.3299 -1.9930  0.7027
  973MOL0     H34223   4.873   9.282   3.619 -1.0876  1.7409 -0.6005
  973MOL0     H34224   4.831   9.602   3.471  2.1658 -1.2993  3.0014
  973MOL0     H34225   4.739   9.456   3.491  1.1596 -0.2115  0.7123
  973MOL0     H34226   4.895   9.551   3.243  1.3792 -0.6370 -0.0086
  973MOL0     H34227   4.767   9.419   3.237  0.6544  0.5065 -1.0123
  973MOL0     H34228   4.608   9.599   3.316  0.5757  2.1153 -0.8763
  973MOL0     H34229   4.734   9.712   3.265  1.0746 -0.5839  2.2732
  973MOL0     H34230   4.628   9.478   3.094  1.7794 -0.9795 -3.5175
  973MOL0     H34231   4.568   9.648   3.069  0.5251  1.9018 -0.1871
  973MOL0     H34232   4.633   9.831   2.990 -0.5154 -0.5269 -0.3215
  973MOL0     H34233   4.765  10.201   3.009  1.0817  0.4311  1.4029
  973MOL0     H34234   4.659  10.125   3.120  1.3349 -1.8052  1.1291
  973MOL0     H34235   4.628  10.088   2.946  1.7860 -0.8587 -1.3301
  973MOL0     H34236   5.354  10.202   3.118  0.5634  0.6641  0.2474
  973MOL0     H34237   5.510  10.379   3.082  1.4517  1.5465 -0.2826
  973MOL0     H34238   5.581  10.560   3.049 -3.1590  1.1386  0.6563
  973MOL0     H34239   5.624  10.538   2.876 -0.1156  0.9430 -1.1173
  973MOL0     H34240   5.611  10.805   2.862  0.9823  0.2816  0.1416
  973MOL0     H34241   5.596  10.809   3.033  1.7442 -2.1196  1.3634
  973MOL0     H34242   5.827  10.668   2.925  3.2564  0.4799  1.4540
  973MOL0     H34243   5.795  10.723   3.087  1.8231 -2.0462 -0.5707
  973MOL0     H34244   5.825  10.959   3.006 -2.8081  0.1022 -1.0262
  973MOL0     H34245   5.830  10.903   2.844 -1.3902  2.5766  0.6385
  973MOL0     H34246   6.038  10.883   3.059 -2.0924  1.8843 -0.4850
  973MOL0     H34247   6.039  10.751   2.936  0.0705 -1.1009  2.4127
  973MOL0     H34248   6.025  11.047   2.851 -1.0547 -0.2998 -2.4028
  973MOL0     H34249   6.025  10.898   2.756 -2.0225 -1.8599  0.3439
  973MOL0     H34250   6.243  10.844   2.841 -1.3669 -1.2815  1.0844
  973MOL0     H34251   6.256  10.987   2.948  0.3198 -3.2389  0.3267
  973MOL0     H34252   6.207  11.127   2.733 -1.0867 -0.4781 -3.9965
  973MOL0     H34253   6.228  10.986   2.646 -1.8231  1.9827  0.1910
  973MOL0     H34254   5.190  10.583   2.852 -0.0870 -0.2596  0.6736
  973MOL0     H34255   5.048  10.373   2.877 -1.3018 -1.4155  1.6128
  973MOL0     H34256   5.126   9.891   3.063  0.0061  0.5632 -2.4384
  973MOL0     H34257   5.021   9.676   3.015 -0.4756 -0.6659 -1.5915
  973MOL0     H34258   5.355   9.404   4.571 -2.4475  0.9993  0.6315
  973MOL0     H34259   5.467   9.459   4.786  4.5110 -1.1250 -1.7723
  973MOL0     H34260   5.599   9.734   5.114 -0.4757  0.6571 -2.1549
  973MOL0     H34261   5.736   9.835   5.301 -0.1323 -0.9906 -0.0062
  973MOL0     H34262   5.970  10.068   5.235  0.4729 -0.0498  0.0815
  973MOL0     H34263   5.887  10.008   5.373 -2.7248 -1.5654 -0.6014
  973MOL0     H34264   6.191   9.991   5.307  0.6435  1.7849  1.0128
  973MOL0     H34265   6.124   9.963   5.465  0.0742  0.2293 -0.0452
  973MOL0     H34266   6.220  10.208   5.352 -1.4990  0.6954 -2.6286
  973MOL0     H34267   6.045  10.226   5.350  0.7258  1.6484  0.0717
  973MOL0     H34268   6.209  10.191   5.607  1.1023  0.1860 -1.1944
  973MOL0     H34269   6.031  10.185   5.608  1.5663 -1.9147  0.9408
  973MOL0     H34270   6.165  10.597   5.571  1.5817 -0.4830 -1.5474
  973MOL0     H34271   6.073   9.814   5.047 -0.6395  1.1926 -2.3074
  973MOL0     H34272   5.976   9.614   4.791  4.7739 -0.0945 -0.2059
  973MOL0     H34273   5.913   9.783   4.745 -2.1338  0.1093  1.2371
  973MOL0     H34274   6.071   9.758   4.809  1.0555 -1.5841  0.1223
  974MOL0     O34275   3.483   8.419   3.822  0.3262  0.5912  0.0666
  974MOL0     C34276   3.542   8.464   3.920 -0.6818 -0.8663  0.7100
  974MOL0     O34277   3.665   8.417   3.959 -0.1397 -0.4257  0.3605
  974MOL0     C34278   3.732   8.322   3.884  0.5378 -0.3595  0.5926
  974MOL0     C34279   3.868   8.345   3.859  0.2589  0.6096  0.4340
  974MOL0     C34280   3.929   8.255   3.767 -0.2182 -0.8956 -0.2063
  974MOL0     C34281   3.879   8.134   3.725 -0.4673 -0.1875  0.4499
  974MOL0     O34282   3.957   8.051   3.637  0.0914 -0.4393 -0.2285
  974MOL0     C34283   4.062   8.106   3.564  0.3386  0.6390 -0.4544
  974MOL0     C34284   4.124   7.999   3.466  1.3038 -0.4673 -0.2787
  974MOL0     C34285   4.241   8.060   3.395 -0.7665 -1.5331  0.4021
  974MOL0     C34286   4.309   7.961   3.298 -0.3234 -0.5905 -0.3709
  974MOL0     C34287   4.255   7.934   3.162 -0.4765 -0.2024 -0.7942
  974MOL0     C34288   4.201   8.049   3.081 -0.2377  0.0244 -0.3387
  974MOL0     C34289   4.327   8.116   3.019  0.9767  0.2640  0.3453
  974MOL0     C34290   4.311   8.172   2.883 -0.2427 -0.3250  0.2976
  974MOL0     N34291   4.197   8.272   2.885 -1.1214 -0.1991 -0.0944
  974MOL0     C34292   4.055   8.251   2.866 -0.1787 -0.3213 -0.2719
  974MOL0     C34293   4.002   8.378   2.858  0.3453  0.0578  0.9392
  974MOL0     C34294   3.857   8.405   2.831  0.5396 -0.3141 -0.0202
  974MOL0     C34295   3.832   8.399   2.679  0.0612 -0.4483  0.7859
  974MOL0     C34296   3.689   8.438   2.641 -0.6220  0.9795  1.2607
  974MOL0     C34297   3.566   8.382   2.708  0.2896  0.3649 -0.8564
  974MOL0     O34298   3.533   8.255   2.653 -0.5078 -1.1206 -0.3928
  974MOL0     C34299   3.605   8.148   2.696 -0.5920  0.2174  0.3733
  974MOL0     C34300   3.588   8.111   2.828  0.0138 -0.6318  0.9436
  974MOL0     C34301   3.663   8.006   2.879  0.1366  0.2358  0.3934
  974MOL0     C34302   3.651   7.966   3.024 -0.8457  0.2802 -0.2602
  974MOL0     C34303   3.761   7.940   2.794 -0.1412 -0.4899 -0.0358
  974MOL0     C34304   3.857   7.828   2.832 -0.2084 -0.4045  0.4175
  974MOL0     O34305   3.963   7.798   2.757  0.5050  0.5323  0.0737
  974MOL0     C34306   4.041   7.685   2.788 -0.2498 -0.1193  0.6721
  974MOL0     C34307   4.004   7.559   2.730  0.6848 -0.6500 -0.0988
  974MOL0     C34308   4.087   7.449   2.740  0.1300  0.1601 -0.4126
  974MOL0     C34309   4.218   7.459   2.789  0.1988 -0.0048  0.2748
  974MOL0     O34310   4.300   7.350   2.760 -0.3793 -0.1946  0.3531
  974MOL0     C34311   4.413   7.327   2.847  1.0821  1.4512  0.2100
  974MOL0     C34312   4.369   7.275   2.983 -0.8721 -0.0749 -0.3698
  974MOL0     C34313   4.338   7.124   2.994 -0.3794 -0.7122  0.6744
  974MOL0     C34314   4.303   7.097   3.143  0.4549 -0.2692  0.1899
  974MOL0     C34315   4.237   6.963   3.164 -0.3379 -0.3102  0.5217
  974MOL0     C34316   4.307   6.838   3.115 -0.5885  1.1256  1.0734
  974MOL0     C34317   4.286   6.706   3.198 -0.5599  0.2188  0.3772
  974MOL0     C34318   4.137   6.667   3.210  0.2843  0.2667 -0.9691
  974MOL0    Cl34319   4.073   6.568   3.079  0.0371  0.2668 -0.0321
  974MOL0     C34320   4.259   7.582   2.850  0.1912  0.1023  0.8107
  974MOL0     C34321   4.166   7.691   2.850  0.9187 -0.2326  0.0053
  974MOL0     O34322   3.831   7.763   2.928 -0.2870 -0.1081 -0.0162
  974MOL0     C34323   3.765   7.982   2.658  0.1705 -0.0770 -0.1247
  974MOL0     C34324   3.694   8.085   2.604  0.5158  0.4012 -0.5576
  974MOL0     N34325   4.105   8.469   2.869 -0.4078  0.1020 -0.1268
  974MOL0     N34326   4.219   8.405   2.898  0.8980  0.6796  0.5364
  974MOL0     C34327   3.751   8.101   3.771 -0.2486 -0.6312  0.6737
  974MOL0     C34328   3.677   8.196   3.846 -0.8691 -0.2467 -0.0212
  974MOL0     C34329   3.489   8.578   3.995  0.0396 -0.6497 -0.7023
  974MOL0     C34330   3.567   8.635   4.099 -1.4113  0.0687 -0.0596
  974MOL0     C34331   3.521   8.740   4.180  0.2437 -0.6493 -0.6777
  974MOL0     C34332   3.394   8.794   4.161  0.1882 -0.8653  0.2908
  974MOL0     O34333   3.347   8.904   4.233  0.1723  0.0707 -0.0380
  974MOL0     C34334   3.440   8.955   4.335 -1.0260 -1.0552 -0.0008
  974MOL0     C34335   3.364   9.076   4.399 -0.3502  0.1762 -0.8517
  974MOL0     C34336   3.308   9.174   4.299  0.2617 -0.0960  0.4019
  974MOL0     C34337   3.256   9.303   4.378  0.2414 -0.8316  0.1480
  974MOL0     C34338   3.178   9.390   4.287  0.0765 -1.1431  0.7697
  974MOL0     C34339   3.118   9.473   4.218 -0.0822  0.2244  0.3157
  974MOL0     C34340   3.323   8.749   4.048  0.0612  0.5359  0.0411
  974MOL0     C34341   3.366   8.642   3.963  0.0416 -0.3106 -0.7714
  974MOL0     C34342   3.289   8.619   3.831  0.8062  0.9737  0.0095
  974MOL0     H34343   3.922   8.432   3.893 -1.3123  2.2706 -1.1115
  974MOL0     H34344   4.028   8.287   3.737 -0.8626  1.7746  0.1732
  974MOL0     H34345   4.141   8.135   3.634 -0.9658  0.5767  1.0704
  974MOL0     H34346   4.028   8.195   3.510  0.7517  0.7445 -0.5453
  974MOL0     H34347   4.137   7.908   3.525 -0.3803 -0.9777 -0.6442
  974MOL0     H34348   4.048   7.978   3.390 -0.1071 -3.0464  1.7036
  974MOL0     H34349   4.212   8.159   3.357  0.5929 -0.3569  2.2357
  974MOL0     H34350   4.316   8.087   3.470 -0.4211  0.3004 -0.5357
  974MOL0     H34351   4.407   8.004   3.279  1.3568 -2.9705  2.1861
  974MOL0     H34352   4.326   7.863   3.343  0.9481  0.0056  0.5026
  974MOL0     H34353   4.168   7.868   3.167  0.8678 -2.0593 -0.8882
  974MOL0     H34354   4.331   7.874   3.112  0.8069 -1.1197  2.0644
  974MOL0     H34355   4.136   8.015   3.000 -0.5825 -0.7922  0.2725
  974MOL0     H34356   4.144   8.119   3.144  0.4451 -0.5262  0.9258
  974MOL0     H34357   4.406   8.041   3.018  2.0405  1.3067  2.1124
  974MOL0     H34358   4.375   8.191   3.083  1.7821 -0.3642  0.4893
  974MOL0     H34359   4.404   8.218   2.848 -1.8164  2.5321 -0.4123
  974MOL0     H34360   4.284   8.094   2.811 -0.5391  1.4867 -1.6626
  974MOL0     H34361   3.998   8.159   2.858  2.4340 -1.9881 -0.8762
  974MOL0     H34362   3.822   8.500   2.874 -1.1417 -0.3428 -1.2384
  974MOL0     H34363   3.802   8.328   2.886  1.3204 -1.9154 -1.4156
  974MOL0     H34364   3.911   8.461   2.634  0.8052 -0.2037  2.3671
  974MOL0     H34365   3.837   8.294   2.648 -0.3353 -0.7838  1.8104
  974MOL0     H34366   3.686   8.547   2.641 -0.1911  1.0817 -1.9131
  974MOL0     H34367   3.676   8.426   2.533 -2.5440 -1.0382  1.6366
  974MOL0     H34368   3.586   8.386   2.816 -2.4938  1.6678 -0.3155
  974MOL0     H34369   3.486   8.450   2.678 -0.0227  0.2874 -0.2157
  974MOL0     H34370   3.525   8.171   2.893 -0.5818 -1.3178  1.0131
  974MOL0     H34371   3.733   7.992   3.091 -0.6357  1.0989 -0.8156
  974MOL0     H34372   3.652   7.856   3.029  1.7105  0.2050 -0.9585
  974MOL0     H34373   3.558   8.006   3.066  0.0561 -0.0389  2.1605
  974MOL0     H34374   3.906   7.565   2.684 -0.5789  0.7674  2.4793
  974MOL0     H34375   4.054   7.355   2.698 -1.2060  1.2786 -1.9682
  974MOL0     H34376   4.470   7.249   2.796  1.0187  0.1101  2.0897
  974MOL0     H34377   4.475   7.416   2.861  1.9015  1.6169 -3.3535
  974MOL0     H34378   4.462   7.294   3.038  0.0466 -0.2461 -1.8197
  974MOL0     H34379   4.286   7.334   3.023 -0.7562 -0.5543  0.6260
  974MOL0     H34380   4.425   7.063   2.966  0.5477 -1.9675  5.4447
  974MOL0     H34381   4.260   7.098   2.921 -2.8427  2.2059  2.0506
  974MOL0     H34382   4.224   7.172   3.154 -1.1298 -1.7710 -0.5260
  974MOL0     H34383   4.385   7.116   3.213 -0.3545 -1.4977  1.4954
  974MOL0     H34384   4.198   6.952   3.266 -2.0576  0.8434  0.0414
  974MOL0     H34385   4.153   6.985   3.097  1.8052 -0.8051 -2.5503
  974MOL0     H34386   4.415   6.855   3.117 -0.8720  3.3064  3.3638
  974MOL0     H34387   4.284   6.823   3.009  2.5174 -0.3742  0.5031
  974MOL0     H34388   4.332   6.707   3.298  0.9835 -1.8470 -0.2337
  974MOL0     H34389   4.329   6.621   3.144  1.9239  1.4272  0.2939
  974MOL0     H34390   4.081   6.760   3.224 -2.1159 -1.1719 -0.3466
  974MOL0     H34391   4.120   6.619   3.307  0.7659  0.8587 -0.5829
  974MOL0     H34392   4.354   7.599   2.900 -0.0890  2.1518  0.7214
  974MOL0     H34393   4.192   7.786   2.895  0.4721  1.2230 -2.6061
  974MOL0     H34394   3.824   7.926   2.586 -0.1380  1.1508 -1.3661
  974MOL0     H34395   3.691   8.112   2.499 -2.3014  1.2563 -0.3385
  974MOL0     H34396   3.710   8.001   3.766 -1.0591 -0.3341  1.2267
  974MOL0     H34397   3.586   8.153   3.887 -2.6558  1.7688 -1.6738
  974MOL0     H34398   3.666   8.593   4.114 -1.9951 -0.6584  2.0253
  974MOL0     H34399   3.590   8.764   4.260  2.1548 -2.5113 -1.6713
  974MOL0     H34400   3.469   8.881   4.410 -0.1615  1.0796  1.8689
  974MOL0     H34401   3.536   8.990   4.297 -1.3239  0.2941  0.4463
  974MOL0     H34402   3.420   9.122   4.480 -0.3018 -2.1688  0.5380
  974MOL0     H34403   3.277   9.029   4.445 -0.1085 -1.4846 -1.9665
  974MOL0     H34404   3.379   9.212   4.226 -2.0054  3.9080 -0.0157
  974MOL0     H34405   3.235   9.126   4.233 -0.6050 -0.1026  1.3307
  974MOL0     H34406   3.338   9.360   4.423 -0.8771  3.0231 -2.1631
  974MOL0     H34407   3.188   9.278   4.460  0.1356 -1.0556 -0.0080
  974MOL0     H34408   3.061   9.550   4.169 -1.2088  1.7760  3.7597
  974MOL0     H34409   3.232   8.798   4.017  0.0398 -0.3029 -1.2767
  974MOL0     H34410   3.250   8.517   3.832 -1.3635  1.7489  0.3263
  974MOL0     H34411   3.204   8.688   3.824 -0.7315 -0.5530  2.2334
  974MOL0     H34412   3.355   8.636   3.745 -1.4739  1.0898 -1.8014
  975MOL0     O34413   0.350   9.095   8.626 -0.4045  0.2087 -0.6409
  975MOL0     C34414   0.378   9.030   8.530  0.2806 -0.5471 -0.1451
  975MOL0     O34415   0.375   8.889   8.527 -0.6995  0.2389 -0.0751
  975MOL0     C34416   0.301   8.821   8.617  0.1618 -0.5962  0.8811
  975MOL0     C34417   0.354   8.700   8.661  0.9532 -0.2754  0.2497
  975MOL0     C34418   0.302   8.631   8.766 -0.0253  0.5677 -0.1665
  975MOL0     C34419   0.184   8.671   8.823 -0.3362  0.3464  0.9060
  975MOL0     O34420   0.123   8.602   8.927 -0.3614  0.2056 -0.0869
  975MOL0     C34421   0.023   8.666   9.008 -0.5301 -0.4762  0.6926
  975MOL0     C34422   0.013   8.585   9.139  0.0927  0.4128 -0.2534
  975MOL0     C34423   0.141   8.579   9.220  0.2675  0.2722  0.1135
  975MOL0     C34424   0.123   8.527   9.359  0.2852  0.0023  0.3917
  975MOL0     C34425   0.261   8.500   9.425  0.5209  0.4758  0.4796
  975MOL0     C34426   0.352   8.627   9.438  0.0927  0.5606  0.4872
  975MOL0     C34427   0.486   8.596   9.507 -0.0887  0.0429  0.3508
  975MOL0     C34428   0.583   8.709   9.528  0.5221 -0.0154 -0.1369
  975MOL0     N34429   0.517   8.834   9.567  0.6258 -0.0319 -0.0502
  975MOL0     C34430   0.449   8.849   9.684  0.6286  0.8200  0.1686
  975MOL0     C34431   0.464   8.978   9.708 -0.7866  0.0504  0.2799
  975MOL0     C34432   0.387   9.054   9.818  0.1330 -0.0645  0.8401
  975MOL0     C34433   0.299   9.150   9.757 -0.2782 -0.7362  0.2801
  975MOL0     C34434   0.179   9.100   9.700 -0.0241 -0.2471  0.5918
  975MOL0     C34435   0.069   9.207   9.679 -0.3727  0.1762 -0.6359
  975MOL0     O34436   0.026   9.242   9.812 -0.3267  0.3530  0.5169
  975MOL0     C34437  -0.078   9.336   9.811 -0.0190 -0.0261  1.0276
  975MOL0     C34438  -0.187   9.333   9.900 -0.5322  0.1616 -0.2180
  975MOL0     C34439  -0.295   9.426   9.901  0.2948  0.2437 -0.1367
  975MOL0     C34440  -0.400   9.402  10.006 -1.1464  0.8617 -0.0335
  975MOL0     C34441  -0.298   9.523   9.795 -0.3137 -0.4672  0.2614
  975MOL0     C34442  -0.407   9.614   9.776 -0.5065  0.8546  0.1869
  975MOL0     O34443  -0.374   9.736   9.727 -0.2242  0.0085  0.0340
  975MOL0     C34444  -0.456   9.837   9.778 -0.3741 -0.7864  0.3215
  975MOL0     C34445  -0.572   9.889   9.706 -0.1913 -0.0851 -0.7610
  975MOL0     C34446  -0.661   9.972   9.772  0.1734 -0.9343 -0.3410
  975MOL0     C34447  -0.651  10.013   9.901 -0.0165 -0.2673 -0.2317
  975MOL0     O34448  -0.743  10.081   9.972 -0.2864  0.1627 -0.0230
  975MOL0     C34449  -0.752  10.219   9.933  0.0438 -0.1195  0.1575
  975MOL0     C34450  -0.763  10.322  10.046 -0.5019  0.2666  0.3226
  975MOL0     C34451  -0.762  10.468   9.992 -0.6411 -0.0633 -0.4543
  975MOL0     C34452  -0.752  10.565  10.108 -0.9526  0.2076  0.1752
  975MOL0     C34453  -0.619  10.551  10.197  0.8008 -0.3678 -0.0135
  975MOL0     C34454  -0.612  10.653  10.317  0.6315 -1.0665 -0.5824
  975MOL0     C34455  -0.495  10.623  10.406  0.1887 -0.0386  0.8978
  975MOL0     C34456  -0.455  10.747  10.474  0.6569 -0.4022  0.8085
  975MOL0    Cl34457  -0.301  10.744  10.585  0.1734 -0.0182 -0.1299
  975MOL0     C34458  -0.542   9.962   9.965  0.7147  0.5236 -0.9568
  975MOL0     C34459  -0.451   9.863   9.919 -0.3743 -0.0095  1.1229
  975MOL0     O34460  -0.513   9.579   9.824  0.3113 -0.1526  0.6173
  975MOL0     C34461  -0.184   9.530   9.707  0.3087 -1.1508  0.6373
  975MOL0     C34462  -0.079   9.442   9.715 -0.3387  0.7085  0.0913
  975MOL0     N34463   0.537   9.041   9.610  0.5683  0.2143  0.7750
  975MOL0     N34464   0.565   8.951   9.516  0.0040  0.3899  0.4007
  975MOL0     C34465   0.120   8.785   8.765  0.4646  0.1533 -0.6451
  975MOL0     C34466   0.175   8.863   8.668  0.2749  0.3794  0.8196
  975MOL0     C34467   0.431   9.114   8.410 -0.5274  0.0332  0.1686
  975MOL0     C34468   0.440   9.248   8.427  0.1392  1.4472 -0.5150
  975MOL0     C34469   0.468   9.332   8.321 -0.5228  0.6649 -0.0422
  975MOL0     C34470   0.506   9.275   8.199 -1.1633  0.3479 -0.3036
  975MOL0     O34471   0.552   9.339   8.091 -1.0992  0.3853 -0.5319
  975MOL0     C34472   0.529   9.484   8.098 -1.2174 -0.3442  0.0539
  975MOL0     C34473   0.587   9.563   7.975 -0.1883  0.9385  0.5579
  975MOL0     C34474   0.743   9.551   7.970 -0.3152  0.3393 -0.6756
  975MOL0     C34475   0.814   9.572   8.110 -0.2315 -0.1884  0.6842
  975MOL0     C34476   0.781   9.682   8.199  0.2759  0.5833  0.2993
  975MOL0     C34477   0.751   9.778   8.271 -0.6391 -0.4979  0.6570
  975MOL0     C34478   0.506   9.134   8.185  0.0154 -0.7618 -0.3405
  975MOL0     C34479   0.465   9.054   8.288  0.2628  0.4725  0.0761
  975MOL0     C34480   0.461   8.906   8.253 -0.6364  1.0497 -0.9518
  975MOL0     H34481   0.451   8.682   8.617  2.8385  1.3467  3.3818
  975MOL0     H34482   0.351   8.542   8.805 -1.7802  0.3167  1.5683
  975MOL0     H34483  -0.076   8.671   8.963 -0.1116 -2.7199 -0.6085
  975MOL0     H34484   0.045   8.770   9.031 -0.6139 -0.6323  1.5031
  975MOL0     H34485  -0.068   8.631   9.197  0.6516  1.1094 -0.0128
  975MOL0     H34486  -0.009   8.479   9.128  0.3372  0.4063 -0.7239
  975MOL0     H34487   0.223   8.528   9.169  1.6652  3.8912 -1.6385
  975MOL0     H34488   0.183   8.680   9.228 -1.7309  1.0082  2.9400
  975MOL0     H34489   0.068   8.605   9.414  0.5321  2.4100 -2.5314
  975MOL0     H34490   0.060   8.438   9.354  0.4769 -0.0863 -0.4965
  975MOL0     H34491   0.327   8.427   9.377  2.2063 -1.8916  5.6663
  975MOL0     H34492   0.234   8.464   9.525 -2.6757  1.4249  0.0871
  975MOL0     H34493   0.377   8.681   9.346  0.0044  0.8189  0.6141
  975MOL0     H34494   0.305   8.700   9.505 -2.4630  1.0618 -1.6665
  975MOL0     H34495   0.538   8.510   9.463 -1.0778 -0.1648 -0.4406
  975MOL0     H34496   0.461   8.567   9.610  3.5589 -2.0355  0.8529
  975MOL0     H34497   0.663   8.676   9.596  2.8266  0.7020 -2.3491
  975MOL0     H34498   0.644   8.733   9.440  3.0037  1.2445  1.7870
  975MOL0     H34499   0.403   8.774   9.748  1.1950  1.2926  1.1573
  975MOL0     H34500   0.446   9.110   9.891 -1.8000  1.5660  1.2547
  975MOL0     H34501   0.324   8.982   9.870 -0.2252 -0.8032 -0.5548
  975MOL0     H34502   0.276   9.227   9.831  1.3235  0.5491 -0.4776
  975MOL0     H34503   0.354   9.212   9.685 -2.3824  1.1444  0.1860
  975MOL0     H34504   0.198   9.038   9.612  2.0282 -3.2544  2.9138
  975MOL0     H34505   0.135   9.025   9.766  1.2851 -1.9263 -0.3670
  975MOL0     H34506   0.116   9.279   9.612 -0.1679  0.8773  0.2478
  975MOL0     H34507  -0.022   9.168   9.632 -0.5808 -1.0168  0.6630
  975MOL0     H34508  -0.183   9.250   9.970 -0.3210 -0.3373 -0.8134
  975MOL0     H34509  -0.356   9.343  10.087 -2.8338  0.6757  0.7950
  975MOL0     H34510  -0.490   9.348   9.976 -1.6319  1.8495 -0.4121
  975MOL0     H34511  -0.431   9.496  10.053  3.6935  1.0595  3.6331
  975MOL0     H34512  -0.585   9.854   9.604  1.7326 -1.6887 -0.5139
  975MOL0     H34513  -0.754   9.995   9.723 -0.3884 -0.7970  0.7665
  975MOL0     H34514  -0.679  10.254   9.859  1.1901  0.1660  1.3934
  975MOL0     H34515  -0.855  10.231   9.898 -0.2888 -1.1188  0.7654
  975MOL0     H34516  -0.853  10.305  10.106 -0.5185  2.9292  1.1993
  975MOL0     H34517  -0.672  10.300  10.102  0.6254 -1.6465 -2.0654
  975MOL0     H34518  -0.854  10.479   9.934  1.5357  0.1382 -4.1711
  975MOL0     H34519  -0.680  10.484   9.922  0.3757 -0.7241  0.5573
  975MOL0     H34520  -0.841  10.558  10.171 -1.4372  0.0758 -0.5100
  975MOL0     H34521  -0.763  10.668  10.072  1.0209  0.8714  1.2629
  975MOL0     H34522  -0.623  10.453  10.244 -3.3869  0.0427  0.8715
  975MOL0     H34523  -0.534  10.557  10.128 -1.5710  0.0811 -3.0947
  975MOL0     H34524  -0.703  10.655  10.378  1.1876  1.6278  0.3153
  975MOL0     H34525  -0.610  10.756  10.278  0.2022 -2.0316 -3.3911
  975MOL0     H34526  -0.418  10.583  10.339 -0.7381 -2.1828  1.0453
  975MOL0     H34527  -0.515  10.546  10.480  0.4501  1.5528  2.7111
  975MOL0     H34528  -0.543  10.770  10.536  0.6163  0.1199  0.5605
  975MOL0     H34529  -0.436  10.828  10.403 -2.8717  0.5103  0.6744
  975MOL0     H34530  -0.533   9.981  10.072  1.0015  1.9500 -1.2154
  975MOL0     H34531  -0.374   9.809   9.974  1.0969 -1.7173 -2.3310
  975MOL0     H34532  -0.186   9.614   9.638 -0.2871  0.0570  2.0798
  975MOL0     H34533   0.008   9.463   9.655  1.7133  1.0913  3.0142
  975MOL0     H34534   0.027   8.820   8.809  0.9084  1.0038 -0.3547
  975MOL0     H34535   0.136   8.959   8.635  1.7001  1.3482  1.8171
  975MOL0     H34536   0.411   9.294   8.521  0.7487  0.4499  0.1673
  975MOL0     H34537   0.481   9.438   8.343 -2.0535  1.0127 -0.6499
  975MOL0     H34538   0.422   9.507   8.102 -0.9861  0.5864  2.5055
  975MOL0     H34539   0.567   9.529   8.190  0.4298 -0.1525 -0.6705
  975MOL0     H34540   0.560   9.669   7.972  1.4838  1.3863  0.7803
  975MOL0     H34541   0.549   9.513   7.885 -1.8295 -0.6966  2.0574
  975MOL0     H34542   0.766   9.452   7.929 -1.2028  0.0790 -0.5764
  975MOL0     H34543   0.775   9.624   7.895 -0.3637  1.2527  0.1761
  975MOL0     H34544   0.917   9.590   8.080 -0.2088 -0.7166  0.4260
  975MOL0     H34545   0.819   9.483   8.173  0.5443 -0.4461  0.2711
  975MOL0     H34546   0.738   9.855   8.345  0.8366  0.4381 -0.0098
  975MOL0     H34547   0.535   9.095   8.088  0.9896 -2.2835  0.5242
  975MOL0     H34548   0.365   8.882   8.207  0.6024 -0.8508 -2.7693
  975MOL0     H34549   0.542   8.875   8.185  1.1912 -0.2709  1.6465
  975MOL0     H34550   0.486   8.840   8.337 -0.9350  1.6986 -0.3485
  976MOL0     O34551   5.024   1.814   2.371 -0.5753  0.0778 -0.5501
  976MOL0     C34552   5.032   1.859   2.484  0.4607 -0.4831  0.7309
  976MOL0     O34553   5.138   1.947   2.529  0.2743  0.1298  0.2448
  976MOL0     C34554   5.215   2.009   2.426  0.1669 -0.4872 -0.8580
  976MOL0     C34555   5.163   2.079   2.316 -0.5156  0.4556  0.6817
  976MOL0     C34556   5.248   2.152   2.237 -0.5359  0.3301 -0.1445
  976MOL0     C34557   5.384   2.162   2.255 -0.5797 -0.5182 -0.1061
  976MOL0     O34558   5.478   2.222   2.170  0.3854 -0.0317  0.0268
  976MOL0     C34559   5.440   2.365   2.138 -0.7489  0.3887  0.0385
  976MOL0     C34560   5.565   2.445   2.085  0.4260  0.7598  0.1572
  976MOL0     C34561   5.631   2.382   1.956  0.3464  0.3339 -0.0997
  976MOL0     C34562   5.539   2.392   1.829 -0.1694 -0.1518 -0.1144
  976MOL0     C34563   5.612   2.321   1.717 -0.5965  0.0454  0.4675
  976MOL0     C34564   5.548   2.362   1.586 -0.7131 -0.3451 -0.6031
  976MOL0     C34565   5.579   2.267   1.476  0.2292  1.3395  0.4876
  976MOL0     C34566   5.499   2.298   1.346 -0.0210  0.5655  0.6606
  976MOL0     N34567   5.547   2.410   1.261  0.0979 -0.4910  0.5392
  976MOL0     C34568   5.678   2.426   1.223 -0.2433 -0.2669  1.2511
  976MOL0     C34569   5.690   2.548   1.171 -0.2632  0.2748  0.5381
  976MOL0     C34570   5.828   2.604   1.134  1.1531 -0.1648  0.1097
  976MOL0     C34571   5.874   2.731   1.201 -0.2898 -0.6769 -0.5465
  976MOL0     C34572   6.022   2.753   1.151  0.1770  1.3814 -0.0813
  976MOL0     C34573   6.091   2.874   1.217 -0.4223 -0.2861 -0.3620
  976MOL0     O34574   6.116   2.978   1.119  0.3746 -0.4171 -0.0611
  976MOL0     C34575   6.200   3.088   1.149  0.5063 -0.5562  0.8461
  976MOL0     C34576   6.202   3.148   1.275 -0.1239  0.6288 -0.4207
  976MOL0     C34577   6.276   3.267   1.293 -0.6589 -0.6301  0.2448
  976MOL0     C34578   6.297   3.330   1.428 -0.0533  0.4272  0.5166
  976MOL0     C34579   6.327   3.335   1.178  0.1603 -0.2162  0.1682
  976MOL0     C34580   6.400   3.454   1.194  0.1684  0.5113  0.1680
  976MOL0     O34581   6.325   3.564   1.171 -0.6855  0.5149  0.7088
  976MOL0     C34582   6.387   3.688   1.168  0.8103 -1.3073 -0.9704
  976MOL0     C34583   6.316   3.789   1.230  0.4982  0.2653  0.3146
  976MOL0     C34584   6.370   3.911   1.241 -0.5904 -0.2849  0.2659
  976MOL0     C34585   6.493   3.939   1.191 -0.2674 -0.2389 -0.6696
  976MOL0     O34586   6.544   4.064   1.219  0.5270 -0.5985  0.5552
  976MOL0     C34587   6.665   4.107   1.151 -0.6733 -0.3561 -0.7728
  976MOL0     C34588   6.657   4.261   1.140  0.0773 -0.3391 -0.3192
  976MOL0     C34589   6.643   4.334   1.279  0.1151 -0.5811 -0.4223
  976MOL0     C34590   6.784   4.326   1.349  0.5154 -0.3375 -0.8349
  976MOL0     C34591   6.771   4.331   1.499  1.2247 -0.3631  1.0014
  976MOL0     C34592   6.900   4.369   1.571 -1.4321  0.1386  0.0176
  976MOL0     C34593   6.869   4.400   1.715 -1.2655  0.3892  0.6995
  976MOL0     C34594   6.999   4.394   1.793  0.7631  0.7602 -0.2141
  976MOL0    Cl34595   6.959   4.354   1.960 -0.6178 -0.0818  0.2273
  976MOL0     C34596   6.565   3.838   1.122  0.1508  0.1759 -0.2491
  976MOL0     C34597   6.506   3.714   1.110 -0.2849  0.2812 -0.2964
  976MOL0     O34598   6.518   3.446   1.229  0.0130  0.3951  0.2564
  976MOL0     C34599   6.322   3.268   1.050  0.3410 -0.5591 -0.3862
  976MOL0     C34600   6.251   3.147   1.042 -0.2249 -0.5650  0.6702
  976MOL0     N34601   5.574   2.613   1.191  0.3376  0.5730 -0.2771
  976MOL0     N34602   5.488   2.538   1.243  0.2562  0.6735  0.4587
  976MOL0     C34603   5.436   2.085   2.367 -0.3304  0.0908 -0.4899
  976MOL0     C34604   5.351   2.020   2.455  0.5957 -1.1386 -0.0595
  976MOL0     C34605   4.930   1.821   2.581  0.2886 -0.0757  0.0609
  976MOL0     C34606   4.961   1.838   2.715 -0.0727 -0.9104  0.0123
  976MOL0     C34607   4.862   1.815   2.811 -0.0999  0.1512 -0.2032
  976MOL0     C34608   4.730   1.771   2.776  0.8103  0.1668  0.9941
  976MOL0     O34609   4.616   1.748   2.854 -0.2620  0.7092 -0.3728
  976MOL0     C34610   4.638   1.672   2.977  0.1552  0.0825 -0.6818
  976MOL0     C34611   4.630   1.518   2.951  0.0157  0.5472  0.0894
  976MOL0     C34612   4.504   1.477   2.868 -0.1233 -0.4989  0.3015
  976MOL0     C34613   4.488   1.331   2.844  0.3756  0.0003 -0.0868
  976MOL0     C34614   4.388   1.299   2.745 -0.2602  0.7819 -0.1950
  976MOL0     C34615   4.290   1.274   2.675  0.7778  0.3751  0.1771
  976MOL0     C34616   4.711   1.745   2.644  0.8473 -0.2795 -0.1236
  976MOL0     C34617   4.808   1.764   2.542  0.0081 -0.0757 -0.4259
  976MOL0     C34618   4.752   1.736   2.400  0.4181  0.1534 -0.2131
  976MOL0     H34619   5.057   2.068   2.297 -0.1777 -0.1663 -0.9722
  976MOL0     H34620   5.214   2.196   2.144 -0.4303 -2.9147 -1.8833
  976MOL0     H34621   5.391   2.410   2.224  1.5087 -0.3672  1.8287
  976MOL0     H34622   5.359   2.363   2.064 -1.2428 -0.3510  0.5813
  976MOL0     H34623   5.516   2.537   2.049  1.6017  0.9165 -1.1164
  976MOL0     H34624   5.638   2.464   2.164  1.6717 -0.3439 -0.7076
  976MOL0     H34625   5.731   2.425   1.943 -0.1779  1.3572 -0.8515
  976MOL0     H34626   5.644   2.280   1.994  0.2095  2.1273  5.8595
  976MOL0     H34627   5.439   2.353   1.852  0.5139 -1.6627  0.3767
  976MOL0     H34628   5.538   2.501   1.817  3.4559  0.6758  4.2543
  976MOL0     H34629   5.598   2.212   1.722 -2.6503  0.1925 -0.9103
  976MOL0     H34630   5.715   2.358   1.715 -1.9762  4.3262 -0.3310
  976MOL0     H34631   5.440   2.358   1.603 -0.6643  1.8466  0.7027
  976MOL0     H34632   5.572   2.467   1.565  3.3323 -0.4449  2.2588
  976MOL0     H34633   5.546   2.167   1.508  0.7545  2.1450  4.0446
  976MOL0     H34634   5.682   2.257   1.442 -1.4023 -2.2389 -4.6546
  976MOL0     H34635   5.500   2.209   1.281  0.0772  1.9321 -1.2873
  976MOL0     H34636   5.394   2.302   1.375 -0.1706 -1.8049  0.6620
  976MOL0     H34637   5.741   2.339   1.234 -3.1566 -2.7771 -0.3161
  976MOL0     H34638   5.821   2.625   1.027  0.8160 -1.1063 -0.0683
  976MOL0     H34639   5.902   2.525   1.152 -0.8182 -2.3123 -0.6611
  976MOL0     H34640   5.810   2.819   1.189 -1.9828 -1.7049  0.6112
  976MOL0     H34641   5.879   2.717   1.309  0.7719  1.8169 -0.2072
  976MOL0     H34642   6.082   2.663   1.166 -0.1387  1.3310  0.9556
  976MOL0     H34643   6.010   2.771   1.044 -1.8579  1.8467  0.1867
  976MOL0     H34644   6.031   2.923   1.294 -0.0780  0.8749 -0.8184
  976MOL0     H34645   6.192   2.852   1.255 -0.6700  0.7693  0.9745
  976MOL0     H34646   6.154   3.093   1.355 -0.0183 -1.9319 -2.0055
  976MOL0     H34647   6.219   3.406   1.438 -0.4193  0.1488 -0.1236
  976MOL0     H34648   6.402   3.360   1.435  0.4382 -1.3006  1.0078
  976MOL0     H34649   6.287   3.264   1.514  0.3878 -0.0678  0.1972
  976MOL0     H34650   6.219   3.758   1.268  0.7828  0.8250  1.5469
  976MOL0     H34651   6.313   3.995   1.281  1.3809  2.2750 -1.8832
  976MOL0     H34652   6.753   4.067   1.203 -0.1676  2.0396  0.3471
  976MOL0     H34653   6.672   4.060   1.052  1.4476 -0.5903 -0.5678
  976MOL0     H34654   6.747   4.289   1.086  0.5063  0.8387  0.9394
  976MOL0     H34655   6.567   4.284   1.081 -0.2152 -1.1671 -0.2130
  976MOL0     H34656   6.552   4.302   1.330 -0.7421 -0.7364 -1.9828
  976MOL0     H34657   6.615   4.433   1.244 -0.0742 -0.8175 -0.9532
  976MOL0     H34658   6.841   4.411   1.312  0.5297  0.1193  0.1931
  976MOL0     H34659   6.838   4.235   1.323 -1.7231 -2.6961  2.0313
  976MOL0     H34660   6.694   4.402   1.529  0.4662 -0.4372 -0.6692
  976MOL0     H34661   6.741   4.234   1.541  3.2543 -0.8953  1.3279
  976MOL0     H34662   6.948   4.463   1.540  0.9962 -1.1646 -0.4033
  976MOL0     H34663   6.975   4.292   1.551 -1.9344 -0.2659 -0.3108
  976MOL0     H34664   6.815   4.313   1.753  1.7886 -1.1172  1.9241
  976MOL0     H34665   6.813   4.492   1.735 -0.6165  0.9475 -0.0157
  976MOL0     H34666   7.055   4.487   1.778  0.1214  0.9842 -1.3775
  976MOL0     H34667   7.061   4.308   1.765  0.8366  0.7736 -0.0909
  976MOL0     H34668   6.660   3.862   1.074 -0.0057  1.5501  0.0829
  976MOL0     H34669   6.539   3.634   1.045 -4.1233 -1.7687 -0.0243
  976MOL0     H34670   6.377   3.311   0.967 -1.7138 -2.1184 -2.6717
  976MOL0     H34671   6.250   3.083   0.954 -2.6964 -0.9640  0.9082
  976MOL0     H34672   5.543   2.077   2.380 -0.3935 -2.5725 -0.9389
  976MOL0     H34673   5.400   1.970   2.537  0.7589  1.7262  1.7352
  976MOL0     H34674   5.050   1.881   2.761 -0.3094  1.7625 -1.7985
  976MOL0     H34675   4.884   1.839   2.914 -2.0657 -1.1609  0.5853
  976MOL0     H34676   4.725   1.702   3.035 -0.7484 -2.1465  2.0410
  976MOL0     H34677   4.554   1.698   3.043 -0.3450 -0.7678 -0.9606
  976MOL0     H34678   4.645   1.450   3.035  2.0865  1.7448  0.7700
  976MOL0     H34679   4.714   1.489   2.887  1.0971 -0.6764  1.9630
  976MOL0     H34680   4.414   1.516   2.917 -0.5287 -0.8878 -0.1265
  976MOL0     H34681   4.505   1.522   2.769 -0.9779 -4.2069 -1.5753
  976MOL0     H34682   4.458   1.283   2.938 -0.4317  0.0018 -0.3364
  976MOL0     H34683   4.576   1.285   2.798  2.0123  0.7156  2.1525
  976MOL0     H34684   4.190   1.263   2.641  1.0000  3.2811 -1.7311
  976MOL0     H34685   4.612   1.707   2.621 -0.5193  2.1490  1.2676
  976MOL0     H34686   4.789   1.823   2.345  4.4833 -1.1565  0.0508
  976MOL0     H34687   4.804   1.649   2.359  0.3932  1.2232 -2.6743
  976MOL0     H34688   4.645   1.717   2.406  0.5266 -0.3475  0.2574
  977MOL0     O34689   9.196  10.970   5.882  0.1146  0.1185  0.0044
  977MOL0     C34690   9.256  11.054   5.822  0.5789 -0.0427 -0.2833
  977MOL0     O34691   9.356  11.040   5.733 -0.1094 -0.0242 -0.0504
  977MOL0     C34692   9.411  10.921   5.719 -0.5192  1.1655  0.6167
  977MOL0     C34693   9.506  10.871   5.813 -0.3356 -0.4712  0.6465
  977MOL0     C34694   9.569  10.752   5.787 -0.2015  1.1182  0.9364
  977MOL0     C34695   9.540  10.680   5.673 -0.1478  0.3538  0.0563
  977MOL0     O34696   9.618  10.567   5.659  0.3819  1.0233 -0.0768
  977MOL0     C34697   9.548  10.446   5.669  0.4060 -0.5931 -0.4755
  977MOL0     C34698   9.648  10.336   5.720 -0.3453 -1.0711  0.9147
  977MOL0     C34699   9.595  10.210   5.762 -0.3593  0.2455  0.8403
  977MOL0     C34700   9.549  10.122   5.640 -0.0274  0.9515 -0.2766
  977MOL0     C34701   9.468   9.997   5.691  0.5779 -0.1741  0.1897
  977MOL0     C34702   9.315   9.987   5.642 -0.5340  0.5440 -0.6000
  977MOL0     C34703   9.237  10.105   5.697 -0.2700 -0.4952 -0.1414
  977MOL0     C34704   9.112  10.144   5.622 -0.3677 -0.6275 -0.6075
  977MOL0     N34705   9.010  10.034   5.626 -0.2067  0.5629 -0.2227
  977MOL0     C34706   8.893  10.036   5.687 -0.4928 -0.2650  0.7596
  977MOL0     C34707   8.843   9.913   5.675  0.2721 -0.4211  0.0799
  977MOL0     C34708   8.709   9.870   5.750 -0.8544  0.6892  1.1233
  977MOL0     C34709   8.578   9.885   5.673  0.3906  0.6901  0.2611
  977MOL0     C34710   8.563   9.806   5.538  0.5795 -0.1045  0.0513
  977MOL0     C34711   8.437   9.845   5.455 -0.1156 -0.3205  0.1206
  977MOL0     O34712   8.444   9.779   5.324  0.6694  0.0537  0.8550
  977MOL0     C34713   8.359   9.827   5.224  0.2879  0.3607 -0.1330
  977MOL0     C34714   8.367   9.750   5.107 -0.8445 -0.2801  0.1439
  977MOL0     C34715   8.302   9.796   4.994 -1.4165  0.0813 -0.1115
  977MOL0     C34716   8.315   9.700   4.873 -0.0489 -0.0990  0.0706
  977MOL0     C34717   8.210   9.903   4.994  0.1071 -0.6321  0.9963
  977MOL0     C34718   8.143   9.955   4.874  0.0076  0.3522 -0.3331
  977MOL0     O34719   8.127   9.870   4.773  0.2030 -0.6097  0.5316
  977MOL0     C34720   8.120   9.935   4.646 -0.0818  0.3209  0.1304
  977MOL0     C34721   8.238   9.983   4.593  1.1185  0.4812 -0.4981
  977MOL0     C34722   8.242  10.079   4.491 -0.5488  0.3702 -0.0704
  977MOL0     C34723   8.123  10.097   4.417 -1.5699  0.1589  0.5221
  977MOL0     O34724   8.104  10.186   4.307 -0.0318  0.1222  0.3854
  977MOL0     C34725   8.192  10.308   4.286  0.2569  0.4789 -0.3545
  977MOL0     C34726   8.149  10.437   4.355  1.1814  0.4987 -0.2625
  977MOL0     C34727   8.013  10.489   4.302 -0.3606 -0.6962  0.2658
  977MOL0     C34728   8.003  10.647   4.314  0.4460  0.4995  0.1875
  977MOL0     C34729   7.861  10.694   4.278 -0.1498  0.3520 -0.3398
  977MOL0     C34730   7.844  10.841   4.251  0.3298 -0.0413  0.4212
  977MOL0     C34731   7.845  10.921   4.394 -0.2567 -0.7017  1.9122
  977MOL0     C34732   7.843  11.069   4.376 -0.4316 -0.4235  0.0319
  977MOL0    Cl34733   7.827  11.129   4.541  0.4756 -0.1315 -0.4377
  977MOL0     C34734   8.000  10.038   4.450 -0.0219 -0.4473 -0.4664
  977MOL0     C34735   7.999   9.954   4.568  0.5847  0.0877  0.4400
  977MOL0     O34736   8.101  10.071   4.878 -0.9604 -0.5791  0.5033
  977MOL0     C34737   8.206   9.980   5.115  0.9147 -0.3343 -0.3982
  977MOL0     C34738   8.284   9.945   5.230  1.0333  1.2641  0.0741
  977MOL0     N34739   8.926   9.840   5.590  0.0717  0.6705  0.6434
  977MOL0     N34740   9.028   9.916   5.559 -0.4025 -0.3969 -0.4391
  977MOL0     C34741   9.451  10.729   5.587 -0.0158  0.0863  0.4368
  977MOL0     C34742   9.385  10.845   5.606  1.6422  0.6245  0.3602
  977MOL0     C34743   9.217  11.192   5.850  0.0769 -0.2277 -0.2473
  977MOL0     C34744   9.245  11.288   5.745 -0.0496  0.2053 -0.3723
  977MOL0     C34745   9.206  11.423   5.759  1.5141  0.4146  0.2512
  977MOL0     C34746   9.133  11.458   5.875  0.0892 -0.5659 -0.1176
  977MOL0     O34747   9.091  11.589   5.880  0.1266  0.6755 -0.0845
  977MOL0     C34748   8.981  11.633   5.955 -0.6500 -0.3542  0.1452
  977MOL0     C34749   8.940  11.776   5.940 -0.6400  0.4655  0.3635
  977MOL0     C34750   8.865  11.783   5.802 -0.8063  0.3728 -0.8467
  977MOL0     C34751   8.874  11.927   5.747 -0.3807 -0.5031  0.3685
  977MOL0     C34752   8.809  12.015   5.845  0.2881 -0.1999  0.6690
  977MOL0     C34753   8.763  12.079   5.934 -0.0608 -1.1485 -0.3782
  977MOL0     C34754   9.103  11.368   5.974  0.0438  0.2431  0.5302
  977MOL0     C34755   9.149  11.239   5.971  0.1441 -0.1130 -0.2721
  977MOL0     C34756   9.133  11.152   6.094 -0.2011  0.1440  0.6034
  977MOL0     H34757   9.558  10.928   5.889  0.3623 -0.2853  0.0456
  977MOL0     H34758   9.654  10.721   5.847 -0.4873  0.0673  0.8171
  977MOL0     H34759   9.505  10.415   5.573 -2.0793  4.6991 -1.4074
  977MOL0     H34760   9.467  10.448   5.742  0.6525  3.1201 -0.1148
  977MOL0     H34761   9.720  10.325   5.639  0.2759  1.9137  0.9553
  977MOL0     H34762   9.697  10.388   5.803 -0.8909  1.3551 -0.1893
  977MOL0     H34763   9.674  10.151   5.810 -1.1239 -2.8278 -1.3852
  977MOL0     H34764   9.516  10.238   5.832  0.3521  3.0499  0.6506
  977MOL0     H34765   9.490  10.170   5.562 -1.7217 -3.1469 -1.8177
  977MOL0     H34766   9.641  10.093   5.589 -1.5065  2.2768 -4.0074
  977MOL0     H34767   9.462   9.986   5.800 -0.2548 -1.7048  0.0206
  977MOL0     H34768   9.528   9.910   5.662  0.3958 -0.8169  1.6185
  977MOL0     H34769   9.306   9.986   5.533 -0.3319 -0.2875 -0.6139
  977MOL0     H34770   9.274   9.892   5.678  0.1845  1.2984  2.4923
  977MOL0     H34771   9.303  10.191   5.687 -0.1682 -0.7825 -2.6287
  977MOL0     H34772   9.216  10.084   5.802  1.4519  1.9613  0.7787
  977MOL0     H34773   9.066  10.232   5.667 -1.8804 -1.3299 -0.6944
  977MOL0     H34774   9.138  10.173   5.520 -0.8442 -1.0742 -0.8609
  977MOL0     H34775   8.843  10.127   5.719  0.2208  0.1282  0.7726
  977MOL0     H34776   8.704   9.919   5.848  2.3501 -0.9283  2.2412
  977MOL0     H34777   8.727   9.765   5.775 -0.1943  0.4749 -0.1759
  977MOL0     H34778   8.497   9.845   5.734  1.4160 -2.5353 -0.3138
  977MOL0     H34779   8.569   9.992   5.650 -0.6455  0.8482  1.3073
  977MOL0     H34780   8.661   9.807   5.492  1.0732 -1.7034  0.9728
  977MOL0     H34781   8.561   9.703   5.575  1.2736  0.0119  0.4298
  977MOL0     H34782   8.344   9.820   5.508  0.8408 -1.7648  1.1860
  977MOL0     H34783   8.432   9.954   5.443 -6.3460 -0.2791 -0.2737
  977MOL0     H34784   8.430   9.662   5.116 -1.5020 -0.5863  2.3045
  977MOL0     H34785   8.216   9.658   4.852 -0.5623  0.6938  0.8691
  977MOL0     H34786   8.393   9.624   4.888 -1.6331 -1.4274  2.1289
  977MOL0     H34787   8.339   9.771   4.793 -0.3976  0.2501  0.2727
  977MOL0     H34788   8.326   9.958   4.653  2.2517 -1.6189 -2.8368
  977MOL0     H34789   8.336  10.130   4.470 -0.9837  0.4026 -2.2168
  977MOL0     H34790   8.298  10.292   4.305  0.6626  0.8123 -2.2097
  977MOL0     H34791   8.188  10.326   4.179  0.8184  0.7856 -0.3252
  977MOL0     H34792   8.159  10.431   4.464 -0.9588 -1.1097 -0.0777
  977MOL0     H34793   8.222  10.511   4.323  2.7452 -0.8549  0.0299
  977MOL0     H34794   7.927  10.443   4.351 -1.0042 -2.5451 -2.3696
  977MOL0     H34795   7.997  10.458   4.198  1.8651  0.3971 -0.4825
  977MOL0     H34796   8.081  10.695   4.255  1.0653 -2.2064 -1.3654
  977MOL0     H34797   8.023  10.659   4.421 -0.3071 -0.0704  0.4026
  977MOL0     H34798   7.816  10.637   4.196  1.4035 -0.5514 -0.5979
  977MOL0     H34799   7.807  10.670   4.370 -0.0770  0.0806 -0.3668
  977MOL0     H34800   7.742  10.842   4.212  0.9918 -3.0185 -1.6904
  977MOL0     H34801   7.894  10.887   4.166 -4.7160  1.0135 -2.3738
  977MOL0     H34802   7.941  10.897   4.440  0.4036 -1.1761  0.3601
  977MOL0     H34803   7.760  10.885   4.453 -3.8215  2.3948 -0.8589
  977MOL0     H34804   7.755  11.106   4.323 -1.7431  0.4634  2.6555
  977MOL0     H34805   7.931  11.102   4.320  0.0924 -0.1651  0.9801
  977MOL0     H34806   7.918  10.050   4.381 -3.4753  2.1166  3.5581
  977MOL0     H34807   7.902   9.910   4.586  0.5441 -0.3789 -0.8708
  977MOL0     H34808   8.134  10.062   5.119 -0.0291 -1.0341 -1.8776
  977MOL0     H34809   8.270  10.010   5.316  1.8631  1.5738 -0.0096
  977MOL0     H34810   9.458  10.666   5.498 -0.2099  0.2792  0.2837
  977MOL0     H34811   9.314  10.871   5.528  1.4980  0.4838  0.4476
  977MOL0     H34812   9.298  11.259   5.655 -1.6608 -0.7575 -1.0601
  977MOL0     H34813   9.234  11.503   5.692  1.0125  0.4160  0.0471
  977MOL0     H34814   8.896  11.565   5.950  1.4537 -3.1075 -1.9397
  977MOL0     H34815   9.010  11.635   6.060 -1.5195  2.1506  0.3840
  977MOL0     H34816   9.026  11.842   5.954  0.4305 -1.3958  3.5702
  977MOL0     H34817   8.862  11.803   6.012 -0.0717  1.5096  0.6139
  977MOL0     H34818   8.893  11.711   5.724 -0.3957  0.9145 -1.2011
  977MOL0     H34819   8.760  11.758   5.823  0.1623 -2.0947  1.7542
  977MOL0     H34820   8.828  11.931   5.648  1.8681 -0.1650 -0.7429
  977MOL0     H34821   8.973  11.974   5.747 -1.4272  1.8801  0.9580
  977MOL0     H34822   8.717  12.134   6.013  0.5241 -2.1063  0.6593
  977MOL0     H34823   9.041  11.410   6.052 -1.0111  0.6123 -0.4942
  977MOL0     H34824   9.093  11.203   6.182  0.7907  0.9161  0.6255
  977MOL0     H34825   9.066  11.069   6.067  2.7100 -1.1448 -3.6070
  977MOL0     H34826   9.237  11.119   6.102  0.6278  1.3526 -3.1211
  978MOL0     O34827   6.497   3.657   8.688  0.0778  0.0132 -0.8841
  978MOL0     C34828   6.393   3.723   8.699 -0.4798 -0.2153 -0.0823
  978MOL0     O34829   6.267   3.681   8.727  0.3400 -0.1650  0.2111
  978MOL0     C34830   6.223   3.554   8.702  0.6673 -0.0403  0.3680
  978MOL0     C34831   6.100   3.532   8.646 -0.0025 -0.2415  0.3765
  978MOL0     C34832   6.047   3.406   8.625 -0.2612  0.2467  0.5484
  978MOL0     C34833   6.121   3.296   8.670 -0.2320  0.0537 -0.0899
  978MOL0     O34834   6.078   3.169   8.682 -0.1707  0.9686  1.1637
  978MOL0     C34835   5.937   3.136   8.656  0.2305 -0.5733 -0.0765
  978MOL0     C34836   5.890   2.991   8.684  1.2047 -0.5226 -0.5152
  978MOL0     C34837   5.746   2.975   8.651  0.3884  0.8443 -0.2714
  978MOL0     C34838   5.695   2.852   8.725  0.0231 -0.5761  1.0118
  978MOL0     C34839   5.770   2.714   8.707 -1.0441  0.0863 -0.5995
  978MOL0     C34840   5.776   2.703   8.544  0.1091 -0.1383 -0.1258
  978MOL0     C34841   5.818   2.569   8.489 -1.3981  0.1011 -0.7440
  978MOL0     C34842   5.773   2.551   8.355  0.5235  0.3036  0.3157
  978MOL0     N34843   5.816   2.646   8.251  0.0328 -0.8931 -0.7077
  978MOL0     C34844   5.947   2.658   8.206  0.1011 -0.6908  0.8485
  978MOL0     C34845   5.966   2.790   8.175 -0.4126 -0.8127  0.6626
  978MOL0     C34846   6.095   2.846   8.120 -0.3431  0.2417 -0.4921
  978MOL0     C34847   6.230   2.779   8.180 -0.1439 -0.5638 -0.3601
  978MOL0     C34848   6.269   2.824   8.316  0.1123  0.1234  0.8182
  978MOL0     C34849   6.298   2.977   8.331 -0.2329  0.2596 -0.7069
  978MOL0     O34850   6.393   3.020   8.236  0.3745  0.9987 -0.1871
  978MOL0     C34851   6.431   3.151   8.222  0.5452 -0.0924  0.2090
  978MOL0     C34852   6.407   3.263   8.307  0.0025  1.4514  0.0166
  978MOL0     C34853   6.428   3.400   8.267  0.4457 -1.1179 -0.6763
  978MOL0     C34854   6.406   3.499   8.380  0.1654 -0.0107 -0.4675
  978MOL0     C34855   6.493   3.423   8.142 -0.7086 -0.2946  0.7369
  978MOL0     C34856   6.563   3.553   8.092 -0.6636  1.3056  1.2053
  978MOL0     O34857   6.528   3.667   8.152  0.1519  0.0545 -0.0060
  978MOL0     C34858   6.589   3.787   8.144  0.3879  1.0032 -1.4313
  978MOL0     C34859   6.559   3.875   8.039 -0.0376  0.2534  0.4943
  978MOL0     C34860   6.618   4.001   8.047 -0.2735  0.0110 -1.5347
  978MOL0     C34861   6.715   4.033   8.145  0.9271  1.0630  0.0794
  978MOL0     O34862   6.765   4.162   8.139 -0.4124  0.0916 -0.2469
  978MOL0     C34863   6.905   4.179   8.189 -0.5411  0.0700  0.4442
  978MOL0     C34864   6.934   4.328   8.204 -0.0384  0.3210 -0.3767
  978MOL0     C34865   7.033   4.353   8.312  0.9794  0.6646 -0.2211
  978MOL0     C34866   7.088   4.501   8.277  0.2775 -1.1495  0.3800
  978MOL0     C34867   7.208   4.535   8.375 -0.2259 -0.4795 -1.4040
  978MOL0     C34868   7.346   4.512   8.300 -0.3107  0.7674 -0.0247
  978MOL0     C34869   7.461   4.549   8.389  0.5145 -0.1304 -1.0718
  978MOL0     C34870   7.506   4.424   8.462 -1.0143 -0.5416  0.3370
  978MOL0    Cl34871   7.661   4.447   8.554 -0.0998  0.0946  0.0167
  978MOL0     C34872   6.760   3.936   8.238 -0.0070  0.4026  0.4384
  978MOL0     C34873   6.685   3.817   8.243 -0.0231  0.1561 -0.4836
  978MOL0     O34874   6.653   3.542   8.011 -0.9426  0.0492  0.6348
  978MOL0     C34875   6.511   3.307   8.062  0.3115 -0.0578 -0.0095
  978MOL0     C34876   6.477   3.177   8.097  0.0839 -0.3441  0.4009
  978MOL0     N34877   5.851   2.866   8.202  0.2213 -0.0575 -0.4589
  978MOL0     N34878   5.763   2.777   8.241 -0.1220 -0.5721 -0.3764
  978MOL0     C34879   6.245   3.319   8.726  0.6966  0.1507 -0.6479
  978MOL0     C34880   6.299   3.444   8.746  0.3946  0.9890 -0.7047
  978MOL0     C34881   6.418   3.870   8.656 -0.8603 -0.0054 -0.8455
  978MOL0     C34882   6.485   3.905   8.538 -0.0576 -0.0654  1.0858
  978MOL0     C34883   6.506   4.033   8.497  0.0117  0.2819 -0.3880
  978MOL0     C34884   6.463   4.135   8.578 -0.7991 -1.1431 -0.3161
  978MOL0     O34885   6.458   4.271   8.549 -0.2547  0.1278 -0.2161
  978MOL0     C34886   6.537   4.308   8.433 -0.5816 -0.0100 -0.3666
  978MOL0     C34887   6.551   4.459   8.414 -0.4206 -0.3146 -0.9942
  978MOL0     C34888   6.622   4.522   8.536  0.7454  0.0136  0.5092
  978MOL0     C34889   6.595   4.663   8.558  0.1666 -0.3421 -0.5225
  978MOL0     C34890   6.607   4.698   8.698 -0.7413  0.4781  0.2778
  978MOL0     C34891   6.599   4.728   8.814  0.1227 -0.2212 -0.3391
  978MOL0     C34892   6.398   4.107   8.696  0.6022 -0.5679  0.1909
  978MOL0     C34893   6.377   3.976   8.742  0.8020 -0.0816  0.4202
  978MOL0     C34894   6.292   3.959   8.879  0.2966 -0.2498  0.1719
  978MOL0     H34895   6.045   3.620   8.616 -1.4132 -1.3214 -0.3645
  978MOL0     H34896   5.946   3.394   8.587  0.3719 -1.2253 -0.8089
  978MOL0     H34897   5.925   3.146   8.547 -0.1897  0.7709  0.0743
  978MOL0     H34898   5.876   3.213   8.704 -0.1828 -0.3413 -0.9341
  978MOL0     H34899   5.950   2.923   8.623  1.5147  0.4996 -1.4039
  978MOL0     H34900   5.900   2.975   8.791 -1.5014  1.0606  0.0793
  978MOL0     H34901   5.685   3.050   8.701 -2.9656 -2.7646  1.5907
  978MOL0     H34902   5.709   2.958   8.550 -0.9317 -1.1286  0.4766
  978MOL0     H34903   5.686   2.879   8.831  1.9698  0.1045  1.0521
  978MOL0     H34904   5.593   2.842   8.688  0.8039  0.5042 -1.6505
  978MOL0     H34905   5.708   2.628   8.735  1.3556 -2.1220 -1.6794
  978MOL0     H34906   5.869   2.704   8.753 -0.8728 -0.1759 -1.0232
  978MOL0     H34907   5.676   2.722   8.504 -0.6956 -0.9192  1.4200
  978MOL0     H34908   5.838   2.785   8.507 -1.7106  1.5813  0.4393
  978MOL0     H34909   5.787   2.492   8.560  0.7897  0.2037  0.4008
  978MOL0     H34910   5.927   2.575   8.494 -1.4543  0.3694  0.2758
  978MOL0     H34911   5.814   2.455   8.321  0.1703 -0.2486  1.4222
  978MOL0     H34912   5.664   2.548   8.356  0.3004  0.5096 -3.9726
  978MOL0     H34913   6.018   2.577   8.196 -0.5729 -1.2957  0.9300
  978MOL0     H34914   6.083   2.951   8.147  0.4864  0.9437 -2.6445
  978MOL0     H34915   6.090   2.831   8.012 -1.2072  1.2755 -0.6119
  978MOL0     H34916   6.233   2.670   8.171  0.5157 -0.4713 -1.3586
  978MOL0     H34917   6.313   2.820   8.122  0.9511  0.1961  1.6514
  978MOL0     H34918   6.202   2.785   8.394  0.1444  0.6405  1.1069
  978MOL0     H34919   6.364   2.774   8.336  0.4968  0.8159  0.7289
  978MOL0     H34920   6.205   3.032   8.316  0.9768  2.4078 -0.7581
  978MOL0     H34921   6.342   2.996   8.429  0.1276  1.6915 -1.1299
  978MOL0     H34922   6.367   3.240   8.405 -0.0459 -0.4573 -0.4251
  978MOL0     H34923   6.498   3.510   8.438  0.1531  0.5341 -0.5477
  978MOL0     H34924   6.329   3.456   8.446 -1.3950 -0.8249 -2.6883
  978MOL0     H34925   6.376   3.590   8.327  0.7727 -1.5308 -3.6107
  978MOL0     H34926   6.500   3.834   7.958  1.5768  0.1545 -0.6784
  978MOL0     H34927   6.584   4.064   7.966 -0.9775  2.0316  0.2303
  978MOL0     H34928   6.925   4.131   8.285  1.1131  1.5526  0.8791
  978MOL0     H34929   6.968   4.135   8.112 -1.7921 -0.0812 -0.5302
  978MOL0     H34930   6.957   4.367   8.105 -4.7571  1.2774 -1.3441
  978MOL0     H34931   6.848   4.379   8.249  0.7602  0.2647  1.2903
  978MOL0     H34932   7.106   4.272   8.303 -1.4886 -1.6557 -0.4976
  978MOL0     H34933   6.992   4.354   8.414  0.3260 -0.4729 -0.4612
  978MOL0     H34934   7.008   4.571   8.303 -0.3858 -2.0567  0.8564
  978MOL0     H34935   7.126   4.521   8.176  1.0005  0.2184  0.9040
  978MOL0     H34936   7.195   4.641   8.397 -2.3401 -0.7489 -1.1460
  978MOL0     H34937   7.199   4.484   8.471 -0.4047  1.6324 -0.2436
  978MOL0     H34938   7.359   4.581   8.217  0.2914 -1.9038 -2.2803
  978MOL0     H34939   7.343   4.406   8.273 -3.1483  0.2909  1.6476
  978MOL0     H34940   7.429   4.631   8.454  0.8514 -0.7587 -0.0846
  978MOL0     H34941   7.545   4.590   8.332 -0.2071  1.5464 -0.9708
  978MOL0     H34942   7.525   4.349   8.385  2.6855 -2.7277  3.0291
  978MOL0     H34943   7.428   4.385   8.529 -2.5539  1.5847 -0.0975
  978MOL0     H34944   6.817   3.962   8.327 -0.2763 -0.2834  0.8204
  978MOL0     H34945   6.712   3.743   8.317  0.5632  1.1950  0.3684
  978MOL0     H34946   6.562   3.323   7.968 -0.0536  0.7984 -0.0719
  978MOL0     H34947   6.493   3.094   8.028 -1.1046 -0.8493  0.7195
  978MOL0     H34948   6.296   3.227   8.755  0.8073  0.1041 -0.9912
  978MOL0     H34949   6.395   3.441   8.796  0.4409 -2.0984 -0.7977
  978MOL0     H34950   6.524   3.824   8.477 -0.4997  0.6150 -0.1400
  978MOL0     H34951   6.540   4.044   8.395  1.0929  1.3482  0.0702
  978MOL0     H34952   6.639   4.269   8.422  0.4724  1.9447  1.4868
  978MOL0     H34953   6.481   4.272   8.347 -0.1265 -1.2282 -0.1751
  978MOL0     H34954   6.451   4.501   8.404  0.2367  1.1467 -1.6742
  978MOL0     H34955   6.596   4.494   8.321  1.7517  1.0490  0.4718
  978MOL0     H34956   6.593   4.461   8.622 -1.1599 -3.2988 -2.2003
  978MOL0     H34957   6.731   4.521   8.540  0.7571  1.6646  3.5841
  978MOL0     H34958   6.498   4.694   8.517  0.0775 -0.6614 -0.5605
  978MOL0     H34959   6.673   4.729   8.519 -1.7515  2.0829 -0.5301
  978MOL0     H34960   6.568   4.752   8.914 -0.2959  0.3063 -0.5913
  978MOL0     H34961   6.348   4.186   8.750 -0.6839 -0.6201 -0.8850
  978MOL0     H34962   6.186   3.958   8.850 -1.1215 -2.0341  4.6522
  978MOL0     H34963   6.317   3.864   8.927  1.5997 -0.1068 -0.1944
  978MOL0     H34964   6.302   4.048   8.942 -2.5989  0.9321 -0.8578
  979MOL0     O34965  10.326   6.634   6.068  0.6689 -0.1542 -0.1361
  979MOL0     C34966  10.361   6.629   6.180 -0.2668  0.7675  0.6999
  979MOL0     O34967  10.293   6.684   6.283  0.4797 -0.0092  0.0244
  979MOL0     C34968  10.168   6.739   6.258  0.7307  0.6612 -0.1506
  979MOL0     C34969  10.082   6.735   6.370  0.3879 -0.1873 -0.2806
  979MOL0     C34970   9.947   6.788   6.363  0.0835  0.5193  0.0049
  979MOL0     C34971   9.908   6.865   6.251 -0.0512 -0.1218 -0.1633
  979MOL0     O34972   9.774   6.903   6.237  0.7255  0.2940  0.4828
  979MOL0     C34973   9.691   6.896   6.344  0.1540  0.0207  0.2195
  979MOL0     C34974   9.573   6.996   6.318  0.5153  0.1538  1.0278
  979MOL0     C34975   9.438   6.966   6.388  0.2784  0.2702 -0.1586
  979MOL0     C34976   9.368   6.838   6.340  0.5165  0.1901  0.4314
  979MOL0     C34977   9.240   6.803   6.416 -0.2961 -0.5116  0.0610
  979MOL0     C34978   9.149   6.918   6.423 -1.2601  0.1595  0.4346
  979MOL0     C34979   9.011   6.880   6.462  0.6610  0.9800 -0.3203
  979MOL0     C34980   9.007   6.823   6.609  0.8353 -0.7116 -0.4908
  979MOL0     N34981   8.882   6.835   6.673  0.5611 -0.0571 -0.1534
  979MOL0     C34982   8.797   6.730   6.671  0.5635  0.4983 -0.0348
  979MOL0     C34983   8.693   6.770   6.744  1.0242 -0.2174  0.3053
  979MOL0     C34984   8.570   6.689   6.755 -0.2593 -0.0192  0.4806
  979MOL0     C34985   8.549   6.597   6.873 -0.0688  0.6798 -0.5918
  979MOL0     C34986   8.467   6.656   6.989  0.6808 -0.9975 -0.3975
  979MOL0     C34987   8.315   6.656   6.967  0.5308  0.8292  0.0973
  979MOL0     O34988   8.270   6.516   6.966 -1.3085 -0.8888  1.0023
  979MOL0     C34989   8.174   6.495   6.873  0.8727 -0.8658 -0.3572
  979MOL0     C34990   8.039   6.488   6.916  0.0258  0.0952 -0.4469
  979MOL0     C34991   7.933   6.447   6.832  0.2494 -0.9488  0.9286
  979MOL0     C34992   7.798   6.432   6.883 -0.2273 -0.2457 -0.5704
  979MOL0     C34993   7.957   6.419   6.691 -0.0497  0.2982 -0.2743
  979MOL0     C34994   7.853   6.379   6.596  0.3765 -0.0238  1.0344
  979MOL0     O34995   7.897   6.369   6.461 -0.1730  0.8945 -0.0094
  979MOL0     C34996   7.801   6.339   6.368 -0.4131 -0.2146 -0.0934
  979MOL0     C34997   7.809   6.223   6.296 -0.2425 -0.5275  0.7208
  979MOL0     C34998   7.728   6.200   6.185  0.0713  0.6100  0.0791
  979MOL0     C34999   7.647   6.301   6.133  1.0531 -0.0417 -0.1131
  979MOL0     O35000   7.562   6.281   6.034 -0.3877 -0.5423 -0.3349
  979MOL0     C35001   7.541   6.383   5.932  0.0481  0.2741 -0.2140
  979MOL0     C35002   7.566   6.321   5.795 -0.0376 -0.3009 -0.2058
  979MOL0     C35003   7.459   6.216   5.757  0.0072  0.1323 -0.2375
  979MOL0     C35004   7.395   6.247   5.624 -0.4522  0.1081 -0.5893
  979MOL0     C35005   7.271   6.168   5.605  0.4882 -0.0967 -0.7328
  979MOL0     C35006   7.311   6.016   5.595  0.2934 -0.2152  0.2017
  979MOL0     C35007   7.186   5.923   5.553  0.4374 -0.1298 -0.4099
  979MOL0     C35008   7.155   5.952   5.410 -0.5684 -0.5499  0.4570
  979MOL0    Cl35009   7.278   5.878   5.299 -0.0700 -0.2470 -0.5352
  979MOL0     C35010   7.636   6.421   6.210  0.0346 -0.6456 -0.8676
  979MOL0     C35011   7.712   6.442   6.324  0.5274  0.1646  0.6502
  979MOL0     O35012   7.733   6.378   6.623 -0.1320 -0.5412  0.0664
  979MOL0     C35013   8.090   6.445   6.644  0.8489  0.5027  0.0955
  979MOL0     C35014   8.203   6.475   6.731  0.9001 -0.9391  0.4872
  979MOL0     N35015   8.707   6.892   6.799  0.1216  0.2783  0.0483
  979MOL0     N35016   8.824   6.930   6.754  0.4468  0.6394 -0.1256
  979MOL0     C35017   9.989   6.873   6.151  0.5223  0.3787 -0.2406
  979MOL0     C35018  10.117   6.817   6.153 -0.0893 -0.0192  0.1902
  979MOL0     C35019  10.488   6.558   6.219 -0.8504 -0.4133  0.1742
  979MOL0     C35020  10.536   6.579   6.353 -0.6456  1.1556 -0.6675
  979MOL0     C35021  10.658   6.528   6.392  1.0203  0.5665  0.5286
  979MOL0     C35022  10.734   6.443   6.313 -0.8336  0.4976 -0.0164
  979MOL0     O35023  10.854   6.400   6.361 -0.1103  0.0237  0.8133
  979MOL0     C35024  10.931   6.317   6.260 -0.3001  0.6710 -0.3509
  979MOL0     C35025  11.087   6.326   6.307  0.8243 -0.4096 -1.5056
  979MOL0     C35026  11.171   6.242   6.221 -0.2502 -0.3677  0.6350
  979MOL0     C35027  11.315   6.228   6.284 -0.1114 -0.4865  0.0603
  979MOL0     C35028  11.371   6.127   6.198 -1.0626  0.5358  0.6543
  979MOL0     C35029  11.422   6.033   6.137 -1.1181 -0.2706 -0.0291
  979MOL0     C35030  10.679   6.415   6.181 -0.8734 -0.6975 -0.7105
  979MOL0     C35031  10.557   6.468   6.130 -0.5139  0.1577  0.0800
  979MOL0     C35032  10.510   6.439   5.987 -0.4163  0.1180 -0.6745
  979MOL0     H35033  10.094   6.680   6.463 -3.1544 -2.1938 -0.8142
  979MOL0     H35034   9.879   6.771   6.446 -0.9422 -2.0337 -1.2386
  979MOL0     H35035   9.739   6.922   6.440  3.2081 -1.9887 -0.6132
  979MOL0     H35036   9.655   6.793   6.349  0.3129 -0.0101  0.9146
  979MOL0     H35037   9.617   7.093   6.339  0.4530  0.4316 -0.1021
  979MOL0     H35038   9.543   7.009   6.214  0.0948 -0.9466  0.9908
  979MOL0     H35039   9.462   6.964   6.495  0.3753  4.1880  0.0460
  979MOL0     H35040   9.367   7.048   6.375  0.8034  0.5616 -1.3490
  979MOL0     H35041   9.341   6.850   6.235 -0.7082  1.3780  0.8372
  979MOL0     H35042   9.444   6.761   6.348 -0.0397 -0.5282 -0.8808
  979MOL0     H35043   9.261   6.778   6.520 -1.6826 -0.3041  0.4075
  979MOL0     H35044   9.199   6.718   6.362  0.4661  0.1569 -1.6522
  979MOL0     H35045   9.192   6.990   6.493 -0.4134  0.0636  0.0185
  979MOL0     H35046   9.142   6.960   6.322 -0.5589  4.3572  1.9309
  979MOL0     H35047   8.975   6.799   6.398  0.6060 -1.6046  2.6687
  979MOL0     H35048   8.939   6.961   6.457 -0.6125 -0.0767  0.2421
  979MOL0     H35049   9.030   6.717   6.597 -1.3743 -1.0937 -2.0790
  979MOL0     H35050   9.082   6.877   6.667  0.7528  0.1051 -1.1142
  979MOL0     H35051   8.801   6.638   6.613 -0.6191  1.1096 -1.1318
  979MOL0     H35052   8.569   6.623   6.668  0.8473  0.1562  0.3226
  979MOL0     H35053   8.485   6.757   6.757 -0.4845 -0.3112  2.3034
  979MOL0     H35054   8.505   6.510   6.824 -0.7820  0.3293  0.6552
  979MOL0     H35055   8.643   6.565   6.919  0.4876  4.2044  1.0752
  979MOL0     H35056   8.479   6.603   7.084  0.9240  1.2999  0.9104
  979MOL0     H35057   8.509   6.755   7.007  1.9350 -1.5182 -0.3365
  979MOL0     H35058   8.261   6.715   7.041  3.6543  1.2419  2.2189
  979MOL0     H35059   8.298   6.705   6.870  2.2635 -1.8545 -1.7142
  979MOL0     H35060   8.021   6.516   7.019  0.1805 -3.4366  0.6643
  979MOL0     H35061   7.761   6.332   6.856  2.1595 -1.8552  1.6619
  979MOL0     H35062   7.741   6.522   6.856  0.3569  0.0218 -0.9439
  979MOL0     H35063   7.787   6.435   6.991 -2.3271  0.6176 -0.7666
  979MOL0     H35064   7.876   6.146   6.333  2.2931  0.4577 -1.4045
  979MOL0     H35065   7.722   6.098   6.148 -1.3733  0.0030  1.8325
  979MOL0     H35066   7.438   6.418   5.928  0.3719  1.2059 -0.9424
  979MOL0     H35067   7.608   6.466   5.955  0.6671  0.5607 -2.7230
  979MOL0     H35068   7.588   6.400   5.722  2.9377 -2.5463 -1.9611
  979MOL0     H35069   7.659   6.264   5.791 -0.0777 -0.3201 -3.2505
  979MOL0     H35070   7.381   6.212   5.834 -2.8500  2.4553 -2.7616
  979MOL0     H35071   7.514   6.123   5.741 -0.1439  0.3366 -2.1065
  979MOL0     H35072   7.466   6.245   5.541  0.7663  0.7373  0.4001
  979MOL0     H35073   7.375   6.354   5.629  2.6825  0.8023 -1.1995
  979MOL0     H35074   7.195   6.188   5.681  0.6686  0.4440 -0.6895
  979MOL0     H35075   7.236   6.205   5.509  0.9643  1.7593 -0.2278
  979MOL0     H35076   7.336   5.986   5.697  0.7460  0.9457  0.4500
  979MOL0     H35077   7.406   5.997   5.543  1.3829 -1.4202  2.5096
  979MOL0     H35078   7.099   5.944   5.615  0.1389 -0.0105 -0.8685
  979MOL0     H35079   7.209   5.817   5.569  0.7688 -0.1154 -0.7855
  979MOL0     H35080   7.135   6.057   5.391 -0.4164  0.2740  4.1083
  979MOL0     H35081   7.066   5.902   5.370 -1.0398  1.1071 -0.6693
  979MOL0     H35082   7.566   6.497   6.177  1.8555  0.6134 -2.0357
  979MOL0     H35083   7.713   6.537   6.376  6.3426 -0.6142  2.6841
  979MOL0     H35084   8.114   6.438   6.538 -0.3107 -4.2570 -0.0876
  979MOL0     H35085   8.304   6.491   6.695  0.0915  2.1905 -0.6694
  979MOL0     H35086   9.948   6.922   6.063 -1.1086  0.9837  0.7924
  979MOL0     H35087  10.185   6.846   6.073 -0.0849  1.3147  0.6517
  979MOL0     H35088  10.475   6.635   6.423 -0.9994 -0.5882  0.4782
  979MOL0     H35089  10.700   6.532   6.492  2.7219 -0.6186 -0.0966
  979MOL0     H35090  10.898   6.214   6.279  2.5933  0.0551  2.1935
  979MOL0     H35091  10.935   6.356   6.158  3.1813  0.7783 -0.3161
  979MOL0     H35092  11.092   6.278   6.405 -0.2671  0.2421 -1.1153
  979MOL0     H35093  11.122   6.430   6.306 -1.9080  0.6542  0.7202
  979MOL0     H35094  11.137   6.140   6.205  1.1353 -1.0670  1.8701
  979MOL0     H35095  11.184   6.298   6.128  2.8536 -0.0111  1.1556
  979MOL0     H35096  11.294   6.194   6.386 -2.0429 -1.8295 -0.7331
  979MOL0     H35097  11.362   6.326   6.286 -2.1083  0.5287 -0.2053
  979MOL0     H35098  11.463   5.947   6.088  0.0764 -0.8607  1.8853
  979MOL0     H35099  10.722   6.337   6.118  2.6147 -0.3527  1.0226
  979MOL0     H35100  10.525   6.525   5.920 -0.4669  1.3576  0.8547
  979MOL0     H35101  10.573   6.364   5.938 -0.4880 -1.1928  1.1655
  979MOL0     H35102  10.403   6.417   5.981 -1.0215  1.7747  2.3214
  980MOL0     O35103   4.255   6.866   8.512  0.1349  0.3127 -0.1863
  980MOL0     C35104   4.263   6.975   8.461 -0.0910 -0.0463 -0.9634
  980MOL0     O35105   4.375   7.019   8.393 -0.3222  0.5294  0.0618
  980MOL0     C35106   4.486   6.930   8.386  0.2587  0.0860  0.9150
  980MOL0     C35107   4.531   6.883   8.258 -0.7527  0.1470  1.4863
  980MOL0     C35108   4.632   6.793   8.246 -1.6040 -0.4225 -0.7660
  980MOL0     C35109   4.697   6.729   8.356 -0.1521  0.5327 -0.2856
  980MOL0     O35110   4.796   6.635   8.333  0.1426  0.4165  0.3776
  980MOL0     C35111   4.864   6.583   8.455  0.2988 -0.8378 -0.2219
  980MOL0     C35112   4.983   6.493   8.417 -0.4966  0.5213 -0.6157
  980MOL0     C35113   5.040   6.409   8.536  0.4289 -0.5735  0.1920
  980MOL0     C35114   5.114   6.504   8.629 -0.2693 -0.0476 -0.1711
  980MOL0     C35115   5.184   6.410   8.729 -0.5331 -0.7039 -0.7032
  980MOL0     C35116   5.200   6.478   8.872 -0.1564  0.1850 -0.0437
  980MOL0     C35117   5.303   6.405   8.970  0.5855  0.2558 -0.2904
  980MOL0     C35118   5.350   6.485   9.093  0.1654 -0.3082 -0.2971
  980MOL0     N35119   5.223   6.518   9.164 -0.0223 -0.0174 -0.0796
  980MOL0     C35120   5.163   6.632   9.157  0.3387 -0.0324  0.2433
  980MOL0     C35121   5.046   6.618   9.219  0.0371 -0.2539 -0.2567
  980MOL0     C35122   4.934   6.717   9.240  0.1465 -0.1646 -0.2508
  980MOL0     C35123   4.944   6.841   9.332 -0.0735  0.2676 -0.4184
  980MOL0     C35124   4.998   6.811   9.468  0.4321 -0.2705  0.0455
  980MOL0     C35125   4.899   6.734   9.546  0.6431 -0.1302 -0.4428
  980MOL0     O35126   4.768   6.803   9.560 -0.1512  0.1258  0.2891
  980MOL0     C35127   4.653   6.716   9.574 -0.8361  0.6390  0.0007
  980MOL0     C35128   4.661   6.580   9.619  0.4407 -0.6315 -0.4706
  980MOL0     C35129   4.546   6.517   9.660 -0.1947 -0.4913  0.1528
  980MOL0     C35130   4.570   6.376   9.694  0.4095 -0.2074 -0.0449
  980MOL0     C35131   4.417   6.585   9.666 -0.2402  0.0985 -0.5913
  980MOL0     C35132   4.291   6.531   9.726  0.2969  0.3353 -1.3972
  980MOL0     O35133   4.302   6.415   9.815  0.1633  0.1567  0.2624
  980MOL0     C35134   4.192   6.338   9.840  0.4198  0.9329 -0.0864
  980MOL0     C35135   4.103   6.381   9.943 -0.0819  0.5024  0.7906
  980MOL0     C35136   3.985   6.305   9.954 -0.4022 -1.7430 -0.3617
  980MOL0     C35137   3.964   6.191   9.888 -1.2401 -0.0870  0.2330
  980MOL0     O35138   3.870   6.103   9.931 -0.1061  0.4536  0.7724
  980MOL0     C35139   3.760   6.137  10.009 -0.2075 -0.2370 -0.2900
  980MOL0     C35140   3.677   6.011  10.041 -0.3433  0.7176 -0.3054
  980MOL0     C35141   3.774   5.896  10.092 -0.7439 -0.4480  0.3711
  980MOL0     C35142   3.683   5.788  10.160 -0.5587 -0.3547  0.0584
  980MOL0     C35143   3.758   5.657  10.179 -0.3785  0.5507  0.5258
  980MOL0     C35144   3.825   5.605  10.054  0.7844  0.9394 -0.1020
  980MOL0     C35145   3.861   5.453  10.071  0.0337 -0.8984  0.3144
  980MOL0     C35146   3.941   5.400   9.952 -0.3640  1.0463 -0.1358
  980MOL0    Cl35147   4.004   5.248  10.012  0.2049 -0.1460  0.0088
  980MOL0     C35148   4.061   6.146   9.791 -0.2781 -0.2196  0.6960
  980MOL0     C35149   4.166   6.229   9.761 -0.9371 -0.0392 -0.0523
  980MOL0     O35150   4.186   6.588   9.694 -0.6299  0.2945  0.0112
  980MOL0     C35151   4.413   6.714   9.607  0.0296  0.1944  1.0579
  980MOL0     C35152   4.527   6.777   9.563 -0.5225 -0.0324 -0.5460
  980MOL0     N35153   5.038   6.486   9.271 -0.2241  0.4477 -0.4316
  980MOL0     N35154   5.142   6.425   9.230 -0.1417  0.1094  0.0864
  980MOL0     C35155   4.652   6.776   8.485 -0.7984 -0.7326 -0.3451
  980MOL0     C35156   4.550   6.871   8.495  0.0098 -0.4095  0.1719
  980MOL0     C35157   4.148   7.058   8.457 -0.0965  0.4646  0.8182
  980MOL0     C35158   4.022   7.003   8.502 -0.6048  0.6251 -0.2381
  980MOL0     C35159   3.907   7.062   8.493  0.4701 -0.2033  0.7963
  980MOL0     C35160   3.902   7.174   8.404 -0.0475  0.3235 -0.5008
  980MOL0     O35161   3.783   7.241   8.396 -0.9101 -0.0356  0.1134
  980MOL0     C35162   3.774   7.364   8.471 -0.4458  1.2852 -0.1949
  980MOL0     C35163   3.736   7.341   8.614  0.4507  0.0009 -0.3633
  980MOL0     C35164   3.592   7.311   8.650 -0.7902 -0.4207 -0.3801
  980MOL0     C35165   3.584   7.254   8.791  0.2410  0.6241  0.2462
  980MOL0     C35166   3.444   7.236   8.845 -0.3955 -0.6173  0.1041
  980MOL0     C35167   3.333   7.218   8.881  0.5047  0.3543 -0.9846
  980MOL0     C35168   4.014   7.227   8.348 -0.4163 -0.6720  0.9656
  980MOL0     C35169   4.140   7.174   8.369  0.1295 -0.0124 -0.1902
  980MOL0     C35170   4.260   7.253   8.309  0.3003  0.0656 -0.3277
  980MOL0     H35171   4.470   6.909   8.172  1.8873  1.4157 -0.0974
  980MOL0     H35172   4.666   6.760   8.148  0.6064  0.5963 -0.4071
  980MOL0     H35173   4.789   6.528   8.513 -0.8429  1.1902  0.3075
  980MOL0     H35174   4.905   6.654   8.527  0.0390  2.1045 -2.7973
  980MOL0     H35175   4.952   6.424   8.338  1.1098  0.2655 -1.0533
  980MOL0     H35176   5.067   6.546   8.372  0.8323  0.4226  1.5670
  980MOL0     H35177   4.960   6.359   8.592 -0.5027  1.2185  0.5235
  980MOL0     H35178   5.111   6.335   8.498  0.9418  0.1492 -0.2683
  980MOL0     H35179   5.194   6.550   8.570 -0.6421  0.6231 -0.1586
  980MOL0     H35180   5.041   6.569   8.678 -0.9747  0.3137 -1.6636
  980MOL0     H35181   5.275   6.375   8.679 -0.4189  0.2428 -1.1801
  980MOL0     H35182   5.122   6.321   8.745 -4.2363  1.4183 -2.1697
  980MOL0     H35183   5.231   6.582   8.856  0.1335 -0.2403 -2.8206
  980MOL0     H35184   5.104   6.479   8.924  1.0672 -0.0370  2.3300
  980MOL0     H35185   5.398   6.394   8.917  0.3362  2.8275 -1.4235
  980MOL0     H35186   5.257   6.310   9.000 -0.4046  1.0595  0.8013
  980MOL0     H35187   5.420   6.425   9.152  0.0808  2.3910  2.8676
  980MOL0     H35188   5.408   6.570   9.057 -1.5852  0.6047 -1.0838
  980MOL0     H35189   5.196   6.728   9.120  1.1452 -1.4706 -3.1427
  980MOL0     H35190   4.848   6.661   9.276 -0.7287  0.9323 -0.5575
  980MOL0     H35191   4.905   6.759   9.143 -3.0934 -2.4859 -0.4708
  980MOL0     H35192   5.007   6.924   9.296  0.0875 -0.2493 -1.3588
  980MOL0     H35193   4.841   6.878   9.339  0.4926  1.7626  0.5507
  980MOL0     H35194   5.093   6.759   9.454 -0.4610 -1.2503 -3.1876
  980MOL0     H35195   5.018   6.905   9.522  2.3031 -0.3568 -0.4305
  980MOL0     H35196   4.897   6.636   9.496  0.9764 -0.3504 -0.0319
  980MOL0     H35197   4.931   6.711   9.648  0.8582 -0.6430 -0.6192
  980MOL0     H35198   4.754   6.524   9.630  0.3474 -0.4958  1.4385
  980MOL0     H35199   4.628   6.367   9.787  0.0439  0.1810  0.2263
  980MOL0     H35200   4.625   6.321   9.617  1.3222 -1.0542  1.1721
  980MOL0     H35201   4.479   6.316   9.692 -0.7462  1.3941  1.2082
  980MOL0     H35202   4.126   6.473   9.996  1.2655  0.3371  0.5264
  980MOL0     H35203   3.916   6.341  10.030  0.9620  0.8813 -0.2708
  980MOL0     H35204   3.803   6.165  10.106  0.0746  1.9572 -1.0050
  980MOL0     H35205   3.688   6.214   9.980  0.7877  0.8210 -0.0271
  980MOL0     H35206   3.602   6.035  10.118  2.3064 -2.4140  3.7019
  980MOL0     H35207   3.617   5.975   9.957 -2.6259 -1.7784  2.1886
  980MOL0     H35208   3.841   5.931  10.172  3.3973  2.2040 -3.7437
  980MOL0     H35209   3.819   5.869   9.996  1.7498  3.8993  0.0366
  980MOL0     H35210   3.606   5.769  10.086  0.5913  1.0079 -1.5575
  980MOL0     H35211   3.627   5.823  10.247 -1.1885 -1.5517  0.1502
  980MOL0     H35212   3.840   5.659  10.251  3.8954 -3.7767 -3.4849
  980MOL0     H35213   3.685   5.579  10.204  0.8342 -1.1096 -0.8215
  980MOL0     H35214   3.917   5.659  10.029  1.0069  1.3995  1.5518
  980MOL0     H35215   3.761   5.615   9.966  0.9463 -0.8201 -0.4598
  980MOL0     H35216   3.776   5.385  10.079 -0.7212 -0.2248 -1.4395
  980MOL0     H35217   3.911   5.440  10.167 -0.6622 -3.2857  0.4152
  980MOL0     H35218   4.025   5.463   9.922 -0.3646  0.4114 -1.5359
  980MOL0     H35219   3.880   5.381   9.863 -0.6241 -0.0492  0.2652
  980MOL0     H35220   4.040   6.055   9.735 -0.2658 -0.3395  0.8853
  980MOL0     H35221   4.238   6.205   9.683  2.4911  1.2576  2.4668
  980MOL0     H35222   4.324   6.776   9.595  2.0526  2.6493 -3.2768
  980MOL0     H35223   4.529   6.869   9.506  1.4366  0.0424 -0.4325
  980MOL0     H35224   4.685   6.724   8.574 -2.1272  0.4104  0.8763
  980MOL0     H35225   4.523   6.915   8.590 -2.0431 -0.0248 -0.5321
  980MOL0     H35226   4.025   6.903   8.545 -1.2881  1.0165  0.7535
  980MOL0     H35227   3.814   7.026   8.537 -1.4546  0.6509 -2.2522
  980MOL0     H35228   3.867   7.421   8.460  1.4508 -1.3660  1.0662
  980MOL0     H35229   3.696   7.423   8.422 -0.5661  0.2461 -1.3040
  980MOL0     H35230   3.771   7.433   8.663  3.0405 -2.0621  2.0234
  980MOL0     H35231   3.792   7.257   8.657 -0.7581 -0.2551  0.7786
  980MOL0     H35232   3.535   7.403   8.641 -2.0518 -1.2548 -1.1671
  980MOL0     H35233   3.557   7.233   8.582 -0.4582  0.0571 -1.1031
  980MOL0     H35234   3.648   7.298   8.868 -1.0452 -0.4270  2.0043
  980MOL0     H35235   3.618   7.151   8.776 -0.4858  0.3787  0.2421
  980MOL0     H35236   3.242   7.192   8.932  1.1700  0.0418  0.0713
  980MOL0     H35237   4.001   7.321   8.296 -2.1763 -1.5215 -0.2349
  980MOL0     H35238   4.239   7.355   8.276 -1.2094 -0.8909 -2.6753
  980MOL0     H35239   4.341   7.278   8.378 -2.8204  4.0966  2.3383
  980MOL0     H35240   4.289   7.193   8.222 -4.6146 -2.2152 -0.7470
  981MOL0     O35241   6.033   9.978   7.639 -0.2308  0.4041 -0.4426
  981MOL0     C35242   6.120   9.891   7.657  0.0015 -0.5323 -0.0218
  981MOL0     O35243   6.236   9.886   7.589  0.4834 -0.0306 -0.3430
  981MOL0     C35244   6.268   9.987   7.503  0.5229  0.5225  0.0994
  981MOL0     C35245   6.252   9.977   7.366 -0.3464 -0.2419  1.0096
  981MOL0     C35246   6.270  10.093   7.292 -0.3111 -0.8143 -0.1582
  981MOL0     C35247   6.327  10.208   7.344  0.2640  0.0462  0.4576
  981MOL0     O35248   6.342  10.328   7.283  0.6935  0.1182 -0.5264
  981MOL0     C35249   6.396  10.332   7.156 -0.5151  0.2419 -0.0598
  981MOL0     C35250   6.534  10.392   7.183 -0.3936 -0.4267  0.1301
  981MOL0     C35251   6.517  10.532   7.246 -0.0711 -0.0515  0.1647
  981MOL0     C35252   6.647  10.558   7.326  0.2664 -0.0204  0.7549
  981MOL0     C35253   6.669  10.714   7.367 -0.1573 -0.3161 -0.0660
  981MOL0     C35254   6.565  10.765   7.463 -0.0898 -0.6995  0.0489
  981MOL0     C35255   6.548  10.917   7.454  0.2757  0.0996 -0.7256
  981MOL0     C35256   6.481  10.972   7.581 -0.0198  0.0312  0.0997
  981MOL0     N35257   6.563  11.022   7.685 -0.7525  0.1199 -0.1783
  981MOL0     C35258   6.569  10.971   7.812  0.5787 -0.2089 -0.7970
  981MOL0     C35259   6.635  11.067   7.880 -0.8770  0.1539  0.1534
  981MOL0     C35260   6.676  11.075   8.029 -0.5935  0.1970  0.8517
  981MOL0     C35261   6.822  11.070   8.057  0.2417 -0.3237  0.0232
  981MOL0     C35262   6.873  11.218   8.066 -0.2204  0.7376 -0.1494
  981MOL0     C35263   7.014  11.224   8.026 -0.1397 -0.3882 -0.4860
  981MOL0     O35264   7.059  11.358   8.029 -0.6058  0.2546  0.9058
  981MOL0     C35265   7.175  11.382   8.097 -0.1348  0.7069  0.1286
  981MOL0     C35266   7.185  11.439   8.219 -0.9855 -0.0177 -1.0937
  981MOL0     C35267   7.305  11.452   8.295  0.2974  1.8994  0.6135
  981MOL0     C35268   7.286  11.513   8.434 -0.8662 -1.1764  0.2328
  981MOL0     C35269   7.424  11.399   8.246  0.4166 -0.6383 -0.2465
  981MOL0     C35270   7.563  11.408   8.307 -0.3253 -0.4453  0.2739
  981MOL0     O35271   7.678  11.425   8.229  0.2436  0.0202  0.4757
  981MOL0     C35272   7.795  11.450   8.289 -0.0287  0.3714  0.1319
  981MOL0     C35273   7.828  11.367   8.390  0.0808  1.1401 -0.6186
  981MOL0     C35274   7.948  11.389   8.459  0.5518 -1.1319  0.1996
  981MOL0     C35275   8.013  11.514   8.447  0.1645  0.0336 -0.1589
  981MOL0     O35276   8.109  11.553   8.537 -0.0170  0.1939 -0.4884
  981MOL0     C35277   8.238  11.590   8.483  0.3648 -0.0475  0.3742
  981MOL0     C35278   8.310  11.462   8.438  0.2427  0.0004  1.0094
  981MOL0     C35279   8.454  11.488   8.396 -0.2040  0.3615  0.4361
  981MOL0     C35280   8.506  11.392   8.292 -0.4871  0.2001 -0.1943
  981MOL0     C35281   8.460  11.440   8.153 -0.5115 -0.3401 -0.7622
  981MOL0     C35282   8.521  11.341   8.056  0.8284  0.4827  1.1021
  981MOL0     C35283   8.495  11.386   7.914 -0.0751 -0.9132  0.6553
  981MOL0     C35284   8.578  11.299   7.814 -1.1990  0.1385 -0.5236
  981MOL0    Cl35285   8.559  11.349   7.657  0.3738  0.4632  0.0955
  981MOL0     C35286   7.979  11.589   8.336 -0.9564 -0.9881  0.0964
  981MOL0     C35287   7.875  11.558   8.255 -0.1634  1.0539 -0.3136
  981MOL0     O35288   7.560  11.428   8.427 -0.3966 -0.2051 -0.2315
  981MOL0     C35289   7.417  11.336   8.122 -0.6635 -0.5381  0.0523
  981MOL0     C35290   7.293  11.335   8.042 -0.5959 -0.5384 -0.6358
  981MOL0     N35291   6.687  11.156   7.786 -0.4168 -0.0986 -0.6920
  981MOL0     N35292   6.652  11.129   7.671 -0.2699 -0.0095  0.0606
  981MOL0     C35293   6.350  10.221   7.485  0.9572 -0.0518  0.6252
  981MOL0     C35294   6.316  10.110   7.564 -0.2854 -0.6603 -0.9368
  981MOL0     C35295   6.117   9.790   7.772  0.1223 -0.3183  0.1380
  981MOL0     C35296   6.065   9.838   7.890  0.4200 -0.1976 -0.2546
  981MOL0     C35297   6.062   9.753   8.004 -0.2675 -0.3317  0.8710
  981MOL0     C35298   6.095   9.615   7.989  0.3210 -0.1761  0.8274
  981MOL0     O35299   6.072   9.516   8.088 -0.2405 -0.7809 -0.4637
  981MOL0     C35300   6.001   9.557   8.201  0.5305  0.5277 -0.0631
  981MOL0     C35301   5.968   9.421   8.265 -0.6153 -0.2663  0.7475
  981MOL0     C35302   5.911   9.433   8.407  0.3273 -0.0022 -0.2035
  981MOL0     C35303   5.778   9.513   8.414  0.1586  0.9288 -0.0047
  981MOL0     C35304   5.668   9.462   8.329  1.2159  0.2167  0.4782
  981MOL0     C35305   5.576   9.424   8.254  0.5376 -0.5549  0.1096
  981MOL0     C35306   6.139   9.575   7.865  0.0393 -0.2418 -0.0284
  981MOL0     C35307   6.145   9.648   7.747 -0.4894 -0.1568  0.8670
  981MOL0     C35308   6.147   9.583   7.610  0.8770  0.1075  0.1209
  981MOL0     H35309   6.216   9.884   7.323 -1.0546 -0.5062  2.1503
  981MOL0     H35310   6.235  10.089   7.189 -1.1880  0.2899  0.0788
  981MOL0     H35311   6.339  10.390   7.083  0.5142  0.4452 -0.7275
  981MOL0     H35312   6.408  10.230   7.118 -0.3624  0.5376 -0.8122
  981MOL0     H35313   6.594  10.324   7.245  1.5153 -0.5044 -1.6856
  981MOL0     H35314   6.591  10.403   7.090  3.5884  0.4178  2.4093
  981MOL0     H35315   6.485  10.604   7.170 -0.0268 -0.0629  0.1351
  981MOL0     H35316   6.439  10.530   7.323 -1.1637  0.7437 -0.8740
  981MOL0     H35317   6.643  10.484   7.407  0.4835 -1.3664 -0.4085
  981MOL0     H35318   6.740  10.538   7.271  1.4245  3.7744  1.0816
  981MOL0     H35319   6.670  10.777   7.278  0.2514  1.9074  1.4302
  981MOL0     H35320   6.772  10.724   7.402  0.0080  1.2661 -0.9139
  981MOL0     H35321   6.468  10.715   7.450 -0.2681 -0.4016  0.2040
  981MOL0     H35322   6.605  10.742   7.562  0.5230  1.1758  0.2808
  981MOL0     H35323   6.490  10.929   7.361 -1.1171 -1.9367 -0.1877
  981MOL0     H35324   6.647  10.961   7.439  0.1233  0.9041  0.4593
  981MOL0     H35325   6.424  11.059   7.547 -2.2362 -1.3507  0.1040
  981MOL0     H35326   6.409  10.904   7.626  0.0476  0.5433  1.0014
  981MOL0     H35327   6.514  10.884   7.845 -1.2947  1.2467  0.1577
  981MOL0     H35328   6.618  10.993   8.071  0.3230 -0.2539  1.2648
  981MOL0     H35329   6.647  11.165   8.084  1.1968  2.2570 -1.3510
  981MOL0     H35330   6.821  11.026   8.158 -0.3613 -1.5761 -0.5090
  981MOL0     H35331   6.879  11.009   7.986 -4.0488 -3.4950 -1.1042
  981MOL0     H35332   6.816  11.288   8.004  0.6777  2.0894  0.4843
  981MOL0     H35333   6.864  11.253   8.169 -1.0981  1.4036 -0.4464
  981MOL0     H35334   7.057  11.156   8.100 -0.9395  0.0118  0.3642
  981MOL0     H35335   7.037  11.175   7.931  0.7896 -3.4829  1.2111
  981MOL0     H35336   7.090  11.476   8.257 -1.6041  1.3439 -3.6959
  981MOL0     H35337   7.287  11.440   8.515 -0.3636  0.6515  1.9779
  981MOL0     H35338   7.186  11.557   8.444 -1.4819 -2.8867  2.3359
  981MOL0     H35339   7.365  11.588   8.448 -0.9344 -1.1274  0.3631
  981MOL0     H35340   7.763  11.283   8.415  2.3910 -0.4306  0.4560
  981MOL0     H35341   7.978  11.323   8.540  1.4201 -0.1838  0.6706
  981MOL0     H35342   8.223  11.651   8.393  0.5921 -0.2643  0.1900
  981MOL0     H35343   8.292  11.649   8.558 -1.4664 -1.2782  2.8190
  981MOL0     H35344   8.313  11.394   8.524  3.0150  1.1633  1.9373
  981MOL0     H35345   8.257  11.415   8.355 -0.8374 -1.8939  2.6652
  981MOL0     H35346   8.505  11.469   8.491 -0.3161  0.8452  0.5943
  981MOL0     H35347   8.472  11.594   8.371  3.6927 -0.9973 -4.0586
  981MOL0     H35348   8.466  11.294   8.320  0.3557 -0.1631 -0.2481
  981MOL0     H35349   8.615  11.400   8.298 -0.5654  1.6705 -0.2849
  981MOL0     H35350   8.352  11.446   8.141 -0.6084 -1.4238 -0.5032
  981MOL0     H35351   8.505  11.539   8.138  0.1747 -0.8393 -2.1784
  981MOL0     H35352   8.479  11.242   8.074 -0.3396  0.5618 -0.8891
  981MOL0     H35353   8.629  11.344   8.074  0.7498 -0.8320  1.8794
  981MOL0     H35354   8.526  11.490   7.899  2.6269 -1.7361 -0.0215
  981MOL0     H35355   8.390  11.372   7.885 -0.2628 -1.3795  1.5148
  981MOL0     H35356   8.540  11.197   7.824 -1.3020 -0.2262 -3.6275
  981MOL0     H35357   8.686  11.300   7.833 -1.2446  0.8083 -0.2478
  981MOL0     H35358   8.016  11.690   8.322  0.1906 -1.2186  1.2535
  981MOL0     H35359   7.845  11.621   8.172 -0.1137  1.5857  0.0690
  981MOL0     H35360   7.507  11.301   8.072  0.9956  1.0317  1.7245
  981MOL0     H35361   7.290  11.273   7.953  0.2139 -0.7859 -0.4950
  981MOL0     H35362   6.391  10.320   7.506  0.1309  0.2151  1.0050
  981MOL0     H35363   6.327  10.100   7.671  0.9941  0.0947 -0.9775
  981MOL0     H35364   6.044   9.943   7.906 -0.0066 -0.2210 -0.6159
  981MOL0     H35365   6.035   9.794   8.101  1.2696 -2.7247  2.4137
  981MOL0     H35366   6.059   9.625   8.265  2.0888  1.0184 -1.9000
  981MOL0     H35367   5.913   9.606   8.159  0.1266 -1.3422 -1.4970
  981MOL0     H35368   6.060   9.367   8.288 -1.5735 -2.9136 -1.1443
  981MOL0     H35369   5.910   9.365   8.191 -1.2478  0.0745  0.9841
  981MOL0     H35370   5.905   9.333   8.450  1.7613 -0.5600 -1.2187
  981MOL0     H35371   5.977   9.492   8.471 -0.8719 -1.0277  2.0991
  981MOL0     H35372   5.788   9.621   8.396  1.4917  0.7674 -0.2797
  981MOL0     H35373   5.744   9.515   8.518  0.6199 -2.7111  0.3240
  981MOL0     H35374   5.496   9.402   8.186  0.9534 -1.4167 -0.1183
  981MOL0     H35375   6.118   9.469   7.852  0.9657 -1.0041  3.7495
  981MOL0     H35376   6.048   9.543   7.588  1.3497 -1.3435  0.5538
  981MOL0     H35377   6.173   9.653   7.530  1.4070 -1.7966 -1.4431
  981MOL0     H35378   6.226   9.508   7.601  2.3325  1.6283 -0.5031
  982MOL0     O35379   3.594   4.451   7.850  0.1233 -0.0262 -0.7109
  982MOL0     C35380   3.514   4.457   7.758 -0.1185  0.3775  0.3948
  982MOL0     O35381   3.532   4.530   7.637  0.5321 -0.0871 -0.1675
  982MOL0     C35382   3.639   4.614   7.616  0.4701  0.0770  0.5555
  982MOL0     C35383   3.690   4.613   7.488  0.5759 -0.7019  0.4003
  982MOL0     C35384   3.797   4.693   7.448  0.2919  0.1919 -0.6589
  982MOL0     C35385   3.853   4.790   7.547  0.4437  0.2591  0.6758
  982MOL0     O35386   3.959   4.872   7.517  0.2743 -0.2616  0.5888
  982MOL0     C35387   4.005   4.892   7.386 -0.5560  0.8142 -0.5459
  982MOL0     C35388   3.909   4.966   7.294  0.6110  0.7411 -0.1033
  982MOL0     C35389   3.953   4.994   7.155 -0.0973 -0.6462 -0.2279
  982MOL0     C35390   3.899   4.886   7.061 -0.0874  1.3058  0.6569
  982MOL0     C35391   3.941   4.919   6.912  0.0768  1.1807 -0.3504
  982MOL0     C35392   3.902   4.806   6.817  0.4959  0.0542 -0.2416
  982MOL0     C35393   3.931   4.823   6.668  0.3423 -0.9835 -0.0420
  982MOL0     C35394   3.889   4.973   6.634  0.2056 -0.5116  0.6658
  982MOL0     N35395   3.887   4.975   6.490  0.2148  1.0046 -0.0589
  982MOL0     C35396   3.767   4.932   6.427  0.7364 -0.4864  0.3779
  982MOL0     C35397   3.790   4.955   6.298  0.1716 -0.2581 -0.1474
  982MOL0     C35398   3.693   4.935   6.186  0.6516 -0.1986  0.4101
  982MOL0     C35399   3.601   4.805   6.191 -0.4189 -0.5184  0.3149
  982MOL0     C35400   3.684   4.670   6.180  0.5463  0.3091  0.6405
  982MOL0     C35401   3.773   4.641   6.298 -0.3376  0.0078  0.3220
  982MOL0     O35402   3.815   4.509   6.266  0.8826 -0.2304 -0.1732
  982MOL0     C35403   3.911   4.454   6.343 -0.3657  1.1666 -0.3714
  982MOL0     C35404   3.892   4.327   6.397  0.3474  0.2040 -0.3364
  982MOL0     C35405   3.988   4.265   6.480  0.6838 -0.3274  0.3551
  982MOL0     C35406   3.966   4.120   6.505  0.9363  0.5561  0.6290
  982MOL0     C35407   4.103   4.342   6.521  0.0630 -0.4773 -0.1015
  982MOL0     C35408   4.200   4.309   6.616 -0.1202  0.5662 -0.0999
  982MOL0     O35409   4.320   4.364   6.611  0.3092 -0.2596 -0.0513
  982MOL0     C35410   4.420   4.330   6.701  0.3515  0.3202  0.4773
  982MOL0     C35411   4.482   4.425   6.778  0.0862  0.2670 -0.5094
  982MOL0     C35412   4.584   4.385   6.868  0.7029 -0.6940 -0.2130
  982MOL0     C35413   4.620   4.250   6.870 -0.1707 -0.3472 -0.1323
  982MOL0     O35414   4.726   4.191   6.945  0.3040 -0.1700  0.2298
  982MOL0     C35415   4.833   4.279   6.973 -0.1768  0.8130 -0.9818
  982MOL0     C35416   4.818   4.316   7.115  0.4278  0.1194 -0.2082
  982MOL0     C35417   4.816   4.198   7.205 -0.6570  0.4584 -0.2682
  982MOL0     C35418   4.850   4.239   7.342 -0.3849  0.2833 -0.8662
  982MOL0     C35419   4.824   4.123   7.448  0.2012  0.0563  0.3338
  982MOL0     C35420   4.831   4.166   7.592 -0.3864  0.2690  0.1428
  982MOL0     C35421   4.967   4.202   7.647  0.0993  0.1508 -0.0890
  982MOL0     C35422   4.970   4.205   7.798  0.1164  0.5912  0.1952
  982MOL0    Cl35423   4.904   4.350   7.872 -0.0446 -0.2585  0.1520
  982MOL0     C35424   4.574   4.159   6.775  0.3576 -0.2521  0.3315
  982MOL0     C35425   4.470   4.200   6.692  0.4354 -0.9657 -0.3436
  982MOL0     O35426   4.171   4.216   6.688  0.2004 -0.5228 -0.3366
  982MOL0     C35427   4.121   4.472   6.461  0.7153  0.3603 -0.2837
  982MOL0     C35428   4.029   4.530   6.376  0.6315 -0.2066 -0.2768
  982MOL0     N35429   3.924   4.997   6.277  0.4848  1.0981 -0.4901
  982MOL0     N35430   3.980   5.002   6.399 -0.4100 -1.0003  0.7718
  982MOL0     C35431   3.806   4.782   7.678 -0.2651  0.4276  0.1423
  982MOL0     C35432   3.697   4.706   7.715 -0.2825 -1.1019  0.0550
  982MOL0     C35433   3.377   4.398   7.762  0.0546 -0.2409 -0.7459
  982MOL0     C35434   3.276   4.489   7.753 -0.7162  0.5006  0.3392
  982MOL0     C35435   3.139   4.448   7.741  0.3211  0.0099 -0.0890
  982MOL0     C35436   3.112   4.312   7.738 -0.4277 -0.3557  1.0470
  982MOL0     O35437   2.979   4.259   7.727  0.4408 -0.5578  0.1493
  982MOL0     C35438   2.936   4.199   7.602 -0.4542  0.7106 -0.0243
  982MOL0     C35439   2.789   4.213   7.578  0.0487  0.9302 -0.1887
  982MOL0     C35440   2.764   4.315   7.465 -0.0481  0.1442  0.1985
  982MOL0     C35441   2.610   4.356   7.453 -0.3599 -0.5237  0.4245
  982MOL0     C35442   2.526   4.234   7.445 -0.5184  0.3521 -0.6979
  982MOL0     C35443   2.474   4.130   7.434  0.5644  0.0287  0.1017
  982MOL0     C35444   3.227   4.218   7.746 -1.0851 -0.3055  0.2634
  982MOL0     C35445   3.365   4.262   7.755  0.5659  0.1357  0.3261
  982MOL0     C35446   3.471   4.157   7.784  0.7028 -1.1128  0.1061
  982MOL0     H35447   3.653   4.541   7.415  0.5539  0.1230 -0.4269
  982MOL0     H35448   3.835   4.677   7.348  1.2704 -0.0964 -0.2492
  982MOL0     H35449   4.013   4.795   7.338 -0.0997 -0.0320  1.1716
  982MOL0     H35450   4.104   4.938   7.384  0.4949 -1.3520 -0.2206
  982MOL0     H35451   3.814   4.913   7.285  1.1298 -0.0207 -1.3506
  982MOL0     H35452   3.885   5.062   7.340 -0.0898  2.3448 -3.4870
  982MOL0     H35453   3.923   5.098   7.139  1.3481  0.4084  2.9890
  982MOL0     H35454   4.062   4.996   7.141 -0.2187 -2.8519 -1.9775
  982MOL0     H35455   3.946   4.792   7.089  2.1685  2.6569  1.7020
  982MOL0     H35456   3.791   4.874   7.072  0.0690  0.2341  1.1228
  982MOL0     H35457   4.050   4.920   6.917  0.1618 -2.5309  3.3205
  982MOL0     H35458   3.891   5.012   6.881 -5.1685 -0.5218  1.8731
  982MOL0     H35459   3.964   4.720   6.845  0.8594  0.1853 -0.6313
  982MOL0     H35460   3.795   4.786   6.810  0.2525  0.8673  0.7702
  982MOL0     H35461   3.873   4.757   6.603 -0.4923 -0.9778  0.6943
  982MOL0     H35462   4.036   4.803   6.643  0.3291 -1.6011  0.3796
  982MOL0     H35463   3.792   4.996   6.679  0.1521 -0.2684  0.4299
  982MOL0     H35464   3.961   5.042   6.680  0.9511 -0.3770 -0.6362
  982MOL0     H35465   3.674   4.893   6.468  0.5742  0.5151  0.9740
  982MOL0     H35466   3.748   4.937   6.092 -0.4913  0.6679 -0.2541
  982MOL0     H35467   3.623   5.019   6.182 -1.7315 -2.1139 -1.3403
  982MOL0     H35468   3.541   4.788   6.281 -0.1009 -2.0527  0.2748
  982MOL0     H35469   3.530   4.814   6.108 -1.4211 -2.3822  0.9055
  982MOL0     H35470   3.604   4.595   6.184 -0.7171  1.4739 -1.2900
  982MOL0     H35471   3.727   4.659   6.080 -1.5443 -1.0905 -0.1644
  982MOL0     H35472   3.865   4.699   6.305  0.7185 -1.5927  0.2072
  982MOL0     H35473   3.723   4.655   6.394 -1.7150  1.8827 -0.6027
  982MOL0     H35474   3.807   4.271   6.360  1.0413  1.2539 -3.8484
  982MOL0     H35475   4.051   4.054   6.487  0.0678 -0.2675 -0.5503
  982MOL0     H35476   3.878   4.082   6.452  0.0096 -0.2430  2.6495
  982MOL0     H35477   3.934   4.102   6.608 -3.7660 -0.6862 -0.8224
  982MOL0     H35478   4.440   4.525   6.780  0.7284  0.9025 -5.2793
  982MOL0     H35479   4.629   4.468   6.920 -0.0034 -0.1331 -0.4815
  982MOL0     H35480   4.931   4.231   6.973  0.5851  2.2213  1.2182
  982MOL0     H35481   4.844   4.370   6.912  0.8366  1.7091  0.4892
  982MOL0     H35482   4.906   4.378   7.135  1.5908 -1.4867 -0.2390
  982MOL0     H35483   4.727   4.374   7.135  0.8698  0.1607  1.9458
  982MOL0     H35484   4.886   4.119   7.176 -0.2479  0.1073  1.5746
  982MOL0     H35485   4.719   4.147   7.195 -1.0143  1.4951 -3.1099
  982MOL0     H35486   4.777   4.318   7.362 -1.9669 -0.4871 -3.1385
  982MOL0     H35487   4.953   4.272   7.355  0.1112 -1.7380  0.8725
  982MOL0     H35488   4.723   4.087   7.424 -0.2964  2.7567 -2.1713
  982MOL0     H35489   4.892   4.039   7.430  0.4485  0.5072 -0.9671
  982MOL0     H35490   4.801   4.076   7.646  1.0836  0.9712  2.2741
  982MOL0     H35491   4.749   4.239   7.595 -1.7002 -0.9281 -2.8928
  982MOL0     H35492   4.993   4.298   7.600  1.3859 -0.0130  0.2464
  982MOL0     H35493   5.024   4.120   7.602 -0.9998 -0.4735 -0.3731
  982MOL0     H35494   5.068   4.177   7.838  0.4977 -0.2726 -1.2494
  982MOL0     H35495   4.912   4.120   7.836  1.5181  0.1365  1.4033
  982MOL0     H35496   4.626   4.066   6.756  2.1574  0.4268  1.7225
  982MOL0     H35497   4.429   4.138   6.613 -1.4489  1.8415 -1.7186
  982MOL0     H35498   4.207   4.532   6.486  0.3085  0.2019  1.6392
  982MOL0     H35499   4.049   4.628   6.334  2.1311 -1.6073 -3.1830
  982MOL0     H35500   3.864   4.851   7.739  1.8342 -2.4673  1.6212
  982MOL0     H35501   3.668   4.711   7.819  3.4267  3.0531  1.2059
  982MOL0     H35502   3.297   4.594   7.769 -2.2391  1.2048 -1.8386
  982MOL0     H35503   3.057   4.519   7.735 -0.2779 -0.7702 -2.1295
  982MOL0     H35504   2.993   4.237   7.517 -2.5117 -0.0579 -1.8292
  982MOL0     H35505   2.954   4.092   7.617  2.3808  0.9203 -1.1566
  982MOL0     H35506   2.737   4.230   7.673  2.5405  1.2726  1.1919
  982MOL0     H35507   2.760   4.121   7.527  0.1754  0.2768  0.8787
  982MOL0     H35508   2.827   4.402   7.487  1.2672 -0.3549 -1.4135
  982MOL0     H35509   2.803   4.261   7.379  0.2720  0.4297  0.1634
  982MOL0     H35510   2.594   4.412   7.359  1.0190  0.5114  0.7681
  982MOL0     H35511   2.576   4.418   7.536 -1.2991  0.6503 -0.7839
  982MOL0     H35512   2.432   4.036   7.465  0.3664 -0.6366 -1.9875
  982MOL0     H35513   3.217   4.110   7.739 -0.4077 -0.4846  1.6958
  982MOL0     H35514   3.491   4.150   7.891 -4.7157 -1.4518  1.3550
  982MOL0     H35515   3.426   4.062   7.753  0.1376 -0.5956 -0.6892
  982MOL0     H35516   3.560   4.169   7.722  1.4828  0.8338  1.5230
  983MOL0     O35517   9.293   0.492   6.542 -0.2935  0.1094  0.4280
  983MOL0     C35518   9.272   0.546   6.436 -0.2435 -0.0301  1.0494
  983MOL0     O35519   9.200   0.500   6.330 -0.1417  0.2094 -0.7679
  983MOL0     C35520   9.116   0.395   6.339 -0.6765  0.1094 -0.1138
  983MOL0     C35521   9.166   0.277   6.396  0.3438  0.4005  0.5017
  983MOL0     C35522   9.093   0.167   6.417 -0.4125 -0.4250 -0.4436
  983MOL0     C35523   8.967   0.149   6.370 -0.5562 -1.1526  0.3432
  983MOL0     O35524   8.901   0.035   6.378 -0.2493 -0.3560 -0.0229
  983MOL0     C35525   8.795   0.029   6.476  0.8481  0.3606 -1.2888
  983MOL0     C35526   8.735  -0.117   6.467 -0.3061  0.2112  0.5530
  983MOL0     C35527   8.597  -0.126   6.537 -0.0718  0.0315  0.6684
  983MOL0     C35528   8.619  -0.130   6.684  0.1133  0.6090  0.0329
  983MOL0     C35529   8.482  -0.179   6.748  0.0476 -0.2930  0.1074
  983MOL0     C35530   8.478  -0.158   6.901  0.0534 -0.4957 -0.2379
  983MOL0     C35531   8.583  -0.239   6.984 -0.1885 -0.2538 -0.0887
  983MOL0     C35532   8.565  -0.233   7.131  0.2590 -0.4401 -0.4354
  983MOL0     N35533   8.469  -0.336   7.175  0.4277 -0.3661  0.1224
  983MOL0     C35534   8.480  -0.470   7.199 -0.0377 -0.1936  0.3599
  983MOL0     C35535   8.359  -0.521   7.233  0.3625 -0.3047 -0.6065
  983MOL0     C35536   8.318  -0.661   7.258 -0.0030 -0.7289 -0.4475
  983MOL0     C35537   8.387  -0.782   7.176  0.9015  0.0946  0.6311
  983MOL0     C35538   8.339  -0.784   7.024  0.2816  0.6379  0.4176
  983MOL0     C35539   8.387  -0.904   6.938 -0.7184 -0.1160  0.0148
  983MOL0     O35540   8.529  -0.914   6.936 -0.4595  0.3384 -0.8457
  983MOL0     C35541   8.615  -0.851   6.854 -0.9311  0.5637 -0.6856
  983MOL0     C35542   8.583  -0.749   6.765  0.2777  0.5699 -0.8402
  983MOL0     C35543   8.671  -0.655   6.712 -0.4820 -0.1554  0.1056
  983MOL0     C35544   8.617  -0.538   6.616 -0.5635 -0.4570 -0.3957
  983MOL0     C35545   8.802  -0.673   6.755  0.3305  0.7003 -0.3437
  983MOL0     C35546   8.891  -0.562   6.727 -0.1230 -0.2928 -0.3592
  983MOL0     O35547   8.978  -0.591   6.628  0.1383  0.3038 -0.5099
  983MOL0     C35548   9.073  -0.500   6.595 -0.1893  0.1231  0.3879
  983MOL0     C35549   9.055  -0.379   6.540 -0.5201 -0.3477 -0.5210
  983MOL0     C35550   9.171  -0.300   6.509 -0.5517  0.5917 -0.0312
  983MOL0     C35551   9.294  -0.342   6.548 -0.1235  0.5336 -0.5013
  983MOL0     O35552   9.402  -0.259   6.531  0.5061 -0.1288  0.0044
  983MOL0     C35553   9.408  -0.185   6.406  0.3061  0.5700  0.3508
  983MOL0     C35554   9.550  -0.112   6.395 -0.4112  0.7907  0.6849
  983MOL0     C35555   9.611  -0.107   6.247 -0.2368 -0.0506 -1.2368
  983MOL0     C35556   9.510  -0.113   6.125 -0.7410 -0.4092  0.5461
  983MOL0     C35557   9.587  -0.121   5.991  0.8811 -0.0394 -0.8973
  983MOL0     C35558   9.641  -0.267   5.972 -0.3718  0.4985  0.3072
  983MOL0     C35559   9.741  -0.286   5.866 -0.2315 -0.1301  1.5588
  983MOL0     C35560   9.697  -0.247   5.722 -0.4633 -0.3840  0.5029
  983MOL0    Cl35561   9.694  -0.072   5.691  0.0630  0.0847 -0.1136
  983MOL0     C35562   9.314  -0.460   6.607 -1.2335  0.0092 -0.2965
  983MOL0     C35563   9.205  -0.542   6.638 -0.0435 -0.1431 -0.6476
  983MOL0     O35564   8.888  -0.468   6.797 -0.4546  0.3509 -0.9413
  983MOL0     C35565   8.846  -0.787   6.828  0.6352 -0.3028  0.9744
  983MOL0     C35566   8.746  -0.873   6.872 -0.2234 -0.4320 -1.0007
  983MOL0     N35567   8.274  -0.405   7.235  0.1864  0.4044  1.0288
  983MOL0     N35568   8.338  -0.298   7.203 -1.0317  0.0259  0.7537
  983MOL0     C35569   8.925   0.262   6.298  1.6018 -0.9451  0.0945
  983MOL0     C35570   8.995   0.379   6.283  0.8825 -0.4230 -0.0040
  983MOL0     C35571   9.347   0.674   6.407 -0.1006 -0.7991 -0.3298
  983MOL0     C35572   9.316   0.754   6.292 -0.0066 -0.1243 -0.9378
  983MOL0     C35573   9.373   0.887   6.279  0.9590  0.5225 -1.0834
  983MOL0     C35574   9.469   0.935   6.371 -0.2068  0.5219 -0.6783
  983MOL0     O35575   9.520   1.058   6.374  0.0264 -0.7566 -0.7688
  983MOL0     C35576   9.480   1.142   6.272 -0.7819  0.2338 -0.1282
  983MOL0     C35577   9.564   1.271   6.279 -0.3727  0.2355 -0.7718
  983MOL0     C35578   9.711   1.235   6.242 -0.1843  0.3788  0.0512
  983MOL0     C35579   9.738   1.174   6.103 -0.2323  0.0884  0.2958
  983MOL0     C35580   9.881   1.176   6.074  0.4483  0.0133 -0.0889
  983MOL0     C35581   9.998   1.180   6.047 -0.0415  1.2643  0.1550
  983MOL0     C35582   9.509   0.853   6.478  0.4772  0.5142  0.0452
  983MOL0     C35583   9.454   0.721   6.491 -0.8991  0.0912 -0.3971
  983MOL0     C35584   9.492   0.654   6.618 -0.6245 -0.4050 -0.1483
  983MOL0     H35585   9.271   0.283   6.421 -0.1459  3.9911  2.4040
  983MOL0     H35586   9.142   0.082   6.463 -0.7494  0.2661  1.2445
  983MOL0     H35587   8.724   0.109   6.453  3.5110  4.3982  2.9754
  983MOL0     H35588   8.825   0.052   6.578 -0.4401  1.8429 -1.2094
  983MOL0     H35589   8.717  -0.149   6.364 -1.9388  1.2635  0.4722
  983MOL0     H35590   8.803  -0.191   6.510 -1.1541 -0.6129  0.5088
  983MOL0     H35591   8.535  -0.040   6.511 -1.0078  0.0973  2.8769
  983MOL0     H35592   8.542  -0.210   6.494  2.8946 -0.5089 -2.5384
  983MOL0     H35593   8.695  -0.201   6.718  0.6017  0.7567 -0.7205
  983MOL0     H35594   8.658  -0.037   6.727 -1.3220  0.8536  0.8497
  983MOL0     H35595   8.470  -0.285   6.724  0.6500 -0.2123 -0.5634
  983MOL0     H35596   8.407  -0.126   6.690  3.6891  3.4870 -1.6674
  983MOL0     H35597   8.502  -0.056   6.932  2.7301 -1.2358  0.3333
  983MOL0     H35598   8.375  -0.180   6.931 -0.3691  0.5283 -0.8761
  983MOL0     H35599   8.681  -0.195   6.962  0.3925 -2.8423 -3.4511
  983MOL0     H35600   8.593  -0.341   6.947  1.4946 -0.5209  1.0214
  983MOL0     H35601   8.660  -0.264   7.175  0.8791  2.5496  0.5492
  983MOL0     H35602   8.533  -0.133   7.161 -1.0224 -0.4862 -1.5517
  983MOL0     H35603   8.566  -0.530   7.172 -1.9232 -3.3904  1.0168
  983MOL0     H35604   8.211  -0.671   7.240 -0.5041  1.5988  0.8750
  983MOL0     H35605   8.329  -0.679   7.365  0.2960  0.4482 -0.2730
  983MOL0     H35606   8.496  -0.786   7.178  0.8758 -1.8589 -0.3086
  983MOL0     H35607   8.364  -0.876   7.227  0.3897  0.0346  0.2935
  983MOL0     H35608   8.231  -0.802   7.019  0.6292 -1.6483  0.1009
  983MOL0     H35609   8.378  -0.701   6.964  2.9081 -0.8502 -0.0800
  983MOL0     H35610   8.347  -1.000   6.972  1.2371 -1.2244 -0.6235
  983MOL0     H35611   8.341  -0.902   6.839  0.5626 -3.8848 -0.8104
  983MOL0     H35612   8.484  -0.753   6.721  0.0510 -1.2912 -0.2382
  983MOL0     H35613   8.578  -0.580   6.523 -0.2158  4.1866 -2.9197
  983MOL0     H35614   8.694  -0.463   6.594  1.9543 -2.9107 -0.5261
  983MOL0     H35615   8.546  -0.476   6.672  2.4359  1.3399  1.8166
  983MOL0     H35616   8.954  -0.348   6.517 -0.5585  0.8619  1.0875
  983MOL0     H35617   9.158  -0.205   6.458  3.2500  3.3387  3.3742
  983MOL0     H35618   9.397  -0.256   6.324  0.7578  0.3679  0.4639
  983MOL0     H35619   9.320  -0.120   6.403 -0.3242 -0.1517  1.8466
  983MOL0     H35620   9.524  -0.010   6.423 -1.7782  0.3529  1.0962
  983MOL0     H35621   9.626  -0.153   6.463  3.2057 -1.1394 -3.9655
  983MOL0     H35622   9.686  -0.186   6.238 -0.1870 -0.1188 -0.2984
  983MOL0     H35623   9.670  -0.017   6.226  2.6775 -1.3936  0.6112
  983MOL0     H35624   9.441  -0.027   6.127 -0.4126 -0.1627  1.3184
  983MOL0     H35625   9.446  -0.201   6.131 -1.7916  0.1727 -1.2652
  983MOL0     H35626   9.515  -0.097   5.912 -0.2441  1.9470  0.6372
  983MOL0     H35627   9.657  -0.037   5.998  1.5816 -0.7348  1.8548
  983MOL0     H35628   9.555  -0.332   5.957  0.6512 -1.0155  0.8148
  983MOL0     H35629   9.693  -0.294   6.064 -0.0650  4.7276  1.6244
  983MOL0     H35630   9.776  -0.390   5.861 -0.2795 -0.1020 -0.9566
  983MOL0     H35631   9.830  -0.225   5.885  0.5539 -0.5246 -0.5360
  983MOL0     H35632   9.594  -0.283   5.712 -0.0464 -1.9943  1.6697
  983MOL0     H35633   9.765  -0.296   5.652 -3.5158 -2.0097 -1.5461
  983MOL0     H35634   9.413  -0.498   6.631 -1.6622  0.2420  2.0430
  983MOL0     H35635   9.234  -0.639   6.677 -0.0897 -0.4044 -1.2453
  983MOL0     H35636   8.949  -0.792   6.863  0.9979 -0.5870 -0.1094
  983MOL0     H35637   8.780  -0.962   6.925  3.5556 -0.0107 -2.4234
  983MOL0     H35638   8.827   0.254   6.252  0.3282 -1.0969  2.6564
  983MOL0     H35639   8.950   0.470   6.244 -0.0093  0.2272  2.4037
  983MOL0     H35640   9.233   0.725   6.229 -0.4636 -0.9613  0.0035
  983MOL0     H35641   9.328   0.945   6.199 -1.0859  1.7579  0.8441
  983MOL0     H35642   9.493   1.083   6.181  0.9776 -0.1357  0.3205
  983MOL0     H35643   9.374   1.165   6.282 -0.9685 -0.5513 -0.1766
  983MOL0     H35644   9.560   1.319   6.377 -0.3916 -1.0438 -0.1291
  983MOL0     H35645   9.534   1.348   6.207 -1.4062  1.7002  1.1536
  983MOL0     H35646   9.767   1.329   6.236 -0.8842  0.7137 -2.7157
  983MOL0     H35647   9.753   1.168   6.317 -3.2694 -0.8505  0.8226
  983MOL0     H35648   9.690   1.226   6.020  2.0000 -0.1961 -1.2514
  983MOL0     H35649   9.696   1.073   6.105 -4.3095  1.5937  0.2877
  983MOL0     H35650  10.097   1.167   6.010  0.0351 -2.6062  1.2638
  983MOL0     H35651   9.573   0.906   6.548 -0.0064  4.2489 -2.1106
  983MOL0     H35652   9.511   0.547   6.600 -0.8514 -0.6017  0.7449
  983MOL0     H35653   9.589   0.696   6.647 -1.6971  0.2571  2.7437
  983MOL0     H35654   9.424   0.674   6.700  0.4013  0.6538  0.4737
  984MOL0     O35655   7.292   4.903   3.945 -0.1290  0.5825  0.5261
  984MOL0     C35656   7.295   4.861   3.825 -0.0483  0.5447  0.8794
  984MOL0     O35657   7.267   4.734   3.780  0.5458  0.3246  0.2420
  984MOL0     C35658   7.294   4.629   3.868  0.0340  0.1634 -0.5576
  984MOL0     C35659   7.206   4.528   3.879 -0.0123  0.5235 -0.6198
  984MOL0     C35660   7.233   4.422   3.962  1.1716  0.0758 -0.7332
  984MOL0     C35661   7.347   4.414   4.043 -0.0256  0.8713 -0.3792
  984MOL0     O35662   7.352   4.304   4.125  0.2580  0.1361  0.6985
  984MOL0     C35663   7.432   4.299   4.234 -0.1805 -0.4606  0.2042
  984MOL0     C35664   7.472   4.154   4.273  0.4836 -0.0750 -0.3502
  984MOL0     C35665   7.543   4.072   4.169  0.9416 -0.4238  0.5336
  984MOL0     C35666   7.661   4.149   4.101  0.2771  1.2104  0.7005
  984MOL0     C35667   7.744   4.067   3.995  0.3121 -0.4740  0.6124
  984MOL0     C35668   7.854   3.972   4.045  0.2839 -0.2656  0.0571
  984MOL0     C35669   7.930   3.898   3.927 -0.2114  0.3067 -0.4229
  984MOL0     C35670   7.845   3.776   3.888  0.3948 -0.1766 -0.2247
  984MOL0     N35671   7.906   3.704   3.776  0.1485  0.2561  0.4542
  984MOL0     C35672   7.900   3.764   3.648  0.1979 -0.3361 -0.2259
  984MOL0     C35673   7.955   3.672   3.568 -0.4467  0.0432  0.1537
  984MOL0     C35674   7.983   3.697   3.423 -0.5415  0.6140  0.8535
  984MOL0     C35675   8.132   3.727   3.394  0.1044 -0.2787  0.0716
  984MOL0     C35676   8.155   3.734   3.239 -0.6166 -0.1327 -0.7307
  984MOL0     C35677   8.291   3.793   3.225  0.3056  0.0135 -0.9247
  984MOL0     O35678   8.277   3.937   3.207 -0.5723  0.4998 -0.1605
  984MOL0     C35679   8.380   4.009   3.152 -0.4623 -0.7652 -0.4080
  984MOL0     C35680   8.474   4.072   3.223 -0.4202  0.8272 -0.0914
  984MOL0     C35681   8.552   4.159   3.149 -0.2324 -0.5269  0.5472
  984MOL0     C35682   8.651   4.243   3.228 -0.5035 -0.3338 -0.1442
  984MOL0     C35683   8.550   4.163   3.001 -0.0490  0.6296 -0.3830
  984MOL0     C35684   8.634   4.247   2.916  0.2676 -0.7042 -0.5445
  984MOL0     O35685   8.575   4.330   2.824  0.9773  0.9464 -0.0848
  984MOL0     C35686   8.647   4.429   2.766 -1.1285  0.2497 -0.0297
  984MOL0     C35687   8.696   4.413   2.628 -0.5666  0.0324 -0.5470
  984MOL0     C35688   8.770   4.516   2.570 -0.4382  0.7720 -0.3316
  984MOL0     C35689   8.786   4.640   2.635 -1.1912  0.4709  1.1208
  984MOL0     O35690   8.861   4.733   2.561  0.4525  0.6016 -0.8517
  984MOL0     C35691   8.939   4.835   2.628  0.5091  0.0461  0.8104
  984MOL0     C35692   9.047   4.868   2.523 -0.4021 -0.7884 -0.3634
  984MOL0     C35693   9.143   4.969   2.594  0.6722 -0.2122 -0.1015
  984MOL0     C35694   9.271   4.978   2.516  0.1908 -0.4132  0.5503
  984MOL0     C35695   9.380   5.021   2.612 -0.0443  0.7021 -0.0889
  984MOL0     C35696   9.512   5.022   2.539 -0.4699 -0.4660  0.2774
  984MOL0     C35697   9.632   5.043   2.642  0.4503 -0.5294  0.9659
  984MOL0     C35698   9.759   5.039   2.557 -0.3781 -0.5412 -0.9844
  984MOL0    Cl35699   9.755   5.194   2.449 -0.4456 -0.1814 -0.0974
  984MOL0     C35700   8.729   4.659   2.760  1.3594 -0.0217 -0.1346
  984MOL0     C35701   8.664   4.557   2.826  0.4924  1.4781  0.3488
  984MOL0     O35702   8.757   4.240   2.929  0.3460 -0.5995  0.3637
  984MOL0     C35703   8.457   4.084   2.937 -0.2475  0.0894  0.0355
  984MOL0     C35704   8.369   4.014   3.013 -0.1861 -0.0458  0.6132
  984MOL0     N35705   7.991   3.559   3.647  1.2067 -0.0667 -0.1974
  984MOL0     N35706   7.970   3.579   3.776  0.2163  0.1457 -0.0117
  984MOL0     C35707   7.441   4.512   4.022  0.6447 -0.0017  0.1177
  984MOL0     C35708   7.415   4.621   3.943  0.3636 -1.0263  0.5059
  984MOL0     C35709   7.327   4.958   3.721 -0.4209  0.1520  0.0670
  984MOL0     C35710   7.285   5.090   3.749  0.0695 -0.4688  0.7486
  984MOL0     C35711   7.305   5.196   3.672 -0.9727  0.8853 -0.0529
  984MOL0     C35712   7.377   5.180   3.544  0.2930 -0.8582  0.0287
  984MOL0     O35713   7.415   5.280   3.457 -0.6781  0.3749 -0.0262
  984MOL0     C35714   7.436   5.411   3.496  0.6320  0.5292 -0.0553
  984MOL0     C35715   7.539   5.425   3.616  0.6131  0.9600  0.5398
  984MOL0     C35716   7.681   5.378   3.582 -0.5197 -1.2538 -0.3627
  984MOL0     C35717   7.746   5.451   3.463 -0.3369 -0.5023 -0.2137
  984MOL0     C35718   7.718   5.598   3.463  0.0233  0.0114 -0.2482
  984MOL0     C35719   7.678   5.711   3.457 -0.2037  0.3308 -1.4915
  984MOL0     C35720   7.414   5.052   3.507  0.0081  0.1198 -0.7760
  984MOL0     C35721   7.394   4.937   3.596 -0.8453  0.5369 -0.0124
  984MOL0     C35722   7.430   4.803   3.539  0.4873 -0.3582 -0.2422
  984MOL0     H35723   7.118   4.530   3.816  0.6418  2.4705 -1.5260
  984MOL0     H35724   7.153   4.350   3.979  1.2258 -0.5125 -2.7583
  984MOL0     H35725   7.378   4.350   4.315 -1.0811 -1.2064  0.0865
  984MOL0     H35726   7.524   4.357   4.227  0.6308 -1.5397  1.4975
  984MOL0     H35727   7.544   4.149   4.355  0.4925 -3.8911 -0.3887
  984MOL0     H35728   7.385   4.097   4.308  0.6920  0.2920  0.7767
  984MOL0     H35729   7.567   3.976   4.215  0.2885 -0.0234  1.7879
  984MOL0     H35730   7.472   4.053   4.088  2.4120  2.3587 -1.5758
  984MOL0     H35731   7.618   4.233   4.046 -3.1719 -0.8022  0.0149
  984MOL0     H35732   7.741   4.186   4.165  1.9667 -1.0822  0.0469
  984MOL0     H35733   7.797   4.147   3.942  3.6873 -0.0188  4.2069
  984MOL0     H35734   7.672   4.019   3.927  0.7597 -0.7629  0.3377
  984MOL0     H35735   7.920   4.006   4.125  1.6748  1.5019 -1.7406
  984MOL0     H35736   7.786   3.896   4.084  0.3020 -1.0308 -1.3205
  984MOL0     H35737   8.030   3.867   3.957  0.6407 -1.2410 -4.2439
  984MOL0     H35738   7.962   3.961   3.844  1.2595  0.5640  0.3122
  984MOL0     H35739   7.834   3.704   3.969 -1.4481  0.6013  0.2809
  984MOL0     H35740   7.740   3.791   3.862  0.1089 -0.9887  0.4204
  984MOL0     H35741   7.863   3.862   3.619  0.5546  0.5227  2.0449
  984MOL0     H35742   7.926   3.773   3.370  0.4382  0.8534  0.1231
  984MOL0     H35743   7.961   3.598   3.383  2.9480 -1.9750  4.4971
  984MOL0     H35744   8.163   3.821   3.441 -4.0460  1.7441 -0.7455
  984MOL0     H35745   8.194   3.648   3.438 -0.9032  0.4775  3.0524
  984MOL0     H35746   8.152   3.635   3.193 -0.5151  0.0283 -1.0860
  984MOL0     H35747   8.087   3.800   3.183 -0.6524  1.5560  1.1503
  984MOL0     H35748   8.347   3.783   3.318  0.6573  0.1574 -1.1179
  984MOL0     H35749   8.346   3.753   3.140  1.4505  0.2030 -0.2993
  984MOL0     H35750   8.465   4.067   3.331  3.0571 -1.3330  0.2672
  984MOL0     H35751   8.615   4.243   3.331 -1.8981 -2.2193 -0.5765
  984MOL0     H35752   8.644   4.339   3.176  2.4898 -0.5155 -1.0255
  984MOL0     H35753   8.754   4.208   3.224 -0.3237 -0.0920  1.5083
  984MOL0     H35754   8.688   4.314   2.585 -0.1745  0.1063 -0.7861
  984MOL0     H35755   8.810   4.506   2.470  3.1002 -1.2371  1.1112
  984MOL0     H35756   8.871   4.919   2.646  1.9055  1.7937 -1.4965
  984MOL0     H35757   8.981   4.802   2.724  2.0082  1.8682  0.8296
  984MOL0     H35758   9.099   4.776   2.493 -0.0400 -0.2919 -1.2968
  984MOL0     H35759   8.999   4.905   2.433 -1.9738 -1.4015  0.1890
  984MOL0     H35760   9.155   4.955   2.702 -0.0432  2.2886  0.3649
  984MOL0     H35761   9.100   5.069   2.578  2.2237  0.1682 -2.2390
  984MOL0     H35762   9.264   5.037   2.425 -2.4934 -3.5897 -1.5295
  984MOL0     H35763   9.308   4.883   2.479  2.2448  0.4390  0.3089
  984MOL0     H35764   9.354   5.116   2.660  2.6357  0.8938  1.1537
  984MOL0     H35765   9.397   4.950   2.693  0.5152  1.5851  0.5989
  984MOL0     H35766   9.506   5.099   2.461  0.8040  1.0799  1.6268
  984MOL0     H35767   9.530   4.923   2.497 -1.0613  0.6034 -2.7155
  984MOL0     H35768   9.643   4.957   2.709 -0.3011 -1.1768  0.2678
  984MOL0     H35769   9.622   5.138   2.695 -0.3502 -0.2339  0.2958
  984MOL0     H35770   9.749   4.946   2.500 -4.3629 -2.8063  2.9004
  984MOL0     H35771   9.843   5.030   2.626 -1.2056 -1.9965 -0.1265
  984MOL0     H35772   8.740   4.757   2.805  1.4952  1.1191 -2.5000
  984MOL0     H35773   8.626   4.574   2.926 -0.3696 -0.2372  0.3588
  984MOL0     H35774   8.428   4.092   2.833 -0.6829  4.3204  0.2967
  984MOL0     H35775   8.282   3.966   2.969  0.3437 -0.8469  0.4264
  984MOL0     H35776   7.537   4.519   4.072  2.2905  2.2229 -2.9702
  984MOL0     H35777   7.485   4.703   3.935 -2.8154  1.8454 -0.4706
  984MOL0     H35778   7.243   5.117   3.846  2.7540  1.5491  1.4720
  984MOL0     H35779   7.269   5.293   3.706 -1.7520  0.4889  0.2653
  984MOL0     H35780   7.468   5.480   3.418  1.0559 -0.0473 -0.3973
  984MOL0     H35781   7.339   5.456   3.521 -0.4240 -1.2898 -0.6349
  984MOL0     H35782   7.502   5.370   3.703 -0.3675 -1.7176 -1.4249
  984MOL0     H35783   7.530   5.532   3.638 -2.1409  1.2085 -1.2044
  984MOL0     H35784   7.736   5.404   3.673 -0.0836  2.0495 -1.4314
  984MOL0     H35785   7.681   5.271   3.562 -2.7454 -0.8950 -2.9647
  984MOL0     H35786   7.709   5.399   3.374  0.7058  0.4805 -1.2577
  984MOL0     H35787   7.854   5.436   3.466 -0.1558  0.6872  2.6987
  984MOL0     H35788   7.641   5.811   3.447 -0.8278  0.1359 -1.1872
  984MOL0     H35789   7.463   5.040   3.410 -3.5548  0.4331 -2.7809
  984MOL0     H35790   7.511   4.809   3.465  0.0385 -1.0601 -0.8062
  984MOL0     H35791   7.476   4.733   3.609  0.3875  0.8894  1.1251
  984MOL0     H35792   7.336   4.758   3.505 -0.4505  1.5840 -0.3547
  985MOL0     O35793  11.356   9.227   4.048 -0.4824  0.2388 -0.6051
  985MOL0     C35794  11.296   9.315   4.118 -0.0868  0.1084  0.3783
  985MOL0     O35795  11.328   9.452   4.122 -0.2204 -0.2465  0.4827
  985MOL0     C35796  11.409   9.507   4.026 -0.2306  0.1699  0.2491
  985MOL0     C35797  11.497   9.599   4.072  0.0564  0.6170  0.3036
  985MOL0     C35798  11.591   9.658   3.992 -0.0373 -0.4311 -0.2190
  985MOL0     C35799  11.600   9.613   3.850 -0.2353 -0.0310 -0.5050
  985MOL0     O35800  11.684   9.660   3.754 -0.1972 -0.2070 -0.1562
  985MOL0     C35801  11.771   9.765   3.812 -0.5066  0.1407  0.3964
  985MOL0     C35802  11.821   9.850   3.691 -0.1373  0.4827 -0.3048
  985MOL0     C35803  11.712   9.944   3.648 -0.4183 -0.3271  0.0682
  985MOL0     C35804  11.679   9.943   3.504  0.1410 -0.8399  0.4404
  985MOL0     C35805  11.610   9.815   3.465 -0.1626  1.1031  0.6204
  985MOL0     C35806  11.569   9.818   3.325  0.6183  0.5565  0.1773
  985MOL0     C35807  11.690   9.795   3.235  0.0199 -0.6219 -0.6236
  985MOL0     C35808  11.672   9.876   3.101  0.3608  0.4393 -0.2516
  985MOL0     N35809  11.572   9.812   3.020  0.3180  0.0706  0.2646
  985MOL0     C35810  11.584   9.685   2.966  0.9408  1.0772  0.0444
  985MOL0     C35811  11.464   9.665   2.916  0.9043  0.5869  0.1930
  985MOL0     C35812  11.416   9.549   2.835  0.5442 -0.0662  1.5673
  985MOL0     C35813  11.267   9.561   2.805 -0.2125  1.1481  1.1693
  985MOL0     C35814  11.219   9.438   2.724  0.6144 -0.5812 -0.4151
  985MOL0     C35815  11.309   9.386   2.615  0.0490  0.7386 -0.9475
  985MOL0     O35816  11.284   9.453   2.494  0.0619 -0.2894 -0.1324
  985MOL0     C35817  11.381   9.464   2.396 -0.0376  0.1887 -0.2952
  985MOL0     C35818  11.366   9.564   2.300 -0.5025 -0.4405  0.0264
  985MOL0     C35819  11.454   9.580   2.191 -1.2271  0.1620 -0.3875
  985MOL0     C35820  11.422   9.683   2.093  0.5468 -0.1521  0.3544
  985MOL0     C35821  11.579   9.502   2.187 -0.1097  0.1608 -0.8826
  985MOL0     C35822  11.688   9.548   2.092  0.1974  0.0474  0.0842
  985MOL0     O35823  11.713   9.678   2.077 -0.0262 -0.4103 -0.0497
  985MOL0     C35824  11.802   9.713   1.980 -0.1654  0.4480  0.1873
  985MOL0     C35825  11.753   9.730   1.850 -0.2453  0.3274  0.2250
  985MOL0     C35826  11.829   9.748   1.739 -0.6274 -0.4998 -0.2281
  985MOL0     C35827  11.965   9.740   1.752 -0.3991  0.1004 -0.7338
  985MOL0     O35828  12.045   9.755   1.645 -0.4145 -0.0707 -1.2422
  985MOL0     C35829  12.162   9.835   1.659 -0.1016 -0.1695  0.2856
  985MOL0     C35830  12.237   9.866   1.531 -0.0564  0.1916 -0.7008
  985MOL0     C35831  12.276   9.745   1.460  0.0284  0.2933 -0.1478
  985MOL0     C35832  12.341   9.779   1.323  0.0659  0.5182 -0.8389
  985MOL0     C35833  12.433   9.676   1.284  0.0446 -0.4530  0.5692
  985MOL0     C35834  12.491   9.705   1.145 -0.3689  0.6188 -0.3877
  985MOL0     C35835  12.604   9.613   1.098  0.1302  0.5257  0.2533
  985MOL0     C35836  12.598   9.469   1.150 -0.1257 -0.5863 -0.1245
  985MOL0    Cl35837  12.463   9.369   1.080  0.1420  0.1170 -0.2440
  985MOL0     C35838  12.019   9.716   1.882 -1.2259 -0.2580 -0.0308
  985MOL0     C35839  11.942   9.703   2.000  0.5876  0.2769  0.1145
  985MOL0     O35840  11.739   9.458   2.025 -0.2292 -1.0027 -0.4148
  985MOL0     C35841  11.597   9.401   2.287 -0.4437 -0.7742  0.2217
  985MOL0     C35842  11.493   9.388   2.388  0.9329  0.0311 -0.1146
  985MOL0     N35843  11.381   9.770   2.938  0.1810 -0.1035  0.0177
  985MOL0     N35844  11.450   9.866   3.003 -0.0140 -0.3474  0.1664
  985MOL0     C35845  11.512   9.516   3.803 -0.2261  0.6995 -0.3127
  985MOL0     C35846  11.417   9.468   3.890  0.4647 -0.5258  0.2713
  985MOL0     C35847  11.210   9.273   4.236 -0.1720 -0.3349 -0.3025
  985MOL0     C35848  11.157   9.364   4.330  0.4883 -0.0656  0.4062
  985MOL0     C35849  11.070   9.332   4.431 -0.1407 -0.3781  0.3873
  985MOL0     C35850  11.040   9.195   4.467  0.4793 -0.3399 -1.0500
  985MOL0     O35851  10.953   9.153   4.563 -0.3105  0.6511 -0.1158
  985MOL0     C35852  10.883   9.251   4.635 -0.3058  0.1803 -1.1615
  985MOL0     C35853  10.807   9.189   4.749  0.4345 -0.1711  0.6437
  985MOL0     C35854  10.745   9.294   4.826 -0.2388 -0.4377 -1.0856
  985MOL0     C35855  10.685   9.239   4.951 -0.4171 -0.3440 -0.0595
  985MOL0     C35856  10.799   9.222   5.047 -0.3174  0.5273 -0.5209
  985MOL0     C35857  10.869   9.187   5.140 -0.3435 -0.7518 -0.9654
  985MOL0     C35858  11.099   9.105   4.380 -0.5828 -0.8305 -0.3933
  985MOL0     C35859  11.176   9.136   4.271 -1.2545 -0.3325 -0.1972
  985MOL0     C35860  11.225   9.019   4.187  0.2726 -0.0864  0.4132
  985MOL0     H35861  11.487   9.621   4.178 -0.6575 -0.8577  0.5688
  985MOL0     H35862  11.652   9.730   4.045 -0.9592  0.5521 -0.4760
  985MOL0     H35863  11.848   9.708   3.865 -1.3819 -1.5715 -0.0923
  985MOL0     H35864  11.726   9.833   3.885 -1.2026 -0.3239  0.4122
  985MOL0     H35865  11.912   9.908   3.714  1.1115 -1.9934  1.4098
  985MOL0     H35866  11.845   9.777   3.614 -3.0412 -2.0190  0.9624
  985MOL0     H35867  11.619   9.935   3.705 -0.4087  0.6970  0.2719
  985MOL0     H35868  11.736  10.047   3.678  1.5283 -0.3950 -1.0930
  985MOL0     H35869  11.606  10.024   3.497 -1.1630 -2.0994 -1.1280
  985MOL0     H35870  11.759   9.972   3.436 -1.6920  1.5224 -0.8643
  985MOL0     H35871  11.518   9.808   3.525  1.9736 -1.8806  3.9690
  985MOL0     H35872  11.675   9.730   3.488 -1.6671 -0.7944 -1.6430
  985MOL0     H35873  11.499   9.738   3.298  0.6828  1.0755 -1.7192
  985MOL0     H35874  11.536   9.920   3.303  1.2580  1.1197  1.7451
  985MOL0     H35875  11.701   9.689   3.210  1.4824 -0.5425 -0.4008
  985MOL0     H35876  11.784   9.836   3.273 -0.0259 -0.1700 -0.9858
  985MOL0     H35877  11.637   9.978   3.120 -4.4916 -1.2405  1.4118
  985MOL0     H35878  11.766   9.883   3.046  1.8683  0.2995  2.1794
  985MOL0     H35879  11.663   9.612   2.953  1.1576  1.5006 -1.1765
  985MOL0     H35880  11.439   9.458   2.891  1.3300 -0.4941  0.5649
  985MOL0     H35881  11.481   9.554   2.747  1.5235 -0.2952  2.2567
  985MOL0     H35882  11.213   9.579   2.898  0.3607  2.8692  1.2064
  985MOL0     H35883  11.241   9.648   2.744 -0.2817  0.7749  0.6516
  985MOL0     H35884  11.203   9.357   2.795  0.2378 -0.3027 -0.1790
  985MOL0     H35885  11.124   9.468   2.678  1.0751  1.1046 -0.3222
  985MOL0     H35886  11.411   9.367   2.648 -1.1620 -2.4514  1.5453
  985MOL0     H35887  11.265   9.286   2.603 -3.0175  1.4506  2.5667
  985MOL0     H35888  11.291   9.639   2.324  0.1543 -0.8965  4.0757
  985MOL0     H35889  11.321   9.719   2.113  0.4286 -1.7635  3.1498
  985MOL0     H35890  11.428   9.643   1.992 -0.5221  2.5298 -0.8854
  985MOL0     H35891  11.488   9.770   2.102  3.2907 -2.1207  0.5116
  985MOL0     H35892  11.646   9.747   1.844  0.1072  2.4438 -0.9161
  985MOL0     H35893  11.770   9.787   1.657 -1.4719  2.1467  1.4991
  985MOL0     H35894  12.131   9.932   1.699 -2.6236 -0.3538 -0.9914
  985MOL0     H35895  12.231   9.795   1.734 -0.5496 -1.4617  0.0490
  985MOL0     H35896  12.177   9.929   1.465  1.5866  2.0183 -0.5555
  985MOL0     H35897  12.333   9.910   1.562  0.1633 -1.9655  2.0168
  985MOL0     H35898  12.191   9.679   1.436 -0.6229  1.8323 -2.3304
  985MOL0     H35899  12.345   9.690   1.524  0.5492 -0.2354 -1.1336
  985MOL0     H35900  12.394   9.875   1.330 -1.5156  1.3138  0.8779
  985MOL0     H35901  12.255   9.787   1.256 -0.3788  0.5572 -0.2590
  985MOL0     H35902  12.506   9.676   1.365 -0.8428  0.2590  1.4026
  985MOL0     H35903  12.372   9.585   1.287 -2.0359  0.7098 -2.0371
  985MOL0     H35904  12.521   9.810   1.142 -2.0904  1.1036 -1.7057
  985MOL0     H35905  12.414   9.691   1.070  0.6993 -0.1201 -1.3831
  985MOL0     H35906  12.697   9.670   1.109 -0.0749  2.0132 -3.8514
  985MOL0     H35907  12.603   9.594   0.990  3.6921 -0.8331  0.3142
  985MOL0     H35908  12.582   9.466   1.258 -1.5430  1.4920 -0.2166
  985MOL0     H35909  12.689   9.411   1.130 -0.2455 -1.0057  0.4980
  985MOL0     H35910  12.127   9.708   1.884 -1.0044  2.0614  2.7773
  985MOL0     H35911  11.983   9.692   2.100  0.7873  2.0035  0.2515
  985MOL0     H35912  11.681   9.333   2.285 -1.0458 -1.5254 -0.0568
  985MOL0     H35913  11.509   9.306   2.457  1.5366 -0.0676 -0.3633
  985MOL0     H35914  11.501   9.492   3.698  0.9749  0.4439 -0.3917
  985MOL0     H35915  11.327   9.415   3.860 -1.1578  2.0785  0.1267
  985MOL0     H35916  11.156   9.472   4.320  0.4614 -0.2180 -1.5394
  985MOL0     H35917  11.026   9.408   4.496  0.3275  1.1986 -1.0723
  985MOL0     H35918  10.955   9.324   4.674  2.1729 -0.5791 -4.0061
  985MOL0     H35919  10.818   9.300   4.561 -2.2527 -1.0351 -0.3460
  985MOL0     H35920  10.879   9.136   4.812  0.6109  0.3410  0.8772
  985MOL0     H35921  10.739   9.117   4.703 -0.5200 -0.0069  1.7714
  985MOL0     H35922  10.808   9.380   4.851 -1.5475 -0.2668  2.1407
  985MOL0     H35923  10.665   9.348   4.774  0.2544  1.1535 -0.2736
  985MOL0     H35924  10.639   9.141   4.934 -0.4059 -0.1642 -1.2310
  985MOL0     H35925  10.618   9.312   4.997 -3.4431 -1.2730 -2.6213
  985MOL0     H35926  10.933   9.151   5.218 -0.6610 -3.3713 -1.8504
  985MOL0     H35927  11.094   9.001   4.408  0.1717  0.2498  4.7913
  985MOL0     H35928  11.194   9.028   4.082 -0.9970 -2.6554  0.4855
  985MOL0     H35929  11.334   9.009   4.188  0.5410  1.8724  3.6433
  985MOL0     H35930  11.185   8.920   4.210  2.9207 -1.2213  0.5318
  986MOL0     O35931   9.718   6.818   0.354  0.2826  0.5022 -0.1072
  986MOL0     C35932   9.622   6.883   0.333  0.5014  0.2812 -0.1846
  986MOL0     O35933   9.603   7.012   0.375  0.3693  0.1100 -1.5361
  986MOL0     C35934   9.657   7.046   0.493  0.1847 -1.0232 -0.0502
  986MOL0     C35935   9.686   7.182   0.504  0.1755  0.2129  0.3546
  986MOL0     C35936   9.709   7.251   0.618 -0.0196  0.1029  0.1761
  986MOL0     C35937   9.707   7.176   0.737 -0.5967  0.3310  0.0900
  986MOL0     O35938   9.727   7.240   0.857  0.5228  1.3768 -0.2204
  986MOL0     C35939   9.859   7.303   0.882 -0.3975 -0.3280  0.0677
  986MOL0     C35940   9.955   7.199   0.927 -0.2178  0.6042  0.4369
  986MOL0     C35941  10.080   7.277   0.980 -0.1194 -0.5680 -0.1889
  986MOL0     C35942  10.204   7.193   1.002 -0.8208  0.3395 -0.5221
  986MOL0     C35943  10.195   7.079   1.104 -0.5654  0.4714 -0.0502
  986MOL0     C35944  10.347   7.047   1.153  0.0960 -0.6789  0.2235
  986MOL0     C35945  10.344   6.924   1.239 -0.2972  1.5769  0.6852
  986MOL0     C35946  10.475   6.890   1.310  0.1327  0.2189  0.3592
  986MOL0     N35947  10.568   6.820   1.223  0.3211  0.5238  0.2742
  986MOL0     C35948  10.701   6.864   1.190  0.8658  0.4942 -0.1220
  986MOL0     C35949  10.757   6.762   1.119 -0.3453 -0.3594  0.6600
  986MOL0     C35950  10.900   6.742   1.081 -0.5525 -0.5001  0.4685
  986MOL0     C35951  10.981   6.664   1.187  0.8086  0.8769  0.2634
  986MOL0     C35952  11.121   6.636   1.128 -0.2428 -0.7842 -0.4474
  986MOL0     C35953  11.200   6.555   1.236 -0.2218  0.5620 -0.3127
  986MOL0     O35954  11.169   6.416   1.207  0.0199  0.4457  0.7197
  986MOL0     C35955  11.213   6.363   1.087  0.2612  0.3540 -0.3605
  986MOL0     C35956  11.345   6.321   1.069  0.8670  0.3883  0.5179
  986MOL0     C35957  11.385   6.259   0.951 -0.2514 -0.3367 -0.0852
  986MOL0     C35958  11.535   6.248   0.932 -0.5370 -0.4250 -0.2368
  986MOL0     C35959  11.287   6.226   0.855 -0.5179  0.1174 -0.1659
  986MOL0     C35960  11.311   6.136   0.732  0.0547 -0.3650 -0.0255
  986MOL0     O35961  11.433   6.112   0.682 -0.2823  0.2918 -0.1027
  986MOL0     C35962  11.436   6.019   0.584  0.3998  0.5165  1.0719
  986MOL0     C35963  11.364   6.031   0.465 -0.2613 -0.3460  0.0232
  986MOL0     C35964  11.399   5.954   0.349  0.0958 -0.3713 -0.0765
  986MOL0     C35965  11.486   5.841   0.362  0.7010 -0.0010 -0.9866
  986MOL0     O35966  11.486   5.744   0.271 -0.5041  0.1567  0.0470
  986MOL0     C35967  11.612   5.688   0.243 -0.0293  0.4239 -0.1856
  986MOL0     C35968  11.603   5.582   0.129 -0.3200  0.4969 -0.0813
  986MOL0     C35969  11.532   5.457   0.183  0.9417  0.3378 -0.6592
  986MOL0     C35970  11.412   5.423   0.095 -0.3108 -0.7394 -0.4773
  986MOL0     C35971  11.332   5.297   0.148  0.9754  0.4975 -0.7527
  986MOL0     C35972  11.423   5.183   0.183  0.0150 -1.5056 -0.0601
  986MOL0     C35973  11.340   5.050   0.201  0.3109  0.0633 -0.5194
  986MOL0     C35974  11.195   5.058   0.262 -0.8912  0.5040 -0.3323
  986MOL0    Cl35975  11.121   4.894   0.269  0.1430 -0.0736  0.4813
  986MOL0     C35976  11.542   5.821   0.495  1.1581 -0.8576 -0.2708
  986MOL0     C35977  11.527   5.909   0.600  0.6639 -0.9114  0.8222
  986MOL0     O35978  11.206   6.095   0.676 -0.6899 -0.6034 -0.1974
  986MOL0     C35979  11.154   6.270   0.876  0.1647  0.2271  0.2086
  986MOL0     C35980  11.124   6.337   0.989 -0.1219 -1.3382  0.8044
  986MOL0     N35981  10.663   6.661   1.106  0.1449  0.7618 -0.4714
  986MOL0     N35982  10.558   6.690   1.174  0.1863  0.1832 -1.1096
  986MOL0     C35983   9.690   7.037   0.739 -0.3220 -0.0495  0.5983
  986MOL0     C35984   9.657   6.970   0.613 -0.8220 -0.1082 -0.8649
  986MOL0     C35985   9.529   6.844   0.224 -0.0723 -0.4107 -1.0223
  986MOL0     C35986   9.444   6.937   0.161  0.7728 -0.3345 -0.1669
  986MOL0     C35987   9.349   6.904   0.063  1.0544 -0.4263  0.3649
  986MOL0     C35988   9.345   6.778   0.009  0.4533  0.2006  0.4925
  986MOL0     O35989   9.266   6.762  -0.107  0.1268  0.3942 -0.0241
  986MOL0     C35990   9.268   6.638  -0.183  0.1493  0.4771 -0.0061
  986MOL0     C35991   9.157   6.616  -0.275 -0.0199  0.3190  0.2826
  986MOL0     C35992   9.155   6.475  -0.339 -0.0720 -0.2743  0.4858
  986MOL0     C35993   9.049   6.449  -0.445 -0.2693 -0.2862 -0.0420
  986MOL0     C35994   9.044   6.557  -0.548  0.7539  0.0141 -1.0245
  986MOL0     C35995   9.020   6.643  -0.631  0.6730 -0.9619 -0.5989
  986MOL0     C35996   9.423   6.680   0.068  0.1899 -0.3421  0.5529
  986MOL0     C35997   9.519   6.712   0.173  0.1717  0.2194 -0.4205
  986MOL0     C35998   9.594   6.591   0.224 -0.9888  0.4220  0.5801
  986MOL0     H35999   9.690   7.233   0.408 -2.3884  0.6866  0.4237
  986MOL0     H36000   9.740   7.354   0.614  1.3185 -0.3261 -2.2795
  986MOL0     H36001   9.840   7.375   0.962 -2.3479 -0.8657  0.1480
  986MOL0     H36002   9.904   7.369   0.808 -1.0200  2.2242  1.8463
  986MOL0     H36003   9.935   7.138   1.016  0.3262 -2.4450 -1.3975
  986MOL0     H36004   9.980   7.136   0.841 -3.9244 -1.0953  0.4329
  986MOL0     H36005  10.103   7.356   0.908 -4.0174  0.7755 -0.1874
  986MOL0     H36006  10.046   7.318   1.075 -1.1819  0.0470 -0.8152
  986MOL0     H36007  10.240   7.152   0.907 -1.8089 -1.7984 -0.0268
  986MOL0     H36008  10.284   7.262   1.032 -2.7159  1.3038  2.8284
  986MOL0     H36009  10.160   6.994   1.044  2.1429 -1.2129  0.5996
  986MOL0     H36010  10.132   7.081   1.193  0.5200 -2.8842  0.9316
  986MOL0     H36011  10.416   7.039   1.069 -1.6217 -2.0428 -1.1447
  986MOL0     H36012  10.378   7.124   1.225 -3.2503  0.6454  0.4341
  986MOL0     H36013  10.305   6.834   1.189 -2.4708  2.2898  0.9825
  986MOL0     H36014  10.271   6.950   1.316 -2.3046  0.6996 -0.8216
  986MOL0     H36015  10.522   6.980   1.349  2.0470 -1.5896  2.4880
  986MOL0     H36016  10.468   6.831   1.401  0.5372  0.1992  0.3802
  986MOL0     H36017  10.751   6.957   1.213  2.6436 -0.5473  0.4264
  986MOL0     H36018  10.957   6.833   1.063  1.1354 -0.6972  4.0100
  986MOL0     H36019  10.894   6.681   0.990 -1.9289 -0.9622  0.8354
  986MOL0     H36020  10.992   6.722   1.279  3.8773  0.9515 -0.0274
  986MOL0     H36021  10.917   6.578   1.207  1.0204  0.2656 -1.5021
  986MOL0     H36022  11.122   6.593   1.028  0.5282 -4.2507  0.9047
  986MOL0     H36023  11.178   6.729   1.121  0.0035 -0.7399  1.4153
  986MOL0     H36024  11.305   6.573   1.212 -0.3015  0.2666 -0.9028
  986MOL0     H36025  11.182   6.567   1.343  0.7657 -0.4747 -0.0214
  986MOL0     H36026  11.411   6.342   1.153  3.4319 -2.3727 -0.6571
  986MOL0     H36027  11.585   6.345   0.928 -1.2718 -0.0093  0.3147
  986MOL0     H36028  11.573   6.184   0.852  0.6146  1.7862 -1.5525
  986MOL0     H36029  11.578   6.210   1.026 -1.7057 -0.6706  0.2202
  986MOL0     H36030  11.283   6.103   0.473 -0.0321 -0.1699  0.9522
  986MOL0     H36031  11.342   5.967   0.257  0.6292  0.0716 -0.3531
  986MOL0     H36032  11.684   5.762   0.207 -0.7654  0.8963 -0.7183
  986MOL0     H36033  11.663   5.650   0.332 -2.3003 -2.7613 -0.0788
  986MOL0     H36034  11.543   5.639   0.057 -0.7932 -0.3885 -0.4030
  986MOL0     H36035  11.701   5.557   0.086 -0.1421  1.0011  0.0198
  986MOL0     H36036  11.498   5.481   0.284 -0.9147  0.9619 -1.3896
  986MOL0     H36037  11.609   5.380   0.198  0.0093 -0.3890  0.6964
  986MOL0     H36038  11.440   5.395  -0.007  0.0849  0.4861 -0.7102
  986MOL0     H36039  11.345   5.509   0.089 -0.5719 -0.7666  1.3949
  986MOL0     H36040  11.296   5.332   0.245  2.6790  0.5507 -0.0938
  986MOL0     H36041  11.249   5.282   0.079 -0.4841 -0.7088  1.1463
  986MOL0     H36042  11.471   5.202   0.280  2.3654 -1.6329 -1.1411
  986MOL0     H36043  11.497   5.164   0.105  0.0998  0.2863 -0.4664
  986MOL0     H36044  11.402   4.985   0.263 -0.1303  0.8026  0.7411
  986MOL0     H36045  11.344   5.002   0.103 -0.9096  2.1088 -1.6415
  986MOL0     H36046  11.134   5.117   0.193 -0.5041 -1.0064 -2.0512
  986MOL0     H36047  11.183   5.119   0.352  1.7828  1.5199 -0.5739
  986MOL0     H36048  11.607   5.741   0.528  1.3928 -0.8293 -0.6509
  986MOL0     H36049  11.573   5.891   0.696 -2.0838 -1.3574  2.1560
  986MOL0     H36050  11.073   6.257   0.805  2.1206  1.5669 -2.4093
  986MOL0     H36051  11.021   6.368   1.002  0.3318  2.3427 -2.6319
  986MOL0     H36052   9.673   6.976   0.828  2.2550 -1.9337 -0.0680
  986MOL0     H36053   9.622   6.867   0.614 -1.5160  0.1076  0.8829
  986MOL0     H36054   9.452   7.044   0.181 -0.1102 -0.3766  0.4950
  986MOL0     H36055   9.290   6.978   0.010  0.2727  0.4842  2.3824
  986MOL0     H36056   9.364   6.621  -0.233 -0.4696  2.3498 -1.9873
  986MOL0     H36057   9.258   6.561  -0.107  0.6736 -0.9980 -1.3829
  986MOL0     H36058   9.161   6.686  -0.359  0.2073 -0.8889 -0.7406
  986MOL0     H36059   9.072   6.630  -0.207 -0.9149  0.9584 -0.9446
  986MOL0     H36060   9.249   6.451  -0.389  0.0065  1.0211 -0.0330
  986MOL0     H36061   9.134   6.410  -0.253 -2.4678 -0.2464  0.0068
  986MOL0     H36062   8.953   6.455  -0.391  2.1883 -0.5883  4.9938
  986MOL0     H36063   9.068   6.351  -0.489  1.8429  0.3317 -0.6033
  986MOL0     H36064   8.993   6.714  -0.707  0.9184 -1.6082 -1.3073
  986MOL0     H36065   9.428   6.581   0.023  2.9380  0.8598 -2.2009
  986MOL0     H36066   9.562   6.576   0.327 -0.2032  0.5673  0.8532
  986MOL0     H36067   9.577   6.501   0.164  1.8586  0.8180 -1.0132
  986MOL0     H36068   9.702   6.607   0.233 -1.1269  2.6687 -0.7968
  987MOL0     O36069   6.260  10.843   8.333  0.4898 -0.1753 -0.1321
  987MOL0     C36070   6.262  10.719   8.317  1.0705  0.2474 -0.9419
  987MOL0     O36071   6.358  10.629   8.370 -0.0827  0.2557 -0.3368
  987MOL0     C36072   6.457  10.691   8.446  0.4393 -0.1748  0.6648
  987MOL0     C36073   6.495  10.630   8.566  1.0644  0.3287  0.4116
  987MOL0     C36074   6.612  10.668   8.641 -0.1330  0.4689 -0.1025
  987MOL0     C36075   6.695  10.770   8.590 -0.0510  0.8683 -0.4419
  987MOL0     O36076   6.803  10.830   8.645 -0.2005  0.0464  0.3072
  987MOL0     C36077   6.862  10.778   8.760 -0.3789 -0.2246 -0.8866
  987MOL0     C36078   7.002  10.854   8.780  0.9835  0.6502  0.6700
  987MOL0     C36079   6.995  11.006   8.788  0.8982 -0.5179  0.6515
  987MOL0     C36080   7.132  11.056   8.745  0.3896 -0.6445  0.6207
  987MOL0     C36081   7.164  11.181   8.825  0.1114 -0.7681 -0.3038
  987MOL0     C36082   7.077  11.297   8.776  0.0769 -0.3973  0.3580
  987MOL0     C36083   7.133  11.439   8.816 -0.9654  0.2802 -0.6664
  987MOL0     C36084   7.143  11.460   8.963  0.1622  0.4286  0.0913
  987MOL0     N36085   7.188  11.598   8.992  0.7392 -0.7979 -0.5512
  987MOL0     C36086   7.312  11.649   9.021  0.6878  0.1025 -0.1465
  987MOL0     C36087   7.277  11.774   9.060 -0.3647 -0.2819  0.1483
  987MOL0     C36088   7.366  11.887   9.105 -0.0949 -0.7048 -1.1413
  987MOL0     C36089   7.519  11.862   9.100  1.0590 -0.2437  0.1348
  987MOL0     C36090   7.595  11.995   9.079  1.2245 -0.4005  0.2998
  987MOL0     C36091   7.745  11.972   9.106  0.6179  0.2557  0.2280
  987MOL0     O36092   7.826  12.089   9.096 -0.0641  0.4112  0.3318
  987MOL0     C36093   7.937  12.076   9.019  0.6215 -0.4939  0.1795
  987MOL0     C36094   7.937  12.039   8.885  0.4984 -0.6139  0.6842
  987MOL0     C36095   8.056  12.002   8.819 -0.8305  0.9058 -0.3355
  987MOL0     C36096   8.047  11.965   8.670 -0.6775 -0.0038 -0.7078
  987MOL0     C36097   8.180  12.011   8.890 -0.6208  0.4698  0.1432
  987MOL0     C36098   8.319  11.973   8.827  0.3115  0.0567 -0.6747
  987MOL0     O36099   8.310  11.927   8.705  0.0966 -0.4182 -0.0196
  987MOL0     C36100   8.429  11.900   8.627 -1.0222 -0.2508 -0.7220
  987MOL0     C36101   8.511  11.789   8.664  0.0190  0.1037 -0.2719
  987MOL0     C36102   8.627  11.752   8.588  0.0272  0.5574 -0.3973
  987MOL0     C36103   8.660  11.837   8.472  1.4587 -0.3817 -0.1387
  987MOL0     O36104   8.762  11.819   8.393 -0.4151  0.0986  0.1893
  987MOL0     C36105   8.810  11.681   8.373 -0.0899 -0.4068  0.1544
  987MOL0     C36106   8.905  11.685   8.246  0.6386 -0.4526  0.0522
  987MOL0     C36107   9.038  11.749   8.274 -0.0906 -0.7429  0.2084
  987MOL0     C36108   9.167  11.668   8.280 -0.6867 -0.3491  0.9214
  987MOL0     C36109   9.291  11.742   8.258 -1.0851  1.0148  0.0422
  987MOL0     C36110   9.288  11.790   8.108 -0.1774 -0.1025 -1.3517
  987MOL0     C36111   9.430  11.831   8.054 -0.6138  0.5401  0.8080
  987MOL0     C36112   9.416  11.858   7.898  0.3284  0.1153  0.4329
  987MOL0    Cl36113   9.344  11.716   7.811 -0.3196 -0.0742 -0.1962
  987MOL0     C36114   8.586  11.956   8.453  0.1189 -1.1689  0.2334
  987MOL0     C36115   8.465  11.985   8.521  0.1864  0.0998 -0.3526
  987MOL0     O36116   8.426  11.989   8.893 -0.6296 -0.0092 -0.2687
  987MOL0     C36117   8.183  12.060   9.024 -0.5940 -0.3352 -0.0691
  987MOL0     C36118   8.059  12.089   9.085 -0.7768 -0.1313  0.1234
  987MOL0     N36119   7.143  11.801   9.050 -0.1779 -0.9301  0.9015
  987MOL0     N36120   7.084  11.689   9.019 -0.4098  0.3283  0.4066
  987MOL0     C36121   6.664  10.817   8.461  0.5631 -0.4596 -0.2566
  987MOL0     C36122   6.543  10.791   8.402 -0.0158  0.2238  0.1399
  987MOL0     C36123   6.133  10.660   8.274  0.3904 -0.0846 -0.1461
  987MOL0     C36124   6.072  10.563   8.353  0.0973 -0.2522  0.3535
  987MOL0     C36125   5.955  10.503   8.328  0.9590 -1.0576  0.0057
  987MOL0     C36126   5.896  10.529   8.207 -0.5839  0.0032 -0.3810
  987MOL0     O36127   5.777  10.472   8.173  0.2581 -0.2159  0.3051
  987MOL0     C36128   5.664  10.511   8.255 -0.0401 -0.8347  0.4820
  987MOL0     C36129   5.590  10.649   8.217  1.1181 -1.1500 -0.1963
  987MOL0     C36130   5.535  10.639   8.075  0.0411  0.0702  0.2782
  987MOL0     C36131   5.429  10.735   8.030  0.4554 -0.0323 -0.5609
  987MOL0     C36132   5.464  10.880   8.058 -0.0108 -0.5814 -0.2812
  987MOL0     C36133   5.502  10.995   8.074 -0.3045  0.0047 -0.3166
  987MOL0     C36134   5.955  10.624   8.113 -0.6777 -0.1514  0.1562
  987MOL0     C36135   6.072  10.692   8.152  0.3838  0.9974 -0.2557
  987MOL0     C36136   6.141  10.789   8.062  0.4471 -0.5348  0.6104
  987MOL0     H36137   6.435  10.542   8.587 -0.1052 -0.2148 -4.2429
  987MOL0     H36138   6.637  10.608   8.727 -0.9448  0.5219  0.1765
  987MOL0     H36139   6.891  10.672   8.759 -1.0790 -0.5032  1.5495
  987MOL0     H36140   6.790  10.792   8.841  0.2295  2.0074 -0.6721
  987MOL0     H36141   7.053  10.813   8.868  2.4517  0.6041 -0.1720
  987MOL0     H36142   7.061  10.827   8.692 -2.6179  1.6208 -2.2711
  987MOL0     H36143   6.935  11.046   8.706  1.6314 -0.3455  0.1965
  987MOL0     H36144   6.956  11.057   8.877 -1.7470  1.8514 -1.6750
  987MOL0     H36145   7.207  10.984   8.779  0.8993 -1.4893 -2.0546
  987MOL0     H36146   7.147  11.067   8.637 -0.1581 -0.1203  0.5919
  987MOL0     H36147   7.267  11.216   8.819 -0.6085  1.5126 -0.4174
  987MOL0     H36148   7.154  11.155   8.931 -0.4284  0.4135 -0.0493
  987MOL0     H36149   7.074  11.295   8.667 -3.4016  0.4077  0.3377
  987MOL0     H36150   6.977  11.279   8.815  0.8577  0.5026  3.0203
  987MOL0     H36151   7.061  11.509   8.773 -2.1721 -0.3046  0.3233
  987MOL0     H36152   7.230  11.460   8.770 -2.0235  0.2915 -3.1043
  987MOL0     H36153   7.052  11.430   9.017  0.5884 -0.5287  0.2957
  987MOL0     H36154   7.223  11.400   9.008 -0.7236 -0.7973  0.0851
  987MOL0     H36155   7.406  11.595   9.022  1.2451  0.7579 -3.7300
  987MOL0     H36156   7.340  11.917   9.207  2.0915  1.7810 -1.2353
  987MOL0     H36157   7.350  11.974   9.041  0.3289  1.7463  1.9079
  987MOL0     H36158   7.549  11.813   9.193  2.4552  0.8340  0.2805
  987MOL0     H36159   7.550  11.803   9.014  0.2750 -1.8348  0.8971
  987MOL0     H36160   7.569  12.035   8.981 -2.1461  0.6671  1.4994
  987MOL0     H36161   7.568  12.075   9.148  1.7879  0.8678 -0.8915
  987MOL0     H36162   7.760  11.940   9.209 -2.3860 -2.3454  0.0187
  987MOL0     H36163   7.778  11.894   9.036  1.4151 -1.9056  2.8595
  987MOL0     H36164   7.849  12.032   8.822 -0.6596  0.3907  2.1166
  987MOL0     H36165   8.110  12.044   8.629 -1.2053  0.5817 -0.4179
  987MOL0     H36166   7.946  11.973   8.628 -1.0396 -1.4732 -0.1894
  987MOL0     H36167   8.085  11.871   8.631 -0.0452  0.9889 -2.6050
  987MOL0     H36168   8.476  11.727   8.745 -1.3640  1.2760  0.0674
  987MOL0     H36169   8.698  11.675   8.617 -0.9107 -1.1127 -2.2625
  987MOL0     H36170   8.866  11.649   8.461 -1.8585 -0.4308  1.3380
  987MOL0     H36171   8.717  11.623   8.371 -1.3057  1.4250  0.4357
  987MOL0     H36172   8.929  11.582   8.216  0.6658 -0.6762  0.8157
  987MOL0     H36173   8.852  11.742   8.169  1.1825  2.6833  1.8451
  987MOL0     H36174   9.022  11.804   8.367  0.0334  1.2849 -0.9035
  987MOL0     H36175   9.044  11.817   8.189 -0.6563  0.3734  1.0359
  987MOL0     H36176   9.146  11.582   8.216 -2.3740  0.4157  0.3882
  987MOL0     H36177   9.175  11.625   8.380  0.0340  1.0558  1.4887
  987MOL0     H36178   9.284  11.833   8.318  1.1686 -0.3116  2.5601
  987MOL0     H36179   9.376  11.679   8.288 -1.5819  1.2025  2.0357
  987MOL0     H36180   9.218  11.870   8.079 -2.7767 -1.0159  1.7800
  987MOL0     H36181   9.257  11.706   8.046 -1.8056  1.1458 -2.3285
  987MOL0     H36182   9.496  11.745   8.071 -1.8006 -0.5603  0.0315
  987MOL0     H36183   9.472  11.917   8.106 -0.9326  0.4837  1.1663
  987MOL0     H36184   9.516  11.880   7.861 -0.1401 -1.6642 -2.1084
  987MOL0     H36185   9.342  11.936   7.877 -0.8477 -1.3486 -1.1247
  987MOL0     H36186   8.616  12.027   8.376 -0.4433 -2.0063 -0.7901
  987MOL0     H36187   8.397  12.069   8.511  0.5844  0.6561  1.4257
  987MOL0     H36188   8.276  12.066   9.080  1.6740 -3.6771 -3.0407
  987MOL0     H36189   8.067  12.109   9.191  0.6091  0.1361 -0.0075
  987MOL0     H36190   6.726  10.891   8.413  1.0077 -0.4905  0.2614
  987MOL0     H36191   6.523  10.830   8.302 -4.7537  0.9927  1.1356
  987MOL0     H36192   6.120  10.532   8.446 -1.2524  1.4914  1.7207
  987MOL0     H36193   5.903  10.450   8.408 -3.5619  1.7746 -0.7198
  987MOL0     H36194   5.583  10.439   8.238 -2.0643  1.4175 -0.1010
  987MOL0     H36195   5.691  10.503   8.361 -2.1136 -1.3401  1.0310
  987MOL0     H36196   5.656  10.736   8.223  0.9415 -0.5940 -3.9254
  987MOL0     H36197   5.502  10.664   8.281 -1.6218  1.6334 -4.0985
  987MOL0     H36198   5.628  10.651   8.020  0.8551 -2.8354  0.8579
  987MOL0     H36199   5.501  10.537   8.050 -2.4133  0.9237 -0.1626
  987MOL0     H36200   5.336  10.716   8.084  0.4183 -1.5509 -1.1159
  987MOL0     H36201   5.413  10.736   7.922  0.1113  0.9400 -0.5073
  987MOL0     H36202   5.538  11.096   8.072 -1.2138  0.3595  0.4100
  987MOL0     H36203   5.911  10.641   8.015  1.9516 -1.0615 -1.2612
  987MOL0     H36204   6.127  10.893   8.091 -0.3327 -0.7921  1.2154
  987MOL0     H36205   6.247  10.763   8.052  0.5410  0.6405 -3.1392
  987MOL0     H36206   6.100  10.770   7.962  3.0650 -0.8055 -0.4946
  988MOL0     O36207   9.226   8.281  10.386  0.0091  0.1350 -0.1041
  988MOL0     C36208   9.280   8.238  10.493 -0.0341  0.8640  0.4575
  988MOL0     O36209   9.360   8.123  10.504  0.0497  0.3228 -0.9148
  988MOL0     C36210   9.415   8.074  10.384 -0.7905  0.2771  0.0067
  988MOL0     C36211   9.545   8.101  10.338  0.3913 -1.1753 -0.5209
  988MOL0     C36212   9.585   8.062  10.209  0.2331 -0.5105 -0.6376
  988MOL0     C36213   9.492   7.998  10.128 -0.6965  0.4529  0.6344
  988MOL0     O36214   9.513   7.991   9.994  0.1835  0.1691  0.4861
  988MOL0     C36215   9.401   7.995   9.898 -0.0074  0.1736 -0.2868
  988MOL0     C36216   9.457   8.031   9.763 -0.4692 -0.0050  0.3932
  988MOL0     C36217   9.567   7.934   9.709  0.3609  0.4092  0.0638
  988MOL0     C36218   9.618   7.986   9.568 -0.2600  0.6167 -0.4063
  988MOL0     C36219   9.683   7.868   9.493 -0.0510 -2.1513  0.0126
  988MOL0     C36220   9.794   7.788   9.576  0.5296 -0.1030 -0.6685
  988MOL0     C36221   9.763   7.643   9.530  0.1272  0.3591 -0.9424
  988MOL0     C36222   9.865   7.555   9.603  1.0733 -0.7864  0.2318
  988MOL0     N36223   9.869   7.421   9.560 -0.0225 -0.4001 -0.4101
  988MOL0     C36224   9.984   7.361   9.524 -0.1920  0.7472  0.0102
  988MOL0     C36225   9.943   7.234   9.500  0.6071 -1.0095 -0.3116
  988MOL0     C36226  10.009   7.115   9.439  0.2088 -0.8768  0.4048
  988MOL0     C36227   9.998   7.118   9.285 -0.5061  0.0099  0.6295
  988MOL0     C36228  10.074   6.994   9.221  0.3486  0.0157  0.1776
  988MOL0     C36229  10.227   7.003   9.246 -0.2671 -0.6533 -0.6760
  988MOL0     O36230  10.296   6.934   9.145 -0.4752  0.3022 -0.4136
  988MOL0     C36231  10.417   6.966   9.114  0.6575 -0.2230 -0.2507
  988MOL0     C36232  10.516   7.008   9.203 -0.3377 -0.2364 -0.4937
  988MOL0     C36233  10.649   7.029   9.156  0.6685 -0.7355  0.2968
  988MOL0     C36234  10.760   7.081   9.254  0.3642  0.0680  0.5203
  988MOL0     C36235  10.684   7.004   9.017  0.3123 -0.5266 -1.0253
  988MOL0     C36236  10.816   7.029   8.969 -0.0585 -0.2894 -0.7493
  988MOL0     O36237  10.920   6.964   9.035  0.0661  0.7514  0.1015
  988MOL0     C36238  11.044   6.989   9.012 -0.0782 -0.2072 -0.2133
  988MOL0     C36239  11.094   6.933   8.897 -0.3460  0.3537  0.7416
  988MOL0     C36240  11.230   6.955   8.857 -0.2535 -0.5846 -0.4858
  988MOL0     C36241  11.313   7.032   8.943 -0.3818  0.2623 -0.2143
  988MOL0     O36242  11.438   7.050   8.897 -0.0464 -0.2218  0.8289
  988MOL0     C36243  11.520   7.154   8.958  0.2685 -0.3596 -0.3428
  988MOL0     C36244  11.662   7.163   8.901 -0.5674 -0.0795 -0.1755
  988MOL0     C36245  11.729   7.015   8.896 -0.2034 -0.1710  0.3654
  988MOL0     C36246  11.778   6.953   9.029  0.0599  0.7242 -0.3470
  988MOL0     C36247  11.906   6.877   9.016 -0.1746 -0.3042 -0.2527
  988MOL0     C36248  11.899   6.755   8.921  0.6745 -0.0025  1.3581
  988MOL0     C36249  12.006   6.648   8.954  0.0505  0.2552 -0.2305
  988MOL0     C36250  11.946   6.532   9.040  0.0875 -0.0619  0.4827
  988MOL0    Cl36251  11.893   6.593   9.202 -0.1200  0.1594 -0.4189
  988MOL0     C36252  11.264   7.078   9.064 -0.3687 -0.2934 -0.1620
  988MOL0     C36253  11.128   7.063   9.100  0.1918  0.1543 -0.4881
  988MOL0     O36254  10.818   7.130   8.893  0.6897  0.8219 -0.3126
  988MOL0     C36255  10.580   6.948   8.933 -0.1929  0.2552 -0.2301
  988MOL0     C36256  10.450   6.932   8.981  0.7865 -1.0234  0.0270
  988MOL0     N36257   9.803   7.229   9.515  0.7407  0.3387 -0.5486
  988MOL0     N36258   9.761   7.336   9.562 -0.5652 -0.5298 -0.4236
  988MOL0     C36259   9.360   7.962  10.178 -1.0501 -0.0371  0.4785
  988MOL0     C36260   9.322   8.003  10.294 -0.0587  0.4049 -0.2513
  988MOL0     C36261   9.251   8.325  10.610  0.3122  0.4453 -0.3127
  988MOL0     C36262   9.158   8.437  10.613 -0.3336 -1.0178 -0.1851
  988MOL0     C36263   9.142   8.510  10.730 -0.0374 -0.2996  1.7819
  988MOL0     C36264   9.230   8.496  10.841  0.1894 -0.3686 -0.0439
  988MOL0     O36265   9.215   8.581  10.939  0.4131  0.2178  0.1862
  988MOL0     C36266   9.172   8.521  11.065  0.1370 -0.2820 -0.6177
  988MOL0     C36267   9.018   8.482  11.063 -0.2740  0.0636  0.3959
  988MOL0     C36268   8.976   8.410  11.193 -0.2890 -0.5523 -0.1260
  988MOL0     C36269   8.839   8.458  11.246 -0.1868  0.5136  0.0297
  988MOL0     C36270   8.719   8.433  11.166 -0.5833  0.3311 -0.2129
  988MOL0     C36271   8.624   8.417  11.089 -0.5535  0.4269 -0.0307
  988MOL0     C36272   9.332   8.397  10.837  0.0256 -0.0936 -0.5732
  988MOL0     C36273   9.341   8.316  10.726  0.3409  0.2971 -0.3874
  988MOL0     C36274   9.451   8.214  10.742 -0.4589  0.1934  0.3302
  988MOL0     H36275   9.617   8.148  10.404 -2.0934  0.3052  1.3198
  988MOL0     H36276   9.684   8.100  10.190  1.9550 -0.5839  5.9385
  988MOL0     H36277   9.326   8.066   9.935 -0.3095 -0.8732  1.1686
  988MOL0     H36278   9.335   7.909   9.890 -1.8651  0.9894  3.6438
  988MOL0     H36279   9.369   8.030   9.699 -1.3793  0.2023  1.5948
  988MOL0     H36280   9.489   8.135   9.753  0.9760 -0.4344  0.2763
  988MOL0     H36281   9.645   7.938   9.786  0.3687  0.3567  0.0575
  988MOL0     H36282   9.528   7.833   9.693  0.9434  0.3074 -0.7830
  988MOL0     H36283   9.534   8.006   9.502 -1.0930 -2.3237 -0.3978
  988MOL0     H36284   9.689   8.068   9.580 -0.3073  0.8280 -1.5043
  988MOL0     H36285   9.730   7.899   9.399  0.4466 -2.9178  0.0042
  988MOL0     H36286   9.601   7.802   9.463 -0.6894 -0.7581 -1.4174
  988MOL0     H36287   9.900   7.812   9.567  0.4615  1.3224  1.4814
  988MOL0     H36288   9.764   7.778   9.681 -1.3377 -3.5499 -1.3644
  988MOL0     H36289   9.780   7.626   9.423  1.2445  1.0195 -0.8833
  988MOL0     H36290   9.669   7.597   9.560  0.5010 -1.5163 -2.4731
  988MOL0     H36291   9.963   7.596   9.580  0.9400  1.4344  3.0069
  988MOL0     H36292   9.852   7.549   9.712 -1.9689  0.4919  0.0460
  988MOL0     H36293  10.082   7.403   9.503  0.4905 -0.4319  0.7154
  988MOL0     H36294   9.953   7.027   9.473 -1.1303 -0.0828  0.3167
  988MOL0     H36295  10.113   7.122   9.473 -0.8446 -0.1368  3.8929
  988MOL0     H36296   9.892   7.100   9.267 -0.5865 -0.4412  1.4936
  988MOL0     H36297  10.023   7.212   9.235 -0.0558 -0.1416  0.5601
  988MOL0     H36298  10.033   6.899   9.256  1.8320 -0.8380 -0.2993
  988MOL0     H36299  10.046   7.002   9.116 -2.4319 -1.8653  0.6749
  988MOL0     H36300  10.255   7.108   9.235 -1.3384 -0.3830 -0.9914
  988MOL0     H36301  10.262   6.950   9.334  1.9706 -1.3700 -1.9085
  988MOL0     H36302  10.493   7.020   9.309 -0.6226  0.6060 -0.6457
  988MOL0     H36303  10.713   7.099   9.351  1.2491 -2.7584  1.5733
  988MOL0     H36304  10.804   7.177   9.226 -1.9122  1.2356  0.7780
  988MOL0     H36305  10.835   7.003   9.271  0.0290 -0.2695  0.4479
  988MOL0     H36306  11.029   6.864   8.845  3.2013 -1.2862 -1.9340
  988MOL0     H36307  11.257   6.944   8.752 -1.5772  6.5839 -2.1637
  988MOL0     H36308  11.486   7.254   8.931  3.0760  0.3458 -1.6002
  988MOL0     H36309  11.531   7.133   9.065  2.5972 -3.4829 -1.0458
  988MOL0     H36310  11.656   7.196   8.796 -2.9952 -1.3437 -0.5106
  988MOL0     H36311  11.722   7.233   8.960  1.3350  2.1428 -4.2994
  988MOL0     H36312  11.821   7.033   8.840 -0.4638  1.1583  0.3314
  988MOL0     H36313  11.672   6.939   8.842  0.6228  0.7349 -1.9413
  988MOL0     H36314  11.703   6.883   9.067  0.9339  0.7754  1.5533
  988MOL0     H36315  11.782   7.033   9.104 -1.1377  2.3591 -1.9138
  988MOL0     H36316  11.982   6.947   8.980 -0.3485 -0.3431 -0.6999
  988MOL0     H36317  11.936   6.841   9.114 -2.1698  1.3077  1.0436
  988MOL0     H36318  11.929   6.787   8.820  2.7689 -0.2478  1.8497
  988MOL0     H36319  11.803   6.703   8.916  0.5113  0.4224 -0.7167
  988MOL0     H36320  12.102   6.683   8.992  0.4314 -0.9024 -0.1078
  988MOL0     H36321  12.046   6.594   8.868 -0.5887 -3.1459  1.4493
  988MOL0     H36322  12.021   6.452   9.049 -0.7481 -1.1523 -1.5783
  988MOL0     H36323  11.868   6.479   8.984  0.3671 -0.6603  0.6423
  988MOL0     H36324  11.329   7.132   9.132 -1.9719  3.2020 -1.2038
  988MOL0     H36325  11.084   7.108   9.188 -2.2294 -1.4883 -0.7623
  988MOL0     H36326  10.603   6.934   8.828  1.4206 -0.4181  0.1685
  988MOL0     H36327  10.363   6.918   8.917 -0.9321 -0.0703  2.0351
  988MOL0     H36328   9.296   7.902  10.115 -0.9471 -1.6554  1.8422
  988MOL0     H36329   9.224   7.991  10.338 -0.6491  0.4194 -1.5026
  988MOL0     H36330   9.109   8.457  10.519  0.4376  3.3043  0.0762
  988MOL0     H36331   9.078   8.597  10.725  2.7834  1.8785  0.1221
  988MOL0     H36332   9.231   8.432  11.086  1.8811  1.2095  1.1886
  988MOL0     H36333   9.203   8.585  11.148  3.4869  0.6978 -2.4612
  988MOL0     H36334   8.991   8.419  10.977  1.8467 -3.0263  1.8023
  988MOL0     H36335   8.968   8.579  11.056  2.4293  1.5665  0.3519
  988MOL0     H36336   8.989   8.302  11.181  1.8672 -0.3562  0.1154
  988MOL0     H36337   9.046   8.443  11.270  2.6255 -3.3784 -1.3222
  988MOL0     H36338   8.836   8.567  11.257  1.9512  0.5606  0.5349
  988MOL0     H36339   8.826   8.409  11.343 -0.0726 -3.0561 -1.5997
  988MOL0     H36340   8.555   8.396  11.010  0.0674  2.8295 -1.3186
  988MOL0     H36341   9.389   8.378  10.927  1.1768  0.7233 -1.1007
  988MOL0     H36342   9.522   8.220  10.659  0.6695 -4.3267  0.7090
  988MOL0     H36343   9.503   8.225  10.838  0.2433  0.8158 -0.1092
  988MOL0     H36344   9.412   8.112  10.736 -0.2398  0.0950  0.5491
  989MOL0     O36345  10.009   9.516   3.201 -0.2464  0.6478  0.1286
  989MOL0     C36346   9.999   9.636   3.218 -0.1987  0.2400 -0.3949
  989MOL0     O36347   9.889   9.697   3.268  0.3312  0.9873 -0.7170
  989MOL0     C36348   9.780   9.617   3.307  0.3300 -0.5648 -0.4234
  989MOL0     C36349   9.733   9.619   3.435  0.1104 -0.4379  0.8362
  989MOL0     C36350   9.634   9.539   3.480  1.3168 -0.1716 -0.5267
  989MOL0     C36351   9.568   9.456   3.385 -0.8297 -0.1332 -0.4231
  989MOL0     O36352   9.461   9.377   3.420 -0.7069  0.4719  0.5553
  989MOL0     C36353   9.438   9.361   3.560  0.6861  1.1501  0.2100
  989MOL0     C36354   9.344   9.236   3.572 -0.9123 -0.6996  0.6509
  989MOL0     C36355   9.203   9.280   3.531  0.4683  0.1383  0.1491
  989MOL0     C36356   9.094   9.169   3.556 -0.3485  0.1241  1.4573
  989MOL0     C36357   9.092   9.107   3.706  0.1305 -0.4828 -0.0894
  989MOL0     C36358   8.994   8.984   3.725  0.7245 -0.0180  0.5636
  989MOL0     C36359   8.975   8.930   3.869 -0.1102  0.2003 -0.5119
  989MOL0     C36360   8.872   8.810   3.868 -0.0516  0.0408 -0.3346
  989MOL0     N36361   8.928   8.673   3.852  0.1126 -0.3300  0.1281
  989MOL0     C36362   8.992   8.626   3.741  0.6366  0.4946  0.1241
  989MOL0     C36363   8.986   8.497   3.755  0.2442 -0.7757  1.1481
  989MOL0     C36364   9.048   8.404   3.653  0.2803 -0.1675  0.9706
  989MOL0     C36365   9.167   8.325   3.716 -0.3819 -0.4179  0.5197
  989MOL0     C36366   9.218   8.233   3.602  0.2808  0.1650 -0.8458
  989MOL0     C36367   9.321   8.120   3.643  0.5325 -0.7258  0.3359
  989MOL0     O36368   9.450   8.172   3.663 -0.8836 -0.1775  0.1328
  989MOL0     C36369   9.553   8.080   3.662 -0.0823  0.1935  0.4863
  989MOL0     C36370   9.680   8.122   3.654  0.4183 -0.6713 -0.4884
  989MOL0     C36371   9.785   8.032   3.659 -0.2994 -0.0274 -0.1685
  989MOL0     C36372   9.923   8.095   3.638 -0.2496  0.0644 -0.1323
  989MOL0     C36373   9.768   7.889   3.667  0.7687 -0.5060  0.7683
  989MOL0     C36374   9.875   7.786   3.673  0.1202  0.1530 -0.2232
  989MOL0     O36375   9.854   7.655   3.667 -0.5540  0.2099  0.1907
  989MOL0     C36376   9.955   7.572   3.671 -0.9749  0.4366 -0.4977
  989MOL0     C36377  10.077   7.581   3.613  0.6479 -0.3618  0.5564
  989MOL0     C36378  10.181   7.480   3.638 -0.0207  0.1268 -0.0258
  989MOL0     C36379  10.147   7.366   3.714 -0.7277 -0.0279 -0.3581
  989MOL0     O36380  10.246   7.265   3.730 -0.3637 -0.1670  0.4155
  989MOL0     C36381  10.225   7.146   3.645  0.0101 -0.2633  0.0220
  989MOL0     C36382  10.359   7.102   3.595  0.1219 -0.1446  0.4507
  989MOL0     C36383  10.358   7.002   3.478  0.2555 -0.5091 -0.4776
  989MOL0     C36384  10.292   6.866   3.501  0.0686 -0.8090 -0.4453
  989MOL0     C36385  10.332   6.751   3.406  0.6434 -0.4238  0.4734
  989MOL0     C36386  10.289   6.777   3.257 -0.2810 -0.0856 -0.5627
  989MOL0     C36387  10.314   6.668   3.151  0.1292  0.2511 -0.4977
  989MOL0     C36388  10.448   6.622   3.137  0.0136  0.1165 -0.7664
  989MOL0    Cl36389  10.555   6.738   3.067  0.8786 -0.3334 -0.1530
  989MOL0     C36390  10.016   7.362   3.774 -1.2769  0.4345 -0.0260
  989MOL0     C36391   9.922   7.464   3.750  0.4791  0.1202 -0.6346
  989MOL0     O36392   9.979   7.837   3.713 -0.8809  0.1537  0.6467
  989MOL0     C36393   9.630   7.848   3.670 -0.6132  0.0273  0.1328
  989MOL0     C36394   9.528   7.939   3.666  1.1058  0.1747  0.4151
  989MOL0     N36395   8.918   8.453   3.862 -0.4669  0.3577 -0.4050
  989MOL0     N36396   8.884   8.565   3.920  0.0007 -0.1940  0.0607
  989MOL0     C36397   9.612   9.460   3.248  0.0914  0.0139  0.0213
  989MOL0     C36398   9.717   9.538   3.202  0.2497  0.2584  0.2096
  989MOL0     C36399  10.114   9.715   3.174 -0.6466  0.6852 -0.2103
  989MOL0     C36400  10.097   9.852   3.129 -0.2702 -0.0014 -0.2837
  989MOL0     C36401  10.204   9.937   3.087  0.0949 -0.7564  0.0118
  989MOL0     C36402  10.334   9.894   3.103 -0.7010 -0.7965  0.0047
  989MOL0     O36403  10.443   9.979   3.076 -0.9926  0.5722  0.1995
  989MOL0     C36404  10.490  10.043   3.196  0.6298 -0.9371 -0.4421
  989MOL0     C36405  10.589  10.153   3.152 -0.2218  0.1332 -0.6059
  989MOL0     C36406  10.621  10.239   3.268  0.3941  0.0625 -0.3185
  989MOL0     C36407  10.750  10.312   3.236  0.8436 -0.4954  0.4361
  989MOL0     C36408  10.715  10.411   3.137  0.3378 -0.7317 -0.5286
  989MOL0     C36409  10.701  10.503   3.063 -0.1480  0.4792 -0.2237
  989MOL0     C36410  10.355   9.757   3.137 -0.2749  1.2070  0.0374
  989MOL0     C36411  10.249   9.671   3.179  0.0838 -0.5184 -0.0316
  989MOL0     C36412  10.295   9.544   3.248  0.2460  0.8768 -0.1352
  989MOL0     H36413   9.783   9.698   3.489  1.0248  1.1797 -2.1509
  989MOL0     H36414   9.600   9.537   3.583  1.0028 -3.5619 -0.5744
  989MOL0     H36415   9.389   9.447   3.607 -0.9234  1.1574 -1.3966
  989MOL0     H36416   9.532   9.335   3.608 -0.7789 -2.8938  1.3765
  989MOL0     H36417   9.392   9.169   3.500  0.7172 -1.0804  2.0356
  989MOL0     H36418   9.350   9.192   3.672  1.4296  0.8798  1.2861
  989MOL0     H36419   9.164   9.366   3.586 -0.0746 -0.2680  0.4125
  989MOL0     H36420   9.205   9.319   3.429 -1.7987  1.0284  0.3859
  989MOL0     H36421   8.993   9.186   3.517 -0.0118  1.2450  1.0274
  989MOL0     H36422   9.126   9.082   3.499 -0.7952  1.3224 -0.7559
  989MOL0     H36423   9.074   9.194   3.769 -0.9622  1.1021 -2.4454
  989MOL0     H36424   9.190   9.069   3.738  0.6225  1.0701  0.3084
  989MOL0     H36425   8.900   9.029   3.692  2.1169  2.5740 -0.1768
  989MOL0     H36426   9.047   8.921   3.653 -0.9505  2.6860 -3.3458
  989MOL0     H36427   8.939   9.009   3.935 -0.7533 -3.2837  3.7411
  989MOL0     H36428   9.066   8.898   3.921 -1.8806  0.1136  2.7312
  989MOL0     H36429   8.822   8.812   3.965 -1.0593  3.2821 -0.7988
  989MOL0     H36430   8.789   8.819   3.798 -1.3667 -1.0157  1.0128
  989MOL0     H36431   9.033   8.676   3.654 -4.6678 -1.4553 -4.0884
  989MOL0     H36432   9.079   8.466   3.569  2.1865 -0.6067  1.3121
  989MOL0     H36433   8.976   8.332   3.611  0.7721 -0.7712  1.1556
  989MOL0     H36434   9.250   8.388   3.749 -0.2120  0.6066 -1.6457
  989MOL0     H36435   9.131   8.261   3.797  0.1197 -2.8853 -1.0916
  989MOL0     H36436   9.131   8.174   3.570 -0.6645  0.9956  0.1023
  989MOL0     H36437   9.254   8.298   3.522  1.5346  0.8899  0.2594
  989MOL0     H36438   9.278   8.074   3.732 -0.8327 -2.2269 -1.0446
  989MOL0     H36439   9.312   8.049   3.560 -0.8563 -1.3378  0.9854
  989MOL0     H36440   9.692   8.229   3.666 -0.2659 -0.7397  1.0572
  989MOL0     H36441   9.905   8.202   3.623  0.3883  0.3304  0.8628
  989MOL0     H36442   9.969   8.061   3.545 -1.4001  0.1917 -0.7786
  989MOL0     H36443   9.995   8.073   3.717 -1.0332 -3.1323 -0.1813
  989MOL0     H36444  10.092   7.661   3.542 -2.2996 -0.8521 -0.7571
  989MOL0     H36445  10.269   7.485   3.575  0.6101  0.1482  0.8485
  989MOL0     H36446  10.177   7.066   3.702  1.8733 -1.8483 -0.5493
  989MOL0     H36447  10.159   7.162   3.559 -0.6708 -1.6552  0.2491
  989MOL0     H36448  10.400   7.194   3.552  1.5697  0.0091  2.0379
  989MOL0     H36449  10.420   7.080   3.683  0.5754  0.6011  0.3327
  989MOL0     H36450  10.464   6.976   3.469  1.3129  1.6670  3.2551
  989MOL0     H36451  10.313   7.039   3.387 -1.3048  0.7456  0.7559
  989MOL0     H36452  10.185   6.884   3.508  0.1575 -0.8791  1.7206
  989MOL0     H36453  10.307   6.830   3.603 -3.4119 -0.4583  0.2931
  989MOL0     H36454  10.439   6.738   3.425  0.7912  3.1702  3.1973
  989MOL0     H36455  10.285   6.664   3.454 -1.1763  0.2944  0.1101
  989MOL0     H36456  10.339   6.870   3.227  0.4659 -1.6643 -4.7490
  989MOL0     H36457  10.181   6.793   3.251  0.0089  2.0060 -1.1051
  989MOL0     H36458  10.283   6.711   3.056 -0.4386  0.7194 -0.1103
  989MOL0     H36459  10.257   6.577   3.171 -1.4098  1.8880  3.9653
  989MOL0     H36460  10.443   6.532   3.076 -0.6121  0.3520 -1.0711
  989MOL0     H36461  10.488   6.598   3.237  1.1611  0.9826 -0.9943
  989MOL0     H36462   9.999   7.279   3.841  0.1664 -0.5892 -0.8744
  989MOL0     H36463   9.823   7.465   3.795  0.5984  0.8247 -0.3829
  989MOL0     H36464   9.601   7.747   3.697  0.0179 -0.0522  0.5312
  989MOL0     H36465   9.425   7.908   3.655  0.5318  2.2875 -0.9164
  989MOL0     H36466   9.548   9.406   3.178  0.2367  1.8658 -1.6162
  989MOL0     H36467   9.740   9.550   3.097  1.7887  0.7027  0.5696
  989MOL0     H36468   9.995   9.887   3.117  0.6931  3.6069  0.6296
  989MOL0     H36469  10.166  10.033   3.051 -2.3216 -1.4047  0.6461
  989MOL0     H36470  10.401  10.084   3.244  1.6224 -0.4721  1.0375
  989MOL0     H36471  10.541   9.975   3.265  1.8742  1.9625  1.7008
  989MOL0     H36472  10.533  10.208   3.075 -1.3634  2.8849  2.0296
  989MOL0     H36473  10.679  10.112   3.105 -0.2291 -0.5080 -0.0782
  989MOL0     H36474  10.537  10.307   3.285 -1.3020 -1.8222 -0.7008
  989MOL0     H36475  10.638  10.180   3.359 -0.5334 -0.6912 -0.6151
  989MOL0     H36476  10.830  10.248   3.198  1.7758  0.2097  1.1561
  989MOL0     H36477  10.779  10.366   3.327 -1.0755 -3.9956  3.4369
  989MOL0     H36478  10.685  10.594   3.009 -0.5515  0.7079  0.2803
  989MOL0     H36479  10.460   9.735   3.153 -0.2280 -0.5395 -2.1937
  989MOL0     H36480  10.401   9.550   3.271 -0.3798  3.3264  2.5901
  989MOL0     H36481  10.230   9.519   3.333 -1.0203  0.2124 -1.2475
  989MOL0     H36482  10.276   9.455   3.186  0.2905  0.8900 -0.1679
  990MOL0     O36483  11.394   0.942   3.852  0.4674 -1.0767  0.2373
  990MOL0     C36484  11.315   0.858   3.814  0.7500  0.0371 -0.4084
  990MOL0     O36485  11.337   0.781   3.703 -0.3823 -0.0139 -0.6778
  990MOL0     C36486  11.444   0.797   3.615 -0.0277 -0.4764 -0.9874
  990MOL0     C36487  11.492   0.681   3.542  0.2959 -0.4027  0.1579
  990MOL0     C36488  11.599   0.688   3.453 -0.4433  0.4407  0.0185
  990MOL0     C36489  11.650   0.809   3.420 -1.1103  0.2736  0.1137
  990MOL0     O36490  11.755   0.801   3.329 -0.3294  0.2813  0.4342
  990MOL0     C36491  11.740   0.883   3.216  0.0273 -0.2111  0.6331
  990MOL0     C36492  11.719   0.787   3.095 -0.1704 -0.8052  0.2869
  990MOL0     C36493  11.846   0.716   3.056  0.3677  1.3087 -0.2663
  990MOL0     C36494  11.844   0.656   2.912 -0.5289  0.6356  0.5052
  990MOL0     C36495  11.974   0.574   2.886  0.6939 -0.0918 -0.0442
  990MOL0     C36496  11.968   0.459   2.781  0.2257  0.0231  0.6221
  990MOL0     C36497  12.043   0.332   2.814  1.0513  0.2619 -0.4004
  990MOL0     C36498  12.197   0.357   2.811 -0.0828 -0.0477 -0.8336
  990MOL0     N36499  12.266   0.245   2.878 -0.1895 -0.1189  0.4295
  990MOL0     C36500  12.242   0.109   2.844 -0.4231 -0.3059  1.4209
  990MOL0     C36501  12.331   0.037   2.923 -0.8286  1.3557 -0.1351
  990MOL0     C36502  12.362  -0.110   2.898 -0.2084  0.4253  0.0792
  990MOL0     C36503  12.286  -0.202   3.006  0.4902  0.0769 -0.2531
  990MOL0     C36504  12.256  -0.344   2.960  0.4833  0.9421 -0.0806
  990MOL0     C36505  12.178  -0.352   2.825  0.0946 -0.3981 -0.0603
  990MOL0     O36506  12.074  -0.246   2.823  0.4849 -0.1486  0.5033
  990MOL0     C36507  12.007  -0.231   2.708  0.2582  0.0553  0.3745
  990MOL0     C36508  12.050  -0.291   2.586 -0.5191 -0.6668  0.4086
  990MOL0     C36509  11.967  -0.286   2.473 -0.1026  0.3057 -0.3536
  990MOL0     C36510  12.018  -0.364   2.352 -0.6950 -0.1119  0.1434
  990MOL0     C36511  11.858  -0.199   2.474 -0.2287 -0.3484  0.2550
  990MOL0     C36512  11.766  -0.183   2.360 -0.7891  0.4360  0.5037
  990MOL0     O36513  11.830  -0.169   2.236  0.4370 -0.4825 -0.7583
  990MOL0     C36514  11.772  -0.177   2.112  0.8382  0.5679  0.1472
  990MOL0     C36515  11.866  -0.219   2.015 -0.2803  0.2372 -0.3589
  990MOL0     C36516  11.823  -0.247   1.881  0.6587 -0.0272 -0.7048
  990MOL0     C36517  11.688  -0.244   1.858  0.4566 -0.7995 -0.2418
  990MOL0     O36518  11.632  -0.270   1.732 -0.1364  0.1600  0.0237
  990MOL0     C36519  11.587  -0.399   1.701 -0.0768  0.3595  0.5871
  990MOL0     C36520  11.555  -0.413   1.544  0.6679  0.5195 -0.2690
  990MOL0     C36521  11.679  -0.411   1.465 -0.7860  0.0618 -0.1031
  990MOL0     C36522  11.641  -0.418   1.319 -0.2114  0.4157 -0.7125
  990MOL0     C36523  11.752  -0.374   1.229 -0.1790 -0.6334  0.0799
  990MOL0     C36524  11.703  -0.373   1.084 -0.1441 -0.2036  1.6095
  990MOL0     C36525  11.588  -0.280   1.053  0.6452 -0.0374 -0.3085
  990MOL0     C36526  11.574  -0.220   0.901 -0.2541  0.3945 -0.5386
  990MOL0    Cl36527  11.528  -0.336   0.776  0.2190 -0.3884  0.2147
  990MOL0     C36528  11.598  -0.217   1.957  0.6543 -0.4270 -0.3332
  990MOL0     C36529  11.632  -0.183   2.083 -0.6359  0.2119 -0.5673
  990MOL0     O36530  11.652  -0.155   2.376  0.7791  0.4530  0.1725
  990MOL0     C36531  11.818  -0.130   2.589  0.6469 -1.2116 -0.0535
  990MOL0     C36532  11.887  -0.163   2.707  0.1084  0.1962 -0.7646
  990MOL0     N36533  12.376   0.115   3.023 -0.0196  0.3504 -0.0632
  990MOL0     N36534  12.340   0.236   3.002  0.6493 -0.0741 -0.2671
  990MOL0     C36535  11.599   0.926   3.476 -0.3460 -0.9512  0.2289
  990MOL0     C36536  11.496   0.922   3.575  0.5395  0.7008  0.2066
  990MOL0     C36537  11.180   0.841   3.879 -0.0573 -1.2061 -0.1346
  990MOL0     C36538  11.083   0.771   3.808  0.0025  0.3699 -0.0907
  990MOL0     C36539  10.950   0.764   3.852 -0.3883 -1.3191  0.8213
  990MOL0     C36540  10.917   0.826   3.968  0.3328  0.2370  0.0893
  990MOL0     O36541  10.789   0.817   4.022 -0.1182 -0.1564  0.1026
  990MOL0     C36542  10.741   0.677   4.041 -1.0691 -0.7477  0.7322
  990MOL0     C36543  10.620   0.676   4.133  0.1952  0.3296  1.3071
  990MOL0     C36544  10.480   0.704   4.059  0.4781  0.1906  0.4337
  990MOL0     C36545  10.353   0.703   4.154  0.5003 -0.6723  0.5897
  990MOL0     C36546  10.228   0.667   4.086 -0.7890  0.6284 -0.4919
  990MOL0     C36547  10.133   0.628   4.024  0.0352 -0.2041  0.3602
  990MOL0     C36548  11.007   0.895   4.043 -0.7597 -0.2110  0.6260
  990MOL0     C36549  11.142   0.913   3.998  0.2357 -0.1265 -0.7058
  990MOL0     C36550  11.237   0.979   4.093  0.1971  0.2250  0.2124
  990MOL0     H36551  11.442   0.586   3.558 -1.6679  0.7447  1.2168
  990MOL0     H36552  11.621   0.592   3.406  2.8927  0.2728  1.6649
  990MOL0     H36553  11.825   0.951   3.206 -1.3784  1.7063  1.0762
  990MOL0     H36554  11.656   0.953   3.224 -1.2166 -1.5066 -0.4583
  990MOL0     H36555  11.635   0.718   3.112 -0.9484 -0.5023 -2.0110
  990MOL0     H36556  11.689   0.856   3.016  0.5923 -1.7543 -0.8485
  990MOL0     H36557  11.929   0.786   3.073  1.7711 -0.6522  1.3727
  990MOL0     H36558  11.852   0.633   3.127 -3.5879 -0.3542 -1.5621
  990MOL0     H36559  11.753   0.597   2.900  0.3863 -0.5586 -0.9541
  990MOL0     H36560  11.837   0.737   2.839 -2.9117  0.0597  0.0016
  990MOL0     H36561  11.993   0.522   2.981  0.8266  0.0073 -0.0169
  990MOL0     H36562  12.061   0.637   2.866  1.4281 -1.5844 -1.8649
  990MOL0     H36563  11.862   0.431   2.779  0.7868 -2.2415  0.4005
  990MOL0     H36564  11.993   0.492   2.680 -3.1067  2.1104  0.2947
  990MOL0     H36565  12.015   0.260   2.737  2.0038  1.4009 -1.8792
  990MOL0     H36566  12.022   0.295   2.915  2.3537  1.1723  0.2300
  990MOL0     H36567  12.235   0.371   2.710  0.0300  0.2003 -0.7591
  990MOL0     H36568  12.224   0.451   2.861  0.5574  0.6299 -2.3737
  990MOL0     H36569  12.183   0.059   2.768  1.0114  0.5388 -0.3046
  990MOL0     H36570  12.471  -0.120   2.906 -0.0973  2.4475  1.9065
  990MOL0     H36571  12.327  -0.140   2.799 -0.0078  0.7082 -0.0774
  990MOL0     H36572  12.350  -0.196   3.095 -0.4433  3.3633  0.3457
  990MOL0     H36573  12.195  -0.153   3.043  1.3628 -1.3558  4.5171
  990MOL0     H36574  12.344  -0.409   2.949 -1.6651 -2.1925 -0.2568
  990MOL0     H36575  12.200  -0.389   3.042 -0.1503 -2.4098 -2.1648
  990MOL0     H36576  12.255  -0.331   2.750  0.6133  1.8568  1.0057
  990MOL0     H36577  12.129  -0.449   2.827 -1.1714  0.2347  1.9060
  990MOL0     H36578  12.135  -0.357   2.578  0.4720  0.4398  1.3943
  990MOL0     H36579  12.098  -0.315   2.295  1.1429 -1.7104  1.2429
  990MOL0     H36580  11.936  -0.396   2.287  0.5504 -0.0832 -1.5116
  990MOL0     H36581  12.051  -0.464   2.380  0.9929  0.3720 -0.0289
  990MOL0     H36582  11.973  -0.214   2.028 -0.1364  0.9934 -1.6434
  990MOL0     H36583  11.902  -0.267   1.809  2.3309  1.6247  0.5534
  990MOL0     H36584  11.669  -0.468   1.723 -1.3486  0.2303  6.8487
  990MOL0     H36585  11.493  -0.430   1.747 -0.7237 -0.4547 -1.1902
  990MOL0     H36586  11.505  -0.509   1.528  1.7154 -0.4342  1.7658
  990MOL0     H36587  11.491  -0.329   1.518 -1.0212 -0.4291  0.6539
  990MOL0     H36588  11.741  -0.499   1.484 -1.8147 -1.0885 -1.7696
  990MOL0     H36589  11.732  -0.323   1.503  0.3451 -0.6700  0.0614
  990MOL0     H36590  11.551  -0.357   1.310 -2.0592 -2.2094 -1.0525
  990MOL0     H36591  11.622  -0.524   1.301 -1.0121 -0.5967  4.4531
  990MOL0     H36592  11.768  -0.269   1.256  2.1335 -0.4590 -1.6927
  990MOL0     H36593  11.845  -0.424   1.256 -1.0759 -2.4758 -0.0878
  990MOL0     H36594  11.667  -0.470   1.050  0.3377  1.0705 -3.3666
  990MOL0     H36595  11.785  -0.333   1.023 -2.5563  1.4667 -0.7773
  990MOL0     H36596  11.591  -0.194   1.121 -0.0129 -0.7078  0.5952
  990MOL0     H36597  11.494  -0.332   1.076  1.7785 -1.1449  2.1525
  990MOL0     H36598  11.664  -0.161   0.878  0.4244  1.0027  3.0572
  990MOL0     H36599  11.498  -0.142   0.896  1.0960  1.7034 -4.3471
  990MOL0     H36600  11.491  -0.230   1.948  0.0893  2.5768  0.6447
  990MOL0     H36601  11.554  -0.149   2.150 -1.1808 -1.1247 -0.4936
  990MOL0     H36602  11.743  -0.053   2.598  1.5337 -0.5563  2.6563
  990MOL0     H36603  11.845  -0.125   2.800  1.8475  2.2458 -0.7473
  990MOL0     H36604  11.615   1.027   3.440 -3.6268 -1.2389 -2.5148
  990MOL0     H36605  11.458   1.018   3.609  0.5571  1.6569 -2.2700
  990MOL0     H36606  11.109   0.721   3.715 -1.6825 -2.5879  0.9021
  990MOL0     H36607  10.881   0.719   3.782 -0.5043  1.4436 -1.0068
  990MOL0     H36608  10.729   0.638   3.940  0.7496  0.6076 -0.0695
  990MOL0     H36609  10.821   0.625   4.094 -0.2494  0.4572  0.7163
  990MOL0     H36610  10.643   0.743   4.217  0.6584 -0.0731  1.5057
  990MOL0     H36611  10.615   0.579   4.185  2.1170 -1.4058 -1.5141
  990MOL0     H36612  10.468   0.797   4.003 -1.7604 -0.8285 -0.8972
  990MOL0     H36613  10.460   0.630   3.982  3.3712  2.3150 -2.6572
  990MOL0     H36614  10.351   0.803   4.198  2.2359 -0.2136 -0.2677
  990MOL0     H36615  10.366   0.632   4.236  1.9263 -2.1112 -0.7852
  990MOL0     H36616  10.046   0.599   3.968 -1.4025  0.3356  2.1970
  990MOL0     H36617  10.970   0.948   4.131 -2.5223 -0.4353  0.0635
  990MOL0     H36618  11.309   0.907   4.133  1.8577  1.2864 -0.7254
  990MOL0     H36619  11.292   1.059   4.043  0.5008  1.1977  1.9986
  990MOL0     H36620  11.185   1.018   4.181 -0.5453 -0.9326  0.3068
  991MOL0     O36621   5.600   5.691  10.488 -0.0369  0.1004 -0.8769
  991MOL0     C36622   5.581   5.751  10.597  0.6418 -0.0850  0.2240
  991MOL0     O36623   5.531   5.695  10.711 -0.4036 -0.2603 -0.7207
  991MOL0     C36624   5.482   5.566  10.715  0.1165  0.1285  0.1996
  991MOL0     C36625   5.558   5.454  10.683 -0.3601 -0.6142 -0.9784
  991MOL0     C36626   5.507   5.325  10.694  0.9871  0.2159  0.0780
  991MOL0     C36627   5.390   5.299  10.766 -0.3608  0.0090 -0.5721
  991MOL0     O36628   5.356   5.174  10.806 -0.4329  0.1542  0.0600
  991MOL0     C36629   5.360   5.074  10.702  0.2396  0.4899  0.0371
  991MOL0     C36630   5.265   4.962  10.753  0.3390 -0.0289 -0.8255
  991MOL0     C36631   5.326   4.886  10.874  0.3479  0.0218 -0.6333
  991MOL0     C36632   5.230   4.771  10.918  0.1035 -0.4776 -0.7037
  991MOL0     C36633   5.197   4.672  10.804  0.1919 -0.4488 -1.0195
  991MOL0     C36634   5.118   4.537  10.854  1.0171 -0.4165 -0.2041
  991MOL0     C36635   4.989   4.576  10.933 -0.6585  0.0813  0.4044
  991MOL0     C36636   4.934   4.462  11.010 -0.0669  1.2249  0.1447
  991MOL0     N36637   5.011   4.449  11.136  0.2039  0.3603  1.4008
  991MOL0     C36638   5.040   4.540  11.225  0.0071 -0.2196 -0.5733
  991MOL0     C36639   5.136   4.478  11.295  0.4534 -0.5786  0.5547
  991MOL0     C36640   5.229   4.546  11.381 -0.1761  0.4214  0.6297
  991MOL0     C36641   5.283   4.671  11.313  0.8923 -0.0506 -0.2685
  991MOL0     C36642   5.406   4.734  11.380  0.3638  0.2707 -0.5073
  991MOL0     C36643   5.505   4.797  11.287  0.0328  0.7491  0.3622
  991MOL0     O36644   5.618   4.864  11.342 -0.0835 -0.3244 -0.4270
  991MOL0     C36645   5.705   4.923  11.262 -0.4104  1.4569 -0.2724
  991MOL0     C36646   5.697   4.959  11.126 -0.7791 -0.6795 -0.8850
  991MOL0     C36647   5.810   5.012  11.051  0.1220 -0.5038  0.7454
  991MOL0     C36648   5.771   5.046  10.904 -1.2660 -0.5403 -0.6084
  991MOL0     C36649   5.935   5.033  11.120 -0.7697  0.0569  0.6545
  991MOL0     C36650   6.063   5.086  11.061  0.2350 -0.2829 -0.6087
  991MOL0     O36651   6.082   5.066  10.928  1.0322 -0.0472  0.2462
  991MOL0     C36652   6.144   5.157  10.847 -0.3458 -0.1463 -0.1222
  991MOL0     C36653   6.259   5.223  10.888  0.2526 -0.6860  0.2763
  991MOL0     C36654   6.305   5.327  10.814 -0.2714 -0.3331  0.0508
  991MOL0     C36655   6.250   5.365  10.694  0.5118  0.3775  0.2551
  991MOL0     O36656   6.288   5.477  10.620 -0.1519 -0.5693  0.3359
  991MOL0     C36657   6.435   5.511  10.636  0.5010 -0.2400 -0.1420
  991MOL0     C36658   6.482   5.620  10.527  0.7038 -0.4381 -0.2651
  991MOL0     C36659   6.471   5.568  10.385  1.1304 -0.8529  0.3976
  991MOL0     C36660   6.518   5.663  10.279  1.1192 -1.6023 -0.2107
  991MOL0     C36661   6.673   5.673  10.261  0.2603 -0.4692 -0.2801
  991MOL0     C36662   6.708   5.784  10.158  0.3851  0.0563 -0.3877
  991MOL0     C36663   6.841   5.863  10.177  0.6194 -0.4548  0.3741
  991MOL0     C36664   6.946   5.771  10.131 -1.1334 -0.6071 -0.2975
  991MOL0    Cl36665   7.107   5.827  10.167 -0.2717  0.2070 -0.4505
  991MOL0     C36666   6.142   5.285  10.645 -0.2566 -0.1196  0.3881
  991MOL0     C36667   6.094   5.179  10.723 -0.4295 -0.3312  0.4478
  991MOL0     O36668   6.157   5.122  11.137  0.1407  0.0967  0.5282
  991MOL0     C36669   5.935   5.003  11.254 -0.6068  0.2061  0.4742
  991MOL0     C36670   5.823   4.948  11.316  0.6233 -1.3296 -0.1761
  991MOL0     N36671   5.167   4.360  11.242 -0.1773  0.0371  1.0444
  991MOL0     N36672   5.085   4.335  11.151  0.2909  0.1169  0.5440
  991MOL0     C36673   5.319   5.415  10.813  0.0134 -0.5159 -0.2490
  991MOL0     C36674   5.368   5.548  10.790 -0.1312 -0.6461  0.3651
  991MOL0     C36675   5.622   5.904  10.601 -0.4693  0.9167 -0.0779
  991MOL0     C36676   5.707   5.945  10.496 -0.1476 -0.6750 -0.2057
  991MOL0     C36677   5.772   6.071  10.497  0.1592 -0.3748  0.2011
  991MOL0     C36678   5.745   6.160  10.604  0.4898 -0.2994 -0.2202
  991MOL0     O36679   5.782   6.290  10.608 -0.1273 -0.3300  0.3393
  991MOL0     C36680   5.842   6.358  10.505 -0.7676  0.7776  0.2247
  991MOL0     C36681   6.000   6.341  10.509  0.1819  0.1756 -0.7630
  991MOL0     C36682   6.063   6.368  10.647  0.3442  0.2043 -0.2054
  991MOL0     C36683   6.059   6.525  10.674  0.4204  0.2304  0.6019
  991MOL0     C36684   6.063   6.572  10.810  0.1100  0.0983  0.8765
  991MOL0     C36685   6.067   6.596  10.931  0.6343  0.8488 -0.0496
  991MOL0     C36686   5.673   6.116  10.716 -0.5252 -0.0847  0.5971
  991MOL0     C36687   5.607   5.990  10.707 -0.1032  0.3940  0.4919
  991MOL0     C36688   5.485   5.965  10.794 -0.1934 -0.3037 -1.1952
  991MOL0     H36689   5.661   5.458  10.648 -0.2229 -2.6322 -0.9210
  991MOL0     H36690   5.559   5.240  10.652 -2.8291 -2.9453  1.1524
  991MOL0     H36691   5.466   5.048  10.697 -0.2940 -1.6442 -1.3853
  991MOL0     H36692   5.327   5.124  10.611 -3.0528 -1.0008  0.2709
  991MOL0     H36693   5.170   5.013  10.771  2.2275  3.3904  0.2784
  991MOL0     H36694   5.252   4.899  10.665 -1.8851  2.0088 -2.0693
  991MOL0     H36695   5.424   4.851  10.841  1.0704  0.8885  0.5265
  991MOL0     H36696   5.337   4.951  10.961  0.3941  1.9391 -1.9939
  991MOL0     H36697   5.258   4.723  11.012 -0.1378  1.5462  0.4630
  991MOL0     H36698   5.133   4.818  10.938 -0.2760 -0.7213 -1.8720
  991MOL0     H36699   5.298   4.642  10.773  0.5706  0.6276 -0.8554
  991MOL0     H36700   5.150   4.723  10.719 -1.9352  0.8362  0.8232
  991MOL0     H36701   5.102   4.463  10.776  3.8200  0.4784 -1.7715
  991MOL0     H36702   5.177   4.485  10.930 -1.6279 -1.8419  0.9983
  991MOL0     H36703   4.906   4.611  10.870  0.4710  0.3170 -1.0233
  991MOL0     H36704   4.995   4.654  11.010 -4.0428 -1.0108  1.9763
  991MOL0     H36705   4.832   4.494  11.034 -0.1000  1.6493 -0.5162
  991MOL0     H36706   4.926   4.370  10.952 -1.6627  0.4081  1.5624
  991MOL0     H36707   4.997   4.639  11.237  0.8261  0.2512 -1.3528
  991MOL0     H36708   5.310   4.475  11.399  1.4079  1.7380 -0.9889
  991MOL0     H36709   5.183   4.566  11.478 -0.0449 -0.1086  0.8084
  991MOL0     H36710   5.323   4.642  11.215  4.3551  2.2893  0.2732
  991MOL0     H36711   5.209   4.751  11.310  0.3320 -0.2545  3.4281
  991MOL0     H36712   5.365   4.799  11.459 -0.5704  0.0089 -0.7601
  991MOL0     H36713   5.465   4.664  11.440  1.6257  0.7777 -1.1210
  991MOL0     H36714   5.546   4.718  11.222 -3.0173 -0.1923 -0.5849
  991MOL0     H36715   5.451   4.857  11.213 -2.3213 -0.0577  1.3564
  991MOL0     H36716   5.601   4.939  11.079 -1.2678  0.9116 -0.6087
  991MOL0     H36717   5.727   5.144  10.882  0.2640  0.3379  0.0878
  991MOL0     H36718   5.693   4.976  10.871 -0.3790 -1.0236 -1.7644
  991MOL0     H36719   5.858   5.039  10.838 -1.1584  0.7506 -0.6251
  991MOL0     H36720   6.307   5.199  10.982 -0.2282 -0.7766  0.5030
  991MOL0     H36721   6.377   5.388  10.868  0.1216 -0.9681  0.2555
  991MOL0     H36722   6.447   5.554  10.736 -1.9415  0.2759 -0.0068
  991MOL0     H36723   6.492   5.419  10.626 -1.1707 -1.1829 -1.8017
  991MOL0     H36724   6.425   5.712  10.538  2.9947  1.1497 -0.9430
  991MOL0     H36725   6.585   5.642  10.554  0.3702 -0.2576  0.8824
  991MOL0     H36726   6.368   5.544  10.357  0.9905 -0.5318  0.6424
  991MOL0     H36727   6.521   5.470  10.388 -1.1553 -2.0952  0.6228
  991MOL0     H36728   6.487   5.764  10.304  1.9460 -1.8235  1.8562
  991MOL0     H36729   6.478   5.628  10.183 -0.0916  0.5511 -0.5350
  991MOL0     H36730   6.718   5.695  10.358  1.2518  0.5326 -0.9509
  991MOL0     H36731   6.705   5.575  10.225 -4.1627 -2.5738  0.7204
  991MOL0     H36732   6.631   5.861  10.160 -0.0959 -0.3595 -1.5746
  991MOL0     H36733   6.696   5.730  10.063  2.7325 -3.5488  1.1328
  991MOL0     H36734   6.864   5.913  10.272 -0.4534  2.2779 -0.6910
  991MOL0     H36735   6.844   5.949  10.109  0.0573  1.1880  2.2907
  991MOL0     H36736   6.941   5.756  10.023 -0.7270 -0.7305 -0.3006
  991MOL0     H36737   6.928   5.678  10.185 -3.0010  0.5094  1.1405
  991MOL0     H36738   6.114   5.306  10.542  0.5968 -0.1021  0.1570
  991MOL0     H36739   6.011   5.118  10.691 -1.7162  1.1484  0.8281
  991MOL0     H36740   6.022   5.014  11.318 -0.4524  0.5095  0.2117
  991MOL0     H36741   5.816   4.937  11.424  2.2114 -0.7924  0.0051
  991MOL0     H36742   5.231   5.410  10.877 -0.1905  3.2349 -0.0508
  991MOL0     H36743   5.321   5.634  10.836 -0.4074 -0.6736  0.1417
  991MOL0     H36744   5.713   5.883  10.407  2.4992  0.4345 -0.9165
  991MOL0     H36745   5.837   6.097  10.414 -0.9104  0.3183 -0.4406
  991MOL0     H36746   5.805   6.318  10.410  1.8428 -2.6346  0.4700
  991MOL0     H36747   5.813   6.463  10.515  0.1040  1.3472 -2.3481
  991MOL0     H36748   6.051   6.406  10.438  0.6542  3.4930  2.3047
  991MOL0     H36749   6.038   6.241  10.487  0.4210  0.1868 -0.4116
  991MOL0     H36750   6.009   6.311  10.723 -0.6481  0.9964 -0.3010
  991MOL0     H36751   6.162   6.322  10.652 -1.3498 -4.2299 -1.9232
  991MOL0     H36752   5.975   6.571  10.621  1.6016  0.5645 -1.0869
  991MOL0     H36753   6.156   6.564  10.641 -0.4176  0.9212 -1.1567
  991MOL0     H36754   6.065   6.618  11.036 -2.9800  3.4374 -0.4307
  991MOL0     H36755   5.645   6.170  10.806  2.3993 -2.8669  3.4235
  991MOL0     H36756   5.511   5.904  10.881 -0.5000  2.1174  0.7099
  991MOL0     H36757   5.462   6.060  10.843 -1.0037 -1.9489  1.8682
  991MOL0     H36758   5.394   5.925  10.747 -0.2529  1.8305 -3.0768
  992MOL0     O36759  11.514   8.457   4.008 -0.1766  0.7165  0.0662
  992MOL0     C36760  11.407   8.501   4.043  0.1766 -0.6637 -0.2783
  992MOL0     O36761  11.401   8.613   4.124  0.0489  1.0670 -0.0611
  992MOL0     C36762  11.498   8.700   4.115 -0.1425  0.0157 -1.1883
  992MOL0     C36763  11.621   8.695   4.186  0.5261  0.7748 -0.1305
  992MOL0     C36764  11.714   8.794   4.169 -0.3111 -0.3852 -0.5181
  992MOL0     C36765  11.698   8.899   4.082  1.1135 -0.2688 -0.1981
  992MOL0     O36766  11.791   8.991   4.048  0.0004 -0.2433 -0.0841
  992MOL0     C36767  11.847   9.071   4.153 -0.6543  0.3100 -0.0653
  992MOL0     C36768  11.748   9.181   4.198 -0.1725  0.4813  0.5049
  992MOL0     C36769  11.710   9.282   4.087  0.4598 -0.9339  0.5513
  992MOL0     C36770  11.830   9.327   4.004  0.9058  0.6650 -0.1056
  992MOL0     C36771  11.940   9.394   4.094  0.7098  0.0984  0.8453
  992MOL0     C36772  12.058   9.461   4.016 -0.3601 -0.1683 -0.4985
  992MOL0     C36773  12.157   9.536   4.108  0.5520 -0.0052  0.1056
  992MOL0     C36774  12.286   9.567   4.047 -0.2253  0.4981 -0.0250
  992MOL0     N36775  12.275   9.667   3.942 -0.2927 -0.5410  0.0184
  992MOL0     C36776  12.390   9.713   3.873 -0.4921 -0.2947 -0.0247
  992MOL0     C36777  12.356   9.830   3.817 -0.4176 -0.4135  0.8176
  992MOL0     C36778  12.458   9.898   3.716  0.6355  0.1510 -0.2425
  992MOL0     C36779  12.565   9.983   3.785  0.3917 -1.0951 -0.5118
  992MOL0     C36780  12.502  10.083   3.886 -0.5519  0.0708  0.0772
  992MOL0     C36781  12.613  10.164   3.966  0.3838 -0.6897 -0.3494
  992MOL0     O36782  12.728  10.208   3.890  0.6567  0.2487  0.8123
  992MOL0     C36783  12.721  10.331   3.825  0.8715 -0.5826 -0.4091
  992MOL0     C36784  12.608  10.419   3.841 -0.0266 -0.0286 -0.3484
  992MOL0     C36785  12.592  10.532   3.764 -0.1598 -0.5526  0.9028
  992MOL0     C36786  12.462  10.609   3.793 -0.1122 -0.0697  0.5600
  992MOL0     C36787  12.704  10.573   3.673 -0.2981 -0.0468 -0.8537
  992MOL0     C36788  12.720  10.702   3.603  0.8108  0.6862  0.2818
  992MOL0     O36789  12.839  10.719   3.544 -0.8293 -0.0345 -0.1494
  992MOL0     C36790  12.848  10.808   3.449 -0.1659 -0.9409  0.1761
  992MOL0     C36791  12.879  10.942   3.476 -0.1625  0.9367 -0.6566
  992MOL0     C36792  12.881  11.028   3.373  0.4997 -0.1724  0.6465
  992MOL0     C36793  12.859  10.988   3.238  0.1794 -1.0898  0.2888
  992MOL0     O36794  12.864  11.079   3.129  0.3533  0.1565  0.1500
  992MOL0     C36795  12.894  11.221   3.148  0.1026  0.9590  0.1355
  992MOL0     C36796  12.843  11.310   3.033  0.6222 -0.4348  0.4845
  992MOL0     C36797  12.896  11.253   2.895  0.6121  0.2674  0.9939
  992MOL0     C36798  12.830  11.325   2.782  0.3461 -0.1114  0.2796
  992MOL0     C36799  12.827  11.242   2.657 -0.5035 -1.2787  0.2310
  992MOL0     C36800  12.750  11.309   2.534 -0.5784 -0.4741 -0.8124
  992MOL0     C36801  12.601  11.277   2.546  0.6717  0.1707 -0.4323
  992MOL0     C36802  12.541  11.225   2.413 -0.7737  0.4653  0.0077
  992MOL0    Cl36803  12.548  11.341   2.270  0.4685 -0.3254 -0.3777
  992MOL0     C36804  12.816  10.859   3.215  1.2810  0.3448  0.3644
  992MOL0     C36805  12.815  10.769   3.320 -0.5517  0.1007  0.0992
  992MOL0     O36806  12.618  10.764   3.580  0.5518  0.5682 -0.0087
  992MOL0     C36807  12.816  10.478   3.662  0.4673  0.0947 -0.9961
  992MOL0     C36808  12.825  10.362   3.739 -0.1886 -0.2458 -0.0128
  992MOL0     N36809  12.220   9.849   3.838  0.6896 -0.3027 -0.1291
  992MOL0     N36810  12.176   9.768   3.929 -0.3006  0.5770  0.0143
  992MOL0     C36811  11.579   8.907   4.015  0.7173 -0.0475  1.4546
  992MOL0     C36812  11.478   8.808   4.036 -0.0927 -0.2214 -0.1677
  992MOL0     C36813  11.287   8.427   4.017  0.1838  0.1325 -0.0703
  992MOL0     C36814  11.299   8.299   3.967  0.2931 -0.6665  0.5919
  992MOL0     C36815  11.189   8.224   3.928  0.1276  0.0818  0.1871
  992MOL0     C36816  11.054   8.278   3.928 -0.3849  0.0100 -0.1520
  992MOL0     O36817  10.931   8.219   3.901 -0.2501 -0.7759 -0.5441
  992MOL0     C36818  10.927   8.075   3.866 -0.8020 -0.0365 -0.1886
  992MOL0     C36819  10.914   7.991   3.991 -0.0891  0.5717 -0.6823
  992MOL0     C36820  11.001   7.864   3.992 -0.0276  0.3283 -0.3405
  992MOL0     C36821  10.975   7.775   4.113 -0.3737 -1.0772  0.7298
  992MOL0     C36822  10.969   7.846   4.238 -0.3389  0.7124  0.3208
  992MOL0     C36823  10.980   7.920   4.333  0.7360  0.1704 -1.0990
  992MOL0     C36824  11.043   8.409   3.985 -0.2634 -0.9295  0.7025
  992MOL0     C36825  11.158   8.479   4.028 -0.0010  0.2276  0.6228
  992MOL0     C36826  11.128   8.618   4.082  0.8191 -0.3036 -0.5155
  992MOL0     H36827  11.635   8.613   4.256 -2.4412  0.4031  0.1869
  992MOL0     H36828  11.807   8.797   4.225 -0.2528  0.3017 -0.6399
  992MOL0     H36829  11.939   9.104   4.102 -1.4536  1.4429 -0.8008
  992MOL0     H36830  11.884   9.000   4.228 -0.2453 -0.7120 -1.1914
  992MOL0     H36831  11.655   9.130   4.224  0.5710 -1.7344 -0.8622
  992MOL0     H36832  11.796   9.225   4.286  3.4158 -2.6919  0.3947
  992MOL0     H36833  11.632   9.244   4.021 -3.3552  1.7310  3.0685
  992MOL0     H36834  11.660   9.363   4.141 -0.8680 -0.2626 -1.5807
  992MOL0     H36835  11.881   9.244   3.955  0.4900 -1.1307  2.2791
  992MOL0     H36836  11.783   9.395   3.932  0.0852 -1.3658 -1.5691
  992MOL0     H36837  11.979   9.331   4.174  0.5826 -1.2004 -0.0823
  992MOL0     H36838  11.890   9.473   4.150  1.2262 -0.6339  2.3820
  992MOL0     H36839  12.120   9.382   3.973  0.8011  0.6025 -0.2910
  992MOL0     H36840  12.021   9.523   3.933 -0.8570  1.4463  0.8698
  992MOL0     H36841  12.182   9.470   4.191  1.1530 -1.4943 -1.2050
  992MOL0     H36842  12.101   9.623   4.145  3.3033  1.3672  1.4033
  992MOL0     H36843  12.342   9.601   4.134 -0.1117  1.4545 -0.4550
  992MOL0     H36844  12.321   9.470   4.012 -1.9799  0.0508 -0.6401
  992MOL0     H36845  12.484   9.660   3.873 -0.8592 -0.9687 -0.8362
  992MOL0     H36846  12.407   9.957   3.639  1.9534  1.1248 -0.3940
  992MOL0     H36847  12.503   9.812   3.666 -0.2051 -0.5577  0.1723
  992MOL0     H36848  12.632   9.911   3.832  2.0370  0.7920  0.1936
  992MOL0     H36849  12.631  10.048   3.727  4.0304 -0.4912  3.7271
  992MOL0     H36850  12.437  10.148   3.827 -0.5164 -1.4902 -1.7745
  992MOL0     H36851  12.450  10.024   3.963 -0.7445  0.3685  0.1821
  992MOL0     H36852  12.573  10.244   4.028  0.1489 -1.2765  0.2665
  992MOL0     H36853  12.657  10.094   4.038  1.0183 -1.3131 -1.3212
  992MOL0     H36854  12.530  10.394   3.912  0.6363  0.7685  0.6857
  992MOL0     H36855  12.465  10.679   3.877 -2.0298  1.3898 -0.5015
  992MOL0     H36856  12.385  10.535   3.818 -1.7684  2.3644  3.2329
  992MOL0     H36857  12.443  10.681   3.713 -0.3103  0.7659  1.3481
  992MOL0     H36858  12.903  10.966   3.579  1.5661 -1.4309 -0.4063
  992MOL0     H36859  12.913  11.126   3.407 -1.6865  0.2954  1.4901
  992MOL0     H36860  12.835  11.248   3.236 -1.5118 -2.3314  0.1983
  992MOL0     H36861  13.003  11.226   3.154  0.5790 -1.1948 -3.6639
  992MOL0     H36862  12.734  11.308   3.044  0.6790 -3.5223  1.4425
  992MOL0     H36863  12.872  11.414   3.051  0.6940 -0.3707  0.0074
  992MOL0     H36864  12.876  11.145   2.888 -0.5467  0.5052  0.4001
  992MOL0     H36865  13.004  11.270   2.900  0.7793 -0.7376  1.0735
  992MOL0     H36866  12.889  11.415   2.763  2.2185 -0.2596  4.3612
  992MOL0     H36867  12.731  11.369   2.800 -0.8927 -2.7360  0.2949
  992MOL0     H36868  12.926  11.213   2.621 -0.6938 -0.8672 -0.6618
  992MOL0     H36869  12.776  11.150   2.686 -2.5000  0.1802  1.6756
  992MOL0     H36870  12.784  11.266   2.439 -0.0776 -0.0607 -0.8222
  992MOL0     H36871  12.753  11.418   2.537 -1.1138 -0.4578  1.9796
  992MOL0     H36872  12.548  11.369   2.573  1.5383  1.1177 -1.8154
  992MOL0     H36873  12.587  11.202   2.624 -0.6693  0.6019 -0.2361
  992MOL0     H36874  12.434  11.206   2.428 -0.9651 -1.8281 -3.1063
  992MOL0     H36875  12.591  11.133   2.380 -0.6814 -0.0033  1.4049
  992MOL0     H36876  12.784  10.821   3.118 -2.0898  0.4807  1.2827
  992MOL0     H36877  12.789  10.666   3.301  2.2856 -1.7767  4.5353
  992MOL0     H36878  12.892  10.501   3.588  1.7351  1.4999  0.6584
  992MOL0     H36879  12.910  10.296   3.726  0.2531  0.4445 -0.6520
  992MOL0     H36880  11.558   8.980   3.936  1.8067  1.6803  2.6875
  992MOL0     H36881  11.389   8.803   3.975 -1.8215  1.4365  2.0493
  992MOL0     H36882  11.395   8.249   3.973  0.1885 -0.7094  3.1573
  992MOL0     H36883  11.203   8.128   3.879 -4.3575 -0.0481 -1.3061
  992MOL0     H36884  10.850   8.050   3.792 -0.6078  0.7188 -0.6561
  992MOL0     H36885  11.027   8.046   3.833 -1.8919 -4.6629 -0.1565
  992MOL0     H36886  10.810   7.966   4.014  0.4473 -0.5280  0.7001
  992MOL0     H36887  10.949   8.066   4.063 -0.9031  0.2764  0.0351
  992MOL0     H36888  10.994   7.815   3.895  2.2693 -1.0026  0.0845
  992MOL0     H36889  11.105   7.893   4.010 -0.5936  0.9255  2.4363
  992MOL0     H36890  11.054   7.700   4.114 -2.8718 -3.9415 -0.6589
  992MOL0     H36891  10.882   7.718   4.106 -1.2017  0.4453 -1.8185
  992MOL0     H36892  10.985   7.988   4.416 -0.7643  0.7626 -1.4571
  992MOL0     H36893  10.943   8.451   3.984 -0.8829 -2.3077 -1.1097
  992MOL0     H36894  11.169   8.616   4.184 -0.4958  2.2027  0.1377
  992MOL0     H36895  11.181   8.689   4.018 -0.4539 -1.5642 -3.1211
  992MOL0     H36896  11.024   8.652   4.078  1.6448  2.4643 -0.5435
  993MOL0     O36897   1.418   1.205   0.664  0.0878 -0.1872  0.4979
  993MOL0     C36898   1.392   1.316   0.616  0.0116 -0.2981 -0.4655
  993MOL0     O36899   1.285   1.389   0.653 -0.1712  0.5533 -1.4736
  993MOL0     C36900   1.203   1.372   0.768  0.5612  0.2401  0.3334
  993MOL0     C36901   1.254   1.351   0.903 -0.2140  0.0844  0.5602
  993MOL0     C36902   1.174   1.354   1.015 -0.7610  0.1202 -0.2895
  993MOL0     C36903   1.034   1.355   1.007  0.5880  0.4538  0.1853
  993MOL0     O36904   0.945   1.354   1.108 -0.6449 -0.2641  0.4533
  993MOL0     C36905   0.899   1.487   1.140 -1.0091  0.6253  0.5243
  993MOL0     C36906   0.756   1.507   1.183  0.1033 -0.8751 -0.6056
  993MOL0     C36907   0.742   1.489   1.330 -0.0934 -0.1059 -1.3511
  993MOL0     C36908   0.785   1.359   1.389  0.4988  0.1422  0.0948
  993MOL0     C36909   0.691   1.251   1.350 -0.3573  0.4199  0.6594
  993MOL0     C36910   0.696   1.139   1.454 -0.3738  1.1652  0.0267
  993MOL0     C36911   0.829   1.058   1.443 -0.5540 -0.3848 -0.0866
  993MOL0     C36912   0.807   0.909   1.475 -0.6014  0.6631 -0.1755
  993MOL0     N36913   0.768   0.886   1.621  0.0780  0.0729 -0.2403
  993MOL0     C36914   0.642   0.875   1.674  0.1770  1.2674  0.0521
  993MOL0     C36915   0.663   0.867   1.808 -0.1494  0.2808  0.2945
  993MOL0     C36916   0.574   0.833   1.920  0.5092  0.5900  0.1375
  993MOL0     C36917   0.469   0.947   1.946  1.0946  0.6969  0.0840
  993MOL0     C36918   0.519   1.082   1.989  0.1848  1.3135 -0.0156
  993MOL0     C36919   0.562   1.080   2.135 -0.2012  0.5847  0.1497
  993MOL0     O36920   0.608   1.215   2.171  0.4821  0.6953 -0.1236
  993MOL0     C36921   0.698   1.227   2.273  0.4112 -0.0299 -0.2561
  993MOL0     C36922   0.736   1.359   2.312 -0.1992  0.7606  0.7381
  993MOL0     C36923   0.850   1.382   2.398  0.2544 -0.3120  0.5293
  993MOL0     C36924   0.915   1.518   2.409  0.0767 -0.6372  0.1092
  993MOL0     C36925   0.898   1.273   2.478  0.1900  0.1007  0.3953
  993MOL0     C36926   1.009   1.279   2.570 -0.5413  0.0033  0.0493
  993MOL0     O36927   1.090   1.163   2.571 -0.0613 -0.2997 -0.4461
  993MOL0     C36928   1.199   1.154   2.653  0.8715  0.4758  0.3515
  993MOL0     C36929   1.196   1.088   2.775 -0.0570 -0.2895 -0.3951
  993MOL0     C36930   1.307   1.066   2.856  0.5303 -0.1698 -0.0273
  993MOL0     C36931   1.436   1.108   2.808  0.0113 -0.6235 -0.0946
  993MOL0     O36932   1.550   1.087   2.872 -0.3153 -0.1930  0.1835
  993MOL0     C36933   1.547   1.073   3.019 -1.3948 -0.4654 -1.6085
  993MOL0     C36934   1.683   1.014   3.048  0.6243  0.1873  0.4796
  993MOL0     C36935   1.783   1.127   2.998 -1.6400 -0.6097 -0.0607
  993MOL0     C36936   1.910   1.114   3.086  0.3857 -0.0039 -0.0645
  993MOL0     C36937   2.011   1.227   3.058 -0.0682 -0.0411 -0.0914
  993MOL0     C36938   1.955   1.356   3.121 -0.2501 -1.1293  0.4424
  993MOL0     C36939   2.067   1.463   3.153  0.5165  0.1703 -0.1674
  993MOL0     C36940   2.148   1.530   3.037  0.4413 -0.0081 -0.5839
  993MOL0    Cl36941   2.273   1.633   3.116  0.2764 -0.3061 -0.0489
  993MOL0     C36942   1.443   1.183   2.690 -0.1993 -0.2472  0.1739
  993MOL0     C36943   1.325   1.200   2.609 -0.3603 -0.4703  0.4500
  993MOL0     O36944   1.020   1.378   2.647 -0.3834 -0.2843  0.2472
  993MOL0     C36945   0.848   1.144   2.449 -0.3139 -0.5203 -0.3238
  993MOL0     C36946   0.762   1.121   2.339 -0.4417 -0.2006 -1.0988
  993MOL0     N36947   0.798   0.881   1.824 -0.3269 -1.3146 -0.1885
  993MOL0     N36948   0.863   0.886   1.719  0.1518 -0.6170  0.4304
  993MOL0     C36949   0.977   1.345   0.877 -0.3891  0.3829 -0.8599
  993MOL0     C36950   1.058   1.354   0.755  0.0807  0.0344 -1.0439
  993MOL0     C36951   1.467   1.383   0.502 -0.1498  0.2672  0.2828
  993MOL0     C36952   1.589   1.327   0.485 -0.2750 -0.3965  0.5419
  993MOL0     C36953   1.675   1.374   0.386  0.1035  0.1684 -0.1680
  993MOL0     C36954   1.639   1.481   0.302 -0.2422 -0.3942  0.1374
  993MOL0     O36955   1.716   1.543   0.203 -0.3684 -0.2713  0.1035
  993MOL0     C36956   1.663   1.525   0.078  0.6649 -0.0695  0.2030
  993MOL0     C36957   1.709   1.393   0.016  0.0249 -0.8239 -0.6679
  993MOL0     C36958   1.851   1.402  -0.037  0.6002  0.0557 -0.6312
  993MOL0     C36959   1.903   1.279  -0.126  0.3402 -0.7477  0.2916
  993MOL0     C36960   2.024   1.315  -0.207 -0.9290 -0.6174  0.5357
  993MOL0     C36961   2.110   1.348  -0.287 -0.0042  0.8925  1.2471
  993MOL0     C36962   1.521   1.546   0.329  0.6278  0.1442 -0.3922
  993MOL0     C36963   1.430   1.499   0.420 -0.0317 -0.8073  0.2807
  993MOL0     C36964   1.301   1.583   0.425  0.3898 -0.0108  0.1445
  993MOL0     H36965   1.362   1.352   0.906 -0.1822  0.3101 -0.2842
  993MOL0     H36966   1.215   1.366   1.114  1.6887 -0.5854 -1.1398
  993MOL0     H36967   0.900   1.549   1.050  1.4433 -1.4611 -1.0396
  993MOL0     H36968   0.973   1.524   1.211 -1.9013 -2.1968  3.1164
  993MOL0     H36969   0.717   1.606   1.160  0.5673 -0.7887 -1.0632
  993MOL0     H36970   0.700   1.431   1.127 -0.1767 -0.1259 -1.3623
  993MOL0     H36971   0.797   1.571   1.376 -2.4500  1.9470 -2.0184
  993MOL0     H36972   0.637   1.511   1.352  0.3379  1.2298 -0.5111
  993MOL0     H36973   0.888   1.329   1.366  0.6368  2.1866 -2.3256
  993MOL0     H36974   0.775   1.353   1.498  2.2462 -2.4367  0.2058
  993MOL0     H36975   0.722   1.234   1.246  3.0257 -0.5517  1.6962
  993MOL0     H36976   0.588   1.288   1.340  0.7486  3.0440 -4.8412
  993MOL0     H36977   0.687   1.179   1.555 -1.9738 -1.8990  1.2171
  993MOL0     H36978   0.618   1.065   1.436  0.6627 -0.1331  0.7061
  993MOL0     H36979   0.913   1.094   1.502 -1.3974 -0.7175  1.3443
  993MOL0     H36980   0.868   1.056   1.340 -1.4854  2.0185 -0.5510
  993MOL0     H36981   0.725   0.861   1.420 -1.0834  0.7061  0.4954
  993MOL0     H36982   0.894   0.851   1.442 -0.3860  1.1092 -0.4015
  993MOL0     H36983   0.543   0.860   1.632 -1.3517 -0.3190  3.7754
  993MOL0     H36984   0.620   0.808   2.016 -1.5434 -1.1959  0.7387
  993MOL0     H36985   0.524   0.738   1.900 -2.7390  2.1427  0.2904
  993MOL0     H36986   0.408   0.963   1.857 -0.2156  3.2291  1.3444
  993MOL0     H36987   0.404   0.914   2.028  0.8747 -0.2969 -0.4754
  993MOL0     H36988   0.601   1.115   1.925  1.4808  1.4421  1.6410
  993MOL0     H36989   0.435   1.151   1.984 -0.6015  0.3047 -1.0800
  993MOL0     H36990   0.487   1.043   2.204  0.4059  1.4152  1.2825
  993MOL0     H36991   0.645   1.009   2.138 -0.9886 -0.3400  0.4311
  993MOL0     H36992   0.692   1.444   2.262 -0.0552  1.2200  1.3824
  993MOL0     H36993   0.894   1.554   2.510 -2.1157 -0.4664 -0.3582
  993MOL0     H36994   0.869   1.594   2.345 -1.0847 -0.2497  1.3621
  993MOL0     H36995   1.021   1.512   2.384 -0.1205  1.0057 -1.3619
  993MOL0     H36996   1.103   1.045   2.812 -0.6985  1.5163  0.2031
  993MOL0     H36997   1.297   1.002   2.943  1.4333 -1.0463 -0.5517
  993MOL0     H36998   1.521   1.166   3.069 -2.2365 -2.4365  2.0058
  993MOL0     H36999   1.480   0.995   3.059 -1.4922 -0.4574 -1.7578
  993MOL0     H37000   1.688   0.987   3.153  0.0276 -1.3005  0.1484
  993MOL0     H37001   1.705   0.931   2.980  0.1868  1.6336 -1.5262
  993MOL0     H37002   1.742   1.227   3.013 -0.3452  0.0344 -0.6260
  993MOL0     H37003   1.811   1.119   2.893  0.1151  1.1468  0.2061
  993MOL0     H37004   1.943   1.011   3.067  0.7605 -0.2598  1.8295
  993MOL0     H37005   1.869   1.115   3.187 -2.7924 -2.5564 -1.1651
  993MOL0     H37006   2.113   1.208   3.091  0.2200 -0.1330 -1.0035
  993MOL0     H37007   2.021   1.235   2.949  1.0338  1.1119  0.0749
  993MOL0     H37008   1.892   1.339   3.208 -3.7739 -3.7454 -2.2916
  993MOL0     H37009   1.879   1.387   3.049 -0.3181 -1.8926  0.1768
  993MOL0     H37010   2.146   1.408   3.205 -0.4825  2.3700  4.1464
  993MOL0     H37011   2.018   1.542   3.210 -1.4969 -1.3290  0.3079
  993MOL0     H37012   2.082   1.594   2.977  0.0310  0.1114 -0.0201
  993MOL0     H37013   2.204   1.459   2.976  0.9986  0.7084 -0.9240
  993MOL0     H37014   1.541   1.216   2.656 -1.3693  1.0916 -2.1185
  993MOL0     H37015   1.312   1.239   2.508 -0.8556  1.6380  1.2965
  993MOL0     H37016   0.874   1.060   2.512  1.8408  0.4138  0.1359
  993MOL0     H37017   0.731   1.018   2.326 -3.3248  0.5712 -0.9089
  993MOL0     H37018   0.872   1.318   0.872 -0.4817  0.2197  1.2118
  993MOL0     H37019   1.010   1.336   0.660  2.7553 -1.8426 -2.1709
  993MOL0     H37020   1.626   1.244   0.544 -0.9235 -1.0084  0.1021
  993MOL0     H37021   1.770   1.330   0.357 -1.0171 -4.0322  1.8654
  993MOL0     H37022   1.555   1.541   0.068  1.0215  2.5788 -0.0827
  993MOL0     H37023   1.709   1.602   0.017 -0.7120 -0.6011 -1.5843
  993MOL0     H37024   1.636   1.357  -0.057 -0.0521 -0.6695 -0.6675
  993MOL0     H37025   1.725   1.317   0.094  2.2362 -1.3560 -1.5828
  993MOL0     H37026   1.864   1.494  -0.095  0.2776  0.7666  0.3862
  993MOL0     H37027   1.914   1.408   0.052 -0.8316 -0.4700  0.4588
  993MOL0     H37028   1.825   1.269  -0.202 -1.1221  0.8517  1.4994
  993MOL0     H37029   1.911   1.181  -0.076  0.8283 -2.0215 -2.1233
  993MOL0     H37030   2.194   1.366  -0.351 -1.2849  0.2253 -0.7144
  993MOL0     H37031   1.497   1.631   0.265  0.8440 -0.2075 -0.9473
  993MOL0     H37032   1.240   1.563   0.336  2.0857 -4.0437 -0.3376
  993MOL0     H37033   1.237   1.558   0.511  0.8008  2.3984  1.2275
  993MOL0     H37034   1.320   1.689   0.442 -1.5657  0.1866  1.5277
  994MOL0     O37035  11.224   6.707   9.254  0.3041 -0.4004  0.5766
  994MOL0     C37036  11.144   6.784   9.311  0.4308 -0.2162  0.4250
  994MOL0     O37037  11.177   6.899   9.374  0.5205 -0.0271  0.3950
  994MOL0     C37038  11.304   6.945   9.379 -0.5867 -0.2914  0.1213
  994MOL0     C37039  11.409   6.910   9.300 -0.2064 -0.8961  0.2062
  994MOL0     C37040  11.527   6.973   9.310 -0.5087 -0.3080  0.6583
  994MOL0     C37041  11.548   7.083   9.398  0.5193 -0.9235 -0.7232
  994MOL0     O37042  11.667   7.144   9.404 -0.1435 -0.1605  0.6427
  994MOL0     C37043  11.683   7.286   9.422 -0.5953  0.0624 -0.2502
  994MOL0     C37044  11.837   7.320   9.431  0.2463  0.7544 -0.0414
  994MOL0     C37045  11.896   7.283   9.294  0.0537 -0.3185 -0.3441
  994MOL0     C37046  12.036   7.345   9.276  0.3106  0.7066 -0.6141
  994MOL0     C37047  12.088   7.288   9.148 -0.7853 -0.4937  0.6534
  994MOL0     C37048  12.236   7.338   9.113 -0.6757 -0.2119  1.4723
  994MOL0     C37049  12.346   7.247   9.163  0.2021 -0.4966  0.3412
  994MOL0     C37050  12.478   7.317   9.160 -0.3515 -0.4307 -0.0719
  994MOL0     N37051  12.584   7.253   9.242  0.5847 -0.5542  0.0528
  994MOL0     C37052  12.602   7.119   9.258  0.2536  0.3836  0.6020
  994MOL0     C37053  12.710   7.119   9.341  0.3035 -0.9302  0.4221
  994MOL0     C37054  12.771   6.983   9.363 -0.8318 -0.0905  0.5953
  994MOL0     C37055  12.917   6.968   9.307 -0.2177  0.1487  0.4458
  994MOL0     C37056  12.926   7.009   9.163 -0.6437  0.7804  0.3268
  994MOL0     C37057  13.057   6.967   9.098 -0.1830  0.2251 -0.0565
  994MOL0     O37058  13.088   6.830   9.069  0.0911 -0.7943  0.6086
  994MOL0     C37059  13.204   6.792   9.018 -0.2288 -0.2034  0.5045
  994MOL0     C37060  13.258   6.869   8.920 -0.2585 -0.7728  0.9765
  994MOL0     C37061  13.383   6.850   8.866 -0.8875 -1.4783 -0.2538
  994MOL0     C37062  13.438   6.935   8.753 -0.3241  0.4820  0.6377
  994MOL0     C37063  13.443   6.724   8.901 -0.9297  0.0474 -0.1463
  994MOL0     C37064  13.586   6.686   8.860 -0.1892 -0.0755 -0.3566
  994MOL0     O37065  13.620   6.554   8.843  0.4392 -0.4302 -0.1115
  994MOL0     C37066  13.740   6.521   8.780 -0.0404  0.2778 -0.0787
  994MOL0     C37067  13.806   6.411   8.815  0.4580 -0.2315  0.1084
  994MOL0     C37068  13.922   6.365   8.739 -0.3678  0.1814 -0.7532
  994MOL0     C37069  13.970   6.446   8.636 -0.1248 -0.2731  1.0214
  994MOL0     O37070  14.092   6.400   8.587  0.0141 -0.1365 -0.2523
  994MOL0     C37071  14.126   6.438   8.456 -0.1417  0.4938 -0.0517
  994MOL0     C37072  14.251   6.377   8.407  0.7071 -1.1976  0.5271
  994MOL0     C37073  14.289   6.442   8.266  0.0235  0.6020 -0.3008
  994MOL0     C37074  14.410   6.358   8.227  0.7737 -0.4963  0.2636
  994MOL0     C37075  14.451   6.363   8.081  0.1628 -0.6066 -0.2075
  994MOL0     C37076  14.506   6.503   8.028 -0.4330  0.9621  0.1766
  994MOL0     C37077  14.638   6.535   8.100  0.8007  0.4017 -0.0099
  994MOL0     C37078  14.733   6.616   8.025 -0.0395 -0.6431 -0.1263
  994MOL0    Cl37079  14.684   6.780   7.984 -0.8779  0.4632  0.6208
  994MOL0     C37080  13.905   6.560   8.605 -0.3565 -0.4921 -0.1624
  994MOL0     C37081  13.785   6.599   8.669 -0.1725  0.9410  0.9941
  994MOL0     O37082  13.659   6.784   8.857  0.1642  0.6088 -0.3736
  994MOL0     C37083  13.386   6.634   8.998 -0.0729  0.1480 -0.9705
  994MOL0     C37084  13.268   6.672   9.050 -0.0675  0.2905  0.0865
  994MOL0     N37085  12.755   7.246   9.377 -0.3176  0.4513  0.1418
  994MOL0     N37086  12.681   7.325   9.308 -0.1283  0.5426 -0.5391
  994MOL0     C37087  11.448   7.112   9.485 -0.3045  0.5363  0.6206
  994MOL0     C37088  11.331   7.039   9.474  0.6539 -0.5689  0.6972
  994MOL0     C37089  11.003   6.752   9.310 -0.2588 -0.3831 -0.0273
  994MOL0     C37090  10.949   6.693   9.203 -0.2187 -0.3880  0.0105
  994MOL0     C37091  10.811   6.662   9.186 -0.5388  0.1581 -0.3870
  994MOL0     C37092  10.724   6.686   9.288  0.1535 -0.1204  0.3123
  994MOL0     O37093  10.597   6.653   9.294 -0.0792  0.4275  0.4245
  994MOL0     C37094  10.527   6.622   9.165 -0.7984  0.4570 -0.5765
  994MOL0     C37095  10.388   6.593   9.220  0.3303  0.6831 -0.3098
  994MOL0     C37096  10.287   6.539   9.122  0.0269 -1.2654  0.1466
  994MOL0     C37097  10.139   6.517   9.163 -0.9308 -2.0814 -0.0738
  994MOL0     C37098  10.141   6.387   9.228  0.0523 -0.6031 -0.5747
  994MOL0     C37099  10.146   6.281   9.284  1.0963  0.3378 -0.1486
  994MOL0     C37100  10.779   6.741   9.405  0.1465 -0.2127 -0.0925
  994MOL0     C37101  10.913   6.782   9.411  1.2647 -0.2607 -0.7145
  994MOL0     C37102  10.963   6.841   9.544  0.8753 -0.0276 -0.1375
  994MOL0     H37103  11.414   6.821   9.238 -1.3666 -2.1934  1.8776
  994MOL0     H37104  11.617   6.965   9.250 -0.2942  3.5290  0.2346
  994MOL0     H37105  11.622   7.321   9.505 -2.0000  0.2638 -1.3244
  994MOL0     H37106  11.643   7.339   9.335 -1.9548  0.5469  0.6445
  994MOL0     H37107  11.857   7.427   9.428  0.9926  0.6507  0.7389
  994MOL0     H37108  11.888   7.262   9.508  0.6414 -2.4903 -2.5001
  994MOL0     H37109  11.902   7.174   9.287 -0.9053 -0.2918 -5.4982
  994MOL0     H37110  11.827   7.320   9.218  1.5524  4.4114  0.2334
  994MOL0     H37111  12.029   7.454   9.270 -2.9694  0.5843 -0.5858
  994MOL0     H37112  12.093   7.317   9.365 -2.0742 -1.5220  0.3536
  994MOL0     H37113  12.021   7.310   9.064 -1.6239 -0.5783  1.2826
  994MOL0     H37114  12.098   7.180   9.141  0.3454 -0.3625 -0.0274
  994MOL0     H37115  12.251   7.346   9.005 -1.7692  1.4268  1.4076
  994MOL0     H37116  12.233   7.443   9.143 -1.2637 -0.1264  1.1276
  994MOL0     H37117  12.345   7.155   9.104  0.2947  0.0989 -0.6117
  994MOL0     H37118  12.315   7.225   9.266  1.7004  2.3934  1.5097
  994MOL0     H37119  12.512   7.330   9.057  3.3018  1.3767  1.1950
  994MOL0     H37120  12.465   7.416   9.205 -2.3192 -0.6077 -0.1416
  994MOL0     H37121  12.540   7.035   9.229 -0.2463 -0.2178  3.2036
  994MOL0     H37122  12.705   6.904   9.326  1.0905 -0.3613 -2.5818
  994MOL0     H37123  12.777   6.967   9.471  1.3354  0.3342  0.5793
  994MOL0     H37124  12.990   7.020   9.369 -2.4427  1.2003  2.3049
  994MOL0     H37125  12.950   6.865   9.321 -0.4567  0.0149  0.0538
  994MOL0     H37126  12.843   6.964   9.106 -1.1268  1.9752  0.0629
  994MOL0     H37127  12.918   7.118   9.163  0.5790  0.8787  0.4702
  994MOL0     H37128  13.054   7.032   9.010  1.3465  2.3255  1.3314
  994MOL0     H37129  13.139   6.999   9.164  0.4800  0.0330 -0.7815
  994MOL0     H37130  13.227   6.969   8.892 -0.4029 -0.8210  0.9648
  994MOL0     H37131  13.459   6.886   8.657 -1.9593  3.5736 -1.4890
  994MOL0     H37132  13.532   6.976   8.792 -0.5519  0.8847  0.7713
  994MOL0     H37133  13.385   7.030   8.736 -0.3613  0.6898  1.8337
  994MOL0     H37134  13.753   6.351   8.889  0.4267 -1.7889 -1.1324
  994MOL0     H37135  13.976   6.276   8.772  2.0645  2.1784  1.0025
  994MOL0     H37136  14.038   6.425   8.392 -0.2185  0.1158  0.1318
  994MOL0     H37137  14.154   6.544   8.456  1.4440  0.0875 -0.4536
  994MOL0     H37138  14.334   6.392   8.476  1.0226  0.1398 -0.1274
  994MOL0     H37139  14.237   6.268   8.402  2.0249 -1.4164  1.1274
  994MOL0     H37140  14.304   6.550   8.268 -1.0849  0.8131  2.7536
  994MOL0     H37141  14.213   6.432   8.188  2.0941 -0.7105 -2.2690
  994MOL0     H37142  14.385   6.253   8.248  0.4009 -0.5801 -0.5710
  994MOL0     H37143  14.491   6.407   8.282 -1.0205  1.8857  0.9688
  994MOL0     H37144  14.531   6.290   8.065 -1.0225 -1.5760 -2.1279
  994MOL0     H37145  14.367   6.355   8.012 -0.9955 -0.9912  1.2133
  994MOL0     H37146  14.433   6.582   8.045 -0.6457  1.2441 -1.7581
  994MOL0     H37147  14.525   6.502   7.920 -1.3472  1.8409 -0.0051
  994MOL0     H37148  14.705   6.460   8.143  1.1906  1.8501  2.0158
  994MOL0     H37149  14.606   6.587   8.191 -1.3901 -0.2295 -0.3524
  994MOL0     H37150  14.745   6.565   7.929  1.6489 -2.4963  0.9921
  994MOL0     H37151  14.821   6.614   8.090  0.3559 -0.6946 -0.6501
  994MOL0     H37152  13.943   6.633   8.535 -1.4981  0.1404 -0.1579
  994MOL0     H37153  13.742   6.696   8.644  1.1209  1.5901  1.2198
  994MOL0     H37154  13.450   6.554   9.035 -0.0564 -0.1585 -1.6482
  994MOL0     H37155  13.237   6.607   9.131  1.9086 -0.8064  0.0227
  994MOL0     H37156  11.443   7.193   9.557 -4.1380 -0.7553  2.0942
  994MOL0     H37157  11.256   7.062   9.549 -0.0755 -1.7757  0.3586
  994MOL0     H37158  11.019   6.660   9.127 -1.9408 -4.4314 -0.0645
  994MOL0     H37159  10.782   6.601   9.101  1.6018  1.6894 -2.3355
  994MOL0     H37160  10.532   6.714   9.106  2.4036  0.0767 -1.1004
  994MOL0     H37161  10.565   6.537   9.107  2.3102  0.2409  1.5736
  994MOL0     H37162  10.355   6.687   9.266 -0.7566 -0.1238  0.6227
  994MOL0     H37163  10.398   6.527   9.307  0.8846 -0.2205 -1.0490
  994MOL0     H37164  10.290   6.619   9.047  1.4192 -1.7622 -0.3676
  994MOL0     H37165  10.327   6.449   9.075  1.6104 -1.3011  1.4559
  994MOL0     H37166  10.088   6.513   9.066 -0.5369  1.7031 -0.5819
  994MOL0     H37167  10.109   6.604   9.222  2.1154  0.1723 -1.5677
  994MOL0     H37168  10.139   6.184   9.329 -0.7985  0.0109 -1.0467
  994MOL0     H37169  10.718   6.746   9.494  0.0425 -1.8124 -0.0452
  994MOL0     H37170  10.949   6.950   9.542 -3.4351 -0.3576  1.5285
  994MOL0     H37171  10.890   6.819   9.622 -0.2244 -1.7008 -1.5415
  994MOL0     H37172  11.061   6.810   9.582  0.0290 -1.3547  1.0622
  995MOL0     O37173   5.505   4.606   4.971 -0.1238 -0.6321 -0.2958
  995MOL0     C37174   5.415   4.579   4.888 -0.3640 -0.0822 -0.1903
  995MOL0     O37175   5.284   4.538   4.922 -0.9009  0.6545  0.3002
  995MOL0     C37176   5.263   4.503   5.052  0.3348 -0.5311  0.2058
  995MOL0     C37177   5.307   4.375   5.092 -0.1895  0.2619  0.1696
  995MOL0     C37178   5.293   4.352   5.229 -0.4858  0.4086  0.6725
  995MOL0     C37179   5.213   4.438   5.312  0.0500 -0.1365  0.2439
  995MOL0     O37180   5.201   4.422   5.447 -0.3271  0.0385  0.1444
  995MOL0     C37181   5.126   4.302   5.486  0.4824 -1.0763 -0.3169
  995MOL0     C37182   5.112   4.288   5.647  0.3935 -0.6455 -0.1304
  995MOL0     C37183   5.029   4.394   5.718  0.5711 -0.5144  0.2390
  995MOL0     C37184   5.099   4.414   5.857 -0.5257  0.2800 -0.0925
  995MOL0     C37185   5.048   4.537   5.935 -0.1484  1.2060  0.4854
  995MOL0     C37186   5.116   4.547   6.065  0.3419  0.3449  0.2778
  995MOL0     C37187   5.052   4.631   6.170  0.1700  0.8273  0.8153
  995MOL0     C37188   5.075   4.782   6.157  0.7172  0.3523 -0.4766
  995MOL0     N37189   5.027   4.834   6.286 -0.1221 -0.2208 -0.2525
  995MOL0     C37190   5.111   4.868   6.387 -0.4680  0.7121  1.0484
  995MOL0     C37191   5.032   4.899   6.487  0.5982  0.1033 -0.4060
  995MOL0     C37192   5.089   4.949   6.628 -0.0989  0.2943  1.0607
  995MOL0     C37193   5.092   5.097   6.620 -0.0381  0.8422 -0.3732
  995MOL0     C37194   4.975   5.145   6.705 -0.1438 -0.0227  0.1011
  995MOL0     C37195   4.834   5.093   6.678 -0.5572  0.2173  0.0002
  995MOL0     O37196   4.724   5.163   6.738 -1.4227 -0.7376 -0.7471
  995MOL0     C37197   4.627   5.080   6.781  1.2019  0.1096  0.1292
  995MOL0     C37198   4.509   5.073   6.700 -0.5414  0.4964  0.2417
  995MOL0     C37199   4.399   4.998   6.737 -0.1106 -0.2169 -0.0469
  995MOL0     C37200   4.278   5.007   6.642 -0.5673  0.6333  0.1698
  995MOL0     C37201   4.414   4.904   6.841  0.3924  0.0123 -0.5358
  995MOL0     C37202   4.319   4.802   6.865 -0.4474 -1.5575 -0.6079
  995MOL0     O37203   4.309   4.753   6.999 -0.4297  0.0238  0.0946
  995MOL0     C37204   4.231   4.652   7.048  0.1571  0.6370 -0.2088
  995MOL0     C37205   4.223   4.647   7.189 -0.7217 -0.8238 -0.0963
  995MOL0     C37206   4.164   4.539   7.263  0.5815 -0.1181 -0.0962
  995MOL0     C37207   4.101   4.437   7.189 -0.4750  0.1219  0.4645
  995MOL0     O37208   4.022   4.333   7.232 -1.4075  0.8149  0.1186
  995MOL0     C37209   4.003   4.315   7.370  1.1802 -0.5455  0.2585
  995MOL0     C37210   3.898   4.213   7.396  0.9024 -0.5732 -0.0173
  995MOL0     C37211   3.910   4.157   7.537  0.6811  0.5422 -0.3074
  995MOL0     C37212   3.874   4.261   7.648 -0.1791  0.0580  0.7170
  995MOL0     C37213   3.858   4.198   7.786 -0.6196 -1.0049  0.3288
  995MOL0     C37214   3.983   4.137   7.844  1.1617  0.2066  0.3885
  995MOL0     C37215   3.962   4.079   7.985 -0.4437 -0.2703 -0.1764
  995MOL0     C37216   4.083   4.066   8.067  0.8965 -0.2736  0.1843
  995MOL0    Cl37217   4.221   3.966   8.009 -0.5315 -0.2250  0.2784
  995MOL0     C37218   4.116   4.438   7.055  0.7006  0.2515 -0.1146
  995MOL0     C37219   4.177   4.533   6.979 -0.4342  0.6728  0.0911
  995MOL0     O37220   4.258   4.754   6.777  0.1150 -0.5049  0.8184
  995MOL0     C37221   4.527   4.913   6.933 -0.8878 -0.1984  0.3096
  995MOL0     C37222   4.627   5.003   6.896 -0.4185  0.1174 -0.2592
  995MOL0     N37223   4.902   4.899   6.438 -0.5635  0.3398  1.0444
  995MOL0     N37224   4.902   4.855   6.320  0.6648 -0.5798  0.2166
  995MOL0     C37225   5.187   4.570   5.264 -0.2023 -0.0083  0.5157
  995MOL0     C37226   5.214   4.601   5.137  0.2500  1.0890  0.1437
  995MOL0     C37227   5.456   4.605   4.741  0.3662  0.0179 -0.1544
  995MOL0     C37228   5.584   4.651   4.721 -0.2062  0.2625  0.1505
  995MOL0     C37229   5.619   4.678   4.595 -0.9349 -0.4170  0.2820
  995MOL0     C37230   5.542   4.645   4.476 -0.1914 -0.5919 -0.0612
  995MOL0     O37231   5.569   4.667   4.344 -0.2502 -0.1853 -0.0027
  995MOL0     C37232   5.697   4.708   4.314 -0.4086 -0.3861  0.0338
  995MOL0     C37233   5.726   4.758   4.173 -0.0914 -0.4480 -0.3230
  995MOL0     C37234   5.775   4.660   4.068  0.6472  0.5261  0.3082
  995MOL0     C37235   5.820   4.724   3.931 -0.4479 -0.3150  0.2022
  995MOL0     C37236   5.859   4.619   3.836 -0.4334  0.1119 -0.0903
  995MOL0     C37237   5.916   4.539   3.766 -0.6055  0.3926 -0.1643
  995MOL0     C37238   5.426   4.587   4.499 -0.1432  1.0368 -0.3061
  995MOL0     C37239   5.376   4.565   4.627  0.1393  0.5405 -0.1555
  995MOL0     C37240   5.241   4.493   4.636  0.4643 -0.9695 -0.0084
  995MOL0     H37241   5.335   4.299   5.019 -2.0735 -0.0335 -0.2981
  995MOL0     H37242   5.340   4.267   5.277  1.5327 -0.4295 -2.5010
  995MOL0     H37243   5.161   4.213   5.433  0.7299 -0.6306 -0.9150
  995MOL0     H37244   5.025   4.312   5.445  0.8450  0.0645 -0.9591
  995MOL0     H37245   5.057   4.196   5.667 -0.7772  0.1854  0.5965
  995MOL0     H37246   5.214   4.284   5.687  0.6153  1.9643 -0.2662
  995MOL0     H37247   5.034   4.485   5.657 -1.5028  0.2887  1.1885
  995MOL0     H37248   4.924   4.366   5.723  0.4829 -0.0307  1.6101
  995MOL0     H37249   5.083   4.319   5.909 -1.8452 -0.4167 -1.6669
  995MOL0     H37250   5.205   4.440   5.851 -0.1443 -0.5650  2.2332
  995MOL0     H37251   4.942   4.534   5.960 -0.2726  0.4697 -0.0847
  995MOL0     H37252   5.063   4.628   5.876 -0.3640  0.2932 -1.0224
  995MOL0     H37253   5.136   4.448   6.109 -0.4766 -0.2865 -0.7247
  995MOL0     H37254   5.213   4.594   6.049  0.1046  2.6986  4.3364
  995MOL0     H37255   5.096   4.602   6.265 -2.7147  1.6421  2.5426
  995MOL0     H37256   4.944   4.615   6.168  0.5297 -1.9126 -0.7466
  995MOL0     H37257   5.181   4.802   6.144  0.4053  1.0897 -2.2700
  995MOL0     H37258   5.007   4.823   6.081  0.5548  1.2159  0.1215
  995MOL0     H37259   5.218   4.850   6.387 -0.3152  0.9349 -2.5265
  995MOL0     H37260   5.192   4.913   6.633  0.4928  1.2261 -2.0915
  995MOL0     H37261   5.037   4.910   6.715 -0.9591  1.1792  0.9592
  995MOL0     H37262   5.187   5.141   6.652  0.8742 -1.2565 -0.0002
  995MOL0     H37263   5.075   5.126   6.516  0.8409 -0.7933 -1.0104
  995MOL0     H37264   5.006   5.140   6.810  3.4073  1.0366 -0.7535
  995MOL0     H37265   4.975   5.255   6.706  2.5508  0.0407  0.5428
  995MOL0     H37266   4.821   5.087   6.570 -0.3270  1.0903 -0.0811
  995MOL0     H37267   4.838   4.990   6.715 -1.8400 -0.1205 -0.7352
  995MOL0     H37268   4.506   5.122   6.603 -1.6000 -1.2757 -0.6828
  995MOL0     H37269   4.299   4.944   6.555 -0.3688 -0.0173  0.6783
  995MOL0     H37270   4.263   5.111   6.614 -0.3006  1.2158  2.0385
  995MOL0     H37271   4.181   4.976   6.681 -0.0008 -1.2278  0.2429
  995MOL0     H37272   4.271   4.732   7.235  2.0074 -2.9007  1.1722
  995MOL0     H37273   4.144   4.550   7.369 -1.0934 -1.6446 -0.2082
  995MOL0     H37274   4.098   4.289   7.418  0.9692 -1.2798  0.2792
  995MOL0     H37275   3.968   4.408   7.416  1.8131 -0.3379  0.3422
  995MOL0     H37276   3.801   4.263   7.398  0.1691 -1.9241  0.0232
  995MOL0     H37277   3.894   4.137   7.317 -1.1832  0.5665 -1.0897
  995MOL0     H37278   4.009   4.116   7.558  0.2539 -1.4350 -1.8288
  995MOL0     H37279   3.849   4.067   7.549  3.1676 -1.1304  0.5744
  995MOL0     H37280   3.777   4.305   7.626 -1.0900 -2.7859 -1.7004
  995MOL0     H37281   3.949   4.341   7.646 -1.7914  1.6137 -1.0261
  995MOL0     H37282   3.820   4.281   7.846  0.2366  0.9478 -1.6893
  995MOL0     H37283   3.780   4.122   7.769 -0.6686 -0.5663 -1.7004
  995MOL0     H37284   4.063   4.212   7.844  1.0212  0.3963 -1.4473
  995MOL0     H37285   4.010   4.055   7.777  3.6078  0.2122  1.2450
  995MOL0     H37286   3.907   3.985   7.974  1.0724 -1.0053 -2.0937
  995MOL0     H37287   3.902   4.146   8.047  2.0149  1.2076  0.7333
  995MOL0     H37288   4.055   4.031   8.167 -0.8007  0.6078  0.0659
  995MOL0     H37289   4.125   4.167   8.074 -1.0008  0.7803 -2.0920
  995MOL0     H37290   4.095   4.341   7.010 -1.5514 -0.5004  2.2910
  995MOL0     H37291   4.200   4.522   6.873  0.7386 -3.1063  0.5926
  995MOL0     H37292   4.531   4.857   7.026 -0.0513 -1.4682 -0.4560
  995MOL0     H37293   4.714   5.019   6.959  2.6802 -1.8338 -3.6598
  995MOL0     H37294   5.157   4.641   5.340 -0.1936 -0.1624  0.6655
  995MOL0     H37295   5.203   4.698   5.090 -0.4655  0.3262 -1.3157
  995MOL0     H37296   5.646   4.687   4.803 -0.4679  2.8811 -0.7111
  995MOL0     H37297   5.717   4.723   4.581 -1.3060  0.8214  1.4399
  995MOL0     H37298   5.730   4.792   4.376  0.2269 -1.4135  1.1366
  995MOL0     H37299   5.767   4.625   4.330 -0.2979 -1.3906 -4.3478
  995MOL0     H37300   5.805   4.832   4.183  0.6177 -1.4221  2.0669
  995MOL0     H37301   5.634   4.810   4.148 -1.1377 -1.8022  0.5393
  995MOL0     H37302   5.851   4.591   4.104 -1.4874 -1.2970  1.5682
  995MOL0     H37303   5.693   4.597   4.033 -0.7224 -0.1364  4.2168
  995MOL0     H37304   5.912   4.778   3.955  0.2791 -1.2184 -0.4574
  995MOL0     H37305   5.744   4.778   3.875 -0.7585 -1.1597 -0.2147
  995MOL0     H37306   5.971   4.471   3.704  0.2494  1.5649 -0.7282
  995MOL0     H37307   5.363   4.530   4.431 -1.9219  1.1791  1.1492
  995MOL0     H37308   5.257   4.391   4.672  2.6429 -0.8004 -0.3933
  995MOL0     H37309   5.186   4.567   4.696  1.0833 -1.1476  0.7888
  995MOL0     H37310   5.185   4.482   4.543 -1.0929  1.5831  0.4914
  996MOL0     O37311   7.481   1.899   5.294 -0.0509  0.9560 -0.3378
  996MOL0     C37312   7.547   1.879   5.392  0.4490  0.3369 -0.0093
  996MOL0     O37313   7.644   1.787   5.399  0.0639 -0.0215 -0.2396
  996MOL0     C37314   7.746   1.785   5.315  0.1113 -0.7154  0.5313
  996MOL0     C37315   7.763   1.884   5.215 -0.8679  0.7420 -0.6357
  996MOL0     C37316   7.878   1.875   5.133  0.7723 -0.0970 -0.1268
  996MOL0     C37317   7.968   1.769   5.143  0.9346  0.3612  0.9838
  996MOL0     O37318   8.073   1.769   5.052  0.1488 -0.0019  0.3272
  996MOL0     C37319   8.110   1.638   5.007  0.7290 -0.3444 -0.0259
  996MOL0     C37320   8.196   1.662   4.884  0.0841 -1.3299  0.0539
  996MOL0     C37321   8.124   1.751   4.778  0.0196 -0.0356  0.2550
  996MOL0     C37322   8.163   1.750   4.634 -0.7422 -0.7383  0.1818
  996MOL0     C37323   8.068   1.850   4.553 -0.1635  0.1211 -1.6723
  996MOL0     C37324   8.120   1.863   4.403 -0.2149  0.3009  0.3256
  996MOL0     C37325   8.094   1.728   4.330  0.0605 -0.4727 -0.1434
  996MOL0     C37326   8.081   1.744   4.175  0.4664  0.9998  0.2731
  996MOL0     N37327   8.078   1.607   4.106 -0.1665 -0.7817 -0.8555
  996MOL0     C37328   8.003   1.494   4.138  0.2002 -0.0668  0.0159
  996MOL0     C37329   8.063   1.391   4.069 -0.3924  0.5483  0.4392
  996MOL0     C37330   8.018   1.246   4.075  0.1205  0.2120 -0.3641
  996MOL0     C37331   8.060   1.182   4.209 -0.1507 -0.2529 -0.2975
  996MOL0     C37332   7.986   1.052   4.231 -0.1302  0.9485 -0.4343
  996MOL0     C37333   8.037   0.985   4.365 -0.4103  0.1439  0.2923
  996MOL0     O37334   8.176   0.965   4.374  0.3000 -0.2149 -0.4212
  996MOL0     C37335   8.242   0.948   4.493  1.0274 -0.6084 -0.9241
  996MOL0     C37336   8.375   0.983   4.501  0.3606 -0.5247 -1.6812
  996MOL0     C37337   8.449   0.951   4.620 -0.4264  0.3271  0.4944
  996MOL0     C37338   8.594   0.980   4.616 -0.4214  1.2833 -0.3408
  996MOL0     C37339   8.380   0.898   4.737  0.2610  0.9516  0.7791
  996MOL0     C37340   8.450   0.878   4.873  0.3907  0.0468  2.1506
  996MOL0     O37341   8.378   0.889   4.989 -0.0324  0.1645  0.6735
  996MOL0     C37342   8.423   0.825   5.100  0.0583 -0.4182 -0.2749
  996MOL0     C37343   8.399   0.887   5.218  0.4604  0.3837  0.1815
  996MOL0     C37344   8.455   0.838   5.337 -0.0458  0.6815  0.7244
  996MOL0     C37345   8.510   0.709   5.340  0.2691 -0.5597  0.3430
  996MOL0     O37346   8.558   0.664   5.458 -0.2232 -0.8776  0.3355
  996MOL0     C37347   8.572   0.520   5.486 -0.2865 -0.4545  0.0567
  996MOL0     C37348   8.441   0.444   5.468  0.1540 -0.5172 -0.5881
  996MOL0     C37349   8.441   0.297   5.498 -0.9317  0.3402 -0.2899
  996MOL0     C37350   8.485   0.259   5.646  0.3542  0.3417 -0.3539
  996MOL0     C37351   8.386   0.271   5.756 -0.0729 -0.8572  0.7255
  996MOL0     C37352   8.463   0.268   5.895  0.0288  0.6096  0.3171
  996MOL0     C37353   8.360   0.206   5.999  0.0079  0.6309 -0.1884
  996MOL0     C37354   8.405   0.255   6.133 -0.6836  0.2860  0.1228
  996MOL0    Cl37355   8.320   0.176   6.259 -0.3275  0.4472  0.3844
  996MOL0     C37356   8.522   0.640   5.221 -1.5411  0.0265 -0.2053
  996MOL0     C37357   8.479   0.698   5.096  0.1232 -0.3267 -0.8347
  996MOL0     O37358   8.564   0.854   4.871 -0.1173 -0.1004 -0.6382
  996MOL0     C37359   8.238   0.876   4.727 -0.0198  0.0824 -0.0993
  996MOL0     C37360   8.171   0.901   4.610  0.2670 -0.1299 -0.3989
  996MOL0     N37361   8.163   1.444   3.993  0.2703 -0.0068  0.2053
  996MOL0     N37362   8.164   1.569   4.012  0.2396 -0.4273  0.6563
  996MOL0     C37363   7.949   1.676   5.239 -0.6148  0.0142  0.1931
  996MOL0     C37364   7.838   1.685   5.324  0.3060  0.2800  0.6949
  996MOL0     C37365   7.522   1.975   5.499 -0.3133 -0.0226 -0.0727
  996MOL0     C37366   7.408   2.058   5.498 -0.5657  0.2285 -0.0361
  996MOL0     C37367   7.369   2.136   5.608  0.4599  0.1040 -0.0073
  996MOL0     C37368   7.445   2.140   5.725 -0.2142  1.3485  0.0361
  996MOL0     O37369   7.411   2.228   5.820 -0.5398  0.4701 -0.3229
  996MOL0     C37370   7.499   2.247   5.935 -0.3900 -0.8816 -0.5742
  996MOL0     C37371   7.499   2.393   5.972  0.5523  0.9618 -0.4308
  996MOL0     C37372   7.374   2.432   6.053  0.4273  0.1107 -0.4658
  996MOL0     C37373   7.356   2.584   6.043  0.0977 -0.0924  0.7217
  996MOL0     C37374   7.233   2.634   6.105  0.0274  0.7887  0.3441
  996MOL0     C37375   7.145   2.680   6.177  0.2574 -0.5013 -0.1915
  996MOL0     C37376   7.551   2.052   5.729  0.6292  0.2706 -0.1111
  996MOL0     C37377   7.598   1.979   5.621 -0.4908  0.5947  0.1925
  996MOL0     C37378   7.743   1.915   5.638  0.0699 -0.6099  0.0836
  996MOL0     H37379   7.706   1.976   5.202 -2.5681 -0.2378 -0.3517
  996MOL0     H37380   7.902   1.960   5.070  2.1742  1.2816  2.1065
  996MOL0     H37381   8.027   1.572   4.979  1.3420 -1.0263 -0.2845
  996MOL0     H37382   8.162   1.597   5.094 -1.0914 -0.0422  1.2607
  996MOL0     H37383   8.287   1.708   4.923 -2.0547  1.0558  2.6589
  996MOL0     H37384   8.211   1.562   4.842 -0.1281 -1.0971 -0.5815
  996MOL0     H37385   8.021   1.713   4.779 -1.4141  2.8357  5.6293
  996MOL0     H37386   8.109   1.853   4.813  3.3851 -0.1403  2.4773
  996MOL0     H37387   8.268   1.780   4.624 -0.6336 -1.5779 -1.7957
  996MOL0     H37388   8.176   1.645   4.607  4.6947 -0.9688  2.4540
  996MOL0     H37389   8.068   1.948   4.603  2.1060 -0.8040  0.3580
  996MOL0     H37390   7.966   1.812   4.548 -0.5775  1.1193 -1.1187
  996MOL0     H37391   8.066   1.944   4.354  1.1833  2.4139  2.0908
  996MOL0     H37392   8.227   1.881   4.395 -0.2205  2.0566  2.9711
  996MOL0     H37393   7.997   1.691   4.364  1.0648 -2.5865  0.5974
  996MOL0     H37394   8.170   1.653   4.354 -0.6980 -1.5085 -0.8560
  996MOL0     H37395   7.991   1.804   4.158  0.9693  2.7095  2.9293
  996MOL0     H37396   8.174   1.795   4.146  0.6646  0.6486  0.2871
  996MOL0     H37397   7.930   1.465   4.213 -1.2135 -5.2253 -2.8791
  996MOL0     H37398   8.068   1.195   3.992 -1.9333 -1.9477 -0.3938
  996MOL0     H37399   7.910   1.232   4.061  0.4050 -1.3236 -1.3532
  996MOL0     H37400   8.168   1.164   4.210 -0.4172 -1.9566 -0.6836
  996MOL0     H37401   8.038   1.240   4.299 -0.5670  0.7094 -0.9984
  996MOL0     H37402   7.880   1.053   4.256  0.1763 -1.1792  1.2584
  996MOL0     H37403   8.011   0.992   4.143  2.0212 -0.6025  1.1167
  996MOL0     H37404   8.016   1.058   4.444  0.1481  1.0967 -0.4238
  996MOL0     H37405   7.983   0.890   4.375 -2.9976  0.8441 -4.2709
  996MOL0     H37406   8.416   1.058   4.434  0.5532  2.3662  1.3941
  996MOL0     H37407   8.626   1.022   4.711 -0.9109 -0.8252  0.8206
  996MOL0     H37408   8.624   1.051   4.538  3.8260  0.1019 -0.0443
  996MOL0     H37409   8.645   0.886   4.592 -1.3804  0.5939  0.2864
  996MOL0     H37410   8.345   0.981   5.226 -1.9571 -1.0352  1.8266
  996MOL0     H37411   8.455   0.900   5.426  0.9059  0.3804  0.9477
  996MOL0     H37412   8.652   0.486   5.420  0.2553  2.3277 -0.8404
  996MOL0     H37413   8.605   0.521   5.590 -2.4943  4.3936  0.9680
  996MOL0     H37414   8.373   0.496   5.536  2.0332  0.5767  0.5224
  996MOL0     H37415   8.406   0.457   5.365 -1.4686  0.6636  0.0716
  996MOL0     H37416   8.504   0.245   5.425  0.4330 -2.2674  2.5381
  996MOL0     H37417   8.337   0.266   5.483 -1.2195  0.8582  0.5853
  996MOL0     H37418   8.576   0.310   5.678 -0.0721 -0.1501  1.7745
  996MOL0     H37419   8.511   0.152   5.647  1.3345  0.5537  1.5708
  996MOL0     H37420   8.336   0.368   5.752 -0.6765 -1.1974 -0.0066
  996MOL0     H37421   8.311   0.192   5.747  1.1763 -2.5514  3.6407
  996MOL0     H37422   8.494   0.371   5.916 -1.2642  1.0940 -0.0505
  996MOL0     H37423   8.553   0.205   5.891  1.8637  2.9887  1.4509
  996MOL0     H37424   8.374   0.097   5.996  2.2832  0.8198  0.9156
  996MOL0     H37425   8.260   0.230   5.963  0.2280 -1.7524 -2.6857
  996MOL0     H37426   8.391   0.363   6.135  2.0353  0.6972  1.1305
  996MOL0     H37427   8.512   0.235   6.148 -0.3511 -0.4604 -2.6484
  996MOL0     H37428   8.567   0.542   5.223 -1.7143 -0.1193 -1.8037
  996MOL0     H37429   8.476   0.637   5.007  0.1157  1.0682 -1.8198
  996MOL0     H37430   8.169   0.851   4.806  0.5427  2.6855  1.3165
  996MOL0     H37431   8.064   0.885   4.616  0.5020 -1.3504  3.2205
  996MOL0     H37432   8.027   1.604   5.261 -0.0015  1.1812  2.1138
  996MOL0     H37433   7.831   1.616   5.408  1.9145  1.8951  2.2524
  996MOL0     H37434   7.340   2.054   5.414 -0.0535 -0.1325 -0.4412
  996MOL0     H37435   7.286   2.203   5.590  2.0590  1.6303 -2.2239
  996MOL0     H37436   7.478   2.177   6.016  2.3391 -0.2522  0.7987
  996MOL0     H37437   7.604   2.222   5.918 -0.3254 -0.2145 -1.2455
  996MOL0     H37438   7.502   2.454   5.881  0.5210  1.1919 -0.2780
  996MOL0     H37439   7.586   2.425   6.031  1.1071  0.9478 -1.2247
  996MOL0     H37440   7.284   2.383   6.015 -0.9540  0.4002  2.1912
  996MOL0     H37441   7.398   2.400   6.155  0.5320 -2.1988 -1.1684
  996MOL0     H37442   7.337   2.611   5.939 -1.2518  0.5593  1.1103
  996MOL0     H37443   7.442   2.640   6.081  0.1751 -0.9802  1.9007
  996MOL0     H37444   7.064   2.713   6.239 -0.0267  1.2082 -1.4259
  996MOL0     H37445   7.586   2.031   5.829  0.7295  0.2391 -0.1533
  996MOL0     H37446   7.805   1.930   5.550 -0.5860  1.1683 -0.1302
  996MOL0     H37447   7.803   1.946   5.724 -1.9576 -1.6223  1.9706
  996MOL0     H37448   7.731   1.807   5.646 -3.6345 -0.2106  3.0007
  997MOL0     O37449   6.457   4.448   0.846  0.0125 -0.0747  0.2993
  997MOL0     C37450   6.540   4.530   0.795  0.6399  0.1812  0.7711
  997MOL0     O37451   6.536   4.579   0.667  0.7288  0.3634  0.1373
  997MOL0     C37452   6.423   4.566   0.594  0.2178 -0.3493  0.3887
  997MOL0     C37453   6.330   4.666   0.575  0.2986 -0.4395  0.0036
  997MOL0     C37454   6.214   4.635   0.507  1.0069 -0.6367  0.0273
  997MOL0     C37455   6.181   4.516   0.455  0.2383  0.3612 -1.0221
  997MOL0     O37456   6.066   4.511   0.387  0.7649  0.1083 -0.2402
  997MOL0     C37457   5.973   4.401   0.418 -0.1427 -0.2364  0.3545
  997MOL0     C37458   5.918   4.420   0.566 -0.3954  0.0401 -0.9332
  997MOL0     C37459   5.831   4.300   0.592  0.2428  1.1647  0.5510
  997MOL0     C37460   5.777   4.301   0.738 -0.7979  0.2398 -0.3550
  997MOL0     C37461   5.691   4.183   0.796  0.1752  0.1991  0.2140
  997MOL0     C37462   5.659   4.215   0.939 -0.0113 -0.3894 -0.8084
  997MOL0     C37463   5.572   4.098   0.997  1.0677 -0.3611  0.1082
  997MOL0     C37464   5.522   4.149   1.132  1.0526  0.1542  0.0756
  997MOL0     N37465   5.492   4.035   1.224  0.3240 -0.5699 -0.2542
  997MOL0     C37466   5.586   3.972   1.300 -0.5125 -1.3672  0.5756
  997MOL0     C37467   5.523   3.877   1.374 -0.1113 -0.2736  1.7791
  997MOL0     C37468   5.584   3.766   1.461 -0.2186  0.6470  0.0477
  997MOL0     C37469   5.659   3.655   1.384 -0.0976 -0.6129 -0.0260
  997MOL0     C37470   5.595   3.585   1.265  0.1633 -0.2845 -0.1476
  997MOL0     C37471   5.463   3.507   1.294 -0.0499  0.4333  0.7731
  997MOL0     O37472   5.464   3.420   1.412  0.6060  0.1392  0.0531
  997MOL0     C37473   5.367   3.322   1.413 -0.3118  0.6380  0.1000
  997MOL0     C37474   5.416   3.193   1.438 -0.5693 -0.4640 -0.8991
  997MOL0     C37475   5.330   3.077   1.444  0.1541  0.1908 -0.5542
  997MOL0     C37476   5.396   2.941   1.482  0.1124  0.6595  0.5858
  997MOL0     C37477   5.192   3.091   1.421 -0.6595  0.8492 -0.7509
  997MOL0     C37478   5.095   2.976   1.397 -0.0893  0.2589 -0.0700
  997MOL0     O37479   4.971   3.020   1.359  0.7990 -0.2896 -0.6227
  997MOL0     C37480   4.882   2.928   1.307 -0.1853  0.0062  0.3018
  997MOL0     C37481   4.865   2.928   1.162 -0.7597  0.1267  0.3943
  997MOL0     C37482   4.799   2.819   1.105  0.1759 -0.3435  0.2264
  997MOL0     C37483   4.732   2.725   1.185  0.3779 -0.5388  0.1607
  997MOL0     O37484   4.670   2.627   1.119 -0.6721 -0.1254  0.6043
  997MOL0     C37485   4.606   2.521   1.191  0.7299  0.4093  0.4130
  997MOL0     C37486   4.596   2.415   1.090  0.4040  0.3814 -0.3416
  997MOL0     C37487   4.548   2.287   1.152  0.2622 -0.5946 -0.5507
  997MOL0     C37488   4.421   2.242   1.069  0.4040 -0.3067 -0.6238
  997MOL0     C37489   4.350   2.109   1.112 -0.9477 -0.9254 -0.2147
  997MOL0     C37490   4.447   1.990   1.108  0.3334  0.2454  0.3301
  997MOL0     C37491   4.401   1.860   1.170 -0.1484 -0.3107 -0.1338
  997MOL0     C37492   4.510   1.763   1.183 -0.8252 -0.1778 -0.3642
  997MOL0    Cl37493   4.582   1.777   1.342 -0.3631  0.3286  0.1899
  997MOL0     C37494   4.728   2.742   1.320 -0.0607  0.0556 -0.3558
  997MOL0     C37495   4.810   2.837   1.390  0.2669 -0.6614  0.0187
  997MOL0     O37496   5.126   2.862   1.396 -0.9542  0.5801 -0.3122
  997MOL0     C37497   5.144   3.221   1.395 -0.0288  0.0988  0.0818
  997MOL0     C37498   5.229   3.336   1.387  0.5639 -0.1441  0.8487
  997MOL0     N37499   5.389   3.889   1.335 -0.5696 -0.1365  0.3403
  997MOL0     N37500   5.377   3.976   1.243  0.1729 -0.1752  0.2252
  997MOL0     C37501   6.269   4.414   0.475 -0.5079 -0.3346  1.2393
  997MOL0     C37502   6.392   4.441   0.538  0.4717 -0.3806 -0.0789
  997MOL0     C37503   6.639   4.594   0.883 -0.8363  0.6564  0.4683
  997MOL0     C37504   6.600   4.636   1.010 -0.2449 -0.5654 -0.5644
  997MOL0     C37505   6.691   4.683   1.099 -0.1745 -0.5703  0.6045
  997MOL0     C37506   6.820   4.693   1.050 -0.7152 -0.1174  0.2978
  997MOL0     O37507   6.938   4.717   1.123 -0.6922  0.4364  0.4488
  997MOL0     C37508   6.918   4.780   1.252  0.1030  0.1220 -1.1318
  997MOL0     C37509   7.050   4.789   1.323 -0.9220 -0.7496  0.0041
  997MOL0     C37510   7.112   4.662   1.390 -0.7201 -0.7363 -0.3490
  997MOL0     C37511   7.158   4.545   1.299  0.0952  0.6311  0.0183
  997MOL0     C37512   7.220   4.454   1.387  0.0244 -0.5801  0.7129
  997MOL0     C37513   7.266   4.372   1.464 -0.5948  0.2784 -0.4716
  997MOL0     C37514   6.860   4.660   0.925  0.0761  0.1731  0.1619
  997MOL0     C37515   6.771   4.605   0.838 -0.4751  0.1394  0.1875
  997MOL0     C37516   6.816   4.555   0.704 -0.4854 -0.1010  1.0675
  997MOL0     H37517   6.337   4.764   0.621 -1.6464 -0.6790  0.8996
  997MOL0     H37518   6.142   4.717   0.500 -1.0355 -2.2701  0.7851
  997MOL0     H37519   6.025   4.305   0.419 -1.4859 -1.0245 -1.2173
  997MOL0     H37520   5.902   4.392   0.335 -1.2781 -3.8430  1.5166
  997MOL0     H37521   5.995   4.413   0.642 -1.5025 -1.3402  0.1124
  997MOL0     H37522   5.861   4.513   0.575  0.1476  0.4851 -1.9049
  997MOL0     H37523   5.742   4.281   0.530 -1.3693 -1.1701  3.3360
  997MOL0     H37524   5.895   4.212   0.577  0.1383  1.0693  0.6664
  997MOL0     H37525   5.863   4.316   0.803 -1.9589  0.9462  1.0899
  997MOL0     H37526   5.710   4.386   0.758  1.3804  1.9955 -0.0998
  997MOL0     H37527   5.761   4.099   0.795 -0.2271 -0.1372 -0.3315
  997MOL0     H37528   5.606   4.157   0.732 -0.9117 -0.7291  1.9615
  997MOL0     H37529   5.754   4.211   0.994 -1.2424  0.5699  1.5502
  997MOL0     H37530   5.628   4.319   0.949 -0.0292 -0.4221 -0.5157
  997MOL0     H37531   5.625   4.003   1.009  0.7750 -0.4217  0.9158
  997MOL0     H37532   5.488   4.081   0.929  0.0799 -0.3443  1.2966
  997MOL0     H37533   5.600   4.208   1.180 -2.6810  3.1939  2.9497
  997MOL0     H37534   5.439   4.217   1.116  0.0761 -0.3746  2.4315
  997MOL0     H37535   5.693   3.986   1.303 -0.8046  4.0423 -2.0946
  997MOL0     H37536   5.507   3.719   1.523 -1.4453  1.7027 -0.6228
  997MOL0     H37537   5.653   3.816   1.530  0.5053  1.3229 -1.1249
  997MOL0     H37538   5.739   3.714   1.339 -0.7991  0.4478  0.0648
  997MOL0     H37539   5.700   3.585   1.457 -0.2192 -1.2444 -0.5567
  997MOL0     H37540   5.561   3.661   1.194 -2.5045 -1.7586 -0.5869
  997MOL0     H37541   5.671   3.523   1.217  0.6876  0.6846 -0.6132
  997MOL0     H37542   5.377   3.574   1.298  0.7293  1.6567 -1.1622
  997MOL0     H37543   5.456   3.440   1.207 -0.1466  2.5703 -0.9545
  997MOL0     H37544   5.519   3.166   1.458 -0.7148 -1.9410 -1.9105
  997MOL0     H37545   5.490   2.963   1.534  0.0607 -2.5916  2.3309
  997MOL0     H37546   5.414   2.871   1.400  0.6575 -0.4841  1.6491
  997MOL0     H37547   5.333   2.886   1.552 -1.2003  1.6741  0.2512
  997MOL0     H37548   4.922   2.994   1.097 -3.7633  2.3944 -0.1486
  997MOL0     H37549   4.796   2.800   0.998 -0.0205 -2.4238  0.5622
  997MOL0     H37550   4.663   2.478   1.274  0.3725  0.4265  0.6746
  997MOL0     H37551   4.511   2.555   1.235  0.8123 -0.7284  1.5333
  997MOL0     H37552   4.538   2.456   1.006  1.2790  3.7918  0.5513
  997MOL0     H37553   4.696   2.395   1.051  1.1740 -0.9948  2.1803
  997MOL0     H37554   4.530   2.301   1.259 -1.5126 -0.9845 -0.7525
  997MOL0     H37555   4.627   2.213   1.137  1.7438  0.9717 -0.7633
  997MOL0     H37556   4.449   2.220   0.966  0.1359  0.4213 -0.8543
  997MOL0     H37557   4.335   2.310   1.071 -1.0232 -1.9972 -1.3539
  997MOL0     H37558   4.317   2.121   1.216 -2.4531 -0.3942 -0.7201
  997MOL0     H37559   4.270   2.084   1.042 -0.5789  0.4296 -1.1686
  997MOL0     H37560   4.541   2.023   1.154  1.5772  2.8947 -3.5770
  997MOL0     H37561   4.472   1.958   1.006  0.2154 -0.3390  0.4768
  997MOL0     H37562   4.309   1.826   1.120 -0.1064 -0.6221 -0.0050
  997MOL0     H37563   4.356   1.881   1.267 -2.4588  0.5189 -1.3051
  997MOL0     H37564   4.587   1.789   1.109 -1.2767  1.0586 -0.4218
  997MOL0     H37565   4.469   1.663   1.166  0.5099 -1.0100  1.0470
  997MOL0     H37566   4.685   2.675   1.393  0.0992  1.7835  1.3984
  997MOL0     H37567   4.833   2.838   1.496  2.5508 -1.0568 -0.4301
  997MOL0     H37568   5.040   3.245   1.378 -0.5271 -0.8897  1.5659
  997MOL0     H37569   5.189   3.436   1.373 -0.6870 -0.8875 -1.4090
  997MOL0     H37570   6.263   4.318   0.425  0.0479  0.8431 -1.2510
  997MOL0     H37571   6.458   4.358   0.560 -1.6704 -1.7291  1.7935
  997MOL0     H37572   6.496   4.616   1.036 -1.0100  0.2400 -2.7568
  997MOL0     H37573   6.663   4.702   1.202 -1.3320 -1.7154  0.5303
  997MOL0     H37574   6.870   4.878   1.255  2.5002  1.4237  2.5134
  997MOL0     H37575   6.867   4.720   1.328  1.4570  0.6398  0.2437
  997MOL0     H37576   7.034   4.864   1.401  0.3214  0.1261 -0.5424
  997MOL0     H37577   7.120   4.829   1.249 -2.1560 -0.0563 -0.8157
  997MOL0     H37578   7.198   4.698   1.447 -0.5614 -0.6772 -0.6203
  997MOL0     H37579   7.050   4.622   1.471  0.8541 -2.7683 -0.0672
  997MOL0     H37580   7.242   4.584   1.241  0.6678  1.0910  1.1169
  997MOL0     H37581   7.086   4.510   1.225 -0.8551  1.4928  0.5042
  997MOL0     H37582   7.282   4.285   1.525 -5.7225 -0.0868  0.7609
  997MOL0     H37583   6.965   4.670   0.898  1.0445  1.3539  3.7239
  997MOL0     H37584   6.923   4.531   0.695 -0.9162 -1.6832 -0.5932
  997MOL0     H37585   6.769   4.458   0.683  2.5678 -2.1206  2.6911
  997MOL0     H37586   6.784   4.629   0.630 -1.2431 -1.9692 -0.5543
  998MOL0     O37587   3.471   4.837   8.020 -0.0851  0.1245 -0.5072
  998MOL0     C37588   3.362   4.894   7.994 -0.4296 -0.6014  0.1523
  998MOL0     O37589   3.266   4.920   8.078 -0.0063 -0.6366 -0.4999
  998MOL0     C37590   3.278   4.931   8.216 -0.7800 -0.6718  0.5035
  998MOL0     C37591   3.251   5.060   8.272  0.3761 -0.0811 -0.6973
  998MOL0     C37592   3.274   5.091   8.407  0.3572  0.6181  0.0696
  998MOL0     C37593   3.303   4.988   8.499 -0.3385  0.8082 -0.0475
  998MOL0     O37594   3.326   4.991   8.635  0.2536  0.3736 -0.5278
  998MOL0     C37595   3.262   5.088   8.724 -0.8122  0.2686  0.5687
  998MOL0     C37596   3.303   5.064   8.875  0.4618 -0.4912 -0.8699
  998MOL0     C37597   3.237   5.164   8.979  0.0488  0.5875  0.8030
  998MOL0     C37598   3.274   5.124   9.124 -0.0686  0.7229  0.5332
  998MOL0     C37599   3.236   5.230   9.222 -1.1767 -0.0833  0.1326
  998MOL0     C37600   3.127   5.184   9.325 -0.2522  0.5577  0.2281
  998MOL0     C37601   3.105   5.296   9.431 -0.6693 -0.0643  0.0753
  998MOL0     C37602   2.958   5.288   9.491 -0.0959  0.5935  1.0870
  998MOL0     N37603   2.866   5.367   9.410 -0.5070 -0.1272 -0.4886
  998MOL0     C37604   2.810   5.311   9.297  0.0934  0.3116  0.6021
  998MOL0     C37605   2.713   5.402   9.256 -0.7610  0.7169 -0.2020
  998MOL0     C37606   2.607   5.384   9.154 -0.4502 -0.8997 -0.1725
  998MOL0     C37607   2.667   5.334   9.030  0.0890 -0.0149  0.6767
  998MOL0     C37608   2.770   5.434   8.971 -0.7201  0.1669  0.0320
  998MOL0     C37609   2.717   5.572   8.939  0.0949 -0.5676 -0.4314
  998MOL0     O37610   2.816   5.629   8.859  0.7187 -0.5943 -0.2757
  998MOL0     C37611   2.769   5.694   8.747  0.0361 -0.0783  0.3142
  998MOL0     C37612   2.787   5.834   8.726  0.2217  0.7530 -0.4107
  998MOL0     C37613   2.744   5.906   8.618 -0.1400 -0.5911 -0.0865
  998MOL0     C37614   2.768   6.054   8.620 -0.3695 -0.3184  0.0471
  998MOL0     C37615   2.691   5.837   8.511 -0.0432  0.6643 -0.1063
  998MOL0     C37616   2.636   5.897   8.378  1.1112 -0.2842 -0.3660
  998MOL0     O37617   2.621   6.031   8.369  0.0838 -0.3075 -0.0730
  998MOL0     C37618   2.582   6.076   8.241 -1.4104 -0.1955 -0.4010
  998MOL0     C37619   2.455   6.128   8.227  0.0009 -0.6670 -0.7471
  998MOL0     C37620   2.424   6.170   8.088 -0.7298 -0.8703 -0.4034
  998MOL0     C37621   2.522   6.170   7.997  0.5813  0.1520 -0.2627
  998MOL0     O37622   2.485   6.217   7.870 -1.1484  0.1750 -0.3552
  998MOL0     C37623   2.475   6.119   7.765  0.5656 -0.4939  0.1307
  998MOL0     C37624   2.465   6.193   7.631 -0.8338  0.1392  0.1882
  998MOL0     C37625   2.599   6.231   7.572  0.2653  0.9673  0.5178
  998MOL0     C37626   2.658   6.356   7.648 -0.2778 -1.3895 -0.1488
  998MOL0     C37627   2.785   6.418   7.592 -0.3542 -0.6326  0.0978
  998MOL0     C37628   2.914   6.339   7.633 -0.2464  0.1488  0.3678
  998MOL0     C37629   3.039   6.423   7.596 -0.6030 -1.1156 -0.3683
  998MOL0     C37630   3.162   6.351   7.645 -0.2171 -0.0176 -0.2760
  998MOL0    Cl37631   3.296   6.407   7.534  0.2555 -0.0911  0.1722
  998MOL0     C37632   2.653   6.118   8.014  0.7495  0.3029 -0.3910
  998MOL0     C37633   2.678   6.070   8.135  0.1048 -0.6829  0.1852
  998MOL0     O37634   2.573   5.815   8.304 -0.2383 -0.7935  0.5950
  998MOL0     C37635   2.677   5.695   8.517 -0.4041 -0.3463 -0.3586
  998MOL0     C37636   2.718   5.630   8.631 -0.2989  0.1655 -0.8772
  998MOL0     N37637   2.728   5.512   9.342 -0.1844 -0.1548 -0.5258
  998MOL0     N37638   2.823   5.489   9.425 -0.8662  0.2849 -0.7261
  998MOL0     C37639   3.317   4.857   8.440 -0.1517  0.0080  0.1265
  998MOL0     C37640   3.317   4.830   8.306 -0.0875 -0.3614  0.7115
  998MOL0     C37641   3.333   4.936   7.851 -0.2254 -0.3377  0.2288
  998MOL0     C37642   3.395   4.865   7.741  0.2716 -1.0808  0.6498
  998MOL0     C37643   3.362   4.876   7.611 -1.0117  0.3552 -0.2582
  998MOL0     C37644   3.269   4.971   7.579  0.1692  0.1019 -0.6808
  998MOL0     O37645   3.227   4.997   7.453 -0.5593 -0.2986  0.0073
  998MOL0     C37646   3.278   4.911   7.346  0.6495 -0.2221 -0.1980
  998MOL0     C37647   3.171   4.916   7.237 -0.3775  0.6016 -0.2805
  998MOL0     C37648   3.154   5.054   7.162 -0.0621  0.4745  0.7622
  998MOL0     C37649   3.077   5.039   7.025 -1.1666  0.4384 -0.1777
  998MOL0     C37650   3.008   5.163   7.007  0.3072 -0.1346 -0.3538
  998MOL0     C37651   2.954   5.273   6.994  0.3436 -0.3017 -0.6614
  998MOL0     C37652   3.208   5.060   7.679  0.2162  0.9228  0.8250
  998MOL0     C37653   3.241   5.039   7.819 -0.2224  0.0048  0.4498
  998MOL0     C37654   3.169   5.122   7.923 -0.5471 -0.0254  0.5421
  998MOL0     H37655   3.195   5.131   8.211  3.5032  1.0723 -2.4518
  998MOL0     H37656   3.256   5.191   8.447  0.7699  0.3402  0.9517
  998MOL0     H37657   3.153   5.076   8.727 -0.5815 -2.2335  3.3157
  998MOL0     H37658   3.306   5.185   8.704 -1.0713  0.2821  0.0428
  998MOL0     H37659   3.268   4.964   8.903  1.9353 -0.1505  2.7154
  998MOL0     H37660   3.412   5.065   8.882  0.6298 -2.0951 -2.3609
  998MOL0     H37661   3.276   5.264   8.956 -1.0171  0.4901 -1.7057
  998MOL0     H37662   3.129   5.161   8.969 -0.0791 -0.1058  2.1674
  998MOL0     H37663   3.230   5.026   9.145  0.7277  0.1899 -0.1736
  998MOL0     H37664   3.380   5.096   9.124 -0.1320  0.4145 -0.6843
  998MOL0     H37665   3.215   5.318   9.161  0.6310  0.4731  0.2483
  998MOL0     H37666   3.329   5.250   9.277 -0.5368 -1.6637 -0.3181
  998MOL0     H37667   3.035   5.185   9.266 -0.5653 -0.0331  0.6970
  998MOL0     H37668   3.162   5.086   9.358 -0.1745  1.7651  4.2631
  998MOL0     H37669   3.117   5.390   9.377  0.5758 -0.5847 -0.5957
  998MOL0     H37670   3.174   5.301   9.516  1.2939 -0.3324 -1.4172
  998MOL0     H37671   2.930   5.183   9.504  1.6573 -0.3699 -1.9543
  998MOL0     H37672   2.959   5.343   9.585  0.9542  1.2740  0.6994
  998MOL0     H37673   2.834   5.209   9.269  2.4647  2.0547 -5.0875
  998MOL0     H37674   2.563   5.483   9.145 -0.2996 -0.7568  0.5741
  998MOL0     H37675   2.527   5.315   9.183  0.3684 -1.2619  1.3648
  998MOL0     H37676   2.718   5.240   9.055 -0.5728 -1.4783 -2.9446
  998MOL0     H37677   2.589   5.313   8.957  1.6649  2.7427 -2.0169
  998MOL0     H37678   2.854   5.442   9.041 -0.8056 -0.6176  0.2384
  998MOL0     H37679   2.807   5.400   8.874  0.3360 -0.0162  0.4775
  998MOL0     H37680   2.618   5.575   8.893  0.1644  1.0197 -0.5325
  998MOL0     H37681   2.704   5.640   9.023 -1.6911  0.2417 -1.3112
  998MOL0     H37682   2.835   5.893   8.803 -1.1069 -0.4643  1.4470
  998MOL0     H37683   2.817   6.084   8.527 -1.2553  0.7748 -0.0858
  998MOL0     H37684   2.834   6.086   8.701 -1.0261  2.2853 -0.3827
  998MOL0     H37685   2.674   6.110   8.624 -0.3632 -0.2360 -0.7317
  998MOL0     H37686   2.399   6.138   8.319 -0.1230 -1.8292 -0.6885
  998MOL0     H37687   2.331   6.225   8.076  0.7485  1.8462 -0.1580
  998MOL0     H37688   2.562   6.053   7.760 -0.0918 -1.2975 -2.2097
  998MOL0     H37689   2.387   6.060   7.795  1.4161 -1.3208  1.0853
  998MOL0     H37690   2.405   6.130   7.565  0.9407 -0.2984 -1.1042
  998MOL0     H37691   2.419   6.290   7.655  0.3841  0.8156 -0.1079
  998MOL0     H37692   2.596   6.265   7.468 -1.1759  0.3408  0.3344
  998MOL0     H37693   2.652   6.136   7.578 -2.6966 -0.8811 -0.5451
  998MOL0     H37694   2.680   6.350   7.755 -1.2783  0.9211  0.2409
  998MOL0     H37695   2.586   6.433   7.619  2.2926  1.4955  0.5820
  998MOL0     H37696   2.780   6.430   7.483 -3.0582 -1.2157  0.0915
  998MOL0     H37697   2.789   6.520   7.630 -0.1727 -1.4055  2.2762
  998MOL0     H37698   2.897   6.249   7.574  1.4491  1.9223 -3.1007
  998MOL0     H37699   2.917   6.337   7.742 -0.7547  2.1638  0.4685
  998MOL0     H37700   3.039   6.523   7.640  0.5348 -1.5281  0.6228
  998MOL0     H37701   3.042   6.432   7.487 -1.2152  0.9841 -0.2479
  998MOL0     H37702   3.153   6.243   7.632  0.0159 -0.2436  1.3084
  998MOL0     H37703   3.176   6.372   7.751 -1.6374 -1.5305  0.2410
  998MOL0     H37704   2.731   6.123   7.940  1.6455 -0.3937  0.4746
  998MOL0     H37705   2.785   6.051   8.148  1.0685  3.3694 -0.5319
  998MOL0     H37706   2.631   5.643   8.434  0.4222 -0.6888 -0.6213
  998MOL0     H37707   2.719   5.522   8.643  5.0338  0.0993  0.3198
  998MOL0     H37708   3.333   4.774   8.509 -0.3028 -2.1816 -2.2863
  998MOL0     H37709   3.338   4.728   8.277  0.0088  0.0735 -0.8404
  998MOL0     H37710   3.453   4.781   7.779 -0.2216 -1.1174  1.3398
  998MOL0     H37711   3.418   4.820   7.537 -2.3694 -1.4698  0.0383
  998MOL0     H37712   3.374   4.944   7.306 -0.6268  2.5597 -1.2700
  998MOL0     H37713   3.281   4.806   7.374 -0.2992 -0.0551  0.6005
  998MOL0     H37714   3.074   4.900   7.285 -1.5001  0.8906 -2.3686
  998MOL0     H37715   3.184   4.826   7.177 -1.4575 -3.2668  4.5907
  998MOL0     H37716   3.108   5.132   7.224 -4.9945 -0.0020 -1.7706
  998MOL0     H37717   3.255   5.084   7.134 -0.1866  0.2593  0.0486
  998MOL0     H37718   2.995   4.967   7.026  0.6083 -1.6725 -0.3120
  998MOL0     H37719   3.140   5.020   6.938 -1.7027  1.1193 -0.7244
  998MOL0     H37720   2.924   5.375   6.979  2.6809  0.4368 -0.7996
  998MOL0     H37721   3.126   5.126   7.655 -0.5010 -0.1852  0.1134
  998MOL0     H37722   3.127   5.212   7.877 -2.0508 -0.6372  0.6692
  998MOL0     H37723   3.080   5.066   7.951  0.0231  0.2139  3.0718
  998MOL0     H37724   3.226   5.154   8.011  0.4884 -0.0607 -0.0940
  999MOL0     O37725   5.311   0.973   4.582 -0.5900 -0.2924  0.6496
  999MOL0     C37726   5.355   1.089   4.556 -0.2365 -0.5350 -0.6062
  999MOL0     O37727   5.372   1.145   4.430 -0.0694 -0.8237 -0.2397
  999MOL0     C37728   5.400   1.045   4.342 -0.3388 -0.5660 -0.6417
  999MOL0     C37729   5.527   1.026   4.306 -0.4355  0.1117  0.2015
  999MOL0     C37730   5.571   0.941   4.195  0.4321  0.3474  0.5088
  999MOL0     C37731   5.467   0.882   4.117 -0.7447 -0.4294  0.8863
  999MOL0     O37732   5.502   0.798   4.012 -0.3217  0.3590  0.4453
  999MOL0     C37733   5.483   0.844   3.877  0.8297  0.3022  0.3172
  999MOL0     C37734   5.500   0.734   3.761 -0.2563  0.3475  0.0489
  999MOL0     C37735   5.643   0.666   3.763  0.1742 -0.3455  0.3498
  999MOL0     C37736   5.653   0.541   3.849 -1.2616  1.4738  0.0348
  999MOL0     C37737   5.801   0.478   3.838  0.2078  0.6041 -0.4642
  999MOL0     C37738   5.837   0.399   3.715 -0.6060  0.6471 -0.6962
  999MOL0     C37739   5.724   0.343   3.628 -0.9564 -0.6340 -0.0427
  999MOL0     C37740   5.767   0.227   3.522  0.6042  0.0858  0.4885
  999MOL0     N37741   5.784   0.109   3.601 -0.1857 -0.0683 -0.2686
  999MOL0     C37742   5.703   0.050   3.688 -0.2241  0.5482  0.1172
  999MOL0     C37743   5.792  -0.033   3.757  0.7686 -0.1203  0.1136
  999MOL0     C37744   5.758  -0.133   3.866  0.6064 -0.7227  0.7182
  999MOL0     C37745   5.728  -0.278   3.820  0.4911  0.3207 -0.1189
  999MOL0     C37746   5.593  -0.298   3.748 -1.0633  0.5795 -0.1090
  999MOL0     C37747   5.556  -0.452   3.746  0.0455  0.5578  0.1294
  999MOL0     O37748   5.672  -0.531   3.703  0.1605 -0.6568 -0.0660
  999MOL0     C37749   5.680  -0.643   3.782  0.9841  0.0164  0.0069
  999MOL0     C37750   5.568  -0.738   3.792  0.0317  0.3399 -0.3540
  999MOL0     C37751   5.582  -0.859   3.866  0.2829  0.9468  0.8314
  999MOL0     C37752   5.458  -0.946   3.862 -0.1517  0.6488 -0.4230
  999MOL0     C37753   5.698  -0.880   3.941 -0.6680 -0.2071  0.0053
  999MOL0     C37754   5.717  -1.006   4.028  0.6323  0.3263 -0.5231
  999MOL0     O37755   5.792  -0.981   4.137 -0.5092  0.3063  0.6727
  999MOL0     C37756   5.873  -1.079   4.182 -0.2668  1.2464 -0.5589
  999MOL0     C37757   6.018  -1.062   4.167 -0.0750 -0.0792 -1.0024
  999MOL0     C37758   6.106  -1.148   4.229 -0.0917 -0.2247  0.4952
  999MOL0     C37759   6.060  -1.261   4.294 -0.1840 -0.1711  0.2449
  999MOL0     O37760   6.162  -1.351   4.338  0.7067 -0.1898  0.9173
  999MOL0     C37761   6.137  -1.454   4.426 -0.9580  1.0221 -0.2700
  999MOL0     C37762   6.267  -1.535   4.436 -0.6132  0.0851 -0.2304
  999MOL0     C37763   6.290  -1.596   4.581 -0.0734 -0.2928  0.5111
  999MOL0     C37764   6.357  -1.496   4.678 -0.6884  0.0334  0.5936
  999MOL0     C37765   6.363  -1.556   4.819  0.6874 -0.3599  0.1408
  999MOL0     C37766   6.436  -1.464   4.914 -0.0491  0.1378  0.2126
  999MOL0     C37767   6.360  -1.323   4.937 -0.9005 -0.3154  1.1411
  999MOL0     C37768   6.277  -1.341   5.059  0.8908  0.1118  0.4832
  999MOL0    Cl37769   6.166  -1.205   5.086  0.5397  0.1860 -0.2769
  999MOL0     C37770   5.923  -1.275   4.313  0.4833  0.7874  0.5033
  999MOL0     C37771   5.825  -1.185   4.262 -0.1938  0.1114 -0.6044
  999MOL0     O37772   5.659  -1.117   4.007  0.1630  0.0691  0.3351
  999MOL0     C37773   5.807  -0.788   3.937 -0.7050  0.6318 -0.1676
  999MOL0     C37774   5.793  -0.668   3.862  0.6274  0.5946 -0.5485
  999MOL0     N37775   5.916  -0.018   3.706 -0.0763  0.4933  0.7628
  999MOL0     N37776   5.911   0.066   3.612 -0.3612 -0.2051  0.4215
  999MOL0     C37777   5.336   0.914   4.154 -0.6217 -0.5019  0.9576
  999MOL0     C37778   5.305   0.994   4.257  0.9850 -0.0038 -0.3548
  999MOL0     C37779   5.374   1.167   4.680  0.6463 -0.4601  0.0234
  999MOL0     C37780   5.369   1.305   4.665 -1.1218  0.8332 -0.8786
  999MOL0     C37781   5.354   1.382   4.791  0.0554 -1.1689  0.0789
  999MOL0     C37782   5.359   1.322   4.913 -0.0635 -0.3883  0.0737
  999MOL0     O37783   5.344   1.407   5.019  0.0445 -0.2350 -0.0696
  999MOL0     C37784   5.234   1.371   5.110 -0.9675  0.7568  0.0948
  999MOL0     C37785   5.211   1.499   5.180 -0.2014  0.3838 -0.1154
  999MOL0     C37786   5.114   1.491   5.298  0.2074  0.1463 -0.2084
  999MOL0     C37787   5.122   1.625   5.376  0.2906  0.3248 -0.0560
  999MOL0     C37788   5.000   1.668   5.446 -0.6670  0.1848  0.4569
  999MOL0     C37789   4.895   1.714   5.490 -0.4269  0.0921  1.3684
  999MOL0     C37790   5.400   1.191   4.919 -0.0676 -0.3889  0.3035
  999MOL0     C37791   5.404   1.108   4.807  0.3790 -0.5333  0.8437
  999MOL0     C37792   5.473   0.976   4.821 -0.0997  0.3281  0.1183
  999MOL0     H37793   5.608   1.064   4.368 -0.5813  0.8844 -0.0675
  999MOL0     H37794   5.671   0.931   4.153 -0.0734 -1.8442 -0.3305
  999MOL0     H37795   5.554   0.922   3.848 -2.7014  2.8782 -2.2039
  999MOL0     H37796   5.381   0.883   3.879  0.3822 -0.7774 -0.5614
  999MOL0     H37797   5.419   0.661   3.759 -1.8213  2.0139 -1.7609
  999MOL0     H37798   5.501   0.789   3.666  5.8053 -0.8715 -1.0020
  999MOL0     H37799   5.676   0.645   3.661 -0.3695  0.3093  0.0333
  999MOL0     H37800   5.703   0.750   3.799 -1.3386  1.9571 -2.1351
  999MOL0     H37801   5.635   0.570   3.953 -1.0590 -1.4494  0.9709
  999MOL0     H37802   5.584   0.461   3.822  1.8650 -2.3685  2.4791
  999MOL0     H37803   5.807   0.411   3.924  2.0582 -1.7746 -2.2859
  999MOL0     H37804   5.881   0.550   3.859  2.7829 -2.0423 -0.4359
  999MOL0     H37805   5.906   0.456   3.653  2.8318  0.8789  2.8969
  999MOL0     H37806   5.902   0.316   3.745 -0.3544 -0.3545 -3.6713
  999MOL0     H37807   5.686   0.430   3.574  1.1635  1.0718  1.0840
  999MOL0     H37808   5.639   0.308   3.688 -2.4066  3.1148  0.3430
  999MOL0     H37809   5.694   0.208   3.443 -2.0604  1.2068  2.5158
  999MOL0     H37810   5.860   0.260   3.475  0.6458 -1.2975 -0.4354
  999MOL0     H37811   5.595   0.053   3.698 -0.9558  0.2119 -5.1423
  999MOL0     H37812   5.668  -0.103   3.920 -0.2190 -2.0659  0.1574
  999MOL0     H37813   5.841  -0.137   3.936  1.8631 -2.2646 -0.7661
  999MOL0     H37814   5.806  -0.321   3.757 -0.5758 -0.7802 -0.7453
  999MOL0     H37815   5.733  -0.343   3.908 -1.0178  2.4231  1.6273
  999MOL0     H37816   5.516  -0.231   3.787 -1.7835  1.2391 -2.5029
  999MOL0     H37817   5.595  -0.266   3.644  1.4758 -1.7805 -0.9306
  999MOL0     H37818   5.528  -0.474   3.849  1.1123  1.6301  0.6755
  999MOL0     H37819   5.477  -0.481   3.676 -0.6896 -0.4982  1.3605
  999MOL0     H37820   5.473  -0.718   3.745 -0.0383 -2.1031 -1.4209
  999MOL0     H37821   5.372  -0.890   3.825 -1.6270 -1.4891 -0.4371
  999MOL0     H37822   5.436  -0.974   3.965  1.6465  2.7195  0.5994
  999MOL0     H37823   5.477  -1.032   3.796  0.9735  0.8017 -0.3189
  999MOL0     H37824   6.058  -0.979   4.109 -1.1514  1.7157  0.6722
  999MOL0     H37825   6.209  -1.123   4.203 -0.7558  1.9012 -0.2731
  999MOL0     H37826   6.106  -1.408   4.520 -1.7197  0.2335 -0.1153
  999MOL0     H37827   6.054  -1.515   4.388  0.8023 -0.4266 -2.0442
  999MOL0     H37828   6.270  -1.619   4.366  0.7647  0.7073 -0.9498
  999MOL0     H37829   6.350  -1.470   4.408  1.3828 -1.5871  1.5104
  999MOL0     H37830   6.340  -1.693   4.581 -2.0701 -1.4012 -0.8739
  999MOL0     H37831   6.191  -1.623   4.620 -0.7295 -1.1466 -1.5733
  999MOL0     H37832   6.309  -1.398   4.672  0.4069  0.8719  3.5358
  999MOL0     H37833   6.462  -1.482   4.650  0.1836 -0.8386  3.1224
  999MOL0     H37834   6.264  -1.568   4.862 -0.4736  0.4728 -2.1351
  999MOL0     H37835   6.421  -1.648   4.808  0.8727 -0.2087 -0.1854
  999MOL0     H37836   6.537  -1.451   4.873  0.9551 -1.9511  1.8360
  999MOL0     H37837   6.459  -1.511   5.010  1.2678 -2.0724 -1.0954
  999MOL0     H37838   6.301  -1.294   4.849 -0.4334 -1.5377  0.3943
  999MOL0     H37839   6.440  -1.250   4.953 -0.3304 -0.6530  0.0201
  999MOL0     H37840   6.348  -1.356   5.141  1.1396  0.4091  0.3253
  999MOL0     H37841   6.209  -1.423   5.038 -1.6385  2.5161 -1.5460
  999MOL0     H37842   5.882  -1.352   4.378  0.7223  2.4540  2.7570
  999MOL0     H37843   5.717  -1.200   4.270  0.0644 -1.4818  0.3450
  999MOL0     H37844   5.898  -0.799   3.995  1.6118  2.4274 -3.1798
  999MOL0     H37845   5.881  -0.604   3.860  0.5418  0.9070  2.1587
  999MOL0     H37846   5.252   0.881   4.092  1.9557 -2.3680 -1.8590
  999MOL0     H37847   5.202   1.028   4.265  0.3517 -2.1803  1.9897
  999MOL0     H37848   5.364   1.358   4.570  0.1784 -0.5078 -1.7512
  999MOL0     H37849   5.336   1.489   4.795 -3.1759 -1.5856 -0.4783
  999MOL0     H37850   5.139   1.335   5.070  0.2786 -2.4335 -0.2958
  999MOL0     H37851   5.272   1.295   5.178 -3.2831 -1.3084 -0.7850
  999MOL0     H37852   5.175   1.549   5.090 -3.2088 -1.6826 -0.1813
  999MOL0     H37853   5.303   1.549   5.213 -0.2150 -0.8094  1.8590
  999MOL0     H37854   5.009   1.483   5.271 -0.3041  2.1344  1.0236
  999MOL0     H37855   5.139   1.402   5.357  2.1068 -1.3140 -2.9793
  999MOL0     H37856   5.150   1.703   5.304 -1.2361 -0.9570 -2.1460
  999MOL0     H37857   5.210   1.625   5.440  0.5834 -1.8507 -0.3845
  999MOL0     H37858   4.809   1.764   5.529 -1.0668  0.1772 -0.0690
  999MOL0     H37859   5.422   1.152   5.018  2.0747  1.8974  0.8514
  999MOL0     H37860   5.566   0.981   4.879  0.0439 -3.6360  0.4475
  999MOL0     H37861   5.398   0.917   4.874 -0.6497 -1.5256 -2.5660
  999MOL0     H37862   5.510   0.923   4.733  2.1164 -0.8428  1.6275
 1000MOL0     O37863   3.157   1.605   1.459  0.3354  0.6883 -0.2097
 1000MOL0     C37864   3.172   1.529   1.556 -0.1112  0.5117 -0.5843
 1000MOL0     O37865   3.116   1.541   1.678  0.3852  0.3053  0.3718
 1000MOL0     C37866   3.002   1.620   1.674 -0.4877 -0.9122 -0.3527
 1000MOL0     C37867   2.882   1.570   1.630  0.1342  0.0483 -0.0684
 1000MOL0     C37868   2.765   1.640   1.641  0.6986 -0.3723 -0.1323
 1000MOL0     C37869   2.772   1.771   1.687  0.2060  0.0889 -0.5238
 1000MOL0     O37870   2.664   1.851   1.701  0.1192 -0.6027  0.4964
 1000MOL0     C37871   2.542   1.787   1.741 -0.6065  0.3141  0.2689
 1000MOL0     C37872   2.466   1.889   1.835 -0.0966 -0.0779  0.6033
 1000MOL0     C37873   2.524   1.912   1.980 -0.9285  0.2984 -0.6926
 1000MOL0     C37874   2.445   2.011   2.057 -0.4930  0.5969 -0.3646
 1000MOL0     C37875   2.481   2.150   2.008 -0.0458 -0.3724  0.3598
 1000MOL0     C37876   2.379   2.250   2.071  0.4743  0.7342 -0.1445
 1000MOL0     C37877   2.434   2.390   2.067  0.5604  0.5474  0.3247
 1000MOL0     C37878   2.438   2.459   1.930  0.1577 -0.4216  0.2228
 1000MOL0     N37879   2.500   2.589   1.938  0.2796  0.0075 -0.6290
 1000MOL0     C37880   2.640   2.601   1.941 -0.9505 -0.1456  0.2020
 1000MOL0     C37881   2.666   2.730   1.903  0.7789  0.4653  0.5407
 1000MOL0     C37882   2.806   2.765   1.898  0.1097  0.1670 -0.1861
 1000MOL0     C37883   2.870   2.775   2.040  0.6445  0.8884 -1.0483
 1000MOL0     C37884   2.987   2.864   2.049 -0.0237  0.5541  0.5882
 1000MOL0     C37885   3.113   2.815   1.973 -0.6363  0.2905  0.1092
 1000MOL0     O37886   3.139   2.675   1.988 -0.3896  0.3198 -0.5663
 1000MOL0     C37887   3.095   2.593   1.888 -0.6650 -0.0492  0.1701
 1000MOL0     C37888   3.021   2.482   1.926 -0.7554  0.5454  0.3226
 1000MOL0     C37889   2.957   2.395   1.835  0.7697  0.2184  0.3853
 1000MOL0     C37890   2.853   2.300   1.893  0.7442 -0.1951  0.1534
 1000MOL0     C37891   2.971   2.410   1.697 -0.3610 -0.4252  0.4081
 1000MOL0     C37892   2.903   2.333   1.593 -0.0033  0.0628  0.0187
 1000MOL0     O37893   2.905   2.197   1.595 -1.5443 -0.1080  0.2452
 1000MOL0     C37894   2.860   2.123   1.494  0.1003 -0.2497 -0.5340
 1000MOL0     C37895   2.933   2.014   1.441 -0.1116  0.4836  0.1388
 1000MOL0     C37896   2.890   1.934   1.336  0.7311 -0.3203  1.0926
 1000MOL0     C37897   2.752   1.944   1.293 -0.3446 -0.0992 -0.3241
 1000MOL0     O37898   2.687   1.855   1.209  0.1270 -0.3192 -0.0284
 1000MOL0     C37899   2.776   1.791   1.104  0.5050  0.4213 -0.0114
 1000MOL0     C37900   2.817   1.653   1.166  0.6567 -0.3130 -1.0407
 1000MOL0     C37901   2.704   1.559   1.217 -0.5926 -0.2705 -0.5540
 1000MOL0     C37902   2.583   1.577   1.132  0.5335 -0.3809 -0.1681
 1000MOL0     C37903   2.469   1.474   1.167 -0.0474 -0.6603 -0.2969
 1000MOL0     C37904   2.349   1.481   1.077 -0.9053 -0.8719  0.3787
 1000MOL0     C37905   2.253   1.369   1.083  0.3989 -0.0322  0.3542
 1000MOL0     C37906   2.167   1.347   1.213 -0.9779 -0.5964  0.5936
 1000MOL0    Cl37907   2.063   1.487   1.229  0.4311 -0.1753  0.0602
 1000MOL0     C37908   2.678   2.048   1.345 -0.6018 -0.2565  0.8753
 1000MOL0     C37909   2.725   2.136   1.446 -0.5208 -0.0890 -0.0230
 1000MOL0     O37910   2.838   2.394   1.512 -0.1601 -0.1558 -0.1773
 1000MOL0     C37911   3.048   2.526   1.664  0.0375  0.6438 -0.2021
 1000MOL0     C37912   3.108   2.618   1.748 -0.4728 -0.0745 -0.4615
 1000MOL0     N37913   2.544   2.785   1.876 -0.5237  0.1089 -0.5709
 1000MOL0     N37914   2.450   2.702   1.890 -0.3896 -0.2520 -0.1772
 1000MOL0     C37915   2.885   1.830   1.725 -0.0121 -0.6486  0.4321
 1000MOL0     C37916   3.005   1.758   1.706 -0.5012  0.6493 -0.0245
 1000MOL0     C37917   3.244   1.409   1.539  1.4166  0.2520 -1.3419
 1000MOL0     C37918   3.192   1.291   1.598 -0.0662  0.7171 -0.4739
 1000MOL0     C37919   3.267   1.176   1.600 -0.4115  0.4070  0.1867
 1000MOL0     C37920   3.392   1.171   1.538 -0.5315 -0.3854  0.0244
 1000MOL0     O37921   3.450   1.047   1.513  0.1758  0.1136 -0.0019
 1000MOL0     C37922   3.386   0.926   1.556 -0.2418 -0.2777 -0.3511
 1000MOL0     C37923   3.481   0.810   1.519  1.2782 -0.1323  0.9017
 1000MOL0     C37924   3.627   0.847   1.560  0.5965  0.2341  0.2659
 1000MOL0     C37925   3.694   0.707   1.556  0.2110 -0.9786 -0.5880
 1000MOL0     C37926   3.733   0.660   1.423  0.1470  0.0434  1.0610
 1000MOL0     C37927   3.777   0.631   1.310  0.1002  0.7077 -0.2905
 1000MOL0     C37928   3.447   1.292   1.496 -0.3791 -1.0632 -0.1877
 1000MOL0     C37929   3.376   1.411   1.498  0.6838 -0.0209 -0.0290
 1000MOL0     C37930   3.458   1.532   1.470 -0.1330  0.7384  0.7711
 1000MOL0     H37931   2.901   1.467   1.602  2.9244  0.1677  1.0880
 1000MOL0     H37932   2.672   1.590   1.617  2.0917 -2.4502 -1.5859
 1000MOL0     H37933   2.567   1.703   1.806  2.1136 -0.3158 -1.4540
 1000MOL0     H37934   2.476   1.762   1.657  1.4606  0.0392 -1.3499
 1000MOL0     H37935   2.465   1.983   1.780  0.1362 -1.7429 -2.4785
 1000MOL0     H37936   2.361   1.860   1.828 -0.0473 -0.3941  1.0740
 1000MOL0     H37937   2.517   1.814   2.028  2.0465  0.6414  0.6397
 1000MOL0     H37938   2.627   1.947   1.989 -0.5528 -0.8098 -0.5254
 1000MOL0     H37939   2.340   1.982   2.044 -0.1539 -0.1232 -1.7494
 1000MOL0     H37940   2.474   2.010   2.162  1.3725 -0.0346 -0.8499
 1000MOL0     H37941   2.483   2.159   1.899 -0.9184 -0.4042  0.3320
 1000MOL0     H37942   2.581   2.181   2.040 -0.3750  1.2440 -0.0902
 1000MOL0     H37943   2.278   2.247   2.029 -0.5139  0.5929  2.0881
 1000MOL0     H37944   2.364   2.219   2.174 -1.9604 -1.3838 -1.0363
 1000MOL0     H37945   2.534   2.392   2.112  0.8630 -0.9276 -0.2289
 1000MOL0     H37946   2.379   2.459   2.132 -1.4827 -0.1102 -0.6254
 1000MOL0     H37947   2.494   2.402   1.854 -1.9558 -0.2021 -1.6301
 1000MOL0     H37948   2.334   2.462   1.895  0.3710  0.4985 -0.3853
 1000MOL0     H37949   2.723   2.536   1.967  1.6188  2.2896 -1.2301
 1000MOL0     H37950   2.809   2.865   1.855 -2.8881 -0.1128 -1.3246
 1000MOL0     H37951   2.857   2.691   1.834  2.0846 -0.2730  1.8040
 1000MOL0     H37952   2.809   2.825   2.117  2.9980  3.2763 -0.6044
 1000MOL0     H37953   2.889   2.676   2.081 -0.2577  1.5069  0.9902
 1000MOL0     H37954   2.961   2.962   2.008  0.7373  0.9090  0.9311
 1000MOL0     H37955   3.013   2.873   2.155 -2.3485 -0.6374  1.3370
 1000MOL0     H37956   3.094   2.833   1.866  1.8393  0.8007 -0.3034
 1000MOL0     H37957   3.203   2.873   1.995 -0.2949 -0.1539 -0.0879
 1000MOL0     H37958   3.010   2.467   2.033 -0.8957  0.6642  0.3256
 1000MOL0     H37959   2.901   2.203   1.897 -1.3234 -1.2337  2.4470
 1000MOL0     H37960   2.763   2.292   1.830  1.3260  0.3961 -0.7862
 1000MOL0     H37961   2.821   2.317   1.996  1.6443  2.1870  0.1104
 1000MOL0     H37962   3.035   1.994   1.473  0.0755 -1.6329 -1.5200
 1000MOL0     H37963   2.955   1.849   1.317 -0.4537 -0.8782 -0.6594
 1000MOL0     H37964   2.715   1.773   1.015  0.6220  1.1485 -0.2497
 1000MOL0     H37965   2.869   1.847   1.089  0.9598  1.0906  4.0541
 1000MOL0     H37966   2.880   1.586   1.107 -1.4733 -4.1441  0.6981
 1000MOL0     H37967   2.876   1.669   1.256  4.8782  0.0520 -3.6055
 1000MOL0     H37968   2.688   1.586   1.322  1.3337  1.1383 -0.5699
 1000MOL0     H37969   2.740   1.456   1.225  1.1946  0.3231 -0.6828
 1000MOL0     H37970   2.596   1.553   1.027  2.0476 -2.8221  0.4996
 1000MOL0     H37971   2.539   1.677   1.142  1.1844 -0.2862  2.4906
 1000MOL0     H37972   2.501   1.369   1.161 -2.3509 -1.3530 -1.7260
 1000MOL0     H37973   2.442   1.494   1.271  0.0977 -2.6064  0.1645
 1000MOL0     H37974   2.387   1.485   0.974  1.9852  1.7051  1.3578
 1000MOL0     H37975   2.302   1.579   1.086  1.4319  0.2020  2.1584
 1000MOL0     H37976   2.309   1.276   1.071 -0.3923 -0.2380 -2.4660
 1000MOL0     H37977   2.192   1.361   0.992 -2.8202  0.8113  2.2683
 1000MOL0     H37978   2.227   1.325   1.301  0.0825 -1.9915 -0.4309
 1000MOL0     H37979   2.098   1.262   1.206 -4.3959  2.0730 -3.0091
 1000MOL0     H37980   2.579   2.055   1.302 -0.3082 -3.2717 -0.5553
 1000MOL0     H37981   2.668   2.216   1.492 -0.0564 -0.1008  0.5922
 1000MOL0     H37982   3.058   2.564   1.563  5.1424  3.3046  0.9926
 1000MOL0     H37983   3.162   2.702   1.705  0.4833 -2.1836 -3.7989
 1000MOL0     H37984   2.874   1.936   1.747  0.3007 -0.1700 -1.5299
 1000MOL0     H37985   3.103   1.804   1.713 -1.1651  2.3923 -1.2844
 1000MOL0     H37986   3.098   1.285   1.651 -0.0668 -0.6036 -0.6016
 1000MOL0     H37987   3.227   1.085   1.644 -0.8487  0.2051 -0.5950
 1000MOL0     H37988   3.377   0.927   1.665  2.2959 -0.5938 -0.0769
 1000MOL0     H37989   3.292   0.912   1.503 -0.7486  1.1734  0.1056
 1000MOL0     H37990   3.483   0.805   1.409  0.4842  0.0079  0.8725
 1000MOL0     H37991   3.440   0.720   1.565  1.1110 -0.0019  1.0096
 1000MOL0     H37992   3.671   0.923   1.494 -3.7734  1.0985 -1.9951
 1000MOL0     H37993   3.641   0.882   1.663  1.6585  1.9182 -0.4020
 1000MOL0     H37994   3.644   0.633   1.617  2.6856  0.7748  4.0910
 1000MOL0     H37995   3.778   0.738   1.620  0.5298 -2.6153 -0.1735
 1000MOL0     H37996   3.828   0.617   1.217  1.5993  3.3778  0.0381
 1000MOL0     H37997   3.547   1.285   1.453 -0.6642  0.1693 -1.1221
 1000MOL0     H37998   3.536   1.509   1.397  1.3022 -0.2753  2.5120
 1000MOL0     H37999   3.402   1.616   1.429 -1.6716 -1.5252 -2.0595
 1000MOL0     H38000   3.506   1.564   1.563 -0.3965  1.2648  0.7274
 1001MOL0     O38001   8.339  10.346   5.853  0.3704  1.0209  0.0699
 1001MOL0     C38002   8.374  10.378   5.967  0.2574 -0.4525 -0.4089
 1001MOL0     O38003   8.374  10.303   6.081  0.0110 -1.1597 -1.1097
 1001MOL0     C38004   8.334  10.176   6.073  0.4701  0.4039 -0.6136
 1001MOL0     C38005   8.357  10.091   5.963  0.4228 -0.1068 -0.3893
 1001MOL0     C38006   8.327   9.958   5.970  1.0025 -0.6263  0.1347
 1001MOL0     C38007   8.269   9.898   6.089  0.0376 -0.1022  0.3591
 1001MOL0     O38008   8.212   9.774   6.092  0.1007  0.1691 -0.0271
 1001MOL0     C38009   8.264   9.682   5.995 -0.3262  0.4261  0.1458
 1001MOL0     C38010   8.176   9.667   5.867 -0.1958  0.1926 -0.0020
 1001MOL0     C38011   8.256   9.595   5.754  0.6059  0.3004  0.2721
 1001MOL0     C38012   8.176   9.582   5.619  0.6941  0.5253  0.4079
 1001MOL0     C38013   8.043   9.492   5.630  0.3389  0.6748  0.3792
 1001MOL0     C38014   8.055   9.362   5.718  0.5244 -0.7952 -0.3559
 1001MOL0     C38015   7.935   9.269   5.728  0.2630 -0.6438  0.6766
 1001MOL0     C38016   7.899   9.196   5.592 -1.3375  0.1970  0.6652
 1001MOL0     N38017   7.805   9.090   5.616 -0.3166 -0.4039 -0.1103
 1001MOL0     C38018   7.849   8.969   5.665  0.4273 -1.1221 -0.2898
 1001MOL0     C38019   7.739   8.884   5.656 -1.4770 -0.0912  0.0703
 1001MOL0     C38020   7.746   8.741   5.690 -0.4494 -0.9518 -0.1754
 1001MOL0     C38021   7.733   8.661   5.574 -0.9520 -0.5735  0.3678
 1001MOL0     C38022   7.689   8.519   5.600 -0.0029 -0.7464  0.1766
 1001MOL0     C38023   7.727   8.434   5.487  0.2654 -0.1422  0.9079
 1001MOL0     O38024   7.696   8.299   5.510  0.2076 -0.6652  0.2676
 1001MOL0     C38025   7.765   8.205   5.436  0.1012 -0.2909  0.8163
 1001MOL0     C38026   7.831   8.230   5.316  0.3104 -0.5467  0.2221
 1001MOL0     C38027   7.912   8.135   5.260 -0.3096 -0.1136 -0.5220
 1001MOL0     C38028   7.965   8.165   5.126  0.9281  0.6819  0.4868
 1001MOL0     C38029   7.937   8.009   5.324  1.4011 -0.1149 -0.5316
 1001MOL0     C38030   8.016   7.900   5.264  0.3595 -0.1704  0.2067
 1001MOL0     O38031   7.952   7.780   5.272  0.0233 -0.2783  0.0539
 1001MOL0     C38032   8.005   7.669   5.207  0.2868 -1.0429  0.5335
 1001MOL0     C38033   7.957   7.650   5.083 -0.1572 -0.2423 -0.1323
 1001MOL0     C38034   7.992   7.545   5.011  0.4612  0.0110 -0.1224
 1001MOL0     C38035   8.094   7.458   5.065  0.1544 -0.1526  0.2879
 1001MOL0     O38036   8.148   7.375   4.970 -0.2718 -0.2489  0.5430
 1001MOL0     C38037   8.271   7.307   4.992  1.2647  0.0849 -0.5824
 1001MOL0     C38038   8.235   7.180   5.077 -0.1004  0.8061 -0.3931
 1001MOL0     C38039   8.359   7.101   5.094  0.4600  0.1650 -0.3764
 1001MOL0     C38040   8.346   6.963   5.164  0.3718  0.4613  0.6289
 1001MOL0     C38041   8.238   6.871   5.083 -0.7914  0.2479 -0.2042
 1001MOL0     C38042   8.262   6.726   5.104 -0.3880  0.4553  0.2010
 1001MOL0     C38043   8.236   6.684   5.252 -0.5259  0.9987 -0.2236
 1001MOL0     C38044   8.282   6.547   5.285  0.1369  0.5108  0.5460
 1001MOL0    Cl38045   8.201   6.424   5.174  0.3409 -0.4087 -0.0030
 1001MOL0     C38046   8.152   7.477   5.186  0.4591 -0.8089  0.0892
 1001MOL0     C38047   8.103   7.583   5.260  0.4337 -0.1434 -0.8899
 1001MOL0     O38048   8.124   7.925   5.203  0.1522  0.9722 -0.9676
 1001MOL0     C38049   7.874   7.980   5.443  0.5631 -0.2900 -0.1242
 1001MOL0     C38050   7.801   8.078   5.505 -1.0177 -1.1181  0.6813
 1001MOL0     N38051   7.645   8.949   5.582 -0.6102 -0.7198 -0.7028
 1001MOL0     N38052   7.681   9.073   5.574 -0.2763  0.4444 -0.2669
 1001MOL0     C38053   8.244   9.980   6.195 -0.3442 -0.0316 -1.1100
 1001MOL0     C38054   8.280  10.114   6.188  0.3623 -0.9565  0.8869
 1001MOL0     C38055   8.447  10.501   5.974 -0.1391 -0.7355  0.5842
 1001MOL0     C38056   8.575  10.497   6.029 -0.1508  0.1903 -0.0414
 1001MOL0     C38057   8.641  10.619   6.056  0.0768  0.1284 -0.7730
 1001MOL0     C38058   8.589  10.744   6.029 -0.1112 -0.0256  0.1355
 1001MOL0     O38059   8.661  10.858   6.051 -0.2753 -0.5072  0.0671
 1001MOL0     C38060   8.780  10.875   5.979 -0.6465  0.2472 -0.9395
 1001MOL0     C38061   8.779  10.841   5.824  0.7904 -1.0702  0.1481
 1001MOL0     C38062   8.722  10.943   5.722  0.2429 -0.1009  0.7452
 1001MOL0     C38063   8.818  11.057   5.680  0.6988  0.8261 -0.8270
 1001MOL0     C38064   8.931  11.006   5.604  0.5399  0.1170  0.5201
 1001MOL0     C38065   9.023  10.979   5.527  0.5933  0.9356  0.2644
 1001MOL0     C38066   8.456  10.751   5.979 -0.1180  0.9300 -0.1102
 1001MOL0     C38067   8.384  10.631   5.949 -0.4582  0.4018 -0.1470
 1001MOL0     C38068   8.245  10.637   5.899  0.3387 -0.8170  0.1250
 1001MOL0     H38069   8.400  10.122   5.868  3.2747 -0.1871  0.7784
 1001MOL0     H38070   8.335   9.900   5.879 -1.0937  0.7847 -1.0382
 1001MOL0     H38071   8.262   9.579   6.034 -1.5894  0.4017  0.0566
 1001MOL0     H38072   8.369   9.705   5.977  0.1605  1.2866  3.4373
 1001MOL0     H38073   8.082   9.615   5.888 -1.2285  1.0109 -2.2454
 1001MOL0     H38074   8.145   9.762   5.824 -0.7813 -0.4522 -1.0700
 1001MOL0     H38075   8.353   9.647   5.750  2.7284 -3.3892 -0.7164
 1001MOL0     H38076   8.274   9.491   5.781 -6.1830 -2.4179 -3.2740
 1001MOL0     H38077   8.147   9.677   5.575 -2.4924 -1.6787 -2.8203
 1001MOL0     H38078   8.245   9.535   5.549  1.8556 -0.2133  1.9791
 1001MOL0     H38079   8.003   9.472   5.530  0.4414 -1.7611  0.7557
 1001MOL0     H38080   7.957   9.551   5.661  1.5662  1.8034  1.8495
 1001MOL0     H38081   8.144   9.308   5.684  2.4488  0.5831  2.1470
 1001MOL0     H38082   8.074   9.379   5.824 -1.4840 -0.2538 -0.0574
 1001MOL0     H38083   7.848   9.323   5.767  1.9193  1.7145  1.3063
 1001MOL0     H38084   7.950   9.189   5.802 -2.9858 -0.9214  1.1789
 1001MOL0     H38085   7.865   9.260   5.510 -0.0527 -0.5855 -0.5393
 1001MOL0     H38086   7.997   9.165   5.554  0.1462  3.9228  1.0217
 1001MOL0     H38087   7.951   8.951   5.698  0.1571 -0.0472  1.2286
 1001MOL0     H38088   7.662   8.711   5.754  0.0597 -2.1292 -0.0208
 1001MOL0     H38089   7.831   8.725   5.758 -1.3766 -3.2448  0.5191
 1001MOL0     H38090   7.654   8.704   5.513 -0.7033 -1.7121 -0.7813
 1001MOL0     H38091   7.832   8.663   5.528 -1.6391  3.4113 -1.2928
 1001MOL0     H38092   7.738   8.482   5.690  1.4303 -0.6342 -0.5298
 1001MOL0     H38093   7.580   8.515   5.602 -0.2970  0.5130 -3.7759
 1001MOL0     H38094   7.663   8.473   5.407 -3.4254 -1.0672  3.2196
 1001MOL0     H38095   7.833   8.445   5.461  0.2279 -2.0560 -0.2839
 1001MOL0     H38096   7.803   8.323   5.268 -0.1661 -0.1611  1.2260
 1001MOL0     H38097   7.943   8.080   5.061 -2.4791  1.5337  0.3375
 1001MOL0     H38098   8.071   8.191   5.120  1.2373 -0.6819 -4.6004
 1001MOL0     H38099   7.911   8.251   5.088 -1.7572 -0.1163  2.2360
 1001MOL0     H38100   7.884   7.723   5.050  0.2886  1.8445  3.0227
 1001MOL0     H38101   7.941   7.527   4.917  1.2351 -0.5695 -0.4430
 1001MOL0     H38102   8.316   7.278   4.897 -1.2909 -2.4140 -1.1710
 1001MOL0     H38103   8.347   7.368   5.043 -1.1755  3.0840 -0.2305
 1001MOL0     H38104   8.205   7.195   5.181  1.4665 -0.3677  0.2779
 1001MOL0     H38105   8.160   7.120   5.024 -0.9161  1.5202 -0.0894
 1001MOL0     H38106   8.435   7.142   5.161 -1.8029 -0.9907  3.1905
 1001MOL0     H38107   8.397   7.085   4.992  2.2280  1.0160  0.1102
 1001MOL0     H38108   8.308   6.973   5.266 -2.3441  0.1493 -0.2828
 1001MOL0     H38109   8.445   6.916   5.157  0.1551  0.2602 -4.2328
 1001MOL0     H38110   8.141   6.898   5.126 -1.0987  0.0629 -0.7613
 1001MOL0     H38111   8.235   6.887   4.975 -3.4516 -1.2036 -0.4311
 1001MOL0     H38112   8.363   6.699   5.071 -0.0287  1.1503  0.7183
 1001MOL0     H38113   8.194   6.678   5.033  1.5701 -0.7262 -0.9645
 1001MOL0     H38114   8.132   6.702   5.281 -2.0620 -2.0864 -3.2060
 1001MOL0     H38115   8.296   6.741   5.323  0.0316  0.8783 -0.5911
 1001MOL0     H38116   8.252   6.525   5.387 -1.5508  2.2401  0.4826
 1001MOL0     H38117   8.391   6.538   5.289  0.0498 -1.0932  5.0689
 1001MOL0     H38118   8.240   7.434   5.232 -0.2294 -0.8263  1.4341
 1001MOL0     H38119   8.141   7.612   5.358 -1.0444 -2.7155  0.5647
 1001MOL0     H38120   7.895   7.888   5.497 -1.3947 -1.7642 -1.7313
 1001MOL0     H38121   7.753   8.071   5.602 -1.1666  0.8845  0.8024
 1001MOL0     H38122   8.200   9.950   6.289  0.0588  0.3436 -0.7992
 1001MOL0     H38123   8.265  10.186   6.268  4.4163  2.0487 -0.7030
 1001MOL0     H38124   8.632  10.406   6.049  1.1007  1.1445  0.9219
 1001MOL0     H38125   8.745  10.614   6.087 -0.3796 -1.4628  0.6377
 1001MOL0     H38126   8.818  10.977   5.996  0.9294 -0.3624 -0.6535
 1001MOL0     H38127   8.853  10.810   6.028 -0.8520  1.0236  0.4474
 1001MOL0     H38128   8.718  10.752   5.810 -1.2693  0.1428  0.8822
 1001MOL0     H38129   8.882  10.830   5.791  1.2030  4.6985 -1.6921
 1001MOL0     H38130   8.690  10.888   5.632 -1.0131  1.8787 -0.0946
 1001MOL0     H38131   8.629  10.988   5.759  0.4395  0.5724  0.4396
 1001MOL0     H38132   8.850  11.092   5.779 -2.8583 -2.3317  1.7250
 1001MOL0     H38133   8.770  11.141   5.629  0.1237  1.1492  0.2015
 1001MOL0     H38134   9.108  10.966   5.462  0.7893  0.6418  0.5780
 1001MOL0     H38135   8.410  10.849   5.964 -1.9323  0.5466  2.3638
 1001MOL0     H38136   8.187  10.673   5.985  0.0909 -2.8889  0.8817
 1001MOL0     H38137   8.241  10.718   5.825  2.7411 -1.8689 -1.2447
 1001MOL0     H38138   8.205  10.545   5.855 -1.7647  0.1806 -0.1908
 1002MOL0     O38139   8.172   8.212   7.779 -0.1370  1.0208  0.0104
 1002MOL0     C38140   8.096   8.293   7.736  0.6951 -1.2329  0.8099
 1002MOL0     O38141   7.961   8.313   7.769  0.6786 -0.0330  0.4518
 1002MOL0     C38142   7.901   8.261   7.882 -0.9261 -0.2713  0.1123
 1002MOL0     C38143   7.957   8.188   7.987  0.5508 -0.0449  0.4939
 1002MOL0     C38144   7.890   8.131   8.094  0.1799 -0.1806 -0.2448
 1002MOL0     C38145   7.757   8.165   8.103  0.1495 -0.2194  0.0817
 1002MOL0     O38146   7.686   8.108   8.203 -0.1707  0.2528 -0.0538
 1002MOL0     C38147   7.594   8.199   8.274  0.6243 -0.9175  0.3077
 1002MOL0     C38148   7.654   8.300   8.357 -0.4969  0.2458  0.0244
 1002MOL0     C38149   7.559   8.387   8.435  0.7068 -0.0319 -0.1263
 1002MOL0     C38150   7.640   8.486   8.518 -0.1899  0.0450 -0.5252
 1002MOL0     C38151   7.714   8.593   8.438  0.0818  0.1265  0.1508
 1002MOL0     C38152   7.764   8.697   8.531  0.9724 -0.7048 -0.0309
 1002MOL0     C38153   7.844   8.817   8.457 -0.4291  0.0849 -0.2269
 1002MOL0     C38154   7.881   8.913   8.568  0.0541 -1.0459 -0.2532
 1002MOL0     N38155   7.933   9.046   8.530 -0.2477 -0.3263  0.1099
 1002MOL0     C38156   8.018   9.057   8.416  0.6458  0.0463  0.7510
 1002MOL0     C38157   8.007   9.187   8.379  1.1776  0.7754  0.4306
 1002MOL0     C38158   8.095   9.259   8.286 -0.3912  0.4629  0.2705
 1002MOL0     C38159   8.238   9.258   8.350  0.2891 -1.1240  0.0127
 1002MOL0     C38160   8.241   9.336   8.488 -0.2157  0.3273 -0.3910
 1002MOL0     C38161   8.386   9.347   8.528 -0.9850 -0.2124 -0.5966
 1002MOL0     O38162   8.405   9.398   8.662 -0.1990  0.1206  0.2745
 1002MOL0     C38163   8.418   9.305   8.768 -0.1698  0.1954  0.6081
 1002MOL0     C38164   8.390   9.168   8.757  0.1229  0.0038 -0.0717
 1002MOL0     C38165   8.414   9.089   8.871 -0.4109 -0.3872  0.7724
 1002MOL0     C38166   8.403   8.935   8.852  0.0129 -0.0443 -0.2873
 1002MOL0     C38167   8.460   9.141   9.000 -0.1935 -0.3414 -0.2441
 1002MOL0     C38168   8.505   9.070   9.125 -0.4389  0.9400 -0.5799
 1002MOL0     O38169   8.615   9.118   9.186  0.3230  0.0870 -0.1545
 1002MOL0     C38170   8.668   9.071   9.304  0.5920 -0.4146  0.9486
 1002MOL0     C38171   8.628   8.951   9.373  0.4817  0.0354  0.6451
 1002MOL0     C38172   8.688   8.926   9.498  0.3638  0.3814 -0.4122
 1002MOL0     C38173   8.781   9.011   9.558 -0.0728 -0.7195 -0.6485
 1002MOL0     O38174   8.850   8.958   9.669 -0.5724 -0.0893  0.3177
 1002MOL0     C38175   8.903   9.045   9.761 -0.8210  0.6587 -0.2464
 1002MOL0     C38176   8.800   9.095   9.862  0.5618  0.3232  0.1361
 1002MOL0     C38177   8.831   9.225   9.943 -0.2578  0.3052  0.8526
 1002MOL0     C38178   8.706   9.281  10.002  0.0813 -0.4811  0.5035
 1002MOL0     C38179   8.713   9.426  10.069 -0.0757  0.5064 -0.0963
 1002MOL0     C38180   8.728   9.540   9.964  0.4459 -1.0299 -0.0361
 1002MOL0     C38181   8.687   9.677  10.017  0.0743 -0.0759 -0.4360
 1002MOL0     C38182   8.649   9.772   9.898 -0.1560 -0.3455  0.5636
 1002MOL0    Cl38183   8.781   9.877   9.844 -0.0072 -0.1356 -0.0092
 1002MOL0     C38184   8.822   9.121   9.481  0.0475 -0.3338 -0.5252
 1002MOL0     C38185   8.756   9.156   9.358 -1.0393 -0.6752 -0.1186
 1002MOL0     O38186   8.426   8.985   9.174 -0.4461  0.1484 -0.2875
 1002MOL0     C38187   8.464   9.283   9.011 -0.5926  0.5171  0.3684
 1002MOL0     C38188   8.444   9.360   8.890  0.2255  0.4016  0.1445
 1002MOL0     N38189   7.928   9.259   8.463  0.0588 -0.3227 -0.7245
 1002MOL0     N38190   7.876   9.169   8.548 -0.3325 -1.2290 -0.1379
 1002MOL0     C38191   7.695   8.244   8.003  0.2909 -0.8856 -0.5372
 1002MOL0     C38192   7.763   8.270   7.881 -0.2523  0.4426  0.0895
 1002MOL0     C38193   8.138   8.388   7.626 -1.2949  0.4013  0.0003
 1002MOL0     C38194   8.029   8.455   7.552 -0.9417  0.1106  0.0067
 1002MOL0     C38195   8.059   8.563   7.467  0.1860 -0.0673 -0.2591
 1002MOL0     C38196   8.193   8.585   7.427 -0.5058  0.5965 -0.3216
 1002MOL0     O38197   8.237   8.682   7.340 -0.2654  0.2414  0.0575
 1002MOL0     C38198   8.141   8.771   7.287 -0.3331 -0.3373  0.5648
 1002MOL0     C38199   8.225   8.886   7.221 -0.3538 -0.4570  0.0436
 1002MOL0     C38200   8.279   8.985   7.325 -0.4183 -0.4031  0.4653
 1002MOL0     C38201   8.382   9.071   7.247  0.8393  0.3138 -0.0176
 1002MOL0     C38202   8.454   9.160   7.333  0.6614 -0.2284  0.1513
 1002MOL0     C38203   8.531   9.233   7.393  0.1309  0.4411  1.5983
 1002MOL0     C38204   8.292   8.502   7.488  0.6964  0.6865  0.0641
 1002MOL0     C38205   8.270   8.404   7.587  0.1617  0.7202  0.0597
 1002MOL0     C38206   8.387   8.318   7.627 -0.1499  0.6095 -1.1267
 1002MOL0     H38207   8.063   8.166   7.990  0.7332  0.8768  1.3257
 1002MOL0     H38208   7.948   8.082   8.171 -0.4835  2.3855  2.0452
 1002MOL0     H38209   7.535   8.133   8.337 -0.4469 -0.3137 -0.0359
 1002MOL0     H38210   7.524   8.246   8.204  1.9070 -0.6277 -0.8451
 1002MOL0     H38211   7.721   8.253   8.430  0.1694  2.1466  0.6942
 1002MOL0     H38212   7.721   8.357   8.292  1.0691  1.4085  2.5175
 1002MOL0     H38213   7.502   8.447   8.363  1.1026 -1.9547 -2.1717
 1002MOL0     H38214   7.489   8.342   8.507  0.8639 -1.1201 -0.6200
 1002MOL0     H38215   7.566   8.526   8.588  0.0415 -2.5504  1.3698
 1002MOL0     H38216   7.712   8.430   8.579 -3.7890 -0.5270  3.7315
 1002MOL0     H38217   7.645   8.626   8.359  3.8467  1.1296 -3.0466
 1002MOL0     H38218   7.802   8.546   8.392  0.0691  0.8908 -0.6951
 1002MOL0     H38219   7.675   8.742   8.575 -0.3743 -1.9182 -1.3754
 1002MOL0     H38220   7.822   8.656   8.614 -1.5035 -0.5913  1.8642
 1002MOL0     H38221   7.780   8.865   8.383  0.7221 -1.4865 -2.3515
 1002MOL0     H38222   7.928   8.765   8.409 -2.3383 -1.1886 -2.4004
 1002MOL0     H38223   7.802   8.924   8.642  1.0191  1.8343  0.4623
 1002MOL0     H38224   7.957   8.866   8.631  0.8307  4.1729  3.3030
 1002MOL0     H38225   8.083   8.983   8.369  0.1137 -0.4734  0.8256
 1002MOL0     H38226   8.072   9.365   8.270 -0.3955  0.4042 -0.1257
 1002MOL0     H38227   8.106   9.215   8.186 -0.6190  0.4369  0.2550
 1002MOL0     H38228   8.267   9.155   8.374  0.2286 -0.6140  2.4687
 1002MOL0     H38229   8.312   9.294   8.277  2.5877 -3.0179  1.2912
 1002MOL0     H38230   8.196   9.434   8.473  0.4951  0.5674 -1.0007
 1002MOL0     H38231   8.195   9.269   8.561  2.2663  0.2476  1.2493
 1002MOL0     H38232   8.448   9.257   8.521  1.9152  1.6596 -0.6984
 1002MOL0     H38233   8.434   9.419   8.461 -0.6778 -1.2389 -1.4936
 1002MOL0     H38234   8.358   9.129   8.661  1.5499 -1.1873 -0.1040
 1002MOL0     H38235   8.323   8.908   8.782 -0.3847 -1.1679  0.5714
 1002MOL0     H38236   8.372   8.886   8.945 -4.2727 -1.3821 -2.1542
 1002MOL0     H38237   8.504   8.902   8.829  2.1489  1.4350  5.4175
 1002MOL0     H38238   8.559   8.885   9.322 -3.2040  3.5566  0.5306
 1002MOL0     H38239   8.668   8.829   9.543 -1.6423  0.3887 -1.1982
 1002MOL0     H38240   8.978   8.998   9.825 -0.9877 -0.0943 -0.6029
 1002MOL0     H38241   8.972   9.119   9.719  0.1961  0.1655  0.5167
 1002MOL0     H38242   8.704   9.101   9.812  1.5014 -1.4428 -2.0162
 1002MOL0     H38243   8.775   9.015   9.932 -1.7107  2.8505  2.5079
 1002MOL0     H38244   8.872   9.301   9.876  2.0544 -1.1435  0.5132
 1002MOL0     H38245   8.911   9.208  10.015  2.4648 -0.4675 -2.1228
 1002MOL0     H38246   8.668   9.202  10.068 -1.9159 -1.1476 -1.3084
 1002MOL0     H38247   8.627   9.280   9.926 -0.7687 -0.1184  1.3493
 1002MOL0     H38248   8.617   9.455  10.112  0.3806  2.8827 -0.5349
 1002MOL0     H38249   8.787   9.424  10.149  3.0061 -1.9577 -2.6902
 1002MOL0     H38250   8.659   9.514   9.883  0.4292  2.2802 -1.2321
 1002MOL0     H38251   8.828   9.547   9.919  1.6428  3.4821  2.7089
 1002MOL0     H38252   8.770   9.724  10.071  0.9409  0.0049 -1.7892
 1002MOL0     H38253   8.598   9.672  10.080 -0.2323  1.1690 -0.7359
 1002MOL0     H38254   8.578   9.848   9.931 -1.0148 -1.8207  2.2478
 1002MOL0     H38255   8.601   9.715   9.818  0.1198  0.7905 -0.4509
 1002MOL0     H38256   8.901   9.184   9.521 -0.8442  1.4389 -1.4161
 1002MOL0     H38257   8.767   9.256   9.319 -1.9363  0.0311  1.3540
 1002MOL0     H38258   8.493   9.329   9.105  0.4937  2.3455 -0.7867
 1002MOL0     H38259   8.458   9.465   8.910  1.4668  0.0763  1.1077
 1002MOL0     H38260   7.593   8.274   8.023  0.3852 -0.3888 -0.7715
 1002MOL0     H38261   7.724   8.305   7.786  0.3379 -0.2072 -0.4121
 1002MOL0     H38262   7.928   8.416   7.558  0.1058 -2.6235  1.7120
 1002MOL0     H38263   7.968   8.611   7.433 -1.7925 -2.9124  0.7053
 1002MOL0     H38264   8.072   8.719   7.220  3.4643 -2.7140 -1.8341
 1002MOL0     H38265   8.087   8.819   7.370  2.0815 -0.2291  2.1877
 1002MOL0     H38266   8.170   8.942   7.145  1.2784  1.7564  0.4130
 1002MOL0     H38267   8.313   8.836   7.177  1.0732 -1.0076  3.2423
 1002MOL0     H38268   8.196   9.047   7.361 -0.8100  1.5536 -3.2761
 1002MOL0     H38269   8.312   8.934   7.416  0.3573 -1.1534 -0.2182
 1002MOL0     H38270   8.334   9.129   7.168  1.7771  1.9684  0.5813
 1002MOL0     H38271   8.453   9.004   7.196 -0.0364 -1.9911  1.6300
 1002MOL0     H38272   8.597   9.305   7.437 -0.2567  2.0930 -0.3845
 1002MOL0     H38273   8.393   8.521   7.454  0.6489 -1.9882 -1.9003
 1002MOL0     H38274   8.382   8.315   7.736 -3.5219  3.7855 -1.0012
 1002MOL0     H38275   8.383   8.219   7.579  0.5901 -1.2471  2.3503
 1002MOL0     H38276   8.482   8.369   7.610  0.8706  0.4876  3.0906
 1003MOL0     O38277   8.972   2.582   0.166  0.4523 -0.5773 -0.4412
 1003MOL0     C38278   8.943   2.697   0.125  0.3214  0.4112 -0.1651
 1003MOL0     O38279   8.897   2.794   0.206  0.4569 -0.5001 -0.2221
 1003MOL0     C38280   8.850   2.762   0.328 -1.0858  0.6496 -0.9007
 1003MOL0     C38281   8.914   2.792   0.447 -0.4833  0.4871  0.1626
 1003MOL0     C38282   8.878   2.762   0.579  0.2539  0.2509  0.2942
 1003MOL0     C38283   8.749   2.697   0.586  0.9536 -0.3814  0.4032
 1003MOL0     O38284   8.703   2.666   0.711  0.2884  0.0516 -0.7363
 1003MOL0     C38285   8.561   2.660   0.722  0.3939 -0.6457  0.6341
 1003MOL0     C38286   8.529   2.605   0.859 -0.0977 -0.4957  0.2827
 1003MOL0     C38287   8.570   2.457   0.860  0.2478 -0.1863  0.4708
 1003MOL0     C38288   8.554   2.397   1.006  0.5269 -0.2771  0.6391
 1003MOL0     C38289   8.572   2.253   1.019 -0.4341  0.4725  0.2496
 1003MOL0     C38290   8.710   2.203   0.977  0.7015 -0.2204  0.0372
 1003MOL0     C38291   8.732   2.070   1.055  0.3829  0.7038  0.3110
 1003MOL0     C38292   8.854   1.989   1.015 -0.9013  0.8397  0.8208
 1003MOL0     N38293   8.874   1.862   1.091 -0.2908  1.2573  0.5706
 1003MOL0     C38294   8.798   1.812   1.198 -0.4767  1.5473  0.1170
 1003MOL0     C38295   8.850   1.681   1.225  1.2005 -0.9060 -0.0919
 1003MOL0     C38296   8.789   1.563   1.303  0.8563 -1.1386 -0.2036
 1003MOL0     C38297   8.879   1.454   1.337 -0.3343  0.0899  0.1999
 1003MOL0     C38298   8.986   1.489   1.435  0.5508  0.3588 -0.3383
 1003MOL0     C38299   8.951   1.424   1.568 -0.1256  0.2018  0.6121
 1003MOL0     O38300   9.025   1.469   1.679 -0.0387 -0.1619 -0.4293
 1003MOL0     C38301   9.063   1.371   1.762 -0.3523 -0.8300  0.3073
 1003MOL0     C38302   9.175   1.294   1.740  0.0982  0.6125  0.9803
 1003MOL0     C38303   9.217   1.199   1.827 -1.0160  0.3278  0.5683
 1003MOL0     C38304   9.335   1.114   1.781 -0.4636  0.2618 -0.2674
 1003MOL0     C38305   9.136   1.179   1.951  0.1102  0.0640  0.5983
 1003MOL0     C38306   9.162   1.073   2.052 -0.3305  0.6564  0.3602
 1003MOL0     O38307   9.057   1.042   2.133  0.3871  0.4041  0.0132
 1003MOL0     C38308   9.071   0.931   2.220  0.1541 -0.3589 -0.2097
 1003MOL0     C38309   9.039   0.800   2.171 -0.1019  0.5214  0.2941
 1003MOL0     C38310   9.058   0.695   2.255 -0.3435  0.0414 -0.2737
 1003MOL0     C38311   9.110   0.710   2.393 -0.5022 -0.0370  1.0703
 1003MOL0     O38312   9.143   0.608   2.485 -0.1581  0.2549 -0.3602
 1003MOL0     C38313   9.131   0.475   2.434 -0.2438  0.5994  0.3972
 1003MOL0     C38314   9.193   0.367   2.522  0.3606 -0.4490 -0.4694
 1003MOL0     C38315   9.122   0.240   2.490 -0.8466  0.4373 -0.3878
 1003MOL0     C38316   9.172   0.179   2.357  0.3433  0.2920 -0.0013
 1003MOL0     C38317   9.079   0.084   2.288 -0.2420 -0.0752  0.2452
 1003MOL0     C38318   9.138   0.006   2.167 -0.1825  0.4938  0.7215
 1003MOL0     C38319   9.269  -0.083   2.185  0.2663 -0.1226  0.2353
 1003MOL0     C38320   9.315  -0.176   2.065 -0.1199  0.3110  0.3593
 1003MOL0    Cl38321   9.190  -0.299   2.055 -0.5392 -0.2305  0.5288
 1003MOL0     C38322   9.141   0.837   2.431 -0.5117  0.4380 -0.3171
 1003MOL0     C38323   9.128   0.949   2.346 -0.6256 -0.1374  0.6828
 1003MOL0     O38324   9.270   1.026   2.061  0.3753  0.6386  0.4168
 1003MOL0     C38325   9.027   1.261   1.968 -0.2806 -0.4139 -0.1018
 1003MOL0     C38326   8.989   1.367   1.883 -0.3518  0.2920  0.6243
 1003MOL0     N38327   8.962   1.674   1.145 -0.6374  0.1155 -0.9239
 1003MOL0     N38328   8.978   1.770   1.066  0.5822 -0.2150 -0.2293
 1003MOL0     C38329   8.681   2.653   0.469 -0.5073 -0.0850  0.7588
 1003MOL0     C38330   8.738   2.685   0.342 -0.3899  0.8066  0.7462
 1003MOL0     C38331   8.953   2.728  -0.022 -0.0840 -0.7384 -0.3498
 1003MOL0     C38332   8.873   2.823  -0.084  0.2047 -0.6843 -0.6229
 1003MOL0     C38333   8.872   2.849  -0.223  0.2906 -0.0698  0.3189
 1003MOL0     C38334   8.953   2.781  -0.313 -0.0046  0.6857  1.2492
 1003MOL0     O38335   8.944   2.777  -0.453 -0.2451 -0.3105  0.0038
 1003MOL0     C38336   8.879   2.893  -0.511 -0.4251 -1.2794 -0.4267
 1003MOL0     C38337   8.930   2.889  -0.657 -0.1395  0.3698  0.0751
 1003MOL0     C38338   8.932   3.027  -0.724  0.4116 -0.6620 -0.2470
 1003MOL0     C38339   8.985   3.029  -0.866  0.1528 -0.2998  0.1622
 1003MOL0     C38340   9.131   3.005  -0.884 -0.2710 -0.6747 -0.0080
 1003MOL0     C38341   9.250   2.985  -0.911 -0.4277  0.7118  0.9640
 1003MOL0     C38342   9.042   2.691  -0.255 -0.3143  0.2782 -0.2882
 1003MOL0     C38343   9.045   2.664  -0.114  0.4902 -0.7029  0.4648
 1003MOL0     C38344   9.154   2.574  -0.060 -0.5470 -0.6492 -0.2294
 1003MOL0     H38345   9.007   2.848   0.442 -0.6708  0.6973 -1.2691
 1003MOL0     H38346   8.937   2.773   0.669  0.7055 -0.2397  0.0647
 1003MOL0     H38347   8.508   2.608   0.642 -1.2301  2.1173 -0.2085
 1003MOL0     H38348   8.515   2.759   0.714 -0.7517 -1.3052 -2.9961
 1003MOL0     H38349   8.587   2.664   0.930 -1.5430 -1.3964  2.3216
 1003MOL0     H38350   8.426   2.620   0.894 -0.2743  0.6370 -0.6638
 1003MOL0     H38351   8.505   2.404   0.790  1.2469 -1.0708  0.1758
 1003MOL0     H38352   8.671   2.440   0.821  0.0249  0.0664 -0.2312
 1003MOL0     H38353   8.628   2.439   1.075  1.2309  3.1409 -1.9569
 1003MOL0     H38354   8.453   2.404   1.047  0.1735 -2.4829  0.2680
 1003MOL0     H38355   8.494   2.214   0.952 -1.0205  0.0694  1.1497
 1003MOL0     H38356   8.559   2.227   1.125  1.3186 -1.7942 -0.0051
 1003MOL0     H38357   8.716   2.183   0.869 -2.9803 -0.1432 -0.3092
 1003MOL0     H38358   8.784   2.281   0.998 -0.4735  1.2291 -1.0048
 1003MOL0     H38359   8.643   2.006   1.052  1.4476 -0.8261 -0.1163
 1003MOL0     H38360   8.742   2.103   1.159 -1.6753  1.3318  0.3494
 1003MOL0     H38361   8.855   1.979   0.906  1.7316  2.0989  0.6356
 1003MOL0     H38362   8.943   2.052   1.024  0.5128 -1.0615  0.5236
 1003MOL0     H38363   8.705   1.841   1.246 -2.4268 -2.1279 -1.0696
 1003MOL0     H38364   8.708   1.529   1.239 -0.7125  2.3059 -0.2897
 1003MOL0     H38365   8.737   1.601   1.392  1.4048 -1.9418  0.4779
 1003MOL0     H38366   8.827   1.358   1.352  1.4894 -0.9667  0.0352
 1003MOL0     H38367   8.927   1.423   1.244  2.1587 -1.5416  1.8831
 1003MOL0     H38368   9.085   1.452   1.406  0.8198  1.5716 -1.0600
 1003MOL0     H38369   8.981   1.598   1.448 -0.3873  0.1382  1.4661
 1003MOL0     H38370   8.845   1.432   1.597 -0.4067 -0.1313 -0.2892
 1003MOL0     H38371   8.968   1.317   1.554  1.1338  0.4978 -0.3247
 1003MOL0     H38372   9.229   1.318   1.649 -0.4554 -0.2206  0.4180
 1003MOL0     H38373   9.344   1.022   1.840  2.1782  1.6919  1.8274
 1003MOL0     H38374   9.432   1.165   1.782 -0.9523  1.2009  0.1514
 1003MOL0     H38375   9.317   1.076   1.680  0.3897 -0.9485  0.0166
 1003MOL0     H38376   9.003   0.780   2.071 -1.0508  2.3368  0.2243
 1003MOL0     H38377   9.050   0.593   2.218 -0.3533 -0.6412  1.5011
 1003MOL0     H38378   9.025   0.454   2.418  0.0257 -1.2358  0.8215
 1003MOL0     H38379   9.180   0.466   2.336 -0.3839 -2.4933  0.5348
 1003MOL0     H38380   9.300   0.356   2.503  1.2149  2.4756  1.8102
 1003MOL0     H38381   9.179   0.395   2.627  1.0880  1.1126 -0.7570
 1003MOL0     H38382   9.012   0.247   2.496 -0.7657  0.3951  3.0581
 1003MOL0     H38383   9.158   0.171   2.567 -2.9560 -1.2204 -0.7835
 1003MOL0     H38384   9.263   0.125   2.386  1.1620  0.1930 -2.5472
 1003MOL0     H38385   9.191   0.263   2.290 -1.9469  0.1329 -0.9313
 1003MOL0     H38386   9.044   0.009   2.360  0.3862 -1.4855 -0.8645
 1003MOL0     H38387   8.993   0.142   2.252 -1.2398 -1.2987  0.5637
 1003MOL0     H38388   9.158   0.089   2.100 -2.2347 -1.0816 -2.0273
 1003MOL0     H38389   9.051  -0.047   2.127  0.0779  0.6861 -0.1057
 1003MOL0     H38390   9.254  -0.160   2.261  3.4952  2.3805  3.7863
 1003MOL0     H38391   9.359  -0.029   2.217  0.7656 -0.9949  0.3506
 1003MOL0     H38392   9.413  -0.219   2.089  0.2164  0.1933 -1.1199
 1003MOL0     H38393   9.326  -0.112   1.977 -1.0544  0.6966  0.5093
 1003MOL0     H38394   9.184   0.851   2.529  1.5815 -0.3252 -1.0659
 1003MOL0     H38395   9.158   1.047   2.382 -1.3719  1.3274 -2.3786
 1003MOL0     H38396   8.975   1.273   2.063  3.0006  0.2354  1.7782
 1003MOL0     H38397   8.907   1.437   1.900 -1.0523 -0.0318 -1.1596
 1003MOL0     H38398   8.590   2.594   0.469 -0.8816  0.4624 -0.1965
 1003MOL0     H38399   8.692   2.663   0.246  2.9523 -4.8321  0.0130
 1003MOL0     H38400   8.794   2.871  -0.026  0.3158 -0.2551 -0.8180
 1003MOL0     H38401   8.796   2.920  -0.254  0.4012 -2.0583 -5.6521
 1003MOL0     H38402   8.770   2.881  -0.510 -1.0415  2.8459  1.9309
 1003MOL0     H38403   8.910   2.980  -0.453 -2.1272 -0.4954 -0.6230
 1003MOL0     H38404   8.861   2.827  -0.714 -1.5384 -0.0091  2.0676
 1003MOL0     H38405   9.028   2.840  -0.666 -0.1595  0.4864 -0.8488
 1003MOL0     H38406   8.830   3.066  -0.730 -0.2525 -1.8849  1.9522
 1003MOL0     H38407   8.991   3.100  -0.668  0.1158  0.3438 -1.2150
 1003MOL0     H38408   8.951   3.128  -0.898 -4.2645 -1.3544  0.9717
 1003MOL0     H38409   8.937   2.948  -0.922 -3.2184  0.7531  1.3126
 1003MOL0     H38410   9.351   2.988  -0.944  0.0017  0.8441  2.2186
 1003MOL0     H38411   9.103   2.642  -0.330 -0.0631  0.7261 -0.3795
 1003MOL0     H38412   9.244   2.572  -0.122  1.2155  1.6423  2.0491
 1003MOL0     H38413   9.192   2.618   0.033 -0.9891  1.8255 -1.1234
 1003MOL0     H38414   9.111   2.474  -0.051 -1.5762 -0.2713 -0.7700
 1004MOL0     O38415   2.109   5.481  10.026 -0.0091 -0.2842  0.1262
 1004MOL0     C38416   2.013   5.402  10.012  0.2841  0.7119  0.8190
 1004MOL0     O38417   2.007   5.314   9.911  0.6016 -0.4425 -0.5925
 1004MOL0     C38418   2.106   5.223   9.912  0.2574  0.4959 -0.5615
 1004MOL0     C38419   2.232   5.248   9.859 -0.8890 -0.0314  0.4923
 1004MOL0     C38420   2.344   5.169   9.867  0.1093  0.4058 -0.1373
 1004MOL0     C38421   2.338   5.046   9.936 -0.1984 -0.1047 -0.6067
 1004MOL0     O38422   2.447   4.964   9.954 -0.0467  0.1784 -0.3291
 1004MOL0     C38423   2.573   5.009   9.901  0.0326  0.4599  0.0172
 1004MOL0     C38424   2.681   4.913   9.952  0.0900 -0.2066 -0.2886
 1004MOL0     C38425   2.700   4.923  10.099 -0.0056  0.1207 -0.3490
 1004MOL0     C38426   2.773   5.055  10.131 -0.0954 -0.2433 -0.5065
 1004MOL0     C38427   2.804   5.088  10.275  0.0585 -0.1236 -0.3461
 1004MOL0     C38428   2.887   5.218  10.290 -0.0932 -0.2330 -0.6271
 1004MOL0     C38429   2.895   5.256  10.444 -0.1029 -0.5008 -0.7269
 1004MOL0     C38430   2.950   5.388  10.473 -0.5291  0.5201  0.5631
 1004MOL0     N38431   3.101   5.383  10.463  0.2852 -0.7334 -0.1122
 1004MOL0     C38432   3.186   5.395  10.569 -0.0412 -0.3155  0.8078
 1004MOL0     C38433   3.309   5.356  10.521  0.6435  0.6103 -0.0581
 1004MOL0     C38434   3.420   5.342  10.611  0.2373 -0.9516  0.4017
 1004MOL0     C38435   3.521   5.241  10.561  0.4576  0.8523 -1.1210
 1004MOL0     C38436   3.627   5.305  10.479  0.4552 -0.2268  0.1409
 1004MOL0     C38437   3.728   5.217  10.404  0.7710  0.1392 -0.4854
 1004MOL0     O38438   3.666   5.099  10.349  0.0159 -0.3024 -0.3450
 1004MOL0     C38439   3.754   5.010  10.294 -0.6090 -0.2713  0.1942
 1004MOL0     C38440   3.892   5.027  10.279  0.3825 -1.0139  0.5445
 1004MOL0     C38441   3.974   4.936  10.229 -0.2169  0.0738  0.1573
 1004MOL0     C38442   4.125   4.969  10.228 -0.3009  0.1532 -0.4143
 1004MOL0     C38443   3.928   4.815  10.175 -0.3918  1.1446 -0.7604
 1004MOL0     C38444   4.006   4.714  10.108  0.8412 -0.2972  0.3563
 1004MOL0     O38445   3.942   4.651  10.004  0.0096  0.1289  0.1106
 1004MOL0     C38446   4.020   4.572   9.925 -0.0037  0.4887  0.1624
 1004MOL0     C38447   4.100   4.629   9.829 -0.2689 -0.6261 -0.3104
 1004MOL0     C38448   4.168   4.541   9.740  0.3188 -0.0815 -0.1564
 1004MOL0     C38449   4.182   4.408   9.768 -0.8485  0.2650 -0.2351
 1004MOL0     O38450   4.275   4.334   9.694  0.2140  0.4232  0.3661
 1004MOL0     C38451   4.329   4.217   9.759  0.1256 -0.0367  0.0858
 1004MOL0     C38452   4.483   4.182   9.718  0.9618  0.7430  0.8155
 1004MOL0     C38453   4.581   4.292   9.737  0.2040 -0.8946 -0.5275
 1004MOL0     C38454   4.729   4.261   9.721 -0.2386  0.6330  0.0598
 1004MOL0     C38455   4.773   4.143   9.807  0.8747 -0.1779  0.5851
 1004MOL0     C38456   4.778   4.017   9.716  0.0490  0.6385 -0.4305
 1004MOL0     C38457   4.742   3.890   9.800  0.0710 -0.5191 -0.8628
 1004MOL0     C38458   4.847   3.841   9.898  0.3076 -0.3174  0.4026
 1004MOL0    Cl38459   4.791   3.685   9.973 -0.6430 -0.2048  0.5189
 1004MOL0     C38460   4.100   4.354   9.875  0.3705  0.8261 -0.4255
 1004MOL0     C38461   4.017   4.435   9.949  0.0400 -0.0712 -1.3532
 1004MOL0     O38462   4.127   4.701  10.137 -0.8299 -0.0754 -0.2389
 1004MOL0     C38463   3.786   4.794  10.184  0.2265  0.4962 -0.1391
 1004MOL0     C38464   3.700   4.892  10.245  0.5752  0.0923  0.3740
 1004MOL0     N38465   3.296   5.334  10.382 -0.9314 -0.7865 -0.3844
 1004MOL0     N38466   3.175   5.363  10.350  0.2717  0.6014  0.5352
 1004MOL0     C38467   2.217   5.015   9.997  0.0932 -1.3705 -0.6462
 1004MOL0     C38468   2.102   5.100   9.987 -1.0852 -0.3399  0.9645
 1004MOL0     C38469   1.887   5.431  10.079 -0.3070  0.1244  0.1475
 1004MOL0     C38470   1.766   5.422  10.015 -0.5200  0.1042 -0.4788
 1004MOL0     C38471   1.646   5.440  10.085 -0.9552  0.3698  0.0147
 1004MOL0     C38472   1.644   5.483  10.222  0.1305 -0.7159 -0.2044
 1004MOL0     O38473   1.515   5.487  10.274  0.1997  0.0932  0.2199
 1004MOL0     C38474   1.484   5.561  10.389 -0.2448 -0.5809 -0.7278
 1004MOL0     C38475   1.334   5.551  10.426 -0.9915 -0.6433 -0.7266
 1004MOL0     C38476   1.304   5.586  10.576 -0.0470  0.3220  0.4966
 1004MOL0     C38477   1.154   5.583  10.596 -0.3398  0.4721 -0.0717
 1004MOL0     C38478   1.123   5.579  10.737  0.0767  1.0604  0.4902
 1004MOL0     C38479   1.111   5.591  10.856  1.2967 -0.4364 -0.9376
 1004MOL0     C38480   1.764   5.495  10.287  0.0581 -0.5590 -0.7874
 1004MOL0     C38481   1.884   5.465  10.220 -0.0841 -0.2754 -0.2302
 1004MOL0     C38482   2.003   5.473  10.304 -0.0391 -0.2333 -0.0940
 1004MOL0     H38483   2.245   5.347   9.815 -0.3385  0.0211  0.7664
 1004MOL0     H38484   2.432   5.188   9.806  0.1019  0.5147 -0.1154
 1004MOL0     H38485   2.603   5.113   9.909  0.1105  0.5093 -0.7861
 1004MOL0     H38486   2.568   4.983   9.794 -1.4647  1.3265 -0.1469
 1004MOL0     H38487   2.651   4.813   9.921 -0.5947  0.0735 -0.5414
 1004MOL0     H38488   2.774   4.932   9.898 -2.0049  0.4991 -3.9221
 1004MOL0     H38489   2.612   4.917  10.163  2.2162 -2.9624  2.7925
 1004MOL0     H38490   2.768   4.849  10.143 -1.1996 -0.0880  1.2199
 1004MOL0     H38491   2.863   5.053  10.068  1.0998  1.3955  1.0484
 1004MOL0     H38492   2.718   5.143  10.097  2.8412  1.5821 -0.9478
 1004MOL0     H38493   2.859   5.014  10.333  1.5685  2.3275  1.5541
 1004MOL0     H38494   2.708   5.093  10.327  2.5477 -0.6828  4.9582
 1004MOL0     H38495   2.986   5.216  10.245  2.0122  1.1806  3.3725
 1004MOL0     H38496   2.825   5.296  10.244 -2.4347 -2.2126 -1.0780
 1004MOL0     H38497   2.954   5.174  10.487  0.0417 -0.0377 -0.0247
 1004MOL0     H38498   2.795   5.257  10.486 -0.5860  0.8724 -1.8509
 1004MOL0     H38499   2.893   5.461  10.415 -1.1516 -0.6605 -0.3614
 1004MOL0     H38500   2.929   5.411  10.578 -2.1118 -1.0474  0.6387
 1004MOL0     H38501   3.167   5.417  10.673 -1.9036  3.4910 -0.1545
 1004MOL0     H38502   3.388   5.320  10.713 -0.6973  2.8001  1.0688
 1004MOL0     H38503   3.461   5.444  10.620 -1.7373 -0.2533  2.7812
 1004MOL0     H38504   3.563   5.188  10.647 -0.2540  0.7767 -0.8125
 1004MOL0     H38505   3.463   5.175  10.497 -3.0278  1.2040  1.3844
 1004MOL0     H38506   3.570   5.353  10.399 -0.6294 -0.0360  1.0193
 1004MOL0     H38507   3.686   5.380  10.532  0.8249 -1.4842  1.5667
 1004MOL0     H38508   3.778   5.270  10.323  4.5765 -1.8430  0.3442
 1004MOL0     H38509   3.806   5.187  10.476  0.6109  3.2570  1.1819
 1004MOL0     H38510   3.937   5.122  10.304  2.5783 -1.0773 -2.5503
 1004MOL0     H38511   4.144   5.060  10.286 -0.3319 -1.0919  1.6522
 1004MOL0     H38512   4.153   4.979  10.123  1.7431 -0.6531  0.0080
 1004MOL0     H38513   4.190   4.897  10.279  1.0940 -1.1183 -3.7094
 1004MOL0     H38514   4.094   4.737   9.835 -2.3639 -0.7790  3.0755
 1004MOL0     H38515   4.236   4.584   9.667  0.8712 -0.4300  0.1466
 1004MOL0     H38516   4.328   4.243   9.865  0.0012 -2.2873  0.6796
 1004MOL0     H38517   4.259   4.135   9.740 -1.6120  1.5202 -0.6623
 1004MOL0     H38518   4.508   4.088   9.767 -0.6523 -0.1607 -0.0069
 1004MOL0     H38519   4.464   4.156   9.613 -2.6287 -2.4997  2.0137
 1004MOL0     H38520   4.552   4.328   9.836 -1.4397 -1.9237 -0.5937
 1004MOL0     H38521   4.560   4.362   9.656 -0.9637 -0.2525  0.3096
 1004MOL0     H38522   4.784   4.349   9.755 -1.9856  1.0452  2.0414
 1004MOL0     H38523   4.760   4.238   9.619  6.2683 -1.3519  1.9603
 1004MOL0     H38524   4.871   4.169   9.847  0.5253  0.2152  1.1901
 1004MOL0     H38525   4.715   4.137   9.899 -1.0003 -2.3014 -0.6279
 1004MOL0     H38526   4.878   4.006   9.673 -0.2715 -1.4373 -0.7395
 1004MOL0     H38527   4.701   4.028   9.640 -0.7082  1.6580  0.4481
 1004MOL0     H38528   4.728   3.802   9.737 -0.2144 -0.4764 -0.8609
 1004MOL0     H38529   4.648   3.906   9.853  0.5628 -0.5186  0.0250
 1004MOL0     H38530   4.864   3.912   9.980 -2.0974  1.8264 -0.8084
 1004MOL0     H38531   4.940   3.825   9.842  0.7917 -1.8829  1.5850
 1004MOL0     H38532   4.090   4.246   9.881 -0.7135  0.4231 -5.3205
 1004MOL0     H38533   3.946   4.403  10.024 -0.7266  3.6685 -0.3153
 1004MOL0     H38534   3.749   4.701  10.140  3.8121 -1.4573  0.5686
 1004MOL0     H38535   3.598   4.859  10.265  1.0395 -0.5719  1.8268
 1004MOL0     H38536   2.206   4.932  10.067  0.7836 -0.3240  0.7456
 1004MOL0     H38537   2.013   5.072  10.042 -1.1224 -1.0410  0.5618
 1004MOL0     H38538   1.770   5.391   9.911  1.5744  0.3246 -0.4953
 1004MOL0     H38539   1.556   5.417  10.028 -0.1313 -1.9028 -0.4581
 1004MOL0     H38540   1.546   5.531  10.475  0.0198  0.7709 -0.4226
 1004MOL0     H38541   1.510   5.667  10.379 -0.1632 -0.8395 -4.4076
 1004MOL0     H38542   1.315   5.445  10.403  0.6559 -1.0839 -0.1778
 1004MOL0     H38543   1.270   5.608  10.358  0.3938  0.7040 -0.9556
 1004MOL0     H38544   1.350   5.508  10.637 -1.8759 -2.4909 -1.4360
 1004MOL0     H38545   1.322   5.691  10.602 -2.3989  1.0127 -0.4054
 1004MOL0     H38546   1.102   5.497  10.553 -3.8056  2.1536  0.4083
 1004MOL0     H38547   1.111   5.673  10.550  0.4591  1.0394  0.2788
 1004MOL0     H38548   1.109   5.607  10.962 -0.5055 -0.7609 -0.8893
 1004MOL0     H38549   1.766   5.534  10.388  0.0824 -0.9681 -0.6269
 1004MOL0     H38550   2.047   5.373  10.297  1.7644  0.5840 -0.9131
 1004MOL0     H38551   2.075   5.542  10.260 -0.4725 -0.2039 -0.7666
 1004MOL0     H38552   1.986   5.507  10.407  2.4676 -1.7965  0.9546
 1005MOL0     O38553   6.844   7.850   0.221  0.3491  0.2961  0.0404
 1005MOL0     C38554   6.781   7.961   0.226  0.2710 -0.1646 -0.1013
 1005MOL0     O38555   6.671   7.992   0.139 -0.9053 -0.5615 -0.7497
 1005MOL0     C38556   6.617   7.892   0.087 -0.2078 -0.5610 -0.2413
 1005MOL0     C38557   6.657   7.842  -0.036 -0.3643  0.1440 -0.6445
 1005MOL0     C38558   6.583   7.738  -0.096 -0.3808  0.7876 -0.6595
 1005MOL0     C38559   6.473   7.679  -0.039 -0.2799 -0.5234 -0.9342
 1005MOL0     O38560   6.429   7.572  -0.102  0.0630 -0.9114 -0.6376
 1005MOL0     C38561   6.291   7.552  -0.112  0.3758  0.9787 -0.0650
 1005MOL0     C38562   6.253   7.425  -0.195  0.0157  0.7064 -0.2886
 1005MOL0     C38563   6.278   7.449  -0.352  0.8791  0.5030 -0.2415
 1005MOL0     C38564   6.262   7.314  -0.428  0.2673  0.0955 -0.8784
 1005MOL0     C38565   6.299   7.330  -0.581 -0.5957  0.3965  0.2483
 1005MOL0     C38566   6.224   7.437  -0.664 -0.3761  0.3345  0.5451
 1005MOL0     C38567   6.250   7.445  -0.818 -0.6193 -0.3175  0.2841
 1005MOL0     C38568   6.170   7.331  -0.887 -0.2977  0.0388  0.7700
 1005MOL0     N38569   6.200   7.340  -1.034  0.0424  0.5030 -0.3262
 1005MOL0     C38570   6.317   7.300  -1.094  0.2146  0.8993  0.4391
 1005MOL0     C38571   6.294   7.307  -1.226 -0.2173 -0.1390 -0.3292
 1005MOL0     C38572   6.384   7.272  -1.338  0.0397 -0.7959 -0.0723
 1005MOL0     C38573   6.513   7.355  -1.331 -0.0588 -0.4001  0.2933
 1005MOL0     C38574   6.608   7.336  -1.447  0.1598  0.2898 -0.1135
 1005MOL0     C38575   6.544   7.365  -1.583  0.3202 -0.0979  0.8189
 1005MOL0     O38576   6.649   7.395  -1.677 -1.1018  0.3676  0.5322
 1005MOL0     C38577   6.616   7.393  -1.811 -0.0318  0.0599 -0.1535
 1005MOL0     C38578   6.488   7.399  -1.870  0.5245 -0.4630  0.0769
 1005MOL0     C38579   6.469   7.398  -2.006  0.3679  0.3703  0.5354
 1005MOL0     C38580   6.318   7.421  -2.043  0.6900  0.4039  0.6495
 1005MOL0     C38581   6.579   7.380  -2.098  0.4735 -0.4113 -0.9462
 1005MOL0     C38582   6.560   7.371  -2.237 -0.3470  0.1729  0.2412
 1005MOL0     O38583   6.677   7.353  -2.305 -0.2137  0.2474  0.4977
 1005MOL0     C38584   6.660   7.338  -2.440 -0.2516 -0.1061  0.0215
 1005MOL0     C38585   6.611   7.217  -2.490 -0.2734  0.8770  0.0951
 1005MOL0     C38586   6.591   7.200  -2.630  0.0473 -0.3995  0.1726
 1005MOL0     C38587   6.619   7.312  -2.724  0.1308  0.4816  0.2232
 1005MOL0     O38588   6.593   7.314  -2.861  0.1416 -0.4785 -0.1814
 1005MOL0     C38589   6.460   7.271  -2.907 -1.1958  0.0261  0.4706
 1005MOL0     C38590   6.441   7.305  -3.047 -0.1584  0.0095  0.2201
 1005MOL0     C38591   6.403   7.459  -3.065  0.0559 -0.5222  0.3042
 1005MOL0     C38592   6.457   7.537  -3.190  0.0589  0.2665 -0.3508
 1005MOL0     C38593   6.396   7.675  -3.213 -0.0393 -0.3643 -0.4989
 1005MOL0     C38594   6.252   7.672  -3.264  0.2914 -0.0271 -0.7346
 1005MOL0     C38595   6.229   7.793  -3.339 -0.4092 -0.8515 -0.0314
 1005MOL0     C38596   6.085   7.788  -3.389 -1.0691  0.4676 -0.1295
 1005MOL0    Cl38597   6.067   7.927  -3.499 -0.1680  0.1494  0.2460
 1005MOL0     C38598   6.648   7.434  -2.665  0.4807  0.4777  0.1969
 1005MOL0     C38599   6.682   7.445  -2.528  0.1988 -0.7472  0.2064
 1005MOL0     O38600   6.449   7.397  -2.295 -0.5214 -0.5524  0.1685
 1005MOL0     C38601   6.710   7.382  -2.040  0.7775 -0.7226  0.0325
 1005MOL0     C38602   6.722   7.393  -1.907 -0.8290  0.8237 -0.2024
 1005MOL0     N38603   6.168   7.356  -1.241  0.6678 -0.1417 -0.4447
 1005MOL0     N38604   6.105   7.376  -1.126  0.5847 -0.4707  0.5898
 1005MOL0     C38605   6.421   7.740   0.076 -0.5591 -0.6495  0.3246
 1005MOL0     C38606   6.493   7.843   0.135 -0.2014 -0.0336  0.1164
 1005MOL0     C38607   6.823   8.071   0.312 -0.6906  0.4097  1.4573
 1005MOL0     C38608   6.760   8.198   0.296  0.0066  0.1433 -0.0755
 1005MOL0     C38609   6.805   8.311   0.375 -0.1138  0.3547 -0.1102
 1005MOL0     C38610   6.904   8.298   0.466 -0.9271 -0.1441 -0.1207
 1005MOL0     O38611   6.946   8.401   0.553  0.0818  0.2247 -0.3569
 1005MOL0     C38612   6.859   8.509   0.580 -0.4529  0.4332  0.5108
 1005MOL0     C38613   6.796   8.486   0.712  0.2515  0.0506 -0.5102
 1005MOL0     C38614   6.730   8.620   0.758  0.8498  0.3808 -0.1796
 1005MOL0     C38615   6.689   8.617   0.907  0.9772 -0.9793  0.3007
 1005MOL0     C38616   6.661   8.751   0.949  0.0320 -0.0877 -0.0119
 1005MOL0     C38617   6.663   8.872   0.966 -0.4190  0.3557  0.9663
 1005MOL0     C38618   6.960   8.169   0.475 -0.1959 -0.4280 -0.9268
 1005MOL0     C38619   6.926   8.056   0.406 -0.2368 -0.8367 -0.4594
 1005MOL0     C38620   7.014   7.935   0.437 -0.7758 -0.1706 -0.1282
 1005MOL0     H38621   6.734   7.890  -0.096 -0.7138 -0.7417 -1.8613
 1005MOL0     H38622   6.623   7.694  -0.187 -0.3939 -2.6709  0.8287
 1005MOL0     H38623   6.245   7.641  -0.155 -1.0976  1.6909  2.7283
 1005MOL0     H38624   6.249   7.547  -0.011  0.0488 -0.2958 -0.2404
 1005MOL0     H38625   6.308   7.337  -0.159 -2.6687 -0.5851  0.9422
 1005MOL0     H38626   6.151   7.401  -0.166 -0.8850  0.2524 -3.4305
 1005MOL0     H38627   6.220   7.530  -0.399 -1.1177  0.8784  2.6210
 1005MOL0     H38628   6.383   7.476  -0.363  0.9525  0.1155 -0.5215
 1005MOL0     H38629   6.309   7.226  -0.384 -2.7578  0.4742  3.8018
 1005MOL0     H38630   6.154   7.297  -0.428 -0.3182  3.1163 -1.9301
 1005MOL0     H38631   6.280   7.234  -0.631  1.9452 -0.5127  0.8535
 1005MOL0     H38632   6.405   7.354  -0.592 -0.6815  0.1825 -1.3736
 1005MOL0     H38633   6.118   7.433  -0.637 -0.9705  2.7529 -1.0344
 1005MOL0     H38634   6.260   7.532  -0.623  0.9160  0.0702  0.0468
 1005MOL0     H38635   6.354   7.428  -0.847  0.9983  3.3406  3.1246
 1005MOL0     H38636   6.230   7.548  -0.848  1.8119 -0.0925 -0.7588
 1005MOL0     H38637   6.199   7.235  -0.843 -0.7782 -0.4292  0.0950
 1005MOL0     H38638   6.062   7.344  -0.878 -0.5646 -0.3178 -1.4275
 1005MOL0     H38639   6.400   7.267  -1.033  0.0277  3.0760  2.0147
 1005MOL0     H38640   6.322   7.292  -1.425  0.8737 -0.7539 -0.6628
 1005MOL0     H38641   6.414   7.167  -1.336  3.7264 -0.1588 -4.7832
 1005MOL0     H38642   6.505   7.462  -1.309 -1.0092 -0.7994  2.1097
 1005MOL0     H38643   6.566   7.323  -1.241  1.0960  0.9469  0.1198
 1005MOL0     H38644   6.694   7.397  -1.422 -0.8540  1.4906  0.5243
 1005MOL0     H38645   6.650   7.235  -1.435  1.7806  0.4282 -3.3364
 1005MOL0     H38646   6.477   7.284  -1.615  0.6489  0.3986 -1.2828
 1005MOL0     H38647   6.477   7.451  -1.569 -1.7143 -1.8935  2.9575
 1005MOL0     H38648   6.392   7.409  -1.820 -0.5105  1.2155 -2.0415
 1005MOL0     H38649   6.303   7.502  -2.115  1.3450  0.8802  1.0474
 1005MOL0     H38650   6.258   7.444  -1.955 -1.8110 -1.4905 -0.4343
 1005MOL0     H38651   6.257   7.342  -2.090 -0.8169  2.9963 -2.1366
 1005MOL0     H38652   6.587   7.123  -2.439  2.3308 -0.2145 -0.5121
 1005MOL0     H38653   6.551   7.103  -2.657  2.3055 -1.1883 -0.5677
 1005MOL0     H38654   6.466   7.163  -2.897 -0.8534  0.0641  0.6731
 1005MOL0     H38655   6.375   7.303  -2.846 -1.4941 -0.6488  0.4176
 1005MOL0     H38656   6.535   7.294  -3.103  0.0281 -1.4434  0.7702
 1005MOL0     H38657   6.372   7.233  -3.091 -0.1086  0.5121 -0.7125
 1005MOL0     H38658   6.438   7.511  -2.975 -0.7253  0.9262 -0.1934
 1005MOL0     H38659   6.295   7.469  -3.052 -0.0791 -3.5157  2.4041
 1005MOL0     H38660   6.444   7.485  -3.286 -0.0160 -0.9054  0.2759
 1005MOL0     H38661   6.564   7.555  -3.174  0.3765  1.4894 -3.2200
 1005MOL0     H38662   6.393   7.736  -3.123 -1.4267 -0.0162 -0.7598
 1005MOL0     H38663   6.456   7.733  -3.284 -1.1984  1.6006  0.0662
 1005MOL0     H38664   6.183   7.662  -3.180 -0.8828 -1.9702 -1.8780
 1005MOL0     H38665   6.226   7.591  -3.331  0.6837  0.6975 -1.7949
 1005MOL0     H38666   6.290   7.798  -3.429 -3.3979  0.3060 -2.1399
 1005MOL0     H38667   6.238   7.888  -3.285 -5.7699  1.7028 -2.8163
 1005MOL0     H38668   6.016   7.798  -3.304  0.7294 -0.4033  1.5037
 1005MOL0     H38669   6.075   7.694  -3.443  0.1037 -0.5052  1.2671
 1005MOL0     H38670   6.657   7.506  -2.745  1.6595 -0.6630 -0.7363
 1005MOL0     H38671   6.716   7.532  -2.473  1.4282  0.2843 -2.0775
 1005MOL0     H38672   6.807   7.364  -2.085  2.1543  0.3048  2.3697
 1005MOL0     H38673   6.823   7.398  -1.867 -0.8361 -0.6150  0.0375
 1005MOL0     H38674   6.327   7.713   0.124 -1.2537  2.2426  0.7941
 1005MOL0     H38675   6.444   7.898   0.214  1.8087  0.4451  1.0776
 1005MOL0     H38676   6.669   8.202   0.236 -0.8458  0.7557  1.2032
 1005MOL0     H38677   6.750   8.401   0.350  1.2808  0.3512 -3.8963
 1005MOL0     H38678   6.919   8.600   0.581  0.4829 -0.1289  2.9263
 1005MOL0     H38679   6.781   8.527   0.506 -1.5495  1.1990  1.7988
 1005MOL0     H38680   6.878   8.445   0.772 -0.1632  2.9939  2.3396
 1005MOL0     H38681   6.714   8.417   0.690  0.9361 -0.8833 -0.2120
 1005MOL0     H38682   6.795   8.706   0.741 -1.1067  2.1698  0.8978
 1005MOL0     H38683   6.641   8.630   0.696  1.4775  0.7041 -1.0497
 1005MOL0     H38684   6.771   8.577   0.966 -0.5525 -0.7985  2.6708
 1005MOL0     H38685   6.602   8.552   0.925  0.3212  0.5518  3.0954
 1005MOL0     H38686   6.687   8.976   0.957  0.6587  0.0467  0.0052
 1005MOL0     H38687   7.037   8.178   0.550  0.9953 -2.6173 -1.8055
 1005MOL0     H38688   7.117   7.962   0.410  0.6978 -1.9480  3.1416
 1005MOL0     H38689   7.020   7.906   0.542  0.7261  0.2576 -0.0809
 1005MOL0     H38690   6.986   7.837   0.396 -0.4626 -0.5568  0.5594
 1006MOL0     O38691   2.185   4.088   3.572 -0.3630 -0.0886  0.6915
 1006MOL0     C38692   2.097   4.088   3.649  0.7179 -0.1579 -0.7691
 1006MOL0     O38693   2.035   3.974   3.690 -0.3006 -0.0930  0.6449
 1006MOL0     C38694   2.077   3.844   3.658 -0.4320 -0.3879 -1.0468
 1006MOL0     C38695   1.984   3.757   3.611  0.5758  0.6173  0.7905
 1006MOL0     C38696   2.022   3.631   3.570 -0.6283 -0.3230  0.6849
 1006MOL0     C38697   2.153   3.596   3.568 -0.8065  0.5539 -0.3236
 1006MOL0     O38698   2.204   3.477   3.525  1.0835  0.3143  0.0667
 1006MOL0     C38699   2.147   3.361   3.591  0.5461 -0.9147 -0.1480
 1006MOL0     C38700   2.263   3.259   3.590  1.0115 -0.3029  0.1413
 1006MOL0     C38701   2.266   3.196   3.724 -0.6156  0.7089  0.8600
 1006MOL0     C38702   2.383   3.090   3.743 -0.4963 -0.0325  0.9868
 1006MOL0     C38703   2.522   3.154   3.735 -0.1286  0.5640  0.4356
 1006MOL0     C38704   2.620   3.033   3.769  0.1471 -1.1633  0.1444
 1006MOL0     C38705   2.760   3.055   3.691  0.1295 -0.9569 -0.3774
 1006MOL0     C38706   2.872   3.133   3.784 -0.5670  0.6161 -0.9269
 1006MOL0     N38707   2.923   3.043   3.886  0.4537  0.2945  0.0288
 1006MOL0     C38708   2.990   2.924   3.866  0.1124  0.3433  1.8411
 1006MOL0     C38709   2.967   2.852   3.970  0.9301 -0.3017 -0.6197
 1006MOL0     C38710   3.017   2.714   3.998 -0.6232  0.3005  0.9526
 1006MOL0     C38711   2.974   2.592   3.904 -0.2143 -0.0740 -0.1613
 1006MOL0     C38712   2.828   2.606   3.888 -0.1305  0.1267  0.8002
 1006MOL0     C38713   2.767   2.488   3.801 -0.1022 -0.5905 -0.7625
 1006MOL0     O38714   2.789   2.370   3.880  0.2466  0.1502 -0.1047
 1006MOL0     C38715   2.847   2.256   3.826 -0.0055 -0.1660 -0.4424
 1006MOL0     C38716   2.873   2.151   3.917  0.7457 -0.0946 -0.0585
 1006MOL0     C38717   2.945   2.044   3.874 -0.4872  0.6906 -0.0963
 1006MOL0     C38718   2.947   1.924   3.965  0.3822  0.3593 -0.1087
 1006MOL0     C38719   3.021   2.050   3.762 -0.0809  0.3317  0.2817
 1006MOL0     C38720   3.132   1.956   3.735 -0.1113 -0.3040 -0.2441
 1006MOL0     O38721   3.138   1.915   3.593 -0.4019 -1.2344 -1.3368
 1006MOL0     C38722   3.265   1.897   3.543 -0.7749  0.3434  0.0143
 1006MOL0     C38723   3.327   2.008   3.496  0.8190 -0.7570  0.3448
 1006MOL0     C38724   3.458   2.012   3.451  0.3087 -0.0806  0.1059
 1006MOL0     C38725   3.532   1.894   3.437  0.4162  0.2365  0.0651
 1006MOL0     O38726   3.660   1.917   3.389 -0.2182 -0.1096 -0.1815
 1006MOL0     C38727   3.750   1.813   3.366  0.0850  0.6875  0.7573
 1006MOL0     C38728   3.900   1.863   3.366  0.6410  0.6717 -0.3616
 1006MOL0     C38729   3.948   1.916   3.505  0.4888  0.2173  0.0100
 1006MOL0     C38730   3.967   1.803   3.603 -0.1683  0.1860  0.2191
 1006MOL0     C38731   4.040   1.864   3.724 -0.4220  0.4271  0.2628
 1006MOL0     C38732   4.092   1.754   3.822 -0.2946  0.1752 -1.0358
 1006MOL0     C38733   4.171   1.825   3.940 -0.4707 -0.0218 -0.7933
 1006MOL0     C38734   4.225   1.719   4.035 -0.3459 -0.4033  0.9689
 1006MOL0    Cl38735   4.114   1.650   4.153 -0.1359 -0.2339  0.2250
 1006MOL0     C38736   3.473   1.778   3.481 -1.0221  0.4679  0.1948
 1006MOL0     C38737   3.344   1.776   3.529  1.2063  0.2365  0.4446
 1006MOL0     O38738   3.215   1.923   3.818  0.9141 -0.6110  0.0656
 1006MOL0     C38739   2.982   2.146   3.664  0.5400  1.1225 -0.7918
 1006MOL0     C38740   2.900   2.244   3.698  0.2257 -0.5005  0.4458
 1006MOL0     N38741   2.888   2.919   4.070  0.4133  0.2617  0.0852
 1006MOL0     N38742   2.872   3.033   4.009  0.0812 -0.3777 -0.1362
 1006MOL0     C38743   2.243   3.682   3.625 -0.2397  0.0036  0.6207
 1006MOL0     C38744   2.207   3.808   3.661  0.1502  0.8156 -0.9892
 1006MOL0     C38745   2.029   4.217   3.691  0.8160 -0.4877 -1.3697
 1006MOL0     C38746   1.931   4.216   3.792 -0.4941  0.2725  0.6905
 1006MOL0     C38747   1.879   4.330   3.846  0.1613  0.6590 -0.0762
 1006MOL0     C38748   1.922   4.457   3.815  0.2058  0.1324 -0.5612
 1006MOL0     O38749   1.887   4.568   3.887  1.0084 -0.4931  0.0514
 1006MOL0     C38750   1.787   4.546   3.993  0.6621  0.1293 -0.1024
 1006MOL0     C38751   1.763   4.669   4.075 -0.3596  0.2205  0.0417
 1006MOL0     C38752   1.657   4.657   4.180  0.3810 -0.2988 -0.0952
 1006MOL0     C38753   1.594   4.798   4.217 -0.8278 -0.4830 -0.1825
 1006MOL0     C38754   1.496   4.803   4.332  0.3616 -0.5898  0.4411
 1006MOL0     C38755   1.419   4.825   4.434 -0.3083  1.1107  0.2889
 1006MOL0     C38756   2.014   4.466   3.712 -0.3450 -0.0389  0.5073
 1006MOL0     C38757   2.064   4.345   3.644 -0.2366  0.7105  0.0819
 1006MOL0     C38758   2.181   4.366   3.555  0.5042  0.3497  0.2367
 1006MOL0     H38759   1.884   3.791   3.589  0.5126  0.4784  0.8627
 1006MOL0     H38760   1.952   3.566   3.518 -0.9402  0.2735  0.3465
 1006MOL0     H38761   2.070   3.333   3.519 -0.2003  0.6701 -0.0161
 1006MOL0     H38762   2.103   3.391   3.687 -0.4277  0.7317 -1.0532
 1006MOL0     H38763   2.252   3.183   3.512 -2.7087  1.2168 -1.0778
 1006MOL0     H38764   2.361   3.301   3.564 -0.4186  1.6834 -2.5919
 1006MOL0     H38765   2.291   3.271   3.799 -0.9987  0.4028  1.2981
 1006MOL0     H38766   2.172   3.143   3.743  0.6004 -1.1253  2.1640
 1006MOL0     H38767   2.359   3.046   3.840  0.7799  0.1021  1.3826
 1006MOL0     H38768   2.376   3.009   3.670  1.1643  0.7755 -0.1133
 1006MOL0     H38769   2.530   3.236   3.806 -1.1706  1.5453 -0.5343
 1006MOL0     H38770   2.542   3.195   3.635  3.8416 -0.8188  0.4785
 1006MOL0     H38771   2.625   3.019   3.877  1.2924  0.4769  0.3421
 1006MOL0     H38772   2.585   2.940   3.723  0.7980 -0.7275 -1.2923
 1006MOL0     H38773   2.753   3.101   3.592 -0.4479 -1.9976 -0.8323
 1006MOL0     H38774   2.795   2.953   3.673 -0.5704 -1.4757  1.0858
 1006MOL0     H38775   2.961   3.166   3.729  0.2294  0.4134  0.2190
 1006MOL0     H38776   2.836   3.221   3.837 -1.3675 -0.1828 -0.1274
 1006MOL0     H38777   3.058   2.894   3.786 -0.5927 -2.7610  2.2811
 1006MOL0     H38778   2.988   2.693   4.101  2.5713 -0.1692  1.8862
 1006MOL0     H38779   3.125   2.731   3.994 -0.4603 -0.8787 -1.1217
 1006MOL0     H38780   3.024   2.591   3.807 -1.2908 -1.3041 -0.7407
 1006MOL0     H38781   3.013   2.500   3.948  0.1156 -0.2410 -0.8007
 1006MOL0     H38782   2.771   2.612   3.981 -0.0538 -3.4602  1.1974
 1006MOL0     H38783   2.810   2.698   3.832  2.7522 -0.1857 -0.8330
 1006MOL0     H38784   2.662   2.510   3.779  0.2411  1.4365 -0.5412
 1006MOL0     H38785   2.814   2.486   3.702  0.0633  2.1682 -0.8107
 1006MOL0     H38786   2.825   2.152   4.014  1.6293 -0.9869  0.4135
 1006MOL0     H38787   2.856   1.909   4.023  0.9281 -1.8911  0.2723
 1006MOL0     H38788   3.032   1.933   4.033 -0.4249 -1.1985  1.1729
 1006MOL0     H38789   2.951   1.832   3.905  0.2992 -0.1030  0.5952
 1006MOL0     H38790   3.269   2.100   3.502  2.2635  0.1644  0.6167
 1006MOL0     H38791   3.513   2.105   3.437 -0.0994 -0.0351 -1.4089
 1006MOL0     H38792   3.746   1.729   3.436  5.1137  0.6712  1.4055
 1006MOL0     H38793   3.730   1.769   3.268 -2.1532  3.1810 -0.0262
 1006MOL0     H38794   3.958   1.776   3.336 -0.3682  0.4877 -1.8483
 1006MOL0     H38795   3.905   1.944   3.293 -3.0782  1.1252 -0.3305
 1006MOL0     H38796   3.864   1.974   3.544  0.4758 -0.3497  0.8576
 1006MOL0     H38797   4.039   1.977   3.507  0.0512  0.8801  2.1376
 1006MOL0     H38798   4.029   1.733   3.546 -0.2274 -1.6156  2.2545
 1006MOL0     H38799   3.872   1.754   3.628 -1.1509  0.3983 -2.6754
 1006MOL0     H38800   4.122   1.930   3.692 -2.5578  1.8977 -2.7079
 1006MOL0     H38801   3.971   1.927   3.781  0.8864  2.6524 -0.4619
 1006MOL0     H38802   4.164   1.694   3.766  1.4292  2.2958 -1.2422
 1006MOL0     H38803   4.002   1.709   3.865  0.2448  2.4096  2.9123
 1006MOL0     H38804   4.101   1.887   3.997  2.3605  2.4813  0.2205
 1006MOL0     H38805   4.250   1.895   3.913 -1.6336  2.0060  0.7504
 1006MOL0     H38806   4.306   1.765   4.092  0.5259 -0.7267  0.0260
 1006MOL0     H38807   4.278   1.640   3.981  2.9813  1.0876  1.8516
 1006MOL0     H38808   3.524   1.682   3.476 -3.0244 -0.6863  0.6140
 1006MOL0     H38809   3.301   1.678   3.546 -0.3024  0.7821 -0.0624
 1006MOL0     H38810   3.016   2.122   3.564 -1.8350 -2.4713 -0.9306
 1006MOL0     H38811   2.886   2.319   3.620 -3.2742 -1.9686 -0.5426
 1006MOL0     H38812   2.345   3.644   3.629 -1.0063 -2.6912 -1.5289
 1006MOL0     H38813   2.276   3.877   3.708  0.0838  0.3409 -0.1736
 1006MOL0     H38814   1.913   4.120   3.839  0.8070  0.0862  0.8258
 1006MOL0     H38815   1.809   4.315   3.928 -0.1166 -2.3468 -0.7282
 1006MOL0     H38816   1.690   4.514   3.952  0.0389 -4.4898  4.0062
 1006MOL0     H38817   1.818   4.478   4.073 -2.9059  0.7206  2.0390
 1006MOL0     H38818   1.726   4.752   4.014 -0.6454  1.4293  1.7869
 1006MOL0     H38819   1.852   4.716   4.118 -1.6173  4.4577 -1.4323
 1006MOL0     H38820   1.584   4.580   4.153  1.0263 -1.6783  1.8967
 1006MOL0     H38821   1.698   4.608   4.268 -0.6306 -0.7071  0.1686
 1006MOL0     H38822   1.536   4.833   4.131  1.1830 -0.1949 -1.5011
 1006MOL0     H38823   1.681   4.860   4.242 -1.2259 -0.3431  0.9409
 1006MOL0     H38824   1.350   4.845   4.513 -2.9867  0.9561 -1.8476
 1006MOL0     H38825   2.056   4.564   3.695  1.0228 -0.6524  0.2052
 1006MOL0     H38826   2.195   4.474   3.543  2.5909  0.1390  0.3347
 1006MOL0     H38827   2.273   4.328   3.600  1.6677  0.3815 -1.9486
 1006MOL0     H38828   2.160   4.317   3.459 -0.5400  0.5692  0.3393
 1007MOL0     O38829   8.163   7.522   3.109 -0.7473 -0.7981  0.2808
 1007MOL0     C38830   8.110   7.631   3.110 -0.6735 -0.9073  0.2795
 1007MOL0     O38831   7.981   7.644   3.106  0.5469 -0.1916 -0.0678
 1007MOL0     C38832   7.906   7.536   3.091 -0.4540  0.1073  0.2045
 1007MOL0     C38833   7.791   7.526   3.161  0.2874 -0.1736  0.2376
 1007MOL0     C38834   7.716   7.409   3.153 -0.2731  0.3132 -0.1482
 1007MOL0     C38835   7.756   7.295   3.088 -0.8819  0.2342 -0.1830
 1007MOL0     O38836   7.676   7.189   3.097  0.3267  0.1679 -0.8101
 1007MOL0     C38837   7.678   7.103   2.979 -0.2605 -0.6370  0.5236
 1007MOL0     C38838   7.596   6.981   3.017  0.0234  0.0919  0.0804
 1007MOL0     C38839   7.441   6.989   3.015 -0.0062 -0.3373 -0.4422
 1007MOL0     C38840   7.381   6.852   3.050  0.1334 -0.5338 -0.0692
 1007MOL0     C38841   7.231   6.853   3.086  1.1680 -0.3507  0.9892
 1007MOL0     C38842   7.166   6.719   3.064  0.1769  0.8730  0.1630
 1007MOL0     C38843   7.157   6.679   2.914  0.0083  0.1335 -0.4218
 1007MOL0     C38844   7.249   6.550   2.876  0.5575  0.2916  0.8603
 1007MOL0     N38845   7.161   6.425   2.886  0.5102 -0.6424 -0.9481
 1007MOL0     C38846   7.155   6.344   2.999  0.8924 -0.5635 -0.4768
 1007MOL0     C38847   7.040   6.267   2.975  0.1349  0.3368  0.0277
 1007MOL0     C38848   6.982   6.153   3.059  0.3973  0.2648 -0.0958
 1007MOL0     C38849   7.057   6.025   3.038  0.1530 -0.4159 -0.3705
 1007MOL0     C38850   7.059   5.973   2.886 -0.8988 -0.1225 -0.2082
 1007MOL0     C38851   7.118   5.821   2.884 -0.6734  0.0628  0.0496
 1007MOL0     O38852   7.038   5.726   2.959  0.1776  0.5638  0.3784
 1007MOL0     C38853   6.910   5.683   2.930 -0.3536  0.6994  0.4613
 1007MOL0     C38854   6.847   5.609   3.023 -0.0982 -0.4725  0.0159
 1007MOL0     C38855   6.718   5.549   3.005  0.2459  0.1372  0.4459
 1007MOL0     C38856   6.678   5.437   3.100 -0.6056 -0.0389 -0.8388
 1007MOL0     C38857   6.644   5.577   2.899 -0.1800 -0.2456 -0.1484
 1007MOL0     C38858   6.512   5.520   2.877 -0.8708  0.4891  0.3682
 1007MOL0     O38859   6.499   5.468   2.755 -0.4122  0.4361 -0.1599
 1007MOL0     C38860   6.385   5.389   2.738  0.4298 -0.3414 -0.3885
 1007MOL0     C38861   6.404   5.254   2.768  0.1250 -0.6000 -0.6822
 1007MOL0     C38862   6.286   5.178   2.761  0.1777  0.8993 -0.0483
 1007MOL0     C38863   6.159   5.232   2.728 -0.2289 -0.4393 -0.1342
 1007MOL0     O38864   6.038   5.167   2.743 -0.4077  0.1168 -0.0173
 1007MOL0     C38865   6.041   5.024   2.789  0.5035  0.4882  0.0567
 1007MOL0     C38866   5.935   4.939   2.720 -0.1272  0.6666  0.4393
 1007MOL0     C38867   5.785   4.993   2.740  0.1080  0.0897  0.1236
 1007MOL0     C38868   5.686   4.893   2.677  0.5197 -0.0890 -0.2828
 1007MOL0     C38869   5.557   4.963   2.620 -0.5854 -0.4102  0.4062
 1007MOL0     C38870   5.488   4.886   2.510 -0.4474  0.9051  0.4100
 1007MOL0     C38871   5.457   4.746   2.555  0.5104  0.9819  0.6885
 1007MOL0     C38872   5.340   4.685   2.475 -0.4977  0.0587 -0.0416
 1007MOL0    Cl38873   5.186   4.748   2.546 -0.1588 -0.0956 -0.6028
 1007MOL0     C38874   6.149   5.364   2.692 -0.2838 -0.6216 -0.1067
 1007MOL0     C38875   6.261   5.450   2.704  0.3649  0.3636  0.2194
 1007MOL0     O38876   6.429   5.510   2.964  0.5465  0.1693  0.1163
 1007MOL0     C38877   6.710   5.655   2.799  0.0251  0.0359  0.3369
 1007MOL0     C38878   6.833   5.714   2.822  0.3803 -0.1053  0.0221
 1007MOL0     N38879   6.997   6.294   2.845 -0.3364 -0.0468  1.0214
 1007MOL0     N38880   7.063   6.390   2.796 -0.3914 -0.1779  0.1825
 1007MOL0     C38881   7.867   7.319   3.000 -0.5145 -0.9065  0.0128
 1007MOL0     C38882   7.926   7.439   2.989  0.0204 -0.3225 -0.9370
 1007MOL0     C38883   8.200   7.755   3.116  0.2902 -0.2903  0.2852
 1007MOL0     C38884   8.336   7.733   3.083 -0.0367  0.0764  0.5844
 1007MOL0     C38885   8.435   7.830   3.072 -0.2289 -1.1565 -0.3523
 1007MOL0     C38886   8.399   7.960   3.098  0.4530 -0.9048  0.2066
 1007MOL0     O38887   8.475   8.073   3.081 -0.2799  0.1796 -0.1761
 1007MOL0     C38888   8.617   8.070   3.058 -0.4059 -0.2521 -0.2762
 1007MOL0     C38889   8.643   8.033   2.915 -0.2130  0.7464 -0.0893
 1007MOL0     C38890   8.783   7.973   2.891  0.4416  0.0970 -0.2794
 1007MOL0     C38891   8.799   7.926   2.742  0.5885  0.4999 -0.2502
 1007MOL0     C38892   8.790   8.034   2.641 -0.7961 -0.5535  0.1826
 1007MOL0     C38893   8.784   8.122   2.557  1.2232 -0.0254  0.8324
 1007MOL0     C38894   8.268   7.985   3.140  0.7999  0.1724 -0.1546
 1007MOL0     C38895   8.166   7.888   3.152 -0.1107  0.1649  0.4233
 1007MOL0     C38896   8.027   7.943   3.201 -0.2430  0.0785  0.2543
 1007MOL0     H38897   7.759   7.605   3.227 -0.5457  0.3439 -0.7661
 1007MOL0     H38898   7.620   7.399   3.203  0.3351 -1.5068  0.7193
 1007MOL0     H38899   7.777   7.064   2.954  0.7001  1.8983  0.1262
 1007MOL0     H38900   7.636   7.158   2.894  1.7096 -0.8826 -0.6695
 1007MOL0     H38901   7.622   6.896   2.954 -1.1683  1.2089 -2.0037
 1007MOL0     H38902   7.630   6.961   3.119 -1.2551  3.5005  1.3305
 1007MOL0     H38903   7.403   7.055   3.093 -0.5879  2.1620 -2.6963
 1007MOL0     H38904   7.411   7.018   2.914 -1.5742 -2.2183 -0.5935
 1007MOL0     H38905   7.395   6.791   2.960  2.6998  1.6885 -1.2900
 1007MOL0     H38906   7.424   6.806   3.140 -1.5629  0.3553  1.2452
 1007MOL0     H38907   7.191   6.927   3.016 -0.2660 -0.1243  2.0253
 1007MOL0     H38908   7.214   6.896   3.185 -1.4680 -1.8358  1.2743
 1007MOL0     H38909   7.217   6.637   3.115  0.4983  1.1987  0.3673
 1007MOL0     H38910   7.065   6.726   3.106 -0.3466  0.0931 -0.9199
 1007MOL0     H38911   7.193   6.766   2.858 -0.3820 -0.9203 -2.3712
 1007MOL0     H38912   7.054   6.657   2.885  1.2585 -2.3726 -3.5047
 1007MOL0     H38913   7.286   6.559   2.773 -0.2471 -1.1020  0.4293
 1007MOL0     H38914   7.338   6.544   2.938  1.2674 -3.3944 -0.2994
 1007MOL0     H38915   7.224   6.334   3.082 -0.4263 -1.0318  0.6047
 1007MOL0     H38916   6.877   6.145   3.032  0.4384  0.9960 -0.4909
 1007MOL0     H38917   6.985   6.184   3.164  0.5209 -1.2787  0.3895
 1007MOL0     H38918   7.161   6.031   3.073  0.0424  0.5959 -0.1883
 1007MOL0     H38919   6.990   5.953   3.086 -2.2347 -0.1588 -3.0874
 1007MOL0     H38920   6.960   5.978   2.841 -1.8089 -0.2121  1.6948
 1007MOL0     H38921   7.133   6.023   2.823  0.5477 -2.2299 -0.3036
 1007MOL0     H38922   7.144   5.792   2.782 -2.2237  1.7299 -0.8869
 1007MOL0     H38923   7.214   5.835   2.934 -1.5245 -0.7926  2.0023
 1007MOL0     H38924   6.898   5.594   3.117  2.8392 -1.1414 -1.5644
 1007MOL0     H38925   6.578   5.446   3.142 -0.6510  0.6322 -1.0673
 1007MOL0     H38926   6.742   5.448   3.188 -1.3954  0.8066 -0.3624
 1007MOL0     H38927   6.681   5.334   3.062  2.4151 -1.3870  2.4114
 1007MOL0     H38928   6.503   5.218   2.797 -0.2373 -0.7547  0.4296
 1007MOL0     H38929   6.304   5.080   2.804 -1.4683  0.5161 -0.1459
 1007MOL0     H38930   6.137   4.976   2.767 -1.5895 -2.2676 -4.5664
 1007MOL0     H38931   6.030   5.014   2.897  1.2935 -3.3593 -0.0813
 1007MOL0     H38932   5.964   4.942   2.615  0.0841 -4.3498  0.1003
 1007MOL0     H38933   5.945   4.834   2.751  1.3342  1.0156  1.2729
 1007MOL0     H38934   5.767   5.089   2.692  1.7043 -0.0811 -0.8749
 1007MOL0     H38935   5.769   4.997   2.848 -2.7228 -1.2949 -0.1542
 1007MOL0     H38936   5.660   4.818   2.752  0.2152  2.1413  1.9796
 1007MOL0     H38937   5.736   4.833   2.601 -0.2749 -3.5019  1.6870
 1007MOL0     H38938   5.492   4.979   2.707  0.0994  1.1514  0.6727
 1007MOL0     H38939   5.586   5.060   2.578  2.3086 -2.6030 -3.3356
 1007MOL0     H38940   5.545   4.880   2.417  1.7969  1.3182  1.6697
 1007MOL0     H38941   5.392   4.937   2.501 -1.2492 -0.5142  0.6204
 1007MOL0     H38942   5.418   4.751   2.657 -0.5218 -0.2827  0.3912
 1007MOL0     H38943   5.543   4.679   2.556 -0.8965 -0.9361  0.0117
 1007MOL0     H38944   5.337   4.576   2.491  0.5128 -0.0862 -0.7224
 1007MOL0     H38945   5.355   4.706   2.368 -3.1849 -0.5892 -0.6223
 1007MOL0     H38946   6.055   5.414   2.670  0.2233 -0.3788 -1.8811
 1007MOL0     H38947   6.251   5.556   2.680  0.8582  0.0873 -1.3154
 1007MOL0     H38948   6.651   5.673   2.710  1.3114 -1.5487 -0.8934
 1007MOL0     H38949   6.868   5.789   2.752 -0.8664  1.5451  1.0784
 1007MOL0     H38950   7.891   7.238   2.932  0.4948 -0.9038  0.3551
 1007MOL0     H38951   8.008   7.452   2.919 -1.0061 -2.0736 -2.5489
 1007MOL0     H38952   8.374   7.633   3.068 -0.1134 -0.2367  2.2440
 1007MOL0     H38953   8.542   7.818   3.061 -0.3997 -1.6299 -1.7868
 1007MOL0     H38954   8.659   8.169   3.078 -1.2376  0.1724 -0.5983
 1007MOL0     H38955   8.664   7.992   3.119  0.0792 -0.3808 -0.8144
 1007MOL0     H38956   8.620   8.125   2.861 -4.9485  0.9330  1.7137
 1007MOL0     H38957   8.574   7.962   2.868 -2.1606  2.5669 -0.1336
 1007MOL0     H38958   8.865   8.041   2.917  1.3579 -1.6985  1.7913
 1007MOL0     H38959   8.806   7.877   2.938 -0.5723 -0.6356 -1.2154
 1007MOL0     H38960   8.729   7.844   2.725  0.1496  0.4171  1.6570
 1007MOL0     H38961   8.900   7.882   2.736  0.4579 -0.0713  1.2254
 1007MOL0     H38962   8.773   8.183   2.470  0.0391  0.9390  1.6221
 1007MOL0     H38963   8.249   8.087   3.171  1.0101  0.2420 -0.2528
 1007MOL0     H38964   8.001   8.037   3.151 -2.2010  0.9547  2.6838
 1007MOL0     H38965   7.957   7.872   3.156 -3.5732  2.8072  0.6893
 1007MOL0     H38966   8.023   7.949   3.310  2.1270  3.3327  0.2899
 1008MOL0     O38967   2.895   9.239   4.587  0.4915 -0.5378 -0.0970
 1008MOL0     C38968   2.778   9.213   4.618 -0.0636 -0.7180 -0.5651
 1008MOL0     O38969   2.708   9.266   4.726  0.6291  0.0772  0.2892
 1008MOL0     C38970   2.770   9.356   4.813 -0.4716 -0.8037  0.0909
 1008MOL0     C38971   2.896   9.401   4.813  0.4593 -0.7638 -0.4537
 1008MOL0     C38972   2.943   9.493   4.912 -0.7921 -0.1805  0.2521
 1008MOL0     C38973   2.854   9.544   4.999 -0.1492 -0.2079  0.1647
 1008MOL0     O38974   2.911   9.631   5.090  0.0588 -0.0003  0.1719
 1008MOL0     C38975   2.839   9.677   5.206 -0.9334  0.5263 -0.0259
 1008MOL0     C38976   2.886   9.823   5.214  0.5199  0.0615 -0.6117
 1008MOL0     C38977   2.815   9.876   5.337  0.1297  1.9758  0.1341
 1008MOL0     C38978   2.871   9.998   5.375  0.2328  0.4450 -1.1043
 1008MOL0     C38979   2.806  10.046   5.506 -0.7866  0.4065 -0.3841
 1008MOL0     C38980   2.892  10.139   5.596 -0.2299 -0.0830 -0.4902
 1008MOL0     C38981   2.973  10.249   5.523  0.4381 -0.3530 -0.3901
 1008MOL0     C38982   3.002  10.358   5.616  1.0193  1.5174  0.3676
 1008MOL0     N38983   3.065  10.467   5.534 -0.2507  0.2524 -0.5254
 1008MOL0     C38984   3.196  10.496   5.555  0.0568 -0.2741  0.3196
 1008MOL0     C38985   3.218  10.590   5.455 -0.1888  0.9884 -0.7685
 1008MOL0     C38986   3.348  10.668   5.444 -0.3335 -0.1024  1.4729
 1008MOL0     C38987   3.442  10.614   5.334  0.0060 -0.5591 -0.8320
 1008MOL0     C38988   3.381  10.640   5.199  0.2333  0.5327  0.1960
 1008MOL0     C38989   3.463  10.599   5.078 -0.2856  0.0253  0.2377
 1008MOL0     O38990   3.499  10.455   5.084  0.5283 -0.6576 -0.5226
 1008MOL0     C38991   3.493  10.369   4.980  0.0831 -0.5300 -0.0203
 1008MOL0     C38992   3.403  10.389   4.877  0.7237  1.2614 -0.2266
 1008MOL0     C38993   3.400  10.304   4.770 -1.2121 -0.0491  0.3241
 1008MOL0     C38994   3.311  10.339   4.660  0.4844  0.3435  0.7824
 1008MOL0     C38995   3.479  10.186   4.767 -0.2129  0.6303 -0.3524
 1008MOL0     C38996   3.460  10.074   4.668  0.4039  0.1230  0.9751
 1008MOL0     O38997   3.559   9.973   4.668  0.0373 -0.5612  0.0270
 1008MOL0     C38998   3.569   9.895   4.553 -0.2357 -0.5288 -0.0438
 1008MOL0     C38999   3.573   9.754   4.581 -0.2527  0.6937  0.0312
 1008MOL0     C39000   3.586   9.662   4.470  0.3798 -0.1268  0.4458
 1008MOL0     C39001   3.609   9.714   4.340  0.1114 -0.3169  0.3616
 1008MOL0     O39002   3.640   9.629   4.230  0.4285 -0.1585  0.2418
 1008MOL0     C39003   3.534   9.556   4.171  0.4674 -0.2629 -0.1643
 1008MOL0     C39004   3.566   9.438   4.082 -0.3178 -0.0990 -0.7378
 1008MOL0     C39005   3.685   9.359   4.135 -0.3956  1.0945 -0.7067
 1008MOL0     C39006   3.716   9.235   4.051  0.1048  0.2681 -0.0888
 1008MOL0     C39007   3.813   9.137   4.116 -0.2646  0.2490 -0.5726
 1008MOL0     C39008   3.809   8.997   4.044  0.0143  0.5001 -0.1496
 1008MOL0     C39009   3.914   8.904   4.090 -0.5921  0.1887 -0.4346
 1008MOL0     C39010   3.924   8.789   3.986  0.0022 -0.1183 -0.1194
 1008MOL0    Cl39011   4.058   8.676   4.026  0.3920  0.2335  0.2766
 1008MOL0     C39012   3.612   9.856   4.318  0.2425 -0.2218  0.3186
 1008MOL0     C39013   3.589   9.945   4.423 -0.9580  0.1763  0.0594
 1008MOL0     O39014   3.361  10.079   4.592  0.0156  0.0354  0.0175
 1008MOL0     C39015   3.567  10.169   4.875 -0.1522  0.3399  0.5565
 1008MOL0     C39016   3.579  10.265   4.980  0.0856 -0.5582  0.0099
 1008MOL0     N39017   3.098  10.616   5.395  0.1291 -0.5614 -0.9717
 1008MOL0     N39018   3.008  10.541   5.441 -0.5473  0.7683  0.3133
 1008MOL0     C39019   2.721   9.501   5.010 -0.1547 -0.3009  0.5965
 1008MOL0     C39020   2.683   9.408   4.912  0.4871 -0.0313 -0.0812
 1008MOL0     C39021   2.704   9.144   4.512 -0.3352  0.7497  0.4007
 1008MOL0     C39022   2.567   9.104   4.543 -0.6612  0.0683 -0.1829
 1008MOL0     C39023   2.487   9.038   4.445  0.1697 -0.0673 -0.3801
 1008MOL0     C39024   2.521   9.016   4.312 -1.4144 -0.3564  0.1470
 1008MOL0     O39025   2.430   8.971   4.219  0.0957  0.8355  1.2584
 1008MOL0     C39026   2.442   9.018   4.081 -0.4057  0.0558  0.9614
 1008MOL0     C39027   2.296   9.074   4.056  0.2458  0.0951 -0.3686
 1008MOL0     C39028   2.293   9.153   3.934 -0.0208 -0.5757  0.2966
 1008MOL0     C39029   2.350   9.077   3.811  0.0149  0.3000  0.4920
 1008MOL0     C39030   2.280   9.137   3.694 -0.8436 -0.1996  0.7458
 1008MOL0     C39031   2.222   9.165   3.586  0.3268  0.2763  0.2850
 1008MOL0     C39032   2.656   9.056   4.280 -1.1625  0.4806 -0.7987
 1008MOL0     C39033   2.746   9.115   4.375 -0.2645  0.4409 -0.2448
 1008MOL0     C39034   2.887   9.149   4.321  0.3302 -0.1265 -0.3909
 1008MOL0     H39035   2.963   9.374   4.733  2.6219  1.0557  0.6447
 1008MOL0     H39036   3.042   9.536   4.905 -1.1125  0.3374 -2.2071
 1008MOL0     H39037   2.887   9.620   5.286  1.6369  0.3385 -1.6029
 1008MOL0     H39038   2.729   9.676   5.210 -0.9845 -1.6561 -0.4458
 1008MOL0     H39039   2.994   9.832   5.230  0.2277 -0.4418  2.3161
 1008MOL0     H39040   2.856   9.882   5.128 -0.0521  3.5397  1.7435
 1008MOL0     H39041   2.708   9.887   5.318  0.1493  0.7522 -0.7858
 1008MOL0     H39042   2.834   9.795   5.408  3.2264  0.6169 -1.9971
 1008MOL0     H39043   2.972   9.976   5.411 -0.7464 -2.0665  0.3476
 1008MOL0     H39044   2.860  10.080   5.304 -0.5678  0.2773 -1.1805
 1008MOL0     H39045   2.773   9.961   5.567  1.4149 -0.6025 -0.5151
 1008MOL0     H39046   2.719  10.111   5.490  0.3090  2.4938  1.4475
 1008MOL0     H39047   2.825  10.185   5.670 -1.9757 -3.4660  0.2576
 1008MOL0     H39048   2.966  10.079   5.650 -2.5351 -2.1424  0.6148
 1008MOL0     H39049   2.908  10.284   5.443 -0.4535  1.0667  0.9099
 1008MOL0     H39050   3.056  10.204   5.469  0.0625 -1.2119 -0.2791
 1008MOL0     H39051   2.905  10.391   5.654  1.5028  3.0713  0.3144
 1008MOL0     H39052   3.065  10.318   5.696 -0.1659 -0.3299  0.4284
 1008MOL0     H39053   3.253  10.466   5.642  1.1198  2.8848  0.8432
 1008MOL0     H39054   3.407  10.675   5.536 -0.4363  1.1924  1.4467
 1008MOL0     H39055   3.322  10.773   5.431 -0.3663 -0.0630  1.8514
 1008MOL0     H39056   3.534  10.673   5.339 -1.1721  1.6494 -3.1018
 1008MOL0     H39057   3.459  10.509   5.360 -1.4776 -0.4613  0.6917
 1008MOL0     H39058   3.290  10.580   5.192 -0.5852  1.6666  0.7290
 1008MOL0     H39059   3.368  10.748   5.190 -1.0210  0.3323 -0.6704
 1008MOL0     H39060   3.403  10.627   4.991  1.1095 -3.1689 -1.9656
 1008MOL0     H39061   3.561  10.648   5.086 -1.8307  3.1235  2.2816
 1008MOL0     H39062   3.326  10.464   4.875 -0.9690 -0.3975 -0.2480
 1008MOL0     H39063   3.291  10.447   4.663 -0.1681  0.3114 -1.1459
 1008MOL0     H39064   3.219  10.280   4.666 -0.2724  1.2534 -1.0825
 1008MOL0     H39065   3.349  10.329   4.558 -0.3268 -1.4745  0.6276
 1008MOL0     H39066   3.560   9.738   4.688  2.5333  1.0282  0.4796
 1008MOL0     H39067   3.592   9.558   4.500  2.1411  0.8249  4.0039
 1008MOL0     H39068   3.456   9.517   4.238 -1.6963  0.0301 -2.3939
 1008MOL0     H39069   3.479   9.630   4.113  0.6431 -1.2809 -1.7004
 1008MOL0     H39070   3.477   9.375   4.068  0.0394 -0.5653 -0.9498
 1008MOL0     H39071   3.591   9.474   3.982  0.5267 -1.0272 -0.8765
 1008MOL0     H39072   3.662   9.320   4.235  0.8895  3.6834  0.7052
 1008MOL0     H39073   3.778   9.416   4.134  0.3753 -0.0163  1.4353
 1008MOL0     H39074   3.749   9.256   3.949  0.7291  2.0021  0.4418
 1008MOL0     H39075   3.620   9.184   4.035  0.7918 -1.5389  1.1608
 1008MOL0     H39076   3.915   9.176   4.108  0.0590 -0.5904 -0.6099
 1008MOL0     H39077   3.788   9.131   4.223 -1.1615 -0.9959 -0.8328
 1008MOL0     H39078   3.815   9.016   3.936 -0.4759 -1.2323 -0.5094
 1008MOL0     H39079   3.711   8.950   4.056  0.1553  0.7060  2.4513
 1008MOL0     H39080   3.893   8.860   4.188 -1.2835 -3.4030 -2.0482
 1008MOL0     H39081   4.009   8.960   4.096 -0.5136 -0.0728  1.4536
 1008MOL0     H39082   3.933   8.826   3.883  2.7604  2.4704  0.9171
 1008MOL0     H39083   3.832   8.730   3.991  0.0941 -0.3718 -1.1100
 1008MOL0     H39084   3.633   9.893   4.218 -0.4102  1.5144  0.7777
 1008MOL0     H39085   3.598  10.052   4.410 -2.0192 -0.0504 -3.8066
 1008MOL0     H39086   3.631  10.082   4.869  1.9373  1.8161  0.5253
 1008MOL0     H39087   3.646  10.256   5.065  1.1822 -0.2435 -0.8008
 1008MOL0     H39088   2.653   9.556   5.074  1.4605  1.6562  0.7619
 1008MOL0     H39089   2.578   9.379   4.915  1.1225 -2.5243  1.0234
 1008MOL0     H39090   2.530   9.127   4.642 -0.9645  2.8761 -0.8569
 1008MOL0     H39091   2.390   8.993   4.466 -0.0624 -0.1826 -1.6357
 1008MOL0     H39092   2.503   9.101   4.045  0.6665 -2.3320 -3.6777
 1008MOL0     H39093   2.475   8.932   4.021 -1.3998  0.2524  0.0929
 1008MOL0     H39094   2.259   9.143   4.132 -1.8226  0.7943 -1.9348
 1008MOL0     H39095   2.216   9.001   4.053 -1.5379  1.9594 -3.4497
 1008MOL0     H39096   2.194   9.195   3.914 -0.0694  0.6439  2.7479
 1008MOL0     H39097   2.357   9.242   3.945  2.1831 -2.1041  0.5485
 1008MOL0     H39098   2.330   8.969   3.816 -0.5644  0.3821 -0.0213
 1008MOL0     H39099   2.457   9.098   3.805 -0.4334  2.4806 -0.7461
 1008MOL0     H39100   2.157   9.181   3.503  1.2848 -1.3555 -0.8480
 1008MOL0     H39101   2.694   9.032   4.181 -1.4716 -2.0434 -0.3618
 1008MOL0     H39102   2.876   9.143   4.213 -2.7310  2.3641 -0.3623
 1008MOL0     H39103   2.919   9.252   4.339  1.3773 -0.1175 -2.1018
 1008MOL0     H39104   2.944   9.066   4.364 -0.5441 -2.1580 -2.9323
 1009MOL0     O39105   4.559   3.592   2.046 -0.0491 -0.3116 -0.0176
 1009MOL0     C39106   4.478   3.516   1.999 -0.5148  0.7812  0.7986
 1009MOL0     O39107   4.452   3.385   2.037 -0.5225 -0.5087 -0.1367
 1009MOL0     C39108   4.510   3.329   2.153  0.8145  0.0069  0.1169
 1009MOL0     C39109   4.650   3.331   2.169  0.7122  0.0726  0.3642
 1009MOL0     C39110   4.710   3.288   2.287 -0.2069  0.7872  1.1740
 1009MOL0     C39111   4.636   3.231   2.388  0.1823 -0.0049  0.2893
 1009MOL0     O39112   4.705   3.210   2.500 -0.1693 -0.1505 -0.8576
 1009MOL0     C39113   4.631   3.141   2.610  0.0335  0.5525 -0.3201
 1009MOL0     C39114   4.726   3.124   2.733 -1.0368  0.2901  0.0869
 1009MOL0     C39115   4.651   3.113   2.861 -0.5221 -0.0554  0.4331
 1009MOL0     C39116   4.564   2.986   2.882 -0.1101 -0.3854 -0.2354
 1009MOL0     C39117   4.487   2.983   3.020 -0.7702 -1.5807  0.1779
 1009MOL0     C39118   4.431   2.845   3.041 -0.0752  0.0017  0.2639
 1009MOL0     C39119   4.318   2.841   3.153 -0.8729 -0.1622  0.3078
 1009MOL0     C39120   4.240   2.706   3.147  0.9304  0.3585  0.3322
 1009MOL0     N39121   4.192   2.673   3.016 -0.7882 -0.2689 -0.6290
 1009MOL0     C39122   4.229   2.556   2.955 -0.0935 -0.2256 -0.5075
 1009MOL0     C39123   4.146   2.562   2.840 -0.4422  0.7727 -0.2077
 1009MOL0     C39124   4.116   2.450   2.742  0.0795  0.3707 -0.1095
 1009MOL0     C39125   4.206   2.480   2.616  0.5879 -0.0866 -0.4075
 1009MOL0     C39126   4.150   2.407   2.487 -0.0260 -0.0329  0.1345
 1009MOL0     C39127   4.121   2.255   2.508  0.0683 -0.1557  0.2347
 1009MOL0     O39128   4.247   2.183   2.513 -0.0290  0.4069  0.7629
 1009MOL0     C39129   4.311   2.143   2.399 -0.2207  0.6272  0.4780
 1009MOL0     C39130   4.276   2.167   2.262 -0.1383  0.2077  0.1182
 1009MOL0     C39131   4.355   2.128   2.155  0.4277 -0.3542  0.6266
 1009MOL0     C39132   4.310   2.188   2.022  0.4360  0.1118  0.7653
 1009MOL0     C39133   4.469   2.053   2.175  0.0548 -0.3143 -0.9467
 1009MOL0     C39134   4.572   2.018   2.069  0.3767  0.1174 -0.8889
 1009MOL0     O39135   4.655   1.905   2.095 -0.2345 -0.2736 -0.4663
 1009MOL0     C39136   4.722   1.837   1.997  0.2677  0.1506  0.4514
 1009MOL0     C39137   4.657   1.802   1.879  0.4185  0.2963  0.1361
 1009MOL0     C39138   4.732   1.735   1.778  0.3388  0.2538 -0.5440
 1009MOL0     C39139   4.855   1.689   1.805 -0.4397  0.0772  0.4532
 1009MOL0     O39140   4.927   1.625   1.710 -0.3194  0.0757  0.1563
 1009MOL0     C39141   4.867   1.555   1.600 -0.0652 -0.8421 -0.2266
 1009MOL0     C39142   4.972   1.470   1.534 -0.9852  0.1828 -0.3138
 1009MOL0     C39143   5.010   1.348   1.611  0.4690  0.5532  0.2466
 1009MOL0     C39144   5.141   1.282   1.560 -0.3449  0.2969  0.7849
 1009MOL0     C39145   5.166   1.139   1.615  0.6655 -0.6276 -0.4921
 1009MOL0     C39146   5.272   1.064   1.539 -0.5569 -0.1331  1.1521
 1009MOL0     C39147   5.419   1.110   1.551  0.4448 -0.4608  1.0703
 1009MOL0     C39148   5.510   1.040   1.457 -0.2237  0.3121 -0.0204
 1009MOL0    Cl39149   5.675   1.116   1.454 -0.1234 -0.3798  1.0680
 1009MOL0     C39150   4.921   1.726   1.920 -0.0470 -1.5163  0.4383
 1009MOL0     C39151   4.849   1.798   2.021  0.1062 -0.1151 -0.4084
 1009MOL0     O39152   4.585   2.094   1.972  0.6128  0.8424 -0.0412
 1009MOL0     C39153   4.496   2.021   2.310  0.0504 -0.1889 -0.0849
 1009MOL0     C39154   4.420   2.070   2.419  0.5229  1.2467  0.6509
 1009MOL0     N39155   4.085   2.684   2.835 -0.0261 -0.5879  0.3094
 1009MOL0     N39156   4.115   2.758   2.942  0.3053  0.6535  0.3082
 1009MOL0     C39157   4.488   3.227   2.377 -1.0275 -0.9663 -0.1262
 1009MOL0     C39158   4.430   3.278   2.261  0.6198 -0.5556 -0.7576
 1009MOL0     C39159   4.386   3.557   1.890  0.1848  0.2507  0.5828
 1009MOL0     C39160   4.353   3.457   1.800  0.6117 -0.2336  0.3301
 1009MOL0     C39161   4.296   3.488   1.680 -0.5653  0.2494  0.6227
 1009MOL0     C39162   4.259   3.615   1.640  0.0945 -0.5399 -0.2678
 1009MOL0     O39163   4.208   3.626   1.514 -0.1442 -0.0567  0.3361
 1009MOL0     C39164   4.197   3.765   1.462  0.8546  1.1111  0.4860
 1009MOL0     C39165   4.167   3.754   1.318  0.4970 -0.0144 -0.3594
 1009MOL0     C39166   4.259   3.695   1.212 -0.5752  0.0853 -0.3505
 1009MOL0     C39167   4.411   3.727   1.248  0.9241 -0.3163 -0.1394
 1009MOL0     C39168   4.452   3.870   1.234  0.1076  0.7432  0.6796
 1009MOL0     C39169   4.478   3.985   1.211  0.0814 -0.1560  0.4146
 1009MOL0     C39170   4.276   3.714   1.733  0.0664 -1.1075 -1.4700
 1009MOL0     C39171   4.349   3.688   1.853 -0.3794  0.4709 -0.4923
 1009MOL0     C39172   4.364   3.803   1.958 -0.0220 -0.2537 -0.8116
 1009MOL0     H39173   4.721   3.370   2.097  0.2630  2.7179  1.2590
 1009MOL0     H39174   4.817   3.304   2.295 -0.1715  0.2915  1.7952
 1009MOL0     H39175   4.605   3.043   2.569 -0.7895  0.8501 -0.5481
 1009MOL0     H39176   4.544   3.188   2.657  1.6930 -1.5147  5.6914
 1009MOL0     H39177   4.788   3.035   2.729 -0.8731  0.2318  2.4739
 1009MOL0     H39178   4.793   3.211   2.736 -0.3384 -0.2740  2.0481
 1009MOL0     H39179   4.729   3.122   2.937  0.7473 -0.5922 -0.7641
 1009MOL0     H39180   4.598   3.205   2.890  3.3965  2.0065  1.8060
 1009MOL0     H39181   4.483   2.985   2.808 -0.3599  1.0924 -0.0190
 1009MOL0     H39182   4.628   2.898   2.872  0.0591 -0.2468 -0.3699
 1009MOL0     H39183   4.407   3.057   3.009  1.0378  0.1478 -3.5288
 1009MOL0     H39184   4.556   3.001   3.103 -0.1019 -1.9821 -0.2732
 1009MOL0     H39185   4.388   2.814   2.946  0.2368  3.9903 -1.3996
 1009MOL0     H39186   4.509   2.777   3.077  0.9055  1.0666  0.2054
 1009MOL0     H39187   4.251   2.926   3.143 -0.4040  0.1314 -0.3657
 1009MOL0     H39188   4.351   2.855   3.257 -4.2231 -1.0143  1.6410
 1009MOL0     H39189   4.312   2.631   3.180 -0.2832 -0.8646  0.3159
 1009MOL0     H39190   4.155   2.707   3.216  1.7610  1.9431  1.3801
 1009MOL0     H39191   4.284   2.471   2.994 -0.1054  0.5312  1.3023
 1009MOL0     H39192   4.011   2.462   2.714  0.2805 -1.6330 -2.0119
 1009MOL0     H39193   4.125   2.349   2.783  0.3915  1.1116  1.7698
 1009MOL0     H39194   4.212   2.588   2.605 -0.7171 -0.1497 -2.1009
 1009MOL0     H39195   4.304   2.432   2.626  1.4527  1.4393 -1.1998
 1009MOL0     H39196   4.059   2.464   2.466  0.3315  0.3173 -0.4943
 1009MOL0     H39197   4.227   2.434   2.413  2.1798 -0.7605  2.0409
 1009MOL0     H39198   4.053   2.243   2.593 -2.7668  0.9039 -1.7289
 1009MOL0     H39199   4.058   2.228   2.423 -0.2819  2.0042 -0.2422
 1009MOL0     H39200   4.191   2.231   2.244 -2.7668 -2.1375  3.1913
 1009MOL0     H39201   4.317   2.115   1.941 -3.3068 -1.6731  1.8290
 1009MOL0     H39202   4.386   2.265   2.000  2.0250 -1.5197  0.2844
 1009MOL0     H39203   4.209   2.228   2.028  0.9306  1.8730 -1.3802
 1009MOL0     H39204   4.553   1.823   1.854 -0.0901 -1.8292  0.3314
 1009MOL0     H39205   4.693   1.729   1.677 -0.4952  2.4585 -0.4101
 1009MOL0     H39206   4.780   1.505   1.644  1.4450 -2.3749  1.2284
 1009MOL0     H39207   4.848   1.627   1.520 -0.3490  1.3823  1.7358
 1009MOL0     H39208   4.931   1.437   1.438 -3.6248  1.5281  0.2647
 1009MOL0     H39209   5.055   1.538   1.514 -0.8516 -0.4442 -2.0284
 1009MOL0     H39210   4.929   1.275   1.610  0.8824  0.0125  2.1378
 1009MOL0     H39211   5.025   1.381   1.714  0.8934 -0.2506  0.4531
 1009MOL0     H39212   5.220   1.358   1.558 -1.1535  1.1755  1.2909
 1009MOL0     H39213   5.121   1.265   1.454  0.7554  0.6282  0.5094
 1009MOL0     H39214   5.181   1.137   1.723  0.4533 -3.2371 -0.4473
 1009MOL0     H39215   5.074   1.079   1.616 -0.5730  1.1917  0.2308
 1009MOL0     H39216   5.256   1.068   1.431  4.0265 -0.2853  0.2746
 1009MOL0     H39217   5.264   0.958   1.565  0.9779 -0.3669  0.7749
 1009MOL0     H39218   5.465   1.113   1.650  1.5230  2.5252  0.5747
 1009MOL0     H39219   5.420   1.217   1.527  0.5815 -0.2593  1.9383
 1009MOL0     H39220   5.462   1.047   1.359  0.8095  0.3491 -0.5325
 1009MOL0     H39221   5.519   0.933   1.478 -1.0985 -0.5163 -3.3159
 1009MOL0     H39222   5.027   1.707   1.932  0.3406 -0.3555 -0.8898
 1009MOL0     H39223   4.893   1.819   2.118 -0.4816 -0.6263 -0.0296
 1009MOL0     H39224   4.580   1.958   2.336  0.3021  0.0345 -0.3454
 1009MOL0     H39225   4.438   2.042   2.523 -2.1351  3.4274  1.8394
 1009MOL0     H39226   4.419   3.208   2.458  0.2798  0.4387  1.3866
 1009MOL0     H39227   4.321   3.280   2.254  0.4923 -1.3010  0.7265
 1009MOL0     H39228   4.385   3.354   1.810  0.3749 -0.3629 -0.2044
 1009MOL0     H39229   4.276   3.407   1.612 -1.5234  0.0598  1.1220
 1009MOL0     H39230   4.112   3.809   1.515 -1.3008  0.0232 -1.8790
 1009MOL0     H39231   4.292   3.819   1.468  2.3842 -1.5573  2.8902
 1009MOL0     H39232   4.154   3.857   1.283  1.0180  0.3203  0.3993
 1009MOL0     H39233   4.067   3.711   1.312 -0.5480  2.1309  0.4593
 1009MOL0     H39234   4.256   3.586   1.226 -0.5634  0.0452 -0.6545
 1009MOL0     H39235   4.239   3.728   1.110  1.0897  0.7537 -0.4978
 1009MOL0     H39236   4.474   3.666   1.183  0.9137 -0.8765  0.3660
 1009MOL0     H39237   4.436   3.692   1.349  0.1977 -1.0130 -0.1860
 1009MOL0     H39238   4.514   4.084   1.193 -1.8388  0.4031 -0.6382
 1009MOL0     H39239   4.231   3.812   1.716 -1.5555 -1.4722  0.3195
 1009MOL0     H39240   4.376   3.773   2.062 -0.6833  0.7911 -0.4121
 1009MOL0     H39241   4.455   3.858   1.931 -2.8458  6.1603  0.9129
 1009MOL0     H39242   4.285   3.877   1.945 -0.6918 -0.4393  1.7196
 1010MOL0     O39243   2.749  10.930  10.432  0.2650  0.0316 -0.0166
 1010MOL0     C39244   2.696  10.854  10.513  0.3692 -0.0244 -0.0205
 1010MOL0     O39245   2.716  10.722  10.518  0.1767 -0.5116 -0.5801
 1010MOL0     C39246   2.812  10.645  10.463 -0.4369 -0.5573 -0.9373
 1010MOL0     C39247   2.781  10.509  10.449  0.6460 -0.7419 -0.0595
 1010MOL0     C39248   2.884  10.420  10.401  0.2357 -0.1486  0.7364
 1010MOL0     C39249   3.018  10.459  10.368  0.2808  0.0785 -0.7269
 1010MOL0     O39250   3.114  10.383  10.317 -0.1477 -0.2721 -0.4587
 1010MOL0     C39251   3.089  10.315  10.195 -0.5727  0.3071  0.4965
 1010MOL0     C39252   3.207  10.220  10.150 -0.1941 -0.2527 -0.4633
 1010MOL0     C39253   3.338  10.293  10.113 -0.3179 -0.1709 -0.6914
 1010MOL0     C39254   3.416  10.258   9.987  0.6265  0.1010  0.7211
 1010MOL0     C39255   3.560  10.309   9.969 -0.2231  0.6857  0.2345
 1010MOL0     C39256   3.664  10.241  10.058  0.6121  0.6993  0.0910
 1010MOL0     C39257   3.803  10.259   9.999 -0.2734 -0.4782 -0.5693
 1010MOL0     C39258   3.861  10.397  10.052 -0.6442 -0.3077 -0.3871
 1010MOL0     N39259   3.989  10.437   9.989 -1.1362 -0.0885  0.3599
 1010MOL0     C39260   4.104  10.359   9.984 -0.5658 -0.4001 -1.5767
 1010MOL0     C39261   4.199  10.440   9.921  0.7231 -0.3481  0.9609
 1010MOL0     C39262   4.341  10.399   9.906  0.2628  0.2087  0.8719
 1010MOL0     C39263   4.438  10.441  10.012 -0.8506 -0.7474 -0.6305
 1010MOL0     C39264   4.436  10.588  10.037  0.1521 -0.1680  0.4481
 1010MOL0     C39265   4.521  10.640  10.159  0.6745  0.5980  0.4392
 1010MOL0     O39266   4.515  10.546  10.268  0.0125  0.5211 -0.0564
 1010MOL0     C39267   4.587  10.572  10.372 -0.7877  0.3936 -0.9832
 1010MOL0     C39268   4.693  10.482  10.410  0.1662 -0.2052  0.5460
 1010MOL0     C39269   4.772  10.510  10.520 -0.1043 -0.4112 -0.3405
 1010MOL0     C39270   4.877  10.424  10.557  0.4815  0.9645  0.4618
 1010MOL0     C39271   4.762  10.640  10.578  0.6705  0.0264 -0.0910
 1010MOL0     C39272   4.850  10.685  10.690 -0.5725  0.2434 -0.1013
 1010MOL0     O39273   4.809  10.795  10.764  0.3892  0.1721 -0.7081
 1010MOL0     C39274   4.888  10.837  10.860  1.1544 -0.8510  0.0837
 1010MOL0     C39275   4.895  10.772  10.981 -0.4902  0.2421 -0.9119
 1010MOL0     C39276   4.977  10.825  11.083 -0.5276 -0.1909  0.2289
 1010MOL0     C39277   5.021  10.948  11.074 -0.5593 -0.4615  0.9706
 1010MOL0     O39278   5.102  11.008  11.168  0.7001  0.3396 -0.3878
 1010MOL0     C39279   5.241  10.971  11.136  0.0932  0.3014  0.6714
 1010MOL0     C39280   5.322  11.025  11.258  0.0719  0.1351 -0.4811
 1010MOL0     C39281   5.472  11.046  11.237  0.0118 -0.3685 -0.2433
 1010MOL0     C39282   5.542  11.036  11.374 -0.6025  0.9264  0.4959
 1010MOL0     C39283   5.691  11.083  11.370  0.6360  0.0773  0.7950
 1010MOL0     C39284   5.702  11.240  11.361  0.1966  0.1718  0.0398
 1010MOL0     C39285   5.851  11.276  11.364 -0.1798 -0.2841  0.3335
 1010MOL0     C39286   5.934  11.255  11.493  0.0824 -0.3485  0.7182
 1010MOL0    Cl39287   5.826  11.302  11.639  0.1982 -0.6338  0.0127
 1010MOL0     C39288   4.990  11.028  10.959 -0.4840  0.0259  0.3589
 1010MOL0     C39289   4.932  10.972  10.844  0.9717 -0.9412  0.7207
 1010MOL0     O39290   4.955  10.625  10.711 -1.1337 -0.6145 -0.3256
 1010MOL0     C39291   4.659  10.731  10.538  0.4289  0.3829 -0.9692
 1010MOL0     C39292   4.571  10.693  10.438 -1.2271 -0.7230  0.6633
 1010MOL0     N39293   4.141  10.566   9.895  0.2040 -0.1571  0.2639
 1010MOL0     N39294   4.011  10.556   9.923  0.0341  0.0049  0.7384
 1010MOL0     C39295   3.041  10.594  10.394  0.0856  0.2795 -0.0719
 1010MOL0     C39296   2.947  10.686  10.436  0.4462  1.0388 -0.1886
 1010MOL0     C39297   2.604  10.930  10.602  0.2106  0.8923 -0.8102
 1010MOL0     C39298   2.634  11.061  10.636  0.3382 -0.0965  0.4081
 1010MOL0     C39299   2.565  11.138  10.727 -1.0039  0.3024 -0.5839
 1010MOL0     C39300   2.460  11.077  10.806  0.4443  0.5112 -0.5161
 1010MOL0     O39301   2.407  11.156  10.900  0.5852 -0.3776  0.1324
 1010MOL0     C39302   2.313  11.096  10.992  1.1923  0.4575  0.0952
 1010MOL0     C39303   2.338  11.161  11.122  0.7184  0.8829  0.3318
 1010MOL0     C39304   2.302  11.315  11.118 -0.6371 -0.3072  0.1249
 1010MOL0     C39305   2.340  11.383  11.257  0.6971 -0.1546  0.0156
 1010MOL0     C39306   2.243  11.337  11.360 -0.6176 -0.4364  0.8866
 1010MOL0     C39307   2.157  11.278  11.423 -0.1700  0.0230  0.2217
 1010MOL0     C39308   2.432  10.939  10.771 -0.6265 -0.1676 -0.5837
 1010MOL0     C39309   2.506  10.863  10.678  0.9540 -0.2549  0.5693
 1010MOL0     C39310   2.457  10.728  10.649 -0.4468  0.4531  0.1811
 1010MOL0     H39311   2.685  10.469  10.483 -0.2880  0.6137 -0.9998
 1010MOL0     H39312   2.860  10.315  10.403 -1.1820  0.1614  1.7474
 1010MOL0     H39313   3.077  10.396  10.123  2.4216 -1.3523 -2.1435
 1010MOL0     H39314   2.995  10.259  10.195  0.9696 -2.7405 -3.3516
 1010MOL0     H39315   3.235  10.154  10.233 -0.5575  2.4908  1.9744
 1010MOL0     H39316   3.170  10.161  10.066 -0.8473  1.1257 -1.1756
 1010MOL0     H39317   3.314  10.400  10.116 -3.4898 -0.8086  0.7277
 1010MOL0     H39318   3.406  10.283  10.197 -1.3656  1.0916  0.3563
 1010MOL0     H39319   3.409  10.152   9.962 -1.3909 -0.1627  2.1193
 1010MOL0     H39320   3.358  10.314   9.912 -4.5825 -1.6214  3.0461
 1010MOL0     H39321   3.561  10.419   9.974 -3.1612  0.8687 -1.0829
 1010MOL0     H39322   3.581  10.286   9.865 -0.2172  1.4547  0.0619
 1010MOL0     H39323   3.662  10.283  10.159  0.3775 -0.1000  0.4199
 1010MOL0     H39324   3.638  10.136  10.074  3.3754  0.2821  2.7342
 1010MOL0     H39325   3.818  10.251   9.891  0.1229 -0.3625 -0.5273
 1010MOL0     H39326   3.866  10.180  10.040  1.4187  1.9551  1.9097
 1010MOL0     H39327   3.806  10.489  10.033 -2.2521 -1.4041 -1.2850
 1010MOL0     H39328   3.877  10.398  10.160  3.1574 -3.0158 -0.6965
 1010MOL0     H39329   4.125  10.258  10.019  0.5765  0.7888  1.4817
 1010MOL0     H39330   4.386  10.436   9.813 -1.0088 -1.0652 -0.3132
 1010MOL0     H39331   4.337  10.290   9.908  2.0437  0.1293  2.3023
 1010MOL0     H39332   4.420  10.392  10.109  3.0196  0.8461  1.0787
 1010MOL0     H39333   4.540  10.424   9.976  0.5641  3.9820  0.4772
 1010MOL0     H39334   4.476  10.632   9.945 -1.9268 -0.6128 -0.7329
 1010MOL0     H39335   4.332  10.620  10.051 -1.0591 -1.3271 -4.2390
 1010MOL0     H39336   4.627  10.640  10.134  0.3570  2.6868 -1.2141
 1010MOL0     H39337   4.488  10.740  10.189 -3.8723 -1.1112  2.0702
 1010MOL0     H39338   4.695  10.394  10.346  2.1471  1.1244 -1.3476
 1010MOL0     H39339   4.860  10.389  10.660  0.5133  2.1528  0.8928
 1010MOL0     H39340   4.973  10.476  10.553 -0.2603  2.3006 -2.6794
 1010MOL0     H39341   4.867  10.328  10.507 -0.3277  0.4878  1.4951
 1010MOL0     H39342   4.845  10.677  10.990 -1.8598  0.7780 -2.4758
 1010MOL0     H39343   4.995  10.785  11.182 -1.2293  0.1701  0.5044
 1010MOL0     H39344   5.261  10.864  11.130  3.4501  0.8877 -0.9784
 1010MOL0     H39345   5.272  11.007  11.038 -2.1831  1.8022  0.4049
 1010MOL0     H39346   5.283  11.124  11.286 -1.9133 -1.2575  2.0522
 1010MOL0     H39347   5.299  10.959  11.343  0.2926 -1.1366 -1.3877
 1010MOL0     H39348   5.496  11.138  11.184  1.3265 -0.2326  0.5415
 1010MOL0     H39349   5.508  10.970  11.168 -1.1284 -1.6951  0.5557
 1010MOL0     H39350   5.544  10.933  11.412  2.6352  1.6742  2.7891
 1010MOL0     H39351   5.485  11.099  11.443 -1.9029 -0.9998  1.3027
 1010MOL0     H39352   5.740  11.050  11.461  0.0494  0.4334  1.2480
 1010MOL0     H39353   5.737  11.026  11.289 -0.8214 -0.6348  0.4262
 1010MOL0     H39354   5.648  11.289  11.443 -0.7666 -2.7528  1.2910
 1010MOL0     H39355   5.661  11.273  11.266 -0.0991 -0.4832 -0.0598
 1010MOL0     H39356   5.861  11.381  11.336 -0.0782 -0.3631  0.0640
 1010MOL0     H39357   5.900  11.222  11.283  0.1218  0.3847  0.0670
 1010MOL0     H39358   6.030  11.303  11.475  0.7497 -1.1277  2.0315
 1010MOL0     H39359   5.959  11.150  11.505 -1.4175 -1.3560 -3.3510
 1010MOL0     H39360   5.032  11.128  10.953  0.1336 -0.2903 -3.7391
 1010MOL0     H39361   4.910  11.033  10.756 -0.9503 -0.5350  1.4379
 1010MOL0     H39362   4.651  10.831  10.578  2.9606 -0.3735  1.8219
 1010MOL0     H39363   4.496  10.767  10.415  1.0064  2.1769  2.0395
 1010MOL0     H39364   3.142  10.621  10.366  1.5431 -4.2567 -0.0205
 1010MOL0     H39365   2.969  10.791  10.454  0.4530  1.0000  0.0286
 1010MOL0     H39366   2.730  11.096  10.599  1.5311  0.0495  3.3374
 1010MOL0     H39367   2.596  11.236  10.763  0.0633 -0.0096 -0.6164
 1010MOL0     H39368   2.208  11.099  10.963  0.3840  5.1122  2.4924
 1010MOL0     H39369   2.348  10.993  11.004 -1.6269 -0.6028  0.0016
 1010MOL0     H39370   2.445  11.150  11.142  0.6413 -3.3399 -0.7160
 1010MOL0     H39371   2.278  11.124  11.206 -2.0819 -1.1309 -2.3424
 1010MOL0     H39372   2.364  11.356  11.038  1.2282 -1.0026  1.1419
 1010MOL0     H39373   2.195  11.316  11.098 -0.5659 -0.7966 -0.2948
 1010MOL0     H39374   2.308  11.485  11.233 -3.9353 -0.6420  2.8123
 1010MOL0     H39375   2.445  11.379  11.287  0.1696  4.3405  3.5991
 1010MOL0     H39376   2.081  11.240  11.488  0.5058  0.8552  1.5656
 1010MOL0     H39377   2.341  10.905  10.821 -0.1973  2.6332  2.4806
 1010MOL0     H39378   2.364  10.713  10.705  0.8133 -1.9424  1.8253
 1010MOL0     H39379   2.439  10.704  10.544  1.8192 -2.3096  0.2926
 1010MOL0     H39380   2.527  10.653  10.687  0.1774 -0.1285 -1.9975
 1011MOL0     O39381   3.121   8.712   5.509  0.4289  0.1706  0.2167
 1011MOL0     C39382   3.206   8.688   5.424  0.0314  0.7274 -0.0966
 1011MOL0     O39383   3.346   8.693   5.457 -0.3535  0.4231  0.7177
 1011MOL0     C39384   3.371   8.702   5.595 -1.1730 -0.6699 -0.5214
 1011MOL0     C39385   3.417   8.831   5.633 -0.3745  0.0137  0.3421
 1011MOL0     C39386   3.454   8.858   5.766  0.5163  0.1924 -0.1729
 1011MOL0     C39387   3.461   8.749   5.852  0.8151 -0.4118 -0.3387
 1011MOL0     O39388   3.523   8.770   5.970 -0.5575 -0.4445  0.6989
 1011MOL0     C39389   3.630   8.676   6.015  0.4753 -0.0655 -0.5352
 1011MOL0     C39390   3.686   8.742   6.135  0.9281  0.0800 -0.1801
 1011MOL0     C39391   3.784   8.860   6.092  0.0802  0.3130  0.2775
 1011MOL0     C39392   3.832   8.950   6.209  0.4296 -0.3738 -0.6597
 1011MOL0     C39393   3.929   9.057   6.166 -0.4964 -0.2033 -0.3263
 1011MOL0     C39394   3.940   9.177   6.278  0.9487 -0.0879  0.3756
 1011MOL0     C39395   4.005   9.305   6.217 -0.2290  0.3837 -0.0535
 1011MOL0     C39396   3.938   9.347   6.094  0.2831  0.8754  0.2469
 1011MOL0     N39397   3.989   9.467   6.051 -0.6405 -0.2619  0.1985
 1011MOL0     C39398   4.077   9.506   5.947 -0.4818  0.0842  0.0703
 1011MOL0     C39399   4.064   9.638   5.937  0.0362  0.3824  0.1684
 1011MOL0     C39400   4.130   9.730   5.839 -0.2069 -0.1497  1.0173
 1011MOL0     C39401   4.128   9.663   5.700 -0.4972 -0.2389 -0.4836
 1011MOL0     C39402   4.258   9.577   5.662  0.0897  0.0528 -0.2334
 1011MOL0     C39403   4.220   9.450   5.590  0.4623 -0.0487 -0.2941
 1011MOL0     O39404   4.331   9.375   5.553 -0.5620  0.0811  1.2224
 1011MOL0     C39405   4.315   9.260   5.483  1.4473  0.1653 -0.1851
 1011MOL0     C39406   4.403   9.241   5.377  0.3708 -0.1805 -0.0220
 1011MOL0     C39407   4.392   9.122   5.296 -0.3224  0.9296 -0.4677
 1011MOL0     C39408   4.463   9.121   5.160  0.9183 -0.8051 -0.5699
 1011MOL0     C39409   4.306   9.020   5.340  0.3459 -0.1911  1.6849
 1011MOL0     C39410   4.295   8.888   5.277 -1.1831  0.3206  0.0159
 1011MOL0     O39411   4.181   8.811   5.305  0.3445 -0.5635 -0.3380
 1011MOL0     C39412   4.177   8.674   5.274  0.0586  0.4786 -0.3877
 1011MOL0     C39413   4.225   8.624   5.150  0.7607  0.1785 -1.2882
 1011MOL0     C39414   4.236   8.488   5.129  0.5042 -0.3349 -0.7082
 1011MOL0     C39415   4.189   8.400   5.227 -0.9868  0.1424  0.2025
 1011MOL0     O39416   4.187   8.275   5.180 -0.0030 -0.3723 -0.1122
 1011MOL0     C39417   4.225   8.175   5.277 -0.4519  0.5287 -0.8903
 1011MOL0     C39418   4.154   8.050   5.228 -0.4119 -0.2833 -0.8671
 1011MOL0     C39419   4.215   7.975   5.103 -0.7581  0.0998  0.1525
 1011MOL0     C39420   4.337   7.888   5.140  0.4784 -0.1386 -0.3127
 1011MOL0     C39421   4.357   7.787   5.028  0.4993  0.2701  0.2557
 1011MOL0     C39422   4.471   7.699   5.042 -0.8031  0.8214 -0.2004
 1011MOL0     C39423   4.525   7.662   4.894 -0.5696 -0.3619  0.2682
 1011MOL0     C39424   4.628   7.549   4.892 -0.4479  0.2182  0.2635
 1011MOL0    Cl39425   4.763   7.584   5.023  0.0216  0.1093  0.2140
 1011MOL0     C39426   4.118   8.449   5.335  1.0453  0.9782  0.1072
 1011MOL0     C39427   4.123   8.580   5.367  0.4765  0.4255 -0.3756
 1011MOL0     O39428   4.406   8.836   5.245  0.4731 -1.0080 -0.3871
 1011MOL0     C39429   4.229   9.040   5.449  1.9134 -0.3491 -0.1725
 1011MOL0     C39430   4.224   9.161   5.517  0.1270  0.2062  0.1069
 1011MOL0     N39431   3.968   9.687   6.014  0.7671  0.1286 -1.0045
 1011MOL0     N39432   3.922   9.578   6.082 -0.0217 -0.2776 -0.7064
 1011MOL0     C39433   3.405   8.629   5.821 -1.3180 -0.5671  0.1904
 1011MOL0     C39434   3.355   8.603   5.693  0.6489  0.2314 -0.3942
 1011MOL0     C39435   3.149   8.629   5.291 -0.0079 -0.0324  0.3950
 1011MOL0     C39436   3.011   8.652   5.265 -0.5439 -1.1665 -0.2443
 1011MOL0     C39437   2.950   8.599   5.154 -1.2713 -0.1481 -1.3392
 1011MOL0     C39438   3.017   8.523   5.059  0.3270  0.3691  0.2504
 1011MOL0     O39439   2.938   8.503   4.949  0.0377  0.1890  0.2264
 1011MOL0     C39440   2.962   8.386   4.866 -0.9497  0.9444  0.4190
 1011MOL0     C39441   2.972   8.247   4.925  0.0049  0.0918 -0.1454
 1011MOL0     C39442   2.841   8.192   4.957  1.0830  0.1346  0.6950
 1011MOL0     C39443   2.860   8.093   5.069 -0.4401  0.2045 -0.2811
 1011MOL0     C39444   2.918   7.969   5.024  0.6802  1.3889  1.2396
 1011MOL0     C39445   2.971   7.861   5.002 -0.1173  0.8475  0.3561
 1011MOL0     C39446   3.152   8.491   5.084 -0.2129 -0.1063 -0.0806
 1011MOL0     C39447   3.215   8.545   5.199  0.3781  0.6151 -0.4594
 1011MOL0     C39448   3.355   8.500   5.227 -0.6155 -0.1938  0.3197
 1011MOL0     H39449   3.420   8.915   5.566  0.7538 -0.2116  0.0946
 1011MOL0     H39450   3.491   8.952   5.805 -1.1041  0.7505  0.0712
 1011MOL0     H39451   3.710   8.657   5.943  0.8387 -0.3439 -0.0538
 1011MOL0     H39452   3.573   8.589   6.048  0.9784 -0.1591  0.1057
 1011MOL0     H39453   3.615   8.797   6.198  1.9513  2.0325 -0.6437
 1011MOL0     H39454   3.741   8.664   6.189  0.1004 -0.2316  0.2260
 1011MOL0     H39455   3.873   8.821   6.044  0.5436  0.8207  0.7121
 1011MOL0     H39456   3.736   8.932   6.026  2.1123 -0.2853 -1.9711
 1011MOL0     H39457   3.742   8.997   6.249 -1.3907 -1.9288 -2.6688
 1011MOL0     H39458   3.870   8.886   6.290 -0.8417 -1.2964 -0.7589
 1011MOL0     H39459   3.883   9.086   6.071 -0.3423 -0.5270 -0.5005
 1011MOL0     H39460   4.025   9.012   6.140 -1.8603 -2.7652 -1.2593
 1011MOL0     H39461   3.839   9.192   6.316  1.2165 -2.8375  2.5852
 1011MOL0     H39462   3.991   9.136   6.366  3.9666 -0.6334 -1.4859
 1011MOL0     H39463   4.114   9.302   6.208 -0.1462  1.0158  0.5719
 1011MOL0     H39464   3.989   9.385   6.291  2.4072  0.8318  0.1478
 1011MOL0     H39465   3.950   9.276   6.011 -3.2762 -0.0787  0.3717
 1011MOL0     H39466   3.829   9.354   6.096  0.1371 -0.9831  0.3022
 1011MOL0     H39467   4.137   9.440   5.885  0.8972 -0.6345  2.0654
 1011MOL0     H39468   4.231   9.755   5.875  0.1606 -0.2349  0.0921
 1011MOL0     H39469   4.066   9.818   5.830 -0.9024 -0.8284 -1.6745
 1011MOL0     H39470   4.041   9.600   5.678  0.8110 -2.2484 -0.1797
 1011MOL0     H39471   4.126   9.741   5.623 -0.6572 -2.3880 -2.8075
 1011MOL0     H39472   4.328   9.640   5.607 -2.3273  0.7918 -2.6615
 1011MOL0     H39473   4.314   9.544   5.750 -0.3609 -0.8772 -0.2854
 1011MOL0     H39474   4.162   9.401   5.668  1.8316  1.8352  2.0665
 1011MOL0     H39475   4.156   9.462   5.502 -0.1764 -3.0127 -0.3166
 1011MOL0     H39476   4.456   9.333   5.357  0.2300 -0.0803  0.0646
 1011MOL0     H39477   4.521   9.029   5.151  1.1835 -0.9540  2.0122
 1011MOL0     H39478   4.528   9.209   5.151 -0.8341  0.9329  2.2919
 1011MOL0     H39479   4.388   9.139   5.082  0.5838 -0.6058 -0.2042
 1011MOL0     H39480   4.258   8.694   5.073  2.4001  0.7820 -0.0937
 1011MOL0     H39481   4.273   8.439   5.040  0.7515 -0.1384 -0.7167
 1011MOL0     H39482   4.333   8.155   5.271 -0.4202  0.4060 -0.0156
 1011MOL0     H39483   4.201   8.206   5.379  0.6070  1.2662 -0.8546
 1011MOL0     H39484   4.152   7.976   5.308  2.8968  1.3566  0.9149
 1011MOL0     H39485   4.049   8.076   5.210 -0.5435 -1.7530 -2.5620
 1011MOL0     H39486   4.258   8.065   5.058 -1.4672  0.5796  0.4166
 1011MOL0     H39487   4.135   7.924   5.049 -1.6172  1.3085  0.2501
 1011MOL0     H39488   4.332   7.824   5.228  0.4991 -0.5551 -0.6072
 1011MOL0     H39489   4.411   7.968   5.148  0.8803 -0.0786 -3.3662
 1011MOL0     H39490   4.267   7.729   5.008  1.7520 -1.1766 -1.5488
 1011MOL0     H39491   4.370   7.842   4.934  0.6453 -1.5444 -0.8277
 1011MOL0     H39492   4.449   7.606   5.096  1.6738  0.4989  0.3691
 1011MOL0     H39493   4.554   7.749   5.093 -0.2065 -1.5966  1.4153
 1011MOL0     H39494   4.570   7.755   4.857  0.9285  0.9520  4.7296
 1011MOL0     H39495   4.443   7.629   4.830 -3.2450  0.0226  3.2752
 1011MOL0     H39496   4.660   7.526   4.790  0.4298  1.4819  0.2383
 1011MOL0     H39497   4.584   7.452   4.919 -3.4559  0.8572 -1.9163
 1011MOL0     H39498   4.063   8.385   5.402  3.1853  0.9275  1.9436
 1011MOL0     H39499   4.068   8.612   5.455 -0.3860  0.8208 -1.0436
 1011MOL0     H39500   4.165   8.967   5.498  0.0047  0.9706 -0.5806
 1011MOL0     H39501   4.159   9.176   5.603  0.5916 -1.0591  0.7043
 1011MOL0     H39502   3.396   8.554   5.899 -0.7838 -0.7818  0.0512
 1011MOL0     H39503   3.308   8.506   5.684 -0.9573  1.0146 -0.9420
 1011MOL0     H39504   2.953   8.720   5.325  0.2347 -0.1353 -0.6252
 1011MOL0     H39505   2.847   8.624   5.130 -2.1839  1.4876  3.3677
 1011MOL0     H39506   2.884   8.383   4.789 -0.0906  0.1667 -0.4440
 1011MOL0     H39507   3.057   8.413   4.820  1.0759 -2.3010  2.3543
 1011MOL0     H39508   3.039   8.256   5.011  0.2599 -2.3443 -0.0250
 1011MOL0     H39509   3.016   8.170   4.861  0.5504  0.0724  0.2421
 1011MOL0     H39510   2.777   8.273   4.992 -0.3282 -0.7175  0.1701
 1011MOL0     H39511   2.801   8.139   4.870  1.0418 -1.8675  1.8826
 1011MOL0     H39512   2.768   8.077   5.125  0.2447  0.8591  1.0862
 1011MOL0     H39513   2.929   8.141   5.139  0.1478  3.3706 -2.7844
 1011MOL0     H39514   3.020   7.771   4.973  0.6395  1.9476 -2.1398
 1011MOL0     H39515   3.219   8.435   5.020 -0.7486  0.2390 -0.9487
 1011MOL0     H39516   3.376   8.415   5.161 -4.0102 -1.4279  0.6499
 1011MOL0     H39517   3.444   8.561   5.210  0.3114 -1.5274  0.1862
 1011MOL0     H39518   3.355   8.463   5.330 -0.7256 -2.5607 -0.4608
 1012MOL0     O39519  10.912   2.641   8.288 -0.6312 -0.0147  0.1454
 1012MOL0     C39520  10.983   2.577   8.212  0.0247  0.5660 -0.6601
 1012MOL0     O39521  11.124   2.565   8.220 -0.4531 -0.7080  0.0108
 1012MOL0     C39522  11.195   2.619   8.325 -0.4501 -0.2523  0.5764
 1012MOL0     C39523  11.154   2.599   8.453  0.1956  0.4999 -0.9883
 1012MOL0     C39524  11.221   2.647   8.560 -0.5199 -0.2774 -0.2621
 1012MOL0     C39525  11.336   2.721   8.538 -0.2889 -0.1530  0.2878
 1012MOL0     O39526  11.408   2.767   8.642 -1.1593  0.6650 -0.0985
 1012MOL0     C39527  11.491   2.679   8.714 -0.3328  0.0403 -1.2378
 1012MOL0     C39528  11.549   2.764   8.829 -0.2360  0.3930 -0.1234
 1012MOL0     C39529  11.445   2.819   8.927 -0.3714  0.9081 -0.0452
 1012MOL0     C39530  11.505   2.891   9.037 -0.1767  0.9868  0.1578
 1012MOL0     C39531  11.398   2.917   9.143  0.6467 -0.9855  0.9803
 1012MOL0     C39532  11.433   3.040   9.226 -0.6839 -0.1361 -0.5857
 1012MOL0     C39533  11.421   3.180   9.159 -0.8239  0.2476  0.1413
 1012MOL0     C39534  11.278   3.216   9.123  0.2810  1.2510  0.6859
 1012MOL0     N39535  11.208   3.278   9.235  0.2872 -0.7311  0.1695
 1012MOL0     C39536  11.140   3.214   9.332 -0.4716  0.2131 -0.3084
 1012MOL0     C39537  11.166   3.296   9.434 -0.5315  1.1376  0.1834
 1012MOL0     C39538  11.141   3.253   9.572 -0.5745 -0.0834 -0.3351
 1012MOL0     C39539  11.128   3.382   9.655  0.7637  0.7080 -0.0007
 1012MOL0     C39540  11.104   3.333   9.792 -0.2435  1.0024 -0.5703
 1012MOL0     C39541  11.086   3.448   9.888 -0.0545  0.2652  0.1794
 1012MOL0     O39542  11.032   3.405  10.015 -0.7700 -0.1549 -0.2115
 1012MOL0     C39543  10.896   3.388  10.026  0.2890  0.4286  0.1575
 1012MOL0     C39544  10.795   3.410   9.926 -0.0219  0.2053  0.4567
 1012MOL0     C39545  10.652   3.405   9.959 -0.1301 -0.1398 -0.2710
 1012MOL0     C39546  10.552   3.431   9.853  1.2242 -0.2279  0.3991
 1012MOL0     C39547  10.614   3.363  10.091  0.0313  1.3708  1.0126
 1012MOL0     C39548  10.470   3.340  10.139 -0.7483 -0.9666  0.0843
 1012MOL0     O39549  10.453   3.261  10.249 -0.3255  0.5366  0.3599
 1012MOL0     C39550  10.335   3.254  10.321  0.0786 -0.6930 -0.2697
 1012MOL0     C39551  10.324   3.319  10.449 -1.1379  0.4519 -0.5735
 1012MOL0     C39552  10.209   3.309  10.528 -0.8096 -0.0405 -0.2521
 1012MOL0     C39553  10.098   3.243  10.468  0.0607  0.4638  0.6327
 1012MOL0     O39554   9.977   3.253  10.531  0.7031  0.0075  0.0780
 1012MOL0     C39555   9.971   3.266  10.678 -0.2848 -0.3143  0.2378
 1012MOL0     C39556   9.835   3.244  10.714 -0.6766 -0.0887  0.0154
 1012MOL0     C39557   9.793   3.100  10.728 -0.0749  0.0887  0.8132
 1012MOL0     C39558   9.664   3.094  10.812  0.3954 -0.2478  0.2979
 1012MOL0     C39559   9.600   2.953  10.816  0.7598 -1.0126  0.4184
 1012MOL0     C39560   9.500   2.945  10.935 -0.8720 -0.5083  0.1098
 1012MOL0     C39561   9.394   2.837  10.915 -0.6491  0.5147 -0.0822
 1012MOL0     C39562   9.302   2.792  11.035  0.6128 -0.0751  0.1840
 1012MOL0    Cl39563   9.395   2.717  11.174  0.6156 -0.8083  0.1511
 1012MOL0     C39564  10.110   3.172  10.345 -0.0441 -0.9692  0.1656
 1012MOL0     C39565  10.226   3.178  10.274 -0.2692  0.3573  0.4132
 1012MOL0     O39566  10.379   3.408  10.080  0.2463 -0.0443 -0.6627
 1012MOL0     C39567  10.718   3.327  10.175 -0.1768 -1.0196  0.0465
 1012MOL0     C39568  10.850   3.343  10.144 -0.0653  1.1270  0.0571
 1012MOL0     N39569  11.223   3.416   9.390 -0.3052 -0.7961 -0.4071
 1012MOL0     N39570  11.241   3.407   9.268  0.9412  0.2398 -0.7988
 1012MOL0     C39571  11.385   2.745   8.409  0.4594  0.0480 -0.5128
 1012MOL0     C39572  11.309   2.705   8.297 -0.0624  0.4139  0.0375
 1012MOL0     C39573  10.928   2.515   8.094 -0.1332  0.3859  0.4714
 1012MOL0     C39574  10.959   2.378   8.073  0.0597 -0.2283 -0.5997
 1012MOL0     C39575  10.912   2.307   7.963 -0.5124 -0.1819  0.0129
 1012MOL0     C39576  10.842   2.379   7.866  0.0055 -0.6500 -0.3361
 1012MOL0     O39577  10.797   2.304   7.762  0.3229 -0.3227  0.8144
 1012MOL0     C39578  10.697   2.210   7.793  0.3967  0.1128 -0.4158
 1012MOL0     C39579  10.659   2.145   7.659 -0.2659  0.1704  0.1821
 1012MOL0     C39580  10.602   2.251   7.561 -0.7081  0.1284  0.0928
 1012MOL0     C39581  10.531   2.178   7.442 -0.2275 -0.0043  0.2043
 1012MOL0     C39582  10.635   2.138   7.339 -0.2617  0.3628  0.0639
 1012MOL0     C39583  10.717   2.109   7.257 -0.1277  0.2356  0.4187
 1012MOL0     C39584  10.810   2.513   7.891 -0.3142 -0.4242  0.5786
 1012MOL0     C39585  10.861   2.584   7.997 -0.2001  0.0417 -1.3350
 1012MOL0     C39586  10.831   2.735   8.010 -0.3814  0.3254 -0.7443
 1012MOL0     H39587  11.076   2.525   8.469  2.4788 -2.1462 -1.5206
 1012MOL0     H39588  11.165   2.612   8.646  0.2567 -0.1657  0.2936
 1012MOL0     H39589  11.579   2.646   8.659  4.4613 -0.6951  5.6097
 1012MOL0     H39590  11.431   2.597   8.752 -0.5852  0.6546 -0.2745
 1012MOL0     H39591  11.621   2.705   8.886  0.9706  1.6204 -0.3058
 1012MOL0     H39592  11.606   2.847   8.784 -2.8715  1.4972 -1.6746
 1012MOL0     H39593  11.376   2.867   8.857 -0.1686 -1.1509 -1.7643
 1012MOL0     H39594  11.391   2.735   8.971  2.5354 -0.6449  0.8263
 1012MOL0     H39595  11.591   2.836   9.078  0.2407  2.0943  0.8257
 1012MOL0     H39596  11.550   2.979   8.989 -2.4893  2.5987  0.7929
 1012MOL0     H39597  11.386   2.832   9.211 -0.6903  0.5261  2.7488
 1012MOL0     H39598  11.307   2.932   9.084  0.8594 -1.0583  0.6326
 1012MOL0     H39599  11.364   3.036   9.310 -0.1408  0.4391 -0.0984
 1012MOL0     H39600  11.534   3.024   9.264 -0.9088  1.7187  0.9314
 1012MOL0     H39601  11.490   3.186   9.074 -2.6631  1.0607 -1.3687
 1012MOL0     H39602  11.462   3.252   9.231  2.1433  0.0817 -1.2249
 1012MOL0     H39603  11.276   3.283   9.036  0.2004  1.9705  1.2256
 1012MOL0     H39604  11.220   3.128   9.094 -0.8715  1.7879  1.2971
 1012MOL0     H39605  11.110   3.110   9.341  1.2038 -0.1540  2.2073
 1012MOL0     H39606  11.224   3.189   9.604 -0.2372 -0.5787 -2.0791
 1012MOL0     H39607  11.055   3.187   9.580  0.4620 -1.3825  0.5982
 1012MOL0     H39608  11.216   3.446   9.647  0.3220  1.3198 -0.0808
 1012MOL0     H39609  11.040   3.437   9.621 -1.7814 -3.8643 -1.5743
 1012MOL0     H39610  11.018   3.266   9.796  0.8654 -0.4452 -0.1450
 1012MOL0     H39611  11.190   3.274   9.826 -0.4466  0.5352 -0.8608
 1012MOL0     H39612  11.185   3.493   9.899  0.2519 -0.3384 -0.0721
 1012MOL0     H39613  11.017   3.526   9.854  0.6055  0.8177  0.0860
 1012MOL0     H39614  10.821   3.449   9.828  1.1458  0.9577  1.0367
 1012MOL0     H39615  10.524   3.536   9.868 -2.0598 -0.6318 -1.8756
 1012MOL0     H39616  10.472   3.360   9.875  0.7560  0.4331  0.8367
 1012MOL0     H39617  10.593   3.420   9.752  3.4021  2.5948  0.8361
 1012MOL0     H39618  10.412   3.378  10.471 -0.0748 -0.8593 -1.1330
 1012MOL0     H39619  10.200   3.342  10.631 -0.6893 -1.7480  0.3352
 1012MOL0     H39620  10.039   3.188  10.713  1.0175  0.5751 -0.2582
 1012MOL0     H39621   9.996   3.367  10.712 -2.6962  0.9296 -1.4275
 1012MOL0     H39622   9.825   3.276  10.818 -2.3116  0.3772 -0.2498
 1012MOL0     H39623   9.775   3.305  10.647  0.2328  0.0855 -0.6470
 1012MOL0     H39624   9.876   3.041  10.768  1.7415  1.7199 -0.3222
 1012MOL0     H39625   9.773   3.060  10.628 -1.4667 -0.2724  1.2185
 1012MOL0     H39626   9.597   3.165  10.762  1.0103  0.9645  1.1605
 1012MOL0     H39627   9.676   3.133  10.913 -5.3708 -0.3229  1.3592
 1012MOL0     H39628   9.546   2.958  10.721 -0.2867  1.4946  1.0694
 1012MOL0     H39629   9.665   2.864  10.820  2.1424 -0.0147  0.8307
 1012MOL0     H39630   9.445   3.039  10.939  1.1292  0.7724 -0.7792
 1012MOL0     H39631   9.557   2.936  11.028  0.5461 -0.8069 -0.7551
 1012MOL0     H39632   9.442   2.743  10.886 -0.0556  0.4636  1.0173
 1012MOL0     H39633   9.328   2.852  10.829 -1.4051 -1.7278  0.0491
 1012MOL0     H39634   9.234   2.718  10.992  0.0901  0.1735  0.5716
 1012MOL0     H39635   9.245   2.878  11.072 -3.4964 -2.6039  0.3814
 1012MOL0     H39636  10.020   3.126  10.306  0.3146 -0.8829 -0.7882
 1012MOL0     H39637  10.218   3.134  10.175  1.2662  2.2468 -0.6252
 1012MOL0     H39638  10.696   3.318  10.281  1.0475  3.2064  0.8608
 1012MOL0     H39639  10.911   3.337  10.233 -0.0298  0.0393 -0.0249
 1012MOL0     H39640  11.479   2.796   8.389  0.8429 -0.4903 -0.1083
 1012MOL0     H39641  11.348   2.718   8.197 -0.7846  0.5080 -0.2351
 1012MOL0     H39642  11.014   2.324   8.149 -0.8004  2.3966  2.0934
 1012MOL0     H39643  10.933   2.200   7.955  0.9480 -0.1389  2.2765
 1012MOL0     H39644  10.732   2.131   7.860 -3.6142 -1.0210  0.6015
 1012MOL0     H39645  10.608   2.261   7.832 -0.0802 -0.7370 -0.3524
 1012MOL0     H39646  10.582   2.068   7.671  2.7527 -3.5075 -1.6771
 1012MOL0     H39647  10.746   2.103   7.607 -0.8749  1.7790 -2.3008
 1012MOL0     H39648  10.520   2.302   7.613  0.6469  4.6517 -1.6779
 1012MOL0     H39649  10.682   2.321   7.535  0.3713 -1.6336 -1.6049
 1012MOL0     H39650  10.459   2.247   7.397 -1.1824 -1.7020 -1.0078
 1012MOL0     H39651  10.486   2.084   7.477  1.1002 -0.6469  0.2579
 1012MOL0     H39652  10.790   2.083   7.182  1.4782  0.1478  1.9529
 1012MOL0     H39653  10.769   2.555   7.800  3.6445 -2.5224 -2.5284
 1012MOL0     H39654  10.771   2.751   8.099  0.2263 -0.7363 -0.1185
 1012MOL0     H39655  10.929   2.784   8.018  0.0779  0.0056 -3.3287
 1012MOL0     H39656  10.780   2.770   7.919 -1.1019 -1.7747 -1.2094
 1013MOL0     O39657   5.273   5.987   5.753  0.8862 -0.8550  0.6428
 1013MOL0     C39658   5.260   5.992   5.872 -0.1525 -0.0939 -0.0640
 1013MOL0     O39659   5.177   5.915   5.948  0.1065 -0.3246  0.1105
 1013MOL0     C39660   5.082   5.845   5.872  0.4077 -0.0603 -0.4701
 1013MOL0     C39661   4.985   5.911   5.791 -0.1784  0.6387 -0.5473
 1013MOL0     C39662   4.892   5.839   5.718 -1.0243  0.1394  0.3019
 1013MOL0     C39663   4.895   5.697   5.718 -0.4346 -0.3065 -0.8769
 1013MOL0     O39664   4.800   5.625   5.648  0.2934  0.2609  0.2258
 1013MOL0     C39665   4.739   5.514   5.708 -0.1814  0.6331 -0.5775
 1013MOL0     C39666   4.595   5.500   5.667  0.2580 -1.4976 -0.4012
 1013MOL0     C39667   4.521   5.451   5.792 -0.4236 -0.6918 -0.0942
 1013MOL0     C39668   4.383   5.398   5.748  0.8666 -0.4206  0.2285
 1013MOL0     C39669   4.279   5.384   5.862  0.8630  0.2265 -0.3574
 1013MOL0     C39670   4.226   5.523   5.911 -0.6085  0.2130 -0.0811
 1013MOL0     C39671   4.195   5.629   5.807 -0.1863 -0.8895  0.3023
 1013MOL0     C39672   4.152   5.767   5.863  0.0900  0.3382 -0.6752
 1013MOL0     N39673   4.007   5.763   5.889 -0.5777  0.6150 -0.8882
 1013MOL0     C39674   3.913   5.742   5.793  0.7293 -0.1975  0.8026
 1013MOL0     C39675   3.790   5.772   5.848 -0.1718 -0.1009  0.0647
 1013MOL0     C39676   3.655   5.763   5.789 -0.7277 -0.2023 -0.5853
 1013MOL0     C39677   3.624   5.619   5.748  0.3307  0.1870 -0.1118
 1013MOL0     C39678   3.489   5.624   5.672 -0.8344 -0.2316 -0.6659
 1013MOL0     C39679   3.445   5.486   5.629  0.6995 -0.1630 -0.2933
 1013MOL0     O39680   3.538   5.421   5.540  0.4540  0.0166 -0.6142
 1013MOL0     C39681   3.514   5.285   5.500 -0.6785 -0.2912 -0.1768
 1013MOL0     C39682   3.615   5.238   5.413  0.5538 -0.1788  0.2589
 1013MOL0     C39683   3.605   5.117   5.340  0.3448  0.8840  0.5768
 1013MOL0     C39684   3.715   5.091   5.236  0.5490  0.8249  0.0196
 1013MOL0     C39685   3.491   5.035   5.372 -0.6170  0.1804  0.1992
 1013MOL0     C39686   3.468   4.896   5.301  0.5464  0.4154 -0.3319
 1013MOL0     O39687   3.361   4.840   5.343  0.2053 -0.0088 -0.6246
 1013MOL0     C39688   3.349   4.710   5.307  0.5688 -1.3876 -0.3725
 1013MOL0     C39689   3.291   4.676   5.183 -1.0568  0.4454  0.8854
 1013MOL0     C39690   3.266   4.541   5.155 -0.0640  0.5402 -0.0345
 1013MOL0     C39691   3.311   4.434   5.235 -0.1158  0.3622 -0.6071
 1013MOL0     O39692   3.302   4.297   5.207 -1.0882  0.0945  0.1544
 1013MOL0     C39693   3.215   4.261   5.093 -0.9201  0.3056 -0.1554
 1013MOL0     C39694   3.278   4.247   4.952  0.2871  0.4218 -0.3567
 1013MOL0     C39695   3.183   4.292   4.829 -0.2937 -0.1029 -1.6555
 1013MOL0     C39696   3.075   4.199   4.789  0.2092  0.5683 -0.1155
 1013MOL0     C39697   3.022   4.214   4.648  0.7264 -0.9008  0.1988
 1013MOL0     C39698   2.976   4.360   4.618 -0.6075 -0.6086  0.3222
 1013MOL0     C39699   2.840   4.377   4.543  0.1517 -0.3089  1.8367
 1013MOL0     C39700   2.807   4.530   4.551  0.0706 -0.2324 -0.5641
 1013MOL0    Cl39701   2.636   4.546   4.530 -0.2540 -0.1509 -0.1755
 1013MOL0     C39702   3.385   4.470   5.346 -0.1816 -1.2993 -0.3351
 1013MOL0     C39703   3.394   4.603   5.387  0.1953 -0.7511  0.0276
 1013MOL0     O39704   3.548   4.845   5.228 -0.2166 -0.9337 -0.5279
 1013MOL0     C39705   3.398   5.079   5.470  0.8694  0.4653 -0.3080
 1013MOL0     C39706   3.403   5.202   5.528 -0.3758  0.1052 -0.0657
 1013MOL0     N39707   3.822   5.803   5.981 -0.3710  0.0229  0.2060
 1013MOL0     N39708   3.951   5.796   6.008 -0.0229 -0.7491 -0.3312
 1013MOL0     C39709   4.993   5.636   5.793  0.5154 -0.2934  0.9762
 1013MOL0     C39710   5.094   5.707   5.858 -0.2902  0.5074 -0.5400
 1013MOL0     C39711   5.359   6.085   5.929 -0.4790 -0.9846 -0.8789
 1013MOL0     C39712   5.427   6.174   5.840 -0.4617 -0.1732 -0.5517
 1013MOL0     C39713   5.485   6.287   5.905 -0.2721 -0.6449  0.3557
 1013MOL0     C39714   5.507   6.306   6.032  0.7929 -0.0412 -0.0830
 1013MOL0     O39715   5.560   6.426   6.077  0.0945  0.1468  0.1115
 1013MOL0     C39716   5.669   6.419   6.176  1.3211 -0.0892  0.2788
 1013MOL0     C39717   5.795   6.481   6.128 -0.4979  0.5257  0.2327
 1013MOL0     C39718   5.786   6.619   6.066  0.4170 -0.2359 -0.4405
 1013MOL0     C39719   5.917   6.698   6.074  0.4956  0.1653 -0.1408
 1013MOL0     C39720   6.021   6.643   5.981 -0.1049  0.5976 -0.7488
 1013MOL0     C39721   6.083   6.603   5.887 -0.5043  0.9538 -0.3112
 1013MOL0     C39722   5.468   6.198   6.109  0.8452 -0.2361  0.4372
 1013MOL0     C39723   5.396   6.098   6.062  0.7020 -0.2225 -0.4928
 1013MOL0     C39724   5.346   6.004   6.169 -0.5294  0.1107  0.2025
 1013MOL0     H39725   4.996   6.019   5.781  0.1954  0.6801  0.2423
 1013MOL0     H39726   4.812   5.884   5.659  0.1764  0.6096 -1.0241
 1013MOL0     H39727   4.747   5.527   5.817 -1.4614 -0.6977 -0.2959
 1013MOL0     H39728   4.793   5.425   5.675  1.3795  1.9284 -1.6394
 1013MOL0     H39729   4.555   5.600   5.647  0.3923 -1.2283  0.6100
 1013MOL0     H39730   4.580   5.439   5.578  1.9420  1.3683 -2.8307
 1013MOL0     H39731   4.572   5.377   5.854 -0.8809  1.8195  3.5588
 1013MOL0     H39732   4.517   5.534   5.863  2.7779 -0.5480  0.0812
 1013MOL0     H39733   4.342   5.461   5.668 -1.6112  1.3693  2.7451
 1013MOL0     H39734   4.380   5.299   5.703 -3.8499 -0.3647 -0.0749
 1013MOL0     H39735   4.333   5.344   5.948  0.2800  3.2967  1.5774
 1013MOL0     H39736   4.205   5.312   5.827 -1.2199  2.5434 -0.9830
 1013MOL0     H39737   4.144   5.515   5.982  0.0835  0.1244  0.7179
 1013MOL0     H39738   4.310   5.555   5.973  0.9498  1.8231 -2.8003
 1013MOL0     H39739   4.114   5.595   5.742  0.8851  1.0439 -2.2092
 1013MOL0     H39740   4.276   5.644   5.736 -2.2473 -0.8165 -2.1602
 1013MOL0     H39741   4.195   5.808   5.954  2.3630 -1.2676 -0.9566
 1013MOL0     H39742   4.179   5.834   5.780 -1.2366  2.1763  0.3001
 1013MOL0     H39743   3.936   5.700   5.696 -1.0102  2.6792 -1.0445
 1013MOL0     H39744   3.641   5.815   5.693 -1.3462 -0.0931 -0.4409
 1013MOL0     H39745   3.581   5.816   5.851 -0.7636 -0.6864 -0.2127
 1013MOL0     H39746   3.701   5.585   5.679 -1.2806 -1.1587 -1.3365
 1013MOL0     H39747   3.608   5.553   5.834  1.4357 -2.2310 -1.6422
 1013MOL0     H39748   3.412   5.674   5.730  0.3868 -0.1479  0.9618
 1013MOL0     H39749   3.499   5.692   5.587  1.4509 -0.4334 -0.6375
 1013MOL0     H39750   3.432   5.421   5.716 -0.4331  0.4112 -0.0030
 1013MOL0     H39751   3.347   5.498   5.582  0.1711 -0.4760  0.6850
 1013MOL0     H39752   3.691   5.312   5.390  0.8675 -0.2945  0.9142
 1013MOL0     H39753   3.777   5.181   5.246 -1.4840  1.9992  5.1275
 1013MOL0     H39754   3.673   5.093   5.135  0.3117 -1.3977  0.0302
 1013MOL0     H39755   3.771   4.998   5.245 -0.9099 -0.4266 -2.5443
 1013MOL0     H39756   3.257   4.751   5.112  0.6828  0.3220 -0.1292
 1013MOL0     H39757   3.215   4.540   5.060  2.2044  0.6153 -1.3102
 1013MOL0     H39758   3.201   4.156   5.122 -1.3503  0.7092  1.1805
 1013MOL0     H39759   3.118   4.309   5.102  0.3064  2.5890  2.9249
 1013MOL0     H39760   3.365   4.311   4.942 -1.0366  2.6754  1.6099
 1013MOL0     H39761   3.314   4.144   4.944  1.8762  1.0242 -1.3755
 1013MOL0     H39762   3.250   4.306   4.744 -0.6081 -2.6953 -2.4149
 1013MOL0     H39763   3.142   4.387   4.864 -0.4991 -0.6861 -0.2096
 1013MOL0     H39764   2.991   4.208   4.858 -0.3689  1.0882 -0.8596
 1013MOL0     H39765   3.111   4.096   4.796  1.1315  0.5313 -3.5506
 1013MOL0     H39766   3.098   4.192   4.572 -2.3107 -0.5729 -3.2330
 1013MOL0     H39767   2.940   4.146   4.623  3.6065 -4.5026 -0.3533
 1013MOL0     H39768   3.052   4.414   4.562 -0.3038 -0.6954  0.6497
 1013MOL0     H39769   2.968   4.413   4.713 -0.7535 -1.0964  0.5849
 1013MOL0     H39770   2.756   4.324   4.589 -1.1316  0.7021  0.7557
 1013MOL0     H39771   2.857   4.351   4.438 -2.4170  3.6283  0.2123
 1013MOL0     H39772   2.850   4.602   4.481  0.0500  1.6602  1.2703
 1013MOL0     H39773   2.830   4.557   4.654  3.2003 -2.7753 -0.4307
 1013MOL0     H39774   3.437   4.393   5.402  1.3603  0.5671  0.9098
 1013MOL0     H39775   3.449   4.619   5.479  0.5061 -0.7791 -0.1520
 1013MOL0     H39776   3.309   5.026   5.502  2.3398 -1.3473  1.0627
 1013MOL0     H39777   3.321   5.224   5.596 -0.6819 -0.7634 -0.1407
 1013MOL0     H39778   5.003   5.530   5.776 -1.6641 -0.6392  1.5896
 1013MOL0     H39779   5.176   5.645   5.893 -0.6439 -0.2994 -1.1047
 1013MOL0     H39780   5.418   6.169   5.732  1.2217  1.9843 -0.8511
 1013MOL0     H39781   5.515   6.377   5.853  1.9970  0.1061  2.7044
 1013MOL0     H39782   5.640   6.474   6.266  1.8858  0.2993  0.2254
 1013MOL0     H39783   5.690   6.315   6.204 -1.3438 -0.8820 -0.3945
 1013MOL0     H39784   5.838   6.414   6.052 -3.1175 -2.2415  0.9927
 1013MOL0     H39785   5.862   6.479   6.214 -0.4648  1.1335  0.2246
 1013MOL0     H39786   5.763   6.607   5.960 -2.6187  1.2404 -0.0745
 1013MOL0     H39787   5.702   6.673   6.111  2.3777  3.0345 -0.3794
 1013MOL0     H39788   5.965   6.704   6.172  0.2614  1.5582 -0.0974
 1013MOL0     H39789   5.892   6.799   6.040 -0.0734 -0.0380 -0.3482
 1013MOL0     H39790   6.140   6.595   5.796 -1.0349  0.5875 -0.6209
 1013MOL0     H39791   5.492   6.207   6.214 -4.3406 -1.0277  2.0221
 1013MOL0     H39792   5.416   6.003   6.253 -1.2402 -0.8246  0.8089
 1013MOL0     H39793   5.251   6.037   6.213 -0.0009 -0.0104  1.4632
 1013MOL0     H39794   5.346   5.903   6.126 -1.8932  0.2378 -0.1386
 1014MOL0     O39795   0.571   5.124   6.476  0.6453  0.0570  0.2697
 1014MOL0     C39796   0.522   5.162   6.585 -0.4208 -0.5217  0.5357
 1014MOL0     O39797   0.388   5.173   6.614 -0.0730 -0.6502 -0.6835
 1014MOL0     C39798   0.303   5.141   6.513  0.2616 -0.0319 -0.0176
 1014MOL0     C39799   0.232   5.020   6.531 -0.0698  0.6162 -0.5046
 1014MOL0     C39800   0.118   4.989   6.454  0.9838  0.4446  1.1523
 1014MOL0     C39801   0.073   5.080   6.352 -0.1700 -0.5284  0.6840
 1014MOL0     O39802  -0.040   5.077   6.272 -0.5822 -0.1246 -0.0419
 1014MOL0     C39803  -0.154   5.005   6.325 -0.2928  0.3933 -0.7884
 1014MOL0     C39804  -0.275   5.024   6.231 -0.3953  0.0229 -0.1672
 1014MOL0     C39805  -0.407   4.944   6.264 -0.3976 -0.0375 -0.6518
 1014MOL0     C39806  -0.519   4.990   6.161 -0.0106 -0.2486 -0.3810
 1014MOL0     C39807  -0.653   4.909   6.177  0.2699  0.4999  0.6471
 1014MOL0     C39808  -0.734   4.973   6.299 -0.5816 -0.0049  0.2654
 1014MOL0     C39809  -0.877   4.917   6.305 -0.0830  0.6751  0.6744
 1014MOL0     C39810  -0.955   4.999   6.409 -0.0058  0.5019 -0.2766
 1014MOL0     N39811  -1.077   4.927   6.445 -0.0204  0.5953 -0.4976
 1014MOL0     C39812  -1.176   4.883   6.356  0.1759 -0.5617 -0.0736
 1014MOL0     C39813  -1.279   4.842   6.430 -0.3646  0.0045 -0.5141
 1014MOL0     C39814  -1.412   4.768   6.394 -0.0290  0.7573  1.0541
 1014MOL0     C39815  -1.504   4.736   6.515 -0.1440 -0.5779 -0.1290
 1014MOL0     C39816  -1.635   4.674   6.470 -0.2284 -0.0647  0.5281
 1014MOL0     C39817  -1.727   4.661   6.594 -0.1239  0.2555  0.5212
 1014MOL0     O39818  -1.687   4.536   6.659 -0.2616 -0.5295  0.4611
 1014MOL0     C39819  -1.718   4.528   6.798 -0.6605 -0.8094 -0.6022
 1014MOL0     C39820  -1.838   4.570   6.853 -0.3030 -0.9971 -0.6035
 1014MOL0     C39821  -1.859   4.582   6.993 -0.0402 -0.5531  0.5903
 1014MOL0     C39822  -2.004   4.619   7.026 -0.0093 -0.3310  0.1205
 1014MOL0     C39823  -1.753   4.540   7.079  0.5568  0.5577  0.8770
 1014MOL0     C39824  -1.763   4.572   7.221 -0.0320  0.1158  0.4798
 1014MOL0     O39825  -1.698   4.482   7.304 -0.6402 -0.2736  0.0115
 1014MOL0     C39826  -1.680   4.510   7.433  0.6790 -0.5937 -0.1079
 1014MOL0     C39827  -1.781   4.472   7.527 -0.4207 -0.6704 -0.1325
 1014MOL0     C39828  -1.769   4.498   7.667  0.6065 -0.0163  0.8330
 1014MOL0     C39829  -1.673   4.585   7.710 -0.6000 -0.2234  0.1707
 1014MOL0     O39830  -1.667   4.638   7.838 -0.0973  0.0453  0.0275
 1014MOL0     C39831  -1.737   4.574   7.947  0.0753  0.1349  0.5083
 1014MOL0     C39832  -1.643   4.475   8.023  1.3328 -0.3324  1.2001
 1014MOL0     C39833  -1.710   4.404   8.145  0.2396 -1.5105 -0.7322
 1014MOL0     C39834  -1.635   4.455   8.277  0.4652 -0.8221  0.3611
 1014MOL0     C39835  -1.693   4.413   8.411 -0.5471  0.1638 -0.3453
 1014MOL0     C39836  -1.651   4.272   8.459 -0.3032  0.8936 -0.1936
 1014MOL0     C39837  -1.729   4.235   8.587 -0.6503 -0.9284 -0.3914
 1014MOL0     C39838  -1.713   4.322   8.711  0.0658 -0.2188  1.2268
 1014MOL0    Cl39839  -1.769   4.229   8.854 -0.3049  0.1965  0.1062
 1014MOL0     C39840  -1.572   4.623   7.619  0.4003  0.4898 -0.2354
 1014MOL0     C39841  -1.573   4.583   7.486 -0.0965 -0.8052 -0.2274
 1014MOL0     O39842  -1.829   4.668   7.256 -0.4509  0.5779 -0.3686
 1014MOL0     C39843  -1.634   4.490   7.023  0.4486  0.1265 -0.2123
 1014MOL0     C39844  -1.618   4.489   6.887  0.0605  0.3306  0.1772
 1014MOL0     N39845  -1.245   4.869   6.558 -0.5819  0.3662 -0.1870
 1014MOL0     N39846  -1.120   4.910   6.570  0.1979 -0.4038 -0.5061
 1014MOL0     C39847   0.150   5.197   6.331  0.2939 -0.4027 -0.8888
 1014MOL0     C39848   0.258   5.228   6.419 -0.1056  0.2391  0.1056
 1014MOL0     C39849   0.622   5.215   6.684  0.1527  0.0252  1.0214
 1014MOL0     C39850   0.756   5.185   6.670 -0.8850 -0.0140  0.3132
 1014MOL0     C39851   0.854   5.229   6.750  0.8282 -0.2677  0.3383
 1014MOL0     C39852   0.827   5.314   6.851 -0.1158 -0.3745  0.3383
 1014MOL0     O39853   0.921   5.350   6.937 -0.3402  0.1928 -0.2167
 1014MOL0     C39854   0.920   5.485   6.980 -0.9108 -0.6947  0.6197
 1014MOL0     C39855   1.022   5.508   7.084 -0.3817  0.3033  0.0516
 1014MOL0     C39856   0.993   5.409   7.204  0.4483 -0.0069  0.4047
 1014MOL0     C39857   0.884   5.457   7.299  0.3695  0.8394  0.2565
 1014MOL0     C39858   0.755   5.477   7.238  0.4309 -0.8837  0.0426
 1014MOL0     C39859   0.637   5.494   7.218  0.3656 -0.2578 -0.5640
 1014MOL0     C39860   0.700   5.361   6.862  0.0728 -0.0699 -0.2473
 1014MOL0     C39861   0.594   5.313   6.781 -1.1486 -1.3175 -0.5604
 1014MOL0     C39862   0.461   5.372   6.819 -0.4673 -0.0220  0.6822
 1014MOL0     H39863   0.265   4.945   6.602 -3.9034 -2.3574 -1.5284
 1014MOL0     H39864   0.067   4.897   6.479  3.6303 -1.1592  1.0552
 1014MOL0     H39865  -0.185   5.048   6.421 -0.3685  1.3631 -1.2285
 1014MOL0     H39866  -0.126   4.900   6.340  0.5047  0.5879 -0.8241
 1014MOL0     H39867  -0.279   5.133   6.226 -0.0842  0.0731  0.4868
 1014MOL0     H39868  -0.249   4.992   6.130  2.4115 -3.1510  1.3308
 1014MOL0     H39869  -0.392   4.836   6.263 -1.0976 -0.1382 -1.8232
 1014MOL0     H39870  -0.440   4.972   6.365 -1.7594  1.2442 -1.4156
 1014MOL0     H39871  -0.540   5.097   6.173  0.5189 -0.0350 -1.2689
 1014MOL0     H39872  -0.467   4.980   6.066  1.5636  0.0307  0.4086
 1014MOL0     H39873  -0.615   4.808   6.191  1.6494  0.7342 -1.1045
 1014MOL0     H39874  -0.713   4.914   6.086 -1.3144 -2.0228  1.4523
 1014MOL0     H39875  -0.682   4.958   6.394 -0.7273 -0.6122  0.2490
 1014MOL0     H39876  -0.740   5.082   6.285 -1.0459 -0.2806 -1.9666
 1014MOL0     H39877  -0.860   4.813   6.333 -1.0531  0.3016 -0.0464
 1014MOL0     H39878  -0.930   4.922   6.209 -1.1994  0.9428  1.2835
 1014MOL0     H39879  -0.898   5.000   6.503 -2.5541 -0.9623  1.3920
 1014MOL0     H39880  -0.978   5.098   6.369  1.4676  0.8365 -0.3839
 1014MOL0     H39881  -1.169   4.863   6.250  0.1999 -1.9471  0.1775
 1014MOL0     H39882  -1.390   4.683   6.329 -1.7741  2.6736 -2.3442
 1014MOL0     H39883  -1.461   4.818   6.309  1.5793 -2.2882 -1.8908
 1014MOL0     H39884  -1.446   4.667   6.578  0.0408 -2.0580 -1.8528
 1014MOL0     H39885  -1.527   4.820   6.582 -2.7673 -2.1245  1.0280
 1014MOL0     H39886  -1.674   4.745   6.397  2.0637 -0.5757 -1.3189
 1014MOL0     H39887  -1.619   4.583   6.412 -3.2051  0.5500 -1.4662
 1014MOL0     H39888  -1.727   4.754   6.652 -2.1467  1.1400 -0.7583
 1014MOL0     H39889  -1.826   4.649   6.548  1.1570 -3.3261 -1.7081
 1014MOL0     H39890  -1.911   4.612   6.784  0.6301  0.6048 -0.6512
 1014MOL0     H39891  -2.002   4.728   7.026  1.5670 -0.1345 -4.4106
 1014MOL0     H39892  -2.026   4.576   7.124  1.5907  2.2349  1.7023
 1014MOL0     H39893  -2.075   4.578   6.953 -1.4081 -0.7765  1.6726
 1014MOL0     H39894  -1.861   4.406   7.493 -1.0427 -0.2535  0.4905
 1014MOL0     H39895  -1.834   4.446   7.736  2.4600  1.2267  3.7320
 1014MOL0     H39896  -1.760   4.656   8.016  0.0711  0.5687 -0.0005
 1014MOL0     H39897  -1.831   4.530   7.914  0.7685 -0.0383 -1.3361
 1014MOL0     H39898  -1.620   4.392   7.957  1.1477 -1.0989  2.0734
 1014MOL0     H39899  -1.548   4.526   8.043  1.9780 -1.1082  0.1517
 1014MOL0     H39900  -1.688   4.297   8.144  1.1944 -1.3301 -0.0161
 1014MOL0     H39901  -1.819   4.408   8.158  0.5741 -0.0481  2.6445
 1014MOL0     H39902  -1.649   4.563   8.279  0.2407 -0.8376 -0.2238
 1014MOL0     H39903  -1.529   4.428   8.288  1.0699  0.9879 -0.6864
 1014MOL0     H39904  -1.642   4.479   8.482 -0.2847 -0.3676 -0.0374
 1014MOL0     H39905  -1.799   4.440   8.424 -0.1841  1.5370 -0.0512
 1014MOL0     H39906  -1.543   4.267   8.472 -0.5682 -3.3722  2.0348
 1014MOL0     H39907  -1.683   4.194   8.390 -1.5822  0.2018  1.1272
 1014MOL0     H39908  -1.702   4.132   8.611 -2.3625 -0.5956  3.7010
 1014MOL0     H39909  -1.836   4.221   8.568 -1.0145  1.8745 -0.7308
 1014MOL0     H39910  -1.776   4.410   8.690  1.0927  0.9787  2.9191
 1014MOL0     H39911  -1.611   4.359   8.721 -0.0012  1.1239 -1.8594
 1014MOL0     H39912  -1.501   4.698   7.653 -0.9122  1.5885  0.1706
 1014MOL0     H39913  -1.502   4.627   7.416 -0.9136  0.4045 -0.3411
 1014MOL0     H39914  -1.543   4.475   7.079  1.5478  2.1416 -1.3711
 1014MOL0     H39915  -1.524   4.458   6.842  1.0057  2.5009  0.5340
 1014MOL0     H39916   0.118   5.265   6.253  0.5239 -0.3128 -0.9068
 1014MOL0     H39917   0.307   5.325   6.419  3.0074 -1.2040 -0.4118
 1014MOL0     H39918   0.797   5.117   6.596  1.6346 -0.0599  1.6559
 1014MOL0     H39919   0.957   5.195   6.754  0.6770 -0.6547  1.4540
 1014MOL0     H39920   0.958   5.549   6.899 -1.6981  0.2104  0.9491
 1014MOL0     H39921   0.822   5.522   7.009 -1.3618 -1.7264  0.4539
 1014MOL0     H39922   1.024   5.613   7.113  1.4458 -0.0741  1.5146
 1014MOL0     H39923   1.118   5.478   7.040  0.4981  1.7535  0.9139
 1014MOL0     H39924   0.971   5.307   7.172 -1.4532  0.3378  0.4749
 1014MOL0     H39925   1.078   5.402   7.272  1.1090 -0.6138 -0.4631
 1014MOL0     H39926   0.918   5.550   7.346  1.2837  1.4232 -1.4857
 1014MOL0     H39927   0.878   5.382   7.379 -0.0133  1.2444  0.6065
 1014MOL0     H39928   0.532   5.516   7.226 -0.0926 -2.6811  4.8084
 1014MOL0     H39929   0.664   5.413   6.950 -1.6852  0.1520 -1.0571
 1014MOL0     H39930   0.454   5.435   6.908 -0.7239  0.5023  0.2981
 1014MOL0     H39931   0.423   5.430   6.734 -0.1849 -0.9882 -0.1282
 1014MOL0     H39932   0.399   5.283   6.827 -0.0534 -0.4807 -0.8342
 1015MOL0     O39933   9.419   9.766   1.059  0.4125 -0.6429  1.1316
 1015MOL0     C39934   9.345   9.862   1.086 -0.5157 -0.0627 -0.4321
 1015MOL0     O39935   9.305   9.952   0.998 -0.2917 -0.5143  0.3046
 1015MOL0     C39936   9.360   9.942   0.876 -0.4259 -1.1311  0.5122
 1015MOL0     C39937   9.499   9.940   0.850 -0.4941 -0.4620 -0.3685
 1015MOL0     C39938   9.545   9.927   0.716 -0.3050 -0.4353  0.2226
 1015MOL0     C39939   9.457   9.927   0.611  0.4078 -0.0576  0.3966
 1015MOL0     O39940   9.483   9.912   0.480 -0.2693 -0.2536  0.5622
 1015MOL0     C39941   9.585   9.825   0.447  0.6013 -0.5454 -1.3094
 1015MOL0     C39942   9.713   9.900   0.419  0.1524 -0.9017  1.3627
 1015MOL0     C39943   9.841   9.801   0.403  0.5277 -0.7867 -0.3192
 1015MOL0     C39944   9.965   9.892   0.370  0.6305  0.2263  0.4338
 1015MOL0     C39945   9.969   9.951   0.226 -0.4936  0.4703  0.5045
 1015MOL0     C39946  10.010   9.844   0.127  0.0727  0.0663 -0.3972
 1015MOL0     C39947  10.062   9.897  -0.010  0.0345  0.7579 -0.0388
 1015MOL0     C39948   9.948   9.933  -0.113 -0.8174 -0.3000  0.4878
 1015MOL0     N39949  10.016   9.992  -0.229  0.0312 -0.1725 -0.1205
 1015MOL0     C39950   9.979  10.112  -0.291 -0.2535  0.1593 -0.1420
 1015MOL0     C39951  10.033  10.109  -0.416 -0.7898 -1.1064  0.3745
 1015MOL0     C39952  10.000  10.186  -0.539 -0.2701  0.6025 -1.1273
 1015MOL0     C39953  10.117  10.209  -0.639 -0.5321 -0.3507 -0.5692
 1015MOL0     C39954  10.062  10.270  -0.768 -0.8474 -0.4257 -0.6902
 1015MOL0     C39955  10.173  10.336  -0.847  0.4516 -1.0023 -0.2702
 1015MOL0     O39956  10.180  10.476  -0.783  0.1063  0.1827 -0.1185
 1015MOL0     C39957  10.085  10.564  -0.821  0.3026 -0.8218  0.6727
 1015MOL0     C39958  10.042  10.587  -0.952 -0.5467 -0.1447 -0.2112
 1015MOL0     C39959   9.952  10.695  -0.984  0.1614  0.4257 -0.2187
 1015MOL0     C39960   9.927  10.706  -1.135  0.9529  0.0589  0.5083
 1015MOL0     C39961   9.898  10.771  -0.883  0.2645 -0.4758  0.1906
 1015MOL0     C39962   9.804  10.881  -0.901  0.0784 -0.5257 -0.1779
 1015MOL0     O39963   9.738  10.894  -1.024 -0.3673  0.9349  0.0027
 1015MOL0     C39964   9.656  11.002  -1.046 -0.2921  0.0964  0.1579
 1015MOL0     C39965   9.678  11.127  -1.007 -0.0412  0.1641  0.2437
 1015MOL0     C39966   9.580  11.227  -1.021 -0.4837 -0.0118  0.0686
 1015MOL0     C39967   9.463  11.193  -1.091  0.0208  0.6363  1.0105
 1015MOL0     O39968   9.357  11.285  -1.107 -0.4165  1.4762  0.3787
 1015MOL0     C39969   9.339  11.374  -1.005 -0.8250 -0.5915 -0.9714
 1015MOL0     C39970   9.197  11.414  -1.002  0.7618 -0.6104  0.4123
 1015MOL0     C39971   9.180  11.496  -0.870 -1.0001  0.0776  0.5461
 1015MOL0     C39972   9.040  11.567  -0.879 -0.0508  0.0572 -0.3940
 1015MOL0     C39973   9.034  11.692  -0.781  0.0037  0.9378 -0.1950
 1015MOL0     C39974   9.104  11.809  -0.841 -0.5100  0.6946 -0.1478
 1015MOL0     C39975   9.072  11.951  -0.802 -0.1462  0.0911  0.4487
 1015MOL0     C39976   9.061  11.957  -0.655 -0.3011 -0.1292  0.4021
 1015MOL0    Cl39977   9.209  11.926  -0.578 -0.1666 -0.0793  0.1173
 1015MOL0     C39978   9.443  11.067  -1.140  1.2689  0.3809 -0.9310
 1015MOL0     C39979   9.544  10.970  -1.114  0.8780 -0.0522  1.0788
 1015MOL0     O39980   9.766  10.942  -0.798  0.2672  0.4205 -0.0186
 1015MOL0     C39981   9.945  10.751  -0.750 -0.3839  0.3484  0.2940
 1015MOL0     C39982  10.031  10.651  -0.718 -0.1462  0.7677 -0.9401
 1015MOL0     N39983  10.119   9.997  -0.427 -0.1051 -0.4681 -0.0684
 1015MOL0     N39984  10.114   9.933  -0.312  0.2443  0.1009  0.1616
 1015MOL0     C39985   9.321   9.936   0.632  0.7063 -0.2450 -0.2370
 1015MOL0     C39986   9.280   9.947   0.765 -0.2214 -0.5498  1.2123
 1015MOL0     C39987   9.287   9.882   1.226  0.2444  0.4379  0.8700
 1015MOL0     C39988   9.375   9.835   1.328 -0.2474 -0.4411  1.0298
 1015MOL0     C39989   9.342   9.852   1.462 -0.2952 -0.1037  0.1708
 1015MOL0     C39990   9.226   9.915   1.509 -0.3707  0.3391 -0.5015
 1015MOL0     O39991   9.193   9.933   1.639  0.2843 -0.6125  0.2610
 1015MOL0     C39992   9.200  10.068   1.675  0.1947 -0.0847  1.1240
 1015MOL0     C39993   9.340  10.120   1.686 -0.9935 -0.3803  0.4187
 1015MOL0     C39994   9.437  10.039   1.771  0.4319  0.1606 -0.6982
 1015MOL0     C39995   9.568  10.125   1.785 -0.1959  0.0651 -0.0383
 1015MOL0     C39996   9.671  10.074   1.864 -0.0060  0.4708 -0.2223
 1015MOL0     C39997   9.766  10.023   1.925  0.4259 -0.2068 -0.1448
 1015MOL0     C39998   9.137   9.962   1.407  0.0232  1.2364 -0.4957
 1015MOL0     C39999   9.157   9.940   1.269 -0.5756  0.6851  0.2478
 1015MOL0     C40000   9.052   9.979   1.175  0.3764  0.0878  0.4862
 1015MOL0     H40001   9.561   9.946   0.938 -0.6786 -2.6047 -0.0439
 1015MOL0     H40002   9.652   9.921   0.697 -0.2900  1.3846 -0.5014
 1015MOL0     H40003   9.564   9.774   0.352  2.0805 -2.3102 -0.7593
 1015MOL0     H40004   9.601   9.753   0.528 -0.5134  1.2014  0.5466
 1015MOL0     H40005   9.699   9.955   0.326 -2.7585 -2.6604  0.6183
 1015MOL0     H40006   9.720   9.964   0.507 -2.9736 -1.1731  1.9451
 1015MOL0     H40007   9.857   9.747   0.497 -3.0612 -0.9540  0.3656
 1015MOL0     H40008   9.821   9.735   0.318 -2.7635  2.6531 -2.5766
 1015MOL0     H40009   9.986   9.974   0.439  1.4588  1.2686 -1.0039
 1015MOL0     H40010  10.052   9.827   0.386 -0.8177 -2.2684 -1.1249
 1015MOL0     H40011  10.036  10.038   0.221 -0.3495  0.3907  1.0139
 1015MOL0     H40012   9.871   9.991   0.198 -0.5817 -0.2176 -0.2097
 1015MOL0     H40013  10.097   9.794   0.171 -1.9912 -2.7085  0.8726
 1015MOL0     H40014   9.929   9.770   0.127  0.4314 -0.3253 -0.6476
 1015MOL0     H40015  10.136   9.828  -0.052  0.5468  0.7730  0.8429
 1015MOL0     H40016  10.111   9.992   0.010 -1.5600  2.2652 -2.6280
 1015MOL0     H40017   9.903   9.835  -0.133  2.8068 -2.5622  2.2806
 1015MOL0     H40018   9.873   9.999  -0.069 -1.5722 -0.5153 -0.4350
 1015MOL0     H40019   9.915  10.181  -0.236  2.8894  2.5278  0.8140
 1015MOL0     H40020   9.948  10.279  -0.513 -1.9616 -1.2896  3.2546
 1015MOL0     H40021   9.915  10.130  -0.580 -3.2195  0.5705  4.1233
 1015MOL0     H40022  10.197  10.275  -0.604 -0.5963 -0.4677 -0.1983
 1015MOL0     H40023  10.157  10.113  -0.671 -2.0432 -0.6583 -1.6390
 1015MOL0     H40024  10.017  10.193  -0.831  1.8562 -1.7977 -1.0792
 1015MOL0     H40025   9.979  10.338  -0.747  0.2743  2.4143 -4.3492
 1015MOL0     H40026  10.267  10.280  -0.841  0.8204 -0.2545  2.7774
 1015MOL0     H40027  10.149  10.334  -0.953  2.8798  0.2347 -0.9154
 1015MOL0     H40028  10.085  10.524  -1.029  0.1647 -0.5138  0.4801
 1015MOL0     H40029   9.978  10.797  -1.168 -1.2082  1.0488 -0.2639
 1015MOL0     H40030   9.819  10.722  -1.144  1.2427  4.4251  2.4640
 1015MOL0     H40031   9.956  10.621  -1.197 -2.0553 -2.2528  1.9777
 1015MOL0     H40032   9.761  11.148  -0.940 -0.8870 -0.7283  1.6276
 1015MOL0     H40033   9.606  11.331  -1.000  4.0082 -0.5620 -1.5702
 1015MOL0     H40034   9.378  11.330  -0.913 -0.4828  1.3556 -0.1449
 1015MOL0     H40035   9.398  11.461  -1.034  0.4525 -1.5111 -1.2039
 1015MOL0     H40036   9.167  11.470  -1.091 -2.5967  0.3731  2.0319
 1015MOL0     H40037   9.131  11.327  -1.005 -2.6318  1.6472  2.5316
 1015MOL0     H40038   9.256  11.570  -0.846 -2.7855  1.2543  3.0780
 1015MOL0     H40039   9.178  11.415  -0.795  1.7941 -3.4572 -2.7595
 1015MOL0     H40040   8.958  11.499  -0.852  0.1207  0.1996  0.5068
 1015MOL0     H40041   9.013  11.598  -0.980 -4.4219  1.5456  0.9811
 1015MOL0     H40042   8.931  11.726  -0.765 -0.2274 -0.1154  0.6690
 1015MOL0     H40043   9.067  11.662  -0.681  0.3493  1.8316 -0.0276
 1015MOL0     H40044   9.094  11.803  -0.949  0.8580 -1.9792 -0.2116
 1015MOL0     H40045   9.210  11.800  -0.815 -1.1699  1.5763  3.4946
 1015MOL0     H40046   8.976  11.984  -0.842  0.4227  0.6451 -0.4796
 1015MOL0     H40047   9.144  12.031  -0.822 -0.3008  0.2227  0.4188
 1015MOL0     H40048   8.987  11.884  -0.620 -1.2020  0.3949 -0.3792
 1015MOL0     H40049   9.026  12.053  -0.616  0.6658 -0.4490  2.1589
 1015MOL0     H40050   9.352  11.041  -1.194  0.1826 -0.2855  1.1194
 1015MOL0     H40051   9.518  10.869  -1.147  0.7821  0.0790  0.7429
 1015MOL0     H40052   9.911  10.820  -0.673 -3.1457 -1.2516  0.6177
 1015MOL0     H40053  10.061  10.653  -0.613 -0.8291  3.0548 -0.7253
 1015MOL0     H40054   9.244   9.928   0.555 -0.4170  1.8392  0.5763
 1015MOL0     H40055   9.175   9.970   0.774  0.1255  1.9903 -0.2101
 1015MOL0     H40056   9.471   9.789   1.310  1.0507  2.2253  0.6202
 1015MOL0     H40057   9.400   9.808   1.543  0.9954 -0.1300 -0.7228
 1015MOL0     H40058   9.144  10.130   1.605  0.3868 -2.5610 -1.4412
 1015MOL0     H40059   9.147  10.066   1.770 -0.5838  0.6767  0.7182
 1015MOL0     H40060   9.340  10.228   1.704 -3.1078  0.1775 -2.2189
 1015MOL0     H40061   9.399  10.116   1.593 -0.8092 -2.0184  0.5858
 1015MOL0     H40062   9.393  10.027   1.871 -0.0201  0.1106 -0.9022
 1015MOL0     H40063   9.454   9.938   1.733  0.9111 -1.6128  3.6202
 1015MOL0     H40064   9.539  10.222   1.827  0.5305  1.2696 -2.1137
 1015MOL0     H40065   9.606  10.147   1.684 -4.3037  1.8769 -1.4463
 1015MOL0     H40066   9.845   9.974   1.977 -1.8146 -2.7744  1.1077
 1015MOL0     H40067   9.041  10.006   1.430 -0.3064  1.1352 -1.6303
 1015MOL0     H40068   8.949   9.982   1.212 -0.9674  1.6566 -2.8637
 1015MOL0     H40069   9.077  10.075   1.131 -1.5795  0.2428 -0.4036
 1015MOL0     H40070   9.042   9.915   1.086  1.7401  0.3389  0.1319
 1016MOL0     O40071   9.334   0.642   4.267  0.5022  0.0677 -0.0932
 1016MOL0     C40072   9.236   0.587   4.212 -1.1289  0.3733 -0.5103
 1016MOL0     O40073   9.224   0.553   4.082  0.1899 -0.7373  0.3986
 1016MOL0     C40074   9.327   0.601   4.002 -0.3461  0.6796 -0.0952
 1016MOL0     C40075   9.328   0.738   3.957 -0.4410  0.6900  0.0268
 1016MOL0     C40076   9.441   0.779   3.894 -0.4644 -0.2300 -0.0323
 1016MOL0     C40077   9.546   0.699   3.853  0.7798  0.2162  0.1903
 1016MOL0     O40078   9.644   0.756   3.772 -0.4163  0.0931  1.0500
 1016MOL0     C40079   9.756   0.669   3.716  0.1489 -0.6515 -0.1805
 1016MOL0     C40080   9.838   0.760   3.621  0.1140  0.4790 -0.2524
 1016MOL0     C40081   9.756   0.794   3.490 -1.1214 -0.0520 -0.2883
 1016MOL0     C40082   9.840   0.907   3.413 -0.0270 -0.3423  1.0457
 1016MOL0     C40083   9.759   0.947   3.288 -0.2768 -0.5680  0.6773
 1016MOL0     C40084   9.862   1.034   3.209 -0.7423 -1.3251 -0.3182
 1016MOL0     C40085   9.831   1.069   3.058 -0.3456  0.5611 -0.3585
 1016MOL0     C40086   9.938   1.155   2.998  0.3712  0.0752 -0.0475
 1016MOL0     N40087   9.966   1.284   3.066 -0.0926  0.1602 -0.2380
 1016MOL0     C40088  10.063   1.289   3.152 -0.5995  0.1491  0.1594
 1016MOL0     C40089  10.041   1.383   3.240 -0.0692 -0.2917 -1.2672
 1016MOL0     C40090  10.126   1.410   3.369  0.2373 -0.1624 -0.1399
 1016MOL0     C40091  10.056   1.448   3.497 -0.1732  0.0360  0.2256
 1016MOL0     C40092  10.154   1.505   3.604  0.2148 -0.0995 -0.5536
 1016MOL0     C40093  10.279   1.581   3.567 -0.1024  0.1793  0.5031
 1016MOL0     O40094  10.333   1.640   3.685 -0.8142 -0.6221 -0.5047
 1016MOL0     C40095  10.442   1.717   3.686  0.0775  0.0315  0.2063
 1016MOL0     C40096  10.510   1.749   3.567 -0.0130 -1.3362 -0.3568
 1016MOL0     C40097  10.633   1.823   3.566 -0.0777  0.1772  0.2858
 1016MOL0     C40098  10.729   1.801   3.451 -0.1173 -0.1554 -0.3200
 1016MOL0     C40099  10.671   1.895   3.686  0.9604 -0.2702  0.1831
 1016MOL0     C40100  10.785   1.989   3.701  0.0642 -0.2282 -0.0431
 1016MOL0     O40101  10.831   2.009   3.823  0.1660 -0.1084  0.1547
 1016MOL0     C40102  10.934   2.097   3.840  0.3819 -0.4920 -0.0457
 1016MOL0     C40103  11.068   2.062   3.829 -0.1716 -0.0705  0.2536
 1016MOL0     C40104  11.167   2.159   3.842 -0.6527 -0.4197  0.4532
 1016MOL0     C40105  11.137   2.292   3.872  0.0179 -0.1352  1.2997
 1016MOL0     O40106  11.219   2.404   3.878 -0.4126  0.8522 -0.5933
 1016MOL0     C40107  11.351   2.389   3.815  0.4105 -0.3354 -0.9870
 1016MOL0     C40108  11.394   2.529   3.774 -0.4309  0.0991 -0.8405
 1016MOL0     C40109  11.549   2.554   3.755  0.5090 -0.1339 -0.5543
 1016MOL0     C40110  11.586   2.704   3.732  0.0884  0.2499  0.5206
 1016MOL0     C40111  11.736   2.718   3.751 -0.2387  0.2326 -0.7362
 1016MOL0     C40112  11.813   2.817   3.655  0.3933 -0.1911  0.4388
 1016MOL0     C40113  11.935   2.873   3.722  0.3295  0.0023  0.3330
 1016MOL0     C40114  11.989   3.003   3.672 -0.1460  0.2934 -1.2548
 1016MOL0    Cl40115  12.054   2.981   3.512 -0.2521 -0.2007  0.7888
 1016MOL0     C40116  11.005   2.327   3.878 -0.0953 -0.6190  0.4779
 1016MOL0     C40117  10.904   2.231   3.862 -0.3547 -0.3139 -0.7724
 1016MOL0     O40118  10.829   2.047   3.598  0.6699 -0.3882 -0.3287
 1016MOL0     C40119  10.588   1.863   3.801  0.1350  0.1754  0.2722
 1016MOL0     C40120  10.482   1.772   3.803  0.5568 -0.6004  0.1217
 1016MOL0     N40121   9.915   1.439   3.210  0.1562  0.3322  0.4722
 1016MOL0     N40122   9.867   1.369   3.112  0.3363  0.0529 -0.2253
 1016MOL0     C40123   9.542   0.563   3.890  0.2547 -0.6369  0.4276
 1016MOL0     C40124   9.434   0.522   3.963 -0.2520 -0.0927 -0.1000
 1016MOL0     C40125   9.124   0.544   4.302 -0.3223 -0.2430  0.3365
 1016MOL0     C40126   9.064   0.632   4.380 -0.1282 -0.3754 -0.2306
 1016MOL0     C40127   8.948   0.602   4.458 -0.6681  0.0362 -0.0859
 1016MOL0     C40128   8.894   0.471   4.461  0.7627 -0.5417  0.3639
 1016MOL0     O40129   8.796   0.424   4.535 -0.0668  0.2524 -0.4465
 1016MOL0     C40130   8.709   0.518   4.601 -0.1340  0.5376  0.0528
 1016MOL0     C40131   8.570   0.468   4.591  0.8902 -0.0019  0.5888
 1016MOL0     C40132   8.463   0.587   4.603 -1.1665  0.5818  0.0791
 1016MOL0     C40133   8.334   0.568   4.532 -0.0423  0.2720 -0.0534
 1016MOL0     C40134   8.256   0.461   4.604 -0.2565  0.4737  0.6270
 1016MOL0     C40135   8.209   0.370   4.668 -0.2527 -0.0950 -1.0728
 1016MOL0     C40136   8.960   0.378   4.382 -0.5157  0.5830  0.7629
 1016MOL0     C40137   9.074   0.409   4.307  0.4335 -0.8421  0.2594
 1016MOL0     C40138   9.125   0.290   4.228  0.5803 -1.0731 -0.1771
 1016MOL0     H40139   9.248   0.799   3.999 -0.6317 -1.0403  2.4373
 1016MOL0     H40140   9.445   0.884   3.866  1.3679 -0.1681  0.3383
 1016MOL0     H40141   9.711   0.579   3.674  1.2216 -1.3906  0.1890
 1016MOL0     H40142   9.819   0.632   3.798 -1.0404 -0.7964  0.6967
 1016MOL0     H40143   9.861   0.850   3.678 -1.1335  1.4926 -1.2764
 1016MOL0     H40144   9.926   0.696   3.609 -0.5317 -0.3784 -0.5128
 1016MOL0     H40145   9.746   0.708   3.423  1.8421 -0.2925 -0.5613
 1016MOL0     H40146   9.655   0.821   3.522 -0.2633  3.2879  0.0289
 1016MOL0     H40147   9.851   0.997   3.473 -1.2364  2.9539 -3.2159
 1016MOL0     H40148   9.932   0.857   3.378  0.2073  2.2363 -2.5879
 1016MOL0     H40149   9.672   1.011   3.305  1.0752  1.3699  0.6531
 1016MOL0     H40150   9.728   0.867   3.220  1.2494 -0.2436 -0.4494
 1016MOL0     H40151   9.875   1.123   3.271  3.2218 -0.6243 -1.8780
 1016MOL0     H40152   9.962   0.990   3.215 -0.8108 -1.2467  2.0432
 1016MOL0     H40153   9.737   1.124   3.050  0.1419  1.1769 -2.5187
 1016MOL0     H40154   9.823   0.975   3.002 -0.4456 -1.1094  2.2931
 1016MOL0     H40155  10.033   1.101   2.998  1.1222  1.3645 -0.6927
 1016MOL0     H40156   9.901   1.178   2.897 -2.9787  0.9870  1.2353
 1016MOL0     H40157  10.147   1.222   3.164 -0.1245  0.0328 -3.0354
 1016MOL0     H40158  10.200   1.485   3.340  0.5557  0.5944  2.3443
 1016MOL0     H40159  10.184   1.322   3.399 -2.3447 -1.9048  0.1037
 1016MOL0     H40160   9.988   1.529   3.467 -0.0010  0.3377  0.6451
 1016MOL0     H40161  10.002   1.361   3.532 -0.4421 -0.6362 -1.7136
 1016MOL0     H40162  10.091   1.583   3.648  1.7668  1.6788 -1.3456
 1016MOL0     H40163  10.176   1.432   3.683 -1.8762 -0.4883 -0.2775
 1016MOL0     H40164  10.353   1.526   3.509 -1.7075  1.6136 -3.1983
 1016MOL0     H40165  10.253   1.665   3.501  0.0623  1.3084  1.8199
 1016MOL0     H40166  10.477   1.696   3.478 -0.7005  0.4061 -1.1715
 1016MOL0     H40167  10.821   1.765   3.498  0.3684 -0.2688 -1.3227
 1016MOL0     H40168  10.743   1.897   3.400  1.9246 -0.8184 -1.1154
 1016MOL0     H40169  10.689   1.738   3.371  1.3597  2.2479 -3.1660
 1016MOL0     H40170  11.098   1.957   3.828 -0.6253 -0.2131 -1.5022
 1016MOL0     H40171  11.269   2.125   3.826 -0.6778 -1.1366  1.7210
 1016MOL0     H40172  11.418   2.359   3.896 -1.5739 -4.4041 -0.6295
 1016MOL0     H40173  11.357   2.317   3.733  0.5911 -2.0432  0.4698
 1016MOL0     H40174  11.333   2.563   3.690  1.8886  0.9586 -2.2612
 1016MOL0     H40175  11.378   2.600   3.855  0.5062  0.8274 -1.2808
 1016MOL0     H40176  11.594   2.483   3.686  1.0550 -1.8425  1.4553
 1016MOL0     H40177  11.587   2.527   3.854  0.3725  2.8790  0.4345
 1016MOL0     H40178  11.539   2.783   3.792  2.6082  2.2571 -0.0021
 1016MOL0     H40179  11.563   2.732   3.629 -0.6115 -2.6472 -0.1924
 1016MOL0     H40180  11.751   2.742   3.857 -0.7847  2.7581 -1.1647
 1016MOL0     H40181  11.784   2.622   3.728 -1.7393 -0.3803 -1.4558
 1016MOL0     H40182  11.738   2.889   3.622  0.2904  0.4395  1.9592
 1016MOL0     H40183  11.839   2.771   3.559 -3.7424  1.0549 -1.4995
 1016MOL0     H40184  12.014   2.799   3.705  3.5708  2.3292  3.6103
 1016MOL0     H40185  11.929   2.886   3.830 -1.9534  0.1813  0.2229
 1016MOL0     H40186  12.069   3.042   3.737 -1.1341 -0.1322  0.2725
 1016MOL0     H40187  11.908   3.077   3.665 -2.8629 -2.5015 -1.3323
 1016MOL0     H40188  10.982   2.433   3.888  0.9805 -0.3776  0.4304
 1016MOL0     H40189  10.801   2.264   3.856  0.3429  2.1739 -0.3516
 1016MOL0     H40190  10.622   1.902   3.897  0.3764 -0.5141  0.4744
 1016MOL0     H40191  10.426   1.749   3.893 -1.4619 -3.3952 -1.6914
 1016MOL0     H40192   9.620   0.491   3.865  2.1039  0.5966  2.2639
 1016MOL0     H40193   9.449   0.416   3.985  3.9537  0.4275  0.4848
 1016MOL0     H40194   9.109   0.731   4.387  0.8687 -0.9424  2.4917
 1016MOL0     H40195   8.913   0.676   4.529  1.1524  0.4155  0.4552
 1016MOL0     H40196   8.742   0.501   4.704  0.1251 -2.7185 -0.4652
 1016MOL0     H40197   8.717   0.619   4.561  0.4020  0.1880 -0.7503
 1016MOL0     H40198   8.552   0.397   4.672 -0.8074  2.2190  2.2642
 1016MOL0     H40199   8.554   0.431   4.489 -0.1377  4.1479 -0.9699
 1016MOL0     H40200   8.441   0.595   4.710  1.4876 -1.5202  0.8863
 1016MOL0     H40201   8.502   0.684   4.569  0.5584  1.9689  5.1743
 1016MOL0     H40202   8.343   0.553   4.424  0.5766 -1.4054  0.1930
 1016MOL0     H40203   8.269   0.656   4.529 -1.8468 -0.9918  0.0896
 1016MOL0     H40204   8.189   0.283   4.727  0.4876 -0.7136 -1.7133
 1016MOL0     H40205   8.932   0.273   4.386  0.9433  0.1933  1.7011
 1016MOL0     H40206   9.226   0.307   4.192  0.8055 -0.7026  0.5993
 1016MOL0     H40207   9.134   0.197   4.285  2.8753 -1.6359 -1.3496
 1016MOL0     H40208   9.060   0.278   4.141  3.3816 -1.7535 -2.2925
 1017MOL0     O40209   5.594  10.591   5.818 -0.6051 -0.3397 -0.1435
 1017MOL0     C40210   5.505  10.549   5.744 -0.1374  0.3682  0.0210
 1017MOL0     O40211   5.392  10.485   5.783 -0.3039 -0.0387  0.7332
 1017MOL0     C40212   5.367  10.441   5.913 -0.0521 -0.0004 -0.4471
 1017MOL0     C40213   5.236  10.433   5.963 -0.4402  0.0701  0.0091
 1017MOL0     C40214   5.199  10.398   6.091  0.3998 -0.0812  0.0759
 1017MOL0     C40215   5.294  10.359   6.179  0.4275 -0.7135  0.0820
 1017MOL0     O40216   5.279  10.298   6.299 -0.3213 -0.0215 -0.0095
 1017MOL0     C40217   5.155  10.323   6.366 -0.5798 -0.9317  0.0786
 1017MOL0     C40218   5.141  10.274   6.515  0.2726  0.6574  0.1850
 1017MOL0     C40219   4.999  10.262   6.564  0.7220 -0.3013  0.8443
 1017MOL0     C40220   4.913  10.139   6.500  0.9411 -0.7327 -0.5060
 1017MOL0     C40221   4.774  10.132   6.569 -0.0090  0.3017 -0.5019
 1017MOL0     C40222   4.697  10.006   6.512  0.2478 -0.2969  0.0949
 1017MOL0     C40223   4.661  10.001   6.360  0.0819  0.5885 -0.3401
 1017MOL0     C40224   4.584   9.877   6.333 -0.0966 -0.3650 -0.6601
 1017MOL0     N40225   4.564   9.855   6.189  0.1941  0.9224  0.2255
 1017MOL0     C40226   4.611   9.749   6.121 -0.2341  0.1167 -0.1009
 1017MOL0     C40227   4.547   9.740   6.008 -0.2216  0.6144  0.3890
 1017MOL0     C40228   4.544   9.626   5.897 -0.2832 -0.6201  0.1003
 1017MOL0     C40229   4.684   9.588   5.844  0.3339  0.5898 -0.0755
 1017MOL0     C40230   4.700   9.495   5.723 -0.2712 -0.0445  0.5875
 1017MOL0     C40231   4.679   9.357   5.776  0.9510  0.7390 -0.4607
 1017MOL0     O40232   4.686   9.271   5.659  0.4000  0.3627  0.5809
 1017MOL0     C40233   4.678   9.132   5.653 -0.4765  0.1277 -0.0947
 1017MOL0     C40234   4.694   9.056   5.764 -1.2119  0.5573 -0.1247
 1017MOL0     C40235   4.686   8.916   5.759  0.5442 -0.2982 -0.1591
 1017MOL0     C40236   4.705   8.840   5.889  0.1376  0.0528  0.1986
 1017MOL0     C40237   4.670   8.847   5.636  0.1392  0.0670 -0.6657
 1017MOL0     C40238   4.655   8.699   5.615 -0.4029  1.3079 -1.0543
 1017MOL0     O40239   4.678   8.643   5.496  0.2260 -0.2358 -0.3789
 1017MOL0     C40240   4.667   8.508   5.470 -0.0993  0.0543  0.1159
 1017MOL0     C40241   4.726   8.406   5.540  1.0192 -0.5093 -1.0471
 1017MOL0     C40242   4.705   8.274   5.502  0.8369 -0.3203  0.1952
 1017MOL0     C40243   4.633   8.238   5.392  0.2182 -0.9093  0.2614
 1017MOL0     O40244   4.638   8.115   5.337  0.1474 -0.2394  0.2292
 1017MOL0     C40245   4.772   8.056   5.327 -0.0606 -0.2825  0.1273
 1017MOL0     C40246   4.787   7.948   5.216 -0.4619 -0.0035 -0.9606
 1017MOL0     C40247   4.830   8.009   5.072  0.1315 -0.4241 -0.0953
 1017MOL0     C40248   4.728   8.113   5.003 -0.1905 -0.3090 -0.5079
 1017MOL0     C40249   4.613   8.043   4.921 -0.9252  0.6587 -0.2398
 1017MOL0     C40250   4.522   8.145   4.844  0.4146 -0.7524  0.7733
 1017MOL0     C40251   4.603   8.227   4.735  0.2754  0.4736 -0.4856
 1017MOL0     C40252   4.692   8.142   4.642 -0.3240 -0.4863  0.1227
 1017MOL0    Cl40253   4.613   8.029   4.542 -0.0200  0.1153  0.0012
 1017MOL0     C40254   4.560   8.339   5.327  0.1421 -0.9242  0.6630
 1017MOL0     C40255   4.574   8.476   5.368  0.3016 -0.2322 -0.1268
 1017MOL0     O40256   4.625   8.635   5.718 -0.4135  0.5650  0.1478
 1017MOL0     C40257   4.651   8.929   5.530 -0.1177 -0.4264  0.4242
 1017MOL0     C40258   4.662   9.075   5.534 -0.4750 -0.3041 -0.0638
 1017MOL0     N40259   4.465   9.847   6.004  0.1159  0.2518 -0.3405
 1017MOL0     N40260   4.469   9.915   6.112 -0.2152 -0.1196 -0.0898
 1017MOL0     C40261   5.421  10.398   6.150  0.4712 -0.1736 -0.2418
 1017MOL0     C40262   5.458  10.422   6.013  0.5268 -0.4447  0.0359
 1017MOL0     C40263   5.511  10.594   5.607 -0.5578  0.5943  0.3462
 1017MOL0     C40264   5.394  10.636   5.546 -0.4896  0.5262  0.0353
 1017MOL0     C40265   5.398  10.693   5.419  0.7700 -0.1766  0.1758
 1017MOL0     C40266   5.512  10.706   5.344 -0.5083  0.0265 -0.0394
 1017MOL0     O40267   5.506  10.755   5.218 -0.2214  0.1846  0.0067
 1017MOL0     C40268   5.426  10.861   5.190  0.0697  0.0029  0.3710
 1017MOL0     C40269   5.471  10.910   5.054 -0.4262 -0.7287 -0.3801
 1017MOL0     C40270   5.620  10.927   5.043 -0.2016 -0.0267 -0.2751
 1017MOL0     C40271   5.667  11.002   4.920 -0.0449 -0.2998  0.0712
 1017MOL0     C40272   5.635  10.941   4.787  0.2637 -0.5414 -0.7371
 1017MOL0     C40273   5.594  10.889   4.681 -0.7564 -0.2572 -0.0039
 1017MOL0     C40274   5.629  10.667   5.410  0.5332  0.5861  1.1254
 1017MOL0     C40275   5.629  10.602   5.530  0.0740  0.8238 -0.1233
 1017MOL0     C40276   5.758  10.538   5.586  0.0879  0.9445  0.1406
 1017MOL0     H40277   5.157  10.463   5.894 -0.2219  1.3180  0.2721
 1017MOL0     H40278   5.094  10.388   6.117  0.0351  0.1475 -1.2602
 1017MOL0     H40279   5.084  10.264   6.307  1.0441 -0.3555 -2.5827
 1017MOL0     H40280   5.133  10.430   6.362 -0.4573 -0.9337 -0.6173
 1017MOL0     H40281   5.192  10.179   6.535 -0.5958  0.6866  3.1416
 1017MOL0     H40282   5.182  10.346   6.587 -1.2933  1.1795  0.5835
 1017MOL0     H40283   4.998  10.244   6.672  0.3031  1.8640  1.2366
 1017MOL0     H40284   4.935  10.348   6.543 -1.5689 -2.1262 -0.1799
 1017MOL0     H40285   4.903  10.165   6.394  1.6592  3.8431  0.3685
 1017MOL0     H40286   4.979  10.054   6.520  1.5915 -0.0668  0.2172
 1017MOL0     H40287   4.711  10.219   6.546 -2.7213 -1.6516 -0.9499
 1017MOL0     H40288   4.789  10.122   6.677 -0.7496  0.9641 -0.3281
 1017MOL0     H40289   4.765   9.924   6.539 -1.7879 -1.7059  1.2094
 1017MOL0     H40290   4.609   9.990   6.574  0.0829  1.0188  0.2293
 1017MOL0     H40291   4.751  10.012   6.300 -0.3947  0.1476 -1.1659
 1017MOL0     H40292   4.606  10.092   6.337 -0.6854  0.6645  1.5836
 1017MOL0     H40293   4.645   9.787   6.351  0.1732 -0.3196 -1.3253
 1017MOL0     H40294   4.488   9.886   6.385  0.0463  1.0152 -0.6169
 1017MOL0     H40295   4.678   9.677   6.167  1.6087  2.7201  1.6029
 1017MOL0     H40296   4.488   9.670   5.814  0.2565 -1.4910 -0.7446
 1017MOL0     H40297   4.492   9.533   5.919  2.2774 -2.1787  0.0473
 1017MOL0     H40298   4.743   9.677   5.820  0.5264  0.7176  0.8514
 1017MOL0     H40299   4.734   9.541   5.928  1.1086  2.0781  0.3403
 1017MOL0     H40300   4.643   9.523   5.634  0.1575 -1.5121 -0.1788
 1017MOL0     H40301   4.797   9.498   5.672 -0.3975 -1.7562  0.1992
 1017MOL0     H40302   4.765   9.327   5.837  1.1743 -1.9428 -1.9547
 1017MOL0     H40303   4.581   9.346   5.823  0.5645 -0.0734 -1.4337
 1017MOL0     H40304   4.722   9.100   5.859 -0.2298 -0.0122 -0.1345
 1017MOL0     H40305   4.724   8.918   5.963  3.5382 -0.9495  0.5359
 1017MOL0     H40306   4.796   8.781   5.875  0.8054  1.4534 -1.8894
 1017MOL0     H40307   4.621   8.772   5.906  0.5036 -0.4319  0.1066
 1017MOL0     H40308   4.793   8.427   5.623  1.2999 -2.5458 -0.7015
 1017MOL0     H40309   4.754   8.201   5.565 -2.1225 -0.2930  2.7777
 1017MOL0     H40310   4.848   8.132   5.308 -0.6201  0.4529  0.8134
 1017MOL0     H40311   4.790   8.010   5.425 -2.9202  1.8170  1.7951
 1017MOL0     H40312   4.866   7.883   5.255  0.4252  2.1310  1.0164
 1017MOL0     H40313   4.692   7.894   5.209  0.5886 -1.7468 -3.7963
 1017MOL0     H40314   4.860   7.931   5.002 -0.8420 -2.6750  1.8676
 1017MOL0     H40315   4.916   8.075   5.084 -0.0871  0.2533 -1.9254
 1017MOL0     H40316   4.780   8.180   4.934 -1.8479  2.3351  0.6654
 1017MOL0     H40317   4.696   8.190   5.074  2.1116 -0.5793  0.9077
 1017MOL0     H40318   4.661   7.972   4.853  2.4079  1.8237  0.7434
 1017MOL0     H40319   4.547   7.989   4.991  0.6629  0.5442  1.2375
 1017MOL0     H40320   4.470   8.214   4.911  1.6951  2.3392 -1.2347
 1017MOL0     H40321   4.447   8.090   4.788  0.2693 -0.9013  1.1076
 1017MOL0     H40322   4.666   8.302   4.784 -0.5767 -0.3636  2.0641
 1017MOL0     H40323   4.531   8.284   4.675 -0.9560 -0.5959 -0.0863
 1017MOL0     H40324   4.763   8.087   4.706  1.4858  1.5969  0.0095
 1017MOL0     H40325   4.754   8.214   4.589 -1.1411  2.2409  2.6065
 1017MOL0     H40326   4.494   8.324   5.241  0.1315  4.2145 -0.5530
 1017MOL0     H40327   4.517   8.556   5.323  1.3261  0.4996 -0.1508
 1017MOL0     H40328   4.639   8.878   5.435  0.6343 -3.8609  2.0294
 1017MOL0     H40329   4.656   9.139   5.447  1.1222 -1.2703 -0.9124
 1017MOL0     H40330   5.490  10.409   6.234 -0.8484  3.1164  0.5662
 1017MOL0     H40331   5.560  10.435   5.980 -0.4219  3.0090 -2.0139
 1017MOL0     H40332   5.302  10.618   5.601  0.9759 -0.1833  2.4179
 1017MOL0     H40333   5.305  10.722   5.371  0.0908  0.0686  1.6032
 1017MOL0     H40334   5.322  10.832   5.177 -0.4277  2.1406 -0.6944
 1017MOL0     H40335   5.440  10.931   5.272  1.1767  0.4272 -0.1565
 1017MOL0     H40336   5.415  11.002   5.038 -0.3998 -0.3923  1.2686
 1017MOL0     H40337   5.432  10.836   4.983 -1.7164 -0.6705  0.2457
 1017MOL0     H40338   5.646  10.986   5.131 -2.9357  0.4314  0.3178
 1017MOL0     H40339   5.664  10.827   5.042  0.8570  0.4338 -1.5194
 1017MOL0     H40340   5.773  11.023   4.935 -0.2543  0.9825 -0.1255
 1017MOL0     H40341   5.604  11.090   4.902 -2.5934 -1.9899  0.0931
 1017MOL0     H40342   5.550  10.847   4.592 -0.8648 -0.7602  0.2837
 1017MOL0     H40343   5.721  10.687   5.357  2.4661 -0.1240  3.9617
 1017MOL0     H40344   5.822  10.619   5.623  2.9161 -1.4763  0.9376
 1017MOL0     H40345   5.735  10.467   5.666  1.5928 -2.6145 -2.3417
 1017MOL0     H40346   5.815  10.494   5.503  1.3516 -2.0070  2.3945
 1018MOL0     O40347   5.334   4.142   8.725  0.4460  0.2057  0.9546
 1018MOL0     C40348   5.398   4.046   8.777  0.3879 -0.1018  0.4443
 1018MOL0     O40349   5.533   4.022   8.755  0.2266  0.3946  0.5010
 1018MOL0     C40350   5.609   4.129   8.721  0.4899  0.5675 -0.0669
 1018MOL0     C40351   5.715   4.148   8.808 -1.2603  0.1446  0.2755
 1018MOL0     C40352   5.804   4.249   8.784 -0.2721 -0.0681 -0.9610
 1018MOL0     C40353   5.792   4.345   8.682 -0.6932 -0.1663 -0.2769
 1018MOL0     O40354   5.889   4.448   8.665 -0.0622  0.5183 -0.3452
 1018MOL0     C40355   6.011   4.416   8.603 -0.3568 -0.0985  0.4658
 1018MOL0     C40356   6.036   4.539   8.523  0.3752 -0.5328  0.6259
 1018MOL0     C40357   6.045   4.659   8.617  0.0220 -0.3457 -0.5080
 1018MOL0     C40358   6.141   4.754   8.559 -0.1037  0.6405  0.4329
 1018MOL0     C40359   6.162   4.871   8.654  0.1616 -0.2917  0.6911
 1018MOL0     C40360   6.256   4.982   8.591  0.0250  0.3561  0.3639
 1018MOL0     C40361   6.253   5.088   8.700  0.1276 -0.1539  0.0231
 1018MOL0     C40362   6.320   5.212   8.639 -0.5935 -0.3235  0.3048
 1018MOL0     N40363   6.464   5.187   8.636 -0.0225 -0.0062  0.7561
 1018MOL0     C40364   6.527   5.156   8.516 -0.6965 -0.1369  0.4734
 1018MOL0     C40365   6.652   5.126   8.557  0.0468 -0.4615 -0.0473
 1018MOL0     C40366   6.758   5.093   8.459 -0.1635  0.3086  0.3473
 1018MOL0     C40367   6.867   5.008   8.516 -0.5771  0.0727 -0.3340
 1018MOL0     C40368   6.982   4.967   8.423  0.0734 -1.0840  0.1890
 1018MOL0     C40369   7.082   4.898   8.506 -0.0711  0.5683  0.2313
 1018MOL0     O40370   7.036   4.788   8.589  0.5905  0.4622 -0.1544
 1018MOL0     C40371   7.107   4.761   8.693  0.2311  0.5049  0.1170
 1018MOL0     C40372   7.044   4.724   8.814 -0.2775 -0.4853 -0.0842
 1018MOL0     C40373   7.117   4.683   8.932  0.3601 -0.0197  0.3152
 1018MOL0     C40374   7.033   4.639   9.043 -0.4223  0.2357 -0.5469
 1018MOL0     C40375   7.263   4.691   8.930 -0.2457  0.4808  0.0772
 1018MOL0     C40376   7.341   4.662   9.047 -0.2780 -1.1025 -0.9861
 1018MOL0     O40377   7.280   4.637   9.168  0.4908  0.1414 -0.4541
 1018MOL0     C40378   7.370   4.628   9.277 -0.3339  0.3881 -0.3421
 1018MOL0     C40379   7.444   4.518   9.299 -0.3082  0.4889 -0.5207
 1018MOL0     C40380   7.539   4.512   9.404 -0.3300  0.5959 -0.2935
 1018MOL0     C40381   7.537   4.604   9.507 -0.7522  0.1436  0.3304
 1018MOL0     O40382   7.647   4.611   9.597 -0.0742 -0.4963  0.1321
 1018MOL0     C40383   7.622   4.535   9.716  0.7946  0.4442  0.8076
 1018MOL0     C40384   7.680   4.590   9.842 -0.7052 -0.4742 -0.7055
 1018MOL0     C40385   7.649   4.732   9.863  0.2838 -0.8531 -0.3253
 1018MOL0     C40386   7.740   4.788   9.976 -1.1736  0.2334  0.0579
 1018MOL0     C40387   7.727   4.727  10.115 -0.2734  0.3878  0.5369
 1018MOL0     C40388   7.594   4.749  10.186 -0.4484  0.4039 -0.1485
 1018MOL0     C40389   7.606   4.656  10.315  0.5148  0.4059  0.5519
 1018MOL0     C40390   7.509   4.689  10.426 -0.1195 -0.7212 -0.2662
 1018MOL0    Cl40391   7.553   4.843  10.504  0.0170  0.2865  0.0004
 1018MOL0     C40392   7.447   4.715   9.487 -0.4060 -0.2217 -0.9671
 1018MOL0     C40393   7.370   4.720   9.379 -0.0876 -0.9528  0.0937
 1018MOL0     O40394   7.466   4.669   9.040 -0.4557 -0.7070  0.0364
 1018MOL0     C40395   7.326   4.729   8.810 -0.0494  0.3280 -0.2981
 1018MOL0     C40396   7.247   4.765   8.701  0.3257  0.1878  0.1108
 1018MOL0     N40397   6.660   5.145   8.695  0.9137 -0.0260  0.2232
 1018MOL0     N40398   6.543   5.170   8.742 -1.4802 -0.7723  0.2790
 1018MOL0     C40399   5.672   4.338   8.609  0.8333  0.4304 -0.3737
 1018MOL0     C40400   5.587   4.228   8.634 -0.1092 -1.4637  0.3142
 1018MOL0     C40401   5.328   3.958   8.873 -0.4645  0.5632  0.0696
 1018MOL0     C40402   5.404   3.896   8.973 -0.5130 -0.4443  0.8723
 1018MOL0     C40403   5.357   3.790   9.045 -0.2225 -0.3065  0.3387
 1018MOL0     C40404   5.232   3.735   9.034  0.1287 -0.1354 -0.8896
 1018MOL0     O40405   5.209   3.609   9.091  0.0471 -0.0286  0.0480
 1018MOL0     C40406   5.073   3.556   9.067  0.5186  0.1136 -0.6437
 1018MOL0     C40407   5.051   3.408   9.101  0.2825  0.5392 -0.5350
 1018MOL0     C40408   4.897   3.372   9.112  0.1766 -0.6542 -0.3382
 1018MOL0     C40409   4.873   3.226   9.162 -0.2540  0.2453  0.6041
 1018MOL0     C40410   4.913   3.195   9.302 -0.7421 -0.8125 -0.2253
 1018MOL0     C40411   4.952   3.190   9.419  0.3658 -0.0246 -0.4163
 1018MOL0     C40412   5.148   3.802   8.936  0.3850 -0.1671 -0.8081
 1018MOL0     C40413   5.188   3.911   8.852 -0.0024 -0.3008 -0.2388
 1018MOL0     C40414   5.100   3.968   8.744 -0.7134 -0.2582  0.1125
 1018MOL0     H40415   5.728   4.069   8.882  1.5617 -0.0878 -0.3759
 1018MOL0     H40416   5.891   4.243   8.848 -1.2774 -1.2605  0.3778
 1018MOL0     H40417   5.999   4.320   8.553 -0.1565 -0.0036  0.2258
 1018MOL0     H40418   6.095   4.418   8.673 -0.1934 -1.8619  0.3515
 1018MOL0     H40419   6.133   4.533   8.473  0.4204 -0.8320  0.7499
 1018MOL0     H40420   5.947   4.543   8.459  0.9392 -3.7493 -0.4985
 1018MOL0     H40421   5.947   4.706   8.627  1.8482  3.7776 -0.1658
 1018MOL0     H40422   6.088   4.636   8.715  1.0220  1.7170 -0.4206
 1018MOL0     H40423   6.238   4.710   8.536 -0.0658  0.7794  0.3247
 1018MOL0     H40424   6.102   4.796   8.466 -4.1671 -1.0150  1.1903
 1018MOL0     H40425   6.215   4.841   8.745  1.0927  1.2256  0.6882
 1018MOL0     H40426   6.063   4.914   8.677  0.6145  2.2500 -1.6685
 1018MOL0     H40427   6.353   4.933   8.580  1.2522  1.7650  3.6117
 1018MOL0     H40428   6.228   5.018   8.491  1.8260  0.5065 -0.1116
 1018MOL0     H40429   6.306   5.047   8.787  2.0031  1.1893 -0.4209
 1018MOL0     H40430   6.154   5.116   8.735  1.3378 -0.2440  3.9831
 1018MOL0     H40431   6.283   5.244   8.541  0.1312 -0.5165 -0.0391
 1018MOL0     H40432   6.302   5.296   8.707 -1.1825  0.0330 -0.2759
 1018MOL0     H40433   6.477   5.163   8.420  0.7046 -0.1202 -0.2915
 1018MOL0     H40434   6.790   5.193   8.428 -0.7270  1.7958  3.9785
 1018MOL0     H40435   6.717   5.037   8.375 -0.3328 -1.7296  1.7303
 1018MOL0     H40436   6.901   5.068   8.601 -1.4185  0.7321 -0.4513
 1018MOL0     H40437   6.820   4.918   8.556  3.0857 -0.9568  2.2088
 1018MOL0     H40438   6.946   4.909   8.337 -2.6927  1.8991 -0.9171
 1018MOL0     H40439   7.041   5.054   8.392 -1.3452  0.4055  1.4853
 1018MOL0     H40440   7.167   4.868   8.444  0.7485  1.8223  0.7211
 1018MOL0     H40441   7.121   4.966   8.581 -0.5630  2.5669 -1.2432
 1018MOL0     H40442   6.937   4.709   8.816 -0.5565  0.6931 -2.4838
 1018MOL0     H40443   7.064   4.537   9.068 -0.7315 -0.0160 -1.1536
 1018MOL0     H40444   6.926   4.627   9.022 -0.1738 -2.6318 -0.5218
 1018MOL0     H40445   7.047   4.700   9.133  1.1739 -0.5398 -0.2351
 1018MOL0     H40446   7.446   4.450   9.215 -3.9874  0.7544 -0.9764
 1018MOL0     H40447   7.600   4.423   9.414  0.1491  0.9278 -0.1968
 1018MOL0     H40448   7.513   4.531   9.726  0.4069  0.2951 -2.4763
 1018MOL0     H40449   7.657   4.432   9.703 -0.7228  0.2641 -3.5570
 1018MOL0     H40450   7.634   4.534   9.924 -1.5861 -2.8623 -2.6843
 1018MOL0     H40451   7.789   4.579   9.840 -0.0205  2.4546  4.1647
 1018MOL0     H40452   7.544   4.753   9.886  1.1399  2.8782  0.9422
 1018MOL0     H40453   7.669   4.783   9.768  1.4349 -0.8850 -0.1104
 1018MOL0     H40454   7.723   4.896   9.980  0.5598  0.5883 -0.9756
 1018MOL0     H40455   7.842   4.781   9.937 -1.0087  3.2654 -0.3084
 1018MOL0     H40456   7.737   4.618  10.107  0.9652  0.5212  0.0743
 1018MOL0     H40457   7.809   4.758  10.180  0.2569  1.6618 -0.6814
 1018MOL0     H40458   7.511   4.708  10.127  0.6590 -1.1201 -0.7233
 1018MOL0     H40459   7.573   4.854  10.209  0.6981  0.5908  0.1276
 1018MOL0     H40460   7.708   4.662  10.356 -0.0010  1.0920  1.7819
 1018MOL0     H40461   7.592   4.555  10.276  0.2214  0.7674 -0.3022
 1018MOL0     H40462   7.511   4.610  10.502  0.2230 -0.7143 -0.2661
 1018MOL0     H40463   7.412   4.699  10.377  2.0035 -0.5032 -5.0329
 1018MOL0     H40464   7.444   4.793   9.562  0.4517  0.9151 -2.0839
 1018MOL0     H40465   7.296   4.796   9.357  0.6159 -0.3622 -0.3018
 1018MOL0     H40466   7.434   4.738   8.802 -0.0260  0.3100 -0.0154
 1018MOL0     H40467   7.303   4.798   8.615  2.6096  2.1375  2.1865
 1018MOL0     H40468   5.662   4.416   8.535 -2.1479  0.2410 -0.2818
 1018MOL0     H40469   5.500   4.228   8.569  1.5501 -1.2129 -2.0166
 1018MOL0     H40470   5.499   3.944   8.996  1.7671 -3.9210 -0.5264
 1018MOL0     H40471   5.419   3.740   9.119 -1.8370 -0.5733  1.5526
 1018MOL0     H40472   4.999   3.612   9.126  0.4315 -1.9280  1.2872
 1018MOL0     H40473   5.045   3.563   8.961 -0.5027  2.4439 -0.3054
 1018MOL0     H40474   5.094   3.380   9.198  0.3156 -1.2310 -1.0231
 1018MOL0     H40475   5.087   3.343   9.021 -2.3738 -2.7831  0.7222
 1018MOL0     H40476   4.842   3.430   9.186 -2.0474 -3.0464  0.0303
 1018MOL0     H40477   4.872   3.390   9.007  1.1159 -2.0356 -0.8291
 1018MOL0     H40478   4.934   3.163   9.096 -0.2586  2.2082 -1.3882
 1018MOL0     H40479   4.771   3.189   9.150  0.0633 -1.0719  1.6497
 1018MOL0     H40480   4.978   3.190   9.523 -2.5735  2.3010  0.4754
 1018MOL0     H40481   5.050   3.765   8.911 -0.4226  1.8811 -0.8359
 1018MOL0     H40482   5.067   4.071   8.757 -4.7358 -1.5542  1.9310
 1018MOL0     H40483   5.154   3.968   8.649 -0.7086  1.3561  0.1001
 1018MOL0     H40484   5.005   3.914   8.733 -2.0083  1.8063  0.5641
 1019MOL0     O40485   1.878   9.045   2.679 -0.7200  0.1563  0.5820
 1019MOL0     C40486   1.865   9.155   2.733 -0.1404 -0.1838  0.0686
 1019MOL0     O40487   1.829   9.268   2.669 -0.3653 -0.5382 -0.0021
 1019MOL0     C40488   1.802   9.257   2.542  0.0244 -0.0503  0.3846
 1019MOL0     C40489   1.680   9.199   2.491  0.3567  0.0536 -0.0592
 1019MOL0     C40490   1.650   9.194   2.353  0.3074 -0.2544  0.2759
 1019MOL0     C40491   1.741   9.241   2.264 -1.2702 -0.7894 -0.2519
 1019MOL0     O40492   1.726   9.242   2.133 -0.1203 -0.0110  0.4748
 1019MOL0     C40493   1.593   9.241   2.074 -0.1938  0.5191  0.3775
 1019MOL0     C40494   1.614   9.263   1.930 -0.8344 -0.3084  1.0733
 1019MOL0     C40495   1.499   9.193   1.848 -0.5190  0.2125  0.7034
 1019MOL0     C40496   1.364   9.256   1.893  0.1938 -0.6849  0.3957
 1019MOL0     C40497   1.286   9.285   1.766  0.3181 -0.4002  0.7402
 1019MOL0     C40498   1.148   9.331   1.788  0.5026 -0.4817  0.5504
 1019MOL0     C40499   1.086   9.392   1.660 -0.2932  0.4417 -0.8864
 1019MOL0     C40500   0.938   9.403   1.663  0.0454 -0.1333  0.0889
 1019MOL0     N40501   0.875   9.468   1.776 -0.3146 -0.5534  0.1259
 1019MOL0     C40502   0.840   9.408   1.896 -0.0150 -0.2638 -0.1838
 1019MOL0     C40503   0.821   9.509   1.983  0.1438 -0.2827  0.4379
 1019MOL0     C40504   0.777   9.515   2.128  0.2121  0.4482  0.8376
 1019MOL0     C40505   0.658   9.422   2.165 -0.2897  0.0800  0.8320
 1019MOL0     C40506   0.614   9.440   2.315 -0.6860  0.4533  0.3096
 1019MOL0     C40507   0.710   9.377   2.412  0.2570 -0.9401  0.7070
 1019MOL0     O40508   0.831   9.455   2.442 -0.4375 -0.0444  0.3145
 1019MOL0     C40509   0.922   9.428   2.544  0.5050  0.1490  0.1652
 1019MOL0     C40510   0.912   9.319   2.630  0.1881 -0.0875 -0.1996
 1019MOL0     C40511   1.008   9.299   2.729 -0.5978 -0.0947  0.3694
 1019MOL0     C40512   0.983   9.173   2.802 -0.4208 -1.5469 -0.2074
 1019MOL0     C40513   1.121   9.383   2.748  1.2307 -0.0824  0.1383
 1019MOL0     C40514   1.213   9.364   2.856 -0.2370 -0.4115 -0.2156
 1019MOL0     O40515   1.240   9.477   2.927 -0.1666  0.3428 -0.0344
 1019MOL0     C40516   1.321   9.459   3.034 -1.2644  0.0355 -0.0622
 1019MOL0     C40517   1.444   9.529   3.027 -0.1858  0.7110 -0.3389
 1019MOL0     C40518   1.527   9.530   3.141 -0.2169 -0.5498  0.3695
 1019MOL0     C40519   1.500   9.451   3.249 -1.0999 -0.2939 -0.7204
 1019MOL0     O40520   1.584   9.456   3.370  0.9233 -0.4936  0.0543
 1019MOL0     C40521   1.686   9.558   3.389 -0.1318 -0.6705 -0.0087
 1019MOL0     C40522   1.824   9.506   3.345  0.5523 -0.2418  0.1428
 1019MOL0     C40523   1.930   9.604   3.366 -0.4885  0.7884  0.8280
 1019MOL0     C40524   1.958   9.625   3.510 -0.5346 -0.2293 -0.1278
 1019MOL0     C40525   2.066   9.734   3.525  0.4865 -0.9985 -0.6443
 1019MOL0     C40526   2.098   9.778   3.665 -0.0424  0.2565 -0.6039
 1019MOL0     C40527   2.203   9.898   3.664 -0.7656  0.1004  0.1106
 1019MOL0     C40528   2.230   9.948   3.810 -0.4565 -0.8820 -0.1020
 1019MOL0    Cl40529   2.075  10.014   3.878 -0.5402 -0.2413 -0.1367
 1019MOL0     C40530   1.381   9.389   3.260 -0.7404 -0.0171  0.5651
 1019MOL0     C40531   1.291   9.393   3.156  0.1172  0.2259  1.0800
 1019MOL0     O40532   1.262   9.257   2.877  0.0724 -0.0490  0.4635
 1019MOL0     C40533   1.130   9.497   2.657  1.5213 -0.4751 -0.9645
 1019MOL0     C40534   1.025   9.525   2.562 -0.0163  0.1661 -0.4631
 1019MOL0     N40535   0.839   9.626   1.916 -0.4272 -0.3160 -0.3048
 1019MOL0     N40536   0.880   9.599   1.796 -0.4105  1.0384  0.1954
 1019MOL0     C40537   1.870   9.280   2.310  0.2895  0.3614  0.3755
 1019MOL0     C40538   1.896   9.290   2.446 -1.2832 -1.0596  0.1404
 1019MOL0     C40539   1.875   9.156   2.882 -0.4710  0.0903 -0.2198
 1019MOL0     C40540   1.759   9.179   2.969 -0.4110  1.1253 -0.0933
 1019MOL0     C40541   1.766   9.180   3.110  0.6679  0.1386  0.9023
 1019MOL0     C40542   1.896   9.147   3.165 -0.3413  1.0158 -0.0159
 1019MOL0     O40543   1.925   9.144   3.296 -0.0457  0.2845 -0.2160
 1019MOL0     C40544   1.835   9.118   3.401 -0.8015 -0.8213  0.2540
 1019MOL0     C40545   1.800   8.970   3.424  0.7652  0.5158  0.0032
 1019MOL0     C40546   1.697   8.912   3.320 -1.0392 -0.2089 -0.0930
 1019MOL0     C40547   1.556   8.982   3.344  0.2816  0.6540 -0.0296
 1019MOL0     C40548   1.483   9.027   3.221 -0.2297  0.2450 -0.1940
 1019MOL0     C40549   1.428   9.064   3.123 -0.0861  0.3222  0.4885
 1019MOL0     C40550   2.003   9.119   3.082 -0.5496  1.6634  0.1253
 1019MOL0     C40551   1.995   9.125   2.947 -0.1135 -0.7055  0.2849
 1019MOL0     C40552   2.120   9.118   2.868 -0.1040 -0.1430 -0.0811
 1019MOL0     H40553   1.605   9.165   2.562  1.7622 -0.1475  1.3920
 1019MOL0     H40554   1.554   9.173   2.307  1.4342  4.2977 -5.2653
 1019MOL0     H40555   1.530   9.318   2.119  4.4758  3.9710  1.7880
 1019MOL0     H40556   1.549   9.142   2.086  2.7511 -0.7280  1.8638
 1019MOL0     H40557   1.610   9.370   1.907 -0.3220 -0.6895 -0.9584
 1019MOL0     H40558   1.711   9.225   1.897 -1.2813 -0.4466 -0.1190
 1019MOL0     H40559   1.524   9.227   1.747  0.7123  3.1732  1.8927
 1019MOL0     H40560   1.509   9.085   1.861  1.5854  0.4089  1.0482
 1019MOL0     H40561   1.308   9.187   1.957 -0.0708 -0.9130 -0.0761
 1019MOL0     H40562   1.373   9.340   1.962 -4.4780  1.1804 -0.8915
 1019MOL0     H40563   1.272   9.192   1.710 -1.4503 -0.3819  1.1076
 1019MOL0     H40564   1.331   9.358   1.698  0.0608  2.1306  3.1231
 1019MOL0     H40565   1.082   9.254   1.830 -0.6259  2.0234  3.8988
 1019MOL0     H40566   1.137   9.407   1.867  0.9296 -3.7166  4.0317
 1019MOL0     H40567   1.107   9.332   1.571 -1.9428 -1.8131  0.1510
 1019MOL0     H40568   1.130   9.490   1.641 -0.8428  0.9525  0.3901
 1019MOL0     H40569   0.892   9.435   1.569  2.4054  0.1227 -1.0654
 1019MOL0     H40570   0.907   9.298   1.661 -0.0272 -0.1049 -0.2905
 1019MOL0     H40571   0.828   9.304   1.924  0.8783 -0.6103 -1.0225
 1019MOL0     H40572   0.757   9.622   2.138  2.7186  1.1076 -0.4519
 1019MOL0     H40573   0.863   9.485   2.188  0.8786  1.7619  0.5606
 1019MOL0     H40574   0.569   9.446   2.106  0.2648  1.3089  0.4460
 1019MOL0     H40575   0.680   9.316   2.152 -5.6940 -1.1408 -0.6494
 1019MOL0     H40576   0.621   9.542   2.353  0.7266  0.5045 -0.0415
 1019MOL0     H40577   0.512   9.408   2.335 -1.9260  4.2471  0.8214
 1019MOL0     H40578   0.657   9.367   2.507 -1.2057 -1.1243 -0.1065
 1019MOL0     H40579   0.726   9.278   2.370 -2.6070 -0.5482 -1.6376
 1019MOL0     H40580   0.847   9.239   2.599  2.2147 -0.7564 -3.1403
 1019MOL0     H40581   0.910   9.111   2.749  3.6099 -5.3099 -2.0003
 1019MOL0     H40582   0.951   9.198   2.903  2.3788 -2.1506  0.9328
 1019MOL0     H40583   1.072   9.114   2.826  0.0426 -1.5539 -1.8172
 1019MOL0     H40584   1.455   9.600   2.945  0.1433 -0.4992 -1.3891
 1019MOL0     H40585   1.614   9.595   3.136 -0.0017 -0.9225 -0.9227
 1019MOL0     H40586   1.668   9.647   3.328 -0.6258  0.6994  2.0383
 1019MOL0     H40587   1.689   9.598   3.490  2.3954  1.3203 -0.7622
 1019MOL0     H40588   1.848   9.411   3.393  0.3885 -0.3500  0.0116
 1019MOL0     H40589   1.807   9.482   3.239 -3.1437  0.5389  0.4309
 1019MOL0     H40590   1.907   9.694   3.309  4.6005 -0.1463 -3.4346
 1019MOL0     H40591   2.028   9.576   3.327  0.4093  2.0308  2.1453
 1019MOL0     H40592   2.002   9.533   3.550  1.4229 -0.7814 -3.1707
 1019MOL0     H40593   1.872   9.666   3.562 -0.0003  1.8208 -0.7338
 1019MOL0     H40594   2.152   9.687   3.475 -0.8518 -2.2644 -1.8542
 1019MOL0     H40595   2.034   9.824   3.473  0.0820 -1.2797 -0.8793
 1019MOL0     H40596   2.152   9.701   3.720  2.4012  3.0389  1.2099
 1019MOL0     H40597   2.014   9.812   3.725  0.5757  1.1824 -0.2384
 1019MOL0     H40598   2.163   9.983   3.608 -1.8045  0.0980  0.8214
 1019MOL0     H40599   2.300   9.866   3.623 -0.5512  2.3995 -1.3723
 1019MOL0     H40600   2.316  10.014   3.823 -2.0930  0.9935  1.9069
 1019MOL0     H40601   2.264   9.866   3.874 -0.8294 -0.5739  0.4936
 1019MOL0     H40602   1.374   9.351   3.361  0.7483 -0.6281  0.4609
 1019MOL0     H40603   1.195   9.345   3.168  0.4848 -0.8685 -0.0488
 1019MOL0     H40604   1.206   9.572   2.675 -0.0691  1.7725 -3.1268
 1019MOL0     H40605   1.028   9.613   2.498  0.1376  0.9517  0.5982
 1019MOL0     H40606   1.949   9.303   2.239  0.0181 -0.7214 -0.2990
 1019MOL0     H40607   1.999   9.318   2.464 -0.5577 -2.5363 -1.4328
 1019MOL0     H40608   1.664   9.193   2.919 -0.1863  0.4840 -0.7162
 1019MOL0     H40609   1.672   9.206   3.158 -0.9878 -0.7218 -1.6503
 1019MOL0     H40610   1.888   9.157   3.487 -2.4232  3.1545 -0.3369
 1019MOL0     H40611   1.749   9.185   3.400  0.7170  1.2538  1.3311
 1019MOL0     H40612   1.754   8.954   3.522  1.5468  0.3299  0.3540
 1019MOL0     H40613   1.887   8.903   3.435 -0.7239 -1.2684  1.6319
 1019MOL0     H40614   1.723   8.947   3.219 -1.6072  0.7808  0.0826
 1019MOL0     H40615   1.689   8.803   3.313 -2.4474 -0.3145  2.2272
 1019MOL0     H40616   1.564   9.073   3.405 -1.6778 -0.1105  1.4916
 1019MOL0     H40617   1.491   8.913   3.398 -0.1257  2.8657  2.4848
 1019MOL0     H40618   1.361   9.081   3.041  0.0165  0.7597  0.4965
 1019MOL0     H40619   2.103   9.104   3.122  0.5887  0.4187 -2.8814
 1019MOL0     H40620   2.130   9.199   2.796  1.2787  2.1582  2.4802
 1019MOL0     H40621   2.211   9.120   2.929  0.0837 -1.6234 -0.2667
 1019MOL0     H40622   2.127   9.028   2.806  2.2589 -0.7321  0.9075
 1020MOL0     O40623   5.745   6.972   5.581 -0.1113 -0.2717 -0.0587
 1020MOL0     C40624   5.750   6.926   5.470 -0.1982  0.9949 -1.1355
 1020MOL0     O40625   5.772   6.995   5.351 -0.2827  0.0407  0.5155
 1020MOL0     C40626   5.781   7.135   5.357  0.4937 -0.1627  0.8795
 1020MOL0     C40627   5.674   7.225   5.396 -0.1923  0.1327  0.5816
 1020MOL0     C40628   5.707   7.362   5.404 -0.2613  0.8080 -0.6109
 1020MOL0     C40629   5.835   7.407   5.365 -0.6441  0.1942 -0.8319
 1020MOL0     O40630   5.869   7.544   5.363  0.2600  0.4143  0.1621
 1020MOL0     C40631   5.836   7.615   5.482  0.6575 -0.1504 -0.2018
 1020MOL0     C40632   5.944   7.713   5.515 -0.4089 -0.1302 -0.2776
 1020MOL0     C40633   5.940   7.761   5.666 -0.1441  0.3770  0.0265
 1020MOL0     C40634   5.992   7.904   5.679  0.8087 -0.2446  0.2456
 1020MOL0     C40635   6.015   7.947   5.820 -0.2143 -0.1393 -0.1191
 1020MOL0     C40636   6.037   8.101   5.813  0.5976 -0.7779 -0.1213
 1020MOL0     C40637   6.063   8.159   5.959 -0.5293 -0.0789 -0.1171
 1020MOL0     C40638   6.111   8.308   5.943  0.0852  0.4728 -1.0724
 1020MOL0     N40639   6.241   8.336   6.018  0.1176 -1.0907  0.3874
 1020MOL0     C40640   6.344   8.381   5.945 -0.1440  0.6651 -1.1075
 1020MOL0     C40641   6.420   8.454   6.036 -0.4342  0.4600 -0.5590
 1020MOL0     C40642   6.550   8.527   6.019  1.4091  0.3376 -0.0346
 1020MOL0     C40643   6.618   8.474   5.894 -0.5156 -0.7373 -0.7980
 1020MOL0     C40644   6.753   8.541   5.859  0.0777  0.0800  0.2127
 1020MOL0     C40645   6.850   8.485   5.746 -0.0950 -0.0852  0.0728
 1020MOL0     O40646   6.853   8.339   5.723  0.3616  0.0424  0.0358
 1020MOL0     C40647   6.799   8.296   5.608 -0.5528  0.1481  0.7122
 1020MOL0     C40648   6.882   8.286   5.498 -0.5831  0.9807 -0.7303
 1020MOL0     C40649   6.827   8.239   5.376  0.0922 -0.0741  0.3320
 1020MOL0     C40650   6.925   8.228   5.255  0.7432 -0.0680  0.6456
 1020MOL0     C40651   6.689   8.209   5.358 -0.3392  0.6364 -0.0059
 1020MOL0     C40652   6.627   8.143   5.247  0.7574 -0.0345 -1.0998
 1020MOL0     O40653   6.495   8.141   5.243 -0.3041 -0.7384  0.3698
 1020MOL0     C40654   6.430   8.060   5.149  0.1183  0.4473 -0.4384
 1020MOL0     C40655   6.328   8.108   5.065 -0.0609 -0.5430 -0.0907
 1020MOL0     C40656   6.253   8.016   4.986  1.2053 -0.1789 -0.4656
 1020MOL0     C40657   6.262   7.880   5.012 -0.9858  1.2639 -0.2965
 1020MOL0     O40658   6.199   7.780   4.946  0.0309 -0.5790  0.0719
 1020MOL0     C40659   6.126   7.812   4.831 -0.2429  0.8829  0.1489
 1020MOL0     C40660   6.067   7.686   4.765  0.3645 -1.1529  0.3727
 1020MOL0     C40661   5.975   7.606   4.858  0.5920 -0.3915 -0.2417
 1020MOL0     C40662   5.953   7.464   4.802  0.1461  0.6604 -0.7671
 1020MOL0     C40663   5.881   7.367   4.898 -0.7265  0.2817  0.4269
 1020MOL0     C40664   5.901   7.219   4.847  0.5381  0.5019  0.5217
 1020MOL0     C40665   5.834   7.113   4.940  0.4538  0.9338  0.6210
 1020MOL0     C40666   5.678   7.134   4.946 -0.6616  0.7417 -0.5112
 1020MOL0    Cl40667   5.613   7.166   4.779 -0.3341  0.7898  0.0518
 1020MOL0     C40668   6.365   7.836   5.094  0.5157  0.3667  0.2188
 1020MOL0     C40669   6.445   7.921   5.162  0.0662 -1.0226 -0.8005
 1020MOL0     O40670   6.691   8.097   5.152 -0.0109 -0.9943 -0.1267
 1020MOL0     C40671   6.603   8.230   5.470  0.0082  1.0734 -0.4525
 1020MOL0     C40672   6.666   8.270   5.590 -0.4820 -0.4563 -0.2869
 1020MOL0     N40673   6.355   8.449   6.161 -0.4915 -0.5651 -0.8565
 1020MOL0     N40674   6.252   8.382   6.147  0.0600  0.2787  0.5873
 1020MOL0     C40675   5.935   7.320   5.324 -0.0493 -0.6384 -0.5953
 1020MOL0     C40676   5.905   7.182   5.314  0.0103 -1.1333 -0.5974
 1020MOL0     C40677   5.728   6.780   5.457 -0.5478 -0.2603 -0.2603
 1020MOL0     C40678   5.674   6.739   5.335 -0.4289 -0.3985  0.3244
 1020MOL0     C40679   5.643   6.598   5.313 -0.5717 -0.8851  0.5264
 1020MOL0     C40680   5.678   6.510   5.418  0.4483  1.1826  0.6951
 1020MOL0     O40681   5.635   6.373   5.396 -0.3646  0.1858 -0.5859
 1020MOL0     C40682   5.651   6.273   5.504 -0.0715  0.1479  0.1953
 1020MOL0     C40683   5.582   6.143   5.459 -0.0738  0.5176  0.2543
 1020MOL0     C40684   5.641   6.093   5.324  1.6033  0.2214  0.1298
 1020MOL0     C40685   5.777   6.025   5.340  0.0331  0.0936 -0.1609
 1020MOL0     C40686   5.845   6.025   5.210 -0.8849  0.7900 -0.2295
 1020MOL0     C40687   5.901   6.007   5.106 -0.2549 -0.0521  0.3312
 1020MOL0     C40688   5.752   6.549   5.523 -0.0723 -0.3909  0.6047
 1020MOL0     C40689   5.768   6.690   5.549 -0.7587 -0.5780  0.3895
 1020MOL0     C40690   5.834   6.721   5.674  0.3273  0.6218 -1.3647
 1020MOL0     H40691   5.576   7.181   5.410  0.1737 -0.6441  0.7668
 1020MOL0     H40692   5.628   7.431   5.431 -1.8422 -1.4708  1.0147
 1020MOL0     H40693   5.829   7.546   5.566  1.9495  0.9679  0.8790
 1020MOL0     H40694   5.740   7.668   5.478 -1.9539 -4.2064  1.9826
 1020MOL0     H40695   6.040   7.662   5.505 -0.8183 -0.7304 -1.2077
 1020MOL0     H40696   5.944   7.797   5.445 -0.5376 -0.3237 -0.5101
 1020MOL0     H40697   5.840   7.756   5.710  0.1308  0.6520  0.6901
 1020MOL0     H40698   6.009   7.696   5.721  0.1488 -0.6151 -1.4383
 1020MOL0     H40699   6.083   7.916   5.620 -1.1160 -1.6478 -3.2671
 1020MOL0     H40700   5.910   7.970   5.648  1.6688  2.7628  3.6023
 1020MOL0     H40701   6.093   7.885   5.865 -1.0933 -0.3625  1.1197
 1020MOL0     H40702   5.929   7.919   5.881 -1.3607 -0.1537 -1.6755
 1020MOL0     H40703   6.134   8.127   5.770  0.3767  1.0388  0.4277
 1020MOL0     H40704   5.956   8.150   5.758  0.0708  0.8977  2.0446
 1020MOL0     H40705   6.139   8.101   6.012  1.3953  0.1482 -2.4711
 1020MOL0     H40706   5.972   8.156   6.019 -1.0912  3.0717 -0.6192
 1020MOL0     H40707   6.122   8.339   5.839 -1.2514 -0.2487 -1.4548
 1020MOL0     H40708   6.036   8.369   5.994 -0.9037 -1.1024 -0.5744
 1020MOL0     H40709   6.374   8.362   5.843  0.0429  1.2413 -1.1612
 1020MOL0     H40710   6.623   8.512   6.099  0.4297 -3.0409  0.3837
 1020MOL0     H40711   6.538   8.636   6.016  1.7193  0.3497 -1.1638
 1020MOL0     H40712   6.629   8.365   5.893  0.7784 -0.6380 -0.1209
 1020MOL0     H40713   6.550   8.501   5.813 -0.4785  3.5261  0.3434
 1020MOL0     H40714   6.731   8.644   5.832 -0.8692 -0.2276 -0.2225
 1020MOL0     H40715   6.801   8.536   5.958 -1.7342  0.5547  1.1514
 1020MOL0     H40716   6.821   8.534   5.653 -0.8641  1.0238  0.8658
 1020MOL0     H40717   6.949   8.519   5.778 -0.4819  0.7187  0.4158
 1020MOL0     H40718   6.984   8.314   5.524 -1.8222  3.4379  2.1274
 1020MOL0     H40719   6.880   8.287   5.174 -1.3134 -2.3820 -0.0302
 1020MOL0     H40720   6.940   8.124   5.223 -0.5515  0.1239 -0.7068
 1020MOL0     H40721   7.025   8.262   5.285  0.8315 -1.6230  2.2661
 1020MOL0     H40722   6.299   8.213   5.067  1.9228  0.0900 -1.5281
 1020MOL0     H40723   6.187   8.060   4.912  4.0712  1.0594 -2.4800
 1020MOL0     H40724   6.044   7.878   4.862 -0.5968 -0.5003  2.4222
 1020MOL0     H40725   6.190   7.863   4.758  1.6540 -1.4180  0.1049
 1020MOL0     H40726   6.029   7.718   4.668  1.5715  1.1986  0.6159
 1020MOL0     H40727   6.159   7.627   4.757  1.0545 -0.0786  0.1819
 1020MOL0     H40728   5.877   7.654   4.863  0.9637  0.3280  3.9120
 1020MOL0     H40729   6.020   7.612   4.958 -0.2674  0.1509  0.1226
 1020MOL0     H40730   6.050   7.419   4.778  0.3817  0.1773  0.9309
 1020MOL0     H40731   5.895   7.473   4.710 -0.0201  2.2562 -0.5333
 1020MOL0     H40732   5.907   7.381   5.003 -0.4595  0.0484  0.3928
 1020MOL0     H40733   5.773   7.388   4.900 -0.3751  2.3243  1.0447
 1020MOL0     H40734   6.008   7.194   4.840 -0.0528 -1.6570 -2.3158
 1020MOL0     H40735   5.862   7.216   4.745  0.8643 -1.8795  0.4131
 1020MOL0     H40736   5.882   7.110   5.038 -0.5320 -2.2813  1.1441
 1020MOL0     H40737   5.857   7.014   4.899  1.0305  1.0023  0.7734
 1020MOL0     H40738   5.658   7.213   5.019  2.8220  1.0049  0.3393
 1020MOL0     H40739   5.636   7.047   4.998 -0.2010  3.2175  4.5570
 1020MOL0     H40740   6.380   7.731   5.116  0.8212  0.7317  1.8528
 1020MOL0     H40741   6.525   7.892   5.229  0.0561 -1.3961 -0.9518
 1020MOL0     H40742   6.496   8.212   5.472  0.0571 -0.1878 -3.4901
 1020MOL0     H40743   6.616   8.273   5.686  1.1944 -2.3609  0.7067
 1020MOL0     H40744   6.035   7.359   5.312 -0.3300 -0.6400 -3.7750
 1020MOL0     H40745   5.974   7.102   5.290  0.0981 -1.2571  0.0311
 1020MOL0     H40746   5.639   6.813   5.264  2.3532 -0.1949 -0.9866
 1020MOL0     H40747   5.588   6.572   5.224 -0.1964 -0.7358  0.2460
 1020MOL0     H40748   5.755   6.248   5.524 -0.1333 -0.4024 -0.1360
 1020MOL0     H40749   5.601   6.309   5.594  0.0027  1.5769 -0.3031
 1020MOL0     H40750   5.473   6.146   5.462 -0.0524  0.7537  1.9237
 1020MOL0     H40751   5.607   6.063   5.530 -1.3180 -0.9278 -0.8513
 1020MOL0     H40752   5.573   6.010   5.301 -0.4206  1.0290  2.7478
 1020MOL0     H40753   5.637   6.173   5.250 -2.4034  0.4630  0.3846
 1020MOL0     H40754   5.781   5.925   5.384 -2.5484  0.4927  1.2074
 1020MOL0     H40755   5.849   6.082   5.399  0.3316 -0.9808  0.5463
 1020MOL0     H40756   5.927   5.977   5.006  1.1507 -1.1799  0.9986
 1020MOL0     H40757   5.790   6.477   5.596  2.8731 -1.6363 -1.8938
 1020MOL0     H40758   5.903   6.805   5.668 -0.3636  1.1894 -1.5600
 1020MOL0     H40759   5.763   6.745   5.754 -0.4301 -1.0204 -1.5019
 1020MOL0     H40760   5.900   6.641   5.710  0.3061  1.2998  0.2493
 1021MOL0     O40761   7.127   0.365   1.361 -0.3194 -0.8963 -0.0622
 1021MOL0     C40762   7.123   0.375   1.236  0.5017  0.0742 -1.0108
 1021MOL0     O40763   7.190   0.465   1.162 -0.1832 -0.1665  0.0554
 1021MOL0     C40764   7.305   0.505   1.223  0.2814  0.0210 -0.1572
 1021MOL0     C40765   7.334   0.642   1.248 -0.9787 -0.1953  0.3318
 1021MOL0     C40766   7.473   0.670   1.286  0.5463  0.5981  0.6081
 1021MOL0     C40767   7.567   0.568   1.305  0.2510  0.1642 -0.2133
 1021MOL0     O40768   7.691   0.593   1.342 -0.1032 -0.4008  0.6540
 1021MOL0     C40769   7.754   0.715   1.318 -0.4950  0.1027  0.0150
 1021MOL0     C40770   7.893   0.688   1.373 -0.5652 -0.4525  0.0348
 1021MOL0     C40771   7.977   0.819   1.370  0.2315  0.0824  0.3550
 1021MOL0     C40772   8.129   0.777   1.354  0.4336 -1.0058 -0.0360
 1021MOL0     C40773   8.236   0.888   1.291  0.2735 -0.1273 -0.0060
 1021MOL0     C40774   8.185   0.937   1.157 -0.0459 -0.2664 -0.2106
 1021MOL0     C40775   8.290   0.923   1.041 -0.0016 -0.3076 -0.9615
 1021MOL0     C40776   8.233   0.871   0.901 -0.2759  0.2100  0.9319
 1021MOL0     N40777   8.162   0.749   0.913  0.0245  0.4852 -0.4855
 1021MOL0     C40778   8.063   0.689   0.831 -0.3188 -0.2015 -0.1900
 1021MOL0     C40779   8.056   0.555   0.875  0.3924  0.6673 -1.3113
 1021MOL0     C40780   7.976   0.447   0.811  0.3380 -0.2455 -0.0976
 1021MOL0     C40781   7.829   0.482   0.804 -0.0898 -0.6434 -0.8215
 1021MOL0     C40782   7.761   0.503   0.942  0.4181 -0.0927  0.1015
 1021MOL0     C40783   7.612   0.519   0.932  0.2549 -0.2278 -0.8001
 1021MOL0     O40784   7.552   0.455   0.825  0.8548 -0.3377 -0.6584
 1021MOL0     C40785   7.519   0.315   0.832  0.0870  0.1552 -1.0532
 1021MOL0     C40786   7.406   0.274   0.771  0.1211 -0.3296 -0.2639
 1021MOL0     C40787   7.356   0.146   0.772  0.2837 -0.4389  0.3003
 1021MOL0     C40788   7.241   0.129   0.683  0.3275 -0.3689 -0.7393
 1021MOL0     C40789   7.420   0.052   0.856  0.8569 -0.0005 -0.7817
 1021MOL0     C40790   7.367  -0.083   0.863 -1.1654  0.1100  1.8438
 1021MOL0     O40791   7.431  -0.173   0.778 -0.3881  0.3855  0.2603
 1021MOL0     C40792   7.374  -0.296   0.750  0.4644 -0.0721  0.0461
 1021MOL0     C40793   7.428  -0.410   0.811 -0.6813  0.2405  0.1509
 1021MOL0     C40794   7.375  -0.537   0.780  0.2358  0.6342  0.1025
 1021MOL0     C40795   7.275  -0.546   0.675 -0.5329  0.1965  0.6169
 1021MOL0     O40796   7.243  -0.667   0.619 -0.0803  0.8834  0.0396
 1021MOL0     C40797   7.252  -0.786   0.708 -0.2725  0.2899  0.3259
 1021MOL0     C40798   7.175  -0.907   0.655  0.4082  0.1018 -0.0697
 1021MOL0     C40799   7.023  -0.882   0.665  0.7718  0.3284 -0.6820
 1021MOL0     C40800   6.961  -1.020   0.626  0.1788  0.2751 -0.4110
 1021MOL0     C40801   6.807  -1.015   0.612  0.3674 -1.1187 -0.3873
 1021MOL0     C40802   6.743  -0.960   0.739 -0.0421 -0.2067 -0.5924
 1021MOL0     C40803   6.609  -1.044   0.746 -0.2964  0.4256 -1.4749
 1021MOL0     C40804   6.557  -1.032   0.890  0.2920  0.4829 -0.6204
 1021MOL0    Cl40805   6.651  -1.105   1.035  0.4254  0.1067 -0.1737
 1021MOL0     C40806   7.218  -0.436   0.620  0.7458  0.4523  0.5777
 1021MOL0     C40807   7.268  -0.313   0.665 -0.1197 -0.7009 -0.6309
 1021MOL0     O40808   7.255  -0.103   0.918  0.5208 -0.4788 -0.3362
 1021MOL0     C40809   7.531   0.093   0.929  0.4568 -0.5760 -0.0693
 1021MOL0     C40810   7.583   0.227   0.920 -0.3856 -0.1935 -0.6662
 1021MOL0     N40811   8.141   0.541   0.984 -0.1013 -0.0855 -0.0727
 1021MOL0     N40812   8.205   0.652   0.995 -0.9717 -0.1347  0.2270
 1021MOL0     C40813   7.534   0.440   1.255 -0.6960  0.3404  0.0939
 1021MOL0     C40814   7.404   0.410   1.214  0.4618  0.7212  0.7616
 1021MOL0     C40815   7.018   0.302   1.164  0.0275 -0.7162  0.5210
 1021MOL0     C40816   7.053   0.200   1.088 -0.2638  0.5233  0.2283
 1021MOL0     C40817   6.963   0.128   1.017 -0.2729 -0.2688 -1.0236
 1021MOL0     C40818   6.828   0.157   1.025 -0.3312 -0.5424  0.5891
 1021MOL0     O40819   6.742   0.089   0.944 -1.2600 -0.3893 -0.4516
 1021MOL0     C40820   6.716  -0.041   0.983 -0.1582  0.5143 -0.2666
 1021MOL0     C40821   6.566  -0.066   0.968 -0.6322  0.7136  0.0107
 1021MOL0     C40822   6.468   0.025   1.048 -0.5554  0.8530  0.3282
 1021MOL0     C40823   6.319  -0.015   1.041 -0.2697  0.4632 -0.1070
 1021MOL0     C40824   6.262   0.010   0.905 -0.3437 -0.0747  0.0933
 1021MOL0     C40825   6.219   0.011   0.795 -0.2996 -0.3793 -0.4896
 1021MOL0     C40826   6.783   0.259   1.115  0.1479 -0.2302  0.6542
 1021MOL0     C40827   6.881   0.338   1.178 -0.6320  0.2555 -0.1472
 1021MOL0     C40828   6.843   0.463   1.247 -0.5131 -0.3858 -0.5883
 1021MOL0     H40829   7.260   0.721   1.257 -0.8857 -0.2865  2.7023
 1021MOL0     H40830   7.494   0.774   1.310 -0.0669  0.6187  1.1125
 1021MOL0     H40831   7.715   0.802   1.373 -1.1572  0.4416 -0.9577
 1021MOL0     H40832   7.762   0.738   1.211  0.7587  0.3707  0.1465
 1021MOL0     H40833   7.875   0.661   1.478 -1.1059 -1.1563 -0.2252
 1021MOL0     H40834   7.936   0.600   1.325 -1.6087 -0.1212 -1.5899
 1021MOL0     H40835   7.945   0.879   1.285  1.3689  0.1100 -0.0730
 1021MOL0     H40836   7.949   0.867   1.464 -2.4488 -1.6101  0.5122
 1021MOL0     H40837   8.157   0.720   1.443 -2.9933  0.8803  2.4898
 1021MOL0     H40838   8.127   0.699   1.276  1.0106 -0.4763 -0.5874
 1021MOL0     H40839   8.328   0.829   1.282  0.4683 -0.0924  1.4640
 1021MOL0     H40840   8.250   0.969   1.364  0.6123  0.6298 -0.8861
 1021MOL0     H40841   8.105   0.873   1.119  1.3548 -1.6796 -0.8663
 1021MOL0     H40842   8.162   1.043   1.175  2.5599  0.3281 -0.0023
 1021MOL0     H40843   8.355   0.844   1.081 -0.9792  1.1050  4.1579
 1021MOL0     H40844   8.344   1.018   1.033 -1.2827  0.4317 -1.0508
 1021MOL0     H40845   8.171   0.950   0.858  0.2434  0.9821  1.5673
 1021MOL0     H40846   8.312   0.852   0.828  1.1930  0.9361  2.2798
 1021MOL0     H40847   8.005   0.724   0.746  1.2735 -1.2836 -1.7904
 1021MOL0     H40848   7.989   0.360   0.876  0.4298  1.2321  2.0046
 1021MOL0     H40849   8.026   0.430   0.716  2.6205 -0.6348  1.1037
 1021MOL0     H40850   7.825   0.564   0.731 -1.7333 -0.6532 -0.7636
 1021MOL0     H40851   7.779   0.394   0.761 -0.7660 -1.8305  2.1916
 1021MOL0     H40852   7.788   0.426   1.014 -1.3493  1.1123  2.1909
 1021MOL0     H40853   7.798   0.592   0.994 -0.3025  0.6704 -0.6517
 1021MOL0     H40854   7.567   0.498   1.029  2.1641 -2.6303 -0.3339
 1021MOL0     H40855   7.591   0.624   0.912 -2.5815 -0.7762 -1.0533
 1021MOL0     H40856   7.350   0.345   0.712  0.4974 -1.4262 -2.0204
 1021MOL0     H40857   7.249   0.024   0.652 -1.7014 -1.0067  0.6263
 1021MOL0     H40858   7.254   0.189   0.593  0.3258  2.3383  0.9539
 1021MOL0     H40859   7.145   0.153   0.729  0.7728 -0.6477  0.3886
 1021MOL0     H40860   7.490  -0.391   0.897 -2.1338  0.5728  1.1627
 1021MOL0     H40861   7.424  -0.623   0.824  1.6337  1.4836  0.2296
 1021MOL0     H40862   7.354  -0.819   0.730  0.5479  0.8130 -2.3191
 1021MOL0     H40863   7.204  -0.782   0.806  0.0090 -1.6259  0.5840
 1021MOL0     H40864   7.201  -0.933   0.552  0.2367  0.9614 -0.3344
 1021MOL0     H40865   7.206  -0.989   0.721 -0.7936  1.0909  1.8053
 1021MOL0     H40866   6.994  -0.799   0.601 -1.0113 -0.3807 -0.8376
 1021MOL0     H40867   6.983  -0.857   0.764  2.3237  2.3547 -0.5006
 1021MOL0     H40868   6.993  -1.095   0.699  0.7257  2.1387  1.3776
 1021MOL0     H40869   6.999  -1.060   0.532  0.1481  1.4331 -0.9339
 1021MOL0     H40870   6.774  -0.950   0.530 -2.1191 -2.7084 -0.7459
 1021MOL0     H40871   6.786  -1.122   0.606  2.0060 -1.6276  1.6232
 1021MOL0     H40872   6.733  -0.852   0.732 -2.8567 -0.3763 -0.2851
 1021MOL0     H40873   6.807  -0.981   0.825  1.7079 -0.7487 -1.9557
 1021MOL0     H40874   6.627  -1.150   0.724  0.2288  0.0842  0.3904
 1021MOL0     H40875   6.540  -1.000   0.673 -0.3771  2.2306 -0.3531
 1021MOL0     H40876   6.457  -1.075   0.880  0.8804 -0.6618 -1.9421
 1021MOL0     H40877   6.544  -0.930   0.926  0.0425  1.0833 -2.3008
 1021MOL0     H40878   7.140  -0.442   0.545  1.2315 -0.0854  0.1167
 1021MOL0     H40879   7.237  -0.217   0.624 -0.3177  0.0001  1.0977
 1021MOL0     H40880   7.583   0.013   0.981  2.1426 -0.3524 -1.3452
 1021MOL0     H40881   7.679   0.247   0.967 -1.6692  0.6869  1.7632
 1021MOL0     H40882   7.619   0.373   1.245  0.3881  1.5642  0.7922
 1021MOL0     H40883   7.390   0.318   1.158 -0.4139  0.2825  1.6698
 1021MOL0     H40884   7.158   0.175   1.075 -0.1955  0.6074  0.6042
 1021MOL0     H40885   6.997   0.047   0.952 -2.3020 -2.0885  0.0631
 1021MOL0     H40886   6.771  -0.107   0.916  2.9094  2.7592 -0.1723
 1021MOL0     H40887   6.747  -0.062   1.086 -1.8308 -2.4337 -0.2422
 1021MOL0     H40888   6.554  -0.167   1.009  1.5622  0.8810  1.1836
 1021MOL0     H40889   6.538  -0.047   0.864 -2.2804  1.0198  0.4841
 1021MOL0     H40890   6.495   0.030   1.153  0.2891  1.6851  0.0854
 1021MOL0     H40891   6.461   0.126   1.006 -2.6214  0.1369 -1.2270
 1021MOL0     H40892   6.266   0.047   1.114 -0.5392  1.4095 -1.0977
 1021MOL0     H40893   6.311  -0.121   1.070  3.8992 -0.3268 -1.1849
 1021MOL0     H40894   6.161  -0.009   0.707  0.2549 -1.1839 -0.6909
 1021MOL0     H40895   6.678   0.284   1.130  0.5514  1.3381  1.0163
 1021MOL0     H40896   6.766   0.519   1.192 -0.4211 -0.3614 -0.6932
 1021MOL0     H40897   6.792   0.431   1.339  1.6234  0.1971  0.8789
 1021MOL0     H40898   6.925   0.533   1.266 -0.0765 -1.0266 -0.0794
 1022MOL0     O40899   2.657   6.380   6.820  0.3063  0.1828  0.2075
 1022MOL0     C40900   2.549   6.363   6.877  0.3031 -0.5630  0.0299
 1022MOL0     O40901   2.525   6.274   6.981 -0.4302  0.4038  1.1969
 1022MOL0     C40902   2.636   6.214   7.041  0.7300 -0.2283  0.3865
 1022MOL0     C40903   2.657   6.077   7.056 -0.2004  0.2656  0.3482
 1022MOL0     C40904   2.768   6.019   7.130  0.1758  0.0256 -0.4270
 1022MOL0     C40905   2.849   6.112   7.200  0.6073 -0.8379  0.1981
 1022MOL0     O40906   2.957   6.074   7.276  0.6067 -0.0544 -1.0042
 1022MOL0     C40907   2.970   5.936   7.310 -0.1786  0.4626 -0.2290
 1022MOL0     C40908   3.100   5.922   7.391  0.8919  0.3051 -0.4944
 1022MOL0     C40909   3.221   5.980   7.320  0.8897  0.6500  0.7728
 1022MOL0     C40910   3.348   5.957   7.393 -0.7112 -0.0408  0.2657
 1022MOL0     C40911   3.477   6.008   7.326 -0.3022 -0.2766 -0.0177
 1022MOL0     C40912   3.485   6.160   7.302 -0.3877  0.2812  0.2370
 1022MOL0     C40913   3.602   6.211   7.216 -0.4211 -0.7750 -0.6415
 1022MOL0     C40914   3.732   6.223   7.299  0.8444 -0.1500 -0.8910
 1022MOL0     N40915   3.842   6.302   7.237  0.1892 -0.4348 -0.6545
 1022MOL0     C40916   3.951   6.350   7.302  0.5274 -0.1769  0.0576
 1022MOL0     C40917   4.038   6.377   7.201 -0.4659  0.8897 -0.0638
 1022MOL0     C40918   4.179   6.433   7.222 -0.2177  0.1357 -0.4676
 1022MOL0     C40919   4.255   6.495   7.099 -0.3984 -0.6602 -0.1199
 1022MOL0     C40920   4.326   6.386   7.012 -0.3609  0.1991 -0.0978
 1022MOL0     C40921   4.440   6.437   6.919  0.1458 -0.5162 -0.5747
 1022MOL0     O40922   4.388   6.544   6.837 -0.0838  0.0759 -0.9845
 1022MOL0     C40923   4.354   6.524   6.704 -0.3311 -0.9476  0.3637
 1022MOL0     C40924   4.325   6.638   6.630  0.0436 -1.0026 -0.1255
 1022MOL0     C40925   4.286   6.636   6.497 -0.1564 -0.1382  0.6199
 1022MOL0     C40926   4.282   6.777   6.434 -0.6634  0.1283  0.1764
 1022MOL0     C40927   4.276   6.511   6.441  0.4093 -0.4855  0.9354
 1022MOL0     C40928   4.230   6.498   6.306 -0.5220 -0.9303 -0.1788
 1022MOL0     O40929   4.250   6.371   6.260 -0.7796 -0.1043  0.9512
 1022MOL0     C40930   4.208   6.306   6.146  0.2511 -0.0361 -0.6191
 1022MOL0     C40931   4.190   6.370   6.016 -0.1925 -0.2280 -1.1298
 1022MOL0     C40932   4.153   6.299   5.898 -0.8630 -0.0626 -0.9450
 1022MOL0     C40933   4.122   6.165   5.912 -0.4987 -0.6362  0.4457
 1022MOL0     O40934   4.093   6.083   5.808 -0.1632  0.2356  0.2613
 1022MOL0     C40935   4.021   6.120   5.695 -0.2865 -0.4360  0.4989
 1022MOL0     C40936   3.873   6.120   5.721 -0.4062 -0.1561 -0.4039
 1022MOL0     C40937   3.795   6.114   5.599 -0.7421  0.4567  0.5892
 1022MOL0     C40938   3.805   6.243   5.506  0.2909  0.5894  0.4645
 1022MOL0     C40939   3.678   6.258   5.418  0.1899 -0.0147  0.4251
 1022MOL0     C40940   3.660   6.134   5.312 -0.3553 -0.1188 -0.1564
 1022MOL0     C40941   3.550   6.159   5.208 -0.5137  0.2746  1.2272
 1022MOL0     C40942   3.530   6.033   5.127 -0.2953 -0.2379 -0.4446
 1022MOL0    Cl40943   3.373   6.049   5.043 -0.4691 -0.0417  0.2170
 1022MOL0     C40944   4.124   6.104   6.037 -0.8968  0.9050 -0.3701
 1022MOL0     C40945   4.161   6.171   6.152  0.2234 -0.6957 -0.7804
 1022MOL0     O40946   4.196   6.594   6.235 -0.4889  0.4247 -0.0570
 1022MOL0     C40947   4.305   6.395   6.511 -0.5730  0.1289  0.4192
 1022MOL0     C40948   4.343   6.396   6.645 -0.0969  0.2687 -0.2362
 1022MOL0     N40949   3.986   6.343   7.074  1.4186 -0.2119 -0.5247
 1022MOL0     N40950   3.865   6.300   7.100  0.2216  0.2966 -0.2855
 1022MOL0     C40951   2.824   6.257   7.194  0.6945 -0.0706 -0.2033
 1022MOL0     C40952   2.717   6.307   7.119 -0.7126  0.4810  0.7744
 1022MOL0     C40953   2.427   6.425   6.825  0.0500 -0.5157  0.3881
 1022MOL0     C40954   2.339   6.481   6.918  0.3340 -0.3361  0.6620
 1022MOL0     C40955   2.215   6.538   6.871 -0.5647  0.7678  0.8166
 1022MOL0     C40956   2.189   6.555   6.734  0.0876  0.4261  0.4557
 1022MOL0     O40957   2.078   6.604   6.679 -0.1351 -0.3758 -0.4543
 1022MOL0     C40958   1.946   6.573   6.744  0.0394  0.7932  0.6464
 1022MOL0     C40959   1.899   6.426   6.757 -0.3519  0.3499 -0.6877
 1022MOL0     C40960   1.886   6.343   6.632 -0.7079  0.1978  0.9517
 1022MOL0     C40961   1.836   6.197   6.655  0.0624 -0.1242  0.5278
 1022MOL0     C40962   1.698   6.192   6.713 -0.5207  0.1695 -0.4272
 1022MOL0     C40963   1.590   6.199   6.770  0.2886  0.5316 -0.1389
 1022MOL0     C40964   2.279   6.500   6.643 -0.7237  0.3724  0.4119
 1022MOL0     C40965   2.401   6.439   6.688  0.0801  0.3481  0.0246
 1022MOL0     C40966   2.489   6.388   6.579  0.1674 -0.4811  0.0496
 1022MOL0     H40967   2.584   6.015   7.004  1.4191  1.2455 -3.3905
 1022MOL0     H40968   2.765   5.911   7.147 -3.0939  0.2165  1.0670
 1022MOL0     H40969   2.983   5.874   7.222  1.4559 -1.0267  1.0102
 1022MOL0     H40970   2.880   5.897   7.360 -0.4273  0.7778 -0.4229
 1022MOL0     H40971   3.076   5.968   7.487 -1.3170  1.7803 -1.6683
 1022MOL0     H40972   3.112   5.815   7.408 -1.2413 -0.1800 -1.7660
 1022MOL0     H40973   3.226   5.931   7.222 -0.7885 -0.2693  1.1035
 1022MOL0     H40974   3.207   6.088   7.310 -0.7303  0.2859 -2.4272
 1022MOL0     H40975   3.340   6.005   7.491  2.6738  0.8174  0.2481
 1022MOL0     H40976   3.361   5.849   7.408 -2.0050 -0.1910  0.4029
 1022MOL0     H40977   3.489   5.954   7.231  0.8616  0.0877 -0.0934
 1022MOL0     H40978   3.561   5.976   7.388  0.2708  1.4545  0.1453
 1022MOL0     H40979   3.388   6.183   7.257  0.0762  0.8919 -0.4632
 1022MOL0     H40980   3.481   6.208   7.401 -4.2094 -0.9150  0.8547
 1022MOL0     H40981   3.578   6.308   7.171 -1.5150 -2.2973 -3.6007
 1022MOL0     H40982   3.615   6.149   7.127  0.4975 -0.1560 -0.9512
 1022MOL0     H40983   3.704   6.265   7.396 -0.7614  1.8199 -2.0985
 1022MOL0     H40984   3.770   6.124   7.326  0.9103  0.1832  0.2613
 1022MOL0     H40985   3.963   6.358   7.410  2.1116  1.1052 -0.1701
 1022MOL0     H40986   4.237   6.349   7.260  1.5480  1.7838  0.7008
 1022MOL0     H40987   4.161   6.503   7.304 -0.8043 -0.3858 -0.1442
 1022MOL0     H40988   4.196   6.566   7.041  2.4717  2.5388  0.4940
 1022MOL0     H40989   4.335   6.550   7.150 -0.0693 -0.3378 -0.9601
 1022MOL0     H40990   4.371   6.313   7.079 -2.1976 -0.7303  0.1957
 1022MOL0     H40991   4.254   6.325   6.956 -0.6753 -1.7674  2.3067
 1022MOL0     H40992   4.514   6.488   6.982  0.3431  0.7860 -1.7915
 1022MOL0     H40993   4.492   6.360   6.862 -0.4895 -1.9377  0.7192
 1022MOL0     H40994   4.336   6.727   6.692  0.3239  0.2566 -1.8825
 1022MOL0     H40995   4.358   6.840   6.480 -0.3899 -0.6716  0.8342
 1022MOL0     H40996   4.187   6.830   6.446 -1.3434 -1.1390  0.6068
 1022MOL0     H40997   4.283   6.769   6.324 -1.7654 -2.3841  0.2734
 1022MOL0     H40998   4.191   6.478   6.027  1.5143 -0.4901  2.4705
 1022MOL0     H40999   4.163   6.350   5.803  2.2063 -0.8870 -1.1650
 1022MOL0     H41000   4.056   6.221   5.672  0.5979 -0.5296  1.3832
 1022MOL0     H41001   4.031   6.051   5.611 -1.3466  1.0588 -0.9302
 1022MOL0     H41002   3.859   6.023   5.770  2.4775 -0.1896  0.5461
 1022MOL0     H41003   3.839   6.202   5.785 -1.1729 -0.8439  0.0870
 1022MOL0     H41004   3.690   6.086   5.616 -0.6092 -2.6172 -2.5474
 1022MOL0     H41005   3.838   6.029   5.545 -1.2854  1.0980 -0.9109
 1022MOL0     H41006   3.890   6.247   5.438 -2.4178  1.7674 -3.1767
 1022MOL0     H41007   3.824   6.336   5.562 -0.2237  0.1917  1.3251
 1022MOL0     H41008   3.590   6.264   5.482  0.0468  2.2956  0.1171
 1022MOL0     H41009   3.682   6.353   5.363  5.0100 -0.1053  0.1734
 1022MOL0     H41010   3.631   6.049   5.375 -0.7527  1.0442  1.2756
 1022MOL0     H41011   3.754   6.098   5.270 -0.9003  0.1652 -1.6739
 1022MOL0     H41012   3.570   6.241   5.139 -1.8719  0.1485  0.6590
 1022MOL0     H41013   3.460   6.192   5.260 -1.3165  0.2973 -0.1209
 1022MOL0     H41014   3.531   5.943   5.190 -1.2055  1.0147  1.4490
 1022MOL0     H41015   3.626   6.022   5.075  0.7587  1.0928  1.1314
 1022MOL0     H41016   4.101   5.998   6.032 -0.5980  0.8379 -0.3069
 1022MOL0     H41017   4.148   6.113   6.242 -0.3221 -0.1874 -0.5296
 1022MOL0     H41018   4.308   6.296   6.466  0.9325  1.3237 -2.2910
 1022MOL0     H41019   4.347   6.301   6.698  0.5344  0.6760  0.4698
 1022MOL0     H41020   2.878   6.339   7.240 -1.8123  2.6290 -1.7104
 1022MOL0     H41021   2.694   6.413   7.117  1.0360  0.8787 -0.1905
 1022MOL0     H41022   2.357   6.471   7.025 -0.3285  1.0926  0.9228
 1022MOL0     H41023   2.141   6.583   6.936  0.2544  1.2249  1.4460
 1022MOL0     H41024   1.958   6.621   6.841 -1.8231  0.1289  1.2452
 1022MOL0     H41025   1.857   6.615   6.695  0.2588 -1.7443 -2.2925
 1022MOL0     H41026   1.811   6.422   6.821  1.4799 -1.6876  1.9431
 1022MOL0     H41027   1.978   6.378   6.816 -0.2791  1.8130  0.4690
 1022MOL0     H41028   1.821   6.399   6.564 -0.0700  1.4090  1.2986
 1022MOL0     H41029   1.980   6.321   6.581 -0.5989 -4.1144  2.5921
 1022MOL0     H41030   1.892   6.132   6.723  0.9813  0.5009  0.3824
 1022MOL0     H41031   1.832   6.144   6.559  0.8661  1.1970 -0.2603
 1022MOL0     H41032   1.498   6.185   6.823  0.2050 -1.1960 -0.6822
 1022MOL0     H41033   2.250   6.500   6.539  2.2867 -0.2114 -0.5062
 1022MOL0     H41034   2.578   6.448   6.559 -0.3418  0.0786 -0.5943
 1022MOL0     H41035   2.530   6.289   6.601 -0.0165 -0.0649  2.5338
 1022MOL0     H41036   2.431   6.383   6.486 -1.1214 -0.4084  0.8303
 1023MOL0     O41037   0.541   4.574   4.632  0.0692  0.4445  0.0365
 1023MOL0     C41038   0.532   4.669   4.552 -0.6006  0.2438 -1.0306
 1023MOL0     O41039   0.494   4.798   4.594 -0.2384  0.0403 -0.3473
 1023MOL0     C41040   0.465   4.831   4.722 -0.4003 -0.0350  0.2414
 1023MOL0     C41041   0.566   4.835   4.825 -0.0442 -0.3522 -0.1426
 1023MOL0     C41042   0.534   4.846   4.954  0.0802  0.1184 -0.8986
 1023MOL0     C41043   0.400   4.873   4.995  0.4934  0.4712 -0.1374
 1023MOL0     O41044   0.362   4.887   5.129  0.7061 -0.0842  0.2150
 1023MOL0     C41045   0.453   4.847   5.235 -0.1760  0.0835  0.3384
 1023MOL0     C41046   0.394   4.874   5.379 -0.0577 -0.5116  0.7659
 1023MOL0     C41047   0.347   5.017   5.399  0.4664  0.8610  0.4635
 1023MOL0     C41048   0.262   5.028   5.521  0.7007  0.5525  0.2446
 1023MOL0     C41049   0.229   5.172   5.564  0.1454 -0.3775 -0.9668
 1023MOL0     C41050   0.120   5.166   5.675 -0.1919  0.0055  0.1074
 1023MOL0     C41051   0.124   5.286   5.774 -1.0019  1.1110  0.6449
 1023MOL0     C41052   0.027   5.282   5.883 -0.5652 -0.3299  0.3987
 1023MOL0     N41053   0.017   5.415   5.947 -0.3340  0.4312 -0.6840
 1023MOL0     C41054   0.092   5.465   6.053 -0.1314  0.2049 -0.0979
 1023MOL0     C41055   0.013   5.560   6.109  0.2328  0.4627  1.0519
 1023MOL0     C41056   0.042   5.644   6.231 -0.8289 -0.0561  0.2290
 1023MOL0     C41057   0.136   5.588   6.340 -0.4505  0.2111 -0.0288
 1023MOL0     C41058   0.204   5.690   6.431  0.4284 -0.1887  0.2255
 1023MOL0     C41059   0.311   5.622   6.521  0.0959  0.9369  0.0890
 1023MOL0     O41060   0.405   5.539   6.454 -0.6261 -0.5056 -0.1497
 1023MOL0     C41061   0.536   5.570   6.479 -0.6144 -0.1488  1.0109
 1023MOL0     C41062   0.586   5.700   6.507  1.0066  0.1152 -0.4398
 1023MOL0     C41063   0.721   5.719   6.534 -0.0939 -0.3052 -0.0753
 1023MOL0     C41064   0.767   5.852   6.563  0.1748 -1.4866  0.0474
 1023MOL0     C41065   0.809   5.603   6.522 -1.0540  0.2505  0.0535
 1023MOL0     C41066   0.963   5.603   6.511  0.6187  0.4881  0.3501
 1023MOL0     O41067   1.020   5.484   6.470  0.4318 -1.6006 -1.2121
 1023MOL0     C41068   1.160   5.481   6.444 -0.2215  0.1868  0.6577
 1023MOL0     C41069   1.232   5.378   6.504  0.9904 -0.2304 -0.3300
 1023MOL0     C41070   1.368   5.361   6.477  0.3654  0.4612 -0.7593
 1023MOL0     C41071   1.431   5.427   6.379 -0.2442 -0.5246  0.5348
 1023MOL0     O41072   1.570   5.439   6.372 -0.2855 -0.5339  0.1802
 1023MOL0     C41073   1.644   5.319   6.401  0.4295 -0.3978 -0.8061
 1023MOL0     C41074   1.776   5.357   6.333 -0.4342  0.7051  0.8442
 1023MOL0     C41075   1.877   5.242   6.325  0.4631 -0.0902 -0.2070
 1023MOL0     C41076   2.025   5.302   6.340 -0.2713  0.5445 -0.0120
 1023MOL0     C41077   2.136   5.201   6.309 -1.0839 -0.7383 -1.0425
 1023MOL0     C41078   2.135   5.129   6.172  0.0066  0.1686  0.7826
 1023MOL0     C41079   2.260   5.042   6.140  0.9815  0.5386 -0.6070
 1023MOL0     C41080   2.216   4.938   6.042 -0.8259  0.5488 -0.0519
 1023MOL0    Cl41081   2.151   5.011   5.886 -0.1870 -0.2793  0.2225
 1023MOL0     C41082   1.358   5.529   6.321  0.0036 -0.0700 -0.6610
 1023MOL0     C41083   1.221   5.558   6.344 -0.4932  0.9392  0.0275
 1023MOL0     O41084   1.026   5.709   6.522  0.7870 -0.3124  0.3282
 1023MOL0     C41085   0.753   5.483   6.472 -0.0797  1.4880 -0.7204
 1023MOL0     C41086   0.612   5.462   6.456 -0.0260 -0.4481  1.0939
 1023MOL0     N41087  -0.085   5.588   6.017 -0.1302  0.1138  0.3835
 1023MOL0     N41088  -0.091   5.498   5.934 -0.3954 -0.1143 -0.0622
 1023MOL0     C41089   0.300   4.879   4.892  0.9477  0.9543  0.2215
 1023MOL0     C41090   0.337   4.860   4.758  0.4813 -0.0856  0.5809
 1023MOL0     C41091   0.542   4.645   4.411 -0.4281  0.6222 -0.2181
 1023MOL0     C41092   0.462   4.725   4.334  0.5530  0.5360  1.3016
 1023MOL0     C41093   0.477   4.721   4.193  0.3543 -0.1405 -0.0004
 1023MOL0     C41094   0.554   4.622   4.135 -1.3721 -0.6268  1.0501
 1023MOL0     O41095   0.573   4.600   3.997 -0.8706  0.1069 -0.2039
 1023MOL0     C41096   0.505   4.685   3.898 -0.4380 -1.2144 -0.2395
 1023MOL0     C41097   0.359   4.643   3.880  0.3300  0.8122 -0.1846
 1023MOL0     C41098   0.290   4.732   3.773 -0.0326 -1.2006 -0.9379
 1023MOL0     C41099   0.282   4.889   3.794  0.8290 -0.2097 -0.7698
 1023MOL0     C41100   0.209   4.921   3.916 -0.7244 -0.4011  0.3239
 1023MOL0     C41101   0.141   4.959   4.010  0.0165 -0.2770 -0.4374
 1023MOL0     C41102   0.631   4.538   4.209  0.0329 -0.4724 -0.3022
 1023MOL0     C41103   0.624   4.541   4.351 -0.7553 -0.6585  0.9512
 1023MOL0     C41104   0.716   4.444   4.413  0.1641  1.2264 -0.0775
 1023MOL0     H41105   0.659   4.787   4.796  0.5452  0.7498 -0.1143
 1023MOL0     H41106   0.620   4.835   5.020 -1.4482 -0.6353  1.0911
 1023MOL0     H41107   0.548   4.901   5.231 -0.0844 -0.1245 -0.6501
 1023MOL0     H41108   0.469   4.739   5.227 -1.8292 -0.1161 -0.9053
 1023MOL0     H41109   0.312   4.806   5.407 -1.1697  1.6953  3.3401
 1023MOL0     H41110   0.473   4.866   5.453  1.4962  2.0523 -0.4839
 1023MOL0     H41111   0.433   5.085   5.402 -1.3815  3.4069 -0.7274
 1023MOL0     H41112   0.283   5.054   5.319  1.6493 -2.2651 -2.1664
 1023MOL0     H41113   0.171   4.973   5.497  0.1032  1.6097 -0.0053
 1023MOL0     H41114   0.315   4.979   5.603 -0.8510  1.4013  1.8410
 1023MOL0     H41115   0.190   5.227   5.478  0.2972  0.4168 -0.5371
 1023MOL0     H41116   0.317   5.223   5.603 -0.4987 -0.0262  0.0513
 1023MOL0     H41117   0.021   5.163   5.627 -1.4639 -2.0200  2.5673
 1023MOL0     H41118   0.141   5.072   5.729 -1.8908 -1.0817 -1.0124
 1023MOL0     H41119   0.120   5.376   5.712  3.8471  1.5294  0.5343
 1023MOL0     H41120   0.224   5.290   5.819 -0.5516 -1.3174  0.0056
 1023MOL0     H41121  -0.073   5.256   5.849 -0.6409  2.0664 -1.4556
 1023MOL0     H41122   0.060   5.205   5.954  1.1836 -2.1803 -2.2583
 1023MOL0     H41123   0.185   5.424   6.092  0.5608  0.9149 -0.9771
 1023MOL0     H41124  -0.051   5.661   6.286 -1.1104 -1.0134  0.0615
 1023MOL0     H41125   0.084   5.738   6.195  0.4238 -0.8186 -0.3531
 1023MOL0     H41126   0.089   5.509   6.398  2.2284 -0.5777  1.2520
 1023MOL0     H41127   0.219   5.544   6.283  1.8517  1.5736  2.0567
 1023MOL0     H41128   0.248   5.770   6.370 -1.9300 -1.2384 -3.1392
 1023MOL0     H41129   0.130   5.736   6.497 -0.7107 -0.2982 -0.9443
 1023MOL0     H41130   0.347   5.696   6.593 -0.7773 -0.2554  1.8366
 1023MOL0     H41131   0.261   5.561   6.597 -0.4123  0.4545 -0.6180
 1023MOL0     H41132   0.519   5.785   6.515  0.0406 -0.7418  0.9637
 1023MOL0     H41133   0.838   5.854   6.646 -1.5919 -0.9146  1.6135
 1023MOL0     H41134   0.685   5.921   6.582  0.8366 -0.9003  0.8815
 1023MOL0     H41135   0.815   5.887   6.471 -0.2739 -1.1402 -0.0534
 1023MOL0     H41136   1.177   5.329   6.584 -4.2119  4.2795 -0.5513
 1023MOL0     H41137   1.414   5.276   6.525 -1.2039 -1.0150 -1.7195
 1023MOL0     H41138   1.663   5.297   6.507  2.9017  2.3456 -0.5352
 1023MOL0     H41139   1.602   5.230   6.354 -1.5725 -0.1240  0.3617
 1023MOL0     H41140   1.763   5.393   6.230  3.9707  0.6757  0.0838
 1023MOL0     H41141   1.818   5.438   6.394  0.7293  0.4196  0.4391
 1023MOL0     H41142   1.866   5.202   6.224  0.5890 -0.6910  0.0174
 1023MOL0     H41143   1.862   5.160   6.396 -0.2925 -0.3356 -0.6290
 1023MOL0     H41144   2.041   5.354   6.434  0.6466 -0.2256  0.2711
 1023MOL0     H41145   2.031   5.373   6.257 -0.2550  0.0634 -0.4307
 1023MOL0     H41146   2.227   5.261   6.306 -1.0238 -0.8642 -2.2965
 1023MOL0     H41147   2.149   5.130   6.391 -0.1426  1.0344  0.3969
 1023MOL0     H41148   2.117   5.210   6.102 -0.9782 -0.8488 -0.1764
 1023MOL0     H41149   2.049   5.062   6.170 -0.3102  0.5533 -1.7654
 1023MOL0     H41150   2.292   4.991   6.231 -0.0723  0.8523 -0.0427
 1023MOL0     H41151   2.344   5.096   6.096  1.2842 -2.1436 -3.7269
 1023MOL0     H41152   2.153   4.869   6.098  1.6568 -2.2144 -0.4024
 1023MOL0     H41153   2.303   4.873   6.026 -2.1738 -1.8865  1.8607
 1023MOL0     H41154   1.411   5.578   6.240  0.4153  4.6309  2.0870
 1023MOL0     H41155   1.152   5.613   6.281  0.4493 -0.1823 -2.0880
 1023MOL0     H41156   0.812   5.393   6.460 -0.0974  1.6719 -2.4741
 1023MOL0     H41157   0.574   5.365   6.428  0.7540  0.0811 -2.3301
 1023MOL0     H41158   0.203   4.925   4.910  0.2664  0.2294 -1.4507
 1023MOL0     H41159   0.269   4.875   4.674 -1.4084 -1.2732  1.8327
 1023MOL0     H41160   0.395   4.800   4.374 -1.0856 -0.0523 -0.2177
 1023MOL0     H41161   0.429   4.784   4.119  0.2909  1.6242  1.4813
 1023MOL0     H41162   0.515   4.787   3.937 -0.9796 -2.2460  2.9306
 1023MOL0     H41163   0.552   4.677   3.800 -1.5647  0.3506 -0.9620
 1023MOL0     H41164   0.302   4.647   3.973  0.5960  1.0564 -0.0306
 1023MOL0     H41165   0.356   4.539   3.847  3.9948  0.7353 -0.6396
 1023MOL0     H41166   0.356   4.720   3.686  0.2227  0.7801 -1.0558
 1023MOL0     H41167   0.191   4.692   3.746  0.3904 -1.3280 -2.3873
 1023MOL0     H41168   0.218   4.924   3.712  0.2635 -2.4011 -1.3364
 1023MOL0     H41169   0.386   4.922   3.799  0.6809  0.1007  0.5207
 1023MOL0     H41170   0.086   4.983   4.099 -0.4126 -1.5268 -0.3394
 1023MOL0     H41171   0.694   4.458   4.171  1.1335 -0.3533  1.1695
 1023MOL0     H41172   0.741   4.453   4.519  0.8764  0.8401 -0.2086
 1023MOL0     H41173   0.670   4.346   4.395  0.7017  0.8178  0.7039
 1023MOL0     H41174   0.814   4.433   4.367  0.5930  1.0865  0.8425
 1024MOL0     O41175   2.542   6.398   1.577  0.1304  0.2478  0.1912
 1024MOL0     C41176   2.426   6.439   1.586  0.9530 -0.3115 -0.2169
 1024MOL0     O41177   2.377   6.556   1.544 -0.3900  0.2563 -0.4538
 1024MOL0     C41178   2.468   6.664   1.530 -0.7381 -0.1036  0.6843
 1024MOL0     C41179   2.591   6.649   1.457 -0.7505  0.3130 -0.0339
 1024MOL0     C41180   2.676   6.762   1.453  0.5393 -1.1048  0.3816
 1024MOL0     C41181   2.633   6.887   1.515 -0.2489  0.0555 -0.0857
 1024MOL0     O41182   2.714   7.001   1.517  0.2259 -0.9402 -0.2060
 1024MOL0     C41183   2.794   7.042   1.405  0.5128 -0.6953  0.2530
 1024MOL0     C41184   2.704   7.100   1.296 -0.6247  0.2012  0.1966
 1024MOL0     C41185   2.630   6.993   1.208 -0.4416 -0.0237  0.5927
 1024MOL0     C41186   2.485   7.021   1.221 -0.7488  0.1958  0.1262
 1024MOL0     C41187   2.413   6.913   1.148 -0.2207 -1.1662 -0.5912
 1024MOL0     C41188   2.265   6.953   1.151  0.1537  0.4601  0.1935
 1024MOL0     C41189   2.187   6.872   1.053 -0.9213  0.2405 -0.4979
 1024MOL0     C41190   2.138   6.748   1.127  0.1006 -0.4201  0.6489
 1024MOL0     N41191   2.046   6.667   1.048  0.7162  0.2531  0.1578
 1024MOL0     C41192   2.067   6.638   0.916  0.0796 -0.5385 -0.1291
 1024MOL0     C41193   1.942   6.611   0.859  0.1393  0.2869 -1.5163
 1024MOL0     C41194   1.897   6.558   0.718  0.4292 -0.1935  0.2898
 1024MOL0     C41195   1.914   6.409   0.685  0.5041 -0.0518 -0.7813
 1024MOL0     C41196   1.804   6.343   0.601  0.0826 -0.7785  0.6095
 1024MOL0     C41197   1.856   6.208   0.547 -0.1570  0.1398 -0.3803
 1024MOL0     O41198   1.916   6.120   0.648  0.4162  0.5633  0.7410
 1024MOL0     C41199   1.956   6.002   0.595  0.7695  0.4407  0.2779
 1024MOL0     C41200   2.034   5.928   0.677 -0.5875 -0.1148 -0.1707
 1024MOL0     C41201   2.086   5.805   0.639 -0.0579  0.4971 -0.5559
 1024MOL0     C41202   2.169   5.746   0.754  0.6982 -0.7313 -0.1756
 1024MOL0     C41203   2.058   5.746   0.513  0.3027  0.5023 -0.1653
 1024MOL0     C41204   2.094   5.599   0.476 -0.1751 -0.1376  0.0049
 1024MOL0     O41205   2.067   5.571   0.340 -0.1018 -0.3587 -0.5425
 1024MOL0     C41206   2.081   5.443   0.295  0.1848  0.1709 -0.6066
 1024MOL0     C41207   2.017   5.334   0.359 -0.9953  0.3822 -0.1195
 1024MOL0     C41208   2.020   5.205   0.299  0.1442  0.5712  0.2809
 1024MOL0     C41209   2.077   5.180   0.175  0.7260 -0.3432 -0.1551
 1024MOL0     O41210   2.077   5.056   0.120  0.0442 -0.0129  0.5019
 1024MOL0     C41211   1.944   4.991   0.139  0.0307  0.1041 -1.2434
 1024MOL0     C41212   1.975   4.873   0.238 -0.7337 -0.6273 -0.6650
 1024MOL0     C41213   2.068   4.763   0.178 -0.3340 -0.0895 -0.1419
 1024MOL0     C41214   2.017   4.674   0.065  0.8056  0.5912 -0.0907
 1024MOL0     C41215   2.099   4.557   0.037  0.1698 -0.0542 -0.8806
 1024MOL0     C41216   2.028   4.466  -0.054  0.1349  0.2278 -0.9681
 1024MOL0     C41217   2.029   4.511  -0.200  0.1489 -0.4777  0.3698
 1024MOL0     C41218   1.958   4.409  -0.297  0.3327  0.4754 -0.9406
 1024MOL0    Cl41219   1.913   4.469  -0.448  0.0306 -0.2119 -0.2557
 1024MOL0     C41220   2.139   5.295   0.112 -0.0127 -0.3642 -0.0992
 1024MOL0     C41221   2.138   5.416   0.176 -0.1796 -0.0747  0.9637
 1024MOL0     O41222   2.154   5.519   0.553  0.1617 -0.7826  0.0026
 1024MOL0     C41223   1.982   5.823   0.425 -0.3697 -0.0649  0.4410
 1024MOL0     C41224   1.935   5.945   0.465 -0.1472 -0.1992  0.4069
 1024MOL0     N41225   1.856   6.610   0.966  0.4274 -0.5723 -0.2181
 1024MOL0     N41226   1.915   6.658   1.075 -0.4534 -0.6737 -0.2617
 1024MOL0     C41227   2.518   6.896   1.593  0.8609 -0.3652  0.2731
 1024MOL0     C41228   2.438   6.785   1.608 -0.8575 -0.2971  0.1819
 1024MOL0     C41229   2.325   6.332   1.626 -0.0518 -0.9611  0.5068
 1024MOL0     C41230   2.353   6.264   1.748  0.6264 -1.0254 -0.2804
 1024MOL0     C41231   2.268   6.171   1.803  1.2893 -0.4454 -0.2487
 1024MOL0     C41232   2.143   6.153   1.745  0.7605 -0.3840 -0.5991
 1024MOL0     O41233   2.053   6.064   1.808 -0.0431  0.9373  0.5378
 1024MOL0     C41234   1.927   6.125   1.834  0.0798 -0.6476 -0.3591
 1024MOL0     C41235   1.859   6.056   1.954  0.1224  0.2978  0.6865
 1024MOL0     C41236   1.952   6.045   2.071  0.2174  0.5374 -0.1753
 1024MOL0     C41237   1.895   5.996   2.202  0.1003 -0.3329  0.0602
 1024MOL0     C41238   1.837   5.859   2.175  0.2297  0.8940 -0.1841
 1024MOL0     C41239   1.829   5.738   2.155  0.3868  0.0389 -0.3296
 1024MOL0     C41240   2.114   6.211   1.616  0.0715 -0.2057  0.0546
 1024MOL0     C41241   2.199   6.316   1.558 -0.1641  0.1554 -1.0137
 1024MOL0     C41242   2.175   6.375   1.428  0.3981 -0.9392  0.7258
 1024MOL0     H41243   2.608   6.567   1.388  3.2373  2.8556 -2.4475
 1024MOL0     H41244   2.768   6.762   1.395  1.3667  1.3793  1.5828
 1024MOL0     H41245   2.860   6.959   1.376 -2.2932 -3.6704  1.7374
 1024MOL0     H41246   2.855   7.128   1.435 -1.7939  0.3823  2.2158
 1024MOL0     H41247   2.625   7.163   1.338 -2.5369 -1.0408 -1.3746
 1024MOL0     H41248   2.775   7.143   1.224  0.5111  1.1918  1.8561
 1024MOL0     H41249   2.649   7.007   1.101 -1.6120 -2.3661  0.0329
 1024MOL0     H41250   2.660   6.890   1.229  1.6482  0.9718  3.0533
 1024MOL0     H41251   2.456   7.027   1.326  3.9292  3.0946  1.5396
 1024MOL0     H41252   2.472   7.120   1.175  3.1858  1.3895  1.2013
 1024MOL0     H41253   2.424   6.810   1.184 -1.1967 -2.1410 -2.9002
 1024MOL0     H41254   2.448   6.924   1.045 -0.3926  1.1192 -0.4621
 1024MOL0     H41255   2.235   6.948   1.256 -1.5776  1.5660 -0.2201
 1024MOL0     H41256   2.264   7.052   1.105  0.4881  1.4218  2.1730
 1024MOL0     H41257   2.236   6.849   0.958  0.5923  0.7245  0.1329
 1024MOL0     H41258   2.097   6.931   1.036 -1.0095  0.1098 -0.4812
 1024MOL0     H41259   2.224   6.685   1.153 -1.4671 -2.4456  1.1745
 1024MOL0     H41260   2.086   6.763   1.222  0.6431  2.2423  0.6007
 1024MOL0     H41261   2.158   6.648   0.859 -1.4412 -1.3497 -2.8976
 1024MOL0     H41262   1.967   6.601   0.646  1.7879  0.1860  1.7807
 1024MOL0     H41263   1.794   6.592   0.701  0.9257  2.2621  1.7708
 1024MOL0     H41264   2.007   6.395   0.630 -0.4426 -5.0306 -1.6314
 1024MOL0     H41265   1.919   6.363   0.784  0.5600 -0.9657 -1.1959
 1024MOL0     H41266   1.708   6.343   0.655  0.8994  0.1151  2.1465
 1024MOL0     H41267   1.803   6.415   0.519  1.1307  0.9869  2.0859
 1024MOL0     H41268   1.774   6.154   0.499 -1.5704  0.0710  1.9461
 1024MOL0     H41269   1.923   6.233   0.464  1.1655  0.5566  0.7898
 1024MOL0     H41270   2.062   5.976   0.771  2.0567 -1.5390 -0.1452
 1024MOL0     H41271   2.184   5.815   0.837  0.5320 -0.8380 -0.0564
 1024MOL0     H41272   2.270   5.723   0.719 -0.1364 -2.4857 -1.6206
 1024MOL0     H41273   2.130   5.650   0.790  1.8345 -1.9512 -2.0440
 1024MOL0     H41274   1.965   5.348   0.453 -1.2733  0.5873 -0.3014
 1024MOL0     H41275   1.974   5.133   0.366  0.1899 -0.6851 -0.9788
 1024MOL0     H41276   1.863   5.047   0.186  3.2352  1.5235  3.3127
 1024MOL0     H41277   1.907   4.947   0.046 -3.0534 -0.6033  0.1757
 1024MOL0     H41278   2.031   4.905   0.326  1.8277 -0.9739 -2.0705
 1024MOL0     H41279   1.879   4.826   0.261 -1.0562 -0.1463 -0.9980
 1024MOL0     H41280   2.088   4.694   0.260 -1.0669 -1.2946 -0.9554
 1024MOL0     H41281   2.165   4.809   0.152 -0.3503 -0.9699 -1.9309
 1024MOL0     H41282   1.991   4.730  -0.025  1.1582  1.0046  0.0626
 1024MOL0     H41283   1.922   4.633   0.103  0.0879 -1.4052 -3.6261
 1024MOL0     H41284   2.193   4.593  -0.006 -1.8642  1.4758 -4.5008
 1024MOL0     H41285   2.114   4.508   0.134  0.7326  2.4088  0.3701
 1024MOL0     H41286   1.924   4.475  -0.022  0.6884  4.3325  0.2651
 1024MOL0     H41287   2.068   4.366  -0.039 -1.2466 -0.1481  0.4196
 1024MOL0     H41288   2.132   4.524  -0.235  1.1153 -2.5468  2.2027
 1024MOL0     H41289   1.985   4.611  -0.207  0.4760 -0.0419  3.1557
 1024MOL0     H41290   1.868   4.366  -0.251  2.1060 -1.9776  0.4584
 1024MOL0     H41291   2.022   4.329  -0.334  1.1851  1.3726 -1.4671
 1024MOL0     H41292   2.183   5.296   0.013  1.7520 -2.2508  0.5994
 1024MOL0     H41293   2.180   5.501   0.124 -3.2242  0.4237 -0.8935
 1024MOL0     H41294   1.942   5.785   0.332 -2.8992  0.9285  1.0569
 1024MOL0     H41295   1.884   6.005   0.391 -0.8892 -2.0424 -0.6368
 1024MOL0     H41296   2.496   6.991   1.642  2.3214 -1.0301  2.3423
 1024MOL0     H41297   2.342   6.776   1.659 -1.1888  0.6301 -0.2658
 1024MOL0     H41298   2.445   6.287   1.802  0.4167 -1.0400  0.0872
 1024MOL0     H41299   2.305   6.127   1.895  0.0510 -1.1166 -0.0370
 1024MOL0     H41300   1.938   6.233   1.849  1.6378 -0.8904  0.4367
 1024MOL0     H41301   1.858   6.109   1.751 -0.2622 -4.5960  0.4674
 1024MOL0     H41302   1.827   5.956   1.923  1.8239 -0.1045  0.1478
 1024MOL0     H41303   1.773   6.117   1.986 -1.2278 -1.7260  1.1069
 1024MOL0     H41304   2.041   5.990   2.040  1.9661  1.0508  3.4155
 1024MOL0     H41305   1.990   6.144   2.096  1.7507 -0.3287  1.0827
 1024MOL0     H41306   1.824   6.065   2.249  2.0188  0.5020  1.9385
 1024MOL0     H41307   1.980   5.984   2.271  0.2502  1.3500  0.2179
 1024MOL0     H41308   1.829   5.633   2.133  0.1264 -0.3533  1.4317
 1024MOL0     H41309   2.033   6.172   1.554  0.2082  1.4262 -1.2387
 1024MOL0     H41310   2.066   6.381   1.413  0.1538 -3.0731  1.3539
 1024MOL0     H41311   2.196   6.482   1.429 -0.4378 -0.7599  0.5443
 1024MOL0     H41312   2.228   6.329   1.344 -1.9123 -3.1111  0.3347
  11.51681  11.51681  11.51681
